/*--------------------------------*- C++ -*----------------------------------*\
| =========                 |                                                 |
| \\      /  F ield         | OpenFOAM: The Open Source CFD Toolbox           |
|  \\    /   O peration     | Version:  2212                                  |
|   \\  /    A nd           | Website:  www.openfoam.com                      |
|    \\/     M anipulation  |                                                 |
\*---------------------------------------------------------------------------*/
FoamFile
{
    version     2.0;
    format      ascii;
    arch        "LSB;label=32;scalar=64";
    class       volVectorField;
    location    "0.0638";
    object      U;
}
// * * * * * * * * * * * * * * * * * * * * * * * * * * * * * * * * * * * * * //

dimensions      [0 1 -1 0 0 0 0];

internalField   nonuniform List<vector> 
31661
(
(-79.4478 111.719 4.57133e-16)
(102.805 726.243 -1.3416e-17)
(97.7884 717.434 1.81583e-17)
(101.35 722.251 0)
(106.716 725.897 2.6797e-17)
(103.383 717.881 -3.64735e-17)
(106.048 722.262 -2.25084e-17)
(110.306 725.359 0)
(108.52 717.995 2.69493e-17)
(110.362 722.067 -3.99724e-20)
(-157.924 150.088 0)
(-181.267 670.767 -1.44478e-16)
(29.4214 24.7036 -1.17484e-16)
(0.318721 286.074 0)
(30.3524 141.264 1.99458e-16)
(70.4589 151.859 1.31015e-18)
(31.6475 131.403 0)
(-74.2162 135.285 -1.17573e-16)
(236.841 644.586 0)
(71.3619 159.602 0)
(210.133 565.191 5.83502e-17)
(205.392 565.973 -1.49109e-16)
(4.29508 399.345 -1.0778e-18)
(-103.218 201.725 3.59255e-17)
(-130.411 710.761 -1.2139e-16)
(212.052 561.665 0)
(1.52281 383.941 -3.1884e-18)
(31.6607 442.489 -6.2596e-17)
(-175.519 670.92 1.5796e-16)
(111.962 674.336 -7.94624e-17)
(-98.0491 207.525 -4.00059e-16)
(-69.8026 175.641 1.42715e-16)
(-84.2086 214.712 -7.43449e-17)
(245.652 627.197 8.14658e-17)
(-67.4838 619.317 -2.74307e-17)
(-84.6389 223.181 7.50772e-17)
(274.387 597.403 -2.39551e-16)
(-80.2128 223.322 -1.53678e-17)
(-16.07 430.082 -1.51724e-16)
(-115.007 291.055 -3.82522e-19)
(119.589 376.357 -2.22952e-16)
(90.9002 730.199 9.3415e-20)
(45.7715 237.717 1.54174e-16)
(18.9614 596.508 -2.03616e-16)
(17.4498 590.59 -2.13279e-16)
(173.247 660.217 -9.70861e-17)
(23.3568 593.622 -1.024e-16)
(215.497 599.883 -1.04287e-16)
(278.015 599.059 0)
(1.4152 371.761 0)
(139.562 462.023 0)
(-3.68092 399.313 -2.88848e-17)
(-169.906 653.013 -4.7848e-17)
(230.508 601.373 9.45867e-17)
(48.8813 468.472 -1.18323e-16)
(-214.06 659.021 7.9421e-17)
(-183.04 646.667 -9.53831e-17)
(-155.921 641.675 -5.04981e-17)
(13.0953 630.314 -1.45948e-16)
(-213.019 652.624 -2.087e-16)
(-186.155 661.214 1.70746e-16)
(-197.688 660.235 0)
(-94.3399 603.166 -2.25518e-16)
(-60.8337 747.5 0)
(-264.795 594.558 0)
(129.847 239.41 0)
(-83.3942 51.503 2.69314e-16)
(12.467 642.156 4.62828e-17)
(11.9956 655.223 9.52204e-18)
(13.6439 667.571 6.95845e-17)
(-185.387 675.984 -6.85855e-17)
(12.2322 683.266 -1.80639e-17)
(10.247 694.915 0)
(8.69055 705.702 4.41366e-18)
(7.63538 715.253 3.46202e-17)
(6.78133 724.098 -3.32274e-17)
(6.00347 731.92 0)
(5.29144 738.898 0)
(4.62907 744.932 0)
(4.0339 750.149 0)
(3.51994 754.538 -1.94707e-18)
(3.08099 758.197 -1.92401e-17)
(2.73153 761.179 1.54779e-17)
(2.46823 763.582 -3.84725e-18)
(4.10171 762.983 1.92554e-17)
(5.60861 760.494 1.62987e-19)
(7.36847 757.415 -1.53932e-17)
(9.42118 753.654 3.90125e-18)
(11.7329 749.17 0)
(14.346 743.897 1.00845e-18)
(17.1718 737.825 0)
(20.2563 730.904 -3.39006e-17)
(23.4465 723.175 3.26155e-17)
(26.8781 714.563 -1.07861e-18)
(30.0988 705.292 3.88955e-17)
(33.7327 695.345 -3.57678e-17)
(37.5452 685.133 -4.99135e-19)
(42.2428 675.186 1.98867e-17)
(42.508 665.011 0)
(41.7774 654.573 -5.18406e-18)
(42.0165 643.717 4.99308e-18)
(41.9525 633.886 3.96314e-17)
(42.3406 625.042 -5.66199e-18)
(11.6748 616.415 7.68453e-17)
(38.0988 616.337 -4.73564e-17)
(8.75462 606.814 2.1691e-17)
(33.4217 608.028 3.21303e-17)
(7.09185 598.571 3.38686e-17)
(29.2702 600.347 -5.63105e-18)
(5.94585 591.509 -2.47808e-17)
(25.3809 593.555 2.60482e-17)
(5.02213 585.561 0)
(21.675 587.672 -4.71427e-17)
(4.22842 580.624 0)
(18.2208 582.653 2.34084e-17)
(3.54065 576.578 0)
(15.117 578.439 0)
(2.96097 573.292 -9.11884e-20)
(12.4238 574.942 9.22284e-20)
(2.47678 570.637 -1.84161e-19)
(10.1443 572.062 -5.96524e-18)
(2.07511 568.496 1.84855e-19)
(8.25815 569.707 1.16899e-17)
(1.74851 566.766 5.90799e-18)
(6.73208 567.786 -1.19316e-17)
(1.48413 565.361 -5.95457e-18)
(5.51179 566.217 5.9513e-18)
(1.26951 564.21 -6.17193e-18)
(4.54653 564.93 -2.94808e-18)
(1.09667 563.256 -4.09443e-20)
(3.78832 563.866 -2.56669e-20)
(0.95463 562.454 6.01846e-18)
(3.1931 562.977 3.05598e-18)
(0.835843 561.77 1.89165e-19)
(2.72565 562.223 3.03299e-18)
(0.735216 561.174 0)
(2.35709 561.572 -2.97866e-18)
(0.647823 560.645 3.04278e-18)
(2.06559 561 3.1386e-18)
(0.570176 560.162 1.05129e-19)
(1.83316 560.483 1.07395e-20)
(0.499147 559.71 9.34669e-21)
(1.64708 560.003 -3.01485e-18)
(0.432802 559.274 -6.1899e-18)
(1.49793 559.545 9.52865e-20)
(0.369603 558.843 6.00756e-18)
(1.37903 559.094 0)
(0.308349 558.403 -3.05014e-18)
(1.28532 558.636 4.77213e-20)
(0.247651 557.941 -6.0249e-18)
(1.2139 558.16 0)
(0.18655 557.445 5.82311e-18)
(1.16268 557.649 9.56081e-20)
(0.124298 556.901 3.06755e-18)
(1.1305 557.092 9.57038e-20)
(0.0602098 556.294 -9.30003e-18)
(1.11718 556.472 -3.07151e-18)
(-0.00674317 555.606 3.05135e-18)
(1.12271 555.772 -3.0875e-18)
(-0.0774485 554.819 -1.28415e-20)
(1.1481 554.972 3.05308e-18)
(-0.152779 553.91 -1.45252e-20)
(1.1944 554.051 -1.46593e-20)
(-0.234455 552.853 9.43174e-18)
(1.26266 552.982 3.0699e-18)
(-0.323678 551.619 -6.14463e-18)
(1.35507 551.735 -1.1607e-18)
(-0.422275 550.172 -3.85676e-19)
(1.47467 550.274 1.53751e-18)
(1.62342 548.557 -3.86231e-19)
(-0.532128 548.468 1.93691e-18)
(-2.69108 548.3 -1.17798e-18)
(-2.3223 550.035 -1.1629e-18)
(-2.00591 551.509 0)
(-1.73443 552.766 1.34267e-18)
(-1.50241 553.843 -3.26648e-18)
(-1.30473 554.77 -1.52649e-18)
(-1.13763 555.573 2.88242e-18)
(-0.997435 556.275 -3.0609e-18)
(-0.881672 556.895 3.06861e-18)
(-0.788293 557.451 6.30263e-18)
(-0.71583 557.958 -9.17676e-18)
(-0.663891 558.431 -2.94572e-18)
(-0.632039 558.882 1.23005e-17)
(-0.621219 559.324 -1.80309e-20)
(-0.633129 559.771 -3.05796e-18)
(-0.670745 560.236 -1.04251e-20)
(-0.739146 560.733 -1.15155e-20)
(-0.844704 561.28 -3.03711e-18)
(-0.996904 561.897 -6.22334e-18)
(-1.20873 562.607 3.04372e-18)
(-1.49693 563.441 6.01629e-18)
(-1.8831 564.437 6.80879e-20)
(-2.39263 565.64 -5.97781e-18)
(-3.05632 567.111 -2.82419e-18)
(-3.90831 568.921 5.59617e-18)
(-4.97873 571.16 5.49191e-19)
(-6.29616 573.929 0)
(-7.86217 577.344 0)
(-9.65948 581.528 1.41616e-18)
(-11.6213 586.604 -1.1065e-17)
(-13.5949 592.688 1.14133e-17)
(-15.2963 599.885 -2.66946e-17)
(-16.2131 608.333 -1.98464e-17)
(-15.54 618.258 2.98141e-17)
(-15.1001 628.791 8.59524e-18)
(-18.5162 641.698 -3.48728e-18)
(-17.5605 655 -9.13196e-18)
(-15.2025 668.258 0)
(-13.4797 680.306 -6.46592e-17)
(-15.3369 692.566 3.83473e-17)
(-13.9315 703.485 -2.3272e-18)
(-12.4352 713.442 6.82598e-17)
(-10.541 722.493 -1.7876e-17)
(-8.74869 730.563 -3.29018e-17)
(-6.96345 737.712 -1.53843e-17)
(-5.37484 743.917 6.17095e-17)
(2.83534 764.952 1.14359e-17)
(2.2819 765.471 7.62814e-18)
(-3.88058 749.256 -4.93589e-17)
(-2.56635 753.746 3.12008e-17)
(-1.36556 757.486 -1.17399e-17)
(-0.274387 760.552 -1.53513e-17)
(0.733987 763.036 1.5407e-17)
(2.1803 766.888 0)
(1.77765 766.446 -2.67293e-17)
(1.61819 765.114 1.5343e-17)
(3.66588 763.406 3.82285e-18)
(6.05995 761.206 0)
(8.84081 758.468 -7.79899e-18)
(12.0269 755.128 9.73437e-18)
(15.6701 751.109 -1.94921e-18)
(19.7526 746.36 -1.71516e-17)
(24.2801 740.854 -1.45885e-18)
(29.1716 734.576 1.61861e-17)
(34.4169 727.537 1.74106e-17)
(39.8076 719.78 -1.67486e-17)
(45.4045 711.307 -1.11411e-18)
(50.8469 702.28 -4.5287e-18)
(56.2566 692.825 0)
(61.6441 682.983 -9.8959e-18)
(66.1274 673.282 9.69163e-18)
(68.2734 663.851 0)
(69.0882 654.395 3.88652e-18)
(69.3179 645.132 -6.50029e-18)
(68.8097 636.354 -1.90745e-17)
(66.7679 628.152 2.0148e-18)
(62.2948 620.195 0)
(56.82 612.473 1.1282e-17)
(50.9593 605.303 -2.29579e-17)
(44.9635 598.733 2.21185e-17)
(38.9917 592.798 2.15093e-18)
(33.2735 587.517 -2.69212e-20)
(27.9628 582.882 1.18165e-17)
(23.2217 578.882 -1.15241e-17)
(19.1024 575.478 0)
(15.6165 572.621 -2.28159e-20)
(12.731 570.243 2.29653e-20)
(10.3856 568.277 0)
(8.50753 566.658 -2.3569e-20)
(7.01788 565.32 -3.01607e-18)
(5.84671 564.21 -7.07777e-20)
(4.93065 563.281 3.02505e-18)
(4.21679 562.491 2.99147e-18)
(3.66048 561.808 -3.12675e-18)
(3.22806 561.201 1.52289e-18)
(2.89325 560.648 -1.54291e-18)
(2.6366 560.129 4.75746e-20)
(2.44404 559.626 4.76197e-20)
(2.30623 559.122 -4.50571e-23)
(2.21589 558.603 -4.77535e-20)
(2.16942 558.053 1.53257e-18)
(2.16448 557.457 -1.71978e-18)
(2.2002 556.798 1.63231e-18)
(2.27817 556.059 -1.53255e-18)
(2.39976 555.219 1.73277e-18)
(2.56884 554.256 -1.53476e-18)
(2.78926 553.142 1.54494e-18)
(3.06654 551.847 -3.75497e-19)
(3.40626 550.334 -1.92488e-18)
(3.81565 548.56 0)
(4.30307 546.476 -1.55507e-18)
(1.80455 546.533 -3.86767e-19)
(-0.655601 546.456 -1.54786e-18)
(-3.12 546.253 -8.03546e-19)
(-5.63434 545.918 0)
(-4.89791 548.048 -3.85934e-19)
(-4.26613 549.857 1.53847e-18)
(-3.72779 551.397 -1.74002e-18)
(-3.27104 552.714 0)
(-2.88509 553.844 1.92149e-19)
(-2.56286 554.819 -1.53323e-18)
(-2.29685 555.667 1.63403e-18)
(-2.08219 556.41 1.91704e-19)
(-1.91423 557.07 0)
(-1.79024 557.663 0)
(-1.70865 558.207 -1.43427e-19)
(-1.66919 558.717 1.42974e-18)
(-1.67294 559.207 -1.0002e-19)
(-1.72358 559.691 -1.33622e-18)
(-1.8269 560.186 -1.51931e-18)
(-1.99221 560.706 1.42798e-18)
(-2.23248 561.269 1.51422e-18)
(-2.56595 561.897 -1.14038e-18)
(-3.01716 562.614 0)
(-3.61876 563.45 0)
(-4.41184 564.442 0)
(-5.44751 565.635 0)
(-6.78585 567.085 -1.48107e-18)
(-8.49365 568.854 1.49379e-18)
(-10.6399 571.019 3.70841e-19)
(-13.2834 573.661 -3.26204e-18)
(-16.4696 576.869 2.22416e-18)
(-20.1971 580.73 1.41022e-18)
(-24.4171 585.323 -4.41806e-20)
(-28.9904 590.716 5.4737e-18)
(-33.6897 596.962 -5.63414e-18)
(-38.1536 604.096 -5.1645e-18)
(-41.8913 612.145 -4.58235e-18)
(-44.5378 621.065 -1.50194e-17)
(-46.0288 631.198 3.02199e-19)
(-48.3443 642.202 4.74704e-18)
(-47.9901 653.933 -1.78946e-17)
(-45.9612 665.675 3.62044e-17)
(-42.9378 677.518 -1.38671e-17)
(-40.7111 688.658 0)
(-37.1497 699.378 3.82129e-17)
(-33.0531 709.345 -3.51129e-17)
(-28.6003 718.552 -1.64202e-17)
(-24.2353 726.873 1.6315e-17)
(-20.0013 734.318 -1.59897e-17)
(-16.1328 740.832 3.60495e-17)
(-12.5734 746.456 -2.97056e-17)
(-9.38357 751.23 3.05385e-19)
(1.64821 764.993 -7.63666e-18)
(-6.48481 755.252 1.96121e-17)
(-3.88452 758.59 0)
(-1.54906 761.316 0)
(-0.0991567 766.382 -1.53199e-17)
(0.928089 767.522 -3.79236e-18)
(2.49955 766.469 0)
(2.14145 767.901 3.81979e-18)
(-1.52972 767.292 -1.52881e-17)
(-2.88898 765.593 7.68167e-18)
(-0.62675 764.426 -7.67889e-18)
(2.0386 762.83 -1.1562e-17)
(5.15105 760.78 -6.36345e-20)
(8.73474 758.213 -8.66257e-20)
(12.839 755.078 7.77214e-18)
(17.4879 751.315 -1.95514e-18)
(22.7055 746.88 -1.0131e-18)
(28.5005 741.722 9.96214e-19)
(34.8248 735.846 0)
(41.6072 729.261 -5.33066e-19)
(48.7476 722 -8.95237e-18)
(56.0548 714.156 7.97816e-18)
(63.371 705.826 1.09181e-18)
(70.4507 697.153 1.07313e-18)
(77.1269 688.261 0)
(83.2671 679.29 4.92882e-18)
(88.124 670.628 -4.97276e-18)
(90.9894 662.373 -7.70229e-18)
(92.3892 654.357 -1.33701e-18)
(92.5782 646.649 0)
(91.5849 639.335 5.43086e-18)
(88.9102 632.379 -1.96622e-18)
(84.1783 625.552 0)
(78.2875 618.819 -5.85751e-18)
(71.6454 612.326 1.94828e-17)
(64.5065 606.11 -9.59776e-18)
(57.1461 600.224 -3.4398e-20)
(49.7884 594.698 -7.30583e-19)
(42.7186 589.606 -1.13922e-17)
(36.1436 584.995 1.73216e-17)
(30.2176 580.904 -5.77331e-18)
(25.0144 577.34 2.03955e-19)
(20.5618 574.283 5.96548e-18)
(16.84 571.702 -2.89845e-18)
(13.7824 569.542 -2.96732e-18)
(11.31 567.746 0)
(9.34164 566.257 -3.02932e-18)
(7.79044 565.021 2.94882e-18)
(6.57634 563.983 0)
(5.6344 563.1 3.04443e-18)
(4.90777 562.333 -3.03338e-18)
(4.35399 561.65 0)
(3.9379 561.022 -9.52043e-20)
(3.63456 560.426 -4.77126e-20)
(3.42564 559.842 -1.57868e-18)
(3.29833 559.251 4.25439e-20)
(3.24413 558.634 1.52884e-18)
(3.25828 557.972 1.91431e-19)
(3.3399 557.249 1.53763e-18)
(3.48848 556.444 -1.53342e-18)
(3.70764 555.537 1.3499e-18)
(4.00157 554.501 -1.53647e-18)
(4.37723 553.311 1.35427e-18)
(4.84261 551.932 -1.53946e-18)
(5.40751 550.328 -9.79664e-22)
(6.08346 548.455 -7.78553e-19)
(6.88224 546.263 7.68782e-19)
(7.81675 543.692 1.16366e-18)
(4.87654 544.021 -4.4612e-21)
(2.02161 544.144 3.88481e-19)
(-0.794124 544.079 1.54341e-18)
(-3.61546 543.835 3.87016e-18)
(-6.48979 543.407 7.75222e-19)
(-9.46209 542.782 -2.33257e-18)
(-8.24494 545.434 1.56183e-18)
(-7.19446 547.692 -3.82846e-19)
(-6.29431 549.619 7.76291e-19)
(-5.52703 551.265 -5.57068e-22)
(-4.87743 552.677 0)
(-4.33257 553.894 1.34292e-18)
(-3.88076 554.948 -1.63833e-18)
(-3.51367 555.868 1.92053e-19)
(-3.22304 556.68 -1.91647e-19)
(-3.00375 557.405 -9.58705e-20)
(-2.85285 558.062 0)
(-2.76915 558.67 1.528e-18)
(-2.75357 559.245 -5.15298e-21)
(-2.81047 559.806 -1.43364e-18)
(-2.94791 560.369 -1.90701e-19)
(-3.17886 560.953 -1.51906e-18)
(-3.52148 561.58 3.0398e-18)
(-4.00086 562.271 -2.65588e-18)
(-4.65043 563.057 -5.58312e-19)
(-5.51502 563.97 1.51499e-18)
(-6.64918 565.05 -3.73827e-19)
(-8.12069 566.346 0)
(-10.008 567.913 3.69392e-19)
(-12.3971 569.813 7.36312e-19)
(-15.3742 572.112 -1.83842e-18)
(-19.0171 574.878 1.68279e-20)
(-23.3754 578.173 1.95547e-20)
(-28.4704 582.047 2.16806e-18)
(-34.2403 586.533 -7.75162e-19)
(-40.5615 591.634 -4.23023e-18)
(-47.2175 597.34 -1.35167e-18)
(-53.9105 603.624 1.38712e-18)
(-60.2372 610.451 -5.72744e-18)
(-65.7485 617.789 1.33933e-17)
(-70.0262 625.648 -2.60512e-18)
(-72.9714 634.233 -3.09584e-19)
(-75.1787 643.406 0)
(-75.0125 653.134 1.94957e-17)
(-72.9559 663.171 -1.79676e-17)
(-69.4249 673.495 -5.62831e-18)
(-65.2195 683.658 0)
(-59.8327 693.69 1.28071e-17)
(-53.7218 703.338 -3.46361e-17)
(-47.1483 712.505 1.74358e-17)
(-40.4785 721.032 -5.55301e-19)
(-34.0307 728.79 1.61272e-17)
(-28.011 735.679 -1.84491e-17)
(-22.4356 741.721 0)
(-17.3185 746.962 1.16372e-17)
(-12.6598 751.447 -3.53198e-17)
(0.53272 763.496 -7.65136e-18)
(-8.47979 755.219 2.72769e-17)
(-4.73541 758.346 -1.95223e-17)
(0.230179 768.299 -3.40612e-21)
(-4.82552 766.406 0)
(-2.78217 767.937 7.62629e-18)
(2.39996 765.178 7.67675e-18)
(3.27754 767.529 -7.65296e-18)
(2.14884 768.647 -7.45481e-18)
(-6.52977 766.99 -3.85633e-18)
(-8.6348 765.041 -1.15846e-17)
(-6.28087 764.233 3.83528e-18)
(-3.53265 763.092 2.24792e-20)
(-0.313751 761.539 -9.68827e-18)
(3.40075 759.519 -1.96799e-18)
(7.67076 757.002 1.98192e-18)
(12.5295 753.935 -7.93563e-18)
(18.0236 750.266 6.86727e-18)
(24.1724 745.952 -5.1114e-19)
(30.9841 740.963 9.9752e-19)
(38.4187 735.292 0)
(46.4012 728.966 -8.52737e-18)
(54.7925 722.051 8.60453e-18)
(63.4579 714.615 2.78713e-19)
(72.1181 706.816 -1.42446e-19)
(80.5639 698.785 0)
(88.4973 690.689 1.13051e-18)
(95.6827 682.682 1.20903e-18)
(101.915 674.912 0)
(106.665 667.604 1.52832e-19)
(109.694 660.803 7.56613e-18)
(111.215 654.357 -1.22951e-18)
(111.345 648.265 0)
(110.123 642.483 5.33035e-18)
(107.427 636.911 -5.34027e-18)
(103.04 631.362 2.64015e-18)
(97.43 625.765 -5.52604e-18)
(90.8757 620.153 2.79678e-18)
(83.5762 614.536 -1.41556e-18)
(75.745 608.939 -1.39573e-18)
(67.6155 603.424 -3.428e-19)
(59.4472 598.073 5.43539e-18)
(51.4956 592.978 -1.14935e-17)
(43.9982 588.234 1.16085e-17)
(37.1269 583.919 -8.91517e-18)
(30.991 580.068 2.90164e-18)
(25.6513 576.701 0)
(21.1131 573.808 3.01674e-18)
(17.336 571.359 -2.96052e-18)
(14.2544 569.305 4.6355e-20)
(11.7817 567.592 1.54083e-18)
(9.82536 566.162 -1.48068e-18)
(8.29478 564.958 1.52122e-18)
(7.11368 563.93 -1.51393e-18)
(6.21474 563.035 0)
(5.54432 562.234 1.57553e-18)
(5.05921 561.493 -2.28693e-18)
(4.72805 560.784 7.62686e-19)
(4.52689 560.083 -4.7785e-20)
(4.44033 559.366 0)
(4.45789 558.61 -8.64417e-19)
(4.5746 557.794 7.66157e-19)
(4.78974 556.896 6.74808e-19)
(5.10522 555.891 -7.68363e-19)
(5.52694 554.754 0)
(6.06205 553.453 3.863e-19)
(6.72169 551.957 0)
(7.5187 550.224 7.76114e-19)
(8.46782 548.21 3.74358e-21)
(9.58436 545.865 -4.34393e-19)
(10.8845 543.131 -1.47457e-19)
(12.3823 539.943 -2.94065e-19)
(8.9004 540.676 5.86501e-19)
(5.54492 541.127 -7.80452e-19)
(2.27651 541.318 3.89662e-19)
(-0.951752 541.264 0)
(-4.18601 540.974 -7.58453e-19)
(-7.47466 540.445 2.34827e-18)
(-10.8614 539.665 1.55056e-18)
(-14.3865 538.619 0)
(-12.5724 541.936 -1.16936e-18)
(-10.9903 544.776 1.15763e-18)
(-9.62004 547.207 -2.33849e-18)
(-8.44215 549.291 -7.71412e-19)
(-7.43814 551.081 1.74027e-18)
(-6.58887 552.624 -7.75145e-19)
(-5.87807 553.96 1.92476e-19)
(-5.29287 555.124 -1.93656e-22)
(-4.82115 556.146 1.43108e-22)
(-4.4549 557.055 0)
(-4.18915 557.872 9.59021e-20)
(-4.02075 558.622 9.57866e-20)
(-3.95043 559.324 8.11915e-19)
(-3.98372 559.999 -7.66556e-19)
(-4.13005 560.67 1.90628e-19)
(-4.4057 561.357 -7.60718e-19)
(-4.83442 562.087 1.93666e-19)
(-5.4483 562.887 1.32991e-18)
(-6.29026 563.791 -1.8958e-18)
(-7.4144 564.839 9.48703e-19)
(-8.88853 566.075 -1.09238e-21)
(-10.7912 567.551 7.55189e-19)
(-13.2115 569.326 1.85346e-19)
(-16.2432 571.46 -5.62967e-19)
(-19.9751 574.015 -1.14101e-20)
(-24.4771 577.042 3.83979e-19)
(-29.7917 580.583 -7.09452e-19)
(-35.9132 584.657 0)
(-42.7749 589.247 1.38412e-18)
(-50.2192 594.318 -1.37683e-18)
(-58.0441 599.796 4.17933e-18)
(-65.9539 605.6 0)
(-73.6398 611.653 -5.24512e-18)
(-80.7382 617.893 5.38085e-18)
(-86.8789 624.281 5.0926e-18)
(-91.7608 630.859 0)
(-95.2457 637.767 1.23508e-18)
(-97.4142 645.041 0)
(-97.4976 652.708 1.65752e-20)
(-95.6907 660.776 1.71932e-17)
(-92.1518 669.28 -1.75934e-17)
(-87.2381 678.049 1.77235e-17)
(-80.9838 686.996 -1.72707e-17)
(-73.7064 695.961 0)
(-65.6815 704.818 0)
(-57.3377 713.329 2.12648e-18)
(-49.1079 721.278 0)
(-41.1963 728.539 1.61781e-17)
(-33.6677 735.107 -5.00209e-19)
(-26.6469 740.943 -8.22411e-18)
(-20.2172 746.028 -1.57882e-17)
(-14.4132 750.369 3.95498e-17)
(-1.39683 760.896 0)
(-9.1628 754.053 3.65022e-18)
(-0.372762 768.828 1.52438e-17)
(-3.8809 768.326 1.52929e-17)
(1.57339 762.911 0)
(-10.7256 765.595 2.70143e-17)
(-7.99606 767.305 7.68034e-18)
(4.06189 766.403 7.65613e-18)
(3.99518 768.294 0)
(2.18916 769.12 1.67152e-17)
(-12.532 765.884 -1.54026e-17)
(-15.1939 763.844 0)
(-12.762 763.272 5.80605e-18)
(-9.99631 762.457 -7.76093e-18)
(-6.80122 761.279 3.85863e-18)
(-3.09691 759.676 -7.82608e-18)
(1.1778 757.629 9.74064e-18)
(6.05714 755.076 1.94511e-18)
(11.592 751.979 -1.95541e-18)
(17.8203 748.291 -5.0996e-19)
(24.7609 743.981 1.51051e-18)
(32.4092 739.028 -3.9049e-18)
(40.7274 733.437 1.4352e-19)
(49.6257 727.249 4.27938e-18)
(58.9713 720.532 -6.8909e-20)
(68.5767 713.394 -4.11308e-18)
(78.1983 705.978 4.07954e-18)
(87.5507 698.459 -8.12964e-21)
(96.3576 691.013 -5.0155e-18)
(104.358 683.786 4.60409e-18)
(111.35 676.915 -3.61624e-18)
(117.11 670.517 1.14871e-18)
(121.381 664.679 1.26014e-18)
(124.173 659.351 6.35205e-19)
(125.583 654.407 -3.23336e-19)
(125.69 649.792 6.43812e-19)
(124.542 645.406 1.00063e-18)
(122.191 641.121 -1.46233e-18)
(118.498 636.791 0)
(113.682 632.327 0)
(107.884 627.703 0)
(101.211 622.893 2.76691e-18)
(93.7878 617.895 -2.33254e-18)
(85.7688 612.742 1.89706e-20)
(77.3473 607.495 -2.85494e-18)
(68.7507 602.249 2.86817e-18)
(60.2433 597.119 2.9145e-18)
(52.0415 592.211 -2.75199e-18)
(44.3589 587.619 2.9567e-18)
(37.3675 583.431 -2.8928e-18)
(31.1746 579.7 -2.98137e-18)
(25.811 576.43 2.93463e-18)
(21.2851 573.622 -9.31516e-20)
(17.5473 571.24 2.37311e-20)
(14.5179 569.233 -1.54187e-18)
(12.1087 567.544 -1.74621e-20)
(10.2236 566.115 1.50899e-18)
(8.77751 564.89 1.18076e-20)
(7.69129 563.818 0)
(6.90115 562.854 0)
(6.35443 561.958 8.14066e-19)
(6.01198 561.095 -7.15995e-19)
(5.84432 560.233 -7.21005e-19)
(5.83205 559.345 6.7022e-19)
(5.96262 558.403 2.8939e-19)
(6.23147 557.379 -2.87828e-19)
(6.63794 556.246 -9.65397e-20)
(7.18589 554.974 0)
(7.88398 553.531 -3.88046e-19)
(8.7436 551.881 -1.9737e-19)
(9.77989 549.981 3.86901e-19)
(11.0092 547.787 4.8964e-20)
(12.4492 545.248 -4.38273e-19)
(14.1163 542.307 9.85715e-19)
(16.025 538.903 -6.83865e-19)
(18.1842 534.966 -6.15589e-21)
(14.0894 536.226 6.18339e-21)
(10.1438 537.136 0)
(6.31795 537.713 1.95641e-19)
(2.57498 537.971 -1.95725e-19)
(-1.12927 537.926 3.93896e-19)
(-4.83919 537.584 -2.33355e-18)
(-8.60113 536.946 -7.71422e-19)
(-12.457 536.005 -7.86415e-19)
(-16.4419 534.753 7.83198e-19)
(-18.0799 537.287 1.56022e-18)
(-15.8601 540.84 -4.10424e-19)
(-13.9098 543.908 -7.88683e-19)
(-12.2134 546.554 3.88237e-19)
(-10.7506 548.835 0)
(-9.50007 550.807 0)
(-8.44296 552.516 0)
(-7.56047 554.005 0)
(-6.83758 555.31 9.63044e-20)
(-6.26245 556.465 1.62786e-22)
(-5.82659 557.5 2.8758e-19)
(-5.52623 558.443 -3.8495e-19)
(-5.36198 559.319 2.86827e-19)
(-5.33848 560.154 -2.88323e-19)
(-5.46877 560.973 -4.77315e-19)
(-5.77255 561.806 1.91687e-19)
(-6.27884 562.682 1.89955e-19)
(-7.02805 563.637 -1.90781e-19)
(-8.07193 564.709 5.68417e-19)
(-9.47657 565.945 -4.80307e-21)
(-11.3183 567.397 0)
(-13.6861 569.12 -3.73156e-19)
(-16.674 571.176 -5.88425e-21)
(-20.3738 573.622 0)
(-24.858 576.508 0)
(-30.1861 579.877 0)
(-36.3586 583.737 -1.43104e-18)
(-43.3339 588.079 2.19604e-18)
(-51.0047 592.86 0)
(-59.1971 597.993 -2.80692e-18)
(-67.6578 603.376 -1.37165e-18)
(-76.1451 608.898 1.37932e-18)
(-84.3602 614.455 0)
(-92.0315 619.959 -2.59849e-18)
(-98.9048 625.368 0)
(-104.764 630.682 -5.23601e-18)
(-109.43 635.957 -9.95795e-18)
(-112.786 641.31 2.97297e-17)
(-114.78 646.832 -1.97338e-18)
(-115.036 652.612 -3.99932e-17)
(-113.598 658.774 8.11917e-19)
(-110.477 665.425 1.89894e-17)
(-105.791 672.533 -1.81641e-17)
(-99.5843 680.087 -2.3347e-19)
(-92.0801 688.007 1.16438e-18)
(-83.5185 696.157 1.80832e-17)
(-74.3349 704.304 -2.17271e-18)
(-64.93 712.211 0)
(-55.5262 719.744 0)
(-46.3267 726.797 0)
(-37.578 733.236 -8.20504e-18)
(-29.4898 738.944 -1.60283e-17)
(-22.0214 743.968 2.81172e-17)
(-4.47378 757.108 -1.5672e-17)
(-15.2083 748.34 -1.60788e-17)
(-20.5785 533.181 7.93711e-19)
(-9.05997 752.048 0)
(-0.883368 769.089 3.83426e-18)
(-0.295939 759.606 7.75483e-18)
(-4.7721 768.458 -1.91571e-17)
(4.20274 764.467 -7.7594e-18)
(-9.24483 767.366 0)
(5.52904 767.285 0)
(-17.3103 764.149 0)
(-14.0815 765.925 -7.75813e-18)
(4.68409 768.816 -3.81874e-18)
(2.23276 769.303 2.5331e-20)
(-19.1339 764.205 -3.90948e-18)
(-22.2069 762.146 -1.17311e-17)
(-19.7943 761.801 1.56378e-17)
(-17.0222 761.197 -9.78895e-18)
(-13.8815 760.308 1.95652e-17)
(-10.2531 759.054 -5.84355e-18)
(-6.0549 757.38 7.8916e-18)
(-1.26525 755.24 -7.86614e-18)
(4.18634 752.596 1.01056e-18)
(10.3388 749.404 0)
(17.23 745.627 -4.07829e-18)
(24.8725 741.239 4.53504e-18)
(33.2455 736.235 -5.05178e-19)
(42.2913 730.643 2.381e-18)
(51.9203 724.502 -2.34978e-18)
(61.9673 717.907 -1.31229e-19)
(72.2264 710.984 3.11797e-20)
(82.4502 703.884 -6.77841e-20)
(92.3472 696.795 -2.39929e-18)
(101.65 689.886 4.55738e-20)
(110.109 683.314 2.59714e-18)
(117.516 677.197 1.21977e-18)
(123.771 671.606 -2.4327e-18)
(128.732 666.586 2.3088e-18)
(132.358 662.129 -2.46579e-18)
(134.734 658.128 1.073e-20)
(135.966 654.473 0)
(136.113 651.084 8.10378e-20)
(135.261 647.85 5.73612e-19)
(133.433 644.643 -4.81225e-19)
(130.576 641.365 -6.63754e-19)
(126.773 637.925 6.53944e-19)
(122.069 634.275 0)
(116.494 630.365 0)
(110.083 626.169 6.78719e-19)
(102.897 621.679 1.83802e-19)
(95.0368 616.918 0)
(86.651 611.941 -8.97769e-20)
(77.9356 606.832 0)
(69.1082 601.696 1.35593e-18)
(60.4111 596.65 -1.41118e-18)
(52.0887 591.818 0)
(44.3376 587.299 -2.34275e-20)
(37.3216 583.175 -2.23966e-20)
(31.1346 579.494 5.00665e-20)
(25.8195 576.27 0)
(21.3665 573.493 0)
(17.7179 571.122 0)
(14.7964 569.108 -7.61481e-19)
(12.5067 567.389 7.30663e-19)
(10.7574 565.907 2.36067e-20)
(9.46027 564.602 0)
(8.54089 563.422 3.35803e-19)
(7.9365 562.318 -7.66033e-19)
(7.59932 561.249 1.10475e-18)
(7.4931 560.174 -2.85007e-19)
(7.59447 559.059 -6.74183e-19)
(7.88688 557.868 -2.37847e-21)
(8.36743 556.569 4.81868e-19)
(9.0342 555.127 -1.94333e-19)
(9.89354 553.505 -3.90177e-19)
(10.9555 551.664 3.85992e-19)
(12.2357 549.56 1.94039e-19)
(13.7504 547.147 1.96266e-19)
(15.5162 544.374 3.95175e-19)
(17.5487 541.188 -4.90221e-19)
(19.8585 537.531 0)
(22.4488 533.346 8.03209e-19)
(25.3082 528.575 1.72737e-20)
(20.5914 530.425 7.5445e-19)
(16.0083 531.895 4.97178e-20)
(11.5513 532.979 7.97298e-19)
(7.19889 533.68 -7.94958e-19)
(2.91938 534.005 -3.96685e-19)
(-1.32614 533.964 3.65771e-21)
(-5.57815 533.565 4.35279e-21)
(-9.87418 532.814 7.88306e-19)
(-14.2527 531.71 8.06893e-19)
(-18.7391 530.256 0)
(-23.3473 528.458 1.60428e-18)
(-24.8798 531.286 7.82788e-19)
(-21.9673 535.649 -2.7766e-20)
(-19.3541 539.467 -1.58712e-18)
(-17.0409 542.796 3.90565e-19)
(-15.0138 545.693 0)
(-13.2589 548.21 1.95609e-19)
(-11.7562 550.4 -9.75496e-20)
(-10.4846 552.311 -1.93275e-19)
(-9.4272 553.987 1.9443e-19)
(-8.56843 555.468 0)
(-7.89744 556.791 -9.63916e-20)
(-7.40896 557.99 4.8061e-19)
(-7.10406 559.098 -1.94018e-19)
(-6.98673 560.146 -1.92565e-19)
(-7.07396 561.167 -2.98619e-22)
(-7.38982 562.195 4.66629e-22)
(-7.97019 563.268 1.903e-19)
(-8.86316 564.43 -7.61956e-19)
(-10.1308 565.726 1.92761e-19)
(-11.8482 567.21 2.19614e-21)
(-14.1022 568.94 -5.1157e-20)
(-16.9862 570.977 -3.22707e-19)
(-20.5919 573.38 2.92801e-21)
(-25.0001 576.202 -7.38824e-19)
(-30.2695 579.482 -7.2775e-19)
(-36.4013 583.231 1.45483e-18)
(-43.3694 587.442 0)
(-51.0781 592.068 0)
(-59.3525 597.023 2.09782e-18)
(-68.0047 602.216 -2.85079e-18)
(-76.7844 607.519 7.98004e-20)
(-85.4157 612.805 -1.4047e-18)
(-93.6684 617.971 6.61711e-18)
(-101.312 622.931 -1.58994e-17)
(-108.198 627.651 1.59398e-17)
(-114.196 632.118 -7.67927e-18)
(-119.2 636.36 2.05222e-17)
(-123.155 640.45 -1.02635e-17)
(-125.992 644.483 -1.25713e-18)
(-127.649 648.55 -4.38369e-23)
(-127.959 652.768 -2.05186e-17)
(-126.888 657.294 3.87272e-17)
(-124.356 662.252 -9.63532e-19)
(-120.36 667.707 -1.92434e-17)
(-114.851 673.725 1.8275e-17)
(-107.92 680.304 -3.69174e-17)
(-99.7245 687.368 1.90533e-17)
(-90.5643 694.76 1.84877e-17)
(-80.7493 702.288 -1.7892e-17)
(-70.5044 709.805 0)
(-60.1723 717.115 0)
(-50.1511 723.961 4.07342e-18)
(-40.57 730.272 0)
(-31.4817 736.04 1.61059e-17)
(-23.1084 741.139 -1.63739e-17)
(-15.4504 745.58 7.96031e-18)
(-28.0753 526.33 0)
(-8.48965 749.411 -1.19534e-17)
(-3.55339 755.141 -3.82949e-18)
(-1.28651 769.124 -7.63334e-18)
(3.4141 761.604 -8.29944e-20)
(-5.55913 768.379 9.57179e-18)
(6.52171 765.601 -1.54607e-17)
(-10.3284 767.231 0)
(6.88183 767.924 0)
(-15.4211 765.775 -4.09325e-20)
(5.304 769.07 -3.84235e-18)
(-24.3122 762.245 -3.90031e-18)
(-20.72 764.064 3.91917e-18)
(2.30996 769.331 -1.53045e-17)
(28.4027 523.165 -6.93343e-19)
(23.2279 525.203 1.88253e-20)
(18.1311 526.853 0)
(13.1198 528.091 1.76369e-20)
(8.18567 528.905 7.82994e-19)
(3.30794 529.291 9.92194e-19)
(-1.54386 529.252 -4.03388e-19)
(-6.40219 528.794 -1.9214e-19)
(-11.2968 527.93 -3.93912e-19)
(-16.2466 526.675 -7.58638e-19)
(-21.2694 525.04 2.39778e-18)
(-26.3646 523.05 -1.57678e-18)
(-31.5111 520.742 0)
(-32.907 523.899 0)
(-29.3461 529.072 3.88405e-19)
(-26.0579 533.696 -8.01791e-19)
(-23.0747 537.796 0)
(-20.4112 541.41 0)
(-18.0598 544.587 1.97294e-19)
(-16.012 547.375 -9.67295e-20)
(-14.2539 549.82 9.72862e-20)
(-12.7689 551.971 0)
(-11.5408 553.873 9.73143e-20)
(-10.5585 555.571 -4.82978e-20)
(-9.816 557.105 4.85402e-20)
(-9.31667 558.519 0)
(-9.06359 559.848 0)
(-9.07738 561.133 9.59148e-20)
(-9.38867 562.42 -9.61069e-20)
(-10.0411 563.754 2.39821e-19)
(-11.0921 565.186 -1.42926e-19)
(-12.6122 566.772 1.19328e-19)
(-14.686 568.574 -2.38603e-20)
(-17.405 570.654 1.86069e-19)
(-20.8622 573.075 -1.90345e-19)
(-25.138 575.891 3.76153e-19)
(-30.292 579.145 7.57456e-19)
(-36.3406 582.854 3.61589e-19)
(-43.2523 587.009 0)
(-50.9278 591.563 -2.51568e-18)
(-59.2185 596.438 2.14883e-18)
(-67.9313 601.54 2.77663e-18)
(-76.8167 606.733 1.30192e-18)
(-85.6217 611.897 -3.48146e-18)
(-94.1237 616.922 7.26437e-20)
(-102.104 621.712 0)
(-109.414 626.203 -2.67042e-18)
(-115.95 630.371 -1.04142e-17)
(-121.639 634.202 7.90885e-18)
(-126.457 637.732 -1.28336e-17)
(-130.386 641.006 1.03324e-17)
(-133.433 644.093 0)
(-135.577 647.074 1.9862e-17)
(-136.771 650.025 -3.84528e-17)
(-136.987 653.041 2.11334e-17)
(-136.159 656.279 0)
(-134.19 659.848 -1.88249e-17)
(-131.002 663.84 1.94235e-17)
(-126.485 668.375 -1.88108e-17)
(-120.621 673.508 3.73781e-17)
(-113.416 679.26 -1.56896e-18)
(-105.025 685.564 -1.8615e-17)
(-95.5956 692.324 0)
(-85.3439 699.401 -1.73158e-17)
(-74.6935 706.531 -1.55434e-18)
(-63.9219 713.53 3.43727e-17)
(-53.2008 720.299 -1.72548e-17)
(-42.8513 726.632 1.42808e-17)
(-33.0221 732.454 -3.31402e-17)
(-23.8235 737.703 1.23437e-17)
(-15.348 742.334 -8.02153e-18)
(-2.22398 752.643 0)
(-7.65652 746.32 8.13386e-18)
(-36.6794 518.162 0)
(-26.1232 762.138 0)
(-29.5207 760.075 3.91709e-18)
(-27.1379 759.911 -1.57831e-17)
(-24.4144 759.499 -1.98649e-18)
(-21.3236 758.833 -1.98863e-18)
(-17.7816 757.862 1.95455e-18)
(-13.7145 756.499 4.56897e-20)
(-9.05199 754.697 -9.53742e-19)
(-3.74177 752.433 4.00931e-18)
(2.26189 749.656 -8.02972e-18)
(9.00315 746.326 3.0201e-18)
(16.5105 742.414 -2.06281e-18)
(24.7847 737.905 4.13031e-18)
(33.794 732.808 -1.92831e-18)
(43.4606 727.159 1.07608e-18)
(53.6624 721.028 -1.05745e-18)
(64.222 714.518 0)
(74.9138 707.772 0)
(85.481 700.952 1.18612e-18)
(95.6445 694.241 -1.12605e-18)
(105.139 687.81 7.078e-20)
(113.738 681.807 0)
(121.283 676.332 -3.84965e-20)
(127.684 671.432 0)
(132.928 667.11 3.08302e-18)
(137 663.34 -7.62195e-19)
(139.975 660.056 0)
(141.956 657.137 -6.27974e-19)
(143.053 654.503 0)
(143.31 652.04 -3.00752e-19)
(142.809 649.687 -2.50336e-20)
(141.577 647.362 0)
(139.559 644.934 0)
(136.775 642.357 -6.50929e-19)
(133.229 639.574 0)
(128.905 636.534 0)
(123.779 633.194 -1.0178e-18)