/*--------------------------------*- C++ -*----------------------------------*\
| =========                 |                                                 |
| \\      /  F ield         | OpenFOAM: The Open Source CFD Toolbox           |
|  \\    /   O peration     | Version:  2212                                  |
|   \\  /    A nd           | Website:  www.openfoam.com                      |
|    \\/     M anipulation  |                                                 |
\*---------------------------------------------------------------------------*/
FoamFile
{
    version     2.0;
    format      ascii;
    arch        "LSB;label=32;scalar=64";
    class       surfaceScalarField;
    location    "0.34";
    object      phi;
}
// * * * * * * * * * * * * * * * * * * * * * * * * * * * * * * * * * * * * * //

dimensions      [1 0 -1 0 0 0 0];

oriented        oriented;

internalField   nonuniform List<scalar> 
4475
(
5.0212e-05
-5.14657e-05
6.50271e-06
-4.67172e-06
6.46119e-05
-8.32585e-06
-3.68916e-05
3.51817e-06
5.28173e-05
-5.71541e-05
4.91839e-05
-3.52905e-05
3.44503e-06
-7.84521e-05
1.37626e-06
6.71759e-05
-2.98903e-05
-5.16399e-05
2.37537e-05
3.27919e-05
-7.91299e-06
2.84557e-05
-4.74979e-06
-3.36873e-05
6.18003e-05
-5.49207e-05
-2.27818e-05
3.04198e-05
-8.70195e-06
8.42633e-05
-1.5559e-06
-7.56734e-05
-5.20012e-05
-3.40063e-05
3.12243e-05
3.46074e-05
1.03684e-05
-1.28769e-05
-4.13624e-05
1.87702e-05
-1.56839e-05
1.64731e-05
5.15285e-06
1.46474e-05
-1.92495e-05
-2.33161e-05
-1.27295e-05
1.69802e-05
-2.27266e-05
-2.62103e-05
1.59895e-05
-2.30239e-05
-3.37e-05
1.33957e-05
-2.06517e-05
-3.43817e-05
8.49737e-06
-1.5815e-05
2.6808e-06
-2.90786e-05
-1.0103e-05
2.51012e-05
2.89994e-06
-1.9401e-05
-6.16294e-06
2.92771e-05
-2.72216e-06
2.60208e-05
5.04607e-06
1.51334e-05
1.07911e-05
-1.30833e-06
1.34993e-05
-1.91117e-05
1.42212e-05
-3.68144e-05
1.26074e-05
-4.6403e-05
1.52032e-05
-5.47582e-05
1.04341e-05
-7.70423e-05
-2.99205e-06
1.49279e-05
-8.49017e-05
2.0299e-06
-7.69858e-06
-2.20232e-05
1.76971e-05
7.41722e-05
-2.17454e-05
-2.89178e-06
-9.65764e-05
2.15856e-05
-2.68735e-05
-0.000104246
5.12183e-05
-6.19344e-05
-0.000104991
9.50263e-05
-0.000108674
-8.91692e-05
0.000147811
-0.000165343
-6.03726e-05
0.000206134
-0.000222855
-1.82528e-05
0.000259459
-0.000277237
3.41075e-05
0.00030293
-0.000320455
9.06804e-05
0.000332422
-0.00034475
0.000146157
0.000344184
-0.000355439
0.000195495
0.000340415
-0.000349762
0.000233707
0.000317898
-0.000327815
0.000253916
0.000278046
-0.000289697
0.000248742
0.000220553
-0.000235851
0.000216468
0.000151999
-0.000173315
6.89844e-05
0.000173743
-9.21345e-05
-0.000269202
0.000225843
5.00064e-05
-0.000295688
0.000131018
-0.000305403
0.000201012
-0.000289498
0.000263026
-0.00025423
0.000304497
-0.000205148
0.000327771
-0.000147051
0.000330889
-8.31552e-05
0.000317023
-2.37273e-05
0.000284388
2.51252e-05
0.00023818
5.96561e-05
0.00018521
7.76019e-05
0.00013093
8.26235e-05
8.34854e-05
7.83491e-05
4.64212e-05
7.05307e-05
2.01455e-05
6.11897e-05
2.61614e-06
3.632e-05
-1.32692e-05
3.00288e-05
2.68931e-05
-1.42292e-05
1.36249e-05
-1.73798e-05
2.5608e-06
-2.2141e-05
1.45939e-05
-1.09532e-05
-2.78442e-05
-2.46396e-05
-3.24252e-05
-3.41091e-05
-3.34118e-05
-3.74827e-05
-3.13046e-05
-3.48055e-05
-2.62902e-05
-2.80661e-05
-1.94596e-05
3.9938e-06
-3.00204e-05
0.000108581
-1.89537e-05
0.000173184
2.19882e-05
-3.85144e-06
-1.93601e-05
1.52784e-05
6.77591e-06
1.8684e-06
1.33658e-05
-1.57001e-05
1.69927e-05
-3.49251e-05
1.74663e-05
-5.0471e-05
1.75071e-05
-5.82309e-05
1.75074e-05
-6.68795e-05
1.43118e-05
-8.28475e-05
3.443e-06
-9.58244e-05
-1.04051e-05
-0.000109803
-3.46092e-05
-0.000122989
-7.29281e-05
-0.000128458
-0.000122634
-0.000119067
-0.000179639
-9.51008e-05
-0.00023814
-6.01957e-05
-0.00029238
-1.91654e-05
-0.000332778
2.61808e-05
-0.000358765
7.54771e-05
-0.000368994
0.000122938
-0.00036392
0.000163017
-0.000342017
0.00018884
-0.000305435
0.000192686
-0.000256064
0.000164081
-0.000198329
0.000117611
-0.00012175
1.14937e-05
-1.30031e-05
-1.22832e-05
-6.14636e-05
4.78859e-05
7.03557e-06
-1.34716e-05
-1.89952e-05
-1.08202e-05
-0.000266782
0.000232565
-3.84765e-05
-0.000305248
3.02179e-05
-0.000324893
0.000108304
-0.000337085
0.000178327
-0.00032444
0.000238451
-0.000291962
0.000280885
-0.000244645
0.000304258
-0.000186563
0.00030739
-0.000121529
0.000291117
-5.9855e-05
0.00025852
-8.67714e-06
0.000213803
2.79808e-05
0.000163533
4.96427e-05
0.000117221
5.86495e-05
7.72024e-05
5.89524e-05
4.63418e-05
5.40531e-05
2.41281e-05
4.54988e-05
8.3858e-06
2.97515e-05
-3.52734e-06
1.52306e-05
-1.14306e-05
1.1497e-06
-2.0632e-05
-1.20754e-05
-2.96851e-05
-2.3615e-05
-3.84491e-05
-3.27402e-05
-4.40781e-05
-3.73428e-05
-4.58193e-05
-3.66726e-05
-4.34734e-05
-3.08898e-05
-3.81123e-05
-2.18259e-05
-3.01459e-05
-1.32762e-05
-8.01711e-05
8.12547e-05
-2.35187e-05
1.79809e-05
8.96934e-06
-2.01297e-05
2.75421e-05
-4.67459e-06
-2.5553e-05
-4.1711e-06
-1.52132e-05
1.7667e-05
-6.43723e-06
1.13477e-05
-1.13977e-05
1.38522e-05
4.27731e-06
3.68396e-06
1.40923e-05
-1.17431e-05
2.11582e-05
-3.08125e-05
2.54695e-05
-4.94056e-05
2.68932e-05
-6.16402e-05
2.70774e-05
-6.88626e-05
2.59543e-05
-7.55055e-05
2.09072e-05
-8.85664e-05
8.9662e-06
-0.000104496
-1.00892e-05
-0.000122284
-3.93213e-05
-0.000139168
-8.05604e-05
-0.000148787
-0.00013187
-0.000144565
-0.000189788
-0.000129635
-0.0002495
-0.000105782
-0.000306163
-7.47384e-05
-0.000348078
-3.8881e-05
-0.000376749
3.43537e-06
-0.000390177
4.59871e-05
-0.00038427
8.69976e-05
-0.000362911
0.000118359
-0.000327158
0.000131222
-0.000280533
0.000114771
-0.000225805
7.25736e-05
-0.000157815
-3.22323e-06
-9.60737e-05
-5.08429e-05
-1.80162e-05
-6.83457e-08
-8.08458e-05
2.24393e-05
-9.38928e-05
6.92194e-05
-9.84757e-05
0.000134012
-1.52671e-05
1.73703e-05
7.07525e-05
0.000204511
-9.91277e-05
7.9133e-05
-3.64894e-06
-9.45325e-05
7.50845e-05
-6.2613e-05
-5.99716e-05
4.86462e-05
3.3797e-07
-9.72729e-06
-6.9252e-05
4.23015e-05
2.20405e-05
-1.51794e-05
2.14789e-05
-6.79346e-05
-2.39605e-05
-4.01293e-06
-2.5257e-05
2.50655e-05
-1.156e-05
-2.0089e-05
-0.000100224
9.09565e-05
-6.47981e-05
-0.000100054
-2.57526e-05
-9.99532e-05
5.06505e-05
-0.000118652
0.00014378
-0.000128137
0.000216982
-0.000262996
-0.000127673
0.000271087
-0.000277305
-9.89831e-05
-0.000293399
-4.9056e-05
-0.000316227
8.67163e-06
-0.000333712
8.28708e-05
-0.000343689
0.000149646
-0.000334399
0.000206691
-0.000306014
0.000248174
-0.000262795
0.000272032
-0.00020802
0.000275379
-0.000146784
0.000259329
-8.75379e-05
0.00022864
-3.79767e-05
0.0001888
-2.14479e-06
0.000146112
2.22436e-05
0.000107084
3.46329e-05
7.49227e-05
3.7977e-05
4.97329e-05
3.49553e-05
3.07482e-05
2.75662e-05
1.56451e-05
1.59123e-05
2.17111e-06
2.6545e-06
-1.02061e-05
-1.15886e-05
-2.40191e-05
-2.33166e-05
-3.7208e-05
-3.18389e-05
-4.84499e-05
-3.62547e-05
-5.53287e-05
-3.6124e-05
-5.71902e-05
-3.1243e-05
-5.49685e-05
-2.26643e-05
-4.90572e-05
-4.00938e-05
-1.17789e-05
-3.28229e-05
3.82673e-05
9.55342e-06
2.28778e-06
6.99907e-05
-2.0985e-05
1.38189e-05
-6.51662e-05
-4.76891e-05
3.17302e-05
1.5736e-05
-5.15311e-05
-6.49138e-05
4.42743e-05
-3.87445e-05
-5.936e-05
6.08941e-05
-2.58305e-05
-4.89952e-05
-1.21829e-05
-3.67518e-05
4.45125e-05
-8.13066e-07
-2.37541e-05
6.79213e-06
-1.07622e-05
2.00081e-05
9.35205e-06
2.62483e-06
4.38895e-06
1.41895e-05
-7.58516e-06
2.47199e-05
-2.46055e-05
3.25703e-05
-4.48179e-05
3.80092e-05
-6.26034e-05
4.04426e-05
-7.23005e-05
4.09551e-05
-7.7051e-05
3.80589e-05
-8.23559e-05
3.06909e-05
-9.48219e-05
1.62468e-05
-0.000111591
-6.72888e-06
-0.000131497
-3.9624e-05
-0.000150932
-8.27895e-05
-0.00016413
-0.000134107
-0.000166411
-0.0001935
-0.000162106
-0.000254594
-0.000150105
-0.000316968
-0.00012994
-0.000366576
-0.000102402
-0.000400194
-7.00099e-05
-0.000414352
-3.07074e-05
-0.000410393
1.09916e-05
-0.000388729
4.77449e-05
-0.000351598
7.13018e-05
-0.000307667
6.82182e-05
-0.000255242
3.99249e-05
-0.000193242
-2.16165e-05
-0.000129043
-5.59626e-05
-5.89321e-05
6.77419e-05
-9.345e-05
1.83494e-05
4.8454e-05
-4.29251e-05
-3.43757e-05
-2.52352e-05
1.69787e-05
-2.78041e-05
2.70083e-05
8.29045e-05
-8.30977e-05
1.30354e-05
-7.98441e-05
-8.14767e-06
6.57223e-05
-9.08081e-05
1.50802e-05
1.50644e-05
7.43687e-05
6.55022e-05
-1.75464e-06
-6.64635e-06
-3.16476e-06
1.05054e-05
3.72235e-05
3.94441e-06
-0.000298457
0.000304027
-0.000124161
-0.000304789
-9.41048e-05
-0.000303635
-5.78982e-05
-0.000307569
-4.99003e-06
-0.000318754
5.39263e-05
-0.000325597
0.000120219
-0.000323585
0.00017274
-0.000300447
0.000211834
-0.000264841
0.000235151
-0.000217354
0.000238564
-0.000163168
0.000225095
-0.000109399
0.000198474
-6.2498e-05
0.000164674
-2.66386e-05
0.000129983
-2.74112e-06
9.83805e-05
1.22122e-05
7.30351e-05
1.79751e-05
5.28603e-05
1.69863e-05
3.59669e-05
1.08253e-05
2.05032e-05
4.67479e-07
4.67347e-06
-1.18309e-05
-1.10984e-05
-2.33155e-05
-2.87147e-05
-3.17665e-05
-4.36804e-05
-3.61326e-05
-5.58291e-05
-3.56578e-05
-6.3341e-05
-3.07249e-05
-6.49729e-05
-2.2064e-05
-6.23614e-05
-1.12031e-05
-5.625e-05
1.51886e-06
-4.76707e-05
-2.94555e-05
-1.58427e-07
-4.25293e-05
2.48234e-05
3.97868e-05
3.16358e-05
7.04971e-05
-8.11143e-05
-1.41411e-05
-4.87418e-05
-4.89002e-05
4.76537e-05
-4.11982e-05
-4.60775e-05
-2.83065e-05
-3.7967e-05
-1.46446e-05
-2.56388e-05
-3.58143e-06
-1.21992e-05
2.71366e-06
9.1747e-07
2.8764e-06
1.41706e-05
-4.48919e-06
2.61515e-05
-1.78574e-05
3.71177e-05
-3.62963e-05
4.60492e-05
-5.67362e-05
5.25039e-05
-7.4125e-05
5.64432e-05
-8.15856e-05
5.69338e-05
-8.45338e-05
5.28158e-05
-8.88057e-05
4.30095e-05
-0.0001006
2.57929e-05
-0.000117502
2.57035e-07
-0.000138918
-3.4136e-05
-0.000160767
-7.77652e-05
-0.000176823
-0.000130257
-0.00018786
-0.000190048
-0.000193953
-0.000255562
-0.000193443
-0.000324085
-0.000182315
-0.000383074
-0.000166025
-0.000420567
-0.000140082
-0.000439535
-0.000104959
-0.000437077
-6.2925e-05
-0.000415467
-2.00734e-05
-0.000378664
1.30594e-05
-0.000332452
2.58674e-05
-0.000274866
1.49637e-05
-0.00022845
-3.22102e-05
-0.000153233
-6.63909e-05
-9.80858e-05
-0.00010093
3.28021e-05
-0.000125616
6.41083e-05
-1.07759e-05
-0.000181865
-1.30884e-06
-0.000229504
1.35433e-05
-0.000267232
4.41848e-05
-0.00027878
9.71453e-05
-0.000248246
0.000163886
-0.000208161
0.000225558
-0.000174454
0.000275316
0.000309823
-0.000154023
-2.86613e-05
-7.33839e-05
7.25132e-05
-9.94063e-06
6.39822e-07
-4.09651e-05
4.04788e-05
-3.73941e-05
1.94156e-05
-2.7476e-05
4.40329e-05
4.7108e-05
-2.45697e-05
5.57077e-05
-4.10474e-06
-3.58938e-06
-1.18088e-06
8.42381e-07
7.05416e-06
1.24154e-05
-3.55636e-05
-1.53732e-05
9.36201e-06
-4.81395e-05
1.55911e-05
-2.69251e-05
2.31602e-05
-4.11756e-05
4.95417e-05
-2.12737e-05
5.58543e-05
-6.76974e-05
2.85291e-05
1.58729e-05
-5.89668e-05
-5.37489e-05
6.10513e-05
-3.59294e-05
-4.19407e-05
-3.23499e-05
-2.88779e-05
-2.33882e-05
-1.60021e-05
-1.16946e-05
-5.83911e-06
1.0329e-06
-6.93621e-07
1.40861e-05
-2.41134e-06
2.63172e-05
-1.13173e-05
3.85829e-05
-2.61497e-05
4.97222e-05
-4.51721e-05
5.9488e-05
-6.61078e-05
6.75016e-05
-8.33581e-05
7.2709e-05
-8.9447e-05
7.33918e-05
-9.08198e-05
6.82216e-05
-9.42698e-05
5.64926e-05
-0.000105635
3.72644e-05
-0.000122206
1.02934e-05
-0.000144429
-2.44802e-05
-0.000167443
-6.80368e-05
-0.000188309
-0.000119976
-0.000206496
-0.000180605
-0.000221766
-0.000249631
-0.000232737
-0.000322651
-0.000237079
-0.000388936
-0.000228134
-0.000434815
-0.00020606
-0.000458415
-0.00017632
-0.000457367
-0.000133747
-0.000439528
-8.41487e-05
-0.000404597
-4.21693e-05
-0.000355238
-1.48181e-05
-0.000296818
-1.1674e-05
-0.000244306
-3.49575e-05
-0.000165939
-6.32499e-05
-0.000119495
-9.07526e-05
7.87169e-07
-3.35213e-05
3.17668e-05
-0.000292745
0.00021505
1.77667e-05
-0.000341865
9.75928e-05
-0.000331768
0.00010937
-0.000278227
0.000115869
-0.000188029
0.000138088
-0.000140974
0.000197931
-0.000143941
0.000281847
-0.000166391
0.000333717
-0.000174929
0.00034392
-0.000176973
0.000348399
-0.000323749
0.000346968
-0.000182482
-0.000317904
-0.000146804
-0.000318062
-0.000120156
-0.00031541
-8.73731e-05
-0.000305256
-6.09259e-05
-0.000290422
-1.67826e-05
-0.000285051
3.32903e-05
-0.000293682
9.11726e-05
-0.000295785
0.000142992
-0.00028383
0.000178127
-0.000255801
0.000197012
-0.000219415
0.000201755
-0.000174722
0.000190454
-0.000127866
0.000168795
-8.44152e-05
0.000140982
-4.87687e-05
0.000113311
-2.27167e-05
8.86953e-05
-6.63846e-06
6.8606e-05
1.05655e-06
5.16924e-05
1.06974e-06
3.6307e-05
-4.5748e-06
2.01152e-05
-1.3666e-05
2.24297e-06
-2.39067e-05
-1.53383e-05
-3.20829e-05
-3.3374e-05
-3.70605e-05
-4.78868e-05
-3.65965e-05
-6.00804e-05
-3.10049e-05
-6.71814e-05
-2.16691e-05
-6.82669e-05
-9.4477e-06
-6.54278e-05
4.53513e-06
-5.91737e-05
-4.95645e-05
1.74497e-05
-5.26123e-05
7.10903e-06
4.96516e-05
-2.24783e-05
2.22744e-05
1.88903e-05
-2.61578e-06
-9.15029e-06
4.9108e-05
-4.85028e-05
9.92801e-06
-3.77549e-05
2.09143e-05
-3.70522e-05
-5.15612e-05
-2.31436e-05
-3.88334e-06
-5.59e-05
5.23151e-05
5.09169e-05
-6.95924e-05
-3.42048e-05
4.37959e-05
-6.82304e-05
-2.11399e-05
7.12495e-05
-5.71347e-05
-2.26291e-05
-4.34472e-05
-1.70709e-05
-2.91255e-05
-8.00261e-06
-1.64818e-05
2.91139e-06
-7.0249e-06
1.49787e-05
-2.94618e-06
2.69021e-05
-5.94177e-06
3.82671e-05
-1.61302e-05
4.9849e-05
-3.16128e-05
6.10471e-05
-5.09143e-05
7.15437e-05
-7.17998e-05
8.08929e-05
-8.94344e-05
8.73387e-05
-9.5605e-05
8.8795e-05
-9.62071e-05
8.28618e-05
-9.89264e-05
6.98729e-05
-0.000109329
4.94519e-05
-0.000125057
2.19851e-05
-0.000146874
-1.22388e-05
-0.000171349
-5.46406e-05
-0.000196557
-0.000105348
-0.000222199
-0.000165069
-0.00024847
-0.000234011
-0.000272471
-0.00030834
-0.000286731
-0.000380091
-0.000283345
-0.000434778
-0.000270638
-0.000460516
-0.000243911
-0.000467385
-0.00020088
-0.00045754
-0.000147498
-0.00042556
-9.57077e-05
-0.00037486
-5.44853e-05
-0.000312808
-3.83085e-05
-0.000244996
-3.88531e-05
-0.000168132
-5.40821e-05
-0.000117804
-7.3115e-05
-1.8264e-05
-2.55091e-05
1.32905e-05
-2.14177e-05
0.000148395
-0.000249542
3.60523e-05
0.000174601
-0.000322734
0.00011319
-0.000344233
0.000137078
-0.000373635
0.00012222
-0.000418724
0.000115107
-0.000456443
0.000135551
-0.000445568
0.000193915
-0.000406586
0.000267653
-0.000353071
0.000306459
-0.000296219
0.000312672
-0.00024758
0.000315481
-0.000217394
0.000315532
-0.000329909
0.000301063
-0.000209397
-0.000319789
-0.000186273
-0.00031451
-0.000146508
-0.000314065
-0.000120367
-0.000309522
-8.28907e-05
-0.00028764
-5.88547e-05
-0.00026655
-2.09591e-05
-0.00024492
2.14644e-05
-0.000250605
7.0587e-05
-0.000260493
0.000117359
-0.000258427
0.000149791
-0.000243328
0.000164917
-0.000218777
0.000165883
-0.000185116
0.000156876
-0.000144635
0.000138379
-0.000103788
0.000115898
-6.7123e-05
9.37046e-05
-3.89995e-05
7.4858e-05
-2.051e-05
5.88075e-05
-1.14938e-05
4.44575e-05
-1.08891e-05
2.9467e-05
-1.63786e-05
1.28278e-05
-2.50007e-05
-4.5592e-06
-3.25843e-05
-2.16599e-05
-3.76814e-05
-3.80553e-05
-3.74156e-05
-5.13325e-05
-3.23585e-05
-6.10283e-05
-2.23345e-05
-6.68559e-05
-9.47363e-06
-6.70052e-05
5.19263e-06
-6.32243e-05
2.02504e-05
-5.65047e-05
-4.79557e-05
3.46534e-05
2.89512e-05
-3.86752e-05
-5.47885e-05
1.77249e-06
-9.69517e-06
-5.85974e-05
5.62579e-05
6.26704e-06
2.3808e-05
-1.59997e-05
-7.35976e-06
3.74303e-05
-2.68745e-05
4.57904e-05
1.37467e-05
8.73363e-06
3.70801e-05
-1.55382e-06
2.5597e-05
-2.03848e-05
-3.00472e-07
-8.12746e-06
2.33582e-05
6.95865e-05
2.98451e-05
5.00848e-05
3.06534e-05
-1.18057e-05
-4.25879e-05
5.5795e-06
1.80672e-05
-3.81628e-05
-0.000340058
0.00020674
7.45905e-06
-0.000564354
0.000240189
-0.000698639
0.000216381
-0.000631277
2.74481e-05
-0.000492629
-1.34859e-05
-0.000341186
1.78665e-06
-0.000221767
9.78297e-05
-0.000208181
0.000274672
-0.000253429
0.000349133
-0.00027513
0.000305807
-0.000253821
0.000252919
-0.000232823
0.000226766
-0.000217324
0.000188594
-0.00029895
-0.000281391
0.000236962
-0.000324188
-0.000214933
-0.000304852
-0.00021258
-0.000297867
-0.000156064
-0.000297433
-0.00012788
-0.000291214
-8.18307e-05
-0.000263326
-5.61613e-05
-0.000234023
-1.87234e-05
-0.000205068
1.76891e-05
-0.000207309
5.96732e-05
-0.000224699
9.84498e-05
-0.000236191
0.000125051
-0.000229774
0.000135314
-0.000217396
0.000133914
-0.000194121
0.000123963
-0.000159265
0.000107513
-0.000119678
8.90298e-05
-8.12083e-05
7.10782e-05
-4.99895e-05
5.5745e-05
-2.93058e-05
4.24864e-05
-1.9274e-05
2.93238e-05
-1.82014e-05
1.52145e-05
-2.34408e-05
-2.9324e-07
-3.0185e-05
-1.56496e-05
-3.52551e-05
-3.03311e-05
-3.59302e-05
-4.38191e-05
-3.23537e-05
-5.25401e-05
-2.27514e-05
-5.9726e-05
-1.03179e-05
-6.18688e-05
5.27171e-06
-6.04761e-05
2.14879e-05
-5.5752e-05
3.75827e-05
-4.94658e-05
-4.2504e-05
5.22929e-05
-3.82096e-05
4.62909e-05
1.84456e-05
1.31815e-05
-2.89029e-05
-5.45106e-05
-2.49802e-06
-4.06109e-05
-3.04787e-05
2.10312e-05
4.19532e-05
7.83951e-05
2.82566e-05
-6.8737e-05
-2.11097e-05
-5.88559e-05
-6.10771e-06
7.17324e-05
-4.37162e-05
-7.38092e-07
-2.8792e-05
7.4144e-06
-1.61754e-05
1.71521e-05
-7.43823e-06
2.75387e-05
-4.1506e-06
3.81461e-05
-7.72165e-06
4.84415e-05
-1.85463e-05
5.90007e-05
-3.38843e-05
6.98692e-05
-5.29284e-05
8.07851e-05
-7.34929e-05
9.103e-05
-9.17513e-05
9.87989e-05
-0.000100154
0.000101646
-0.000100704
9.52912e-05
-0.000103109
8.19778e-05
-0.000112216
6.11286e-05
-0.000126892
3.40436e-05
-0.000147099
6.61336e-07
-0.000172244
-3.89685e-05
-0.000201122
-8.64062e-05
-0.000233677
-0.000142493
-0.000269245
-0.000207711
-0.000303349
-0.00027965
-0.000327845
-0.000351514
-0.000336665
-0.000411205
-0.00032786
-0.000448105
-0.000305647
-0.000462787
-0.000266819
-0.00046269
-0.000214176
-0.000438786
-0.000154915
-0.000392005
-0.000103314
-0.000323008
-6.93667e-05
-0.000242189
-5.12241e-05
-0.000161206
-5.14536e-05
-9.9909e-05
-6.39264e-05
-2.15965e-05
-1.52977e-05
-3.37142e-06
-3.85091e-05
0.000103109
-4.31533e-05
9.30916e-05
-0.000116463
0.000160722
-2.36981e-05
-6.11244e-05
5.87784e-05
-5.99508e-05
-1.15623e-05
4.26134e-05
2.65896e-05
-2.97723e-05
-4.30957e-05
2.65603e-05
-4.35243e-06
2.38408e-05
4.07293e-05
-1.67172e-05
-0.000264012
0.000184657
-0.000282539
-0.000290447
-0.000193
-0.000266678
-0.000234312
-0.000265121
-0.000155388
-0.000266823
-0.000132814
-0.000262417
-8.04499e-05
-0.000232257
-5.3306e-05
-0.000196982
-1.37752e-05
-0.000165883
1.938e-05
-0.000167514
5.49625e-05
-0.000193433
8.49797e-05
-0.000217575
0.00010316
-0.000222768
0.000108016
-0.00021691
0.000103406
-0.000202529
9.25185e-05
-0.000171773
7.74978e-05
-0.000131769
6.12605e-05
-9.0166e-05
4.59628e-05
-5.59732e-05
3.24259e-05
-3.31419e-05
2.0009e-05
-2.17218e-05
7.79296e-06
-2.04638e-05
-4.89352e-06
-2.41368e-05
-1.74886e-05
-2.87894e-05
-2.97223e-05
-3.11313e-05
-4.03467e-05
-2.92895e-05
-4.85813e-05
-2.06907e-05
-5.36841e-05
-8.19771e-06
-5.58864e-05
6.97173e-06
-5.4246e-05
2.29826e-05
-5.02164e-05
3.91537e-05
-4.4601e-05
5.40564e-05
-3.86104e-05
6.69626e-05
-3.38068e-05
-3.40998e-05
6.29608e-05
-3.01514e-05
1.23274e-05
7.7898e-06
-6.82206e-06
-4.96382e-05
-0.000425388
0.000273531
-6.87948e-05
-0.000607884
0.000143097
-0.000598568
0.000229528
-0.000589496
0.000199755
-0.000560406
-2.72335e-05
-0.000557829
-6.78785e-05
-0.000583533
3.92533e-06
-0.000580552
9.01561e-05
-0.000546978
0.000247243
-0.000471389
0.000314923
-0.000399743
0.000287643
-0.000346717
0.00022784
-0.000290095
0.000164055
-0.00026848
0.000130111
-0.000225225
0.000178561
-0.000201939
0.000186444
1.99351e-05
-5.43118e-06
-3.32075e-05
-1.12581e-05
-3.54609e-05
-2.15852e-05
-1.63e-05
-3.41728e-05
4.1998e-06
2.67192e-05
4.24459e-05
8.90177e-06
-4.94779e-05
1.09778e-05
1.31524e-05
2.44241e-05
-4.44257e-05
5.02728e-05
-4.44642e-05
1.31806e-07
5.58409e-05
-6.37528e-05
-6.01323e-05
1.1103e-05
7.41618e-05
-4.3622e-05
1.46708e-05
-2.80423e-05
2.11721e-05
-1.52819e-05
2.92081e-05
-6.86743e-06
3.78565e-05
-4.0993e-06
4.68333e-05
-7.90096e-06
5.58938e-05
-1.83593e-05
6.5244e-05
-3.30521e-05
7.5437e-05
-5.15192e-05
8.63501e-05
-7.18709e-05
9.69406e-05
-9.0187e-05
0.000105499
-0.000101984
0.000109774
-0.000104291
0.000105421
-0.000106929
9.14013e-05
-0.000114355
7.05004e-05
-0.000127004
4.39846e-05
-0.000145174
1.24475e-05
-0.000169588
-2.34941e-05
-0.000199902
-6.54267e-05
-0.000236727
-0.000114616
-0.000279158
-0.000172055
-0.000322196
-0.000237096
-0.000356117
-0.000304937
-0.000376563
-0.000366266
-0.000378736
-0.000414379
-0.000363873
-0.000442773
-0.000333609
-0.000454231
-0.00028639
-0.000444713
-0.000226751
-0.000406601
-0.000165482
-0.000337338
-0.000114483
-0.000248619
-8.17492e-05
-0.000157772
-6.90464e-05
-8.4023e-05
-7.49241e-05
-2.06219e-05
-3.1651e-05
-2.99582e-05
-6.90924e-05
7.93573e-05
-9.06413e-05
-2.18023e-05
-0.000142057
0.000162428
-0.00015391
3.89274e-05
-2.97481e-05
4.6488e-05
2.22133e-05
-2.62087e-05
5.05554e-05
2.0363e-05
-1.70867e-05
-3.5031e-05
-6.12276e-05
5.84558e-05
-5.89991e-05
-1.38716e-05
-2.22462e-05
-6.27872e-05
-4.2729e-05
2.37047e-05
3.80926e-05
4.69765e-05
8.70922e-06
-4.76558e-05
-4.09771e-05
-1.07896e-05
3.66971e-05
-3.30649e-05
8.08007e-05
-5.2318e-05
1.79704e-05
-2.05042e-05
-6.24414e-05
-3.06329e-05
6.11535e-05
-4.49892e-05
5.06075e-05
-2.15979e-05
1.02453e-05
6.31694e-06
-4.42827e-05
-1.96792e-05
4.53423e-05
-0.000369561
0.000322823
-0.000133683
-0.00025743
-0.000385524
-0.000281875
-0.000145745
-0.000226974
-0.000256757
-0.000228985
-0.00013002
-0.000228865
-0.000127617
-0.000226455
-7.29269e-05
-0.00019552
-4.79165e-05
-0.000159384
-6.66505e-06
-0.000128252
2.25775e-05
-0.000134342
5.29741e-05
-0.00016919
7.34982e-05
-0.000204639
8.33956e-05
-0.00021876
8.32876e-05
-0.000218603
7.6003e-05
-0.000209483
6.39602e-05
-0.00018047
4.99148e-05
-0.000139617
3.52173e-05
-9.49129e-05
2.09832e-05
-5.78823e-05
7.65529e-06
-3.26422e-05
-4.94687e-06
-1.99302e-05
-1.68855e-05
-1.68108e-05
-2.76663e-05
-1.84114e-05
-3.71141e-05
-2.07285e-05
-4.49495e-05
-2.04019e-05
-5.05313e-05
-1.50047e-05
-5.33935e-05
-4.42285e-06
-5.31999e-05
9.99519e-06
-5.05384e-05
2.63882e-05
-4.56575e-05
4.32779e-05
-3.93151e-05
5.85781e-05
-3.21072e-05
7.00322e-05
-2.54203e-05
7.51494e-05
-2.01556e-05
-2.21076e-05
7.42644e-05
4.76816e-06
-1.95289e-06
-2.97268e-05
2.24373e-05
-4.08969e-05
6.28117e-05
-5.04759e-05
-3.80443e-05
-0.000533267
0.000410221
-0.00030116
-0.000632228
-0.000170409
-0.000783456
0.000329986
-0.00116201
0.000595614
-0.00104559
3.78773e-05
-0.00086136
-0.000255232
-0.000772619
-0.000208411
-0.000656042
-0.000187537
-0.00047833
-0.000182879
-0.000399468
-1.43857e-06
-0.000522341
0.000124606
-0.000552333
7.35421e-05
-0.00039323
-0.000117595
-0.000176787
-0.000233045
-0.00015008
-0.000169505
-0.000126014
-9.89985e-05
-2.7819e-05
-1.79611e-05
-0.000371752
0.000690103
8.66991e-05
2.73355e-06
-3.28674e-05
-5.65232e-06
-1.23202e-05
-1.56015e-05
7.85061e-06
-2.28762e-05
2.55037e-05
4.73316e-05
-2.51936e-05
-2.00206e-05
2.23896e-05
6.61924e-05
-2.20555e-05
-7.62831e-05
2.07124e-05
8.5653e-05
-7.80463e-06
-5.94816e-05
2.37871e-05
-4.21997e-05
2.7763e-05
-2.61928e-05
3.27294e-05
-1.33952e-05
3.87934e-05
-5.27981e-06
4.55354e-05
-2.83517e-06
5.26754e-05
-6.56938e-06
6.02267e-05
-1.58999e-05
6.79741e-05
-2.95755e-05
7.72672e-05
-4.70703e-05
8.76115e-05
-6.70384e-05
9.79571e-05
-8.60378e-05
0.000106967
-0.000100196
0.000111865
-0.000106538
0.0001096
-0.000109826
9.7252e-05
-0.000115917
7.68074e-05
-0.000126425
5.11236e-05
-0.000141544
2.19801e-05
-0.000162522
-9.11375e-06
-0.000191241
-4.43643e-05
-0.000228507
-8.43467e-05
-0.000274025
-0.000130551
-0.0003233
-0.000184421
-0.000366052
-0.000243801
-0.000398698
-0.000303025
-0.000417517
-0.000358343
-0.000418148
-0.000403065
-0.000400835
-0.000430697
-0.000366429
-0.00043801
-0.000313046
-0.00041591
-0.000249002
-0.000356706
-0.000189598
-0.000266238
-0.00014392
-0.00016876
-0.000119157
-8.55096e-05
-0.000114699
-3.50676e-05
-9.93807e-05
-5.98901e-05
-0.000127178
5.14195e-05
-0.000157914
-0.000139843
-0.000176691
0.000163146
-0.000146034
-0.00015043
-0.000297963
0.000362725
2.23251e-05
-2.4306e-05
-3.58203e-05
-2.15309e-05
6.39924e-05
5.94863e-05
-4.39749e-07
-5.12409e-05
4.46229e-05
-5.35989e-05
4.04814e-05
-5.52734e-05
-4.95735e-05
3.79061e-05
-4.48639e-05
-5.81118e-05
5.06599e-05
-2.02264e-05
-1.69648e-05
-6.29577e-05
-3.15434e-05
-2.23698e-05
-6.39292e-05
4.13854e-05
-4.37488e-05
-2.20862e-06
1.21976e-05
-0.000101135
7.66479e-05
6.30596e-06
-6.48624e-05
6.06912e-05
2.9594e-05
-2.91234e-05
-8.5849e-06
-8.04704e-05
1.19826e-05
-1.3727e-06
-9.35505e-06
-1.10864e-05
4.47616e-05
-4.22385e-05
-3.33127e-05
-3.31488e-05
4.67168e-05
-8.75734e-05
-1.17819e-05
-8.48324e-05
-9.93164e-06
-7.68008e-05
-1.31207e-05
-6.37618e-05
-1.96692e-05
-4.77053e-05
-2.81174e-05
-3.09273e-05
-3.7098e-05
-1.5547e-05
-4.52303e-05
-3.25544e-06
-5.21115e-05
4.03768e-06
-5.70359e-05
6.92325e-06
-5.93777e-05
7.2634e-06
-5.86431e-05
8.20106e-06
-5.48319e-05
1.37882e-05
-4.84279e-05
2.8796e-05
-3.92932e-05
5.65979e-05
-2.78684e-05
9.65879e-05
-1.46336e-05
0.000143549
-1.49274e-07
0.000185352
1.37111e-05
0.000213953
2.73411e-05
0.000220442
4.06611e-05
0.000215966
5.27838e-05
0.000195795
6.0958e-05
0.00015205
6.55692e-05
0.000107263
6.19472e-05
9.3399e-05
4.91209e-05
0.000120207
2.55738e-05
0.000154959
2.74949e-06
0.000186232
-3.52792e-05
0.000186332
-4.91086e-05
0.000184943
-0.000108259
0.000175408
-7.72095e-05
0.000225077
-0.000246289
0.000203249
-8.86897e-05
0.000319084
-0.000423964
0.000304537
-6.96318e-05
0.000690422
-0.000620582
-2.85772e-05
4.86132e-05
2.22933e-05
-0.000378478
0.000330572
5.54163e-06
-0.000515214
-1.23176e-05
-0.000713185
9.60741e-05
-0.000822253
0.000361927
-0.000721579
0.000413369
-0.000838101
0.000150108
-0.000932371
-8.04455e-05
-0.000813257
-0.000234158
-0.000763464
-0.000159728
-0.000742317
-0.000128794
-0.000615344
-3.08572e-05
-0.000532018
0.000210672
-0.000520571
0.00016838
-0.000516747
1.52773e-05
-0.000446067
-0.00010615
-0.000156511
-0.000256681
-2.62587e-05
-5.24191e-05
-0.000142765
0.000203183
-4.57473e-05
0.000620158
8.73497e-05
0.000614755
7.83631e-06
-2.07346e-05
-9.99594e-06
7.33119e-05
-5.59731e-05
3.45095e-05
4.16954e-05
-1.54955e-05
4.93725e-05
-4.24387e-05
1.79891e-07
-2.26907e-05
-4.22007e-05
-2.7628e-05
-4.17297e-05
-3.02333e-05
-4.00852e-05
3.96578e-05
-3.1459e-05
-3.61509e-05
4.2739e-05
-3.44622e-05
4.66261e-05
-3.54298e-05
3.095e-05
-3.01426e-05
4.68978e-05
-5.36054e-05
3.26608e-06
-2.38085e-05
4.83881e-05
-4.79895e-05
1.65123e-05
8.66411e-05
1.47425e-05
-9.5923e-05
9.40639e-05
1.51369e-05
-1.67649e-05
-8.69155e-05
1.84926e-05
-4.67771e-05
-6.47477e-05
4.03448e-05
-5.04172e-05
-6.00085e-05
-5.38696e-05
-5.31235e-05
-1.71839e-05
4.53002e-05
2.27897e-05
-4.13257e-05
-3.62239e-05
-1.92799e-05
1.11539e-05
1.63929e-05
-2.56916e-05
9.73186e-06
-8.21108e-06
2.11057e-06
9.26159e-06
-6.09233e-06
2.55752e-05
3.93917e-05
-8.92576e-06
6.92366e-05
-9.78523e-05
2.97729e-07
-5.73264e-05
4.59722e-05
6.10282e-06
-5.55849e-06
-8.92146e-05
2.52272e-05
-1.89414e-05
9.62047e-05
-7.67308e-05
3.0388e-05
-5.91739e-05
3.35252e-05
-4.03811e-05
3.66761e-05
-2.35905e-05
4.05223e-05
-1.06627e-05
4.49867e-05
-2.69912e-06
4.99135e-05
-3.99173e-07
5.53817e-05
-3.62228e-06
6.10465e-05
-1.16289e-05
6.72509e-05
-2.39876e-05
7.5056e-05
-4.03676e-05
8.42629e-05
-5.97562e-05
9.39034e-05
-7.96034e-05
0.000102765
-9.64916e-05
0.000108255
-0.000107345
0.000107241
-0.000113031
9.73909e-05
-0.000118122
7.88103e-05
-0.000125639
5.46332e-05
-0.00013641
2.83504e-05
-0.000151487
2.10903e-06
-0.00017474
-2.51659e-05
-0.000207801
-5.43181e-05
-0.000251822
-8.7901e-05
-0.000303158
-0.000127904
-0.000352226
-0.000174894
-0.000394552
-0.000226396
-0.000431772
-0.00028214
-0.000456205
-0.000338044
-0.000462401
-0.000383245
-0.0004501
-0.000410387
-0.000415422
-0.000411122
-0.000363355
-0.00037089
-0.000302781
-0.000293542
-0.000245683
-0.000201664
-0.000210348
-0.000115484
-0.000199255
-7.31298e-05
-0.000220638
-7.10693e-05
-0.000223394
6.25136e-07
-0.000288727
-0.000176266
-0.000251867
0.000115144
-0.000219704
-0.000212564
-0.000350241
0.000332803
-9.42657e-05
0.000227493
2.22086e-05
7.50202e-05
-2.90369e-05
1.76886e-05
8.07169e-05
-9.05458e-05
8.54788e-05
1.04273e-05
-3.41838e-05
1.84766e-05
3.3777e-05
-2.28905e-05
6.25901e-06
-8.94935e-05
-2.05018e-05
5.99414e-05
-3.78328e-05
5.59509e-05
4.26433e-05
9.14608e-05
-8.66373e-06
-8.43029e-05
-1.07066e-05
4.69949e-05
3.73642e-06
-4.95802e-05
-6.56721e-05
-2.87974e-05
-2.17265e-05
-3.98358e-05
-6.02634e-05
7.40147e-05
-3.31379e-05
2.63017e-05
4.03058e-05
-6.81115e-05
-4.48487e-05
3.39435e-05
4.71136e-05
-3.71744e-05
3.74247e-05
3.34094e-06
-8.83559e-06
-5.10041e-05
-3.64906e-05
6.22816e-05
7.39813e-05
-1.99246e-05
-7.84698e-05
-2.18193e-05
-0.000107616
3.79237e-05
-0.000100698
-4.37326e-05
-3.73644e-05
-3.85085e-05
-3.42641e-05
-3.33582e-05
-3.11178e-05
-9.35213e-05
-2.15997e-06
-9.8007e-05
-5.64288e-07
-9.41273e-05
-2.84238e-06
-8.40269e-05
-8.93465e-06
-6.96536e-05
-1.80637e-05
-5.36345e-05
-2.89705e-05
-3.78618e-05
-4.02114e-05
-2.52795e-05
-5.01586e-05
-1.5873e-05
-5.91715e-05
-1.03497e-05
-6.53701e-05
-7.0702e-06
-6.83777e-05
-3.17823e-06
-6.75492e-05
5.1775e-06
-6.29856e-05
2.29812e-05
-5.49462e-05
5.33533e-05
-4.35779e-05
9.53972e-05
-2.96735e-05
0.00014399
-1.49731e-05
0.000187011
-1.06309e-06
0.000215685
1.19978e-05
0.000221114
2.4022e-05
0.00021245
3.55181e-05
0.00018791
4.30895e-05
0.00013744
4.86217e-05
8.47095e-05
4.8843e-05
6.24691e-05
4.3394e-05
8.27578e-05
2.72506e-05
0.000116564
1.57329e-05
0.000146564
-1.47884e-05
0.000145858
-1.42884e-05
0.000129595
-7.42013e-05
0.000118988
-2.46309e-05
0.000112892
-0.000180052
0.000114124
-6.10402e-05
1.91782e-05
-0.000259179
7.85716e-05
-2.76677e-05
-0.000121031
-0.000319426
2.35993e-05
9.12325e-05
-9.77991e-06
3.49036e-05
1.59313e-06
-1.79334e-05
2.39038e-05
-2.48159e-05
1.01482e-05
-2.97604e-05
-4.58192e-06
-3.36708e-05
-1.88457e-05
-3.79244e-05
-3.14073e-05
-9.25023e-05
6.59185e-05
5.90439e-05
-1.73951e-05
-8.29589e-06
7.55144e-05
-8.66676e-05
-6.78926e-05
3.0386e-05
7.7631e-05
1.77019e-05
3.32318e-05
4.58682e-05
-3.17864e-05
-2.9207e-05
4.94808e-05
6.62819e-05
-3.8711e-05
-6.41099e-05
-6.13626e-05