/*--------------------------------*- C++ -*----------------------------------*\
| =========                 |                                                 |
| \\      /  F ield         | OpenFOAM: The Open Source CFD Toolbox           |
|  \\    /   O peration     | Version:  2212                                  |
|   \\  /    A nd           | Website:  www.openfoam.com                      |
|    \\/     M anipulation  |                                                 |
\*---------------------------------------------------------------------------*/
FoamFile
{
    version     2.0;
    format      ascii;
    arch        "LSB;label=32;scalar=64";
    class       volVectorField;
    location    "0.007";
    object      U;
}
// * * * * * * * * * * * * * * * * * * * * * * * * * * * * * * * * * * * * * //

dimensions      [0 1 -1 0 0 0 0];

internalField   nonuniform List<vector> 
31661
(
(-46.0742 56.9983 4.64903e-16)
(0.62239 149.595 -2.63382e-17)
(0.553522 149.574 3.46572e-17)
(0.587699 149.585 0)
(0.722481 148.834 5.27448e-17)
(0.667126 148.788 -7.01034e-17)
(0.697846 148.812 -4.38666e-17)
(0.83449 148.079 0)
(0.785468 148.017 5.19279e-17)
(0.811361 148.047 -4.99471e-20)
(-81.1767 73.0205 0)
(-9.68029 130.911 -2.7185e-16)
(14.128 13.7535 -1.1811e-16)
(0.119489 124.899 0)
(18.6324 53.3265 2.08789e-16)
(37.962 68.7031 1.38405e-18)
(22.6301 51.2578 0)
(-41.3583 63.656 -1.2216e-16)
(17.412 122.187 0)
(37.4996 71.2161 0)
(31.2113 102.207 9.06274e-17)
(30.2205 102.462 -2.20188e-16)
(0.410594 167.934 -1.19951e-18)
(-49.8196 91.5926 3.8436e-17)
(-1.37846 143.502 -2.47425e-16)
(32.2376 101.475 0)
(0.192089 162.899 -3.55507e-18)
(15.7934 180.255 -7.16409e-17)
(-9.51632 131.346 3.32363e-16)
(6.86642 134.859 -1.35506e-16)
(-46.2805 93.1586 -4.26657e-16)
(-29.8419 68.0762 1.99707e-16)
(-31.0157 71.4851 -1.05378e-16)
(26.0298 122.883 1.2598e-16)
(-3.54759 131.456 -3.86498e-17)
(-37.7666 98.2989 8.07479e-17)
(34.9053 110.428 -4.06606e-16)
(-35.3968 97.9751 -1.62671e-17)
(-11.4195 177.007 -1.77033e-16)
(-34.8467 75.6122 1.3939e-20)
(25.4615 88.4372 -2.80863e-16)
(0.379055 151.942 -1.01566e-21)
(18.5225 103.119 1.65814e-16)
(3.33106 144.009 -2.85527e-16)
(3.23672 144.988 -2.99372e-16)
(12.4479 130.814 -1.66794e-16)
(4.16197 144.433 -1.43592e-16)
(35.1007 132.155 -1.50719e-16)
(35.3941 111.641 0)
(-1.50287 157.078 0)
(24.8755 94.5567 0)
(-5.57631 168.228 -3.23637e-17)
(-13.3194 131.004 -8.5069e-17)
(36.1439 129.563 1.45792e-16)
(23.7879 177.099 -1.38496e-16)
(-11.3481 126.301 1.37435e-16)
(-15.7196 129.889 -1.57905e-16)
(-15.0276 132.541 -8.2585e-17)
(-0.01539 189.348 -2.33612e-16)
(-15.0615 126.861 -3.50367e-16)
(-12.1241 129.871 2.89889e-16)
(-12.678 128.746 0)
(-14.4802 141.092 -3.2813e-16)
(0.13905 157.154 0)
(-41.0237 123.536 0)
(59.6038 109.175 0)
(-50.0332 29.8809 2.71852e-16)
(0.0418757 188.311 7.25112e-17)
(0.101332 187.276 1.60335e-17)
(0.140671 186.258 1.30396e-16)
(-8.32724 131.351 -1.24726e-16)
(-0.00804376 184.903 -3.35563e-17)
(0.0329549 183.921 0)
(0.0568662 182.974 8.51433e-18)
(0.0669956 182.024 7.02721e-17)
(0.0724905 181.08 -6.57746e-17)
(0.0749792 180.137 0)
(0.077402 179.197 0)
(0.0797365 178.26 0)
(0.0815203 177.326 0)
(0.0825793 176.398 -4.23761e-18)
(0.0829688 175.479 -4.26163e-17)
(0.0841174 174.571 3.41663e-17)
(0.0867437 173.672 -8.58874e-18)
(0.114371 173.609 4.27903e-17)
(0.114641 174.504 -5.29042e-20)
(0.114119 175.409 -3.40734e-17)
(0.113695 176.327 8.46623e-18)
(0.112969 177.252 0)
(0.11217 178.179 2.12641e-18)
(0.111624 179.109 0)
(0.109285 180.038 -6.85882e-17)
(0.106275 180.968 6.75065e-17)
(0.106437 181.899 -2.14983e-18)
(0.10646 182.826 7.36407e-17)
(0.11029 183.745 -7.00373e-17)
(0.130598 184.647 2.13229e-20)
(0.105585 185.534 3.8854e-17)
(0.0959629 186.395 0)
(0.103708 187.315 -8.59639e-18)
(0.108667 188.259 8.63995e-18)
(0.124736 189.177 6.49555e-17)
(0.106035 190.071 -9.77302e-18)
(0.122312 190.714 1.28528e-16)
(0.0975563 190.934 -7.32775e-17)
(0.0946467 191.702 3.32842e-17)
(0.103377 191.85 5.16707e-17)
(0.0759948 192.692 4.99612e-17)
(0.101917 192.798 -8.4791e-18)
(0.0644374 193.678 -3.75475e-17)
(0.0999556 193.757 3.79683e-17)
(0.0580072 194.661 0)
(0.0988551 194.722 -6.93766e-17)
(0.0549433 195.641 0)
(0.0985979 195.69 3.47061e-17)
(0.0537139 196.618 0)
(0.0978971 196.659 0)
(0.0527309 197.595 -1.30641e-19)
(0.0971707 197.628 1.3124e-19)
(0.051631 198.571 -2.61515e-19)
(0.0966375 198.598 -8.39727e-18)
(0.0504747 199.544 2.61977e-19)
(0.0963043 199.566 1.65622e-17)
(0.0489575 200.516 8.25985e-18)
(0.0963029 200.533 -1.68372e-17)
(0.0473603 201.485 -8.41172e-18)
(0.0962137 201.5 8.42505e-18)
(0.0454411 202.452 -8.60388e-18)
(0.09612 202.465 -4.11205e-18)
(0.0433418 203.418 1.62767e-20)
(0.0962664 203.429 4.02102e-21)
(0.0414655 204.383 8.43151e-18)
(0.0962318 204.393 4.28547e-18)
(0.039608 205.345 2.63651e-19)
(0.0964963 205.356 4.21364e-18)
(0.0376543 206.306 0)
(0.0967993 206.316 -4.16125e-18)
(0.0356602 207.265 4.21825e-18)
(0.0966792 207.275 4.35248e-18)
(0.0339229 208.224 1.2343e-19)
(0.0969239 208.232 -8.48705e-21)
(0.0324717 209.182 -8.56254e-21)
(0.0971032 209.19 -4.19273e-18)
(0.0313178 210.139 -8.5752e-18)
(0.0971374 210.146 1.31974e-19)
(0.0299513 211.094 8.31387e-18)
(0.0975364 211.102 0)
(0.0285803 212.049 -4.2268e-18)
(0.0982702 212.056 6.59927e-20)
(0.0273022 213.002 -8.29778e-18)
(0.0988173 213.01 0)
(0.0262059 213.955 8.05179e-18)
(0.0995991 213.963 1.31822e-19)
(0.0252358 214.908 4.21405e-18)
(0.100327 214.916 1.31821e-19)
(0.0241796 215.859 -1.27814e-17)
(0.101141 215.867 -4.21274e-18)
(0.0230856 216.809 4.22873e-18)
(0.101946 216.817 -4.20281e-18)
(0.0219894 217.76 9.28429e-21)
(0.10259 217.767 4.2272e-18)
(0.02078 218.709 9.3683e-21)
(0.10338 218.717 9.367e-21)
(0.0193692 219.659 1.28697e-17)
(0.104206 219.666 4.20979e-18)
(0.0180927 220.609 -8.41257e-18)
(0.104839 220.615 -1.57332e-18)
(0.0169051 221.558 -5.24417e-19)
(0.105258 221.565 2.10055e-18)
(0.105633 222.514 -5.2393e-19)
(0.0153663 222.509 2.61576e-18)
(-0.0773807 222.5 -1.56336e-18)
(-0.0740098 221.55 -1.5704e-18)
(-0.0705378 220.6 0)
(-0.0675278 219.65 1.84172e-18)
(-0.0645491 218.7 -4.46989e-18)
(-0.0613176 217.75 -2.11313e-18)
(-0.0581192 216.8 3.9453e-18)
(-0.0549207 215.849 -4.22118e-18)
(-0.0519637 214.898 4.21449e-18)
(-0.0491 213.946 8.71176e-18)
(-0.0464046 212.993 -1.26578e-17)
(-0.0436677 212.039 -4.10228e-18)
(-0.0406724 211.084 1.70192e-17)
(-0.037706 210.129 1.72739e-20)
(-0.0345618 209.172 -4.20762e-18)
(-0.0313614 208.214 8.4834e-21)
(-0.0280346 207.255 8.40892e-21)
(-0.0246053 206.295 -4.21334e-18)
(-0.020971 205.334 -8.70139e-18)
(-0.0172352 204.371 4.19784e-18)
(-0.0134241 203.406 8.40968e-18)
(-0.00941679 202.438 1.39359e-19)
(-0.005375 201.469 -8.39296e-18)
(-0.00150133 200.499 -4.06972e-18)
(0.00234075 199.525 7.82799e-18)
(0.00587367 198.548 7.82062e-19)
(0.00908126 197.569 0)
(0.0121548 196.586 0)
(0.0153006 195.598 2.07068e-18)
(0.0179628 194.605 -1.65312e-17)
(0.0180974 193.606 1.64366e-17)
(0.0154585 192.6 -4.08208e-17)
(0.0079172 191.583 -3.18817e-17)
(-0.0119116 190.538 4.36954e-17)
(0.0680506 189.475 1.26135e-17)
(0.0308071 188.376 -5.67285e-18)
(-0.00464095 187.285 -1.5108e-17)
(-0.0291423 186.205 0)
(0.0513716 185.151 -1.1676e-16)
(0.0368838 184.117 6.43583e-17)
(0.0355341 183.13 -8.38832e-18)
(0.0380851 182.158 1.33677e-16)
(0.0418952 181.195 -3.35636e-17)
(0.0453534 180.24 -6.73782e-17)
(0.0478129 179.289 -3.38135e-17)
(0.0503286 178.344 1.30742e-16)
(0.113944 172.724 2.5733e-17)
(0.0900995 172.781 1.71349e-17)
(0.052531 177.404 -1.05613e-16)
(0.054377 176.474 6.78441e-17)
(0.0566836 175.554 -2.55125e-17)
(0.0591754 174.642 -3.42158e-17)
(0.0617032 173.736 3.41814e-17)
(0.0918665 171.898 0)
(0.114674 171.846 -6.00187e-17)
(0.139209 171.792 3.43017e-17)
(0.140252 172.668 8.55535e-18)
(0.141081 173.553 0)
(0.142092 174.448 -1.70434e-17)
(0.142003 175.351 2.13559e-17)
(0.140354 176.263 -4.24295e-18)
(0.139141 177.182 -3.6165e-17)
(0.138465 178.105 -2.07766e-18)
(0.13769 179.029 3.42126e-17)
(0.138753 179.953 3.49096e-17)
(0.140219 180.878 -3.43759e-17)
(0.139784 181.805 -2.15396e-18)
(0.140796 182.728 -8.70107e-18)
(0.144921 183.648 0)
(0.151839 184.566 -1.77607e-17)
(0.142773 185.488 1.81702e-17)
(0.126602 186.404 0)
(0.127937 187.32 6.59437e-18)
(0.139758 188.244 -1.09914e-17)
(0.155246 189.164 -3.14083e-17)
(0.149055 190.087 3.40414e-18)
(0.136724 191.011 0)
(0.134929 191.94 1.73799e-17)
(0.137696 192.879 -3.42121e-17)
(0.140772 193.826 3.40814e-17)
(0.141914 194.78 3.18268e-18)
(0.142204 195.737 -9.90226e-23)
(0.142859 196.697 1.68959e-17)
(0.143816 197.66 -1.68702e-17)
(0.145043 198.623 0)
(0.146285 199.586 -3.29497e-20)
(0.147935 200.55 3.29235e-20)
(0.149626 201.514 0)
(0.151312 202.476 -3.2966e-20)
(0.153225 203.439 -4.20379e-18)
(0.155214 204.402 -5.77314e-20)
(0.15681 205.363 4.23983e-18)
(0.158723 206.323 4.15229e-18)
(0.16087 207.281 -4.3642e-18)
(0.162569 208.238 2.10915e-18)
(0.164593 209.195 -2.14624e-18)
(0.16698 210.151 6.59783e-20)
(0.169311 211.107 6.59372e-20)
(0.17162 212.061 -2.32066e-24)
(0.174008 213.015 -6.59401e-20)
(0.176034 213.968 2.10705e-18)
(0.178515 214.92 -2.3731e-18)
(0.181158 215.872 2.23784e-18)
(0.183775 216.822 -2.11023e-18)
(0.186448 217.772 2.36775e-18)
(0.18893 218.721 -2.10703e-18)
(0.191232 219.67 2.10089e-18)
(0.19339 220.619 -5.30132e-19)
(0.195655 221.568 -2.62509e-18)
(0.197892 222.517 0)
(0.200084 223.466 -2.09416e-18)
(0.105936 223.464 -5.23578e-19)
(0.0135015 223.459 -2.09261e-18)
(-0.0808874 223.451 -1.03584e-18)
(-0.177445 223.443 0)
(-0.172593 222.492 -5.23321e-19)
(-0.167771 221.541 2.09961e-18)
(-0.163085 220.591 -2.35945e-18)
(-0.157808 219.641 0)
(-0.152812 218.691 2.62928e-19)
(-0.147976 217.741 -2.10733e-18)
(-0.143095 216.79 2.23581e-18)
(-0.138321 215.839 2.6336e-19)
(-0.133279 214.887 0)
(-0.128472 213.935 0)
(-0.123838 212.983 -1.97934e-19)
(-0.119095 212.029 1.98053e-18)
(-0.114135 211.074 -1.27552e-19)
(-0.109134 210.119 -1.8446e-18)
(-0.104142 209.162 -2.11209e-18)
(-0.0992262 208.204 1.97615e-18)
(-0.0943232 207.245 2.11113e-18)
(-0.0893688 206.285 -1.57873e-18)
(-0.0842691 205.323 0)
(-0.0792656 204.359 0)
(-0.0743139 203.393 0)
(-0.0694392 202.425 0)
(-0.0645286 201.455 -2.09751e-18)
(-0.0593702 200.483 2.08906e-18)
(-0.0541858 199.507 5.2134e-19)
(-0.0490168 198.528 -4.68843e-18)
(-0.0439575 197.546 3.10708e-18)
(-0.0387134 196.558 2.06733e-18)
(-0.0336417 195.566 -1.57102e-23)
(-0.0303434 194.569 8.21557e-18)
(-0.0299963 193.564 -8.14706e-18)
(-0.0318902 192.547 -8.06745e-18)
(-0.0341563 191.522 -7.90856e-18)
(-0.0260211 190.491 -2.31204e-17)
(-0.000534783 189.451 4.73926e-19)
(-0.0119365 188.393 7.65224e-18)
(-0.0178408 187.326 -3.0741e-17)
(-0.0203388 186.273 6.1324e-17)
(0.00879972 185.262 -2.32194e-17)
(0.00583012 184.255 0)
(0.00621398 183.26 7.33719e-17)
(0.00805177 182.276 -6.58842e-17)
(0.0105234 181.303 -3.32509e-17)
(0.013363 180.337 3.22879e-17)
(0.0169641 179.378 -3.35789e-17)
(0.0195285 178.427 7.55963e-17)
(0.0216626 177.485 -6.32246e-17)
(0.0242693 176.553 -5.41295e-20)
(0.0636803 172.839 -1.71911e-17)
(0.0276652 175.628 4.24108e-17)
(0.0313322 174.71 0)
(0.0345567 173.799 0)
(0.138385 170.924 -3.42599e-17)
(0.115697 170.976 -8.62255e-18)
(0.0663988 171.947 0)
(0.0931046 171.022 8.59287e-18)
(0.138057 170.063 -3.43163e-17)
(0.161137 170.011 1.7109e-17)
(0.163033 170.873 -1.71256e-17)
(0.164671 171.742 -2.5651e-17)
(0.166094 172.62 2.60001e-20)
(0.167129 173.506 2.62038e-20)
(0.167701 174.401 1.70671e-17)
(0.169259 175.302 -4.27077e-18)
(0.171387 176.211 -2.12902e-18)
(0.1729 177.126 2.12957e-18)
(0.173386 178.045 0)
(0.173524 178.966 -1.06877e-18)
(0.173684 179.89 -1.76525e-17)
(0.173971 180.816 1.61063e-17)
(0.174851 181.743 2.15126e-18)
(0.175387 182.67 2.15884e-18)
(0.175709 183.597 0)
(0.178456 184.526 8.71983e-18)
(0.175337 185.458 -9.11982e-18)
(0.168262 186.386 -1.32799e-17)
(0.168541 187.308 -2.18461e-18)
(0.174866 188.236 0)
(0.183076 189.169 8.80721e-18)
(0.18287 190.108 -3.31471e-18)
(0.180112 191.046 0)
(0.179039 191.985 -8.62759e-18)
(0.180206 192.928 2.99881e-17)
(0.182417 193.875 -1.49335e-17)
(0.185987 194.825 -9.76132e-23)
(0.189449 195.777 -1.06117e-18)
(0.192028 196.732 -1.64292e-17)
(0.194342 197.688 2.53776e-17)
(0.196773 198.647 -8.47087e-18)
(0.199502 199.606 2.97425e-19)
(0.201864 200.566 8.40683e-18)
(0.204471 201.526 -4.23767e-18)
(0.207688 202.487 -4.22519e-18)
(0.210834 203.449 0)
(0.21359 204.409 -4.22058e-18)
(0.216649 205.369 4.1449e-18)
(0.219906 206.328 0)
(0.223766 207.286 4.2216e-18)
(0.227775 208.242 -4.23096e-18)
(0.231438 209.198 0)
(0.235229 210.154 -1.31925e-19)
(0.239316 211.109 -6.59443e-20)
(0.243381 212.063 -2.17504e-18)
(0.247531 213.017 7.03866e-20)
(0.252035 213.969 2.11232e-18)
(0.256258 214.922 2.63342e-19)
(0.260609 215.873 2.10563e-18)
(0.264979 216.824 -2.1098e-18)
(0.269339 217.774 1.84081e-18)
(0.273659 218.723 -2.1075e-18)
(0.277782 219.671 1.83842e-18)
(0.281969 220.62 -2.10397e-18)
(0.285923 221.568 2.16586e-23)
(0.289726 222.517 -1.04741e-18)
(0.293552 223.465 1.05029e-18)
(0.297179 224.413 1.5726e-18)
(0.202253 224.414 1.23185e-21)
(0.106202 224.413 5.23198e-19)
(0.0115543 224.41 2.09408e-18)
(-0.0847029 224.403 5.22721e-18)
(-0.181914 224.395 1.04464e-18)
(-0.276503 224.385 -3.13369e-18)
(-0.270244 223.434 2.09066e-18)
(-0.264201 222.483 -5.24603e-19)
(-0.257599 221.532 1.04714e-18)
(-0.251055 220.582 1.09626e-23)
(-0.244936 219.632 0)
(-0.23828 218.681 1.84214e-18)
(-0.231803 217.731 -2.23434e-18)
(-0.225314 216.78 2.63245e-19)
(-0.218424 215.829 -2.63231e-19)
(-0.211858 214.877 -1.318e-19)
(-0.205048 213.925 0)
(-0.197856 212.972 2.11285e-18)
(-0.191039 212.019 4.39293e-21)
(-0.18439 211.064 -1.97615e-18)
(-0.177673 210.108 -2.63806e-19)
(-0.170946 209.152 -2.11201e-18)
(-0.164152 208.194 4.21954e-18)
(-0.157439 207.235 -3.69067e-18)
(-0.150988 206.274 -7.94409e-19)
(-0.144754 205.312 2.10364e-18)
(-0.138597 204.349 -5.25929e-19)
(-0.132557 203.383 0)
(-0.126701 202.416 5.24476e-19)
(-0.121011 201.446 1.04817e-18)
(-0.115311 200.473 -2.61186e-18)
(-0.109752 199.496 -1.97231e-21)
(-0.104357 198.516 -1.958e-21)
(-0.0989092 197.533 3.10738e-18)
(-0.0934946 196.544 -1.02896e-18)
(-0.0887955 195.55 -6.16627e-18)
(-0.0841722 194.551 -2.04692e-18)
(-0.0791596 193.545 2.02619e-18)
(-0.0756362 192.531 -8.53942e-18)
(-0.0731812 191.512 2.03994e-17)
(-0.0652514 190.49 -3.93289e-18)
(-0.0552764 189.463 -4.86637e-19)
(-0.0520923 188.431 0)
(-0.0444647 187.401 3.32188e-17)
(-0.0372099 186.376 -2.9391e-17)
(-0.032304 185.365 -9.87641e-18)
(-0.0299267 184.361 0)
(-0.0282028 183.366 2.43599e-17)
(-0.0265896 182.379 -6.55072e-17)
(-0.023012 181.401 3.30011e-17)
(-0.0192862 180.428 -1.03604e-18)
(-0.0160573 179.465 3.33166e-17)
(-0.0128104 178.511 -3.75799e-17)
(-0.00907038 177.567 0)
(-0.00485086 176.629 2.53061e-17)
(-0.000916253 175.699 -7.62359e-17)
(0.0382035 172.894 -1.7117e-17)
(0.00297049 174.776 5.94975e-17)
(0.0075521 173.859 -4.25297e-17)
(0.116407 170.112 -5.11481e-20)
(0.159479 169.156 0)
(0.137867 169.207 1.70866e-17)
(0.04236 171.995 1.7167e-17)
(0.0694536 171.063 -1.71656e-17)
(0.0946967 170.153 -1.72119e-17)
(0.157907 168.307 -8.56435e-18)
(0.179382 168.255 -2.56782e-17)
(0.182354 169.105 8.53749e-18)
(0.185115 169.962 -2.548e-20)
(0.187692 170.827 -2.13828e-17)
(0.19011 171.7 -4.27291e-18)
(0.192137 172.581 4.27155e-18)
(0.193521 173.469 -1.70701e-17)
(0.194314 174.364 1.49569e-17)
(0.194524 175.266 -1.06648e-18)
(0.194411 176.175 2.13183e-18)
(0.194213 177.089 0)
(0.194908 178.006 -1.70909e-17)
(0.196218 178.927 1.76243e-17)
(0.197174 179.852 5.34166e-19)
(0.197873 180.779 -2.67935e-19)
(0.199152 181.706 0)
(0.201411 182.636 2.14909e-18)
(0.203844 183.568 2.15509e-18)
(0.207183 184.503 0)
(0.207657 185.438 2.73035e-19)
(0.208735 186.37 1.30911e-17)
(0.210629 187.299 -2.1727e-18)
(0.212401 188.234 0)
(0.214533 189.174 8.7007e-18)
(0.218101 190.118 -8.70814e-18)
(0.21989 191.062 4.32695e-18)
(0.221066 192.007 -8.59416e-18)
(0.222608 192.954 4.27586e-18)
(0.224896 193.903 -2.13099e-18)
(0.227726 194.854 -2.12681e-18)
(0.231334 195.805 -5.31231e-19)
(0.235586 196.758 7.95505e-18)
(0.239957 197.712 -1.69617e-17)
(0.243619 198.667 1.69757e-17)
(0.246789 199.621 -1.29889e-17)
(0.250765 200.578 4.23514e-18)
(0.2554 201.536 0)
(0.25992 202.494 4.23836e-18)
(0.264739 203.454 -4.22296e-18)
(0.270408 204.414 6.60522e-20)
(0.275693 205.372 2.14515e-18)
(0.280726 206.329 -2.08197e-18)
(0.285831 207.286 2.10988e-18)
(0.291457 208.243 -2.11504e-18)
(0.297349 209.198 0)
(0.302947 210.153 2.17529e-18)
(0.308666 211.108 -3.16638e-18)
(0.314761 212.062 1.05649e-18)
(0.320868 213.015 -6.59513e-20)
(0.326834 213.968 0)
(0.332885 214.919 -1.18473e-18)
(0.338859 215.871 1.05462e-18)
(0.345045 216.822 9.20746e-19)
(0.351035 217.771 -1.05441e-18)
(0.35693 218.72 0)
(0.362963 219.669 5.25955e-19)
(0.368826 220.617 0)
(0.37452 221.565 1.04928e-18)
(0.380114 222.513 -1.21096e-21)
(0.385434 223.461 -5.90263e-19)
(0.390524 224.408 -1.96472e-19)
(0.395659 225.353 -3.93164e-19)
(0.300586 225.359 7.859e-19)
(0.204166 225.362 -1.04671e-18)
(0.106419 225.362 5.2276e-19)
(0.00949038 225.359 0)
(-0.0883986 225.353 -1.04948e-18)
(-0.186382 225.346 3.13134e-18)
(-0.283038 225.337 2.0904e-18)
(-0.377554 225.326 0)
(-0.369875 224.374 -1.56743e-18)
(-0.361785 223.423 1.57195e-18)
(-0.353696 222.473 -3.14124e-18)
(-0.345985 221.522 -1.04939e-18)
(-0.33767 220.572 2.36175e-18)
(-0.329293 219.622 -1.04973e-18)
(-0.321283 218.672 2.62751e-19)
(-0.312754 217.721 8.1153e-24)
(-0.304329 216.77 -8.15248e-24)
(-0.296214 215.819 0)
(-0.287578 214.867 1.31763e-19)
(-0.279055 213.914 1.31779e-19)
(-0.270733 212.961 1.12175e-18)
(-0.262119 212.008 -1.05455e-18)
(-0.253574 211.053 2.63763e-19)
(-0.245108 210.098 -1.05624e-18)
(-0.236675 209.141 2.61569e-19)
(-0.228371 208.184 1.84561e-18)
(-0.220258 207.224 -2.63564e-18)
(-0.212262 206.264 1.31606e-18)
(-0.204397 205.303 -5.33725e-22)
(-0.196671 204.339 1.05097e-18)
(-0.189127 203.374 2.62899e-19)
(-0.181713 202.407 -7.86443e-19)
(-0.174526 201.438 -1.6377e-20)
(-0.167803 200.466 5.38964e-19)
(-0.16133 199.49 -1.04216e-18)
(-0.154712 198.511 0)
(-0.148483 197.528 2.07173e-18)
(-0.14276 196.54 -2.06483e-18)
(-0.137004 195.547 6.16333e-18)
(-0.131195 194.55 0)
(-0.12528 193.547 -8.12905e-18)
(-0.118716 192.539 8.06846e-18)
(-0.111209 191.529 8.03178e-18)
(-0.103497 190.516 0)
(-0.0973602 189.5 1.97916e-18)
(-0.0920643 188.484 0)
(-0.0836563 187.469 -3.28816e-22)
(-0.0749474 186.458 2.98236e-17)
(-0.070316 185.453 -2.93565e-17)
(-0.0690612 184.453 3.21559e-17)
(-0.0661963 183.46 -3.03762e-17)
(-0.0620814 182.474 0)
(-0.058126 181.492 0)
(-0.0536472 180.517 4.1172e-18)
(-0.0495054 179.552 0)
(-0.0449082 178.596 3.32967e-17)
(-0.0397654 177.646 5.46593e-20)
(-0.0344707 176.702 -1.67506e-17)
(-0.0297731 175.766 -3.38929e-17)
(-0.0262873 174.84 8.48326e-17)
(0.0114226 172.946 0)
(-0.0225117 173.917 8.54229e-18)
(0.117092 169.253 3.42786e-17)
(0.137668 168.356 3.42664e-17)
(0.0144701 172.042 0)
(0.176481 167.412 5.9869e-17)
(0.156224 167.464 1.71167e-17)
(0.0456217 171.102 1.72309e-17)
(0.0721835 170.187 0)
(0.0960897 169.289 4.29385e-17)
(0.173628 166.574 -3.41695e-17)
(0.193215 166.52 0)
(0.197868 167.359 1.2801e-17)
(0.202118 168.205 -1.70969e-17)
(0.205824 169.059 8.54104e-18)
(0.208912 169.921 -1.70682e-17)
(0.211063 170.79 2.13612e-17)
(0.212668 171.667 4.26886e-18)
(0.214321 172.553 -4.26781e-18)
(0.216247 173.445 -1.06667e-18)
(0.217634 174.343 3.20421e-18)
(0.21855 175.246 -7.98977e-18)
(0.219882 176.154 5.46679e-19)
(0.221326 177.067 8.80757e-18)
(0.222459 177.984 -1.33332e-19)
(0.223461 178.905 -7.86135e-18)
(0.224664 179.829 8.01271e-18)
(0.226873 180.756 6.88623e-25)
(0.229961 181.684 -9.08153e-18)
(0.233426 182.615 8.57231e-18)
(0.237572 183.549 -6.42303e-18)
(0.242041 184.486 2.15176e-18)
(0.245338 185.422 2.1602e-18)
(0.249357 186.357 1.07859e-18)
(0.250861 187.292 -5.37808e-19)
(0.251338 188.232 1.07585e-18)
(0.252936 189.176 1.61311e-18)
(0.256579 190.121 -2.42691e-18)
(0.259693 191.068 0)
(0.262167 192.016 0)
(0.264734 192.965 0)
(0.267808 193.915 4.25427e-18)
(0.271488 194.866 -3.72428e-18)
(0.275653 195.818 3.71202e-23)
(0.280256 196.771 -4.2418e-18)
(0.285276 197.725 4.37971e-18)
(0.291257 198.678 4.24387e-18)
(0.297816 199.632 -4.11441e-18)
(0.303937 200.586 4.23214e-18)
(0.309303 201.542 -4.24175e-18)
(0.314869 202.498 -4.21188e-18)
(0.320651 203.456 4.22868e-18)
(0.326523 204.414 -1.32064e-19)
(0.333464 205.371 3.30388e-20)
(0.340607 206.328 -2.14551e-18)
(0.34757 207.284 4.20929e-21)
(0.354557 208.24 2.11435e-18)
(0.361995 209.195 1.65062e-20)
(0.369702 210.15 0)
(0.377207 211.104 0)
(0.384762 212.058 1.11987e-18)
(0.392602 213.011 -9.90292e-19)
(0.4005 213.963 -9.87883e-19)
(0.408336 214.915 9.23689e-19)
(0.416134 215.866 3.94647e-19)
(0.423764 216.816 -3.95513e-19)
(0.431611 217.766 -1.31666e-19)
(0.439521 218.715 0)
(0.447104 219.664 -5.25546e-19)
(0.45446 220.612 -2.61535e-19)
(0.461846 221.56 5.25673e-19)
(0.469027 222.507 6.55155e-20)
(0.475972 223.454 -5.90292e-19)
(0.482823 224.4 1.31009e-18)
(0.489498 225.344 -9.19076e-19)
(0.496067 226.288 -8.19334e-21)
(0.400741 226.297 8.19031e-21)
(0.303909 226.303 0)
(0.205813 226.308 2.61735e-19)
(0.106575 226.309 -2.61476e-19)
(0.00751772 226.308 5.21843e-19)
(-0.0917459 226.304 -3.13485e-18)
(-0.191235 226.297 -1.04559e-18)
(-0.289261 226.289 -1.043e-18)
(-0.385222 226.278 1.04371e-18)
(-0.470468 225.313 2.09177e-18)
(-0.461353 224.362 -5.19114e-19)
(-0.451875 223.412 -1.0449e-18)
(-0.442029 222.461 5.23847e-19)
(-0.43215 221.511 0)
(-0.422718 220.561 0)
(-0.412744 219.611 0)
(-0.402634 218.661 0)
(-0.392814 217.711 1.31477e-19)
(-0.382587 216.76 -1.02676e-23)
(-0.372376 215.808 3.95624e-19)
(-0.362383 214.856 -5.26134e-19)
(-0.352044 213.904 3.95871e-19)
(-0.341734 212.95 -3.94926e-19)
(-0.331685 211.997 -6.60213e-19)
(-0.3216 211.043 2.6321e-19)
(-0.311537 210.087 2.63745e-19)
(-0.301627 209.131 -2.63708e-19)
(-0.291869 208.173 7.91535e-19)
(-0.282219 207.214 5.04891e-22)
(-0.272687 206.254 0)
(-0.263425 205.293 -5.18381e-19)
(-0.254254 204.331 -8.20618e-21)
(-0.24537 203.366 0)
(-0.236838 202.4 0)
(-0.228408 201.432 0)
(-0.220225 200.461 -2.09543e-18)
(-0.212015 199.487 3.12603e-18)
(-0.203807 198.509 0)
(-0.196234 197.528 -4.14844e-18)
(-0.188878 196.543 -2.06956e-18)
(-0.181582 195.553 2.05377e-18)
(-0.174106 194.559 0)
(-0.166634 193.562 -4.08386e-18)
(-0.159497 192.562 0)
(-0.152087 191.56 -8.09643e-18)
(-0.144626 190.556 -1.61061e-17)
(-0.13807 189.55 4.80605e-17)
(-0.131947 188.544 -1.94231e-18)
(-0.124459 187.539 -6.60325e-17)
(-0.117522 186.536 -5.70677e-20)
(-0.111821 185.536 3.16394e-17)
(-0.10692 184.541 -3.23671e-17)
(-0.102052 183.55 -2.08342e-18)
(-0.0972012 182.564 4.53118e-19)
(-0.0924982 181.581 3.26525e-17)
(-0.0879176 180.607 -4.10228e-18)
(-0.0825881 179.64 0)
(-0.0771885 178.68 0)
(-0.0716343 177.723 0)
(-0.0667666 176.774 -1.67357e-17)
(-0.0617264 175.835 -3.37476e-17)
(-0.0546859 174.902 5.89733e-17)
(-0.0168043 173 -3.40036e-17)
(-0.0477966 173.974 -3.38986e-17)
(-0.479489 226.265 1.04336e-18)
(-0.0440522 173.052 0)
(0.117832 168.397 8.58784e-18)
(-0.00998562 172.088 1.71329e-17)
(0.137363 167.509 -4.28273e-17)
(0.0193191 171.142 -1.71784e-17)
(0.154289 166.623 0)
(0.0494062 170.216 0)
(0.188387 165.688 0)
(0.170578 165.741 -1.71498e-17)
(0.0748959 169.316 -8.60454e-18)
(0.0978464 168.428 2.6148e-20)
(0.183489 164.863 -8.55438e-18)
(0.201719 164.807 -2.56161e-17)
(0.208084 165.634 3.41876e-17)
(0.213647 166.469 -2.13305e-17)
(0.218441 167.312 4.2673e-17)
(0.222637 168.163 -1.28131e-17)
(0.226086 169.022 1.70539e-17)
(0.229222 169.89 -1.70792e-17)
(0.232464 170.765 2.13329e-18)
(0.235746 171.646 0)
(0.239131 172.533 -8.52543e-18)
(0.242695 173.427 9.59816e-18)
(0.247036 174.326 -1.06719e-18)
(0.251243 175.23 4.79376e-18)
(0.254555 176.14 -4.80144e-18)
(0.257446 177.054 -2.66571e-19)
(0.260068 177.971 6.66401e-20)
(0.262748 178.892 -1.33255e-19)
(0.265205 179.816 -4.39934e-18)
(0.267349 180.742 2.73722e-19)
(0.269606 181.67 4.80839e-18)
(0.272158 182.602 2.13478e-18)
(0.27495 183.537 -4.27477e-18)
(0.278117 184.475 4.01773e-18)
(0.282052 185.412 -4.29794e-18)
(0.285854 186.349 -3.1198e-23)
(0.287401 187.288 0)
(0.289006 188.23 1.33618e-19)
(0.291433 189.174 9.35301e-19)
(0.295262 190.12 -8.03922e-19)
(0.299014 191.068 -1.06752e-18)
(0.30273 192.017 1.0679e-18)
(0.306532 192.966 0)
(0.310683 193.917 0)
(0.315347 194.868 1.0626e-18)
(0.320465 195.821 2.65473e-19)
(0.326016 196.774 0)
(0.331904 197.728 -1.32628e-19)
(0.338097 198.681 0)
(0.344681 199.636 1.98625e-18)
(0.351743 200.59 -2.1216e-18)
(0.359552 201.544 0)
(0.367335 202.499 -3.31015e-20)
(0.374991 203.454 -3.30623e-20)
(0.3829 204.411 7.02162e-20)
(0.39077 205.367 0)
(0.399312 206.324 0)
(0.408139 207.279 0)
(0.416893 208.234 -1.05549e-18)
(0.425708 209.189 1.02409e-18)
(0.434898 210.144 3.30027e-20)
(0.444327 211.098 0)
(0.453563 212.051 4.61176e-19)
(0.462853 213.004 -1.05471e-18)
(0.472438 213.956 1.51567e-18)
(0.482002 214.908 -3.97176e-19)
(0.491494 215.858 -9.22318e-19)
(0.501003 216.809 1.14884e-21)
(0.510362 217.758 6.58674e-19)
(0.5196 218.708 -2.62761e-19)
(0.528928 219.656 -5.25163e-19)
(0.538237 220.604 5.26523e-19)
(0.547187 221.552 2.6294e-19)
(0.555943 222.499 2.62542e-19)
(0.564596 223.445 5.24328e-19)
(0.573089 224.39 -6.56623e-19)
(0.581415 225.334 0)
(0.589562 226.278 1.04774e-18)
(0.597455 227.222 -2.52049e-21)
(0.502508 227.232 9.81374e-19)
(0.405588 227.24 6.54906e-20)
(0.307103 227.247 1.04617e-18)
(0.207328 227.252 -1.04543e-18)
(0.106637 227.255 -5.22283e-19)
(0.00577029 227.256 -6.33159e-22)
(-0.0951978 227.254 -6.3767e-22)
(-0.195788 227.248 1.04363e-18)
(-0.295147 227.24 1.04087e-18)
(-0.392923 227.23 0)
(-0.488542 227.217 2.08291e-18)
(-0.571666 226.251 1.04591e-18)
(-0.560871 225.299 4.96911e-21)
(-0.550035 224.349 -2.0903e-18)
(-0.539353 223.399 5.2365e-19)
(-0.528399 222.449 0)
(-0.516935 221.499 2.62196e-19)
(-0.505313 220.549 -1.31255e-19)
(-0.494047 219.6 -2.62911e-19)
(-0.482394 218.649 2.62576e-19)
(-0.47058 217.699 0)
(-0.459047 216.748 -1.3156e-19)
(-0.447151 215.797 6.58916e-19)
(-0.435231 214.845 -2.62585e-19)
(-0.423577 213.892 -2.63185e-19)
(-0.411763 212.939 -1.24688e-23)
(-0.399922 211.985 1.24353e-23)
(-0.38829 211.031 2.64022e-19)
(-0.37671 210.076 -1.05512e-18)
(-0.365249 209.119 2.62907e-19)
(-0.354029 208.162 -5.30237e-22)
(-0.343086 207.204 -6.62624e-20)
(-0.332298 206.245 -4.61053e-19)
(-0.321635 205.285 5.41248e-22)
(-0.31125 204.323 -1.05128e-18)
(-0.300927 203.359 -1.05244e-18)
(-0.290771 202.394 2.0999e-18)
(-0.28096 201.427 0)
(-0.27121 200.458 0)
(-0.262008 199.486 3.1353e-18)
(-0.253376 198.51 -4.15703e-18)
(-0.244333 197.531 2.07515e-22)
(-0.235203 196.549 -2.06901e-18)
(-0.226607 195.563 1.0319e-17)
(-0.219335 194.574 -2.47037e-17)
(-0.212246 193.585 2.45832e-17)
(-0.203819 192.593 -1.22706e-17)
(-0.194823 191.599 3.25791e-17)
(-0.18615 190.603 -1.62012e-17)
(-0.177976 189.605 -2.02116e-18)
(-0.17028 188.606 3.64276e-22)
(-0.162846 187.608 -3.43359e-17)
(-0.155638 186.611 6.46212e-17)
(-0.149612 185.616 -4.47803e-19)
(-0.144349 184.625 -3.23632e-17)
(-0.139022 183.636 3.2531e-17)
(-0.133943 182.651 -6.54735e-17)
(-0.128264 181.67 3.36299e-17)
(-0.122461 180.695 3.48628e-17)
(-0.116893 179.727 -3.2854e-17)
(-0.110764 178.761 0)
(-0.10507 177.801 0)
(-0.0995654 176.85 8.33502e-18)
(-0.0930368 175.906 0)
(-0.0868409 174.965 3.35363e-17)
(-0.0810841 174.031 -3.36941e-17)
(-0.0723616 173.104 1.69547e-17)
(-0.582079 227.203 0)
(-0.0634805 172.181 -2.54375e-17)
(-0.0402204 172.136 -8.54161e-18)
(0.118559 167.545 -1.71332e-17)
(-0.00490344 171.183 1.42857e-20)
(0.136999 166.666 2.14022e-17)
(0.0249082 170.246 -3.44791e-17)
(0.152485 165.788 0)
(0.0534273 169.337 0)
(0.167011 164.914 -2.47944e-20)
(0.0777448 168.45 -8.61495e-18)
(0.194784 163.989 -8.56068e-18)
(0.178426 164.044 8.56831e-18)
(0.0997221 167.571 -3.4334e-17)
(0.605041 228.165 -9.18147e-19)
(0.508757 228.175 -2.54255e-21)
(0.410278 228.183 0)
(0.310153 228.191 -2.5458e-21)
(0.208579 228.197 1.0474e-18)
(0.106518 228.2 1.30612e-18)
(0.00427267 228.202 -5.21052e-19)
(-0.0984477 228.202 -2.6161e-19)
(-0.200235 228.198 -5.21598e-19)
(-0.301117 228.191 -1.0472e-18)
(-0.400623 228.181 3.12337e-18)
(-0.497349 228.169 -2.08677e-18)
(-0.592118 228.154 0)
(-0.672312 227.186 0)
(-0.66108 226.235 5.23737e-19)
(-0.649326 225.285 -1.04355e-18)
(-0.637117 224.335 0)
(-0.624808 223.386 0)
(-0.612117 222.436 2.62064e-19)
(-0.599449 221.486 -1.31105e-19)
(-0.586362 220.536 1.31221e-19)
(-0.573086 219.587 0)
(-0.560032 218.637 1.3139e-19)
(-0.546856 217.687 -6.58472e-20)
(-0.533432 216.736 6.57076e-20)
(-0.520109 215.784 0)
(-0.506795 214.833 0)
(-0.493344 213.88 1.31727e-19)
(-0.480083 212.927 -1.31943e-19)
(-0.466882 211.973 3.29569e-19)
(-0.453677 211.019 -1.97861e-19)
(-0.44072 210.064 1.64709e-19)
(-0.427978 209.108 -3.29319e-20)
(-0.415356 208.151 2.63705e-19)
(-0.402856 207.194 -2.63649e-19)
(-0.390649 206.235 5.26556e-19)
(-0.378633 205.275 1.0534e-18)
(-0.366831 204.315 5.2693e-19)
(-0.355434 203.352 0)
(-0.344277 202.389 -3.68083e-18)
(-0.33338 201.423 3.145e-18)
(-0.322452 200.455 4.18942e-18)
(-0.311798 199.485 2.09917e-18)
(-0.301695 198.513 -5.20907e-18)
(-0.291979 197.536 2.39711e-22)
(-0.282975 196.558 0)
(-0.274565 195.578 -4.13843e-18)
(-0.264838 194.596 -1.65359e-17)
(-0.254507 193.613 1.23447e-17)
(-0.244814 192.628 -2.05435e-17)
(-0.235577 191.641 1.6363e-17)
(-0.226823 190.652 0)
(-0.219176 189.661 3.25705e-17)
(-0.211181 188.669 -6.28364e-17)
(-0.202768 187.676 3.44532e-17)
(-0.195029 186.684 0)
(-0.188502 185.694 -3.19989e-17)
(-0.182905 184.707 3.24237e-17)
(-0.176751 183.721 -3.28047e-17)
(-0.17051 182.737 6.4988e-17)
(-0.16439 181.758 -1.4732e-18)
(-0.157902 180.783 -3.27156e-17)
(-0.151459 179.811 0)
(-0.145681 178.843 -3.29282e-17)
(-0.139864 177.882 -4.18279e-18)
(-0.132815 176.928 6.63492e-17)
(-0.126252 175.977 -3.32822e-17)
(-0.120051 175.033 2.92146e-17)
(-0.112193 174.093 -6.72619e-17)
(-0.104411 173.158 2.51723e-17)
(-0.0963674 172.226 -1.68993e-17)