/*--------------------------------*- C++ -*----------------------------------*\
| =========                 |                                                 |
| \\      /  F ield         | OpenFOAM: The Open Source CFD Toolbox           |
|  \\    /   O peration     | Version:  2212                                  |
|   \\  /    A nd           | Website:  www.openfoam.com                      |
|    \\/     M anipulation  |                                                 |
\*---------------------------------------------------------------------------*/
FoamFile
{
    version     2.0;
    format      ascii;
    arch        "LSB;label=32;scalar=64";
    class       volVectorField;
    location    "0.00685";
    object      U;
}
// * * * * * * * * * * * * * * * * * * * * * * * * * * * * * * * * * * * * * //

dimensions      [0 1 -1 0 0 0 0];

internalField   nonuniform List<vector> 
2681
(
(0.621006 -1.37792 -1.94383e-18)
(6.71839 -59.5275 0)
(12.3066 -52.7113 -2.96201e-18)
(0.146208 0.00441415 -8.59171e-18)
(1.41251 -55.7176 2.00563e-18)
(-6.62528 -58.9496 4.87489e-18)
(-0.0876004 0.011637 -2.13699e-18)
(-0.148295 -0.000614563 2.77853e-19)
(-0.163739 -0.00300651 5.50889e-19)
(-0.165908 -0.00420531 -1.38693e-19)
(0.134091 -0.00161378 0)
(0.114371 -0.0650627 -1.47306e-19)
(0.12825 -0.0478568 -1.4303e-19)
(0.099772 -0.369701 0)
(0.0781713 -0.107651 -6.53765e-19)
(-0.0533329 -0.135245 1.07111e-18)
(0.00275552 -0.216912 0)
(0.151906 -0.00135771 -6.847e-19)
(0.158864 0.00181757 3.03447e-18)
(0.168562 0.00363426 -3.5053e-18)
(0.163415 -0.0144876 -1.12866e-17)
(0.130958 -0.0462966 8.31038e-19)
(0.144594 -0.0305671 -3.3202e-18)
(0.155041 -0.0202149 2.23695e-18)
(0.0956389 -0.0946099 -1.24112e-18)
(0.115757 -0.0654228 0)
(0.15398 -0.00252958 -2.6014e-18)
(0.136538 -0.00028829 2.43746e-19)
(0.139133 -0.00382538 1.10742e-18)
(0.162576 -0.00596777 1.32792e-18)
(0.159297 -0.00141804 -6.27799e-19)
(0.165403 -0.00066243 1.30168e-18)
(0.162901 -0.00389071 -1.13609e-18)
(0.155652 -0.0192871 5.75612e-19)
(0.162853 -0.00904972 0)
(0.142936 -0.0324953 -8.52062e-19)
(-0.125607 -0.0565631 2.15256e-18)
(-0.104448 -0.0699999 2.57939e-19)
(-0.0916314 -0.0819673 -5.14332e-19)
(-0.108899 -0.0720393 -5.21432e-19)
(-0.0942935 -0.0871051 9.59926e-19)
(-0.130053 -0.0305466 0)
(-0.118602 -0.0513271 -2.72201e-19)
(-0.152764 -0.0228229 0)
(-0.139736 -0.0296193 0)
(-0.429059 -61.4518 0)
(-0.164003 -0.00894192 1.40499e-19)
(-0.156822 -0.00389092 -1.09494e-18)
(0.110971 -0.00239276 0)
(-0.138058 -0.00441159 -2.78253e-19)
(-0.1477 -0.00482396 2.36272e-23)
(-0.077571 -0.098876 2.04806e-18)
(-0.0241394 -0.194601 1.53085e-19)
(-0.149332 0.00257811 -2.77217e-19)
(-0.138214 0.00115136 5.64117e-19)
(0.143171 -0.0335852 1.42998e-19)
(0.130104 -0.0489552 -4.29413e-19)
(0.121193 -0.00271408 -2.89487e-19)
(-0.129076 -0.00226892 0)
(-0.140838 -0.00289884 5.52177e-19)
(-0.133233 0.000967906 1.38428e-19)
(0.156112 -0.00384673 0)
(0.149248 -0.00171412 2.43368e-18)
(0.159226 -0.00855423 2.89082e-18)
(0.15795 -0.00765878 -4.95503e-19)
(0.129678 -0.0430965 -1.18405e-22)
(0.143494 -0.0258715 0)
(0.0927145 -0.0782851 0)
(0.113395 -0.0618808 5.32021e-19)
(0.0196497 -0.00660882 0)
(0.0886251 -0.0897257 1.09784e-18)
(-0.0749753 -0.0961571 2.50329e-19)
(-0.064453 -0.116017 -9.01686e-19)
(-0.116657 -0.0437228 -1.61113e-18)
(-0.0868119 -0.0726927 -4.8283e-19)
(0.105643 -0.0810281 5.93024e-19)
(-0.0132683 -0.0187004 0)
(0.039458 -0.335678 7.57346e-18)
(1.86487 -57.5017 4.81028e-18)
(0.150186 -0.00423404 1.19376e-18)
(0.132568 -0.00648685 -6.64883e-19)
(0.13912 -0.00500026 1.68978e-18)
(0.162845 -0.00336626 0)
(0.156711 -0.00368055 1.23867e-18)
(0.170688 -0.00348745 1.24671e-18)
(0.169032 -0.00221808 -1.19988e-19)
(0.163094 -0.0123697 0)
(0.167902 -0.00678541 -5.97398e-19)
(0.154001 -0.0212756 8.59853e-19)
(-0.117828 -0.0582445 0)
(-0.117118 -0.0648527 0)
(-0.146768 -0.0340989 1.15024e-18)
(-0.132025 -0.0470109 -1.13099e-18)
(-0.161997 -0.016449 2.9052e-19)
(-0.158277 -0.0229671 0)
(-0.166936 -0.00803894 0)
(-0.16642 -0.0111452 -2.81982e-19)
(-0.156907 -0.00670055 0)
(-0.163334 -0.00710333 0)
(-0.148793 -0.00555026 5.4866e-19)
(-0.126348 -0.000227363 -7.07746e-20)
(-0.126759 -0.00190917 7.06659e-20)
(0.117156 -0.0626185 5.66024e-19)
(0.0602821 -0.150424 4.5902e-18)
(0.0664602 -0.111383 0)
(-0.0745588 -0.119815 -2.0789e-18)
(0.123608 -0.00398008 0)
(-0.144973 0.0019869 -1.37062e-19)
(-0.137913 0.00607693 -6.8509e-19)
(0.0478262 -0.134403 -6.75534e-18)
(0.00790245 -0.183737 4.41215e-18)
(0.037363 -0.170892 0)
(-0.0444398 -0.15763 0)
(-0.109322 -0.070378 -1.97547e-18)
(-0.0966375 -0.0979568 4.41112e-18)
(-0.100046 -0.0700043 4.87309e-18)
(-0.126612 0.00116325 -5.62152e-19)
(-0.115289 -0.000178434 1.14256e-18)
(-0.114617 0.000530419 5.72906e-19)
(0.0809507 -0.0945684 -2.20212e-18)
(-0.0729631 -0.325766 1.36915e-18)
(-0.0373766 -0.154415 -3.02039e-19)
(-0.137187 -49.7084 -1.02635e-17)
(0.102313 -0.0782907 1.1166e-18)
(0.0898338 -0.101241 -1.17241e-18)
(-0.0948537 -0.0917812 0)
(0.115396 -0.00234386 0)
(9.09083 -57.6361 7.40598e-18)
(0.112398 -0.00267332 4.91632e-20)
(0.0979741 -1.14981 0)
(0.10672 -0.381918 2.30837e-18)
(0.144284 -0.000598541 3.17692e-18)
(0.132491 -0.000723314 -1.03261e-18)
(0.153257 -0.00587989 -2.65347e-19)
(0.150501 -0.00127137 2.71418e-19)
(0.145935 -0.0230722 -1.52015e-18)
(0.15024 -0.0117589 5.17894e-19)
(0.114842 -0.0530646 0)
(0.133072 -0.0354545 1.0196e-18)
(0.0745185 -0.100339 5.04148e-19)
(0.0937906 -0.073619 5.80096e-19)
(0.0571384 -0.124584 9.48271e-19)
(-0.0619739 -0.110406 2.47655e-19)
(-0.0506143 -0.130662 -6.05073e-19)
(-0.0920625 -0.075346 1.20674e-19)
(-0.0761243 -0.0918041 1.60548e-23)
(-0.00346434 -0.207941 1.08131e-18)
(-0.137387 -0.00199876 2.82101e-19)
(0.217004 -74.6136 2.38461e-17)
(-0.148854 0.00193491 -2.73856e-19)
(-0.138596 0.00195918 0)
(0.133638 -0.0062819 1.36163e-19)
(0.119083 -0.000884071 1.03635e-18)
(0.126035 -0.00349297 0)
(0.149207 -0.00713363 -5.94861e-19)
(0.141204 -0.00725686 -1.11785e-18)
(0.162494 -0.00755234 3.0576e-19)
(0.15649 -0.00761808 -3.00941e-19)
(0.170739 -0.00567742 -6.02619e-19)
(0.167456 -0.00644479 5.73563e-19)
(0.168351 -0.0091923 0)
(0.170218 -0.00657789 -2.95506e-19)
(0.153069 -0.0215636 0)
(0.161222 -0.0141327 -2.84852e-19)
(0.129952 -0.0431413 -5.52774e-19)
(0.142056 -0.0312994 0)
(-0.0898682 -0.350923 0)
(0.115092 -0.0580341 1.07298e-18)
(-0.133218 -0.047934 -5.71715e-19)
(-0.120199 -0.0650044 1.24049e-18)
(-0.154297 -0.027245 -5.67618e-19)
(-0.143496 -0.0372529 1.14545e-18)
(-0.168109 -0.0164672 -2.847e-19)
(-0.16272 -0.0210381 0)
(-0.169422 -0.00860231 6.81506e-20)
(-0.170294 -0.0117644 0)
(-0.159145 -0.00440107 -1.08596e-18)
(-0.164846 -0.00658909 6.1145e-19)
(-0.151993 -0.00162628 5.46793e-19)
(-0.121165 0.00138855 4.20528e-19)
(-0.130532 0.0101005 1.35872e-18)
(-0.12602 0.00558366 1.37565e-19)
(-0.117309 -0.000152682 -5.65134e-19)
(-0.0876238 0.0128332 2.37618e-18)
(0.0978809 -0.00144372 -3.33797e-18)
(0.0966501 0.000307981 -6.75455e-18)
(-0.00915381 -0.182161 -8.92258e-19)
(-0.00581825 -0.221671 -2.37334e-18)
(-0.0177435 -0.260509 1.23901e-18)
(0.0553168 -0.142462 2.38994e-18)
(0.0854513 -0.0969459 -3.34577e-18)
(-0.0653632 -0.135966 0)
(0.124995 0.00508442 1.94236e-18)
(-0.0868738 -0.10677 -2.19578e-18)
(-0.0937821 -0.083029 2.20706e-18)
(-0.126598 0.000169979 5.59802e-19)
(-0.114235 0.000169824 -7.08518e-19)
(0.0243034 -0.195893 1.18117e-18)
(-0.0352297 -0.175028 2.45407e-18)
(0.106921 0.000831092 0)
(0.109881 0.00408273 -5.155e-19)
(0.0550711 -12.5801 3.16457e-21)
(0.049168 -14.2087 -4.18641e-21)
(-0.0596758 -14.2064 -3.40299e-20)
(-0.0624618 -12.5778 3.39853e-20)
(-0.121975 0.0133841 -5.40412e-19)
(-0.133513 0.0130336 -5.3783e-19)
(-0.123885 0.0146871 0)
(0.0680732 -0.0679766 5.3927e-18)
(-0.0426864 -0.274608 0)
(-0.0980141 0.00933756 -2.54026e-18)
(0.0994177 -0.000656893 1.09108e-18)
(0.293533 -3.25031 -1.01601e-17)
(1.45204 -61.1706 6.92036e-18)
(-0.515512 -57.5562 -2.73843e-18)
(0.0703154 -0.122153 0)
(-0.0734468 -0.118519 0)
(10.7303 -57.7589 1.17635e-17)
(0.103291 -0.000261098 -1.11586e-18)
(-0.235389 -0.75302 4.46253e-18)
(0.122417 -0.00128883 -1.03347e-18)
(0.108904 -0.00133583 1.05278e-18)
(0.141754 -0.00229046 0)
(0.133223 -0.00151697 1.04199e-18)
(0.147994 -0.010793 2.60861e-19)
(0.146807 -0.00580486 -5.25823e-19)
(0.134277 -0.0289017 5.12115e-19)
(0.143811 -0.0185436 -1.05782e-22)
(0.0993277 -0.0621811 0)
(0.1187 -0.0435838 -2.54331e-19)
(0.0565296 -0.106068 0)
(0.0777005 -0.0835238 -6.3769e-20)
(0.0152467 -0.17388 -1.01415e-18)
(0.0309262 -0.133017 0)
(-0.0107915 -0.210001 -5.39949e-19)
(-0.0435389 -0.12523 4.95828e-19)
(-0.0318805 -0.150611 7.33126e-19)
(-0.0749195 -0.080332 -6.13333e-19)
(-0.0575661 -0.101624 -4.87626e-19)
(-0.114961 -0.0440126 1.27255e-19)
(-0.0949854 -0.0618374 3.10389e-19)
(-0.14514 -0.0165953 -6.57854e-20)
(-0.133341 -0.0287028 0)
(-0.146205 -0.00331967 -5.26241e-19)
(-0.149336 -0.00849675 6.72743e-19)
(-0.137927 -0.00069708 0)
(0.0466467 -15.8685 1.04951e-21)
(0.0438193 -17.6434 -1.04863e-21)
(0.0433348 -19.4703 -1.63119e-20)
(0.0405912 -21.3923 5.03099e-20)
(0.0403031 -23.3883 -2.48722e-20)
(0.046258 -25.4731 -4.10154e-21)
(0.0418121 -27.6742 -7.0579e-20)
(0.0198177 -30.0134 -1.28253e-19)
(0.00547814 -32.5221 -4.07792e-21)
(0.0145728 -35.2532 -6.56699e-20)
(-0.12298 -35.2082 0)
(0.0139516 -38.1735 1.2871e-19)
(0.0408299 -41.3489 4.43521e-19)
(-0.199238 -41.1599 7.53103e-19)
(-0.127761 -38.0904 -2.5967e-19)
(-0.13551 -29.9998 1.36808e-19)
(-0.132304 -32.4932 2.59367e-19)
(-0.106618 -25.4723 2.50729e-20)
(-0.132588 -27.6666 0)
(-0.0759669 -21.3803 1.66338e-20)
(-0.0830021 -23.3767 4.97968e-24)
(-0.0632371 -17.6391 1.79027e-20)
(-0.0699389 -19.4638 -3.7709e-20)
(-0.0611929 -15.8652 -1.04952e-21)
(0.135389 -0.00552152 0)
(0.128251 -0.00134194 0)
(0.149438 -0.00890382 5.8025e-19)
(0.142552 -0.00763255 0)
(0.162515 -0.0104632 -2.97605e-19)
(0.156353 -0.00999114 -2.94273e-19)
(0.171073 -0.0104257 2.99803e-19)
(0.166991 -0.0104148 -2.6244e-19)
(0.170624 -0.0119554 -5.75974e-19)
(0.170701 -0.0109795 -2.91729e-19)
(0.159532 -0.0181986 0)
(0.16557 -0.0142611 5.65226e-19)
(0.138887 -0.0322002 -5.42e-19)
(0.149792 -0.0244638 2.75053e-19)
(0.43197 -2.68184 1.04769e-17)
(0.126837 -0.0421275 7.33134e-19)
(0.105012 -0.0580213 1.18729e-19)
(-0.10018 -0.0697762 0)
(-0.0818724 -0.0964595 -8.56371e-18)
(-0.0858105 -0.0765482 -8.58451e-18)
(-0.0828721 -0.0753576 -1.92062e-18)
(-0.121825 -0.050177 5.88496e-19)
(-0.110005 -0.059836 0)
(-0.138758 -0.0388284 -5.73016e-19)
(-0.127978 -0.0464439 -2.9475e-19)
(-0.160862 -0.0225385 -2.82158e-19)
(-0.150072 -0.0303924 5.65163e-19)
(-0.173139 -0.0108503 8.32879e-19)
(-0.168257 -0.0158147 0)
(-0.172222 -0.00386067 4.76011e-19)
(-0.173789 -0.00702311 -2.7502e-19)
(-0.162101 0.00150112 -5.41082e-19)
(-0.16768 -0.00120988 -5.94202e-19)
(-0.148805 0.00757844 1.3601e-19)
(-0.15566 0.00450852 2.71498e-19)
(-0.141601 0.0105588 1.35718e-19)
(-0.113509 0.00584214 -5.59555e-19)
(-0.118238 0.0100651 -5.48685e-19)
(-0.105689 0.0015279 -1.78527e-18)
(-0.108946 0.00302861 6.35451e-19)
(-0.102503 0.000354937 5.74379e-19)
(-0.103793 0.00102762 0)
(0.284324 -1.92123 0)
(-0.573656 -3.49909 -5.0141e-18)
(0.0464996 -0.167111 -1.16624e-18)
(0.0705323 -0.116435 4.36158e-18)
(-0.0767985 -0.117246 -4.40813e-18)
(-0.0534494 -0.15541 -2.32341e-18)
(0.113555 0.00603564 -4.87882e-19)
(-0.0763894 -0.277244 4.36028e-18)
(0.0610155 -11.1064 4.19227e-21)
(-0.0667284 -11.1044 0)
(0.126771 0.00243036 -2.2507e-18)
(-2.39539 -8.98171 0)
(0.16887 -35.2271 2.5918e-19)
(0.189931 -38.1423 2.57021e-19)
(0.00823377 -0.226623 -4.79058e-18)
(-1.05357 -51.7863 2.86004e-18)
(-0.0783158 -0.10802 8.77696e-18)
(-0.0205087 -0.21239 2.518e-18)
(0.0862207 -0.000268916 1.15333e-18)
(0.0821593 -0.00202534 3.82307e-18)
(0.17799 -11.1186 -1.66794e-20)
(0.0687895 -9.63379 -5.26143e-21)
(0.198785 -9.6431 3.36902e-20)
(-0.111844 0.0154553 -3.37653e-20)
(-0.112699 0.01536 2.16402e-19)
(-0.135004 0.012423 -2.4876e-24)
(-0.124502 0.0127988 0)
(-0.0242377 -44.4396 7.2674e-19)
(0.0895366 -44.7374 -4.90432e-19)
(0.0769616 -0.0831738 1.52586e-18)
(0.0610891 -0.106976 1.67361e-18)
(-0.0348019 -0.307095 0)
(0.0167662 -0.240708 2.75376e-18)
(-0.066301 -0.0872864 1.2514e-18)
(-0.0575967 -0.102703 -7.19547e-18)
(-1.16457 -61.6163 5.20957e-18)
(-0.127426 -0.484909 4.81979e-18)
(-0.230945 -0.594398 4.30979e-18)
(-0.0317549 0.00936327 -4.85263e-18)
(-0.101428 -0.00127883 -4.27544e-19)
(-0.0920816 0.00139387 -5.76327e-19)
(-0.090389 -0.000228064 5.77169e-19)
(0.0601689 -0.143585 -6.18346e-22)
(-0.067219 -0.135365 2.24614e-18)
(0.106057 0.0097387 1.07758e-18)
(0.0988876 0.00502139 -5.35566e-19)
(0.102651 0.0079898 1.06515e-18)
(0.0913738 0.00123933 1.09665e-18)
(0.0948214 0.00294127 -5.10379e-19)
(0.0886628 0.000418424 -1.11728e-18)
(0.121316 -0.00334747 -5.12024e-19)
(0.108236 -0.00392349 4.82024e-19)
(0.138724 -0.00574581 0)
(0.13115 -0.00376082 5.18747e-19)
(0.141512 -0.0151618 -2.59667e-19)
(0.142453 -0.00917918 0)
(0.122217 -0.0355093 2.57575e-19)
(0.134962 -0.0235132 3.87417e-19)
(0.0812858 -0.0699467 -1.27119e-19)
(0.103911 -0.0509254 -7.63849e-19)
(0.0316097 -0.12076 -1.03865e-18)
(0.0569054 -0.0930782 8.89858e-19)
(-0.0219475 -0.190941 1.00945e-18)
(0.00531655 -0.154102 -1.01145e-18)
(-0.0584578 -0.236705 7.74002e-19)
(0.0288648 -0.282055 -2.70089e-18)
(0.166543 -0.54884 -1.02647e-17)
(0.028965 -0.2129 -9.40588e-19)
(0.080168 -0.262967 6.73143e-19)
(-0.0185511 -0.135058 -9.8288e-19)
(0.00596085 -0.165457 1.21125e-18)
(-0.0567448 -0.0890448 0)
(-0.0370267 -0.110245 4.83239e-19)
(-0.100628 -0.050264 1.27096e-19)
(-0.0786803 -0.0683968 -6.24392e-20)
(-0.135563 -0.0233534 2.58124e-19)
(-0.121299 -0.0352074 0)
(-0.141596 -0.00876097 -1.68462e-20)
(-0.142538 -0.0145237 -2.62493e-19)
(-0.125064 -0.00338098 5.58037e-19)
(-0.135275 -0.0052128 -6.80895e-19)
(-0.113385 -0.00220223 4.22337e-19)
(0.139832 -14.2172 0)
(0.158987 -12.5922 -1.78052e-20)
(0.124714 -17.6392 0)
(0.129758 -15.8704 0)
(0.139907 -21.3823 5.25553e-22)
(0.130031 -19.4622 -5.23925e-22)
(0.143884 -25.4819 -1.67832e-20)
(0.145594 -23.3858 3.66051e-21)
(0.151549 -30.0131 0)
(0.144897 -27.6824 1.49698e-19)
(0.155556 -32.5171 -2.63692e-19)
(-0.183161 -11.1152 -3.37164e-20)
(-0.202293 -9.64074 -3.35471e-20)
(-0.0724333 -9.63261 9.43668e-21)
(0.520609 -48.7346 2.60751e-18)
(-1.20767 -48.5865 1.6182e-18)
(-1.36967 -4.10138 4.32179e-18)
(-0.215254 -41.1268 -1.16092e-18)
(-0.439616 -43.94 -1.02864e-18)
(-0.248959 -35.2443 -2.62146e-19)
(-0.209851 -38.0651 0)
(-0.217954 -29.9866 -1.32664e-19)
(-0.234964 -32.507 -1.32148e-19)
(-0.199419 -25.4367 -4.97785e-20)
(-0.201944 -27.6367 -1.65639e-20)
(-0.165599 -21.357 -2.50545e-20)
(-0.191386 -23.3488 5.0296e-20)
(-0.141232 -17.6254 -2.09708e-21)
(-0.147916 -19.4425 2.10216e-20)
(-0.150686 -14.2105 1.73878e-20)
(-0.1435 -15.8608 -1.56851e-20)
(-0.167345 -12.5875 3.32579e-20)
(0.139716 -0.00344431 -2.83248e-19)
(0.133987 -0.000108472 5.61004e-19)
(0.15162 -0.00954031 -1.44537e-19)
(0.145837 -0.00675191 -2.84511e-19)
(0.163246 -0.0135042 1.46357e-19)
(0.157805 -0.0118313 -7.28629e-20)
(0.170746 -0.0155668 -2.88186e-19)
(0.167647 -0.0145668 2.64188e-19)
(0.171307 -0.0169453 -2.86057e-19)
(0.171562 -0.0162603 0)
(0.162592 -0.0205709 0)
(0.167997 -0.0182164 0)
(0.14576 -0.0289256 -3.37284e-19)
(0.155097 -0.0241383 6.83682e-20)
(0.121939 -0.0427516 -5.19088e-19)
(0.135573 -0.0355533 -8.61158e-23)
(0.0856744 -0.0625782 -1.60169e-18)
(0.109263 -0.0564365 9.02894e-19)
(0.0569187 -0.0870052 -5.83552e-19)
(0.0630209 -0.0762566 5.57317e-19)
(0.0783996 -0.0670645 0)
(-0.0506634 -0.0816124 4.13229e-18)
(-0.0627104 -0.064145 -7.57687e-19)
(-0.0299438 -0.0932523 2.64314e-18)
(-0.0381356 -0.0802044 3.07144e-19)
(-0.0333201 -0.0688549 1.11029e-18)
(-0.0691548 -0.0607907 3.80481e-18)
(-0.0727093 -0.0712482 1.14994e-18)
(-0.0996771 -0.0565927 -1.56185e-18)
(-0.0969996 -0.0547721 1.18035e-19)
(-0.125027 -0.0443665 1.40234e-18)
(-0.113176 -0.0500272 1.09645e-18)
(-0.147163 -0.0300455 -2.80865e-19)
(-0.135998 -0.0382956 -8.50002e-19)
(-0.16673 -0.0151384 2.7851e-19)
(-0.157639 -0.0222134 5.60375e-19)
(-0.177459 -0.00483944 -4.12053e-19)
(-0.173479 -0.00927665 6.92437e-19)
(-0.175319 0.0015485 0)
(-0.177666 -0.0012524 -4.10073e-19)
(-0.164845 0.00590897 0)
(-0.170593 0.00380971 -1.69531e-20)
(-0.151378 0.00984683 -3.3837e-19)
(-0.158416 0.00797737 2.70457e-19)
(-0.14367 0.0113873 1.34941e-19)
(-0.105572 0.0102017 -1.74185e-20)
(-0.1094 0.0137133 7.68075e-20)
(-0.0971656 0.00434698 4.99403e-19)
(-0.101185 0.00704714 -4.83088e-19)
(-0.0942192 0.00275984 0)
(-1.35666 -63.2945 -1.04873e-17)
(-0.567435 -1.5554 -1.11313e-17)
(0.284579 -41.2668 -1.78833e-22)
(0.0325869 -0.192511 2.34629e-18)
(0.0654415 -0.135986 4.5022e-18)
(-0.0664337 -0.131398 0)
(-0.0391755 -0.179405 -7.14653e-18)
(0.0797427 -0.00310814 -3.4371e-19)
(-1.2411 -67.3823 -2.49463e-17)
(-0.184726 -0.553693 -2.36445e-18)
(-0.0520606 -0.0869131 -4.48144e-18)
(0.321525 -11.1405 3.36973e-20)
(0.354655 -9.66415 1.05014e-21)
(0.0962151 0.0134587 -1.37846e-18)
(-0.56136 -2.87456 5.73532e-18)
(0.119711 0.0120577 9.212e-18)
(0.107151 0.0137178 -6.9299e-23)
(0.0978226 0.0152205 0)
(-0.112948 0.0122366 7.70732e-19)
(-0.0998867 -0.00380675 -7.06641e-19)
(-0.0886758 -0.00256099 3.97563e-23)
(-0.35265 -48.2346 -3.69999e-18)
(0.335349 -0.729942 4.35898e-18)
(0.343902 -0.939509 4.33514e-18)
(-0.432878 -65.5489 5.42455e-18)
(-0.0868063 0.0122137 0)
(0.339378 -35.1397 -5.26928e-19)
(0.406754 -38.0165 -4.94069e-21)
(-0.372099 -0.989486 4.68494e-18)
(-0.525417 -0.961665 2.00556e-18)
(-0.368865 -1.12667 4.45479e-18)
(0.0472092 -0.128761 -5.00896e-18)
(-0.00640257 -0.259722 0)
(0.00257474 -0.250057 0)
(-0.0620217 -0.121273 0)
(0.203607 -0.632784 1.32122e-17)
(-0.326438 -11.1346 1.05027e-21)
(-0.358053 -9.6591 2.10061e-21)
(0.736818 -2.61547 5.34639e-18)
(-2.87019 -62.2414 -1.94227e-18)
(-2.23488 -59.0025 1.98933e-20)
(-0.285256 -0.819264 -4.46173e-18)
(-0.0570773 -0.388756 0)
(0.0546431 -0.106852 -5.99847e-19)
(0.0500568 -0.081346 0)
(0.0467126 -0.0929622 0)
(-0.0187402 -0.0802472 1.14303e-18)
(-0.0206956 -0.0872457 6.51435e-22)
(-0.0512331 -0.114173 4.51736e-18)
(0.0521395 -0.367714 0)
(0.103651 -0.79461 -1.01469e-17)
(0.349739 -44.4411 -1.51956e-18)
(0.0386174 0.010473 1.81658e-17)
(-0.108471 -0.610094 9.56892e-18)
(-0.595299 -1.95473 6.41696e-18)
(0.0467374 -0.163165 -2.2915e-18)
(-0.054657 -0.155951 0)
(0.0903434 0.00901791 3.55519e-23)
(0.0937513 0.0113501 -8.12649e-19)
(0.082543 0.00453358 -5.47934e-19)
(0.0863761 0.00638857 4.22202e-21)
(0.0757349 0.00136625 0)
(0.0791239 0.00249989 5.62588e-19)
(0.0714264 -0.000586467 0)
(0.07267 -0.000391501 -1.21939e-18)
(0.0689632 -0.00274883 0)
(0.0919616 -0.00519249 3.04488e-23)
(0.0819432 -0.00451553 -3.23649e-19)
(0.119666 -0.00421026 0)
(0.109338 -0.00140766 -2.3977e-18)
(0.135278 -0.00939043 1.39209e-19)
(0.129391 -0.00656826 -1.38437e-19)
(0.134516 -0.0194876 -2.59959e-19)
(0.137279 -0.0136082 1.30095e-19)
(0.109536 -0.0404639 0)
(0.125462 -0.0284015 1.24552e-23)
(0.061952 -0.0773473 7.65901e-19)
(0.0879015 -0.0564857 1.28186e-19)
(0.00250229 -0.13275 -1.60628e-20)
(0.0337345 -0.102874 -3.83611e-19)
(-0.0707985 -0.223218 -9.97059e-19)
(-0.0293307 -0.171671 0)
(-0.1622 -0.373404 1.38474e-18)
(-0.109328 -0.296746 7.35019e-19)
(-0.172729 -0.423852 -3.73576e-18)
(0.196411 -0.462611 1.74998e-18)
(0.242036 -0.538915 -3.5992e-18)
(0.0890882 -0.257948 0)
(0.152513 -0.352981 -1.60047e-18)
(0.0104289 -0.144127 4.74907e-19)
(0.044408 -0.192497 0)
(-0.0385706 -0.0877107 -2.45238e-19)
(-0.0147905 -0.112029 0)
(-0.0874324 -0.0505448 0)
(-0.0630653 -0.0678413 0)
(-0.127293 -0.0246989 5.13733e-19)
(-0.110654 -0.0356788 -5.08905e-19)
(-0.136888 -0.012344 2.67008e-19)
(-0.136414 -0.0171853 1.29454e-19)
(-0.122662 -0.00644578 -2.75893e-19)
(-0.131843 -0.00901397 -6.75887e-19)
(-0.11166 -0.00493766 5.57181e-19)
(0.272555 -14.231 -1.47508e-20)
(0.297609 -12.6112 -3.1399e-20)
(0.25156 -17.6421 1.68389e-20)
(0.260215 -15.8787 2.09164e-20)
(0.254704 -21.3778 0)
(0.252459 -19.4594 -1.66897e-20)
(0.276785 -25.4758 -3.36034e-20)
(0.264165 -23.3798 -2.09182e-21)
(0.285332 -29.9935 -1.33724e-19)
(0.282749 -27.676 -6.68752e-20)
(0.300951 -32.4724 3.96597e-19)
(0.075774 -8.3701 0)
(-0.212927 -8.37684 3.15595e-20)
(-0.0777324 -8.36892 -2.30823e-20)
(-0.0237587 -0.112469 -2.45167e-18)
(0.37553 -8.40103 -2.09912e-21)
(0.211596 -8.37862 2.09855e-21)
(-0.917584 -52.5547 0)
(-2.05465 -55.0252 3.11141e-18)
(-0.10246 -46.6909 -1.12556e-18)
(0.0724971 -49.0931 2.68921e-18)
(-0.493118 -41.0034 -9.28993e-19)
(-0.693962 -44.0012 1.30712e-18)
(-0.443106 -35.166 1.32198e-19)
(-0.46238 -37.9993 1.3162e-19)
(-0.35253 -29.9652 -1.32941e-19)
(-0.385922 -32.4621 -8.99382e-22)
(-0.298277 -25.4282 -6.70615e-20)
(-0.323692 -27.6276 2.66899e-19)
(-0.276502 -21.3505 -8.2645e-21)
(-0.278262 -23.3427 -8.3244e-21)
(-0.264629 -17.6245 -1.4644e-20)
(-0.272199 -19.4383 1.68399e-20)
(-0.281464 -14.2206 1.67446e-20)
(-0.271613 -15.8644 7.37824e-21)
(-0.304127 -12.6035 -1.68581e-20)
(0.115788 0.010413 4.20566e-18)
(0.0983334 0.0162801 2.41649e-18)
(0.108642 0.0142226 -7.36739e-18)
(0.13193 0.00850019 -3.2225e-19)
(0.124992 0.00916694 -1.0408e-18)
(0.144449 -0.000659525 -1.26763e-19)
(0.138631 0.00397215 4.42621e-19)
(0.154972 -0.00877347 7.21657e-20)
(0.149909 -0.00499559 -1.79554e-20)
(0.165148 -0.014725 7.63748e-20)
(0.160455 -0.0120064 -1.55936e-25)
(0.171835 -0.0189699 -7.133e-20)
(0.169392 -0.0169558 -8.9376e-21)
(0.172471 -0.0223126 4.2259e-19)
(0.173324 -0.0206364 1.42193e-19)
(0.164669 -0.0262506 1.37355e-19)
(0.169767 -0.0241204 1.34904e-24)
(0.149612 -0.0322061 3.37483e-19)
(0.158271 -0.0288933 -4.09671e-19)
(0.127023 -0.0422339 6.57866e-20)
(0.140097 -0.0367084 -4.69679e-19)
(0.10057 -0.0565935 -1.86053e-18)
(0.11496 -0.0499111 3.96016e-19)
(0.0702268 -0.0719074 -5.43518e-19)
(0.0867096 -0.0631599 1.08145e-18)
(0.0359518 -0.0851749 0)
(0.0395412 -0.0833309 -5.3809e-19)
(0.055884 -0.0785685 5.41459e-19)
(0.0270939 -0.0868411 0)
(0.0128476 -0.0877492 -1.32283e-19)
(-0.00801784 -0.0844285 0)
(-0.00924787 -0.0871605 2.70997e-19)
(0.00287594 -0.0895692 0)
(-0.034763 -0.0789088 -3.52228e-20)
(-0.0213153 -0.0838153 2.78008e-19)
(-0.0626833 -0.0754825 0)
(-0.0421517 -0.0774235 3.43355e-20)
(-0.0787423 -0.06525 7.93662e-19)
(-0.0736234 -0.0651898 -1.3472e-19)
(-0.107755 -0.0526421 2.08127e-23)
(-0.097392 -0.062152 5.16395e-19)
(-0.131662 -0.0384548 -2.74171e-19)
(-0.119466 -0.0463428 0)
(-0.153983 -0.0237461 2.78117e-19)
(-0.142964 -0.031316 -5.5636e-19)
(-0.172704 -0.0100021 1.3762e-19)
(-0.164283 -0.0163413 1.38571e-19)
(-0.181151 -0.00145781 -6.82444e-19)
(-0.178377 -0.00504042 4.11874e-19)
(-0.177431 0.00264984 -2.71014e-19)
(-0.180517 0.000978461 4.08466e-19)
(-0.166462 0.00514804 0)
(-0.172406 0.00393148 0)
(-0.152595 0.00759623 6.07789e-19)
(-0.159894 0.00641456 -2.0247e-19)
(-0.135217 0.00922059 7.18121e-24)
(-0.144413 0.00857613 -2.69425e-19)
(-0.113955 0.011886 -9.53606e-19)
(-0.123623 0.00984069 1.0462e-18)
(-0.0993435 0.0129537 7.74803e-19)
(-0.0993364 0.0104659 1.44536e-18)
(-0.100123 0.0164794 6.78772e-20)
(-0.100247 0.0153836 -3.82727e-19)
(-0.0962973 0.0137134 -3.47587e-20)
(-0.0988675 0.016067 3.75729e-19)
(-0.0888998 0.00777601 -7.10047e-20)
(-0.0927556 0.0108881 5.60475e-19)
(-0.0826681 0.00328407 0)
(-0.0854964 0.00538874 7.15228e-20)
(-0.078389 -0.001073 5.23609e-19)
(-0.0803887 0.00135987 -5.40815e-19)
(-1.64254 -65.7338 -5.03085e-18)
(-0.19195 -52.07 -4.18438e-18)
(-0.107295 -0.0504124 -9.78618e-19)
(-0.625445 -1.30444 9.08031e-18)
(0.471528 -41.0825 -5.26896e-19)
(-0.580869 -4.31275 9.53304e-18)
(-0.455499 -1.42215 -5.20081e-18)
(-0.540069 -2.39505 -2.84707e-21)
(-0.393855 -2.15326 6.90264e-18)
(-0.333801 -1.8814 -7.25577e-18)
(0.0485151 -0.152802 2.32573e-18)
(0.0217289 -0.221824 -2.3117e-18)
(0.00290733 -0.088777 -5.3005e-19)
(0.0254294 -0.0871465 6.62189e-23)
(-0.0250097 -0.208063 9.74679e-18)
(-0.0548079 -0.14926 0)
(0.24498 -0.827773 -1.43786e-17)
(-0.413333 -0.688464 -3.75635e-18)
(0.387745 -1.1284 -8.48027e-19)
(0.0521414 0.0138493 -4.42903e-18)
(0.116453 -1.95392 -1.58707e-17)
(0.443192 -0.901157 2.55317e-19)
(0.316974 -0.528899 1.83484e-18)
(-0.377933 -8.39712 -3.35396e-20)
(-2.22865 -62.7782 2.69267e-18)
(-2.94371 -58.7169 -1.40611e-20)
(0.0876588 0.0177296 5.95475e-19)
(0.0871522 0.0177418 -6.87747e-23)
(0.0979225 0.0168381 3.04939e-18)
(0.505934 -63.2757 1.22872e-17)
(-0.241327 -0.9965 -9.78872e-18)
(-0.0257246 -0.307176 0)
(0.0464376 -0.139334 2.38189e-18)
(0.0351488 -0.0963936 -6.8612e-20)
(-0.00955226 -0.0991426 0)
(-0.0515835 -0.143038 1.24223e-21)
(0.021551 -0.295603 -7.8497e-18)
(0.137145 -0.597109 -5.17116e-18)
(0.0606316 0.000926227 -4.5075e-19)
(0.0582353 -0.00139558 1.50398e-19)
(0.360381 -48.0458 4.85829e-19)
(-0.585622 -2.23412 2.64415e-18)
(0.114277 -68.757 -6.49134e-18)
(-3.20262 -64.008 1.55221e-17)
(-0.0452784 -0.124436 0)
(-0.191805 -1.8977 5.99213e-18)
(0.0936145 -59.5678 -1.27996e-17)
(2.34636 -60.0442 -3.93606e-18)
(-0.169143 -0.754405 -9.90857e-18)
(-0.0313524 -54.1958 -1.42092e-19)
(-0.083041 -0.448228 -1.50431e-17)
(0.0435016 -0.116426 5.69326e-19)
(-0.016906 -0.123008 -2.21112e-18)
(0.0811396 -0.430475 -3.03283e-18)
(-0.0688296 0.00085129 7.24193e-20)
(-0.0763017 -0.0033484 -2.70534e-19)
(-0.066575 -0.00163081 2.17151e-19)
(0.411407 -7.04349 0)
(0.534939 -8.43072 3.3664e-20)
(0.591904 -7.07326 0)
(0.551442 -44.2775 2.06793e-18)
(-0.0872419 0.0133779 2.66367e-19)
(-0.0988576 -0.464795 -7.3786e-21)
(0.0464995 -0.793198 -4.64884e-18)
(-0.385299 -1.69551 -3.38899e-18)
(-0.155129 -0.00855782 -1.08919e-18)
(-0.128292 -0.0376369 7.04816e-19)
(0.0355341 -0.184785 2.29017e-18)
(0.0117598 -0.0869083 6.61702e-19)
(-0.0424862 -0.177907 -4.67155e-18)
(0.224469 -0.920613 5.52682e-21)
(0.0860451 0.0161693 1.11948e-18)
(0.0871761 0.0170889 -5.75464e-19)
(0.0810223 0.0125923 4.75938e-19)
(0.0839623 0.0145665 0)
(0.0736217 0.00814863 -1.2029e-23)
(0.0774469 0.0100987 -2.04057e-19)
(0.0662391 0.00418901 0)
(0.0699013 0.00570111 -2.79253e-19)
(0.0628616 0.00250519 -2.9517e-19)
(0.067675 -0.00497068 3.01656e-19)
(0.0928969 -0.00636076 2.2542e-18)
(0.0809772 -0.00566861 0)
(0.11924 -0.00740235 -1.51369e-23)
(0.107359 -0.00758019 -2.64469e-19)
(0.132187 -0.0118837 -8.23578e-21)
(0.127533 -0.00918818 1.35801e-19)
(0.127393 -0.0227728 6.52041e-20)
(0.132556 -0.0161232 1.35092e-19)
(0.0958972 -0.0451987 6.45811e-20)
(0.115276 -0.032055 -4.52671e-19)
(0.0406347 -0.0826036 -7.67609e-19)
(0.0703047 -0.0621793 3.87417e-19)
(-0.0291904 -0.141964 2.09742e-18)
(0.00794612 -0.108542 -1.02599e-18)
(-0.12457 -0.244387 0)
(-0.0692636 -0.186681 -1.01172e-18)
(-0.271188 -0.435568 1.43836e-18)
(-0.183884 -0.323766 0)
(-0.321685 -0.591509 3.56738e-18)
(-0.0543724 -1.94713 -5.58786e-18)
(0.3677 -0.717445 2.13663e-21)
(0.1452 -0.278694 0)
(0.222384 -0.386301 0)
(0.0365907 -0.152592 -9.62039e-19)
(0.0817547 -0.203585 0)
(-0.0213867 -0.0917333 -3.20386e-23)
(0.00573859 -0.117733 1.21816e-18)
(-0.0741507 -0.0521479 0)
(-0.0472186 -0.0705016 3.11997e-20)
(-0.119742 -0.0253539 0)
(-0.0999994 -0.0370899 1.27352e-19)
(-0.133732 -0.0128674 -1.31629e-19)
(-0.131369 -0.0174884 1.2917e-19)
(-0.120891 -0.00892654 0)
(-0.129653 -0.0104157 5.37157e-19)
(-0.0980696 -0.00635541 3.50316e-19)
(-0.109807 -0.00762662 -1.38375e-19)
(-0.086784 -0.00494855 -3.03797e-19)
(0.448233 -11.1657 0)
(0.499909 -9.68918 -3.45661e-20)
(0.377294 -14.2452 -3.57913e-20)
(0.413968 -12.6314 1.04951e-21)
(0.335676 -17.6395 -2.09019e-20)
(0.355762 -15.8843 4.18817e-20)
(0.326612 -21.365 2.40347e-21)
(0.328596 -19.449 3.36584e-20)
(0.334349 -25.4619 5.89074e-20)
(0.328083 -23.3675 -3.54059e-20)
(0.372701 -29.9629 -2.66799e-19)
(0.345744 -27.6579 1.34776e-19)
(0.463962 -35.0521 5.35526e-19)
(0.402016 -32.424 -1.33863e-19)
(0.660417 -40.865 5.24255e-19)
(0.536146 -37.8614 -1.59116e-18)
(-0.23253 -7.02147 2.09699e-21)
(-0.535789 -8.42438 0)
(-0.591079 -7.06731 4.19632e-21)
(-0.413024 -7.03977 -6.18263e-21)
(0.0831783 -7.0148 2.09655e-21)
(-0.0841823 -7.01434 1.67981e-20)
(0.234087 -7.02345 -2.09675e-21)
(-1.36872 -52.9018 0)
(-2.48847 -55.9972 -2.66446e-18)
(-0.825522 -46.3643 -1.13938e-18)
(-0.765423 -49.5116 0)
(-0.768117 -40.7662 -6.64575e-19)
(-0.848169 -43.5518 -2.72312e-19)
(-0.514048 -35.0113 4.013e-19)
(-0.613828 -37.8194 1.56339e-19)
(-0.37533 -29.8955 6.76054e-20)
(-0.426824 -32.3624 -1.32432e-19)
(-0.338353 -25.4156 -8.38544e-20)
(-0.346923 -27.5978 6.63659e-20)
(-0.336787 -21.3354 0)
(-0.339509 -23.3293 5.02991e-20)
(-0.349224 -17.6215 8.35575e-21)
(-0.34046 -19.4276 -1.67681e-20)
(-0.385482 -14.2333 -2.09905e-21)
(-0.366401 -15.869 -8.42502e-21)
(-0.453204 -11.1578 -3.40445e-20)
(-0.420688 -12.6218 1.04995e-21)
(-0.502923 -9.6824 3.15759e-20)
(0.117718 0.0141952 0)
(0.108002 0.0156068 1.86802e-18)
(0.13634 0.00968884 -6.2413e-19)
(0.127979 0.0129239 -3.22334e-19)
(0.14898 0.0019995 0)
(0.142982 0.0062024 5.98002e-19)
(0.159068 -0.00686386 2.9019e-19)
(0.154412 -0.00250885 -2.10551e-23)
(0.168124 -0.0144524 6.71608e-20)
(0.163935 -0.010886 1.42791e-19)
(0.17429 -0.0201095 1.4191e-19)
(0.171935 -0.0174424 -1.42149e-19)
(0.174407 -0.0251037 -1.39731e-19)
(0.17548 -0.0225889 0)
(0.167386 -0.0304493 -1.19114e-23)
(0.17205 -0.0276981 -2.76569e-19)
(0.153705 -0.0368733 1.51917e-19)
(0.161608 -0.0334325 4.08954e-19)
(0.133488 -0.0461147 6.6402e-20)
(0.144641 -0.041106 -2.8523e-19)
(0.108249 -0.0585251 2.656e-19)
(0.121655 -0.0526965 -1.33072e-19)
(0.0772843 -0.0717181 0)
(0.0935506 -0.0642666 -1.33887e-19)
(0.044863 -0.0846356 -5.34071e-19)
(0.0618899 -0.0786475 0)
(0.0146528 -0.0919968 -1.33484e-19)
(0.0298416 -0.089406 5.99886e-19)
(-0.0117571 -0.0928071 -5.39576e-19)
(0.00193756 -0.0937239 2.68414e-19)
(-0.0393061 -0.0856411 -6.86762e-19)
(-0.0247665 -0.0899365 2.73362e-19)
(-0.063969 -0.07949 -2.02678e-19)
(-0.0519169 -0.0826081 3.06981e-19)
(-0.088322 -0.0679556 -5.57831e-23)
(-0.0761751 -0.0720388 -1.34479e-19)
(-0.111667 -0.0544615 5.46362e-23)
(-0.0997925 -0.0623571 -1.06085e-18)
(-0.138245 -0.0384727 -1.08751e-18)