/*--------------------------------*- C++ -*----------------------------------*\
| =========                 |                                                 |
| \\      /  F ield         | OpenFOAM: The Open Source CFD Toolbox           |
|  \\    /   O peration     | Version:  2212                                  |
|   \\  /    A nd           | Website:  www.openfoam.com                      |
|    \\/     M anipulation  |                                                 |
\*---------------------------------------------------------------------------*/
FoamFile
{
    version     2.0;
    format      ascii;
    arch        "LSB;label=32;scalar=64";
    class       volVectorField;
    location    "0.00778";
    object      U;
}
// * * * * * * * * * * * * * * * * * * * * * * * * * * * * * * * * * * * * * //

dimensions      [0 1 -1 0 0 0 0];

internalField   nonuniform List<vector> 
2681
(
(1.73415 -3.25654 -1.94528e-18)
(20.3135 -25.3834 0)
(14.7432 -20.0227 -2.91735e-18)
(0.056747 -0.0481321 -8.59173e-18)
(5.65747 -34.1885 2.01238e-18)
(-18.965 -28.0895 4.77615e-18)
(-0.0600432 -0.00956593 -2.13696e-18)
(-0.0547357 -0.0577905 2.77837e-19)
(-0.0416185 -0.084203 5.50844e-19)
(-0.0244459 -0.105706 -1.38698e-19)
(0.0606329 -0.044615 0)
(-0.0615734 -0.264207 -1.47303e-19)
(-0.0464416 -0.228951 -1.43027e-19)
(0.539636 -1.06641 0)
(-0.123105 -0.338776 -6.5373e-19)
(0.192661 -0.422053 1.07097e-18)
(0.353255 -0.684537 0)
(0.0530535 -0.0650814 -6.84719e-19)
(0.0439802 -0.0739878 3.03453e-18)
(0.0375822 -0.0850653 -3.50507e-18)
(0.00857241 -0.137118 -1.12861e-17)
(-0.0551082 -0.21269 8.31e-19)
(-0.0353443 -0.181396 -3.32014e-18)
(-0.0171791 -0.158796 2.23697e-18)
(-0.099658 -0.302806 -1.24116e-18)
(-0.0752867 -0.249143 0)
(0.0707571 -0.0579802 -2.60128e-18)
(0.0744463 -0.0357473 2.43736e-19)
(0.0647734 -0.0482463 1.10744e-18)
(0.0477757 -0.0929063 1.32796e-18)
(0.0607159 -0.0696991 -6.27764e-19)
(0.0212839 -0.113617 1.3016e-18)
(0.0326813 -0.107059 -1.13614e-18)
(-0.0107334 -0.169284 5.7563e-19)
(0.00497196 -0.14305 0)
(-0.0290886 -0.198332 -8.52018e-19)
(0.0420541 -0.216363 2.15251e-18)
(0.0634127 -0.240962 2.57934e-19)
(0.0808201 -0.268496 -5.14313e-19)
(0.0468199 -0.250498 -5.21453e-19)
(0.0628976 -0.28587 9.59873e-19)
(0.0294204 -0.182388 0)
(0.0371111 -0.214845 -2.722e-19)
(0.00877348 -0.159359 0)
(0.0217094 -0.175617 0)
(-0.6412 -41.5442 0)
(-0.00898383 -0.127855 1.40492e-19)
(-0.0566418 -0.0655834 -1.09493e-18)
(0.0596739 -0.0299058 0)
(-0.0735728 -0.0392301 -2.78257e-19)
(-0.0678678 -0.050327 5.20623e-23)
(0.106563 -0.312743 2.0482e-18)
(0.30524 -0.603539 1.53061e-19)
(-0.0408773 -0.0630736 -2.77172e-19)
(-0.0528926 -0.0491939 5.64144e-19)
(-0.01765 -0.211015 1.43024e-19)
(-0.0300266 -0.242095 -4.29393e-19)
(0.0683349 -0.031997 -2.89489e-19)
(-0.073739 -0.0321431 0)
(-0.0808298 -0.0367527 5.52167e-19)
(-0.0780392 -0.0321043 1.38431e-19)
(0.0242632 -0.0881747 0)
(0.0366831 -0.0702078 2.43351e-18)
(-0.00658957 -0.121539 2.89078e-18)
(0.00862666 -0.109076 -4.95503e-19)
(-0.064954 -0.192893 -1.38619e-22)
(-0.0437052 -0.158048 0)
(-0.118344 -0.267591 0)
(-0.0890036 -0.230099 5.31998e-19)
(-0.00407198 -0.0233626 0)
(-0.127492 -0.306582 1.09777e-18)
(0.12167 -0.288466 2.50339e-19)
(0.154133 -0.349991 -9.01785e-19)
(0.0571644 -0.186427 -1.61113e-18)
(0.0982772 -0.235041 -4.82832e-19)
(-0.0708802 -0.298471 5.93039e-19)
(-0.0235707 -0.02594 0)
(0.47053 -0.97274 7.57282e-18)
(11.2454 -29.3921 4.7491e-18)
(0.0790189 -0.0505161 1.19378e-18)
(0.0777974 -0.0374698 -6.64883e-19)
(0.0769254 -0.0429921 1.68973e-18)
(0.0656385 -0.076026 0)
(0.0732542 -0.0616365 1.23866e-18)
(0.0441996 -0.109218 1.24676e-18)
(0.058146 -0.0907742 -1.19995e-19)
(0.0117502 -0.156672 0)
(0.0263998 -0.132637 -5.97353e-19)
(-0.00411944 -0.183072 8.59846e-19)
(0.0221961 -0.222481 0)
(0.0185306 -0.24233 0)
(0.00124406 -0.177411 1.15023e-18)
(0.0120498 -0.201514 -1.13097e-18)
(-0.0153516 -0.137017 2.90505e-19)
(-0.010848 -0.154506 0)
(-0.0436743 -0.0931061 0)
(-0.0280883 -0.114819 -2.81988e-19)
(-0.0712685 -0.0570495 0)
(-0.0587194 -0.0734814 0)
(-0.0786612 -0.0448536 5.4866e-19)
(-0.0590432 -0.0389014 -7.07718e-20)
(-0.067178 -0.034903 7.06665e-20)
(-0.0408319 -0.270629 5.66009e-19)
(-0.185783 -0.447051 4.59042e-18)
(-0.143527 -0.372814 0)
(0.124223 -0.374663 -2.07869e-18)
(0.0740558 -0.0314969 0)
(-0.0858655 -0.0387682 -1.37063e-19)
(-0.0810978 -0.0352934 -6.85081e-19)
(-0.233323 -0.432538 -6.75498e-18)
(-0.31264 -0.563915 4.41214e-18)
(-0.22439 -0.518706 0)
(0.22168 -0.507278 0)
(0.0132974 -0.252326 -1.9754e-18)
(0.0468431 -0.311729 4.4113e-18)
(0.0228902 -0.267623 4.87322e-18)
(-0.0502853 -0.0408346 -5.62124e-19)
(-0.0596994 -0.0314495 1.14253e-18)
(-0.0531939 -0.0332314 5.72917e-19)
(-0.0372193 -0.368883 -2.20224e-18)
(-0.505095 -0.940604 1.36891e-18)
(0.266548 -0.480901 -3.02074e-19)
(-1.41923 -33.7169 -1.02587e-17)
(-0.0558105 -0.30522 1.11661e-18)
(-0.0907683 -0.34227 -1.17236e-18)
(0.0672616 -0.313199 0)
(0.0684452 -0.0296518 0)
(14.1686 -22.0921 7.39187e-18)
(0.0648605 -0.02896 4.91628e-20)
(0.301204 -2.87578 0)
(0.536369 -1.14703 2.30891e-18)
(0.0429345 -0.0562282 3.17677e-18)
(0.0492189 -0.0452142 -1.03264e-18)
(0.00794372 -0.0888528 -2.65328e-19)
(0.027133 -0.0684907 2.71429e-19)
(-0.0374221 -0.14073 -1.52013e-18)
(-0.0159537 -0.109418 5.1788e-19)
(-0.0966038 -0.204233 0)
(-0.0656994 -0.166207 1.01958e-18)
(-0.167262 -0.309928 5.04262e-19)
(-0.130483 -0.248336 5.80121e-19)
(-0.20276 -0.378437 9.48557e-19)
(0.16843 -0.316377 2.47737e-19)
(0.214206 -0.391296 -6.04976e-19)
(0.0997938 -0.219719 1.20692e-19)
(0.127918 -0.25712 2.91291e-23)
(0.38457 -0.672693 1.08156e-18)
(-0.0638668 -0.0444794 2.82089e-19)
(-9.41249 -57.0513 2.40554e-17)
(-0.0275064 -0.0642756 -2.73846e-19)
(-0.0417004 -0.0512109 0)
(0.0830324 -0.0367326 1.36162e-19)
(0.0705332 -0.0321357 1.03636e-18)
(0.0774222 -0.0327586 0)
(0.0878465 -0.0468638 -5.94846e-19)
(0.0863593 -0.0412715 -1.11785e-18)
(0.080813 -0.0680512 3.05746e-19)
(0.0858782 -0.0561538 -3.00963e-19)
(0.0621737 -0.0964399 -6.0258e-19)
(0.0731485 -0.0809677 5.73584e-19)
(0.0350632 -0.139861 0)
(0.0476566 -0.117202 -2.95548e-19)
(0.00780846 -0.18966 0)
(0.0195154 -0.16439 -2.84857e-19)
(-0.0139622 -0.242702 -5.52773e-19)
(-0.00383588 -0.216049 0)
(-0.522829 -1.04283 0)
(-0.0264332 -0.273401 1.07299e-18)
(-0.00331946 -0.203335 -5.717e-19)
(0.00585706 -0.234785 1.2405e-18)
(-0.0186024 -0.159619 -5.67618e-19)
(-0.00995263 -0.182729 1.14544e-18)
(-0.0381264 -0.123361 -2.8469e-19)
(-0.0286603 -0.141069 0)
(-0.06311 -0.0829295 6.81487e-20)
(-0.0496854 -0.102437 0)
(-0.0832921 -0.0533392 -1.08595e-18)
(-0.074407 -0.0663952 6.11419e-19)
(-0.0868603 -0.0444167 5.46803e-19)
(-0.0695555 -0.0281464 4.20525e-19)
(-0.0742501 -0.032812 1.3587e-18)
(-0.0719926 -0.0295861 1.37572e-19)
(-0.0653914 -0.0288121 -5.65127e-19)
(-0.0610135 -0.00967966 2.37614e-18)
(0.0471991 -0.0260826 -3.33796e-18)
(0.0429854 -0.0235945 -6.75442e-18)
(0.369521 -0.566634 -8.92076e-19)
(-0.344645 -0.684482 -2.37294e-18)
(-0.366871 -0.804726 1.23839e-18)
(-0.163288 -0.44941 2.39014e-18)
(-0.0700436 -0.347285 -3.34581e-18)
(0.148893 -0.439421 0)
(0.0748168 -0.0300124 1.94238e-18)
(0.0586636 -0.348286 -2.19512e-18)
(0.0285192 -0.303015 2.20752e-18)
(-0.0421638 -0.0408987 5.59774e-19)
(-0.0467386 -0.0335419 -7.08528e-19)
(-0.249659 -0.607655 1.181e-18)
(0.243783 -0.583769 2.45369e-18)
(0.0606101 -0.0281798 0)
(0.0606547 -0.0289653 -5.15501e-19)
(0.0624066 -8.71049 3.16031e-21)
(0.0525651 -9.8038 -4.19049e-21)
(-0.0810149 -9.80137 -3.40625e-20)
(-0.0862174 -8.70802 3.39514e-20)
(-0.06667 -0.0301169 -5.404e-19)
(-0.0775433 -0.0344116 -5.37816e-19)
(-0.0707451 -0.0297034 0)
(-0.0368657 -0.306033 5.39273e-18)
(-0.456229 -0.794122 0)
(-0.0692149 -0.0130767 -2.54023e-18)
(0.051625 -0.0253596 1.09106e-18)
(0.756968 -7.42972 -1.01467e-17)
(2.90058 -39.8526 6.93234e-18)
(-2.69285 -37.1943 -2.7072e-18)
(-0.112037 -0.39524 0)
(0.103738 -0.384418 0)
(18.3046 -23.0417 1.15354e-17)
(0.0582225 -0.02613 -1.11584e-18)
(-0.900533 -1.86516 4.46037e-18)
(0.0462734 -0.0377062 -1.0335e-18)
(0.0472678 -0.0305136 1.05273e-18)
(0.0290761 -0.0579038 0)
(0.0400386 -0.0465769 1.04194e-18)
(-0.0101608 -0.0923421 2.60807e-19)
(0.0118894 -0.0735306 -5.25844e-19)
(-0.0647543 -0.141973 5.12086e-19)
(-0.0359817 -0.115382 -1.54564e-22)
(-0.13214 -0.215162 0)
(-0.0971085 -0.174366 -2.54312e-19)
(-0.218698 -0.32654 0)
(-0.172735 -0.265026 -6.37654e-20)
(-0.326698 -0.514448 -1.01401e-18)
(-0.276626 -0.40301 0)
(-0.393503 -0.631022 -5.40036e-19)
(0.234348 -0.35526 4.95889e-19)
(0.292254 -0.452129 7.33264e-19)
(0.137906 -0.221927 -6.13309e-19)
(0.179957 -0.277447 -4.87662e-19)
(0.0826387 -0.150614 1.27253e-19)
(0.106108 -0.18223 3.10401e-19)
(0.0325373 -0.101215 -6.57847e-20)
(0.0577252 -0.124247 0)
(-0.0145756 -0.0648471 -5.26263e-19)
(0.00742736 -0.081739 6.72703e-19)
(-0.0314797 -0.0511424 0)
(0.0446997 -10.9156 1.0495e-21)
(0.0350569 -12.1313 -1.04861e-21)
(0.0257802 -13.3851 -1.62971e-20)
(0.0148651 -14.7248 5.02939e-20)
(0.0108099 -16.1102 -2.49087e-20)
(0.0181929 -17.5769 -4.11411e-21)
(0.0262022 -19.1157 -7.05898e-20)
(0.0254189 -20.738 -1.28254e-19)
(0.0292961 -22.3994 -4.08315e-21)
(0.0454299 -24.1618 -6.55668e-20)
(-0.0743626 -24.1352 0)
(0.0780651 -26.0066 1.28676e-19)
(0.095814 -28.1455 4.43235e-19)
(-0.292507 -28.1079 7.53459e-19)
(-0.103246 -25.9203 -2.59163e-19)
(-0.0303178 -20.7384 1.368e-19)
(-0.0264095 -22.3799 2.59378e-19)
(-0.0469844 -17.5902 2.50653e-20)
(-0.0424 -19.1267 0)
(-0.0609907 -14.721 1.6656e-20)
(-0.0496194 -16.1112 3.03043e-24)
(-0.0742131 -12.1287 1.78877e-20)
(-0.0698519 -13.3823 -3.77086e-20)
(-0.0784699 -10.9129 -1.04951e-21)
(0.0855631 -0.0381153 0)
(0.0777874 -0.0347853 0)
(0.0939302 -0.0449692 5.80247e-19)
(0.0907819 -0.0410141 0)
(0.0926795 -0.059752 -2.97611e-19)
(0.0946517 -0.0513021 -2.94275e-19)
(0.0794269 -0.0836641 2.99786e-19)
(0.0869315 -0.0701277 -2.62451e-19)
(0.0568578 -0.121361 -5.75995e-19)
(0.0668728 -0.101379 -2.91741e-19)
(0.031904 -0.166905 0)
(0.0428554 -0.143806 5.65191e-19)
(0.00942662 -0.21538 -5.41992e-19)
(0.0197614 -0.191333 2.75056e-19)
(1.11742 -6.12396 1.04903e-17)
(0.00126298 -0.240813 7.3309e-19)
(-0.00149084 -0.283441 1.18727e-19)
(0.00150769 -0.276941 0)
(0.0403835 -0.342392 -8.56382e-18)
(0.00953487 -0.323209 -8.58414e-18)
(0.015673 -0.302331 -1.92066e-18)
(-0.0146107 -0.222202 5.88496e-19)
(-0.00490072 -0.246464 0)
(-0.0214102 -0.186991 -5.73e-19)
(-0.0152884 -0.207219 -2.94743e-19)
(-0.0377333 -0.146844 -2.82152e-19)
(-0.0284983 -0.167258 5.65162e-19)
(-0.0578297 -0.110205 8.32852e-19)
(-0.047248 -0.127871 0)
(-0.0786702 -0.0770968 4.75982e-19)
(-0.0678246 -0.0929188 -2.75038e-19)
(-0.0922125 -0.0540511 -5.41065e-19)
(-0.0869179 -0.0640213 -5.94214e-19)
(-0.0899894 -0.0421465 1.36005e-19)
(-0.0930745 -0.0469975 2.71507e-19)
(-0.0843262 -0.0382463 1.35717e-19)
(-0.0623331 -0.0260567 -5.59541e-19)
(-0.0640949 -0.0279141 -5.4867e-19)
(-0.0561409 -0.026377 -1.78526e-18)
(-0.0598429 -0.0252564 6.35441e-19)
(-0.0464976 -0.0283678 5.74367e-19)
(-0.051515 -0.0277389 0)
(0.764377 -4.49501 0)
(-1.5122 -8.12013 -5.00535e-18)
(-0.176089 -0.525412 -1.16591e-18)
(-0.0807025 -0.393935 4.36129e-18)
(0.0727458 -0.390487 -4.40808e-18)
(0.172156 -0.512073 -2.32372e-18)
(0.0630815 -0.0323382 -4.87876e-19)
(-0.564797 -0.834428 4.36096e-18)
(0.0717561 -7.73901 4.19567e-21)
(-0.0922718 -7.73675 0)
(0.0746732 -0.0388088 -2.25064e-18)
(-6.5339 -39.0366 0)
(0.136804 -24.1186 2.59588e-19)
(0.203946 -25.9276 2.57424e-19)
(-0.272694 -0.707215 -4.79054e-18)
(-1.26413 -35.4325 2.85804e-18)
(0.0437765 -0.388891 8.77636e-18)
(0.269662 -0.69148 2.51759e-18)
(0.042398 -0.0225487 1.15332e-18)
(0.0372877 -0.0234438 3.82305e-18)
(0.232316 -7.75887 -1.67233e-20)
(0.084307 -6.73145 -5.25791e-21)
(0.267291 -6.75255 3.3662e-20)
(-0.0596094 -0.0265572 -3.37648e-20)
(-0.0646253 -0.0244366 2.16393e-19)
(-0.0829654 -0.0331654 -2.80409e-24)
(-0.0765429 -0.0269586 0)
(-0.174075 -30.1344 7.26037e-19)
(0.417912 -30.7135 -4.90566e-19)
(-0.00420465 -0.336141 1.52585e-18)
(-0.0378546 -0.394378 1.67378e-18)
(-0.38671 -0.936285 0)
(0.371668 -0.781076 2.75407e-18)
(0.0122011 -0.352462 1.25157e-18)
(0.0454672 -0.392466 -7.19498e-18)
(-3.39931 -41.5266 5.22374e-18)
(-0.657941 -1.28254 4.82039e-18)
(-0.788977 -1.59624 4.31046e-18)
(-0.0234939 -0.00574767 -4.85255e-18)
(-0.0420911 -0.0281188 -4.2755e-19)
(-0.0428155 -0.0245415 -5.76322e-19)
(-0.0393664 -0.0245248 5.77161e-19)
(-0.120832 -0.455405 -9.68093e-22)
(0.116123 -0.445337 2.24591e-18)
(0.0558959 -0.0291402 1.07757e-18)
(0.0521746 -0.0260717 -5.35562e-19)
(0.0536789 -0.026853 1.06514e-18)
(0.0482694 -0.0233514 1.09665e-18)
(0.0502961 -0.0242651 -5.10368e-19)
(0.0457252 -0.022744 -1.11727e-18)
(0.0378976 -0.0391543 -5.12037e-19)
(0.0418227 -0.0328896 4.82023e-19)
(0.0153733 -0.0590574 0)
(0.0290464 -0.0475067 5.18719e-19)
(-0.0300251 -0.0935534 -2.59659e-19)
(-0.00458812 -0.0738535 0)
(-0.0930137 -0.146079 2.57604e-19)
(-0.0596244 -0.117052 3.87425e-19)
(-0.17379 -0.222874 -1.27121e-19)
(-0.130289 -0.180109 -7.63811e-19)
(-0.287083 -0.351805 -1.03853e-18)
(-0.225159 -0.278769 8.89946e-19)
(-0.434957 -0.562093 1.00925e-18)
(-0.357716 -0.446651 -1.01162e-18)
(-0.521151 -0.698929 7.7395e-19)
(0.388571 -0.895279 -2.7005e-18)
(0.701405 -1.46266 -1.02659e-17)
(0.498951 -0.666629 -9.40352e-19)
(0.587574 -0.819469 6.73615e-19)
(0.322185 -0.394377 -9.82877e-19)
(0.415266 -0.510832 1.21141e-18)
(0.184022 -0.238927 0)
(0.243616 -0.303014 4.8319e-19)
(0.108828 -0.154231 1.27093e-19)
(0.140458 -0.189567 -6.24368e-20)
(0.0518963 -0.102639 2.58109e-19)
(0.0797372 -0.126278 0)
(-0.000920206 -0.0644285 -1.68458e-20)
(0.0239061 -0.0816147 -2.625e-19)
(-0.0340792 -0.0408454 5.58056e-19)
(-0.0209503 -0.0507817 -6.80861e-19)
(-0.040922 -0.0334274 4.22315e-19)
(0.171403 -9.82005 0)
(0.202681 -8.72851 -1.78215e-20)
(0.120793 -12.1438 0)
(0.145971 -10.929 0)
(0.0789539 -14.7346 5.25094e-22)
(0.0993502 -13.3976 -5.23859e-22)
(0.0456667 -17.5825 -1.6764e-20)
(0.0602665 -16.119 3.66039e-21)
(0.0708532 -20.716 0)
(0.050693 -19.1102 1.49711e-19)
(0.10137 -22.3763 -2.63695e-19)
(-0.250914 -7.75419 -3.36833e-20)
(-0.283565 -6.74903 -3.35718e-20)
(-0.101617 -6.72992 9.44275e-21)
(0.737571 -33.897 2.60584e-18)
(-1.93037 -33.7813 1.62169e-18)
(-3.46558 -9.72709 4.32278e-18)
(-0.277581 -28.0486 -1.1584e-18)
(-0.742926 -29.6912 -1.02158e-18)
(-0.106971 -24.088 -2.62125e-19)
(-0.197554 -25.7719 0)
(-0.0516886 -20.7332 -1.32654e-19)
(-0.0639274 -22.3428 -1.32133e-19)
(-0.0833235 -17.5925 -4.98285e-20)
(-0.0578893 -19.1237 -1.65819e-20)
(-0.117971 -14.728 -2.50679e-20)
(-0.108077 -16.1172 5.02601e-20)
(-0.153053 -12.1328 -2.09731e-21)
(-0.133457 -13.3863 2.10062e-20)
(-0.196935 -9.81252 1.73711e-20)
(-0.175129 -10.9196 -1.57011e-20)
(-0.225001 -8.72259 3.329e-20)
(0.0887468 -0.0400739 -2.83249e-19)
(0.0819802 -0.039165 5.60991e-19)
(0.0986867 -0.0453475 -1.44536e-19)
(0.0947032 -0.0423001 -2.84508e-19)
(0.10081 -0.0555282 1.46353e-19)
(0.101039 -0.0497155 -7.28661e-20)
(0.092269 -0.0733435 -2.88172e-19)
(0.0978224 -0.0629523 2.64192e-19)
(0.0752607 -0.102424 -2.86041e-19)
(0.0839521 -0.0865767 0)
(0.053189 -0.141629 0)
(0.0643319 -0.121158 0)
(0.0319944 -0.184553 -3.3726e-19)
(0.0422792 -0.163167 6.83697e-20)
(0.0145869 -0.228146 -5.1909e-19)
(0.0242967 -0.207424 -1.46358e-22)
(-0.00462335 -0.26915 -1.60181e-18)
(0.0108842 -0.255146 9.02861e-19)
(-0.0158374 -0.352029 -5.83502e-19)
(0.000721945 -0.298546 5.5735e-19)
(0.00406079 -0.28034 0)
(0.0202731 -0.362891 4.13244e-18)
(-0.0125699 -0.300819 -7.57701e-19)
(0.00726747 -0.39806 2.64331e-18)
(-0.0101055 -0.33237 3.07108e-19)
(0.0188254 -0.315168 1.11027e-18)
(0.00976611 -0.274995 3.805e-18)
(-0.0123687 -0.298192 1.14998e-18)
(-0.0160267 -0.242149 -1.56179e-18)
(-0.0203073 -0.253477 1.18037e-19)
(-0.0314535 -0.20331 1.4023e-18)
(-0.0250663 -0.2208 1.09646e-18)
(-0.0408913 -0.169805 -2.80856e-19)
(-0.0357962 -0.187724 -8.50001e-19)
(-0.0550825 -0.134361 2.78508e-19)
(-0.047311 -0.152275 5.60374e-19)
(-0.0740047 -0.102078 -4.12065e-19)
(-0.0641688 -0.11759 6.9241e-19)
(-0.0913878 -0.074495 0)
(-0.0830008 -0.0874251 -4.10067e-19)
(-0.0997825 -0.0555587 0)
(-0.097095 -0.0638698 -1.69527e-20)
(-0.0948487 -0.0437551 -3.38366e-19)
(-0.0988676 -0.0490693 2.70451e-19)
(-0.0890136 -0.0387001 1.34936e-19)
(-0.0542055 -0.0245503 -1.74182e-20)
(-0.0562928 -0.0258033 7.68066e-20)
(-0.0498099 -0.0232302 4.99393e-19)
(-0.0523806 -0.0230767 -4.83088e-19)
(-0.0465364 -0.0238572 0)
(-4.57272 -42.2629 -1.04801e-17)
(-1.59179 -3.59474 -1.11298e-17)
(0.375936 -27.9836 5.10841e-25)
(-0.194855 -0.60898 2.34656e-18)
(-0.0818826 -0.451342 4.50221e-18)
(0.0880499 -0.445909 0)
(0.196593 -0.597222 -7.14737e-18)
(0.0342924 -0.0238531 -3.43713e-19)
(-8.03511 -44.0888 -2.4828e-17)
(-0.726304 -1.46914 -2.36571e-18)
(0.00481544 -0.389926 -4.48118e-18)
(0.41734 -7.7993 3.3664e-20)
(0.474055 -6.79624 1.05033e-21)
(0.0487281 -0.0242042 -1.37843e-18)
(-1.50437 -6.62031 5.74455e-18)
(0.0694884 -0.0266588 9.21188e-18)
(0.0587048 -0.0245863 -7.13126e-23)
(0.0535254 -0.0218149 0)
(-0.0707743 -0.0213472 7.70694e-19)
(-0.0378382 -0.0277712 -7.06624e-19)
(-0.0362116 -0.02435 4.60308e-23)
(0.178601 -33.1588 -3.70173e-18)
(1.04918 -1.86779 4.35736e-18)
(1.06216 -2.30472 4.33457e-18)
(-2.17812 -43.2885 5.60165e-18)
(-0.0603508 -0.00860347 0)
(0.234683 -24.0123 -5.26924e-19)
(0.375322 -25.7654 -3.83375e-21)
(-1.12266 -2.33371 4.68412e-18)
(-1.4873 -2.32685 2.00683e-18)
(-1.1064 -2.71517 4.45314e-18)
(-0.0769088 -0.446486 -5.0086e-18)
(-0.289941 -0.81526 0)
(0.295521 -0.799357 0)
(0.0624798 -0.435551 0)
(0.737712 -1.66105 1.32119e-17)
(-0.433484 -7.79194 1.05047e-21)
(-0.488705 -6.78995 2.10097e-21)
(1.89918 -5.87669 5.34279e-18)
(-10.065 -38.9067 -1.96725e-18)
(-7.12136 -36.209 6.80078e-20)
(-0.886736 -2.07283 -4.46257e-18)
(-0.41077 -1.12038 0)
(-0.035096 -0.41257 -5.99865e-19)
(0.00150003 -0.314615 0)
(-0.0135397 -0.377516 0)
(0.00157782 -0.339914 1.1434e-18)
(0.00537277 -0.404983 1.09642e-21)
(0.0408249 -0.432813 4.51762e-18)
(0.406541 -1.07217 0)
(0.381566 -2.09117 -1.01504e-17)
(0.691661 -30.0594 -1.51918e-18)
(0.0299587 0.000432925 1.81655e-17)
(-0.530277 -1.6299 9.57178e-18)
(-1.56222 -4.47472 6.41623e-18)
(-0.136601 -0.521309 -2.29175e-18)
(0.137126 -0.517464 0)
(0.0435951 -0.023992 2.79643e-23)
(0.0459016 -0.0245971 -8.12631e-19)
(0.0397873 -0.0216246 -5.47921e-19)
(0.0415367 -0.0230135 4.22191e-21)
(0.0352819 -0.0209702 0)
(0.0379048 -0.0213753 5.62585e-19)
(0.0317891 -0.0202848 0)
(0.0327153 -0.0215251 -1.21937e-18)
(0.0285552 -0.0208128 0)
(0.0327254 -0.0280762 5.61475e-23)
(0.0339869 -0.0244717 -3.23641e-19)
(0.0288388 -0.0376013 0)
(0.0375769 -0.0283271 -2.39761e-18)
(0.00140743 -0.0604425 1.39214e-19)
(0.0182975 -0.0480155 -1.38437e-19)
(-0.0503042 -0.0944601 -2.5994e-19)
(-0.0216396 -0.0757945 1.30114e-19)
(-0.122311 -0.146198 0)
(-0.0838685 -0.117902 1.67816e-23)
(-0.219539 -0.227533 7.65938e-19)
(-0.166112 -0.181229 1.28187e-19)
(-0.366778 -0.370609 -1.60668e-20)
(-0.284824 -0.289703 -3.83565e-19)
(-0.571214 -0.629753 -9.97287e-19)
(-0.460575 -0.481307 0)
(-0.765651 -1.03497 1.38502e-18)
(-0.676283 -0.822265 7.34818e-19)
(-0.789531 -1.1709 -3.73415e-18)
(0.816665 -1.25713 1.74956e-18)
(0.888567 -1.43934 -3.60065e-18)
(0.661716 -0.776548 0)
(0.772397 -1.00063 -1.60092e-18)
(0.421441 -0.433802 4.74832e-19)
(0.542873 -0.586877 0)
(0.235717 -0.24439 -2.4525e-19)
(0.316626 -0.321718 0)
(0.13592 -0.154158 0)
(0.17731 -0.191206 0)
(0.0708669 -0.102728 5.13738e-19)
(0.101472 -0.125597 -5.08886e-19)
(0.013646 -0.0658145 2.66956e-19)
(0.0406242 -0.0828291 1.29434e-19)
(-0.0255444 -0.0402676 -2.75879e-19)
(-0.00939578 -0.0515751 -6.75918e-19)
(-0.0349087 -0.0327256 5.57182e-19)
(0.317872 -9.85496 -1.4734e-20)
(0.369186 -8.7659 -3.14315e-20)
(0.233082 -12.1765 1.68242e-20)
(0.275707 -10.9619 2.09329e-20)
(0.157454 -14.7633 0)
(0.195336 -13.4291 -1.67035e-20)
(0.115818 -17.59 -3.3565e-20)
(0.131603 -16.1391 -2.09146e-21)
(0.124684 -20.6849 -1.3353e-19)
(0.112753 -19.1019 -6.6831e-20)
(0.165481 -22.3191 3.96765e-19)
(0.0975621 -5.85804 0)
(-0.313246 -5.87544 3.15341e-20)
(-0.112191 -5.85664 -2.30844e-20)
(0.0349996 -0.46069 -2.45143e-18)
(0.524626 -5.92045 -2.09884e-21)
(0.299479 -5.87815 2.0988e-21)
(-2.65353 -33.9458 0)
(-5.18143 -34.3853 3.13264e-18)
(-1.19848 -31.6919 -1.12252e-18)
(-1.43381 -32.5846 2.68987e-18)
(-0.500414 -27.6371 -9.26666e-19)
(-1.21686 -29.7851 1.3097e-18)
(-0.228052 -24.0072 1.32181e-19)
(-0.365447 -25.7133 1.31685e-19)
(-0.158629 -20.7402 -1.3293e-19)
(-0.181205 -22.3471 -7.52465e-22)
(-0.153384 -17.6135 -6.69828e-20)
(-0.155727 -19.1445 2.668e-19)
(-0.190654 -14.7568 -8.28703e-21)
(-0.163022 -16.1442 -8.33197e-21)
(-0.255575 -12.1621 -1.46527e-20)
(-0.224311 -13.4166 1.68246e-20)
(-0.337218 -9.84392 1.67609e-20)
(-0.296701 -10.9486 7.37065e-21)
(-0.386799 -8.75689 -1.68412e-20)
(0.0665811 -0.0300761 4.20558e-18)
(0.057985 -0.0182183 2.41648e-18)
(0.063955 -0.023103 -7.36728e-18)
(0.0783424 -0.033713 -3.22244e-19)
(0.0728488 -0.0328898 -1.04078e-18)
(0.0919161 -0.0410553 -1.26762e-19)
(0.0853643 -0.0379029 4.42615e-19)
(0.102061 -0.0463104 7.2166e-20)
(0.0977157 -0.0437046 -1.79553e-20)
(0.106268 -0.0535007 7.6373e-20)
(0.105297 -0.0494435 -1.36552e-24)
(0.102069 -0.0660441 -7.13274e-20)
(0.105474 -0.0587705 -8.9366e-21)
(0.090267 -0.0876483 4.2261e-19)
(0.0973143 -0.0754972 1.42195e-19)
(0.071703 -0.118811 1.37358e-19)
(0.0817704 -0.102316 2.92612e-24)
(0.0513151 -0.154909 3.37499e-19)
(0.0618877 -0.13658 -4.09647e-19)
(0.0317594 -0.192774 6.57861e-20)
(0.0425196 -0.174274 -4.69723e-19)
(0.0196141 -0.225419 -1.86052e-18)
(0.0256063 -0.212091 3.95991e-19)
(0.0129116 -0.24939 -5.4351e-19)
(0.0173404 -0.23558 1.08144e-18)
(-0.00135269 -0.329693 0)
(0.00820949 -0.270643 -5.38081e-19)
(0.0124201 -0.260873 5.41453e-19)
(0.0082275 -0.280239 0)
(0.00298773 -0.284776 -1.32298e-19)
(0.000424078 -0.35419 0)
(0.000662321 -0.287834 2.70992e-19)
(0.00275237 -0.291196 0)
(-0.00611649 -0.271558 -3.52794e-20)
(-0.00137376 -0.281016 2.78195e-19)
(-0.0157348 -0.265007 0)
(-0.00161598 -0.269722 3.43349e-20)
(-0.0160876 -0.24134 7.93614e-19)
(-0.0199795 -0.245825 -1.34727e-19)
(-0.0351755 -0.209539 3.51553e-23)
(-0.0304821 -0.229414 5.16379e-19)
(-0.047019 -0.179814 -2.74173e-19)
(-0.0411765 -0.194987 0)
(-0.0568082 -0.152425 2.78114e-19)
(-0.0516639 -0.166791 -5.56348e-19)
(-0.0708929 -0.122144 1.37615e-19)
(-0.063308 -0.137425 1.38567e-19)
(-0.0878416 -0.0938248 -6.82452e-19)
(-0.0791736 -0.107542 4.11851e-19)
(-0.101931 -0.0702448 -2.7102e-19)
(-0.095494 -0.0812815 4.08451e-19)
(-0.106843 -0.0533143 0)
(-0.105792 -0.0609712 0)
(-0.100503 -0.0409486 6.07782e-19)
(-0.104926 -0.0467847 -2.02466e-19)
(-0.0886676 -0.0292492 3.28937e-24)
(-0.0946199 -0.0352508 -2.69424e-19)
(-0.0779266 -0.0146146 -9.53613e-19)
(-0.0813121 -0.0226598 1.04619e-18)
(-0.0633009 -0.0149765 7.74789e-19)
(-0.0681177 -0.0128523 1.44532e-18)
(-0.0535365 -0.0219217 6.78737e-20)
(-0.0588307 -0.0189962 -3.82718e-19)
(-0.0464067 -0.0225305 -3.47583e-20)
(-0.0493242 -0.0227074 3.7572e-19)
(-0.0422068 -0.0210918 -7.10034e-20)
(-0.0443127 -0.0213801 5.6046e-19)
(-0.0369357 -0.021694 0)
(-0.0397958 -0.0211471 7.1522e-20)
(-0.0316679 -0.0219257 5.23602e-19)
(-0.034146 -0.0218073 -5.40806e-19)
(-10.5155 -42.3532 -5.02715e-18)
(0.685907 -35.1668 -4.18533e-18)
(0.0817833 -0.175282 -9.78627e-19)
(-1.73376 -2.91311 9.08194e-18)
(0.548811 -27.6718 -5.25786e-19)
(-1.44961 -10.192 9.55772e-18)
(-1.24535 -3.30222 -5.2034e-18)
(-1.44592 -5.49319 -5.33618e-21)
(-1.04601 -5.01515 6.89774e-18)
(-0.940168 -4.37341 -7.26847e-18)
(-0.0987642 -0.50635 2.32589e-18)
(-0.205238 -0.700773 -2.31196e-18)
(-0.000832636 -0.361912 -5.30111e-19)
(0.00090615 -0.344634 1.20706e-22)
(0.212256 -0.689256 9.74666e-18)
(0.0997458 -0.50807 0)
(0.806933 -2.08538 -1.43761e-17)
(-1.26246 -1.73718 -3.75528e-18)
(1.21669 -2.70646 -8.48269e-19)
(0.0391257 0.000175917 -4.42898e-18)
(0.290822 -4.58538 -1.58548e-17)
(1.31052 -2.19163 2.55445e-19)
(1.10445 -1.3556 1.83548e-18)
(-0.538107 -5.91559 -3.35563e-20)
(-13.9413 -35.7656 2.6596e-18)
(-12.1692 -32.284 -7.68228e-21)
(0.0518265 -0.0138458 5.95472e-19)
(0.0548305 -0.0104258 -1.12914e-22)
(0.0612396 -0.0142946 3.04932e-18)
(1.98077 -41.4403 1.23958e-17)
(-0.791395 -2.44941 -9.79573e-18)
(-0.304853 -0.944679 0)
(-0.0658504 -0.489282 2.38209e-18)
(-0.0140961 -0.398452 -6.86138e-20)
(0.000510579 -0.433057 0)
(0.0659221 -0.500648 1.88692e-21)
(0.307648 -0.921893 -7.84984e-18)
(0.565909 -1.59072 -5.17003e-18)
(0.023599 -0.0190517 -4.50744e-19)
(0.0219565 -0.0195651 1.50396e-19)
(1.18222 -32.3786 4.83745e-19)
(-1.62984 -5.15686 2.64501e-18)
(29.3243 -84.9728 -6.31412e-18)
(-16.1984 -34.751 1.5623e-17)
(0.0360026 -0.479131 0)
(-0.577753 -4.46285 5.98827e-18)
(-0.506157 -40.7169 -1.27776e-17)
(12.7012 -34.8523 -3.88963e-18)
(-0.613513 -1.92622 -9.9055e-18)
(-1.02096 -37.3675 -1.52626e-19)
(-0.423099 -1.27813 -1.50436e-17)
(-0.0353071 -0.448511 5.69293e-19)
(0.0210196 -0.492613 -2.21089e-18)
(0.427448 -1.22312 -3.03317e-18)
(-0.0256474 -0.0198878 7.24182e-20)
(-0.0292088 -0.0216339 -2.70531e-19)
(-0.0235296 -0.0198013 2.17146e-19)
(0.573945 -4.92643 0)
(0.749673 -5.97378 3.36389e-20)
(0.815572 -4.9704 0)
(1.00019 -29.6955 2.06861e-18)
(-0.0574054 -0.0106999 2.66355e-19)
(-0.44041 -1.35112 -1.22828e-20)
(0.184336 -2.09255 -4.65119e-18)
(-1.05752 -3.93094 -3.39796e-18)
(0.014747 -0.134719 -1.08918e-18)
(0.0487975 -0.174743 7.04783e-19)
(-0.14655 -0.59428 2.29038e-18)
(-0.00332234 -0.351522 6.61668e-19)
(0.149264 -0.59296 -4.67197e-18)
(0.751735 -2.33324 9.65805e-21)
(0.0427028 -0.0197577 1.11947e-18)
(0.0471903 -0.0174909 -5.75451e-19)
(0.0356806 -0.0213511 4.75928e-19)
(0.0388835 -0.0210935 0)
(0.03087 -0.0200224 -8.50754e-24)
(0.0329917 -0.0211201 -2.04051e-19)
(0.0268691 -0.0192728 0)
(0.0290186 -0.0198625 -2.79242e-19)
(0.0248656 -0.0192814 -2.95173e-19)
(0.0262226 -0.021556 3.01653e-19)
(0.0293224 -0.0277443 2.25414e-18)
(0.0304236 -0.0240921 0)
(0.0211965 -0.0392396 -2.80154e-23)
(0.0280481 -0.0340553 -2.64475e-19)
(-0.01165 -0.0593998 -8.23568e-21)
(0.00783635 -0.0481707 1.35797e-19)
(-0.0699415 -0.0921367 6.52225e-20)
(-0.0376684 -0.0737098 1.35097e-19)
(-0.152302 -0.143111 6.45811e-20)
(-0.108003 -0.11449 -4.5265e-19)
(-0.269567 -0.226305 -7.67561e-19)
(-0.204523 -0.179486 3.87452e-19)
(-0.45551 -0.382253 2.09744e-18)
(-0.351449 -0.291574 -1.02615e-18)
(-0.719767 -0.670169 0)
(-0.576534 -0.507561 -1.01148e-18)
(-1.02444 -1.13785 1.43843e-18)
(-0.86425 -0.875264 0)
(-1.10419 -1.49206 3.5693e-18)
(-0.180769 -4.58491 -5.58413e-18)
(1.18247 -1.77208 3.45054e-21)
(0.813436 -0.797455 0)
(0.954705 -1.04514 0)
(0.516167 -0.449345 -9.61782e-19)
(0.661081 -0.602424 0)
(0.289863 -0.248111 -6.12511e-23)
(0.391001 -0.33223 1.2184e-18)
(0.163841 -0.149577 0)
(0.216747 -0.189622 3.12001e-20)
(0.0886444 -0.0999587 0)
(0.122875 -0.121588 1.2735e-19)
(0.0273451 -0.065647 -1.31608e-19)
(0.0564737 -0.0816663 1.29165e-19)
(-0.0168628 -0.0416096 0)
(0.00194014 -0.0522945 5.3716e-19)
(-0.0333523 -0.0279678 3.50307e-19)
(-0.0284581 -0.0336064 -1.38375e-19)
(-0.033044 -0.0242061 -3.03797e-19)
(0.60308 -7.85522 0)
(0.681588 -6.85289 -3.45902e-20)
(0.458933 -9.90514 -3.57575e-20)
(0.533055 -8.81956 1.04976e-21)
(0.331548 -12.2168 -2.09176e-20)
(0.39562 -11.0069 4.18981e-20)
(0.229078 -14.7933 2.34178e-21)
(0.278525 -13.4641 3.36269e-20)
(0.155704 -17.6008 5.88336e-20)
(0.188852 -16.163 -3.5436e-20)
(0.151123 -20.6477 -2.66773e-19)
(0.139994 -19.0925 1.3454e-19)
(0.277426 -23.8899 5.34769e-19)
(0.189317 -22.2505 -1.33784e-19)
(0.725446 -27.2576 5.2496e-19)
(0.427221 -25.5336 -1.59091e-18)
(-0.343672 -4.88678 2.09721e-21)
(-0.760539 -5.96715 0)
(-0.825569 -4.96492 4.19571e-21)
(-0.586729 -4.92232 -6.21362e-21)
(0.109398 -4.86937 2.09667e-21)
(-0.122355 -4.86855 1.67893e-20)
(0.332631 -4.88927 -2.0966e-21)
(-4.61965 -33.0298 0)
(-7.50511 -33.0963 -2.64548e-18)
(-2.02563 -30.3589 -1.13748e-18)
(-2.94602 -31.8564 0)
(-0.80444 -27.117 -6.65385e-19)
(-1.34265 -28.8477 -2.71949e-19)
(-0.344311 -23.8287 4.00986e-19)
(-0.503144 -25.3693 1.5541e-19)
(-0.218714 -20.6998 6.74403e-20)
(-0.260323 -22.2592 -1.32578e-19)
(-0.20342 -17.6215 -8.3792e-20)
(-0.201846 -19.1364 6.64434e-20)
(-0.251679 -14.7758 0)
(-0.225366 -16.1568 5.02808e-20)
(-0.348325 -12.2006 8.36081e-21)
(-0.295635 -13.4465 -1.67697e-20)
(-0.473653 -9.89352 -2.09952e-21)
(-0.410981 -10.9929 -8.41706e-21)
(-0.616644 -7.84635 -3.40707e-20)
(-0.547528 -8.80935 1.05019e-21)
(-0.693908 -6.8452 3.15489e-20)
(0.0725697 -0.0232559 0)
(0.066948 -0.0187493 1.86799e-18)
(0.0844564 -0.0328308 -6.24123e-19)
(0.0794707 -0.0271723 -3.22329e-19)
(0.0949023 -0.0406069 0)
(0.0891757 -0.0370407 5.97991e-19)
(0.1049 -0.0464867 2.90189e-19)
(0.100472 -0.0436567 -1.54288e-23)
(0.11031 -0.0530169 6.71613e-20)
(0.108534 -0.0495144 1.42792e-19)
(0.109116 -0.0622356 1.41906e-19)
(0.110701 -0.0570602 -1.4215e-19)
(0.101124 -0.077655 -1.39732e-19)
(0.106195 -0.0689551 0)
(0.0869344 -0.100921 -1.95074e-23)
(0.0949736 -0.0883966 -2.7658e-19)
(0.0686959 -0.129897 1.51912e-19)
(0.0784785 -0.114842 4.08957e-19)
(0.049045 -0.162153 6.64048e-20)
(0.0591972 -0.146112 -2.85241e-19)
(0.0337504 -0.190464 2.65609e-19)
(0.0408859 -0.178346 -1.33078e-19)
(0.0219939 -0.20981 0)
(0.0277268 -0.199589 -1.33882e-19)
(0.014622 -0.224909 -5.3406e-19)
(0.0191355 -0.218196 0)
(0.0071921 -0.233141 -1.33478e-19)
(0.0119473 -0.230515 5.99879e-19)
(0.000485956 -0.234784 -5.39545e-19)
(0.00443443 -0.236158 2.6841e-19)
(-0.00942822 -0.224398 -6.86767e-19)
(-0.00337546 -0.230449 2.73414e-19)
(-0.0198326 -0.218022 -2.02672e-19)
(-0.0142963 -0.222039 3.06974e-19)
(-0.032817 -0.20132 -9.77196e-23)
(-0.0265533 -0.206409 -1.34488e-19)
(-0.044999 -0.180231 5.61377e-23)
(-0.0389054 -0.192565 -1.06084e-18)
(-0.058259 -0.157633 -1.0875e-18)
(-0.0517642 -0.169143 1.08009e-18)
(-0.0701061 -0.134277 -6.88385e-20)
(-0.0640491 -0.146322 5.45538e-19)
(-0.0845589 -0.108189 1.36647e-19)
(-0.0769649 -0.121524 -1.37451e-19)