/*--------------------------------*- C++ -*----------------------------------*\
| =========                 |                                                 |
| \\      /  F ield         | OpenFOAM: The Open Source CFD Toolbox           |
|  \\    /   O peration     | Version:  2212                                  |
|   \\  /    A nd           | Website:  www.openfoam.com                      |
|    \\/     M anipulation  |                                                 |
\*---------------------------------------------------------------------------*/
FoamFile
{
    version     2.0;
    format      ascii;
    arch        "LSB;label=32;scalar=64";
    class       volScalarField;
    location    "0.0154";
    object      p;
}
// * * * * * * * * * * * * * * * * * * * * * * * * * * * * * * * * * * * * * //

dimensions      [1 -1 -2 0 0 0 0];

internalField   nonuniform List<scalar> 
31661
(
506.87
236.857
236.358
236.612
236.36
235.844
236.107
235.877
235.351
235.617
478.498
231.004
684.56
329.771
463.9
451.062
477.037
472.961
231.32
441.162
232.255
232.261
259.9
415.727
232.822
232.232
256.718
232.434
230.987
231.484
408.473
231.766
231.804
232.164
228.678
392.62
232.224
390.208
244.671
231.845
231.573
238.654
368.734
231.797
231.574
231.434
231.686
231.406
232.22
271.993
231.675
259.885
231.761
231.478
221.869
230.792
231.924
232.172
252.227
231.651
231.41
231.23
231.974
242.987
231.621
395.649
616.685
252.258
252.268
252.27
230.734
252.23
252.199
252.145
252.071
251.982
251.876
251.754
251.615
251.458
251.285
251.096
250.892
250.673
250.657
250.876
251.081
251.271
251.444
251.601
251.74
251.862
251.968
252.059
252.132
252.19
252.232
252.264
252.283
252.279
252.268
252.243
252.208
252.168
252.164
252.091
252.092
252.013
252.009
251.922
251.915
251.816
251.809
251.697
251.69
251.564
251.558
251.42
251.414
251.264
251.259
251.096
251.093
250.918
250.915
250.729
250.727
250.53
250.528
250.321
250.319
250.102
250.1
249.874
249.872
249.637
249.635
249.391
249.389
249.137
249.135
248.873
248.872
248.602
248.6
248.325
248.322
248.037
248.034
247.739
247.737
247.436
247.434
247.126
247.123
246.809
246.805
246.484
246.48
246.152
246.148
245.813
245.809
245.467
245.463
245.114
245.11
244.754
244.75
244.384
244.387
244.393
244.76
245.12
245.473
245.819
246.159
246.491
246.816
247.134
247.444
247.747
248.044
248.331
248.61
248.881
249.144
249.399
249.645
249.882
250.11
250.329
250.538
250.738
250.927
251.105
251.273
251.43
251.575
251.708
251.828
251.935
252.028
252.11
252.189
252.242
252.268
252.277
252.278
252.267
252.218
252.162
252.088
251.999
251.894
251.772
251.632
250.423
250.439
251.476
251.304
251.116
250.912
250.692
250.19
250.174
250.158
250.409
250.644
250.864
251.069
251.26
251.435
251.594
251.735
251.86
251.968
252.059
252.134
252.192
252.238
252.267
252.284
252.284
252.278
252.257
252.212
252.158
252.093
252.011
251.917
251.811
251.692
251.561
251.418
251.262
251.096
250.918
250.73
250.532
250.323
250.104
249.876
249.639
249.393
249.138
248.875
248.603
248.324
248.036
247.74
247.436
247.125
246.807
246.482
246.15
245.81
245.464
245.111
244.751
244.384
244.011
244.011
244.014
244.02
244.028
244.402
244.769
245.129
245.483
245.829
246.169
246.501
246.827
247.145
247.455
247.759
248.054
248.342
248.621
248.893
249.156
249.411
249.658
249.895
250.123
250.342
250.552
250.751
250.941
251.12
251.288
251.445
251.59
251.723
251.844
251.951
252.045
252.128
252.199
252.251
252.281
252.292
252.293
252.274
252.238
252.181
252.109
252.02
251.915
251.793
251.654
251.498
251.327
250.457
251.139
250.934
250.713
249.894
249.91
250.206
249.925
249.614
249.597
249.878
250.145
250.398
250.636
250.86
251.069
251.261
251.436
251.596
251.738
251.863
251.972
252.064
252.14
252.201
252.25
252.281
252.296
252.296
252.29
252.271
252.227
252.168
252.1
252.02
251.926
251.82
251.7
251.569
251.426
251.271
251.105
250.928
250.74
250.541
250.332
250.114
249.886
249.648
249.402
249.147
248.884
248.611
248.331
248.043
247.747
247.443
247.132
246.813
246.487
246.154
245.815
245.468
245.115
244.755
244.388
244.015
243.636
243.632
243.632
243.634
243.64
243.647
243.658
244.039
244.413
244.78
245.141
245.495
245.842
246.182
246.515
246.841
247.159
247.47
247.774
248.07
248.358
248.638
248.91
249.173
249.429
249.675
249.913
250.142
250.361
250.57
250.77
250.96
251.139
251.308
251.465
251.61
251.744
251.864
251.972
252.067
252.148
252.216
252.271
252.3
252.31
252.311
252.29
252.258
252.204
252.133
252.045
251.94
251.818
251.68
251.525
251.353
251.164
250.476
250.959
250.736
249.631
249.301
249.32
250.223
249.94
249.645
248.991
248.968
249.281
249.58
249.865
250.136
250.392
250.635
250.861
251.071
251.264
251.441
251.601
251.744
251.871
251.982
252.077
252.155
252.218
252.268
252.3
252.316
252.316
252.31
252.291
252.247
252.187
252.119
252.038
251.944
251.837
251.718
251.586
251.443
251.288
251.122
250.945
250.756
250.558
250.349
250.13
249.901
249.664
249.417
249.162
248.898
248.625
248.345
248.055
247.759
247.455
247.143
246.824
246.497
246.164
245.824
245.477
245.123
244.762
244.395
244.022
243.643
243.258
243.251
243.247
243.247
243.249
243.254
243.261
243.271
243.283
243.671
244.052
244.426
244.794
245.155
245.51
245.857
246.198
246.531
246.858
247.177
247.489
247.793
248.089
248.378
248.658
248.931
249.195
249.451
249.698
249.936
250.165
250.385
250.595
250.795
250.985
251.164
251.333
251.49
251.636
251.77
251.89
251.998
252.093
252.173
252.24
252.297
252.326
252.335
252.336
252.317
252.284
252.232
252.163
252.075
251.971
251.849
251.71
251.555
251.382
251.192
250.986
250.497
250.762
249.337
249.012
250.242
248.642
248.668
249.954
249.658
249.351
248.302
248.271
248.614
248.944
249.262
249.566
249.856
250.131
250.392
250.637
250.865
251.076
251.272
251.451
251.614
251.76
251.889
252.001
252.098
252.178
252.242
252.292
252.325
252.342
252.343
252.337
252.318
252.274
252.214
252.145
252.064
251.97
251.863
251.743
251.611
251.467
251.312
251.145
250.968
250.78
250.581
250.372
250.152
249.923
249.685
249.438
249.182
248.917
248.644
248.363
248.073
247.776
247.471
247.159
246.839
246.512
246.178
245.837
245.489
245.135
244.773
244.406
244.032
243.653
243.268
242.877
242.868
242.861
242.857
242.856
242.857
242.862
242.868
242.878
242.89
243.298
243.686
244.068
244.443
244.811
245.173
245.528
245.876
246.217
246.552
246.879
247.199
247.511
247.816
248.113
248.403
248.684
248.958
249.222
249.479
249.726
249.965
250.195
250.415
250.625
250.826
251.016
251.195
251.364
251.522
251.668
251.801
251.922
252.03
252.124
252.204
252.271
252.329
252.357
252.367
252.368
252.35
252.318
252.266
252.197
252.111
252.006
251.885
251.746
251.589
251.415
251.224
251.016
250.52
250.789
242.904
250.546
249.029
250.263
248.689
249.971
248.33
249.669
247.915
247.95
249.361
249.041
247.547
247.504
247.876
248.237
248.586
248.922
249.245
249.555
249.849
250.13
250.394
250.642
250.873
251.089
251.287
251.469
251.634
251.782
251.913
252.027
252.125
252.207
252.272
252.323
252.357
252.375
252.377
252.371
252.352
252.309
252.249
252.18
252.099
252.004
251.897
251.777
251.644
251.5
251.344
251.177
250.999
250.81
250.611
250.401
250.181
249.952
249.713
249.465
249.208
248.943
248.668
248.386
248.096
247.798
247.492
247.179
246.858
246.53
246.195
245.854
245.505
245.15
244.788
244.42
244.046
243.666
243.28
242.889
242.492
242.481
242.472
242.465
242.461
242.459
242.46
242.464
242.47
242.479
242.49
242.504
242.921
243.316
243.704
244.086
244.462
244.831
245.193
245.549
245.898
246.241
246.576
246.904
247.225
247.538
247.844
248.142
248.432
248.715
248.989
249.254
249.512
249.76
249.999
250.229
250.45
250.661
250.862
251.053
251.233
251.402
251.56
251.706
251.839
251.96
252.068
252.161
252.241
252.309
252.367
252.395
252.405
252.406
252.39
252.357
252.306
252.238
252.152
252.047
251.925
251.786
251.628
251.452
251.26
251.048
250.819
250.573
242.52
250.309
250.285
248.705
249.988
248.352
249.682
247.978
249.37
247.584
249.05
247.121
247.168
248.716
242.089
242.079
242.07
242.064
242.06
242.058
242.058
242.061
242.066
242.075
242.085
242.098
242.114
242.539
242.94
243.335
243.724
244.107
244.483
244.853
245.217
245.574
245.924
246.267
246.604
246.933
247.255
247.569
247.876
248.175
248.467
248.75
249.025
249.292
249.55
249.799
250.039
250.27
250.492
250.703
250.905
251.096
251.277
251.446
251.604
251.75
251.884
252.004
252.112
252.206
252.285
252.353
252.411
252.44
252.45
252.451
252.436
252.404
252.353
252.285
252.198
252.094
251.971
251.831
251.671
251.495
251.3
251.086
250.854
250.603
250.334
250.026
250.047
242.132
246.728
246.669
247.068
247.457
247.835
248.203
248.559
248.902
249.231
249.546
249.846
250.131
250.399
250.651
250.887
251.105
251.307
251.492
251.659
251.809
251.942
252.059
252.158
252.242
252.309
252.361
252.395
252.415
252.417
252.412
252.393
252.35
252.291
252.222
252.14
252.046
251.938
251.818
251.685
251.54
251.384
251.216
251.037
250.847
250.647
250.437
250.216
249.986
249.747
249.498
249.24
248.974
248.698
248.415
248.124
247.825
247.518
247.204
246.882
246.553
246.217
245.874
245.525
245.169
244.806
244.437
244.062
243.682
243.295
242.902
242.504
242.101
250.006
248.367
249.743
249.727
249.696
248
249.378
247.613
249.055
247.206
248.723
246.777
248.377
246.263
246.325
242.152
242.559
242.961
243.357
243.747
244.131
244.508
244.879
245.244
245.602
245.953
246.298
246.635
246.966
247.289
247.605
247.913
248.213
248.506
248.79
249.067
249.334
249.594
249.844
250.085
250.317
250.539
250.752
250.954
251.146
251.327
251.496
251.655
251.801
251.935
252.055
252.163
252.256
252.336
252.404
252.463
252.492
252.502
252.503
252.488
252.456
252.405
252.337
252.251
252.146
252.022
251.88
251.72
251.541
251.344
251.126
250.89
250.636
250.362
250.07
249.761
246.19
246.604
247.01
247.407
247.794
248.17
248.533
248.883
249.218
249.54
249.846
250.135
250.408
250.664
250.904
251.126
251.331
251.519
251.689
251.842
251.977
252.096
252.198
252.283
252.352
252.405
252.44
252.462
252.464
252.46
252.442
252.4
252.34
252.271
252.19
252.095
251.987
251.866
251.733
251.588
251.431
251.262
251.082
250.892
250.691
250.479
250.258
250.027
249.786
249.536
249.277
249.01
248.734
248.449
248.157
247.857
247.549
247.233
246.91
246.58
246.243
245.899
245.548
245.191
244.827
244.458
244.082
243.7
243.312
242.919
242.52
242.115
241.705
241.692
241.68
241.671
241.663
241.657
241.653
241.651
241.651
241.653
241.658
241.665
241.675
241.687
241.702
241.719
245.769
241.739
249.423
249.435
245.847
249.712
248.014
241.321
241.302
241.285
241.271
241.259
241.25
241.244
241.24
241.239
241.238
241.241
241.245
241.251
241.258
241.267
241.277
241.289
249.413
249.388
247.634
245.342
245.246
245.682
246.112
246.536
246.951
247.357
247.753
248.137
248.507
248.865
249.207
249.534
249.846
250.141
250.419
250.68
250.924
251.15
251.359
251.55
251.723
251.879
252.017
252.138
252.243
252.33
252.401
252.455
252.492
252.515
252.519
252.514
252.497
252.456
252.396
252.327
252.246
252.151
252.043
251.922
251.788
251.642
251.485
251.315
251.135
250.943
250.741
250.528
250.306
250.074
249.832
249.581
249.321
249.052
248.774
248.489
248.195
247.893
247.584
247.267
246.943
246.611
246.273
245.927
245.575
245.217
244.852
244.481
244.104
243.721
243.332
242.937
242.537
242.131
241.72
241.303
249.094
249.087
249.059
247.235
248.725
246.816
248.381
246.375
248.022
245.912
245.423
244.807
244.908
243.207
243.796
241.342
241.761
242.174
242.582
242.985
243.382
243.772
244.157
244.536
244.908
245.274
245.634
245.986
246.332
246.671
247.003
247.327
247.645
247.954
248.256
248.55
248.836
249.114
249.383
249.643
249.895
250.137
250.37
250.593
250.806
251.009
251.202
251.383
251.554
251.712
251.859
251.993
252.114
252.221
252.315
252.394
252.463
252.522
252.551
252.561
252.563
252.548
252.516
252.465
252.396
252.309
252.203
252.079
251.935
251.773
251.592
251.39
251.169
250.93
250.672
250.392
250.096
249.782
249.451
249.103
240.898
248.737
248.737
230.537
240.918
249.401
247.648
240.88
240.863
240.85
240.839
240.831
240.825
240.822
240.821
240.82
240.823
240.827
240.832
240.839
240.847
240.857
240.869
240.881
249.081
249.065
247.255
243.644
244.692
245.142
245.589
246.03
246.465
246.891
247.306
247.711
248.103
248.482
248.847
249.196
249.53
249.847
250.148
250.432
250.698
250.947
251.177
251.39
251.585
251.762
251.921
252.063
252.187
252.293
252.383
252.456
252.512
252.551
252.575
252.58
252.576
252.559
252.52
252.46
252.391
252.31
252.215
252.106
251.985
251.851
251.704
251.546
251.375
251.194
251.001
250.798
250.584
250.36
250.127
249.884
249.631
249.37
249.1
248.821
248.533
248.238
247.935
247.624
247.305
246.98
246.647
246.307
245.96
245.606
245.246
244.88
244.508
244.129
243.744
243.354
242.958
242.556
242.149
241.736
241.318
240.896
248.735
248.726
246.844
248.355
248.361
248.381
246.413
248.024
245.962
247.654
245.488
244.99
244.466
243.354
240.471
240.49
242.311
241.798
240.94
241.364
241.784
242.198
242.607
243.011
243.408
243.801
244.187
244.567
244.941
245.308
245.669
246.023
246.37
246.711
247.044
247.37
247.689
248
248.304
248.599
248.887
249.166
249.436
249.698
249.951
250.195
250.429
250.653
250.867
251.071
251.265
251.447
251.618
251.777
251.923
252.057
252.179
252.287
252.38
252.461
252.53
252.588
252.617
252.628
252.629
252.614
252.582
252.53
252.461
252.373
252.267
252.14
251.995
251.83
251.645
251.441
251.216
250.973
250.709
250.425
250.123
249.803
249.465
249.11
248.737
248.348
241.844
242.774
247.959
247.944
232.022
249.073
247.267
240.453
240.437
240.425
240.415
240.407
240.402
240.399
240.398
240.397
240.4
240.404
240.409
240.415
240.423
240.432
240.443
240.454
240.468
248.734
248.728
246.863
234.971
244.1
244.566
245.032
245.493
245.947
246.392
246.829
247.254
247.668
248.069
248.456
248.828
249.185
249.526
249.85
250.157
250.446
250.718
250.972
251.207
251.425
251.624
251.805
251.968
252.113
252.241
252.35
252.443
252.518
252.576
252.617
252.642
252.649
252.645
252.629
252.592
252.532
252.463
252.381
252.286
252.177
252.055
251.92
251.773
251.614
251.443
251.26
251.066
250.862
250.647
250.421
250.186
249.942
249.688
249.425
249.153
248.872
248.583
248.286
247.981
247.669
247.349
247.021
246.686
246.345
245.996
245.641
245.279
244.911
244.537
244.157
243.771
243.379
242.981
242.578
242.169
241.755
241.336
240.912
240.482
248.366
248.379
246.441
247.971
248.022
246
247.525
247.549
247.654
245.538
247.272
245.054
244.548
244.019
240.039
240.057
243.471
242.916
231.89
242.342
240.51
240.531
240.962
241.388
241.808
242.224
242.634
243.039
243.438
243.832
244.219
244.601
244.976
245.345
245.707
246.063
246.412
246.755
247.09
247.418
247.738
248.051
248.356
248.654
248.943
249.224
249.496
249.759
250.014
250.259
250.494
250.72
250.935
251.14
251.334
251.517
251.689
251.849
251.996
252.13
252.252
252.36
252.455
252.535
252.604
252.662
252.691
252.701
252.703
252.687
252.654
252.602
252.532
252.444
252.335
252.207
252.059
251.892
251.703
251.495
251.266
251.018
250.749
250.459
250.152
249.824
249.479
249.117
248.736
248.339
247.925
247.499
377.438
247.093
247.058
232.046
231.657
248.731
246.874
240.022
240.007
239.995
239.986
239.979
239.974
239.971
239.97
239.969
239.972
239.976
239.98
239.986
239.994
240.002
240.012
240.022
240.035
240.048
248.37
248.376
246.459
231.701
234.853
243.433
243.936
244.431
244.915
245.392
245.859
246.317
246.764
247.199
247.622
248.032
248.427
248.808
249.173
249.521
249.852
250.166
250.462
250.74
251
251.241
251.463
251.668
251.853
252.021
252.17
252.3
252.413
252.508
252.586
252.646
252.689
252.716
252.725
252.722
252.707
252.671
252.611
252.542
252.46
252.365
252.256
252.133
251.998
251.85
251.689
251.517
251.333
251.138
250.932
250.716
250.489
250.252
250.006
249.75
249.485
249.212
248.929
248.638
248.34
248.033
247.718
247.396
247.067
246.73
246.387
246.036
245.679
245.316
244.946
244.57
244.188
243.8
243.406
243.007
242.602
242.192
241.776
241.355
240.929
240.499
240.063
247.982
248.016
246.026
247.568
247.649
245.575
247.124
247.27
245.104
246.605
246.65
246.877
244.612
244.099
239.602
239.619
243.567
243.022
242.451
241.882
240.076
240.096
240.553
240.985
241.412
241.834
242.251
242.663
243.069
243.47
243.865
244.254
244.638
245.015
245.386
245.75
246.108
246.458
246.803
247.14
247.47
247.792
248.107
248.414
248.713
249.005
249.287
249.561
249.827
250.083
250.329
250.566
250.793
251.01
251.216
251.412
251.596
251.768
251.929
252.076
252.211
252.334
252.442
252.537
252.617
252.685
252.744
252.772
252.783
252.784
252.767
252.734
252.681
252.61
252.519
252.409
252.279
252.128
251.957
251.765
251.552
251.319
251.066
250.791
250.495
250.181
249.846
249.493
249.122
248.733
248.326
247.905
247.469
247.017
246.554
241.269
246.14
246.08
241.35
240.116
248.374
246.468
239.586
239.572
239.561
239.552
239.546
239.541
239.538
239.537
239.537
239.539
239.542
239.547
239.553
239.559
239.567
239.576
239.586
239.597
239.609
239.622
247.993
248.009
246.043
241.671
242.188
242.712
243.273
243.801
244.304
244.8
245.288
245.767
246.236
246.694
247.14
247.573
247.992
248.396
248.786
249.159
249.515
249.854
250.175
250.479
250.763
251.03
251.277
251.505
251.715
251.906
252.078
252.231
252.366
252.482
252.58
252.661
252.724
252.769
252.797
252.808
252.805
252.792
252.757
252.698
252.629
252.547
252.451
252.342
252.219
252.082
251.933
251.772
251.598
251.413
251.217
251.009
250.791
250.563
250.324
250.076
249.819
249.552
249.276
248.992
248.699
248.398
248.09
247.773
247.449
247.117
246.779
246.433
246.081
245.722
245.356
244.984
244.606
244.222
243.832
243.437
243.035
242.629
242.217
241.799
241.377
240.949
240.517
240.079
239.637
247.586
247.641
245.601
247.152
247.264
245.14
241.152
246.689
246.874
244.661
246.194
246.471
244.162
239.161
239.178
245.595
245.665
243.645
243.111
242.559
241.984
241.427
239.637
239.656
239.675
240.138
240.576
241.01
241.438
241.862
242.281
242.694
243.102
243.505
243.902
244.293
244.678
245.057
245.43
245.796
246.156
246.509
246.855
247.194
247.526
247.851
248.168
248.477
248.778
249.072
249.356
249.633
249.9
250.158
250.406
250.645
250.874
251.092
251.3
251.496
251.681
251.855
252.016
252.165
252.301
252.424
252.532
252.627
252.707
252.777
252.835
252.862
252.871
252.872
252.854
252.82
252.766
252.693
252.601
252.488
252.355
252.202
252.027
251.83
251.613
251.375
251.116
250.834
250.532
250.21
249.867
249.506
249.127
248.726
248.312
247.881
247.433
246.973
246.499
246.014
245.519
245.102
240.858
245.015
240.754
239.694
248.002
246.052
239.146
239.133
239.123
239.114
239.107
239.103
239.101
239.1
239.099
239.101
239.104
239.108
239.114
239.12
239.127
239.135
239.144
239.154
239.165
239.177
239.191
247.601
247.63
245.618
241.532
242.078
242.614
243.142
243.666
244.179
244.684
245.181
245.671
246.151
246.619
247.076
247.519
247.948
248.362
248.761
249.143
249.508
249.856
250.185
250.496
250.789
251.062
251.316
251.551
251.766
251.963
252.14
252.298
252.437
252.557
252.659
252.743
252.808
252.856
252.886
252.899
252.897
252.884
252.852
252.793
252.723
252.642
252.546
252.436
252.312
252.175
252.025
251.862
251.687
251.501
251.303
251.094
250.874
250.643
250.403
250.153
249.893
249.625
249.347
249.06
248.765
248.462
248.151
247.832
247.506
247.172
246.831
246.484
246.129
245.768
245.4
245.026
244.646
244.26
243.868
243.47
243.067
242.658
242.244
241.824
241.4
240.971
240.536
240.097
239.654
239.205
247.177
247.253
245.166
241.007
240.628
246.724
246.866
244.697
246.242
246.467
244.211
238.717
238.731
245.729
246.054
245.183
243.706
243.185
244.503
244.603
242.647
242.086
241.516
240.951
239.194
239.211
239.228
239.247
239.715
240.16
240.6
241.036
241.466
241.892
242.313
242.728
243.138
243.542
243.941
244.334
244.721
245.103
245.477
245.846
246.208
246.563
246.912
247.253
247.587
247.914
248.234
248.545
248.849
249.145
249.431
249.71
249.979
250.239
250.49
250.73
250.961
251.181
251.39
251.588
251.775
251.95
252.112
252.262
252.399
252.522
252.631
252.726
252.807
252.876
252.933
252.96
252.967
252.968
252.948
252.913
252.857
252.783
252.687
252.572
252.436
252.278
252.099
251.898
251.676
251.433
251.167
250.878
250.568
250.238
249.886
249.516
249.126
248.718
248.293
247.851
247.393
246.922
246.438
245.941
245.434
244.918
244.393
243.988
240.25
243.865
240.367
239.265
247.616
245.626
238.703
238.69
238.68
238.671
238.665
238.661
238.659
238.658
238.658
238.658
238.661
238.666
238.67
238.676
238.683
238.69
238.698
238.707
238.717
238.728
238.739
238.752
247.199
247.238
245.183
240.843
241.377
241.924
242.454
242.987
243.519
244.045
244.56
245.068
245.567
246.058
246.538
247.005
247.459
247.899
248.324
248.733
249.125
249.5
249.857
250.195
250.515
250.815
251.097
251.358
251.6
251.822
252.024
252.207
252.37
252.514
252.639
252.744
252.831
252.9
252.95
252.982
252.997
252.996
252.985
252.954
252.895
252.826
252.744
252.648
252.537
252.413
252.275
252.124
251.96
251.784
251.595
251.396
251.185
250.963
250.731
250.488
250.236
249.974
249.703
249.423
249.134
248.837
248.532
248.218
247.897
247.568
247.232
246.889
246.538
246.181
245.818
245.448
245.071
244.689
244.3
243.906
243.506
243.1
242.689
242.273
241.852
241.425
240.994
240.558
240.117
239.671
239.221
238.767
240.117
246.757
246.853
244.723
240.481
240.311
246.286
246.457
244.247
238.268
238.281
245.787
246.048
245.626
245.257
243.755
243.246
244.696
242.72
244.101
242.174
243.341
243.474
241.611
241.046
240.473
238.747
238.762
238.778
238.794
238.811
239.285
239.736
240.183
240.626
241.063
241.496
241.924
242.346
242.764
243.176
243.582
243.983
244.379
244.768
245.152
245.529
245.9
246.264
246.622
246.973
247.317
247.654
247.983
248.305
248.619
248.925
249.223
249.512
249.793
250.065
250.327
250.58
250.823
251.055
251.277
251.488
251.688
251.876
252.052
252.216
252.367
252.505
252.629
252.738
252.833
252.914
252.984
253.04
253.065
253.072
253.072
253.052
253.014
252.956
252.878
252.78
252.662
252.521
252.359
252.175
251.969
251.741
251.491
251.218
250.922
250.604
250.265
249.905
249.524
249.126
248.707
248.27
247.818
247.348
246.866
246.37
245.861
245.342
244.813
244.276
243.734
243.194
242.82
239.882
239.756
242.659
238.829
247.22
245.191
238.255
238.243
238.233
238.225
238.219
238.215
238.213
238.212
238.211
238.211
238.214
238.218
238.223
238.228
238.234
238.24
238.248
238.256
238.264
238.274
238.284
238.295
238.308
239.616
246.786
246.834
239.272
239.126
244.74
239.964
239.789
239.591
240.12
240.656
241.197
241.744
242.282
242.821
243.363
243.898
244.426
244.945
245.455
245.957
246.448
246.928
247.393
247.845
248.281
248.701
249.104
249.49
249.857
250.205
250.534
250.844
251.134
251.403
251.653
251.882
252.091
252.28
252.448
252.597
252.726
252.836
252.927
252.999
253.052
253.086
253.104
253.103
253.093
253.065
253.006
252.936
252.855
252.758
252.647
252.522
252.383
252.23
252.065
251.887
251.698
251.496
251.283
251.059
250.825
250.58
250.326
250.061
249.788
249.505
249.214
248.914
248.606
248.29
247.966
247.635
247.296
246.95
246.598
246.238
245.872
245.499
245.12
244.735
244.344
243.947
243.545
243.137
242.724
242.305
241.882
241.453
241.019
240.581
240.138
239.69
239.238
238.782
238.321
246.327
246.441
244.273
237.815
237.827
245.84
246.036
245.62
245.325
243.791
243.294
244.78
245.191
242.78
244.204
242.249
243.597
241.699
242.961
241.139
242.134
242.3
240.573
239.996
238.295
238.309
238.323
238.338
238.353
238.369
238.386
238.848
239.306
239.759
240.208
240.653
241.092
241.527
241.957
242.382
242.802
243.216
243.625
244.029
244.427
244.818
245.204
245.584
245.958
246.325
246.685
247.039
247.385
247.725
248.057
248.382
248.698
249.007
249.307
249.599
249.883
250.157
250.422
250.677
250.922
251.156
251.381
251.594
251.795
251.985
252.163
252.328
252.48
252.619
252.743
252.854
252.949
253.03
253.1
253.154
253.178
253.185
253.185
253.161
253.121
253.061
252.98
252.879
252.758
252.613
252.446
252.256
252.044
251.809
251.552
251.271
250.967
250.641
250.292
249.923
249.532
249.124
248.694
248.246
247.781
247.3
246.804
246.297
245.775
245.243
244.699
244.149
243.592
243.031
242.474
241.935
241.618
241.429
240.915
239.404
237.136
246.812
240.313
239.754
238.799
238.649
239.457
239.276
239.071
238.962
238.776
238.566
238.481
238.291
238.076
237.823
238.016
237.606
238.187
237.155
237.374
237.567
244.747
237.803
237.793
237.783
237.775
237.77
237.766
237.763
237.761
237.761
237.761
237.763
237.767
237.771
237.775
237.781
237.787
237.793
237.8
237.807
237.815
237.824
237.834
237.844
237.856
241.128
241.675
242.266
242.856
243.438
244.012
244.577
245.136
245.684
246.219
246.741
247.249
247.744
248.222
248.681
249.121
249.541
249.942
250.321
250.68
251.015
251.327
251.616
251.881
252.123
252.341
252.536
252.708
252.857
252.985
253.089
253.172
253.236
253.279
253.304
253.306
253.3
253.277
253.225
253.154
253.073
252.977
252.867
252.741
252.602
252.448
252.282
252.102
251.91
251.707
251.491
251.265
251.028
250.78
250.523
250.255
249.979
249.692
249.398
249.094
248.783
248.463
248.136
247.801
247.459
247.109
246.753
246.389
246.019
245.643
245.261
244.872
244.478
244.077
243.671
243.26
242.843
242.42
241.993
241.561
241.124
240.681
240.235
239.784
239.328
238.868
238.404
246.363
246.42
244.29
237.839
237.852
237.864
237.877
237.89
237.905
237.92
237.935
236.908
237.359
237.835
238.33
238.842
239.368
239.904
240.447
240.994
241.545
242.093
242.643
243.193
243.739
244.278
244.81
245.333
245.847
246.351
246.843
247.321
247.785
248.234
248.666
249.081
249.478
249.856
250.215
250.554
250.874
251.173
251.451
251.709
251.946
252.162
252.357
252.532
252.687
252.821
252.935
253.03
253.105
253.161
253.198
253.218
253.218
253.21
253.183
253.126
253.055
252.973
252.877
252.765
252.639
252.499
252.345
252.178
251.999
251.807
251.604
251.389
251.163
250.926
250.679
250.422
250.155
249.879
249.594
249.3
248.997
248.686
248.367
248.041
247.707
247.365
247.017
246.661
246.299
245.93
245.554
245.173
244.785
244.391
243.992
243.587
243.177
242.761
242.34
241.914
241.483
241.047
240.606
240.161
239.711
239.257
238.799
238.336
237.869
245.888
246.019
245.607
245.386
243.818
243.331
244.856
245.183
237.358
237.369
242.828
244.297
244.747
242.31
243.708
241.775
243.092
241.225
242.449
240.668
241.783
240.102
241.09
239.524
240.39
238.935
238.34
236.478
236.722
237.738
235.809
236.063
246.394
233.369
237.368
236.94
237.134
244.297
239.601
240.244
240.865
241.459
242.064
242.675
243.277
243.869
244.45
245.023
245.587
246.138
246.675
247.198
247.706
248.197
248.668
249.12
249.551
249.964
250.354
250.722
251.067
251.387
251.685
251.957
252.206
252.431
252.632
252.809
252.963
253.096
253.205
253.292
253.358
253.404
253.432
253.436
253.43
253.408
253.358
253.287
253.206
253.11
252.998
252.872
252.731
252.576
252.408
252.227
252.033
251.827
251.609
251.381
251.141
250.891
250.63
250.36
250.08
249.792
249.494
249.187
248.873
248.55
248.22
247.882
247.536
247.184
246.824
246.458
246.085
245.706
245.321
244.929
244.532
244.129
243.72
243.305
242.886
242.461
242.031
241.596
241.157
240.712
240.263
239.809
239.351
238.889
238.423
237.952
237.348
237.338
237.329
237.322
237.316
237.312
237.309
237.307
237.307
237.306
237.309
237.311
237.314
237.319
237.323
237.329
237.334
237.34
237.346
237.352
237.36
237.368
237.377
237.387
237.398
245.929
245.995
235.397
229.837
245.587
245.439
243.834
243.357
236.201
236.628
237.085
237.568
238.071
238.59
239.122
239.664
240.214
240.769
241.328
241.887
242.448
243.008
243.566
244.118
244.663
245.2
245.727
246.244
246.75
247.242
247.72
248.181
248.627
249.054
249.464
249.854
250.225
250.575
250.905
251.214
251.502
251.769
252.014
252.238
252.44
252.622
252.782
252.922
253.041
253.14
253.219
253.279
253.318
253.341
253.342
253.335
253.31
253.254
253.183
253.101
253.004
252.891
252.764
252.623
252.468
252.299
252.118
251.925
251.719
251.502
251.273
251.034
250.784
250.525
250.255
249.976
249.688
249.391
249.086
248.772
248.45
248.121
247.783
247.439
247.087
246.729
246.363
245.992
245.613
245.229
244.838
244.442
244.04
243.632
243.219
242.8
242.377
241.948
241.515
241.076
240.633
240.186
239.734
239.277
238.816
238.352
237.882
237.409
244.924
245.168
237.38
237.39
237.401
237.412
237.424
237.436
237.449
237.463
237.478
236.897
236.907
235.655
235.31
236.305
242.866
244.38
244.738
242.36
243.809
244.296
241.84
243.211
241.302
242.585
240.754
241.935
240.2
241.262
239.635
240.563
239.059
239.888
238.477
237.672
237.892
237.305
245.965
234.392
234.005
245.56
245.486
243.374
236.888
236.88
236.872
236.865
236.86
236.855
236.852
236.85
236.849
236.849
236.85
236.852
236.854
236.858
236.862
236.867
236.871
236.875
236.88
236.886
236.892
236.898
236.906
236.914
236.923
236.932
231.961
235.457
235.859
236.309
236.782
237.276
237.787
238.314
238.853
239.402
239.96
240.524
241.093
241.664
242.236
242.808
243.379
243.945
244.504
245.055
245.597
246.129
246.649
247.156
247.648
248.124
248.584
249.025
249.448
249.851
250.234
250.597
250.938
251.258
251.556
251.833
252.087
252.319
252.529
252.718
252.884
253.03
253.154
253.258
253.341
253.404
253.447
253.472
253.474
253.468
253.444
253.391
253.319
253.236
253.139
253.026
252.898
252.755
252.599
252.429
252.245
252.05
251.842
251.622
251.391
251.149
250.897
250.634
250.362
250.08
249.789
249.488
249.18
248.863
248.538
248.205
247.865
247.517
247.163
246.801
246.432
246.057
245.676
245.289
244.895
244.496
244.091
243.68
243.264
242.843
242.416
241.985
241.549
241.108
240.662
240.212
239.757
239.299
238.836
238.368
237.897
237.422
236.943
244.983
245.146
238.236
238.813
239.42
240.044
240.654
241.259
241.876
242.498
243.117
243.726
244.324
244.912
245.49
246.057
246.611
247.148
247.671
248.173
248.657
249.119
249.565
249.989
250.39
250.768
251.123
251.453
251.759
252.039
252.295
252.527
252.735
252.918
253.077
253.214
253.328
253.42
253.489
253.538
253.567
253.574
253.569
253.548
253.501
253.429
253.347
253.25
253.138
253.011
252.869
252.712
252.542
252.359
252.163
251.955
251.735
251.503
251.261
251.008
250.745
250.472
250.189
249.897
249.596
249.286
248.969
248.643
248.309
247.968
247.619
247.263
246.9
246.531
246.155
245.773
245.384
244.99
244.589
244.183
243.771
243.354
242.932
242.504
242.071
241.634
241.191
240.744
240.293
239.837
239.376
238.912
238.443
237.97
237.493
236.916
236.925
236.934
236.944