/*--------------------------------*- C++ -*----------------------------------*\
| =========                 |                                                 |
| \\      /  F ield         | OpenFOAM: The Open Source CFD Toolbox           |
|  \\    /   O peration     | Version:  2212                                  |
|   \\  /    A nd           | Website:  www.openfoam.com                      |
|    \\/     M anipulation  |                                                 |
\*---------------------------------------------------------------------------*/
FoamFile
{
    version     2.0;
    format      ascii;
    arch        "LSB;label=32;scalar=64";
    class       surfaceScalarField;
    location    "0.0355";
    object      phi;
}
// * * * * * * * * * * * * * * * * * * * * * * * * * * * * * * * * * * * * * //

dimensions      [1 0 -1 0 0 0 0];

oriented        oriented;

internalField   nonuniform List<scalar> 
88550
(
-1.38501e-05
-0.000159696
1.90719e-05
0.00015448
-7.62049e-05
-8.80483e-05
8.89811e-05
7.5272e-05
-8.61582e-05
7.30311e-05
-7.53397e-05
8.84667e-05
7.42233e-05
7.64645e-05
-0.000122937
-2.77507e-05
-8.81399e-05
2.96616e-05
0.000106721
-9.26865e-05
-4.3696e-05
-0.000297549
0.000257109
-5.6542e-05
9.69864e-05
-0.000100906
-6.38462e-05
8.19241e-05
8.28274e-05
-8.54862e-05
-4.85457e-05
5.44157e-05
7.96162e-05
-0.000220807
0.000222148
-3.11676e-05
2.98268e-05
-7.16615e-05
-0.000112507
0.000119505
6.46634e-05
-5.32384e-05
-9.21298e-06
-7.81522e-06
7.02668e-05
5.75395e-06
7.30526e-05
-0.000295037
0.000216235
6.89154e-05
6.19629e-05
-6.36289e-05
-6.72491e-05
-3.94874e-05
1.82121e-06
3.68843e-06
3.39783e-05
-6.10514e-05
1.06766e-05
-2.86346e-06
2.11645e-05
2.94848e-05
-3.83685e-05
-1.22804e-05
3.35e-05
2.75029e-05
-3.50462e-05
-2.59562e-05
-2.3492e-05
0.000196458
2.86503e-05
-0.000201616
-1.9317e-05
3.49053e-05
0.00028523
-0.000300812
-8.46108e-06
-0.000240623
0.000227801
2.12836e-05
2.54318e-05
-3.67042e-05
3.24372e-05
0.000267669
-4.05576e-05
-0.000265541
3.843e-05
0.000198273
-0.000166709
-7.69913e-05
4.54272e-05
3.30089e-05
0.000138477
-2.91771e-05
-0.000142308
-0.000143217
-3.22444e-05
0.00016073
1.47326e-05
-1.05226e-05
0.000268778
3.58737e-05
-0.000294124
-0.000191946
0.00013268
0.000151501
-9.22343e-05
0.00022131
8.98823e-06
-1.11083e-05
-0.000219181
0.000156276
-0.00016855
-0.000153114
0.000165389
2.7478e-05
-2.55909e-05
-1.96102e-06
7.37562e-08
3.01222e-05
-0.000247318
0.000247258
-3.00608e-05
-2.01175e-06
3.81902e-06
2.31076e-05
-2.4915e-05
0.000124436
-0.000106138
-0.000122493
0.000104196
3.54443e-05
-5.18224e-05
-2.45705e-05
4.09486e-05
8.32826e-06
0.000191593
1.69497e-07
-0.00020009
1.83075e-05
-6.33374e-05
7.25906e-05
-2.75604e-05
6.24245e-05
-6.42159e-05
2.00992e-05
-2.52999e-05
0.000191697
-0.000199285
3.28878e-05
4.13368e-05
-8.30887e-05
9.03067e-05
-4.85548e-05
-7.10724e-05
-7.45186e-05
8.59653e-05
5.96258e-05
-7.29529e-05
4.03161e-05
7.00446e-05
-3.74076e-05
-0.000217292
0.000247312
0.000133517
-0.000163535
-2.65351e-05
-0.000137549
0.000141592
2.24925e-05
-2.92513e-05
-0.000234222
0.000232501
3.09729e-05
-1.42133e-05
0.000103668
7.88558e-06
-9.73357e-05
-4.77294e-05
4.54685e-05
0.000232602
-0.00023034
0.000174844
7.4123e-06
-2.15294e-05
-0.000160727
5.85646e-05
0.000211331
-4.69068e-05
-0.000222989
-3.31567e-05
-0.00013627
0.000142892
-8.09611e-05
5.95644e-05
9.40597e-05
-7.26631e-05
-0.000235162
-3.32699e-05
0.000220703
9.31783e-05
-5.96738e-05
-9.13546e-05
5.78505e-05
2.5357e-05
-1.83871e-05
-2.62897e-05
1.93197e-05
-0.000234936
-2.51659e-05
3.92955e-05
-0.000111169
2.80256e-06
0.000117073
-8.70151e-06
-7.16451e-05
-6.81865e-05
7.72912e-05
6.25407e-05
9.89388e-05
-0.000179819
0.000162597
-8.17154e-05
-0.000159847
0.000147189
0.000131795
-0.000119133
0.000125071
-0.000103424
-0.000176553
0.00015491
-1.96139e-05
3.77249e-05
-0.000144172
0.000126062
-1.82473e-05
3.18189e-05
-3.7153e-05
2.35815e-05
-0.000195888
-5.76081e-05
2.29996e-05
0.000230496
-6.41659e-05
-8.17224e-05
6.87334e-05
7.71553e-05
0.000223638
9.69961e-06
-0.000227989
-5.34825e-06
-0.000105089
0.000137251
-0.000103823
-8.56162e-05
0.00010045
0.000100476
-0.000115309
7.71868e-05
7.90837e-05
-7.77733e-05
-7.84971e-05
-5.02606e-05
-0.000112701
5.23504e-05
0.000110611
0.000110947
-6.04166e-05
-0.000226493
0.000175964
-1.64065e-06
-2.97942e-05
5.47094e-07
3.08874e-05
-0.000108728
9.27375e-05
0.000108761
-9.27701e-05
1.36203e-05
-3.34923e-05
-0.000192086
0.000211959
-8.60031e-05
9.14806e-05
-7.94815e-05
7.40042e-05
0.00015176
-0.000214251
0.000173438
-1.17695e-05
8.16155e-05
1.51303e-05
-8.49764e-05
-3.02945e-05
3.60961e-05
3.36084e-05
-3.94106e-05
0.000133427
-0.0001682
-7.75215e-05
0.000169269
-0.000195168
-0.000108449
8.26425e-05
9.4596e-05
-6.87894e-05
-8.82067e-08
0.000104618
-2.28349e-06
-0.000102243
0.000156916
-0.000178467
0.000173312
-8.56768e-05
4.64685e-05
-3.77275e-05
7.69358e-05
0.000288229
-0.00010304
6.98839e-05
-0.000255072
0.00011139
-5.38553e-07
-0.000110936
-7.43714e-05
5.50429e-05
9.39002e-05
-7.45717e-05
0.000146288
-0.00016339
0.000174019
4.91818e-05
-5.44972e-05
0.000121076
-0.000115761
0.000239103
-0.000235609
-2.62828e-05
2.27895e-05
0.00022507
-0.000212584
-0.000159203
0.00014672
0.000194077
-9.00448e-05
0.000117993
-0.000222025
-0.000151567
0.000190215
0.000107642
-4.69689e-05
-0.00017009
6.07208e-05
0.000156339
3.36661e-05
-4.01291e-05
-2.52948e-05
3.17573e-05
-0.000242872
-1.75589e-05
0.00023118
0.000231337
-0.000240963
6.12251e-06
3.50396e-06
0.000130734
0.000136909
-0.000120405
-0.000147236
3.983e-05
0.000243861
-0.000238334
-4.53566e-05
5.68908e-05
-0.00026446
-3.08044e-05
0.000238374
-7.90909e-05
-8.81154e-05
0.000108095
5.91118e-05
-0.000302162
-7.25372e-06
0.000301641
7.78428e-06
-5.27664e-05
5.80908e-05
-9.36571e-05
8.83329e-05
-8.52113e-05
0.000159439
9.99028e-05
-0.00017413
5.25953e-05
-8.72494e-05
7.86461e-05
-4.39925e-05
2.49811e-05
-0.000247631
0.000228409
8.98983e-05
-0.000103406
-0.000184435
0.000197943
2.64872e-05
-0.000230494
0.000228992
1.02782e-05
-1.5631e-05
-0.000105812
9.35547e-05
-9.64127e-05
-8.75486e-05
9.04066e-05
0.000282138
6.75292e-05
-0.000226396
-0.000123262
1.75517e-05
0.00022787
-0.00021893
-3.84888e-05
7.84571e-05
-8.13921e-05
4.14239e-05
0.000125873
-3.84154e-05
-9.63848e-05
8.92692e-06
-0.000141616
-0.000120562
9.21612e-05
0.000170016
5.40905e-05
-0.000117636
0.000102234
-3.86884e-05
2.22013e-05
0.000222096
-0.000226741
-5.30742e-05
-0.000199015
0.000174571
-2.42247e-05
2.92903e-05
-9.3974e-05
8.89083e-05
3.28583e-05
-1.69386e-05
1.46518e-05
-3.05718e-05
3.35967e-05
-0.000221995
0.000210603
5.01839e-05
-6.89013e-05
-5.40391e-05
7.27567e-05
-0.000165916
0.000121073
-0.00014059
0.000185437
-0.000106907
0.000155871
-0.00016252
0.000113557
2.62621e-05
-0.000194722
0.000202059
-0.00016144
0.000126446
-0.000130918
0.000105974
2.3934e-05
-1.57625e-05
-0.000114145
1.46691e-05
-0.000181667
0.000193261
-0.000162489
0.000133432
-0.000132382
-3.08625e-05
3.12357e-05
-0.000100187
9.98134e-05
5.39951e-06
-0.000173228
0.000182498
-0.000160415
0.000127452
-0.000129523
0.000143676
-0.000151819
0.000152531
-0.000144388
-8.14176e-05
-0.000103325
9.87394e-05
-0.000185422
-0.000146679
0.000166617
0.000165486
-2.43966e-06
-0.000166416
0.000174256
-0.000149228
-0.000118244
0.000107059
-0.000181727
0.000154618
-1.0668e-05
3.77776e-05
9.67495e-05
-7.65824e-05
-0.000201893
-1.01731e-05
-0.000157759
0.000165494
-0.000108517
8.41404e-05
-0.000124851
0.000106991
-0.000136005
-0.000183299
0.000212314
-1.26138e-05
-0.000151922
0.000154365
-6.07028e-05
5.84386e-05
0.000200361
-0.000198096
0.000197289
-0.000190266
-6.77244e-05
-0.00014612
0.000144608
-1.10989e-05
-9.63821e-05
0.000100083
-3.45639e-05
-4.20988e-05
4.61151e-05
7.19536e-05
-7.59699e-05
-1.90159e-05
-0.000100617
7.75337e-05
0.000111813
1.36963e-05
-1.11582e-05
-0.000114352
-8.67254e-05
9.58189e-05
-8.63153e-05
7.72217e-05
-8.25776e-05
4.17321e-05
8.21824e-05
-0.000107496
-3.31116e-05
2.11087e-05
0.000119499
1.21343e-05
0.00014057
-0.000152081
-6.21754e-07
0.000195528
-8.40435e-05
-0.000205246
9.37629e-05
0.000103332
-6.75467e-06
6.2501e-06
-0.000102827
4.50793e-06
-0.000113096
0.000107347
1.24096e-06
7.76383e-05
-1.94423e-05
3.3366e-05
-9.15619e-05
0.000301821
-0.000300281
5.63307e-06
-7.1638e-06
0.000303744
-6.84244e-06
4.92906e-06
0.000305037
-4.97932e-06
3.69504e-06
0.000307179
-4.19487e-06
2.0611e-06
0.000307816
-1.55466e-06
9.26534e-07
0.000309326
-6.68192e-07
-8.34293e-07
0.000309627
8.63296e-07
-1.15622e-06
0.000309888
1.72012e-06
-1.97367e-06
0.000310298
1.64623e-06
-2.04938e-06
0.000310824
1.34693e-06
-1.86605e-06
0.00031175
8.6695e-07
-1.78605e-06
0.000312631
3.05664e-07
-1.18118e-06
0.000313759
-1.17591e-07
-1.00432e-06
0.000314768
-2.11582e-07
-7.92223e-07
0.000315873
-3.16314e-07
-7.83788e-07
0.000316948
-3.65905e-07
-7.03981e-07
0.000318045
-3.9622e-07
-6.9681e-07
0.000319158
-4.08741e-07
-7.00216e-07
0.000320288
-4.19763e-07
-7.07259e-07
0.000321423
-4.46399e-07
-6.85563e-07
0.000322614
-4.88086e-07
-6.99688e-07
0.000323809
-5.30083e-07
-6.62449e-07
0.000325064
-7.23265e-07
-5.30051e-07
0.000326444
-1.15631e-06
-2.22882e-07
0.000327976
-1.79151e-06
2.61137e-07
0.000329686
-2.37955e-06
6.69839e-07
0.000331476
-2.60858e-06
8.18769e-07
0.000333234
-2.08621e-06
3.27383e-07
0.000334993
-1.79369e-06
3.44681e-08
0.00033601
-5.31685e-07
-4.86521e-07
0.000337285
2.44419e-07
-1.5213e-06
0.000338073
1.47708e-06
-2.26777e-06
0.000338781
1.70973e-06
-2.41973e-06
0.000339675
1.21855e-06
-2.11554e-06
0.000341143
5.16932e-07
-1.98852e-06
0.000342636
-8.04275e-08
-1.41705e-06
0.000344267
-4.1996e-07
-1.21496e-06
0.000345827
-5.82902e-07
-9.8263e-07
0.000347411
-6.30596e-07
-9.58584e-07
0.000348955
-5.69065e-07
-9.80365e-07
0.000350497
-5.48013e-07
-1.00048e-06
0.000351938
-2.73784e-07
-1.17408e-06
0.000353457
-1.45084e-07
-1.38158e-06
0.000354926
2.41072e-07
-1.71703e-06
0.000356264
9.532e-07
-2.29911e-06
0.000357402
1.76736e-06
-2.91408e-06
0.000358394
2.32182e-06
-3.32303e-06
0.000359378
1.85801e-06
-2.851e-06
8.9135e-07
0.000360137
-1.65967e-06
0.000358716
-0.000358046
1.17794e-06
0.000360394
-7.95841e-07
-0.000356936
1.20327e-06
3.15748e-05
-3.34062e-05
-2.1709e-05
2.35407e-05
5.4613e-06
-0.000298396
-7.33604e-06
-0.00029983
0.000301826
3.64669e-06
4.23974e-06
-0.000298599
0.000361759
-1.49228e-06
-1.40011e-07
-3.78286e-06
1.25538e-06
0.000364276
-0.000361863
0.000363882
-5.81256e-06
-2.97158e-06
0.000355663
-0.0003544
-3.1824e-07
4.85849e-07
0.000353048
-0.000351458
-1.74215e-06
-1.11806e-06
0.00035001
-0.000348686
-1.8787e-06
-1.72877e-06
0.000347158
-0.000345635
-2.1584e-06
-2.10314e-06
0.000344106
-0.000342599
-1.93192e-06
-2.11715e-06
0.000341147
-0.000339841
-7.92963e-07
-1.53593e-06
0.000338636
-0.000337557
6.28966e-07
1.01028e-08
0.000335832
-0.000335205
-3.84011e-07
-2.50514e-07
0.000333622
-0.000332559
-2.8577e-06
-2.11628e-06
0.000330981
-0.000329473
-4.11717e-06
-3.66436e-06
0.000328055
-0.000326438
-3.40697e-06
-3.79702e-06
0.000324984
-0.000323653
-2.05218e-06
-2.60906e-06
0.000322386
-0.000321232
-1.63942e-06
-1.7949e-06
0.000320069
-0.00031893
-1.55532e-06
-1.60634e-06
0.000317839
-0.000316746
-1.48474e-06
-1.49622e-06
0.000315683
-0.000314623
-1.37136e-06
-1.42447e-06
0.000313561
-0.000312592
-1.0816e-06
-1.26796e-06
0.000311574
-0.000310663
-3.77285e-08
-7.05923e-07
0.000309977
-0.000309584
1.26043e-06
6.67524e-07
0.000309092
-0.000308473
2.51779e-07
1.23596e-06
0.000308026
-0.000306384
-3.18802e-06
-1.10736e-06
0.000304962
-0.000303227
-6.70461e-06
-5.609e-06
-8.17861e-06
-0.000301882
-0.000303569
0.000305225
2.0486e-06
3.1946e-06
-0.000306671
0.000307919
-3.1306e-07
6.23735e-07
-0.000308473
0.000309299
-1.97479e-06
-1.38064e-06
-0.000309825
0.000310271
-2.48829e-06
-2.49182e-06
-0.000310805
0.000311517
-2.49159e-06
-2.39315e-06
-0.000312609
0.000313557
-1.94693e-06
-2.26714e-06
-0.000314623
0.000315634
-1.78995e-06
-1.85329e-06
-0.000316778
0.000317845
-1.75938e-06
-1.84309e-06
-0.000318962
0.000320098
-1.83976e-06
-1.81318e-06
-0.000321275
0.000322404
-1.82579e-06
-1.86029e-06
-0.00032359
0.000324841
-1.77934e-06
-1.84608e-06
-0.000326261
0.000327755
-1.23199e-06
-1.64123e-06
-0.000329478
0.000331195
-8.98608e-07
-1.05274e-06
-0.000332691
0.000334229
-1.50488e-06
-1.16855e-06
-0.00033575
0.00033689
-2.66354e-06
-2.00822e-06
-0.000337801
0.000338715
-3.33636e-06
-3.18123e-06
-0.000340015
0.000341037
-3.01494e-06
-3.41799e-06
-0.000342586
0.000344017
-2.65072e-06
-2.96991e-06
-0.000345656
0.000347182
-2.49049e-06
-2.62572e-06
-0.000348724
0.000350325
-2.60728e-06
-2.52839e-06
-0.00035182
0.000353357
-2.9261e-06
-2.67634e-06
-0.00035475
0.000356133
-3.69071e-06
-3.11701e-06
-0.000357208
0.000358266
-4.39025e-06
-3.99729e-06
-0.000359229
0.000360568
-3.00824e-06
-3.82374e-06
-0.000362312
-1.14343e-06
0.000364701
-1.89424e-06
0.000358872
-0.00035775
4.57414e-08
0.000360023
-1.95619e-06
-0.000356325
-2.30339e-07
-2.6877e-05
-1.76201e-05
4.36961e-05
8.00811e-07
3.05305e-05
-2.38102e-05
2.4855e-05
-0.000299403
0.000301328
1.7315e-06
-0.000297511
2.3567e-06
-6.70291e-06
4.4633e-06
0.000366111
0.000362682
-0.000361788
-6.71782e-06
-9.57478e-06
0.000365543
0.000364512
-0.000362463
-3.20376e-06
-4.76014e-07
-1.76411e-06
0.00036693
0.000367062
-3.03651e-06
-4.77851e-06
3.47763e-06
-0.000297288
-4.26772e-06
-0.000298897
-4.74703e-06
0.000354929
-0.000353666
-1.58965e-06
-9.18693e-07
0.000352142
-0.000350959
-2.93194e-06
-2.65064e-06
0.00034945
-0.000347907
-3.42785e-06
-3.24509e-06
0.000346402
-0.0003449
-3.6668e-06
-3.61436e-06
0.000343403
-0.000341957
-3.38253e-06
-3.6186e-06
0.000340472
-0.000339244
-2.0245e-06
-3.02558e-06
0.00033787
-0.000336574
-6.69242e-07
-1.36792e-06
0.000335966
-0.000334122
-2.22957e-06
-8.61542e-07
0.000333239
-0.000331499
-4.59811e-06
-3.00117e-06
0.000330166
-0.000328563
-5.72052e-06
-4.9978e-06
0.000327104
-0.000325697
-4.81327e-06
-5.25604e-06
0.000324267
-0.000322978
-3.3402e-06
-4.03739e-06
0.000321816
-0.000320605
-2.84848e-06
-2.95406e-06
0.000319432
-0.000318308
-2.67595e-06
-2.77616e-06
0.000317193
-0.00031612
-2.55311e-06
-2.60756e-06
0.000315052
-0.000314041
-2.3777e-06
-2.48815e-06
0.000312984
-0.00031206
-1.99994e-06
-2.31952e-06
0.000311037
-0.00031027
-7.97604e-07
-1.72371e-06
0.000309402
-0.000308797
6.62173e-07
-1.93856e-07
0.000308258
-0.000307325
-6.74048e-07
7.04049e-07
0.000306718
-0.00030543
-4.46846e-06
-1.70566e-06
0.000304271
-0.000302643
-8.32345e-06
-6.75921e-06
-8.99556e-06
-0.000301817
-2.1627e-05
0.000229635
1.33113e-05
0.000366964
-0.000303067
0.000304709
4.15939e-07
1.46438e-06
-0.000305899
0.000307021
-1.42586e-06
-5.58536e-07
-0.000307844
0.000308485
-2.60794e-06
-2.19651e-06
-0.000309116
0.000309695
-3.06059e-06
-3.11517e-06
-0.000310422
0.000311086
-3.1495e-06
-3.11357e-06
-0.000311955
0.000313022
-3.00837e-06
-3.12959e-06
-0.000314072
0.000315102
-2.81569e-06
-2.89814e-06
-0.000316143
0.000317274
-2.88629e-06
-2.87948e-06
-0.000318362
0.000319482
-2.95651e-06
-2.89676e-06
-0.000320653
0.000321821
-2.99172e-06
-3.02832e-06
-0.000323008
0.000324208
-2.97775e-06
-3.03053e-06
-0.000325624
0.000327195
-2.802e-06
-3.05672e-06
-0.000328717
0.000330347
-2.52862e-06
-2.57469e-06
-0.000331964
0.000333464
-3.00637e-06
-2.78539e-06
-0.000334852
0.000335995
-3.80824e-06
-3.39755e-06
-0.000337096
0.000338176
-4.41953e-06
-4.28485e-06
-0.000339312
0.000340531
-4.23737e-06
-4.55725e-06
-0.000342005
0.000343426
-4.07669e-06
-4.44821e-06
-0.000344934
0.000346509
-4.07106e-06
-4.13914e-06
-0.000348065
0.000349589
-4.13777e-06
-4.09103e-06
-0.000351185
0.000352677
-4.42614e-06
-4.27902e-06
-0.000354102
0.000355504
-5.10101e-06
-4.5491e-06
-0.0003567
0.000357882
-5.58121e-06
-5.20255e-06
-0.000359084
0.000360716
-4.65102e-06
-5.03503e-06
-3.65099e-06
-0.000296082
2.05852e-06
-0.000362316
0.000364099
-1.13691e-05
-0.000361043
-8.00227e-06
0.000358253
-0.000356678
-1.53905e-06
0.000359467
-3.18053e-06
-0.000355208
-1.7092e-06
-8.33636e-07
-1.8919e-06
0.000369644
-3.16308e-06
0.00036938
-1.69195e-06
-0.000302995
0.000300429
-2.09205e-06
-0.000295419
1.43827e-06
-1.2317e-06
-0.000298138
-1.61663e-06
-0.000298502
-1.16097e-05
9.13035e-06
0.000366566
0.000362948
-0.00036112
-1.32087e-05
0.000364872
-1.35457e-05
1.7432e-06
-3.11683e-06
-0.000296755
1.4041e-06
-0.00029507
-6.33414e-06
0.000353899
-0.000352178
-3.31901e-06
-2.23751e-06
0.000351288
-0.000349863
-4.36491e-06
-3.54906e-06
0.000348301
-0.0003468
-4.93521e-06
-4.81431e-06
0.000345273
-0.000343723
-5.22208e-06
-5.14841e-06
0.000342215
-0.000340773
-4.83003e-06
-5.13238e-06
0.000339302
-0.000337823
-3.50788e-06
-4.50071e-06
0.000336731
-0.00033548
-1.9235e-06
-2.46322e-06
0.000334559
-0.000332482
-4.30883e-06
-1.78601e-06
0.000332045
-0.000330741
-5.90403e-06
-3.43954e-06
0.000328784
-0.000327136
-7.36857e-06
-6.95564e-06
0.000325704
-0.00032439
-6.12665e-06
-6.68779e-06
0.000323082
-0.000321898
-4.52256e-06
-5.34476e-06
0.000320692
-0.00031951
-4.02825e-06
-4.15798e-06
0.000318368
-0.000317255
-3.78596e-06
-3.91529e-06
0.000316144
-0.000315069
-3.6239e-06
-3.71526e-06
0.000314018
-0.000312998
-3.39262e-06
-3.5352e-06
0.000311968
-0.00031097
-2.99266e-06
-3.34443e-06
0.000310052
-0.000309044
-1.7993e-06
-2.63582e-06
0.000308422
-0.000307716
-3.65294e-08
-8.09778e-07
0.000307103
-0.000306732
-1.03808e-06
9.78828e-08
0.00030524
-0.000303834
-5.86651e-06
-3.18911e-06
0.000302921
-0.000302359
-8.87625e-06
-7.66382e-06
3.62209e-05
0.000219831
-0.000238613
-1.7438e-05
-9.36886e-06
-0.000301977
4.28419e-06
-6.88686e-06
0.000368702
0.000369345
0.000367775
0.000294972
-0.000293762
2.03601e-07
-0.000295923
0.000297502
4.89507e-07
4.96962e-07
-0.000299118
0.000300325
5.33944e-07
7.4917e-07
-0.000301989
0.000303563
-1.14984e-06
-1.90135e-07
-0.000304671
0.000305768
-2.51486e-06
-1.65838e-06
-0.000306684
0.000307448
-3.36472e-06
-3.10417e-06
-0.000308142
0.00030881
-3.72219e-06
-3.80135e-06
-0.000309535
0.000310352
-3.96025e-06
-3.83184e-06
-0.00031117
0.000312032
-3.86519e-06
-3.94192e-06
-0.000313039
0.000314128
-3.90059e-06
-3.89964e-06
-0.000315158
0.000316217
-3.94144e-06
-3.90491e-06
-0.000317347
0.000318461
-4.06736e-06
-4.02368e-06
-0.000319589
0.000320794
-4.19525e-06
-4.15274e-06
-0.000322008
0.000323256
-4.22412e-06
-4.24249e-06
-0.000324476
0.000325933
-4.25846e-06
-4.27566e-06
-0.000327476
0.000329102
-4.15485e-06
-4.11821e-06
-0.000330626
0.000332071
-4.45233e-06
-4.31012e-06
-0.000333465
0.000334744
-5.08984e-06
-4.79349e-06
-0.000335779
0.000336958
-5.60187e-06
-5.32258e-06
-0.000338145
0.000339575
-5.67159e-06
-5.74837e-06
-0.000340801
0.000342359
-5.63966e-06
-5.67873e-06
-0.000343805
0.000345319
-5.59169e-06
-5.5901e-06
-0.000346874
0.000348454
-5.72383e-06
-5.65283e-06
-0.000349952
0.000351472
-5.95394e-06
-5.7846e-06
-0.00035299
0.000354313
-6.43358e-06
-6.07527e-06
-0.000355825
0.000356883
-6.64811e-06
-6.72362e-06
-0.000358422
0.000360097
-6.33649e-06
-6.58394e-06
-0.000361932
0.000364042
-5.32499e-06
-5.49693e-06
-0.0003663
-5.33718e-06
0.000368462
-5.30634e-06
7.57636e-07
1.84813e-07
-0.000296002
-0.000293066
7.22821e-08
-3.55103e-06
-0.000300293
-0.000358903
-1.02318e-05
-5.11372e-06
-0.000299487
-1.06631e-05
8.53813e-06
0.000368679
-1.30519e-05
0.000367248
0.000360994
-0.000359729
-1.4486e-05
0.000362932
-1.54966e-05
0.000366965
-0.000364808
-7.50687e-06
-5.78424e-06
3.66841e-06
0.000370566
0.000368919
-7.75111e-06
-3.28954e-06
-0.000298319
-5.40875e-07
-0.000296019
1.42494e-07
-1.02707e-06
-0.000295107
0.000355632
-0.000354048
-3.30266e-06
0.000357184
-3.10142e-06
0.000358665
-4.67253e-06
-2.44275e-07
-0.000292669
5.47753e-06
-5.67798e-06
-0.000300275
0.000300485
-0.000300325
0.000302261
-6.58311e-06
0.000352648
-0.000351356
-4.6202e-06
-3.6477e-06
0.000349617
-0.000348173
-5.81706e-06
-5.29638e-06
0.000346586
-0.000345007
-6.52163e-06
-6.40954e-06
0.000343583
-0.000342079
-6.73231e-06
-6.57969e-06
0.000340565
-0.000339019
-6.38156e-06
-6.65275e-06
0.000337715
-0.000336502
-4.72603e-06
-5.80905e-06
0.000335036
-0.000333887
-3.0763e-06
-3.93309e-06
0.000332315
-0.000332603
-4.02387e-06
-3.36087e-06
0.000329209
-0.00032829
-6.82475e-06
-6.83593e-06
0.000326999
-0.0003256
-8.76859e-06
-8.24807e-06
0.000323773
-0.000322555
-7.34485e-06
-8.5143e-06
0.000321558
-0.00032038
-5.69863e-06
-6.34174e-06
0.000319158
-0.000318032
-5.15284e-06
-5.3785e-06
0.000316901
-0.000315773
-4.91129e-06
-5.04325e-06
0.000314674
-0.000313613
-4.68075e-06
-4.81175e-06
0.000312568
-0.000311519
-4.43678e-06
-4.57618e-06
0.000310546
-0.000309534
-3.99857e-06
-4.31337e-06
0.000308702
-0.000307974
-2.52169e-06
-3.46233e-06
0.000307339
-0.000306279
-1.09062e-06
-1.43808e-06
0.00030543
-0.000304197
-2.26402e-06
-7.43416e-07
0.000302576
-0.000302114
-6.32064e-06
-4.80219e-06
0.00030154
-0.000301167
-9.24051e-06
-8.22974e-06
-1.9005e-05
9.17501e-05
-9.69699e-05
-8.9851e-06
-0.000301542
0.000121768
2.95321e-05
-9.62803e-05
-5.50205e-05
-1.4166e-06
-9.64647e-07
0.000372014
0.000371619
3.42854e-06
-5.80591e-06
0.000371068
0.000371798
0.000370495
0.000292448
-0.000291454
-1.22829e-06
-0.000293275
0.000294065
-5.7706e-07
-7.44883e-07
-0.000295379
0.000296561
-6.82633e-07
-8.07735e-07
-0.000298078
0.000299703
-1.08242e-06
-7.5842e-07
-0.000300956
0.000301999
-2.18442e-06
-1.43402e-06
-0.000303272
0.000304256
-3.49134e-06
-2.92328e-06
-0.000305009
0.000305888
-4.23657e-06
-3.84886e-06
-0.000306576
0.000307419
-4.55807e-06
-4.4827e-06
-0.000308137
0.000308949
-4.76552e-06
-4.54424e-06
-0.000309861
0.000310702
-4.70081e-06
-4.84917e-06
-0.000311667
0.000312642
-4.87074e-06
-4.85983e-06
-0.000313737
0.00031479
-4.99061e-06
-4.99615e-06
-0.00031587
0.000316998
-5.19249e-06
-5.10061e-06
-0.000318136
0.000319295
-5.35175e-06
-5.28853e-06
-0.000320511
0.000321764
-5.47686e-06
-5.45709e-06
-0.000323037
0.000324353
-5.57403e-06
-5.54764e-06
-0.000325791
0.000327255
-5.61911e-06
-5.55723e-06
-0.000328797
0.000330306
-5.96312e-06
-5.85346e-06
-0.000331627
0.000332802
-6.26734e-06
-6.11676e-06
-0.000334185
0.000335326
-6.74726e-06
-6.70875e-06
-0.00033648
0.000337862
-7.05853e-06
-6.90596e-06
-0.000339206
0.000340695
-7.13395e-06
-7.02821e-06
-0.000342195
0.000343691
-7.094e-06
-7.09664e-06
-0.000345221
0.000346757
-7.26682e-06
-7.18969e-06
-0.000348322
0.000349879
-7.51905e-06
-7.35846e-06
-0.000351377
0.000352881
-7.94677e-06
-7.58162e-06
-0.00035422
0.000355639
-8.07688e-06
-8.07265e-06
-0.000357135
0.00035877
-7.98251e-06
-8.09068e-06
-0.000360629
0.00036271
-7.41792e-06
-7.36684e-06
-7.41606e-06
-2.61625e-07
-5.57141e-07
-0.000291841
-0.000290535
-1.17026e-06
-4.69631e-06
-0.0003007
-0.000358441
-1.15326e-05
0.000355643
-0.000353766
-4.98895e-06
0.000357323
-6.36382e-06
-0.000352264
-4.81612e-06
0.000364763
-1.48969e-05
-6.08721e-06
4.13613e-06
0.000372504
-8.0024e-06
0.000370821
-0.000299402
0.000299982
-6.24772e-06
-4.98677e-06
3.12066e-06
-0.000298399
-0.000299229
-5.15021e-06
-2.77817e-06
-0.000299988
-1.19011e-07
-0.000298731
-1.677e-06
-0.000295359
-2.20708e-06
-0.000293447
-1.97899e-07
-2.1664e-07
-0.000291416
-8.93013e-07
-0.000289829
-0.000301891
-7.71301e-06
0.000350684
-0.000349067
-6.24638e-06
-5.23797e-06
0.000347847
-0.000345706
-7.96688e-06
-6.52627e-06
0.000344357
-0.0003428
-8.08667e-06
-7.76744e-06
0.000341354
-0.000339912
-8.18186e-06
-8.03245e-06
0.000338443
-0.000337062
-7.76815e-06
-8.12884e-06
0.000335535
-0.00033408
-6.18641e-06
-7.34181e-06
0.000332871
-0.000331655
-4.29641e-06
-5.14732e-06
0.000330729
-0.000328664
-6.09212e-06
-4.29089e-06
0.000328741
-0.000326605
-8.96366e-06
-6.76109e-06
0.000324756
-0.000323269
-1.02574e-05
-1.00985e-05
0.00032193
-0.000320772
-8.50348e-06
-9.85368e-06
0.000319562
-0.000318446
-6.81382e-06
-7.55148e-06
0.000317194
-0.000316035
-6.31088e-06
-6.62938e-06
0.000314943
-0.000313844
-6.00767e-06
-6.13315e-06
0.000312773
-0.000311711
-5.73874e-06
-5.88023e-06
0.000310681
-0.00030967
-5.44393e-06
-5.60274e-06
0.000308705
-0.000307847
-4.85154e-06
-5.27396e-06
0.000306833
-0.000306064
-3.28498e-06
-4.47073e-06
0.000304849
-0.000304346
-1.58674e-06
-2.64719e-06
0.000303586
-0.000301451
-4.3912e-06
-1.49738e-06
0.000302941
-0.000300982
-8.27177e-06
-3.30536e-06
0.000300738
-0.00030001
-9.96051e-06
-8.46518e-06
0.000300223
-0.000300343
-8.89682e-06
9.02544e-06
-8.76303e-06
-7.62933e-06
7.27761e-06
-1.96785e-06
-2.24136e-07
0.000374194
0.000373775
2.56937e-06
-5.01426e-06
0.000373501
0.000374131
7.30731e-06
-9.55002e-06
0.000370909
0.000372776
1.17324e-05
0.000367108
-1.40912e-05
0.000369417
0.000289813
-0.000288927
-1.76845e-06
-0.000290302
0.000291347
-2.26335e-06
-1.64926e-06
-0.00029207
0.000293371
-1.86887e-06
-1.458e-06
-0.00029432
0.000295675
-2.02832e-06
-1.74757e-06
-0.00029663
0.000297951
-2.39527e-06
-1.70384e-06
-0.000299352
0.000300348
-3.1721e-06
-2.82642e-06
-0.000301247
0.000302211
-4.44768e-06
-3.81407e-06
-0.000303152
0.000303922
-4.99997e-06
-4.782e-06
-0.00030473
0.00030544
-5.2612e-06
-5.28379e-06
-0.000306338
0.000307004
-5.42656e-06
-5.43625e-06
-0.00030784
0.000308952
-5.80848e-06
-5.67942e-06
-0.000309819
0.000310827
-5.87463e-06
-5.72219e-06
-0.000311834
0.000312912
-6.06576e-06
-5.99906e-06
-0.000313971
0.000315063
-6.28224e-06
-6.15663e-06
-0.000316179
0.000317352
-6.52287e-06
-6.40287e-06
-0.000318519
0.000319745
-6.70177e-06
-6.62334e-06
-0.000320972
0.000322314
-6.9167e-06
-6.77494e-06
-0.000323672
0.00032507
-7.0187e-06
-6.91585e-06
-0.000326501
0.000327904
-7.36888e-06
-7.28597e-06
-0.000329291
0.000330622
-7.60145e-06
-7.50635e-06
-0.000331868
0.000333095
-7.97786e-06
-7.95893e-06
-0.000334463
0.000335709
-8.30952e-06
-8.27958e-06
-0.000337201
0.000338558
-8.49711e-06
-8.52585e-06
-0.000340024
0.000341564
-8.64192e-06
-8.56896e-06
-0.000343078
0.000344633
-8.83066e-06
-8.71057e-06
-0.000346188
0.000347695
-9.03537e-06
-8.92178e-06
-0.000349254
0.000350697
-9.39901e-06
-9.14996e-06
-0.00035219
0.000353705
-9.60306e-06
-9.57605e-06
-0.000355239
0.000356659
-9.4141e-06
-9.63546e-06
-0.000358849
0.000360739
-9.31997e-06
-9.56919e-06
-0.000362717
0.000364696
-9.49903e-06
-9.40661e-06
-0.000366607
-9.90514e-06
0.000368496
-9.67594e-06
-7.60721e-07
3.16368e-07
-0.000289375
-0.000288154
-1.52323e-06
2.132e-06
-2.59372e-06
-0.000298757
3.96312e-06
-0.00030022
-2.00095e-06
-0.000301467
0.000359416
-0.000357654
-1.62614e-05
0.000360648
-1.67429e-05
-0.000356127
-1.30718e-05
-7.74269e-07
-0.000299323
-1.26118e-05
1.06732e-05
0.000369033
0.000364111
-0.000362447
-1.57699e-05
-1.47849e-05
0.000366269
0.000365614
-0.000363792
-1.17423e-05
-1.00679e-05
8.1651e-06
0.000370385
0.000367482
-1.19505e-05
-0.000297413
0.000297433
-2.60357e-06
2.30771e-06
-1.65098e-06
-0.000299403
-0.000297032
1.93633e-06
-3.45917e-06
-0.000296938
-2.48063e-06
-0.000295075
8.97533e-08
-0.000293743
1.1255e-06
-0.000292214
-7.61009e-07
1.15976e-07
-0.000288719
-0.000352527
0.000354523
-8.37247e-06
-0.000350947
-6.58024e-06
-0.000349207
-6.5675e-06
-1.92145e-06
-0.000286983
-0.000299918
-1.671e-05
-9.3297e-06
0.000347675
-0.000346444
-7.48818e-06
-6.78137e-06
0.000344539
-0.000343391
-9.12478e-06
-8.44087e-06
0.000341782
-0.00034033
-9.54774e-06
-9.38579e-06
0.000338804
-0.000337298
-9.69632e-06
-9.56664e-06
0.0003358
-0.000334309
-9.2658e-06
-9.63437e-06
0.000332907
-0.000331639
-7.46056e-06
-8.75025e-06
0.000330205
-0.000329071
-5.43454e-06
-6.58701e-06
0.000327763
-0.000326727
-7.1321e-06
-5.6034e-06
0.000325526
-0.000323921
-1.05718e-05
-7.96582e-06
0.000322068
-0.00032064
-1.16873e-05
-1.19539e-05
0.000319412
-0.000318348
-9.5679e-06
-1.10838e-05
0.000317048
-0.000315818
-8.0439e-06
-8.85202e-06
0.000314773
-0.000313659
-7.42397e-06
-7.67383e-06
0.000312542
-0.000311462
-7.08608e-06
-7.24831e-06
0.000310399
-0.00030936
-6.77478e-06
-6.94091e-06
0.000308336
-0.000307344
-6.43296e-06
-6.62321e-06
0.000306384
-0.00030544
-5.79067e-06
-6.2299e-06
0.000304585
-0.000303538
-4.32659e-06
-5.32088e-06
0.000302995
-0.000302007
-2.56817e-06
-3.18457e-06
0.000301334
-0.000301793
-3.92556e-06
-2.16462e-06
0.000298969
-0.000299296
-7.93677e-06
-6.12187e-06
0.000298373
-0.000298477
-9.84828e-06
-9.38061e-06
0.00029839
-0.000298443
-8.83462e-06
-8.84162e-06
0.000297964
-0.000297526
-6.67642e-06
-8.09999e-06
-5.23306e-06
-6.28036e-06
4.24507e-06
0.000374527
0.000372692
-2.36398e-06
4.0271e-07
0.000376142
0.000375644
1.78874e-06
-4.08282e-06
0.000375782
0.00037631
5.99675e-06
-8.64851e-06
0.000373548
0.000374677
0.000371428
0.000286216
-0.000285261
-2.86566e-06
-0.000287522
0.000288184
-2.42082e-06
-2.81855e-06
-0.000289019
0.000289576
-2.81122e-06
-2.47359e-06
-0.000290569
0.000291651
-2.9416e-06
-2.44072e-06
-0.000292655
0.000293446
-2.81029e-06
-2.74227e-06
-0.000294812
0.000295974
-3.54817e-06
-3.06094e-06
-0.000297133
0.000298144
-4.17493e-06
-3.97752e-06
-0.000299036
0.000299839
-5.24341e-06
-4.69814e-06
-0.000300695
0.00030155
-5.84767e-06
-5.63153e-06
-0.000302225
0.000303175
-6.20555e-06
-5.95234e-06
-0.00030391
0.000304853
-6.3648e-06
-6.16523e-06
-0.000305671
0.000306466
-6.5993e-06
-6.4917e-06
-0.00030753
0.000308496
-6.83668e-06
-6.78259e-06
-0.000309468
0.000310534
-7.12906e-06
-6.96783e-06
-0.000311614
0.000312686
-7.35232e-06
-7.23432e-06
-0.000313791
0.000314913
-7.64477e-06
-7.50613e-06
-0.000316107
0.000317307
-7.90208e-06
-7.81662e-06
-0.000318581
0.00031979
-8.12686e-06
-8.04928e-06
-0.00032108
0.000322471
-8.41177e-06
-8.20717e-06
-0.000323789
0.000325157
-8.74019e-06
-8.6059e-06
-0.000326519
0.000327918
-9.005e-06
-8.8715e-06
-0.0003291
0.000330561
-9.44375e-06
-9.14512e-06
-0.000331825
0.000333227
-9.71738e-06
-9.54931e-06
-0.000334491
0.000335975
-9.98774e-06
-9.79699e-06
-0.000337419
0.000338907
-1.0138e-05
-1.00206e-05
-0.000340435
0.000341953
-1.03574e-05
-1.02465e-05
-0.000343508
0.00034505
-1.05874e-05
-1.04862e-05
-0.00034665
0.000348104
-1.08636e-05
-1.07606e-05
-0.000349621
0.000351107
-1.11003e-05
-1.11039e-05
-0.000352809
0.000354536
-1.1154e-05
-1.1349e-05
-0.000356279
0.000358147
-1.12008e-05
-1.13246e-05
-0.000360037
0.0003619
-1.1375e-05
-1.13108e-05
-1.15819e-05
-1.8561e-06
1.66556e-06
-0.000286782
-0.000284278
-2.82934e-06
7.15727e-07
-0.000302576
-2.06859e-06
-0.000300162
0.000356181
-0.000354802