/*--------------------------------*- C++ -*----------------------------------*\
| =========                 |                                                 |
| \\      /  F ield         | OpenFOAM: The Open Source CFD Toolbox           |
|  \\    /   O peration     | Version:  2212                                  |
|   \\  /    A nd           | Website:  www.openfoam.com                      |
|    \\/     M anipulation  |                                                 |
\*---------------------------------------------------------------------------*/
FoamFile
{
    version     2.0;
    format      ascii;
    arch        "LSB;label=32;scalar=64";
    class       volScalarField;
    location    "0.00205";
    object      p;
}
// * * * * * * * * * * * * * * * * * * * * * * * * * * * * * * * * * * * * * //

dimensions      [1 -1 -2 0 0 0 0];

internalField   nonuniform List<scalar> 
2681
(
190.664
195.535
195.856
190.374
197.405
196.081
190.361
190.373
190.377
190.378
190.372
190.4
190.396
190.459
190.412
190.42
190.432
190.375
190.378
190.381
190.385
190.397
190.394
190.39
190.405
190.4
190.373
190.371
190.372
190.377
190.375
190.383
190.38
190.392
190.388
190.394
190.39
190.394
190.4
190.396
190.4
190.39
190.393
190.384
190.387
196.111
190.381
190.375
190.367
190.369
190.372
190.406
190.427
190.373
190.371
190.393
190.396
190.369
190.367
190.368
190.366
190.379
190.376
190.387
190.383
190.397
190.392
190.407
190.4
190.371
190.416
190.404
190.412
190.392
190.397
190.405
190.373
190.443
196.772
190.372
190.37
190.371
190.375
190.373
190.38
190.377
190.389
190.384
190.392
190.393
190.396
190.388
190.39
190.382
190.386
190.377
190.379
190.373
190.376
190.37
190.369
190.368
190.401
190.426
190.421
190.413
190.368
190.366
190.365
190.435
190.443
190.435
190.427
190.396
190.402
190.4
190.369
190.367
190.368
190.412
190.475
190.421
198.725
190.405
190.412
190.406
190.365
195.763
190.367
190.557
190.482
190.375
190.373
190.381
190.377
190.389
190.385
190.401
190.395
190.414
190.406
190.424
190.406
190.414
190.392
190.398
190.431
190.37
193.214
190.374
190.371
190.368
190.364
190.366
190.371
190.37
190.374
190.372
190.378
190.375
190.385
190.381
190.391
190.388
190.397
190.394
190.491
190.4
190.39
190.393
190.386
190.388
190.38
190.384
190.376
190.377
190.372
190.374
190.369
190.366
190.365
190.365
190.367
190.362
190.367
190.367
190.422
190.45
190.459
190.428
190.41
190.422
190.364
190.408
190.403
190.369
190.368
190.441
190.433
190.364
190.363
314.366
311.412
311.418
314.366
190.364
190.364
190.363
190.401
190.463
190.362
190.366
190.835
196.208
196.995
190.42
190.415
195.454
190.365
190.551
190.371
190.368
190.377
190.374
190.382
190.379
190.392
190.387
190.405
190.399
190.422
190.411
190.445
190.434
190.453
190.408
190.415
190.391
190.4
190.382
190.386
190.38
190.381
190.374
190.377
190.371
293.995
257.264
241.842
232.127
225.144
219.717
215.343
211.765
208.782
206.282
206.308
204.178
202.344
202.369
204.221
211.783
208.806
219.729
215.364
232.137
225.151
257.289
241.858
294.041
190.366
190.365
190.37
190.368
190.373
190.371
190.376
190.374
190.381
190.379
190.387
190.383
190.393
190.39
190.761
190.395
190.4
190.398
190.406
190.403
190.4
190.394
190.396
190.388
190.391
190.384
190.386
190.378
190.381
190.374
190.376
190.369
190.372
190.366
190.367
190.365
190.365
190.364
190.366
190.365
190.367
190.366
190.653
190.886
190.434
190.415
190.415
190.429
190.363
190.482
314.594
314.593
190.364
191.118
206.266
204.161
190.446
198.383
190.41
190.438
190.365
190.366
314.574
313.188
313.165
190.363
190.362
190.364
190.363
200.827
200.843
190.403
190.409
190.47
190.441
190.401
190.405
196.362
190.502
190.544
190.364
190.367
190.365
190.366
190.425
190.423
190.362
190.363
190.363
190.365
190.364
190.365
190.371
190.369
190.379
190.375
190.385
190.382
190.396
190.39
190.409
190.403
190.429
190.417
190.457
190.444
190.468
190.45
190.494
190.436
190.447
190.414
190.424
190.395
190.404
190.385
190.389
190.381
190.383
190.374
190.377
190.37
190.372
190.369
311.399
314.348
257.247
293.981
232.117
241.83
219.713
225.135
211.757
215.343
208.769
314.572
313.159
313.185
199.333
199.517
190.916
202.405
200.97
206.295
204.234
211.789
208.813
219.741
215.373
232.144
225.162
257.304
241.862
311.411
294.082
314.347
190.365
190.364
190.368
190.367
190.371
190.369
190.375
190.373
190.378
190.377
190.383
190.38
190.388
190.386
190.392
190.39
190.396
190.394
190.404
190.399
190.398
190.404
190.398
190.41
190.401
190.399
190.396
190.396
190.394
190.396
190.389
190.391
190.385
190.387
190.381
190.383
190.375
190.378
190.371
190.373
190.368
190.37
190.366
190.367
190.365
190.364
190.363
190.365
190.364
190.365
195.866
190.686
202.369
190.437
190.419
190.42
190.434
190.367
195.019
190.518
190.411
314.535
313.121
190.361
190.833
190.363
190.362
190.361
190.362
190.369
190.367
199.438
190.55
190.563
195.403
190.361
206.29
204.176
190.578
190.621
190.621
190.415
190.454
190.444
190.414
190.519
314.529
313.115
190.744
196.199
196.818
190.562
190.48
190.411
190.4
190.407
190.404
190.414
190.411
190.463
190.526
200.899
190.365
190.522
190.709
190.428
190.428
190.363
190.362
190.364
190.364
190.364
190.364
190.365
190.365
190.367
190.369
190.368
190.372
190.371
190.38
190.376
190.388
190.384
190.4
190.393
190.415
190.407
190.441
190.426
190.47
190.456
190.497
190.484
190.525
190.502
190.529
190.465
190.482
190.435
190.45
190.408
190.421
190.393
190.399
190.383
190.389
190.376
190.379
190.372
190.373
190.37
311.369
314.31
257.254
293.991
232.121
241.833
219.721
225.143
211.775
215.357
208.789
308.67
308.644
308.667
190.419
308.607
308.65
198.169
197.439
199.895
198.907
202.538
201.108
206.359
204.295
211.814
208.844
219.748
215.386
232.15
225.17
257.306
241.865
311.377
294.093
314.305
190.362
190.361
190.362
190.364
190.363
190.365
190.364
190.367
190.366
190.37
190.368
190.373
190.372
190.376
190.375
190.38
190.378
190.385
190.383
190.387
190.385
190.391
190.389
190.394
190.392
190.403
190.397
190.395
190.399
190.399
190.407
190.399
190.4
190.395
190.397
190.394
190.394
190.391
190.393
190.389
190.391
190.385
190.387
190.381
190.383
190.377
190.379
190.373
190.375
190.37
190.371
190.368
190.369
190.365
190.366
190.363
190.364
190.362
190.362
190.361
190.361
190.362
190.362
190.363
190.363
190.363
190.363
190.364
190.364
190.366
190.365
195.499
198.308
190.387
190.642
202.402
190.948
190.644
190.779
190.76
190.713
190.423
190.443
190.407
190.405
190.44
190.426
190.535
190.583
190.607
190.365
190.657
190.596
190.562
308.602
196.02
196.667
190.362
190.363
190.363
195.741
190.584
190.463
190.419
190.411
190.416
190.421
190.453
190.503
190.364
190.366
199.523
190.754
192.444
195.512
190.42
190.693
196.682
196.391
190.537
198.039
190.491
190.415
190.424
190.476
190.365
190.368
190.367
301.958
308.526
301.924
200.904
190.361
190.508
190.522
190.673
190.383
190.387
190.432
190.407
190.435
190.548
190.361
190.361
190.362
190.361
190.364
190.363
190.363
190.363
190.363
190.37
190.372
190.371
190.376
190.374
190.383
190.379
190.392
190.387
190.405
190.398
190.424
190.413
190.454
190.438
190.485
190.47
190.524
190.502
190.549
190.666
190.581
190.518
190.539
190.477
190.498
190.435
190.455
190.408
190.42
190.39
190.398
190.38
190.384
190.375
190.377
190.371
190.373
190.37
314.426
313.016
311.275
314.202
257.233
293.963
232.109
241.817
219.726
225.138
211.8
215.371
206.338
208.829
202.432
204.228
301.982
308.518
301.918
301.955
302.001
301.999
301.987
198.105
197.32
199.926
198.921
202.56
201.149
206.409
204.345
211.839
208.888
219.74
215.39
232.127
225.152
257.278
241.841
311.278
294.05
314.418
314.195
313.007
190.363
190.363
190.364
190.363
190.366
190.365
190.367
190.366
190.369
190.368
190.372
190.37
190.374
190.373
190.377
190.375
190.382
190.379
190.383
190.383
190.387
190.385
190.389
190.388
190.391
190.39
190.393
190.393
190.393
190.393
190.391
190.392
190.389
190.39
190.386
190.387
190.384
190.386
190.381
190.383
190.377
190.38
190.374
190.375
190.371
190.372
190.369
190.37
190.367
190.368
190.365
190.366
190.363
190.364
190.362
190.363
190.361
190.361
190.362
190.362
190.362
190.362
190.363
190.363
190.364
190.362
193.128
194.736
190.364
190.656
190.603
190.612
190.45
190.428
190.416
190.416
190.432
190.446
190.518
190.384
190.369
190.612
190.854
195.739
190.653
198.367
190.364
190.758
190.583
308.443
301.913
195.09
196.486
190.428
195.288
190.623
190.55
197.295
197.255
190.475
190.424
190.421
190.426
190.43
190.464
190.491
190.362
190.363
190.371
190.369
190.364
190.366
308.451
301.92
293.969
294.005
190.706
199.576
190.361
190.361
200.918
190.372
190.518
190.366
190.626
190.383
190.439
190.417
190.439
190.53
190.361
190.361
190.362
190.362
190.362
190.362
190.363
190.362
190.363
190.363
190.368
190.365
190.37
190.372
190.371
190.376
190.374
190.38
190.378
190.386
190.383
190.397
190.391
190.412
190.404
190.434
190.421
190.468
190.45
190.507
190.487
190.56
190.532
190.587
190.696
190.615
190.635
190.568
190.591
190.522
190.546
190.468
190.494
190.428
190.446
190.402
190.413
190.388
190.394
190.38
190.384
190.375
190.377
190.373
314.27
312.89
311.113
314.043
257.18
293.853
232.087
241.782
219.724
225.125
211.825
215.382
206.391
208.868
202.52
204.298
293.97
293.999
293.967
293.976
293.974
293.973
197.995
197.082
199.95
198.861
202.628
201.167
206.446
204.376
211.85
208.906
219.725
215.393
232.086
225.126
257.198
241.784
311.11
293.903
314.261
314.034
312.881
197.566
190.364
190.364
190.365
190.364
190.366
190.365
190.367
190.366
190.369
190.368
190.37
190.37
190.373
190.371
190.375
190.374
190.378
190.376
190.38
190.38
190.383
190.381
190.384
190.383
190.385
190.385
190.387
190.386
190.387
190.387
190.386
190.387
190.384
190.385
190.383
190.383
190.38
190.382
190.378
190.379
190.374
190.376
190.372
190.373
190.371
190.371
190.369
190.37
190.367
190.368
190.365
190.366
190.364
190.364
190.363
190.363
190.363
190.361
190.361
190.362
190.362
190.362
190.361
190.362
190.362
190.363
190.844
190.819
294.067
194.632
194.811
195.234
190.778
190.613
190.432
194.893
190.594
190.561
190.576
197.616
190.956
196.932
190.457
190.433
190.426
190.425
190.438
190.452
190.503
190.381
190.364
190.367
190.369
190.654
195.628
190.734
190.712
190.368
294.071
190.782
190.687
198.408
190.361
190.848
199.598
201
190.437
195.003
190.576
190.526
190.91
190.48
190.43
190.476
286.013
286.158
194.38
190.503
190.974
190.37
190.431
194.149
194.519
190.576
190.38
190.924
193.525
190.444
190.428
190.444
190.514
190.364
190.362
190.363
190.361
190.362
190.362
190.362
190.361
190.362
190.362
190.361
190.363
190.362
190.365
190.373
190.371
190.376
190.374
190.38
190.377
190.385
190.382
190.391
190.388
190.403
190.396
190.42
190.411
190.445
190.431
190.483
190.462
190.539
190.508
190.607
190.574
190.631
190.794
190.648
190.677
190.594
190.618
190.549
190.572
190.497
190.523
190.45
190.472
190.417
190.431
190.398
190.406
190.386
190.391
190.379
190.383
190.374
190.377
190.371
190.372
308.369
294.418
302.061
313.923
312.65
310.718
313.68
257.026
293.499
232.017
241.684
219.687
225.074
211.816
215.359
206.423
208.88
202.596
204.354
190.873
285.885
285.908
285.871
285.872
285.91
285.887
286.162
286.018
197.867
196.915
199.883
198.775
202.607
201.128
206.433
204.365
211.822
208.887
219.682
215.359
232.006
225.065
257.025
241.675
310.703
293.52
313.905
313.662
308.351
312.632
294.404
302.046
190.366
190.366
190.365
190.927
190.362
190.362
190.363
190.387
190.366
190.366
190.366
190.366
190.367
190.366
190.367
190.367
190.369
190.368
190.37
190.369
190.371
190.371
190.373
190.372
190.375
190.374
190.377
190.376
190.379
190.378
190.379
190.379
190.38
190.379
190.381
190.38
190.381
190.381
190.381
190.381
190.38
190.38
190.38
190.38
190.377
190.378
190.375
190.376
190.372
190.374
190.371
190.372
190.37
190.371
190.368
190.369
190.367
190.367
190.365
190.366
190.365
190.365
190.364
190.364
190.363
190.363
190.364
190.363
190.361
190.361
190.361
190.361
190.361
190.361
190.361
190.361
190.361
190.361
190.363
190.362
190.367
190.365
195.609
195.252
194.572
194.887
195.617
196.118
190.781
199.729
201.097
190.44
194.52
190.553
190.533
190.551
190.971
190.366
191.031
190.978
198.547
190.464
190.439
190.435
190.433
190.446
190.462
190.487
190.51
190.364
190.893
190.37
286.645
286.632
192.77
194.208
193.912
196.438
190.51
190.487
190.37
190.364
190.444
190.72
190.582
191.771
191.967
191.931
191.787
193.748
199.815
190.54
190.441
194.098
190.54
190.536
191.011
191.038
195.381
195.058
190.365
194.27
198.732
198.657
194.59
190.45
190.436
190.452
190.498
190.362
190.362
190.361
190.361
190.361
190.361
190.361
190.361
190.361
190.361
190.363
190.362
190.365
190.364
190.367
190.374
190.373
190.377
190.376
190.382
190.379
190.388
190.385
190.396
190.392
190.408
190.402
190.427
190.417
190.455
190.44
190.497
190.474
190.566
190.526
190.649
190.61
190.701
190.677
190.747
190.752
190.798
190.844
190.653
190.702
190.573
190.609
190.526
190.547
190.492
190.509
190.455
190.474
190.424
190.438
190.403
190.412
190.391
190.396
190.383
190.386
190.377
190.379
190.374
190.375
190.372
286.995
294.708
302.253
308.457
312.602
313.742
313.471
310.396
292.935
256.769
241.526
231.907
224.993
219.627
215.319
211.793
208.871
206.429
204.376
202.633
201.148
199.872
198.774
197.847
197.029
196.392
195.604
190.867
194.74
279.92
279.372
279.159
278.995
278.944
278.918
278.918
278.946
278.997
279.163
279.378
279.931
280.343
191.051
197.004
197.864
198.758
199.859
201.101
202.587
204.34
206.409
208.858
211.781
215.305
219.612
224.976
231.891
241.512
256.762
292.95
310.379
313.451
313.721
312.58
308.435
302.232
294.687
286.974
280.324
193.988
193.803
195.356
190.506
190.502
191.233
191.172
190.532
190.517
190.494
191.203
190.378
192.192
190.403
193.005
191.132
191.057
195.232
190.981
192.193
191.616
197.613
196.34
197.809
194.169
193.518
191.676
192.387
192.148
191.948
190.74
190.47
190.445
190.443
190.451
190.492
190.474
195.465
195.125
194.785
194.446
194.082
193.699
190.406
190.584
196.922
190.366
190.975
191.043
190.37
190.369
190.367
190.365
190.363
190.362
190.361
190.361
190.361
190.361
190.36
190.361
190.361
190.361
190.361
190.362
190.362
190.363
190.364
190.365
190.365
190.365
190.365
190.365
190.364
190.364
190.365
190.365
190.365
190.366
190.366
190.367
190.367
190.368
190.368
190.369
190.37
190.37
190.371
190.371
190.372
190.372
190.373
190.374
190.375
190.376
190.376
190.376
190.376
190.376
190.376
190.376
190.377
190.376
190.376
190.376
190.375
190.375
190.375
190.375
190.375
190.374
190.374
190.373
190.372
190.371
190.371
190.37
190.37
190.369
190.368
190.368
190.367
190.367
190.367
190.366
190.366
190.366
190.366
190.366
190.366
190.366
276.363
276.744
287.867
281.067
190.366
193.594
190.908
190.366
190.366
190.808
190.564
190.363
190.363
190.362
190.362
190.361
190.361
190.361
190.36
190.36
190.36
190.36
190.361
190.361
190.362
190.363
190.367
190.366
190.364
190.372
190.374
190.376
190.378
190.379
190.381
190.384
190.388
190.393
190.398
190.404
190.412
190.421
190.431
190.442
190.452
190.459
190.464
190.473
190.492
190.528
190.58
190.645
190.711
190.771
190.868
190.815
190.609
190.943
190.829
190.759
190.723
190.684
190.635
190.585
190.544
190.512
190.486
190.464
190.446
190.432
190.421
190.413
190.406
190.4
190.395
190.39
190.386
190.383
190.38
190.378
190.377
190.374
190.375
194.391
190.368
190.366
190.364
190.363
190.362
190.361
190.361
190.361
190.361
190.361
190.361
190.361
190.361
190.361
190.361
190.362
190.365
190.363
190.369
190.366
190.366
190.366
190.366
190.365
190.365
190.366
190.366
190.366
190.366
190.367
190.367
190.367
190.368
190.368
190.368
190.369
190.369
190.37
190.37
190.37
190.371
190.371
190.372
190.372
190.373
190.373
190.373
190.373
190.373
190.373
190.373
190.373
190.373
190.373
190.373
190.372
190.372
190.372
190.372
190.372
190.372
190.371
190.371
190.37
190.37
190.37
190.369
190.369
190.368
190.368
190.367
190.367
190.366
190.366
190.366
190.366
190.366
190.365
190.365
190.365
190.365
190.365
190.366
190.559
191.088
190.366
190.365
193.332
193.271
193.623
194.025
194.445
194.788
195.111
195.372
195.75
196.301
197.013
197.806
198.702
199.779
201.034
202.524
204.275
206.334
208.772
211.68
215.187
219.47
224.802
231.664
241.172
256.166
291.313
309.593
313.111
313.493
312.767
309.018
287.848
295.7
303.171
190.486
190.462
190.445
190.455
191.048
190.848
191.762
192.391
192.134
191.881
191.601
191.391
193.392
190.886
197.002
197.762
276.373
275.865
275.616
275.417
275.344
275.305
275.304
275.342
275.415
275.612
275.86
190.791
197.523
191.797
192.147
191.066
190.611
190.469
190.37
193.118
193.554
194.027
191.469
194.833
195.091
195.974
196.451
197.067
197.833
198.75
199.842
201.112
202.588
204.319
206.364
208.794
211.7
215.207
219.491
224.824
231.687
241.193
256.182
291.314
309.618
313.137
313.519
312.792
309.04
303.193
295.721
195.078
194.724
191.15
191.111
191.088
192.478
190.516
190.523
190.376
190.398
190.369
276.76
281.051
190.497
192.895
191.264
195.75
277.261
277.274
190.365
193.799
192.657
191.377
190.543
190.475
190.455
191.389
190.366
190.379
190.923
190.376
192.82
190.504
191.164
191.225
195.174
295.926
281.145
287.992
309.243
303.38
313.872
313.057
309.781
313.493
255.641
290.219
231.491
240.861
219.394
224.692
211.642
215.133
206.329
208.749
202.57
204.294
199.846
201.104
197.853
198.764
196.456
197.079
195.57
195.941
195.031
195.293
194.379
194.758
193.503
193.96
192.695
193.054
192.027
192.304
191.551
191.753
191.301
270.253
271.18
270.761
269.73
269.958
269.592
269.64
269.641
269.592
269.963
269.732
270.77
270.255
271.575
277.498
271.582
271.193
196.908
190.654
190.371
191.57
191.294
190.459
190.47
277.489
287.977
281.133
303.361
295.908
313.033
309.222
313.469
313.848
290.214
309.758
240.835
255.62
224.663
231.463
215.103
219.364
208.716
211.612
204.245
206.29
201.026
202.507
198.684
199.771
196.975
197.787
195.882
196.341
195.264
190.709
194.651
195.002
193.847
194.265
193.132
193.485
192.385
192.749
191.835
192.068
191.591
190.366
190.366
190.366
190.366
190.366
190.366
190.366
190.366
190.366
190.366
190.366
190.366
190.367
190.366
190.367
190.367
190.368
190.368
190.369
190.368
190.369
190.369
190.37
190.369
190.37
190.37
190.37
190.37
190.37
190.37
190.371
190.371
190.371
190.371
190.37
190.37
190.37
190.37
190.371
190.371
190.371
190.371
190.37
190.37
190.37
190.37
190.369
190.369
190.369
190.369
190.368
190.368
190.367
190.368
190.367
190.367
190.367
190.367
190.366
190.367
190.366
190.366
190.366
190.366
190.366
190.367
190.368
190.366
190.814
190.364
190.365
190.362
190.363
190.361
190.361
190.361
190.361
190.361
190.361
190.361
190.361
190.362
190.361
190.364
190.363
190.367
190.365
191.239
190.369
191.428
190.376
190.375
190.38
190.378
190.384
190.381
190.392
190.388
190.402
190.396
190.415
190.408
190.435
190.424
190.47
190.45
190.525
190.495
190.603
190.56
190.701
190.651
190.774
190.741
190.908
190.835
191.019
190.814
190.862
190.723
190.777
190.604
190.662
190.506
190.55
190.456
190.474
190.442
190.448
190.428
190.436
190.412
190.42
190.399
190.405
190.389
190.394
190.382
190.385
190.379
190.381
190.375
190.377
190.373
190.377
190.372
190.366
190.368
190.364
190.365
190.362
190.363
190.361
190.361
190.36
190.36
190.36
190.36
190.361
190.361
190.362
190.361
190.362
190.362
194.37
190.363
191.135
190.366
271.899
271.902
190.381
192.67
190.365
190.364
190.363
190.363
190.362
190.362
190.362
190.361
190.361
190.36
190.36
190.36
190.36
190.36
190.361
190.362
190.362
190.363
190.364
190.366
190.368
190.37
190.379
193.963
190.374
190.376
190.379
190.381
190.383
190.385
190.388
190.392
190.396
190.402
190.408
190.416
190.424
190.434
190.445
190.456
190.47
190.493
190.527
190.576
190.63
190.68
190.72
190.757
190.804
190.853
190.923
190.939
191.09
190.903
190.813
190.761
190.751
190.725
190.678
190.624
190.576
190.534
190.5
190.474
190.453
190.437
190.425
190.416
190.409
190.403
190.398
190.394
190.391
190.388
190.385
190.383
190.382
190.38
190.378
190.375
192.831
190.372
190.368
190.366
190.364
190.364
190.363
190.362
190.361
190.361
190.361
190.361
190.361
190.361
190.361
190.361
190.362
190.362
190.363
190.364
190.365
190.89
190.366
190.367
190.367
190.367
190.367
190.367
190.367
190.367
190.367
190.367
190.367
190.367
190.367
190.367
190.368
190.368
190.368
190.368
190.368
190.368
190.368
190.369
190.369
190.369
190.369
190.369
190.369
190.369
190.369
190.369
190.369
190.369
190.369
190.369
190.369
190.369
190.369
190.369
190.369
190.369
190.369
190.369
190.369
190.369
190.369
190.369
190.368
190.368
190.368
190.368
190.368
190.368
190.368
190.368
190.368
190.368
190.368
190.368
190.369
190.369
190.368
190.368
190.368
190.368
190.368
190.367
190.367
190.367
190.366
190.366
191.405
191.527
191.859
192.116
192.341
192.723
193.11
193.427
193.702
194.074
194.45
194.841
195.187
195.538
195.898
196.357
196.942
197.699
198.582
199.657
200.915
202.383
204.104
206.129
208.53
211.397
214.851
219.061
224.266
230.884
240.009
254.291
283.961
310.578
315.519
315.795
314.714
310.792
304.608
296.993
288.599
281.186
277.698
272.116
190.472
190.461
193.212
191.56
190.372
192.992
196.276
272.612
272.41
272.046
271.592
271.034
270.712
270.459
270.36
270.306
270.306
270.358
270.457
270.707
271.032
271.583
272.034
272.407
272.611
272.735
190.908
191.565
191.763
192.178
192.402
192.701
192.976
193.397
193.794
194.286
194.69
194.983
195.255
195.534
195.904
196.384
196.985
197.77
198.692
199.763
200.999
202.441
204.143
206.159
208.558
211.424
214.879
219.09
224.297
230.917
240.042
254.322
283.983
310.601
315.541
315.818
314.734
310.81
304.622
297.005
288.611
281.196
277.705
272.12
272.739
191.407
191.213
190.46
190.476
196.01
191.606
191.346
193.464
190.372
190.487
190.698
191.067
190.366
190.474
190.366
190.373
190.977
195.53
190.367
190.365
191.376
190.372
190.691
190.642
196.4
190.407
190.911
190.723
195.792
190.53
190.365
190.508
190.496
190.488
196.403
190.37
190.388
190.419
198.182
190.362
190.795
195.602
196.455
190.66
190.375
195.835
190.373
190.435
190.37
191.162
190.371
191.5
190.436
194.477
192.629
195.952
191.129
190.365
192.455
196.497
190.736
195.953
190.562
190.405
190.364
190.399
190.363
190.488
190.368
190.382
190.399
)
;

boundaryField
{
    wall
    {
        type            zeroGradient;
    }
    outlet
    {
        type            inletOutlet;
        inletValue      uniform 1e-05;
        value           nonuniform List<scalar> 
20
(
272.612
272.41
272.046
271.592
271.034
270.712
270.459
270.36
270.306
270.306
270.358
270.457
270.707
271.032
271.583
272.034
272.407
272.611
272.735
272.739
)
;
    }
    frontAndBackPlanes
    {
        type            empty;
    }
}


// ************************************************************************* //
