/*--------------------------------*- C++ -*----------------------------------*\
| =========                 |                                                 |
| \\      /  F ield         | OpenFOAM: The Open Source CFD Toolbox           |
|  \\    /   O peration     | Version:  2212                                  |
|   \\  /    A nd           | Website:  www.openfoam.com                      |
|    \\/     M anipulation  |                                                 |
\*---------------------------------------------------------------------------*/
FoamFile
{
    version     2.0;
    format      ascii;
    arch        "LSB;label=32;scalar=64";
    class       volScalarField;
    location    "0.01";
    object      epsilon;
}
// * * * * * * * * * * * * * * * * * * * * * * * * * * * * * * * * * * * * * //

dimensions      [0 2 -3 0 0 0 0];

internalField   nonuniform List<scalar> 
3237
(
106820
270227
73904.7
108476
29500.3
728870
276122
126507
30482
100240
134675
581311
688227
155444
20998.1
457229
350372
34407.2
268142
26099.4
26193.4
33922.5
19394.1
25651.8
18248.5
18190.6
19499.6
34178.2
19296.2
20758
39127.6
17303.7
16523.5
16505.6
17268.2
15886.4
15366.7
15366.1
15876.7
14946.7
14608
14617.8
14952
14335.9
14117.3
14131.1
14348.4
13941.1
13798.4
13812.6
13955.4
13681.7
13584.8
13597.3
13695.2
13502.8
13431.7
13441.7
13514
13368.5
13310.9
13319
13377.5
13381
13257.4
13268.4
13322.7
13516.8
13444.9
13697.8
13599.8
13960.7
13816
14361.5
14139.4
14981.7
14638
15937.2
15408.3
17378.4
16586.4
18338.6
19619.9
13264.7
13297.1
13216.8
13243.3
22309.5
29614.8
22266.2
150711
20613.3
16618.2
17395.2
15457.9
15978.7
14695.6
15035.9
14196.8
14419.6
13867.4
14015.5
13642.3
13745
13478.5
13554.6
13349.3
13410.7
13213.3
13239
13292.5
13206.5
13414.2
13353.5
13555.9
13480.9
13744.5
13642.4
14017.2
13867.5
14430.1
14201.9
15064.9
14713.8
16038.1
15500.2
17496.7
16697
18463.7
114492
13167.2
13191.8
23812.9
23632.7
20070.6
21587.7
13164.3
13188.1
22186
20834.8
84642.2
23776.3
16866.6
17686.2
15649.6
16196.5
14846.9
15205.9
14318.3
14555.6
13966.2
14125.2
13722.5
13833.7
13544.3
13627.2
13404
13470.5
13285.2
13342.6
13157.8
13342.6
13230.5
13285.4
13468.3
13403.2
13621
13540.1
13824.6
13714.5
14117.4
13956.9
14557.2
14314.3
15228.7
14857
16255.3
15687.3
17795.3
16946.9
18818.7
23386.1
25636.3
25611.8
13230.6
22197
13282.2
13177.1
13224.7
23846.1
21331.6
19163.6
20452.8
25622.7
25602.3
17227
18102.7
15927.4
16512.1
15065.7
15452
14494
14750.7
14108.3
14283.1
13838.8
13962.2
13640.1
13732.5
13483.9
13557.9
13352.2
13415.8
13177.9
13234.4
13292.1
13116.3
13138.5
13118.7
13110.1
13141.3
13403.9
13341.4
13541.5
13470
13710
13620.9
13934.4
13813.5
14253.1
14079.1
14725
14465.5
15436.6
15044
16510.8
15919.3
18111.9
17232.6
20471.3
19176.2
23841.1
22013.6
28043.6
28744.3
26099.2
30738.1
33793.2
22479.7
13125.1
13169
24020.1
13126.7
13178.6
37453.6
25767.7
27988.7
27815.2
22010
22717.9
23886.4
27763.8
30726.5
24706.2
23075
19704.3
21071.2
17644.6
18574
16257.9
16882.9
15330.2
15746.7
14708.5
14989.4
14283.8
14477
13983.6
14121.5
13761.3
13865.1
13585.7
13669
13438
13509.3
13306.7
13371
13069.6
13090.4
13071.3
13063.6
13092.1
13347.3
13224.2
13284.8
13481
13412.4
13634.8
13554.8
13823.3
13723.4
14072.9
13938.4
14422.7
14232.1
14934.3
14653.5
15697
15277.4
16837.3
16208.9
18538.8
17602.3
21066.9
19679.5
24742.8
22732.8
30284.5
27226.2
38091.9
41982.3
30393.4
27096.9
26129.8
24405.1
13244.6
26066.2
13300
13164.3
13235.1
34079
43353.8
28012.4
29934.1
31011
27990.1
114435
29135.4
34087
30276.6
81652
25143.6
23421.8
25504.8
20257.8
21694.4
18090.7
19070.2
16620.5
17283.7
15626.7
16075.2
14952.8
15257.7
14487
14699.2
14154.8
14307.7
13906.9
14022.7
13710.5
13803.7
13545.4
13624.8
13399
13470.5
13183.6
13263.1
13330.4
13075.8
13123.3
13022.9
13042.3
13023.7
13016.9
13073.3
13042.8
13113.5
13435
13366.2
13583.4
13506.9
13755.1
13665.6
13966.8
13855
14244.1
14095.4
14626.7
14419.4
15175.3
14875.9
15976
15537.6
17155.1
16509.6
18884.3
17937.6
21395.8
20028
24956.6
23023.7
29853.1
27233.5
38628.2
43405.3
47242.7
30429.5
27084.4
42396.9
42344.2
130834
24015.1
29620
42531.9
28780
26604.1
13105.7
13171.9
33523.5
38141.1
44562
46583.8
27980.7
31065.3
34568.9
33256.6
28387.5
13124.1
13197.9
390561
111835
93283.1
35566.5
30553.2
139631
38244.5
59003.2
50686.1
29742
28554.2
27045.1
27782.8
29108.8
24637.6
27562.4
28913.2
35852.4
32059.7
24130.2
26300.8
20834.6
22328.2
18570.4
19596.5
17021.6
17721.9
15963.4
16441.9
15237.4
15566.5
14731.9
14962.7
14369.7
14536.5
14098.3
14225.4
13884.2
13986.2
13704
13790.6
13544.6
13622.4
13398.6
13470.9
13025.8
13069.1
12976.7
12994.9
12976.7
12970.9
13022
12994.1
13059
13435.3
13298.3
13365.5
13582.5
13507.2
13745.3
13661
13937.1
13836.7
14174.6
14049.3
14484.2
14318.5
14907.9
14679.1
15507.9
15181.3
16376.3
15902.4
17639.7
16950
19488.2
18478.1
22167.9
20704.8
26054.3
23934.6
31655.8
28600.6
39280.8
35352.9
29626.9
38380.6
33356.4
26079.9
38829
24694.7
33204.9
34859.7
28349.5
121352
45235.1
49655.8
53283.9
31444
31895.4
29096.1
13329
43192.3
23228.3
22922.9
30995.3
72351
35271.7
38814.3
40442.7
33796.9
28075.7
43648.7
38505.6
45385.4
40064.9
32336.3
23620.9
28739.5
55519.8
35795.6
37179.8
31038.2
13620.3
13231.6
13552.8
37103.9
26974.9
24624.9
30704.9
41050
33514.4
251166
49823.3
56810.3
41398.8
46727.6
22987.2
30880.5
22491.3
24757.7
42101.4
34232
30773
26507
52195.1
51450.9
61719.9
31731.3
30351.5
29695.3
36837.6
32920
24803.3
27022.1
21430.5
22960.7
19097.6
20157.3
17487.6
18217.8
16380.2
16882.7
15618
15963.6
15088.4
15329.5
14711.8
14885
14434.6
14563.4
14215.9
14319.3
14033.6
14121.9
13873.2
13951.2
13725.8
13799.4
13260.3
13586.5
13655.1
25483.4
23924.3
30651.9
27709.5
39063.5
34401.2
49665.8
51287.3
44698.5
19878.8
13064.2
13133
12974.8
13014.1
12929.3
12946.4
12928.5
12923.5
12969.6
12944.1
13046.5
13003.5
13108.8
13761
13689.3
13915.3
13835.9
14084
13996
14283.5
14177.8
14534.2
14401.8
14862.1
14686.4
15310.9
15067.3
15947.8
15601
16866.9
16364.7
18194.4
17469.9
20112.5
19066.3
22875.3
21369.6
26840.4
24681.6
32507.8
29422.7
40394.1
36150.4
52903
45965
37839
48941
49576.2
43158.4
30012.8
33510.4
25330.4
27319.7
24027.5
51542.1
58483
87541.9
68950.2
51974.4
34726.3
33055.2
34734.1
41592.6
28886.9
28357.9
18335.9
24148.3
29095.6
35594.6
25669.6
30011.9
27560.6
56787.1
61384.4
60502.5
23032.2
88712.9
64557
35816.9
31031.3
35515.7
31910.5
19468.1
22933.4
13167.4
13488.3
36477
25260.2
35708.9
43675.6
193718
23951.7
65952
41931
64480.6
31928.4
34072.6
43960.8
41828.4
13194
13520.6
56758.6
58968.8
54293.4
63367
55850.4
57147.9
33124
29043.7
30609.3
31888.1
457166
24909.9
3.20507e+06
66695.1
57806.8
50337.9
59250.3
49841.4
34785.8
33859.1
46445.8
553019
39755.6
592034
237733
47429.4
46053.8
18679
31957.3
72706.9
30520.5
28890.6
127675
184052
59657.2
75818.1
28163.6
35816
30206.9
33541.6
37444.7
48029.5
42198.1
30331.3
33532.7
25457.6
27667.2
22089.8
23620.8
19750.8
20812.8
18135.8
18866.6
17037.5
17531.6
16306
16635.1
15813.4
16035.1
15482.5
15632
15250.2
15355.8
15069.8
15155.2
14920.6
14996.5
14787.4
14858.9
14662.9
14727
14539.1
14598.6
25538.2
23710
31755.5
28184.2
42165.9
36368.4
57485.7
49233.9
23686.2
13005.6
13069.8
12924.2
12959.9
12882.2
12898.2
12880.5
12876.4
12917.5
12894.4
12988.2
12948.5
13047.1
14545.7
14425
14483
14677.1
14607.9
14819.6
14747
14967
14889.7
15134.6
15046.2
15354.1
15236.1
15640.8
15486.5
16052.5
15827.6
16656.5
16323.9
17556.4
17061.2
18883.5
18156.1
20806.3
19756.6
23574.1
22066
27536.3
25378
33221.9
30122.5
41446
36941.2
47114.7
39953.2
54264.3
46470.8
30578.5
34707.6
25261.1
27455.3
22852
23788.4
64612
58667.5
84025.6
97471.7
76291.3
102283
219304
150142
64750.6
77241.2
58356
36932.9
90942.1
102316
109038
40568.3
283702
311438
22598.9
26179
27706.8
36711.4
177454
86287.9
38471.5
30866.4
25285.8
34822.5
32458.7
71883.5
70431.5
65233.8
79025.1
117692
33898.3
41794.3
23540.6
32277.5
33473.6
31613.4
35140.9
39750.9
56141
57228.4
58899.4
58635.6
54662.3
55249.7
14479.3
66951.1
28654.6
25137.9
22593.8
22985.4
75036.4
63253.7
40236.6
433848
85664.6
134239
36594.1
92057.5
114037
30729.4
27147.6
36255.5
80933.1
49894.7
58602.9
25394.9
73603.3
50837.2
34097.4
33327.8
42052.9
50249
47423.6
37516.5
55141.8
64143
62995
65277.2
73817.3
100129
84126.1
80088.5
77878.5
81505.8
28243.7
33753.2
22542.6
71191.9
24778.4
39563.6
75677.4
439024
242224
62284.8
88818.4
34634.7
14367.2
17184.4
17148.1
141293
53004.5
26602
38044.5
371782
252632
81101.7
34235.5
555331
788437
42220.1
28553.7
26823
30363.1
194620
126928
69024.2
96206.4
41186.2
541372
318324
32263
32416.5
37215.1
162443
63679.2
59944.1
48045.4
64230.4
63609
54990.9
37803.1
42402
30961.2
34037.4
26286.8
28404.5
23085.4
24535
20900.2
21884.6
19452.6
20097.5
18568.5
18950.1
18069.1
18280
17795.6
17914.6
17665.2
17714.5
17607.8
17628.8
17573.4
17589.4
17536.9
17562.3
17491.5
17518.5
17420.4
17458.8
17349
17388.6
14420.5
17269.7
17309.9
26366.6
24132.7
34263
29674.5
48184.3
40357.1
69374.7
57894.4
77798.2
97195.3
82484
26715.2
23875.4
13126.9
13454.3
12945.2
13005.5
12871.2
12903.5
12832.5
12847.4
12829.7
12826.6
12862.9
12841.9
12928
12891.1
13102
12984
13423.5
17267.7
17219.6
17366.1
17314.5
17466.2
17414.3
17517.7
17487.7
17573.3
17541.1
17645.4
17598
17757.2
17698.4
17960.1
17843.7
18336.3
18119.7
19007.2
18625.6
20145.6
19507.8
21924.5
20943.8
24575.1
23122.8
28454.1
26332.9
34119.3
31017
42549
37894
55779.4
48384.6
77595
65241
93923.1
64346.2
73700.6
90232
76476.3
44902.5
53714.8
32578.1
37929.5
25890.4
28640.7
23016.6
24067.8
65403.5
68120.3
73552.1
67209.3
110912
86575.3
228662
156109
337820
451039
380250
517754
502264
382954
244811
326525
113232
167284
72740.5
85584.3
64337
66554.4
66200.2
95977.1
40482.3
22732.8
222383
111553
37240.1
23908.7
35774.6
111679
137283
35196.5
37711.9
39305.4
63657.4
155118
359549
29891.3
28413.6
38510
384582
189814
77118.8
33694
43224.2
290472
376081
26272.2
69457.5
74169.7
84923.4
82454
143252
91415.9
50278.9
43844.1
46748.4
35753.4
33875.2
33440.8
66323.3
60445.8
50277.6
76645.8
78574.1
44783.7
38823.7
927734
61424.6
74639.4
275851
31933.5
74370.2
30307.9
85505.9
105205
65941.1
74500.3
75539.7
94074.5
838588
487090
33174.6
36471.7
586883
524628
331289
23218.6
23372.5
35138.5
833150
59972
179578
285049
44245.9
49487.1
26644.5
65237.4
2.4674e+06
88987
640464
558971
417424
198772
78386.4
62881
52560.8
437347
792492
40930.8
35082.5
34727.8
30938.3
65985.9
44282
44405
35860.6
22477
76488.5
57925.3
54238
41449.7
90413
89679.9
112603
14364.4
17238.7
25447.2
25478.9
14312.7
17116
24449.6
23062.1
632100
76727.4
469169
474123
160586
91457
249618
48540.3
52547.4
589901
61621.9
228808
41031.3
90056.4
268908
75472.6
37844.8
363752
836189
23171.1
1.01466e+06
962885
959938
30837
28294.7
33639.1
3.54537e+06
158044
108177
80306.2
489504
362143
410384
495631
417267
114185
48891.4
254416
34304.7
34571.2
60829.1
56334.7
78562.3
41525.4
728326
605673
936358
845230
973870
79275.5
77532.8
78246.8
227669
191901
186956
79720.4
76026
75803.3
275806
341367
181691
223129
148801
122690
88203.2
85785
102023
62711.4
72856.7
48152.6
54669.5
38622.8
42881.9
32406
35176.3
28319.9
30146.7
25710.4
26863
24156.8
24819.2
23425
23697.1
23376.5
23344.2
23672.5
23502.9
24053.9
23866.1
24489.5
24266.9
24899.6
24693.4
25229.1
25077
25453
25355.7
25611.5
25589.5
25728.9
25695.1
25788.7
25752.4
25822
25799.2
28225.8
25634
38282.2
32337.3
57084.5
46403.7
86942
70597.4
127235
105800
26880
29176.1
25135.3
13062.1
13390.8
12886.1
12942.9
12818.8
12848.1
12783.1
12797
12779.3
12777.2
12808.7
12789.9
12869
12834.7
13039
12922.5
13361.6
25436.4
25430.4
25421.5
25447.4
25379.6
25454.6
25220.9
25344.6
24986.7
25117.2
24688.8
24856.7
24331.7
24519.7
23934.9
24136.6
23591.8
23754.5
23457.2
23481.1
23756.4
23525.7
24848
24194
26906.9
25738.7
30264.7
28394.3
35473.8
32588.9
43528.3
39050.3
56272.4
49163.2
76847.9
65258.3
91993.5
375250
80558.4
119194
98457.8
52792.5
65197
36041.6
43201
27402.3
30908.4
24026.2
25189
75814.1
78795.9
83622.2
77385.8
120939
96844
245659
165029
525093
371820
738138
638817
453646
264558
362875
121683
178776
82586.4
94306.4
74735.5
76789.9
76944
35189.3
32375.9
51370.5
142276
50393.1
291862
74861.6
153697
105261
124401
292264
32917
39910
115605
381067
201914
24156.1
74298.5
37638.4
50589.3
233903
280776
57275.6
80650.1
80164.4
63096.1
75801.4
29083.9
65598.2
24407.7
302232
101264
97435.8
245075
380319
158630
99062.7
61226.4
48384.5
53234.2
79602.2
52564
619939
328428
38087.6
35547.3
35335.4
67236.7
61367.5
34329.7
66154.4
49180.5
60398.1
70027.4
70871.5
70674.7
50999.9
43293
97182.4
509839
391310
37985.7
149843
25859.8
25521.5
44333.6
363413
44539.9
26941.1
24393.9
23754.9
89626.3
76051.7
347963
36520.9
390567
468492
288726
45011.7
35370.1
74508.2
145260
216809
318480
617449
197885
78649.8
1.23924e+06
922341
436073
36021.7
70715.3
65914.7
54703.2
66637.1
67265.6
62519.9
45325.1
156177
189416
389624
208879
235540
2.09234e+06
610804
1.50271e+06
72284.3
126860
184134
595328
43862.1
109554
277581
76316.6
27048.9
72930
43173.4
280365
1.05115e+06
1.16556e+06
839265
1.49581e+06
1.29693e+06
1.47146e+06
1.57171e+06
1.57142e+06
24440.5
68370.9
36070.6
32282.7
53991
100518
234859
1.5505e+06
54709.2
313485
39468.3
303489
114145
84351
118347
78020.8
126467
95451.6
179360
335488
125505
57716.3
59816.9
26420.3
187812
36414.4
36817.7
62017.4
67360.4
54440.2
70475.3
46676
881076
682220
1.32666e+06
1.1048e+06
1.58221e+06
1.5057e+06
1.49607e+06
137246
69161.3
134832
122271
139504
127549
125351
128136
126651
897983
248061
307392
167146
202807
115762
138662
83108.6
97504.6
63154.1
71896.5
50582.2
56178
42858.9
46221.8
38490.7
40321.2
36322.3
37178.9
35753.4
35869.7
36460.8
35958.3
38387
37302.2
40820.5
39589.4
43232.2
42044.7
45278.8
44326.2
47103.7
46218.4
48679
47898.6
49940.6
49335.7
50936.6
50430.9
51655.4
51424.1
52328.4
52153.8
52902.1
52585
53414.5
53122.3
25938.5
25680.6
31555.6
28272.1
44169.2
36661.8
68680.5
54666.3
108715
86633.4
164065
134633
30634.4
34057
26115.5
27988.1
185550
169966
211709
5.00109e+06
195784
53775
14305.5
25893.7
17202
12994.7
13324.5
12823.6
12877.2
12762.2
12788.8
12729.3
12742.3
12724.5
12723.3
12750.5
12733.5
12806.5
12774.4
12973.4
12858
14255.7
13297.1
25566
17083.1
52106.4
52822.2
52451.4
51723.2
51883.5
51340.8
51604.2
50872.1
51180.8
50072
50538.5
49010.7
49550.9
47757.1
48447.8
46260.6
47057.6
44408.6
45376.9
42210.3
43361.4
39804.3
41048.9
37441.9
38581.5
35883.7
36486.9
35687.7
35615.1
37010.1
36143.8
40305.6
38366.2
46533.9
42968.7
57260
51221.2
74760.4
64926.4
103552
87460.8
145518
123245
168836
248622
203150
377030
301494
101267
126623
63350.5
80098.1
41282.5
50609.3
30493.8
34775.9
26878.7
27976.4
102937
169015
127572
88888.5
91790.9
95474.3
89929
127446
107124
242294
165682
574224
380503
962640
750128
512297
263405
377379
125528
175423
94750.6
103599
88069.5
89871.5
99379.2
90452.7
163205
120596
477831
613841
47387.5
63494.5
46170.1
27041.8
24304.3
88788.2
156963
107272
61513.8
92812.2
203177
36647.8
41032.2
190662
243639
144848
356952
50694.4
25190.8
215574
41850.5
60766.3
38194.6
183575
210701
101027
123718
74638.5
188917
331956
122088
115938
250588
263361
156165
98762.5
74703.6
53057
60518.4
222314
143283
79012.2
50785.7
229707
279774
226067
67741.2
87290.1
40935.5
37244.1
37252.3
2.00886e+06
42195.5
66716.8
61401.6
65094.1
58470.2
49079.4
59517.8
67882.7
65461.7
78691.4
72852.5
58450.7
48272.8
2.60478e+06
53230
26870.6
219788
71298.8
48499.2
140066
165194
168371
202617
131341
63818.1
396489
115812
221234
54113.6
64748
41834.1
4.09816e+06
50027
52843.7
49167.1
29186
26017.8
85666.1
129407
49992.2
129878
355851
36590
46461.4
240122
134824
273367
86929.3
112049
96560.5
83751.7
72902.6
50049.4
41843.9
211708
856081
1.19671e+06
1.64479e+06
2.13035e+06
2.53063e+06
2.61777e+06
145225
2.61138e+06
603326
128064
123994
127062
35398.9
40894.8
47623.3
39474.4
31203
31882.1
82785.2
140673
114843
187620
124096
67899.8
183317
58382.2
172123
131127
38741.8
39017.2
61917.1
61804.6
53941.7
64321.1
1.22604e+07
52757.7
452327
905825
640081
1.70685e+06
1.26509e+06
2.60153e+06
2.18271e+06
2.81647e+06
65520.4
154751
50192.6
57628.3
57898
96218.9
66706
43874.9
65529.6
199699
274875
323320
337555
57566.8
40698.2
295392
305167
305728
288563
335389
92823.6
261673
226376
194439
167733
145059
125777
109673
96679.5
86729.1
79413.6
74107.2
70392.2
68072
67072.1
67081.3
67982.2
69672.7
71851.1
74515
77726.9
81429.7
85914.2
90904.2
95961.4
100860
105413
109841
113950
117696
121202
124354
127466
130398
133176
135855
138424
140816
142903
145329
147207
149181
151191
152426
154458
155975
157702
159624
161897
164255
117948
113653
142920
35487.7
33297.5
32907.5
34910.5
38845.7
45074.3
54404.4
67686
85602.8
108638
137033
170656
207309
243408
274656
91634.2
44871.4
38036.1
33491.4
30525.5
334248
106193
92982.6
127707
46385.4
119047
69675.9
42234.1
284293
182446
313715
29110.2
695133
72501
46665.2
158224
141693
298580
134699
774400
26253.6
296751
92640.2
26162.6
243790
133230
68653.5
90784.8
104095
49066.7
81289.8
74671.6
65535.4
147259
43781.8
44948.1
39107.6
64716.5
55525.3
60321.7
49921
62147
58500.6
87210.3
53304.1
67332.5
245049
180283
133407
112572
104839
103276
105203
109216
115004
130663
168842
238901
345425
495752
208275
686400
502883
321680
212691
156876
132158
117488
108430
104683
104136
106332
115672
138435
181821
238309
283706
5.57e+06
45231.7
104947
35614.9
34892
35424.6
37876.2
42766.7
50730.6
62583
79032.7
100822
128630
162300
200306
238621
274096
289647
325037
269276
223546
190150
162740
140910
124852
111083
98594.6
88217.4
80141.7
74237.4
70124.4
67501.7
66259.3
66182.1
67071.1
68708.8
70965.7
73768.3
77145.9
81107.1
85990.1
91242.5
96404.2
101388
106013
110284
114145
117866
121253
124389
127324
130068
132599
135164
137442
139706
141932
144206
145696
147574
148769
150258
151670
153049
154762
156858
159253
161813
164488
53661.2
25618.1
17054
14203.1
13236.5
12911.3
12796.6
12746.8
12716.2
12694.1
12678.9
12671.3
12671
12677
12689.2
12707.4
12731.6
12763.6
12814.5
12930.5
13261.6
14249
17166.1
25923
54487.3
34616.9
27852
166817
68219.9
89323.8
43408.1
133102
737612
30682.5
1.8635e+06
54695.8
524544
219427
193647
172439
156986
146811
140811
138915
139145
140822
144527
150658
159277
170078
182829
197233
212821
229188
246097
263528
281690
302337
323701
344286
363533
380828
397229
412211
426022
438872
451662
463890
475757
487417
498887
510096
521704
532862
544043
556416
568165
575933
586159
597772
607569
618165
628680
640437
654041
668955
684790
701323
60363.6
59499.3
61201.2
66667.4
77022
93602
117314
149541
192497
248757
318207
392581
475956
536653
62662.1
243621
4.98854e+06
3.82392e+06
2.65505e+06
1.71308e+06
1.05616e+06
657035
430780
307594
88689.2
227875
120737
66603.5
64393.9
60802.9
57288.8
55758.8
56932.9
61502.7
69453.4
82031.1
100644
126506
160346
203914
260470
327771
535144
481669
400040
59326.7
77407.8
59670.1
54033.1
58186.6
60290.2
41518.9
41196.3
90189
98563.6
57657
91582.9
79283.5
109808
232299
186061
139544
150098
919763
682265
982589
1.01946e+06
978346
161679
48810.4
193456
50513.4
106445
92916.2
74355.3
59897
293368
319783
315786
327689
1.03195e+06
531330
759870
970958
1.06997e+06
411928
37354.1
5.38189e+06
5.57399e+06
5.0835e+06
3.93977e+06
2.71533e+06
1.71428e+06
1.03698e+06
634882
158036
52230
57892.4
74466.2
106375
91290.1
81951.7
67883.5
53356.3
44397.8
36757.2
250170
166534
230565
49047.6
43866
58027.9
84702.8
54584.7
127891
102668
30269.2
52026.5
499073
264997
239449
189201
149574
131029
124010
122373
122405
124481
130903
141201
155463
186614
245440
339595
441831
178361
367718
246180
186756
157942
138235
129858
126692
123544
121992
123194
129440
147067
190904
248336
269374
169038
54813.3
25945.7
17123.5
14190.3
13197.1
12865.1
12750.5
12701.7
12672.4
12650.4
12633.6
12622.2
12616.1
12615.7
12622.1
12635.9
12656.5
12685.3
12733.9
12847.8
13175
14148.8
17024
25678.6
54112.8
167190
52169.6
175962
162053
152431
145162
140269
138012
139112
143335
150441
160041
171643
184910
199503
215101
231480
248485
265325
282878
302717
323606
343615
362216
379502
395429
410538
424794
438582
451492
463936
475882
488086
500020
511847
523638
535419
547057
558534
569977
580797
592195
604406
613917
625920
636998
648766
662208
676650
692194
707878
108364
274323
108589
63537.5
65824
187420
83502.4
119602
138063
107778
67426.6
56366.1
47316.5
61299.1
120821
1.11783e+07
723669
1.72228e+06
1.17974e+07
120433
93572.4
718910
1.58044e+06
1.78674e+06
502002
256626
178253
123645
59834
58761.3
52032.8
39351.3
23603.8
74989.4
46411.4
143904
76440
65842.6
117157
394045
295883
1.07727e+06
588427
4.59939e+06
2.23313e+06
1.21499e+07
8.35394e+06
1.04363e+07
1.34725e+07
5.48125e+06
6.69139e+06
3.48982e+06
4.38449e+06
1.78317e+06
2.5926e+06
1.54846e+06
1.71216e+06
989926
242738
169942
460632
338919
816007
554610
1.33682e+06
1.10894e+06
4.3323e+06
505272
4.79779e+06
4.69497e+06
6.33551e+06
5.66479e+06
7.75983e+06
168321
178271
92091.9
59686.9
66580.3
44238.7
57384.8
55962.5
66891.9
914959
1.21457e+06
545091
712607
338022
423812
223374
272671
167540
189092
148134
154723
147484
146410
146499
149475
125771
138488
123599
122427
3.61438e+06
3.40227e+06
3.50526e+06
3.22173e+06
3.30889e+06
3.06223e+06
3.13906e+06
2.92092e+06
2.9866e+06
2.78413e+06
2.85035e+06
2.65653e+06
2.72012e+06
2.53454e+06
2.5948e+06
2.41891e+06
2.47581e+06
2.31026e+06
2.36377e+06
2.20817e+06
2.25817e+06
2.10999e+06
2.15889e+06
2.01252e+06
2.06128e+06
1.91157e+06
1.96246e+06
1.79906e+06
1.85762e+06
1.66392e+06
1.73516e+06
1.49495e+06
1.58352e+06
1.31066e+06
1.40494e+06
1.10549e+06
1.21054e+06
885979
996688
666744
775403
471808
565066
320959
389900
228762
267549
194159
203329
202089
195252
246073
216230
397266
300826
1.05501e+06
587457
4.18973e+06
2.09712e+06
7.54555e+06
143964
122163
298339
202988
363509
3.73288e+06
3.29984e+06
302304
88571.5
158411
161434
163204
161560
158615
156129
156526
163920
181036
210980
255551
317617
402388
521311
689355
889937
1.17197e+06
1.55017e+06
1.76161e+06
1.78996e+06
465789
256893
214161
179611
162137
155184
152845
152306
153038
154275
155826
159056
165207
175979
199604
249425
78247.7
268063
220743
191121
172885
163542
158600
154353
151561
150847
150772
151429
154225
161593
177205
211712
251049
474798
1.8092e+06
235463
213479
191258
185326
197673
226155
268980
330492
405196
487869
577651
674727
777843
884506
992959
1.10082e+06
1.20561e+06
1.30545e+06
1.3998e+06
1.49175e+06
1.58117e+06
1.66208e+06
1.73404e+06
1.7991e+06
1.85873e+06
1.91345e+06
1.96572e+06
2.01536e+06
2.06331e+06
2.11049e+06
2.15886e+06
2.20785e+06
2.25777e+06
2.30903e+06
2.36165e+06
2.41556e+06
2.47199e+06
2.52963e+06
2.58937e+06
2.65208e+06
2.71563e+06
2.77309e+06
2.8365e+06
2.90344e+06
2.97257e+06
3.04366e+06
3.11737e+06
3.19623e+06
3.28465e+06
3.37993e+06
3.48387e+06
3.59653e+06
3.72095e+06
3.85507e+06
737003
170016
54620.2
25777.1
17041.3
14146
13165.2
12836.5
12723
12675.4
12647.6
12628.2
12615.6
12610.1
12611.2
12617.4
12628.4
12643.9
12664
12691.3
12738.2
12851.8
13184.3
14181.5
17129
26003
55158.7
171309
739784
3.86023e+06
3.86892e+06
3.09914e+06
1.85643e+06
1.1213e+06
701998
2.24511e+07
9.64048e+06
3.14531e+06
1.40469e+06
1.04813e+06
911942
825091
738583
649359
569669
503039
443385
400959
417730
566682
859664
1.29712e+06
1.88045e+06
2.56975e+06
3.33792e+06
4.15965e+06
4.99608e+06
5.80215e+06
6.55717e+06
7.24877e+06
7.86878e+06
8.41411e+06
8.88556e+06
9.28036e+06
9.60762e+06
9.89112e+06
1.0144e+07
1.03745e+07
1.05907e+07
1.07977e+07
1.09989e+07
1.12e+07
1.14072e+07
1.16205e+07
1.18422e+07
1.20729e+07
1.23145e+07
1.25694e+07
1.28403e+07
1.31266e+07
1.34298e+07
1.37502e+07
1.40886e+07
1.44439e+07
1.48182e+07
1.52083e+07
1.56201e+07
1.60519e+07
1.65051e+07
1.69787e+07
1.7497e+07
1.80501e+07
1.86371e+07
1.92659e+07
1.99845e+07
2.07701e+07
2.16733e+07
2.26864e+07
466741
432325
393470
383247
420623
489541
547031
579939
603261
625150
650478
684937
740615
838019
984713
1.18118e+06
1.42714e+06
1.75635e+06
2.29327e+06
3.0822e+06
3.78874e+06
7.83958e+06
7.89872e+06
1.49052e+07
59463.6
59698.7
53675.9
47166
53319.6
48095.7
78696.1
81742.3
134640
56264.3
745877
350392
245323
217483
193650
184682
181390
180274
179984
180252
180670
181484
182472
184295
186885
192032
208236
74161.1
219653
203422
191602
185598
182144
180956
179013
178117
178012
177938
178356
179557
183124
190377
216426
239419
361808
746150
4.49779e+06
4.34129e+07
4.88665e+07
5.11657e+07
4.51127e+07
3.71785e+07
3.12189e+07
2.73466e+07
2.04839e+07
1.60881e+07
1.49841e+07
1.06676e+07
7.0654e+06
5.11959e+06
3.46904e+06
2.19488e+06
1.30839e+06
726690
413697
338301
351024
1.07243e+07
357459
384034
481841
546126
598240
629001
644592
651159
658387
676920
719523
802180
931098
1.11469e+06
1.35949e+06
1.68314e+06
2.2111e+06
3.02464e+06
3.65453e+06
7.65377e+06
7.65403e+06
1.42366e+07
4.33732e+06
3.99022e+06
750263
171426
54606.7
25592
16849.9
13954.8
12976
12648.5
12536.1
12489.6
12462.6
12443.9
12432.1
12427.2
12428.6
12434.7
12445.2
12460
12478.6
12504.4
12549.6
12661.4
12991.5
13983.6
16919
25764.3
54994.7
172167
750987
3.98779e+06
2.40945e+07
92653.7
1.27212e+07
1.83611e+07
2.12336e+07
2.37278e+07
2.74955e+07
3.4967e+07
4.19021e+07
4.60373e+07
4.97436e+07
4.61871e+07
2.62243e+07
1.02217e+07
3.28186e+06
1.44079e+06
1.07553e+06
937286
838869
752366
707212
652648
536733
412980
367374
417706
606040
915012
1.37759e+06
1.98074e+06
2.67133e+06
3.41943e+06
4.20998e+06
5.0136e+06
5.79637e+06
6.53869e+06
7.22474e+06
7.84224e+06
8.38615e+06
8.85887e+06
9.25634e+06
9.58823e+06
9.87479e+06
1.01309e+07
1.03639e+07
1.05814e+07
1.0789e+07
1.09917e+07
1.11962e+07
1.14033e+07
1.16162e+07
1.18374e+07
1.20703e+07
1.23143e+07
1.25712e+07
1.28413e+07
1.3126e+07
1.34264e+07
1.37442e+07
1.40795e+07
1.44363e+07
1.48096e+07
1.51897e+07
1.55833e+07
1.60044e+07
1.6453e+07
1.69259e+07
1.74304e+07
1.79668e+07
1.85544e+07
1.91933e+07
1.99095e+07
2.07086e+07
2.16392e+07
2.26856e+07
2.41178e+07
92818.4
88480.5
69694.6
149730
66189.4
31861.6
93031.8
105670
58997
102351
86785.2
55374.3
53166.7
199188
50248.1
63592.2
52764.4
56430.4
52514.6
48443.6
67570.8
20853.4
25523.5
27091.6
26747
67961.8
45299.3
51145.8
42035.5
26648.4
75324.2
134059
23088.2
127452
67834.2
65015.2
79676.3
222798
35575.8
926737
349417
1.02254e+06
384710
23448.4
61154.3
22632.5
341887
32808.5
179505
22782.6
81424
282371
579164
83522.4
87318.1
8.28667e+06
3.23098e+07
134348
165005
6.94988e+06
56517.8
209473
31480.2
2.92493e+06
113872
147259
54106.9
732163
33313.3
965660
38404
35369.2
24721.7
24481.4
133285
149391
58326.5
26265.6
238190
47508.7
39891.9
31640.5
27351.3
34662.2
305099
177216
100381
21411.8
232048
67696.7
46352.1
52643.1
52284.4
222365
469988
59937.5
57520.3
73953.5
49907.8
46142.7
59866.4
1.31928e+06
178934
331457
86634
56712.9
170507
76444
137467
40165.3
23224
219461
54865.8
44113.2
46303.9
89609.6
38502.5
892370
3.07622e+07
29379.1
26056.3
1.23355e+06
23524.5
54635.5
36914.1
102857
34791.2
)
;

boundaryField
{
    outlet
    {
        type            inletOutlet;
        inletValue      uniform 266000;
        value           nonuniform List<scalar> 
33
(
3.99022e+06
750263
171426
54606.7
25592
16849.9
13954.8
12976
12648.5
12536.1
12489.6
12462.6
12443.9
12432.1
12427.2
12428.6
12434.7
12445.2
12460
12478.6
12504.4
12549.6
12661.4
12991.5
13983.6
16919
25764.3
54994.7
172167
750987
3.98779e+06
2.40945e+07
2.41178e+07
)
;
    }
    inlet
    {
        type            fixedValue;
        value           uniform 266000;
    }
    wall
    {
        type            epsilonWallFunction;
        blending        stepwise;
        value           nonuniform List<scalar> 
214
(
524544
3.86892e+06
3.09914e+06
1.85643e+06
1.1213e+06
701998
2.24511e+07
9.64048e+06
3.14531e+06
1.40469e+06
1.04813e+06
911942
825091
738583
649359
569669
503039
443385
400959
417730
566682
859664
1.29712e+06
1.88045e+06
2.56975e+06
3.33792e+06
4.15965e+06
4.99608e+06
5.80215e+06
6.55717e+06
7.24877e+06
7.86878e+06
8.41411e+06
8.88556e+06
9.28036e+06
9.60762e+06
9.89112e+06
1.0144e+07
1.03745e+07
1.05907e+07
1.07977e+07
1.09989e+07
1.12e+07
1.14072e+07
1.16205e+07
1.18422e+07
1.20729e+07
1.23145e+07
1.25694e+07
1.28403e+07
1.31266e+07
1.34298e+07
1.37502e+07
1.40886e+07
1.44439e+07
1.48182e+07
1.52083e+07
1.56201e+07
1.60519e+07
1.65051e+07
1.69787e+07
1.7497e+07
1.80501e+07
1.86371e+07
1.92659e+07
1.99845e+07
2.07701e+07
2.16733e+07
2.26864e+07
466741
432325
393470
383247
420623
489541
547031
579939
603261
625150
650478
684937
740615
838019
984713
1.18118e+06
1.42714e+06
1.75635e+06
2.29327e+06
3.0822e+06
3.78874e+06
7.83958e+06
7.89872e+06
1.49052e+07
4.49779e+06
4.34129e+07
4.88665e+07
5.11657e+07
4.51127e+07
3.71785e+07
3.12189e+07
2.73466e+07
2.04839e+07
1.60881e+07
1.49841e+07
1.06676e+07
7.0654e+06
5.11959e+06
3.46904e+06
2.19488e+06
1.30839e+06
726690
413697
338301
351024
1.07243e+07
357459
384034
481841
546126
598240
629001
644592
651159
658387
676920
719523
802180
931098
1.11469e+06
1.35949e+06
1.68314e+06
2.2111e+06
3.02464e+06
3.65453e+06
7.65377e+06
7.65403e+06
1.42366e+07
4.33732e+06
2.40945e+07
1.27212e+07
1.83611e+07
2.12336e+07
2.37278e+07
2.74955e+07
3.4967e+07
4.19021e+07
4.60373e+07
4.97436e+07
4.61871e+07
2.62243e+07
1.02217e+07
3.28186e+06
1.44079e+06
1.07553e+06
937286
838869
752366
707212
652648
536733
412980
367374
417706
606040
915012
1.37759e+06
1.98074e+06
2.67133e+06
3.41943e+06
4.20998e+06
5.0136e+06
5.79637e+06
6.53869e+06
7.22474e+06
7.84224e+06
8.38615e+06
8.85887e+06
9.25634e+06
9.58823e+06
9.87479e+06
1.01309e+07
1.03639e+07
1.05814e+07
1.0789e+07
1.09917e+07
1.11962e+07
1.14033e+07
1.16162e+07
1.18374e+07
1.20703e+07
1.23143e+07
1.25712e+07
1.28413e+07
1.3126e+07
1.34264e+07
1.37442e+07
1.40795e+07
1.44363e+07
1.48096e+07
1.51897e+07
1.55833e+07
1.60044e+07
1.6453e+07
1.69259e+07
1.74304e+07
1.79668e+07
1.85544e+07
1.91933e+07
1.99095e+07
2.07086e+07
2.16392e+07
2.26856e+07
2.41178e+07
3.23098e+07
)
;
    }
    frontAndBackPlanes
    {
        type            empty;
    }
}


// ************************************************************************* //
