/*--------------------------------*- C++ -*----------------------------------*\
| =========                 |                                                 |
| \\      /  F ield         | OpenFOAM: The Open Source CFD Toolbox           |
|  \\    /   O peration     | Version:  2212                                  |
|   \\  /    A nd           | Website:  www.openfoam.com                      |
|    \\/     M anipulation  |                                                 |
\*---------------------------------------------------------------------------*/
FoamFile
{
    version     2.0;
    format      ascii;
    arch        "LSB;label=32;scalar=64";
    class       volVectorField;
    location    "0.455";
    object      UMean;
}
// * * * * * * * * * * * * * * * * * * * * * * * * * * * * * * * * * * * * * //

dimensions      [0 1 -1 0 0 0 0];

internalField   nonuniform List<vector> 
24240
(
(9.22452 0.690005 9.07673e-07)
(9.22467 0.690018 -5.08405e-07)
(9.22467 0.690017 -2.68155e-08)
(9.22467 0.690016 -3.9327e-07)
(9.22467 0.690014 -2.9543e-07)
(9.22467 0.690013 -4.31852e-07)
(9.22467 0.690011 -4.45352e-07)
(9.22467 0.690009 -5.29691e-07)
(9.22467 0.690007 -5.6907e-07)
(9.22467 0.690005 -6.25902e-07)
(9.22467 0.690003 -6.49997e-07)
(9.22467 0.690001 -6.77603e-07)
(9.22467 0.69 -6.60757e-07)
(9.22467 0.689998 -6.59678e-07)
(9.22467 0.689997 -5.70191e-07)
(9.22467 0.689996 -5.7959e-07)
(9.22467 0.689995 -3.42528e-07)
(9.22467 0.689994 -5.43632e-07)
(9.22467 0.689994 1.18075e-07)
(9.22452 0.689981 -1.0864e-06)
(9.07185 0.694313 -7.06087e-07)
(9.072 0.694327 -1.31859e-06)
(9.072 0.694328 -1.8016e-06)
(9.072 0.694329 -2.49276e-06)
(9.072 0.69433 -2.92507e-06)
(9.072 0.694331 -3.38337e-06)
(9.072 0.694333 -3.66186e-06)
(9.072 0.694335 -3.87932e-06)
(9.072 0.694337 -3.95856e-06)
(9.072 0.694338 -3.95381e-06)
(9.072 0.69434 -3.83537e-06)
(9.072 0.694342 -3.64218e-06)
(9.072 0.694343 -3.35312e-06)
(9.072 0.694345 -3.02798e-06)
(9.072 0.694346 -2.61068e-06)
(9.07201 0.694347 -2.23046e-06)
(9.07201 0.694348 -1.70011e-06)
(9.07201 0.694348 -1.31481e-06)
(9.07201 0.694349 -6.18719e-07)
(9.07185 0.694336 2.2293e-08)
(9.10059 0.426777 -1.36528e-07)
(9.10074 0.426787 5.08713e-07)
(9.10074 0.426787 1.15602e-06)
(9.10074 0.426787 1.52174e-06)
(9.10074 0.426786 2.00227e-06)
(9.10074 0.426786 2.23611e-06)
(9.10074 0.426786 2.44587e-06)
(9.10073 0.426786 2.51164e-06)
(9.10073 0.426786 2.51515e-06)
(9.10073 0.426785 2.42375e-06)
(9.10073 0.426785 2.2818e-06)
(9.10073 0.426785 2.07703e-06)
(9.10073 0.426785 1.85495e-06)
(9.10073 0.426785 1.59207e-06)
(9.10073 0.426785 1.37124e-06)
(9.10073 0.426785 1.08534e-06)
(9.10073 0.426785 9.62667e-07)
(9.10073 0.426784 6.60395e-07)
(9.10073 0.426785 5.70638e-07)
(9.10057 0.426775 4.55618e-07)
(8.98002 0.423323 -5.89278e-07)
(8.98017 0.423332 -1.35683e-06)
(8.98017 0.423332 -1.92466e-06)
(8.98017 0.423332 -2.60743e-06)
(8.98017 0.423333 -3.16746e-06)
(8.98017 0.423333 -3.63772e-06)
(8.98018 0.423333 -3.95807e-06)
(8.98018 0.423333 -4.17789e-06)
(8.98018 0.423333 -4.25983e-06)
(8.98018 0.423333 -4.23713e-06)
(8.98018 0.423334 -4.09785e-06)
(8.98018 0.423334 -3.87053e-06)
(8.98018 0.423334 -3.54909e-06)
(8.98018 0.423334 -3.17825e-06)
(8.98018 0.423335 -2.73466e-06)
(8.98018 0.423335 -2.29016e-06)
(8.98018 0.423335 -1.79426e-06)
(8.98018 0.423335 -1.31182e-06)
(8.98018 0.423335 -6.15278e-07)
(8.98003 0.423326 -8.36696e-08)
(8.99742 0.247987 2.9246e-08)
(8.99757 0.247993 6.50222e-07)
(8.99757 0.247993 1.35797e-06)
(8.99757 0.247994 1.83379e-06)
(8.99757 0.247994 2.25146e-06)
(8.99757 0.247995 2.54941e-06)
(8.99757 0.247996 2.77293e-06)
(8.99757 0.247997 2.8745e-06)
(8.99757 0.247997 2.89561e-06)
(8.99757 0.247998 2.81938e-06)
(8.99757 0.247999 2.6806e-06)
(8.99756 0.248 2.47404e-06)
(8.99756 0.248001 2.2371e-06)
(8.99756 0.248001 1.95881e-06)
(8.99756 0.248002 1.69069e-06)
(8.99756 0.248002 1.39211e-06)
(8.99756 0.248003 1.12617e-06)
(8.99756 0.248003 8.29761e-07)
(8.99756 0.248003 6.89789e-07)
(8.99741 0.247997 4.00294e-07)
(8.92069 0.240796 -3.98751e-07)
(8.92085 0.240801 -8.96525e-07)
(8.92085 0.240801 -1.28092e-06)
(8.92085 0.2408 -1.70769e-06)
(8.92085 0.240799 -2.01751e-06)
(8.92085 0.240798 -2.31309e-06)
(8.92085 0.240797 -2.50958e-06)
(8.92085 0.240796 -2.65217e-06)
(8.92085 0.240795 -2.70511e-06)
(8.92085 0.240794 -2.6953e-06)
(8.92085 0.240793 -2.60678e-06)
(8.92085 0.240791 -2.46426e-06)
(8.92085 0.24079 -2.25408e-06)
(8.92085 0.240789 -2.01372e-06)
(8.92085 0.240789 -1.7113e-06)
(8.92085 0.240788 -1.41459e-06)
(8.92085 0.240787 -1.03604e-06)
(8.92085 0.240787 -7.18272e-07)
(8.92085 0.240787 -2.98642e-07)
(8.9207 0.240781 1.11885e-09)
(8.93024 0.111317 -1.24261e-07)
(8.93039 0.11132 9.47848e-08)
(8.93039 0.11132 3.99514e-07)
(8.93039 0.11132 5.5647e-07)
(8.93039 0.111321 7.00545e-07)
(8.93039 0.111321 7.90431e-07)
(8.93039 0.111322 8.58768e-07)
(8.93039 0.111323 8.75775e-07)
(8.93039 0.111324 8.68996e-07)
(8.93039 0.111324 8.22998e-07)
(8.93039 0.111325 7.6209e-07)
(8.93039 0.111326 6.75413e-07)
(8.93039 0.111327 5.91103e-07)
(8.93039 0.111327 4.92324e-07)
(8.93039 0.111328 4.17651e-07)
(8.93039 0.111328 3.30549e-07)
(8.93039 0.111328 2.83096e-07)
(8.93039 0.111329 2.14935e-07)
(8.93039 0.111329 2.81647e-07)
(8.93023 0.111326 2.40605e-07)
(8.89502 0.10036 -2.49228e-07)
(8.89517 0.100362 -4.98011e-07)
(8.89517 0.100362 -6.56454e-07)
(8.89517 0.100361 -8.6472e-07)
(8.89517 0.100361 -9.94928e-07)
(8.89517 0.10036 -1.13838e-06)
(8.89517 0.100359 -1.22656e-06)
(8.89517 0.100358 -1.29963e-06)
(8.89517 0.100357 -1.3266e-06)
(8.89517 0.100356 -1.33017e-06)
(8.89517 0.100354 -1.29183e-06)
(8.89517 0.100353 -1.23189e-06)
(8.89517 0.100352 -1.12952e-06)
(8.89517 0.100352 -1.01649e-06)
(8.89517 0.100351 -8.5606e-07)
(8.89517 0.10035 -7.09747e-07)
(8.89517 0.100349 -4.95749e-07)
(8.89516 0.100349 -3.43678e-07)
(8.89516 0.100349 -9.75124e-08)
(8.89501 0.100346 5.60788e-08)
(8.90107 -0.00683403 -2.60913e-07)
(8.90122 -0.00683426 -4.0321e-07)
(8.90122 -0.00683396 -4.65284e-07)
(8.90122 -0.00683344 -6.03169e-07)
(8.90122 -0.00683286 -6.97559e-07)
(8.90122 -0.00683215 -8.04699e-07)
(8.90122 -0.00683136 -8.78998e-07)
(8.90122 -0.00683052 -9.5068e-07)
(8.90122 -0.00682965 -9.9579e-07)
(8.90122 -0.00682877 -1.03252e-06)
(8.90122 -0.00682792 -1.04342e-06)
(8.90122 -0.00682712 -1.04427e-06)
(8.90122 -0.0068264 -1.01244e-06)
(8.90122 -0.00682576 -9.7082e-07)
(8.90122 -0.00682522 -8.81291e-07)
(8.90122 -0.00682479 -7.9071e-07)
(8.90122 -0.00682446 -6.2525e-07)
(8.90122 -0.00682428 -4.82897e-07)
(8.90122 -0.00682414 -1.8605e-07)
(8.90107 -0.00682368 6.85247e-08)
(8.90337 -0.0230435 -1.4681e-07)
(8.90353 -0.0230449 -1.03046e-07)
(8.90353 -0.0230458 2.19357e-08)
(8.90352 -0.0230472 5.48021e-08)
(8.90352 -0.0230489 1.14658e-07)
(8.90352 -0.0230509 1.37759e-07)
(8.90352 -0.0230531 1.66163e-07)
(8.90352 -0.0230555 1.67767e-07)
(8.90352 -0.023058 1.64701e-07)
(8.90352 -0.0230605 1.38788e-07)
(8.90352 -0.0230629 1.09447e-07)
(8.90352 -0.0230653 6.28312e-08)
(8.90352 -0.0230674 2.61529e-08)
(8.90352 -0.0230693 -2.08831e-08)
(8.90351 -0.023071 -3.68774e-08)
(8.90351 -0.0230724 -6.63377e-08)
(8.90351 -0.0230735 -3.89174e-08)
(8.90351 -0.0230744 -4.75583e-08)
(8.90351 -0.0230749 7.1542e-08)
(8.90336 -0.0230742 1.36351e-07)
(8.90727 -0.12585 -5.97056e-07)
(8.90742 -0.125853 -1.55712e-06)
(8.90742 -0.125853 -2.37621e-06)
(8.90742 -0.125852 -3.17673e-06)
(8.90742 -0.125852 -3.82157e-06)
(8.90742 -0.125851 -4.38075e-06)
(8.90742 -0.12585 -4.78546e-06)
(8.90742 -0.125849 -5.06494e-06)
(8.90742 -0.125849 -5.19508e-06)
(8.90742 -0.125848 -5.19681e-06)
(8.90743 -0.125847 -5.06319e-06)
(8.90743 -0.125846 -4.81943e-06)
(8.90743 -0.125845 -4.46003e-06)
(8.90743 -0.125845 -4.02442e-06)
(8.90743 -0.125844 -3.4936e-06)
(8.90743 -0.125844 -2.94064e-06)
(8.90743 -0.125844 -2.28503e-06)
(8.90743 -0.125843 -1.66882e-06)
(8.90743 -0.125843 -8.8335e-07)
(8.90728 -0.12584 -1.86228e-07)
(8.94729 -0.141515 -5.14607e-08)
(8.94744 -0.141519 2.99014e-07)
(8.94744 -0.14152 7.23579e-07)
(8.94744 -0.141521 1.00222e-06)
(8.94744 -0.141522 1.24902e-06)
(8.94744 -0.141523 1.4306e-06)
(8.94744 -0.141525 1.56456e-06)
(8.94744 -0.141526 1.62566e-06)
(8.94744 -0.141528 1.63105e-06)
(8.94743 -0.141529 1.56641e-06)
(8.94743 -0.141531 1.45533e-06)
(8.94743 -0.141532 1.2907e-06)
(8.94743 -0.141533 1.10806e-06)
(8.94743 -0.141535 8.99419e-07)
(8.94743 -0.141536 7.1288e-07)
(8.94743 -0.141536 5.20612e-07)
(8.94742 -0.141537 3.78409e-07)
(8.94742 -0.141538 2.33259e-07)
(8.94742 -0.141538 2.50347e-07)
(8.94727 -0.141534 2.29725e-07)
(8.94811 -0.260594 -8.23765e-07)
(8.94826 -0.260601 -2.28146e-06)
(8.94826 -0.260601 -3.56445e-06)
(8.94827 -0.2606 -4.77545e-06)
(8.94827 -0.2606 -5.74484e-06)
(8.94827 -0.2606 -6.59271e-06)
(8.94827 -0.260599 -7.21034e-06)
(8.94827 -0.260599 -7.63089e-06)
(8.94827 -0.260598 -7.82395e-06)
(8.94827 -0.260598 -7.81171e-06)
(8.94828 -0.260597 -7.59152e-06)
(8.94828 -0.260597 -7.19352e-06)
(8.94828 -0.260596 -6.62354e-06)
(8.94828 -0.260596 -5.93136e-06)
(8.94828 -0.260596 -5.10785e-06)
(8.94828 -0.260595 -4.24922e-06)
(8.94828 -0.260595 -3.25156e-06)
(8.94828 -0.260595 -2.33006e-06)
(8.94828 -0.260595 -1.24579e-06)
(8.94813 -0.260588 -3.031e-07)
(9.0287 -0.271548 -1.4181e-08)
(9.02885 -0.271556 5.29037e-07)
(9.02885 -0.271556 1.16572e-06)
(9.02885 -0.271557 1.58386e-06)
(9.02885 -0.271558 1.91851e-06)
(9.02885 -0.271558 2.18328e-06)
(9.02885 -0.271559 2.37155e-06)
(9.02885 -0.27156 2.4584e-06)
(9.02884 -0.271561 2.46258e-06)
(9.02884 -0.271562 2.36763e-06)
(9.02884 -0.271563 2.20492e-06)
(9.02884 -0.271564 1.9683e-06)
(9.02884 -0.271565 1.70337e-06)
(9.02884 -0.271566 1.40582e-06)
(9.02883 -0.271566 1.12993e-06)
(9.02883 -0.271567 8.5487e-07)
(9.02883 -0.271567 6.10487e-07)
(9.02883 -0.271567 4.00688e-07)
(9.02883 -0.271568 3.89175e-07)
(9.02868 -0.27156 3.06086e-07)
(9.0228 -0.428937 -9.76834e-07)
(9.02295 -0.428948 -2.73358e-06)
(9.02295 -0.428948 -4.31017e-06)
(9.02295 -0.428948 -5.79239e-06)
(9.02295 -0.428948 -6.9648e-06)
(9.02296 -0.428947 -8.01387e-06)
(9.02296 -0.428947 -8.77915e-06)
(9.02296 -0.428947 -9.29976e-06)
(9.02296 -0.428947 -9.5354e-06)
(9.02296 -0.428947 -9.51198e-06)
(9.02297 -0.428947 -9.22651e-06)
(9.02297 -0.428947 -8.71703e-06)
(9.02297 -0.428946 -7.99596e-06)
(9.02297 -0.428946 -7.12508e-06)
(9.02297 -0.428946 -6.10622e-06)
(9.02298 -0.428947 -5.05279e-06)
(9.02298 -0.428947 -3.83017e-06)
(9.02298 -0.428947 -2.73565e-06)
(9.02298 -0.428947 -1.48404e-06)
(9.02282 -0.428936 -3.79368e-07)
(9.14845 -0.433075 -2.62515e-08)
(9.14861 -0.433085 6.55745e-07)
(9.14861 -0.433085 1.43533e-06)
(9.14861 -0.433086 1.88189e-06)
(9.1486 -0.433086 2.2034e-06)
(9.1486 -0.433086 2.46862e-06)
(9.1486 -0.433086 2.66e-06)
(9.1486 -0.433086 2.72345e-06)
(9.1486 -0.433087 2.70052e-06)
(9.1486 -0.433087 2.55922e-06)
(9.14859 -0.433087 2.34725e-06)
(9.14859 -0.433087 2.05145e-06)
(9.14859 -0.433087 1.73378e-06)
(9.14859 -0.433088 1.37966e-06)
(9.14859 -0.433088 1.06344e-06)
(9.14859 -0.433088 7.45567e-07)
(9.14859 -0.433088 4.32058e-07)
(9.14858 -0.433088 1.86762e-07)
(9.14858 -0.433088 2.3649e-07)
(9.14843 -0.433077 2.75117e-07)
(9.12906 -0.663964 -9.82979e-07)
(9.12921 -0.663979 -2.74113e-06)
(9.12921 -0.663979 -4.18758e-06)
(9.12922 -0.66398 -5.76717e-06)
(9.12922 -0.66398 -7.19671e-06)
(9.12922 -0.663981 -8.32987e-06)
(9.12922 -0.663982 -9.16917e-06)
(9.12922 -0.663983 -9.73406e-06)
(9.12923 -0.663984 -9.98847e-06)
(9.12923 -0.663984 -9.96927e-06)
(9.12923 -0.663985 -9.66486e-06)
(9.12923 -0.663986 -9.12717e-06)
(9.12923 -0.663987 -8.36499e-06)
(9.12923 -0.663988 -7.45747e-06)
(9.12924 -0.663989 -6.42043e-06)
(9.12924 -0.663989 -5.34984e-06)
(9.12924 -0.66399 -4.28775e-06)
(9.12924 -0.663991 -3.19236e-06)
(9.12924 -0.663991 -1.68755e-06)
(9.12909 -0.663976 -4.48246e-07)
(9.30427 -0.658594 -2.35979e-07)
(9.30442 -0.658608 3.53092e-07)
(9.30442 -0.658607 6.95388e-07)
(9.30442 -0.658607 8.01209e-07)
(9.30442 -0.658606 1.13168e-06)
(9.30442 -0.658605 1.17816e-06)
(9.30442 -0.658604 1.26815e-06)
(9.30442 -0.658602 1.2101e-06)
(9.30442 -0.658601 1.13034e-06)
(9.30441 -0.6586 9.5614e-07)
(9.30441 -0.658599 7.61777e-07)
(9.30441 -0.658597 5.10398e-07)
(9.30441 -0.658596 2.86398e-07)
(9.30441 -0.658595 3.30718e-08)
(9.30441 -0.658594 -1.02054e-07)
(9.30441 -0.658594 -2.90034e-07)
(9.30441 -0.658593 -1.93904e-07)
(9.30441 -0.658593 -3.20852e-07)
(9.30441 -0.658592 -2.24192e-07)
(9.30425 -0.658578 2.16636e-07)
(9.2589 -1.02709 -7.70582e-07)
(9.25905 -1.02711 -1.927e-06)
(9.25905 -1.02711 -3.25716e-06)
(9.25905 -1.02711 -4.66212e-06)
(9.25905 -1.02711 -5.67637e-06)
(9.25906 -1.02711 -6.62784e-06)
(9.25906 -1.02711 -7.27022e-06)
(9.25906 -1.02712 -7.7451e-06)
(9.25906 -1.02712 -7.94816e-06)
(9.25906 -1.02712 -7.9542e-06)
(9.25906 -1.02712 -7.71926e-06)
(9.25906 -1.02713 -7.3141e-06)
(9.25906 -1.02713 -6.71132e-06)
(9.25907 -1.02713 -6.02076e-06)
(9.25907 -1.02713 -5.17791e-06)
(9.25907 -1.02713 -4.37813e-06)
(9.25907 -1.02713 -3.39703e-06)
(9.25907 -1.02714 -2.63764e-06)
(9.25907 -1.02714 -1.60063e-06)
(9.25891 -1.02712 -3.79524e-07)
(9.47841 -1.00717 1.69329e-06)
(9.47855 -1.00718 -3.07292e-07)
(9.47855 -1.00718 -6.73279e-07)
(9.47855 -1.00718 -1.75139e-06)
(9.47855 -1.00718 -2.06556e-06)
(9.47855 -1.00718 -2.57701e-06)
(9.47855 -1.00717 -2.83559e-06)
(9.47855 -1.00717 -3.11925e-06)
(9.47855 -1.00717 -3.26612e-06)
(9.47855 -1.00717 -3.38006e-06)
(9.47855 -1.00716 -3.38246e-06)
(9.47855 -1.00716 -3.3422e-06)
(9.47855 -1.00716 -3.18352e-06)
(9.47855 -1.00716 -3.01542e-06)
(9.47855 -1.00715 -2.68375e-06)
(9.47855 -1.00715 -2.47464e-06)
(9.47855 -1.00715 -1.94716e-06)
(9.47855 -1.00715 -2.08498e-06)
(9.47856 -1.00715 -1.43255e-06)
(9.47842 -1.00714 -2.31978e-06)
(8.76806 0.724398 5.61665e-07)
(8.76821 0.724411 -3.43879e-07)
(8.76821 0.724409 7.21912e-08)
(8.76821 0.724408 -1.69914e-07)
(8.76821 0.724406 1.70873e-08)
(8.76821 0.724404 -5.93846e-08)
(8.76821 0.724402 -9.66764e-09)
(8.76821 0.7244 -6.56642e-08)
(8.76821 0.724397 -7.78721e-08)
(8.76821 0.724395 -1.34593e-07)
(8.76821 0.724393 -1.62177e-07)
(8.76821 0.724391 -2.14774e-07)
(8.76821 0.724389 -2.22083e-07)
(8.76821 0.724387 -2.66475e-07)
(8.76821 0.724385 -2.08092e-07)
(8.76821 0.724384 -2.73365e-07)
(8.76821 0.724383 -7.69805e-08)
(8.76821 0.724382 -2.99893e-07)
(8.76821 0.724382 1.47608e-07)
(8.76806 0.724369 -6.87398e-07)
(8.79412 0.731887 -7.18279e-07)
(8.79427 0.731901 -1.43889e-06)
(8.79427 0.731902 -2.0067e-06)
(8.79426 0.731903 -2.73582e-06)
(8.79426 0.731904 -3.18424e-06)
(8.79426 0.731906 -3.67193e-06)
(8.79426 0.731908 -3.95547e-06)
(8.79426 0.73191 -4.18384e-06)
(8.79426 0.731912 -4.25228e-06)
(8.79426 0.731915 -4.23761e-06)
(8.79426 0.731917 -4.09269e-06)
(8.79426 0.731919 -3.87658e-06)
(8.79426 0.731921 -3.54892e-06)
(8.79426 0.731922 -3.19477e-06)
(8.79426 0.731924 -2.72776e-06)
(8.79426 0.731925 -2.31374e-06)
(8.79426 0.731927 -1.71962e-06)
(8.79426 0.731927 -1.28794e-06)
(8.79426 0.731928 -5.93707e-07)
(8.79411 0.731915 2.92781e-09)
(8.82266 0.499184 2.46682e-08)
(8.82281 0.499193 8.12672e-07)
(8.82281 0.499193 1.55786e-06)
(8.82281 0.499193 2.11166e-06)
(8.82281 0.499192 2.8135e-06)
(8.82281 0.499192 3.18811e-06)
(8.82281 0.499192 3.53017e-06)
(8.82281 0.499192 3.67726e-06)
(8.82281 0.499191 3.7385e-06)
(8.82281 0.499191 3.66396e-06)
(8.82281 0.49919 3.51709e-06)
(8.82281 0.49919 3.27215e-06)
(8.82281 0.49919 2.99362e-06)
(8.82281 0.49919 2.64538e-06)
(8.82281 0.499189 2.33993e-06)
(8.82281 0.499189 1.93022e-06)
(8.82281 0.499189 1.72585e-06)
(8.82281 0.499189 1.26117e-06)
(8.82281 0.499189 8.9341e-07)
(8.82266 0.499179 5.06321e-07)
(8.78381 0.495809 -6.12991e-07)
(8.78396 0.495819 -1.49874e-06)
(8.78396 0.495819 -2.17893e-06)
(8.78396 0.495819 -2.95404e-06)
(8.78396 0.495818 -3.60987e-06)
(8.78396 0.495818 -4.1462e-06)
(8.78396 0.495818 -4.50802e-06)
(8.78396 0.495818 -4.75923e-06)
(8.78396 0.495818 -4.84875e-06)
(8.78396 0.495818 -4.82289e-06)
(8.78396 0.495818 -4.66197e-06)
(8.78396 0.495818 -4.40445e-06)
(8.78396 0.495818 -4.03649e-06)
(8.78396 0.495818 -3.6209e-06)
(8.78396 0.495818 -3.11574e-06)
(8.78396 0.495818 -2.61488e-06)
(8.78396 0.495818 -2.06451e-06)
(8.78396 0.495819 -1.50815e-06)
(8.78396 0.495819 -7.46318e-07)
(8.78381 0.495809 -1.54157e-07)
(8.80252 0.30488 1.26313e-07)
(8.80267 0.304886 8.39757e-07)
(8.80267 0.304887 1.62072e-06)
(8.80267 0.304888 2.20688e-06)
(8.80267 0.304888 2.72185e-06)
(8.80267 0.304889 3.10745e-06)
(8.80267 0.30489 3.41409e-06)
(8.80267 0.304891 3.57332e-06)
(8.80267 0.304892 3.64173e-06)
(8.80267 0.304893 3.58849e-06)
(8.80267 0.304895 3.46233e-06)
(8.80267 0.304896 3.24532e-06)
(8.80267 0.304897 2.9906e-06)
(8.80267 0.304897 2.67074e-06)
(8.80267 0.304898 2.35839e-06)
(8.80267 0.304899 1.98654e-06)
(8.80267 0.3049 1.63407e-06)
(8.80267 0.3049 1.22148e-06)
(8.80267 0.3049 9.20915e-07)
(8.80252 0.304894 4.53633e-07)
(8.76574 0.296153 -3.88845e-07)
(8.76589 0.296159 -9.25482e-07)
(8.76589 0.296158 -1.39454e-06)
(8.76589 0.296157 -1.84881e-06)
(8.76589 0.296156 -2.15547e-06)
(8.76589 0.296155 -2.4661e-06)
(8.76589 0.296154 -2.66078e-06)
(8.76588 0.296153 -2.80717e-06)
(8.76588 0.296151 -2.85159e-06)
(8.76588 0.29615 -2.83569e-06)
(8.76588 0.296149 -2.73131e-06)
(8.76588 0.296147 -2.57675e-06)
(8.76588 0.296146 -2.34533e-06)
(8.76588 0.296145 -2.09184e-06)
(8.76588 0.296144 -1.76194e-06)
(8.76588 0.296144 -1.45332e-06)
(8.76588 0.296143 -1.03273e-06)
(8.76588 0.296142 -7.046e-07)
(8.76588 0.296142 -3.30232e-07)
(8.76573 0.296136 -3.19875e-08)
(8.77449 0.136542 -7.2833e-08)
(8.77464 0.136544 1.95743e-07)
(8.77464 0.136545 5.16929e-07)
(8.77464 0.136545 7.35081e-07)
(8.77464 0.136546 9.37124e-07)
(8.77464 0.136547 1.07804e-06)
(8.77464 0.136548 1.1979e-06)
(8.77464 0.136549 1.2513e-06)
(8.77464 0.13655 1.27861e-06)
(8.77464 0.136551 1.25195e-06)
(8.77464 0.136552 1.20755e-06)
(8.77464 0.136552 1.1221e-06)
(8.77464 0.136553 1.03732e-06)
(8.77464 0.136554 9.20727e-07)
(8.77464 0.136555 8.29258e-07)
(8.77464 0.136555 7.03558e-07)
(8.77464 0.136556 6.14712e-07)
(8.77464 0.136556 4.79938e-07)
(8.77464 0.136556 4.33346e-07)
(8.77449 0.136554 2.8122e-07)
(8.75877 0.122426 -2.18389e-07)
(8.75892 0.122428 -4.56535e-07)
(8.75892 0.122428 -6.47656e-07)
(8.75892 0.122427 -8.31408e-07)
(8.75892 0.122426 -9.13806e-07)
(8.75892 0.122425 -1.03134e-06)
(8.75892 0.122423 -1.08417e-06)
(8.75892 0.122422 -1.13438e-06)
(8.75892 0.122421 -1.13441e-06)
(8.75891 0.122419 -1.12063e-06)
(8.75891 0.122418 -1.06222e-06)
(8.75891 0.122417 -9.92465e-07)
(8.75891 0.122416 -8.77086e-07)
(8.75891 0.122414 -7.64835e-07)
(8.75891 0.122413 -5.97487e-07)
(8.75891 0.122412 -4.65853e-07)
(8.75891 0.122412 -2.47262e-07)
(8.75891 0.122411 -1.29548e-07)
(8.75891 0.122411 1.91802e-08)
(8.75876 0.122408 8.51133e-08)
(8.76249 -0.01614 -2.63559e-07)
(8.76264 -0.0161405 -4.55529e-07)
(8.76264 -0.0161402 -6.00734e-07)
(8.76264 -0.0161396 -7.63392e-07)
(8.76264 -0.016139 -8.60988e-07)
(8.76264 -0.0161382 -9.75905e-07)
(8.76264 -0.0161374 -1.0406e-06)
(8.76264 -0.0161364 -1.10482e-06)
(8.76264 -0.0161355 -1.12986e-06)
(8.76264 -0.0161345 -1.14732e-06)
(8.76264 -0.0161336 -1.12965e-06)
(8.76264 -0.0161327 -1.10572e-06)
(8.76264 -0.0161318 -1.04132e-06)
(8.76264 -0.0161311 -9.76055e-07)
(8.76264 -0.0161304 -8.53598e-07)
(8.76264 -0.0161298 -7.46634e-07)
(8.76264 -0.0161294 -5.51022e-07)
(8.76264 -0.0161291 -4.05435e-07)
(8.76264 -0.0161289 -1.52608e-07)
(8.76249 -0.0161281 7.02029e-08)
(8.76878 -0.0361108 -1.10938e-07)
(8.76893 -0.0361124 -3.67322e-08)
(8.76893 -0.0361133 8.45349e-08)
(8.76893 -0.0361146 1.66373e-07)
(8.76893 -0.0361162 2.86754e-07)
(8.76893 -0.0361181 3.56751e-07)
(8.76893 -0.0361202 4.37245e-07)
(8.76893 -0.0361225 4.78382e-07)
(8.76893 -0.0361249 5.1631e-07)
(8.76893 -0.0361273 5.21436e-07)
(8.76893 -0.0361296 5.24532e-07)
(8.76893 -0.0361319 5.00687e-07)
(8.76893 -0.036134 4.88086e-07)
(8.76893 -0.0361359 4.51766e-07)
(8.76893 -0.0361376 4.46795e-07)
(8.76893 -0.036139 4.02867e-07)
(8.76893 -0.0361402 4.12772e-07)
(8.76893 -0.036141 3.43166e-07)
(8.76893 -0.0361416 3.2986e-07)
(8.76878 -0.0361407 2.26725e-07)
(8.77129 -0.170836 -5.7665e-07)
(8.77144 -0.17084 -1.54738e-06)
(8.77144 -0.17084 -2.42695e-06)
(8.77144 -0.170839 -3.23162e-06)
(8.77143 -0.170839 -3.85145e-06)
(8.77143 -0.170838 -4.41064e-06)
(8.77143 -0.170837 -4.80402e-06)
(8.77143 -0.170836 -5.08413e-06)
(8.77143 -0.170835 -5.21057e-06)
(8.77143 -0.170835 -5.21616e-06)
(8.77143 -0.170834 -5.08395e-06)
(8.77143 -0.170833 -4.84977e-06)
(8.77143 -0.170832 -4.49607e-06)
(8.77143 -0.170831 -4.07462e-06)
(8.77143 -0.170831 -3.54271e-06)
(8.77143 -0.17083 -2.99621e-06)
(8.77143 -0.17083 -2.30773e-06)
(8.77143 -0.17083 -1.67904e-06)
(8.77143 -0.170829 -9.31585e-07)
(8.77128 -0.170825 -2.24309e-07)
(8.80054 -0.189449 -1.72547e-08)
(8.80069 -0.189454 3.47452e-07)
(8.80069 -0.189455 7.66978e-07)
(8.80069 -0.189456 1.09329e-06)
(8.80069 -0.189457 1.39449e-06)
(8.80069 -0.189458 1.63216e-06)
(8.80069 -0.18946 1.83014e-06)
(8.80069 -0.189462 1.95064e-06)
(8.80069 -0.189464 2.0201e-06)
(8.80069 -0.189465 2.01409e-06)
(8.80069 -0.189467 1.96516e-06)
(8.80069 -0.189469 1.85547e-06)
(8.80069 -0.18947 1.72858e-06)
(8.80069 -0.189472 1.56061e-06)
(8.80069 -0.189473 1.40523e-06)
(8.80069 -0.189474 1.21231e-06)
(8.80069 -0.189475 1.04038e-06)
(8.80069 -0.189475 8.10975e-07)
(8.80069 -0.189476 6.55241e-07)
(8.80054 -0.189472 3.75106e-07)
(8.79923 -0.342081 -8.30812e-07)
(8.79938 -0.342088 -2.36184e-06)
(8.79938 -0.342088 -3.79341e-06)
(8.79938 -0.342087 -5.0736e-06)
(8.79938 -0.342087 -6.05691e-06)
(8.79938 -0.342086 -6.95551e-06)
(8.79938 -0.342086 -7.60309e-06)
(8.79938 -0.342085 -8.05789e-06)
(8.79938 -0.342084 -8.2714e-06)
(8.79938 -0.342083 -8.27696e-06)
(8.79938 -0.342083 -8.06347e-06)
(8.79938 -0.342082 -7.67148e-06)
(8.79938 -0.342081 -7.09676e-06)
(8.79938 -0.342081 -6.3993e-06)
(8.79938 -0.34208 -5.54775e-06)
(8.79938 -0.34208 -4.65595e-06)
(8.79938 -0.34208 -3.55877e-06)
(8.79938 -0.342079 -2.55826e-06)
(8.79938 -0.342079 -1.466e-06)
(8.79923 -0.342071 -4.15616e-07)
(8.85147 -0.353859 7.09005e-08)
(8.85162 -0.353868 6.90259e-07)
(8.85162 -0.353868 1.3956e-06)
(8.85162 -0.353869 1.92587e-06)
(8.85162 -0.35387 2.35704e-06)
(8.85162 -0.353871 2.72605e-06)
(8.85162 -0.353872 3.01729e-06)
(8.85162 -0.353873 3.19424e-06)
(8.85162 -0.353874 3.28421e-06)
(8.85162 -0.353875 3.25972e-06)
(8.85162 -0.353876 3.16197e-06)
(8.85162 -0.353877 2.97394e-06)
(8.85162 -0.353878 2.75034e-06)
(8.85162 -0.353879 2.47106e-06)
(8.85162 -0.35388 2.19339e-06)
(8.85162 -0.353881 1.87782e-06)
(8.85162 -0.353881 1.5407e-06)
(8.85162 -0.353881 1.18184e-06)
(8.85162 -0.353882 9.26581e-07)
(8.85147 -0.353874 4.87099e-07)
(8.84171 -0.543096 -1.00362e-06)
(8.84186 -0.543107 -2.87968e-06)
(8.84186 -0.543107 -4.66689e-06)
(8.84186 -0.543106 -6.26041e-06)
(8.84186 -0.543106 -7.47136e-06)
(8.84186 -0.543106 -8.60595e-06)
(8.84186 -0.543105 -9.4305e-06)
(8.84186 -0.543105 -1.0008e-05)
(8.84186 -0.543105 -1.02798e-05)
(8.84186 -0.543105 -1.02843e-05)
(8.84186 -0.543104 -1.0011e-05)
(8.84186 -0.543104 -9.50961e-06)
(8.84186 -0.543104 -8.78426e-06)
(8.84185 -0.543104 -7.90476e-06)
(8.84185 -0.543104 -6.85255e-06)
(8.84185 -0.543104 -5.74728e-06)
(8.84185 -0.543104 -4.38178e-06)
(8.84185 -0.543104 -3.14923e-06)
(8.84186 -0.543104 -1.83575e-06)
(8.8417 -0.543093 -5.46505e-07)
(8.91071 -0.544811 1.0088e-07)
(8.91086 -0.544822 8.79391e-07)
(8.91086 -0.544822 1.7825e-06)
(8.91086 -0.544823 2.38145e-06)
(8.91086 -0.544823 2.81151e-06)
(8.91086 -0.544823 3.20931e-06)
(8.91086 -0.544823 3.53268e-06)
(8.91086 -0.544824 3.70355e-06)
(8.91086 -0.544824 3.78094e-06)
(8.91086 -0.544824 3.7133e-06)
(8.91086 -0.544824 3.5654e-06)
(8.91086 -0.544825 3.30773e-06)
(8.91086 -0.544825 3.01808e-06)
(8.91086 -0.544825 2.6605e-06)
(8.91086 -0.544825 2.32087e-06)
(8.91086 -0.544825 1.93244e-06)
(8.91086 -0.544826 1.47524e-06)
(8.91086 -0.544825 1.06315e-06)
(8.91086 -0.544825 8.65714e-07)
(8.91071 -0.544814 4.73693e-07)
(8.88581 -0.786153 -1.02757e-06)
(8.88596 -0.786168 -2.93934e-06)
(8.88596 -0.786168 -4.47728e-06)
(8.88596 -0.786168 -6.17276e-06)
(8.88596 -0.786169 -7.76933e-06)
(8.88596 -0.786169 -9.00053e-06)
(8.88596 -0.78617 -9.91404e-06)
(8.88596 -0.786171 -1.05359e-05)
(8.88596 -0.786172 -1.08189e-05)
(8.88595 -0.786173 -1.08182e-05)
(8.88595 -0.786174 -1.05117e-05)
(8.88595 -0.786175 -9.97021e-06)
(8.88595 -0.786175 -9.19151e-06)
(8.88595 -0.786176 -8.26851e-06)
(8.88595 -0.786177 -7.20502e-06)
(8.88595 -0.786178 -6.08526e-06)
(8.88595 -0.786179 -4.99207e-06)
(8.88595 -0.78618 -3.71179e-06)
(8.88595 -0.78618 -2.01025e-06)
(8.8858 -0.786165 -6.228e-07)
(8.94436 -0.774056 -6.4962e-08)
(8.94451 -0.774071 6.16557e-07)
(8.94451 -0.774071 9.28185e-07)
(8.94451 -0.77407 1.20398e-06)
(8.94451 -0.774069 1.81219e-06)
(8.94451 -0.774068 2.00297e-06)
(8.94451 -0.774067 2.25636e-06)
(8.94451 -0.774065 2.29745e-06)
(8.94451 -0.774064 2.30905e-06)
(8.94452 -0.774063 2.18113e-06)
(8.94452 -0.774061 2.02118e-06)
(8.94452 -0.77406 1.76562e-06)
(8.94452 -0.774059 1.53333e-06)
(8.94451 -0.774057 1.23227e-06)
(8.94451 -0.774056 1.06784e-06)
(8.94451 -0.774055 7.86796e-07)
(8.94451 -0.774054 8.76767e-07)
(8.94451 -0.774053 5.78899e-07)
(8.94451 -0.774053 2.64546e-07)
(8.94436 -0.774038 3.14507e-07)
(8.89553 -1.07939 -8.39413e-07)
(8.89568 -1.07941 -2.17014e-06)
(8.89568 -1.07941 -3.62066e-06)
(8.89568 -1.07941 -5.10117e-06)
(8.89568 -1.07941 -6.15346e-06)
(8.89568 -1.07942 -7.15735e-06)
(8.89567 -1.07942 -7.81037e-06)
(8.89567 -1.07942 -8.29732e-06)
(8.89567 -1.07942 -8.47706e-06)
(8.89567 -1.07943 -8.45732e-06)
(8.89567 -1.07943 -8.17224e-06)
(8.89567 -1.07943 -7.72305e-06)
(8.89567 -1.07944 -7.05937e-06)
(8.89567 -1.07944 -6.32538e-06)
(8.89567 -1.07944 -5.41971e-06)
(8.89567 -1.07944 -4.57463e-06)
(8.89567 -1.07944 -3.51056e-06)
(8.89567 -1.07945 -2.66102e-06)
(8.89567 -1.07945 -1.57693e-06)
(8.89552 -1.07943 -3.98662e-07)
(8.85657 -1.04361 1.3433e-06)
(8.8567 -1.04362 -1.27449e-07)
(8.8567 -1.04362 -7.44898e-07)
(8.8567 -1.04362 -1.72949e-06)
(8.8567 -1.04361 -1.96969e-06)
(8.8567 -1.04361 -2.44632e-06)
(8.8567 -1.04361 -2.65468e-06)
(8.8567 -1.04361 -2.93101e-06)
(8.8567 -1.0436 -3.06098e-06)
(8.8567 -1.0436 -3.18432e-06)
(8.8567 -1.0436 -3.18766e-06)
(8.8567 -1.04359 -3.17063e-06)
(8.8567 -1.04359 -3.01982e-06)
(8.8567 -1.04359 -2.88012e-06)
(8.8567 -1.04359 -2.54206e-06)
(8.8567 -1.04358 -2.3504e-06)
(8.8567 -1.04358 -1.80545e-06)
(8.8567 -1.04358 -1.89615e-06)
(8.85671 -1.04358 -1.55609e-06)
(8.85657 -1.04357 -1.97735e-06)
(8.80623 0.735769 2.67857e-07)
(8.80637 0.735782 -7.97774e-07)
(8.80637 0.735781 -9.80327e-08)
(8.80637 0.73578 -2.57845e-07)
(8.80637 0.735779 -2.02227e-08)
(8.80637 0.735777 -7.92676e-08)
(8.80637 0.735775 -1.05684e-08)
(8.80637 0.735773 -5.2581e-08)
(8.80637 0.735771 -4.75979e-08)
(8.80637 0.735769 -8.8754e-08)
(8.80637 0.735767 -9.82113e-08)
(8.80637 0.735765 -1.36474e-07)
(8.80637 0.735763 -1.26749e-07)
(8.80637 0.735761 -1.60533e-07)
(8.80637 0.73576 -8.63817e-08)
(8.80637 0.735758 -1.42098e-07)
(8.80637 0.735757 9.45158e-08)
(8.80637 0.735757 -6.60657e-08)
(8.80637 0.735756 6.48775e-07)
(8.80622 0.735742 -3.74914e-07)
(8.74306 0.741374 -9.18504e-07)
(8.74321 0.741388 -1.48388e-06)
(8.74321 0.741389 -1.8462e-06)
(8.74321 0.74139 -2.43888e-06)
(8.74321 0.741391 -2.79676e-06)
(8.74321 0.741393 -3.22617e-06)
(8.74321 0.741394 -3.47414e-06)
(8.74321 0.741396 -3.6898e-06)
(8.74321 0.741398 -3.76151e-06)
(8.74321 0.7414 -3.76867e-06)
(8.74321 0.741402 -3.65853e-06)
(8.74321 0.741404 -3.49256e-06)
(8.74321 0.741405 -3.22166e-06)
(8.74321 0.741407 -2.93256e-06)
(8.74321 0.741408 -2.52643e-06)
(8.74321 0.741409 -2.17154e-06)
(8.74321 0.741411 -1.61425e-06)
(8.74321 0.741411 -1.18531e-06)
(8.74321 0.741412 -4.18914e-07)
(8.74306 0.741399 2.3736e-07)
(8.77255 0.500607 -2.39938e-07)
(8.7727 0.500616 5.43954e-07)
(8.7727 0.500616 1.25244e-06)
(8.7727 0.500616 1.75809e-06)
(8.7727 0.500616 2.44301e-06)
(8.7727 0.500616 2.7863e-06)
(8.7727 0.500616 3.11484e-06)
(8.7727 0.500616 3.25984e-06)
(8.7727 0.500615 3.33528e-06)
(8.7727 0.500615 3.28655e-06)
(8.7727 0.500615 3.18175e-06)
(8.7727 0.500615 2.98487e-06)
(8.7727 0.500615 2.76509e-06)
(8.7727 0.500615 2.47881e-06)
(8.7727 0.500614 2.24083e-06)
(8.7727 0.500614 1.89145e-06)
(8.7727 0.500614 1.77168e-06)
(8.7727 0.500614 1.35758e-06)
(8.7727 0.500614 1.04766e-06)
(8.77255 0.500605 7.32789e-07)
(8.71819 0.498039 -6.60935e-07)
(8.71834 0.498048 -1.35923e-06)
(8.71834 0.498048 -1.83841e-06)
(8.71834 0.498048 -2.47745e-06)
(8.71834 0.498048 -3.03018e-06)
(8.71834 0.498048 -3.48592e-06)
(8.71834 0.498048 -3.79493e-06)
(8.71834 0.498048 -4.01934e-06)
(8.71834 0.498048 -4.10551e-06)
(8.71834 0.498048 -4.10045e-06)
(8.71834 0.498048 -3.9787e-06)
(8.71833 0.498048 -3.77906e-06)
(8.71833 0.498048 -3.48055e-06)
(8.71833 0.498048 -3.14732e-06)
(8.71833 0.498048 -2.72647e-06)
(8.71833 0.498048 -2.30667e-06)
(8.71833 0.498048 -1.83009e-06)
(8.71833 0.498048 -1.3286e-06)
(8.71833 0.498049 -5.74765e-07)
(8.71819 0.498039 -6.14128e-09)
(8.73755 0.303699 -3.35724e-08)
(8.7377 0.303705 6.61425e-07)
(8.7377 0.303705 1.42175e-06)
(8.7377 0.303706 1.96385e-06)
(8.7377 0.303707 2.45193e-06)
(8.7377 0.303707 2.812e-06)
(8.7377 0.303708 3.10478e-06)
(8.7377 0.303709 3.26075e-06)
(8.7377 0.30371 3.33936e-06)
(8.7377 0.303711 3.30714e-06)
(8.7377 0.303712 3.21422e-06)
(8.7377 0.303713 3.03665e-06)
(8.7377 0.303714 2.82974e-06)
(8.7377 0.303715 2.55774e-06)
(8.7377 0.303716 2.29683e-06)
(8.7377 0.303716 1.97141e-06)
(8.7377 0.303717 1.67408e-06)
(8.7377 0.303717 1.29157e-06)
(8.7377 0.303717 1.04342e-06)
(8.73755 0.303712 6.01785e-07)
(8.70196 0.295414 -4.31644e-07)
(8.70211 0.29542 -8.38672e-07)
(8.70211 0.295419 -1.16557e-06)
(8.70211 0.295419 -1.52702e-06)
(8.70211 0.295418 -1.74932e-06)
(8.70211 0.295417 -1.99942e-06)
(8.70211 0.295416 -2.15014e-06)
(8.70211 0.295415 -2.27086e-06)
(8.70211 0.295413 -2.30508e-06)
(8.70211 0.295412 -2.29643e-06)
(8.70211 0.295411 -2.21091e-06)
(8.70211 0.29541 -2.09081e-06)
(8.70211 0.295409 -1.90209e-06)