/*--------------------------------*- C++ -*----------------------------------*\
| =========                 |                                                 |
| \\      /  F ield         | OpenFOAM: The Open Source CFD Toolbox           |
|  \\    /   O peration     | Version:  2212                                  |
|   \\  /    A nd           | Website:  www.openfoam.com                      |
|    \\/     M anipulation  |                                                 |
\*---------------------------------------------------------------------------*/
FoamFile
{
    version     2.0;
    format      ascii;
    arch        "LSB;label=32;scalar=64";
    class       volScalarField;
    location    "0.071";
    object      alphat;
}
// * * * * * * * * * * * * * * * * * * * * * * * * * * * * * * * * * * * * * //

dimensions      [1 -1 -1 0 0 0 0];

internalField   nonuniform List<scalar> 
31661
(
0.00100566
0.000102473
0.000108044
0.000104748
0.000102307
0.000106781
0.000104021
0.000102316
0.000105861
0.000103557
0.000125919
0.000125653
0.000340768
0.00102627
0.00127269
0.00136389
0.00122859
0.00129971
8.5214e-05
0.00137857
2.3318e-05
2.39047e-05
8.19561e-05
0.00115782
0.0001063
2.21722e-05
6.45241e-05
8.05165e-05
0.000129389
0.000156289
0.00120376
3.26318e-05
3.24546e-05
9.01168e-05
0.000104563
0.00127473
3.02813e-05
0.00128305
0.00034458
2.98988e-05
2.9491e-05
0.000101809
0.00121171
0.000294849
0.000305876
0.000139196
0.000299323
0.000115186
3.18567e-05
0.000897198
2.60975e-05
0.000735965
0.000146255
9.76143e-05
0.000347574
9.61442e-05
0.000141321
0.000168093
0.000295417
0.000111382
0.000129482
0.000120886
0.000254192
9.52638e-05
4.83857e-05
0.000557004
0.000193747
0.000258851
0.00022979
0.000202091
0.000116705
0.000172149
0.000151546
0.000137864
0.000125222
0.000115799
0.000107748
0.000101683
9.66902e-05
9.29249e-05
8.99102e-05
8.76752e-05
8.5955e-05
8.47316e-05
8.51884e-05
8.65106e-05
8.83347e-05
9.07132e-05
9.3853e-05
9.77969e-05
0.000102895
0.000109136
0.000117121
0.000126675
0.000138688
0.00015263
0.000168845
0.000186766
0.000206134
0.000229565
0.000255468
0.000282519
0.000309411
0.000339993
0.00033745
0.000373204
0.000367485
0.000404781
0.000397247
0.000433881
0.00042535
0.000459927
0.00045112
0.00048264
0.000474132
0.000502005
0.000494184
0.000518236
0.000511327
0.000531682
0.000525768
0.000542744
0.000537804
0.000551835
0.000547776
0.000559342
0.000556043
0.0005656
0.000562924
0.000570895
0.000568715
0.000575459
0.000573665
0.000579482
0.000577979
0.000583123
0.000581836
0.000586513
0.000585381
0.000589771
0.000588748
0.000592995
0.000592049
0.000596275
0.000595384
0.000599705
0.00059885
0.000603379
0.000602551
0.000607402
0.000606595
0.000611891
0.0006111
0.000616976
0.0006162
0.000622823
0.000622046
0.000629607
0.000628848
0.000637576
0.000636838
0.000647049
0.00064633
0.00065847
0.000657771
0.000672577
0.000671886
0.00069072
0.000690029
0.000715068
0.000715777
0.000716337
0.000691248
0.000673005
0.000658776
0.000647214
0.00063762
0.000629543
0.000622667
0.000616749
0.000611599
0.000607054
0.000602977
0.000599253
0.000595776
0.000592447
0.000589172
0.000585854
0.000582382
0.000578647
0.000574503
0.000569785
0.000564289
0.000557775
0.000549949
0.000540464
0.000528937
0.000514959
0.000498141
0.00047817
0.000454855
0.000428225
0.000398522
0.000366101
0.000331273
0.000296637
0.000261153
0.000228906
0.000199615
0.000175971
0.000156334
0.000140676
0.00012774
0.000117544
0.00010922
0.000102764
9.75927e-05
8.4237e-05
8.3857e-05
9.36289e-05
9.05157e-05
8.81759e-05
8.63823e-05
8.50823e-05
8.33674e-05
8.36675e-05
8.45618e-05
8.5352e-05
8.65333e-05
8.81353e-05
9.02629e-05
9.30191e-05
9.65642e-05
0.000101019
0.000106609
0.00011346
0.000121826
0.000131858
0.000143714
0.000157407
0.000173028
0.000190212
0.000208784
0.000229221
0.000251328
0.000274401
0.000298361
0.000324171
0.000350935
0.000377918
0.000404362
0.000429669
0.000453281
0.000474813
0.000493973
0.000510675
0.000524977
0.000537067
0.000547194
0.000555642
0.000562714
0.000568674
0.00057377
0.000578219
0.000582209
0.000585906
0.000589452
0.000592972
0.000596587
0.000600408
0.000604557
0.000609161
0.000614364
0.000620329
0.00062725
0.000635373
0.000645014
0.000656612
0.00067087
0.000689097
0.000714055
0.000751775
0.000753267
0.000754022
0.000754394
0.000754179
0.000716644
0.000691593
0.000673156
0.00065866
0.000646832
0.000636987
0.000628687
0.000621615
0.000615528
0.000610228
0.000605547
0.000601344
0.000597489
0.000593871
0.000590381
0.000586909
0.00058334
0.000579548
0.000575387
0.000570689
0.000565253
0.000558843
0.000551185
0.00054197
0.000530863
0.000517535
0.00050168
0.000483072
0.000461622
0.00043742
0.000410748
0.000382067
0.000352002
0.000321257
0.000290609
0.000259489
0.000231045
0.00020527
0.000182738
0.00016339
0.000147312
0.000133756
0.000122678
0.000113628
0.000106387
0.000100636
9.61395e-05
9.26327e-05
8.41523e-05
8.99262e-05
8.78459e-05
8.6288e-05
8.40545e-05
8.33205e-05
8.36032e-05
8.30657e-05
8.37978e-05
8.48913e-05
8.53098e-05
8.61221e-05
8.72788e-05
8.88526e-05
9.09214e-05
9.35941e-05
9.69867e-05
0.000101262
0.000106546
0.000113019
0.000120785
0.000129956
0.000140524
0.000152532
0.000165836
0.000180434
0.000195801
0.000211853
0.000228807
0.000246591
0.000265136
0.000284516
0.00030554
0.00032784
0.00035106
0.000374873
0.000398809
0.000422459
0.000445195
0.000466517
0.000485977
0.000503334
0.000518491
0.00053148
0.000542479
0.000551726
0.000559471
0.000565992
0.000571565
0.000576424
0.000580786
0.000584839
0.000588753
0.00059268
0.000596759
0.000601133
0.000605943
0.000611354
0.000617538
0.000624697
0.000633079
0.000643
0.000654886
0.000669407
0.000687791
0.000712604
0.000749523
0.000810702
0.00081508
0.000817726
0.000818807
0.000818521
0.000816732
0.000813249
0.000753227
0.000716589
0.000691635
0.000672942
0.000658068
0.000645842
0.000635622
0.000626984
0.000619609
0.000613252
0.000607706
0.000602795
0.000598364
0.000594266
0.00059038
0.000586567
0.000582692
0.000578609
0.00057415
0.000569126
0.00056332
0.000556481
0.000548333
0.000538581
0.000526933
0.000513125
0.000496978
0.000478404
0.000457504
0.000434535
0.000409931
0.000384206
0.000357953
0.000331729
0.000305953
0.00028062
0.000255663
0.000232327
0.000210531
0.000190804
0.000172882
0.000157087
0.000143201
0.00013131
0.000121207
0.000112912
0.000106193
0.000100832
9.65592e-05
9.31954e-05
8.51551e-05
9.05745e-05
8.85624e-05
8.3156e-05
8.45888e-05
8.36454e-05
8.44109e-05
8.32714e-05
8.2933e-05
8.44386e-05
8.56112e-05
8.59221e-05
8.64678e-05
8.72867e-05
8.85154e-05
9.01694e-05
9.23276e-05
9.50918e-05
9.85812e-05
0.000102932
0.00010828
0.000114731
0.00012236
0.000131195
0.000141156
0.000152127
0.000163958
0.000176376
0.000189271
0.000202177
0.000215157
0.000228332
0.000241812
0.000255701
0.000270295
0.00028621
0.000303517
0.000322209
0.000342259
0.000363503
0.000385629
0.000408167
0.000430546
0.000452121
0.000472354
0.000490849
0.000507333
0.000521713
0.000534045
0.000544487
0.000553283
0.000560711
0.000567064
0.000572603
0.000577579
0.000582216
0.000586718
0.000591268
0.000596041
0.000601218
0.000606972
0.000613503
0.000621024
0.000629791
0.000640118
0.000652414
0.000667297
0.000685874
0.00071044
0.000746159
0.000804202
0.000908358
0.000922076
0.000931604
0.000937149
0.000938851
0.000936817
0.000931058
0.000921546
0.000908126
0.000807772
0.000751199
0.000715849
0.00069111
0.000672144
0.000656821
0.000644098
0.000633392
0.000624301
0.000616511
0.000609772
0.000603864
0.000598594
0.000593788
0.000589286
0.000584921
0.000580527
0.000575925
0.000570917
0.000565284
0.000558777
0.000551126
0.000542044
0.000531249
0.000518489
0.000503588
0.000486471
0.000467219
0.000446096
0.000423563
0.000400157
0.000376534
0.000353217
0.00033068
0.000309226
0.000288887
0.00026943
0.000250643
0.000232877
0.000215735
0.000199401
0.000183767
0.000169129
0.00015552
0.00014313
0.00013209
0.000122625
0.000114637
0.000107998
0.000102563
9.81949e-05
9.47463e-05
8.70409e-05
9.20202e-05
8.31342e-05
8.37563e-05
8.59336e-05
8.54179e-05
8.45762e-05
8.395e-05
8.31131e-05
8.29693e-05
8.55454e-05
8.65555e-05
8.67914e-05
8.72074e-05
8.77702e-05
8.87568e-05
9.01208e-05
9.19344e-05
9.42833e-05
9.72648e-05
0.000100999
0.000105611
0.000111211
0.00011788
0.000125642
0.000134455
0.000144182
0.000154604
0.000165461
0.000176498
0.00018746
0.000198145
0.000208317
0.000218149
0.000227765
0.000237392
0.000247186
0.000257526
0.000268898
0.000281528
0.000295608
0.0003113
0.000328681
0.000347697
0.000368129
0.00038959
0.0004115
0.000433295
0.000454342
0.000474052
0.000492008
0.000508009
0.000521945
0.000533902
0.000544086
0.000552751
0.000560196
0.000566707
0.000572576
0.000578065
0.000583422
0.000588867
0.000594637
0.000600925
0.000607961
0.000615989
0.000625271
0.00063612
0.000648922
0.000664224
0.000682982
0.000707157
0.00074125
0.00079522
0.0008904
0.00106408
0.00109932
0.00112719
0.00114704
0.00115853
0.00116146
0.00115577
0.00114186
0.00112008
0.00109086
0.000890719
0.000799944
0.000747673
0.000713999
0.00068964
0.000670449
0.000654645
0.000641359
0.000630073
0.000620418
0.000612094
0.000604837
0.000598413
0.000592605
0.000587202
0.00058203
0.00057686
0.000571479
0.000565652
0.000559115
0.000551594
0.000542793
0.000532424
0.000520223
0.000506017
0.000489697
0.000471348
0.000451209
0.000429686
0.000407352
0.000384902
0.000362913
0.000341951
0.000322375
0.000304366
0.000287901
0.000272796
0.000258724
0.000245348
0.0002326
0.000219943
0.000207346
0.000194672
0.000182028
0.000169494
0.000157327
0.00014587
0.000135437
0.000126108
0.000117971
0.000111067
0.000105403
0.000100772
8.99185e-05
9.70247e-05
0.00105493
9.40577e-05
8.33544e-05
8.83078e-05
8.39769e-05
8.51619e-05
8.48016e-05
8.37064e-05
8.66104e-05
8.57434e-05
8.31075e-05
8.32136e-05
8.67807e-05
8.7762e-05
8.78018e-05
8.81208e-05
8.85885e-05
8.9354e-05
9.04699e-05
9.20209e-05
9.40592e-05
9.66709e-05
9.99643e-05
0.000104051
0.000109045
0.000115031
0.000122062
0.000130107
0.000139056
0.000148719
0.000158811
0.000169034
0.000179094
0.000188705
0.000197729
0.000206006
0.000213534
0.000220504
0.000227108
0.000233599
0.00024009
0.000247034
0.000254743
0.000263465
0.000273435
0.000284891
0.000298035
0.000313007
0.00032984
0.000348428
0.000368496
0.000389624
0.000411251
0.00043272
0.000453426
0.000472801
0.000490463
0.000506187
0.000519925
0.000531802
0.000542027
0.000550893
0.000558707
0.000565789
0.000572448
0.000578979
0.000585639
0.000592764
0.000600532
0.000609242
0.000619182
0.000630662
0.000644032
0.00065976
0.000678629
0.000702226
0.000734301
0.000783428
0.000868278
0.0010224
0.00128106
0.0013503
0.00140896
0.00145537
0.00148839
0.00150738
0.00151197
0.00150197
0.00147754
0.00143946
0.00138873
0.00132679
0.0010133
0.000869404
0.000789347
0.000742098
0.00071049
0.000686714
0.000667409
0.000651159
0.000637277
0.000625341
0.000615016
0.000606015
0.000598067
0.000590905
0.000584261
0.000577973
0.000571719
0.000565251
0.000558288
0.000550531
0.00054167
0.000531398
0.000519441
0.000505583
0.000489709
0.000471897
0.000452333
0.00043141
0.000409718
0.000387837
0.000366431
0.000346116
0.000327294
0.000310244
0.000295011
0.00028153
0.000269624
0.000259001
0.000249343
0.000240315
0.000231631
0.000222857
0.000213798
0.000204275
0.000194166
0.000183503
0.000172478
0.000161391
0.000150592
0.000140287
0.00013081
0.000122461
0.000115249
0.000109079
0.000104018
9.98844e-05
0.00125554
9.65663e-05
9.1744e-05
8.36429e-05
8.71143e-05
8.43496e-05
8.47748e-05
8.5188e-05
8.3566e-05
8.61245e-05
8.33266e-05
8.78829e-05
8.71239e-05
8.3539e-05
0.00162015
0.00170833
0.00178093
0.00183691
0.00187593
0.00189809
0.00190346
0.00189193
0.00186321
0.0018172
0.00175434
0.00167519
0.00158116
0.00117723
0.000967011
0.000844347
0.00077561
0.000733834
0.000704642
0.000681707
0.000662454
0.000645851
0.00063139
0.000618748
0.000607641
0.000597785
0.000588888
0.000580625
0.000572865
0.000565168
0.000557258
0.000548808
0.00053948
0.000528946
0.000516901
0.00050311
0.000487431
0.000469884
0.000450651
0.000430113
0.00040879
0.000387285
0.000366255
0.000346302
0.000327844
0.000311193
0.00029646
0.00028362
0.00027257
0.000263094
0.000254943
0.000247838
0.000241527
0.000235799
0.00023022
0.000224514
0.00021849
0.000211832
0.000204379
0.000196079
0.000186915
0.000177075
0.000166768
0.000156286
0.000146151
0.000136629
0.000127851
0.000120132
0.000113449
0.000107815
0.000103168
9.39329e-05
9.94157e-05
0.00147463
8.81681e-05
8.90574e-05
8.89821e-05
8.91701e-05
8.95577e-05
9.01816e-05
9.1075e-05
9.24138e-05
9.41998e-05
9.65157e-05
9.94557e-05
0.000103128
0.000107643
0.000113099
0.000119554
0.000127014
0.000135401
0.000144549
0.00015421
0.000164073
0.000173805
0.000183087
0.000191683
0.000199426
0.00020629
0.000212255
0.000217455
0.000222074
0.000226354
0.000230409
0.000234632
0.000238925
0.000243816
0.00024949
0.000256125
0.000263957
0.000273205
0.000284083
0.000296767
0.000311372
0.000327908
0.000346243
0.000366093
0.000387014
0.000408421
0.000429698
0.000450198
0.000469402
0.000486939
0.00050261
0.000516422
0.000528513
0.00053914
0.000548609
0.000557266
0.00056546
0.000573535
0.000581779
0.000590644
0.000600289
0.000611058
0.000623266
0.000637238
0.000653353
0.000672204
0.000695005
0.000724725
0.000768462
0.000842117
0.000975311
0.00120338
0.00151814
8.99492e-05
8.40936e-05
9.64417e-05
9.19035e-05
8.63343e-05
8.48148e-05
8.44851e-05
8.56645e-05
8.37018e-05
8.65875e-05
8.36238e-05
8.75572e-05
8.40028e-05
8.92581e-05
8.85748e-05
0.00135913
0.00109464
0.000917211
0.000815758
0.000758371
0.000722218
0.00069569
0.000673879
0.00065491
0.00063809
0.0006231
0.000609707
0.000597666
0.000586696
0.000576427
0.000566815
0.000557292
0.000547553
0.000537236
0.00052598
0.000513451
0.000499377
0.00048359
0.00046606
0.000446948
0.000426587
0.00040549
0.00038423
0.000363481
0.000343775
0.000325555
0.000309163
0.000294739
0.000282238
0.000271606
0.000262642
0.000255139
0.000248886
0.000243659
0.000239257
0.000235476
0.000231889
0.000228558
0.000225091
0.000221347
0.00021706
0.000212086
0.000206193
0.000199269
0.000191322
0.000182391
0.000172775
0.000162823
0.000152733
0.000143032
0.000133843
0.000125598
0.000118318
0.00011208
0.000106876
0.000102659
9.02869e-05
9.03024e-05
9.06292e-05
9.11609e-05
9.18555e-05
9.30206e-05
9.45909e-05
9.66613e-05
9.93078e-05
0.000102634
0.000106748
0.000111752
0.000117722
0.000124687
0.000132599
0.00014133
0.000150662
0.000160304
0.000169922
0.000179178
0.000187777
0.00019551
0.000202256
0.000207998
0.000212808
0.000216776
0.000220089
0.000222911
0.000225443
0.000227793
0.00023026
0.000232856
0.0002357
0.000238992
0.000243089
0.000248082
0.000254138
0.000261474
0.000270302
0.000280824
0.000293205
0.000307547
0.000323858
0.000341994
0.000361678
0.000382439
0.00040372
0.000424882
0.000445317
0.00046452
0.000482142
0.000498045
0.000512261
0.000524973
0.000536463
0.000547082
0.000557207
0.000567214
0.000577444
0.000588427
0.000600268
0.000613328
0.000627917
0.000644336
0.000663001
0.000684776
0.000711886
0.00074996
0.000812105
0.000923936
0.00111974
0.00140506
0.00170087
0.00182041
0.00192423
0.00201101
0.0020803
0.00213251
0.00216834
0.00218846
0.00219349
0.00218345
0.00215785
0.00211584
0.00205674
0.00198009
0.00188576
0.00177438
9.04016e-05
0.00164811
9.40926e-05
9.92352e-05
8.96242e-05
8.86078e-05
8.46053e-05
0.00186454
0.00198159
0.00208185
0.00216494
0.00223103
0.00228084
0.00231565
0.00233674
0.00234496
0.00234044
0.00232296
0.00229244
0.00224783
0.00218771
0.00211113
0.00201782
0.00190787
9.03446e-05
8.58081e-05
8.53838e-05
9.07039e-05
9.16108e-05
9.15674e-05
9.17521e-05
9.22049e-05
9.27726e-05
9.38063e-05
9.51762e-05
9.70258e-05
9.94213e-05
0.000102448
0.000106217
0.000110827
0.000116367
0.000122884
0.000130364
0.000138714
0.000147748
0.000157205
0.000166761
0.000176074
0.000184824
0.00019275
0.000199687
0.000205566
0.0002104
0.000214288
0.000217352
0.000219733
0.000221607
0.000223107
0.000224365
0.000225532
0.000226653
0.000228029
0.000229566
0.000231339
0.000233535
0.000236297
0.000239904
0.000244464
0.000250134
0.000257124
0.000265643
0.000275884
0.000288014
0.000302138
0.000318255
0.000336238
0.000355782
0.000376459
0.000397699
0.000418886
0.000439436
0.000458872
0.000476898
0.000493407
0.000508482
0.000522337
0.000535292
0.000547731
0.000560024
0.000572527
0.000585914
0.000600027
0.000615306
0.000631961
0.000650268
0.00067081
0.000695163
0.000727598
0.000778546
0.000869567
0.0010329
0.00128456
0.00156781
0.00178232
9.65808e-05
9.22932e-05
8.43651e-05
8.6248e-05
8.39211e-05
8.71679e-05
8.40731e-05
8.812e-05
8.45375e-05
8.91001e-05
9.00982e-05
9.18094e-05
9.11154e-05
9.42559e-05
9.32239e-05
0.00173224
0.00151025
0.00123888
0.00101063
0.000865336
0.00078387
0.00073727
0.000706612
0.000682894
0.000662455
0.000644013
0.000627142
0.000611661
0.000597413
0.000584201
0.000571628
0.000559849
0.000548132
0.000536183
0.000523629
0.000510106
0.00049531
0.000479033
0.00046121
0.000441951
0.000421561
0.000400505
0.000379371
0.000358754
0.000339253
0.000321244
0.000305085
0.000290847
0.000278617
0.000268257
0.000259613
0.000252487
0.000246681
0.000241955
0.000238157
0.000235205
0.000232748
0.00023057
0.000228521
0.000226756
0.000224909
0.000222844
0.000220378
0.000217314
0.000213534
0.000208802
0.000202999
0.000196045
0.000188046
0.000179149
0.000169483
0.000159564
0.000149693
0.000140309
0.000131477
0.000123585
0.000116798
0.000111037
0.000106252
0.000102425
0.00197724
9.4455e-05
9.92749e-05
0.000196959
0.0018571
8.76311e-05
8.5228e-05
0.00208183
0.00217061
0.00224383
0.00230234
0.00234624
0.0023768
0.0023948
0.00240133
0.00239707
0.00238176
0.00235451
0.00231421
0.00226001
0.00219078
0.00210665
0.00200708
0.00189222
8.92309e-05
8.54964e-05
8.60271e-05
9.41665e-05
9.28824e-05
9.29328e-05
9.33158e-05
9.3866e-05
9.47025e-05
9.58882e-05
9.75607e-05
9.97383e-05
0.000102508
0.000105976
0.000110241
0.000115395
0.000121501
0.000128573
0.00013655
0.000145285
0.000154545
0.00016403
0.000173401
0.000182322
0.000190506
0.000197739
0.000203908
0.000208989
0.00021304
0.000216163
0.000218506
0.0002202
0.000221391
0.000222204
0.000222754
0.000223134
0.000223422
0.000223703
0.000224036
0.000224553
0.000225408
0.000226359
0.00022767
0.000229452
0.000231844
0.000235114
0.000239353
0.000244736
0.000251454
0.000259719
0.000269732
0.000281654
0.000295593
0.000311561
0.000329431
0.000348928
0.00036962
0.000390972
0.00041239
0.00043332
0.000453335
0.000472177
0.000489784
0.00050626
0.00052185
0.000536886
0.000551692
0.000566488
0.000582171
0.000598416
0.000615356
0.000633231
0.000652441
0.000674059
0.000701175
0.000741821
0.000813652
0.000945647
0.00116086
0.00142496
0.00164313
0.00176268
9.0934e-05
8.45e-05
8.69045e-05
9.68617e-05
9.28604e-05
8.43063e-05
8.78207e-05
8.45886e-05
8.87639e-05
8.51727e-05
8.97196e-05
9.06869e-05
9.16591e-05
9.35959e-05
0.00201492
0.00190341
9.60438e-05
9.61992e-05
0.00172274
0.00158729
0.00136534
0.00111839
0.000927598
0.000812385
0.000748971
0.000712067
0.000686542
0.000665629
0.00064673
0.00062897
0.000612131
0.0005961
0.000580705
0.000565851
0.000551763
0.000537592
0.000523126
0.000508028
0.000491976
0.000474738
0.000456214
0.000436474
0.000415776
0.000394554
0.000373351
0.000352759
0.000333309
0.000315459
0.000299454
0.000285442
0.000273397
0.000263293
0.000254888
0.000248039
0.000242508
0.000238142
0.000234709
0.000232184
0.000230224
0.000228623
0.000227427
0.000226357
0.0002256
0.000224876
0.000224141
0.000223243
0.000222067
0.000220486
0.000218347
0.000215463
0.000211668
0.000206809
0.0002008
0.000193634
0.000185301
0.000176206
0.000166602
0.000156683
0.000146907
0.00013781
0.000129443
0.000122022
0.000115617
0.000110309
0.000105859
0.000102344
9.56171e-05
9.45095e-05
9.49646e-05
9.94946e-05
0.000247009
8.70813e-05
8.59048e-05
0.0021111
0.00219219
0.00225886
0.00231192
0.0023521
0.00238013
0.00239653
0.00240207
0.00239778
0.00238338
0.00235761
0.00231979
0.00226919
0.00220502
0.00212665
0.00203367
0.0019259
0.00180408
8.84642e-05
8.53287e-05
8.67461e-05
0.000103744
9.41825e-05
9.44667e-05
9.49856e-05
9.56276e-05
9.67579e-05
9.8252e-05
0.000100239
0.000102787
0.000105983
0.000109942
0.000114749
0.000120479
0.000127165
0.000134776
0.000143198
0.000152235
0.000161612
0.000171002
0.000180068
0.000188498
0.000196046
0.000202558
0.000207971
0.000212306
0.000215649
0.000218124
0.000219865
0.000221013
0.00022169
0.000222008
0.000222061
0.000221925
0.000221669
0.000221345
0.000221007
0.000220698
0.000220467
0.000220339
0.00022051
0.000220942
0.000221555
0.000222568
0.000224076
0.000226192
0.000229199
0.000233187
0.000238351
0.000244864
0.000252925
0.000262756
0.000274521
0.00028834
0.000304228
0.000322089
0.000341663
0.000362552
0.000384237
0.000406169
0.000427841
0.000448849
0.000468967
0.000488147
0.000506479
0.000524166
0.000541436
0.000558361
0.000575586
0.000593238
0.000610956
0.000628998
0.000648179
0.000670588
0.000702322
0.000757251
0.00086044
0.00103856
0.00127718
0.00149358
0.00162131
0.0016701
9.00317e-05
8.47361e-05
8.76377e-05
9.16682e-05
8.47708e-05
8.8559e-05
9.72946e-05
9.35697e-05
8.52114e-05
8.94913e-05
8.58635e-05
9.04288e-05
9.13645e-05
9.22976e-05
0.0020027
0.00189581
9.32215e-05
9.41257e-05
7.47569e-05
9.49914e-05
0.00177772
0.00163895
0.00157658
0.00143362
0.00121854
0.00100174
0.000847544
0.000759101
0.000711316
0.000682682
0.000661664
0.000643381
0.000625973
0.000608835
0.000591826
0.000574804
0.000558229
0.00054193
0.000525283
0.000508185
0.000490398
0.00047171
0.000452026
0.000431394
0.000410044
0.000388366
0.000366876
0.000346122
0.000326618
0.000308769
0.000292848
0.00027896
0.000267096
0.000257158
0.000248979
0.000242317
0.000237009
0.000232903
0.000229775
0.000227526
0.000225877
0.000224615
0.000223894
0.000223217
0.000222945
0.000222854
0.000222861
0.000222902
0.000222914
0.000222831
0.000222571
0.000222031
0.000221099
0.000219642
0.000217491
0.000214481
0.000210459
0.000205296
0.000198892
0.000191369
0.000182861
0.000173496
0.000163708
0.000154013
0.000144475
0.000135636
0.000127576
0.000120679
0.0001147
0.000109736
0.000105662
0.00010244
0.0012337
9.56084e-05
9.98738e-05
2.28298e-05
0.000138731
8.66658e-05
8.66609e-05
0.00209671
0.00217694
0.00224305
0.00229556
0.00233555
0.00236351
0.0023799
0.00238544
0.00238101
0.00236637
0.00234042
0.00230251
0.00225197
0.00218819
0.00211024
0.00201794
0.00191132
0.00179178
0.00166125
8.79749e-05
8.54432e-05
8.75259e-05
0.000143328
0.000104346
9.55819e-05
9.60717e-05
9.67239e-05
9.76865e-05
9.90146e-05
0.000100854
0.000103216
0.000106195
0.000109871
0.000114379
0.000119764
0.000126091
0.000133347
0.000141451
0.000150239
0.000159466
0.000168825
0.000177983
0.000186617
0.000194455
0.000201307
0.000207072
0.000211741
0.000215373
0.000218073
0.000219973
0.000221206
0.000221901
0.000222169
0.000222106
0.000221791
0.000221286
0.000220646
0.000219912
0.000219125
0.000218326
0.000217538
0.000216798
0.000216132
0.000215566
0.000215171
0.000215081
0.000215259
0.000215648
0.000216464
0.000217799
0.000219741
0.000222522
0.000226343
0.000231311
0.000237686
0.00024563
0.000255348
0.000267039
0.000280834
0.000296771
0.000314764
0.000334591
0.000355895
0.000378193
0.000400961
0.00042371
0.00044604
0.000467691
0.000488543
0.000508591
0.000527861
0.000546332
0.000564098
0.000581717
0.000599118
0.000616564
0.000635486
0.000660122
0.000700885
0.000779055
0.000921665
0.00112994
0.00133826
0.0014721
0.00152534
0.0015208
8.93869e-05
8.51242e-05
8.84342e-05
9.09727e-05
8.53468e-05
8.93589e-05
9.26011e-05
8.58901e-05
9.02887e-05
9.7882e-05
9.44221e-05
8.66296e-05
9.12138e-05
9.21319e-05
0.00198213
0.00187625
9.30364e-05
9.39218e-05
9.47893e-05
9.56321e-05
0.00177527
0.00164272
0.00149018
0.00142172
0.00127613
0.00107546
0.000892201
0.000771856
0.000706168
0.000671021
0.000649008
0.000631606
0.000615351
0.000598858
0.000581884
0.000564559
0.000547188
0.000529158
0.000510382
0.000490856
0.000470525
0.000449369
0.000427492
0.000405136
0.000382687
0.00036063
0.00033949
0.00031975
0.000301781
0.000285814
0.000271946
0.000260149
0.000250312
0.000242247
0.000235752
0.000230641
0.000226691
0.000223801
0.000221738
0.000220285
0.000219307
0.0002188
0.000218422
0.000218414
0.000218712
0.000219103
0.0002196
0.00022017
0.000220743
0.000221306
0.000221806
0.000222173
0.00022236
0.000222283
0.000221847
0.000220928
0.000219384
0.000217052
0.000213783
0.000209408
0.000203857
0.000197118
0.000189195
0.000180353
0.000170961
0.000161133
0.000151494
0.000142143
0.00013376
0.000126107
0.000119512
0.000114003
0.000109413
0.000105697
0.000102731
9.67342e-05
9.63723e-05
0.000100393
9.64691e-05
0.00150021
8.64233e-05
8.74653e-05
0.00207436
0.00215292
0.00221781
0.00226942
0.00230874
0.00233628
0.00235251
0.00235802
0.00235341
0.00233849
0.00231245
0.00227471
0.00222459
0.0021615
0.00208459
0.00199365
0.00188886
0.00177109
0.00164171
0.00150286
8.76472e-05
8.56576e-05
8.83648e-05
9.71475e-05
9.73401e-05
9.71994e-05
9.76833e-05
9.85639e-05
9.9784e-05
0.000101531
0.000103759
0.000106555
0.000110021
0.000114232
0.000119329
0.000125315
0.000132234
0.000140021
0.000148542
0.000157582
0.000166857
0.000176048
0.000184828
0.000192907
0.000200064
0.00020617
0.000211179
0.000215124
0.000218093
0.000220207
0.000221596
0.000222387
0.000222699
0.000222628
0.000222257
0.000221653
0.000220868
0.000219946
0.00021892
0.000217822
0.000216678
0.000215513
0.000214353
0.000213223
0.000212147
0.000211155
0.000210265
0.000209497
0.000208929
0.000208662
0.000208726
0.000208999
0.000209706
0.000210952
0.000212824
0.000215471
0.000219139
0.000224036
0.000230312
0.000238218
0.000247948
0.000259683
0.000273557
0.000289674
0.00030797
0.000328241
0.000350153
0.000373248
0.000396989
0.000420839
0.000444322
0.000467054
0.00048876
0.000509244
0.000528411
0.000546153
0.000562667
0.00057841
0.000594753
0.000614286
0.000644621
0.000702385
0.00081303
0.00098835
0.00118174
0.00131646
0.00137324
0.00137317
0.00135681
8.89883e-05
8.56069e-05
8.92897e-05
9.04337e-05
8.59905e-05
9.02233e-05
9.74269e-05
9.19542e-05
8.66465e-05
9.11522e-05
9.35828e-05
8.74432e-05
9.20707e-05
0.00194865
0.00184487
9.85802e-05
9.5356e-05
9.29734e-05
9.38585e-05
9.47268e-05
9.55709e-05
9.63431e-05
0.00175706
0.0016262
0.00148544
0.00134999
0.00133514
0.00126286
0.00112051
0.000941112
0.000791898
0.00070081
0.000653069
0.000627398
0.000610105
0.000595153
0.000580236
0.00056478
0.000548414
0.000530813
0.00051183
0.000491627
0.000470278
0.000447949
0.000424879
0.000401414
0.000378008
0.000355175
0.000333442
0.00031327
0.000295
0.000278855
0.000264905
0.000253078
0.000243236
0.000235183
0.000228788
0.000223761
0.000219964
0.00021721
0.000215234
0.000213886
0.000213075
0.000212697
0.000212489
0.000212665
0.00021315
0.0002138
0.000214574
0.000215433
0.000216389
0.000217352
0.00021835
0.000219325
0.000220242
0.000221072
0.000221772
0.000222304
0.000222589
0.000222549
0.000222074
0.000221045
0.000219305
0.000216694
0.000213067
0.000208313
0.000202331
0.000195181
0.000186993
0.000177868
0.000168327
0.000158488
0.000149141
0.000140106
0.000132009
0.000124887
0.000118671
0.000113586
0.000109366
0.000105948
0.000103196
9.72157e-05
9.7063e-05
0.000101029
9.72219e-05
0.00133737
8.64913e-05
8.83298e-05
0.00203843
0.00211458
0.00217761
0.00222796
0.00226633
0.00229327
0.00230925
0.00231466
0.00230978
0.00229449
0.0022684
0.00223091
0.00218135
0.00211916
0.00204376
0.0019549
0.00185271
0.0017375
0.00161045
0.0014742
0.00133087
8.7622e-05
8.60369e-05
8.92544e-05
9.8751e-05
9.92287e-05
9.98123e-05
0.000100768
0.000102284
0.000104371
0.000107036
0.000110327
0.000114335
0.000119129
0.000124834
0.000131422
0.000138897
0.000147138
0.00015596
0.000165105
0.00017427
0.000183128
0.000191387
0.0001988
0.000205209
0.000210539
0.000214795
0.000218047
0.0002204
0.00022198
0.000222914
0.00022332
0.000223299
0.00022294
0.000222311
0.00022147
0.000220458
0.000219315
0.000218065
0.000216736
0.000215352
0.000213927
0.000212481
0.000211035
0.000209609
0.000208223
0.000206886
0.000205637
0.000204496
0.00020348
0.000202615
0.000201951
0.000201597
0.000201634
0.000201927
0.00020261
0.000203865
0.000205785
0.000208485
0.000212139
0.000216974
0.000223249
0.000231185
0.000240947
0.000252848
0.000266947
0.000283318
0.000301971
0.000322698
0.000345143
0.000368809
0.000393089
0.000417327
0.0004409
0.000463276
0.00048406
0.000502997
0.000520075
0.000535551
0.000550128
0.000566017
0.000588628
0.00063058
0.000714216
0.000856938
0.00102953
0.00115971
0.00121801
0.00122157
0.00120686
0.00118386
8.88153e-05
8.61918e-05
9.0198e-05
9.8593e-05
9.76608e-05
9.00945e-05
8.67146e-05
9.11411e-05
9.15033e-05
8.74518e-05
9.20742e-05
0.00189814
0.00179592
9.30241e-05
8.83149e-05
9.46131e-05
9.299e-05
9.38863e-05
9.93734e-05
9.63549e-05
9.4762e-05
9.56117e-05
9.6415e-05
9.71686e-05
0.00172802
0.00159977
0.00146189
0.00131717
0.00118572
0.00119623
0.00117793
0.00110542
0.000972576
0.000818991
0.000701569
0.000634197
0.000599825
0.000580515
0.000566567
0.000553601
0.000539827
0.000524497
0.000507358
0.000488382
0.00046764
0.000445397
0.000422026
0.000398021
0.000373966
0.000350488
0.000328171
0.000307508
0.000288861
0.000272443
0.000258261
0.000246262
0.000236363
0.000228301
0.000221884
0.000216933
0.000213184
0.000210393
0.000208385
0.000207051
0.000206284
0.000205897
0.000205782
0.000206052
0.000206643
0.000207428
0.000208357
0.000209407
0.000210549
0.000211787
0.000213055
0.000214349
0.000215669
0.000216944
0.000218176
0.000219358
0.00022045
0.000221415
0.000222217
0.000222792
0.000223078
0.000222976
0.000222384
0.000221157
0.000219165
0.000216237
0.000212233
0.000207065
0.000200704
0.00019311
0.000184634
0.000175304
0.000165842
0.00015618
0.000146927
0.000138295
0.000130622
0.000123905
0.000118277
0.000113474
0.000109547
0.000106317
0.000103726
9.81108e-05
9.79153e-05
0.000101681
9.79292e-05
0.00116902
8.66633e-05
8.9237e-05
0.00198749
0.00206374
0.00212714
0.00217808
0.00221711
0.00224463
0.00226102
0.00226658
0.00226138
0.00224551
0.00221862
0.00218024
0.00212981
0.00206683
0.00199096
0.00190205
0.0018003
0.0016863
0.0015615
0.00142839
0.00128919
0.00114693
8.77401e-05
8.65091e-05
9.01927e-05
0.000100521
0.000101231
0.000102181
0.000103441
0.000105228
0.000107608
0.000110707
0.000114517
0.000119136
0.000124564
0.000130886