/*--------------------------------*- C++ -*----------------------------------*\
| =========                 |                                                 |
| \\      /  F ield         | OpenFOAM: The Open Source CFD Toolbox           |
|  \\    /   O peration     | Version:  2212                                  |
|   \\  /    A nd           | Website:  www.openfoam.com                      |
|    \\/     M anipulation  |                                                 |
\*---------------------------------------------------------------------------*/
FoamFile
{
    version     2.0;
    format      ascii;
    arch        "LSB;label=32;scalar=64";
    class       volScalarField;
    location    "0.00032";
    object      nut;
}
// * * * * * * * * * * * * * * * * * * * * * * * * * * * * * * * * * * * * * //

dimensions      [0 2 -1 0 0 0 0];

internalField   nonuniform List<scalar> 
3450
(
0.000712719
0.00896993
0.0303815
0.062321
0.0990324
0.137167
0.171108
0.198312
0.218725
0.233012
0.24193
0.246031
0.246683
0.242054
0.232903
0.218667
0.198711
0.172536
0.140033
0.10194
0.0601419
0.0200261
0.00111675
0.00148901
0.000910746
0.00155698
0.00484004
0.0127086
0.0252566
0.0410139
0.0578702
0.073709
0.0868205
0.0959988
0.100499
0.100512
0.0951395
0.0853514
0.0719997
0.0563954
0.0402394
0.0253658
0.0132558
0.00517169
0.00179158
0.00180102
0.0012935
0.000872489
0.000954413
0.00171234
0.00369997
0.00769733
0.0139884
0.0219681
0.0304061
0.0379858
0.0435796
0.0463721
0.0459835
0.0424439
0.0363032
0.0285173
0.0203191
0.0129778
0.00743597
0.00393252
0.00210068
0.00139827
0.00162523
0.00105513
0.000774879
0.000783748
0.00115907
0.00220271
0.00430659
0.00764186
0.0120133
0.0168138
0.0212616
0.0245801
0.02622
0.0258995
0.0236884
0.0199835
0.0154486
0.0108746
0.00697346
0.00415684
0.00239775
0.00147362
0.00116339
0.00137432
0.000890508
0.00067721
0.00068944
0.000965689
0.00168324
0.0031006
0.00536451
0.00823859
0.0113663
0.0142494
0.016406
0.0174661
0.0172528
0.0158167
0.0134166
0.0104762
0.00749627
0.0049235
0.00302214
0.00184451
0.00122017
0.00100295
0.00116878
0.000766223
0.000596388
0.000621485
0.000862154
0.00144693
0.00253806
0.00419915
0.00634108
0.00860462
0.010666
0.0122005
0.0129665
0.0128413
0.0118552
0.0101766
0.00808368
0.00590492
0.00398462
0.0025419
0.00159745
0.00107289
0.000877913
0.000994241
0.000677239
0.000534097
0.000567877
0.000791457
0.00130068
0.00221258
0.00355447
0.0052062
0.00696499
0.00854543
0.00971398
0.0103096
0.0102454
0.00953494
0.00829061
0.00669764
0.0050145
0.0034772
0.00227214
0.00145303
0.000966037
0.000777461
0.000860377
0.00061729
0.000487805
0.000521243
0.00073043
0.00118828
0.00197947
0.00311008
0.00447153
0.00588155
0.00714025
0.00807778
0.00856589
0.00854167
0.00800865
0.00704408
0.00578821
0.00441763
0.003127
0.00207677
0.00133364
0.000883445
0.000691836
0.000767488
0.000576859
0.000453085
0.00047876
0.000670696
0.00108695
0.00178668
0.00276534
0.00392193
0.00510165
0.0061451
0.0069195
0.00733076
0.0073301
0.00691567
0.00614183
0.00510922
0.00395558
0.0028399
0.00190552
0.00122424
0.00080098
0.000622923
0.000703184
0.000549553
0.000425443
0.000441091
0.000611321
0.000985935
0.00161365
0.00247497
0.00348041
0.0044948
0.00538535
0.00604495
0.00639984
0.0064113
0.00607602
0.0054307
0.00455304
0.00355341
0.00256706
0.00171983
0.0010913
0.000711881
0.000569413
0.000665142
0.000531649
0.000405902
0.000408906
0.000552297
0.000882831
0.00144397
0.00221434
0.00310435
0.00399643
0.00477529
0.00535087
0.00566255
0.00567836
0.00539429
0.00483593
0.00406592
0.00317721
0.00228366
0.00151504
0.000960096
0.000636239
0.000534163
0.000638689
0.000519169
0.000392366
0.000383581
0.000501105
0.000785148
0.00128065
0.00197207
0.00277148
0.00357027
0.00426527
0.0047774
0.00505449
0.005069
0.00481654
0.0043171
0.0036226
0.00281275
0.00200472
0.00132326
0.000842092
0.000573027
0.000502855
0.000618776
0.000510159
0.000380782
0.000362472
0.000455227
0.000698329
0.00113004
0.00174696
0.00247267
0.00319634
0.00382583
0.00428825
0.00453653
0.00454591
0.00431192
0.00385181
0.00321168
0.00247162
0.00174618
0.00114738
0.000738008
0.000521141
0.000476906
0.000603821
0.00050416
0.0003713
0.000344047
0.000416401
0.00062115
0.00099559
0.00154148
0.00219832
0.00286207
0.00343842
0.00386062
0.00408427
0.0040864
0.00386312
0.00343153
0.002835
0.00215939
0.00150976
0.00098895
0.000646115
0.000475144
0.00045514
0.000592174
0.000500745
0.000363717
0.000327939
0.000382506
0.000553758
0.000876493
0.00135812
0.00194881
0.0025591
0.00309113
0.00347985
0.00368201
0.0036758
0.00345853
0.00304734
0.00249348
0.00187589
0.00129756
0.000849075
0.000565213
0.000435309
0.000436777
0.000582786
0.000499429
0.000357851
0.000314296
0.000353975
0.000495491
0.000771822
0.001195
0.00172558
0.00228245
0.00277764
0.00313677
0.00331953
0.00330442
0.00308999
0.00269886
0.00218157
0.00161922
0.00110928
0.000728389
0.000497659
0.000401822
0.000421298
0.000574868
0.000499829
0.000353454
0.000302706
0.00032904
0.000444848
0.000680155
0.00105041
0.00152589
0.00203412
0.00249037
0.00282453
0.00299023
0.00296682
0.00275522
0.00238134
0.00189939
0.00139095
0.000946196
0.000627007
0.000442587
0.000374063
0.000408209
0.000567886
0.000501643
0.000350303
0.000292862
0.000307156
0.000400091
0.000599888
0.000922678
0.0013477
0.00181153
0.00223289
0.00254143
0.00269037
0.00265875
0.00244994
0.00209336
0.00164671
0.00119088
0.000806928
0.000542232
0.000396772
0.000350901
0.000397019
0.000561506
0.000504609
0.000348222
0.000284631
0.000288403
0.000362037
0.000530516
0.000810631
0.00118937
0.00161148
0.00199968
0.00228393
0.00241676
0.00237764
0.00217229
0.0018338
0.00142275
0.0010176
0.000689092
0.000471404
0.000358371
0.000331398
0.000387327
0.00055553
0.000508517
0.000347067
0.000277875
0.000272629
0.000330425
0.000471174
0.000712896
0.0010487
0.00143118
0.00178776
0.00204893
0.00216685
0.00212142
0.00192075
0.00160149
0.00122609
0.000868961
0.000589937
0.000411858
0.00032623
0.000314886
0.000378842
0.000549839
0.000513202
0.000346738
0.000272403
0.000259321
0.000303417
0.000420295
0.00062784
0.000923876
0.00126869
0.00159504
0.00183453
0.00193888
0.0018885
0.00169394
0.00139506
0.00105497
0.00074274
0.000507555
0.00036326
0.000299572
0.000300893
0.000371358
0.000544357
0.000518516
0.00034712
0.000268027
0.000248044
0.000280182
0.000376493
0.000554023
0.000813641
0.00112297
0.00142045
0.00163942
0.00173142
0.00167747
0.00149048
0.00121287
0.00090725
0.000636378
0.000439634
0.00032411
0.000277549
0.000289017
0.000364712
0.000539035
0.000524381
0.000348111
0.000264595
0.000238503
0.000260228
0.000338417
0.000489855
0.00071664
0.000992863
0.00126288
0.00146242
0.00154322
0.00148704
0.00130888
0.00105303
0.000780421
0.000546939
0.000383207
0.00029131
0.0002591
0.000278857
0.000358764
0.000533845
0.000530737
0.000349636
0.000261992
0.000230502
0.000243325
0.000306511
0.000434706
0.000631804
0.00087727
0.00112127
0.00130243
0.00137312
0.00131589
0.00114757
0.000913509
0.000671934
0.000471702
0.000335897
0.0002638
0.000243521
0.000270098
0.000353397
0.000528772
0.000537531
0.000351634
0.000260118
0.000223848
0.000229061
0.000279692
0.000387469
0.000557927
0.000775018
0.00099451
0.00115835
0.00121993
0.00116269
0.00100494
0.000792271
0.000579474
0.000408559
0.000296417
0.000240738
0.000230305
0.000262499
0.00034852
0.000523806
0.000544721
0.00035405
0.000258883
0.000218339
0.000216937
0.000256563
0.000346803
0.000493669
0.00068486
0.000881463
0.00102907
0.00108249
0.0010261
0.00087935
0.000687382
0.000501045
0.000355789
0.00026394
0.000221458
0.000219064
0.000255873
0.000344061
0.000518943
0.00055227
0.000356839
0.000258204
0.000213809
0.000206615
0.000236661
0.000311564
0.000437775
0.000605562
0.000780974
0.000913465
0.000959608
0.000904772
0.000769171
0.000596888
0.000434485
0.000311823
0.000237133
0.000205297
0.000209468
0.000250063
0.00033996
0.000514182
0.000560142
0.000359959
0.000258012
0.000210125
0.000197844
0.000219585
0.000281146
0.000389277
0.000536017
0.000691936
0.000810434
0.000850105
0.000797348
0.000672814
0.000519
0.000378079
0.000274803
0.00021441
0.000191599
0.000201217
0.000244938
0.000336168
0.000509523
0.000568305
0.000363373
0.000258249
0.000207181
0.00019043
0.000205054
0.000255525
0.000347503
0.000475268
0.000613309
0.000718899
0.000752824
0.00070252
0.000588756
0.00045203
0.000330134
0.000243289
0.000195121
0.000179912
0.000194075
0.000240386
0.000332641
0.000504966
0.000576722
0.000367057
0.000258867
0.000204881
0.000184185
0.000192675
0.000233643
0.000311495
0.000422308
0.000544066
0.00063781
0.000666648
0.00061904
0.000515608
0.000394566
0.000289499
0.000216808
0.000178774
0.000169901
0.000187857
0.000236317
0.000329346
0.000500515
0.000585487
0.000370997
0.000259819
0.000203138
0.000178933
0.000182074
0.000214706
0.000280337
0.000376153
0.000483204
0.000566151
0.000590504
0.000545737
0.000452106
0.000345368
0.000255176
0.000194788
0.00016494
0.0001613
0.000182417
0.000232658
0.000326255
0.000496172
0.000594572
0.000375181
0.000261069
0.000201876
0.000174527
0.000172977
0.000198322
0.000253164
0.000335892
0.000429776
0.000502953
0.000523373
0.000481508
0.000397067
0.000303256
0.000226078
0.000176142
0.000153156
0.000153872
0.000177628
0.000229348
0.000323346
0.000491942
0.000603984
0.000379599
0.000262588
0.000201034
0.00017085
0.000165174
0.000184187
0.000229679
0.000300864
0.000382958
0.000447339
0.00046431
0.000425325
0.000349402
0.000267161
0.00020127
0.000160162
0.000143039
0.000147415
0.000173387
0.000226336
0.000320601
0.000487829
0.000613754
0.000384247
0.000264349
0.00020056
0.000167805
0.000158498
0.000172053
0.000209716
0.000270528
0.000341959
0.000398585
0.000412452
0.000376247
0.000308132
0.000236146
0.000179908
0.000146438
0.000134302
0.000141766
0.000169605
0.000223581
0.000318007
0.00048384
0.000623916
0.000389129
0.000266335
0.00020041
0.000165308
0.000152788
0.000161613
0.000192521
0.000244257
0.000306316
0.000355636
0.000366925
0.00033342
0.000272433
0.00020955
0.000161708
0.000134656
0.000126727
0.000136794
0.00016621
0.000221046
0.000315555
0.000479986
0.000634507
0.00039425
0.000268528
0.000200544
0.000163281
0.000147899
0.000152583
0.000177532
0.000221394
0.000275137
0.000318031
0.000327032
0.000296092
0.000241604
0.000186818
0.000146385
0.000124547
0.00012013
0.000132392
0.000163143
0.000218705
0.000313243
0.000476294
0.000645551
0.000399615
0.000270912
0.000200924
0.000161655
0.000143708
0.000144751
0.000164462
0.00020134
0.000247841
0.000285086
0.000292107
0.000263583
0.000214965
0.000167301
0.000133198
0.000115812
0.000114352
0.000128467
0.000160355
0.000216538
0.000311073
0.000472783
0.0006571
0.00040523
0.000273471
0.000201512
0.000160368
0.00014011
0.000137945
0.00015308
0.000183881
0.000223988
0.000256235
0.000261545
0.00023527
0.000191912
0.000150469
0.00012176
0.000108207
0.000109255
0.000124942
0.000157803
0.000214528
0.000309053
0.000469487
0.000669189
0.000411103
0.000276184
0.000202274
0.000159366
0.000137019
0.000132025
0.000143194
0.000168875
0.000203214
0.000230993
0.00023481
0.000210601
0.000171921
0.000135864
0.000111814
0.000101546
0.000104723
0.000121748
0.000155451
0.000212665
0.000307189
0.000466416
0.000681916
0.000417247
0.000279033
0.000203174
0.000158594
0.000134356
0.00012686
0.000134583
0.000155863
0.0001851
0.000208907
0.000211421
0.000189097
0.000154563
0.000123164
0.00010314
9.56729e-05
0.000100659
0.000118827
0.000153267
0.000210938
0.000305493
0.000463627
0.000695338
0.000423678
0.000281998
0.000204173
0.000158001
0.000132045
0.000122329
0.000127036
0.000144407
0.000169231
0.000189554
0.000190952
0.000170356
0.00013952
0.000112249
9.55624e-05
9.04597e-05
9.69779e-05
0.000116125
0.00015122
0.000209339
0.000303981
0.000461117
0.000709674
0.000430418
0.00028505
0.000205226
0.000157533
0.000130002
0.000118322
0.000120385
0.000134312
0.000155252
0.00017256
0.000173022
0.000154011
0.000126467
0.000102809
8.89071e-05
8.57919e-05
9.36027e-05
0.000113591
0.000149281
0.000207861
0.000302679
0.000458961
0.000724985
0.000437483
0.000288156
0.00020629
0.000157139
0.000128169
0.000114751
0.0001145
0.000125407
0.000142908
0.000157616
0.000157299
0.000139732
0.000115082
9.45011e-05
8.30099e-05
8.15685e-05
9.04629e-05
0.000111171
0.000147418
0.000206507
0.000301641
0.000457274
0.000741693
0.000444888
0.000291272
0.000207319
0.000156778
0.000126501
0.000111549
0.000109278
0.000117561
0.00013214
0.000144497
0.000143501
0.000127234
0.000105119
8.71742e-05
7.77451e-05
7.77067e-05
8.74978e-05
0.000108818
0.0001456
0.000205275
0.000300941
0.000456367
0.000759741
0.000452619
0.000294363
0.000208292
0.000156434
0.000124976
0.000108673
0.00010464
0.000110652
0.000122781
0.000132984
0.000131383
0.000116279
9.63806e-05
8.07028e-05
7.30239e-05
7.41493e-05
8.46668e-05
0.000106494
0.000143802
0.000204166
0.00030064
0.000456135
0.000780235
0.000460649
0.000297387
0.000209215
0.000156129
0.000123609
0.000106116
0.000100534
0.000104548
0.00011447
0.000122828
0.000120716
0.00010666
8.8697e-05
7.49887e-05
6.87934e-05
7.0877e-05
8.1967e-05
0.000104195
0.000142007
0.000203162
0.00030085
0.000457428
0.000802308
0.000468873
0.000300378
0.000210181
0.000155963
0.000122481
0.000103912
9.69275e-05
9.91474e-05
0.000107089
0.000113823
0.000111296
9.81944e-05
8.19218e-05
6.9957e-05
6.50359e-05
6.79241e-05
7.94702e-05
0.000102001
0.000140256
0.000202263
0.000301605
0.000459867
0.000828125
0.000477215
0.000303558
0.00021145
0.000156147
0.000121756
0.000102132
9.3778e-05
9.43229e-05
0.00010049
0.000105749
0.000102929
9.07293e-05
7.60481e-05
6.55227e-05
6.17168e-05
6.53379e-05
7.73086e-05
0.00010015
0.000138717
0.000201488
0.000302949
0.000465758
0.000851733
0.000485696
0.000307581
0.000213607
0.000157099
0.00012167
0.000100829
9.10594e-05
9.00357e-05
9.45048e-05
9.86281e-05
9.54351e-05
8.4042e-05
7.07707e-05
6.15423e-05
5.88176e-05
6.32327e-05
7.57276e-05
9.89943e-05
0.000137852
0.000201202
0.000304576
0.000471813
0.000875792
0.000495127
0.000313626
0.00021753
0.000159429
0.000122427
0.000100008
8.88483e-05
8.62175e-05
8.90308e-05
9.19435e-05
8.8517e-05
7.78584e-05
6.58642e-05
5.80085e-05
5.63882e-05
6.16597e-05
7.5019e-05
9.89611e-05
0.000138416
0.000202104
0.000306745
0.000484576
0.00091285
0.000534192
0.000341933
0.000237072
0.000172616
0.000130177
0.000103323
8.82893e-05
8.23283e-05
8.25269e-05
8.39555e-05
8.01819e-05
7.00951e-05
5.96451e-05
5.38563e-05
5.43775e-05
6.18107e-05
7.74283e-05
0.000104353
0.000148186
0.000214882
0.000321139
0.000498936
0.00088461
0.000547672
0.000373019
0.000265774
0.000191334
0.000141975
0.000109874
9.04781e-05
8.08197e-05
7.80222e-05
7.75631e-05
7.33251e-05
6.40407e-05
5.53277e-05
5.16674e-05
5.44099e-05
6.43433e-05
8.31972e-05
0.00011206
0.000154302
0.000218944
0.000316295
0.000462969
0.000847884
0.00054751
0.00038225
0.000280958
0.000210131
0.000155426
0.000117931
9.45742e-05
8.14562e-05
7.57181e-05
7.32224e-05
6.8429e-05
6.00234e-05
5.29858e-05
5.12326e-05
5.60476e-05
6.77038e-05
8.66161e-05
0.000115418
0.0001574
0.000218899
0.000308558
0.000439382
0.000813894
0.000540749
0.000386065
0.000288893
0.000219421
0.000167446
0.000127367
9.98158e-05
8.36033e-05
7.51436e-05
7.06502e-05
6.52433e-05
5.7623e-05
5.19971e-05
5.17444e-05
5.7506e-05
6.96405e-05
8.90752e-05
0.000117901
0.00015934
0.000218099
0.000301468
0.000424521
0.000785138
0.000531426
0.000386379
0.000293495
0.000226008
0.000174233
0.000135274
0.000106133
8.67177e-05
7.58354e-05
6.94859e-05
6.34301e-05
5.641e-05
5.18334e-05
5.23799e-05
5.87935e-05
7.14843e-05
9.13905e-05
0.000120226
0.000160631
0.000216707
0.000296314
0.000415475
0.000761695
0.000521576
0.000385263
0.000296642
0.000230903
0.00017969
0.000140443
0.000111486
9.07284e-05
7.74107e-05
6.93901e-05
6.26524e-05
5.59916e-05
5.21181e-05
5.33157e-05
6.03093e-05
7.34738e-05
9.36008e-05
0.000122105
0.000161267
0.000215169
0.00029272
0.000409914
0.000742131
0.000512075
0.000383
0.000298601
0.00023497
0.000184377
0.00014488
0.000115299
9.42313e-05
7.97277e-05
7.00979e-05
6.26612e-05
5.62164e-05
5.28845e-05
5.46044e-05
6.20111e-05
7.54608e-05
9.55823e-05
0.000123568
0.000161602
0.000214071
0.000290267
0.000406205
0.000725477
0.000503219
0.000379963
0.0002995
0.000238174
0.00018855
0.000149061
0.000118873
9.69194e-05
8.17709e-05
7.12617e-05
6.32285e-05
5.69087e-05
5.39807e-05
5.61047e-05
6.38234e-05
7.73804e-05
9.73216e-05
0.000124729
0.000161829
0.000213331
0.000288607
0.00040369
0.000710909
0.000495051
0.000376489
0.000299556
0.000240578
0.000192164
0.000152946
0.000122386
9.96977e-05
8.36655e-05
7.2464e-05
6.41336e-05
5.7932e-05
5.5305e-05
5.77068e-05
6.56064e-05
7.9178e-05
9.88457e-05
0.000125688
0.000162029
0.000212874
0.000287464
0.000401818
0.000697847
0.000487519
0.000372827
0.000298994
0.000242337
0.000195265
0.000156515
0.000125783
0.000102534
8.57792e-05
7.39778e-05
6.53211e-05
5.91928e-05
5.67815e-05
5.9361e-05
6.73374e-05
8.083e-05
0.000100206
0.00012655
0.00016231
0.000212645
0.000286667
0.000400375
0.000685923
0.000480555
0.000369127
0.000297988
0.000243516
0.000197935
0.00015982
0.000129065
0.000105407
8.80728e-05
7.5691e-05
6.67248e-05
6.06246e-05
5.83587e-05
6.10372e-05
6.90146e-05
8.2375e-05
0.000101463
0.000127391
0.000162708
0.000212596
0.000286091
0.000399133
0.000674932
0.000474089
0.000365453
0.000296659
0.000244139
0.000200022
0.00016275
0.00013221
0.000108292
9.04388e-05
7.75407e-05
6.82903e-05
6.21808e-05
6.00019e-05
6.27183e-05
7.06438e-05
8.38441e-05
0.000102663
0.000128242
0.000163198
0.000212681
0.000285678
0.000398112
0.000664793
0.000468058
0.000361884
0.000295134
0.00024436
0.00020163
0.000165237
0.000135034
0.000111009
9.27839e-05
7.94713e-05
6.99698e-05
6.3825e-05
6.16866e-05
6.43952e-05
7.22335e-05
8.52618e-05
0.000103832
0.000129112
0.000163751
0.000212853
0.00028537
0.000397241
0.00065519
0.000462397
0.000358504
0.00029352
0.000244295
0.000202852
0.000167342
0.000137558
0.000113547
9.50731e-05
8.14385e-05
7.17228e-05
6.55274e-05
6.33946e-05
6.6063e-05
7.37925e-05
8.66466e-05
0.00010499
0.000130007
0.000164355
0.000213086
0.000285107
0.000396348
0.000646065
0.000457053
0.000355278
0.000291866
0.000244031
0.000203775
0.000169128
0.000139813
0.000115908
9.7287e-05
8.34115e-05
7.35188e-05
6.72661e-05
6.51148e-05
6.77217e-05
7.53309e-05
8.80138e-05
0.000106146
0.000130924
0.000164995
0.00021336
0.000284892
0.00039552
0.000637478
0.000452001
0.000352187
0.000290201
0.000243619
0.000204458
0.000170645
0.000141828
0.000118098
9.94131e-05
8.53674e-05
7.53339e-05
6.90231e-05
6.68376e-05
6.93693e-05
7.68526e-05
8.93691e-05
0.000107304
0.000131859
0.00016566
0.000213668
0.000284731
0.000394825
0.000629448
0.00044723
0.000349228
0.000288544
0.000243097
0.000204946
0.000171929
0.000143625
0.000120122
0.000101441
8.72864e-05
7.71464e-05
7.07821e-05
6.85536e-05
7.10028e-05
7.83593e-05
9.0716e-05
0.000108465
0.000132807
0.000166342
0.000214
0.000284621
0.000394248
0.000621963
0.000442728
0.000346397
0.000286907
0.000242497
0.000205278
0.000173016
0.000145227
0.000121988
0.000103366
8.91545e-05
7.89403e-05
7.25308e-05
7.02565e-05
7.26211e-05
7.98529e-05
9.20567e-05
0.00010963
0.000133763
0.000167036
0.000214353
0.000284559
0.000393791
0.000615016
0.000438486
0.000343691
0.000285298
0.000241841
0.000205483
0.000173936
0.000146658
0.000123708
0.000105188
9.09635e-05
8.07045e-05
7.42603e-05
7.19417e-05
7.42229e-05
8.13344e-05
9.33915e-05
0.000110795
0.000134724
0.000167736
0.000214724
0.000284553
0.000393477
0.000608604
0.000434496
0.000341105
0.000283722
0.000241143
0.000205585
0.000174715
0.000147937
0.000125293
0.000106909
9.27082e-05
8.24308e-05
7.5964e-05
7.36053e-05
7.5807e-05
8.28033e-05
9.47195e-05
0.000111958
0.000135685
0.00016844
0.000215113
0.00028461
0.000393336
0.000602723
0.000430751
0.000338635
0.000282182
0.000240416
0.000205602
0.000175372
0.000149082
0.000126754
0.000108532
9.43856e-05
8.41133e-05
7.76362e-05
7.52439e-05
7.73716e-05
8.4259e-05
9.60409e-05
0.000113125
0.000136644
0.000169145
0.00021552
0.000284737
0.000393394
0.000597384
0.000427248
0.000336279
0.00028068
0.000239666
0.000205548
0.000175924
0.000150107
0.000128102
0.000110061
9.59942e-05
8.57477e-05
7.92728e-05
7.68543e-05
7.89148e-05
8.56993e-05
9.73513e-05
0.000114279
0.000137595
0.000169847
0.000215946
0.000284942
0.000393667
0.000592607
0.000423988
0.000334034
0.000279217
0.000238902
0.000205436
0.000176385
0.000151026
0.000129344
0.000111501
9.75336e-05
8.73313e-05
8.08706e-05
7.84339e-05
8.04343e-05
8.71218e-05
9.86475e-05
0.000115418
0.000138535
0.000170545
0.000216393
0.000285237
0.000394194
0.000588394
0.000420969
0.000331899
0.000277795
0.000238128
0.000205274
0.000176767
0.000151849
0.000130491
0.000112855
9.90046e-05
8.88622e-05
8.24271e-05
7.99805e-05
8.1928e-05
8.85241e-05
9.9926e-05
0.00011654
0.000139459
0.000171236
0.000216865
0.00028565
0.000395078
0.000584742
0.000418188
0.000329872
0.000276413
0.000237347
0.000205068
0.000177076
0.000152586
0.000131548
0.000114128
0.000100409
9.03397e-05
8.39407e-05
8.14923e-05
8.33936e-05
8.99032e-05
0.000101183
0.000117641
0.000140365
0.000171917
0.000217355
0.000286144
0.000396168
0.000581653
0.000415641
0.000327949
0.000275071
0.000236563
0.000204822
0.00017732
0.000153243
0.000132523
0.000115325
0.000101747
9.17638e-05
8.54103e-05
8.29675e-05
8.4829e-05
9.12559e-05
0.000102416
0.000118717
0.000141249
0.000172587
0.000217866
0.000286744
0.000397562
0.000579133
0.000413327
0.000326129
0.000273769
0.000235776
0.000204542
0.000177504
0.000153827
0.000133422
0.00011645
0.000103023
9.31349e-05
8.68352e-05
8.44047e-05
8.62314e-05
9.25788e-05
0.00010362
0.000119766
0.00014211
0.000173245
0.000218399
0.000287455
0.000399276
0.000577181
0.000411244
0.000324407
0.000272506
0.000234989
0.000204232
0.000177636
0.000154342
0.000134247
0.000117507
0.000104239
9.44536e-05
8.82147e-05
8.58017e-05
8.75978e-05
9.38692e-05
0.000104794
0.000120787
0.000142945
0.00017389
0.000218955
0.000288279
0.000401313
0.000575797
0.000409389
0.00032278
0.000271277
0.000234203
0.000203896
0.000177721
0.000154798
0.000135006
0.000118497
0.000105394
9.57195e-05
8.95474e-05
8.7157e-05
8.89272e-05
9.51267e-05
0.000105938
0.000121778
0.000143753
0.000174519
0.000219531
0.000289216
0.000403668
0.000574967
0.000407757
0.000321245
0.000270082
0.000233416
0.000203534
0.000177764
0.000155199
0.000135704
0.000119426
0.000106492
9.69338e-05
9.08341e-05
8.84711e-05
9.022e-05
9.63505e-05
0.000107049
0.000122737
0.000144532
0.000175131
0.000220127
0.000290265
0.000406331
0.000574719
0.000406354
0.0003198
0.000268917
0.000232628
0.00020315
0.000177768
0.000155551
0.000136348
0.000120301
0.000107537
9.81001e-05
9.20768e-05
8.97447e-05
9.14749e-05
9.75382e-05
0.000108125
0.000123661
0.000145278
0.000175723
0.000220745
0.000291438
0.000409359
0.000575101
0.000405184
0.000318442
0.000267778
0.000231834
0.00020274
0.000177732
0.000155852
0.000136938
0.00012112
0.000108531
9.92176e-05
9.32735e-05
9.09748e-05
9.26883e-05
9.86857e-05
0.000109161
0.000124545
0.000145987
0.000176294
0.000221386
0.000292759
0.000412845
0.000576325
0.00040428
0.000317171
0.000266662
0.000231032
0.000202304
0.000177657
0.000156107
0.000137476
0.000121888
0.000109474
0.000100287
9.44246e-05
9.21608e-05
9.38589e-05
9.97911e-05
0.000110155
0.000125387
0.000146658
0.000176841
0.000222052
0.000294234
0.000416799
0.000578016
0.000403589
0.00031598
0.000265568
0.000230223
0.000201843
0.000177546
0.000156318
0.000137966
0.000122606
0.000110369
0.00010131
9.55298e-05
9.33019e-05
9.49854e-05
0.000100853
0.000111105
0.000126185
0.000147288
0.000177362
0.000222741
0.000295859
0.000421194
0.000580314
0.000403119
0.000314862
0.00026449
0.000229405
0.000201358
0.000177399
0.000156486
0.000138409
0.000123277
0.000111216
0.000102286
9.65895e-05
9.43976e-05
9.60668e-05
0.000101869
0.000112009
0.000126937
0.000147873
0.000177854
0.000223448
0.000297627
0.00042601
0.00058319
0.000402864
0.000313815
0.000263425
0.000228577
0.000200849
0.000177221
0.000156616
0.00013881
0.000123903
0.000112019
0.000103218
9.76041e-05
9.5448e-05
9.71024e-05
0.000102839
0.000112866
0.00012764
0.000148411
0.000178311
0.000224169
0.000299532
0.000431225
0.00058664
0.000402819
0.000312832
0.000262372
0.000227739
0.00020032
0.000177015
0.000156712
0.000139173
0.000124488
0.000112779
0.000104106
9.85746e-05
9.64534e-05
9.80923e-05
0.000103763
0.000113675
0.000128293
0.000148899
0.000178731
0.0002249
0.000301572
0.000436844
0.000590635
0.000402976
0.000311911
0.000261328
0.000226891
0.000199774
0.000176785
0.000156779
0.000139501
0.000125036
0.000113499
0.000104953
9.95026e-05
9.74149e-05
9.90375e-05
0.000104641
0.000114435
0.000128894
0.000149336
0.000179111
0.000225639
0.000303743
0.000442853
0.000595126
0.000403323
0.000311046
0.000260292
0.000226037
0.000199215
0.000176537
0.000156823
0.000139803
0.000125552
0.000114185
0.000105762
0.00010039
9.83347e-05
9.99398e-05
0.000105475
0.000115149
0.000129445
0.000149719
0.000179449
0.000226382
0.000306038
0.000449226
0.000600073
0.000403846
0.000310232
0.000259263
0.000225179
0.000198649
0.00017628
0.000156852
0.000140083
0.000126042
0.00011484
0.000106538
0.000101241
9.9216e-05
0.000100802
0.000106267
0.000115819
0.000129946
0.000150049
0.000179743
0.000227125
0.000308446
0.000455931
0.000605428
0.000404535
0.000309467
0.000258234
0.000224319
0.000198083
0.000176023
0.000156877
0.000140351
0.000126513
0.000115472
0.000107287
0.000102059
0.000100063
0.00010163
0.000107023
0.000116448
0.000130401
0.000150325
0.00017999
0.000227865
0.000310956
0.000462923
0.000611139
0.000405375
0.000308744
0.000257195
0.000223461
0.000197527
0.000175775
0.000156906
0.000140616
0.000126973
0.000116086
0.000108019
0.000102848
0.000100884
0.00010243
0.000107748
0.000117042
0.000130811
0.000150551
0.000180192
0.000228597
0.000313554
0.000470153
0.000617145
0.000406353
0.000308066
0.000256182
0.000222616
0.00019699
0.00017555
0.000156952
0.00014089
0.000127433
0.000116691
0.000108724
0.000103632
0.000101687
0.00010321
0.000108451
0.000117607
0.000131183
0.000150727
0.000180348
0.000229319
0.000316223
0.000477555
0.000623376
0.000407456
0.000307434
0.000255195
0.000221794
0.000196484
0.000175356
0.000157025
0.000141183
0.000127904
0.000117298
0.00010943
0.000104405
0.000102481
0.000103979
0.00010914
0.000118151
0.00013152
0.000150849
0.000180459
0.00023003
0.000318947
0.000485056
0.000629754
0.00040867
0.00030685
0.000254238
0.000221004
0.000196017
0.000175205
0.00015714
0.000141512
0.000128399
0.00011792
0.000110145
0.00010518
0.000103277
0.000104749
0.000109824
0.000118681
0.000131829
0.000150929
0.00018053
0.000230728
0.000321707
0.000492572
0.000636188
0.000409982
0.000306316
0.000253315
0.00022025
0.000195597
0.000175109
0.00015731
0.000141887
0.00012893
0.000118569
0.000110879
0.00010597
0.000104086
0.000105529
0.000110515
0.000119207
0.000132117
0.000150978
0.000180565
0.000231416
0.000324485
0.000500011
0.000642581
0.00041138
0.000305838
0.000252432
0.00021954
0.000195234
0.000175081
0.000157548
0.000142323
0.00012951
0.000119256
0.000111645
0.000106787
0.00010492
0.000106332
0.000111222
0.000119736
0.000132392
0.000150999
0.000180571
0.000232096
0.00032726
0.000507268
0.000648833
0.000412854
0.000305423
0.000251596
0.000218881
0.000194936
0.000175127
0.000157862
0.000142827
0.000130149
0.000119993
0.000112454
0.000107644
0.000105791
0.000107168
0.000111954
0.000120276
0.000132659
0.000150998
0.000180556
0.000232774
0.000330014
0.000514225
0.000654847
0.000414396
0.000305082
0.000250815
0.000218278
0.000194706
0.000175253
0.000158256
0.000143406
0.000130854
0.000120789
0.000113317
0.00010855
0.000106707
0.000108044
0.000112715
0.00012083
0.000132921
0.000150982
0.000180531
0.000233458
0.000332726
0.000520757
0.000660473
0.000415992
0.000304826
0.000250099
0.000217735
0.000194542
0.000175454
0.000158728
0.000144062
0.000131632
0.000121651
0.00011424
0.000109513
0.000107676
0.000108965
0.000113508
0.000121398
0.000133179
0.000150953
0.000180506
0.000234159
0.000335377
0.00052672
0.000665586
0.000417633
0.000304668
0.000249457
0.000217264
0.000194439
0.000175719
0.000159269
0.000144788
0.00013248
0.000122581
0.000115228
0.000110535
0.000108698
0.000109928
0.000114329
0.000121975
0.00013343
0.000150916
0.000180492
0.000234887
0.000337937
0.000531892
0.000670075
0.000419316
0.000304625
0.000248897
0.00021684
0.000194379
0.000176027
0.000159861
0.000145574
0.000133392
0.000123576
0.000116279
0.000111616
0.000109769
0.000110926
0.000115168
0.00012255
0.000133667
0.000150872
0.000180502
0.000235657
0.00034038
0.000536107
0.000673838
0.000421036
0.000304713
0.000248424
0.000216455
0.000194335
0.00017635
0.000160478
0.000146398
0.000134353
0.000124627
0.000117385
0.000112746
0.000110878
0.000111946
0.000116006
0.000123107
0.000133878
0.00015082
0.000180548
0.000236482
0.000342682
0.000539179
0.000676816
0.000422794
0.000304947
0.000248044
0.000216091
0.000194275
0.000176649
0.000161084
0.000147233
0.000135342
0.000125714
0.00011853
0.000113909
0.000112006
0.000112964
0.00011682
0.000123621
0.000134047
0.000150759
0.000180641
0.000237375
0.000344825
0.000540972
0.000679002
0.000424592
0.00030534
0.000247758
0.00021573
0.000194163
0.000176881
0.000161639
0.00014804
0.000136327
0.000126813
0.000119691
0.000115082
0.000113127
0.000113949
0.000117577
0.000124064
0.000134155
0.000150682
0.000180791
0.000238353
0.000346802
0.00054143
0.000680421
0.000426442
0.000305909
0.000247565
0.00021535
0.000193958
0.000176999
0.000162092
0.000148775
0.00013727
0.00012789
0.000120836
0.00011623
0.000114202
0.000114862
0.000118235
0.000124397
0.000134173
0.000150577
0.000181
0.000239426
0.000348615
0.000540554
0.000681145
0.000428352
0.000306662
0.000247462
0.000214929
0.000193621
0.000176951
0.000162389
0.000149386
0.000138121
0.000128898
0.000121921
0.000117311
0.00011519
0.000115659
0.000118753
0.000124586
0.00013408
0.000150437
0.000181275
0.000240607
0.000350274
0.000538309
0.000681253
0.000430332
0.000307603
0.000247447
0.000214453
0.000193124
0.0001767
0.000162489
0.00014983
0.00013884
0.000129801
0.00012291
0.000118288
0.000116051
0.0001163
0.000119092
0.000124599
0.000133855
0.000150255
0.00018162
0.000241907
0.000351763
0.000534563
0.00068083