/*--------------------------------*- C++ -*----------------------------------*\
| =========                 |                                                 |
| \\      /  F ield         | OpenFOAM: The Open Source CFD Toolbox           |
|  \\    /   O peration     | Version:  2212                                  |
|   \\  /    A nd           | Website:  www.openfoam.com                      |
|    \\/     M anipulation  |                                                 |
\*---------------------------------------------------------------------------*/
FoamFile
{
    version     2.0;
    format      ascii;
    arch        "LSB;label=32;scalar=64";
    class       surfaceScalarField;
    location    "0.00658";
    object      phi;
}
// * * * * * * * * * * * * * * * * * * * * * * * * * * * * * * * * * * * * * //

dimensions      [1 0 -1 0 0 0 0];

oriented        oriented;

internalField   nonuniform List<scalar> 
5190
(
2.42644e-05
1.10618e-05
-2.94566e-05
-1.33548e-05
0.0011778
0.00168372
-0.00151676
-0.00130286
-6.96279e-05
-0.00187582
-4.60544e-05
0.00201215
-4.30056e-06
3.59101e-06
-4.52783e-07
1.47373e-06
0.00196862
0.000357267
-0.0018326
-0.000327031
-0.00126076
0.0015137
0.00133578
-0.00150958
-5.98028e-07
2.39639e-06
5.56209e-07
-2.0533e-06
-5.13041e-08
1.03515e-07
-3.60354e-06
3.84225e-06
4.27189e-06
-4.11472e-06
-9.0685e-08
1.73612e-07
4.41751e-06
-2.79777e-07
3.25767e-07
-4.04951e-08
-1.72618e-07
-3.73396e-06
-3.7295e-06
-5.29799e-07
1.59217e-07
3.43094e-06
-1.5489e-07
-4.05917e-06
-6.61048e-08
7.15365e-07
-1.29101e-06
3.98648e-06
-4.91814e-06
-2.89505e-06
9.47188e-07
2.46892e-06
-1.25562e-06
-2.42402e-06
1.79178e-06
2.09313e-06
-2.0938e-06
-1.51995e-06
2.64815e-06
7.2201e-07
-2.63247e-06
3.82427e-06
-3.14244e-07
2.56908e-08
-3.30394e-06
4.01966e-06
-4.15926e-07
4.40346e-07
-6.78169e-07
1.02896e-06
3.83536e-06
4.37989e-06
1.57757e-07
-3.16374e-07
-4.20266e-06
-4.13827e-06
3.87673e-06
-4.45968e-08
-2.55029e-07
-4.32783e-06
-1.11946e-07
-7.96259e-08
-7.7381e-08
-4.61372e-08
-3.49447e-06
-6.51317e-07
-4.59805e-07
-3.42865e-06
3.82684e-06
-4.69636e-07
4.20116e-06
-3.72961e-06
-2.09425e-07
-6.49886e-07
1.70968e-06
-4.02826e-06
3.9191e-06
-3.63931e-07
-3.74134e-07
-4.04002e-06
4.39323e-06
-9.41432e-08
-2.79365e-07
3.19848e-07
-4.42614e-06
4.28942e-06
-1.70139e-07
-1.34814e-07
-1.96829e-07
3.50224e-06
4.43312e-07
-6.54059e-07
-3.77512e-06
3.22301e-06
4.644e-07
-8.14131e-07
6.51604e-07
2.94277e-06
-1.02428e-06
3.31267e-06
-3.612e-06
3.71876e-07
-9.36133e-07
2.69769e-07
3.31956e-06
3.87892e-06
-3.88338e-06
1.07384e-07
2.35944e-07
4.03921e-06
-4.39552e-06
-4.56679e-07
7.57779e-07
-1.29149e-07
1.16841e-07
0.000997149
0.00147081
-0.00154727
-0.000840511
-3.99457e-07
4.98358e-07
-3.92533e-06
-5.55111e-08
8.09372e-08
-1.97212e-08
-3.09767e-06
3.4084e-06
-4.60556e-08
3.71432e-06
-3.51247e-06
-2.13974e-07
1.05315e-07
-1.11141e-07
-1.36886e-06
2.72747e-06
2.43054e-06
-2.0613e-06
-2.61137e-06
-3.60565e-06
2.03104e-07
3.86929e-06
-3.3607e-06
-1.18359e-07
1.79935e-07
3.97986e-06
-4.20402e-06
-1.77231e-07
3.68175e-06
-1.97547e-08
-3.38516e-08
-3.42665e-06
-3.38238e-08
-3.16906e-07
2.07275e-07
-3.33828e-06
-3.63972e-06
3.81906e-06
-3.56791e-07
-4.32958e-07
-3.46458e-06
-3.885e-06
4.17824e-06
3.14158e-07
-4.31919e-08
-4.87955e-06
4.41317e-06
6.25294e-08
3.9587e-07
-4.18579e-06
3.904e-06
-3.30346e-07
-1.30655e-07
-3.56454e-06
3.27244e-06
-9.73124e-07
-6.21384e-07
5.42219e-08
-5.42217e-07
7.74931e-07
-1.56989e-07
-1.1478e-06
2.99071e-06
2.68535e-06
-2.99712e-06
-1.45027e-06
-1.78885e-06
3.57426e-06
-5.30647e-07
-4.43166e-06
-1.03521e-06
5.43282e-07
3.08285e-06
3.15598e-07
-8.66265e-08
2.17521e-07
-3.18024e-07
3.55916e-06
-4.97228e-06
7.92218e-07
0.000494168
-0.00187214
-0.000381965
0.00188399
-3.75418e-06
3.83045e-06
-3.14452e-07
3.85853e-06
-3.71322e-06
-1.52679e-07
-3.22236e-07
-3.9313e-06
4.07587e-06
-2.84868e-07
-2.42285e-07
-4.16232e-06
4.37964e-06
-1.36982e-07
-1.61498e-07
-4.43561e-06
4.37322e-06
-1.31026e-07
-9.01709e-08
-2.04744e-07
3.59027e-06
-3.82655e-06
9.05547e-08
7.66429e-08
3.22959e-06
4.10394e-06
-4.25943e-06
-3.96892e-08
7.38044e-08
4.35735e-06
-4.46127e-06
-4.24586e-07
-2.10958e-07
4.44951e-06
-4.3917e-06
-2.52683e-07
-3.82735e-07
4.17674e-06
-4.00762e-06
-1.54837e-07
-2.10649e-07
-2.56908e-07
-1.61926e-07
1.78824e-07
-3.14828e-06
3.40675e-06
-3.22395e-06
3.39935e-06
1.94514e-07
1.72219e-06
-2.63616e-06
1.56299e-06
-1.42506e-06
1.31507e-06
2.12831e-06
1.50395e-06
2.39278e-06
-3.50516e-06
-7.46939e-08
-3.74047e-06
3.92243e-06
-4.66466e-07
-3.54774e-06
-4.97734e-07
1.53886e-06
-2.60928e-06
-2.52638e-06
2.78429e-06
9.22394e-07
-3.1076e-06
2.19102e-06
1.30931e-06
2.1185e-06
1.76471e-06
2.85824e-06
-3.20108e-06
4.04189e-07
-5.09657e-07
1.03904e-06
-1.58525e-06
2.47335e-06
-2.50971e-06
2.78428e-06
6.31262e-07
-3.12077e-06
3.3796e-06
2.08482e-07
2.07328e-07
-2.36511e-07
-2.95878e-06
2.02477e-07
-2.89673e-06
-1.63363e-06
1.65295e-06
-2.68301e-06
1.86341e-06
-1.05552e-06
4.2354e-06
8.99989e-08
-4.5153e-06
-2.29552e-06
-2.53687e-06
-0.0019485
-0.000501179
0.00131184
0.00126737
-8.82031e-07
5.0941e-07
3.01205e-06
2.66522e-06
2.54448e-06
7.10471e-08
-1.31386e-07
-3.29183e-06
0.0019844
-0.00173143
-0.000298984
-3.18403e-06
-1.4637e-05
-1.18758e-05
1.24411e-05
1.0048e-05
-6.54743e-06
4.44041e-06
-1.1046e-06
-4.00009e-06
3.96329e-06
-1.3006e-07
-1.08982e-07
-3.73086e-06
-4.08885e-06
4.31672e-06
1.73639e-07
2.73016e-08
-4.49672e-06
4.35642e-06
-4.5882e-08
1.64891e-07
-4.05684e-06
3.67152e-06
-5.79591e-07
-2.82161e-07
-3.21146e-06
2.79628e-06
-1.37406e-06
-9.09435e-07
-1.87964e-06
2.48069e-06
-2.79252e-06
-1.88227e-06
-2.26814e-06
3.23681e-06
-9.39389e-07
-3.71361e-06
-1.43608e-06
-2.14963e-06
-3.84241e-06
2.29353e-06
0.00173223
-0.00182092
0.00179163
-0.0018486
-3.66228e-06
2.41939e-07
3.94301e-06
2.324e-07
-3.69514e-06
3.80953e-06
-1.37726e-07
3.57633e-06
-1.42816e-07
-3.43216e-06
-7.54913e-08
-3.83631e-06
3.90238e-06
-1.95167e-07
-1.8998e-07
-4.00036e-06
4.05091e-06
-1.25459e-07
-1.36993e-07
-4.25772e-06
4.31358e-06
-8.05034e-10
-1.61029e-07
-4.4586e-06
4.40133e-06
1.55487e-08
-7.98738e-08
-4.31404e-06
4.1023e-06
-9.70978e-08
-1.27271e-07
-3.90476e-06
3.62994e-06
6.06031e-08
-9.14651e-08
4.47857e-06
-5.46707e-06
-1.61828e-06
2.22414e-07
3.35771e-06
3.69777e-06
-4.02799e-06
-4.22544e-08
1.3201e-07
4.22748e-06
-4.38529e-06
-2.0328e-07
-1.41346e-07
4.4259e-06
-4.57015e-06
-4.05279e-07
-3.89384e-07
4.57749e-06
-4.46327e-06
-3.7209e-07
-4.28704e-07
4.30348e-06
-4.09468e-06
-3.40464e-07
-3.55422e-07
-3.89666e-07
-4.02306e-07
3.03043e-07
-3.16377e-06
4.7632e-07
-3.32042e-06
-4.95224e-07
-3.27616e-06
-3.05992e-06
2.29357e-06
5.79227e-07
-2.01374e-06
-5.76269e-07
-4.07187e-07
2.0004e-07
2.9998e-06
-2.54283e-06
-2.21678e-06
3.16102e-06
-1.08066e-06
-2.0698e-06
-3.44776e-06
5.7671e-07
3.12107e-06
-3.75742e-06
3.61706e-06
6.22766e-08
1.66772e-06
1.83418e-06
-1.18122e-06
2.58484e-06
7.57203e-07
1.88421e-06
1.99092e-06
3.5762e-06
-3.72284e-06
1.73588e-07
1.18068e-06
-1.65228e-06
2.28464e-06
8.59669e-07
2.51896e-06
-3.13988e-06
3.43592e-06
2.02591e-07
-2.86554e-06
1.77248e-07
2.64014e-06
9.13193e-07
2.36348e-06
1.33869e-06
-3.1683e-07
1.75554e-07
-2.99343e-06
-5.1846e-07
-3.06099e-06
0.000391532
-7.12606e-08
-0.000344261
-2.96826e-06
-1.03472e-07
0.000441688
-2.82069e-06
-0.000391489
0.000441645
-3.03626e-06
-0.000344215
-3.10307e-06
-4.94198e-07
5.29405e-07
-3.06524e-06
-3.32711e-06
3.5785e-06
-4.36159e-07
-3.05013e-06
-4.10932e-07
-3.02239e-06
2.10409e-06
1.5597e-07
2.12187e-07
-8.02984e-07
-4.03722e-06
6.31053e-07
2.47412e-06
-5.72958e-07
-2.67828e-06
6.94134e-08
3.041e-06
3.62622e-05
3.79712e-05
-4.05188e-05
-4.34995e-05
0.00147771
0.000953323
-0.00150814
-0.00084523
0.00183357
0.000453456
-0.000411663
-0.00175973
2.25795e-06
2.10901e-06
0.00113793
0.00200926
-2.8893e-06
4.95866e-08
6.43112e-06
-1.05861e-05
-1.0368e-05
1.11212e-05
-3.38739e-06
3.71814e-06
-4.79939e-08
5.55175e-08
-2.00163e-07
1.25066e-07
-3.93322e-06
4.04906e-06
-1.93235e-08
-2.16932e-08
-4.17643e-06
4.30691e-06
5.02982e-08
2.52227e-08
-4.34407e-06
4.16992e-06
-1.90464e-07
-1.16419e-08
-3.84114e-06
3.40273e-06
-8.0032e-07
-4.6384e-07
-2.94741e-06
2.42757e-06
-1.67561e-06
-1.20459e-06
-1.94305e-06
1.45591e-06
-2.99003e-06
-2.27067e-06
-3.54868e-06
2.21246e-06
-2.46327e-06
-2.34774e-06
-2.83427e-06
2.86284e-06
-3.35163e-06
-1.29389e-06
-1.83427e-06
3.76116e-06
-4.03112e-06
-3.6797e-07
-4.01333e-08
-7.87612e-07
3.80204e-07
4.16801e-06
-4.12731e-06
4.01941e-08
-2.6975e-07
-1.24892e-07
-1.85567e-07
3.96742e-06
-3.73645e-06
2.03254e-07
1.41712e-07
-2.71642e-07
2.1308e-07
0.000494971
-1.66523e-07
-2.88281e-06
0.000551654
-2.02881e-07
-2.96053e-06
0.000612144
-2.46907e-07
-3.20649e-06
0.000676986
-2.39311e-07
-3.44818e-06
0.000746149
2.3672e-07
-3.63413e-06
0.000820813
1.40037e-06
-4.81603e-06
0.00090304
3.18814e-06
-7.59851e-06
0.000992328
7.4056e-06
-1.10126e-05
0.00109188
1.58711e-05
-1.97868e-05
2.57495e-05
0.00120632
-3.30438e-05
0.00120732
-0.00109034
1.65072e-05
0.00133823
3.77504e-05
-5.00213e-05
5.20514e-05
0.00149114
-7.28531e-05
-0.00134192
0.00150004
2.72856e-05
2.35046e-05
0.000988821
-0.000901016
5.44077e-06
1.03029e-05
0.000820441
-0.000745563
-2.29387e-06
4.39585e-07
0.000676312
-0.000611786
-3.64889e-06
-3.23114e-06
0.000551512
-0.000494883
-3.32575e-06
-3.47127e-06
-3.1648e-06
-3.69542e-06
3.81077e-06
-1.52843e-07
-8.31366e-08
-3.88709e-06
3.97227e-06
-1.42478e-07
-1.52513e-07
-4.07543e-06
4.15318e-06
-2.94145e-08
-7.83819e-08
-4.19318e-06
4.32371e-06
4.04927e-08
-2.32259e-08
-4.40182e-06
4.44916e-06
9.60832e-08
3.11075e-09
-4.33535e-06
4.21555e-06
3.20183e-08
6.61232e-08
-4.0251e-06
3.80079e-06
9.60129e-08
1.83438e-08
2.86895e-05
-3.19398e-05
3.1266e-05
2.15841e-07
3.5025e-06
2.72098e-07
-6.15079e-07
-3.25786e-06
2.65509e-06
-2.93773e-06
6.75584e-07
1.09479e-06
-1.44563e-06
2.20665e-06
-2.48306e-06
-1.39947e-06
1.62187e-06
1.72422e-06
7.33527e-07
3.21693e-06
-3.46596e-06
2.29513e-07
4.73428e-07
3.76828e-06
-4.08403e-06
-1.40358e-07
-2.70138e-09
4.33916e-06
-4.46651e-06
-3.67396e-07
-2.5352e-07
4.61006e-06
-4.6534e-06
-4.78745e-07
-4.49446e-07
4.62554e-06
-4.51343e-06
-4.63189e-07
-4.94673e-07
4.36065e-06
-4.1778e-06
-4.33113e-07
-4.49868e-07
3.99241e-06
-3.79724e-06
-4.78509e-07
-4.44799e-07
-4.71372e-07
-4.86318e-07
4.11512e-07
-2.96337e-06
-3.03784e-06
-3.29188e-07
2.59205e-07
-2.76673e-06
-2.8757e-06
-2.16192e-07
1.77203e-07
-2.62656e-06
-2.68787e-06
1.81834e-05
2.27647e-05
-2.52189e-05
-2.18916e-05
5.2335e-05
-6.26626e-05
2.28664e-05
-2.30158e-05
2.15824e-06
1.4547e-06
-1.69036e-06
2.16835e-06
1.19072e-06
-1.83449e-06
1.96142e-06
2.15159e-06
1.53186e-06
-3.0378e-06
-9.91158e-07
-6.73311e-07
-5.71288e-06
7.19427e-07
-5.03241e-08
-3.15796e-06
-0.000300007
-3.23314e-06
-0.000299971
3.57042e-06
4.10317e-08
-3.26923e-06
0.000174647
0.000103759
-7.28747e-05
-0.000242954
0.00120402
-0.00109123
-4.00719e-05
0.00132928
-5.77921e-05
3.06619e-06
4.99214e-07
-0.00209727
-0.000453641
0.000841441
0.00188638
-1.70516e-06
1.78464e-06
-3.03332e-06
2.80863e-06
7.13015e-07
-1.62871e-07
6.13524e-08
-2.24041e-06
-9.89431e-08
-2.08149e-06
-0.000300173
0.000344379
-6.70112e-06
-3.46776e-06
-1.96976e-08
-0.000258658
-7.23808e-06
-0.000258839
-5.28699e-07
5.53457e-07
-2.74586e-06
-4.37368e-07
-2.76303e-06
-3.34589e-06
3.57945e-06
-3.07894e-07
-3.06542e-06
-3.13278e-07
-7.27943e-05
0.00170225
2.16172e-05
0.00168828
-0.000122807
-8.42768e-07
1.93035e-06
5.53518e-07
-1.27828e-06
1.67854e-06
-1.81649e-06
4.08327e-06
-8.31119e-07
2.48126e-07
-1.1213e-06
1.53185e-06
8.91874e-07
-1.65537e-06
-1.4669e-06
1.34155e-06
0.00192736
0.000514819
-0.000500359
-4.61709e-06
-7.35599e-06
4.49005e-06
7.40239e-06
-1.09768e-05
6.73493e-06
8.28894e-07
3.48164e-07
-3.09834e-07
-4.76632e-07
-2.59312e-06
2.86374e-06
1.20939e-07
1.94574e-07
-2.5377e-07
-2.40135e-06
1.30253e-07
-2.34691e-06
1.79378e-06
1.74202e-06
5.76488e-07
-2.69237e-06
-6.93228e-07
-4.32353e-07
2.91834e-07
-2.6775e-06
-2.71722e-06
-1.64412e-07
5.06929e-08
-2.49316e-06
2.77942e-06
-2.5962e-06
-2.37704e-06
-3.32592e-06
3.63257e-06
-2.82293e-08
-1.57048e-08
-3.88148e-06
4.05808e-06
-2.22985e-08
-4.53045e-09
-4.17879e-06
4.24182e-06
-6.37751e-08
-2.63578e-08
-4.19525e-06
3.97174e-06
-3.3972e-07
-1.67702e-07
-3.59221e-06
3.09997e-06
-9.87341e-07
-6.30556e-07
-2.56868e-06
1.99575e-06
-1.94456e-06
-1.44135e-06
-1.46738e-06
9.08383e-07
-3.55615e-06
-2.6912e-06
-4.69423e-06
3.43901e-06
-4.52989e-07
-5.97382e-06
-8.76786e-06
5.20019e-06
1.26484e-06
-1.52271e-06
-4.32818e-06
-5.42991e-06
1.0809e-06
1.7097e-06
-2.03338e-06
-2.65293e-06
-3.39682e-06
2.46208e-06
-2.96329e-06
-1.49394e-06
-2.05828e-06
3.44046e-06
-3.8357e-06
-6.01322e-07
-1.0137e-06
4.0476e-06
-4.10658e-06
-1.66418e-07
-3.86529e-07
3.98095e-06
-3.77206e-06
9.18031e-08
-4.54618e-08
3.46827e-06
-3.15711e-06
1.39303e-07
1.11588e-07
1.29387e-07
-0.000391524
0.000441497
-5.97497e-06
-6.32847e-06
-0.000494596
0.000551275
-5.97e-06
-5.93172e-06
-0.000611722
0.000676728
-6.41398e-06
-6.1037e-06
-0.00074667
0.000821679
-7.62761e-06
-6.76986e-06
-0.000902225
0.000992594
-1.58392e-05
-9.87689e-06
-2.37246e-05
-0.000300135
0.000344309
-6.73777e-06
3.48972e-06
-7.2469e-06
-0.000258821
-0.000258635
-3.91499e-05
-0.000174858
-0.00168261
-0.000141701
6.39602e-05
1.31497e-06
-9.32591e-05
1.56315e-05
0.00149723
-0.00134617
3.66884e-06
-2.31577e-05
0.00121364
-0.0010963
6.16661e-06
8.70851e-06
0.000992111
-0.00090017
1.40884e-07
2.41221e-06
0.000818338
-0.000745398
-2.97168e-06
-2.6916e-06
0.000675978
-0.00061121
-6.53284e-06
-5.89233e-06
0.000550858
-0.000494361
-6.1924e-06
-6.30592e-06
0.000441333
-0.000391431
-6.12666e-06
-6.15045e-06
-6.43718e-06
-3.74292e-06
3.8653e-06
-1.85565e-07
-1.36306e-07
-3.96148e-06
4.04535e-06
-1.29059e-07
-1.63566e-07
-4.13236e-06
4.25493e-06
-2.13669e-08
-4.94379e-08
-4.33975e-06
4.45489e-06
5.58301e-08
2.73202e-08
-4.42425e-06
4.42445e-06
1.97065e-07
1.53132e-07
-4.36236e-06
4.26756e-06
1.62577e-07
2.02741e-07
-4.09676e-06
3.9067e-06
2.14783e-07
1.74874e-07
-3.68227e-06
3.43083e-06
2.98778e-07
-2.66832e-07
2.99607e-07
-3.02622e-06
2.44938e-06
3.8908e-07
3.7907e-07
8.14618e-07
-9.14245e-07
1.5568e-06
-2.08358e-06
1.71693e-06
8.06987e-07
5.55936e-07
8.04694e-07
1.36975e-06
-1.12416e-06
1.58963e-06
-1.81672e-06
8.70968e-07
9.48073e-07
6.38319e-07
-1.04883e-06
-8.46534e-07
-1.01732e-06
7.89747e-07
1.04605e-06
8.22903e-07
-4.00362e-07
1.88057e-06
-2.68219e-06
4.90746e-07
7.85893e-08
7.85782e-07
2.82918e-06
-3.04037e-06
5.8074e-07
5.96788e-07
3.31255e-06
-3.64276e-06
2.21575e-07
4.21264e-07
3.97488e-06
-4.23525e-06
-1.97155e-07
-2.58751e-09
4.44372e-06
-4.60695e-06
-3.86424e-07
-3.07658e-07
4.69346e-06
-4.70356e-06
-4.59501e-07
-4.49227e-07
4.64858e-06
-4.53068e-06
-4.25116e-07
-4.56909e-07
4.38097e-06
-4.20595e-06
-3.81235e-07
-4.03034e-07
4.01666e-06
-3.8129e-06
-3.91578e-07
-3.77344e-07
-3.77768e-07
-5.43386e-07
4.80612e-07
-2.7033e-06
-2.75064e-06
-4.07546e-07
3.2719e-07
-2.55885e-06
-2.65456e-06
-2.47436e-06
0.00147429
0.00154656
-3.42596e-05
-7.24082e-06
4.70068e-06
2.94622e-05
0.00147279
-8.72768e-05
2.57722e-06
1.01029e-06
-2.06669e-06
1.6723e-06
-2.09575e-06
1.57663e-06
2.46989e-06
1.10422e-06
-2.01671e-06
7.73345e-08
2.03142e-06
-0.00165687
-0.00154021
0.00158949
0.00167561
7.24766e-06
-6.87801e-06
7.54822e-07
-1.28591e-06
1.39152e-06
-0.000300539
0.000344639
-1.04644e-05
-0.000259263
-1.12993e-05
-6.30743e-07
5.84312e-07
-2.39266e-06
4.18455e-05
-1.1434e-05
1.4364e-05
-2.84022e-06
-8.35537e-07
2.90273e-06
-2.62251e-06
-6.65351e-07
-6.14091e-07
-2.37494e-06
-2.96673e-07
-2.83191e-06
-2.57062e-06
2.85884e-06
4.47072e-08
-2.30626e-06
5.46204e-08
0.00186835
-0.000192105
-6.77948e-06
9.59924e-06
5.95751e-06
-1.24377e-05
1.12258e-05
-1.4772e-05
-6.23137e-06
-0.00167785
0.0015757
2.28505e-06
-2.02256e-06
0.0011958
-0.00108932
-4.36425e-05
0.00131693
-6.49326e-05
-1.51386e-05
-1.25478e-05
1.32635e-05
-1.83043e-05
8.90072e-06
-1.07886e-05
-1.58635e-05
1.45161e-05
-1.60959e-05
-1.80751e-06
1.39695e-06
3.64647e-06
-1.66637e-07
3.16341e-06
-4.15381e-08
-1.8799e-06
1.39147e-06
-7.5547e-06
8.07266e-06
-0.000300459
0.000344532
-1.04922e-05
-0.000259199
-1.13034e-05
3.50335e-05
-4.01041e-05
2.61566e-05
-2.87674e-05
-0.00200898
0.000343149
0.00228643
-0.00189137
0.000450978
-1.12354e-05
9.83474e-06
5.03112e-06
-2.18957e-06
-5.15807e-06
-1.31006e-06
1.43635e-06
-9.34074e-07
1.32402e-06
9.71481e-07
1.21587e-06
-1.05813e-06
-8.64073e-07
4.05873e-07
1.10848e-06
3.89039e-07
-9.75772e-07
-1.63885e-06
1.13827e-06
4.22618e-06
-1.6653e-06
7.54006e-06
7.91943e-06
-1.0037e-05
-8.46365e-06
0.0016135
-0.000121983
9.56513e-07
2.52085e-07
-5.58841e-07
-3.44285e-07
-8.51081e-06
4.77103e-06
7.75997e-06
-3.36621e-05
2.0745e-05
2.03304e-05
-1.21753e-05
1.33814e-06
1.36218e-06
-5.00269e-07
3.98681e-07
-2.3745e-06
-2.40431e-06
-2.949e-07
1.94566e-07
-2.22306e-06
-2.31227e-06
-1.1428e-07
6.2404e-08
-2.01457e-06
-2.12645e-06
-6.30448e-08
6.89871e-08
-1.84107e-06
-1.90598e-06
1.98052e-06
-1.76652e-06
4.90266e-08
-2.13013e-06
3.10417e-06
3.68736e-07
-1.0548e-06
1.47162e-07
-3.29879e-06
3.58972e-06
-9.86499e-09
1.46611e-07
-3.84793e-06
4.02828e-06
-6.92929e-08
-3.02335e-08
-4.13056e-06
4.14639e-06
-1.6497e-07
-9.86117e-08
-4.02888e-06
3.76002e-06
-4.86968e-07
-2.87846e-07
-3.30626e-06
2.74912e-06
-1.16593e-06
-7.71089e-07
-2.12035e-06
1.47843e-06
-2.23445e-06
-1.6448e-06
-7.48619e-07
-6.06485e-08
-4.08226e-06
-3.06526e-06
1.05631e-06
-2.01413e-06
-7.14565e-06
-5.48324e-06
-9.25935e-06
-2.97383e-06
-3.65583e-06
2.14364e-06
-8.41797e-06
6.71325e-06
-1.02891e-05
-8.62676e-07
-2.26893e-07
-4.74869e-06
-6.46096e-06
9.74223e-07
-1.54335e-06
-2.74751e-06
-3.58469e-06
2.09355e-06
-2.6405e-06
-1.58859e-06
-2.10996e-06
3.17755e-06
-3.61487e-06
-7.06053e-07
-1.10818e-06
3.92669e-06
-4.02933e-06
-2.73426e-07
-4.65328e-07
3.95297e-06
-3.73639e-06
-4.75084e-08
-1.70487e-07
3.4799e-06
-3.17513e-06
5.17083e-08
2.09705e-08
4.09358e-08
-0.000391632
0.000441421
-9.2946e-06
-9.91134e-06
-0.000494457
0.00055107
-8.78166e-06
-9.03634e-06
-0.000611653
0.0006766
-8.8522e-06
-8.75684e-06
-0.000746364
0.000821757
-1.04337e-05
-9.24444e-06
-0.000903363
0.000992019
-1.91455e-05
-1.3001e-05
-2.77893e-05
1.4804e-08
-3.7387e-06
-0.000220189
3.68881e-06
-7.56444e-06
-0.000220351
-0.000220176
4.28476e-07
-1.32634e-06
7.61479e-06
-0.000220808
-1.17873e-05
-0.000220374
0.00162992
-0.00161062
-3.91596e-05
0.000122768
0.000262021
-0.000415999
0.00177637
-0.0016554
-0.000129145
-0.000219343
0.00149301
-0.00134463
-2.03567e-05
-5.46955e-05
0.00121313
-0.00109658
-5.59425e-06
-7.92498e-06
0.000995033
-0.000902667
-6.00512e-06
-4.23579e-06
0.000820563
-0.000744628
-6.19358e-06
-5.94394e-06
0.000675275
-0.000611045
-8.40576e-06
-8.07085e-06
0.000550581
-0.000494107
-8.91338e-06
-8.93294e-06
0.000441184
-0.00039146
-9.40301e-06
-9.20354e-06
-9.98228e-06
-2.84726e-06
2.84668e-06
-6.28522e-07
2.61594e-06
-2.3304e-06
-6.27639e-07
-6.45408e-07
-3.14478e-06
3.57389e-06
-2.15165e-07
-3.87734e-07
2.81556e-07
-3.7951e-06
3.93753e-06
-2.24524e-07
-2.13894e-07
-4.04772e-06
4.14867e-06
-1.57908e-07
-1.95973e-07
-4.26099e-06
4.35475e-06
-2.86033e-08
-8.3196e-08
-4.42723e-06
4.47384e-06
8.69506e-08
4.25041e-08
-4.50046e-06
4.49485e-06
2.3854e-07
1.85508e-07
-4.43985e-06
4.32045e-06
2.70604e-07
2.70855e-07
-4.15063e-06
3.95331e-06
3.39087e-07
3.047e-07
-3.74434e-06
3.45948e-06
4.20817e-07
3.98466e-07
-3.13874e-06
2.71534e-06
5.39491e-07
4.86236e-07
-2.29233e-06
1.89415e-06
8.54e-07
6.59852e-07
1.05119e-06
9.57016e-07
-9.96071e-07
-1.48499e-06
1.06573e-06
1.13128e-06
1.02099e-06
6.69661e-07
-1.12477e-06
1.22397e-06
2.69321e-07
-1.12831e-06
1.28092e-06
1.14433e-06
8.54161e-08
-9.75088e-07
9.12992e-08
-4.59312e-07
1.3512e-06
-1.18209e-06
1.34075e-06
8.11912e-07
-1.11297e-06
1.23593e-06
1.32802e-06
1.55429e-06
-1.91467e-06
1.13814e-06
1.17079e-06
2.1435e-06
-2.60263e-06
8.12341e-07
9.16379e-07
2.96368e-06
-3.22426e-06
6.10396e-07
7.62529e-07
3.51289e-06
-3.81407e-06
2.70447e-07
4.54924e-07
4.10473e-06
-4.36492e-06
-1.06953e-07
6.31943e-08
4.55666e-06
-4.67948e-06
-2.57889e-07
-2.06571e-07
4.73164e-06
-4.70954e-06
-2.85741e-07
-2.90842e-07
4.63333e-06
-4.51395e-06
-2.4782e-07
-2.71995e-07
4.3719e-06
-4.20861e-06
-2.31426e-07
-2.36277e-07
4.02621e-06
-3.82096e-06
-2.68278e-07
-2.41306e-07
3.58581e-06
-3.31446e-06
-2.30469e-07
-2.7263e-07
3.07735e-06
-3.04096e-06
2.13849e-08
-2.06128e-07
-5.62628e-07
5.10435e-07
-2.42278e-06
-8.73105e-07
-5.40328e-07
5.69874e-07
-2.41271e-06
-2.42142e-06
-5.6751e-07
5.38186e-07
-2.40413e-06
-2.41806e-06
-4.69204e-07
3.91729e-07
-2.31159e-06
-2.37484e-06
-3.11317e-07
2.34478e-07
-2.16981e-06
-2.24183e-06
-1.59155e-07
-2.05211e-06
7.67968e-08
-2.10569e-06
0.00146853
-0.00136935
-0.000342314
0.00191943
-9.58762e-08
-4.01082e-06
1.57896e-05
-2.30347e-05
-1.63136e-05
0.00144484
-8.95386e-05
-3.22439e-05
-7.63435e-05
3.24352e-05
-1.56632e-05
1.74688e-05
-2.24164e-05
9.32685e-06
-3.9583e-06
3.12647e-05
2.24875e-05
1.53407e-05
-3.34497e-05
1.7997e-05
1.772e-05
-1.73781e-05
-2.37199e-06
1.27144e-06
3.03034e-06
5.84561e-07
-2.31043e-07
-1.03777e-06
5.90061e-07
-1.01151e-06
2.79512e-06
5.75112e-07
-2.37466e-06
1.20831e-06
-8.3873e-06
9.39134e-06
7.52869e-06
-1.34311e-05
5.77509e-06
-8.45738e-07
1.9974e-07
-3.96478e-07
1.56483e-06
2.00503e-05
-2.18065e-05
1.94968e-05
-2.37908e-05
6.79426e-06
-1.81188e-05
-5.65632e-06
3.65421e-06
-1.02765e-05
-1.1737e-05
-0.000220754
-0.00194301
0.00224479
0.000142459
-0.00199841
0.000621503
-6.02089e-07
6.23938e-07
-2.05688e-06
2.32459e-06
-6.22419e-07
-1.99652e-06
2.57909e-06
-5.96072e-07
0.00134428
-1.27337e-05
1.20824e-05
4.12292e-06
-5.40324e-07
-1.94408e-06
1.196e-06
8.90811e-07
-1.11239e-06
5.97225e-09
-1.0093e-06
-2.19255e-06
1.03688e-06
3.69381e-06
-7.64185e-07
-6.79701e-06
5.70835e-06
6.75499e-06
1.08049e-07
-1.61075e-07
-1.61882e-06
5.23323e-08
-1.53745e-06
0.00177978
-0.000202597
-2.11302e-07
-4.39863e-05
-0.00156907
0.000806151
0.000133802
-4.22089e-05
0.00185009
0.00144944
-0.000954362
7.67319e-07
-1.73834e-06
1.89257e-05
1.67417e-05
-2.54293e-05
-0.00182956
-0.000122826
0.000416593
0.00219561
-9.72543e-06
8.04771e-06
0.00165006
0.000643658
-4.46994e-06
5.73695e-06
-5.28187e-06
-1.44396e-06
1.1407e-06
2.69008e-07
-1.53851e-06
4.75799e-06
-3.20304e-06
-4.78459e-06
1.11331e-07
-1.9942e-07
-1.79653e-06
-2.00641e-06
2.27056e-06
-1.4497e-08
1.60559e-08
-1.74404e-06
-1.27234e-05
8.21982e-06
-0.000184336
-0.000221356
0.000259733
-1.62394e-05
-1.77434e-05
-0.000184799
0.00158541
-0.000124632
5.3444e-07
-2.07286e-06
-5.95446e-06
4.16741e-06
8.05802e-06
-8.81574e-06
-9.98711e-06
7.49624e-06
1.91005e-05
5.81987e-07
-4.31985e-06
4.22205e-06
-4.15065e-06
-9.44214e-07
9.80151e-07
-9.67997e-07
9.23384e-07
8.72339e-06
-1.10923e-05
-8.54143e-06
-6.18166e-07
6.02227e-07
-2.10214e-06
-2.082e-06
-5.53902e-07
4.86119e-07
-2.07861e-06
-2.10111e-06
-4.08808e-07
3.29059e-07
-1.95902e-06
-2.03188e-06
-2.58757e-07
2.02903e-07
-1.78771e-06
-1.88153e-06
-1.69678e-06
1.97681e-06
-1.72093e-06
3.88566e-10
-2.31997e-06
2.85979e-06
1.24087e-07
5.26062e-08
-3.28955e-06
3.57213e-06
-1.71872e-08
3.62168e-08
-3.82695e-06
3.98415e-06
-1.23051e-07
-8.87095e-08
-4.06285e-06
4.03412e-06
-2.52248e-07
-1.71557e-07
-3.85485e-06
3.49979e-06
-6.10492e-07
-3.93846e-07
-2.97919e-06
2.34831e-06
-1.3369e-06
-9.09705e-07
-1.64339e-06
8.39475e-07
-2.44481e-06
-1.8432e-06
1.16399e-07
-1.27344e-06
-4.41138e-06
-3.34425e-06
2.87348e-06
-4.91453e-06
-7.90913e-06
-5.88019e-06
-1.0356e-05
1.99296e-05
-2.54528e-05
-1.76849e-05
1.75834e-05
-1.35837e-05
-1.759e-06
4.36185e-07
-5.35898e-06
-7.43562e-06
4.9272e-07
-1.17381e-06
-2.92044e-06
-3.8948e-06
1.75598e-06
-2.33644e-06
-1.68941e-06
-2.22238e-06
2.94304e-06
-3.45328e-06
-7.72293e-07
-1.16666e-06
3.80366e-06
-3.96496e-06
-2.81022e-07
-5.05813e-07
3.92796e-06
-3.74704e-06
-9.90613e-08
-1.93482e-07
3.47598e-06
-3.15658e-06
-5.22817e-08
-6.27546e-08
2.84519e-06
-2.54631e-06
-4.62007e-08
-5.08353e-08
-3.31961e-08
-0.000300972
0.000345023
-1.4245e-05
-1.55197e-05
-0.000391904
0.000441521
-1.25189e-05
-1.34515e-05
-0.000494405
0.000550879
-1.14551e-05
-1.19996e-05
-0.000611346
0.000676201
-1.14457e-05
-1.13189e-05
-0.000745997
0.000820969
-1.36501e-05
-1.22957e-05
-0.000902519
0.000989952
-2.21496e-05
-1.69652e-05
-0.00108792
0.00119219
-4.61639e-05
-3.33247e-05
-0.00130729
0.00143063
-8.84677e-05
-6.72883e-05
-8.10677e-06
3.954e-06
-0.00018399
-0.000221236
0.00025961
-1.62169e-05
1.26431e-05
-1.76831e-05
-0.000184688
-0.000184259
3.3423e-08
-4.06153e-06
-0.000183873
-0.000183885
-0.000184025
0.00183441
-0.00173658
-9.26622e-06
0.000228593
0.00171527
-0.00161406
-0.000101674
-0.000113936
0.00147724
-0.00133811
-3.57383e-05
-6.22115e-05
0.00120897
-0.0010941
-1.58116e-05
-2.18242e-05
0.000991958
-0.000902194
-1.08254e-05
-1.24281e-05
0.000819529
-0.000744302
-9.72737e-06
-1.09868e-05
0.000675001
-0.000610296
-1.09012e-05
-1.06878e-05
0.000550369
-0.00049403
-1.14897e-05
-1.10286e-05
0.000441259
-0.000391703
-1.26156e-05
-1.21315e-05
0.000344873
-0.000300841
-1.42973e-05
-1.35249e-05
-1.555e-05
-2.80648e-06
2.97478e-06
-5.57158e-07
-6.09787e-07
-3.24922e-06
3.5645e-06
-3.23109e-07
-4.39136e-07
-3.81449e-06
3.99623e-06
-2.70434e-07
-2.84667e-07
-4.12841e-06
4.24291e-06
-2.07102e-07
-2.34807e-07
-4.3318e-06
4.41173e-06
-5.69628e-08
-1.17392e-07
-4.4896e-06
4.51689e-06
9.12573e-08
1.02559e-08
-4.54413e-06
4.55869e-06
1.95242e-07
1.63281e-07
-4.50396e-06
4.39242e-06
2.8848e-07
2.64352e-07
-4.2295e-06
4.03128e-06
3.85261e-07
3.444e-07
-3.81731e-06
3.54144e-06
4.82659e-07
4.32495e-07
-3.22993e-06
2.85372e-06
6.09063e-07
5.41395e-07
-2.44997e-06
2.04931e-06
8.47183e-07
7.05068e-07
-1.63311e-06
1.19272e-06
1.10617e-06
9.91559e-07
-7.48463e-07
3.10282e-07
1.29771e-06
1.21249e-06
1.01819e-07
-5.03036e-07
1.42234e-06
1.37551e-06
8.84652e-07
-1.27289e-06
1.38381e-06
1.42555e-06
1.63529e-06
-1.95294e-06
1.28003e-06
1.33989e-06
2.32662e-06
-2.70715e-06
9.89107e-07
1.10031e-06
3.02913e-06
-3.36079e-06
7.04828e-07
8.64848e-07
3.67542e-06
-3.97487e-06
3.80734e-07
5.41397e-07
4.24401e-06
-4.46804e-06
8.0071e-08
2.07774e-07
4.6255e-06
-4.71016e-06
-1.58247e-08
1.29799e-08
4.73068e-06
-4.69068e-06
-2.48332e-08
-3.04617e-08
4.61043e-06
-4.50062e-06
-2.64183e-08
-2.25679e-08
4.37335e-06
-4.2259e-06
-7.81868e-08
-4.79234e-08
4.05476e-06
-3.85577e-06
-1.7159e-07
-1.17784e-07
3.62868e-06
-3.36697e-06
-2.02131e-07
-2.03618e-07
3.11495e-06
-1.12607e-08
-2.81492e-06
-1.78713e-07
-5.40465e-07
5.60318e-07
-2.07245e-06
-2.07434e-06
-5.6825e-07
5.53077e-07
-2.06963e-06
-2.07501e-06
-5.09907e-07
4.45221e-07
-2.02189e-06
-2.05894e-06
-3.70237e-07
2.85402e-07
-1.91254e-06
-1.97513e-06
-1.85222e-06
2.30584e-06
-0.00270041
0.00170178
0.00259636
-0.00179278
0.00104525
-0.0022095
-0.00127466
0.00238582
2.24172e-06
-1.93192e-06
-6.04062e-07
1.49991e-05
1.71807e-05
-1.37072e-05
1.43443e-05
1.51519e-05
1.78895e-05
3.38686e-06
1.64297e-07
-2.703e-06
1.01581e-06
5.74081e-07
-1.1091e-06
-3.12524e-07
-1.14945e-06
-2.74585e-06
7.78448e-07
3.24472e-06
-5.91186e-08
-7.46679e-06
7.53753e-06
4.02821e-07
-4.24656e-06
-1.47835e-06
-1.14332e-08
1.13052e-05
-1.38153e-05
4.21637e-05
2.3082e-05
-5.12572e-05
0.00174578
0.000887865
-0.00158643
1.03444e-05
-2.34171e-05
0.00189596
-0.00028727
2.54042e-06
-5.90138e-07
-4.43272e-05
2.05172e-06
-2.05253e-05
1.79313e-05
1.07496e-05
-1.25991e-05
-0.000222099
0.000260452
-2.121e-05
-0.000185435
-2.33173e-05
0.00179429
0.00159108
-0.00221273
0.00168793
3.54262e-07
-1.87228e-06
0.0018106
0.00137148
1.57644e-05
1.60011e-05
-1.11516e-05
1.01034e-05
0.00214692
0.000281774
-0.000468229
4.66187e-06
-1.05861e-06
-2.13713e-06
9.72794e-07
8.45085e-07
-1.5303e-06
-3.4352e-08
-1.60673e-06
-2.42609e-06
6.79492e-07
4.21869e-06
-1.67717e-06
-4.76341e-06
5.35645e-06
-6.10908e-07
6.28102e-07
-1.74981e-06
-5.98277e-07
-1.67806e-06
-1.96536e-06
2.23331e-06
-1.09479e-07
-1.70019e-06
-8.44541e-08
1.56528e-07
-2.49009e-07
-1.52577e-06
6.0847e-08
-1.4784e-06
-0.000222261
0.000260593
-2.11813e-05
-0.000185602
-2.3344e-05
-1.30132e-05
8.36574e-06
-0.000150016
-1.82313e-05
-0.000150362
-2.84925e-05
-6.882e-06
0.00170661
-0.000171009
-5.51716e-07
5.39991e-07
-1.74609e-06
-5.57849e-07
-1.74343e-06
0.00155272
-0.000111732
1.90842e-07
2.72499e-07
-2.48023e-08
-7.40462e-06
7.10093e-06
-1.24129e-07
1.57329e-06
-9.20852e-07
1.62549e-05
-4.19583e-06
5.92539e-07
-1.10471e-06
4.15611e-07
8.20055e-06
-9.69038e-06
-6.30456e-07
6.24757e-07
-1.79526e-06
-1.77005e-06
-5.95416e-07
5.52403e-07
-1.77769e-06
-1.78937e-06
-4.9357e-07
4.32001e-07
-1.68662e-06
-1.74061e-06
-3.65106e-07
3.03473e-07
-1.54281e-06
-1.62019e-06
-2.40839e-07
1.66635e-07
-1.37696e-06
-1.4603e-06
-1.01874e-07
3.56762e-08
-1.24863e-06
-1.30703e-06
1.43532e-06
-1.19527e-06
-4.36808e-08
-1.68747e-06
1.98864e-06
-8.40859e-08
-8.18952e-08
-2.36312e-06
2.81353e-06
-3.18077e-08
-6.28091e-08
-3.20362e-06
3.54121e-06
-1.08592e-07
-6.05697e-08
-3.77518e-06
3.91999e-06
-1.91407e-07
-1.53309e-07
-3.96996e-06
3.90082e-06
-3.50385e-07
-2.48024e-07
-3.66227e-06
3.23914e-06
-7.32059e-07
-5.05824e-07
-2.6313e-06
1.88968e-06
-1.43414e-06
-1.01267e-06
-1.04638e-06
1.35607e-07
-2.60012e-06
-1.94265e-06
1.025e-06
-2.52605e-06
-4.55887e-06
-3.48975e-06
4.52841e-06
-7.50455e-06
-8.11095e-06
-6.16057e-06
-1.05838e-05
-2.78035e-05
2.06625e-05
3.47274e-05
-8.36102e-06
6.08356e-06
-1.25122e-05
-1.69043e-05
-3.6266e-06
1.73373e-06
-5.80886e-06
-8.40773e-06
-4.26568e-07
-5.13934e-07
-2.97568e-06
-4.0685e-06
1.26628e-06
-1.98427e-06
-1.697e-06
-2.24519e-06
2.6429e-06
-3.24314e-06
-8.58767e-07
-1.23826e-06
3.6732e-06
-3.91005e-06
-3.13718e-07
-6.0469e-07
3.91155e-06
-3.75532e-06
-1.2296e-07
-2.24636e-07
3.46298e-06
-3.13137e-06
-1.41804e-07
-1.39285e-07
2.82105e-06
-2.51773e-06
-1.36981e-07
-1.29862e-07
-1.27339e-07
-0.000301814
0.000345811
-1.82756e-05
-2.00914e-05
-0.000392566
0.000442062
-1.59477e-05
-1.71929e-05
-0.000494851
0.0005512
-1.4645e-05
-1.52724e-05
-0.000611346
0.000675717
-1.48369e-05
-1.45328e-05
-0.000744354
0.00081849
-1.78432e-05
-1.57837e-05
-0.000898704
0.000986276
-2.64928e-05
-2.13543e-05
-0.00108015
0.0011867