/*--------------------------------*- C++ -*----------------------------------*\
| =========                 |                                                 |
| \\      /  F ield         | OpenFOAM: The Open Source CFD Toolbox           |
|  \\    /   O peration     | Version:  2212                                  |
|   \\  /    A nd           | Website:  www.openfoam.com                      |
|    \\/     M anipulation  |                                                 |
\*---------------------------------------------------------------------------*/
FoamFile
{
    version     2.0;
    format      ascii;
    arch        "LSB;label=32;scalar=64";
    class       volScalarField;
    location    "0.0446";
    object      epsilon;
}
// * * * * * * * * * * * * * * * * * * * * * * * * * * * * * * * * * * * * * //

dimensions      [0 2 -3 0 0 0 0];

internalField   nonuniform List<scalar> 
31661
(
1.08257e+06
93565.3
111110
100648
92262.4
107116
98247.2
91372.7
104049
96464.2
1.05257e+07
126497
3.31534e+07
260120
534655
652921
626973
804746
178361
617314
679970
676147
2.13261e+06
895766
102039
716562
3.34647e+06
1.41695e+06
124818
110037
816673
1.60705e+06
1.76019e+06
205025
321168
648436
396109
598422
726434
2.12489e+06
1.34381e+06
92948.8
340233
119254
121105
133861
121224
261784
378811
280216
1.05832e+06
479159
140469
270262
526728
152976
151567
145423
551873
153239
136640
140650
149407
78936.9
355788
1.52671e+06
5.70527e+06
498877
437026
377586
123438
297138
252519
213364
181282
154631
133304
116447
103408
93407.1
85874
80264.6
76151.2
73158.5
74361.4
77744.5
82360.4
88577.6
96781
107445
121059
138143
159299
185016
215710
250836
288238
327768
374299
424591
475404
522535
566637
629251
613676
671694
656467
706536
692574
733907
721943
754625
745037
769712
762480
780225
775082
787139
783724
791270
789211
793281
792243
793690
793396
792895
793124
791194
791778
788814
789627
785929
786879
782675
783695
779153
780200
775445
776491
771621
772642
767738
768722
763849
764789
760002
760892
756241
757082
752608
753400
749152
749894
745920
746616
742965
743617
740348
740960
738153
738725
736499
737034
735601
736107
735910
736393
738479
738938
746348
745916
745600
738262
735729
735429
736329
737986
740184
742805
745766
749004
752468
756107
759878
763734
767631
771519
775342
779038
782538
785750
788564
790831
792361
792901
792118
789574
784701
776776
764937
748183
725480
695895
658690
613343
560388
499598
434667
371663
313879
264167
222912
188820
160811
138270
120393
106493
71916.4
71018.9
95818.7
87786.3
81798.8
77370.3
74126.4
69519.2
70178.7
72204.1
74588.7
77871.9
82311
88206.1
95935.7
105849
118291
133599
151951
173564
198471
226515
257201
290034
324459
361859
401842
442885
484324
526654
571208
614359
653833
688344
717349
740744
758795
772087
781313
787231
790535
791814
791554
790140
787872
784979
781644
778005
774165
770212
766220
762247
758353
754586
750996
747633
744556
741828
739528
737778
736792
737016
739476
746730
765222
765213
764822
764247
763466
745357
738230
735785
735531
736466
738156
740394
743058
746070
749364
752886
756586
760418
764333
768279
772200
776029
779694
783101
786130
788630
790402
791184
790633
788303
783631
775930
764388
748158
726455
698726
664818
625132
580406
531792
477392
422626
369883
322356
277772
239079
205556
176905
152873
133007
117057
104489
94757
71787.8
87300
81673.4
77475.7
70508.9
68982.6
70127
68500.1
69356
71487.6
73328.3
75908.3
79426
84133.1
90320.8
98292.3
108367
120820
135768
153296
173212
195198
218800
243552
268999
294757
320813
348166
377171
407878
440558
476309
515572
556312
596780
635382
670636
701551
727319
747860
763384
774495
781882
786250
788262
788469
787324
785188
782338
778992
775313
771428
767438
763427
759470
755626
751953
748505
745345
742539
740169
738353
737302
737445
739776
746759
764630
808725
810854
811665
811394
810198
808093
804956
762272
744947
738130
735816
735631
736617
738360
740654
743383
746468
749839
753443
757223
761129
765103
769083
772997
776757
780257
783360
785887
787609
788221
787330
784436
778922
770062
757080
739220
715943
687061
652897
614352
572864
530065
486947
443007
401156
362015
325549
290499
258070
228053
200536
175618
153834
135338
120018
107522
97531.3
74383.5
89736.5
83776.6
68213.7
70215.2
68607.5
72132.8
68980.1
67862
69369.6
71390.2
72865.9
74984.7
77907.2
81855.8
87087.3
93885.5
102544
113325
126418
141863
159481
178909
199580
220721
241713
261988
281279
299570
317311
335512
354827
375909
399430
426451
457688
492425
529701
568329
606821
643551
676997
706017
729928
748668
762592
772269
778411
781724
782849
782333
780613
778031
774854
771286
767483
763567
759643
755794
752091
748602
745394
742539
740120
738258
737154
737220
739399
746027
763010
804914
903926
912643
918271
920986
921011
918374
913300
905815
895805
800541
760323
743986
737556
735399
735289
736324
738111
740454
743238
746380
749811
753469
757293
761216
765169
769065
772803
776251
779244
781565
782932
782979
781240
777135
769980
759021
743499
722828
696752
665484
629881
591257
551304
511837
474282
439205
406441
376842
349903
324633
300319
276157
251969
227768
203973
181463
160880
142504
126615
113307
102539
79269.4
93912.1
67748.5
68133.5
75912.1
70393.3
68826.2
70532.3
68241.8
67488.7
69726
71626.9
72836
74587.9
77050
80423.1
84936.1
90858
98474.8
108058
119819
133869
150118
168252
187712
207738
227454
246062
262992
278023
291235
302947
313877
324883
336640
349861
365289
383765
406126
432517
462825
496648
533151
571059
608763
644540
676815
704563
727200
744658
757360
765964
771177
773729
774262
773298
771261
768483
765219
761665
757974
754271
750658
747222
744043
741202
738791
736928
735810
735823
737848
744056
759943
799132
892074
1.09107e+06
1.1141e+06
1.13176e+06
1.1438e+06
1.15014e+06
1.15078e+06
1.14565e+06
1.13523e+06
1.11959e+06
1.09901e+06
883180
794555
757209
742009
736017
734023
733972
735030
736828
739180
741971
745113
748533
752158
755911
759702
763433
766977
770175
772818
774639
775289
774325
771187
765221
755676
741800
722976
698821
669453
635628
598567
559966
521649
485238
451926
422359
396541
374082
354757
337772
322044
306544
290455
273089
254128
233784
212674
191474
170979
151996
135322
120996
87218.6
108991
1.07378e+06
99249.7
67473
82094
67873.5
73443.4
68515.2
69435.7
70807
69326.6
67791.7
67279.1
70284.2
72066.4
73084.9
74552.3
76631.7
79524.8
83433.4
88613.9
95345.7
103912
114560
127449
142568
159728
178464
198055
217616
236228
253076
267679
279853
289755
297771
304419
310370
316264
322643
330078
339205
350614
365040
382957
404750
430659
460636
494232
530515
568089
605263
640309
671716
698407
719940
736347
748096
755866
760412
762463
762644
761471
759356
756621
753510
750216
746894
743667
740645
737925
735605
733813
732738
732740
734626
740379
755032
791136
877121
1.06313e+06
1.38979e+06
1.43478e+06
1.47196e+06
1.50067e+06
1.52048e+06
1.53116e+06
1.53258e+06
1.52467e+06
1.50739e+06
1.4815e+06
1.44732e+06
1.40538e+06
1.04434e+06
867928
786652
752481
738531
732998
731153
731127
732159
733909
736198
738910
741947
745226
748655
752125
755509
758655
761363
763374
764353
763872
761396
756276
747769
735136
717711
695051
667239
634790
598859
561136
523418
487429
454453
425313
400376
379514
362311
348214
336642
326860
317999
309234
299705
288752
275766
260442
242899
223462
202953
182635
163309
145456
129815
116525
1.35647e+06
105480
91573
67370.2
78220.2
67787.2
71664.5
68394.3
68711.7
69135.8
67520.6
71392.5
69998.9
67228
1.79291e+06
1.84993e+06
1.89661e+06
1.93227e+06
1.95657e+06
1.96947e+06
1.97091e+06
1.96098e+06
1.93965e+06
1.90699e+06
1.86348e+06
1.80952e+06
1.74578e+06
1.30151e+06
1.01111e+06
850056
776543
745723
733084
728014
726288
726238
727179
728797
730919
733419
736192
739131
742099
744941
747463
749419
750484
750246
748181
743661
735952
724294
707992
686587
660026
628767
593877
556973
519781
484062
451209
422122
397295
376714
360070
346877
336585
328612
322459
317541
313245
309002
304320
298447
290791
280815
268120
252617
234844
215483
195205
175345
156540
139569
124781
96617.2
112369
1.67341e+06
70985
72666.4
73530.4
74774.5
76555.9
79052.3
82439.8
86970.6
92916.9
100562
110177
121967
136019
152229
170248
189471
209061
228072
245597
260915
273636
283696
291332
296960
301064
304156
306741
309240
312065
315558
320142
326332
334613
345472
359416
376946
398478
424233
454119
487621
523731
560987
597670
632020
662554
688311
708866
724365
735321
742449
746531
748284
748329
747170
745208
742752
740043
737271
734594
732141
730037
728412
727456
727503
729281
734573
747911
780694
859122
1.03073e+06
1.33795e+06
1.72638e+06
85617.1
67405.8
102322
89717.4
75335.8
67830.7
70415.3
68407
68241
69098.4
67417
69888.7
67300.5
72113.2
70784.5
1.59398e+06
1.24181e+06
974680
829544
764001
736577
725262
720644
719000
718863
719628
721002
722810
724919
727197
729479
731573
733237
734161
733946
732087
727962
720854
709986
694645
674309
648869
618690
584815
548701
512048
476675
444036
415040
390258
369741
353225
340297
330416
323063
317742
314052
311489
309685
308341
307052
305455
303088
299467
294031
286237
275712
262343
246111
227768
207851
187663
168119
149901
133762
120068
74138.4
75219.9
76757.9
78915.2
81873.9
85850
91097.5
97911
106568
117311
130290
145499
162707
181426
200916
220261
238505
254813
268605
279636
287973
293920
297908
300398
301820
302568
302972
303307
303841
304814
306412
308985
312929
318623
326478
336973
350627
367939
389317
414964
444740
478079
513933
550783
586895
620493
650165
674985
694632
709314
719597
726243
730029
731676
731788
730863
729284
727353
725307
723341
721618
720291
719551
719713
721428
726274
738270
767615
838134
994441
1.28033e+06
1.65159e+06
1.95231e+06
2.03334e+06
2.10454e+06
2.16474e+06
2.2132e+06
2.24974e+06
2.27426e+06
2.2868e+06
2.28754e+06
2.27672e+06
2.25441e+06
2.22049e+06
2.17492e+06
2.11809e+06
2.05038e+06
1.97256e+06
73411.1
1.88591e+06
94368.2
108700
71802.9
81061.2
67536.8
2.02735e+06
2.11372e+06
2.19071e+06
2.25747e+06
2.31328e+06
2.35779e+06
2.39102e+06
2.41308e+06
2.42407e+06
2.42384e+06
2.41211e+06
2.38863e+06
2.35315e+06
2.30552e+06
2.24594e+06
2.17488e+06
2.09325e+06
84394.8
73217.9
67970.8
72965.7
74916.5
75849.3
77190.8
79075.5
81678.3
85196.4
89846.4
95903.6
103685
113442
125373
139547
155844
173897
193081
212549
231349
248570
263501
275727
285160
291986
296565
299331
300712
301084
300766
300018
299040
298015
297082
296447
296224
296525
297607
299785
303384
308759
316329
326574
340007
357132
378336
403797
433360
466426
501888
538220
573630
606415
635169
659051
677824
691763
701495
707797
711459
713187
713578
713110
712155
711005
709906
709062
708676
709047
710762
715199
725871
751774
814310
954928
1.21822e+06
1.57019e+06
1.86281e+06
2.00247e+06
99690.7
88197.1
69567.1
68528.4
67974.8
69179.1
67448.1
69914
67457.5
70741.2
71675.1
74303.8
72732.2
76714.6
75311.1
1.93285e+06
1.79214e+06
1.5093e+06
1.17884e+06
935745
806512
748848
724772
714757
710554
708940
708641
709116
710090
711386
712842
714259
715396
715956
715554
713702
709796
703122
692905
678397
659041
634631
605500
572553
537277
501292
466423
434026
405248
380585
360168
343754
330991
321295
314186
309194
305911
303988
303076
302715
302825
303365
303898
304244
304123
303210
301080
297278
291293
282678
271053
256406
239266
220240
200035
179823
160874
143630
128528
115993
2.0542e+06
92568.7
105667
236923
1.96108e+06
77644.9
67743.8
2.13895e+06
2.21429e+06
2.27949e+06
2.33404e+06
2.37761e+06
2.41019e+06
2.43192e+06
2.44282e+06
2.44269e+06
2.43127e+06
2.40835e+06
2.37355e+06
2.32672e+06
2.26795e+06
2.19771e+06
2.11686e+06
2.02661e+06
80355.3
71716.1
68184.4
77506.9
76655.5
77843
79497.3
81800.9
84940.7
89099.9
94526.3
101500
110332
121269
134418
149749
167008
185690
205043
224158
242096
258046
271453
282081
289989
295455
298874
300669
301229
300885
299898
298478
296783
294940
293053
291223
289537
288133
287095
286484
286462
287274
289209
292583
297736
305087
315116
328333
345230
366187
391376
420614
453264
488199
523862
558475
590338
618121
641058
658991
672277
681577
687691
691403
693414
694300
694518
694427
694332
694505
695236
697048
701146
710565
733137
787881
912930
1.15299e+06
1.48395e+06
1.76688e+06
1.90435e+06
1.92867e+06
83464.8
69005.2
68726
97514.2
87021.5
67878.3
69346.6
67574.6
70042.1
67683.8
70818.5
71684.8
72665.7
74978.4
2.02783e+06
1.93665e+06
79452.1
78755.7
1.86114e+06
1.83197e+06
1.69327e+06
1.42149e+06
1.11409e+06
894969
781143
731017
710147
701349
697508
695846
695271
695288
695642
696136
696516
696488
695688
693648
689781
683386
673687
659916
641462
618063
589958
557988
523515
488289
453960
422068
393570
369218
348975
332743
320093
310574
303611
298809
295742
294053
293464
293503
294222
295329
296763
298368
300020
301551
302811
303596
303637
302598
300055
295508
288500
278644
265851
250065
231800
212235
192140
172460
154145
137881
123938
112450
76999.3
76092.4
91141.9
103191
150302
75112
68005.8
2.11073e+06
2.18439e+06
2.24819e+06
2.30151e+06
2.3439e+06
2.37578e+06
2.39718e+06
2.40789e+06
2.40766e+06
2.39627e+06
2.37367e+06
2.33956e+06
2.29364e+06
2.23582e+06
2.16678e+06
2.08727e+06
1.99853e+06
1.90226e+06
77324.4
70680.4
68452.9
91625.5
78614.2
80125.4
82202
85021.3
88780.9
93690.4
100004
107997
117962
130129
144485
160875
178906
197934
217119
235532
252305
266770
278553
287585
294050
298289
300708
301705
301626
300755
299314
297470
295352
293058
290667
288244
285850
283541
281374
279432
277810
276547
275730
275543
276201
277982
281192
286170
293329
303145
316121
332741
353382
378194
406971
439069
473326
508191
541884
572754
599523
621524
638687
651418
660425
666517
670470
672963
674547
675661
676686
678007
680099
683990
692294
711764
759149
869209
1.08617e+06
1.39509e+06
1.66682e+06
1.80113e+06
1.82513e+06
1.80068e+06
79878.4
68671.4
68983.9
82813.9
67910.8
69583.5
95855.8
86232.3
67777.8
70249.9
67960.1
70988.1
71809
72724.5
1.98384e+06
1.89506e+06
73743
74789
285195
75784.6
1.83864e+06
1.73572e+06
1.75632e+06
1.72686e+06
1.59147e+06
1.33258e+06
1.04888e+06
852935
753636
710532
692622
684928
681339
679502
678452
677771
677188
676375
674977
672553
668542
662263
652946
639806
622195
599775
572712
541759
508227
473766
440119
408749
380753
356724
336814
320773
308307
298956
292189
287511
284571
282999
282522
282872
283790
285113
286847
288866
291048
293358
295686
297934
300040
301856
303238
303956
303730
302178
298894
293378
285184
274044
259888
243145
224314
204374
184322
165341
148042
132778
119988
109615
375927
90173.6
101313
812601
138662
73285.1
68311.4
2.06458e+06
2.13636e+06
2.19847e+06
2.2504e+06
2.29187e+06
2.32292e+06
2.34357e+06
2.35379e+06
2.35347e+06
2.34242e+06
2.32033e+06
2.28691e+06
2.24194e+06
2.18549e+06
2.11807e+06
2.04053e+06
1.95405e+06
1.86034e+06
1.76159e+06
75105.9
69972.4
68763.4
137976
95468.7
80633.2
82657.5
85305.3
88789.3
93300.6
99083.6
106399
115514
126679
140084
155575
172858
191395
210432
229080
246450
261793
274618
284732
292215
297341
300485
302042
302372
301779
300504
298730
296598
294211
291647
288969
286225
283458
280710
278015
275407
272930
270631
268582
266866
265501
264589
264323
264897
266576
269661
274488
281463
291054
303758
320044
340281
364605
392810
424223
457678
491619
524300
554117
579877
600992
617469
629774
638638
644871
649231
652368
654818
657061
659700
663652
671077
687799
728467
824564
1.01935e+06
1.30597e+06
1.5653e+06
1.69555e+06
1.71892e+06
1.69663e+06
1.6605e+06
77210.7
68527.4
69287.2
79665.6
68042
69872.5
82502.9
68036.7
70518.6
94747.2
85810.3
68276.4
71230.8
72016.3
1.93592e+06
1.8499e+06
72881
73816
74773.6
75795.3
1.79959e+06
1.69936e+06
1.6302e+06
1.64905e+06
1.61997e+06
1.48931e+06
1.24457e+06
984455
810348
724300
687525
672240
665442
661923
659660
657876
656131
653988
651020
646699
640375
631292
618666
601814
580338
554317
524425
491895
458344
425464
394755
367291
343685
324132
308437
296214
287028
280412
275860
273017
271538
271131
271545
272568
274039
275845
277981
280384
282906
285583
288326
291049
293750
296360
298817
301003
302799
304021
304427
303716
301479
297262
290632
281236
268852
253579
235896
216511
196643
177123
158695
142513
128536
116958
107584
78517.9
89660
100081
77030.2
1.59664e+06
71997.5
68648.8
2.01418e+06
2.08377e+06
2.14403e+06
2.19443e+06
2.23471e+06
2.2648e+06
2.28476e+06
2.29464e+06
2.29425e+06
2.28338e+06
2.26181e+06
2.22927e+06
2.18553e+06
2.13074e+06
2.06535e+06
1.99022e+06
1.90654e+06
1.81595e+06
1.7206e+06
1.62309e+06
73533.3
69532.2
69106
81541.6
82658.9
83731.7
85695.5
88907
93155
98573.6
105380
113823
124147
136549
151147
167630
185558
204269
222933
240671
256688
270399
281498
289961
295983
299895
302076
302894
302666
301654
300059
298034
295693
293121
290384
287531
284601
281628
278639
275663
272725
269850
267064
264396
261880
259559
257499
255769
254388
253463
253177
253713
255322
258305
262998
269792
279140
291532
307434
327197
350949
378470
409084
441634
474571
506194
534953
559737
580039
595932
607930
616776
623267
628141
632058
635678
639980
646935
661441
696225
779789
954053
1.21903e+06
1.46538e+06
1.59081e+06
1.6134e+06
1.59341e+06
1.56023e+06
1.52646e+06
75299.7
68524
69626.1
77360.1
68247.8
70202.2
80779.6
79735.9
68339.8
70835.2
82508.4
68621.6
71529.2
1.88815e+06
1.80487e+06
94151
85753.8
72288.9
73115.4
73998.2
74934.4
75970.6
1.75748e+06
1.66049e+06
1.56128e+06
1.49435e+06
1.52491e+06
1.54208e+06
1.51404e+06
1.3894e+06
1.15968e+06
922051
767846
693524
662223
649100
642852
639081
636115
633126
629531
624799
618308
609334
597101
580907
560309
535310
506495
475024
442452
410449
380494
353675
330604
311460
296110
284179
275200
268721
264297
261535
260106
259728
260141
261173
262657
264494
266657
269051
271691
274416
277290
280246
283226
286209
289184
292128
294964
297655
300102
302203
303816
304733
304679
303318
300268
295076
287278
276622
263012
246725
228464
208961
189326
170451
153064
138038
125384
114877
106310
89551.5
77158.4
99426.5
78442.7
1.46259e+06
71111.5
69011.9
1.96393e+06
2.03132e+06
2.08965e+06
2.13843e+06
2.17748e+06
2.20669e+06
2.22605e+06
2.2356e+06
2.23508e+06
2.22438e+06
2.20332e+06
2.17164e+06
2.12915e+06
2.07598e+06
2.01263e+06
1.93989e+06
1.85895e+06
1.7714e+06
1.67934e+06
1.58526e+06
1.49207e+06
72430.4
69309.5
69473.7
85679.9
87609.9
90028.7
93527.8
98377.6
104732
112678
122363
133960
147591
163264
180511
198759
217253
235146
251626
266041
277992
287355
294240
298924
301759
303108
303300
302610
301255
299404
297182
294683
291979
289123
286157
283114
280021
276899
273770
270653
267567
264532
261563
258679
255907
253274
250806
248538
246529
244848
243516
242633
242373
242912
244481
247383
251947
258559
267664
279728
295204
314434
337542
364303
394047
425628
457526
488084
515813
539678
559241
574634
586398
595283
602095
607662
612997
619926
632804
662829
735677
891739
1.13674e+06
1.37038e+06
1.49046e+06
1.51225e+06
1.49464e+06
1.46441e+06
1.43421e+06
1.4031e+06
73958.4
68630.4
69992.2
84197.2
80326.3
75707
68511.1
70563.5
77729.3
68675.6
71188.7
1.83992e+06
1.75941e+06
80073.9
68990.6
82813.8
71871.3
72614.1
94007.6
86034.6
73417.1
74277.9
75207.8
76237
1.71541e+06
1.62161e+06
1.52571e+06
1.43041e+06
1.36749e+06
1.39574e+06
1.42324e+06
1.43846e+06
1.41209e+06
1.29445e+06
1.07991e+06
862960
726088
661702
634841
623238
617150
612750
608399
603227
596535
587608
575688
560069
540271
516242
488490
458093
426552
395489
366362
340257
317789
299138
284164
272529
263777
257448
253123
250426
249026
248626
249018
249999
251418
253208
255312
257678
260231
262980
265833
268777
271862
274942
278067
281221
284393
287529
290623
293612
296446
299098
301436
303346
304661
305164
304568
302502
298532
292270
283297
271479
256893
239961
221247
201700
182666
164652
148791
134974
123275
113523
105551
89801.5
78498.8
99165.6
77384.7
1.33851e+06
70536.6
69394
1.91321e+06
1.97833e+06
2.03467e+06
2.08176e+06
2.11953e+06
2.14784e+06
2.16659e+06
2.17575e+06
2.17512e+06
2.16457e+06
2.14403e+06
2.11325e+06
2.07208e+06
2.02062e+06
1.95937e+06
1.88908e+06
1.81088e+06
1.72635e+06
1.63749e+06
1.54669e+06
1.45666e+06
1.37038e+06
71693.3
69247.9
69860.6
89294.3
91874.4
95224.9
99461.2
104998
112161
121168
132088
144973
159775
176319
194014
212185
230040
246777
261704
274348
284496
292177
297605
301094
302995
303637
303306
302233
300599
298542
296164
293545
290742
287802
284759
281642
278476
275279
272065
268849
265653
262488
259365
256298
253297
250387
247585
244902
242362
239995
237834
235932
234354
233128
232338
232146
232726
234294
237136
241592
248032
256891
268620
283651
302320
324744
350704
379541
410135
440999
470519
497264
520259
539124
554039
565585
574606
582198
590141
602339
628734
692763
833504
1.06139e+06
1.28363e+06
1.39831e+06
1.41921e+06
1.40383e+06
1.37695e+06
1.34978e+06
1.32142e+06
1.29107e+06
80085.4
73019
68818.2
70380
83139.4
87361.3
74538.1
68817.8
70949.6
1.79162e+06
1.71392e+06
76288.7
69037.4
69376.9
78315.9
71571.4
72248.2
80662.1
72982
83416.3
73775.4
94195.9
86620.6
74627.5
75555.4
76574.9
1.67295e+06
1.58232e+06
1.4897e+06
1.39752e+06
1.30854e+06
1.25296e+06
1.27901e+06
1.30399e+06
1.32858e+06
1.34178e+06
1.31746e+06
1.20731e+06
1.007e+06
808068
685594
629170
605666
594960
588336
582332
575389
566523
554915
539840
520797
497685
470952
441614
411107
381015
352767
327421
305591
287463
272898
261559
253028
246855
242615
239958
238548
238101
238406
239297
240612
242283
244285
246533
248989
251610
254402
257294
260269
263367
266506
269665
272890
276161
279429
282709
285940
289104
292202
295177
297968
300486
302634
304279
305235
305253
304010
301173
296270
288983
278979
266194
250695
233264
214538
195713
177350
160661
145761
132746
121719
112584
105237
90380.5
77701.7
78677.1
99312.8
1.22545e+06
70211.6
69791.7
1.86235e+06
1.92518e+06
1.97944e+06
2.02488e+06
2.06128e+06
2.08854e+06
2.10663e+06
2.1154e+06
2.1147e+06
2.10438e+06
2.0844e+06
2.05457e+06
2.01479e+06
1.96515e+06
1.90606e+06
1.83826e+06
1.76285e+06
1.68135e+06
1.59565e+06
1.50804e+06
1.42112e+06
1.33771e+06
1.26084e+06
80040.9
71239.7
69311.2
78953.2
80137.9
70263.2
82428.4
85920.6
91110.7
93625.7
96923.7
101140
106444
113018
121188
131214
143199
157135
172937
190074
207830
225494
242295
257540
270706
281503
289881
295994
300114
302564
303670
303721
302957
301570
299709
297485
294985
292271
289395
286392
283297
280134
276920
273678
270421
267154
263893
260657
257455
254296
251190
248145
245179
242297
239506
236828
234283
231894
229683
227678
225933
224503
223436
222796
222727
223402
225017
227842
232214
238507
247134
258539
273128
291230
312962
338115
366049
395674
425535
454057
479848
501986
520155
534647
546321
556836
569767
594110
651545
780253
994812
1.20818e+06
1.31816e+06
1.33814e+06
1.32479e+06
1.30099e+06
1.27636e+06
1.25018e+06
1.22176e+06
1.19328e+06
72410.6
69069.5
70784.6
1.74464e+06
1.66968e+06
73748.9
69158
69418.9
75287
71355.4
71977.2
77058.6
69777.9
72653
79117.9
73384.5
81499.1
74174.7
84257.1
75028.7
94675.4
87452.6
75956.8
76970.5
1.6305e+06
1.54303e+06
1.45357e+06
1.36447e+06
1.27823e+06
1.19752e+06
1.12491e+06
1.15081e+06
1.17657e+06
1.20017e+06
1.22239e+06
1.24415e+06
1.25561e+06
1.2335e+06
1.13062e+06
942475
757983
646818
596406
574984
564011
555586
546496
535182
520685
502409
480198
454450
426130
396635
367504
340140
315571
294390
276789
262633
251590
243259
237213
233045
230390
228919
228373
228556
229288
230446
231969
233802
235897
238198
240672
243296
246063
248936
251900
254964
258080
261238
264458
267741
271041
274385
277716
281012
284308
287578
290764
293820
296703
299363
301701
303608
304930
305461
304954
303055
299433
293664
285380
274482
260854
245060
227460
209252
191047
173543
157519
143303
131080
120672
111996
105027
91138
99449.3
95253.9
78081.7
103743
70072.6
102071
98499.8
79311
80362.1
82002.3
84911.4
89248.7
81810.5
84260.5
87890.1
81820.3
83893.9
86953.9
83744.3
81952.7
86352.3
80674.9
86013
83779.1
82203.3
70201.8
1.81285e+06
1.87338e+06
1.92566e+06
1.96938e+06
2.00436e+06
2.03056e+06
2.04792e+06
2.05632e+06
2.05553e+06
2.0455e+06
2.02611e+06
1.99728e+06
1.95891e+06
1.91107e+06
1.85415e+06
1.78884e+06
1.71617e+06
1.63761e+06
1.55498e+06
1.47048e+06
1.38659e+06
1.30596e+06
1.23141e+06
1.16549e+06
110933
119338
129361
141279
154964
170207
186953
204962
223068
240373
256364
270257
281864
290840
297412
301763
304302
305355
305266
304297
302671
300551
298064
295306
292340
289219
286012
282722
279364
275977
272617
269274
265924
262595
259320
256080
252912
249799
246744
243757
240867
238060
235354
232782
230349
228071
225973
224089
222460
221145
220211
219698
219706
220414
222009
224728
228876
234831
242983
253751
267533
284622
305159
328971
355486
383690
412212
439534
464298
485590
503118
517279
529334
542220
563255
609863
713062
887383
1.0666e+06
1.16331e+06
1.18331e+06
1.17324e+06
1.15373e+06
1.13349e+06
1.11155e+06
1.0872e+06
1.06261e+06
71006.2
69468.6
70678.2
1.58919e+06
1.50479e+06
1.41839e+06
1.33223e+06
1.24871e+06
1.17036e+06
1.09965e+06
1.03859e+06
89282.1
90188.3
91493.8
93271.1
95669.4
98847.3
102934
108089
114496
122311
131691
142821
155818
170581
186855
204128
221553
238291
253683
267191
278485
287448
294168
298868
301846
303412
303853
303415
302297
300655
298610
296254
293655
290869
287935
284890
281759
278563
275330
272062
268769
265473
262187
258919
255679
252475
249316
246208
243160
240180
237280
234469
231752
229128
226630
224280
222086
220074
218276
216738
215516
214675
214263
214379
215212
216947
219828
224168
230350
238774
249875
264054
281605
302662
327032
354095
382790
411688
439239
464096
485436
503198
518404
534097
558457
611849
732179
938202
1.1468e+06
1.25371e+06
1.27287e+06
1.26126e+06
1.24003e+06
1.21709e+06
1.19211e+06
1.16472e+06
1.13713e+06
1.11019e+06
72063.3
69368.5
69524
73263.1
71203.3
71777
74631.7
69816.3
1.69911e+06
1.62686e+06
72401.7
76206
70189.9
73080
78021.2
73815.9
80112.3
74607.4
82526.8
75465.6
85314.9
76398
88542.1
77410.5
92660
78516.9
79728.2
88691.8
85879.3
81061.9
91828.7
88365
70079.8
99032.2
95347.6
83931.3
82540.1
70621.9
110138
116232
125520
137821
151817
167232
183802
201142
218719
236034
252301
266578
278497
288089
295228
300239
303343
304919
305265
304671
303354
301484
299196
296595
293754
290740
287591
284336
281021
277684
274295
270892
267488
264122
260799
257499
254233
251029
247875
244790
241766
238810
235930
233149
230459
227861
225382
223038
220845
218817
216977
215358
214001
212968
212317
212106
212405
213355
215156
218025
222242
228158
236183
246714
260144
276763
296698
319792
345491
372809
400392
426750
450596
471217
488915
505885
528737
574090
672905
842021
1.01687e+06
1.10949e+06
1.12759e+06
1.11853e+06
1.10088e+06
1.08143e+06
1.06002e+06
1.03621e+06
1.0121e+06
988535
1.76481e+06
1.8231e+06
1.87339e+06
1.91541e+06
1.94899e+06
1.97408e+06
1.99068e+06
1.99866e+06
1.99783e+06
1.98808e+06
1.96938e+06
1.94156e+06
1.90461e+06
1.85858e+06
1.80382e+06
1.74097e+06
1.67101e+06
1.59535e+06
1.51574e+06
1.43427e+06
1.35329e+06
1.27533e+06
1.20298e+06
1.13863e+06
1.08416e+06
70942
69698.1
91369.5
127765
69704.6
71912.9
71103.6
71633.2
92759.6
94064.5
95811.8
98155.8
101231
105163
110117
116287
123840
132902
143556
155832
169690
185005
201478
218384
234858
250233
263935
275569
284980
292205
297420
300885
302892
303719
303612
302775
301369
299521
297329
294865
292191
289346
286372
283295
280141
276937
273684
270395
267090
263785
260489
257210
253957
250736
247556
244422
241341
238319
235364
232483
229685
226984
224379
221862
219458
217192
215083
213141
211388
209860
208595
207661
207112
207006
207417
208493
210435
213461
217858
223984
232257
243088
256879
273924
294345
317969
344206
372020
400011
426697
450917
472458
493189
520124
572443
688411
891640
1.10137e+06
1.20806e+06
1.22678e+06
1.21624e+06
1.19653e+06
1.17396e+06
1.14884e+06
1.12132e+06
1.0936e+06
1.06657e+06
1.0405e+06
73007.4
69910.2
1.54925e+06
1.46783e+06
1.38442e+06
1.30113e+06
1.22026e+06
1.14422e+06
1.0753e+06
1.01541e+06
965803
1.65494e+06
1.5854e+06
88252.5
88176.8
85921.3
72211.5
74251.4
70226
72841.4
75670.1
70611.5
73524.9
77290.4
74265.4
79148.4
75065
81298.2
75932.1
83786.8
76869.8
86766.2
77886.3
90630.1
78993.1
107732
80196.1
81507.6
70195.9
95543.8
95455.9
69982.6
71007.1
71537.5
1.71815e+06
1.77418e+06
1.82251e+06
1.86283e+06
1.89501e+06
1.91901e+06
1.93482e+06
1.94236e+06
1.94146e+06
1.93208e+06
1.91406e+06
1.88726e+06
1.85173e+06
1.80755e+06
1.75495e+06
1.69455e+06
1.62729e+06
1.55452e+06
1.47789e+06
1.39938e+06
1.32123e+06
1.24582e+06
1.17559e+06
1.11278e+06
1.05911e+06
1.01547e+06
155078
96672.8
98545.4
100921
103991
107873
112715
118666
125920
134632
144885
156686
169953
184492
200006
216161
232239
247407
261089
272886
282596
290206
295845
299738
302151
303347
303567
303014
301854
300215
298201
295889
293342
290605
287720
284715
281618
278459
275242
271976
268682
265379
262075
258781
255505
252253
249033
245851
242713
239625
236593
233622
230718
227887
225138
222478
219923
217461
215081
212820
210704
208734
206929
205306
203888
202708
201811
201246
201076
201366
202184
203626
205878
209152
213700
219860
228035
238636
252081
268656
288485
311424
336925
364017
391447
418197
444724
476273
530404
646065
853047
1.07187e+06
1.18263e+06
1.20253e+06
1.19129e+06
1.17107e+06
1.14709e+06
1.12024e+06
1.09126e+06
1.06228e+06
1.03415e+06
1.00716e+06
981334
71913.3
70069
112728
119146
126968
136618
148759
163404
180023
197712
215536
232783
248713
262867
275258
285378
293056
298531
302149
304186
304957
304725
303714
302111
300046
297635
294951
292060
289007
285839
282582
279265
275918
272544
269147
265750
262378
259011
255708
252457
249243
246077
242977
239935
236967
234067
231241
228503
225868
223327
220868
218530
216332
214278
212384
210670
209159
207882
206885
206214
205934
206109
206805
208117
210228
213349
217731
223701
231653
241991
255113
271301
290676
313101
338055
364577
391365
417064
440859
463611
490643
537590
635874
805403
981817
1.07347e+06
1.09057e+06
1.08163e+06
1.06449e+06
1.04459e+06
1.02245e+06
998117
973572
949637
926614
1.51064e+06
1.43214e+06
1.35165e+06
1.27118e+06
1.1929e+06
1.11909e+06
1.05191e+06
993148
943995
904580
92177.5
89878.1
88108.4
86062.8
86294.7
72072.4
72931.7
70312.3
72656.7
74078.9
70646
73292.9
75378
71050.3
71040.8
73984.6
76852.9
74732.9
78541.4