/*--------------------------------*- C++ -*----------------------------------*\
| =========                 |                                                 |
| \\      /  F ield         | OpenFOAM: The Open Source CFD Toolbox           |
|  \\    /   O peration     | Version:  2212                                  |
|   \\  /    A nd           | Website:  www.openfoam.com                      |
|    \\/     M anipulation  |                                                 |
\*---------------------------------------------------------------------------*/
FoamFile
{
    version     2.0;
    format      ascii;
    arch        "LSB;label=32;scalar=64";
    class       volVectorField;
    location    "0.0315";
    object      U;
}
// * * * * * * * * * * * * * * * * * * * * * * * * * * * * * * * * * * * * * //

dimensions      [0 1 -1 0 0 0 0];

internalField   nonuniform List<vector> 
7220
(
(59.3118 630.129 -9.54054e-17)
(72.8076 96.5575 1.02364e-16)
(70.6235 94.2361 5.11822e-17)
(65.4876 94.0908 6.37414e-17)
(70.1222 99.878 -1.0113e-16)
(67.7944 97.0242 -2.76289e-20)
(-70.2341 94.5162 0)
(-69.5297 99.9686 1.03253e-16)
(-65.0558 94.1507 0)
(-67.289 97.0971 0)
(78.8817 504.689 -1.71672e-18)
(-65.9507 -21.1887 -8.61679e-16)
(61.6352 587.177 4.17877e-17)
(-165.879 904.075 3.99973e-16)
(215.356 752.939 3.84883e-16)
(-74.8282 -28.0469 4.18225e-16)
(-77.25 906.15 0)
(0.420348 872.348 -1.1566e-15)
(-62.157 955.402 1.30645e-16)
(60.5818 802.677 -4.58648e-16)
(3.3951 941.898 1.48617e-16)
(-153.332 343.371 1.39857e-15)
(21.0979 86.3089 7.53613e-16)
(164.961 339.715 7.82409e-16)
(-112.613 90.4526 7.37353e-16)
(-155.653 118.067 -1.5195e-15)
(-50.7836 -55.3092 3.99852e-16)
(-117.08 854.123 3.9973e-16)
(4.22534 940.037 -1.43874e-16)
(53.5827 762.727 2.58272e-16)
(105.931 122.432 4.54345e-16)
(73.1556 683.184 -8.49984e-17)
(73.6068 133.375 1.68953e-15)
(42.483 800.826 -1.28906e-16)
(116.865 64.6481 -7.54192e-16)
(-14.8043 644.667 -7.9017e-16)
(72.8038 86.5962 2.54488e-17)
(78.6126 470.178 0)
(74.8616 502.286 -2.07264e-21)
(-1.0463 595.005 -2.97856e-21)
(-1.04615 595.641 -1.19488e-20)
(1.26397 595.642 -7.63237e-19)
(1.23489 595.006 6.71792e-19)
(5.64223 628.768 -1.94813e-16)
(6.22763 633.585 -7.66553e-16)
(1.77521 636.137 -1.38884e-16)
(1.64131 633.064 2.68474e-17)
(1.82978 630.114 -2.69295e-16)
(-1.04652 596.338 1.51301e-18)
(-1.04748 597.1 -1.52321e-18)
(1.32884 597.099 -1.43909e-18)
(1.29528 596.338 1.53675e-18)
(-1.04901 597.93 1.54845e-18)
(-1.05112 598.83 -4.64341e-18)
(1.40391 598.827 1.59233e-18)
(1.36507 597.928 -1.64185e-18)
(-1.05405 599.805 -1.12721e-20)
(-1.05781 600.859 6.2227e-18)
(1.49061 600.853 3.12339e-18)
(1.44572 599.801 -1.55406e-18)
(-1.06276 601.995 -3.10847e-18)
(-1.06901 603.22 3.13351e-18)
(1.59034 603.212 -1.57485e-18)
(1.53874 601.989 -3.12001e-18)
(-1.07674 604.539 -3.13207e-18)
(-1.08613 605.956 0)
(1.70511 605.945 3.14063e-18)
(1.64569 604.529 -1.08064e-20)
(-1.09744 607.48 0)
(-1.1111 609.116 -2.96592e-19)
(1.83779 609.103 9.88412e-20)
(1.76899 607.467 4.9293e-20)
(-1.12772 610.872 6.75262e-18)
(-1.14844 612.753 8.1572e-19)
(1.98952 612.74 -5.95523e-18)
(1.91127 610.858 5.95806e-18)
(-1.1746 614.767 1.96911e-20)
(-1.21484 616.916 -3.20681e-17)
(2.15255 616.921 9.61723e-18)
(2.07111 614.758 1.59486e-18)
(-1.2805 619.206 2.56762e-17)
(-1.38397 621.631 -7.73447e-17)
(2.26411 621.722 2.58029e-17)
(2.222 619.237 1.86971e-20)
(2.08917 627.204 6.86939e-20)
(2.23075 624.386 -2.57815e-17)
(-1.55469 624.185 2.59377e-17)
(-1.80548 626.864 5.8986e-17)
(-2.09414 629.627 9.92223e-17)
(6.02194 625.394 1.03241e-16)
(-1.04701 594.428 0)
(1.20799 594.43 9.52077e-20)
(3.56806 593.797 -2.38926e-20)
(3.51023 593.17 2.38224e-20)
(6.68802 636.907 -5.18686e-17)
(2.04588 639.409 -2.21429e-19)
(-2.35477 632.586 5.36076e-17)
(-2.49933 635.83 1.07029e-16)
(-5.28676 621.83 -2.59752e-17)
(-4.76315 617.017 1.60842e-17)
(-4.99989 619.366 -3.22373e-18)
(-4.40987 612.69 0)
(-4.56855 614.793 0)
(-4.15723 608.856 0)
(-4.27528 610.71 -1.5914e-18)
(-3.95566 605.508 0)
(-4.0511 607.124 1.9775e-19)
(-3.79179 602.601 -3.14273e-18)
(-3.86959 604.002 3.14071e-18)
(-3.65777 600.086 -1.56937e-18)
(-3.72143 601.297 0)
(-3.54808 597.918 -3.15042e-18)
(-3.60017 598.961 3.11125e-18)
(-3.45804 596.062 -1.56661e-18)
(-3.50084 596.953 1.54961e-18)
(-3.38405 594.486 2.39675e-20)
(-3.41922 595.241 1.57699e-18)
(-3.32332 593.165 0)
(-3.35204 593.795 1.19488e-20)
(3.69846 595.238 2.39538e-25)
(3.63066 594.486 0)
(3.85117 596.944 -4.83338e-20)
(3.77182 596.056 9.63959e-20)
(4.03008 598.945 -1.2152e-20)
(3.93708 597.906 0)
(4.23938 601.272 3.05502e-21)
(4.13059 600.065 0)
(4.48433 603.968 -1.57014e-18)
(4.35699 602.571 1.58351e-18)
(4.7713 607.082 -3.15702e-18)
(4.6222 605.469 3.11016e-18)
(5.10709 610.669 3.97468e-19)
(4.93282 608.812 -1.23877e-20)
(5.49046 614.805 3.19705e-18)
(5.29398 612.662 -1.59422e-18)
(5.87125 619.625 5.14026e-17)
(5.68832 617.116 -1.28223e-17)
(6.00425 622.376 5.14905e-17)
(-5.6402 624.402 2.34866e-22)
(-3.29773 592.593 0)
(3.4573 592.599 0)
(9.87079 625.155 -2.40829e-16)
(9.8067 621.332 2.54505e-17)
(7.09962 640.483 0)
(-2.573 639.281 2.25402e-19)
(-6.03312 627.095 -2.63946e-17)
(-6.43831 630.007 2.6488e-17)
(-9.93101 622.418 -3.35051e-20)
(10.2483 628.752 0)
(-6.82169 633.197 2.65595e-17)
(-10.4959 625.233 2.63221e-17)
(-8.94298 617.335 1.94464e-17)
(-9.40946 619.807 -3.91988e-17)
(-8.17864 612.71 0)
(-8.53565 614.969 -6.47341e-18)
(-7.60077 608.537 -3.19258e-18)
(-7.86784 610.573 6.41519e-18)
(-7.14948 604.815 7.93044e-19)
(-7.36296 606.617 0)
(-6.78273 601.555 1.57985e-18)
(-6.95704 603.129 -7.88365e-19)
(-6.48048 598.719 0)
(-6.62444 600.087 -9.83009e-20)
(-6.23015 596.261 9.13903e-21)
(-6.34946 597.445 0)
(-6.02231 594.142 -7.74009e-19)
(-6.12146 595.162 -2.43023e-20)
(-5.84962 592.325 1.51514e-18)
(-5.93207 593.198 7.74632e-19)
(-5.70589 590.782 1.48259e-18)
(-5.77444 591.521 -1.58869e-18)
(-5.58658 589.487 6.08656e-18)
(-5.64343 590.105 -4.58441e-18)
(-3.27603 592.076 0)
(-5.49008 588.42 0)
(-5.53546 588.927 -3.04595e-18)
(1.18476 593.911 4.69783e-20)
(-1.05006 593.908 8.03584e-19)
(5.69204 588.938 0)
(5.62149 588.435 -1.89385e-19)
(3.40962 592.085 2.84123e-19)
(5.85565 590.109 7.86766e-19)
(5.7702 589.495 -7.87426e-19)
(6.0495 591.516 9.64638e-20)
(5.94861 590.782 0)
(6.27753 593.182 -9.66517e-20)
(6.15894 592.315 -1.92398e-19)
(6.54565 595.133 0)
(6.40615 594.12 0)
(6.86074 597.402 -1.22182e-20)
(6.69686 596.226 0)
(7.23136 600.028 -6.14263e-21)
(7.03853 598.668 -1.22524e-20)
(7.66737 603.058 0)
(7.44048 601.49 0)
(8.17952 606.549 -2.7758e-18)
(7.91342 604.742 3.18747e-18)
(8.76879 610.588 1.27925e-17)
(8.4657 608.492 0)
(9.38609 615.362 -5.13007e-17)
(9.08135 612.864 1.85412e-20)
(9.64603 618.152 -7.21805e-20)
(11.7493 635.4 -1.03526e-16)
(11.0826 631.895 1.54031e-16)
(14.0614 618.221 5.0568e-17)
(13.6285 614.787 4.44575e-17)
(-3.26008 591.611 -9.44044e-20)
(-5.45166 587.965 9.44027e-20)
(7.90272 583.446 1.52214e-18)
(7.81006 582.961 -1.41694e-18)
(2.25382 643.08 1.04814e-16)
(12.4286 639.141 7.83486e-17)
(7.53124 644.378 -2.61212e-17)
(-7.17762 636.636 7.92343e-17)
(-13.7007 615.592 -7.86428e-17)
(17.1346 631.418 3.90501e-17)
(16.2693 627.871 0)
(-11.0955 628.296 2.63505e-17)
(14.6322 621.433 5.70255e-17)
(-14.4078 618.263 2.62247e-17)
(-12.4761 610.729 0)
(-13.0559 613.094 -2.61059e-17)
(-11.4909 606.33 1.93367e-17)
(-11.9541 608.48 1.90068e-20)
(-10.7101 602.337 6.3714e-18)
(-11.0786 604.283 -9.63515e-18)
(-10.0793 598.761 7.9546e-19)
(-10.3792 600.491 -4.77602e-18)
(-9.55763 595.627 1.57684e-18)
(-9.80632 597.141 -1.58016e-18)
(-9.12479 592.895 0)
(-9.33122 594.214 -6.89266e-19)
(-8.76436 590.524 7.76487e-19)
(-8.9364 591.667 -7.80489e-19)
(-8.46345 588.477 8.00933e-19)
(-8.60718 589.462 -7.39603e-19)
(-8.21178 586.719 8.20464e-19)
(-8.33197 587.563 -7.23248e-19)
(-8.00138 585.225 -8.15802e-19)
(-8.10185 585.94 7.67185e-19)
(-7.82606 583.971 5.95381e-20)
(-7.90965 584.569 0)
(-7.68233 582.939 -3.22545e-18)
(-7.75033 583.428 3.03286e-18)
(1.17181 593.447 -1.89184e-19)
(-1.06261 593.444 -7.56757e-19)
(5.55919 587.983 -1.8878e-19)
(3.36927 591.622 -7.53663e-19)
(8.11652 584.576 0)
(8.00475 583.983 -1.52081e-18)
(8.37059 585.934 -3.83558e-19)
(8.23823 585.225 3.83912e-19)
(8.67013 587.541 9.81343e-20)
(8.51423 586.705 9.48428e-20)
(9.02267 589.422 2.43289e-19)
(8.83921 588.445 0)
(9.43782 591.606 1.22154e-20)
(9.22178 590.474 -1.94553e-19)
(9.92684 594.131 -1.84227e-20)
(9.67233 592.823 -2.44982e-20)
(10.5033 597.04 0)
(10.2032 595.534 -2.46289e-20)
(11.1813 600.39 -1.98269e-18)
(10.8289 598.656 1.58695e-18)
(11.9642 604.281 3.20521e-18)
(11.5606 602.258 3.1888e-18)
(12.8185 608.923 0)
(12.3867 606.488 -1.91676e-17)
(13.2353 611.663 3.19381e-17)
(15.4215 624.558 -5.0999e-17)
(-7.62249 582.501 0)
(7.72723 582.526 4.71538e-18)
(-2.67784 643.013 2.11132e-19)
(13.1422 643.124 -3.9402e-17)
(18.0319 635.23 -3.93179e-17)
(2.45444 647.041 2.61871e-17)
(-15.1748 621.149 7.89199e-17)
(17.9395 608.918 2.54369e-17)
(17.2895 605.844 -5.41212e-17)
(18.6923 611.887 -9.57352e-18)
(-11.7286 631.603 -5.25877e-17)
(-9.84325 575.629 2.95957e-19)
(-9.76331 575.212 3.02551e-18)
(5.50536 587.581 9.40777e-20)
(7.65399 582.141 -3.20429e-18)
(-7.60611 640.225 1.92414e-19)
(8.03695 648.515 0)
(18.9518 639.372 -3.98833e-17)
(13.9158 647.367 1.32629e-17)
(26.0632 638.149 -1.09218e-16)
(24.7674 633.541 -5.4582e-17)
(19.9252 643.87 1.61771e-18)
(-2.72948 647.005 -1.31389e-16)
(-19.0503 611.794 2.62855e-17)
(-17.3042 606.622 -2.61139e-17)
(-18.1386 609.114 2.61594e-17)
(-15.8596 602.039 3.89143e-17)
(-16.5458 604.272 6.73698e-20)
(-14.6784 597.882 0)
(-15.238 599.912 -2.58231e-17)
(-13.7156 594.095 -1.58699e-18)
(-14.1721 595.941 -3.19565e-18)
(-12.9218 590.709 -3.96226e-19)
(-13.3 592.35 1.59236e-18)
(-12.2607 587.733 -3.93408e-19)
(-12.5765 589.171 0)
(-11.7079 585.136 -3.92555e-19)
(-11.9719 586.39 5.8945e-19)
(-11.2457 582.877 -3.87356e-19)
(-11.4666 583.967 3.9011e-19)
(-10.8583 580.923 -3.63995e-19)
(-11.0435 581.864 3.636e-19)
(-10.533 579.243 0)
(-10.6885 580.05 -4.82974e-20)
(-10.26 577.814 7.67591e-19)
(-10.3905 578.499 -7.66861e-19)
(-10.0317 576.614 2.90415e-18)
(-10.1406 577.186 -1.42941e-18)
(-9.93271 576.095 -4.54125e-18)
(-7.57072 582.111 2.82237e-19)
(-3.25015 591.196 -7.54199e-19)
(-5.4198 587.559 1.40834e-18)
(1.16435 593.031 2.81503e-19)
(-1.07759 593.027 -7.48272e-19)
(3.33679 591.209 9.42421e-19)
(9.86417 575.246 -1.60664e-18)
(10.0797 576.119 -1.18627e-20)
(9.96636 575.658 1.41638e-18)
(10.3407 577.196 0)
(10.2043 576.631 0)
(10.6508 578.49 -3.84853e-19)
(10.4893 577.814 0)
(11.0166 580.021 9.60563e-20)
(10.8263 579.225 4.70789e-20)
(11.4473 581.811 -6.07376e-20)
(11.2232 580.883 9.66938e-20)
(11.9544 583.887 1.21898e-20)
(11.6904 582.812 -4.32795e-23)
(12.552 586.283 2.45543e-20)
(12.2409 585.043 7.34669e-20)
(13.2567 589.038 1.97452e-19)
(12.8898 587.612 2.46198e-20)
(14.0855 592.208 -3.17676e-18)
(13.6547 590.566 0)
(15.0459 595.903 -6.37298e-18)
(14.5496 593.978 1.58849e-18)
(16.1248 600.327 1.27825e-17)
(15.5713 598.007 1.27706e-17)
(16.6933 602.93 -4.79119e-17)
(20.5867 617.939 2.57905e-17)
(19.5893 614.834 -3.8536e-17)
(22.6937 624.902 -1.95794e-17)
(21.6224 621.271 -6.49014e-18)
(23.7345 628.961 3.94624e-17)
(-15.9835 624.288 2.63976e-17)
(-9.69269 574.843 -1.88119e-19)
(9.77293 574.882 0)
(21.548 597.39 -2.56213e-17)
(20.7232 594.665 -1.28197e-17)
(22.4623 600.1 2.88189e-17)
(29.0642 621.179 3.93219e-16)
(-12.4163 634.977 1.06946e-16)
(2.75983 651.361 0)
(8.64722 652.864 -5.31902e-17)
(21.0447 648.663 1.15519e-16)
(-7.89983 644.216 -3.1916e-16)
(32.55 627.498 0)
(-22.728 600.251 -5.23897e-17)
(14.7724 651.96 -5.53157e-17)
(-20.0313 614.717 -5.24256e-17)
(-23.8715 602.888 -2.86011e-20)
(27.5925 642.174 -1.23304e-19)
(-20.7369 595.505 0)
(-21.6851 597.802 3.07161e-20)
(-19.0879 591.245 -2.58292e-17)
(-19.8732 593.323 2.59487e-17)
(-17.7271 587.359 6.4049e-18)
(-18.3748 589.261 2.57667e-17)
(-16.6 583.83 -1.59274e-18)
(-17.1367 585.549 -6.40766e-18)
(-15.6606 580.67 3.95956e-19)
(-16.1092 582.201 1.58897e-18)
(-14.8742 577.884 0)
(-15.25 579.231 0)
(-14.2143 575.448 -1.95512e-19)
(-14.5298 576.624 2.946e-19)
(-13.6603 573.323 -1.52166e-21)
(-13.9253 574.348 2.20066e-19)
(-13.1945 571.482 0)
(-13.4174 572.369 1.21386e-20)
(-12.8022 569.896 1.92199e-19)
(-12.9899 570.658 0)
(-12.4717 568.546 9.57217e-20)
(-12.6298 569.193 -1.4435e-19)
(-12.1943 567.413 7.62808e-19)
(-12.3268 567.953 -7.62044e-19)
(-11.964 566.484 -1.61129e-18)
(-12.0735 566.923 1.55048e-18)
(-11.7772 565.749 3.00245e-18)
(-11.8653 566.093 -9.43121e-20)
(-11.6992 565.451 -2.81784e-18)
(-7.52575 581.768 0)
(-9.63061 574.521 2.80648e-18)
(-3.24008 590.829 1.50069e-18)
(-5.3918 587.202 -1.50365e-18)
(1.15091 592.658 -3.81728e-19)
(-1.08361 592.653 6.58201e-19)
(5.45739 587.225 0)
(3.3066 590.843 0)
(9.69195 574.564 -1.59052e-18)
(7.58932 581.802 -1.40337e-18)
(11.7575 565.504 2.99848e-18)
(11.9616 566.136 1.65299e-18)
(11.8537 565.798 -1.50105e-18)
(12.2142 566.953 1.52656e-18)
(12.0816 566.521 -3.02653e-18)
(12.5187 567.965 0)
(12.3597 567.435 9.51508e-20)
(12.88 569.184 0)
(12.6918 568.548 0)
(13.3056 570.624 0)
(13.0841 569.875 4.81378e-20)
(13.8064 572.306 9.69264e-20)
(13.5459 571.434 -9.70051e-20)
(14.3957 574.253 4.89933e-20)
(14.089 573.245 -4.86876e-20)
(15.0898 576.494 -9.76682e-20)
(14.7284 575.334 9.84219e-20)
(15.9079 579.065 -1.97025e-19)
(15.4821 577.735 3.30716e-22)
(16.8703 582.02 1.78467e-18)
(16.37 580.488 -9.87767e-20)
(17.9886 585.478 -3.97864e-19)
(17.4097 583.673 1.99709e-19)
(19.2687 589.616 -1.2788e-17)
(18.607 587.451 0)
(19.9679 592.032 2.56018e-17)
(24.6531 605.679 -1.29028e-17)
(23.5023 602.817 1.28765e-17)
(27.1493 612.218 5.86145e-17)
(25.8715 608.773 -9.72539e-18)
(28.3922 616.231 -5.21839e-17)
(-21.1012 617.939 -6.05211e-20)
(-16.8106 627.727 1.1274e-19)
(-2.67913 651.56 -1.26579e-17)
(-25.1261 605.761 0)
(24.865 583.743 -1.28424e-17)
(23.904 581.362 -6.4141e-18)
(25.919 586.15 1.28366e-17)
(-13.8158 554.821 0)
(-13.7229 554.549 2.9915e-18)
(9.62047 574.291 9.95832e-20)
(11.6723 565.255 -1.59095e-18)
(3.22349 655.826 -1.60134e-16)
(9.38753 657.597 1.07483e-16)
(15.6824 656.94 4.72093e-17)
(34.1956 631.435 0)
(38.6227 613.931 -1.21001e-19)
(40.8621 618.232 1.10897e-16)
(36.1075 636.212 1.11598e-16)
(-22.3527 621.483 5.21658e-17)
(-12.7667 639.192 -2.89077e-16)
(22.284 653.543 -2.71275e-17)
(-8.24242 648.623 -3.86288e-17)
(-26.5283 608.816 3.0414e-21)
(29.1369 646.438 2.12717e-16)
(-28.8239 591.378 1.31349e-17)
(-26.1646 586.543 5.2337e-17)
(-27.4372 588.856 -2.61785e-17)
(-23.9635 582.261 1.30066e-17)
(-25.0122 584.352 1.47783e-20)
(-22.135 578.358 1.93518e-17)
(-23.0065 580.269 -1.29267e-17)
(-20.6126 574.8 6.41589e-18)
(-21.3395 576.539 -1.28573e-17)
(-19.3425 571.56 4.77728e-18)
(-19.9491 573.138 -3.19164e-18)
(-18.2774 568.656 0)
(-18.7866 570.064 -1.58759e-18)
(-17.3823 566.089 -9.84005e-20)
(-17.8104 567.331 0)
(-16.6295 563.836 -2.93442e-19)
(-16.9897 564.925 -1.69342e-22)
(-15.9955 561.866 1.91965e-19)
(-16.2989 562.817 -2.37153e-20)
(-15.4607 560.153 -1.20975e-20)
(-15.7168 560.979 0)
(-15.0089 558.676 0)
(-15.2253 559.387 -2.41246e-20)
(-14.6268 557.417 0)
(-14.8098 558.021 -4.7972e-20)
(-14.305 556.361 3.8117e-19)
(-14.4589 556.865 -4.76174e-19)
(-14.0361 555.498 1.53335e-18)
(-14.1642 555.906 -4.08927e-24)
(-13.9201 555.136 -1.4169e-18)
(-11.6308 565.197 1.86829e-19)
(-7.48631 581.472 1.48047e-18)
(-9.57642 574.244 -4.4884e-18)
(-3.22955 590.506 -7.96018e-19)
(-5.36681 586.89 5.84154e-20)
(1.13609 592.328 5.85397e-21)
(-1.08717 592.323 1.8693e-19)
(5.4141 586.916 -1.16833e-20)
(3.27776 590.522 -3.61441e-19)
(7.53205 581.509 1.49832e-18)
(13.7775 554.614 -1.50153e-18)
(14.0109 555.19 1.45607e-18)
(13.8878 554.88 -6.09129e-21)
(14.2975 555.943 -1.46943e-18)
(14.1474 555.543 7.57712e-19)
(14.6413 556.881 4.76845e-20)
(14.462 556.388 6.64197e-19)
(15.048 558.012 -4.79678e-20)
(14.8363 557.421 0)
(15.5263 559.349 -4.82475e-20)
(15.2776 558.653 0)
(16.0881 560.907 1.94449e-19)
(15.7959 560.099 0)
(16.7483 562.708 5.85894e-19)
(16.4049 561.776 -3.4063e-19)
(17.5252 564.773 0)
(17.1209 563.705 -4.39702e-19)
(18.4403 567.135 0)
(17.9639 565.915 -9.8387e-20)
(19.5162 569.848 -1.58498e-18)
(18.9567 568.441 -7.91049e-19)
(20.7695 573.037 7.95994e-18)
(20.1199 571.368 0)
(22.2219 576.824 0)
(21.4685 574.845 -1.59253e-18)
(23.0285 579.028 -6.40689e-18)
(28.3672 591.162 1.29197e-17)
(27.0873 588.592 -1.2894e-17)
(31.1465 597.246 1.94086e-17)
(29.7271 593.995 -3.24183e-18)
(34.0171 606.376 -6.13032e-17)
(32.5684 601.179 1.2903e-17)
(36.2477 610.787 -1.47759e-16)
(-17.7824 631.894 -5.07082e-17)
(-30.3278 594.054 -6.58428e-17)
(-13.6408 554.322 -6.16283e-18)
(13.6796 554.391 1.58409e-18)
(26.8138 565.989 6.40069e-18)
(27.8714 568.05 -1.70462e-20)
(-28.067 611.828 5.27576e-17)
(-23.7913 624.851 5.24462e-17)
(-2.36002 656.451 -1.01096e-16)
(3.90164 660.733 1.07804e-16)
(10.0987 662.74 7.84796e-20)
(16.6266 662.263 -8.10888e-17)
(43.1645 623.177 6.52848e-18)
(38.0925 641.766 6.39747e-20)
(65.3894 619.089 -2.4651e-16)
(30.7502 651.719 1.04354e-19)
(-87.3093 142.627 0)
(23.5564 658.653 9.42444e-17)
(-31.9569 596.743 0)
(-35.4572 579.591 -1.32064e-17)
(-32.1548 574.891 1.31174e-17)
(-33.7437 577.215 5.26246e-17)
(-29.313 570.715 -1.30694e-17)
(-30.6743 572.72 -2.62075e-17)
(-26.9418 566.922 -6.47164e-18)
(-28.0751 568.778 -1.71766e-20)
(-24.9651 563.428 0)
(-25.9091 565.143 6.46694e-18)
(-23.3108 560.225 0)
(-24.1021 561.785 0)
(-21.9228 557.306 -1.59029e-18)
(-22.5867 558.729 3.18895e-18)
(-20.7548 554.685 8.66816e-20)
(-21.3137 555.958 2.97502e-19)
(-19.7706 552.359 9.83369e-20)
(-20.2417 553.486 1.23446e-20)
(-18.9405 550.308 3.39321e-22)
(-19.3379 551.301 -4.88686e-20)
(-18.2395 548.508 3.03964e-21)
(-18.5752 549.378 1.099e-19)
(-17.6463 546.938 1.20902e-20)
(-17.9306 547.695 0)
(-17.1433 545.581 -1.92684e-19)
(-17.3845 546.233 2.16636e-19)
(-16.7165 544.422 -1.91566e-19)
(-16.9212 544.977 1.91399e-19)
(-16.3552 543.452 -2.85841e-19)
(-16.5282 543.914 3.80537e-19)
(-16.0515 542.662 7.80907e-19)
(-16.1964 543.035 -8.03876e-19)
(-15.8005 542.048 -4.08648e-20)
(-15.9196 542.333 -1.51579e-18)
(-15.5988 541.607 -1.86635e-19)
(-15.6936 541.806 1.50088e-18)
(-15.5159 541.45 -2.78427e-18)
(-11.5714 564.986 0)
(-13.5693 554.137 4.28399e-18)
(-7.45198 581.219 -1.49348e-18)
(-9.52964 574.01 1.49303e-18)
(-3.219 590.227 4.18473e-19)
(-5.34421 586.623 -4.65813e-20)
(1.1216 592.041 -1.85178e-19)
(-1.08965 592.035 -9.29159e-20)
(5.37497 586.651 -1.1644e-20)
(3.25039 590.244 1.54632e-21)
(9.5578 574.061 2.97994e-18)
(7.48143 581.259 1.16432e-20)
(13.5937 554.21 -9.92532e-20)
(11.5977 565.048 0)
(15.5381 541.534 9.30129e-20)
(15.7444 541.882 1.50067e-18)
(15.6347 541.687 -1.39958e-19)
(16.0046 542.396 7.53374e-19)
(15.8677 542.118 -2.23992e-18)
(16.3217 543.079 2.84984e-19)
(16.1559 542.716 0)
(16.7001 543.935 1.1877e-19)
(16.5029 543.485 -5.69815e-19)
(17.1459 544.97 4.79419e-20)
(16.914 544.429 0)
(17.6689 546.193 -1.92514e-19)
(17.3971 545.557 1.92678e-19)
(18.2817 547.618 2.42119e-19)
(17.9631 546.88 -1.93788e-19)
(19.0007 549.257 4.382e-19)
(18.6268 548.409 -3.89733e-19)
(19.8451 551.132 -3.9154e-19)
(19.4058 550.163 3.91868e-19)
(20.8388 553.265 7.89771e-19)
(20.3218 552.163 9.83198e-20)
(22.0062 555.711 1.5843e-18)
(21.3991 554.443 1.29525e-21)
(23.3708 558.586 3.18576e-18)
(22.6623 557.084 0)
(24.959 561.99 -3.18845e-18)
(24.1339 560.206 9.55137e-21)
(25.8496 563.949 1.27911e-17)
(31.6683 574.536 -3.23337e-18)
(29.0286 570.142 -1.64411e-20)
(30.2934 572.272 6.4397e-18)
(34.6874 580.051 -4.04561e-18)
(33.1358 577.087 4.03709e-18)
(38.2175 587.465 7.66937e-17)
(36.3499 583.563 3.17908e-18)
(42.6626 594.143 -3.86892e-17)
(40.3097 590.864 5.11286e-17)
(47.6403 602.146 4.39541e-17)
(45.1102 597.866 3.89863e-17)
(56.0531 619.151 9.88069e-17)
(53.1697 612.583 -1.29577e-17)
(45.5673 628.841 6.51971e-17)
(50.3187 607.024 -5.19487e-17)
(-19.1747 635.851 1.01218e-16)
(-76.4555 115.058 1.64165e-15)
(-33.7349 599.514 5.32129e-17)
(-37.3162 582.008 0)
(-1.4595 661.391 -5.59658e-17)
(68.4641 91.7985 -5.12786e-17)
(-17.4974 527.04 1.86522e-19)
(-17.4035 526.912 -2.9684e-18)
(13.5198 554.07 -1.48715e-18)
(15.4548 541.421 1.38745e-18)
(4.40185 665.964 7.85374e-20)
(48.0882 635.298 -7.81135e-17)
(10.7441 668.319 -5.40585e-17)
(40.1678 648.052 3.13773e-20)
(32.4246 657.727 -2.12021e-16)
(17.5881 667.951 6.72695e-17)
(24.8682 664.41 -1.06916e-16)
(-71.8365 102.776 0)
(-90.236 133.28 4.01366e-16)
(-91.8292 124.239 0)
(-96.8369 124.21 -3.82407e-16)
(-133.502 241.993 -1.44646e-15)
(-94.1781 107.414 -2.84081e-16)
(-29.7636 614.907 -6.64944e-18)
(-25.4602 628.177 -7.92823e-17)
(-84.781 113.586 7.23325e-16)
(-31.6048 618.318 6.67172e-18)
(60.6287 592.167 0)
(57.2607 587.093 -1.29299e-17)
(-11.4888 655.145 1.6833e-16)
(-16.2674 648.34 2.14262e-16)
(-35.6618 602.509 2.67172e-17)
(-80.493 114.986 -8.32022e-16)
(-39.3131 584.592 -6.01304e-17)
(-117.015 267.999 1.41317e-15)
(-37.7037 605.767 4.03312e-17)
(-41.4296 587.379 -2.02168e-17)
(-74.2145 105.086 0)
(-52.3567 573.477 1.37218e-17)
(-43.7049 590.403 6.77199e-17)
(-47.0191 569.269 -5.36802e-17)
(-49.4833 571.858 -1.3895e-17)
(-42.542 564.615 -7.6868e-21)
(-44.7175 566.924 0)
(-38.552 560.358 1.32013e-17)
(-40.4775 562.416 -1.32471e-17)
(-35.1095 556.337 -2.61725e-17)
(-36.7654 558.329 -1.31411e-17)
(-32.1411 552.814 -1.60611e-20)
(-33.5638 554.512 4.56844e-17)
(-29.6454 549.535 -6.47049e-18)
(-30.8387 551.147 -6.49591e-18)
(-27.5573 546.485 0)
(-28.5564 547.985 0)
(-25.8032 543.663 0)
(-26.6426 545.041 3.20289e-18)
(-24.3259 541.093 0)
(-25.0331 542.349 -1.59268e-18)
(-23.0795 538.775 1.72496e-19)
(-23.6764 539.903 -5.6946e-19)
(-22.0266 536.706 -1.9618e-19)
(-22.531 537.71 -9.88395e-20)
(-21.1362 534.871 0)
(-21.5628 535.761 1.22828e-19)
(-20.3821 533.252 -1.94382e-19)
(-20.7436 534.035 8.51067e-20)
(-19.7418 531.833 -1.02861e-19)
(-20.049 532.518 1.9384e-19)
(-19.1969 530.604 -1.20109e-20)
(-19.4585 531.196 0)
(-18.7324 529.554 7.14653e-20)
(-18.9554 530.057 1.19757e-20)
(-18.337 528.677 -1.89548e-19)
(-18.5267 529.094 -4.78105e-20)
(-18.0025 527.965 7.06481e-19)
(-18.1625 528.3 1.89733e-19)
(-17.7237 527.42 3.51904e-20)
(-17.8565 527.671 -7.42613e-19)
(-17.6041 527.209 0)
(-15.445 541.333 2.78736e-18)
(-11.5209 564.817 1.49303e-18)
(-13.5085 553.993 -2.87514e-18)
(-7.42219 581.011 -9.28264e-20)
(-9.48969 573.82 3.48054e-20)
(-3.20822 589.993 -5.57457e-19)
(-5.32409 586.4 4.64186e-20)
(1.10776 591.798 2.74322e-19)
(-1.09117 591.792 -3.41183e-20)
(5.33979 586.43 4.64215e-20)
(3.2245 590.011 5.45884e-19)
(9.50351 573.874 -1.46489e-18)
(7.43701 581.053 -6.96243e-20)
(11.5335 564.883 0)
(17.4233 527.007 -9.29405e-20)
(17.6507 527.295 7.61462e-19)
(17.5299 527.131 4.66199e-20)
(17.9352 527.743 4.70521e-20)
(17.7857 527.499 -7.6068e-19)
(18.2792 528.351 -3.30625e-19)
(18.0995 528.027 3.7829e-19)
(18.687 529.12 4.68841e-20)
(18.4747 528.715 -1.90287e-19)
(19.1654 530.052 2.39165e-19)
(18.9168 529.565 -7.32555e-22)
(19.7246 531.156 4.81855e-20)
(19.4342 530.582 0)
(20.378 532.437 -4.36825e-19)
(20.0385 531.774 0)
(21.1425 533.906 -3.40418e-19)
(20.7451 533.147 7.77508e-19)
(22.0389 535.578 0)
(21.5729 534.715 -9.77168e-20)
(23.0912 537.47 7.89242e-19)
(22.5437 536.495 -9.82428e-20)
(24.3267 539.632 -7.9303e-19)
(23.6845 538.513 -1.57904e-18)
(25.7743 542.161 0)
(25.0227 540.84 0)
(27.4599 545.177 -4.7937e-18)
(26.5839 543.601 1.59548e-18)
(29.4373 548.623 -6.42058e-18)
(28.4103 546.868 3.19423e-18)
(31.7872 552.141 6.43165e-18)
(30.5598 550.38 1.58879e-18)
(34.5634 555.907 0)
(33.1215 553.955 0)
(37.7894 560.655 -1.29148e-17)
(36.1179 558.138 -6.4601e-18)
(41.6367 566.36 0)
(39.6237 563.488 -1.93012e-17)
(46.1638 572.091 -6.46022e-18)
(43.8111 569.175 0)
(51.3709 578.736 1.62568e-18)
(48.7052 575.221 0)
(54.2166 582.655 -1.29656e-17)
(-85.5674 131.309 6.34337e-19)
(-87.6689 122.408 -3.90368e-16)
(-93.0533 115.609 -6.20299e-16)
(-20.9076 639.277 0)
(-6.54239 659.5 -5.58233e-17)
(-80.7699 129.924 -8.01792e-16)
(-127.838 729.158 -4.01124e-16)
(140.555 100.204 -1.32112e-15)
(61.2625 642.338 1.96855e-16)
(-17.3228 526.824 2.9712e-18)
(17.331 526.923 1.85283e-19)
(-95.4253 134.426 -8.12226e-16)
(-27.1949 631.957 2.66973e-17)
(-17.6355 652.73 0)
(-12.4539 659.889 0)
(-1.2997 666.593 2.73767e-17)
(50.7051 642.868 0)
(-103.525 113.32 0)
(-33.5277 622.109 2.68374e-17)
(60.408 559.398 0)
(63.9521 562.435 1.0385e-16)
(65.2544 593.296 0)
(4.73182 671.675 -1.0872e-16)
(42.331 655.124 -1.05097e-16)
(34.1506 664.489 1.05997e-16)
(-39.8855 609.374 -4.04145e-17)
(150.947 608.12 -2.06914e-16)
(11.3571 674.349 0)
(-155.758 892.991 2.01391e-18)
(-46.1602 593.455 4.09794e-17)
(-101.808 125.139 3.39233e-16)
(18.5589 674.168 -8.376e-19)
(26.2236 670.839 0)
(-74.4794 120.899 8.42745e-16)
(-75.9634 128.562 -8.11967e-16)
(64.514 650.124 2.37916e-20)
(-82.3057 139.808 -4.10078e-16)
(-77.0413 138.004 -4.62724e-19)
(72.8733 91.2462 2.56929e-17)
(-50.1033 546.054 -9.33773e-17)
(-52.0036 548.099 4.8787e-16)
(-45.3804 542.541 -3.1202e-20)
(-47.6923 544.347 2.65515e-17)
(-41.2242 539.084 1.3144e-17)
(-43.2203 540.779 -1.3193e-17)
(-37.6755 535.766 -6.53785e-18)
(-39.3802 537.412 6.53566e-18)
(-34.6296 532.871 3.24034e-18)
(-36.0893 534.257 -6.51925e-18)
(-32.0566 530.154 6.44919e-18)
(-33.2867 531.5 -3.23837e-18)
(-29.897 527.562 -1.60601e-18)
(-30.9307 528.836 1.60582e-18)
(-28.0765 525.155 0)
(-28.9481 526.332 -4.79802e-18)
(-26.5403 522.949 0)
(-27.2763 524.029 -7.95516e-19)
(-25.241 520.944 -1.97037e-19)
(-25.8637 521.921 2.96786e-19)
(-24.1407 519.141 0)
(-24.6681 520.018 4.95387e-20)
(-23.2077 517.53 0)
(-23.655 518.313 1.22396e-20)
(-22.4148 516.098 -7.58614e-22)
(-22.7952 516.792 6.08577e-21)
(-21.7391 514.838 1.02773e-19)
(-22.0636 515.447 -9.66593e-20)
(-21.1616 513.742 1.8002e-20)
(-21.4392 514.269 -6.01766e-21)
(-20.6669 512.805 2.38636e-20)
(-20.9047 513.254 -1.19669e-20)
(-20.2432 512.023 -2.37021e-19)
(-20.4468 512.395 4.73953e-20)
(-19.882 511.395 0)
(-20.0552 511.69 1.89568e-19)
(-19.5782 510.921 -7.3977e-19)
(-19.7232 511.139 7.5068e-19)
(-19.329 510.605 1.54044e-18)
(-19.4469 510.743 -1.49813e-18)
(-19.1344 510.447 -1.39186e-18)
(-19.2248 510.506 1.39015e-18)
(-19.0585 510.427 1.47338e-18)
(-15.3863 541.255 0)
(-17.2555 526.775 0)
(-11.4793 564.689 -2.15148e-18)
(-13.4583 553.889 1.45912e-18)
(-7.39705 580.845 -4.62617e-20)
(-9.4565 573.671 -4.1545e-19)
(-3.19751 589.801 9.31349e-20)
(-5.30637 586.219 4.62678e-20)
(1.09351 591.599 -1.28968e-19)
(-1.09049 591.593 -4.44674e-20)
(5.30857 586.251 0)
(3.20023 589.82 -3.75951e-19)
(9.45747 573.728 3.46088e-19)
(7.39871 580.889 0)
(13.4578 553.97 -4.9103e-20)
(11.4795 564.759 7.64203e-19)
(17.2532 526.878 -1.56659e-18)
(15.3849 541.348 1.32301e-19)
(19.0554 510.542 1.57175e-18)
(19.2421 510.613 1.5757e-18)
(19.141 510.558 -3.14728e-18)
(19.4892 510.839 -1.16817e-20)
(19.3582 510.707 0)
(19.7954 511.219 -6.21584e-24)
(19.6348 511.01 0)
(20.1626 511.748 0)
(19.9712 511.465 0)
(20.5948 512.426 -4.75829e-20)
(20.3702 512.069 0)
(21.099 513.253 -4.78681e-20)
(20.8373 512.821 0)
(21.6857 514.231 -4.81414e-20)
(21.3812 513.723 2.40014e-20)
(22.3687 515.365 3.88039e-19)
(22.0141 514.778 -4.82793e-20)
(23.1655 516.658 4.8683e-20)
(22.7516 515.991 -3.87728e-19)
(24.0971 518.121 6.83888e-19)
(23.613 517.368 -6.84782e-19)
(25.1883 519.764 1.57432e-18)
(24.6211 518.918 -6.88436e-19)
(26.4687 521.629 1.57938e-18)
(25.8032 520.667 -2.36783e-18)
(27.9672 523.812 1.58659e-18)
(27.1888 522.676 -4.75787e-18)
(29.7154 526.416 -1.59442e-17)
(28.8072 525.062 3.18787e-18)
(31.7669 529.322 -3.1995e-18)
(30.7 527.851 -9.58476e-18)
(34.195 532.227 1.60979e-18)
(32.9277 530.78 8.07406e-23)
(37.0607 535.335 1.29127e-17)
(35.5716 533.722 -6.45569e-18)
(40.427 539.13 1.28965e-17)
(38.6765 537.126 -1.61527e-17)
(44.4046 543.43 -2.59507e-17)
(42.3383 541.26 -3.23048e-18)
(49.0064 548.017 -6.48362e-18)
(46.6179 545.677 2.58745e-17)
(54.3009 553.17 5.21446e-17)
(51.575 550.438 0)
(57.2308 556.159 -5.18426e-17)
(-90.1408 155.922 0)
(-92.7032 145.314 0)
(-58.5211 545.07 5.87709e-16)
(-84.2474 106.098 1.26011e-15)
(-88.7757 113.606 -3.56944e-16)
(-22.5113 643.424 0)
(-6.95772 664.549 0)
(-78.4174 148.583 1.23856e-15)
(55.5181 663.055 -1.06769e-16)
(53.0874 652.271 1.0521e-16)
(-97.5081 156.235 -1.06723e-15)
(-68.2841 154.333 7.28238e-16)
(-74.5853 99.3536 0)
(-28.9604 636.247 -2.69013e-17)
(62.7175 529.892 0)
(66.1971 531.771 -5.24703e-17)
(67.73 563.874 -1.02369e-19)
(-1.33222 672.299 6.78625e-18)
(-18.828 657.884 0)
(-13.2758 665.284 0)
(-82.2031 157.459 -7.34473e-16)
(44.5136 663.155 -5.27274e-17)
(74.84 93.0456 -2.72548e-21)
(-20.8728 492.185 -1.48312e-18)
(-20.7881 492.194 0)
(17.1906 526.871 1.52157e-18)
(18.9859 510.564 9.19531e-20)
(35.9284 672.008 0)
(-104.55 73.0468 -7.1961e-16)
(-35.5616 626.284 3.2332e-20)
(69.3364 593.105 -5.47188e-17)
(-71.2692 108.754 -1.05317e-16)
(70.9037 89.2876 -2.55656e-17)
(70.9445 84.9094 1.51953e-16)
(70.7382 81.0332 -3.63247e-20)
(-54.5495 168.256 -2.01772e-16)
(4.98012 677.862 -5.56996e-20)
(-67.5135 255.255 0)
(-46.968 264.923 -7.46865e-16)
(-87.3025 167.766 7.99611e-16)
(111.046 52.5983 1.96521e-16)
(-86.8336 241.45 0)
(-99.0544 243.076 -6.52765e-19)
(-42.2436 613.156 -5.42641e-17)
(69.4527 624.947 1.62333e-16)
(89.4835 107.836 9.72725e-17)
(86.1152 105.854 0)
(83.8091 112.652 -9.75913e-17)
(87.2482 115.009 -9.99042e-17)
(110.664 152.894 1.39613e-18)
(11.9578 680.892 5.30785e-17)
(27.5936 678.002 -1.0663e-16)
(-49.0305 595.915 1.54818e-20)
(-70.4132 119.428 -4.33972e-16)
(19.5544 680.979 1.06967e-16)
(-25.782 270.295 -2.62937e-18)
(-15.4694 283.908 1.49848e-15)
(-59.4235 272.284 7.48088e-16)
(-55.7606 572.745 -3.2803e-16)
(-71.4221 126.695 4.17729e-16)
(-37.7748 280.349 -1.50363e-15)
(-72.1076 135.392 4.01213e-16)
(-72.3569 146.07 0)
(58.417 672.715 -2.53618e-17)
(74.5675 88.0959 -2.56948e-17)
(68.4069 658.53 2.69875e-17)
(-128.71 270.131 -6.89401e-16)
(-52.4917 521.124 1.29645e-17)
(-54.6429 523.074 0)
(-47.6164 518.369 -6.58329e-18)
(-49.9813 519.702 0)
(-43.4079 515.813 -1.96485e-17)