/*--------------------------------*- C++ -*----------------------------------*\
| =========                 |                                                 |
| \\      /  F ield         | OpenFOAM: The Open Source CFD Toolbox           |
|  \\    /   O peration     | Version:  2212                                  |
|   \\  /    A nd           | Website:  www.openfoam.com                      |
|    \\/     M anipulation  |                                                 |
\*---------------------------------------------------------------------------*/
FoamFile
{
    version     2.0;
    format      ascii;
    arch        "LSB;label=32;scalar=64";
    class       volScalarField;
    location    "0.00244";
    object      p;
}
// * * * * * * * * * * * * * * * * * * * * * * * * * * * * * * * * * * * * * //

dimensions      [1 -1 -2 0 0 0 0];

internalField   nonuniform List<scalar> 
2681
(
190.708
196.635
196.916
190.337
198.585
197.154
190.324
190.336
190.339
190.342
190.334
190.372
190.366
190.459
190.388
190.382
190.408
190.338
190.341
190.346
190.351
190.365
190.359
190.355
190.38
190.373
190.337
190.333
190.334
190.342
190.339
190.35
190.346
190.355
190.352
190.36
190.353
190.36
190.367
190.365
190.371
190.353
190.358
190.347
190.35
196.951
190.345
190.337
190.331
190.332
190.335
190.375
190.399
190.336
190.334
190.36
190.365
190.331
190.33
190.331
190.329
190.344
190.34
190.353
190.348
190.364
190.358
190.382
190.373
190.334
190.391
190.37
190.376
190.355
190.362
190.38
190.337
190.444
197.861
190.335
190.332
190.333
190.34
190.337
190.347
190.344
190.353
190.35
190.356
190.36
190.365
190.351
190.355
190.346
190.348
190.341
190.344
190.336
190.338
190.334
190.331
190.33
190.371
190.401
190.395
190.381
190.33
190.33
190.328
190.409
190.421
190.41
190.389
190.362
190.372
190.367
190.332
190.329
190.33
190.382
190.465
190.39
200.284
190.378
190.386
190.379
190.329
196.867
190.33
190.569
190.478
190.338
190.336
190.346
190.342
190.356
190.351
190.37
190.362
190.39
190.38
190.399
190.375
190.382
190.358
190.366
190.426
190.333
193.721
190.337
190.334
190.331
190.327
190.329
190.334
190.332
190.338
190.335
190.344
190.341
190.35
190.347
190.356
190.353
190.363
190.359
190.481
190.369
190.355
190.359
190.349
190.352
190.345
190.347
190.339
190.342
190.335
190.336
190.333
190.328
190.327
190.327
190.328
190.326
190.33
190.332
190.413
190.435
190.448
190.4
190.383
190.386
190.326
190.379
190.373
190.333
190.331
190.42
190.396
190.327
190.326
305.289
306.848
306.849
305.285
190.326
190.326
190.325
190.37
190.45
190.326
190.329
190.913
197.083
198.123
190.391
190.384
196.518
190.328
190.559
190.335
190.333
190.34
190.338
190.349
190.345
190.36
190.354
190.377
190.367
190.4
190.389
190.421
190.41
190.435
190.39
190.401
190.369
190.379
190.352
190.359
190.343
190.346
190.338
190.34
190.335
306.762
305.294
295.476
259.304
239.29
229.133
222.362
217.268
213.223
209.886
209.895
207.179
204.821
204.795
207.169
217.278
213.234
229.149
222.383
259.367
239.312
305.303
295.51
306.764
190.33
190.328
190.332
190.331
190.336
190.334
190.34
190.338
190.347
190.344
190.353
190.351
190.358
190.355
190.841
190.362
190.37
190.366
190.378
190.375
190.369
190.358
190.362
190.352
190.355
190.347
190.349
190.343
190.345
190.337
190.34
190.333
190.335
190.329
190.331
190.328
190.327
190.326
190.328
190.327
190.329
190.328
190.717
190.926
190.406
190.387
190.386
190.392
190.325
190.476
300.641
300.636
190.326
191.301
209.912
207.218
190.432
200.033
190.385
190.407
190.328
190.329
300.586
294.106
294.063
190.325
190.325
190.326
190.325
202.887
202.916
190.372
190.38
190.46
190.423
190.372
190.382
197.212
190.497
190.542
190.327
190.331
190.328
190.33
190.395
190.39
190.324
190.325
190.324
190.326
190.326
190.327
190.338
190.335
190.344
190.341
190.353
190.348
190.365
190.359
190.386
190.374
190.412
190.4
190.437
190.423
190.454
190.435
190.506
190.453
190.468
190.421
190.436
190.389
190.405
190.363
190.374
190.349
190.355
190.342
190.345
190.335
190.338
190.333
306.794
305.232
305.239
306.708
259.25
295.418
229.106
239.251
217.252
222.346
213.213
300.576
294.053
294.101
201.164
201.226
190.898
204.911
203.067
209.905
207.251
217.249
213.223
229.141
222.365
259.39
239.317
305.256
295.487
306.794
306.711
305.223
190.329
190.327
190.332
190.331
190.335
190.333
190.338
190.336
190.344
190.341
190.349
190.347
190.354
190.352
190.359
190.357
190.362
190.361
190.376
190.366
190.364
190.378
190.368
190.383
190.374
190.372
190.362
190.363
190.36
190.362
190.355
190.358
190.35
190.352
190.345
190.347
190.341
190.343
190.336
190.338
190.332
190.334
190.328
190.33
190.327
190.326
190.325
190.326
190.326
190.327
196.531
190.724
204.897
190.415
190.391
190.392
190.4
190.331
195.566
190.512
190.386
300.48
293.985
190.324
190.851
190.325
190.325
190.325
190.325
190.335
190.333
201.287
190.571
190.583
195.971
190.325
209.93
207.234
190.592
190.648
190.64
190.388
190.442
190.419
190.392
190.523
300.466
293.973
190.819
197.056
197.854
190.572
190.469
190.385
190.371
190.38
190.376
190.384
190.388
190.447
190.51
202.988
190.327
190.514
190.736
190.402
190.397
190.324
190.324
190.325
190.325
190.327
190.326
190.33
190.328
190.333
190.335
190.334
190.341
190.338
190.348
190.345
190.358
190.352
190.374
190.365
190.397
190.385
190.425
190.411
190.459
190.44
190.501
190.481
190.529
190.537
190.556
190.501
190.523
190.461
190.48
190.419
190.441
190.383
190.399
190.362
190.37
190.348
190.354
190.339
190.343
190.337
306.676
305.113
305.134
306.592
259.233
295.342
229.088
239.233
217.251
222.334
213.215
286.2
286.169
286.196
190.39
286.141
286.175
199.52
198.617
201.719
200.489
205.09
203.243
209.986
207.334
217.272
213.261
229.127
222.358
259.392
239.299
305.142
295.413
306.669
306.587
305.098
190.326
190.326
190.326
190.327
190.326
190.329
190.328
190.331
190.33
190.334
190.333
190.337
190.335
190.341
190.339
190.345
190.343
190.349
190.347
190.354
190.352
190.356
190.355
190.359
190.357
190.375
190.364
190.362
190.366
190.367
190.376
190.367
190.367
190.364
190.366
190.358
190.361
190.355
190.356
190.354
190.355
190.351
190.353
190.347
190.349
190.343
190.345
190.338
190.341
190.334
190.336
190.33
190.332
190.328
190.329
190.326
190.327
190.325
190.325
190.324
190.324
190.324
190.324
190.325
190.324
190.325
190.325
190.326
190.326
190.331
190.328
196.107
199.917
190.352
190.694
204.947
191.011
190.667
190.789
190.772
190.726
190.398
190.424
190.376
190.377
190.409
190.398
190.534
190.596
190.646
190.327
190.737
190.627
190.589
286.133
196.957
197.705
190.325
190.326
190.327
196.479
190.601
190.453
190.395
190.384
190.385
190.397
190.432
190.491
190.329
190.331
201.258
190.796
192.788
196.367
190.394
190.744
197.717
197.347
190.539
199.504
190.478
190.39
190.391
190.458
190.33
190.334
190.333
278.046
286.148
278.17
203.049
190.324
190.497
190.506
190.695
190.345
190.349
190.41
190.377
190.403
190.547
190.324
190.324
190.324
190.324
190.325
190.324
190.325
190.325
190.327
190.336
190.339
190.337
190.345
190.342
190.354
190.349
190.365
190.359
190.383
190.372
190.41
190.396
190.443
190.425
190.489
190.464
190.54
190.515
190.563
190.756
190.608
190.545
190.569
190.499
190.521
190.452
190.477
190.407
190.428
190.377
190.39
190.356
190.365
190.345
190.35
190.339
190.342
190.336
300.307
293.887
306.446
304.896
304.912
306.362
259.181
295.166
229.06
239.192
217.242
222.314
209.935
213.213
204.967
207.239
278.025
286.134
278.159
278.043
278.028
278.022
278.028
199.467
198.48
201.801
200.542
205.118
203.328
209.984
207.351
217.284
213.278
229.099
222.358
259.309
239.242
304.913
295.224
306.433
306.351
300.289
304.878
293.871
190.327
190.327
190.328
190.328
190.329
190.328
190.331
190.33
190.333
190.332
190.336
190.334
190.338
190.337
190.342
190.34
190.345
190.344
190.348
190.346
190.35
190.349
190.353
190.351
190.357
190.355
190.358
190.358
190.358
190.358
190.355
190.357
190.352
190.354
190.35
190.351
190.349
190.35
190.346
190.348
190.343
190.344
190.34
190.341
190.336
190.338
190.332
190.334
190.33
190.331
190.328
190.329
190.327
190.328
190.325
190.326
190.323
190.323
190.324
190.324
190.324
190.324
190.325
190.324
190.327
190.325
193.613
195.701
190.327
190.695
190.632
190.666
190.434
190.405
190.386
190.386
190.405
190.421
190.504
190.345
190.334
190.644
190.9
196.573
190.684
199.799
190.327
190.788
190.612
286.22
278.335
195.81
197.565
190.397
196.019
190.705
190.563
198.422
198.534
190.463
190.4
190.393
190.394
190.402
190.444
190.473
190.325
190.326
190.338
190.336
190.329
190.331
286.233
278.345
270.785
271.008
190.753
201.335
190.323
190.324
203.1
190.336
190.512
190.327
190.66
190.347
190.418
190.386
190.412
190.516
190.323
190.324
190.323
190.323
190.324
190.324
190.325
190.324
190.328
190.326
190.333
190.33
190.335
190.338
190.337
190.343
190.34
190.349
190.346
190.359
190.353
190.372
190.365
190.392
190.38
190.422
190.406
190.464
190.441
190.521
190.491
190.574
190.55
190.602
190.76
190.614
190.65
190.552
190.581
190.506
190.526
190.466
190.487
190.424
190.445
190.388
190.405
190.365
190.375
190.352
190.357
190.343
190.347
190.34
300.183
293.874
306.172
304.69
304.616
306.081
259.062
294.895
229.02
239.129
217.239
222.296
209.958
213.225
205.01
207.259
270.714
270.999
270.784
270.679
270.678
270.715
199.356
198.241
201.827
200.463
205.178
203.337
210.025
207.373
217.275
213.275
229.046
222.326
259.122
239.156
304.604
294.915
306.153
306.063
300.165
304.669
293.858
198.887
190.328
190.327
190.328
190.328
190.329
190.329
190.33
190.33
190.332
190.331
190.334
190.333
190.336
190.335
190.339
190.337
190.342
190.341
190.343
190.342
190.345
190.345
190.348
190.347
190.351
190.349
190.352
190.352
190.351
190.352
190.35
190.35
190.347
190.348
190.345
190.346
190.345
190.345
190.341
190.343
190.339
190.34
190.336
190.338
190.334
190.335
190.332
190.333
190.33
190.331
190.328
190.329
190.327
190.328
190.326
190.326
190.326
190.323
190.323
190.323
190.323
190.323
190.323
190.325
190.324
190.326
190.846
190.862
271.263
195.293
195.647
196.184
190.858
190.658
190.4
195.496
190.655
190.587
190.624
198.897
191.024
198.014
190.443
190.412
190.393
190.395
190.411
190.433
190.484
190.343
190.327
190.332
190.334
190.69
196.672
190.751
190.723
190.334
271.271
190.799
190.736
199.804
190.325
190.896
201.433
203.127
190.406
195.819
190.645
190.526
190.983
190.467
190.402
190.457
264.962
265.29
195.109
190.489
191.026
190.333
190.402
194.796
195.11
190.616
190.342
190.994
194.098
190.426
190.395
190.423
190.495
190.327
190.325
190.326
190.323
190.324
190.323
190.323
190.324
190.323
190.324
190.324
190.327
190.325
190.329
190.337
190.335
190.34
190.338
190.345
190.343
190.353
190.349
190.364
190.358
190.378
190.37
190.4
190.387
190.434
190.415
190.486
190.457
190.553
190.519
190.608
190.582
190.642
190.807
190.626
190.675
190.539
190.58
190.485
190.507
190.455
190.469
190.426
190.441
190.395
190.41
190.371
190.382
190.357
190.363
190.346
190.351
190.341
190.343
190.336
190.338
286.64
271.841
278.88
300.127
294.063
305.729
304.438
304.084
305.614
258.705
294.325
228.927
238.977
217.201
222.235
209.963
213.211
205.028
207.277
190.825
264.553
264.671
264.487
264.489
264.673
264.553
265.298
264.969
199.21
198.082
201.714
200.334
205.12
203.269
209.998
207.343
217.23
213.242
228.944
222.257
258.735
238.989
304.066
294.327
305.706
305.591
300.106
304.415
286.623
294.043
271.829
278.865
190.327
190.327
190.327
190.857
190.326
190.325
190.326
190.349
190.327
190.327
190.328
190.328
190.329
190.328
190.33
190.329
190.331
190.33
190.333
190.332
190.334
190.333
190.336
190.335
190.339
190.338
190.34
190.34
190.342
190.341
190.343
190.343
190.345
190.344
190.346
190.346
190.346
190.346
190.345
190.345
190.343
190.344
190.341
190.342
190.341
190.341
190.339
190.34
190.336
190.338
190.334
190.335
190.333
190.333
190.331
190.332
190.33
190.331
190.329
190.329
190.327
190.328
190.327
190.327
190.327
190.327
190.327
190.327
190.323
190.324
190.323
190.323
190.323
190.323
190.323
190.323
190.324
190.323
190.328
190.326
190.332
190.33
196.49
196.407
195.498
195.95
196.776
197.266
190.794
201.528
203.14
190.41
195.248
190.6
190.541
190.585
191.04
190.328
191.127
191.046
200.02
190.449
190.415
190.403
190.406
190.416
190.444
190.468
190.488
190.327
190.903
190.334
265.844
265.833
193.202
194.963
194.559
197.323
190.495
190.47
190.334
190.327
190.423
190.807
190.608
191.915
192.135
192.049
191.817
194.364
201.539
190.533
190.417
194.763
190.565
190.537
191.087
191.097
196.296
195.912
190.328
195.198
200.2
200.149
195.446
190.431
190.405
190.43
190.477
190.325
190.326
190.323
190.324
190.323
190.323
190.323
190.323
190.324
190.323
190.326
190.325
190.33
190.328
190.332
190.338
190.336
190.342
190.34
190.347
190.344
190.355
190.351
190.366
190.36
190.382
190.373
190.406
190.392
190.443
190.422
190.503
190.469
190.579
190.541
190.637
190.611
190.714
190.671
190.771
190.732
190.767
190.812
190.643
190.69
190.542
190.592
190.466
190.498
190.432
190.445
190.415
190.424
190.393
190.404
190.373
190.382
190.359
190.365
190.348
190.353
190.343
190.345
190.338
190.34
190.336
266.143
272.209
279.245
286.962
294.33
300.306
304.482
305.577
305.431
303.783
293.765
258.07
238.759
228.799
222.153
217.152
213.187
209.963
207.295
205.058
203.169
201.583
200.244
199.148
198.206
197.493
196.571
190.812
195.508
261.626
261.125
260.761
260.434
260.272
260.185
260.184
260.272
260.434
260.767
261.133
261.636
261.943
191.195
198.212
199.212
200.321
201.69
203.229
205.088
207.297
209.962
213.191
217.159
222.16
228.804
238.762
258.091
293.766
303.765
305.41
305.556
304.46
300.285
294.312
286.945
279.23
272.195
266.131
261.933
194.686
194.395
196.177
190.494
190.485
191.545
191.418
190.548
190.501
190.473
191.364
190.34
192.435
190.374
193.401
191.23
191.112
196.127
191.07
192.415
191.877
198.835
197.453
199.085
194.922
194.087
191.641
192.556
192.204
191.963
190.802
190.451
190.423
190.417
190.423
190.469
190.452
196.551
196.135
195.689
195.24
194.747
194.246
190.378
190.621
197.825
190.328
190.998
191.133
190.334
190.333
190.331
190.329
190.327
190.325
190.324
190.323
190.322
190.322
190.323
190.323
190.323
190.323
190.323
190.324
190.325
190.325
190.326
190.327
190.327
190.327
190.328
190.328
190.328
190.327
190.327
190.327
190.328
190.328
190.329
190.329
190.33
190.331
190.331
190.332
190.332
190.333
190.333
190.334
190.335
190.336
190.337
190.338
190.339
190.339
190.339
190.34
190.34
190.341
190.341
190.341
190.341
190.341
190.34
190.34
190.34
190.34
190.339
190.339
190.338
190.337
190.337
190.337
190.335
190.334
190.333
190.333
190.332
190.331
190.331
190.33
190.33
190.329
190.329
190.329
190.328
190.328
190.328
190.327
190.327
190.327
259.801
260.119
266.352
262.166
190.328
194.144
190.924
190.327
190.327
190.829
190.573
190.326
190.325
190.324
190.324
190.323
190.323
190.323
190.322
190.322
190.322
190.322
190.323
190.323
190.325
190.326
190.331
190.33
190.328
190.336
190.337
190.339
190.341
190.344
190.347
190.35
190.354
190.359
190.365
190.372
190.38
190.388
190.396
190.402
190.409
190.419
190.439
190.473
190.519
190.572
190.625
190.669
190.705
190.737
190.838
190.775
190.692
190.941
190.81
190.74
190.695
190.663
190.636
190.6
190.557
190.515
190.48
190.452
190.429
190.411
190.396
190.384
190.375
190.368
190.362
190.357
190.353
190.349
190.347
190.344
190.342
190.338
190.34
194.998
190.332
190.33
190.329
190.327
190.325
190.324
190.323
190.322
190.322
190.322
190.323
190.323
190.323
190.323
190.325
190.326
190.327
190.326
190.332
190.328
190.328
190.328
190.328
190.328
190.328
190.327
190.328
190.328
190.328
190.329
190.329
190.33
190.33
190.331
190.331
190.332
190.332
190.332
190.333
190.334
190.334
190.335
190.335
190.336
190.337
190.337
190.337
190.337
190.337
190.337
190.337
190.337
190.337
190.337
190.336
190.336
190.336
190.336
190.336
190.336
190.335
190.335
190.334
190.333
190.333
190.332
190.332
190.331
190.331
190.33
190.33
190.33
190.329
190.329
190.329
190.329
190.328
190.328
190.328
190.328
190.328
190.328
190.328
190.566
191.147
190.328
190.328
193.765
193.686
194.09
194.501
194.923
195.355
195.826
196.254
196.703
197.438
198.222
199.139
200.252
201.591
203.131
204.983
207.192
209.849
213.062
217.006
221.971
228.542
238.309
256.569
292.533
303.331
305.371
305.615
304.918
301.054
295.306
287.893
266.342
272.707
279.949
190.46
190.437
190.42
190.433
191.209
190.923
191.78
192.721
192.405
192.142
191.917
191.736
193.868
190.965
198.149
199.013
259.811
259.336
258.957
258.612
258.43
258.331
258.332
258.43
258.612
258.953
259.329
190.862
198.723
192.11
192.467
191.187
190.664
190.492
190.334
193.588
194.054
194.533
191.496
195.4
195.756
197.018
197.551
198.26
199.173
200.267
201.589
203.156
205.019
207.232
209.876
213.077
217.013
221.976
228.547
238.313
256.558
292.537
303.35
305.393
305.638
304.941
301.075
295.324
287.908
279.964
272.719
196.111
195.741
191.189
191.174
191.292
192.778
190.509
190.519
190.338
190.366
190.333
260.129
262.158
190.475
193.338
191.331
196.685
260.398
260.405
190.327
194.408
192.936
191.507
190.535
190.454
190.432
191.666
190.328
190.34
190.985
190.338
193.217
190.488
191.289
191.265
196.254
272.842
262.243
266.342
288.058
280.096
301.263
295.463
306.048
305.228
303.7
305.815
255.244
292.084
228.317
237.872
216.921
221.839
209.832
213.012
205.018
207.21
201.604
203.168
199.182
200.276
197.549
198.263
196.55
196.99
195.699
196.142
194.845
195.28
193.972
194.429
193.073
193.493
192.405
192.694
191.839
192.087
191.541
255.539
256.233
255.941
254.8
255.154
254.485
254.594
254.594
254.484
255.157
254.8
255.948
255.545
256.461
260.585
256.467
256.242
198.033
190.718
190.335
191.64
191.356
190.438
190.446
260.575
266.325
262.231
280.073
272.822
295.438
288.034
305.2
301.237
305.79
306.022
292.076
303.678
237.858
255.243
221.822
228.302
212.985
216.901
207.154
209.793
203.094
204.953
200.21
201.553
198.161
199.115
196.986
197.437
196.002
190.787
195.152
195.578
194.416
194.78
193.617
194.038
192.808
193.161
192.168
192.456
191.881
190.329
190.328
190.329
190.329
190.329
190.329
190.329
190.329
190.329
190.329
190.329
190.329
190.33
190.33
190.33
190.33
190.331
190.33
190.331
190.331
190.332
190.332
190.333
190.332
190.334
190.333
190.334
190.334
190.334
190.334
190.334
190.334
190.334
190.334
190.334
190.334
190.334
190.334
190.334
190.334
190.334
190.335
190.334
190.334
190.333
190.333
190.332
190.332
190.332
190.332
190.331
190.331
190.33
190.33
190.329
190.33
190.329
190.329
190.328
190.329
190.328
190.328
190.329
190.329
190.328
190.329
190.331
190.329
190.891
190.326
190.327
190.324
190.325
190.323
190.323
190.322
190.322
190.322
190.322
190.323
190.322
190.324
190.324
190.327
190.326
190.332
190.329
191.481
190.333
191.579
190.341
190.339
190.346
190.343
190.351
190.348
190.359
190.354
190.37
190.364
190.387
190.378
190.416
190.4
190.461
190.436
190.526
190.491
190.609
190.566
190.669
190.644
190.74
190.693
190.882
190.813
191.038
190.798
190.885
190.715
190.75
190.641
190.681
190.55
190.596
190.464
190.504
190.417
190.435
190.398
190.406
190.382
190.39
190.367
190.375
190.356
190.361
190.349
190.352
190.343
190.346
190.338
190.34
190.337
190.339
190.336
190.331
190.333
190.327
190.329
190.324
190.325
190.322
190.323
190.322
190.322
190.322
190.322
190.323
190.322
190.324
190.323
190.325
190.324
195.179
190.326
191.292
190.328
256.781
256.787
190.342
193.004
190.327
190.327
190.326
190.325
190.324
190.324
190.323
190.323
190.322
190.322
190.322
190.322
190.322
190.322
190.323
190.324
190.325
190.326
190.328
190.33
190.332
190.334
190.34
194.622
190.338
190.341
190.343
190.345
190.349
190.352
190.356
190.36
190.366
190.373
190.382
190.391
190.401
190.413
190.426
190.444
190.469
190.502
190.54
190.577
190.607
190.637
190.676
190.725
190.787
190.864
190.999
191.072
191.194
190.993
190.88
190.757
190.692
190.661
190.642
190.613
190.575
190.536
190.5
190.468
190.441
190.42
190.404
190.391
190.381
190.374
190.368
190.362
190.358
190.354
190.351
190.348
190.346
190.344
190.342
190.339
193.207
190.335
190.333
190.332
190.329
190.326
190.325
190.324
190.323
190.323
190.322
190.322
190.322
190.322
190.322
190.323
190.323
190.324
190.326
190.327
190.328
190.935
190.329
190.329
190.329
190.329
190.329
190.329
190.329
190.329
190.329
190.329
190.329
190.33
190.33
190.33
190.33
190.33
190.33
190.331
190.331
190.331
190.331
190.332
190.332
190.332
190.332
190.332
190.333
190.333
190.332
190.332
190.332
190.332
190.332
190.332
190.332
190.332
190.332
190.332
190.332
190.332
190.332
190.332
190.332
190.332
190.332
190.332
190.331
190.331
190.331
190.331
190.331
190.33
190.33
190.33
190.33
190.33
190.33
190.33
190.33
190.33
190.33
190.33
190.331
190.331
190.33
190.33
190.329
190.329
190.329
190.328
191.48
191.601
191.892
192.212
192.631
193.222
193.8
194.224
194.585
194.894
195.176
195.52
195.917
196.388
196.848
197.339
198.036
198.967
200.06
201.384
202.93
204.78
206.971
209.583
212.734
216.587
221.39
227.669
236.925
252.316
287.619
305.292
307.82
307.913
306.475
302.548
296.482
288.857
280.714
273.305
266.453
262.299
260.789
257.043
190.453
190.442
193.696
191.519
190.336
193.352
197.375
257.364
257.17
256.972
256.706
256.299
255.888
255.507
255.284
255.165
255.165
255.284
255.507
255.885
256.293
256.7
256.964
257.164
257.358
257.515
190.975
191.73
191.967
192.298
192.541
193.03
193.574
194.093
194.442
194.846
195.26
195.708
196.131
196.502
196.913
197.402
198.064
198.986
200.103
201.45
203.022
204.859
207.027
209.617
212.754
216.601
221.403
227.684
236.942
252.333
287.627
305.319
307.852
307.945
306.508
302.579
296.511
288.882
280.735
273.323
266.469
262.311
260.798
257.048
257.52
191.42
191.242
190.441
190.456
197.079
191.691
191.358
194.001
190.336
190.469
190.774
191.246
190.328
190.489
190.328
190.337
191.053
196.379
190.329
190.327
191.594
190.335
190.723
190.67
197.343
190.376
190.847
190.763
196.52
190.533
190.327
190.496
190.483
190.481
197.279
190.334
190.351
190.394
199.572
190.325
190.842
196.595
197.599
190.718
190.339
196.941
190.336
190.428
190.334
191.403
190.334
191.787
190.41
194.972
192.987
196.972
191.272
190.327
192.758
197.672
190.749
196.947
190.58
190.379
190.327
190.369
190.326
190.477
190.333
190.348
190.367
)
;

boundaryField
{
    wall
    {
        type            zeroGradient;
    }
    outlet
    {
        type            inletOutlet;
        inletValue      uniform 1e-05;
        value           nonuniform List<scalar> 
20
(
257.364
257.17
256.972
256.706
256.299
255.888
255.507
255.284
255.165
255.165
255.284
255.507
255.885
256.293
256.7
256.964
257.164
257.358
257.515
257.52
)
;
    }
    frontAndBackPlanes
    {
        type            empty;
    }
}


// ************************************************************************* //
