/*--------------------------------*- C++ -*----------------------------------*\
| =========                 |                                                 |
| \\      /  F ield         | OpenFOAM: The Open Source CFD Toolbox           |
|  \\    /   O peration     | Version:  2212                                  |
|   \\  /    A nd           | Website:  www.openfoam.com                      |
|    \\/     M anipulation  |                                                 |
\*---------------------------------------------------------------------------*/
FoamFile
{
    version     2.0;
    format      ascii;
    arch        "LSB;label=32;scalar=64";
    class       volScalarField;
    location    "0.000228";
    object      p;
}
// * * * * * * * * * * * * * * * * * * * * * * * * * * * * * * * * * * * * * //

dimensions      [1 -1 -2 0 0 0 0];

internalField   nonuniform List<scalar> 
58408
(
38.3463
35.8445
37.6315
39.0942
40.2683
41.3307
42.3148
43.212
44.016
44.7436
45.4338
46.1101
46.7476
47.3205
47.8395
48.3283
48.7868
49.1901
49.5273
49.8159
50.0868
50.3595
50.6328
50.8907
51.1193
51.3176
51.4831
51.6184
51.7337
51.8325
51.9094
51.9588
51.9822
51.991
51.9932
51.979
51.9528
51.9166
51.87
51.8151
51.7527
51.6821
51.6033
51.5167
51.4231
51.3222
51.2158
51.1053
50.9913
50.8781
50.767
50.6558
50.5443
50.4318
50.3175
50.2017
50.0831
49.9548
49.8128
49.6642
49.5182
49.375
49.2294
49.0817
48.9367
48.7913
48.6298
48.4499
48.2684
48.096
47.9289
47.7635
47.597
47.4226
47.2432
47.0702
46.9053
46.7452
46.5919
46.4448
46.2978
46.152
46.0182
45.8963
45.7816
45.6721
45.5667
45.4661
45.3741
45.289
45.2038
45.1176
45.0342
44.9534
44.872
44.7882
44.7008
44.6071
44.5043
44.3898
44.2608
44.1148
43.9405
43.7272
43.48
43.2058
42.9109
42.6099
42.3043
41.9883
41.6666
41.3488
41.0489
40.7725
40.5161
40.2715
40.032
39.7941
39.5625
39.3491
39.1614
39.0011
38.862
38.7341
38.6099
38.4918
38.391
38.3117
38.2534
38.2182
38.2069
38.2098
38.2187
38.2184
38.1918
38.0816
37.8306
37.36
36.5897
35.415
32.9777
29.0364
16.7891
41.2579
37.601
38.2953
39.5676
40.6037
41.577
42.4964
43.3531
44.1317
44.8421
45.5152
46.1725
46.7942
47.355
47.8646
48.3421
48.7883
49.185
49.5192
49.8065
50.0759
50.346
50.6162
50.8719
51.0992
51.2954
51.4589
51.5937
51.7087
51.8082
51.8824
51.9291
51.9505
51.9581
51.9601
51.946
51.9195
51.8833
51.8367
51.7816
51.7186
51.6476
51.5683
51.4815
51.3874
51.2861
51.1792
51.0682
50.9537
50.84
50.7284
50.6166
50.5044
50.3912
50.2763
50.16
50.0405
49.9113
49.7685
49.6193
49.4728
49.3287
49.182
49.0327
48.8844
48.7338
48.5689
48.3897
48.2125
48.0436
47.876
47.7061
47.5362
47.3651
47.1942
47.0261
46.8632
46.7022
46.5469
46.3998
46.256
46.114
45.9812
45.8597
45.7459
45.6375
45.5332
45.4337
45.3425
45.2579
45.1733
45.0875
45.004
44.9226
44.8398
44.7537
44.6635
44.5665
44.4602
44.3417
44.208
44.0566
43.8765
43.6575
43.4054
43.1274
42.8299
42.5272
42.2206
41.9049
41.5847
41.2698
40.9735
40.7013
40.4493
40.2091
39.9744
39.7415
39.5152
39.3061
39.122
38.9645
38.8279
38.7024
38.5809
38.4656
38.3677
38.2922
38.2369
38.2048
38.195
38.1957
38.1952
38.1832
38.1272
37.9649
37.6372
37.1392
36.4512
35.5292
34.1344
32.6847
29.5204
41.5988
37.8668
38.4874
39.7509
40.7649
41.7237
42.6229
43.4554
44.2113
44.9039
45.5614
46.2037
46.8127
47.3634
47.8654
48.337
48.778
49.1666
49.4954
49.7799
50.0467
50.3131
50.5785
50.8297
51.0538
51.2458
51.4058
51.5394
51.6544
51.7547
51.8262
51.8667
51.8843
51.8906
51.892
51.8779
51.851
51.8146
51.7677
51.712
51.6483
51.5765
51.4966
51.4093
51.3147
51.2126
51.1049
50.993
50.8778
50.7631
50.6505
50.5376
50.4243
50.3099
50.1939
50.0764
49.9556
49.8248
49.6806
49.5303
49.3827
49.2371
49.0887
48.9383
48.7891
48.6378
48.4722
48.2928
48.1151
47.9461
47.7803
47.6104
47.4376
47.2659
47.0957
46.9344
46.7751
46.6143
46.4574
46.31
46.1716
46.0363
45.9059
45.7855
45.6734
45.567
45.4647
45.3671
45.2773
45.1938
45.1101
45.0248
44.9412
44.8585
44.7728
44.6827
44.5874
44.4847
44.3719
44.2464
44.1056
43.9471
43.7598
43.5338
43.2754
42.993
42.6929
42.3886
42.0811
41.7659
41.4476
41.1361
40.8441
40.5767
40.3299
40.0952
39.8663
39.6399
39.4207
39.219
39.0413
38.8891
38.757
38.6358
38.5188
38.4085
38.3162
38.2477
38.1984
38.172
38.164
38.16
38.149
38.1185
38.0361
37.8489
37.5232
37.1299
36.5974
35.9387
35.4332
35.0952
35.2273
42.7265
38.7184
39.0266
40.1488
41.0808
41.9751
42.8237
43.6172
44.3432
45.0107
45.6465
46.267
46.8533
47.3861
47.8767
48.3408
48.7729
49.1511
49.4733
49.7538
50.0174
50.2802
50.5412
50.787
51.0047
51.1916
51.3481
51.48
51.5981
51.7028
51.766
51.8006
51.8145
51.8193
51.8204
51.8054
51.7777
51.74
51.6917
51.6349
51.5703
51.4977
51.4171
51.3293
51.2342
51.1316
51.0235
50.9113
50.7957
50.6808
50.5677
50.4544
50.3405
50.2254
50.1086
49.9904
49.8686
49.7366
49.5914
49.4403
49.2918
49.1452
48.996
48.8447
48.6947
48.5427
48.3765
48.1967
48.0185
47.8488
47.6824
47.5136
47.3424
47.1709
47.0019
46.8398
46.6807
46.522
46.3687
46.2234
46.0853
45.9513
45.8243
45.7066
45.5963
45.4917
45.3909
45.2942
45.2053
45.1224
45.039
44.9538
44.8695
44.7853
44.6973
44.6042
44.5055
44.3988
44.2816
44.1516
44.006
43.8423
43.6498
43.419
43.1576
42.8729
42.571
42.2649
41.956
41.6406
41.3233
41.014
40.7255
40.4621
40.2188
39.9874
39.7618
39.5401
39.3261
39.1288
38.955
38.8062
38.677
38.5585
38.4444
38.3372
38.2487
38.1843
38.1404
38.1182
38.1109
38.1055
38.0928
38.0613
37.9854
37.83
37.5671
37.2487
36.9252
36.5187
36.2209
36.0775
35.8111
43.4539
39.2874
39.4888
40.5062
41.3799
42.2258
43.0316
43.7892
44.4862
45.1307
45.7445
46.3438
46.9134
47.4317
47.9051
48.3553
48.7782
49.152
49.469
49.7445
50.0035
50.2616
50.5176
50.7587
50.9718
51.1533
51.3064
51.438
51.562
51.6624
51.7148
51.7401
51.7515
51.7553
51.756
51.739
51.7104
51.6709
51.6205
51.5618
51.4954
51.4212
51.3392
51.2501
51.1539
51.0503
50.9412
50.8281
50.7117
50.596
50.4822
50.3681
50.2533
50.1373
50.0198
49.9006
49.7779
49.6447
49.4982
49.3459
49.1963
49.0486
48.8983
48.746
48.5951
48.4422
48.2753
48.0951
47.9165
47.7464
47.5798
47.4118
47.2415
47.0705
46.902
46.7403
46.5831
46.4266
46.2747
46.1311
45.9946
45.8615
45.7367
45.6211
45.5127
45.4096
45.3103
45.2152
45.1275
45.0453
44.9623
44.877
44.792
44.7063
44.6161
44.5201
44.418
44.3076
44.187
44.0535
43.9039
43.736
43.5395
43.3056
43.0415
42.7538
42.4492
42.1404
41.8297
41.5134
41.1967
40.8897
40.6039
40.3428
40.1014
39.8718
39.6501
39.4335
39.2241
39.0307
38.8608
38.7156
38.5891
38.4732
38.3622
38.2585
38.174
38.1129
38.0734
38.055
38.0516
38.0474
38.038
38.0152
37.9626
37.8552
37.6832
37.4991
37.2626
36.9897
36.7996
36.6315
36.4842
44.2891
39.8605
39.8965
40.8762
41.6876
42.489
43.2522
43.9746
44.6426
45.2631
45.8558
46.4349
46.9846
47.4883
47.9516
48.3867
48.794
49.1595
49.4727
49.7463
50.0038
50.2576
50.5077
50.743
50.9512
51.1289
51.2797
51.4128
51.5401
51.625
51.6685
51.6883
51.6954
51.6971
51.6962
51.6764
51.646
51.6048
51.5526
51.4918
51.4233
51.347
51.2631
51.1723
51.0747
50.9698
50.8596
50.7453
50.6278
50.5111
50.3963
50.2812
50.1654
50.0484
49.9296
49.8093
49.6854
49.5511
49.4033
49.2496
49.0986
48.9496
48.7982
48.6448
48.493
48.3393
48.1716
47.9907
47.8119
47.6416
47.4749
47.3073
47.1377
46.9672
46.7994
46.6385
46.4824
46.3275
46.1776
46.0361
45.9
45.7681
45.6445
45.5306
45.4237
45.3221
45.2242
45.1307
45.0442
44.9627
44.8802
44.7949
44.7094
44.6225
44.5303
44.432
44.3273
44.2144
44.0913
43.9549
43.802
43.6306
43.4308
43.1939
42.9265
42.6356
42.3283
42.017
41.7042
41.3869
41.0702
40.764
40.4792
40.2191
39.9791
39.7523
39.534
39.3205
39.1145
38.9256
38.7605
38.6187
38.4945
38.3813
38.2734
38.1728
38.0925
38.0344
37.9989
37.9871
37.9871
37.9866
37.9843
37.9777
37.9611
37.9194
37.8496
37.7368
37.5902
37.4163
37.2578
37.0475
36.8979
44.8503
40.3099
40.3012
41.2254
41.9846
42.7468
43.4718
44.1622
44.803
45.4008
45.9727
46.5321
47.065
47.5533
48.0042
48.4302
48.8265
49.1783
49.4847
49.7544
50.0088
50.2606
50.5089
50.7408
50.9434
51.1173
51.2687
51.4047
51.5249
51.5922
51.6259
51.6407
51.6457
51.6469
51.6407
51.6183
51.5852
51.5414
51.4867
51.4234
51.3526
51.2741
51.1882
51.0957
50.9964
50.8901
50.7786
50.6631
50.5444
50.4266
50.3106
50.1944
50.0775
49.9593
49.8393
49.7177
49.5925
49.4568
49.3078
49.1528
49.0003
48.85
48.6974
48.5429
48.3901
48.2355
48.0671
47.8856
47.7062
47.5355
47.3688
47.2014
47.0324
46.8625
46.6953
46.5353
46.3803
46.2269
46.0784
45.9383
45.8044
45.6745
45.5499
45.438
45.3324
45.2321
45.1355
45.043
44.9574
44.8765
44.7945
44.7095
44.6235
44.5356
44.4421
44.342
44.2354
44.1204
43.9949
43.8558
43.7
43.5255
43.3229
43.0833
42.8131
42.5194
42.2095
41.8958
41.581
41.2623
40.945
40.6389
40.3546
40.095
39.8557
39.6305
39.4139
39.2029
39.0008
38.8162
38.6545
38.5154
38.3943
38.2846
38.1797
38.082
38.0062
37.9512
37.9187
37.9181
37.919
37.9222
37.9304
37.9479
37.9657
37.9974
37.9821
37.9484
37.8914
37.777
37.6336
37.4303
37.2758
45.3434
40.7122
40.6977
41.5571
42.2763
43.0014
43.6917
44.3522
44.9676
45.5436
46.0957
46.6365
47.1531
47.6284
48.0678
48.4825
48.8699
49.2151
49.511
49.7737
50.0234
50.2711
50.5155
50.7442
50.9453
51.1184
51.2704
51.4072
51.5102
51.5621
51.5878
51.5984
51.6018
51.6026
51.5913
51.5653
51.5288
51.4817
51.4239
51.3578
51.2842
51.2034
51.1153
51.0208
50.9197
50.8119
50.699
50.5821
50.4622
50.3432
50.226
50.1086
49.9905
49.871
49.7498
49.6268
49.5001
49.363
49.2126
49.0562
48.9023
48.7505
48.5965
48.4409
48.2871
48.1315
47.9623
47.7803
47.6004
47.4293
47.2625
47.0953
46.9268
46.7575
46.5911
46.4319
46.278
46.126
45.9788
45.8401
45.7073
45.5785
45.4572
45.3451
45.2403
45.1409
45.0455
44.954
44.8691
44.7889
44.7072
44.6223
44.536
44.4472
44.3525
44.2509
44.1427
44.0259
43.8983
43.757
43.5987
43.4217
43.2165
42.9746
42.702
42.4058
42.0936
41.7775
41.4607
41.1404
40.8221
40.5157
40.2312
39.9716
39.7326
39.5082
39.2929
39.0838
38.8846
38.7028
38.5442
38.4084
38.2907
38.1836
38.0811
37.9874
37.9165
37.8645
37.8384
37.8392
37.8425
37.8507
37.8724
37.91
37.9673
38.0704
38.1429
38.1321
38.1151
38.0673
37.9596
37.7882
37.581
45.7642
41.097
41.0794
41.8808
42.566
43.2557
43.9139
44.5461
45.1375
45.6927
46.2257
46.7487
47.2494
47.7118
48.1402
48.5452
48.9238
49.2619
49.555
49.8138
50.0555
50.2956
50.5329
50.7559
50.9534
51.1252
51.2801
51.42
51.4987
51.5375
51.5548
51.561
51.5629
51.5637
51.546
51.5159
51.4754
51.4246
51.3632
51.2937
51.2172
51.1337
51.0432
50.9466
50.8436
50.7341
50.6197
50.5015
50.3803
50.26
50.1415
50.0228
49.9034
49.7826
49.66
49.5356
49.4074
49.2688
49.1169
48.9591
48.8037
48.6503
48.4949
48.338
48.183
48.0264
47.8564
47.6739
47.4935
47.3222
47.1552
46.9883
46.8201
46.6515
46.4859
46.3277
46.1749
46.0242
45.8784
45.7409
45.6093
45.4817
45.362
45.2517
45.1482
45.0482
44.9539
44.8635
44.7794
44.6996
44.6183
44.5334
44.4467
44.3573
44.2614
44.1586
44.0489
43.9306
43.8013
43.658
43.4976
43.3184
43.111
42.8671
42.5924
42.2941
41.9797
41.6614
41.3424
41.0203
40.7007
40.3934
40.1083
39.8483
39.6092
39.3851
39.1706
38.963
38.766
38.5868
38.4307
38.2977
38.1825
38.0778
37.9788
37.8893
37.8217
37.7738
37.7544
37.7556
37.7604
37.7732
37.8028
37.8652
37.965
38.0901
38.2396
38.3231
38.3116
38.2739
38.207
38.0766
37.8281
46.1751
41.4841
41.4635
42.2063
42.8586
43.5138
44.1413
44.7461
45.3142
45.8492
46.3638
46.8693
47.3547
47.8043
48.2219
48.6168
48.9864
49.3176
49.6062
49.8623
50.1035
50.3409
50.5708
50.7835
50.9747
51.1456
51.3082
51.426
51.4849
51.5132
51.5254
51.5296
51.5305
51.5247
51.5021
51.4672
51.4221
51.3668
51.3013
51.2281
51.1483
51.0619
50.9689
50.8699
50.7649
50.6537
50.5377
50.4181
50.2956
50.174
50.0542
49.9341
49.8134
49.6912
49.5672
49.4413
49.3115
49.1711
49.0178
48.8585
48.7015
48.5464
48.3896
48.2315
48.0753
47.9176
47.7468
47.5638
47.3831
47.2115
47.0445
46.8778
46.7102
46.5423
46.3775
46.2204
46.0687
45.9194
45.7751
45.6389
45.5085
45.3823
45.2638
45.1545
45.0523
44.9553
44.859
44.7698
44.6865
44.6072
44.5262
44.4414
44.3544
44.2644
44.1676
44.0636
43.9527
43.833
43.7023
43.5574
43.3952
43.2141
43.0049
42.7592
42.4828
42.1825
41.866
41.5455
41.2242
40.9002
40.579
40.2704
39.9842
39.7233
39.4836
39.2593
39.0452
38.8386
38.6433
38.4664
38.3128
38.1822
38.0694
37.9672
37.8713
37.7848
37.7211
37.6768
37.6624
37.664
37.6699
37.6856
37.7219
37.7988
37.9491
38.0878
38.2613
38.4253
38.4562
38.4419
38.3928
38.2837
38.0921
46.5742
41.8647
41.8414
42.5314
43.1521
43.7746
44.373
44.9519
45.4977
46.0134
46.5102
46.9993
47.47
47.9076
48.3148
48.7002
49.0612
49.3856
49.6694
49.9218
50.1598
50.3938
50.6214
50.8327
51.0203
51.1908
51.355
51.4347
51.4735
51.4928
51.5012
51.5035
51.5039
51.4894
51.4609
51.4204
51.37
51.3097
51.2395
51.1622
51.0788
50.9892
50.8935
50.7921
50.685
50.5719
50.4543
50.3332
50.2093
50.0864
49.9652
49.8437
49.7216
49.5979
49.4725
49.3449
49.2133
49.0712
48.9162
48.7554
48.5967
48.4399
48.2816
48.1221
47.9647
47.8059
47.6343
47.4509
47.2699
47.098
46.931
46.7646
46.5976
46.4305
46.2667
46.1107
45.9603
45.8124
45.6695
45.5346
45.4055
45.2807
45.1635
45.0551
44.9538
44.8576
44.7651
44.6733
44.5909
44.5123
44.4317
44.347
44.2598
44.1692
44.0716
43.9667
43.8547
43.7339
43.602
43.4558
43.2922
43.1094
42.8987
42.6516
42.3736
42.0716
41.7531
41.4304
41.1068
40.7806
40.4574
40.1471
39.8595
39.5973
39.3564
39.1315
38.9173
38.7114
38.5174
38.3422
38.1907
38.0625
37.952
37.8522
37.7591
37.6756
37.6143
37.5724
37.5625
37.5642
37.5708
37.5883
37.6289
37.7157
37.898
38.0744
38.2578
38.4305
38.5343
38.5249
38.4862
38.4192
38.3097
46.9669
42.2388
42.2132
42.8523
43.443
44.0346
44.6059
45.1603
45.6853
46.1828
46.663
47.1365
47.5937
48.02
48.4174
48.794
49.1472
49.4655
49.7448
49.9937
50.2281
50.4582
50.6824
50.8926
51.0852
51.2634
51.3849
51.4418
51.4685
51.4801
51.4842
51.4851
51.4798
51.4572
51.4222
51.3755
51.3191
51.2534
51.1782
51.0965
51.0092
50.9163
50.8177
50.7139
50.6046
50.4896
50.3704
50.2478
50.1225
49.9982
49.8756
49.7527
49.6291
49.5039
49.3769
49.2476
49.1142
48.9702
48.8135
48.651
48.4906
48.3321
48.1721
48.0112
47.8526
47.6927
47.5204
47.3366
47.1553
46.9832
46.8163
46.6503
46.484
46.3177
46.155
46.0001
45.851
45.7046
45.5632
45.4297
45.302
45.1785
45.0625
44.9552
44.8548
44.7594
44.6675
44.5793
44.4941
44.4163
44.3362
44.2517
44.1645
44.0735
43.9753
43.8696
43.7568
43.6351
43.5023
43.3551
43.1903
43.0063
42.7944
42.5462
42.2669
41.9634
41.6431
41.3182
40.9922
40.6637
40.3383
40.0261
39.7366
39.4726
39.2303
39.0043
38.7896
38.5838
38.3906
38.2168
38.0671
37.9408
37.8324
37.735
37.6445
37.5636
37.5035
37.4636
37.4555
37.4573
37.4644
37.4832
37.5262
37.6172
37.7995
38.0306
38.2398
38.4249
38.539
38.5331
38.5196
38.4874
38.4158
47.3474
42.6001
42.5718
43.1608
43.7248
44.2881
44.8345
45.3664
45.8723
46.353
46.818
47.2775
47.7224
48.1384
48.5272
48.8959
49.2422
49.5551
49.8305
50.0763
50.3079
50.5354
50.7581
50.9694
51.1632
51.33
51.4101
51.448
51.4658
51.4725
51.4743
51.4746
51.4583
51.4278
51.3859
51.3325
51.2699
51.1983
51.118
51.0317
50.9405
50.8443
50.7429
50.6366
50.5252
50.4084
50.2876
50.1636
50.0371
49.9114
49.7874
49.6631
49.5379
49.4113
49.2827
49.1517
49.0164
48.8706
48.7121
48.5478
48.3856
48.2253
48.0637
47.9015
47.7417
47.5808
47.4077
47.2236
47.042
46.8699
46.7032
46.5377
46.372
46.2067
46.0452
45.8915
45.7438
45.5989
45.459
45.3269
45.2004
45.0783
44.9635
44.8573
44.7578
44.6632
44.572
44.4844
44.4019
44.3222
44.2426
44.1584
44.0712
43.98
43.8813
43.7752
43.6618
43.5396
43.4062
43.2583
43.0927
42.9077
42.695
42.4459
42.1657
41.861
41.5391
41.2122
40.8839
40.553
40.2253
39.9108
39.6192
39.3532
39.1092
38.8818
38.6661
38.4599
38.267
38.0941
37.9458
37.8213
37.7148
37.6195
37.5313
37.4524
37.3925
37.354
37.3446
37.3464
37.3537
37.3727
37.416
37.5071
37.6823
37.935
38.1887
38.3992
38.5301
38.5281
38.5207
38.4999
38.4533
47.7046
42.9391
42.9083
43.4528
43.9929
44.5308
45.055
45.5671
46.0559
46.5218
46.9734
47.4206
47.8547
48.2619
48.643
49.005
49.3454
49.6539
49.9263
50.1699
50.4002
50.627
50.8498
51.0616
51.2529
51.373
51.4303
51.4561
51.4681
51.4729
51.474
51.4678
51.4416
51.4033
51.354
51.2938
51.2247
51.1472
51.0617
50.9709
50.8758
50.7763
50.6722
50.5636
50.4502
50.3317
50.2094
50.084
49.9561
49.8292
49.7038
49.578
49.4514
49.3232
49.193
49.0603
48.9231
48.7753
48.615
48.449
48.2849
48.1228
47.9595
47.7959
47.6349
47.473
47.2992
47.1148
46.9331
46.7609
46.5944
46.4295
46.2646
46.1003
45.9399
45.7875
45.6411
45.4977
45.3593
45.2285
45.1033
44.9825
44.8689
44.7637
44.6651
44.5712
44.4806
44.3935
44.3123
44.2332
44.1529
44.0691
43.9821
43.8907
43.7918
43.6854
43.5717
43.4492
43.3155
43.1671
43.001
42.8154
42.6021
42.3525
42.0716
41.7659
41.4426
41.1138
40.7833
40.4501
40.12
39.8032
39.5094
39.2413
38.9952
38.7661
38.5491
38.3421
38.149
37.9766
37.8293
37.7062
37.6015
37.508
37.4217
37.3444
37.2837
37.2464
37.2333
37.235
37.2419
37.26
37.3003
37.3857
37.5416
37.7728
38.08
38.3286
38.4889
38.5167
38.513
38.4963
38.4576
48.0399
43.2579
43.2249
43.7278
44.2464
44.7616
45.2662
45.7605
46.2343
46.6872
47.1271
47.5636
47.9885
48.388
48.7627
49.1189
49.4545
49.7594
50.0298
50.2729
50.5038
50.7328
50.9596
51.1738
51.3318
51.4124
51.4511
51.4674
51.4734
51.4755
51.4759
51.4617
51.427
51.3808
51.324
51.2567
51.181
51.0976
51.0068
50.9115
50.8126
50.71
50.6032
50.4924
50.377
50.2569
50.1332
50.0065
49.8774
49.7492
49.6224
49.4952
49.3671
49.2374
49.1055
48.971
48.8318
48.682
48.5199
48.352
48.186
48.022
47.8571
47.6921
47.5299
47.367
47.1925
47.0078
46.826
46.6539
46.4878
46.3234
46.1593
45.996
45.8368
45.6857
45.5407
45.3988
45.2618
45.1323
45.0085
44.8889
44.7764
44.6722
44.5744
44.4813
44.3914
44.3049
44.224
44.1477
44.0646
43.9816
43.895
43.8037
43.7047
43.5981
43.4844
43.3618
43.228
43.0794
42.913
42.7269
42.5133
42.2634
41.9821
41.6756
41.351
41.0204
40.6878
40.3522
40.0197
39.7005
39.4042
39.1337
38.8853
38.6541
38.4355
38.2273
38.0336
37.8613
37.7147
37.5927
37.4893
37.3973
37.3126
37.2366
37.1748
37.1379
37.1198
37.1213
37.1272
37.1425
37.1782
37.2539
37.3838
37.6073
37.8719
38.1721
38.3853
38.4783
38.4862
38.4754
38.4447
48.3527
43.5558
43.5208
43.9861
44.4853
44.9802
45.4674
45.9461
46.4068
46.8483
47.2781
47.7055
48.1225
48.5156
48.8849
49.2363
49.568
49.8706
50.1406
50.3855
50.6201
50.8537
51.082
51.2872
51.3916
51.4445
51.4691
51.4792
51.4825
51.4831
51.4814
51.4557
51.4123
51.3577
51.2931
51.2185
51.136
51.0466
50.9505
50.8508
50.7482
50.6426
50.5332
50.4203
50.3031
50.1815
50.0564
49.9285
49.7983
49.6687
49.5406
49.412
49.2824
49.151
49.0174
48.881
48.7398
48.5879
48.4238
48.254
48.0861
47.9202
47.7536
47.5872
47.4238
47.26
47.085
46.9
46.7183
46.5463
46.3805
46.2168
46.0536
45.8914
45.7335
45.5837
45.4401
45.2997
45.1642
45.0361
44.9135
44.7952
44.6838
44.5805
44.4836
44.3913
44.302
44.2161
44.1355
44.0592
43.9788
43.8939
43.8079
43.7168
43.6179
43.5113
43.3976
43.2752
43.1414
42.9929
42.8263
42.6401
42.4263
42.1763
41.8948
41.5877
41.2619
40.9296
40.5948
40.2568
39.9216
39.5998
39.3009
39.0277
38.7766
38.543
38.3222
38.1123
37.9175
37.7448
37.5985
37.4773
37.3748
37.2841
37.2006
37.1256
37.0631
37.0244
37.0008
37.0019
37.0064
37.0195
37.051
37.1058
37.2107
37.4148
37.6575
37.9204
38.1584
38.3657
38.4241
38.4222
38.4072
48.6433
43.8307
43.7938
44.2267
44.7087
45.186
45.6581
46.1235
46.573
47.005
47.4263
47.8461
48.2567
48.6447
49.0098
49.3578
49.6871
49.9892
50.2612
50.51
50.749
50.9867
51.2191
51.3654
51.4413
51.4767
51.4911
51.4965
51.4983
51.4988
51.4868
51.4505
51.3981
51.335
51.2624
51.1803
51.0911
50.9956
50.8944
50.7903
50.6842
50.5756
50.4639
50.3489
50.2301
50.107
49.9807
49.8516
49.7202
49.5894
49.46
49.3299
49.1986
49.0656
48.9302
48.7918
48.6484
48.4944
48.3282
48.1564
47.9864
47.8186
47.6503
47.4825
47.3179
47.1531
46.9776
46.7925
46.6108
46.439
46.2737
46.1107
45.9485
45.7874
45.6308
45.4823
45.3402
45.2013
45.0674
44.9406
44.8192
44.7022
44.5919
44.4895
44.3934
44.3017
44.2131
44.1278
44.0477
43.9714
43.8936
43.8066
43.7214
43.6307
43.532
43.4256
43.3122
43.19
43.0565
42.9082
42.7417
42.5555
42.3419
42.092
41.8104
41.5029
41.1761
40.8421
40.5051
40.1646
39.8267
39.5021
39.2003
38.924
38.6699
38.4334
38.2101
37.9979
37.8015
37.6278
37.4812
37.3602
37.2585
37.1686
37.0862
37.012
36.9493
36.9063
36.8773
36.8793
36.8821
36.8894
36.9086
36.9511
37.0373
37.2008
37.4172
37.6575
37.8831
38.1043
38.2813
38.3165
38.3204
48.9099
44.0824
44.044
44.4491
44.9162
45.3785
45.838
46.2922
46.7323
47.1565
47.571
47.9848
48.3905
48.7748
49.1372
49.4834
49.8124
50.1165
50.3926
50.6467
50.8904
51.128
51.3272
51.4325
51.4842
51.508
51.5177
51.521
51.5217
51.5187
51.4922
51.4465
51.3846
51.3127
51.232
51.1424
51.0464
50.9451
50.8388
50.7305
50.6211
50.5098
50.3959
50.2791
50.1587
50.0344
49.9068
49.7766
49.6441
49.5121
49.3812
49.2496
49.1167
48.982
48.8447
48.7043
48.5586
48.4023
48.2339
48.06
47.8879
47.7181
47.548
47.3787
47.213
47.0473
46.8713
46.6861
46.5044
46.3329
46.1681
46.0059
45.8447
45.6848
45.5295
45.3824
45.2418
45.1044
44.9719
44.8464
44.7264
44.6105
44.5012
44.3997
44.3044
44.2134
44.1254
44.0407
43.961
43.8851
43.8085
43.7213
43.636
43.546
43.4476
43.3416
43.2285
43.1068
42.9739
42.826
42.6598
42.4739
42.2605
42.0111
41.7296
41.4218
41.0942
40.7586
40.4194
40.0764
39.7358
39.4082
39.1033
38.8237
38.5663
38.3265
38.1
37.8851
37.6863
37.5111
37.3637
37.2425
37.141
37.0517
36.9701
36.8965
36.8335
36.7855
36.756
36.746
36.7474
36.7527
36.7667
36.7983
36.8651
36.9747
37.1607
37.3708
37.5817
37.7776
37.9644
38.116
38.1855
49.1515
44.3107
44.2711
44.6529
45.1073
45.5572
46.0061
46.4511
46.8838
47.3018
47.711
48.1204
48.5228
48.9049
49.2662
49.6124
49.9427
50.2502
50.5315
50.7918
51.0412
51.2637
51.4072
51.485
51.5215
51.538
51.5446
51.5467
51.5471
51.5347
51.497
51.441
51.3692
51.2884
51.1996
51.1026
51
50.8929
50.7818
50.6696
50.5571
50.4433
50.3274
50.2089
50.0872
49.9617
49.8331
49.7018
49.5683
49.4351
49.3029
49.1698
49.0352
48.8986
48.7594
48.6167
48.4687
48.3101
48.1394
47.9633
47.789
47.6172
47.4453
47.2746
47.1077
46.9412
46.7648
46.5795
46.398
46.2268
46.0625
45.9012
45.7411
45.5824
45.4285
45.2829
45.1437
45.0079
44.8768
44.7527
44.6338
44.5191
44.4109
44.3103
44.2157
44.1254
44.038
43.9538
43.8746
43.799
43.7221
43.6379
43.5511
43.4619
43.3639
43.2584
43.146
43.0249
42.8927
42.7454
42.5797
42.3943
42.1815
41.9327
41.6516
41.3437
41.0153
40.6783
40.337
39.9915
39.648
39.3174
39.0091
38.7259
38.4648
38.2212
37.9911
37.7728
37.571
37.3935
37.2446
37.1227
37.021
36.932
36.8508
36.7776
36.7144
36.6628
36.6295
36.607
36.6087
36.6134
36.6214
36.639
36.6778
36.7585
36.8917
37.0665
37.2505
37.4321
37.606
37.7566
37.8967
49.3662
44.5101
44.469
44.8336
45.2779
45.718
46.1589
46.597
47.0241
47.4376
47.8432
48.2498
48.6506
49.0321
49.3939
49.7417
50.0751
50.3865
50.6714
50.9341
51.1804
51.3718
51.4771
51.5312
51.5564
51.5671
51.5709
51.5721
51.5725
51.5484
51.5002
51.433
51.352
51.2625
51.1658
51.0616
50.9526
50.84
50.7244
50.6087
50.4933
50.3774
50.2598
50.1399
50.0171
49.8906
49.761
49.6289
49.4944
49.36
49.2264
49.0918
48.9554
48.817
48.6757
48.5308
48.3804
48.2194
48.0464
47.8681
47.6915
47.5176
47.344
47.1718
47.0039
46.8366
46.6598
46.4745
46.2932
46.1224
45.9588
45.7984
45.6394
45.482
45.3295
45.1853
45.0476
44.9133
44.7837
44.6608
44.5432
44.4296
44.3224
44.2226
44.1287
44.0391
43.9523
43.8686
43.7898
43.7146
43.6378
43.5562
43.4678
43.3797
43.2823
43.1775
43.0658
42.9456
42.8142
42.6678
42.5029
42.3181
42.1062
41.8582
41.5778
41.27
40.9411
40.6026
40.2593
39.9114
39.5651
39.2313
38.9195
38.6325
38.3672
38.1195
37.8853
37.6629
37.4575
37.2769
37.1258
37.0026
36.9002
36.8111
36.7302
36.657
36.5933
36.5398
36.4997
36.4739
36.4611
36.4621
36.4666
36.4799
36.5019
36.544
36.6313
36.7596
36.9103
37.0664
37.2247
37.3708
37.5133
49.5517
44.6806
44.6376
44.9915
45.4288
45.8619
46.2971
46.7304
47.1537
47.5643
47.9678
48.3735
48.774
49.1562
49.5194
49.8697
50.2069
50.5228
50.8116
51.0712
51.3032
51.4526
51.5334
51.5743
51.5931
51.601
51.6037
51.6043
51.5972
51.5628
51.5043
51.4277
51.3376
51.2398
51.1356
51.0246
50.9098
50.7922
50.6726
50.5537
50.4359
50.318
50.199
50.078
49.9541
49.8268
49.6964
49.5634
49.4278
49.2923
49.1573
49.021
48.8829
48.7425
48.5991
48.452
48.2991
48.1357
47.9603
47.7795
47.6007
47.4248
47.2493
47.0757
46.9067
46.7388
46.5616
46.3762
46.1951
46.0247
45.8618
45.7023
45.5444
45.3882
45.2369
45.0941
44.9578
44.8249
44.6967
44.575
44.4585
44.3459
44.2396
44.1405
44.0473
43.9582
43.8719
43.7887
43.7104
43.6356
43.559
43.4796
43.3897
43.3029
43.2062
43.1021
42.9913
42.8722
42.7418
42.5963
42.4323
42.2485
42.0375
41.7905
41.5109
41.2034
40.8741
40.5345
40.1894
39.8392
39.4902
39.1534
38.838
38.5471
38.2776
38.0255
37.7867
37.5598
37.35
37.1658
37.012
36.8869
36.7836
36.694
36.6129
36.5396
36.4754
36.4206
36.3757
36.3439
36.322
36.3109
36.3125
36.319
36.3301
36.3518
36.3968
36.4766
36.5882
36.7129
36.8466
36.9771
37.1133
49.7156
44.8332
44.7895
45.1333
45.5649
45.9928
46.4237
46.8536
47.2745
47.6835
48.0863
48.4919
48.8931
49.2768
49.6422
49.9953
50.3356
50.6542
50.9447
51.2083
51.4007
51.5186
51.5847
51.6155
51.6297
51.6353
51.6371
51.6375
51.6206
51.5759
51.5061
51.4237
51.3242
51.2183
51.1071
50.9898
50.8694
50.7473
50.624
50.5023
50.3824
50.263
50.1428
50.0208
49.8962
49.7681
49.637
49.5032
49.3667
49.2299
49.0935
48.9556
48.8156
48.6732
48.5277
48.3783
48.223
48.0571
47.8792
47.6961
47.5151
47.3371
47.1599
46.9849
46.8149
46.6463
46.4688
46.2834
46.1025
45.9326
45.7704
45.6118
45.4549
45.2999
45.1499
45.0084
44.8734
44.7419
44.6149
44.4943
44.3789
44.2672
44.1617
44.0633
43.9707
43.8821
43.7963
43.7135
43.6357
43.5613
43.4853
43.4076
43.316
43.2306
43.1348
43.0317
42.922
42.8039
42.6747
42.5303
42.3673
42.1845
41.9746
41.7288
41.4501
41.1432
40.8137
40.4731
40.1265
39.7742
39.4228
39.083
38.7643
38.4694
38.1955
37.9387
37.6951
37.4632
37.2487
37.0603
36.9033
36.7761
36.6713
36.5809
36.4993
36.4256
36.3609
36.305
36.2573
36.2196
36.1919
36.171
36.1566
36.1565
36.1589
36.167
36.1913
36.2349
36.2946
36.3828
36.4882
36.5965
36.7164
49.8648
44.9762
44.9328
45.2658
45.6925
46.1161
46.5438
46.9713
47.3908
47.7994
48.2023
48.6086
49.0113
49.3973
49.7655
50.1217
50.4645
50.7839
51.0717
51.3259
51.4915
51.582
51.63
51.6532
51.6632
51.6668
51.6677
51.668
51.64
51.585
51.5059
51.4153
51.3063
51.1925
51.0742
50.9506
50.825
50.6987
50.572
50.4478
50.326
50.2054
50.0842
49.9616
49.8364
49.7078
49.5762
49.4417
49.3044
49.1665
49.0287
48.8892
48.7473
48.6029
48.4552
48.3034
48.1456
47.9771
47.7968
47.6114
47.4281
47.2481
47.0692
46.8929
46.722
46.5528
46.375
46.1899
46.0094
45.84
45.6786
45.521
45.3653
45.2115
45.0629
44.9228
44.7892
44.659
44.5333
44.414
44.2995
44.1889
44.0842
43.9865
43.8945
43.8064
43.7211
43.6388
43.5614
43.4875
43.4121
43.3355
43.2436
43.1592
43.0645
42.9625
42.854
42.7372
42.6093
42.4662
42.3045
42.1229
41.9144
41.67
41.3926
41.0864
40.7569
40.4156
40.0675
39.7133
39.3596
39.017
38.6948
38.3957
38.1171
37.8553
37.6064
37.369
37.1493
36.9562
36.7956
36.6656
36.5589
36.4672
36.3848
36.3107
36.2455
36.1887
36.139
36.0969
36.0629
36.0349
36.0113
35.991
35.9789
35.9826
35.991
36.0057
36.0313
36.0841
36.1477
36.2293
36.3266
50.0036
45.1118
45.0686
45.3926
45.8155
46.2362
46.6618
47.088
47.5074
47.9165
48.3206
48.7283
49.1332
49.5219
49.8934
50.2528
50.5985
50.9191
51.1996
51.4338
51.5655
51.6358
51.6725
51.69
51.6973
51.6998
51.7004
51.6933
51.6551
51.5904
51.5045
51.4006
51.2826
51.1605
51.035
50.9052
50.7744
50.6439
50.5142
50.3878
50.2646
50.1429
50.0212
49.8981
49.7725
49.6437
49.5117
49.3767
49.2387
49.0997
48.9605
48.8193
48.6755
48.529
48.3789
48.2245
48.064
47.8928
47.71
47.5222
47.3366
47.1545
46.974
46.7964
46.6246
46.4548
46.277
46.0923
45.9124
45.7437
45.5832
45.4268
45.2723
45.12
44.9729
44.8343
44.7022
44.5735
44.4492
44.3311
44.2178
44.1082
44.0044
43.9075
43.816
43.7285
43.6438
43.562
43.4851
43.4118
43.337
43.2604
43.1711
43.0865
42.993
42.8923
42.7851
42.6698
42.5434
42.402
42.2418
42.0617
41.8549
41.6122
41.3364
41.0313
40.7021
40.3601
40.0108
39.6549
39.2989
38.9534
38.6274
38.3238
38.0401
37.7727
37.5179
37.2744
37.0487
36.8503
36.6852
36.5519
36.4426
36.3491
36.2656
36.191
36.1253
36.0676
36.0164
35.9715
35.9322
35.897
35.8639
35.8324
35.8042
35.7823
35.773
35.776
35.7882
35.8067
35.8308
35.8807
35.9413
50.1355
45.2384
45.1953
45.514
45.9349
46.3541
46.7793
47.2056
47.626
48.0369
48.443
48.8532
49.2609
49.6527
50.0269
50.3883
50.735
51.0562
51.3397
51.521
51.6324
51.6871
51.7149
51.7282
51.7334
51.735
51.7353
51.7172
51.6677
51.5916
51.5013
51.382
51.2544
51.1239
50.9911
50.8552
50.7194
50.5851
50.4527
50.3244
50.2001
50.0777
49.9556
49.8324
49.7067
49.5778
49.4455
49.31
49.1712
49.0312
48.8905
48.7474
48.6016
48.4527
48.3001
48.1429
47.9795
47.8054
47.6199
47.4295
47.2415
47.0573
46.875
46.6962
46.5236
46.3534
46.1758
45.9915
45.8123
45.6445
45.4851
45.3299
45.1769
45.0261
44.8807
44.7436
44.6131
44.486
44.3632
44.2463
44.1342
44.0257
43.9228
43.8267
43.7359
43.649
43.5648
43.4836
43.4073
43.3345
43.2605
43.1843
43.0971
43.0129
42.9207
42.8214
42.7158
42.6022
42.4777
42.3381
42.1797
42.0015
41.7967
41.5562
41.2823
40.9785
40.6498
40.3073
39.9565
39.5989
39.2407
38.8924
38.5626
38.2544
37.9652
37.6917
37.4305
37.1802
36.9478
36.743
36.5726
36.4351
36.3227
36.2269
36.142
36.0665
36.0004
35.942
35.8896
35.8424
35.7996
35.7588
35.7176
35.6756
35.6336
35.5943
35.5622
35.5394
35.5317
35.5345
35.5454
35.5603
35.5831
50.258
45.3542
45.311
45.6282
46.0489
46.4686
46.895
47.3232
47.746
48.1596
48.5687
48.982
49.393
49.7879
50.1646
50.5273
50.8724
51.1869
51.4579
51.617
51.697
51.7384
51.7591
51.7684
51.7718
51.7726
51.7723
51.7407
51.6794
51.5916
51.4926
51.361
51.2236
51.0847
50.9448
50.803
50.6627
50.525
50.3903
50.2606
50.1355
50.0129
49.8908
49.7676
49.642
49.513
49.3806
49.2447
49.1051
48.9638
48.8215
48.6765
48.5283
48.3768
48.2214
48.0613
47.8948
47.7176
47.5292
47.336
47.1456
46.9593
46.7753
46.5953
46.422
46.2516
46.0741
45.8904
45.7121
45.5453
45.387
45.2332
45.0818
44.9326
44.7888
44.6534
44.5245
44.399
44.2777
44.1622
44.0512
43.9438
43.8419
43.7465
43.6564
43.5702
43.4865
43.4059
43.3301
43.258
43.1848
43.1092
43.0238
42.9403
42.8496
42.7519
42.648
42.5363
42.4138
42.2763
42.12
41.9439
41.7415
41.5035
41.2318
40.9297
40.6014
40.2584
39.9071
39.5478
39.187
38.8357
38.5023
38.1893
37.8945
37.6148
37.3468
37.0893
36.8494