/*--------------------------------*- C++ -*----------------------------------*\
| =========                 |                                                 |
| \\      /  F ield         | OpenFOAM: The Open Source CFD Toolbox           |
|  \\    /   O peration     | Version:  2212                                  |
|   \\  /    A nd           | Website:  www.openfoam.com                      |
|    \\/     M anipulation  |                                                 |
\*---------------------------------------------------------------------------*/
FoamFile
{
    version     2.0;
    format      ascii;
    arch        "LSB;label=32;scalar=64";
    class       surfaceScalarField;
    location    "0.347";
    object      phi_0;
}
// * * * * * * * * * * * * * * * * * * * * * * * * * * * * * * * * * * * * * //

dimensions      [0 3 -1 0 0 0 0];

oriented        oriented;

internalField   nonuniform List<scalar> 
69808
(
4.67784e-08
-0.000486173
-1.85074
-4.47475e-08
-0.000485971
-1.85078
-1.47654e-08
-0.000486176
-1.85078
-3.15731e-08
-0.000486278
-1.85078
-1.93543e-08
-0.00048646
-1.85078
-2.33011e-08
-0.000486642
-1.85079
-2.05069e-08
-0.000486859
-1.85079
-2.38906e-08
-0.000487083
-1.85079
-2.6189e-08
-0.000487319
-1.85079
-2.98399e-08
-0.000487553
-1.85079
-3.32955e-08
-0.000487784
-1.85079
-3.5012e-08
-0.000488003
-1.85079
-3.72058e-08
-0.000488206
-1.85079
-3.2954e-08
-0.000488393
-1.85079
-3.31289e-08
-0.000488552
-1.85079
-1.61748e-08
-0.0004887
-1.85079
-2.53083e-08
-0.000488796
-1.85079
1.22217e-08
-0.00048891
-1.85079
-7.02839e-08
-0.000488861
-1.85079
-0.000489136
-1.85074
-2.8747e-07
0.00155196
-1.85016
-4.24827e-07
0.00155226
-1.85021
-5.8215e-07
0.00155207
-1.85021
-7.30406e-07
0.00155192
-1.85021
-8.51826e-07
0.00155168
-1.85021
-9.51499e-07
0.00155143
-1.85021
-1.02059e-06
0.00155113
-1.85021
-1.06231e-06
0.00155082
-1.85021
-1.0747e-06
0.0015505
-1.85021
-1.06022e-06
0.00155017
-1.85021
-1.02095e-06
0.00154985
-1.85021
-9.58362e-07
0.00154955
-1.85021
-8.7653e-07
0.00154927
-1.85021
-7.77593e-07
0.00154901
-1.85021
-6.68798e-07
0.00154879
-1.85021
-5.46501e-07
0.00154859
-1.85021
-4.17156e-07
0.00154846
-1.85021
-2.66489e-07
0.00154831
-1.85021
-7.05278e-08
0.0015483
-1.85022
0.00154789
-1.85017
5.5284e-08
0.00303789
-1.85552
2.55124e-07
0.0030383
-1.85557
4.07435e-07
0.00303816
-1.85557
5.5107e-07
0.00303801
-1.85557
6.70413e-07
0.00303781
-1.85557
7.55912e-07
0.00303759
-1.85557
8.14523e-07
0.00303733
-1.85557
8.45044e-07
0.00303706
-1.85557
8.50063e-07
0.00303677
-1.85557
8.31705e-07
0.00303648
-1.85557
7.93256e-07
0.00303619
-1.85557
7.37933e-07
0.00303591
-1.85557
6.68831e-07
0.00303565
-1.85557
5.91778e-07
0.00303541
-1.85557
5.08819e-07
0.00303521
-1.85557
4.31281e-07
0.00303501
-1.85557
3.53022e-07
0.00303488
-1.85557
2.61773e-07
0.00303476
-1.85557
2.02461e-07
0.00303471
-1.85557
0.00303421
-1.85552
-3.40033e-07
0.00842324
-1.85137
-5.62783e-07
0.00842368
-1.85142
-7.83274e-07
0.00842339
-1.85142
-9.98201e-07
0.00842303
-1.85142
-1.18002e-06
0.00842254
-1.85142
-1.31652e-06
0.00842197
-1.85142
-1.41112e-06
0.00842133
-1.85142
-1.46266e-06
0.00842065
-1.85142
-1.47329e-06
0.00841994
-1.85142
-1.44633e-06
0.00841923
-1.85142
-1.38367e-06
0.00841854
-1.85142
-1.29208e-06
0.00841787
-1.85142
-1.17345e-06
0.00841726
-1.85142
-1.03729e-06
0.00841671
-1.85142
-8.85972e-07
0.00841623
-1.85142
-7.31639e-07
0.00841583
-1.85142
-5.65993e-07
0.00841551
-1.85142
-3.65189e-07
0.00841524
-1.85142
-1.32881e-07
0.00841507
-1.85142
0.00841442
-1.85137
1.19049e-07
0.0134797
-1.85572
3.52612e-07
0.0134803
-1.85577
5.57819e-07
0.0134801
-1.85577
7.20084e-07
0.0134799
-1.85577
8.51904e-07
0.0134795
-1.85577
9.56556e-07
0.0134792
-1.85577
1.02815e-06
0.0134787
-1.85577
1.0667e-06
0.0134783
-1.85577
1.0739e-06
0.0134778
-1.85577
1.05197e-06
0.0134773
-1.85577
1.00408e-06
0.0134769
-1.85577
9.344e-07
0.0134764
-1.85577
8.46984e-07
0.013476
-1.85577
7.46802e-07
0.0134756
-1.85577
6.3868e-07
0.0134753
-1.85577
5.22309e-07
0.013475
-1.85577
4.05615e-07
0.0134748
-1.85577
3.04803e-07
0.0134746
-1.85577
2.13076e-07
0.0134745
-1.85577
0.0134738
-1.85572
-1.9642e-07
0.0217457
-1.85214
-3.13145e-07
0.0217464
-1.85219
-4.27496e-07
0.0217462
-1.85219
-5.27166e-07
0.021746
-1.85219
-6.10427e-07
0.0217457
-1.85219
-6.76762e-07
0.0217453
-1.85219
-7.22212e-07
0.0217449
-1.85219
-7.47068e-07
0.0217445
-1.85218
-7.51099e-07
0.021744
-1.85218
-7.35806e-07
0.0217436
-1.85218
-7.0273e-07
0.0217431
-1.85218
-6.5399e-07
0.0217427
-1.85218
-5.92199e-07
0.0217423
-1.85218
-5.1916e-07
0.0217419
-1.85218
-4.3798e-07
0.0217416
-1.85218
-3.4729e-07
0.0217414
-1.85218
-2.50224e-07
0.0217412
-1.85218
-1.48371e-07
0.021741
-1.85218
-3.73227e-08
0.0217409
-1.85218
0.0217401
-1.85213
4.40284e-08
0.0297025
-1.85441
1.87934e-07
0.0297034
-1.85445
3.16299e-07
0.0297033
-1.85445
4.14698e-07
0.0297033
-1.85445
4.95806e-07
0.0297033
-1.85445
5.59199e-07
0.0297032
-1.85445
6.02956e-07
0.0297031
-1.85445
6.27108e-07
0.029703
-1.85445
6.32426e-07
0.029703
-1.85445
6.20413e-07
0.0297029
-1.85445
5.9252e-07
0.0297028
-1.85445
5.51746e-07
0.0297027
-1.85445
5.00252e-07
0.0297027
-1.85445
4.42321e-07
0.0297026
-1.85445
3.79743e-07
0.0297025
-1.85445
3.1556e-07
0.0297025
-1.85445
2.50925e-07
0.0297025
-1.85445
2.00102e-07
0.0297024
-1.85445
1.53025e-07
0.0297024
-1.85445
0.0297015
-1.8544
-9.95759e-08
0.0395446
-1.8533
-1.31857e-07
0.0395456
-1.85335
-1.64429e-07
0.0395457
-1.85335
-1.92668e-07
0.0395457
-1.85335
-2.16539e-07
0.0395458
-1.85335
-2.3737e-07
0.0395459
-1.85335
-2.51925e-07
0.039546
-1.85335
-2.60419e-07
0.0395461
-1.85335
-2.61929e-07
0.0395462
-1.85334
-2.56347e-07
0.0395463
-1.85334
-2.43969e-07
0.0395464
-1.85334
-2.24497e-07
0.0395465
-1.85334
-1.99516e-07
0.0395466
-1.85334
-1.6822e-07
0.0395467
-1.85334
-1.32372e-07
0.0395468
-1.85334
-9.05509e-08
0.0395468
-1.85334
-4.89639e-08
0.0395469
-1.85334
-4.72211e-09
0.039547
-1.85334
3.45524e-08
0.039547
-1.85334
0.039546
-1.85329
-4.66661e-08
0.0423828
-1.84715
-1.05836e-08
0.0423838
-1.8472
2.21872e-08
0.0423839
-1.8472
4.33348e-08
0.0423841
-1.8472
6.06122e-08
0.0423844
-1.8472
7.28488e-08
0.0423847
-1.8472
8.11366e-08
0.0423851
-1.8472
8.51412e-08
0.0423854
-1.8472
8.55643e-08
0.0423858
-1.8472
8.27249e-08
0.0423862
-1.8472
7.69101e-08
0.0423866
-1.84719
6.97063e-08
0.042387
-1.84719
6.11753e-08
0.0423873
-1.84719
5.42543e-08
0.0423876
-1.84719
4.82663e-08
0.0423879
-1.84719
4.79365e-08
0.0423882
-1.84719
4.89793e-08
0.0423883
-1.84719
6.06477e-08
0.0423885
-1.84719
7.68869e-08
0.0423886
-1.84719
0.0423877
-1.84714
7.27535e-08
0.0453871
-1.84933
2.24269e-07
0.0453881
-1.84938
3.60874e-07
0.0453884
-1.84938
4.76771e-07
0.0453889
-1.84938
5.74649e-07
0.0453895
-1.84938
6.51394e-07
0.0453902
-1.84938
7.06185e-07
0.045391
-1.84938
7.37979e-07
0.0453918
-1.84938
7.46684e-07
0.0453927
-1.84938
7.33274e-07
0.0453936
-1.84938
6.99085e-07
0.0453944
-1.84938
6.47196e-07
0.0453952
-1.84938
5.80635e-07
0.045396
-1.84937
5.05201e-07
0.0453966
-1.84937
4.24438e-07
0.0453972
-1.84937
3.44715e-07
0.0453976
-1.84937
2.65673e-07
0.045398
-1.84937
1.92253e-07
0.0453983
-1.84937
1.28748e-07
0.0453984
-1.84937
0.0453976
-1.84932
-2.58013e-07
0.048467
-1.8484
-4.41389e-07
0.048468
-1.84845
-6.14871e-07
0.0484682
-1.84845
-7.65632e-07
0.0484686
-1.84845
-8.9484e-07
0.0484691
-1.84845
-9.97627e-07
0.0484696
-1.84845
-1.07128e-06
0.0484702
-1.84845
-1.11366e-06
0.0484709
-1.84845
-1.12466e-06
0.0484716
-1.84844
-1.10444e-06
0.0484724
-1.84844
-1.0552e-06
0.0484731
-1.84844
-9.79329e-07
0.0484737
-1.84844
-8.80961e-07
0.0484744
-1.84844
-7.64035e-07
0.0484749
-1.84844
-6.33949e-07
0.0484754
-1.84844
-4.93467e-07
0.0484758
-1.84844
-3.47355e-07
0.0484761
-1.84844
-1.9776e-07
0.0484764
-1.84844
-5.13633e-08
0.0484766
-1.84844
0.0484759
-1.84839
1.95216e-07
0.0499392
-1.85427
4.87113e-07
0.0499402
-1.85432
7.4886e-07
0.0499407
-1.85432
9.68187e-07
0.0499415
-1.85432
1.15165e-06
0.0499425
-1.85432
1.29627e-06
0.0499436
-1.85432
1.39743e-06
0.0499449
-1.85432
1.454e-06
0.0499463
-1.85431
1.46501e-06
0.0499477
-1.85431
1.43252e-06
0.0499492
-1.85431
1.35923e-06
0.0499506
-1.85431
1.25096e-06
0.0499519
-1.85431
1.11417e-06
0.0499531
-1.85431
9.58505e-07
0.0499542
-1.85431
7.9296e-07
0.0499551
-1.85431
6.25671e-07
0.0499558
-1.85431
4.61713e-07
0.0499564
-1.85431
3.14752e-07
0.0499568
-1.85431
1.90402e-07
0.049957
-1.85431
0.0499563
-1.85426
-3.99497e-07
0.0516085
-1.85145
-7.2365e-07
0.0516094
-1.8515
-1.02978e-06
0.0516098
-1.8515
-1.28838e-06
0.0516103
-1.8515
-1.50948e-06
0.051611
-1.8515
-1.68722e-06
0.0516118
-1.8515
-1.81452e-06
0.0516128
-1.8515
-1.88815e-06
0.0516138
-1.8515
-1.90734e-06
0.0516148
-1.8515
-1.87319e-06
0.0516159
-1.8515
-1.78924e-06
0.0516169
-1.8515
-1.66073e-06
0.0516179
-1.8515
-1.49454e-06
0.0516188
-1.8515
-1.29879e-06
0.0516197
-1.8515
-1.08229e-06
0.0516204
-1.8515
-8.48356e-07
0.0516209
-1.8515
-6.05486e-07
0.0516214
-1.8515
-3.68277e-07
0.0516217
-1.8515
-1.36094e-07
0.051622
-1.8515
0.0516214
-1.85145
2.66491e-07
0.0499676
-1.86032
6.5143e-07
0.0499685
-1.86037
9.94863e-07
0.0499692
-1.86037
1.27188e-06
0.0499701
-1.86037
1.50267e-06
0.0499714
-1.86037
1.68723e-06
0.0499728
-1.86037
1.81556e-06
0.0499744
-1.86037
1.88623e-06
0.0499762
-1.86037
1.89738e-06
0.049978
-1.86037
1.85124e-06
0.0499798
-1.86037
1.75155e-06
0.0499816
-1.86037
1.60556e-06
0.0499833
-1.86037
1.42294e-06
0.0499848
-1.86037
1.21532e-06
0.0499861
-1.86036
9.96215e-07
0.0499872
-1.86036
7.72228e-07
0.0499881
-1.86036
5.54967e-07
0.0499887
-1.86036
3.74148e-07
0.0499892
-1.86036
2.25844e-07
0.0499894
-1.86036
0.0499889
-1.86032
-5.01813e-07
0.0485074
-1.85526
-9.23001e-07
0.0485081
-1.85531
-1.32404e-06
0.0485086
-1.85531
-1.65992e-06
0.0485092
-1.85531
-1.94709e-06
0.0485101
-1.85531
-2.1828e-06
0.0485111
-1.85531
-2.3521e-06
0.0485123
-1.85531
-2.45062e-06
0.0485135
-1.85531
-2.47746e-06
0.0485148
-1.85531
-2.43436e-06
0.0485161
-1.85531
-2.32576e-06
0.0485174
-1.85531
-2.15957e-06
0.0485186
-1.85531
-1.94506e-06
0.0485198
-1.85531
-1.69441e-06
0.0485207
-1.85531
-1.41872e-06
0.0485216
-1.85531
-1.11784e-06
0.0485222
-1.85531
-8.04878e-07
0.0485228
-1.85531
-5.02049e-07
0.0485232
-1.85531
-1.97316e-07
0.0485234
-1.85531
0.048523
-1.85526
2.80453e-07
0.0423225
-1.86513
7.04402e-07
0.0423232
-1.86518
1.07176e-06
0.0423239
-1.86518
1.34792e-06
0.0423249
-1.86518
1.57553e-06
0.0423263
-1.86518
1.76463e-06
0.0423278
-1.86518
1.89517e-06
0.0423295
-1.86518
1.965e-06
0.0423314
-1.86518
1.97134e-06
0.0423333
-1.86518
1.91615e-06
0.0423352
-1.86518
1.80451e-06
0.0423371
-1.86518
1.64421e-06
0.0423389
-1.86518
1.44685e-06
0.0423405
-1.86518
1.22462e-06
0.0423419
-1.86518
9.93052e-07
0.042343
-1.86518
7.49331e-07
0.0423439
-1.86518
5.16984e-07
0.0423446
-1.86518
3.46004e-07
0.042345
-1.86518
2.20776e-07
0.0423452
-1.86518
0.0423449
-1.86513
-5.18181e-07
0.0363104
-1.85751
-9.29483e-07
0.036311
-1.85756
-1.33134e-06
0.0363115
-1.85756
-1.7434e-06
0.0363123
-1.85756
-2.09814e-06
0.0363132
-1.85756
-2.36735e-06
0.0363142
-1.85756
-2.5606e-06
0.0363154
-1.85756
-2.67239e-06
0.0363166
-1.85756
-2.70385e-06
0.0363179
-1.85756
-2.65789e-06
0.0363193
-1.85756
-2.54008e-06
0.0363206
-1.85756
-2.3604e-06
0.0363218
-1.85756
-2.12999e-06
0.036323
-1.85756
-1.86618e-06
0.0363239
-1.85756
-1.57999e-06
0.0363248
-1.85756
-1.29747e-06
0.0363255
-1.85756
-1.00369e-06
0.036326
-1.85756
-6.40549e-07
0.0363263
-1.85756
-2.58454e-07
0.0363265
-1.85756
0.0363262
-1.85752
1.91925e-07
0.0250911
-1.86545
4.88319e-07
0.0250917
-1.8655
6.9086e-07
0.0250924
-1.8655
8.9986e-07
0.0250933
-1.8655
1.08059e-06
0.0250944
-1.8655
1.20804e-06
0.0250957
-1.8655
1.29646e-06
0.0250971
-1.8655
1.33578e-06
0.0250986
-1.8655
1.33068e-06
0.0251003
-1.8655
1.28084e-06
0.0251019
-1.8655
1.19141e-06
0.0251034
-1.8655
1.07015e-06
0.0251049
-1.8655
9.24679e-07
0.0251062
-1.8655
7.70959e-07
0.0251074
-1.8655
6.123e-07
0.0251083
-1.8655
4.75611e-07
0.025109
-1.8655
3.44286e-07
0.0251096
-1.8655
1.87608e-07
0.0251099
-1.8655
1.17269e-07
0.02511
-1.8655
0.0251097
-1.86545
-3.82609e-07
0.0143698
-1.85529
-7.39588e-07
0.0143704
-1.85533
-1.15312e-06
0.0143709
-1.85533
-1.51123e-06
0.0143713
-1.85533
-1.80627e-06
0.0143719
-1.85533
-2.04345e-06
0.0143725
-1.85533
-2.21104e-06
0.0143732
-1.85533
-2.31206e-06
0.0143739
-1.85534
-2.34295e-06
0.0143747
-1.85534
-2.3071e-06
0.0143755
-1.85534
-2.20862e-06
0.0143762
-1.85534
-2.05449e-06
0.014377
-1.85534
-1.85751e-06
0.0143776
-1.85534
-1.62817e-06
0.0143782
-1.85534
-1.3857e-06
0.0143787
-1.85534
-1.13329e-06
0.0143791
-1.85534
-8.84835e-07
0.0143794
-1.85534
-6.38439e-07
0.0143796
-1.85534
-3.07754e-07
0.0143794
-1.85534
0.014379
-1.85529
3.27888e-07
-1.85929
-4.19224e-09
-1.85933
-2.20952e-07
-1.85933
-3.94001e-07
-1.85933
-4.89673e-07
-1.85933
-5.74068e-07
-1.85933
-6.30651e-07
-1.85933
-6.74237e-07
-1.85933
-6.98454e-07
-1.85933
-7.06386e-07
-1.85933
-6.97689e-07
-1.85933
-6.71471e-07
-1.85933
-6.33629e-07
-1.85933
-5.79063e-07
-1.85933
-5.26353e-07
-1.85933
-4.61452e-07
-1.85933
-4.48229e-07
-1.85933
-4.60396e-07
-1.85933
-5.7758e-07
-1.85934
-1.85929
-5.95464e-08
0.00179493
-1.85253
-1.71575e-07
0.00179508
-1.85258
-1.80591e-07
0.0017949
-1.85258
-2.21511e-07
0.00179485
-1.85258
-2.31439e-07
0.00179473
-1.85258
-2.5249e-07
0.00179462
-1.85258
-2.614e-07
0.00179448
-1.85258
-2.70139e-07
0.00179433
-1.85258
-2.71282e-07
0.00179418
-1.85258
-2.68424e-07
0.00179402
-1.85258
-2.6025e-07
0.00179386
-1.85258
-2.45665e-07
0.0017937
-1.85258
-2.28357e-07
0.00179356
-1.85258
-2.00247e-07
0.00179342
-1.85258
-1.73851e-07
0.00179331
-1.85258
-1.26116e-07
0.00179319
-1.85258
-9.7712e-08
0.00179313
-1.85258
-2.79331e-08
0.00179303
-1.85258
-5.16834e-08
0.0017931
-1.85258
0.0017929
-1.85254
-4.25204e-07
0.00577192
-1.85414
-6.77255e-07
0.00577206
-1.85418
-9.44174e-07
0.00577175
-1.85418
-1.18012e-06
0.00577142
-1.85418
-1.37829e-06
0.00577096
-1.85418
-1.53788e-06
0.00577045
-1.85418
-1.65011e-06
0.00576985
-1.85419
-1.71728e-06
0.00576922
-1.85419
-1.73806e-06
0.00576856
-1.85419
-1.71567e-06
0.0057679
-1.85419
-1.65317e-06
0.00576725
-1.85419
-1.55383e-06
0.00576663
-1.85419
-1.42488e-06
0.00576606
-1.85419
-1.2688e-06
0.00576553
-1.85419
-1.09544e-06
0.00576509
-1.85419
-9.01423e-07
0.00576469
-1.85419
-6.90052e-07
0.00576439
-1.85419
-4.55441e-07
0.00576411
-1.85419
-1.58197e-07
0.005764
-1.85419
0.00576366
-1.85414
8.72881e-08
0.00946784
-1.85922
3.04842e-07
0.00946806
-1.85926
4.76987e-07
0.00946782
-1.85926
6.68869e-07
0.00946748
-1.85926
8.28801e-07
0.00946706
-1.85926
9.47847e-07
0.0094666
-1.85926
1.03164e-06
0.00946606
-1.85926
1.08206e-06
0.00946548
-1.85926
1.09931e-06
0.00946487
-1.85926
1.08699e-06
0.00946425
-1.85926
1.04682e-06
0.00946364
-1.85926
9.83613e-07
0.00946306
-1.85926
9.02085e-07
0.00946251
-1.85926
8.07384e-07
0.00946201
-1.85926
7.05091e-07
0.00946158
-1.85926
6.07933e-07
0.00946118
-1.85926
5.10287e-07
0.00946088
-1.85926
3.65688e-07
0.00946067
-1.85926
2.5006e-07
0.00946052
-1.85926
0.00946011
-1.85922
-3.65122e-07
0.0143223
-1.85622
-6.29412e-07
0.0143226
-1.85627
-8.84194e-07
0.0143223
-1.85627
-1.13228e-06
0.014322
-1.85627
-1.34291e-06
0.0143215
-1.85627
-1.497e-06
0.014321
-1.85627
-1.6051e-06
0.0143204
-1.85627
-1.66391e-06
0.0143197
-1.85627
-1.67763e-06
0.0143191
-1.85627
-1.64899e-06
0.0143184
-1.85627
-1.58039e-06
0.0143177
-1.85627
-1.48014e-06
0.0143171
-1.85627
-1.34946e-06
0.0143165
-1.85627
-1.20019e-06
0.014316
-1.85627
-1.03168e-06
0.0143156
-1.85627
-8.62354e-07
0.0143152
-1.85627
-6.75923e-07
0.0143149
-1.85627
-4.46159e-07
0.0143146
-1.85627
-1.84408e-07
0.0143145
-1.85627
0.014314
-1.85622
1.79283e-07
0.0190566
-1.86046
4.5128e-07
0.019057
-1.86051
6.98617e-07
0.0190569
-1.86051
9.05638e-07
0.0190567
-1.86051
1.07822e-06
0.0190565
-1.86051
1.22119e-06
0.0190562
-1.86051
1.32427e-06
0.0190558
-1.86051
1.38745e-06
0.0190555
-1.86051
1.41074e-06
0.0190551
-1.86051
1.39651e-06
0.0190547
-1.86051
1.34745e-06
0.0190543
-1.86051
1.26827e-06
0.019054
-1.86051
1.16395e-06
0.0190536
-1.86051
1.04035e-06
0.0190533
-1.86051
9.0154e-07
0.0190531
-1.86051
7.46293e-07
0.0190529
-1.86051
5.82649e-07
0.0190527
-1.86051
4.24236e-07
0.0190525
-1.86051
2.66582e-07
0.0190524
-1.8605
0.0190519
-1.86046
-1.67639e-07
0.0250653
-1.85815
-2.80178e-07
0.0250659
-1.85819
-3.87852e-07
0.0250658
-1.85819
-4.67056e-07
0.0250656
-1.85819
-5.32e-07
0.0250654
-1.85819
-5.83569e-07
0.0250652
-1.85819
-6.17572e-07
0.025065
-1.85819
-6.34124e-07
0.0250647
-1.85819
-6.33527e-07
0.0250644
-1.85819
-6.17055e-07
0.0250641
-1.85819
-5.86452e-07
0.0250638
-1.85819
-5.43469e-07
0.0250636
-1.85819
-4.90736e-07
0.0250633
-1.85819
-4.29293e-07
0.0250631
-1.85819
-3.57561e-07
0.025063
-1.85819
-2.7679e-07
0.0250628
-1.85819
-1.91631e-07
0.0250627
-1.85819
-1.15732e-07
0.0250626
-1.85819
-3.38067e-08
0.0250626
-1.85819
0.0250619
-1.85814
1.19883e-07
0.0309758
-1.86032
3.17924e-07
0.0309766
-1.86036
5.00606e-07
0.0309766
-1.86036
6.57485e-07
0.0309766
-1.86036
7.89508e-07
0.0309767
-1.86036
8.98069e-07
0.0309767
-1.86036
9.77641e-07
0.0309767
-1.86036
1.02829e-06
0.0309767
-1.86036
1.04954e-06
0.0309767
-1.86036
1.04343e-06
0.0309768
-1.86036
1.01139e-06
0.0309768
-1.86036
9.57249e-07
0.0309768
-1.86036
8.83587e-07
0.0309768
-1.86036
7.95989e-07
0.0309769
-1.86036
6.96172e-07
0.0309769
-1.86036
5.86585e-07
0.0309769
-1.86036
4.68444e-07
0.030977
-1.86036
3.48257e-07
0.030977
-1.86036
2.20699e-07
0.030977
-1.86036
0.0309763
-1.86031
-2.17735e-08
0.0377427
-1.86007
-2.38807e-10
0.0377436
-1.86011
2.2205e-08
0.0377437
-1.86011
5.71131e-08
0.0377439
-1.86011
8.86708e-08
0.0377441
-1.86011
1.12434e-07
0.0377443
-1.86011
1.3205e-07
0.0377445
-1.86011
1.46514e-07
0.0377448
-1.86011
1.57107e-07
0.0377451
-1.86011
1.64014e-07
0.0377454
-1.86011
1.68015e-07
0.0377457
-1.86011
1.70322e-07
0.037746
-1.86011
1.6978e-07
0.0377462
-1.86011
1.7008e-07
0.0377465
-1.86011
1.66604e-07
0.0377467
-1.86011
1.66284e-07
0.0377469
-1.86011
1.60382e-07
0.037747
-1.86011
1.33842e-07
0.0377471
-1.86011
9.47134e-08
0.0377472
-1.86011
0.0377464
-1.86006
1.03828e-08
0.0378252
-1.84723
8.29638e-08
0.0378261
-1.84728
1.51576e-07
0.0378262
-1.84728
2.18065e-07
0.0378264
-1.84728
2.76628e-07
0.0378266
-1.84728
3.24135e-07
0.0378269
-1.84728
3.60555e-07
0.0378272
-1.84728
3.85928e-07
0.0378275
-1.84728
4.00277e-07
0.0378279
-1.84728
4.04952e-07
0.0378282
-1.84728
3.99267e-07
0.0378286
-1.84728
3.85425e-07
0.0378289
-1.84728
3.63642e-07
0.0378292
-1.84728
3.36913e-07
0.0378295
-1.84728
3.04392e-07
0.0378298
-1.84728
2.70827e-07
0.03783
-1.84728
2.31752e-07
0.0378302
-1.84728
1.84729e-07
0.0378303
-1.84728
1.31493e-07
0.0378304
-1.84728
0.0378297
-1.84723
2.28966e-07
0.0378753
-1.84938
5.17568e-07
0.0378762
-1.84943
7.83925e-07
0.0378765
-1.84943
1.02973e-06
0.0378769
-1.84943
1.23843e-06
0.0378774
-1.84943
1.40676e-06
0.0378781
-1.84943
1.5295e-06
0.0378788
-1.84943
1.60675e-06
0.0378795
-1.84943
1.63702e-06
0.0378803
-1.84943
1.62362e-06
0.0378811
-1.84943
1.56824e-06
0.0378818
-1.84943
1.47701e-06
0.0378826
-1.84943
1.35467e-06
0.0378833
-1.84943
1.20955e-06
0.0378838
-1.84943
1.04758e-06
0.0378844
-1.84943
8.74562e-07
0.0378848
-1.84943
6.9099e-07
0.0378851
-1.84943
4.85326e-07
0.0378854
-1.84943
2.70804e-07
0.0378856
-1.84943
0.0378849
-1.84938
-1.61394e-07
0.0378846
-1.84841
-2.75226e-07
0.0378855
-1.84846
-3.82899e-07
0.0378857
-1.84846
-4.59134e-07
0.0378861
-1.84846
-5.26461e-07
0.0378866
-1.84846
-5.80778e-07
0.0378872
-1.84846
-6.20438e-07
0.0378879
-1.84845
-6.42579e-07
0.0378886
-1.84845
-6.47419e-07
0.0378894
-1.84845
-6.33996e-07
0.0378901
-1.84845
-6.04512e-07
0.0378909
-1.84845
-5.59844e-07
0.0378916
-1.84845
-5.03318e-07
0.0378923
-1.84845
-4.35841e-07
0.0378929
-1.84845
-3.61212e-07
0.0378934
-1.84845
-2.76157e-07
0.0378938
-1.84845
-1.87327e-07
0.0378941
-1.84845
-1.06475e-07
0.0378944
-1.84845
-2.63742e-08
0.0378946
-1.84845
0.0378939
-1.8484
3.42446e-07
0.03691
-1.8533
7.59247e-07
0.0369109
-1.85334
1.14457e-06
0.0369113
-1.85334
1.48346e-06
0.0369119
-1.85334
1.77104e-06
0.0369127
-1.85334
2.00397e-06
0.0369136
-1.85334
2.17316e-06
0.0369146
-1.85334
2.27839e-06
0.0369157
-1.85334
2.31757e-06
0.0369169
-1.85334
2.29465e-06
0.036918
-1.85334
2.21292e-06
0.0369191
-1.85334
2.08011e-06
0.0369202
-1.85334
1.90374e-06
0.0369212
-1.85334
1.69379e-06
0.036922
-1.85334
1.45921e-06
0.0369227
-1.85334
1.20522e-06
0.0369233
-1.85334
9.35947e-07
0.0369238
-1.85334
6.57107e-07
0.0369241
-1.85334
3.67065e-07
0.0369243
-1.85334
0.0369238
-1.85329
-3.09416e-07
0.0359033
-1.85045
-5.76759e-07
0.035904
-1.8505
-8.32455e-07
0.0359044
-1.85049
-1.02174e-06
0.0359048
-1.85049
-1.18873e-06
0.0359055
-1.85049
-1.32696e-06
0.0359062
-1.85049
-1.43033e-06
0.0359071
-1.85049
-1.49279e-06
0.035908
-1.85049
-1.51457e-06
0.035909
-1.85049
-1.49536e-06
0.03591
-1.85049
-1.43863e-06
0.035911
-1.85049
-1.34846e-06
0.0359119
-1.85049
-1.22991e-06
0.0359127
-1.85049
-1.08821e-06
0.0359134
-1.85049
-9.2679e-07
0.0359141
-1.85049
-7.42079e-07
0.0359146
-1.85049
-5.37459e-07
0.035915
-1.85049
-3.55379e-07
0.0359153
-1.85049
-1.60315e-07
0.0359155
-1.85049
0.035915
-1.85044
4.29801e-07
0.0331129
-1.85753
9.48258e-07
0.0331136
-1.85758
1.42759e-06
0.0331141
-1.85758
1.82826e-06
0.0331148
-1.85758
2.16815e-06
0.0331157
-1.85758
2.44753e-06
0.0331168
-1.85758
2.64953e-06
0.033118
-1.85758
2.77399e-06
0.0331194
-1.85758
2.81691e-06
0.0331207
-1.85758
2.78231e-06
0.0331221
-1.85758
2.67517e-06
0.0331235
-1.85758
2.50415e-06
0.0331247
-1.85758
2.28018e-06
0.0331258
-1.85758
2.01405e-06
0.0331268
-1.85758
1.71966e-06
0.0331276
-1.85758
1.39834e-06
0.0331283
-1.85758
1.06078e-06
0.0331288
-1.85758
7.42008e-07
0.0331292
-1.85758
4.15915e-07
0.0331294
-1.85758
0.033129
-1.85753
-4.37248e-07
0.0303745
-1.85252
-8.34615e-07
0.0303751
-1.85257
-1.21712e-06
0.0303755
-1.85257
-1.50958e-06
0.0303759
-1.85257
-1.76586e-06
0.0303766
-1.85257
-1.98376e-06
0.0303774
-1.85257
-2.14704e-06
0.0303782
-1.85257
-2.2481e-06
0.0303792
-1.85257
-2.28691e-06
0.0303802
-1.85257
-2.26399e-06
0.0303812
-1.85257
-2.18463e-06
0.0303822
-1.85257
-2.05652e-06
0.0303831
-1.85257
-1.88637e-06
0.030384
-1.85257
-1.68427e-06
0.0303847
-1.85257
-1.45321e-06
0.0303853
-1.85257
-1.18385e-06
0.0303858
-1.85257
-8.81355e-07
0.0303862
-1.85257
-5.99409e-07
0.0303866
-1.85257
-2.88045e-07
0.0303867
-1.85257
0.0303863
-1.85252
4.27128e-07
0.025599
-1.86036
9.61291e-07
0.0255996
-1.86041
1.44747e-06
0.0256001
-1.86041
1.82315e-06
0.0256008
-1.86041
2.14035e-06
0.0256016
-1.86041
2.41265e-06
0.0256026
-1.86041
2.60789e-06
0.0256038
-1.86041
2.72564e-06
0.025605
-1.86041
2.76132e-06
0.0256063
-1.86041
2.71848e-06
0.0256076
-1.86041
2.60262e-06
0.0256088
-1.86041
2.42287e-06
0.02561
-1.86041
2.19194e-06
0.025611
-1.86041
1.92044e-06
0.0256119
-1.86041
1.62515e-06
0.0256127
-1.86041
1.29312e-06
0.0256133
-1.8604
9.51167e-07
0.0256137
-1.8604
6.64825e-07
0.0256141
-1.8604
3.84061e-07
0.0256142
-1.8604
0.0256139
-1.86036
-4.87889e-07
0.0210472
-1.85296
-8.92853e-07
0.0210477
-1.85301
-1.28192e-06
0.021048
-1.85301
-1.71217e-06
0.0210485
-1.85301
-2.08739e-06
0.0210491
-1.85301
-2.36841e-06
0.0210496
-1.85301
-2.57717e-06
0.0210503
-1.85301
-2.7047e-06
0.0210511
-1.85301
-2.75597e-06
0.0210518
-1.85301
-2.73217e-06
0.0210526
-1.85301
-2.64059e-06
0.0210534
-1.85301
-2.49059e-06
0.0210541
-1.85301
-2.2927e-06
0.0210548
-1.85301
-2.06294e-06
0.0210554
-1.85301
-1.80614e-06
0.0210559
-1.85301
-1.55136e-06
0.0210563
-1.85301
-1.26703e-06
0.0210566
-1.85301
-8.59839e-07
0.0210568
-1.85301
-4.09196e-07
0.0210569
-1.85301
0.0210566
-1.85296
2.59409e-07
0.0148441
-1.85925
5.68268e-07
0.0148447
-1.85929
7.97898e-07
0.0148451
-1.85929
1.08995e-06
0.0148456
-1.85929
1.34382e-06
0.0148462
-1.85929
1.52376e-06
0.0148468
-1.85929
1.65291e-06
0.0148476
-1.85929
1.72207e-06
0.0148484
-1.85929
1.73603e-06
0.0148492
-1.85929
1.69633e-06
0.0148501
-1.85929
1.60772e-06
0.0148509
-1.85929
1.48038e-06
0.0148516
-1.85929
1.32118e-06
0.0148523
-1.85929
1.14844e-06
0.0148529
-1.85929
9.64128e-07
0.0148534
-1.85929
8.06686e-07
0.0148538
-1.85929
6.48772e-07
0.014854
-1.85929
3.99877e-07
0.0148542
-1.85929
2.11784e-07
0.0148542
-1.85929
0.0148538
-1.85925
-4.19611e-07
0.00901249
-1.84945
-8.11169e-07
0.00901303
-1.8495
-1.24314e-06
0.00901342
-1.8495
-1.61564e-06
0.00901361
-1.8495
-1.92959e-06
0.00901387
-1.8495
-2.1884e-06
0.00901411
-1.8495
-2.37793e-06
0.0090144
-1.8495
-2.4998e-06
0.00901471
-1.8495
-2.55049e-06
0.00901504
-1.8495
-2.53194e-06
0.00901536
-1.8495
-2.44982e-06
0.00901568
-1.8495
-2.31047e-06
0.00901599
-1.8495
-2.12847e-06
0.00901626
-1.8495
-1.90891e-06
0.00901651
-1.8495
-1.67041e-06
0.00901672
-1.8495
-1.40688e-06
0.0090169
-1.8495
-1.12292e-06
0.009017
-1.8495
-8.22589e-07
0.00901709
-1.8495
-4.28328e-07
0.00901688
-1.8495
0.00901643
-1.84946
2.88206e-07
-1.85027
-5.85558e-08
-1.85031
-2.87204e-07
-1.85031
-4.44627e-07
-1.85031
-5.30992e-07
-1.85031
-6.12226e-07
-1.85031
-6.68126e-07
-1.85031
-7.1401e-07
-1.85031
-7.41841e-07
-1.85031
-7.54033e-07
-1.85031
-7.5072e-07
-1.85031
-7.29189e-07
-1.85031
-6.96942e-07
-1.85032
-6.45233e-07
-1.85032
-5.91792e-07
-1.85032
-5.16534e-07
-1.85032
-4.80059e-07
-1.85032
-4.86635e-07
-1.85032
-5.92287e-07
-1.85032
-1.85028
-1.72471e-07
-6.17886e-05
-1.85247
-3.33014e-07
-6.1137e-05
-1.85252
-3.57946e-07
-6.12391e-05
-1.85252
-4.25147e-07
-6.12588e-05
-1.85252
-4.63659e-07
-6.13432e-05
-1.85252
-5.08558e-07
-6.13988e-05
-1.85252
-5.34451e-07
-6.14802e-05
-1.85252
-5.52715e-07
-6.1549e-05
-1.85252
-5.56574e-07
-6.16235e-05
-1.85252
-5.48886e-07
-6.16883e-05
-1.85252
-5.3023e-07
-6.17484e-05
-1.85252
-4.99476e-07
-6.18001e-05
-1.85252
-4.61398e-07
-6.18412e-05
-1.85252
-4.08186e-07
-6.18795e-05
-1.85252
-3.53768e-07
-6.1899e-05
-1.85252
-2.71e-07
-6.19312e-05
-1.85252
-1.97909e-07
-6.19231e-05
-1.85252
-5.90545e-08
-6.19622e-05
-1.85252
-3.56619e-08
-6.19025e-05
-1.85252
-6.25803e-05
-1.85247
-4.98031e-07
0.00334954
-1.85755
-7.23942e-07
0.00335005
-1.8576
-9.83288e-07
0.00334994
-1.8576
-1.2168e-06
0.00334985
-1.8576
-1.42083e-06
0.0033497
-1.8576
-1.58487e-06
0.00334956
-1.8576
-1.70365e-06
0.00334939
-1.8576
-1.7755e-06
0.00334921
-1.8576
-1.80146e-06
0.00334903
-1.8576
-1.7831e-06
0.00334885
-1.8576
-1.72508e-06
0.00334868
-1.8576
-1.62968e-06
0.00334852
-1.8576
-1.50388e-06
0.00334838
-1.8576
-1.34993e-06
0.00334825
-1.8576
-1.17455e-06
0.00334816
-1.8576
-9.7505e-07
0.00334806
-1.8576
-7.45363e-07
0.00334801
-1.8576
-4.79182e-07
0.00334794
-1.8576
-1.23865e-07
0.00334793
-1.8576
0.00334736
-1.85755
-6.56875e-10
0.00641341
-1.86228
1.8663e-07
0.00641389
-1.86233
3.29219e-07
0.00641381
-1.86233
4.97074e-07
0.00641367
-1.86233
6.35369e-07
0.00641355
-1.86233
7.37191e-07
0.00641344
-1.86233
8.08781e-07
0.00641328
-1.86233
8.54453e-07
0.00641313
-1.86233
8.72617e-07
0.00641296
-1.86233
8.67776e-07
0.0064128
-1.86233
8.41658e-07
0.00641264
-1.86233
7.96772e-07
0.00641249
-1.86233
7.38892e-07
0.00641235
-1.86233
6.70089e-07
0.00641222
-1.86233
5.96988e-07
0.00641212
-1.86233
5.31495e-07
0.00641201
-1.86233
4.69614e-07
0.00641195
-1.86233
3.57974e-07
0.00641194
-1.86233
2.80561e-07
0.00641191
-1.86233
0.00641138
-1.86228
-3.62884e-07
0.0113039
-1.86111
-5.71564e-07
0.0113044
-1.86116
-7.79806e-07
0.0113043
-1.86116
-9.94531e-07
0.0113041
-1.86116
-1.17882e-06
0.0113039
-1.86116
-1.31087e-06
0.0113036
-1.86116
-1.4039e-06
0.0113033
-1.86116
-1.45295e-06
0.011303
-1.86116
-1.46432e-06
0.0113027
-1.86116
-1.43902e-06
0.0113024
-1.86116
-1.38158e-06
0.0113021
-1.86116
-1.29725e-06
0.0113018
-1.86116
-1.1882e-06
0.0113015
-1.86116
-1.06274e-06
0.0113013
-1.86116
-9.19991e-07
0.0113011
-1.86116
-7.76256e-07
0.0113009
-1.86116
-6.1306e-07
0.0113008
-1.86116
-3.94469e-07
0.0113007
-1.86116
-1.36303e-07
0.0113006
-1.86116
0.0113
-1.86111
1.32267e-07
0.016259
-1.86541
4.10957e-07
0.0162595
-1.86546
6.59151e-07
0.0162595
-1.86546
8.66071e-07
0.0162594
-1.86546
1.03953e-06
0.0162593
-1.86546
1.18387e-06
0.0162592
-1.86546
1.29002e-06
0.016259
-1.86546
1.35839e-06
0.0162588
-1.86546
1.38848e-06
0.0162587
-1.86546
1.38271e-06
0.0162585
-1.86546
1.3436e-06
0.0162583
-1.86546
1.27579e-06
0.0162582
-1.86546
1.18286e-06
0.0162581
-1.86546
1.07041e-06
0.0162579
-1.86546
9.41194e-07
0.0162578
-1.86546
7.94682e-07
0.0162578
-1.86546
6.35585e-07
0.0162577
-1.86546
4.81032e-07
0.0162576
-1.86546
3.26803e-07
0.0162576
-1.86546
0.016257
-1.86541
-1.45368e-07
0.0226044
-1.86449
-1.89229e-07
0.0226051
-1.86454
-2.32467e-07
0.022605
-1.86454
-2.62449e-07
0.022605
-1.86454
-2.83845e-07
0.0226049
-1.86454
-3.00897e-07
0.0226049
-1.86454
-3.09474e-07
0.0226048
-1.86454
-3.09684e-07
0.0226047
-1.86454
-3.02305e-07
0.0226046
-1.86454
-2.8718e-07
0.0226045
-1.86454
-2.67302e-07
0.0226044
-1.86454
-2.38002e-07
0.0226043
-1.86454
-2.07119e-07
0.0226042
-1.86454
-1.72308e-07
0.0226042
-1.86454
-1.34758e-07
0.0226041
-1.86454
-8.97911e-08
0.0226041
-1.86454
-4.39352e-08
0.0226041
-1.86454
-4.19207e-10
0.022604
-1.86454
5.01249e-08
0.022604
-1.86454
0.0226033
-1.86449
1.21064e-07
0.0289438
-1.86666
3.67904e-07
0.0289446
-1.8667
5.91535e-07
0.0289446
-1.8667
7.82997e-07
0.0289447
-1.8667
9.44907e-07
0.0289448
-1.8667
1.07945e-06
0.0289448
-1.8667
1.17952e-06
0.0289449
-1.8667
1.24678e-06
0.028945
-1.8667
1.27907e-06
0.0289451
-1.8667
1.2797e-06
0.0289452
-1.8667
1.24928e-06
0.0289453
-1.8667
1.19224e-06
0.0289454
-1.8667
1.11149e-06
0.0289455
-1.8667
1.0121e-06
0.0289455
-1.8667
8.96348e-07
0.0289456
-1.8667
7.66117e-07
0.0289457
-1.8667
6.20855e-07
0.0289458
-1.8667
4.71421e-07
0.0289458
-1.8667
3.1004e-07
0.0289458
-1.8667
0.0289451
-1.86666
1.94481e-09
0.0360584
-1.86718
9.06881e-08
0.0360593
-1.86723
1.72302e-07
0.0360594
-1.86723
2.56516e-07
0.0360594
-1.86723
3.32456e-07
0.0360595
-1.86723
3.91095e-07
0.0360596
-1.86723
4.40047e-07
0.0360598
-1.86723
4.75448e-07
0.0360599
-1.86723
4.98392e-07
0.03606
-1.86723
5.10664e-07
0.0360602
-1.86723
5.11612e-07
0.0360603
-1.86723
5.0345e-07
0.0360605
-1.86723
4.85999e-07
0.0360606
-1.86723
4.62456e-07
0.0360607