/*--------------------------------*- C++ -*----------------------------------*\
| =========                 |                                                 |
| \\      /  F ield         | OpenFOAM: The Open Source CFD Toolbox           |
|  \\    /   O peration     | Version:  2212                                  |
|   \\  /    A nd           | Website:  www.openfoam.com                      |
|    \\/     M anipulation  |                                                 |
\*---------------------------------------------------------------------------*/
FoamFile
{
    version     2.0;
    format      ascii;
    arch        "LSB;label=32;scalar=64";
    class       volScalarField;
    location    "0.362";
    object      p;
}
// * * * * * * * * * * * * * * * * * * * * * * * * * * * * * * * * * * * * * //

dimensions      [0 2 -2 0 0 0 0];

internalField   nonuniform List<scalar> 
24240
(
-26.3061
-26.3057
-26.305
-26.304
-26.3027
-26.3012
-26.2995
-26.2977
-26.2958
-26.2939
-26.2921
-26.2903
-26.2886
-26.2871
-26.2857
-26.2845
-26.2835
-26.2827
-26.2822
-26.2818
-25.5069
-25.5065
-25.5058
-25.5048
-25.5035
-25.5019
-25.5002
-25.4983
-25.4964
-25.4945
-25.4927
-25.4909
-25.4893
-25.4879
-25.4866
-25.4856
-25.4847
-25.484
-25.4836
-25.4833
-24.8786
-24.8786
-24.8787
-24.8789
-24.8791
-24.8794
-24.8797
-24.8801
-24.8804
-24.8808
-24.8812
-24.8816
-24.882
-24.8823
-24.8827
-24.883
-24.8832
-24.8835
-24.8836
-24.8837
-24.6711
-24.6714
-24.6719
-24.6726
-24.6735
-24.6745
-24.6757
-24.677
-24.6783
-24.6797
-24.681
-24.6823
-24.6836
-24.6847
-24.6857
-24.6866
-24.6873
-24.6879
-24.6883
-24.6885
-24.3794
-24.3796
-24.3802
-24.381
-24.382
-24.3832
-24.3845
-24.3859
-24.3875
-24.389
-24.3905
-24.392
-24.3934
-24.3947
-24.3959
-24.3969
-24.3977
-24.3984
-24.3989
-24.3991
-24.2758
-24.276
-24.2765
-24.2772
-24.2781
-24.2792
-24.2804
-24.2817
-24.2831
-24.2845
-24.2859
-24.2873
-24.2886
-24.2898
-24.2908
-24.2918
-24.2926
-24.2932
-24.2936
-24.2938
-24.1277
-24.128
-24.1286
-24.1294
-24.1304
-24.1316
-24.133
-24.1346
-24.1362
-24.1378
-24.1394
-24.1409
-24.1424
-24.1438
-24.145
-24.146
-24.1469
-24.1476
-24.1481
-24.1483
-24.0577
-24.058
-24.0585
-24.0593
-24.0603
-24.0615
-24.0628
-24.0643
-24.0658
-24.0673
-24.0689
-24.0704
-24.0718
-24.0732
-24.0743
-24.0753
-24.0762
-24.0768
-24.0773
-24.0775
-23.993
-23.9932
-23.9937
-23.9944
-23.9952
-23.9963
-23.9974
-23.9987
-24.0001
-24.0014
-24.0028
-24.0042
-24.0054
-24.0066
-24.0076
-24.0085
-24.0092
-24.0098
-24.0102
-24.0104
-23.98
-23.9802
-23.9806
-23.9812
-23.982
-23.983
-23.984
-23.9852
-23.9864
-23.9877
-23.989
-23.9902
-23.9913
-23.9924
-23.9934
-23.9942
-23.9948
-23.9953
-23.9957
-23.9958
-24.0324
-24.0325
-24.0329
-24.0333
-24.0339
-24.0347
-24.0355
-24.0364
-24.0374
-24.0383
-24.0393
-24.0403
-24.0412
-24.0421
-24.0428
-24.0434
-24.044
-24.0444
-24.0446
-24.0448
-24.0416
-24.0418
-24.0421
-24.0426
-24.0433
-24.0441
-24.0449
-24.0459
-24.0469
-24.0479
-24.049
-24.05
-24.0509
-24.0518
-24.0526
-24.0532
-24.0538
-24.0542
-24.0545
-24.0546
-24.1895
-24.1896
-24.1898
-24.1901
-24.1905
-24.191
-24.1915
-24.1921
-24.1928
-24.1934
-24.1941
-24.1947
-24.1953
-24.1959
-24.1964
-24.1968
-24.1972
-24.1974
-24.1976
-24.1977
-24.2303
-24.2305
-24.2307
-24.2311
-24.2316
-24.2322
-24.2329
-24.2336
-24.2344
-24.2352
-24.236
-24.2367
-24.2375
-24.2381
-24.2387
-24.2392
-24.2397
-24.24
-24.2402
-24.2403
-24.4887
-24.4887
-24.4888
-24.489
-24.4892
-24.4894
-24.4897
-24.49
-24.4903
-24.4906
-24.491
-24.4913
-24.4916
-24.4919
-24.4922
-24.4925
-24.4927
-24.4929
-24.493
-24.4931
-24.5863
-24.5863
-24.5865
-24.5867
-24.587
-24.5874
-24.5878
-24.5882
-24.5887
-24.5892
-24.5897
-24.5902
-24.5906
-24.591
-24.5914
-24.5917
-24.592
-24.5923
-24.5924
-24.5926
-25.0104
-25.0104
-25.0104
-25.0103
-25.0103
-25.0102
-25.0101
-25.01
-25.01
-25.0099
-25.0098
-25.0097
-25.0097
-25.0097
-25.0097
-25.0097
-25.0097
-25.0098
-25.0098
-25.0099
-25.2676
-25.2676
-25.2674
-25.2672
-25.267
-25.2667
-25.2664
-25.266
-25.2657
-25.2653
-25.265
-25.2647
-25.2644
-25.2642
-25.264
-25.2639
-25.2638
-25.2637
-25.2637
-25.2637
-26.1592
-26.1589
-26.1584
-26.1576
-26.1566
-26.1554
-26.1541
-26.1527
-26.1512
-26.1497
-26.1482
-26.1468
-26.1455
-26.1444
-26.1434
-26.1426
-26.142
-26.1415
-26.1412
-26.141
-27.4776
-27.477
-27.4758
-27.4741
-27.4718
-27.4692
-27.4662
-27.463
-27.4596
-27.4563
-27.4529
-27.4498
-27.4469
-27.4442
-27.4419
-27.44
-27.4385
-27.4373
-27.4365
-27.4361
-76.9232
-76.9229
-76.9225
-76.9218
-76.921
-76.92
-76.919
-76.9178
-76.9167
-76.9156
-76.9145
-76.9135
-76.9125
-76.9116
-76.9109
-76.9102
-76.9096
-76.9091
-76.9087
-76.9085
-75.5395
-75.5396
-75.5396
-75.5396
-75.5397
-75.5398
-75.5399
-75.54
-75.5402
-75.5404
-75.5406
-75.5408
-75.5411
-75.5413
-75.5415
-75.5417
-75.5419
-75.542
-75.5421
-75.5421
-74.3106
-74.3107
-74.311
-74.3115
-74.3121
-74.3129
-74.3137
-74.3146
-74.3156
-74.3167
-74.3177
-74.3188
-74.3198
-74.3208
-74.3216
-74.3224
-74.3231
-74.3236
-74.3239
-74.3241
-73.6505
-73.6507
-73.6513
-73.6521
-73.6531
-73.6543
-73.6556
-73.6571
-73.6587
-73.6603
-73.6619
-73.6635
-73.665
-73.6664
-73.6677
-73.6689
-73.6698
-73.6706
-73.6711
-73.6714
-72.9689
-72.9693
-72.9701
-72.9712
-72.9726
-72.9743
-72.9762
-72.9783
-72.9805
-72.9828
-72.9851
-72.9873
-72.9895
-72.9915
-72.9933
-72.9949
-72.9962
-72.9972
-72.998
-72.9984
-72.5923
-72.5927
-72.5934
-72.5945
-72.5959
-72.5976
-72.5995
-72.6016
-72.6038
-72.6061
-72.6084
-72.6107
-72.6129
-72.6149
-72.6167
-72.6184
-72.6197
-72.6208
-72.6215
-72.6219
-72.2415
-72.242
-72.2428
-72.2441
-72.2457
-72.2476
-72.2498
-72.2522
-72.2548
-72.2574
-72.26
-72.2626
-72.2651
-72.2674
-72.2695
-72.2713
-72.2728
-72.274
-72.2749
-72.2753
-72.0316
-72.032
-72.0329
-72.0341
-72.0358
-72.0377
-72.04
-72.0424
-72.045
-72.0476
-72.0503
-72.0529
-72.0554
-72.0577
-72.0598
-72.0617
-72.0632
-72.0644
-72.0653
-72.0657
-71.8917
-71.8921
-71.8929
-71.8941
-71.8956
-71.8974
-71.8995
-71.9017
-71.9041
-71.9066
-71.9091
-71.9115
-71.9138
-71.916
-71.918
-71.9198
-71.9212
-71.9224
-71.9232
-71.9236
-71.8471
-71.8475
-71.8483
-71.8494
-71.8508
-71.8525
-71.8545
-71.8566
-71.8589
-71.8612
-71.8636
-71.866
-71.8682
-71.8703
-71.8722
-71.8739
-71.8753
-71.8764
-71.8771
-71.8775
-71.9573
-71.9576
-71.9582
-71.959
-71.9602
-71.9616
-71.9631
-71.9649
-71.9667
-71.9687
-71.9706
-71.9725
-71.9744
-71.9761
-71.9777
-71.9791
-71.9803
-71.9813
-71.9819
-71.9822
-72.0407
-72.041
-72.0417
-72.0426
-72.0438
-72.0453
-72.047
-72.0488
-72.0508
-72.0528
-72.0548
-72.0569
-72.0588
-72.0606
-72.0623
-72.0637
-72.0649
-72.0659
-72.0666
-72.0669
-72.3837
-72.3839
-72.3844
-72.385
-72.3858
-72.3868
-72.3879
-72.3892
-72.3905
-72.3919
-72.3933
-72.3947
-72.3961
-72.3974
-72.3986
-72.3997
-72.4006
-72.4014
-72.4019
-72.4022
-72.6145
-72.6147
-72.6152
-72.616
-72.6169
-72.6181
-72.6194
-72.6209
-72.6225
-72.6241
-72.6257
-72.6274
-72.6289
-72.6304
-72.6317
-72.6329
-72.6339
-72.6347
-72.6353
-72.6356
-73.2306
-73.2308
-73.231
-73.2314
-73.232
-73.2326
-73.2333
-73.2341
-73.235
-73.2359
-73.2369
-73.2378
-73.2387
-73.2396
-73.2405
-73.2412
-73.2419
-73.2425
-73.2429
-73.2431
-73.6887
-73.6888
-73.6892
-73.6897
-73.6903
-73.6911
-73.692
-73.693
-73.694
-73.6951
-73.6963
-73.6974
-73.6984
-73.6995
-73.7004
-73.7013
-73.702
-73.7026
-73.703
-73.7033
-74.7071
-74.7072
-74.7072
-74.7074
-74.7075
-74.7078
-74.708
-74.7083
-74.7086
-74.7089
-74.7093
-74.7097
-74.71
-74.7104
-74.7108
-74.7111
-74.7114
-74.7117
-74.7119
-74.7121
-75.6344
-75.6344
-75.6343
-75.6343
-75.6342
-75.6342
-75.6341
-75.6341
-75.634
-75.634
-75.634
-75.6341
-75.6341
-75.6342
-75.6343
-75.6344
-75.6345
-75.6345
-75.6346
-75.6346
-77.4419
-77.4418
-77.4414
-77.4409
-77.4402
-77.4394
-77.4386
-77.4376
-77.4366
-77.4356
-77.4347
-77.4338
-77.4329
-77.4322
-77.4315
-77.4309
-77.4305
-77.4301
-77.4298
-77.4297
-79.5675
-79.5672
-79.5664
-79.5653
-79.5639
-79.5622
-79.5603
-79.5582
-79.5561
-79.5539
-79.5518
-79.5498
-79.5479
-79.5461
-79.5445
-79.5431
-79.5419
-79.5409
-79.5401
-79.5396
-125.93
-125.93
-125.93
-125.93
-125.93
-125.93
-125.931
-125.931
-125.931
-125.931
-125.932
-125.932
-125.932
-125.933
-125.933
-125.933
-125.933
-125.933
-125.933
-125.933
-124.369
-124.369
-124.369
-124.37
-124.37
-124.371
-124.372
-124.373
-124.374
-124.375
-124.377
-124.378
-124.379
-124.38
-124.381
-124.382
-124.383
-124.383
-124.383
-124.384
-122.806
-122.806
-122.807
-122.807
-122.809
-122.81
-122.811
-122.813
-122.815
-122.817
-122.819
-122.821
-122.822
-122.824
-122.826
-122.827
-122.828
-122.829
-122.83
-122.83
-121.88
-121.88
-121.881
-121.882
-121.884
-121.885
-121.887
-121.889
-121.891
-121.894
-121.896
-121.898
-121.9
-121.902
-121.904
-121.906
-121.907
-121.908
-121.909
-121.909
-120.919
-120.919
-120.92
-120.922
-120.924
-120.926
-120.929
-120.931
-120.934
-120.937
-120.941
-120.944
-120.947
-120.949
-120.952
-120.954
-120.956
-120.957
-120.958
-120.959
-120.354
-120.355
-120.356
-120.357
-120.359
-120.361
-120.364
-120.367
-120.37
-120.373
-120.376
-120.379
-120.382
-120.385
-120.388
-120.39
-120.392
-120.394
-120.395
-120.395
-119.844
-119.844
-119.845
-119.847
-119.849
-119.851
-119.854
-119.858
-119.861
-119.864
-119.868
-119.871
-119.875
-119.878
-119.881
-119.883
-119.885
-119.887
-119.888
-119.889
-119.535
-119.536
-119.537
-119.538
-119.541
-119.543
-119.546
-119.549
-119.553
-119.556
-119.56
-119.564
-119.567
-119.57
-119.573
-119.576
-119.578
-119.58
-119.581
-119.582
-119.338
-119.339
-119.34
-119.341
-119.343
-119.346
-119.349
-119.352
-119.355
-119.358
-119.362
-119.365
-119.369
-119.372
-119.374
-119.377
-119.379
-119.381
-119.382
-119.383
-119.28
-119.281
-119.282
-119.283
-119.285
-119.288
-119.29
-119.293
-119.297
-119.3
-119.303
-119.307
-119.31
-119.313
-119.316
-119.318
-119.32
-119.322
-119.323
-119.324
-119.437
-119.438
-119.439
-119.44
-119.442
-119.444
-119.446
-119.449
-119.451
-119.454
-119.457
-119.46
-119.463
-119.465
-119.468
-119.47
-119.472
-119.473
-119.474
-119.475
-119.595
-119.595
-119.596
-119.598
-119.599
-119.601
-119.604
-119.607
-119.609
-119.612
-119.616
-119.619
-119.621
-119.624
-119.627
-119.629
-119.631
-119.632
-119.633
-119.634
-120.095
-120.095
-120.096
-120.097
-120.098
-120.1
-120.102
-120.104
-120.106
-120.108
-120.11
-120.113
-120.115
-120.117
-120.119
-120.121
-120.122
-120.124
-120.124
-120.125
-120.491
-120.491
-120.492
-120.493
-120.495
-120.497
-120.499
-120.501
-120.503
-120.506
-120.509
-120.511
-120.514
-120.516
-120.518
-120.52
-120.522
-120.523
-120.524
-120.524
-121.392
-121.392
-121.392
-121.393
-121.394
-121.395
-121.397
-121.398
-121.4
-121.401
-121.403
-121.405
-121.406
-121.408
-121.409
-121.411
-121.412
-121.413
-121.413
-121.414
-122.119
-122.12
-122.12
-122.121
-122.122
-122.124
-122.125
-122.127
-122.129
-122.131
-122.133
-122.135
-122.137
-122.138
-122.14
-122.141
-122.143
-122.144
-122.145
-122.145
-123.575
-123.575
-123.576
-123.576
-123.576
-123.577
-123.578
-123.579
-123.579
-123.58
-123.581
-123.582
-123.583
-123.584
-123.585
-123.586
-123.586
-123.587
-123.587
-123.587
-124.875
-124.875
-124.875
-124.876
-124.876
-124.876
-124.877
-124.877
-124.878
-124.879
-124.879
-124.88
-124.881
-124.882
-124.882
-124.883
-124.883
-124.883
-124.884
-124.884
-127.184
-127.184
-127.184
-127.184
-127.183
-127.183
-127.183
-127.183
-127.182
-127.182
-127.182
-127.182
-127.181
-127.181
-127.181
-127.181
-127.181
-127.18
-127.18
-127.18
-129.507
-129.507
-129.506
-129.506
-129.505
-129.504
-129.504
-129.503
-129.502
-129.501
-129.5
-129.499
-129.498
-129.497
-129.496
-129.496
-129.495
-129.494
-129.493
-129.493
-174.102
-174.102
-174.102
-174.103
-174.104
-174.105
-174.106
-174.107
-174.109
-174.11
-174.112
-174.114
-174.115
-174.116
-174.117
-174.118
-174.119
-174.12
-174.12
-174.12
-172.398
-172.398
-172.399
-172.4
-172.401
-172.403
-172.405
-172.407
-172.409
-172.411
-172.414
-172.416
-172.418
-172.42
-172.422
-172.423
-172.425
-172.426
-172.426
-172.427
-170.653
-170.654
-170.654
-170.656
-170.657
-170.66
-170.662
-170.665
-170.667
-170.67
-170.673
-170.676
-170.679
-170.681
-170.684
-170.686
-170.687
-170.689
-170.69
-170.69
-169.536
-169.537
-169.538
-169.539
-169.541
-169.543
-169.545
-169.548
-169.551
-169.554
-169.557
-169.56
-169.563
-169.566
-169.568
-169.57
-169.572
-169.574
-169.574
-169.575
-168.399
-168.4
-168.401
-168.403
-168.405
-168.408
-168.411
-168.415
-168.419
-168.423
-168.426
-168.43
-168.434
-168.438
-168.441
-168.444
-168.446
-168.448
-168.449
-168.45
-167.678
-167.679
-167.68
-167.682
-167.685
-167.687
-167.691
-167.694
-167.698
-167.702
-167.706
-167.71
-167.714
-167.718
-167.721
-167.724
-167.726
-167.728
-167.73
-167.73
-167.055
-167.055
-167.057
-167.059
-167.061
-167.064
-167.068
-167.072
-167.076
-167.08
-167.085
-167.089
-167.093
-167.097
-167.101
-167.104
-167.107
-167.109
-167.11
-167.111
-166.667
-166.668
-166.669
-166.671
-166.674
-166.677
-166.681
-166.685
-166.689
-166.694
-166.698
-166.703
-166.707
-166.711
-166.715
-166.718
-166.721
-166.723
-166.724
-166.725
-166.437
-166.438
-166.439
-166.441
-166.444
-166.447
-166.45
-166.454
-166.458
-166.463
-166.467
-166.471
-166.475
-166.479
-166.483
-166.486
-166.489
-166.491
-166.493
-166.493
-166.375
-166.376
-166.377
-166.379
-166.382
-166.385
-166.388
-166.392
-166.396
-166.401
-166.405
-166.409
-166.413
-166.417
-166.421
-166.424
-166.427
-166.429
-166.431
-166.431
-166.579
-166.58
-166.581
-166.583
-166.585
-166.587
-166.591
-166.594
-166.598
-166.601
-166.605
-166.609
-166.613
-166.616
-166.62
-166.622
-166.625
-166.627
-166.628
-166.629
-166.815
-166.815
-166.817
-166.818
-166.821
-166.823
-166.827
-166.83
-166.834
-166.838
-166.842
-166.846
-166.849
-166.853
-166.856
-166.859
-166.862
-166.864
-166.865
-166.866
-167.452
-167.452
-167.453
-167.454
-167.456
-167.458
-167.461
-167.464
-167.467
-167.47
-167.473
-167.477
-167.48
-167.483
-167.486
-167.488
-167.49
-167.492
-167.493
-167.494
-168.006
-168.006
-168.008
-168.009
-168.011
-168.014
-168.016
-168.019
-168.023
-168.026
-168.03
-168.033
-168.037
-168.04
-168.043
-168.045
-168.048
-168.05
-168.051
-168.052
-169.136
-169.137
-169.137
-169.139
-169.14
-169.142
-169.144
-169.146
-169.149
-169.151
-169.154
-169.157
-169.159
-169.162
-169.164
-169.166
-169.168
-169.169
-169.17
-169.171
-170.101
-170.102
-170.102
-170.104
-170.105
-170.107
-170.11
-170.112
-170.115
-170.118
-170.12
-170.123
-170.126
-170.129
-170.131
-170.133
-170.135
-170.137
-170.138
-170.138
-171.854
-171.855
-171.855
-171.856
-171.857
-171.859
-171.86
-171.862
-171.864
-171.866
-171.868
-171.87
-171.872
-171.873
-171.875
-171.877
-171.878
-171.879
-171.88
-171.88
-173.451
-173.451
-173.452
-173.453
-173.453
-173.454
-173.455
-173.457
-173.458
-173.459
-173.461
-173.462
-173.464
-173.465
-173.466
-173.467
-173.468
-173.468
-173.469
-173.469
-176.009
-176.009
-176.009
-176.01
-176.01
-176.01
-176.01
-176.01
-176.01
-176.01
-176.01
-176.011
-176.011
-176.011
-176.011
-176.011
-176.011
-176.011
-176.01
-176.01
-178.365
-178.365
-178.365
-178.366
-178.367
-178.367
-178.368
-178.369
-178.37
-178.372
-178.373
-178.374
-178.375
-178.375
-178.376
-178.376
-178.376
-178.376
-178.376
-178.376
-221.305
-221.306
-221.307
-221.308
-221.31
-221.312
-221.314
-221.317
-221.319
-221.322
-221.325
-221.328
-221.33
-221.333
-221.335
-221.337
-221.338
-221.339
-221.34
-221.34
-219.602
-219.603
-219.604
-219.605
-219.607
-219.61
-219.613
-219.616
-219.619
-219.622
-219.626
-219.629
-219.632
-219.635
-219.638
-219.64
-219.642
-219.644
-219.645
-219.645
-217.755
-217.756
-217.757
-217.759
-217.761
-217.764
-217.767
-217.771
-217.774
-217.778
-217.782
-217.786
-217.789
-217.793
-217.796
-217.799
-217.801
-217.803
-217.804
-217.804
-216.528
-216.529
-216.53
-216.532
-216.534
-216.537
-216.541
-216.544
-216.548
-216.552
-216.556
-216.56
-216.564
-216.567
-216.571
-216.573
-216.576
-216.577
-216.579
-216.579
-215.271
-215.271
-215.273
-215.275
-215.278
-215.281
-215.285
-215.289
-215.294
-215.299
-215.304
-215.308
-215.313
-215.317
-215.321
-215.324
-215.327
-215.33
-215.331
-215.332
-214.452
-214.453
-214.454
-214.457
-214.459
-214.463
-214.467
-214.471
-214.476
-214.481
-214.486
-214.49
-214.495
-214.499
-214.504
-214.507
-214.51
-214.512
-214.514
-214.515
-213.749
-213.75
-213.751
-213.754
-213.757
-213.76
-213.765
-213.769
-213.774
-213.78
-213.785
-213.79
-213.795
-213.8
-213.804
-213.808
-213.811
-213.814
-213.816
-213.816
-213.312
-213.313
-213.315
-213.317
-213.32
-213.324
-213.328
-213.333
-213.338
-213.343
-213.349
-213.354
-213.359
-213.364
-213.369
-213.373
-213.376
-213.379
-213.381
-213.382
-213.063
-213.064
-213.065
-213.068
-213.071
-213.074
-213.079
-213.083
-213.088
-213.093
-213.099
-213.104
-213.109
-213.114
-213.118
-213.122
-213.126
-213.128
-213.13
-213.131
-213.008
-213.009
-213.011
-213.013
-213.016
-213.02
-213.024
-213.029
-213.034
-213.039
-213.044
-213.049
-213.054
-213.059
-213.064
-213.068
-213.071
-213.074
-213.076
-213.077
-213.253
-213.254
-213.256
-213.258
-213.26
-213.264
-213.268
-213.272
-213.277
-213.281
-213.286
-213.291
-213.296
-213.3
-213.304
-213.308
-213.311
-213.313
-213.315
-213.316
-213.558
-213.559
-213.56
-213.563
-213.565
-213.569
-213.573
-213.577
-213.582
-213.587
-213.592
-213.597
-213.602
-213.606
-213.61
-213.614
-213.617
-213.62
-213.622
-213.623
-214.301
-214.302
-214.303
-214.305
-214.307
-214.31
-214.314
-214.318
-214.322
-214.326
-214.33
-214.334
-214.339
-214.343
-214.346
-214.349
-214.352
-214.354
-214.356
-214.357
-214.983
-214.984
-214.985
-214.987
-214.99
-214.993
-214.996
-215
-215.005
-215.009
-215.014
-215.018
-215.023
-215.027
-215.031
-215.034
-215.037
-215.04
-215.042
-215.042
-216.276
-216.277
-216.278
-216.279
-216.281
-216.284
-216.287
-216.29
-216.294
-216.298
-216.301
-216.305
-216.309
-216.312
-216.315
-216.318
-216.32
-216.322
-216.323
-216.324
-217.408
-217.409
-217.41
-217.412
-217.414
-217.417
-217.42
-217.424
-217.427
-217.431
-217.435
-217.439
-217.443
-217.447
-217.45
-217.453
-217.456
-217.458
-217.459
-217.46
-219.354
-219.355
-219.355
-219.357
-219.359
-219.361
-219.363
-219.366
-219.369
-219.372
-219.375
-219.378
-219.381
-219.384
-219.386
-219.389
-219.39
-219.392
-219.393
-219.393
-221.088
-221.089
-221.09
-221.091
-221.093
-221.095
-221.097
-221.099
-221.102
-221.105
-221.107
-221.11
-221.113
-221.115
-221.117
-221.119
-221.121
-221.122
-221.123
-221.123
-223.759
-223.76
-223.76
-223.761
-223.763
-223.764
-223.766
-223.768
-223.77
-223.772
-223.774
-223.776
-223.778
-223.78
-223.782
-223.783
-223.784
-223.784
-223.785
-223.785
-226.253
-226.253
-226.254
-226.254
-226.255
-226.257
-226.258
-226.259
-226.261
-226.262
-226.264
-226.265
-226.267
-226.267
-226.268
-226.269
-226.269
-226.269
-226.268
-226.268
-267.873
-267.873
-267.875
-267.877
-267.879
-267.882
-267.885
-267.889
-267.893
-267.897
-267.901
-267.905
-267.909
-267.913
-267.916
-267.919
-267.921
-267.922
-267.923
-267.924
-266.098
-266.098
-266.1
-266.102
-266.105
-266.108
-266.112
-266.116
-266.12
-266.125
-266.13
-266.134
-266.139
-266.143
-266.146
-266.149
-266.152
-266.154
-266.155
-266.156
-264.213
-264.214
-264.216
-264.218
-264.221
-264.224
-264.228
-264.233
-264.238
-264.242
-264.247
-264.252
-264.257
-264.261
-264.265
-264.269
-264.272
-264.274
-264.275
-264.276
-262.909
-262.91
-262.912
-262.914
-262.917
-262.921
-262.925
-262.929
-262.934
-262.939
-262.944
-262.949
-262.954
-262.958
-262.962
-262.966
-262.968
-262.971
-262.972
-262.973
-261.587
-261.587
-261.589
-261.592
-261.595
-261.599
-261.604
-261.609
-261.614
-261.62
-261.626
-261.631
-261.637
-261.642
-261.646
-261.65
-261.654
-261.657
-261.658
-261.659
-260.698
-260.699
-260.701
-260.703
-260.707
-260.711
-260.716
-260.721
-260.726
-260.732
-260.738
-260.744
-260.749
-260.754
-260.759
-260.763
-260.767
-260.77
-260.772
-260.773
-259.948
-259.949
-259.951
-259.954
-259.958
-259.962
-259.967
-259.972
-259.978
-259.984
-259.99
-259.996
-260.002
-260.008
-260.013
-260.018
-260.021
-260.024
-260.027
-260.028
-259.481
-259.482
-259.484
-259.487
-259.491
-259.495
-259.5
-259.506
-259.512
-259.518
-259.524
-259.53
-259.536
-259.542
-259.547
-259.552
-259.556
-259.559
-259.561
-259.563
-259.228
-259.229
-259.23
-259.233
-259.237
-259.241
-259.246
-259.252
-259.258
-259.264
-259.27
-259.276
-259.282
-259.288
-259.293
-259.298
-259.302
-259.305
-259.307
-259.308
-259.186
-259.187
-259.189
-259.191
-259.195
-259.199
-259.204
-259.21
-259.216
-259.222
-259.228
-259.235
-259.241
-259.246
-259.252
-259.256
-259.261
-259.264
-259.266
-259.267
-259.472
-259.473
-259.474
-259.477
-259.48
-259.485
-259.489
-259.494
-259.5
-259.506
-259.512
-259.518
-259.523
-259.529
-259.534
-259.538
-259.542
-259.545
-259.547
-259.548
-259.838
-259.839
-259.84
-259.843
-259.847
-259.851
-259.856
-259.861
-259.867
-259.873
-259.879
-259.885
-259.891
-259.896
-259.901
-259.906
-259.91
-259.913
-259.915
-259.917
-260.671
-260.672
-260.674
-260.676
-260.68
-260.683
-260.688
-260.692
-260.698
-260.703
-260.708
-260.714
-260.719
-260.724
-260.729
-260.733
-260.736
-260.739
-260.741
-260.742
-261.455
-261.456
-261.457
-261.46
-261.463
-261.467
-261.472
-261.477
-261.482
-261.488
-261.494
-261.499
-261.505
-261.51
-261.515
-261.519
-261.523
-261.526
-261.528
-261.529
-262.876
-262.877
-262.879
-262.881
-262.884
-262.887
-262.891
-262.896
-262.9
-262.905
-262.91
-262.915
-262.92
-262.925
-262.929
-262.933
-262.936
-262.938
-262.94
-262.941
-264.134
-264.134
-264.136
-264.138
-264.141
-264.145
-264.149
-264.154
-264.159
-264.164
-264.169
-264.174
-264.179
-264.184
-264.188
-264.192
-264.196
-264.198
-264.2
-264.201
-266.206
-266.207
-266.208
-266.211
-266.213
-266.216
-266.22
-266.224
-266.228
-266.233
-266.237
-266.242
-266.246
-266.25
-266.254
-266.257
-266.26
-266.262
-266.263
-266.264
-268.061
-268.061
-268.063
-268.065
-268.067
-268.07
-268.073
-268.077
-268.081
-268.085
-268.089
-268.094
-268.098
-268.101
-268.104
-268.107
-268.109
-268.111
-268.112
-268.113
-270.795
-270.796
-270.797
-270.798
-270.801
-270.803
-270.806
-270.809
-270.813
-270.817
-270.82
-270.824
-270.827
-270.83
-270.832
-270.834
-270.836
-270.837
-270.838
-270.838
-273.308
-273.308
-273.309
-273.311
-273.313
-273.315
-273.317
-273.32
-273.322
-273.325
-273.328
-273.33
-273.332
-273.334
-273.336
-273.337
-273.337
-273.337
-273.337
-273.336
-313.715
-313.716
-313.718
-313.72
-313.724
-313.728
-313.732
-313.737
-313.743
-313.748
-313.754
-313.759
-313.765
-313.769
-313.774
-313.777
-313.78
-313.782
-313.784
-313.785
-311.932
-311.933
-311.935
-311.937
-311.941
-311.945
-311.95
-311.955
-311.961
-311.967
-311.972
-311.978
-311.984
-311.989
-311.993
-311.997
-312.001
-312.003
-312.005
-312.006
-310.018
-310.019
-310.021
-310.024
-310.027
-310.031
-310.036
-310.042
-310.048
-310.054
-310.06
-310.066
-310.072
-310.077
-310.082
-310.086
-310.09
-310.092
-310.094
-310.095
-308.679
-308.679
-308.681
-308.684
-308.688
-308.692
-308.697
-308.702
-308.708
-308.714
-308.72
-308.726
-308.732
-308.738
-308.743
-308.747
-308.75
-308.753
-308.755
-308.756
-307.316
-307.317
-307.319
-307.322
-307.326
-307.331
-307.336
-307.342
-307.349
-307.355
-307.362
-307.369
-307.375
-307.381
-307.386
-307.391
-307.395
-307.398
-307.4
-307.402
-306.391
-306.392
-306.394
-306.397
-306.401
-306.406
-306.412
-306.418
-306.424
-306.431
-306.438
-306.444
-306.451
-306.457
-306.463
-306.468
-306.472
-306.475
-306.477
-306.478
-305.616
-305.617
-305.619
-305.623
-305.627
-305.632
-305.638
-305.644
-305.651
-305.658
-305.665
-305.672
-305.679
-305.685
-305.691
-305.696
-305.701
-305.704
-305.707
-305.708
-305.137
-305.138
-305.14
-305.143
-305.148
-305.153
-305.159
-305.165
-305.172
-305.179
-305.186
-305.194
-305.201
-305.207
-305.213
-305.219
-305.224
-305.227
-305.23
-305.231
-304.888
-304.889
-304.892
-304.895
-304.899
-304.904
-304.91
-304.916
-304.923
-304.93
-304.938
-304.945
-304.952
-304.959
-304.965
-304.97
-304.975
-304.979
-304.981
-304.982
-304.865
-304.866
-304.868
-304.871
-304.876
-304.881
-304.887
-304.893
-304.9
-304.907
-304.915
-304.922
-304.929
-304.936
-304.942
-304.948
-304.952
-304.956
-304.959
-304.96
-305.188
-305.189
-305.191
-305.194
-305.198
-305.203
-305.208
-305.215
-305.221
-305.228
-305.235
-305.242
-305.249
-305.256
-305.262
-305.267
-305.271
-305.275
-305.277
-305.279
-305.607
-305.609
-305.611
-305.614
-305.618
-305.623
-305.629
-305.635
-305.642
-305.649
-305.656
-305.664
-305.671
-305.677
-305.683
-305.689
-305.694
-305.697
-305.7
-305.701
-306.511
-306.512
-306.514
-306.517
-306.521
-306.525
-306.531
-306.536
-306.543
-306.549
-306.556
-306.563
-306.569
-306.575
-306.581
-306.586
-306.59
-306.593
-306.596
-306.597
-307.375
-307.376
-307.378
-307.381
-307.385
-307.39
-307.396
-307.402
-307.408
-307.415
-307.422
-307.429
-307.436
-307.442
-307.448
-307.454
-307.458
-307.462
-307.464
-307.466
-308.886
-308.887
-308.889
-308.891
-308.895
-308.9
-308.905
-308.91
-308.916
-308.923
-308.929
-308.935
-308.941
-308.947
-308.952
-308.957
-308.961
-308.964
-308.966
-308.967
-310.232
-310.233
-310.235
-310.238
-310.241
-310.246
-310.251
-310.257
-310.263
-310.27
-310.276
-310.283
-310.289
-310.295
-310.301
-310.306
-310.31
-310.313
-310.316
-310.317
-312.385
-312.386
-312.387
-312.39
-312.394
-312.398
-312.403
-312.408
-312.414
-312.42
-312.426
-312.432
-312.437
-312.443
-312.448
-312.452
-312.455
-312.458
-312.46
-312.461
-314.31
-314.311
-314.312
-314.315
-314.318
-314.322
-314.327
-314.332
-314.338
-314.343
-314.349
-314.354
-314.36
-314.365
-314.369
-314.373
-314.376
-314.378
-314.38
-314.381
-317.073
-317.073
-317.075
-317.077
-317.081
-317.084
-317.089
-317.093
-317.098
-317.103
-317.108
-317.113
-317.118
-317.122
-317.126
-317.129
-317.131
-317.133
-317.134
-317.135
-319.582
-319.583
-319.585
-319.587
-319.59
-319.593
-319.597
-319.601
-319.605
-319.609
-319.614
-319.618
-319.621
-319.625
-319.627
-319.629
-319.63
-319.631
-319.631
-319.63
-358.933
-358.934
-358.936
-358.939
-358.944
-358.949
-358.955
-358.961
-358.968
-358.975
-358.982
-358.989
-358.996
-359.002
-359.007
-359.012
-359.016
-359.019
-359.021
-359.022
-357.155
-357.156
-357.159
-357.162
-357.166
-357.171
-357.177
-357.184
-357.191
-357.198
-357.205
-357.212
-357.219
-357.225
-357.231
-357.236
-357.24
-357.243
-357.245
-357.246
-355.239
-355.24
-355.242
-355.245
-355.25
-355.255
-355.261
-355.267
-355.274
-355.282
-355.289
-355.296
-355.303
-355.309
-355.315
-355.32
-355.325
-355.328
-355.33
-355.331
-353.871
-353.872
-353.874
-353.877
-353.882
-353.887
-353.893
-353.899
-353.906
-353.913
-353.921
-353.928
-353.935
-353.941
-353.947
-353.952
-353.956
-353.96
-353.962
-353.963
-352.491
-352.492
-352.495
-352.498
-352.503
-352.508
-352.515
-352.521
-352.529
-352.537
-352.544
-352.552
-352.559
-352.566
-352.573
-352.578
-352.583
-352.587
-352.589
-352.59
-351.544
-351.545
-351.547
-351.551
-351.555
-351.561
-351.567
-351.574
-351.582
-351.59
-351.598
-351.605
-351.613
-351.62
-351.627
-351.632
-351.637
-351.641
-351.643
-351.644
-350.76
-350.762
-350.764
-350.768
-350.773
-350.778
-350.785
-350.792
-350.8
-350.808
-350.816
-350.824
-350.832
-350.84
-350.847
-350.853
-350.858
-350.862
-350.864
-350.866
-350.28
-350.282
-350.284
-350.288
-350.293
-350.299
-350.305
-350.313
-350.321
-350.329
-350.337
-350.346
-350.354
-350.361
-350.369
-350.375
-350.38
-350.384
-350.387
-350.389
-350.045
-350.046
-350.049
-350.052
-350.057
-350.063
-350.07
-350.077
-350.085
-350.094
-350.102
-350.11
-350.119
-350.126
-350.133
-350.14
-350.145
-350.149
-350.152
-350.154
-350.043
-350.044
-350.047
-350.05
-350.055
-350.061
-350.068
-350.076
-350.084
-350.092
-350.101
-350.109
-350.118
-350.125
-350.133
-350.139
-350.145
-350.149
-350.152
-350.153
-350.4
-350.401
-350.404
-350.408
-350.412
-350.418
-350.425
-350.432
-350.44
-350.448
-350.457
-350.465
-350.473
-350.481
-350.488
-350.494
-350.499
-350.503
-350.506
-350.507
-350.868
-350.869
-350.872
-350.875
-350.88
-350.886
-350.893
-350.901
-350.909
-350.917
-350.926
-350.934
-350.942
-350.95
-350.957
-350.964
-350.969
-350.974
-350.977
-350.978
-351.827
-351.829
-351.831
-351.835
-351.84
-351.845
-351.852
-351.859
-351.867
-351.875
-351.883
-351.891
-351.899
-351.906
-351.913
-351.919
-351.923
-351.927
-351.93
-351.931
-352.757
-352.758
-352.761
-352.765
-352.77
-352.775
-352.782
-352.79
-352.798
-352.806
-352.814
-352.823
-352.831
-352.839
-352.846
-352.852
-352.857
-352.862
-352.865
-352.866
-354.334
-354.336
-354.338
-354.342
-354.346
-354.352
-354.358
-354.365
-354.373
-354.38
-354.388
-354.396
-354.404
-354.411
-354.417
-354.423
-354.428
-354.431
-354.434
-354.435
-355.748
-355.75
-355.752
-355.756
-355.761
-355.766
-355.773
-355.78
-355.788
-355.795
-355.804
-355.812
-355.819
-355.827
-355.834
-355.84
-355.845
-355.849
-355.851
-355.853
-357.954
-357.955
-357.957
-357.961
-357.965
-357.971
-357.977
-357.984
-357.991
-357.998
-358.006
-358.014
-358.021
-358.028
-358.034
-358.039
-358.043
-358.047
-358.049
-358.051
-359.928
-359.929
-359.931
-359.934
-359.939
-359.944
-359.95
-359.956
-359.963
-359.971
-359.978
-359.985
-359.992
-359.998
-360.004
-360.009
-360.013
-360.016
-360.018
-360.019
-362.698
-362.699
-362.701
-362.704
-362.708
-362.713
-362.719
-362.725
-362.732
-362.739
-362.745
-362.752
-362.758
-362.764
-362.769
-362.773
-362.777
-362.779
-362.781
-362.782
-365.228
-365.229
-365.231
-365.234
-365.238
-365.243
-365.248
-365.254
-365.26
-365.266
-365.272
-365.278
-365.283
-365.288
-365.292
-365.295
-365.297
-365.298
-365.299
-365.299
-403.545
-403.547
-403.55
-403.554
-403.559
-403.565
-403.572
-403.58
-403.589
-403.597
-403.606
-403.615
-403.623
-403.63
-403.637
-403.643
-403.648
-403.652
-403.655
-403.656
-401.765
-401.766
-401.769
-401.773
-401.778
-401.784
-401.791
-401.799
-401.808
-401.816
-401.825
-401.833
-401.842
-401.849
-401.856
-401.862
-401.867
-401.871
-401.873
-401.875
-399.856
-399.857
-399.86
-399.864
-399.869
-399.875
-399.882
-399.89
-399.898
-399.907
-399.915
-399.924
-399.932
-399.94
-399.947
-399.953
-399.958
-399.962
-399.964
-399.966
-398.484
-398.485
-398.488
-398.492
-398.497
-398.503
-398.51
-398.518
-398.526
-398.535
-398.543
-398.552