/*--------------------------------*- C++ -*----------------------------------*\
| =========                 |                                                 |
| \\      /  F ield         | OpenFOAM: The Open Source CFD Toolbox           |
|  \\    /   O peration     | Version:  2212                                  |
|   \\  /    A nd           | Website:  www.openfoam.com                      |
|    \\/     M anipulation  |                                                 |
\*---------------------------------------------------------------------------*/
FoamFile
{
    version     2.0;
    format      ascii;
    arch        "LSB;label=32;scalar=64";
    class       surfaceScalarField;
    location    "0.00026";
    object      phi;
}
// * * * * * * * * * * * * * * * * * * * * * * * * * * * * * * * * * * * * * //

dimensions      [1 0 -1 0 0 0 0];

oriented        oriented;

internalField   nonuniform List<scalar> 
5190
(
-6.8836e-18
1.92746e-17
5.90764e-17
5.85587e-17
-1.90084e-17
1.39425e-17
-1.15572e-17
-5.62121e-17
3.52321e-19
1.71487e-17
3.00636e-17
3.52605e-17
7.77014e-17
-8.18245e-18
1.65605e-17
2.75143e-17
6.82983e-17
1.99142e-17
1.67907e-17
3.61179e-17
1.69204e-17
1.77192e-17
9.81847e-18
4.09939e-17
-3.19791e-18
-2.11474e-17
-4.08546e-17
-3.28053e-17
-1.09323e-17
5.86564e-18
2.0019e-17
-1.14196e-17
2.78457e-17
2.96177e-17
-1.03841e-16
1.94764e-17
6.04711e-18
-8.47001e-17
2.47466e-17
-6.91168e-17
-1.18996e-17
3.94456e-17
1.47108e-17
4.84011e-17
-1.41279e-18
2.63769e-18
-1.3132e-17
1.06676e-17
-8.99708e-18
-9.40098e-18
2.63715e-17
1.21845e-17
3.4941e-17
8.13217e-18
-1.14248e-17
4.61225e-18
1.5882e-17
-4.7678e-17
-7.48141e-17
-2.37366e-17
2.54796e-17
1.68869e-17
2.98981e-17
1.1326e-17
-4.44499e-18
-1.31185e-17
-1.38992e-17
-2.89879e-17
-3.10487e-17
-1.77165e-17
-1.61236e-17
-5.74558e-18
-2.41262e-17
1.72677e-17
-4.89973e-17
-3.14812e-17
1.67561e-17
4.263e-19
5.71917e-18
-4.02374e-17
-8.56363e-18
-1.70711e-17
5.92202e-19
-3.28936e-17
1.36943e-17
3.86789e-17
4.05041e-17
4.75265e-17
-1.40055e-17
4.35651e-17
-5.92641e-17
2.21281e-17
-3.58056e-17
7.76227e-18
6.89578e-17
-3.72184e-19
-2.50518e-17
-2.32732e-17
-3.83886e-17
1.68318e-17
-2.25166e-18
3.21131e-17
1.89076e-17
-2.50015e-17
-7.92102e-18
1.18177e-17
2.7931e-17
1.27907e-17
-1.40905e-17
-2.53367e-18
5.17524e-18
4.74066e-17
1.82447e-17
-2.54951e-17
3.19502e-19
-3.07928e-17
-2.84723e-17
1.7971e-17
8.30494e-17
-1.38249e-17
2.11655e-17
-2.98254e-18
-2.51473e-17
-4.44391e-17
5.17002e-17
3.11199e-17
-2.22593e-17
5.36544e-17
-3.20823e-17
6.35163e-17
-1.85243e-17
2.5286e-17
-4.91623e-17
-1.98538e-17
2.40023e-17
2.92286e-17
-3.72697e-17
5.19363e-17
-3.72175e-17
-1.32002e-17
-1.64535e-17
6.683e-18
2.83096e-18
1.814e-17
-6.02405e-17
3.3866e-17
-4.86107e-17
3.605e-17
-6.89251e-17
3.86368e-17
1.60877e-17
-2.17314e-17
4.28214e-17
-4.33572e-17
-4.31782e-17
4.37088e-17
-9.52725e-17
2.47232e-17
-3.4464e-18
4.17964e-17
6.44024e-17
-7.97523e-20
-4.55582e-17
-5.13337e-17
-1.25542e-17
5.89997e-18
2.36704e-17
-1.34686e-17
6.76693e-18
3.06868e-17
-2.32838e-18
5.01402e-17
4.08096e-18
2.0121e-17
-2.77558e-19
7.09623e-17
-5.18545e-17
2.05256e-17
-2.45353e-17
-1.20288e-17
-2.93147e-17
2.02817e-17
-1.51147e-17
7.68885e-18
-5.38706e-18
1.41593e-17
1.47011e-17
-6.42334e-18
3.48377e-17
9.84952e-18
4.36936e-17
-5.83066e-17
-2.10501e-17
-1.04149e-17
1.69179e-17
3.70678e-17
3.61788e-17
5.54009e-17
-2.68228e-17
-2.83324e-17
8.14761e-18
-1.55663e-17
1.85288e-17
-2.15697e-17
-1.85246e-17
-4.38084e-17
4.33415e-17
1.38684e-17
2.12406e-17
2.67637e-17
2.37507e-17
4.58617e-17
2.41089e-17
-4.17694e-17
2.12768e-17
2.74579e-17
-4.33072e-17
-3.69267e-17
-4.56978e-17
-5.52675e-17
1.08845e-17
3.31142e-17
1.47969e-17
5.22302e-17
-1.63313e-17
-3.58886e-17
-2.37718e-17
-4.37908e-17
-6.34283e-18
-2.08556e-17
4.59942e-17
3.57049e-17
3.81156e-17
6.00691e-18
-9.93434e-18
-2.44199e-17
-3.24015e-17
6.33922e-18
-4.11319e-18
1.54075e-17
1.70545e-17
-9.73276e-18
1.80389e-17
-1.0707e-18
-8.22015e-18
-1.47036e-17
3.46844e-18
8.82791e-18
-1.05058e-17
-6.69453e-18
-5.9968e-18
-1.53012e-17
1.30863e-17
2.32981e-17
3.05253e-17
-6.56371e-17
-1.69083e-18
-1.11422e-17
-3.36278e-17
-1.4263e-18
9.24707e-17
-9.16418e-17
8.77915e-18
-3.73963e-17
-2.31151e-17
1.77596e-17
3.45498e-17
4.02141e-18
-1.98248e-17
-2.48043e-17
-2.8796e-17
6.6041e-18
4.02993e-17
-2.74291e-18
1.72953e-17
-5.57407e-17
1.88614e-17
-3.41176e-17
2.95189e-17
3.28877e-17
1.21148e-17
1.59496e-17
-1.94251e-17
4.76927e-17
-4.14833e-17
1.22244e-17
-5.39584e-17
-2.0377e-17
-7.76606e-17
2.12076e-17
1.23615e-17
4.00321e-17
2.3584e-17
3.73938e-17
2.4781e-17
5.00277e-18
-5.34221e-17
-3.00831e-17
-3.56395e-17
2.04779e-17
-2.34305e-17
7.41948e-20
3.11393e-17
1.37469e-17
3.57199e-17
-2.1116e-17
-6.18335e-17
2.26598e-17
-5.34787e-18
8.4858e-19
-1.80828e-17
-8.71477e-18
2.51333e-17
-1.12614e-17
-2.87031e-17
-3.07935e-17
-1.82655e-17
2.24509e-17
1.96569e-17
-1.62123e-17
4.65581e-18
-5.66266e-17
4.05655e-17
1.34033e-17
4.81184e-17
2.06077e-17
-2.52959e-17
1.15834e-17
-9.65766e-18
1.42774e-17
-3.63397e-17
-4.13356e-18
-2.6686e-17
-1.60439e-17
-5.93601e-17
-2.53496e-17
1.76362e-17
3.84144e-17
2.58958e-17
2.14613e-17
3.95169e-17
2.25851e-17
9.67022e-18
1.39578e-17
7.12912e-17
-5.80161e-18
-6.24671e-18
-3.13436e-17
-1.61557e-17
-1.25586e-17
1.73408e-17
-2.70048e-17
1.65728e-17
-1.30996e-17
2.02462e-17
2.12209e-18
4.75971e-17
-4.33414e-19
-2.44907e-17
-7.16069e-18
1.92713e-17
-4.55845e-17
-2.85809e-18
-1.80897e-17
-9.9609e-18
-3.25887e-18
-2.13854e-17
-1.07489e-17
2.63988e-17
4.04567e-17
3.58982e-17
6.82403e-17
-8.97684e-18
-1.85779e-17
5.79458e-17
-2.88814e-17
2.84339e-17
-4.80784e-17
-3.68895e-17
8.53051e-18
3.92199e-17
-5.84118e-18
3.86073e-17
5.49392e-17
-1.88657e-17
-2.11246e-17
-1.49937e-17
3.2655e-18
-1.91381e-17
2.45747e-18
1.30692e-17
4.6809e-17
-7.38316e-17
2.74564e-17
1.71829e-17
3.47081e-17
5.46686e-17
4.79736e-17
-2.51341e-17
-2.91272e-17
1.31212e-18
1.11291e-18
-5.27101e-18
-1.80047e-17
3.27407e-17
7.74766e-18
-5.60212e-18
-1.39076e-17
-3.71734e-17
-1.47188e-17
-8.72798e-18
8.00231e-18
1.3567e-17
1.48872e-17
2.11146e-17
-1.37823e-17
2.70684e-17
-3.27941e-18
8.4001e-19
-3.55192e-17
2.76409e-17
-6.55943e-18
-6.26173e-18
-4.93993e-17
-1.45413e-17
1.26549e-17
7.34697e-18
9.6087e-18
-2.58174e-17
2.40599e-17
-3.04478e-17
-1.66475e-17
-4.39348e-17
-4.71663e-17
-1.09093e-17
-4.12108e-17
1.98569e-17
4.7889e-17
-2.43569e-17
1.66814e-17
-3.16471e-17
3.02656e-17
-2.85992e-17
7.76843e-17
2.17561e-17
-7.39872e-17
-3.17724e-18
-2.07459e-17
4.76297e-17
1.64139e-17
-2.35249e-17
4.69191e-17
3.48144e-17
-3.93589e-17
4.90273e-18
8.38508e-17
1.247e-17
1.0947e-17
-7.9723e-18
-3.47143e-18
-9.81719e-18
-3.55532e-18
6.95922e-18
-4.97817e-17
-3.92805e-17
-2.4874e-17
-2.28525e-17
-1.89853e-17
-2.44572e-17
-4.14437e-17
-4.14834e-17
-1.42534e-17
-2.27653e-17
-3.97332e-17
-1.22802e-17
-4.28363e-17
-1.02497e-17
-1.33117e-17
1.05873e-17
-3.88141e-17
-5.6404e-17
-7.55651e-18
-6.14859e-18
-1.79822e-18
-1.07605e-17
2.3708e-17
-4.37373e-17
-3.0792e-17
-3.13297e-17
-3.05433e-17
-8.90403e-18
3.62833e-17
-2.60982e-17
-1.97887e-18
1.8662e-17
2.10944e-17
1.67606e-17
-8.0876e-18
9.78923e-18
-1.25257e-17
-3.0566e-17
3.04425e-17
6.70288e-18
2.92764e-17
3.37479e-17
-4.57724e-12
-2.83032e-15
8.06658e-11
-3.76265e-15
-4.39213e-16
-5.04823e-13
-2.72021e-16
4.5807e-12
-5.05417e-13
-1.04815e-15
8.07148e-11
-7.52427e-15
4.37612e-17
-7.73919e-19
-8.35401e-18
-1.64601e-17
-8.03133e-17
-2.01667e-17
9.79777e-18
3.86664e-17
-3.56995e-17
-4.23795e-17
7.79502e-18
-7.67771e-17
-1.19272e-17
-4.71345e-17
6.96186e-18
-9.32844e-18
-1.22315e-17
4.00451e-17
8.67622e-17
1.05012e-16
1.88664e-17
7.45311e-18
9.75082e-18
3.03919e-17
-3.67825e-17
-2.04743e-17
1.22614e-17
-3.75814e-17
1.04447e-18
-6.67406e-18
5.35446e-18
-1.99434e-17
2.67703e-17
2.14338e-17
1.16e-17
9.98673e-18
4.36424e-17
1.94088e-17
4.67922e-17
1.77914e-17
-2.45173e-17
4.50451e-17
1.98694e-17
5.47646e-17
-1.56121e-17
7.28978e-17
-1.42777e-17
4.37811e-18
-1.24688e-17
-5.74983e-18
-2.93313e-17
-6.97618e-17
3.6085e-17
-4.82525e-17
-3.42327e-17
-4.49527e-17
-4.24343e-17
4.65313e-17
-1.04214e-17
2.97481e-17
3.15855e-17
-4.38627e-17
-1.41628e-17
-4.21089e-17
1.3977e-17
3.36238e-17
7.45838e-17
2.76819e-17
1.39553e-18
-1.53215e-17
1.73727e-17
3.6095e-17
3.19706e-17
-1.52398e-18
-1.8025e-17
-6.52011e-18
2.60549e-17
-3.78716e-17
3.76924e-17
-5.25065e-18
4.11183e-17
3.13962e-17
-1.9226e-18
-7.48029e-17
5.58534e-17
-3.80373e-17
2.78194e-18
-2.48723e-18
2.12258e-17
2.77813e-17
-2.79417e-17
-4.52683e-17
1.78051e-17
1.51897e-17
-4.89201e-17
2.59531e-17
-3.9778e-17
6.93624e-17
-1.83988e-17
-2.49937e-14
-2.56713e-17
3.41899e-17
-2.20373e-15
2.72523e-17
1.72875e-17
-3.55487e-17
-4.09313e-17
9.92412e-17
8.00005e-17
2.90015e-17
2.29521e-17
4.0644e-17
-2.0796e-17
1.99017e-17
-3.40771e-17
-7.77907e-18
-5.00492e-17
1.23553e-17
3.0574e-17
-3.3447e-17
4.96256e-17
9.85358e-18
-6.23154e-17
-2.80515e-17
-2.3067e-17
-6.95931e-17
-1.98191e-17
-4.23581e-17
-4.84485e-17
1.19536e-17
3.32523e-17
5.05191e-17
-3.28649e-18
-4.21728e-18
1.24136e-17
6.68027e-20
1.92545e-17
5.0822e-18
2.85792e-18
2.47426e-18
4.48562e-17
-4.21813e-18
-1.23897e-17
1.3967e-17
-6.41981e-17
-3.91507e-17
-1.06731e-17
-5.28886e-17
-6.83116e-17
-2.90303e-17
4.05288e-17
4.32732e-17
6.55527e-17
1.49078e-17
-2.22012e-15
2.50182e-14
-1.39468e-17
1.51112e-17
-3.79783e-17
-9.10753e-18
-1.99223e-17
9.70363e-18
-1.00571e-17
-3.80915e-18
-9.12199e-18
7.18829e-18
3.10398e-18
1.60894e-17
1.15167e-17
1.11751e-17
2.35283e-17
-1.73057e-17
-1.23194e-17
6.29932e-19
1.12418e-17
-1.0069e-17
-2.29717e-17
3.40364e-17
2.45764e-17
2.69017e-17
-2.38046e-17
6.00106e-17
-1.42919e-17
-4.95345e-18
3.27937e-17
7.63013e-17
-3.55486e-17
-1.62926e-17
-1.53475e-17
-2.74918e-17
3.84462e-17
3.5912e-17
2.46699e-17
-4.45789e-17
-1.84551e-17
3.74263e-17
-1.55409e-17
-2.35376e-17
2.21635e-17
3.81395e-17
5.42002e-17
4.81494e-18
2.21104e-17
1.74629e-17
-2.56278e-17
-7.70196e-18
-4.13846e-17
-7.90908e-18
-1.57259e-17
3.83672e-17
5.31665e-19
-7.4594e-18
-4.36512e-17
-2.38236e-17
1.76839e-17
5.69569e-18
8.98406e-18
1.54523e-17
-2.52189e-17
2.63173e-17
-1.77214e-17
-1.37293e-17
1.25361e-17
-9.96167e-17
1.41764e-17
-4.87215e-17
2.40824e-17
6.89994e-18
2.94215e-17
6.40789e-17
-1.64442e-18
3.93701e-17
-1.30118e-17
9.55297e-17
-1.41597e-17
-2.7506e-17
1.80889e-17
3.31527e-17
-3.56319e-18
3.3746e-18
-6.18421e-18
8.92364e-18
-1.21309e-19
-2.39445e-17
-7.30917e-18
-1.28761e-17
1.43106e-17
1.20961e-17
-3.04773e-17
1.91779e-17
5.97922e-18
-6.6289e-18
-2.74201e-17
1.27001e-17
-7.74604e-18
3.01295e-17
-9.07758e-18
5.47888e-17
-3.73248e-18
-4.33273e-17
5.61075e-18
-3.03241e-17
2.49948e-17
-6.55265e-18
-3.91852e-17
-5.34718e-18
5.66991e-17
6.30852e-17
2.16553e-17
-6.61381e-14
-1.01504e-13
5.89087e-10
-1.62369e-13
5.89494e-10
-1.21292e-17
6.67981e-19
-4.254e-17
-5.81781e-18
4.2253e-17
-6.96217e-17
-1.03578e-17
5.43414e-17
-3.07865e-17
9.12163e-18
-7.45986e-19
-5.80304e-18
5.98557e-18
1.56391e-18
1.81401e-17
-6.56634e-18
-1.05496e-17
-3.20057e-17
-2.26158e-17
2.01311e-17
-2.36091e-17
2.2016e-17
-1.3618e-17
1.10571e-17
7.12482e-18
7.19594e-18
3.09274e-17
-2.45433e-18
5.89585e-10
-8.07258e-11
-2.78817e-13
-4.29341e-13
-1.07664e-13
8.70669e-09
-1.2983e-12
8.71386e-09
3.32038e-17
-1.31875e-17
-5.72646e-17
-2.34846e-17
4.13353e-18
4.46357e-17
-7.28182e-17
1.39316e-17
-5.16073e-17
2.08987e-17
3.01583e-17
2.26683e-17
-3.50197e-17
3.77069e-17
-5.21222e-18
1.72428e-17
1.33089e-17
2.80622e-17
2.42602e-18
1.36951e-17
2.72494e-17
2.63925e-17
1.06999e-17
3.39994e-17
4.95922e-17
-3.22853e-18
4.90416e-18
2.24158e-17
1.29477e-17
-1.40159e-17
3.18439e-18
-4.47233e-18
5.7023e-18
1.92714e-17
5.16827e-17
-6.44085e-17
-3.57976e-17
-4.82019e-17
-2.19046e-17
-2.79751e-17
-1.78291e-17
-4.13929e-17
7.6771e-18
-9.18328e-19
1.30286e-17
1.14143e-18
-3.52366e-19
-4.89317e-18
-3.93681e-18
-2.17585e-17
8.54847e-19
-2.30715e-17
-3.12673e-17
2.822e-17
1.05559e-17
2.91377e-17
-3.25141e-17
7.02717e-17
-7.42529e-17
-1.76164e-18
-1.30274e-17
-1.01206e-16
-1.38793e-16
9.49454e-18
-1.0859e-16
3.85821e-17
3.99918e-18
-4.4723e-17
-1.91086e-17
1.20211e-17
-2.13071e-17
-2.18106e-17
-6.08196e-19
7.17583e-18
-1.20284e-17
3.6199e-17
3.25133e-17
3.64029e-17
1.3282e-18
-1.67654e-17
-2.25244e-17
-3.58328e-17
-2.18457e-17
4.75329e-17
-1.49087e-17
1.18301e-17
-9.30202e-18
6.98894e-18
-2.24353e-17
-5.55156e-17
4.13962e-17
-1.97923e-17
-2.87602e-18
-5.58359e-17
3.66865e-18
-1.8347e-17
3.94509e-17
-3.00469e-17
-3.87954e-17
-6.82203e-18
1.42967e-17
1.85779e-17
-2.07886e-17
-5.58588e-18
-2.11821e-17
2.4548e-17
-1.7184e-17
-2.83505e-17
-4.7064e-17
-4.52246e-19
-2.40318e-17
2.9448e-17
3.60585e-17
3.34723e-17
1.14413e-17
-3.93264e-17
3.05447e-17
-5.96516e-17
-3.29292e-18
-3.14703e-17
2.13941e-17
1.32489e-17
-5.9426e-17
3.41431e-17
2.12481e-17
-4.69569e-17
5.65705e-17
-1.87509e-17
8.67856e-17
-2.32081e-17
4.57891e-12
-5.04893e-13
-1.02761e-15
-9.69567e-15
2.49567e-14
-2.17067e-15
5.79417e-17
-9.18493e-18
7.84895e-17
2.46724e-17
6.51332e-17
4.88311e-17
2.73015e-17
-5.28955e-17
-2.0051e-17
1.3932e-17
2.49298e-17
2.36635e-18
2.19958e-17
5.06322e-17
4.39773e-17
5.90358e-10
-8.08314e-11
-2.58302e-13
5.88379e-13
-1.2549e-12
8.71896e-09
8.70805e-09
2.42611e-18
1.76068e-17
-3.80818e-17
-1.56532e-17
-2.45425e-17
-5.58126e-17
-4.46331e-17
-2.35116e-17
-4.32722e-17
-5.79947e-18
-2.18881e-17
-1.70618e-19
-9.37504e-18
-4.74424e-17
3.65376e-17
-2.07225e-17
3.01785e-17
2.46818e-17
-2.18719e-17
-6.5239e-18
1.05291e-17
5.62368e-17
-3.13173e-18
-2.73095e-17
-8.72783e-18
-1.50458e-18
-6.12e-18
-9.9817e-18
-2.18213e-15
2.50558e-14
1.83471e-18
1.85539e-17
-5.06123e-13
4.5878e-12
-1.2236e-15
-1.92571e-17
-9.19076e-15
-9.96152e-18
-1.14659e-17
1.602e-17
-2.98839e-18
-4.28147e-18
1.63161e-17
2.01728e-17
1.69366e-18
2.72957e-17
4.87733e-18
1.75519e-18
-7.42693e-18
-2.37438e-17
3.17137e-18
-2.0905e-17
2.39063e-17
-9.74436e-18
-4.1837e-17
-1.51128e-17
1.46642e-17
7.30362e-18
-4.02916e-17
2.93275e-17
8.2193e-18
-7.598e-17
2.04392e-17
-9.30928e-18
3.50326e-17
3.29368e-17
3.37924e-18
3.1465e-19
-1.14137e-17
-5.25156e-17
-2.63864e-17
-2.87789e-17
-2.90169e-17
-4.16398e-18
1.95675e-17
9.25681e-18
-8.48096e-19
7.70197e-18
-7.48795e-17
3.94967e-17
4.53198e-17
3.53858e-17
5.74601e-17
3.71628e-17
-1.05679e-18
7.05159e-18
7.89499e-17
8.5923e-18
1.84065e-18
2.53708e-17
1.87897e-17
-5.35087e-18
2.78942e-17
4.93167e-17
-3.87427e-17
3.28211e-17
2.41023e-17
4.62194e-18
3.59251e-17
2.82883e-17
-6.9801e-18
2.57016e-18
4.24888e-17
1.33905e-17
1.91804e-17
2.33532e-17
-2.27541e-17
-2.88117e-17
-7.9942e-18
7.60698e-18
3.63836e-17
3.06568e-17
3.42325e-17
6.50408e-19
7.42521e-18
2.41758e-17
2.18419e-17
1.88892e-17
1.31539e-17
-1.4601e-17
-5.63951e-17
-4.57556e-17
-1.37711e-17
-7.53785e-17
-5.17877e-17
-6.66293e-18
-2.59972e-17
-5.53338e-17
-3.82184e-17
1.03015e-16
5.01838e-18
8.55148e-17
1.55569e-17
6.46869e-17
-5.72621e-17
-1.69302e-18
-5.01775e-17
-1.50386e-17
-5.55721e-18
-1.40126e-17
-2.40565e-17
8.67548e-19
9.28335e-18
8.42967e-18
-1.97873e-17
-4.82489e-17
-4.16579e-17
-5.51229e-18
1.15801e-17
-2.72703e-18
1.79422e-17
1.82611e-17
-1.08951e-17
2.59114e-17
-7.51502e-18
-2.14607e-17
-1.22119e-17
-1.44545e-17
-3.56951e-17
-2.03446e-17
-2.21929e-17
-3.41257e-17
1.34168e-17
-1.48697e-17
-1.75902e-17
7.11045e-18
-1.84048e-18
1.79154e-19
-3.09605e-18
-1.44973e-17
-6.14626e-17
5.91217e-10
-8.08999e-11
-3.13533e-13
8.7374e-09
-1.58039e-12
8.4991e-18
-1.67585e-17
-1.68423e-17
1.55522e-18
2.12375e-17
9.46633e-18
-7.69745e-18
-6.45806e-18
2.04613e-17
5.42148e-20
3.18438e-17
4.16052e-17
1.6451e-17
5.62762e-17
1.29566e-17
-1.01225e-17
-2.49441e-17
-2.84358e-18
7.41305e-18
-6.85848e-18
-2.88944e-17
-2.23307e-17
-7.0092e-17
-6.61407e-17
-6.3414e-17
-5.31393e-17
-5.53163e-18
-2.02657e-17
2.82109e-19
-8.65687e-18
9.86311e-18
3.84981e-17
-3.77502e-17
2.50097e-17
2.70246e-17
5.87775e-17
2.15949e-17
1.97183e-17
3.88605e-17
4.23848e-17
-9.51967e-18
-2.53345e-17
-3.39749e-17
1.39208e-17
-9.7262e-18
-4.11004e-17
-1.32107e-17
-2.04506e-17
2.42113e-17
-1.14849e-17
-4.09388e-17
-1.67881e-17
2.10038e-17
-5.54254e-17
-3.51635e-17
7.24934e-18
-1.66006e-17
5.9191e-10
-8.10043e-11
-2.7009e-13
8.74391e-09
-1.32637e-12
1.53184e-17
1.57748e-17
-2.43135e-18
2.58346e-17
2.16644e-18
1.75239e-17
-1.84698e-17
-5.73391e-18
1.963e-17
1.34482e-17
1.63705e-17
-1.35071e-17
1.92787e-17
1.13172e-17
-1.19804e-17
-3.71613e-17
6.2222e-17
-1.47476e-17
3.30861e-17
-4.5073e-17
-2.15853e-18
-5.71682e-18
2.67141e-17
-5.11382e-17
4.47207e-17
2.00619e-17
1.93091e-17
7.33876e-18
-3.53582e-17
-2.33996e-17
-2.71718e-17
6.43184e-18
7.95533e-18
4.0674e-19
7.40103e-18
3.88811e-17
1.31053e-17
-2.92979e-17
-9.45569e-20
3.82313e-17
1.12448e-18
-1.69509e-17
-3.26282e-17
-1.76741e-17
4.81858e-18
1.01642e-17
-8.30338e-18
-3.09724e-17
-1.48343e-17
4.4963e-17
2.06392e-17
-6.34258e-18
-6.22487e-18
-2.4519e-17
1.76831e-17
-9.02029e-17
-9.2699e-17
-2.45638e-17
-2.12723e-17
-2.33232e-17
3.26616e-18
5.66573e-18
7.57684e-18
1.53537e-17
9.29727e-18
1.9774e-18
-3.93027e-19
-1.95498e-17
1.69093e-17
-9.08887e-19
-8.78041e-18
3.47465e-17
-3.06172e-17
4.45765e-17
1.53123e-17
5.47325e-17
1.17244e-18
-4.64283e-17
1.05807e-17
7.00544e-18
4.00196e-17
1.76452e-17
-4.56998e-17
2.22248e-17
3.83133e-17
-2.52958e-17
4.26842e-17
1.64288e-17
-2.60269e-18
3.88729e-17
-2.28291e-17
5.51955e-17
-1.00565e-17
-3.09438e-17
2.21858e-17
-1.08097e-17
3.08459e-17
7.32487e-18
-4.73091e-18
-2.82002e-17
-6.74589e-17
-1.21419e-17
1.45922e-17
3.47013e-17
2.51144e-17
-9.8965e-18
-4.34877e-17
2.30541e-17
5.40198e-17
9.24968e-18
2.25945e-17
1.26525e-17
-1.23576e-17
-2.84191e-17
-7.90034e-17
-4.17626e-17
1.52384e-17
3.84833e-17
5.48338e-17
-5.56978e-17
-1.61222e-17
-8.88771e-18
4.21085e-17
-1.29671e-17
7.27548e-17
2.43645e-17
2.1473e-17
-2.07563e-17
-2.01144e-17
3.41991e-17
-2.26385e-17
3.82729e-18
-4.24526e-17
-3.66615e-17
-4.39884e-17
1.51529e-18
7.30926e-17
1.67705e-17
1.79132e-17
1.41971e-19
1.79943e-17
4.58759e-12
-5.05656e-13
-1.46344e-15
-1.17352e-14
2.49543e-14
-2.18497e-15
7.09332e-18
-4.22337e-17
8.34633e-17
3.19156e-18
1.37433e-18
-8.81679e-18
3.48167e-17
-7.99614e-19
-8.19635e-19
-4.25959e-17
4.79217e-17
3.03506e-17
5.61074e-17
2.01244e-18
1.82958e-17
-2.54643e-12
-1.38176e-11
5.01098e-08
1.57344e-11
-2.41965e-11
5.01925e-08
5.01218e-08
-3.98035e-18
2.49398e-18
2.47876e-11
5.02984e-08
-3.41165e-11
5.01707e-08
8.11962e-18
-5.88363e-18
1.88032e-17
8.9593e-18
2.57917e-17
-1.4631e-18
-2.56115e-17
-7.69077e-18
6.27404e-18
8.55385e-18
-1.71392e-17
-9.01452e-18
-2.33861e-17
-1.83491e-19
-4.50891e-17
-5.34322e-17
-2.43191e-17
4.47058e-17
5.83278e-17
1.47245e-17
8.50392e-18
-2.48026e-18
-4.43233e-17
-3.57113e-18
-3.27507e-17
4.28652e-17
-2.43268e-18
2.54855e-17
-1.87826e-18
7.68409e-18
-2.18181e-15
2.50892e-14
3.62397e-17
7.93671e-17
-5.06828e-13
4.59776e-12
-1.00327e-15
3.10145e-17
-9.06928e-15
5.23667e-17
5.13504e-18
1.94664e-17
-2.49069e-17
-2.19523e-17
-2.49322e-17
-3.31525e-17
-2.57269e-17
-1.53045e-17
-2.82063e-17
1.31726e-17
-3.29828e-18
-2.45027e-17
-1.41901e-17
-2.91282e-17
7.28029e-18
-2.01528e-17
-2.22671e-17
-1.59448e-17
6.7888e-18
2.76336e-17
2.39746e-17
2.86368e-17
-8.78959e-18
6.8575e-18
2.99103e-17
-1.22243e-17
-1.01513e-17
1.6779e-17
-2.03694e-17
-1.60535e-17
-4.31097e-17
-2.29855e-17
-4.44248e-17
-2.68072e-17
3.43359e-17
-8.69412e-18
-1.44018e-17
-3.28721e-17
5.5679e-17
-1.92304e-17
1.43261e-17
-2.25081e-17
-2.81399e-17
-4.37271e-17
7.89418e-18
-7.68159e-17
3.73444e-18
1.28506e-17
-7.6466e-17
5.15014e-18
-1.07449e-17
2.77592e-17
7.43707e-18
3.54345e-17
2.12445e-17
5.55246e-17
8.57074e-17
7.44732e-17
-3.13515e-17
-7.82641e-17
4.93114e-17
-1.28061e-17
-2.26604e-17
3.90487e-17
-9.45088e-17
-1.79366e-17
2.44102e-17
2.63857e-17
1.99102e-17
-2.61538e-17
3.40569e-17
5.30375e-17
-5.23803e-17
-2.72366e-18
1.26007e-18
-1.59494e-18
-4.40041e-17
-3.35558e-17
-3.14404e-17
-3.24183e-17
-1.66206e-17
-1.68953e-18
-1.63598e-17
5.0453e-17
2.12881e-17
1.95957e-18
-1.49865e-18
3.05906e-17
1.19621e-17
1.58983e-17
7.99907e-18
1.96631e-17
1.21415e-17
3.07014e-17
5.8065e-17
1.99149e-17
2.08047e-19
-6.45627e-17
-1.89333e-17
-3.80207e-17
2.68825e-18
-4.02622e-17
-5.14498e-17
-2.14288e-18
1.51728e-18
-2.13242e-17
-1.13205e-18
4.77388e-17
-3.16857e-17
1.00043e-16
2.43803e-18
3.36415e-17
1.73781e-17
-3.2969e-17
1.37554e-17
-5.27164e-17
-4.15483e-17
2.35755e-17
2.20936e-18
8.5641e-17
2.03256e-17
-3.5476e-17
3.99129e-17
4.7687e-18
-2.60336e-17
-2.61292e-17
-2.41572e-17
4.56176e-17
8.91762e-17
1.34597e-18
7.25394e-17
1.47781e-18
-5.79721e-17
4.91709e-17
-9.59331e-18
1.82408e-17
3.9098e-19
1.53574e-17
-8.28829e-18
-5.38741e-18
7.67321e-19
5.05376e-18
4.39071e-18
1.10551e-17
6.81818e-18
-7.85985e-18
1.16818e-17
9.75928e-18
1.62234e-17
2.75782e-18
-4.09153e-17
6.78608e-18
-5.00133e-17
1.48842e-17
-4.56134e-17
2.85718e-17
1.26388e-17
1.2365e-17
4.18751e-18
2.36365e-17
-7.41832e-17
-1.58404e-17
1.706e-17
-7.06512e-18
3.6055e-17
1.23542e-17
-1.01155e-18
4.53145e-17
2.87103e-17
1.12346e-17
4.20498e-18
2.25779e-19
-1.88394e-17
-1.15949e-17
1.21707e-17
3.33531e-17
-2.03624e-18
2.86786e-17
-8.5391e-17
-1.60536e-17
2.71772e-17
1.26213e-17
1.63106e-17
8.17842e-18
-1.88936e-17
1.8995e-17
4.89815e-17
-1.5497e-17
4.67235e-17
-1.013e-17
9.33422e-18
1.60733e-17
-3.28035e-17
9.16134e-18
1.9058e-17
3.93266e-18
4.7947e-18
-1.03532e-18
1.13396e-17
3.66753e-17
1.68183e-17
3.91685e-18
-2.00364e-17
-1.99902e-17
-3.24755e-11
5.03208e-08
9.89334e-19
-2.10435e-17
-2.22669e-17
-2.23972e-17
-2.02577e-17
-2.05673e-17
-2.40756e-17
-5.01946e-17
2.69091e-17
1.17806e-17
-5.55875e-18
-1.71149e-17
-2.86516e-17
1.65989e-17
6.71975e-18
-1.1011e-17
4.98332e-17
-2.02712e-17
-6.35315e-18
8.7216e-18
-1.16842e-17
2.39224e-17
-3.75802e-17
-1.64131e-17
5.5416e-18
-1.05911e-17
-3.37405e-17
1.30862e-17
-1.26299e-17
3.66146e-17
4.91991e-17
-1.3187e-17
-2.03535e-17
-1.24758e-18
5.1771e-18
-8.07712e-18
-5.15515e-17
-1.75714e-17
-6.27829e-17
-8.58975e-18
-1.20168e-17
6.46229e-17
3.39664e-17
-1.81266e-17
-8.96153e-18
3.74597e-17
-2.43768e-17
-8.90325e-18
-3.20113e-17
-1.54468e-17
-2.70373e-17
5.29489e-18
1.13426e-17
-9.7893e-18
-3.36362e-18
-4.13529e-18
8.11647e-18
-3.05579e-17
5.24202e-18
-2.12855e-17
-7.70599e-18
-3.61787e-17
6.99039e-18
4.04021e-17
1.43241e-18
1.47872e-18
1.9201e-17
4.11407e-18
-2.37992e-17
-3.30056e-17
2.78683e-19
2.82772e-17
-2.98721e-18
-1.97603e-17
-2.15224e-17
-3.14712e-17
2.77019e-17
7.94142e-18
-6.69611e-11
5.29059e-11
5.81051e-07
5.04731e-08
-8.76809e-09
-3.5186e-11
-8.26002e-11
5.8253e-07
-1.48806e-17
1.18454e-17
2.15208e-17
-7.61515e-18
-2.5497e-17
-6.17716e-18
1.36589e-17
-3.11569e-18
1.67224e-17
1.09731e-17
-2.09944e-17
5.66504e-18
6.06115e-17
-2.21909e-17
-2.55512e-17
-4.79216e-17
1.21934e-17
3.10859e-17
-1.47504e-17
-2.39453e-17
-2.06076e-17
-3.72968e-17
2.72954e-17
-1.26415e-17
-8.10555e-19
-4.11395e-18
6.22137e-17
-6.23083e-17
4.4479e-17
-2.90449e-17
-3.44229e-17
8.75087e-17
5.54855e-17
5.12422e-17
-1.97938e-17
1.78346e-17
3.40177e-18
-1.41381e-17
-3.93212e-18
-1.37801e-18
3.62941e-17
1.99075e-17
-5.00978e-18
3.34203e-17
3.95734e-18
1.56919e-17
-5.05561e-18
1.54398e-18
5.85874e-17
-3.50828e-17
1.36858e-18
3.45387e-17
1.45214e-17
2.32443e-18
9.59527e-18
-6.14968e-17
-4.8466e-17
-1.47114e-17
-1.69186e-17
1.13098e-17
-1.22998e-17
-4.36303e-18
-3.44016e-17
-3.37741e-17
-1.59769e-17
1.52096e-17
2.4007e-17
-3.31514e-17
3.046e-17
4.15447e-17
-2.22545e-17
6.32533e-17
4.70952e-17
2.75144e-17
-1.84696e-17
-1.71873e-17
-4.20194e-17
1.97954e-17
-5.77291e-17
4.53826e-18
2.12888e-17
2.64582e-17
1.31425e-17
-3.39778e-17
4.73908e-17
6.20723e-18
2.7742e-17
-2.52162e-17
-6.81265e-17
1.48092e-17
1.92796e-17
3.24923e-17
-1.8813e-17
-5.25741e-17
9.2911e-18
-4.80651e-17
5.78218e-17
2.13589e-17
6.61687e-17
1.53873e-17
-3.89224e-17
3.72656e-17
-2.55502e-17
5.44781e-17
2.08254e-17
-2.24801e-17
-1.25352e-17
-5.64464e-17
-1.55167e-17
3.42207e-17
-2.63071e-18
2.74718e-17
2.5166e-17
-1.95277e-17
-5.22194e-18
-4.82904e-17
-2.06548e-17
5.93171e-10
-8.11188e-11
-3.05482e-13
-1.36568e-12
4.5994e-12
-5.06825e-13
-1.56952e-15
-1.13426e-14
2.50163e-14
-2.15069e-15
2.23617e-18
9.30975e-18
7.32379e-17
-5.05985e-17
-3.31993e-17
-5.0452e-18
2.70913e-17
3.45794e-17
6.21319e-17
1.99628e-17
-4.15384e-17
2.52484e-17
-3.10828e-17
1.35491e-18
1.44673e-17
-2.51537e-17
-1.1723e-17
-7.71951e-17
1.22997e-17
3.0378e-17
1.34576e-17
1.77939e-17
-4.70963e-11
2.86905e-11
5.79993e-07
5.04865e-08
-8.77197e-09
-3.31498e-11
6.71916e-11
-7.0019e-11
5.82545e-07
5.81016e-07
-1.45039e-11
-2.88363e-11
5.79318e-07
5.79515e-07
5.79881e-07
1.53313e-17
-1.40404e-17
8.98366e-19
4.9716e-17
-5.0962e-18
-5.05492e-17
2.29534e-17
5.21503e-17
-4.85543e-17
3.3199e-17
-3.20101e-18
8.08069e-17
-1.1952e-17
-6.63788e-17
-4.61567e-17
4.9623e-17
1.60213e-17
4.58393e-17
8.03453e-17
3.61527e-17
8.18569e-18
5.44071e-17
-7.33892e-18
-1.30981e-17
-1.01652e-18
4.64038e-17
-3.17149e-17
-9.09177e-17
-2.2047e-15
2.51091e-14
1.22532e-17
4.70433e-17
-5.07599e-13
4.60657e-12
-8.95697e-16
-8.15414e-19
-8.11949e-11
5.93632e-10
-2.44577e-13
-8.14881e-15
-1.11415e-12
-1.16733e-17
1.55216e-18
-1.67639e-17
-4.20226e-17
1.11996e-17
-4.56278e-18
-3.2886e-17
-2.23174e-17
-5.27193e-18
-2.35093e-18
-1.2026e-17
-3.89741e-18
2.44047e-18
5.50218e-18
1.14592e-17
1.39422e-17
-1.80933e-17
-2.24968e-17
-6.56583e-18
6.47117e-18
1.71169e-17
-7.6857e-18
1.14371e-17
2.31258e-17
-3.54521e-17
2.24157e-17
-1.84989e-17
9.2373e-18
3.46539e-17
-1.76854e-17
4.26248e-18
-4.71551e-17
1.54072e-17
-1.70072e-17
1.83078e-17
4.48172e-17
-3.06152e-17
2.89749e-17
2.24031e-17
-1.81062e-17
2.42795e-17
4.54614e-17
-2.73492e-17
-5.47659e-17
-6.21154e-17
1.43736e-17
-4.70002e-17
-1.77384e-18
2.31459e-17
-5.09179e-18
-1.92797e-18
-4.54832e-17
4.63064e-17
-1.41859e-17
3.24318e-17
8.66918e-18
8.39599e-17
3.56176e-17
9.54262e-17
3.39425e-17
-6.48769e-17
-3.1153e-17
-7.86044e-17
4.43852e-17
-5.32015e-17
2.16716e-17
-1.05042e-16
-2.22952e-17
3.36163e-17
-2.64683e-18
-5.12143e-17
-4.35986e-17
4.41234e-17
2.61873e-17
5.28069e-17
5.94592e-18
2.9338e-19
4.7889e-17
-1.24429e-17
1.05632e-18
-3.80588e-17
-5.72321e-17
-1.63591e-17
-5.78782e-17
2.98161e-17
-4.98064e-17
-3.74937e-17
-6.00236e-17
2.39346e-17
4.66022e-17
-4.0118e-17
-4.7528e-17
-4.50162e-18
-1.89841e-17
1.00094e-17
-1.19607e-17
4.34592e-17
3.11448e-17
7.24341e-17
6.60203e-17
-5.58909e-17
5.72942e-17
5.40085e-18
2.67071e-17
2.51981e-18
1.82009e-17
6.2335e-18
-2.1668e-17
4.47984e-18
-5.08301e-17
-3.85334e-17
-5.4389e-17
3.42622e-17
-1.43421e-17
9.91822e-17
-6.80268e-17
-2.10858e-17
2.31225e-17
1.23682e-17
2.6422e-17
2.04333e-18
2.73771e-17
-1.00045e-17
-2.35947e-17
6.10382e-18
1.26039e-18
-7.96996e-18
-2.26831e-17
-1.59159e-17
2.57934e-18
2.12316e-17
-6.41507e-17
-6.71648e-17
1.49067e-18
-3.85261e-17
-3.71492e-17
2.75025e-18
-1.17414e-17
-4.62701e-17
2.5644e-17
6.2708e-18
6.58057e-18
4.06512e-19
2.06378e-17
6.24847e-18
1.46936e-17
1.25135e-17
2.01551e-18
-1.8399e-18
4.62699e-19
4.53816e-18
8.78288e-18
1.5591e-17
-4.38671e-17
-1.25522e-17
-5.19459e-17
-3.18349e-17
1.92217e-18
3.50631e-17
3.7011e-17
1.92999e-17
7.62657e-17
-2.20432e-17
-5.84118e-18
-1.19941e-17
-2.60388e-18
6.36949e-17
4.20807e-18
4.25639e-18
-2.90845e-17
-7.32549e-18
-1.90584e-17
4.21463e-17
-3.06604e-17
3.94934e-17
2.89351e-17
3.19033e-17
-3.64307e-17
1.98447e-17
3.95451e-17
2.35106e-18
-4.62344e-19
4.62254e-17
6.98098e-18
2.4982e-17
5.06545e-08
-8.79745e-09
-2.88208e-11
5.84259e-07
-7.67268e-11
-1.92172e-17
2.4252e-17
4.40976e-17
5.52751e-18
1.94882e-17
7.87323e-18
1.42364e-18
3.22831e-17
2.55303e-17
1.82388e-17
3.28404e-18
-2.35316e-17
7.02178e-17
6.43894e-17
-2.44153e-17
5.28061e-17
4.19973e-17
-8.26175e-19
-2.12102e-17
1.92419e-17
2.52766e-17
-1.79285e-17
1.74147e-17
-1.55988e-17
2.29842e-17
-1.01086e-18
1.12561e-17
-4.0703e-17
2.36229e-17
7.09582e-18
1.33201e-17
4.76835e-18
3.92915e-17
1.50635e-17
3.79618e-17
-2.34082e-17
-3.60099e-18
-1.75505e-17
-8.30103e-18
1.14312e-17
1.43782e-17
-3.42938e-18
-6.57298e-18
1.25701e-17
5.06503e-08
-8.79514e-09
-2.87993e-11
5.84301e-07
-7.27062e-11
-1.56836e-09
1.09541e-09
2.59226e-06
-1.76742e-09
2.59912e-06
-2.64859e-17
-2.15483e-17
-2.22939e-17
-6.31555e-18
4.6115e-18
2.20068e-17
1.24402e-17
1.17809e-17
1.244e-17
-2.65291e-17
-2.30528e-17
3.6387e-18
1.08351e-17
-4.39532e-18
2.56669e-17
-1.29274e-17
-1.24236e-17
1.77157e-17
-4.95078e-18
-4.49673e-17
-3.94828e-17
-5.72147e-18
7.0192e-17
1.63949e-17
-2.19173e-17
1.76589e-17
3.64435e-17
-2.68732e-17
4.04099e-17
-2.20083e-17
-1.18562e-17
-2.31648e-17
4.1804e-17
3.6887e-17
-2.8076e-17
1.17154e-17
3.73439e-17
7.6139e-17
-3.28196e-17
-6.51877e-18
-2.06436e-17
-2.37128e-18
-1.91423e-17
-1.28547e-17
-2.30643e-19
1.72368e-17
-1.46978e-17
1.63975e-18
-2.4259e-17
1.33231e-17
-1.11131e-17
-1.55174e-17
-2.29721e-18
-2.64367e-18
3.28207e-18
1.15181e-17
2.23408e-17
2.47417e-17
1.67949e-17
2.93307e-17
-8.01722e-18
-5.80332e-17
-2.8026e-17
-3.25281e-18
-1.19745e-17
-1.05673e-18
-1.10325e-17
7.06807e-18
1.89789e-17
5.81268e-17
-1.60727e-17
2.06649e-17
1.15059e-17
-4.68242e-17
3.00633e-17
-3.31316e-17
2.79177e-17
-1.72151e-17
7.89792e-18
-3.52745e-17
-1.54173e-17
2.58222e-17
-1.82553e-17
6.53767e-18
-5.5243e-17
-2.07594e-17
1.50625e-17
4.46074e-17
2.79381e-17
6.38373e-17
-3.1052e-17
5.43635e-17
1.41018e-17
4.67411e-17
6.76138e-17
-5.74762e-17
-4.26981e-17
2.20249e-18
4.22629e-18
5.02219e-17
3.23272e-17
2.03279e-18
5.07051e-17
8.73404e-17
3.90881e-17
-2.35136e-17
-2.70406e-17
-5.64521e-17
-7.13776e-18
-4.5513e-17
-2.05339e-17
-3.15623e-17
2.05998e-17
3.07941e-17
5.88094e-18
1.39439e-17
-1.6671e-18
5.7152e-17
2.60923e-18
4.85904e-17
-1.07238e-17
-5.57355e-17
2.05208e-17
-6.90412e-18
3.46811e-17
5.31119e-17
1.49266e-17
4.18464e-17
6.81005e-20
-1.17091e-17
-2.11955e-17
3.32554e-17
-6.81294e-17
6.77066e-18
5.9507e-10
-8.13352e-11
-2.51986e-13
-1.1626e-12
4.61182e-12
-5.07874e-13
-1.32632e-15
-9.83558e-15
2.50784e-14
-2.21842e-15
-4.89558e-17
-2.47636e-17
1.15617e-16
2.30529e-17
-1.58454e-17
-4.53716e-17
-4.33144e-17
-3.11643e-17
-3.97297e-17
2.56617e-17
8.37684e-17
-1.11943e-17
2.73289e-17
-5.6826e-17
-2.93614e-17
7.0975e-17
2.55601e-17
-5.36685e-18
-2.89074e-17
-5.64938e-17
-9.29705e-17