/*--------------------------------*- C++ -*----------------------------------*\
| =========                 |                                                 |
| \\      /  F ield         | OpenFOAM: The Open Source CFD Toolbox           |
|  \\    /   O peration     | Version:  2212                                  |
|   \\  /    A nd           | Website:  www.openfoam.com                      |
|    \\/     M anipulation  |                                                 |
\*---------------------------------------------------------------------------*/
FoamFile
{
    version     2.0;
    format      ascii;
    arch        "LSB;label=32;scalar=64";
    class       volVectorField;
    location    "0.000138";
    object      U;
}
// * * * * * * * * * * * * * * * * * * * * * * * * * * * * * * * * * * * * * //

dimensions      [0 1 -1 0 0 0 0];

internalField   nonuniform List<vector> 
34861
(
(-6.46345e-12 -0.00757502 1.36653)
(-2.81928e-12 -0.0137276 1.67662)
(2.27995e-12 -0.00656728 1.79991)
(1.52998e-12 -0.00469612 1.89891)
(5.01796e-12 -0.0032564 1.97477)
(-3.45382e-12 -0.00243942 2.02614)
(1.92553e-12 -0.00225708 2.05988)
(8.10768e-12 -0.00236215 2.08506)
(1.05553e-12 -0.00195242 2.10383)
(-8.30872e-12 -0.00117271 2.11865)
(1.92334e-13 -0.000802574 2.13187)
(8.12063e-13 -0.000757463 2.14492)
(1.34142e-12 -0.000463465 2.15641)
(1.68961e-12 -0.000446755 2.16889)
(-8.77794e-12 -0.000249377 2.18063)
(-3.83084e-12 0.00107951 2.19042)
(5.63912e-13 0.000790768 2.1983)
(1.40027e-12 0.000803877 2.20675)
(-4.7982e-12 -5.85429e-05 2.21853)
(-2.80165e-12 -0.000486773 2.2316)
(8.74295e-12 -0.000448331 2.24718)
(6.8588e-12 -0.000336697 2.26182)
(6.33937e-12 -0.000480311 2.28046)
(-8.08455e-13 -0.000300895 2.29964)
(4.76383e-12 0.00160608 2.31935)
(7.73015e-13 0.00149759 2.33796)
(8.14055e-12 0.00127631 2.35772)
(1.11912e-13 -0.000276897 2.38146)
(4.16337e-12 -0.00134205 2.40591)
(-7.84536e-12 -0.00176505 2.43313)
(-5.38922e-12 -0.00150253 2.46048)
(-1.39573e-12 -0.00105166 2.49006)
(-3.72503e-12 -0.0010835 2.52067)
(1.5579e-12 -0.00133381 2.55348)
(2.56777e-12 -0.00144684 2.5879)
(3.04272e-12 -0.00186217 2.62629)
(-2.26428e-12 -0.0021739 2.66294)
(-9.26423e-13 -9.68002e-05 2.69894)
(-3.24934e-12 -4.2964e-05 2.72972)
(4.83078e-13 0.000209488 2.75876)
(-2.14109e-13 -0.000789888 2.79242)
(-6.77636e-13 -0.00223201 2.82685)
(-5.7322e-12 -0.00302358 2.86764)
(4.4799e-12 -0.0032672 2.91168)
(-4.18554e-12 -0.00306803 2.96316)
(8.77007e-13 -0.00260539 3.02499)
(1.95063e-14 -0.00228248 3.10244)
(-4.80683e-12 -0.00215028 3.19932)
(-2.94104e-12 -0.00203806 3.32592)
(3.39235e-12 -0.00239169 3.4802)
(4.03233e-12 0.000185669 3.662)
(1.15424e-12 -0.000544912 3.8663)
(2.29059e-12 9.63198e-05 4.10375)
(7.51267e-12 0.00120526 4.38011)
(-6.13312e-13 0.000525915 4.67667)
(3.67076e-12 0.000985921 4.9837)
(-5.51727e-12 0.00206271 5.29775)
(1.23702e-12 0.00290342 5.61748)
(2.64467e-12 0.00212055 5.93667)
(3.31981e-14 0.00204659 6.24166)
(-3.12983e-12 0.00598845 6.53262)
(-7.72444e-12 0.00343803 6.80289)
(-1.36021e-12 0.0058082 7.04974)
(2.38837e-13 0.00252306 7.27615)
(-6.32347e-12 0.00107616 7.49168)
(-4.20704e-12 0.00300193 7.70739)
(6.38702e-13 0.00623722 7.87851)
(3.59782e-12 0.00643232 8.0322)
(2.87657e-12 0.00286835 8.21035)
(-2.60276e-12 0.000489996 8.40113)
(-1.37531e-12 0.00313694 8.57554)
(-3.28033e-12 0.014233 8.72256)
(2.17642e-12 0.0180392 8.85151)
(-2.25179e-12 0.0175115 8.97179)
(-4.43833e-12 0.0162331 9.08084)
(-1.89032e-12 0.00962025 9.17184)
(-4.59133e-12 -0.00585774 9.3686)
(8.05831e-14 -0.0289448 9.95391)
(-1.60178e-12 -0.379509 1.636)
(1.4956e-12 -0.0963311 1.29667)
(7.79956e-11 -72.3993 226.502)
(1.44275e-11 -51.9797 164.61)
(6.41883e-11 -43.9263 139.582)
(5.05905e-11 -35.6896 112.475)
(-8.70275e-12 -29.7946 94.2223)
(-9.97442e-11 -25.3135 79.3039)
(-4.72358e-11 -21.5531 67.7225)
(-1.01151e-11 -18.5442 57.992)
(-2.77494e-11 -16.1149 50.3997)
(-5.34778e-12 -14.0688 43.7101)
(-3.4169e-12 -12.384 38.401)
(-1.80264e-11 -10.9084 33.6402)
(-1.34791e-11 -9.72306 29.8889)
(-2.38105e-12 -8.65711 26.4992)
(-1.40913e-11 -7.76329 23.7191)
(1.90033e-11 -6.95612 21.2413)
(1.12426e-12 -6.20284 18.954)
(-1.6581e-12 -5.58118 17.0169)
(7.92473e-12 -5.02378 15.2755)
(-1.58435e-12 -4.56051 13.8246)
(2.04195e-11 -4.11362 12.5667)
(-1.59017e-11 -3.78612 11.4523)
(7.19794e-12 -3.47171 10.4997)
(-5.16788e-12 -3.17852 9.65437)
(3.74913e-12 -2.92633 8.7866)
(1.68601e-12 -2.72935 8.21339)
(3.29979e-12 -2.51808 7.53134)
(-5.04287e-13 -2.34582 7.03578)
(3.42173e-12 -2.18229 6.52257)
(7.42512e-13 -2.03946 6.09074)
(3.91345e-12 -1.91165 5.69564)
(3.14443e-12 -1.79111 5.32983)
(7.80544e-13 -1.678 5.01168)
(1.35495e-13 -1.57606 4.69431)
(-2.24369e-12 -1.48842 4.42513)
(4.83557e-12 -1.40747 4.1756)
(1.82182e-12 -1.33413 3.95623)
(6.38137e-12 -1.26369 3.75022)
(-2.01413e-12 -1.19938 3.55815)
(-9.78314e-12 -1.14038 3.37869)
(1.45249e-12 -1.08561 3.21817)
(-3.018e-12 -1.03499 3.06226)
(-2.89948e-12 -0.990492 2.92781)
(-5.31781e-12 -0.947763 2.80188)
(-3.74687e-13 -0.907129 2.68373)
(2.29669e-13 -0.868767 2.57013)
(-1.73819e-12 -0.833413 2.45893)
(-4.55631e-12 -0.803685 2.35283)
(-7.04138e-12 -0.777672 2.27407)
(-6.9393e-12 -0.695447 2.10361)
(1.45162e-10 14.6846 278.538)
(2.37432e-10 36.9471 244.19)
(6.93407e-11 61.0811 347.356)
(1.04253e-10 58.4246 366.607)
(9.68999e-11 55.374 367.833)
(5.69735e-11 55.5603 361.538)
(7.4251e-11 54.4579 346.084)
(5.54641e-11 51.8633 325.913)
(3.64747e-11 46.7198 299.527)
(2.07024e-11 40.6352 261.083)
(-6.11656e-12 36.0323 222.697)
(-3.01604e-11 30.3936 190.134)
(1.90983e-11 28.2563 168.509)
(-1.28812e-11 24.6192 149.334)
(-1.43589e-11 23.7562 139.038)
(-2.09585e-11 20.1204 120.512)
(-1.43975e-11 19.4567 114.057)
(-7.04862e-11 15.4711 95.1315)
(-3.82642e-12 13.5936 76.3315)
(-9.34377e-12 7.81744 48.6057)
(-2.30915e-12 -0.484974 6.80065)
(-1.36399e-12 0.410673 5.95127)
(1.706e-12 1.33543 7.64766)
(-3.50385e-12 1.55675 8.49491)
(1.20492e-13 1.60732 8.00945)
(2.61415e-13 1.04123 7.20824)
(5.81098e-14 1.06889 7.37336)
(1.14638e-13 1.25512 8.60897)
(-1.33107e-12 1.72272 10.4701)
(1.05627e-13 2.19882 11.7025)
(-6.50058e-13 1.06058 7.37634)
(-5.86132e-13 0.247686 2.62606)
(-6.74689e-13 0.0955097 1.30906)
(-3.71282e-13 -0.340178 -0.453614)
(-4.29899e-13 -0.473684 -1.51467)
(-5.39136e-13 -0.297137 -0.314517)
(-4.64065e-13 -0.0475242 0.841574)
(-5.79538e-13 -0.137153 0.635698)
(-2.1383e-13 -0.0879898 1.19005)
(-8.35731e-13 0.200158 2.85822)
(-8.73198e-13 0.590044 5.01322)
(-8.08218e-13 0.793293 6.33424)
(-7.7697e-13 0.841709 6.64544)
(-6.06502e-13 0.725521 5.34033)
(-5.51069e-13 0.458451 3.88385)
(-4.27469e-13 0.395591 3.39887)
(-7.27994e-13 0.406814 3.40922)
(-5.34764e-13 0.455456 3.70666)
(-1.06285e-12 0.520502 4.03155)
(-5.71882e-13 0.545438 4.48346)
(-8.08847e-13 0.625175 4.81373)
(-5.26221e-13 0.635646 4.9234)
(-1.07688e-12 0.636488 4.98368)
(-3.65425e-13 0.677137 5.23928)
(-8.36059e-13 0.782025 5.14773)
(-2.94703e-13 0.591627 4.49982)
(-1.39225e-12 0.458986 3.76462)
(8.70877e-13 0.359342 3.26186)
(-2.55738e-12 0.302284 2.95407)
(1.06052e-12 0.251874 2.74932)
(-3.00741e-12 0.277917 2.85126)
(2.55833e-12 0.387249 3.42894)
(-2.96495e-12 0.493326 4.04269)
(1.15189e-12 0.556298 4.34729)
(-6.457e-13 0.532361 4.27612)
(3.9749e-12 0.416525 3.85265)
(1.24581e-13 0.266921 2.86322)
(1.08867e-13 0.136384 2.11141)
(-1.47091e-12 0.202397 2.53816)
(9.66034e-13 0.331382 3.56086)
(-3.04431e-12 0.524456 4.63773)
(1.98002e-12 0.716016 5.5935)
(-2.75441e-12 0.85555 6.29636)
(1.86075e-12 0.932737 6.67368)
(-3.42976e-12 0.904687 6.54393)
(2.65381e-13 0.834144 6.18296)
(-2.39942e-14 0.76611 5.8342)
(-1.18644e-12 0.690831 5.67627)
(7.8875e-13 0.660931 5.9416)
(-2.71974e-12 0.703336 6.73501)
(2.64971e-12 0.895593 7.93029)
(-4.88764e-12 1.13681 9.10401)
(5.42605e-12 1.29014 9.92231)
(-8.29391e-12 1.4229 10.7119)
(1.03157e-11 1.59589 11.6445)
(-5.24643e-12 1.74161 12.6547)
(5.74657e-12 1.97877 14.1741)
(-5.97808e-14 2.35316 16.0641)
(-5.07448e-12 2.75389 17.9807)
(7.43242e-12 3.15399 19.6935)
(-2.96349e-12 3.41663 20.7563)
(-6.09416e-13 3.51181 21.2803)
(-1.96576e-12 3.59786 21.7641)
(1.35161e-12 3.66543 22.1501)
(-3.903e-12 3.75089 22.6248)
(3.02457e-12 3.81044 22.9801)
(-1.0778e-12 3.90927 23.3885)
(-4.93133e-13 4.07247 23.8725)
(-1.41288e-12 4.21364 24.2526)
(1.6519e-12 4.22212 24.5869)
(-4.55395e-12 4.24761 24.7618)
(7.9358e-12 4.27106 24.5717)
(-3.9027e-12 4.2036 24.0933)
(3.23667e-12 4.11967 23.6092)
(2.31431e-12 4.02634 23.1219)
(2.38872e-12 3.9478 22.7531)
(-1.43198e-12 3.88196 22.5005)
(-2.74744e-12 3.83633 22.4022)
(9.36895e-13 3.83154 22.4136)
(-8.53523e-13 3.84592 22.481)
(5.89335e-12 3.8751 22.5943)
(-3.85447e-12 3.89354 22.8383)
(2.62072e-13 4.0171 23.6354)
(-1.9036e-12 4.18011 24.5076)
(-1.36734e-12 4.54708 26.387)
(5.9215e-12 4.85789 28.1269)
(9.46082e-13 5.6491 31.8281)
(-7.74616e-12 6.57753 37.759)
(1.05173e-11 10.264 45.696)
(-8.97182e-12 16.8261 107.589)
(2.07736e-10 35.6475 303.459)
(2.488e-10 69.9158 338.233)
(1.0663e-10 72.1743 406.735)
(1.42299e-10 70.4495 428.935)
(1.2246e-10 69.5582 449.293)
(2.02032e-10 70.992 461.265)
(1.57228e-10 72.31 468.419)
(1.36542e-10 71.9325 469.044)
(1.98183e-10 71.4465 464.84)
(1.45168e-10 70.3886 456.442)
(1.08116e-10 68.8009 444.001)
(2.2378e-11 67.5427 423.871)
(7.5954e-11 65.4763 406.717)
(-1.51418e-11 61.0869 377.66)
(-2.92432e-11 59.5981 362.098)
(-5.22154e-11 53.3465 328.572)
(-5.52527e-11 51.6786 313.249)
(-6.6124e-11 43.417 279.097)
(-3.80085e-11 38.5971 244.038)
(-3.91643e-11 30.6144 196.679)
(-1.05021e-11 -0.803316 52.1122)
(-4.00844e-12 1.55487 22.0169)
(-1.17895e-13 2.33597 19.6204)
(3.98121e-12 4.23169 19.4892)
(-6.58056e-13 4.38639 18.9649)
(4.02565e-13 2.26369 18.5437)
(-1.5128e-14 1.92531 19.1324)
(5.31612e-13 2.77187 20.9004)
(-3.44256e-12 3.99769 22.7451)
(1.43851e-13 4.3036 22.2035)
(-2.04504e-12 1.5781 13.1199)
(-1.81333e-12 -0.0028298 4.73953)
(-2.13364e-12 -0.125352 1.89793)
(-1.11104e-12 -0.786956 0.161121)
(-1.19469e-12 -0.747387 -0.0572653)
(-1.66992e-12 -0.34974 2.60915)
(-1.31682e-12 0.0448824 4.45626)
(-2.02747e-12 -0.179048 4.07007)
(-6.74677e-13 0.0570625 5.17669)
(-2.61903e-12 0.891335 8.70247)
(-2.75398e-12 1.80449 13.5556)
(-2.26633e-12 2.03283 16.1248)
(-2.13078e-12 1.90835 16.3168)
(-1.8325e-12 1.64122 13.5468)
(-1.85549e-12 1.19609 10.9075)
(-1.52473e-12 1.20519 10.3132)
(-2.29451e-12 1.30691 10.5748)
(-1.54326e-12 1.48773 11.5204)
(-3.06461e-12 1.67326 12.4938)
(-1.62536e-12 1.7204 13.6202)
(-2.57026e-12 1.84467 14.1705)
(-1.68287e-12 1.82579 14.2732)
(-3.04351e-12 1.8009 14.1886)
(-1.10056e-12 1.80768 14.2131)
(-2.57955e-12 1.94365 13.5652)
(-7.96851e-13 1.53852 12.2405)
(-4.71197e-12 1.32128 11.1089)
(3.37873e-12 1.15231 10.4112)
(-7.99371e-12 1.03205 9.86702)
(2.74528e-12 0.968825 9.41277)
(-9.21666e-12 1.17421 9.90065)
(9.29775e-12 1.5718 11.8563)
(-1.14204e-11 1.87741 13.834)
(5.96551e-12 2.05298 15.1225)
(-8.59172e-13 2.00104 15.6633)
(8.9588e-12 1.70534 15.2263)
(-1.31696e-12 1.40782 13.4291)
(1.65732e-12 1.37999 12.5552)
(-4.25347e-12 1.68296 13.6606)
(4.44548e-12 2.06473 16.2698)
(-1.02319e-11 2.53378 18.8616)
(8.15325e-12 3.00727 21.2298)
(-1.32644e-11 3.35664 23.1425)
(8.70422e-12 3.56243 24.4918)
(-1.14817e-11 3.5424 24.896)
(1.58541e-12 3.4585 24.8416)
(5.26964e-13 3.44152 24.8381)
(-4.14037e-12 3.44053 25.2596)
(3.89686e-12 3.56516 26.7981)
(-9.95467e-12 3.83073 29.5476)
(1.01678e-11 4.33075 32.7765)
(-1.72168e-11 4.9379 35.7597)
(1.88316e-11 5.37271 38.1348)
(-2.66068e-11 5.76926 40.3924)
(2.62341e-11 6.27376 42.8201)
(-1.21395e-11 6.65088 45.3954)
(1.08327e-11 7.15543 48.6158)
(2.9787e-12 7.91782 52.1568)
(-1.49453e-11 8.70224 55.5735)
(1.73329e-11 9.47808 58.4869)
(-6.12238e-12 9.99292 60.2663)
(-9.51994e-13 10.1567 61.1446)
(-6.34031e-12 10.3115 62.0474)
(4.58768e-12 10.4011 62.6848)
(-1.28371e-11 10.5981 63.5552)
(1.62625e-11 10.7122 64.2149)
(-1.55859e-12 10.9144 64.9182)
(-1.55342e-12 11.1896 65.5051)
(-4.2791e-12 11.4259 65.8329)
(4.24149e-12 11.3375 66.0384)
(-1.35333e-11 11.2962 66.0241)
(2.12703e-11 11.3554 65.488)
(-7.51655e-12 11.2249 64.484)
(5.91172e-12 11.074 63.561)
(5.44424e-12 10.9001 62.6578)
(6.22154e-12 10.7508 62.0084)
(-1.87442e-12 10.618 61.5462)
(-6.80002e-12 10.508 61.3563)
(7.27577e-13 10.4901 61.3631)
(-7.84062e-12 10.5275 61.4577)
(1.4541e-11 10.6109 61.6975)
(-9.55783e-12 10.676 62.227)
(3.24803e-12 10.9056 63.7137)
(-8.13033e-12 11.2753 65.2628)
(2.01673e-12 11.9775 68.5994)
(-1.05181e-12 12.666 71.5368)
(1.04561e-11 14.1779 77.8474)
(-1.39378e-11 15.8363 86.0717)
(3.02613e-11 21.9459 99.1938)
(-1.33814e-11 38.3889 152.119)
(8.62051e-12 -81.2625 254.148)
(1.06507e-10 -56.0809 170.561)
(2.23456e-10 -44.1874 139.439)
(3.90826e-10 -36.9822 115.739)
(4.27902e-10 -31.4218 99.2346)
(-8.11396e-10 -26.7024 83.6848)
(-2.17458e-10 -23.777 74.8935)
(1.64912e-10 -20.5349 63.7527)
(-1.78924e-10 -18.649 58.3341)
(3.75874e-11 -16.336 50.3112)
(2.29365e-11 -14.976 46.4613)
(-9.47767e-11 -13.2008 40.5502)
(-2.10514e-11 -12.2378 37.7331)
(8.7176e-11 -10.8141 33.2682)
(-9.92907e-11 -10.11 31.0891)
(-2.09735e-11 -8.98929 27.68)
(9.02926e-11 -8.44935 26.0142)
(-6.81139e-11 -7.60003 23.3845)
(4.49956e-11 -7.18249 22.0355)
(-5.70023e-11 -6.49283 19.8903)
(6.3145e-11 -6.19142 18.7605)
(-5.87155e-11 -5.78146 17.5688)
(4.07659e-11 -5.36233 16.2456)
(-1.89977e-11 -5.05437 15.3418)
(1.25908e-11 -4.74044 14.3049)
(-2.4483e-12 -4.47078 13.5186)
(8.70296e-12 -4.17766 12.6167)
(-3.53596e-12 -3.95362 11.921)
(1.27096e-11 -3.72375 11.2281)
(1.91057e-12 -3.52224 10.6093)
(2.37473e-11 -3.32585 10.02)
(7.12944e-12 -3.14741 9.46118)
(-9.59329e-13 -2.98713 8.97709)
(1.35313e-11 -2.84557 8.53556)
(1.105e-11 -2.70799 8.12416)
(-2.50167e-12 -2.5833 7.7355)
(-1.4441e-12 -2.4633 7.3716)
(3.51457e-13 -2.34922 7.0267)
(1.54653e-12 -2.24363 6.70655)
(-1.1283e-11 -2.14629 6.4081)
(-2.78084e-12 -2.05136 6.12963)
(-4.16423e-12 -1.96651 5.8663)
(-3.31023e-12 -1.88554 5.62075)
(2.7873e-12 -1.80647 5.3833)
(-3.62835e-12 -1.73186 5.15644)
(4.27181e-12 -1.65683 4.93538)
(1.78435e-12 -1.57515 4.70304)
(-4.40688e-12 -1.48591 4.44162)
(-2.86546e-12 -1.37625 4.15634)
(-1.43743e-11 -1.1688 3.79785)
(-1.06869e-11 -0.681683 3.36824)
(-2.03894e-12 -0.215928 3.30031)
(-1.31467e-12 -0.0725794 3.43355)
(4.66126e-12 -0.0666654 3.82733)
(5.87176e-12 -0.0268952 4.00465)
(2.83189e-12 -0.0177234 4.14102)
(2.30325e-13 -0.0105721 4.24592)
(8.09693e-12 -0.00639982 4.31745)
(-4.22517e-13 -0.00364828 4.36223)
(6.45238e-12 -0.00213136 4.39222)
(-7.972e-12 -0.00158739 4.41236)
(-9.60667e-12 -0.00174363 4.42688)
(-1.6134e-12 -0.00195049 4.43878)
(1.35024e-12 -0.00185518 4.44941)
(1.91786e-12 -0.00214305 4.45922)
(-6.11944e-12 -0.00233377 4.46999)
(-8.58867e-12 -0.00242247 4.47835)
(6.92885e-13 -0.00344994 4.483)
(-2.1843e-12 -0.00289007 4.48553)
(-8.70172e-12 -0.003221 4.48921)
(5.00735e-12 -0.00240546 4.49631)
(2.57896e-12 -0.00224902 4.50491)
(8.29797e-12 -0.00223769 4.51545)
(5.10256e-12 -0.00250892 4.52681)
(5.53157e-12 -0.00276223 4.54097)
(-3.88064e-12 -0.00272729 4.554)
(-1.49633e-13 -0.00431664 4.56609)
(1.09948e-12 -0.00398207 4.57753)
(1.01387e-11 -0.00425246 4.59119)
(-2.03937e-13 -0.00284957 4.60815)
(9.00649e-13 -0.00204537 4.62564)
(-3.7757e-12 -0.00147874 4.64448)
(-1.8584e-12 -0.00199219 4.66367)
(-2.0672e-12 -0.00261709 4.68465)
(4.19365e-12 -0.00274206 4.70661)
(4.18199e-12 -0.00260694 4.72993)
(8.04474e-12 -0.00264717 4.75559)
(9.78052e-12 -0.00243856 4.7837)
(-6.11403e-12 -0.00194396 4.80958)
(-4.01908e-12 -0.00413965 4.83281)
(-1.04691e-11 -0.00353999 4.85006)
(1.33031e-12 -0.00435662 4.86682)
(-8.64053e-14 -0.00333807 4.8879)
(3.98732e-13 -0.00206427 4.90989)
(-6.6509e-12 -0.00097653 4.93703)
(-3.2991e-12 -0.000624572 4.96732)
(-1.2145e-11 -0.000736176 5.00469)
(3.70824e-12 -0.00115628 5.05296)
(4.40057e-12 -0.00150618 5.11707)
(2.4245e-12 -0.00156915 5.20194)
(3.52534e-12 -0.00191985 5.31823)
(7.55713e-12 -0.00107165 5.46409)
(-8.70869e-13 -0.00364143 5.63895)
(4.63412e-12 -0.00172337 5.83817)
(4.80346e-12 -0.00204191 6.07407)
(9.30234e-12 -0.00138811 6.35232)
(-3.62613e-12 -0.000913721 6.65435)
(2.72322e-13 -0.000416615 6.96929)
(-3.16045e-12 -0.00119322 7.29529)
(3.31991e-12 -0.0018682 7.63501)
(9.83321e-12 -0.00172891 7.9799)
(1.09321e-12 4.63605e-06 8.31479)
(-6.74454e-12 -0.00361945 8.6344)
(-1.37203e-11 0.000241535 8.93224)
(-4.04258e-12 -0.00149733 9.21056)
(8.32927e-12 0.00306224 9.47542)
(-9.00536e-12 0.00435918 9.7258)
(-1.70357e-11 0.00533077 9.97917)
(3.16085e-12 -0.00377835 10.1917)
(9.27859e-12 -0.00190231 10.3854)
(-3.66482e-12 0.000924878 10.5994)
(-9.56998e-12 0.0033764 10.8207)
(4.12735e-14 0.0013957 11.0243)
(-4.00261e-12 -0.0104576 11.1969)
(-4.05963e-12 -0.017584 11.343)
(-7.07762e-12 -0.0187293 11.4737)
(-1.35055e-11 -0.0196845 11.5948)
(-9.03457e-13 -0.0227613 11.6823)
(-1.6602e-12 -0.0288433 11.7607)
(5.3678e-13 -0.0550517 11.8297)
(-4.0997e-12 -0.127834 4.30551)
(8.02098e-12 -0.118553 4.57607)
(3.23383e-12 -0.0576469 4.72758)
(1.30433e-11 -0.0367839 4.8518)
(6.03249e-12 -0.0232396 4.94654)
(4.53396e-12 -0.0149718 5.01151)
(-9.42289e-12 -0.0100819 5.04994)
(-3.11707e-12 -0.00788928 5.07315)
(-7.87481e-12 -0.0057943 5.086)
(6.50641e-13 -0.00398164 5.09335)
(5.60322e-12 -0.00324264 5.09812)
(-4.77311e-12 -0.00293011 5.10098)
(-9.22965e-12 -0.00259851 5.1032)
(-6.19572e-12 -0.00267544 5.10607)
(2.38804e-13 -0.00194677 5.10612)
(3.57182e-12 4.27885e-05 5.10274)
(-1.15429e-12 -8.09333e-06 5.09671)
(-1.27142e-11 -0.000532971 5.09258)
(-1.07761e-12 -0.00163428 5.09173)
(7.28434e-12 -0.00250527 5.09198)
(1.00716e-11 -0.00259612 5.09437)
(7.7164e-13 -0.00265717 5.09775)
(-4.31834e-12 -0.00306676 5.10398)
(-7.60554e-12 -0.00227895 5.1076)
(-2.61009e-12 0.000282103 5.11118)
(9.08346e-12 0.000314568 5.1141)
(3.51534e-12 -0.000537449 5.12004)
(9.04487e-13 -0.00238819 5.12959)
(2.07477e-12 -0.00385557 5.13797)
(3.89849e-13 -0.00413521 5.14816)
(6.17638e-12 -0.00403053 5.15842)
(1.16888e-11 -0.0035892 5.17134)
(1.29861e-11 -0.00380953 5.18512)
(5.41328e-12 -0.00415706 5.2)
(7.49969e-12 -0.00435252 5.21676)
(5.29652e-13 -0.00482121 5.23706)
(6.46935e-12 -0.0045183 5.25263)
(-2.97017e-12 -0.0017909 5.2679)
(-1.21579e-11 -0.00106164 5.27566)
(2.68681e-12 -0.0012731 5.28351)
(-3.5752e-13 -0.00225443 5.29793)
(5.78021e-12 -0.00407157 5.31058)
(-1.31075e-11 -0.00451743 5.32921)
(-4.84708e-12 -0.00462647 5.35026)
(-1.67121e-11 -0.0042884 5.37883)
(8.23908e-12 -0.00358191 5.41819)
(1.32009e-11 -0.00329206 5.47371)
(1.06043e-11 -0.00321368 5.54948)
(6.4427e-12 -0.00364423 5.65776)
(6.40394e-12 -0.00378457 5.79339)
(1.01891e-11 -0.00114869 5.96056)
(8.96401e-12 -0.0013131 6.15016)
(3.96078e-12 -0.00072162 6.37447)
(5.98582e-12 0.000722844 6.64622)
(-1.27599e-11 -0.000542435 6.93948)
(-1.31795e-12 0.000651972 7.24904)
(-5.54927e-12 0.0012911 7.56858)
(1.8149e-12 0.00120962 7.89944)
(7.13509e-12 -0.00151077 8.23995)
(8.54055e-12 2.15047e-05 8.55918)
(-8.08993e-12 0.00536715 8.87681)
(-5.78142e-12 0.00351004 9.16969)
(-1.62883e-12 0.00601147 9.43537)
(5.10263e-12 0.00313409 9.69905)
(1.37216e-12 0.00112797 9.94095)
(-2.23451e-12 0.00344687 10.1863)
(1.38619e-11 0.00413262 10.3917)
(5.88785e-13 0.0061734 10.5818)
(-4.16617e-12 0.00239538 10.7902)
(-5.85675e-12 -2.19255e-05 11.0065)
(1.18151e-12 0.00390964 11.2)
(-1.97055e-12 0.0175931 11.37)
(6.99333e-12 0.0205915 11.5227)
(-2.18946e-12 0.0170896 11.6599)
(-4.68084e-12 0.015637 11.7856)
(1.40282e-12 0.0117266 11.8721)
(6.23873e-14 -0.00720273 11.933)
(1.93031e-12 -0.0315168 11.9482)
(-2.3903e-11 -0.812455 3.97467)
(-9.29064e-12 -0.322886 4.08571)
(9.97636e-11 -74.626 253.654)
(8.63122e-11 -52.4178 172.296)
(-1.53089e-11 -38.0794 142.987)
(-1.66713e-10 -34.1887 116.495)
(1.66749e-09 -28.2825 101.328)
(-3.30671e-10 -24.7275 84.6629)
(-6.80302e-10 -22.0241 76.3285)
(-3.9164e-10 -19.1558 64.9802)
(3.10632e-11 -17.5053 59.5215)
(7.15862e-11 -15.492 51.5128)
(-1.27358e-10 -14.3556 47.6377)
(1.05749e-11 -12.7403 41.7553)
(6.7101e-11 -11.947 38.9312)
(5.12505e-11 -10.5956 34.5161)
(-1.39194e-10 -10.0309 32.3393)
(-4.62662e-11 -8.97109 29.0094)
(1.68796e-10 -8.55509 27.3697)
(-7.1823e-11 -7.71391 24.8075)
(4.68948e-11 -7.39634 23.5161)
(8.13974e-12 -6.72391 21.4581)
(2.85152e-11 -6.54107 20.4043)
(-1.26569e-10 -5.93958 18.7247)
(1.19449e-10 -5.69898 17.8358)
(-8.23367e-11 -5.2286 16.4078)
(8.27303e-11 -5.07637 15.687)
(-6.12312e-11 -4.65811 14.5495)
(5.309e-11 -4.5118 13.943)
(-3.22752e-11 -4.19953 13.0161)
(3.93656e-11 -4.01107 12.3746)
(-2.27505e-11 -3.78991 11.6993)
(5.60649e-11 -3.60028 11.1019)
(5.66911e-12 -3.43798 10.5578)
(-1.40305e-11 -3.25199 9.99532)
(1.81486e-11 -3.11154 9.50596)
(1.07075e-11 -2.9766 9.09669)
(-3.97219e-13 -2.85207 8.6938)
(1.9575e-12 -2.72452 8.30776)
(-1.31493e-11 -2.5979 7.92273)
(6.58663e-12 -2.4842 7.56518)
(-1.15282e-11 -2.38337 7.24107)
(6.20022e-12 -2.27675 6.92981)
(-9.55075e-12 -2.18865 6.63847)
(5.94324e-12 -2.09972 6.37013)
(-3.49527e-12 -2.00816 6.09889)
(1.96093e-12 -1.91771 5.82905)
(-8.99471e-12 -1.82124 5.55772)
(1.77211e-11 -1.71472 5.27947)
(-1.07879e-11 -1.60506 4.98501)
(-1.27769e-13 -1.47593 4.66765)
(-2.52894e-11 -1.25703 4.28181)
(2.56563e-11 21.0324 317.642)
(1.65031e-10 61.5025 365.563)
(4.64994e-11 69.452 414.851)
(2.93912e-10 65.8465 440.731)
(5.2046e-11 63.1421 461.285)
(2.50963e-10 63.1497 478.989)
(1.26093e-10 64.1655 490.828)
(6.46306e-11 65.4481 500.447)
(1.01396e-10 67.3729 505.696)
(7.15106e-11 67.8979 509.621)
(9.07104e-12 69.4152 509.55)
(-3.57778e-11 71.5862 507.251)
(-1.52164e-11 73.2385 503.078)
(-9.57812e-11 72.3945 493.089)
(-2.68406e-11 73.0069 484.882)
(-8.0295e-11 70.6647 465.57)
(-9.28553e-11 70.5543 452.384)
(-1.00944e-10 62.476 426.494)
(-9.40949e-11 56.3766 386.998)
(-8.75267e-11 52.6435 347.413)
(-3.70368e-11 2.97084 164.539)
(-9.76509e-12 2.81312 62.4689)
(-1.09376e-11 3.93119 36.1738)
(1.57327e-12 5.60212 29.5055)
(-5.94533e-12 5.87285 27.4907)
(-7.59595e-13 3.61907 26.831)
(-6.84043e-13 3.54687 27.1905)
(1.20259e-12 4.07398 28.6959)
(-4.57023e-12 5.02348 29.7222)
(5.08656e-13 4.21474 27.667)
(-2.83985e-12 0.637302 15.8722)
(-2.72681e-12 -0.662682 6.28222)
(-3.51802e-12 -0.31232 3.25649)
(-2.19555e-12 -0.800366 2.29352)
(-1.37156e-12 -0.440638 2.91453)
(-3.02512e-12 -0.0170177 6.26273)
(-1.74993e-12 0.313416 8.48111)
(-4.30145e-12 0.0183077 8.3898)
(-4.53682e-13 0.507731 9.81789)
(-4.39886e-12 1.82177 14.2552)
(-5.15626e-12 3.01099 20.8273)
(-4.00768e-12 2.94701 24.241)
(-3.66315e-12 2.49681 24.493)
(-3.06563e-12 2.22476 21.3635)
(-3.44595e-12 1.89592 18.207)
(-2.80254e-12 2.08713 17.644)
(-4.38392e-12 2.3225 18.1401)
(-2.51956e-12 2.65222 19.6556)
(-5.14968e-12 2.90892 21.1577)
(-2.75644e-12 2.99868 22.8739)
(-4.90259e-12 3.08803 23.6848)
(-2.69558e-12 3.05628 24.0026)
(-4.80851e-12 3.05263 24.0496)
(-2.16514e-12 3.02214 24.0628)
(-4.40723e-12 3.10234 23.347)
(-1.12778e-12 2.72073 21.8943)
(-9.42821e-12 2.54917 20.7475)
(7.5898e-12 2.40573 20.2454)
(-1.48958e-11 2.32967 19.9633)
(3.88758e-12 2.37687 19.8496)
(-1.66799e-11 2.78077 20.6021)
(2.15194e-11 3.45507 23.4316)
(-2.76863e-11 3.93849 26.5679)
(2.2028e-11 4.18853 28.8548)
(-5.41753e-12 4.16234 30.2634)
(7.3959e-12 3.80343 30.5507)
(-4.00159e-12 3.58014 29.4215)
(5.14581e-12 3.80875 28.987)
(-7.91851e-12 4.34534 30.5377)
(1.15415e-11 4.9455 34.1491)
(-2.00548e-11 5.57061 37.6428)
(1.84015e-11 6.21912 40.9246)
(-2.6489e-11 6.70592 43.705)
(1.95083e-11 6.99175 45.8597)
(-2.31374e-11 7.02484 47.0628)
(1.34286e-11 7.02146 47.7844)
(5.36452e-12 7.15342 48.533)
(-9.54872e-12 7.29991 49.8011)
(1.08652e-11 7.57082 52.2313)
(-2.0123e-11 7.9362 55.8717)
(2.02072e-11 8.5406 60.0352)
(-3.1649e-11 9.30695 63.8964)
(3.25174e-11 9.89798 67.2343)
(-4.06665e-11 10.4454 70.3919)
(3.30775e-11 11.1594 73.6209)
(-1.05021e-12 11.6622 77.0414)
(-4.36675e-12 12.3086 81.1605)
(3.65623e-12 13.2857 85.5562)
(-1.33989e-11 14.2911 89.7852)
(5.7037e-12 15.2468 93.3027)
(-1.09233e-11 15.8796 95.4826)
(1.55336e-12 16.0349 96.4862)
(-8.39906e-12 16.1649 97.4777)
(4.42398e-12 16.2522 98.3063)
(-1.47588e-11 16.5282 99.3591)
(1.88765e-11 16.7191 100.158)
(-6.41846e-13 17.0352 101.07)
(-5.88733e-12 17.3015 101.709)
(-3.86176e-12 17.5192 101.987)
(4.31909e-12 17.398 102.081)
(-1.91906e-11 17.3252 102.005)
(3.01281e-11 17.412 101.313)
(-5.03367e-13 17.2603 100.047)
(-3.25595e-12 17.0777 98.8833)
(-2.4751e-12 16.8733 97.7574)
(-6.05789e-12 16.6863 96.934)
(-1.81996e-12 16.5234 96.3501)
(-8.11098e-12 16.3673 96.0779)
(-8.64258e-13 16.3423 96.0601)
(-7.3643e-12 16.3908 96.1338)
(9.00295e-12 16.5073 96.3432)
(-1.64906e-11 16.6041 96.8838)
(1.41108e-11 16.8529 98.4912)
(-2.35468e-11 17.3438 100.172)
(2.3797e-11 18.1929 103.762)
(-3.27769e-11 19.0035 106.844)
(3.26454e-11 21.0784 113.417)
(-3.3114e-11 22.2481 121.385)
(4.49292e-11 30.3321 133.37)
(-3.76799e-11 41.272 166.072)
(-4.5759e-11 9.6335 324.637)
(6.79144e-10 70.5663 374.204)
(1.94693e-10 72.6437 418.285)
(6.3709e-10 67.93 444.536)
(2.67653e-10 64.6252 465.032)
(5.35379e-10 64.1152 482.836)
(3.22461e-10 65.6964 495.755)
(2.68097e-10 67.5706 507.253)
(1.93882e-10 69.364 516.185)
(1.44774e-10 69.702 522.825)
(7.70684e-11 71.6278 528.763)
(4.29798e-11 72.4225 531.41)
(-2.74649e-11 74.5348 534.875)
(-2.68563e-11 75.4243 534.482)
(-3.02169e-11 76.7874 533.182)
(-9.71201e-11 76.7802 529.034)
(-1.20484e-10 76.5527 522.275)
(-1.3005e-10 71.4649 512.707)
(-1.35555e-10 65.9031 488.065)
(-1.33845e-10 63.277 453.647)
(-9.57363e-11 18.4182 346.983)
(-3.04514e-11 4.2203 154.144)
(-1.72398e-11 5.18913 74.7425)
(-1.0058e-11 7.3087 45.3874)
(-1.0132e-11 7.16711 35.9504)
(-1.99797e-12 3.90298 33.4444)
(-1.45155e-12 2.98604 33.2005)
(1.39674e-12 4.27615 33.8621)
(-5.43083e-12 5.75244 34.0446)
(7.47092e-13 3.83565 31.0406)
(-3.81031e-12 -0.528671 17.9939)
(-3.94108e-12 -1.11603 8.30594)
(-5.30423e-12 -0.247205 5.78741)
(-4.1579e-12 -0.71811 5.2847)
(-1.04376e-12 -0.200237 6.32472)
(-4.92772e-12 0.206111 10.0513)
(7.9632e-15 0.599145 12.6257)
(-7.86795e-12 0.254352 12.9203)
(1.53637e-12 0.908458 14.5841)
(-6.89668e-12 2.7345 19.4118)
(-8.56671e-12 4.14767 26.8483)
(-6.50928e-12 3.7794 31.3592)
(-5.35003e-12 2.97901 31.9431)
(-4.37456e-12 2.82708 29.2911)
(-4.83985e-12 2.69162 26.0872)
(-4.087e-12 3.07687 25.5836)
(-6.58679e-12 3.47358 26.2454)
(-3.52078e-12 3.96225 28.1774)
(-7.52796e-12 4.29555 30.086)
(-3.11365e-12 4.45649 32.3586)
(-8.08848e-12 4.48219 33.5858)
(-3.19752e-12 4.45834 34.3873)
(-7.15933e-12 4.52535 34.7906)
(-3.15962e-12 4.5113 35.0428)
(-7.49559e-12 4.54144 34.7408)
(-1.76297e-14 4.28267 33.5937)
(-1.53501e-11 4.18044 32.5902)
(1.39124e-11 4.10063 32.3497)
(-2.52251e-11 4.11719 32.5421)
(8.18366e-12 4.28499 32.9099)
(-2.86227e-11 4.90094 33.9291)
(3.84491e-11 5.80005 37.0615)
(-4.74746e-11 6.43666 40.9178)
(3.77519e-11 6.68429 44.019)
(-2.46445e-11 6.64956 46.2062)
(1.03853e-11 6.29546 47.4972)
(-8.86345e-12 6.13256 47.0541)
(1.5009e-11 6.54467 47.0873)
(-8.9223e-12 7.37852 49.0681)
(1.72751e-11 8.17297 53.3174)
(-2.59626e-11 8.88864 57.3891)
(2.47909e-11 9.62434 61.2399)
(-3.26411e-11 10.1809 64.6125)
(2.22906e-11 10.4976 67.2722)
(-2.54799e-11 10.5303 69.0503)
(1.35028e-11 10.5825 70.3561)
(4.60839e-12 10.8112 71.6021)
(-1.8628e-11 11.062 73.4012)
(1.56372e-11 11.4028 76.3656)
(-2.73933e-11 11.8012 80.5339)
(2.54582e-11 12.47 85.2557)
(-4.03521e-11 13.3169 89.6057)
(3.65553e-11 14.0013 93.5056)
(-4.3162e-11 14.6513 97.2829)
(3.08446e-11 15.464 101.005)
(5.72891e-13 16.0638 104.841)
(-1.10179e-11 16.8328 109.443)
(6.04753e-12 17.9546 114.31)
(-2.06731e-11 19.134 119.088)
(1.65932e-11 20.2008 122.984)
(-3.3155e-11 20.8936 125.416)
(2.83835e-11 21.0349 126.539)
(6.6018e-12 21.0562 127.447)
(-1.33573e-11 21.1954 128.532)
(1.0488e-11 21.5397 129.787)
(-2.78383e-11 21.8414 130.707)
(3.4787e-11 22.2251 131.738)
(6.35011e-12 22.4998 132.516)
(3.31594e-11 22.6371 132.864)
(-6.93428e-13 22.5315 132.982)
(6.01717e-12 22.5068 132.914)
(3.84507e-11 22.5787 132.165)
(1.36938e-13 22.4125 130.769)
(-1.36267e-12 22.204 129.478)
(-4.59061e-12 21.9882 128.242)
(-5.67818e-12 21.7845 127.32)
(-3.16919e-12 21.6043 126.676)
(-6.82855e-12 21.4121 126.354)
(-2.65663e-12 21.3877 126.29)
(-7.09144e-12 21.437 126.337)
(7.61553e-12 21.5708 126.489)
(-2.1091e-11 21.697 126.932)
(2.66057e-11 21.9231 128.397)
(-4.06019e-11 22.4992 129.976)
(4.66319e-11 23.3758 133.357)
(-5.7336e-11 24.3031 136.144)
(6.90557e-11 26.4223 142.295)
(-7.8821e-11 28.0582 148.657)
(1.04123e-10 35.7828 162.524)
(-9.91026e-11 46.9367 173.941)
(4.55406e-10 -74.7959 244.643)
(-1.78122e-10 -46.8631 174.819)
(4.56675e-10 -37.4837 144.657)
(-1.51495e-09 -33.2375 117.41)
(2.07867e-10 -27.9474 102.369)
(9.34478e-10 -24.0544 85.364)
(-6.22431e-10 -21.6504 76.8657)
(-1.43257e-09 -18.7612 65.4472)
(5.41138e-10 -17.2 59.8815)
(-1.59076e-10 -15.2712 51.815)
(-1.96674e-10 -14.1155 47.9343)
(2.4331e-10 -12.5225 42.0488)
(2.95759e-10 -11.7211 39.2199)
(-1.52597e-10 -10.4097 34.8035)
(-1.11669e-10 -9.86416 32.622)
(-1.44944e-10 -8.85121 29.2946)
(2.73616e-10 -8.46986 27.6533)
(-9.89726e-12 -7.64567 25.0915)
(-9.58277e-12 -7.35284 23.7916)
(9.89267e-11 -6.68003 21.7348)
(-1.09006e-10 -6.50125 20.6778)
(2.4847e-11 -5.90331 18.981)
(4.90758e-11 -5.67904 18.0923)
(-2.79465e-11 -5.18356 16.6458)
(6.58964e-11 -5.07496 15.9043)
(-6.2784e-11 -4.64333 14.7795)
(4.68576e-11 -4.53425 14.1747)
(-2.14594e-11 -4.17186 13.2345)
(1.39469e-11 -4.01973 12.5868)
(-1.13133e-11 -3.78741 11.9048)
(3.52853e-11 -3.6093 11.3022)
(1.96196e-11 -3.44592 10.765)
(-1.71126e-11 -3.24813 10.1901)
(3.08772e-11 -3.12551 9.68513)
(-2.11575e-12 -2.99603 9.2775)
(5.32384e-12 -2.87052 8.87533)
(5.25485e-12 -2.73813 8.48753)
(-4.31318e-12 -2.60773 8.09422)
(1.85767e-11 -2.49723 7.72715)
(-1.15835e-11 -2.39918 7.39899)
(8.81563e-12 -2.28947 7.0815)
(3.37407e-12 -2.20412 6.78419)
(2.69953e-12 -2.1132 6.51301)
(1.37317e-11 -2.01633 6.23593)
(-5.32402e-13 -1.92085 5.95755)
(3.40439e-12 -1.8189 5.67649)
(7.17714e-12 -1.70625 5.39072)
(-9.43289e-12 -1.59051 5.09561)
(4.39287e-12 -1.4483 4.78783)
(-1.53437e-11 -1.21926 4.43122)
(-1.4602e-11 -0.811417 4.18581)
(-1.42745e-11 -0.362638 4.29938)