/*--------------------------------*- C++ -*----------------------------------*\
| =========                 |                                                 |
| \\      /  F ield         | OpenFOAM: The Open Source CFD Toolbox           |
|  \\    /   O peration     | Version:  2212                                  |
|   \\  /    A nd           | Website:  www.openfoam.com                      |
|    \\/     M anipulation  |                                                 |
\*---------------------------------------------------------------------------*/
FoamFile
{
    version     2.0;
    format      ascii;
    arch        "LSB;label=32;scalar=64";
    class       surfaceScalarField;
    location    "0.000426";
    object      phi;
}
// * * * * * * * * * * * * * * * * * * * * * * * * * * * * * * * * * * * * * //

dimensions      [1 0 -1 0 0 0 0];

oriented        oriented;

internalField   nonuniform List<scalar> 
45816
(
1.10494e-08
-1.07613e-08
4.59939e-10
1.1569e-08
3.97904e-10
1.2096e-08
5.83554e-10
1.26335e-08
7.9231e-10
1.34759e-08
7.81222e-10
1.43855e-08
8.61681e-10
1.54595e-08
8.24548e-10
1.6663e-08
8.09835e-10
1.77593e-08
8.06518e-10
1.87792e-08
6.4983e-10
1.95733e-08
6.77452e-10
2.02552e-08
6.31304e-10
2.07457e-08
6.11343e-10
2.10511e-08
5.54527e-10
2.11847e-08
5.17492e-10
2.11807e-08
4.64237e-10
2.0996e-08
4.60337e-10
2.0684e-08
4.25756e-10
2.02691e-08
3.88058e-10
1.97497e-08
3.28539e-10
1.91546e-08
3.13866e-10
1.85489e-08
2.7514e-10
1.79435e-08
2.45363e-10
1.73433e-08
2.19189e-10
1.67897e-08
2.10629e-10
1.63332e-08
1.59862e-10
1.59682e-08
1.23801e-10
1.56614e-08
1.17701e-10
1.54127e-08
1.26321e-10
1.52214e-08
1.3107e-10
1.50754e-08
1.23746e-10
1.49432e-08
1.28948e-10
1.48083e-08
1.24164e-10
1.46879e-08
9.1888e-11
1.45879e-08
3.91845e-11
1.4476e-08
5.3761e-11
1.43682e-08
4.38856e-11
1.42599e-08
5.10853e-11
1.41743e-08
5.76234e-11
1.41426e-08
4.65006e-11
1.41417e-08
5.02848e-11
1.41768e-08
6.19163e-11
1.42591e-08
5.8885e-11
1.43941e-08
5.8381e-11
1.45873e-08
5.97772e-11
1.4847e-08
5.10566e-11
1.51744e-08
5.31346e-11
1.55639e-08
6.73654e-11
1.60073e-08
8.58698e-11
1.64735e-08
1.06288e-10
1.70047e-08
7.27869e-11
1.74918e-08
1.15021e-10
1.79372e-08
1.12066e-10
1.83542e-08
9.50538e-11
1.87825e-08
4.6996e-11
1.91104e-08
9.92714e-11
1.92826e-08
2.03316e-10
1.89793e-08
6.01754e-10
1.83137e-08
8.9377e-10
1.61903e-08
2.28157e-09
1.18233e-08
4.45787e-09
3.40061e-09
9.59556e-09
-6.61126e-09
-2.1933e-09
-3.60512e-10
-1.36183e-07
1.55432e-07
-1.92552e-08
-2.42199e-07
1.06206e-07
-2.21052e-07
-2.07763e-08
-2.13095e-07
-7.44284e-09
-2.00118e-07
-1.27061e-08
-1.84274e-07
-1.56245e-08
-1.68289e-07
-1.55846e-08
-1.54144e-07
-1.36684e-08
-1.42509e-07
-1.11519e-08
-1.30252e-07
-1.16961e-08
-1.21016e-07
-8.7089e-09
-1.11173e-07
-9.451e-09
-1.0388e-07
-6.91624e-09
-9.6131e-08
-7.41998e-09
-8.97151e-08
-5.98255e-09
-8.26084e-08
-6.55444e-09
-7.59478e-08
-6.08316e-09
-6.95368e-08
-5.81472e-09
-6.37362e-08
-5.14513e-09
-5.89716e-08
-4.11823e-09
-5.40299e-08
-4.29932e-09
-5.00556e-08
-3.35896e-09
-4.58513e-08
-3.56537e-09
-4.24356e-08
-2.75504e-09
-3.87144e-08
-3.06055e-09
-3.60224e-08
-2.04113e-09
-3.2824e-08
-2.53149e-09
-3.0254e-08
-1.87475e-09
-2.75937e-08
-1.94501e-09
-2.53529e-08
-1.51543e-09
-2.30606e-08
-1.54266e-09
-2.1111e-08
-1.17959e-09
-1.90781e-08
-1.23747e-09
-1.73346e-08
-9.4562e-10
-1.56059e-08
-9.38729e-10
-1.40994e-08
-7.24874e-10
-1.2636e-08
-6.87824e-10
-1.13262e-08
-5.2422e-10
-1.00703e-08
-4.53547e-10
-8.93775e-09
-3.16907e-10
-7.76624e-09
-3.45075e-10
-6.69394e-09
-2.37231e-10
-5.611e-09
-2.42203e-10
-4.60288e-09
-1.59234e-10
-3.55498e-09
-1.86687e-10
-2.45438e-09
-2.29868e-10
-1.1331e-09
-4.46625e-10
5.86356e-10
-8.49629e-10
3.07644e-09
-1.62847e-09
-2.68167e-09
5.45352e-08
1.0062e-07
6.60766e-08
-1.17422e-08
1.46597e-07
-8.06378e-08
1.29278e-07
1.74397e-08
1.07608e-07
2.18862e-08
8.96037e-08
1.81025e-08
7.28268e-08
1.68212e-08
5.84315e-08
1.44226e-08
4.57182e-08
1.2719e-08
3.53088e-08
1.04321e-08
2.79276e-08
7.33435e-09
2.26117e-08
5.38428e-09
1.86844e-08
3.87335e-09
1.5919e-08
2.86876e-09
1.37809e-08
2.1474e-09
1.1999e-08
1.73216e-09
1.0496e-08
1.58982e-09
9.42874e-09
1.11785e-09
8.30641e-09
1.05659e-09
7.37037e-09
1.01599e-09
6.66665e-09
5.3314e-10
5.87295e-09
7.9776e-10
5.42519e-09
4.46263e-10
4.81941e-09
5.76664e-10
4.4177e-09
4.68125e-10
4.04335e-09
4.41165e-10
3.66986e-09
4.34895e-10
3.41683e-09
2.45088e-10
3.03438e-09
1.85462e-10
2.83052e-09
2.54747e-10
2.60155e-09
4.28504e-10
2.44e-09
1.29821e-10
2.1877e-09
1.93488e-10
2.08479e-09
1.53292e-10
1.90603e-09
2.34527e-10
1.77336e-09
9.91935e-11
1.64537e-09
2.46712e-10
1.6195e-09
1.76956e-10
1.5552e-09
1.57924e-10
1.47193e-09
-8.64403e-11
1.32729e-09
-2.14007e-11
1.24792e-09
-3.65454e-11
1.14399e-09
1.4307e-10
1.1008e-09
1.54991e-10
1.01449e-09
1.66905e-10
9.59392e-10
1.00528e-10
8.78582e-10
7.25386e-11
8.19255e-10
-8.18494e-12
7.52831e-10
8.80251e-12
7.09463e-10
3.45917e-11
6.71344e-10
9.03077e-11
6.46122e-10
7.60854e-11
6.15221e-10
-1.07214e-11
5.8147e-10
-4.93593e-11
5.52131e-10
3.52266e-11
5.39205e-10
9.1533e-11
5.31536e-10
6.27663e-11
5.27055e-10
4.99517e-11
5.13131e-10
2.68448e-12
4.98812e-10
-4.62269e-11
4.76181e-10
-1.9115e-11
4.61261e-10
-1.83939e-11
4.41244e-10
1.39148e-11
4.35027e-10
4.5861e-11
4.25103e-10
6.47411e-11
4.17148e-10
2.29301e-11
3.9767e-10
-1.18024e-11
3.82389e-10
-2.15021e-11
3.6688e-10
1.21253e-11
3.5798e-10
3.14112e-11
3.49991e-10
3.35481e-11
3.36455e-10
3.03014e-11
3.23297e-10
2.40362e-11
3.10453e-10
2.46432e-11
2.99327e-10
2.46063e-11
2.91463e-10
2.27854e-11
2.84411e-10
5.57889e-12
2.76962e-10
-2.75854e-11
2.66659e-10
-4.75836e-11
2.55518e-10
-3.57164e-11
2.46286e-10
-1.38823e-11
2.37558e-10
5.50267e-12
2.30542e-10
1.23514e-11
2.21576e-10
1.15733e-11
2.13656e-10
5.823e-12
2.04744e-10
1.04649e-11
1.96801e-10
1.73552e-11
1.90547e-10
3.03791e-11
1.85145e-10
4.14922e-11
1.82253e-10
4.28196e-11
1.80294e-10
3.69613e-11
1.77062e-10
2.63943e-11
1.744e-10
4.31749e-12
1.68889e-10
-1.397e-11
1.62986e-10
-2.24949e-11
1.57016e-10
-1.41764e-11
1.52158e-10
7.00454e-13
1.48589e-10
1.10686e-11
1.45495e-10
1.18087e-11
1.42357e-10
3.70834e-12
1.38518e-10
-4.97653e-12
1.34393e-10
-1.35021e-11
1.29692e-10
-1.54284e-11
1.25688e-10
-1.49893e-11
1.21682e-10
-9.75105e-12
1.1845e-10
-5.6724e-12
1.15758e-10
-1.23677e-12
1.13018e-10
3.8e-12
1.10791e-10
7.28612e-12
1.0859e-10
1.06415e-11
1.06783e-10
1.22723e-11
1.05506e-10
1.32288e-11
1.04596e-10
1.28969e-11
1.0421e-10
1.0719e-11
1.04947e-10
7.20092e-12
1.07144e-10
3.7021e-12
1.12038e-10
-1.04818e-13
1.21476e-10
-3.26806e-12
1.42389e-10
-1.38688e-11
-3.7138e-10
5.20505e-10
1.08606e-07
-1.9149e-07
1.83143e-07
1.12225e-07
-1.5637e-08
2.06497e-07
-1.7511e-07
1.95106e-07
2.90368e-08
1.85308e-07
3.19697e-08
1.67443e-07
3.61437e-08
1.41371e-07
4.29754e-08
1.16358e-07
3.946e-08
9.78053e-08
3.12854e-08
8.13209e-08
2.69577e-08
6.71012e-08
2.15217e-08
5.68413e-08
1.57502e-08
4.88963e-08
1.17027e-08
4.27288e-08
9.1869e-09
3.76704e-08
7.207e-09
3.32243e-08
6.12248e-09
2.94649e-08
5.43783e-09
2.66136e-08
4.02923e-09
2.35832e-08
4.01323e-09
2.12386e-08
3.4535e-09
1.91174e-08
2.46036e-09
1.71777e-08
2.76099e-09
1.57451e-08
1.87715e-09
1.4157e-08
2.13711e-09
1.30514e-08
1.64164e-09
1.18938e-08
1.65973e-09
1.09617e-08
1.42754e-09
1.00581e-08
1.15106e-09
9.14638e-09
9.0678e-10
8.45912e-09
9.69571e-10
7.87319e-09
1.20861e-09
7.28524e-09
6.76658e-10
6.68862e-09
7.48296e-10
6.29162e-09
6.0533e-10
5.82677e-09
7.45522e-10
5.40541e-09
4.87457e-10
5.1017e-09
6.64834e-10
4.9689e-09
4.71914e-10
4.75238e-09
4.67566e-10
4.44245e-09
6.10564e-11
4.07736e-09
1.88799e-10
3.80576e-09
1.20508e-10
3.54069e-09
4.39098e-10
3.36496e-09
4.40519e-10
3.13184e-09
4.78579e-10
2.94037e-09
3.40455e-10
2.71473e-09
2.97406e-10
2.52518e-09
1.14852e-10
2.33929e-09
1.3292e-10
2.20583e-09
1.53886e-10
2.09656e-09
2.47065e-10
2.0117e-09
2.14977e-10
1.91568e-09
4.7679e-11
1.81632e-09
-3.20256e-11
1.73891e-09
1.10793e-10
1.6978e-09
2.08556e-10
1.67272e-09
1.45835e-10
1.65169e-09
1.19044e-10
1.61073e-09
3.1464e-11
1.56077e-09
-5.36938e-11
1.49847e-09
2.82556e-12
1.44694e-09
3.8723e-13
1.39233e-09
5.77669e-11
1.36838e-09
1.05545e-10
1.33957e-09
1.49489e-10
1.30877e-09
7.24987e-11
1.25248e-09
1.63387e-11
1.20505e-09
-9.45826e-12
1.15973e-09
5.10228e-11
1.13112e-09
8.05705e-11
1.10346e-09
8.66852e-11
1.06218e-09
8.89896e-11
1.02117e-09
7.62197e-11
9.81547e-10
7.63635e-11
9.47509e-10
7.22957e-11
9.221e-10
6.45794e-11
8.98706e-10
2.97093e-11
8.73584e-10
-3.51254e-11
8.40582e-10
-7.26688e-11
8.06943e-10
-5.12514e-11
7.77907e-10
-1.03334e-11
7.51556e-10
2.60012e-11
7.28422e-10
4.02981e-11
7.01123e-10
4.20646e-11
6.75652e-10
2.92245e-11
6.4831e-10
3.88809e-11
6.23957e-10
5.03224e-11
6.04516e-10
7.32083e-11
5.88157e-10
9.40893e-11
5.78901e-10
9.30959e-11
5.71528e-10
8.08255e-11
5.61551e-10
6.1632e-11
5.51428e-10
1.78276e-11
5.34085e-10
-1.51464e-11
5.15478e-10
-3.25721e-11
4.97258e-10
-1.72789e-11
4.82571e-10
9.15332e-12
4.71344e-10
2.90956e-11
4.61532e-10
3.06828e-11
4.5113e-10
1.53933e-11
4.38945e-10
-1.31713e-12
4.25586e-10
-1.77696e-11
4.11133e-10
-2.15085e-11
3.98407e-10
-2.19287e-11
3.86043e-10
-1.17521e-11
3.75968e-10
-4.91882e-12
3.67299e-10
2.86184e-12
3.58871e-10
1.2919e-11
3.51702e-10
1.93504e-11
3.44756e-10
2.60557e-11
3.38918e-10
2.87362e-11
3.34562e-10
2.98107e-11
3.31338e-10
2.85209e-11
3.29655e-10
2.32265e-11
3.31092e-10
1.42249e-11
3.36635e-10
4.51151e-12
3.50301e-10
-8.72218e-12
3.76701e-10
-2.34167e-11
4.29529e-10
-5.94442e-11
-6.71384e-10
7.36882e-10
-1.72602e-07
-3.80862e-08
-2.54958e-07
1.88796e-07
-2.20631e-07
-5.47301e-08
-2.22241e-07
-5.45319e-09
-2.10894e-07
-2.3795e-08
-1.99842e-07
-2.64056e-08
-1.87141e-07
-2.78223e-08
-1.7549e-07
-2.48519e-08
-1.66913e-07
-1.92573e-08
-1.5516e-07
-2.28327e-08
-1.48774e-07
-1.45351e-08
-1.39249e-07
-1.85667e-08
-1.33652e-07
-1.21334e-08
-1.2572e-07
-1.50177e-08
-1.20225e-07
-1.10411e-08
-1.13311e-07
-1.29044e-08
-1.08278e-07
-1.05243e-08
-1.02492e-07
-1.10014e-08
-9.75376e-08
-9.4215e-09
-9.24734e-08
-8.51519e-09
-8.78703e-08
-8.25573e-09
-8.38205e-08
-6.76955e-09
-7.9207e-08
-7.51968e-09
-7.56977e-08
-5.58447e-09
-7.15042e-08
-6.57139e-09
-6.81985e-08
-4.67345e-09
-6.4287e-08
-5.75355e-09
-6.11131e-08
-4.33026e-09
-5.76555e-08
-4.66389e-09
-5.47796e-08
-3.64002e-09
-5.16222e-08
-3.92633e-09
-4.89487e-08
-3.05663e-09
-4.6091e-08
-3.27235e-09
-4.36634e-08
-2.54735e-09
-4.11146e-08
-2.66928e-09
-3.88961e-08
-2.13383e-09
-3.66301e-08
-2.15006e-09
-3.45956e-08
-1.74449e-09
-3.25585e-08
-1.65894e-09
-3.06808e-08
-1.34886e-09
-2.85951e-08
-1.57351e-09
-2.66343e-08
-1.33148e-09
-2.45234e-08
-1.48048e-09
-2.24271e-08
-1.37436e-09
-2.01562e-08
-1.56355e-09
-1.76302e-08
-1.85197e-09
-1.45744e-08
-2.59548e-09
-1.09051e-08
-3.61877e-09
-5.89511e-09
-5.74935e-09
9.94385e-10
-8.69288e-09
6.43793e-09
-6.82321e-09
8.19921e-09
-1.29311e-09
7.60483e-09
1.82512e-09
7.0898e-09
1.85946e-09
6.98442e-09
1.83369e-09
6.98461e-09
2.1717e-09
7.66455e-09
1.78689e-09
8.66886e-09
1.69437e-09
1.01017e-08
1.36277e-09
1.18371e-08
1.15895e-09
1.35418e-08
1.07718e-09
1.52372e-08
6.99879e-10
1.67235e-08
7.18168e-10
1.80894e-08
6.27307e-10
1.9243e-08
5.99394e-10
2.01732e-08
5.19099e-10
2.09028e-08
4.62964e-10
2.14426e-08
4.03168e-10
2.17679e-08
4.28239e-10
2.19404e-08
3.68374e-10
2.19778e-08
3.22235e-10
2.18656e-08
2.45313e-10
2.16431e-08
2.45432e-10
2.13785e-08
1.94688e-10
2.10705e-08
1.81277e-10
2.07238e-08
1.71027e-10
2.04033e-08
1.75454e-10
2.01652e-08
8.68192e-11
1.99873e-08
5.164e-11
1.98304e-08
7.87689e-11
1.97227e-08
1.07363e-10
1.96665e-08
1.26491e-10
1.96267e-08
1.40569e-10
1.95758e-08
1.76542e-10
1.95163e-08
1.73584e-10
1.94686e-08
1.10841e-10
1.94333e-08
1.38539e-11
1.93725e-08
5.47209e-11
1.93114e-08
3.89736e-11
1.92416e-08
6.25468e-11
1.91965e-08
7.50036e-11
1.92055e-08
5.38173e-11
1.924e-08
6.82355e-11
1.93288e-08
7.49779e-11
1.94835e-08
5.22255e-11
1.96851e-08
5.90477e-11
1.995e-08
5.92184e-11
2.03044e-08
2.04516e-11
2.07329e-08
2.03684e-11
2.1224e-08
5.18624e-11
2.17716e-08
8.91962e-11
2.2359e-08
1.14698e-10
2.3057e-08
3.72301e-12
2.37306e-08
6.67571e-11
2.4365e-08
5.76066e-11
2.49945e-08
-1.57644e-12
2.55836e-08
-4.74921e-11
2.60181e-08
1.09312e-10
2.60444e-08
5.67549e-10
2.50666e-08
1.89002e-09
2.32931e-08
2.9054e-09
1.92331e-08
6.50735e-09
1.16139e-08
1.21729e-08
8.97422e-09
-3.2635e-09
2.05891e-09
3.82316e-09
-4.55991e-09
4.13271e-09
-5.1134e-09
3.57216e-09
-5.36052e-09
3.84817e-09
-4.84688e-09
3.02535e-09
-3.92416e-09
2.68528e-09
-2.49751e-09
1.98284e-09
-7.52673e-10
1.57634e-09
1.00503e-09
1.36712e-09
2.76264e-09
7.53707e-10
4.34557e-09
7.18561e-10
5.79835e-09
5.87099e-10
7.02397e-09
5.41856e-10
8.01192e-09
4.56063e-10
8.78728e-09
3.92151e-10
9.35782e-09
3.2371e-10
9.72508e-09
3.69555e-10
9.93753e-09
2.73626e-10
1.00034e-08
2.19709e-10
9.90294e-09
1.37558e-10
9.69478e-09
1.47841e-10
9.44717e-09
9.79784e-11
9.14365e-09
9.83309e-11
8.80209e-09
1.00578e-10
8.50928e-09
9.91228e-11
8.29507e-09
-2.23182e-11
8.12518e-09
-4.34218e-11
7.9785e-09
2.02712e-11
7.89771e-09
5.38801e-11
7.88024e-09
7.30866e-11
7.8578e-09
1.41078e-10
7.81346e-09
2.13999e-10
7.77572e-09
1.98994e-10
7.74882e-09
1.07761e-10
7.73119e-09
-3.09847e-11
7.68164e-09
4.19587e-11
7.60813e-09
4.25414e-11
7.56048e-09
4.90675e-11
7.56333e-09
4.31136e-11
7.59408e-09
3.94986e-11
7.64234e-09
7.04202e-11
7.76407e-09
5.88502e-11
7.94762e-09
2.16497e-11
8.16345e-09
5.47613e-11
8.45327e-09
4.39881e-11
8.84968e-09
-3.69899e-11
9.30439e-09
-2.12701e-11
9.80849e-09
4.35751e-11
1.03638e-08
1.05995e-10
1.0981e-08
1.15784e-10
1.17217e-08
-8.34059e-11
1.24732e-08
-3.59897e-11
1.3189e-08
-5.66255e-11
1.38775e-08
-1.37177e-10
1.44894e-08
-1.46705e-10
1.49e-08
1.59997e-10
1.47913e-08
1.08088e-09
1.33879e-08
3.61544e-09
1.11516e-08
5.38888e-09
7.76036e-09
1.00706e-08
2.5073e-09
1.75256e-08
1.27194e-08
-3.67981e-09
8.72293e-09
-1.10302e-08
-2.06213e-09
-1.94646e-07
1.97644e-07
-4.09426e-08
-2.47146e-07
2.41292e-07
-2.26244e-07
-7.58176e-08
-2.22247e-07
-9.09357e-09
-2.14142e-07
-3.1364e-08
-2.01341e-07
-3.88967e-08
-1.90852e-07
-3.81996e-08
-1.79053e-07
-3.62654e-08
-1.71583e-07
-2.63472e-08
-1.60589e-07
-3.34208e-08
-1.5464e-07
-1.99856e-08
-1.45897e-07
-2.67891e-08
-1.40781e-07
-1.69084e-08
-1.3361e-07
-2.18508e-08
-1.28662e-07
-1.55459e-08
-1.22655e-07
-1.83331e-08
-1.17976e-07
-1.45996e-08
-1.12889e-07
-1.547e-08
-1.0818e-07
-1.34897e-08
-1.03559e-07
-1.24607e-08
-9.90922e-08
-1.20676e-08
-9.55598e-08
-9.63877e-09
-9.1619e-08
-1.07815e-08
-8.83124e-08
-8.18688e-09
-8.43874e-08
-9.79653e-09
-8.10073e-08
-7.35883e-09
-7.75261e-08
-8.52222e-09
-7.46271e-08
-6.48719e-09
-7.1274e-08
-7.25467e-09
-6.85896e-08
-5.54785e-09
-6.55262e-08
-6.19264e-09
-6.30144e-08
-4.74448e-09
-6.01951e-08
-5.24166e-09
-5.79175e-08
-3.97122e-09
-5.52276e-08
-4.51258e-09
-5.30322e-08
-3.49354e-09
-5.06249e-08
-3.72504e-09
-4.84549e-08
-3.071e-09
-4.61788e-08
-3.0726e-09
-4.4028e-08
-2.62385e-09
-4.15324e-08
-3.1808e-09
-3.91921e-08
-2.773e-09
-3.66606e-08
-3.10686e-09
-3.41499e-08
-2.97132e-09
-3.13914e-08
-3.39424e-09
-2.82688e-08
-4.03727e-09
-2.46261e-08
-5.29893e-09
-2.06001e-08
-6.71443e-09
-1.53702e-08
-1.00627e-08
-1.44367e-08
1.49094e-07
2.31361e-07
1.41513e-07
-8.39101e-09
2.1719e-07
-2.5096e-07
2.11927e-07
3.44559e-08
2.10005e-07
3.41637e-08
2.0213e-07
4.41975e-08
1.84863e-07
6.03318e-08
1.6683e-07
5.75238e-08
1.46526e-07
5.16125e-08
1.26099e-07
4.74043e-08
1.08097e-07
3.94497e-08
9.22598e-08
3.17976e-08
7.87222e-08
2.50694e-08
6.80762e-08
2.00349e-08
5.95222e-08
1.57524e-08
5.22836e-08
1.33289e-08
4.67776e-08
1.10397e-08
4.23387e-08
8.53127e-09
3.77367e-08
8.50087e-09
3.43363e-08
6.9783e-09
3.09333e-08
5.66612e-09
2.81197e-08
5.59006e-09
2.57776e-08
4.21939e-09
2.33898e-08
4.49334e-09
2.16247e-08
3.48405e-09
1.97737e-08
3.5702e-09
1.83226e-08
2.9394e-09
1.68221e-08
2.65983e-09
1.54209e-08
2.1156e-09
1.4264e-08
2.13761e-09
1.33365e-08
2.3237e-09
1.23362e-08
1.6039e-09
1.1416e-08
1.64882e-09
1.07183e-08
1.36973e-09
9.98042e-09
1.5129e-09
9.27455e-09
1.15558e-09
8.79885e-09
1.24994e-09
8.53078e-09
9.5023e-10
8.1493e-09
9.32262e-10
7.60017e-09
4.51007e-10
7.02173e-09
6.17434e-10
6.54426e-09
4.70042e-10
6.11955e-09
8.89426e-10
5.78992e-09
8.79088e-10
5.40939e-09
9.32299e-10
5.06996e-09
7.29601e-10
4.70074e-09
6.66593e-10
4.37702e-09
3.80662e-10
4.07232e-09
3.80375e-10
3.84385e-09
3.68707e-10
3.65947e-09
4.73973e-10
3.50853e-09
4.20822e-10
3.34676e-09
1.79734e-10
3.18382e-09
5.24486e-11
3.05995e-09
2.25212e-10
2.98689e-09
3.5169e-10
2.94048e-09
2.45876e-10
2.89649e-09
2.12179e-10
2.82776e-09
1.04469e-10
2.73951e-09
-1.69018e-11
2.63739e-09
6.50223e-11
2.54533e-09
5.81554e-11
2.4556e-09
1.32702e-10
2.40858e-09
1.80944e-10
2.35762e-09
2.49297e-10
2.2999e-09
1.56188e-10
2.20746e-09
8.81064e-11
2.12662e-09
3.98216e-11
2.04983e-09
1.20675e-10
1.99806e-09
1.49857e-10
1.94656e-09
1.62085e-10
1.87531e-09
1.77224e-10
1.80402e-09
1.57798e-10
1.73527e-09
1.56665e-10
1.67608e-09
1.45109e-10
1.63024e-09
1.278e-10
1.58764e-09
7.59728e-11
1.54234e-09
-1.73743e-11
1.48453e-09
-7.13446e-11
1.42664e-09
-4.51623e-11
1.3755e-09
1.06762e-11
1.32967e-09
6.28261e-11
1.28801e-09
8.55879e-11
1.24079e-09
9.31316e-11
1.19583e-09
7.28818e-11
1.14859e-09
8.71759e-11
1.10648e-09
9.99565e-11
1.07242e-09
1.28885e-10
1.04399e-09
1.57838e-10
1.02715e-09
1.51386e-10
1.01277e-09
1.32479e-10
9.94944e-10
1.06541e-10
9.75547e-10
4.29542e-11
9.45127e-10
-9.96464e-13
9.12683e-10
-2.81658e-11
8.81244e-10
-8.28068e-12
8.55903e-10
2.68579e-11
8.35996e-10
5.45599e-11
8.18433e-10
5.71206e-11
7.99558e-10
3.59684e-11
7.77965e-10
1.25545e-11
7.54223e-10
-1.11344e-11
7.29128e-10
-1.69043e-11
7.06693e-10
-1.95777e-11
6.85143e-10
-5.14939e-12
6.67465e-10
2.92195e-12
6.51991e-10
1.34247e-11
6.37276e-10
2.80392e-11
6.24468e-10
3.67808e-11
6.12117e-10
4.67202e-11
6.01559e-10
4.98614e-11
5.93346e-10
5.02741e-11
5.87056e-10
4.74055e-11
5.83267e-10
3.81742e-11
5.84377e-10
2.20495e-11
5.91959e-10
3.71882e-12
6.12682e-10
-2.41512e-11
6.53175e-10
-5.76278e-11
7.29217e-10
-1.2824e-10
-8.64177e-10
9.2896e-10
1.8852e-07
-2.28253e-07
2.70824e-07
1.72516e-07
7.28243e-09
2.18599e-07
-2.9721e-07
2.19318e-07
3.37877e-08
2.15068e-07
3.86475e-08
2.11904e-07
4.75407e-08
2.01104e-07
7.12327e-08
1.89613e-07
6.90775e-08
1.76487e-07
6.47896e-08
1.62347e-07
6.15444e-08
1.47075e-07
5.46619e-08
1.30143e-07
4.88993e-08
1.14719e-07
4.03896e-08
1.01269e-07
3.37238e-08
8.97931e-08
2.71628e-08
7.8299e-08
2.4818e-08
6.9184e-08
2.03065e-08
6.10684e-08
1.67438e-08
5.36526e-08
1.57497e-08
4.83632e-08
1.24141e-08
4.32505e-08
1.06328e-08
3.93424e-08
9.45504e-09
3.5948e-08
7.60479e-09
3.27788e-08
7.63342e-09
3.02765e-08
6.07678e-09
2.77528e-08
6.15875e-09
2.57804e-08
4.97531e-09
2.37061e-08
4.77113e-09
2.18312e-08
3.79116e-09
2.02192e-08
3.74034e-09
1.89648e-08
3.76645e-09
1.75632e-08
2.90291e-09
1.6328e-08
2.87945e-09
1.53405e-08
2.43677e-09
1.43334e-08
2.52013e-09
1.33512e-08
2.09401e-09
1.26994e-08
2.00362e-09
1.22861e-08
1.61425e-09
1.17421e-08
1.54723e-09
1.09472e-08
1.08692e-09
1.01506e-08
1.27424e-09
9.46024e-09
1.02973e-09
8.86678e-09
1.50529e-09
8.37017e-09
1.48542e-09
7.8352e-09
1.53224e-09
7.34246e-09
1.27268e-09
6.82959e-09
1.17805e-09
6.37297e-09
7.87648e-10
5.9495e-09
7.52913e-10
5.62358e-09
6.83269e-10
5.35977e-09
7.76705e-10
5.14079e-09
6.90216e-10
4.91642e-09
3.80727e-10
4.693e-09
2.01097e-10
4.52144e-09
3.79874e-10
4.41311e-09
5.21103e-10
4.34185e-09
3.65974e-10
4.26958e-09
3.31291e-10
4.17122e-09
2.13263e-10
4.04405e-09
6.76344e-11
3.90026e-09
1.71748e-10
3.76547e-09
1.58589e-10
3.63798e-09
2.41202e-10
3.56283e-09
2.74914e-10
3.48484e-09
3.68431e-10
3.39753e-09
2.69555e-10
3.26888e-09
2.02518e-10
3.15421e-09
1.29913e-10
3.04352e-09
2.2512e-10
2.96479e-09
2.42486e-10
2.88489e-09
2.62982e-10
2.78086e-09
2.96527e-10
2.67697e-09
2.69904e-10
2.57657e-09
2.67677e-10
2.48973e-09
2.45399e-10
2.42048e-09
2.15415e-10
2.35594e-09
1.49864e-10
2.28861e-09
3.0076e-11
2.20443e-09
-3.99322e-11
2.12033e-09
-1.48998e-11
2.04457e-09
5.15337e-11
1.9767e-09
1.17094e-10
1.91402e-09
1.49708e-10
1.84503e-09
1.6647e-10
1.77894e-09
1.38643e-10
1.71028e-09
1.56911e-10
1.64903e-09
1.67265e-10
1.59871e-09
1.9807e-10
1.55673e-09
2.33152e-10
1.53079e-09
2.18146e-10
1.50767e-09
1.94091e-10
1.48055e-09
1.62229e-10
1.4504e-09
8.29358e-11
1.40577e-09
3.05082e-11
1.3586e-09
-7.40729e-12
1.31293e-09
1.44315e-11
1.27588e-09
5.46195e-11
1.24601e-09
8.82912e-11
1.21943e-09
9.19296e-11
1.19087e-09
6.66442e-11
1.15875e-09
3.78701e-11
1.1236e-09
7.82788e-12
1.08695e-09
-2.24615e-13
1.05388e-09
-6.60883e-12
1.02225e-09
1.12417e-11
9.96153e-10
1.89434e-11
9.73013e-10
3.14429e-11
9.51276e-10
4.98826e-11
9.32078e-10
6.01987e-11
9.13541e-10
7.32038e-11
8.9747e-10
7.61868e-11
8.84473e-10
7.52476e-11
8.74188e-10
7.01911e-11
8.67304e-10
5.63361e-11
8.66876e-10
3.18023e-11
8.74936e-10
2.94073e-12
9.00423e-10
-4.40494e-11
9.5182e-10
-1.02747e-10
1.0411e-09
-2.10306e-10
-9.31268e-10
1.1146e-09
-2.15997e-07
-5.30595e-08
-2.41385e-07
2.66844e-07
-2.25034e-07
-9.2281e-08
-2.19449e-07
-1.47277e-08
-2.13265e-07
-3.71337e-08
-2.01243e-07
-5.06069e-08
-1.91625e-07
-4.7656e-08
-1.8031e-07
-4.72735e-08
-1.73084e-07
-3.32016e-08
-1.63097e-07
-4.29765e-08
-1.57042e-07
-2.55567e-08
-1.49002e-07
-3.434e-08
-1.43852e-07
-2.17007e-08
-1.37328e-07
-2.80203e-08
-1.32306e-07
-2.00517e-08
-1.26654e-07
-2.33711e-08
-1.21862e-07
-1.87932e-08
-1.17085e-07
-1.95975e-08
-1.12455e-07
-1.74808e-08
-1.08172e-07
-1.6082e-08
-1.03989e-07
-1.55795e-08
-1.00648e-07
-1.23106e-08
-9.68951e-08
-1.3834e-08
-9.37039e-08
-1.06546e-08
-8.99833e-08
-1.27963e-08
-8.67837e-08
-9.84088e-09
-8.34241e-08
-1.1146e-08
-8.07692e-08
-8.38018e-09
-7.75434e-08
-9.69601e-09
-7.50793e-08
-7.21e-09
-7.20944e-08
-8.35606e-09
-6.98653e-08
-6.12423e-09
-6.71271e-08
-7.09872e-09
-6.49557e-08
-5.26003e-09
-6.22531e-08
-6.34189e-09
-6.01483e-08
-4.73327e-09
-5.77069e-08
-5.30575e-09
-5.55175e-08
-4.38567e-09
-5.3167e-08
-4.52917e-09
-5.0905e-08
-3.9786e-09
-4.82755e-08
-4.88936e-09
-4.58628e-08
-4.25496e-09
-4.33413e-08
-4.69003e-09
-4.08893e-08
-4.47629e-09
-3.8149e-08
-5.17332e-09
-3.50642e-08
-6.15097e-09
-3.16692e-08
-7.72216e-09
-2.81672e-08
-9.25613e-09
-2.37637e-08
-1.35226e-08
-1.85272e-08
-1.87444e-08
-1.46392e-08
-1.40582e-08
-1.3652e-08
-2.17421e-09
-1.49329e-08
5.92018e-09
-1.61625e-08
6.36901e-09
-1.66525e-08
5.28393e-09
-1.66687e-08
5.34368e-09
-1.6017e-08
4.19189e-09
-1.49733e-08
3.62294e-09
-1.34417e-08
2.57269e-09
-1.16229e-08
1.99207e-09
-9.82664e-09
1.69001e-09
-8.02221e-09
8.23313e-10
-6.41053e-09
7.52386e-10
-4.94947e-09
5.91255e-10
-3.72759e-09
5.35409e-10
-2.75617e-09
4.3916e-10
-1.99916e-09
3.64359e-10
-1.45136e-09
2.87174e-10
-1.09096e-09
3.34552e-10
-9.06291e-10
2.11824e-10
-8.78587e-10
1.54227e-10
-1.02299e-09
6.61606e-11
-1.27108e-09
8.26274e-11
-1.57579e-09
4.13607e-11
-1.94034e-09
6.29098e-11
-2.33016e-09
6.3003e-11
-2.6561e-09
4.2012e-11
-2.91378e-09
-1.01071e-10
-3.13298e-09
-1.00935e-10
-3.31897e-09
-1.18601e-11
-3.42662e-09
1.62479e-11
-3.47596e-09
4.89574e-11
-3.53822e-09
1.80041e-10
-3.61713e-09
2.82903e-10
-3.67677e-09
2.46058e-10
-3.72844e-09
1.29282e-10
-3.7831e-09
-3.92346e-11
-3.86017e-09
5.52014e-11
-3.96267e-09
7.12503e-11
-4.01692e-09
3.94485e-11
-4.02258e-09
1.83753e-11
-4.01212e-09
4.46998e-11
-3.97089e-09
8.16286e-11
-3.84722e-09
4.47957e-11
-3.67476e-09
7.55114e-12
-3.46597e-09
6.72323e-11
-3.16707e-09
3.10922e-11
-2.76618e-09
-8.51032e-11
-2.32093e-09
-3.88855e-11
-1.82307e-09
5.95307e-11
-1.26324e-09
1.40225e-10
-6.06025e-10
1.00179e-10
1.64301e-10
-1.76805e-10
1.00106e-09
-2.01638e-10
1.75289e-09
-1.85838e-10
2.45655e-09
-2.67707e-10
3.00653e-09
-1.6563e-10
3.34793e-09
2.97157e-10
2.98316e-09
1.86472e-09
1.3799e-09
5.5527e-09
-5.883e-10
7.61406e-09
-2.34558e-09
1.20057e-08
-4.16308e-09
1.94471e-08
1.40259e-08
-2.46416e-08
2.37436e-08
7.65681e-09
-2.5296e-08
8.05973e-09
-2.54503e-08
6.69925e-09
-2.50855e-08
6.50763e-09
-2.41219e-08
5.10427e-09
-2.28476e-08
4.40982e-09
-2.11332e-08
3.05783e-09
-1.91915e-08
2.35673e-09
-1.7307e-08
1.99374e-09
-1.54047e-08
8.65473e-10
-1.3713e-08
7.66318e-10
-1.22061e-08
6.00789e-10
-1.09601e-08
5.48012e-10
-9.97284e-09
4.44216e-10
-9.22048e-09
3.67918e-10
-8.66764e-09
2.69055e-10
-8.29882e-09
3.00782e-10
-8.1197e-09
1.63489e-10
-8.12025e-09
1.17314e-10
-8.29155e-09
2.46425e-11
-8.56324e-09
1.0384e-11
-8.9008e-09
-1.1015e-11
-9.30704e-09
4.88677e-11
-9.71388e-09
2.21366e-11
-1.00508e-08
-1.8162e-11
-1.03347e-08
-1.67438e-10
-1.05862e-08
-1.33246e-10
-1.07796e-08
-3.94998e-11
-1.08873e-08
-1.83477e-11
-1.0953e-08
3.86781e-11
-1.1036e-08
2.39043e-10
-1.1125e-08
3.59587e-10
-1.11885e-08
2.98869e-10
-1.12451e-08
1.5469e-10
-1.13305e-08
-1.80795e-11
-1.14283e-08
8.6231e-11
-1.15277e-08
9.41437e-11
-1.15759e-08
2.13952e-11
-1.15895e-08
1.13541e-12
-1.15955e-08
6.49293e-11
-1.15531e-08
9.45005e-11
-1.1425e-08
3.06306e-11
-1.12587e-08
6.10775e-12
-1.10508e-08
9.05269e-11
-1.0736e-08
1.32372e-11
-1.03265e-08
-1.27051e-10
-9.88766e-09
-3.43199e-11
-9.39193e-09
9.59798e-11
-8.79473e-09
1.59237e-10
-8.07292e-09
4.36936e-11
-7.2104e-09
-3.38346e-10
-6.32749e-09
-3.91185e-10
-5.55381e-09
-3.14042e-10
-4.94992e-09
-2.77724e-10
-4.49934e-09
-6.64512e-11
-4.17323e-09
4.66976e-10
-4.40299e-09
2.52807e-09
-5.46142e-09
6.9571e-09
-6.4029e-09
8.82184e-09
-6.98439e-09
1.2771e-08
-7.02148e-09
1.95928e-08
1.41924e-08
-2.41494e-08
2.66738e-08
-1.57003e-08
-1.68202e-09
-2.37634e-07
2.54746e-07
-7.00553e-08
-2.34328e-07
2.63717e-07
-2.2659e-07
-9.98e-08
-2.14974e-07
-2.63717e-08
-2.11112e-07
-4.07308e-08
-1.99316e-07
-6.21301e-08
-1.91103e-07
-5.53288e-08
-1.80284e-07
-5.75404e-08
-1.73272e-07
-3.97219e-08
-1.6447e-07
-5.13697e-08
-1.58219e-07
-3.14166e-08
-1.51137e-07
-4.09009e-08
-1.45668e-07
-2.67376e-08
-1.39707e-07
-3.35528e-08
-1.345e-07
-2.47278e-08
-1.29243e-07
-2.80224e-08
-1.24368e-07
-2.3058e-08
-1.19723e-07
-2.35764e-08
-1.15104e-07
-2.14275e-08
-1.11131e-07
-1.94005e-08
-1.06973e-07
-1.9066e-08
-1.03829e-07
-1.47612e-08
-9.993e-08
-1.69946e-08
-9.68035e-08
-1.30394e-08
-9.31486e-08
-1.57087e-08
-9.02766e-08
-1.19726e-08
-8.67953e-08
-1.38666e-08
-8.42377e-08
-1.01559e-08
-8.10626e-08
-1.20642e-08
-7.87478e-08
-8.70112e-09
-7.58337e-08
-1.04284e-08
-7.36584e-08
-7.42793e-09
-7.0946e-08
-8.90567e-09
-6.87331e-08
-6.56113e-09
-6.61195e-08
-8.05323e-09
-6.39625e-08
-5.99778e-09
-6.15284e-08
-6.85083e-09
-5.93367e-08
-5.67368e-09
-5.69736e-08
-5.96765e-09
-5.46627e-08
-5.35126e-09
-5.20354e-08
-6.56381e-09
-4.96591e-08
-5.66812e-09
-4.72782e-08
-6.09958e-09
-4.49852e-08
-5.78822e-09
-4.23909e-08
-6.77199e-09
-3.95246e-08
-8.01219e-09
-3.66047e-08
-9.63805e-09
-3.37592e-08
-1.11117e-08
-3.03454e-08
-1.59662e-08
-2.14625e-08
2.28193e-07
2.97062e-07
2.05531e-07
2.96367e-08
2.21194e-07
-3.13005e-07
2.20064e-07
3.49613e-08
2.16173e-07
4.26708e-08
2.13197e-07
5.0646e-08
2.04196e-07
8.03432e-08
1.94778e-07
7.85838e-08
1.85817e-07
7.37696e-08
1.75928e-07
7.14372e-08
1.65457e-07
6.50731e-08
1.54264e-07
6.02611e-08
1.42928e-07
5.16369e-08
1.31195e-07
4.56705e-08
1.18474e-07
3.98836e-08
1.078e-07
3.54403e-08
9.71688e-08
3.11354e-08
8.6182e-08
2.77956e-08
7.65024e-08
2.52464e-08
6.81327e-08
2.09334e-08
6.00046e-08
1.8541e-08
5.37497e-08
1.56871e-08
4.83173e-08
1.29341e-08
4.37137e-08
1.22383e-08
3.99972e-08
9.88697e-09
3.65377e-08
9.71982e-09
3.38171e-08
7.7709e-09
3.10552e-08
7.58851e-09
2.86236e-08
5.99903e-09
2.64937e-08
5.83944e-09
2.48866e-08
5.56257e-09
2.30459e-08
4.62884e-09
2.14831e-08
4.43793e-09
2.01977e-08
3.81679e-09
1.89113e-08
3.75805e-09
1.76501e-08
3.30678e-09
1.6812e-08
2.94065e-09
1.62369e-08
2.45239e-09
1.5533e-08
2.35032e-09
1.44862e-08
1.98603e-09
1.34659e-08
2.17097e-09
1.25511e-08
1.81481e-09
1.17786e-08
2.29695e-09
1.11013e-08
2.27794e-09
1.04056e-08
2.2828e-09
9.75188e-09
1.96543e-09
9.09656e-09
1.83668e-09
8.5107e-09
1.33108e-09
7.97004e-09
1.24952e-09
7.5465e-09
1.09983e-09
7.20164e-09
1.15893e-09
6.91647e-09
1.02445e-09
6.63517e-09
6.44058e-10
6.35484e-09
4.10982e-10
6.13344e-09
5.77773e-10
5.98688e-09
7.19375e-10
5.88767e-09
5.0536e-10
5.78083e-09
4.79346e-10
5.65059e-09
3.63606e-10
5.48352e-09
2.03204e-10
5.2959e-09
3.27009e-10
5.11607e-09
3.0522e-10
4.94805e-09
3.86656e-10
4.83944e-09
3.91472e-10
4.72907e-09
5.10282e-10
4.60864e-09
4.15003e-10
4.44336e-09
3.62288e-10
4.29416e-09
2.64406e-10
4.14698e-09
3.69412e-10
4.03725e-09
3.6298e-10
3.9237e-09
3.93778e-10
3.7837e-09
4.49363e-10
3.64472e-09
4.13964e-10
3.51003e-09
4.11133e-10
3.39301e-09
3.75366e-10
3.29733e-09
3.30232e-10
3.20834e-09
2.54279e-10
3.11764e-09
1.09966e-10
3.006e-09
2.5144e-11
2.89374e-09
4.27503e-11
2.79053e-09
1.14699e-10
2.69766e-09
1.90462e-10
2.61111e-09
2.34218e-10
2.51849e-09
2.63475e-10
2.42966e-09
2.28157e-10
2.33812e-09
2.49613e-10
2.25631e-09
2.53417e-10
2.18784e-09
2.81769e-10
2.13055e-09
3.20712e-10
2.09383e-09
2.94316e-10
2.06005e-09
2.66401e-10
2.02209e-09
2.3012e-10
1.9798e-09
1.37721e-10
1.92e-09
8.05728e-11
1.85736e-09
3.14271e-11
1.79638e-09
5.27086e-11
1.74638e-09
9.38162e-11
1.70502e-09
1.31556e-10
1.668e-09
1.36174e-10
1.62847e-09
1.08408e-10
1.58472e-09
7.57883e-11
1.5372e-09
4.04327e-11
1.48814e-09
2.98787e-11
1.4435e-09
1.83821e-11
1.40085e-09
3.87121e-11
1.36547e-09
4.42801e-11
1.33372e-09
5.79792e-11
1.30415e-09
7.9299e-11
1.27771e-09
9.03569e-11
1.25211e-09
1.06184e-10
1.22962e-09
1.08347e-10
1.21075e-09
1.05496e-10
1.19536e-09
9.76874e-11
1.18425e-09
7.8583e-11
1.18088e-09
4.47355e-11
1.1876e-09
3.98792e-12
1.21511e-09
-6.56154e-11
1.27429e-09
-1.55723e-10
1.36132e-09
-2.90167e-10
-9.80672e-10
1.41695e-09
2.68293e-07
-2.75865e-07
3.04275e-07
2.40744e-07
5.67683e-08
2.19139e-07
-2.91677e-07
2.16493e-07
3.75563e-08
2.13863e-07
4.54152e-08
2.12709e-07
5.19367e-08
2.0604e-07
8.71248e-08
1.9752e-07
8.71767e-08
1.89676e-07
8.16765e-08
1.81596e-07
7.95238e-08
1.73562e-07
7.30579e-08
1.65872e-07
6.81019e-08
1.57804e-07
5.96462e-08
1.50259e-07
5.34155e-08
1.41838e-07
4.82918e-08
1.32906e-07
4.43361e-08
1.22557e-07
4.17713e-08
1.12734e-07
3.78504e-08
1.02965e-07
3.49031e-08
9.34732e-08
3.03854e-08
8.32201e-08
2.85794e-08