/*--------------------------------*- C++ -*----------------------------------*\
| =========                 |                                                 |
| \\      /  F ield         | OpenFOAM: The Open Source CFD Toolbox           |
|  \\    /   O peration     | Version:  2212                                  |
|   \\  /    A nd           | Website:  www.openfoam.com                      |
|    \\/     M anipulation  |                                                 |
\*---------------------------------------------------------------------------*/
FoamFile
{
    version     2.0;
    format      ascii;
    arch        "LSB;label=32;scalar=64";
    class       surfaceScalarField;
    location    "0.289";
    object      phi_0;
}
// * * * * * * * * * * * * * * * * * * * * * * * * * * * * * * * * * * * * * //

dimensions      [0 3 -1 0 0 0 0];

oriented        oriented;

internalField   nonuniform List<scalar> 
69808
(
6.50113e-08
-0.0015757
-1.8478
-4.36903e-08
-0.00157545
-1.84784
-4.20601e-08
-0.00157561
-1.84784
-7.38496e-08
-0.00157566
-1.84784
-7.7483e-08
-0.00157577
-1.84784
-9.12864e-08
-0.00157587
-1.84784
-9.76443e-08
-0.001576
-1.84784
-1.05789e-07
-0.00157612
-1.84784
-1.10515e-07
-0.00157625
-1.84784
-1.13874e-07
-0.00157638
-1.84784
-1.14554e-07
-0.00157651
-1.84784
-1.11646e-07
-0.00157663
-1.84784
-1.06864e-07
-0.00157674
-1.84784
-9.56681e-08
-0.00157684
-1.84784
-8.71538e-08
-0.00157693
-1.84784
-6.53123e-08
-0.00157701
-1.84784
-6.60933e-08
-0.00157706
-1.84784
-3.32189e-08
-0.00157713
-1.84784
-1.10875e-07
-0.00157706
-1.84784
-0.00157735
-1.8478
-1.91751e-07
-0.00112169
-1.84639
-2.69008e-07
-0.00112133
-1.84643
-3.718e-07
-0.00112142
-1.84643
-4.65644e-07
-0.00112142
-1.84643
-5.42435e-07
-0.00112147
-1.84643
-6.04261e-07
-0.0011215
-1.84643
-6.46212e-07
-0.00112155
-1.84643
-6.70632e-07
-0.00112159
-1.84643
-6.76014e-07
-0.00112164
-1.84643
-6.6397e-07
-0.00112168
-1.84643
-6.35539e-07
-0.00112173
-1.84643
-5.92507e-07
-0.00112176
-1.84643
-5.37387e-07
-0.0011218
-1.84643
-4.71831e-07
-0.00112183
-1.84643
-3.99734e-07
-0.00112185
-1.84643
-3.19864e-07
-0.00112187
-1.84643
-2.36217e-07
-0.00112187
-1.84643
-1.43436e-07
-0.00112189
-1.84643
-2.13321e-08
-0.00112183
-1.84643
-0.00112218
-1.84639
3.69648e-08
-0.00126693
-1.85244
1.937e-07
-0.00126653
-1.85248
3.07836e-07
-0.00126661
-1.85248
4.08148e-07
-0.00126666
-1.85248
4.89694e-07
-0.00126675
-1.85248
5.46448e-07
-0.00126684
-1.85248
5.83012e-07
-0.00126695
-1.85248
5.98396e-07
-0.00126706
-1.85248
5.95434e-07
-0.00126718
-1.85248
5.75884e-07
-0.0012673
-1.85248
5.42455e-07
-0.00126742
-1.85248
4.98134e-07
-0.00126753
-1.85248
4.45834e-07
-0.00126763
-1.85248
3.89127e-07
-0.00126772
-1.85248
3.30402e-07
-0.0012678
-1.85248
2.75387e-07
-0.00126788
-1.85248
2.20774e-07
-0.00126793
-1.85248
1.63426e-07
-0.00126798
-1.85248
1.36419e-07
-0.00126798
-1.85248
-0.00126841
-1.85244
-2.24776e-07
0.00412991
-1.84641
-3.68598e-07
0.00413037
-1.84645
-5.11251e-07
0.00413029
-1.84645
-6.49966e-07
0.00413022
-1.84645
-7.67194e-07
0.0041301
-1.84645
-8.55716e-07
0.00412998
-1.84645
-9.1685e-07
0.00412983
-1.84645
-9.50244e-07
0.00412968
-1.84645
-9.56628e-07
0.00412953
-1.84645
-9.38345e-07
0.00412937
-1.84645
-8.96534e-07
0.00412922
-1.84645
-8.35718e-07
0.00412908
-1.84645
-7.57221e-07
0.00412895
-1.84645
-6.67254e-07
0.00412883
-1.84645
-5.66632e-07
0.00412873
-1.84645
-4.63012e-07
0.00412864
-1.84645
-3.5168e-07
0.00412858
-1.84645
-2.2028e-07
0.00412852
-1.84645
-7.62315e-08
0.0041285
-1.84645
0.00412799
-1.84641
6.77892e-08
0.00920102
-1.851
2.21899e-07
0.00920156
-1.85104
3.53362e-07
0.00920152
-1.85104
4.54123e-07
0.00920148
-1.85104
5.34217e-07
0.00920142
-1.85104
5.95538e-07
0.00920135
-1.85104
6.3521e-07
0.00920126
-1.85104
6.53461e-07
0.00920118
-1.85104
6.52028e-07
0.00920109
-1.85104
6.32657e-07
0.009201
-1.85104
5.98384e-07
0.00920091
-1.85104
5.51497e-07
0.00920082
-1.85104
4.95814e-07
0.00920073
-1.85104
4.33555e-07
0.00920066
-1.85104
3.68519e-07
0.00920059
-1.85104
2.98889e-07
0.00920053
-1.85104
2.30143e-07
0.00920048
-1.85104
1.73356e-07
0.00920042
-1.85104
1.26733e-07
0.0092004
-1.85104
0.00919982
-1.851
-1.63166e-07
0.0186331
-1.84531
-2.69715e-07
0.0186337
-1.84535
-3.74091e-07
0.0186336
-1.84535
-4.6642e-07
0.0186335
-1.84535
-5.43828e-07
0.0186334
-1.84535
-6.05583e-07
0.0186333
-1.84535
-6.48503e-07
0.0186331
-1.84535
-6.72888e-07
0.0186329
-1.84535
-6.78278e-07
0.0186327
-1.84535
-6.66074e-07
0.0186326
-1.84535
-6.37183e-07
0.0186324
-1.84535
-5.93544e-07
0.0186322
-1.84535
-5.37309e-07
0.018632
-1.84535
-4.70646e-07
0.0186319
-1.84535
-3.9615e-07
0.0186318
-1.84535
-3.14432e-07
0.0186317
-1.84535
-2.2805e-07
0.0186316
-1.84535
-1.37752e-07
0.0186315
-1.84535
-4.22614e-08
0.0186314
-1.84535
0.0186307
-1.84531
-1.1517e-08
0.0276944
-1.84776
5.03011e-08
0.0276951
-1.8478
1.03211e-07
0.0276951
-1.8478
1.3728e-07
0.027695
-1.8478
1.63921e-07
0.0276949
-1.8478
1.82825e-07
0.0276948
-1.8478
1.93775e-07
0.0276947
-1.8478
1.96956e-07
0.0276946
-1.8478
1.93474e-07
0.0276945
-1.8478
1.84202e-07
0.0276943
-1.8478
1.70638e-07
0.0276942
-1.8478
1.54366e-07
0.0276941
-1.8478
1.3665e-07
0.027694
-1.8478
1.19405e-07
0.0276939
-1.8478
1.0279e-07
0.0276938
-1.8478
8.76713e-08
0.0276937
-1.8478
7.36737e-08
0.0276936
-1.8478
7.21917e-08
0.0276936
-1.8478
7.46969e-08
0.0276935
-1.8478
0.0276928
-1.84776
-1.17836e-07
0.03923
-1.8453
-1.90662e-07
0.0392308
-1.84534
-2.61201e-07
0.0392308
-1.84534
-3.2404e-07
0.0392307
-1.84534
-3.77209e-07
0.0392305
-1.84534
-4.20629e-07
0.0392304
-1.84534
-4.51935e-07
0.0392302
-1.84534
-4.71102e-07
0.03923
-1.84534
-4.77567e-07
0.0392298
-1.84534
-4.71678e-07
0.0392296
-1.84534
-4.53797e-07
0.0392295
-1.84534
-4.24496e-07
0.0392293
-1.84534
-3.85273e-07
0.0392291
-1.84534
-3.36936e-07
0.0392289
-1.84534
-2.81956e-07
0.0392288
-1.84534
-2.20642e-07
0.0392287
-1.84534
-1.55868e-07
0.0392286
-1.84534
-8.83991e-08
0.0392285
-1.84534
-1.95862e-08
0.0392285
-1.84534
0.0392276
-1.8453
-1.00729e-07
0.043667
-1.83946
-1.38885e-07
0.0436678
-1.8395
-1.78439e-07
0.0436677
-1.8395
-2.18834e-07
0.0436675
-1.8395
-2.54208e-07
0.0436673
-1.8395
-2.83795e-07
0.043667
-1.8395
-3.06401e-07
0.0436667
-1.8395
-3.21932e-07
0.0436664
-1.8395
-3.29808e-07
0.0436661
-1.8395
-3.30033e-07
0.0436657
-1.8395
-3.22474e-07
0.0436654
-1.8395
-3.06981e-07
0.0436651
-1.8395
-2.83718e-07
0.0436648
-1.8395
-2.52633e-07
0.0436645
-1.8395
-2.14908e-07
0.0436643
-1.8395
-1.70449e-07
0.0436641
-1.8395
-1.20874e-07
0.043664
-1.8395
-6.04472e-08
0.0436639
-1.8395
6.78432e-09
0.0436638
-1.8395
0.043663
-1.83946
-6.20739e-08
0.0485622
-1.84138
-6.92736e-08
0.048563
-1.84142
-7.84934e-08
0.048563
-1.84142
-9.11898e-08
0.0485629
-1.84142
-1.02448e-07
0.0485628
-1.84142
-1.12862e-07
0.0485627
-1.84142
-1.21144e-07
0.0485626
-1.84142
-1.27794e-07
0.0485624
-1.84142
-1.32187e-07
0.0485623
-1.84142
-1.34309e-07
0.0485621
-1.84142
-1.336e-07
0.048562
-1.84142
-1.29591e-07
0.0485618
-1.84142
-1.22004e-07
0.0485617
-1.84142
-1.10046e-07
0.0485615
-1.84142
-9.41592e-08
0.0485614
-1.84142
-7.33629e-08
0.0485613
-1.84142
-4.95325e-08
0.0485613
-1.84142
-1.76784e-08
0.0485612
-1.84142
1.81416e-08
0.0485612
-1.84142
0.0485604
-1.84138
-2.23632e-07
0.053395
-1.84084
-3.97149e-07
0.0533958
-1.84088
-5.60106e-07
0.0533957
-1.84088
-7.03614e-07
0.0533956
-1.84088
-8.25516e-07
0.0533954
-1.84088
-9.2207e-07
0.0533952
-1.84088
-9.91383e-07
0.053395
-1.84088
-1.03227e-06
0.0533948
-1.84088
-1.04501e-06
0.0533946
-1.84088
-1.03027e-06
0.0533943
-1.84088
-9.89824e-07
0.0533941
-1.84088
-9.25647e-07
0.0533939
-1.84088
-8.40696e-07
0.0533937
-1.84088
-7.38043e-07
0.0533935
-1.84088
-6.21711e-07
0.0533933
-1.84088
-4.94373e-07
0.0533933
-1.84088
-3.59489e-07
0.0533932
-1.84088
-2.17769e-07
0.0533932
-1.84088
-7.44764e-08
0.0533932
-1.84088
0.0533925
-1.84084
-2.05134e-08
0.056519
-1.84765
2.96152e-08
0.0565198
-1.84769
7.25441e-08
0.0565198
-1.84769
1.00399e-07
0.0565198
-1.84769
1.22255e-07
0.0565198
-1.84769
1.37525e-07
0.0565198
-1.84769
1.4604e-07
0.0565198
-1.84769
1.47435e-07
0.0565198
-1.84769
1.42145e-07
0.0565199
-1.84769
1.30972e-07
0.0565199
-1.84769
1.15182e-07
0.0565199
-1.84769
9.65884e-08
0.0565199
-1.84769
7.70768e-08
0.0565199
-1.84769
5.92205e-08
0.0565199
-1.84769
4.40419e-08
0.0565199
-1.84769
3.34199e-08
0.0565199
-1.84769
2.65701e-08
0.05652
-1.84769
3.19724e-08
0.05652
-1.84769
4.7725e-08
0.0565201
-1.84769
0.0565194
-1.84765
-3.25709e-07
0.0597614
-1.84525
-6.01696e-07
0.0597621
-1.84529
-8.60667e-07
0.059762
-1.84529
-1.08312e-06
0.0597619
-1.84529
-1.27251e-06
0.0597618
-1.84529
-1.42336e-06
0.0597617
-1.84529
-1.53168e-06
0.0597616
-1.84529
-1.59501e-06
0.0597614
-1.84529
-1.61362e-06
0.0597613
-1.84529
-1.58852e-06
0.0597611
-1.84529
-1.52264e-06
0.059761
-1.84529
-1.41976e-06
0.0597608
-1.84529
-1.2848e-06
0.0597607
-1.84529
-1.12372e-06
0.0597606
-1.84529
-9.42915e-07
0.0597606
-1.84529
-7.46589e-07
0.0597606
-1.84529
-5.41069e-07
0.0597606
-1.84529
-3.3557e-07
0.0597606
-1.84529
-1.32248e-07
0.0597607
-1.84529
0.0597601
-1.84525
1.36064e-08
0.059046
-1.85629
1.18887e-07
0.0590466
-1.85633
2.08538e-07
0.0590467
-1.85633
2.68139e-07
0.0590467
-1.85633
3.15047e-07
0.0590468
-1.85633
3.51106e-07
0.059047
-1.85633
3.73227e-07
0.0590471
-1.85633
3.81134e-07
0.0590472
-1.85633
3.75179e-07
0.0590474
-1.85633
3.56233e-07
0.0590475
-1.85633
3.26626e-07
0.0590477
-1.85633
2.88961e-07
0.0590478
-1.85633
2.46666e-07
0.059048
-1.85633
2.02862e-07
0.0590481
-1.85633
1.60773e-07
0.0590482
-1.85633
1.19845e-07
0.0590483
-1.85633
8.31762e-08
0.0590484
-1.85633
6.73828e-08
0.0590485
-1.85633
6.79834e-08
0.0590486
-1.85633
0.0590481
-1.85629
-3.964e-07
0.0583912
-1.85152
-7.37955e-07
0.0583917
-1.85156
-1.06179e-06
0.0583917
-1.85156
-1.33572e-06
0.0583916
-1.85156
-1.5691e-06
0.0583916
-1.85156
-1.75822e-06
0.0583916
-1.85156
-1.89396e-06
0.0583916
-1.85156
-1.97294e-06
0.0583915
-1.85156
-1.99536e-06
0.0583915
-1.85156
-1.96233e-06
0.0583914
-1.85156
-1.87798e-06
0.0583914
-1.85156
-1.7476e-06
0.0583914
-1.85156
-1.57813e-06
0.0583914
-1.85156
-1.37802e-06
0.0583914
-1.85156
-1.15565e-06
0.0583914
-1.85156
-9.13545e-07
0.0583915
-1.85156
-6.62289e-07
0.0583916
-1.85156
-4.19091e-07
0.0583917
-1.85156
-1.73895e-07
0.0583918
-1.85156
0.0583914
-1.85152
3.18691e-08
0.0515046
-1.86437
1.83559e-07
0.051505
-1.86441
3.04086e-07
0.0515052
-1.86441
3.74052e-07
0.0515053
-1.86441
4.27211e-07
0.0515055
-1.86441
4.73257e-07
0.0515056
-1.86441
5.01465e-07
0.0515059
-1.86441
5.11444e-07
0.0515061
-1.86441
5.0314e-07
0.0515063
-1.86441
4.7725e-07
0.0515066
-1.86441
4.36748e-07
0.0515068
-1.86441
3.84579e-07
0.051507
-1.86441
3.25182e-07
0.0515072
-1.86441
2.62029e-07
0.0515074
-1.86441
2.00017e-07
0.0515076
-1.86441
1.31952e-07
0.0515078
-1.86441
6.98125e-08
0.0515079
-1.86441
4.72688e-08
0.0515081
-1.86441
6.01429e-08
0.0515081
-1.86441
0.0515079
-1.86437
-4.01011e-07
0.0445546
-1.85669
-7.23623e-07
0.0445548
-1.85673
-1.03835e-06
0.0445549
-1.85673
-1.35229e-06
0.044555
-1.85673
-1.62093e-06
0.0445551
-1.85673
-1.82625e-06
0.0445552
-1.85673
-1.97257e-06
0.0445553
-1.85673
-2.05704e-06
0.0445554
-1.85673
-2.08066e-06
0.0445555
-1.85673
-2.04603e-06
0.0445556
-1.85673
-1.95722e-06
0.0445557
-1.85673
-1.82147e-06
0.0445558
-1.85673
-1.64642e-06
0.0445559
-1.85673
-1.44411e-06
0.044556
-1.85673
-1.22248e-06
0.0445562
-1.85673
-9.99688e-07
0.0445563
-1.85673
-7.68712e-07
0.0445564
-1.85673
-4.93374e-07
0.0445566
-1.85673
-1.99396e-07
0.0445566
-1.85673
0.0445565
-1.85669
2.42408e-09
0.0302126
-1.86706
1.0699e-07
0.0302128
-1.8671
1.4574e-07
0.0302131
-1.8671
1.86707e-07
0.0302132
-1.8671
2.2627e-07
0.0302134
-1.8671
2.4587e-07
0.0302136
-1.8671
2.58273e-07
0.0302138
-1.8671
2.55687e-07
0.0302141
-1.8671
2.42373e-07
0.0302143
-1.8671
2.17043e-07
0.0302146
-1.8671
1.82495e-07
0.0302149
-1.8671
1.41829e-07
0.0302151
-1.8671
9.67332e-08
0.0302153
-1.8671
5.57555e-08
0.0302156
-1.8671
1.63156e-08
0.0302157
-1.8671
-5.1963e-09
0.0302159
-1.8671
-2.51694e-08
0.030216
-1.8671
-4.9446e-08
0.0302161
-1.8671
1.94821e-09
0.0302161
-1.8671
0.030216
-1.86706
-2.57395e-07
0.0162442
-1.85612
-5.06105e-07
0.0162445
-1.85616
-8.08353e-07
0.0162449
-1.85616
-1.0654e-06
0.016245
-1.85616
-1.27457e-06
0.0162451
-1.85616
-1.44078e-06
0.0162453
-1.85616
-1.55739e-06
0.0162455
-1.85616
-1.62745e-06
0.0162456
-1.85616
-1.64885e-06
0.0162458
-1.85616
-1.62559e-06
0.016246
-1.85616
-1.55964e-06
0.0162462
-1.85616
-1.45679e-06
0.0162464
-1.85616
-1.32413e-06
0.0162466
-1.85616
-1.16817e-06
0.0162467
-1.85616
-9.99718e-07
0.0162469
-1.85616
-8.20123e-07
0.016247
-1.85616
-6.42672e-07
0.0162471
-1.85616
-4.69581e-07
0.0162473
-1.85616
-2.25391e-07
0.0162471
-1.85616
0.0162469
-1.85612
2.54807e-07
-1.86085
-6.98551e-08
-1.86089
-3.02037e-07
-1.86089
-4.91342e-07
-1.86089
-6.02152e-07
-1.86089
-6.96407e-07
-1.86089
-7.58052e-07
-1.86089
-8.02383e-07
-1.86089
-8.23783e-07
-1.86089
-8.2654e-07
-1.86089
-8.1093e-07
-1.86089
-7.7766e-07
-1.86089
-7.31731e-07
-1.86089
-6.69305e-07
-1.86089
-6.06653e-07
-1.86089
-5.28712e-07
-1.86089
-4.99713e-07
-1.86089
-4.88877e-07
-1.86089
-5.49311e-07
-1.86089
-1.86085
2.31652e-09
0.00415003
-1.85195
-1.03971e-07
0.0041501
-1.85199
-1.16238e-07
0.00414994
-1.85199
-1.53536e-07
0.00414989
-1.85199
-1.61801e-07
0.00414977
-1.85199
-1.79391e-07
0.00414966
-1.85199
-1.86925e-07
0.00414952
-1.85199
-1.94814e-07
0.00414939
-1.85199
-1.96975e-07
0.00414924
-1.85199
-1.95848e-07
0.0041491
-1.85199
-1.90486e-07
0.00414896
-1.85199
-1.80154e-07
0.00414882
-1.85199
-1.67072e-07
0.0041487
-1.85199
-1.45543e-07
0.00414857
-1.85199
-1.25362e-07
0.00414847
-1.85199
-8.8636e-08
0.00414837
-1.85199
-7.29326e-08
0.00414831
-1.85199
-3.07056e-08
0.00414822
-1.85199
-7.80066e-08
0.00414827
-1.85199
0.00414813
-1.85195
-2.12692e-07
0.00737157
-1.84962
-3.05405e-07
0.00737169
-1.84966
-4.18281e-07
0.00737153
-1.84966
-5.15716e-07
0.00737141
-1.84966
-5.97244e-07
0.0073712
-1.84966
-6.63324e-07
0.007371
-1.84966
-7.08991e-07
0.00737075
-1.84966
-7.35863e-07
0.0073705
-1.84966
-7.42195e-07
0.00737023
-1.84965
-7.29984e-07
0.00736997
-1.84965
-6.99747e-07
0.00736971
-1.84965
-6.53272e-07
0.00736947
-1.84965
-5.93003e-07
0.00736924
-1.84965
-5.2019e-07
0.00736903
-1.84965
-4.38745e-07
0.00736886
-1.84965
-3.46947e-07
0.00736869
-1.84965
-2.47156e-07
0.00736857
-1.84965
-1.4258e-07
0.00736844
-1.84965
-1.37526e-08
0.00736843
-1.84965
0.00736822
-1.84961
6.80101e-08
0.0102572
-1.85533
2.30983e-07
0.0102574
-1.85537
3.53851e-07
0.0102574
-1.85537
4.87592e-07
0.0102573
-1.85537
5.97695e-07
0.0102573
-1.85537
6.78333e-07
0.0102572
-1.85537
7.33406e-07
0.0102572
-1.85537
7.63476e-07
0.0102571
-1.85537
7.7047e-07
0.0102571
-1.85537
7.56496e-07
0.010257
-1.85537
7.23265e-07
0.0102569
-1.85537
6.75936e-07
0.0102568
-1.85537
6.16071e-07
0.0102568
-1.85537
5.48805e-07
0.0102567
-1.85537
4.78673e-07
0.0102567
-1.85537
4.11025e-07
0.0102566
-1.85537
3.43068e-07
0.0102566
-1.85537
2.41508e-07
0.0102565
-1.85537
1.66504e-07
0.0102565
-1.85537
0.0102562
-1.85533
-2.43235e-07
0.0146475
-1.8508
-4.16634e-07
0.0146478
-1.85084
-5.86343e-07
0.0146477
-1.85084
-7.50535e-07
0.0146476
-1.85084
-8.91246e-07
0.0146475
-1.85084
-9.94765e-07
0.0146474
-1.85084
-1.06821e-06
0.0146472
-1.85084
-1.10901e-06
0.014647
-1.85084
-1.11904e-06
0.0146469
-1.85084
-1.10084e-06
0.0146467
-1.85084
-1.05402e-06
0.0146465
-1.85084
-9.86374e-07
0.0146464
-1.85084
-8.95911e-07
0.0146462
-1.85084
-7.93356e-07
0.0146461
-1.85084
-6.75588e-07
0.0146459
-1.85084
-5.57786e-07
0.0146458
-1.85084
-4.27303e-07
0.0146457
-1.85084
-2.73193e-07
0.0146457
-1.85084
-1.05283e-07
0.0146456
-1.85084
0.0146452
-1.8508
8.91358e-08
0.0188408
-1.85519
2.44706e-07
0.0188413
-1.85523
3.83108e-07
0.0188412
-1.85523
4.94899e-07
0.0188412
-1.85523
5.86144e-07
0.0188412
-1.85523
6.60799e-07
0.0188411
-1.85523
7.12779e-07
0.018841
-1.85523
7.4216e-07
0.018841
-1.85523
7.50097e-07
0.0188409
-1.85523
7.37742e-07
0.0188408
-1.85523
7.08247e-07
0.0188407
-1.85523
6.63378e-07
0.0188406
-1.85523
6.07392e-07
0.0188406
-1.85523
5.42067e-07
0.0188405
-1.85523
4.70638e-07
0.0188404
-1.85523
3.89286e-07
0.0188404
-1.85523
3.03846e-07
0.0188403
-1.85523
2.23659e-07
0.0188403
-1.85523
1.47759e-07
0.0188402
-1.85523
0.0188398
-1.85519
-1.69782e-07
0.0250961
-1.85156
-3.05581e-07
0.0250966
-1.8516
-4.34606e-07
0.0250965
-1.8516
-5.37157e-07
0.0250965
-1.8516
-6.23285e-07
0.0250964
-1.8516
-6.93251e-07
0.0250963
-1.8516
-7.42397e-07
0.0250961
-1.8516
-7.71043e-07
0.025096
-1.8516
-7.78106e-07
0.0250958
-1.8516
-7.6536e-07
0.0250957
-1.8516
-7.33266e-07
0.0250955
-1.8516
-6.84163e-07
0.0250954
-1.8516
-6.20136e-07
0.0250953
-1.8516
-5.44064e-07
0.0250951
-1.8516
-4.57533e-07
0.025095
-1.8516
-3.61473e-07
0.0250949
-1.8516
-2.58183e-07
0.0250949
-1.8516
-1.62956e-07
0.0250948
-1.8516
-6.50902e-08
0.0250948
-1.8516
0.0250942
-1.85156
-3.53538e-10
0.031179
-1.85384
5.60276e-08
0.0311796
-1.85388
1.06869e-07
0.0311796
-1.85388
1.45957e-07
0.0311795
-1.85388
1.7752e-07
0.0311795
-1.85388
2.02741e-07
0.0311794
-1.85388
2.2008e-07
0.0311792
-1.85388
2.2953e-07
0.0311791
-1.85388
2.32155e-07
0.031179
-1.85388
2.28642e-07
0.0311789
-1.85388
2.20342e-07
0.0311787
-1.85388
2.08467e-07
0.0311786
-1.85388
1.94293e-07
0.0311785
-1.85388
1.78833e-07
0.0311784
-1.85388
1.61975e-07
0.0311783
-1.85388
1.43206e-07
0.0311782
-1.85388
1.22579e-07
0.0311782
-1.85388
1.05158e-07
0.0311781
-1.85388
8.69578e-08
0.0311781
-1.85388
0.0311774
-1.85384
-1.22588e-07
0.0386443
-1.85277
-2.17685e-07
0.0386451
-1.85281
-3.06236e-07
0.038645
-1.85281
-3.74219e-07
0.038645
-1.85281
-4.31387e-07
0.0386448
-1.85281
-4.78271e-07
0.0386447
-1.85281
-5.11693e-07
0.0386446
-1.85281
-5.31493e-07
0.0386444
-1.85281
-5.36783e-07
0.0386442
-1.85281
-5.2803e-07
0.0386441
-1.85281
-5.05372e-07
0.0386439
-1.85281
-4.69939e-07
0.0386437
-1.85281
-4.23199e-07
0.0386436
-1.85281
-3.66505e-07
0.0386434
-1.85281
-3.02459e-07
0.0386433
-1.85281
-2.31417e-07
0.0386432
-1.85281
-1.57042e-07
0.0386432
-1.85281
-9.175e-08
0.0386431
-1.85281
-2.88303e-08
0.0386431
-1.85281
0.0386423
-1.85277
-9.52439e-08
0.0393632
-1.84018
-1.4523e-07
0.039364
-1.84022
-1.91408e-07
0.0393639
-1.84022
-2.29527e-07
0.0393638
-1.84022
-2.62117e-07
0.0393637
-1.84022
-2.88227e-07
0.0393636
-1.84022
-3.07087e-07
0.0393635
-1.84022
-3.18337e-07
0.0393633
-1.84022
-3.21355e-07
0.0393632
-1.84022
-3.16488e-07
0.039363
-1.84022
-3.03536e-07
0.0393629
-1.84022
-2.8291e-07
0.0393627
-1.84022
-2.55323e-07
0.0393626
-1.84022
-2.21284e-07
0.0393625
-1.84022
-1.81122e-07
0.0393624
-1.84022
-1.35979e-07
0.0393623
-1.84022
-8.86736e-08
0.0393623
-1.84022
-3.94183e-08
0.0393622
-1.84022
1.11706e-08
0.0393622
-1.84022
0.0393615
-1.84018
-4.42819e-08
0.0402317
-1.84225
-4.65475e-08
0.0402324
-1.84229
-4.80847e-08
0.0402324
-1.84229
-4.55401e-08
0.0402324
-1.84229
-4.17862e-08
0.0402323
-1.84229
-3.82251e-08
0.0402323
-1.84229
-3.49613e-08
0.0402322
-1.84229
-3.15747e-08
0.0402322
-1.84229
-2.80279e-08
0.0402321
-1.84229
-2.3558e-08
0.0402321
-1.84229
-1.82185e-08
0.040232
-1.84229
-1.13476e-08
0.040232
-1.84229
-2.76442e-09
0.0402319
-1.84229
8.29636e-09
0.0402319
-1.84229
1.99706e-08
0.0402318
-1.84229
3.38849e-08
0.0402318
-1.84228
4.59595e-08
0.0402318
-1.84228
4.92879e-08
0.0402318
-1.84228
4.89864e-08
0.0402318
-1.84228
0.0402312
-1.84224
-2.12287e-07
0.0409648
-1.84157
-3.93331e-07
0.0409654
-1.84161
-5.61235e-07
0.0409654
-1.84161
-6.98164e-07
0.0409654
-1.84161
-8.15056e-07
0.0409653
-1.84161
-9.07945e-07
0.0409653
-1.84161
-9.7499e-07
0.0409653
-1.84161
-1.01468e-06
0.0409652
-1.84161
-1.02683e-06
0.0409652
-1.84161
-1.01245e-06
0.0409652
-1.84161
-9.72712e-07
0.0409651
-1.84161
-9.10277e-07
0.0409651
-1.84161
-8.27307e-07
0.0409651
-1.84161
-7.27169e-07
0.0409651
-1.84161
-6.12677e-07
0.0409651
-1.84161
-4.86196e-07
0.0409651
-1.84161
-3.50823e-07
0.0409651
-1.84161
-2.19024e-07
0.0409651
-1.84161
-8.72534e-08
0.0409652
-1.84161
0.0409645
-1.84157
7.85016e-09
0.0404767
-1.84717
7.20261e-08
0.0404773
-1.84721
1.31999e-07
0.0404773
-1.84721
1.82951e-07
0.0404774
-1.84721
2.27192e-07
0.0404774
-1.84721
2.64282e-07
0.0404775
-1.84721
2.92562e-07
0.0404776
-1.84721
3.11604e-07
0.0404777
-1.84721
3.21439e-07
0.0404777
-1.84721
3.22577e-07
0.0404778
-1.84721
3.16274e-07
0.0404779
-1.84721
3.03982e-07
0.040478
-1.84721
2.87012e-07
0.0404781
-1.84721
2.66946e-07
0.0404782
-1.84721
2.4403e-07
0.0404782
-1.8472
2.17067e-07
0.0404783
-1.8472
1.84684e-07
0.0404784
-1.8472
1.48057e-07
0.0404785
-1.8472
1.04566e-07
0.0404785
-1.8472
0.040478
-1.84716
-3.1778e-07
0.0398737
-1.84465
-6.09942e-07
0.0398743
-1.84469
-8.84454e-07
0.0398743
-1.84469
-1.10138e-06
0.0398743
-1.84469
-1.28852e-06
0.0398744
-1.84469
-1.43956e-06
0.0398744
-1.84469
-1.54998e-06
0.0398745
-1.84469
-1.61622e-06
0.0398745
-1.84469
-1.63811e-06
0.0398746
-1.84469
-1.61675e-06
0.0398747
-1.84469
-1.55458e-06
0.0398747
-1.84469
-1.45598e-06
0.0398748
-1.84469
-1.32469e-06
0.0398749
-1.84469
-1.16677e-06
0.0398749
-1.84469
-9.86072e-07
0.039875
-1.84469
-7.85071e-07
0.0398751
-1.84469
-5.68212e-07
0.0398752
-1.84469
-3.68419e-07
0.0398753
-1.84469
-1.68187e-07
0.0398753
-1.84469
0.0398748
-1.84465
6.56875e-08
0.0368045
-1.85322
2.01414e-07
0.036805
-1.85326
3.25858e-07
0.0368051
-1.85326
4.20446e-07
0.0368052
-1.85326
5.00772e-07
0.0368054
-1.85326
5.70391e-07
0.0368056
-1.85326
6.22023e-07
0.0368058
-1.85326
6.55729e-07
0.036806
-1.85326
6.70544e-07
0.0368062
-1.85326
6.67202e-07
0.0368064
-1.85326
6.47774e-07
0.0368066
-1.85326
6.14181e-07
0.0368068
-1.85326
5.69726e-07
0.036807
-1.85326
5.1557e-07
0.0368072
-1.85326
4.54649e-07
0.0368074
-1.85326
3.81252e-07
0.0368075
-1.85326
2.98905e-07
0.0368076
-1.85326
2.23552e-07
0.0368078
-1.85326
1.43354e-07
0.0368078
-1.85326
0.0368074
-1.85322
-3.91332e-07
0.033707
-1.84843
-7.61817e-07
0.0337075
-1.84847
-1.11441e-06
0.0337076
-1.84847
-1.38571e-06
0.0337076
-1.84847
-1.62042e-06
0.0337077
-1.84847
-1.81509e-06
0.0337078
-1.84847
-1.95792e-06
0.0337079
-1.84847
-2.04382e-06
0.0337081
-1.84847
-2.07286e-06
0.0337082
-1.84847
-2.0462e-06
0.0337084
-1.84847
-1.96752e-06
0.0337085
-1.84847
-1.84306e-06
0.0337087
-1.84847
-1.67791e-06
0.0337088
-1.84846
-1.48131e-06
0.033709
-1.84846
-1.2569e-06
0.0337091
-1.84846
-1.00362e-06
0.0337092
-1.84846
-7.28938e-07
0.0337093
-1.84846
-4.86172e-07
0.0337095
-1.84846
-2.34601e-07
0.0337096
-1.84846
0.0337092
-1.84842
1.10249e-07
0.0275525
-1.85822
3.08427e-07
0.0275529
-1.85826
4.82e-07
0.027553
-1.85826
5.93559e-07
0.0275532
-1.85826
6.86775e-07
0.0275534
-1.85826
7.7701e-07
0.0275536
-1.85826
8.42925e-07
0.0275538
-1.85826
8.84779e-07
0.027554
-1.85826
9.0047e-07
0.0275543
-1.85826
8.90473e-07
0.0275546
-1.85826
8.57702e-07
0.0275548
-1.85826
8.04336e-07
0.0275551
-1.85826
7.35353e-07
0.0275553
-1.85826
6.51613e-07
0.0275555
-1.85826
5.59585e-07
0.0275557
-1.85826
4.4054e-07
0.0275558
-1.85826
3.12345e-07
0.027556
-1.85826
2.20358e-07
0.0275561
-1.85826
1.40583e-07
0.0275561
-1.85826
0.0275558
-1.85822
-3.87742e-07
0.021637
-1.85078
-7.26723e-07
0.0216374
-1.85082
-1.04901e-06
0.0216375
-1.85082
-1.38916e-06
0.0216377
-1.85082
-1.68009e-06
0.0216378
-1.85082
-1.8973e-06
0.0216378
-1.85082
-2.05392e-06
0.021638
-1.85082
-2.14601e-06
0.0216381
-1.85082
-2.1759e-06
0.0216382
-1.85082
-2.14673e-06
0.0216383
-1.85082
-2.06235e-06
0.0216385
-1.85082
-1.93143e-06
0.0216386
-1.85082
-1.76002e-06
0.0216387
-1.85082
-1.56265e-06
0.0216389
-1.85082
-1.34242e-06
0.021639
-1.85082
-1.12549e-06
0.0216391
-1.85082
-8.9365e-07
0.0216392
-1.85082
-5.8959e-07
0.0216392
-1.85082
-2.70888e-07
0.0216392
-1.85082
0.0216389
-1.85078
8.17488e-08
0.0136724
-1.8591
1.95656e-07
0.0136729
-1.85914
2.44297e-07
0.0136731
-1.85914
3.45396e-07
0.0136732
-1.85914
4.40752e-07
0.0136734
-1.85914
5.02839e-07
0.0136735
-1.85914
5.51359e-07
0.0136736
-1.85914
5.7613e-07
0.0136738
-1.85914
5.8293e-07
0.0136739
-1.85914
5.69229e-07
0.0136741
-1.85914
5.38869e-07
0.0136742
-1.85914
4.94476e-07
0.0136744
-1.85914
4.38669e-07
0.0136745
-1.85914
3.81073e-07
0.0136746
-1.85914
3.18644e-07
0.0136747
-1.85914
2.74165e-07
0.0136748
-1.85914
2.2277e-07
0.0136748
-1.85914
1.08056e-07
0.0136749
-1.85914
5.45013e-08
0.0136747
-1.85914
0.0136743
-1.8591
-2.39687e-07
0.00663965
-1.84909
-5.02808e-07
0.00664037
-1.84913
-8.10368e-07
0.00664072
-1.84913
-1.0627e-06
0.00664081
-1.84913
-1.26764e-06
0.00664092
-1.84913
-1.43133e-06
0.00664101
-1.84913
-1.54596e-06
0.00664112
-1.84913
-1.61553e-06
0.00664122
-1.84913
-1.63774e-06
0.00664133
-1.84913
-1.61441e-06
0.00664145
-1.84913
-1.55084e-06
0.00664156
-1.84913
-1.45171e-06
0.00664167
-1.84913
-1.32566e-06
0.00664178
-1.84913
-1.17281e-06
0.00664188
-1.84913
-1.00823e-06
0.00664197
-1.84913
-8.2748e-07
0.00664207
-1.84913
-6.43752e-07
0.00664211
-1.84913
-4.71314e-07
0.00664216
-1.84913
-2.43347e-07
0.00664193
-1.84913
0.00664129
-1.84909
3.70033e-07
-1.85421
-5.25966e-08
-1.85425
-3.45107e-07
-1.85425
-5.45662e-07
-1.85425
-6.585e-07
-1.85425
-7.5134e-07
-1.85425
-8.09293e-07
-1.85425
-8.49011e-07
-1.85425
-8.63979e-07
-1.85425
-8.59763e-07
-1.85425
-8.3601e-07
-1.85425
-7.94032e-07
-1.85425
-7.39319e-07
-1.85425
-6.67667e-07
-1.85425
-5.95809e-07
-1.85425
-5.11562e-07
-1.85425
-4.81122e-07
-1.85425
-5.19614e-07
-1.85425
-6.78158e-07
-1.85425
-1.85421
-1.28846e-07
-0.00314635
-1.8488
-2.14124e-07
-0.00314599
-1.84884
-1.9085e-07
-0.00314605
-1.84884
-2.19647e-07
-0.00314603
-1.84884
-2.30441e-07
-0.00314607
-1.84884
-2.5355e-07
-0.00314608
-1.84884
-2.6614e-07
-0.0031461
-1.84884
-2.78407e-07
-0.00314612
-1.84884
-2.83197e-07
-0.00314615
-1.84884
-2.83228e-07
-0.00314618
-1.84884
-2.77245e-07
-0.0031462
-1.84884
-2.64654e-07
-0.00314623
-1.84884
-2.47384e-07
-0.00314625
-1.84884
-2.18524e-07
-0.00314627
-1.84884
-1.87958e-07
-0.00314628
-1.84884
-1.33458e-07
-0.00314631
-1.84884
-8.91169e-08
-0.00314631
-1.84884
1.45347e-08
-0.00314635
-1.84884
1.46458e-08
-0.00314632
-1.84884
-0.00314669
-1.8488
-2.45362e-07
0.000118939
-1.85288
-3.08529e-07
0.000119298
-1.85292
-3.8262e-07
0.000119295
-1.85292
-4.56614e-07
0.000119384
-1.85292
-5.21541e-07
0.000119451
-1.85292
-5.78095e-07
0.000119561
-1.85292
-6.1586e-07
0.000119662
-1.85292
-6.39091e-07
0.00011978
-1.85292
-6.45173e-07
0.000119897
-1.85292
-6.35493e-07
0.000120015
-1.85292
-6.10716e-07
0.000120131
-1.85292
-5.71133e-07
0.000120239
-1.85292
-5.19629e-07
0.000120344
-1.85292
-4.55812e-07
0.000120432
-1.85292
-3.83e-07
0.000120521
-1.85292
-2.94537e-07
0.000120577
-1.85292
-1.98578e-07
0.000120653
-1.85292
-7.78545e-08
0.00012067
-1.85292
5.15979e-08
0.000120748
-1.85292
0.000120424
-1.85288
-3.76056e-08
0.00306098
-1.85827
9.0109e-08
0.00306128
-1.85831
1.72942e-07
0.00306123
-1.85831
2.73443e-07
0.00306116
-1.85831
3.54183e-07
0.0030611
-1.85831
4.09821e-07
0.00306106
-1.85831
4.46903e-07
0.00306099
-1.85831
4.67415e-07
0.00306091
-1.85831
4.72715e-07
0.00306083
-1.85831
4.64243e-07
0.00306075
-1.85831
4.44332e-07
0.00306067
-1.85831
4.15259e-07
0.00306059
-1.85831
3.80637e-07
0.00306052
-1.85831
3.42159e-07
0.00306045
-1.85831
3.05907e-07
0.00306039
-1.85831
2.77027e-07
0.00306033
-1.85831
2.5516e-07
0.00306029
-1.85831
1.99861e-07
0.00306029
-1.85831
1.83897e-07
0.00306028
-1.85831
0.00305995
-1.85827
-2.43014e-07
0.00854322
-1.85628
-3.69621e-07
0.00854357
-1.85632
-5.01042e-07
0.00854352
-1.85632
-6.39212e-07
0.00854348
-1.85632
-7.6028e-07
0.00854341
-1.85632
-8.48015e-07
0.00854334
-1.85632
-9.11763e-07
0.00854326
-1.85632
-9.47535e-07
0.00854317
-1.85632
-9.57965e-07
0.00854308
-1.85632
-9.44639e-07
0.00854298
-1.85632
-9.06887e-07
0.00854289
-1.85632
-8.52163e-07
0.00854281
-1.85632
-7.76678e-07
0.00854273
-1.85632
-6.91185e-07
0.00854267
-1.85632
-5.9044e-07
0.00854261
-1.85632
-4.90221e-07
0.00854255
-1.85632
-3.74724e-07
0.00854252
-1.85632
-2.27063e-07
0.00854248
-1.85632
-5.86093e-08
0.00854246
-1.85632
0.00854208
-1.85628
2.73888e-08
0.0139361
-1.86059
1.6619e-07
0.0139365
-1.86063
2.84446e-07
0.0139365
-1.86063
3.7551e-07
0.0139365
-1.86063
4.49717e-07
0.0139364
-1.86063
5.09948e-07
0.0139363
-1.86063
5.52364e-07
0.0139363
-1.86063
5.76854e-07
0.0139362
-1.86063
5.84978e-07
0.0139361
-1.86063
5.77384e-07
0.013936
-1.86063
5.56909e-07
0.0139359
-1.86063
5.24471e-07
0.0139358
-1.86063
4.8397e-07
0.0139357
-1.86063
4.37329e-07
0.0139356
-1.86063
3.85273e-07
0.0139355
-1.86063
3.26336e-07
0.0139355
-1.86063
2.63689e-07
0.0139354
-1.86063
2.08987e-07
0.0139354
-1.86063
1.65269e-07
0.0139354
-1.86063
0.0139349
-1.86059
-1.75928e-07
0.0211171
-1.85874
-2.79128e-07
0.0211176
-1.85878
-3.83198e-07
0.0211175
-1.85878
-4.66412e-07
0.0211175
-1.85878
-5.37197e-07
0.0211174
-1.85878
-5.96116e-07
0.0211173
-1.85878
-6.37738e-07
0.0211172
-1.85878
-6.62336e-07
0.0211171
-1.85878
-6.68588e-07
0.021117
-1.85878
-6.58052e-07
0.0211169
-1.85878
-6.30977e-07
0.0211167
-1.85878
-5.89286e-07
0.0211166
-1.85878
-5.34291e-07
0.0211165
-1.85878
-4.67412e-07
0.0211164
-1.85878
-3.92358e-07
0.0211164
-1.85878
-3.05473e-07
0.0211163
-1.85878
-2.11833e-07
0.0211163
-1.85878
-1.22331e-07
0.0211162
-1.85878
-2.56921e-08
0.0211162
-1.85878
0.0211156
-1.85874
-3.55369e-08
0.0282431
-1.86097
2.10827e-08
0.0282437
-1.86101
6.88141e-08
0.0282437
-1.86101
1.0166e-07
0.0282437
-1.86101
1.27988e-07
0.0282436
-1.86101
1.48924e-07
0.0282435
-1.86101
1.63603e-07
0.0282434
-1.86101
1.72526e-07
0.0282433
-1.86101
1.76462e-07
0.0282432
-1.86101
1.76177e-07
0.0282431
-1.86101
1.72828e-07
0.028243
-1.86101
1.66991e-07
0.0282429
-1.86101
1.59894e-07
0.0282428
-1.86101
1.51741e-07
0.0282427
-1.86101
1.42924e-07
0.0282426
-1.86101
1.31607e-07
0.0282426
-1.86101
1.19148e-07
0.0282425
-1.86101
1.12135e-07
0.0282425
-1.86101
1.08433e-07
0.0282425
-1.86101
0.0282418
-1.86097
-1.30087e-07
0.0363474
-1.86087
-1.98938e-07
0.0363482
-1.86091
-2.66255e-07
0.0363481
-1.86091
-3.17014e-07
0.0363481
-1.86091
-3.59964e-07
0.036348
-1.86091
-3.95187e-07
0.036348
-1.86091
-4.19806e-07
0.0363479
-1.86091
-4.33305e-07
0.0363478
-1.86091