/*--------------------------------*- C++ -*----------------------------------*\
| =========                 |                                                 |
| \\      /  F ield         | OpenFOAM: The Open Source CFD Toolbox           |
|  \\    /   O peration     | Version:  2212                                  |
|   \\  /    A nd           | Website:  www.openfoam.com                      |
|    \\/     M anipulation  |                                                 |
\*---------------------------------------------------------------------------*/
FoamFile
{
    version     2.0;
    format      ascii;
    arch        "LSB;label=32;scalar=64";
    class       volVectorField;
    location    "0.312";
    object      UMean;
}
// * * * * * * * * * * * * * * * * * * * * * * * * * * * * * * * * * * * * * //

dimensions      [0 1 -1 0 0 0 0];

internalField   nonuniform List<vector> 
24240
(
(9.31275 0.654588 9.07562e-07)
(9.31286 0.654597 -3.86851e-07)
(9.31286 0.654596 -5.96294e-08)
(9.31286 0.654595 -3.97037e-07)
(9.31286 0.654594 -3.87882e-07)
(9.31286 0.654593 -5.32733e-07)
(9.31286 0.654591 -5.97844e-07)
(9.31286 0.65459 -6.98766e-07)
(9.31286 0.654589 -7.70791e-07)
(9.31286 0.654587 -8.40819e-07)
(9.31285 0.654586 -8.84883e-07)
(9.31285 0.654585 -9.12867e-07)
(9.31285 0.654583 -9.05996e-07)
(9.31285 0.654582 -8.8719e-07)
(9.31285 0.654582 -8.10369e-07)
(9.31285 0.654581 -7.76926e-07)
(9.31285 0.65458 -5.80887e-07)
(9.31285 0.65458 -6.93487e-07)
(9.31285 0.65458 -1.22518e-07)
(9.31275 0.654571 -1.12884e-06)
(9.09419 0.659455 -4.70431e-07)
(9.0943 0.659465 -9.69582e-07)
(9.0943 0.659465 -1.38984e-06)
(9.0943 0.659466 -1.93592e-06)
(9.0943 0.659467 -2.29982e-06)
(9.0943 0.659468 -2.65966e-06)
(9.0943 0.659469 -2.89318e-06)
(9.0943 0.65947 -3.06544e-06)
(9.0943 0.659471 -3.13716e-06)
(9.0943 0.659473 -3.1345e-06)
(9.0943 0.659474 -3.04807e-06)
(9.0943 0.659475 -2.89486e-06)
(9.0943 0.659476 -2.67298e-06)
(9.0943 0.659477 -2.4106e-06)
(9.0943 0.659478 -2.09078e-06)
(9.0943 0.659479 -1.7817e-06)
(9.0943 0.659479 -1.38661e-06)
(9.0943 0.659479 -1.08e-06)
(9.09431 0.65948 -5.73779e-07)
(9.0942 0.659471 -8.29196e-08)
(9.12359 0.374246 -8.20621e-08)
(9.1237 0.374252 3.65448e-07)
(9.1237 0.374252 8.13707e-07)
(9.1237 0.374252 1.03545e-06)
(9.1237 0.374252 1.30441e-06)
(9.1237 0.374252 1.4226e-06)
(9.1237 0.374253 1.50608e-06)
(9.12369 0.374253 1.49793e-06)
(9.12369 0.374253 1.44039e-06)
(9.12369 0.374253 1.32721e-06)
(9.12369 0.374253 1.18237e-06)
(9.12369 0.374253 1.01087e-06)
(9.12369 0.374253 8.34827e-07)
(9.12369 0.374254 6.55348e-07)
(9.12369 0.374254 5.06984e-07)
(9.12369 0.374254 3.47564e-07)
(9.12369 0.374254 2.80644e-07)
(9.12369 0.374254 1.38627e-07)
(9.12369 0.374254 1.6968e-07)
(9.12358 0.374248 2.10663e-07)
(8.96284 0.371229 -3.54524e-07)
(8.96295 0.371236 -8.7671e-07)
(8.96295 0.371235 -1.28229e-06)
(8.96295 0.371235 -1.73609e-06)
(8.96295 0.371235 -2.09771e-06)
(8.96295 0.371235 -2.40726e-06)
(8.96295 0.371235 -2.62049e-06)
(8.96295 0.371235 -2.7644e-06)
(8.96295 0.371235 -2.81988e-06)
(8.96296 0.371235 -2.80137e-06)
(8.96296 0.371236 -2.70706e-06)
(8.96296 0.371236 -2.5489e-06)
(8.96296 0.371236 -2.3304e-06)
(8.96296 0.371236 -2.07238e-06)
(8.96296 0.371236 -1.77025e-06)
(8.96296 0.371236 -1.46189e-06)
(8.96296 0.371236 -1.11851e-06)
(8.96296 0.371236 -7.95864e-07)
(8.96296 0.371236 -3.80719e-07)
(8.96285 0.37123 -8.01716e-08)
(8.97801 0.207402 2.49742e-08)
(8.97812 0.207406 4.0516e-07)
(8.97812 0.207407 8.16886e-07)
(8.97812 0.207407 1.0887e-06)
(8.97812 0.207407 1.32222e-06)
(8.97812 0.207408 1.47215e-06)
(8.97812 0.207408 1.56664e-06)
(8.97812 0.207409 1.58645e-06)
(8.97812 0.20741 1.55303e-06)
(8.97812 0.20741 1.46654e-06)
(8.97811 0.207411 1.3452e-06)
(8.97811 0.207411 1.19625e-06)
(8.97811 0.207412 1.03691e-06)
(8.97811 0.207412 8.71691e-07)
(8.97811 0.207412 7.21795e-07)
(8.97811 0.207413 5.76391e-07)
(8.97811 0.207413 4.60963e-07)
(8.97811 0.207413 3.41505e-07)
(8.97811 0.207413 2.96055e-07)
(8.978 0.20741 1.81444e-07)
(8.87845 0.200771 -2.2732e-07)
(8.87856 0.200775 -5.56717e-07)
(8.87856 0.200775 -8.20424e-07)
(8.87856 0.200774 -1.10122e-06)
(8.87856 0.200774 -1.31531e-06)
(8.87856 0.200773 -1.50997e-06)
(8.87856 0.200772 -1.64523e-06)
(8.87856 0.200771 -1.74029e-06)
(8.87856 0.20077 -1.77974e-06)
(8.87856 0.200769 -1.77327e-06)
(8.87856 0.200769 -1.71667e-06)
(8.87856 0.200768 -1.61894e-06)
(8.87856 0.200767 -1.47842e-06)
(8.87856 0.200766 -1.31129e-06)
(8.87856 0.200766 -1.10732e-06)
(8.87856 0.200765 -8.98601e-07)
(8.87856 0.200765 -6.49911e-07)
(8.87856 0.200765 -4.31743e-07)
(8.87856 0.200764 -1.7818e-07)
(8.87846 0.200761 -1.89552e-08)
(8.88689 0.0924653 -7.94788e-08)
(8.887 0.0924672 2.76187e-09)
(8.887 0.0924672 1.18639e-07)
(8.887 0.0924674 1.59318e-07)
(8.887 0.0924675 1.93542e-07)
(8.887 0.0924677 1.99289e-07)
(8.887 0.0924679 1.91975e-07)
(8.887 0.0924681 1.61781e-07)
(8.887 0.0924683 1.2014e-07)
(8.887 0.0924685 6.57983e-08)
(8.887 0.0924687 8.69099e-09)
(8.887 0.0924688 -4.97805e-08)
(8.887 0.092469 -9.80409e-08)
(8.887 0.0924691 -1.37795e-07)
(8.887 0.0924692 -1.53632e-07)
(8.887 0.0924692 -1.58019e-07)
(8.887 0.0924693 -1.3033e-07)
(8.887 0.0924692 -9.8668e-08)
(8.88699 0.0924692 4.92553e-10)
(8.88689 0.0924674 6.42706e-08)
(8.84036 0.0825867 -1.67375e-07)
(8.84047 0.0825882 -4.24355e-07)
(8.84047 0.0825879 -6.29552e-07)
(8.84047 0.0825876 -8.47782e-07)
(8.84047 0.0825871 -1.01422e-06)
(8.84047 0.0825866 -1.164e-06)
(8.84047 0.0825861 -1.26938e-06)
(8.84047 0.0825855 -1.34528e-06)
(8.84047 0.0825848 -1.38142e-06)
(8.84047 0.0825842 -1.38578e-06)
(8.84047 0.0825836 -1.35445e-06)
(8.84048 0.082583 -1.2946e-06)
(8.84048 0.0825824 -1.20093e-06)
(8.84048 0.0825819 -1.08743e-06)
(8.84048 0.0825813 -9.41201e-07)
(8.84048 0.0825809 -7.92148e-07)
(8.84048 0.0825805 -6.06727e-07)
(8.84048 0.0825801 -4.46073e-07)
(8.84048 0.0825799 -2.29786e-07)
(8.84037 0.0825782 -5.09515e-08)
(8.84768 -0.000458587 -1.55186e-07)
(8.84778 -0.000458668 -2.813e-07)
(8.84778 -0.000458697 -3.79585e-07)
(8.84778 -0.000458711 -5.1005e-07)
(8.84778 -0.000458751 -6.18783e-07)
(8.84778 -0.000458793 -7.23368e-07)
(8.84778 -0.000458847 -8.09306e-07)
(8.84778 -0.000458908 -8.85934e-07)
(8.84778 -0.00045898 -9.47344e-07)
(8.84778 -0.000459064 -9.98022e-07)
(8.84779 -0.000459164 -1.03275e-06)
(8.84779 -0.000459278 -1.05415e-06)
(8.84779 -0.000459409 -1.05185e-06)
(8.84779 -0.000459553 -1.03114e-06)
(8.84779 -0.000459708 -9.73149e-07)
(8.84779 -0.000459866 -8.96126e-07)
(8.84779 -0.000460024 -7.63456e-07)
(8.84779 -0.000460175 -6.17524e-07)
(8.84779 -0.000460301 -3.6153e-07)
(8.84768 -0.000460282 -6.52951e-08)
(8.84625 -0.0166713 -1.91843e-07)
(8.84636 -0.0166721 -4.52726e-07)
(8.84636 -0.0166727 -6.67284e-07)
(8.84636 -0.0166737 -8.95292e-07)
(8.84636 -0.0166749 -1.08152e-06)
(8.84636 -0.0166763 -1.24465e-06)
(8.84636 -0.0166779 -1.36783e-06)
(8.84636 -0.0166796 -1.46127e-06)
(8.84636 -0.0166814 -1.51947e-06)
(8.84636 -0.0166832 -1.54864e-06)
(8.84636 -0.0166849 -1.5448e-06)
(8.84636 -0.0166865 -1.5134e-06)
(8.84636 -0.016688 -1.44547e-06)
(8.84636 -0.0166894 -1.3524e-06)
(8.84636 -0.0166905 -1.21825e-06)
(8.84636 -0.0166915 -1.07153e-06)
(8.84636 -0.0166923 -8.76209e-07)
(8.84636 -0.0166929 -6.85848e-07)
(8.84636 -0.0166933 -3.90586e-07)
(8.84625 -0.016693 -8.31552e-08)
(8.85454 -0.0931773 -3.94546e-07)
(8.85464 -0.0931792 -1.11109e-06)
(8.85464 -0.0931792 -1.74538e-06)
(8.85465 -0.093179 -2.3465e-06)
(8.85465 -0.0931789 -2.84886e-06)
(8.85465 -0.0931787 -3.26738e-06)
(8.85465 -0.0931785 -3.57882e-06)
(8.85465 -0.0931783 -3.79195e-06)
(8.85465 -0.0931781 -3.90284e-06)
(8.85465 -0.0931779 -3.92014e-06)
(8.85465 -0.0931778 -3.84626e-06)
(8.85465 -0.0931777 -3.69204e-06)
(8.85465 -0.0931777 -3.45757e-06)
(8.85465 -0.0931777 -3.16078e-06)
(8.85465 -0.0931777 -2.79508e-06)
(8.85465 -0.0931777 -2.39817e-06)
(8.85465 -0.0931778 -1.93085e-06)
(8.85466 -0.0931778 -1.46015e-06)
(8.85466 -0.0931779 -8.4449e-07)
(8.85455 -0.0931759 -2.34767e-07)
(8.89763 -0.109805 -1.9535e-07)
(8.89774 -0.109807 -3.57539e-07)
(8.89773 -0.109807 -4.8599e-07)
(8.89773 -0.109808 -6.49987e-07)
(8.89773 -0.109809 -7.9616e-07)
(8.89773 -0.10981 -9.33682e-07)
(8.89773 -0.109811 -1.05241e-06)
(8.89773 -0.109812 -1.15972e-06)
(8.89773 -0.109813 -1.25004e-06)
(8.89773 -0.109814 -1.32699e-06)
(8.89773 -0.109815 -1.38201e-06)
(8.89773 -0.109816 -1.41628e-06)
(8.89773 -0.109817 -1.41434e-06)
(8.89773 -0.109817 -1.38119e-06)
(8.89773 -0.109818 -1.29365e-06)
(8.89773 -0.109819 -1.17696e-06)
(8.89773 -0.109819 -9.95059e-07)
(8.89773 -0.109819 -7.91953e-07)
(8.89773 -0.109819 -4.51077e-07)
(8.89762 -0.109817 -6.84307e-08)
(8.9059 -0.202614 -5.42527e-07)
(8.906 -0.202619 -1.60769e-06)
(8.906 -0.202619 -2.54594e-06)
(8.906 -0.202619 -3.42386e-06)
(8.90601 -0.202618 -4.15312e-06)
(8.90601 -0.202618 -4.7645e-06)
(8.90601 -0.202618 -5.21935e-06)
(8.90601 -0.202618 -5.52572e-06)
(8.90601 -0.202618 -5.67672e-06)
(8.90601 -0.202618 -5.68191e-06)
(8.90601 -0.202618 -5.54583e-06)
(8.90601 -0.202618 -5.28231e-06)
(8.90602 -0.202618 -4.89842e-06)
(8.90602 -0.202619 -4.41878e-06)
(8.90602 -0.202619 -3.84401e-06)
(8.90602 -0.202619 -3.22883e-06)
(8.90602 -0.202619 -2.52806e-06)
(8.90602 -0.202619 -1.85103e-06)
(8.90602 -0.202619 -1.02282e-06)
(8.90591 -0.202615 -2.85364e-07)
(8.99931 -0.214656 -2.28888e-07)
(8.99942 -0.21466 -3.47086e-07)
(8.99941 -0.214661 -4.27275e-07)
(8.99941 -0.214661 -5.79238e-07)
(8.99941 -0.214661 -7.32794e-07)
(8.99941 -0.214662 -8.82628e-07)
(8.99941 -0.214663 -1.02228e-06)
(8.99941 -0.214663 -1.15871e-06)
(8.99941 -0.214664 -1.28223e-06)
(8.99941 -0.214665 -1.3957e-06)
(8.99941 -0.214665 -1.48426e-06)
(8.99941 -0.214666 -1.54784e-06)
(8.99941 -0.214666 -1.56431e-06)
(8.99941 -0.214667 -1.53749e-06)
(8.99941 -0.214667 -1.44114e-06)
(8.99941 -0.214667 -1.30198e-06)
(8.99941 -0.214668 -1.09484e-06)
(8.99941 -0.214668 -8.46384e-07)
(8.99941 -0.214668 -4.51671e-07)
(8.9993 -0.214663 -3.78472e-08)
(9.00267 -0.349973 -6.41971e-07)
(9.00278 -0.34998 -1.92152e-06)
(9.00278 -0.34998 -3.05485e-06)
(9.00278 -0.34998 -4.11972e-06)
(9.00279 -0.34998 -4.99049e-06)
(9.00279 -0.34998 -5.73787e-06)
(9.00279 -0.34998 -6.29097e-06)
(9.00279 -0.349979 -6.66225e-06)
(9.00279 -0.349979 -6.83757e-06)
(9.00279 -0.349979 -6.82767e-06)
(9.00279 -0.349979 -6.63669e-06)
(9.0028 -0.349979 -6.28312e-06)
(9.0028 -0.349979 -5.77899e-06)
(9.0028 -0.349979 -5.15753e-06)
(9.0028 -0.34998 -4.42897e-06)
(9.0028 -0.34998 -3.66542e-06)
(9.0028 -0.34998 -2.8072e-06)
(9.0028 -0.34998 -2.0272e-06)
(9.0028 -0.34998 -1.11602e-06)
(9.00269 -0.349973 -3.20817e-07)
(9.15753 -0.354909 -2.50302e-07)
(9.15763 -0.354916 -2.57627e-07)
(9.15763 -0.354916 -2.39922e-07)
(9.15763 -0.354916 -3.82222e-07)
(9.15763 -0.354917 -5.47866e-07)
(9.15763 -0.354917 -7.17644e-07)
(9.15763 -0.354917 -8.81341e-07)
(9.15763 -0.354917 -1.0601e-06)
(9.15763 -0.354918 -1.23002e-06)
(9.15763 -0.354918 -1.39868e-06)
(9.15763 -0.354918 -1.54138e-06)
(9.15763 -0.354918 -1.65826e-06)
(9.15762 -0.354919 -1.71845e-06)
(9.15762 -0.354919 -1.72917e-06)
(9.15762 -0.354919 -1.65549e-06)
(9.15762 -0.354919 -1.5324e-06)
(9.15762 -0.354919 -1.34763e-06)
(9.15762 -0.354919 -1.1182e-06)
(9.15762 -0.354919 -6.74877e-07)
(9.15751 -0.354913 -1.02881e-07)
(9.14669 -0.579755 -6.66977e-07)
(9.1468 -0.579765 -1.98377e-06)
(9.1468 -0.579765 -3.12116e-06)
(9.1468 -0.579765 -4.29307e-06)
(9.1468 -0.579766 -5.30781e-06)
(9.1468 -0.579766 -6.14058e-06)
(9.1468 -0.579766 -6.75864e-06)
(9.1468 -0.579767 -7.17626e-06)
(9.1468 -0.579767 -7.37354e-06)
(9.14681 -0.579767 -7.36651e-06)
(9.14681 -0.579768 -7.15486e-06)
(9.14681 -0.579768 -6.76415e-06)
(9.14681 -0.579769 -6.20699e-06)
(9.14681 -0.579769 -5.53045e-06)
(9.14681 -0.57977 -4.74857e-06)
(9.14681 -0.57977 -3.94225e-06)
(9.14681 -0.57977 -3.10704e-06)
(9.14681 -0.579771 -2.33317e-06)
(9.14681 -0.579771 -1.28543e-06)
(9.14671 -0.579761 -3.66327e-07)
(9.3767 -0.574546 -3.94056e-07)
(9.37681 -0.574555 -3.85207e-07)
(9.37681 -0.574555 -4.92608e-07)
(9.3768 -0.574554 -8.20654e-07)
(9.3768 -0.574554 -1.00103e-06)
(9.3768 -0.574553 -1.28957e-06)
(9.3768 -0.574553 -1.51395e-06)
(9.3768 -0.574552 -1.76627e-06)
(9.3768 -0.574551 -1.9798e-06)
(9.3768 -0.574551 -2.18124e-06)
(9.3768 -0.57455 -2.33321e-06)
(9.3768 -0.57455 -2.44587e-06)
(9.3768 -0.574549 -2.47872e-06)
(9.3768 -0.574549 -2.45834e-06)
(9.3768 -0.574548 -2.31295e-06)
(9.3768 -0.574548 -2.13958e-06)
(9.37679 -0.574548 -1.77218e-06)
(9.37679 -0.574547 -1.48904e-06)
(9.37679 -0.574547 -9.29124e-07)
(9.37669 -0.574538 -9.90254e-08)
(9.33395 -0.980847 -5.71881e-07)
(9.33405 -0.980861 -1.54654e-06)
(9.33406 -0.980861 -2.60065e-06)
(9.33406 -0.980861 -3.7217e-06)
(9.33406 -0.980862 -4.54544e-06)
(9.33406 -0.980863 -5.30574e-06)
(9.33406 -0.980864 -5.84006e-06)
(9.33406 -0.980866 -6.22928e-06)
(9.33406 -0.980867 -6.41599e-06)
(9.33406 -0.980868 -6.43471e-06)
(9.33406 -0.980869 -6.26857e-06)
(9.33406 -0.98087 -5.95208e-06)
(9.33406 -0.980871 -5.47992e-06)
(9.33406 -0.980872 -4.91643e-06)
(9.33406 -0.980872 -4.23148e-06)
(9.33406 -0.980873 -3.55972e-06)
(9.33406 -0.980873 -2.74815e-06)
(9.33406 -0.980873 -2.13108e-06)
(9.33406 -0.980874 -1.25428e-06)
(9.33396 -0.98086 -3.04618e-07)
(9.63978 -0.960375 1.13921e-06)
(9.63988 -0.960386 -6.77063e-07)
(9.63987 -0.960384 -1.0713e-06)
(9.63987 -0.960383 -2.13288e-06)
(9.63987 -0.960382 -2.58322e-06)
(9.63987 -0.960381 -3.14984e-06)
(9.63987 -0.960379 -3.51685e-06)
(9.63987 -0.960378 -3.85267e-06)
(9.63987 -0.960376 -4.06318e-06)
(9.63987 -0.960375 -4.19715e-06)
(9.63987 -0.960374 -4.21593e-06)
(9.63987 -0.960373 -4.14886e-06)
(9.63987 -0.960372 -3.96222e-06)
(9.63987 -0.960371 -3.71556e-06)
(9.63987 -0.96037 -3.32536e-06)
(9.63987 -0.96037 -2.98272e-06)
(9.63987 -0.96037 -2.37875e-06)
(9.63987 -0.960369 -2.29112e-06)
(9.63987 -0.960371 -1.41602e-06)
(9.63977 -0.96036 -1.85397e-06)
(8.77141 0.710352 6.08762e-07)
(8.77151 0.710361 -5.67353e-08)
(8.77151 0.71036 2.21221e-07)
(8.77151 0.710359 5.44318e-08)
(8.77151 0.710358 1.77051e-07)
(8.77151 0.710356 1.22973e-07)
(8.77151 0.710354 1.3544e-07)
(8.77151 0.710353 7.6093e-08)
(8.77151 0.710351 3.11974e-08)
(8.77151 0.710349 -4.07904e-08)
(8.77151 0.710347 -1.02124e-07)
(8.77151 0.710346 -1.70532e-07)
(8.77151 0.710345 -2.1465e-07)
(8.77151 0.710343 -2.65756e-07)
(8.77151 0.710342 -2.57819e-07)
(8.77151 0.710341 -3.11368e-07)
(8.77151 0.710341 -2.11084e-07)
(8.77151 0.71034 -3.80975e-07)
(8.77151 0.71034 -1.0986e-07)
(8.7714 0.710331 -7.35601e-07)
(8.80329 0.720558 -4.27654e-07)
(8.8034 0.720568 -9.60046e-07)
(8.8034 0.720568 -1.39844e-06)
(8.8034 0.720569 -1.92906e-06)
(8.8034 0.72057 -2.26321e-06)
(8.8034 0.720571 -2.60963e-06)
(8.8034 0.720573 -2.81763e-06)
(8.80339 0.720574 -2.97542e-06)
(8.80339 0.720575 -3.02467e-06)
(8.80339 0.720577 -3.0047e-06)
(8.80339 0.720578 -2.89611e-06)
(8.80339 0.72058 -2.72629e-06)
(8.80339 0.720581 -2.48404e-06)
(8.80339 0.720582 -2.21188e-06)
(8.80339 0.720583 -1.8752e-06)
(8.80339 0.720584 -1.56601e-06)
(8.80339 0.720585 -1.1591e-06)
(8.80339 0.720585 -8.63603e-07)
(8.80339 0.720586 -4.31572e-07)
(8.80328 0.720577 -7.71439e-08)
(8.83505 0.476122 8.95193e-08)
(8.83516 0.476129 6.48338e-07)
(8.83516 0.476129 1.20428e-06)
(8.83516 0.476129 1.58719e-06)
(8.83516 0.476128 2.0285e-06)
(8.83516 0.476128 2.26815e-06)
(8.83516 0.476128 2.45949e-06)
(8.83516 0.476128 2.52174e-06)
(8.83516 0.476128 2.51129e-06)
(8.83516 0.476128 2.41337e-06)
(8.83516 0.476128 2.26367e-06)
(8.83516 0.476127 2.05955e-06)
(8.83516 0.476127 1.83316e-06)
(8.83516 0.476127 1.58433e-06)
(8.83516 0.476127 1.3579e-06)
(8.83516 0.476127 1.09454e-06)
(8.83516 0.476127 9.35318e-07)
(8.83516 0.476127 6.51502e-07)
(8.83516 0.476127 4.49003e-07)
(8.83505 0.47612 2.20699e-07)
(8.78026 0.473604 -3.82903e-07)
(8.78036 0.473611 -9.91436e-07)
(8.78036 0.473611 -1.48439e-06)
(8.78036 0.47361 -2.00964e-06)
(8.78036 0.47361 -2.43777e-06)
(8.78036 0.47361 -2.79723e-06)
(8.78036 0.47361 -3.04003e-06)
(8.78036 0.47361 -3.20433e-06)
(8.78036 0.473609 -3.26139e-06)
(8.78036 0.473609 -3.23232e-06)
(8.78036 0.473609 -3.11379e-06)
(8.78036 0.473609 -2.92062e-06)
(8.78036 0.473609 -2.65579e-06)
(8.78036 0.473609 -2.35332e-06)
(8.78036 0.473609 -1.99525e-06)
(8.78036 0.473609 -1.63796e-06)
(8.78036 0.473609 -1.24504e-06)
(8.78036 0.473609 -8.73434e-07)
(8.78036 0.473609 -4.25408e-07)
(8.78026 0.473602 -1.06687e-07)
(8.79868 0.285191 1.07239e-07)
(8.79879 0.285195 5.63667e-07)
(8.79879 0.285195 1.05462e-06)
(8.79879 0.285196 1.42115e-06)
(8.79879 0.285196 1.73883e-06)
(8.79879 0.285196 1.96416e-06)
(8.79879 0.285197 2.12662e-06)
(8.79879 0.285198 2.19564e-06)
(8.79879 0.285198 2.19955e-06)
(8.79879 0.285199 2.13283e-06)
(8.79879 0.2852 2.01977e-06)
(8.79879 0.2852 1.86281e-06)
(8.79879 0.285201 1.68571e-06)
(8.79879 0.285201 1.48735e-06)
(8.79879 0.285202 1.29756e-06)
(8.79879 0.285202 1.09413e-06)
(8.79879 0.285202 9.05623e-07)
(8.79879 0.285203 6.90994e-07)
(8.79879 0.285203 5.11605e-07)
(8.79868 0.285199 2.24346e-07)
(8.74642 0.276754 -2.43728e-07)
(8.74653 0.276758 -6.3563e-07)
(8.74653 0.276758 -9.88287e-07)
(8.74653 0.276757 -1.32004e-06)
(8.74653 0.276757 -1.5592e-06)
(8.74653 0.276756 -1.78523e-06)
(8.74653 0.276755 -1.93433e-06)
(8.74653 0.276754 -2.03926e-06)
(8.74653 0.276753 -2.07446e-06)
(8.74653 0.276751 -2.05716e-06)
(8.74653 0.27675 -1.97887e-06)
(8.74653 0.276749 -1.85534e-06)
(8.74653 0.276749 -1.68035e-06)
(8.74653 0.276748 -1.48098e-06)
(8.74653 0.276747 -1.23467e-06)
(8.74653 0.276746 -9.9334e-07)
(8.74653 0.276746 -6.9279e-07)
(8.74653 0.276745 -4.49037e-07)
(8.74653 0.276745 -2.08828e-07)
(8.74642 0.276741 -4.16386e-08)
(8.75486 0.128595 -5.80448e-08)
(8.75497 0.128597 5.41777e-08)
(8.75497 0.128597 1.85197e-07)
(8.75497 0.128597 2.64233e-07)
(8.75497 0.128598 3.33391e-07)
(8.75497 0.128598 3.70301e-07)
(8.75497 0.128598 3.93061e-07)
(8.75497 0.128598 3.8512e-07)
(8.75497 0.128598 3.63202e-07)
(8.75497 0.128599 3.217e-07)
(8.75497 0.128599 2.74893e-07)
(8.75497 0.128599 2.19581e-07)
(8.75497 0.128599 1.72912e-07)
(8.75497 0.128599 1.26433e-07)
(8.75497 0.128599 1.04284e-07)
(8.75497 0.1286 8.24818e-08)
(8.75497 0.1286 9.09909e-08)
(8.75497 0.1286 8.75351e-08)
(8.75497 0.1286 1.21103e-07)
(8.75486 0.128598 1.05318e-07)
(8.73046 0.11435 -1.85643e-07)
(8.73057 0.114352 -5.07775e-07)
(8.73057 0.114351 -7.92303e-07)
(8.73057 0.114351 -1.05413e-06)
(8.73057 0.11435 -1.24245e-06)
(8.73057 0.114349 -1.41639e-06)
(8.73057 0.114349 -1.52987e-06)
(8.73057 0.114348 -1.60909e-06)
(8.73057 0.114347 -1.63623e-06)
(8.73057 0.114346 -1.62569e-06)
(8.73057 0.114345 -1.56934e-06)
(8.73057 0.114344 -1.4813e-06)
(8.73057 0.114343 -1.35131e-06)
(8.73057 0.114343 -1.20381e-06)
(8.73057 0.114342 -1.0144e-06)
(8.73057 0.114341 -8.3194e-07)
(8.73057 0.114341 -5.9724e-07)
(8.73057 0.11434 -4.10375e-07)
(8.73057 0.11434 -1.98948e-07)
(8.73046 0.114338 -4.0087e-08)
(8.73522 -0.00709907 -1.83316e-07)
(8.73533 -0.00709932 -3.75197e-07)
(8.73533 -0.00709941 -5.49187e-07)
(8.73533 -0.00709948 -7.20601e-07)
(8.73533 -0.00709962 -8.5556e-07)
(8.73533 -0.00709978 -9.80769e-07)
(8.73533 -0.00709996 -1.07291e-06)
(8.73533 -0.00710015 -1.15015e-06)
(8.73533 -0.00710036 -1.20157e-06)
(8.73533 -0.00710059 -1.23708e-06)
(8.73533 -0.00710083 -1.24878e-06)
(8.73533 -0.00710107 -1.24535e-06)
(8.73533 -0.00710131 -1.21175e-06)
(8.73533 -0.00710156 -1.16138e-06)
(8.73533 -0.00710179 -1.06534e-06)
(8.73533 -0.007102 -9.57003e-07)
(8.73533 -0.0071022 -7.80122e-07)
(8.73533 -0.00710238 -6.08764e-07)
(8.73533 -0.00710251 -3.40161e-07)
(8.73523 -0.00710232 -4.56196e-08)
(8.73937 -0.0293575 -2.44068e-07)
(8.73947 -0.0293585 -6.11092e-07)
(8.73947 -0.0293592 -9.38645e-07)
(8.73947 -0.0293602 -1.24543e-06)
(8.73947 -0.0293614 -1.48955e-06)
(8.73947 -0.0293629 -1.70145e-06)
(8.73948 -0.0293645 -1.85229e-06)
(8.73948 -0.0293663 -1.96108e-06)
(8.73948 -0.0293681 -2.01549e-06)
(8.73948 -0.02937 -2.02728e-06)
(8.73948 -0.0293718 -1.98832e-06)
(8.73948 -0.0293735 -1.91077e-06)
(8.73948 -0.0293751 -1.78169e-06)
(8.73948 -0.0293766 -1.62332e-06)
(8.73948 -0.0293779 -1.41172e-06)
(8.73948 -0.029379 -1.19561e-06)
(8.73948 -0.0293799 -9.21378e-07)
(8.73948 -0.0293805 -6.73906e-07)
(8.73948 -0.029381 -3.44521e-07)
(8.73937 -0.0293805 -4.69993e-08)
(8.74533 -0.144 -4.24258e-07)
(8.74543 -0.144003 -1.22724e-06)
(8.74543 -0.144003 -1.96082e-06)
(8.74543 -0.144002 -2.6291e-06)
(8.74543 -0.144002 -3.17722e-06)
(8.74543 -0.144002 -3.64055e-06)
(8.74543 -0.144002 -3.98078e-06)
(8.74543 -0.144002 -4.2161e-06)
(8.74543 -0.144002 -4.33675e-06)
(8.74543 -0.144001 -4.35551e-06)
(8.74543 -0.144001 -4.27188e-06)
(8.74543 -0.144001 -4.10148e-06)
(8.74543 -0.144001 -3.83985e-06)
(8.74543 -0.144001 -3.51195e-06)
(8.74543 -0.144001 -3.09857e-06)
(8.74543 -0.144001 -2.65281e-06)
(8.74543 -0.144001 -2.10757e-06)
(8.74543 -0.144001 -1.57353e-06)
(8.74543 -0.144001 -9.04826e-07)
(8.74532 -0.143998 -2.49335e-07)
(8.77881 -0.166004 -2.57809e-07)
(8.77891 -0.166007 -5.39063e-07)
(8.77891 -0.166008 -7.87567e-07)
(8.77891 -0.166008 -1.03395e-06)
(8.77891 -0.166009 -1.24165e-06)
(8.77891 -0.16601 -1.42261e-06)
(8.77891 -0.166012 -1.56121e-06)
(8.77892 -0.166013 -1.67106e-06)
(8.77892 -0.166014 -1.74266e-06)
(8.77892 -0.166015 -1.78505e-06)
(8.77892 -0.166017 -1.7868e-06)
(8.77892 -0.166018 -1.75624e-06)
(8.77892 -0.166019 -1.67403e-06)
(8.77892 -0.16602 -1.55791e-06)
(8.77892 -0.166021 -1.37846e-06)
(8.77892 -0.166022 -1.18003e-06)
(8.77892 -0.166022 -9.17783e-07)
(8.77892 -0.166023 -6.66031e-07)
(8.77892 -0.166023 -3.20447e-07)
(8.77881 -0.16602 1.5509e-09)
(8.78316 -0.300989 -6.05094e-07)
(8.78326 -0.300993 -1.83551e-06)
(8.78326 -0.300993 -2.96579e-06)
(8.78326 -0.300993 -3.98535e-06)
(8.78326 -0.300993 -4.81415e-06)
(8.78326 -0.300993 -5.52455e-06)
(8.78326 -0.300992 -6.0503e-06)
(8.78326 -0.300992 -6.40958e-06)
(8.78326 -0.300992 -6.58774e-06)
(8.78326 -0.300992 -6.59877e-06)
(8.78326 -0.300992 -6.4453e-06)
(8.78326 -0.300991 -6.14667e-06)
(8.78326 -0.300991 -5.70729e-06)
(8.78326 -0.300991 -5.15936e-06)
(8.78326 -0.300991 -4.49311e-06)
(8.78326 -0.300991 -3.77724e-06)
(8.78326 -0.300991 -2.93174e-06)
(8.78326 -0.300991 -2.12839e-06)
(8.78326 -0.300991 -1.21111e-06)
(8.78316 -0.300986 -3.59421e-07)
(8.84727 -0.315571 -2.45893e-07)
(8.84737 -0.315577 -4.15488e-07)
(8.84737 -0.315577 -5.42067e-07)
(8.84737 -0.315577 -7.12094e-07)
(8.84737 -0.315578 -8.77871e-07)
(8.84737 -0.315578 -1.02374e-06)
(8.84737 -0.315579 -1.14634e-06)
(8.84737 -0.31558 -1.25892e-06)
(8.84737 -0.315581 -1.34725e-06)
(8.84737 -0.315581 -1.42074e-06)
(8.84737 -0.315582 -1.46041e-06)
(8.84737 -0.315583 -1.47356e-06)
(8.84737 -0.315584 -1.43199e-06)
(8.84737 -0.315584 -1.35171e-06)
(8.84737 -0.315585 -1.20056e-06)
(8.84737 -0.315585 -1.02042e-06)
(8.84737 -0.315585 -7.87412e-07)
(8.84737 -0.315585 -5.4925e-07)
(8.84737 -0.315585 -2.23858e-07)
(8.84727 -0.31558 5.14968e-08)
(8.844 -0.49542 -7.19372e-07)
(8.8441 -0.495427 -2.19537e-06)
(8.8441 -0.495427 -3.57003e-06)
(8.8441 -0.495427 -4.80211e-06)
(8.8441 -0.495426 -5.77519e-06)
(8.8441 -0.495426 -6.64156e-06)
(8.8441 -0.495426 -7.28029e-06)
(8.8441 -0.495426 -7.71665e-06)
(8.8441 -0.495425 -7.92594e-06)
(8.8441 -0.495425 -7.92538e-06)
(8.8441 -0.495425 -7.71739e-06)
(8.8441 -0.495425 -7.32723e-06)
(8.8441 -0.495425 -6.76582e-06)
(8.8441 -0.495424 -6.07271e-06)
(8.8441 -0.495424 -5.24797e-06)
(8.8441 -0.495424 -4.37174e-06)
(8.8441 -0.495424 -3.33149e-06)
(8.8441 -0.495424 -2.3872e-06)
(8.8441 -0.495424 -1.36599e-06)
(8.84399 -0.495417 -4.20311e-07)
(8.93285 -0.498505 -2.08181e-07)
(8.93295 -0.498512 -2.27584e-07)
(8.93295 -0.498512 -1.78647e-07)
(8.93295 -0.498513 -2.83613e-07)
(8.93295 -0.498513 -4.34416e-07)
(8.93296 -0.498513 -5.60605e-07)
(8.93296 -0.498513 -6.72355e-07)
(8.93296 -0.498513 -8.04556e-07)
(8.93296 -0.498514 -9.23272e-07)
(8.93296 -0.498514 -1.04845e-06)
(8.93296 -0.498514 -1.14572e-06)
(8.93296 -0.498515 -1.22667e-06)
(8.93296 -0.498515 -1.24942e-06)
(8.93296 -0.498515 -1.23698e-06)
(8.93295 -0.498515 -1.14341e-06)
(8.93295 -0.498515 -1.0224e-06)
(8.93295 -0.498515 -8.79817e-07)
(8.93295 -0.498515 -6.90956e-07)
(8.93295 -0.498515 -3.34133e-07)
(8.93285 -0.498507 2.89275e-09)
(8.91273 -0.745319 -7.58454e-07)
(8.91283 -0.745329 -2.30145e-06)
(8.91283 -0.745329 -3.60526e-06)
(8.91283 -0.745329 -4.9386e-06)
(8.91283 -0.745329 -6.12314e-06)
(8.91283 -0.745329 -7.07482e-06)
(8.91283 -0.745329 -7.77417e-06)
(8.91283 -0.745329 -8.24466e-06)
(8.91283 -0.745329 -8.4567e-06)
(8.91283 -0.74533 -8.43879e-06)
(8.91283 -0.74533 -8.18784e-06)
(8.91283 -0.74533 -7.74217e-06)
(8.91283 -0.745331 -7.11212e-06)
(8.91283 -0.745331 -6.35735e-06)
(8.91283 -0.745331 -5.48516e-06)
(8.91283 -0.745331 -4.57871e-06)
(8.91283 -0.745332 -3.63795e-06)
(8.91283 -0.745332 -2.66181e-06)
(8.91283 -0.745333 -1.44276e-06)
(8.91272 -0.745322 -4.51385e-07)
(8.99079 -0.732123 -2.10247e-07)
(8.9909 -0.732133 -1.59224e-07)
(8.9909 -0.732133 -2.91159e-07)
(8.9909 -0.732133 -5.25243e-07)
(8.9909 -0.732132 -5.56524e-07)
(8.9909 -0.732131 -7.6152e-07)
(8.9909 -0.732131 -8.9188e-07)
(8.9909 -0.73213 -1.09018e-06)
(8.9909 -0.732129 -1.25658e-06)
(8.9909 -0.732129 -1.44077e-06)
(8.9909 -0.732128 -1.58427e-06)
(8.9909 -0.732127 -1.71383e-06)
(8.9909 -0.732126 -1.76433e-06)
(8.9909 -0.732126 -1.78513e-06)
(8.99089 -0.732125 -1.66342e-06)
(8.99089 -0.732124 -1.55143e-06)
(8.99089 -0.732124 -1.20398e-06)
(8.99089 -0.732123 -1.0219e-06)
(8.99089 -0.732123 -7.22482e-07)
(8.99079 -0.732113 -1.35833e-07)
(8.94065 -1.06485 -6.06657e-07)
(8.94076 -1.06487 -1.81945e-06)
(8.94076 -1.06487 -3.0911e-06)
(8.94076 -1.06487 -4.35902e-06)
(8.94076 -1.06487 -5.28129e-06)
(8.94076 -1.06487 -6.12258e-06)
(8.94076 -1.06487 -6.68283e-06)
(8.94076 -1.06487 -7.07584e-06)
(8.94076 -1.06488 -7.22072e-06)
(8.94075 -1.06488 -7.1751e-06)
(8.94075 -1.06488 -6.91371e-06)
(8.94075 -1.06488 -6.493e-06)
(8.94075 -1.06488 -5.89883e-06)
(8.94075 -1.06488 -5.22587e-06)
(8.94075 -1.06489 -4.42255e-06)
(8.94075 -1.06489 -3.66206e-06)
(8.94075 -1.06489 -2.75553e-06)
(8.94075 -1.06489 -2.06179e-06)
(8.94075 -1.06489 -1.17473e-06)
(8.94065 -1.06488 -3.17015e-07)
(8.8843 -1.02137 9.18396e-07)
(8.88439 -1.02138 -3.83135e-07)
(8.88439 -1.02138 -1.18987e-06)
(8.88439 -1.02138 -2.24835e-06)
(8.88439 -1.02138 -2.72841e-06)
(8.88439 -1.02137 -3.32043e-06)
(8.88439 -1.02137 -3.69584e-06)
(8.88439 -1.02137 -4.06019e-06)
(8.88439 -1.02137 -4.2857e-06)
(8.88439 -1.02137 -4.44172e-06)
(8.88439 -1.02137 -4.46978e-06)
(8.88439 -1.02136 -4.41837e-06)
(8.88439 -1.02136 -4.22886e-06)
(8.88439 -1.02136 -3.98464e-06)
(8.88439 -1.02136 -3.56611e-06)
(8.88439 -1.02136 -3.20624e-06)
(8.88438 -1.02136 -2.58257e-06)
(8.88438 -1.02136 -2.41334e-06)
(8.88439 -1.02136 -1.89074e-06)
(8.8843 -1.02135 -1.72396e-06)
(8.84485 0.729242 3.582e-07)
(8.84495 0.729251 -5.46646e-07)
(8.84495 0.72925 1.02517e-07)
(8.84495 0.729249 1.49622e-08)
(8.84495 0.729248 2.18264e-07)
(8.84495 0.729247 1.9348e-07)
(8.84495 0.729246 2.42257e-07)
(8.84495 0.729244 2.09803e-07)
(8.84495 0.729243 1.93588e-07)
(8.84495 0.729241 1.47087e-07)
(8.84495 0.72924 1.1096e-07)
(8.84495 0.729238 6.13873e-08)
(8.84495 0.729237 3.5605e-08)
(8.84495 0.729236 -7.27359e-09)
(8.84495 0.729235 1.27978e-08)
(8.84495 0.729234 -4.58217e-08)
(8.84495 0.729233 9.2589e-08)
(8.84495 0.729232 -5.92505e-08)
(8.84495 0.729232 5.21478e-07)
(8.84484 0.729222 -4.27696e-07)
(8.74507 0.736638 -6.6874e-07)
(8.74518 0.736647 -1.01952e-06)
(8.74518 0.736648 -1.21996e-06)
(8.74518 0.736648 -1.60783e-06)
(8.74518 0.736649 -1.84017e-06)
(8.74518 0.73665 -2.12717e-06)
(8.74517 0.736651 -2.29797e-06)
(8.74517 0.736652 -2.44507e-06)
(8.74517 0.736654 -2.50067e-06)
(8.74517 0.736655 -2.50587e-06)
(8.74517 0.736656 -2.43661e-06)
(8.74517 0.736657 -2.32041e-06)
(8.74517 0.736658 -2.13788e-06)
(8.74517 0.736659 -1.93371e-06)
(8.74517 0.73666 -1.65834e-06)
(8.74517 0.736661 -1.41294e-06)
(8.74517 0.736661 -1.04044e-06)
(8.74517 0.736662 -7.56198e-07)
(8.74517 0.736662 -2.32049e-07)
(8.74507 0.736653 2.03495e-07)
(8.77755 0.482579 -1.6666e-07)
(8.77766 0.482586 4.29313e-07)
(8.77766 0.482586 9.71669e-07)
(8.77766 0.482586 1.32999e-06)
(8.77766 0.482586 1.77973e-06)
(8.77766 0.482585 2.00894e-06)
(8.77766 0.482585 2.2066e-06)
(8.77766 0.482585 2.28336e-06)
(8.77766 0.482585 2.29934e-06)
(8.77765 0.482585 2.23497e-06)
(8.77765 0.482585 2.1307e-06)
(8.77765 0.482584 1.97131e-06)
(8.77765 0.482584 1.79425e-06)
(8.77765 0.482584 1.59514e-06)
(8.77765 0.482584 1.41888e-06)
(8.77765 0.482584 1.19338e-06)
(8.77765 0.482584 1.09633e-06)
(8.77765 0.482584 8.31795e-07)
(8.77765 0.482584 6.48977e-07)
(8.77755 0.482578 4.72987e-07)
(8.70541 0.481519 -4.29168e-07)
(8.70551 0.481525 -8.94649e-07)
(8.70551 0.481525 -1.24779e-06)
(8.70551 0.481525 -1.67512e-06)
(8.70551 0.481525 -2.03329e-06)
(8.70551 0.481525 -2.34069e-06)
(8.70551 0.481525 -2.55159e-06)
(8.70551 0.481525 -2.70403e-06)
(8.70551 0.481525 -2.76588e-06)
(8.70551 0.481524 -2.75701e-06)
(8.70551 0.481524 -2.67162e-06)
(8.70551 0.481524 -2.52092e-06)
(8.70551 0.481524 -2.30464e-06)
(8.70551 0.481524 -2.06112e-06)
(8.70551 0.481524 -1.75775e-06)
(8.70551 0.481524 -1.45249e-06)
(8.70551 0.481524 -1.1013e-06)
(8.70551 0.481524 -7.51927e-07)
(8.70551 0.481524 -3.06633e-07)
(8.70541 0.481518 7.48512e-09)
(8.72418 0.288058 9.77429e-11)
(8.72429 0.288062 4.75324e-07)
(8.72429 0.288062 9.64954e-07)
(8.72429 0.288062 1.3232e-06)
(8.72429 0.288063 1.63753e-06)
(8.72428 0.288063 1.8588e-06)
(8.72428 0.288063 2.02267e-06)
(8.72428 0.288064 2.09716e-06)
(8.72428 0.288064 2.11311e-06)
(8.72428 0.288065 2.06403e-06)
(8.72428 0.288065 1.97451e-06)
(8.72428 0.288066 1.84315e-06)
(8.72428 0.288066 1.69503e-06)
(8.72428 0.288067 1.52365e-06)
(8.72428 0.288067 1.36203e-06)
(8.72428 0.288068 1.18183e-06)
(8.72428 0.288068 1.0211e-06)
(8.72428 0.288068 8.15184e-07)
(8.72428 0.288068 6.42297e-07)
(8.72418 0.288064 3.53705e-07)
(8.67755 0.280297 -2.7082e-07)
(8.67765 0.2803 -5.94715e-07)
(8.67765 0.2803 -8.78823e-07)
(8.67765 0.280299 -1.16453e-06)
(8.67765 0.280299 -1.35928e-06)