/*--------------------------------*- C++ -*----------------------------------*\
| =========                 |                                                 |
| \\      /  F ield         | OpenFOAM: The Open Source CFD Toolbox           |
|  \\    /   O peration     | Version:  2212                                  |
|   \\  /    A nd           | Website:  www.openfoam.com                      |
|    \\/     M anipulation  |                                                 |
\*---------------------------------------------------------------------------*/
FoamFile
{
    version     2.0;
    format      ascii;
    arch        "LSB;label=32;scalar=64";
    class       volScalarField;
    location    "0.0648";
    object      nut;
}
// * * * * * * * * * * * * * * * * * * * * * * * * * * * * * * * * * * * * * //

dimensions      [0 2 -1 0 0 0 0];

internalField   nonuniform List<scalar> 
31661
(
0.250123
0.256213
0.258958
0.256952
0.254951
0.256287
0.255083
0.253917
0.25406
0.253516
0.0328279
0.232434
0.0629912
0.39311
0.347976
0.382126
0.326327
0.346941
0.151334
0.395014
0.0316693
0.0321539
0.0396513
0.34947
0.245478
0.0301594
0.0319088
0.0446227
0.23721
0.27121
0.370052
0.0412136
0.0410184
0.144798
0.135082
0.408137
0.0479011
0.413782
0.177457
0.0385448
0.0362282
0.260243
0.415358
0.3208
0.323145
0.237805
0.32126
0.148713
0.0505811
0.414558
0.0317775
0.354751
0.239252
0.130968
0.208291
0.179012
0.226439
0.251409
0.493581
0.195325
0.227247
0.215648
0.292985
0.265708
0.0687297
0.175135
0.0395926
0.472063
0.447299
0.423027
0.225493
0.38868
0.368149
0.349619
0.333714
0.320004
0.308626
0.299272
0.291739
0.285685
0.280894
0.277131
0.274222
0.271995
0.272721
0.275117
0.278224
0.282209
0.28723
0.293504
0.301248
0.310696
0.322079
0.335544
0.351104
0.368548
0.386516
0.404327
0.424334
0.44516
0.465645
0.484274
0.501249
0.523742
0.518984
0.540603
0.53534
0.554827
0.549544
0.566438
0.561522
0.575695
0.571404
0.582932
0.579362
0.588507
0.585632
0.592759
0.590491
0.595976
0.594204
0.598396
0.597007
0.600205
0.599101
0.601551
0.60065
0.602541
0.60178
0.603258
0.60259
0.603764
0.603153
0.604108
0.603529
0.604326
0.603763
0.60445
0.603887
0.604503
0.603932
0.604504
0.60392
0.604471
0.603874
0.604422
0.603809
0.604374
0.60374
0.604342
0.603688
0.604342
0.603668
0.604391
0.603699
0.60451
0.603801
0.604721
0.603996
0.605051
0.604311
0.605532
0.604775
0.606198
0.605427
0.607093
0.60631
0.608271
0.607477
0.608993
0.609799
0.609293
0.607738
0.606537
0.605625
0.604946
0.604455
0.604116
0.603895
0.60377
0.603716
0.603713
0.603742
0.603787
0.603833
0.60386
0.603854
0.603794
0.60366
0.603427
0.603061
0.602523
0.601759
0.600705
0.599261
0.597319
0.594716
0.59125
0.586669
0.580679
0.572937
0.563096
0.550831
0.535831
0.517768
0.496757
0.472657
0.446536
0.420166
0.395516
0.373155
0.35373
0.33695
0.322651
0.310753
0.300997
0.293131
0.270906
0.270331
0.286836
0.281864
0.277959
0.274915
0.272568
0.26914
0.26958
0.27087
0.272557
0.274784
0.277651
0.281281
0.285853
0.291535
0.298514
0.306989
0.317061
0.328834
0.342258
0.357132
0.373084
0.389645
0.406209
0.42311
0.440195
0.456899
0.473006
0.488775
0.504987
0.520673
0.535216
0.548265
0.559662
0.569333
0.577306
0.583708
0.588718
0.59256
0.595452
0.597589
0.599139
0.600242
0.601
0.6015
0.601805
0.601966
0.602024
0.602007
0.601944
0.601856
0.601762
0.601683
0.601635
0.60164
0.601717
0.60189
0.602186
0.602636
0.603277
0.604154
0.60532
0.606841
0.608796
0.610938
0.611757
0.611286
0.609527
0.607481
0.605883
0.604649
0.603712
0.603017
0.602516
0.602173
0.601955
0.601835
0.601789
0.601796
0.601836
0.601892
0.601946
0.60198
0.601973
0.601903
0.601743
0.601459
0.601011
0.600342
0.599382
0.598039
0.59619
0.593684
0.590327
0.585892
0.58012
0.572754
0.563567
0.552405
0.539218
0.524072
0.507057
0.488339
0.467124
0.445077
0.423094
0.401334
0.380552
0.361717
0.344778
0.329915
0.31721
0.306558
0.297858
0.290845
0.285252
0.270798
0.2808
0.277274
0.274507
0.269634
0.268654
0.269509
0.268324
0.268763
0.270081
0.271369
0.273126
0.275405
0.278306
0.281948
0.286469
0.292041
0.29884
0.306986
0.316589
0.3276
0.339859
0.35308
0.366911
0.380957
0.394805
0.408152
0.421228
0.434097
0.446786
0.459417
0.472467
0.486299
0.500442
0.514493
0.528081
0.540816
0.552412
0.562568
0.571185
0.578238
0.58385
0.588193
0.591463
0.593871
0.5956
0.596802
0.597606
0.598114
0.598402
0.598535
0.598556
0.598504
0.598411
0.598302
0.5982
0.598128
0.598107
0.598161
0.598314
0.598593
0.599033
0.599671
0.600553
0.601734
0.603278
0.605264
0.607785
0.61128
0.613411
0.614246
0.613815
0.612119
0.60911
0.606438
0.604322
0.602664
0.601386
0.600417
0.599701
0.599191
0.598845
0.598633
0.598523
0.59849
0.598513
0.59857
0.59864
0.598703
0.598734
0.598709
0.598597
0.598359
0.597944
0.597292
0.596322
0.59492
0.592957
0.590264
0.586641
0.581865
0.575712
0.567987
0.55858
0.547491
0.534854
0.520931
0.506074
0.490614
0.474619
0.457675
0.440539
0.423278
0.406319
0.389084
0.372332
0.35635
0.341488
0.328005
0.316263
0.306334
0.298115
0.291372
0.285891
0.272363
0.281496
0.277983
0.268018
0.269163
0.268157
0.270743
0.268611
0.267766
0.268494
0.269664
0.270721
0.27216
0.274073
0.276547
0.27966
0.283529
0.288291
0.294102
0.30111
0.309419
0.319024
0.329815
0.341536
0.353765
0.366102
0.37811
0.389472
0.399974
0.409634
0.418793
0.427676
0.436542
0.44567
0.455486
0.466329
0.47806
0.490483
0.503356
0.516343
0.529034
0.541
0.551868
0.561352
0.569332
0.575824
0.580928
0.584821
0.587703
0.589769
0.591205
0.592162
0.592762
0.593102
0.593259
0.593291
0.593244
0.593155
0.593059
0.592982
0.592951
0.592994
0.593136
0.593412
0.593852
0.5945
0.595402
0.596614
0.5982
0.600236
0.602807
0.606011
0.610948
0.614414
0.616537
0.617391
0.617005
0.615379
0.612452
0.608104
0.604686
0.601926
0.599728
0.598
0.596663
0.595653
0.594909
0.594381
0.594031
0.593818
0.593714
0.593691
0.593721
0.593782
0.593848
0.59389
0.593879
0.593776
0.593533
0.593092
0.592375
0.591282
0.589688
0.587435
0.584337
0.580186
0.574768
0.567893
0.559447
0.549434
0.537993
0.525426
0.512116
0.498503
0.485013
0.471917
0.45921
0.446663
0.434451
0.422298
0.409998
0.397063
0.38364
0.369875
0.356035
0.342569
0.330047
0.318817
0.308984
0.300604
0.293619
0.287915
0.275188
0.283263
0.267598
0.267769
0.272999
0.268894
0.268067
0.269564
0.26799
0.267413
0.268377
0.269301
0.270217
0.271437
0.273081
0.27525
0.277998
0.281431
0.285666
0.290838
0.297086
0.304537
0.313235
0.323116
0.333971
0.345446
0.357072
0.368354
0.378868
0.38834
0.396652
0.403818
0.410113
0.415887
0.421452
0.427099
0.433128
0.439862
0.447612
0.456435
0.466328
0.47723
0.488977
0.501289
0.513782
0.526006
0.537492
0.547889
0.556926
0.564467
0.570535
0.575261
0.578809
0.581391
0.583212
0.584445
0.585239
0.585713
0.585964
0.586064
0.586073
0.586037
0.585998
0.585991
0.58605
0.586206
0.586495
0.586955
0.587631
0.588571
0.58983
0.591473
0.593568
0.596194
0.59943
0.603363
0.609964
0.614891
0.618345
0.620473
0.621356
0.621019
0.619459
0.616597
0.612288
0.602158
0.598693
0.595856
0.593572
0.591766
0.590363
0.589297
0.588513
0.587957
0.587586
0.587361
0.587246
0.587209
0.587221
0.587249
0.587258
0.587212
0.587063
0.586751
0.586201
0.58532
0.583984
0.582045
0.57932
0.575613
0.570709
0.564422
0.556634
0.547315
0.536594
0.524767
0.51222
0.499428
0.486855
0.474881
0.463758
0.453593
0.4443
0.435685
0.427635
0.419783
0.411714
0.403031
0.393454
0.382837
0.371246
0.359028
0.34668
0.334648
0.323365
0.313201
0.304446
0.297013
0.279505
0.29078
0.606327
0.285665
0.26738
0.27648
0.267581
0.271309
0.267847
0.268725
0.268665
0.268081
0.267578
0.267252
0.268271
0.268906
0.269689
0.270771
0.272214
0.274118
0.276568
0.279658
0.283485
0.288173
0.293856
0.300661
0.308661
0.317857
0.328104
0.339102
0.350418
0.361546
0.371975
0.381324
0.389354
0.396016
0.401412
0.405752
0.409363
0.412558
0.415617
0.418781
0.422304
0.426429
0.431402
0.437356
0.444398
0.452606
0.461988
0.472468
0.483851
0.495825
0.507978
0.519852
0.530993
0.54101
0.549668
0.556845
0.562577
0.566992
0.570275
0.572643
0.574289
0.575391
0.576093
0.576517
0.576754
0.576879
0.576952
0.577026
0.577145
0.577351
0.577685
0.578191
0.578915
0.579911
0.581232
0.582938
0.585093
0.587757
0.59099
0.59484
0.599355
0.608092
0.614812
0.619796
0.623282
0.62544
0.626364
0.626075
0.624556
0.62171
0.617363
0.611272
0.598452
0.594388
0.590934
0.588052
0.585697
0.583812
0.582335
0.581204
0.580362
0.57976
0.579347
0.579081
0.578922
0.578831
0.578769
0.578692
0.578549
0.578284
0.577823
0.57707
0.575909
0.57419
0.571742
0.568363
0.563843
0.558003
0.550708
0.541916
0.531758
0.520462
0.508418
0.496117
0.484026
0.472569
0.462033
0.452598
0.444336
0.437183
0.430997
0.425594
0.420761
0.416161
0.411418
0.406307
0.400267
0.393066
0.384533
0.374685
0.363773
0.35213
0.340304
0.328984
0.318538
0.309138
0.301032
0.294181
0.603143
0.288463
0.281497
0.267327
0.274067
0.267542
0.27006
0.267762
0.268127
0.267954
0.267363
0.268386
0.268064
0.267244
0.6046
0.613751
0.620757
0.625931
0.629539
0.63178
0.632762
0.632501
0.630966
0.628032
0.623498
0.617088
0.608483
0.592659
0.588373
0.584532
0.581173
0.578304
0.575913
0.573964
0.572411
0.571206
0.570291
0.569616
0.56913
0.568782
0.568525
0.568311
0.568084
0.567777
0.567319
0.566618
0.565554
0.563984
0.561734
0.558609
0.554399
0.548915
0.542016
0.533663
0.523948
0.5131
0.50149
0.489594
0.47787
0.466755
0.456568
0.447507
0.439687
0.433091
0.427632
0.423173
0.419556
0.416611
0.414157
0.41193
0.409699
0.407044
0.403739
0.399545
0.394102
0.387197
0.378742
0.368852
0.357986
0.346619
0.335169
0.324314
0.314323
0.305491
0.297877
0.28376
0.291486
0.597358
0.268074
0.268439
0.269108
0.27006
0.271341
0.27303
0.275227
0.278024
0.281504
0.285782
0.290984
0.297237
0.304644
0.313238
0.32294
0.333521
0.344607
0.355712
0.366316
0.375943
0.384259
0.391101
0.396486
0.400567
0.40357
0.405767
0.407433
0.408809
0.410088
0.411474
0.413111
0.415179
0.417887
0.421371
0.425766
0.431207
0.437805
0.445627
0.45467
0.464841
0.475932
0.487614
0.49947
0.511029
0.521832
0.53152
0.539836
0.546694
0.552134
0.556293
0.559372
0.561577
0.563112
0.564147
0.564831
0.565281
0.56559
0.565836
0.566085
0.566393
0.566815
0.567398
0.568197
0.569264
0.570655
0.572422
0.574616
0.577281
0.580443
0.584114
0.588289
0.59297
0.278107
0.267393
0.286224
0.279926
0.272191
0.267623
0.269151
0.267829
0.267743
0.267963
0.267308
0.267988
0.267343
0.268015
0.267937
0.583416
0.579509
0.575781
0.572309
0.569155
0.566386
0.564011
0.562029
0.560415
0.559128
0.558124
0.557346
0.556741
0.55625
0.555816
0.555368
0.554824
0.55409
0.553049
0.551559
0.549447
0.546516
0.542558
0.537375
0.530824
0.522847
0.51353
0.50308
0.491881
0.480357
0.468966
0.458162
0.448291
0.439532
0.432024
0.425763
0.420687
0.416687
0.413615
0.411336
0.409688
0.408532
0.407712
0.407051
0.40636
0.405453
0.404243
0.402336
0.399474
0.395365
0.389761
0.382559
0.373838
0.363735
0.35279
0.341382
0.330209
0.319712
0.31016
0.301821
0.294765
0.268444
0.269276
0.270429
0.271932
0.273903
0.276446
0.279621
0.283536
0.288318
0.294084
0.300947
0.308974
0.318138
0.328281
0.339094
0.350139
0.3609
0.370877
0.379653
0.386975
0.392765
0.397101
0.400168
0.402204
0.403451
0.404143
0.404473
0.404604
0.404663
0.404794
0.405106
0.405676
0.406651
0.408181
0.410402
0.413435
0.417418
0.422483
0.428736
0.43624
0.444982
0.45486
0.46566
0.477044
0.488595
0.499829
0.510306
0.519655
0.527648
0.534205
0.539378
0.543323
0.546237
0.548335
0.549815
0.550855
0.551599
0.552165
0.552652
0.553143
0.553709
0.554413
0.555313
0.556466
0.557925
0.559735
0.561931
0.56453
0.567528
0.570896
0.574587
0.578551
0.582788
0.598211
0.610716
0.620591
0.628156
0.633748
0.637653
0.64008
0.641148
0.64086
0.639184
0.635968
0.630988
0.623958
0.614561
0.602486
0.26788
0.58748
0.281887
0.28887
0.26778
0.275374
0.267559
0.591818
0.608232
0.621672
0.632328
0.640446
0.646304
0.650157
0.652217
0.652648
0.65144
0.648637
0.644125
0.637713
0.629124
0.618064
0.604249
0.58744
0.276814
0.270764
0.267799
0.267531
0.267685
0.268414
0.26944
0.270793
0.272577
0.27489
0.277789
0.281387
0.285785
0.291113
0.297481
0.30497
0.313598
0.323267
0.333738
0.344631
0.355462
0.365719
0.374943
0.382803
0.389137
0.393947
0.397369
0.399609
0.400902
0.40147
0.401507
0.401178
0.400604
0.399888
0.399115
0.398366
0.397733
0.397272
0.397037
0.39713
0.397682
0.398816
0.400657
0.403333
0.406976
0.411715
0.417652
0.424842
0.433275
0.442845
0.453327
0.464389
0.475596
0.486486
0.496609
0.505612
0.513277
0.51954
0.524471
0.528229
0.531023
0.533065
0.534561
0.535686
0.536586
0.537382
0.53818
0.539063
0.5401
0.541352
0.54287
0.544689
0.546825
0.549271
0.55199
0.554921
0.557984
0.561104
0.564247
0.567512
0.284018
0.278356
0.268482
0.267984
0.267552
0.268075
0.267373
0.268058
0.267534
0.267934
0.267696
0.267205
0.26736
0.26583
0.266417
0.57232
0.569366
0.566435
0.563438
0.560411
0.557442
0.554632
0.552055
0.549778
0.547811
0.54616
0.544797
0.54368
0.54276
0.541972
0.54125
0.54051
0.539649
0.538551
0.53707
0.535035
0.532248
0.528498
0.523583
0.517345
0.509724
0.500779
0.490721
0.47989
0.468752
0.457718
0.44726
0.437667
0.429222
0.422002
0.416036
0.411259
0.407594
0.40487
0.402979
0.401783
0.401197
0.400968
0.400999
0.401325
0.401766
0.402186
0.402488
0.402486
0.402148
0.401152
0.399263
0.39623
0.391792
0.385766
0.378058
0.368802
0.358428
0.347361
0.336042
0.325078
0.315041
0.306071
0.298285
0.291781
0.596843
0.280023
0.286301
0.2185
0.575598
0.27321
0.267798
0.615156
0.630578
0.643203
0.653159
0.660613
0.665715
0.668566
0.669382
0.667956
0.664442
0.658788
0.650868
0.640512
0.627531
0.611734
0.592992
0.571259
0.27433
0.269695
0.268046
0.266362
0.267452
0.268366
0.269608
0.271226
0.273315
0.275976
0.279298
0.283364
0.288287
0.294192
0.301185
0.309292
0.318468
0.328538
0.339184
0.349971
0.360397
0.369981
0.378334
0.385221
0.390572
0.394463
0.397067
0.398604
0.399296
0.399345
0.398912
0.398132
0.397106
0.395912
0.394611
0.393256
0.391899
0.390584
0.389373
0.388316
0.387444
0.386823
0.386561
0.386777
0.387588
0.389111
0.391472
0.394802
0.399226
0.404843
0.411711
0.419813
0.429038
0.439164
0.449854
0.460683
0.471182
0.480919
0.48955
0.496877
0.502853
0.507559
0.511166
0.513886
0.515941
0.517535
0.518842
0.520007
0.521157
0.522387
0.523757
0.525321
0.527104
0.529106
0.531297
0.533618
0.535985
0.538304
0.540492
0.542518
0.544457
0.546584
0.275501
0.268045
0.268214
0.281794
0.276751
0.267507
0.268274
0.267535
0.268216
0.267793
0.268036
0.267738
0.267328
0.266223
0.603502
0.579907
0.26491
0.264383
0.551473
0.549733
0.548085
0.546288
0.544267
0.54205
0.539718
0.537369
0.53511
0.533009
0.531126
0.529468
0.528031
0.526776
0.52565
0.524588
0.523491
0.522238
0.520685
0.51866
0.515964
0.512383
0.507707
0.501772
0.494496
0.48593
0.476265
0.465834
0.455057
0.444418
0.434301
0.42507
0.41692
0.410037
0.404357
0.39988
0.396489
0.39408
0.392473
0.391589
0.391347
0.391406
0.392048
0.39282
0.393759
0.394862
0.396018
0.397158
0.398227
0.39912
0.39976
0.400004
0.399674
0.398564
0.396424
0.392972
0.388
0.381374
0.373167
0.363489
0.352749
0.341642
0.330595
0.320068
0.310475
0.302062
0.294855
0.288795
0.264807
0.265592
0.278107
0.283746
0.289592
0.271543
0.268096
0.624515
0.642899
0.658607
0.671585
0.681766
0.689068
0.693429
0.694842
0.693147
0.688444
0.680825
0.670352
0.657073
0.641001
0.622163
0.600594
0.576348
0.54954
0.272379
0.268905
0.268348
0.25254
0.267184
0.268321
0.269792
0.271711
0.274176
0.277242
0.281014
0.28559
0.291078
0.297585
0.3052
0.313885
0.323517
0.333842
0.344477
0.354953
0.364781
0.373538
0.380925
0.386806
0.391196
0.394228
0.396099
0.397027
0.397219
0.396847
0.396053
0.394944
0.393601
0.392087
0.390449
0.388725
0.386951
0.385155
0.383368
0.381619
0.379948
0.378407
0.377021
0.375828
0.374912
0.374364
0.374295
0.374821
0.376056
0.378124
0.381151
0.38526
0.390549
0.39707
0.404802
0.413641
0.423358
0.433625
0.444016
0.454079
0.463386
0.471619
0.478599
0.484293
0.488798
0.492297
0.495005
0.497144
0.498914
0.500478
0.501979
0.503513
0.505125
0.506832
0.508629
0.510471
0.512291
0.513997
0.515499
0.516731
0.517676
0.518405
0.519142
0.520353
0.273236
0.267807
0.268501
0.274134
0.267583
0.268536
0.279577
0.275122
0.267771
0.268444
0.268105
0.268223
0.267876
0.267412
0.61358
0.586563
0.266839
0.266199
0.105585
0.265548
0.553809
0.525349
0.524606
0.524179
0.523707
0.522995
0.521958
0.520605
0.518997
0.517224
0.515373
0.51355
0.511805
0.510173
0.508648
0.507202
0.505785
0.504292
0.502583
0.500494
0.497829
0.494372
0.489909
0.484263
0.47734
0.469167
0.459923
0.449919
0.439572
0.429325
0.419607
0.410739
0.402955
0.39638
0.391034
0.386826
0.383709
0.381586
0.380292
0.379695
0.379707
0.380001
0.380937
0.382069
0.383394
0.384857
0.386444
0.388092
0.389744
0.391401
0.392991
0.394451
0.395759
0.396807
0.397509
0.397692
0.39722
0.395824
0.393281
0.389323
0.383759
0.376547
0.367778
0.3578
0.34699
0.335913
0.325096
0.315063
0.306039
0.298162
0.291462
0.285866
0.412975
0.27619
0.281221
0.0293652
0.234056
0.270289
0.268436
0.638602
0.661449
0.681845
0.699426
0.713755
0.724419
0.731104
0.733542
0.73148
0.72505
0.714512
0.700207
0.682475
0.661691
0.638237
0.61242
0.584451
0.554544
0.522906
0.270881
0.268365
0.268691
0.238563
0.251775
0.266803
0.268215
0.270013
0.272298
0.275162
0.278693
0.282973
0.288103
0.294187
0.301304
0.309511
0.318691
0.328644
0.339042
0.349455
0.359408
0.368459
0.376264
0.382625
0.387498
0.390971
0.393212
0.394429
0.394828
0.394593
0.393873
0.392784
0.391416
0.389833
0.388087
0.386213
0.384242
0.382198
0.380103
0.377979
0.375845
0.37372
0.371627
0.369591
0.367649
0.365847
0.364202
0.362757
0.361597
0.360805
0.360487
0.360755
0.361723
0.363509
0.366236
0.370023
0.374963
0.381104
0.38843
0.396829
0.40608
0.415858
0.42575
0.435319
0.444159
0.45197
0.458594
0.464016
0.468347
0.471772
0.474504
0.476752
0.478686
0.480447
0.48214
0.483773
0.485323
0.486757
0.488012
0.489014
0.489692
0.490007
0.489965
0.489644
0.489235
0.489081
0.489771
0.271478
0.267725
0.268834
0.27209
0.26775
0.268848
0.272749
0.268066
0.268729
0.277387
0.273466
0.268458
0.268474
0.26809
0.629669
0.597598
0.267586
0.266982
0.266324
0.265567
0.55767
0.52703
0.494767
0.49527
0.495926
0.496466
0.496733
0.496626
0.496129
0.495282
0.49414
0.492781
0.491289
0.489725
0.488112
0.48646
0.484751
0.482872
0.480679
0.477998
0.474624
0.470344
0.464975
0.458409
0.450654
0.441865
0.432336
0.422463
0.412683
0.403401
0.39495
0.38755
0.381316
0.376291
0.372413
0.369577
0.367689
0.36665
0.366297
0.366525
0.367249
0.368306
0.369654
0.37125
0.373013
0.374869
0.37682
0.378861
0.380874
0.38293
0.384959
0.386897
0.388767
0.390515
0.392116
0.393478
0.394532
0.395157
0.395194
0.394457
0.392692
0.38965
0.385135
0.379017
0.371271
0.362089
0.351834
0.340976
0.330139
0.319744
0.310116
0.301708
0.294417
0.28822
0.283043
0.263933
0.274268
0.278743
0.264658
0.494794
0.269333
0.268811
0.660482
0.689557
0.716233
0.73973
0.759215
0.773965
0.783428
0.787125
0.784716
0.776383
0.762491
0.743558
0.72023
0.69328
0.663511
0.631613
0.598157
0.563582
0.528204
0.492233
0.269743
0.268044
0.269067
0.264331
0.265282
0.26651
0.268078
0.270241
0.272972
0.276328
0.280371
0.285203
0.290922
0.297615
0.305323
0.314053
0.323607
0.333704
0.34396
0.353928
0.363159
0.371282
0.37805
0.383363
0.387259
0.389877
0.391404
0.392045
0.391986
0.391386
0.390369
0.389034
0.387451
0.385675
0.383746
0.381693
0.379541
0.377308
0.375011
0.372664
0.370284
0.367882
0.365475
0.363078
0.360705
0.358379
0.356126
0.353977
0.351967
0.350116
0.348468
0.347104
0.346104
0.345562
0.345593
0.346306
0.347817
0.350244
0.353696
0.358263
0.363991
0.370861
0.378764
0.387486
0.39671
0.406043
0.415064
0.423393
0.430752
0.437001
0.44214
0.446278
0.449588
0.452256
0.454444
0.456275
0.457857
0.459199
0.460238
0.460941
0.461268
0.461184
0.460682
0.459794
0.45861
0.457297
0.45612
0.455456
0.455854
0.270131
0.267769
0.269201
0.270525
0.267991
0.269198
0.263552
0.270901
0.268405
0.269057
0.271314
0.268842
0.268777
0.65399
0.615223
0.275198
0.271769
0.268364
0.267833
0.267209
0.266491
0.265621
0.564531
0.530617
0.495923
0.461243
0.462422
0.463877
0.465376
0.466743
0.467835
0.46856
0.468855
0.468731
0.468217
0.467356
0.4662
0.464782
0.46316
0.461319
0.459143
0.456503
0.453231
0.449139
0.44405
0.437852
0.430541
0.42225
0.413248
0.40391
0.394651
0.38587
0.377885
0.370917
0.365077
0.360392
0.356832
0.354297
0.35267
0.351856
0.351737
0.352192
0.353117
0.354394
0.355953
0.357725
0.359682
0.361779
0.363969
0.366205
0.368556
0.370852
0.373201
0.375536
0.377812
0.380033
0.382193
0.384291
0.386258
0.388088
0.389705
0.391049
0.39203
0.392505
0.392302
0.391216
0.389035
0.385507
0.380421
0.373739
0.365504
0.355997
0.345655
0.334933
0.324401
0.314468
0.305453
0.297599
0.290857
0.285122
0.280301
0.27231
0.264631
0.276281
0.263683
0.460599
0.268658
0.269211
0.691899
0.727958
0.761013
0.789951
0.813762
0.831656
0.843109
0.847725
0.845233
0.835728
0.819493
0.796989
0.768879
0.736051
0.699553
0.66049
0.620005
0.578986
0.538096
0.497729
0.458072
0.26891
0.267893
0.269468
0.264975
0.26653
0.268437
0.27082
0.273881
0.277693
0.282288
0.287718
0.294048
0.301336
0.309581
0.318722
0.328477
0.338504
0.348388
0.357692
0.366029
0.373115
0.378805
0.38309
0.386069
0.38791
0.388807
0.388946
0.388491
0.387578
0.386308
0.384762
0.382998
0.381058
0.378977
0.376779
0.374482
0.372105
0.36966
0.367155
0.364605
0.36202
0.35941
0.356787
0.354162
0.351541
0.348944
0.346388
0.343891
0.341471
0.339158
0.336986
0.334975
0.333166
0.331635
0.330458
0.329722
0.32953
0.329998
0.331233
0.333349
0.336453
0.340623
0.345901
0.352268
0.359617
0.367744
0.376345
0.385046
0.39345
0.401202
0.40804
0.413833
0.418574
0.422351
0.425296
0.427544
0.429205
0.430357
0.431075
0.431343
0.431121
0.430416
0.429257
0.427703
0.425856
0.423882
0.421977
0.420382
0.419369
0.419279
0.269126
0.267911
0.269594
0.263712
0.262992
0.269306
0.268287
0.269578
0.269469
0.268778
0.269419
0.685356
0.639754
0.26963
0.269249
0.269801
0.269118
0.268684
0.272982
0.270011
0.268133
0.267477
0.266684
0.265735
0.576251
0.537463
0.498995
0.460917
0.424896
0.426773
0.428799
0.430924
0.433048
0.435049
0.436806
0.438195
0.439155
0.439643
0.439657
0.439202
0.438318
0.437033
0.435283
0.432983
0.430017
0.426244
0.421522
0.415757
0.408945
0.401211
0.392802
0.384067
0.375404
0.367186
0.359723
0.353231
0.347822
0.34352
0.340286
0.33805
0.336704
0.336123
0.336216
0.336868
0.33796
0.339408
0.341149
0.343081
0.345183
0.347448
0.349804
0.35225
0.354735
0.357303
0.359852
0.362394
0.364996
0.367501
0.369979
0.37243
0.374853
0.377191
0.379464
0.381611
0.383606
0.385452
0.387042
0.38831
0.389145
0.389413
0.388943
0.387486
0.384821
0.380776
0.375157
0.367999
0.359421
0.349767
0.339411
0.328872
0.318773
0.30942
0.301106
0.293782
0.287468
0.282078
0.277532
0.270292
0.263528
0.273748
0.264669
0.423285
0.268228
0.26963
0.729447
0.770551
0.807301
0.838639
0.863787
0.88233
0.89407
0.898848
0.896508
0.887079
0.870657
0.847424
0.817693
0.782011
0.741231
0.696579
0.649527
0.601509
0.553841
0.507489
0.463014
0.420616
0.268348
0.267882
0.269889
0.264679
0.266586
0.268907
0.271731
0.275183
0.279406
0.284505
0.290517
0.297456
0.305298
0.313982
0.32337
0.333112
0.342828
0.352105
0.360552
0.367862
0.373852
0.378471
0.381781
0.383923
0.385076
0.385423
0.385131
0.384338
0.383156
0.381669
0.379941
0.378019
0.375939
0.373727
0.371405
0.368991
0.366494
0.36393
0.361308
0.358632
0.355912
0.353161
0.350386
0.347595
0.344795
0.341995
0.339205
0.336437
0.333699
0.331004
0.328375
0.325835
0.323401
0.321105
0.318979
0.317052
0.31539
0.314067
0.313161
0.312766
0.312991
0.313951
0.315749
0.318479
0.322222
0.327011
0.332816
0.33954
0.346986
0.354867
0.362828
0.370493
0.37752
0.383654
0.388754
0.392786
0.395802
0.397893
0.39917
0.399726
0.399646
0.399013
0.397878
0.396273
0.39427
0.391993
0.38959
0.387222
0.38504
0.383116
0.381485
0.380336
0.262566
0.268405
0.268131
0.270008
0.262721
0.263116
0.268411
0.268627
0.269981
0.717229
0.667285
0.268379
0.269176
0.269674
0.26832
0.269807
0.26949
0.268257
0.269039
0.268208
0.26847
0.270672
0.268164
0.267769
0.266909
0.265908
0.593921
0.548835
0.505097
0.462917
0.422349
0.386271
0.389173
0.391872
0.394441
0.396994
0.399541
0.401977
0.404181
0.406041
0.407468
0.408394
0.408806
0.40868
0.40794
0.406508
0.404299
0.401202
0.39712
0.391991
0.385837
0.378784
0.371076
0.363046
0.355067
0.347499
0.340632
0.334672
0.329731
0.325841
0.322968
0.321038
0.31996
0.319628
0.319923
0.320741
0.321989
0.323579
0.325429
0.327495
0.329729
0.332101
0.334598
0.337161
0.339799
0.342477
0.345225
0.347956
0.350674
0.353449
0.356166
0.358834
0.361503
0.364163
0.366761
0.36933
0.371809
0.37419
0.376495
0.378673
0.38069
0.382485
0.383992
0.385136
0.385793
0.385822
0.385004
0.383173
0.38006
0.375539
0.369476
0.361944
0.35309
0.343377
0.333196
0.323138
0.313569
0.304829
0.296976
0.290036
0.284046
0.278956
0.274719
0.268207
0.264791
0.2635
0.271179
0.383367
0.267988
0.270065
0.764035
0.806277
0.842878
0.873238
0.897075
0.914349
0.925146
0.929498
0.927321
0.918641
0.903441
0.88167
0.853257
0.818323
0.777269
0.730908
0.68048
0.627592
0.574035
0.521483
0.471234
0.424055
0.380239
0.262337
0.267998
0.26798
0.263546
0.262204
0.270324
0.261966
0.261877
0.262568
0.26443
0.266715
0.2695
0.272842
0.276809
0.281529
0.287122
0.293637
0.301074
0.309367
0.318355
0.327782
0.337269
0.34643
0.354888
0.362326
0.368532
0.373418
0.377013
0.37943
0.380828
0.381384
0.381261
0.380601
0.379521
0.378109
0.376434
0.374548
0.372489
0.370285
0.36796
0.365532
0.363013
0.360422
0.35776
0.355034
0.352258
0.34944
0.346585
0.343702
0.340796
0.337873
0.33494
0.332003
0.329069
0.326148
0.323248
0.320379
0.317544
0.314758
0.312045
0.309421
0.306905
0.304528
0.302327
0.300325
0.298567
0.297131
0.296088
0.29552
0.295522
0.296197
0.29765
0.299974
0.303232
0.307452
0.312611
0.318599
0.325226
0.332217
0.339235
0.34592
0.351936
0.357028
0.361039
0.363924
0.365723
0.366531
0.366478
0.36569
0.364289
0.362392
0.360123
0.357617
0.355008
0.352432
0.349958
0.347512
0.344929
0.342205
0.339766
0.267931
0.26841
0.270437
0.741636
0.691037
0.267791
0.269
0.269595
0.267589
0.270401
0.270216
0.267341
0.270113
0.269885
0.267068
0.269419
0.266777
0.268826
0.266498
0.268075
0.268285
0.266232
0.267169
0.266129
0.615874
0.564625
0.514895
0.467545
0.422942
0.381151
0.342117
0.346069
0.350177
0.35388
0.357072
0.359935
0.362699
0.365437
0.368098
0.370552
0.372698
0.374438
0.375658
0.376255
0.376115
0.375128
0.373174
0.37016
0.366042
0.360857
0.354748
0.347959
0.340814
0.333676
0.326883
0.32072
0.315376
0.310969
0.307544
0.305066
0.303472
0.302673
0.30257
0.303048
0.304011
0.305374
0.307069
0.309015
0.311156
0.313482
0.315948
0.31852
0.321189
0.323925
0.326711
0.329531
0.3324
0.335274
0.338146
0.341051
0.343923
0.346755
0.349585
0.352422
0.355213
0.357992
0.360703
0.363341
0.365942
0.368492
0.370942
0.373248
0.375399
0.377368
0.379086
0.38049
0.381482
0.381931
0.381694
0.380556
0.378335
0.374811
0.369851
0.363451
0.355643
0.346788
0.337162
0.327367
0.317789
0.308691
0.300309
0.29281
0.286264
0.280586
0.275736
0.271719
0.266
0.268419
0.26581
0.264962
0.259165
0.267902
0.26637
0.264216
0.263663
0.262175
0.261431
0.260917
0.261051
0.261021
0.260183
0.259843
0.260796
0.259652
0.258901
0.259266
0.260667
0.258174
0.26222
0.257637
0.259027
0.260634
0.270511
0.787679
0.828203
0.862667
0.890844
0.912737
0.928478
0.938226
0.942073
0.939977
0.931947
0.917947
0.897841
0.871446
0.838653
0.799568
0.754555
0.704394
0.650313
0.593944
0.537198
0.482013
0.42995
0.381974
0.338443
0.272145
0.276746
0.282182
0.288533
0.295744
0.30372
0.312438
0.32177
0.331342
0.340675
0.349461
0.357272
0.363914
0.369148
0.373003
0.375565
0.377007
0.377525
0.37729
0.376465
0.375191
0.373563
0.371668
0.36956
0.367278
0.364842
0.362324
0.359694
0.356963
0.354173
0.351357
0.348522
0.34563
0.342695
0.339762
0.336796
0.333845
0.330874
0.327888
0.324882
0.3219
0.318923
0.315962
0.313044
0.310152
0.307295
0.304499
0.301784
0.299155
0.296636
0.294266
0.292067
0.290082
0.288336
0.286879
0.285796
0.28516
0.285055
0.285566
0.286785
0.288799
0.291671
0.295411
0.299979
0.305258
0.311051
0.317089
0.32305
0.328594
0.333411
0.337265
0.340025
0.341663
0.342242
0.341886
0.340744
0.338972
0.336721
0.334143
0.331405
0.328644
0.325874
0.322929
0.319515
0.315403
0.310678
0.305822
0.267826
0.268163
0.27077
0.637304
0.582204
0.527615
0.475175
0.425997
0.380629
0.339175
0.301523
0.256632
0.257581
0.258779
0.260268
0.262086
0.264302
0.267005
0.270262
0.274126
0.278668
0.283955
0.290066
0.297056
0.304881
0.313408
0.322458
0.331687
0.340671
0.349055
0.356526
0.362861
0.367942
0.371768
0.374421
0.376044
0.376799
0.376845
0.376324
0.375355
0.37403
0.372423
0.370586
0.368562
0.366382
0.364071
0.361647
0.359125
0.356523
0.353845
0.351096
0.348288
0.345432
0.342534
0.339599
0.336634
0.333644
0.330635
0.32761
0.324576
0.321538
0.318501
0.315472
0.312457
0.309465
0.306506
0.303576
0.300684
0.297851
0.295095
0.292429
0.289874
0.287461
0.285221
0.283186
0.281388
0.279874
0.278721
0.278005
0.2778
0.278189
0.279264
0.281105
0.283776
0.287299
0.291638
0.296686
0.302251
0.308076
0.313842
0.319212
0.32387
0.327575
0.330184
0.331668
0.33209
0.331579
0.330295
0.328405
0.326077
0.323485
0.320807
0.318207
0.315679
0.31302
0.30994
0.306337
0.302546
0.29931
0.267652
0.268736
0.269398
0.26739
0.270879
0.270834
0.267049
0.270029
0.755528
0.706529
0.27064
0.266642
0.270563
0.270298
0.26618
0.269816
0.265686
0.26919
0.265182
0.2684
0.264681
0.267462
0.264207
0.266389
0.263883
0.265181
0.263829
0.255893
0.25725
0.262333
0.254102
0.25534
0.267941
0.24773
0.257744
0.258897
0.260679
0.270967
0.267794
0.271607
0.276774
0.283265
0.290563
0.29854
0.307092
0.316058
0.325228
0.33442
0.343178
0.351027
0.357711
0.363149
0.367247
0.370081
0.371772
0.372524
0.372498
0.371855
0.37073
0.369218
0.367408
0.365358
0.363123
0.360734
0.35822
0.355586
0.352865
0.35011
0.347237
0.344315
0.341346
0.338369
0.335392
0.332376
0.329329
0.326289
0.32323
0.320183
0.317121
0.314052
0.310974
0.307919
0.304875
0.301857
0.298875
0.295911
0.292979
0.290102
0.287297
0.284566
0.281926
0.279407
0.277026
0.274819
0.272814
0.271043
0.269547
0.26837
0.26758
0.267255
0.267453
0.268237
0.269675
0.271817
0.274682
0.278231
0.282342
0.286835
0.291465
0.295948
0.299983
0.303296
0.30568
0.307027
0.307338
0.306707