/*--------------------------------*- C++ -*----------------------------------*\
| =========                 |                                                 |
| \\      /  F ield         | OpenFOAM: The Open Source CFD Toolbox           |
|  \\    /   O peration     | Version:  2212                                  |
|   \\  /    A nd           | Website:  www.openfoam.com                      |
|    \\/     M anipulation  |                                                 |
\*---------------------------------------------------------------------------*/
FoamFile
{
    version     2.0;
    format      ascii;
    arch        "LSB;label=32;scalar=64";
    class       volVectorField;
    location    "0.0043";
    object      U;
}
// * * * * * * * * * * * * * * * * * * * * * * * * * * * * * * * * * * * * * //

dimensions      [0 1 -1 0 0 0 0];

internalField   nonuniform List<vector> 
2681
(
(-3.25235e-05 1.27583e-05 -6.23936e-17)
(-0.00888632 0.263736 0)
(0.0189138 0.272304 -9.32856e-17)
(3.97552e-05 -7.27729e-05 -2.76084e-16)
(0.0127805 0.453217 6.45421e-17)
(0.0108072 0.267533 1.5867e-16)
(-2.77586e-05 -4.65517e-05 -6.86649e-17)
(-2.90693e-05 -7.84914e-05 8.92834e-18)
(-2.83313e-05 -7.59962e-05 1.77024e-17)
(-2.8315e-05 -7.45629e-05 -4.45632e-18)
(2.48469e-05 -7.36296e-05 0)
(3.01598e-05 -5.93602e-05 -4.73411e-18)
(3.19019e-05 -6.16556e-05 -4.59654e-18)
(-3.4042e-05 -4.62176e-05 0)
(3.4328e-05 -6.30285e-05 -2.10124e-17)
(-3.38754e-05 -5.31324e-05 3.44212e-17)
(-3.29285e-05 -5.34543e-05 0)
(3.11474e-05 -8.3555e-05 -2.20037e-17)
(2.65831e-05 -7.33714e-05 9.75083e-17)
(3.35618e-05 -7.96605e-05 -1.12651e-16)
(2.51977e-05 -7.12039e-05 -3.62719e-16)
(3.48275e-05 -6.45908e-05 2.6707e-17)
(3.24725e-05 -6.6178e-05 -1.06688e-16)
(3.56858e-05 -7.01397e-05 7.18723e-17)
(3.69388e-05 -5.76308e-05 -3.98776e-17)
(3.42832e-05 -6.0182e-05 0)
(4.0121e-05 -8.17457e-05 -8.35997e-17)
(3.17431e-05 -7.40889e-05 7.83212e-18)
(1.98505e-05 -6.85282e-05 3.55857e-17)
(3.43051e-05 -7.50762e-05 4.26726e-17)
(2.51986e-05 -7.4706e-05 -2.0175e-17)
(2.81373e-05 -7.51067e-05 4.18331e-17)
(2.82401e-05 -8.08976e-05 -3.65094e-17)
(3.11313e-05 -6.69056e-05 1.84943e-17)
(3.0704e-05 -6.7985e-05 0)
(3.17626e-05 -6.36089e-05 -2.73842e-17)
(-2.7406e-05 -6.35389e-05 6.91676e-17)
(-3.75908e-05 -6.25404e-05 8.2888e-18)
(-3.23703e-05 -5.76432e-05 -1.6528e-17)
(-3.37291e-05 -6.06345e-05 -1.67531e-17)
(-2.59054e-05 -5.16704e-05 3.08466e-17)
(-3.13866e-05 -6.87865e-05 0)
(-3.19664e-05 -5.97801e-05 -8.74589e-18)
(-3.40091e-05 -6.81514e-05 0)
(-3.24874e-05 -7.42949e-05 0)
(-0.00637195 0.305115 0)
(-2.98885e-05 -7.06631e-05 4.51503e-18)
(-2.79285e-05 -7.72999e-05 -3.51833e-17)
(2.76748e-05 -7.92278e-05 0)
(-2.91726e-05 -7.79399e-05 -8.94098e-18)
(-2.85596e-05 -7.79e-05 2.06524e-26)
(-3.20243e-05 -5.91338e-05 6.58004e-17)
(-3.75654e-05 -4.81811e-05 4.91996e-18)
(-2.97812e-05 -7.87752e-05 -8.90864e-18)
(-2.96143e-05 -7.94025e-05 1.81262e-17)
(2.92287e-05 -6.17055e-05 4.59105e-18)
(2.96296e-05 -5.88885e-05 -1.38009e-17)
(2.65408e-05 -7.91835e-05 -9.30149e-18)
(-2.9172e-05 -7.81438e-05 0)
(-2.89497e-05 -7.70498e-05 1.77438e-17)
(-2.88848e-05 -7.72346e-05 4.44983e-18)
(3.50277e-05 -7.79636e-05 0)
(1.75503e-05 -8.19909e-05 7.82086e-17)
(3.75297e-05 -6.86862e-05 9.28855e-17)
(2.48898e-05 -6.92688e-05 -1.59204e-17)
(3.69533e-05 -6.66544e-05 7.57989e-26)
(3.26226e-05 -7.23272e-05 0)
(3.60447e-05 -6.32291e-05 0)
(3.73494e-05 -6.43389e-05 1.70974e-17)
(2.00113e-05 6.56562e-06 0)
(4.03108e-05 -6.1628e-05 3.52835e-17)
(-3.75763e-05 -5.82544e-05 8.04248e-18)
(-3.62203e-05 -5.66926e-05 -2.89693e-17)
(-4.08019e-05 -6.26661e-05 -5.17729e-17)
(-3.55048e-05 -6.61157e-05 -1.55121e-17)
(3.00523e-05 -5.14963e-05 1.90541e-17)
(3.60251e-05 -9.0014e-07 0)
(-3.18849e-05 -4.04602e-05 2.43412e-16)
(-0.00728466 0.39362 1.56294e-16)
(2.68109e-05 -7.43372e-05 3.836e-17)
(3.14313e-05 -8.05461e-05 -2.13638e-17)
(2.46538e-05 -8.16738e-05 5.42997e-17)
(2.52713e-05 -7.60972e-05 0)
(2.59607e-05 -7.8523e-05 3.98046e-17)
(2.897e-05 -7.22727e-05 4.0061e-17)
(2.63187e-05 -6.86001e-05 -3.85569e-18)
(2.88834e-05 -6.68993e-05 0)
(2.93368e-05 -6.93143e-05 -1.91984e-17)
(2.94462e-05 -6.40188e-05 2.76291e-17)
(-2.74954e-05 -6.17089e-05 0)
(-3.1163e-05 -5.85771e-05 0)
(-3.12665e-05 -6.60369e-05 3.69576e-17)
(-3.19181e-05 -6.03245e-05 -3.63458e-17)
(-2.61297e-05 -7.1133e-05 9.33615e-18)
(-2.88737e-05 -6.15927e-05 0)
(-2.68536e-05 -7.42852e-05 0)
(-2.72316e-05 -7.2417e-05 -9.06038e-18)
(-2.76755e-05 -7.62506e-05 0)
(-2.67763e-05 -7.58306e-05 0)
(-2.79567e-05 -7.70343e-05 1.76301e-17)
(-2.94826e-05 -7.9354e-05 -2.27425e-18)
(-2.93541e-05 -7.90412e-05 2.2707e-18)
(2.81261e-05 -5.68379e-05 1.81904e-17)
(2.91356e-05 -5.35181e-05 1.47497e-16)
(3.04723e-05 -5.65849e-05 0)
(-3.33078e-05 -5.51247e-05 -6.68057e-17)
(2.93379e-05 -7.54645e-05 0)
(-2.86196e-05 -7.22836e-05 -4.40436e-18)
(-2.87966e-05 -7.2407e-05 -2.20143e-17)
(4.1577e-05 -4.71872e-05 -2.17069e-16)
(3.39343e-05 -5.07391e-05 1.41776e-16)
(3.60798e-05 -5.15674e-05 0)
(-3.15688e-05 -5.17434e-05 0)
(-2.67327e-05 -5.97926e-05 -6.349e-17)
(-2.21624e-05 -5.37638e-05 1.41738e-16)
(-2.34508e-05 -5.58261e-05 1.56583e-16)
(-2.95872e-05 -7.60376e-05 -1.80643e-17)
(-2.88031e-05 -7.94263e-05 3.67157e-17)
(-2.83658e-05 -7.57912e-05 1.84089e-17)
(3.20364e-05 -4.59303e-05 -7.075e-17)
(3.40487e-05 -4.6421e-05 4.40105e-17)
(-3.72099e-05 -4.95379e-05 -9.70402e-18)
(0.0137627 0.5946 -3.27966e-16)
(2.77825e-05 -5.5743e-05 3.58747e-17)
(3.20704e-05 -5.4524e-05 -3.76791e-17)
(-3.205e-05 -5.01696e-05 0)
(2.90438e-05 -7.8183e-05 0)
(-0.010077 0.27067 2.35838e-16)
(2.99598e-05 -7.83106e-05 1.5797e-18)
(-1.26021e-05 -1.06205e-05 0)
(-2.83164e-05 -3.83785e-05 7.41632e-17)
(3.37299e-05 -8.02101e-05 1.02084e-16)
(2.74526e-05 -8.02507e-05 -3.3178e-17)
(3.13488e-05 -7.47955e-05 -8.52677e-18)
(3.051e-05 -7.4163e-05 8.72081e-18)
(3.78948e-05 -7.08461e-05 -4.88448e-17)
(3.1637e-05 -7.37646e-05 1.66417e-17)
(3.93872e-05 -6.49116e-05 0)
(3.78327e-05 -6.57397e-05 3.27623e-17)
(4.33319e-05 -5.87384e-05 1.61916e-17)
(3.92257e-05 -6.11943e-05 1.86368e-17)
(3.47277e-05 -4.93779e-05 3.04552e-17)
(-3.98083e-05 -5.62117e-05 7.95441e-18)
(-3.94478e-05 -5.40493e-05 -1.94446e-17)
(-4.14707e-05 -6.32309e-05 3.87284e-18)
(-4.03192e-05 -5.87706e-05 7.46436e-26)
(-4.01537e-05 -4.48069e-05 3.47379e-17)
(-2.94176e-05 -7.88574e-05 9.06495e-18)
(-0.000217111 0.0245145 7.66687e-16)
(-3.05416e-05 -7.54216e-05 -8.79995e-18)
(-2.98332e-05 -7.60672e-05 0)
(2.79816e-05 -7.38341e-05 4.37516e-18)
(3.12057e-05 -7.42332e-05 3.33014e-17)
(2.94037e-05 -7.053e-05 0)
(2.72198e-05 -7.04906e-05 -1.91157e-17)
(2.88563e-05 -7.08615e-05 -3.59194e-17)
(2.66394e-05 -7.0517e-05 9.82574e-18)
(2.53424e-05 -7.16643e-05 -9.6699e-18)
(2.53154e-05 -6.88842e-05 -1.93657e-17)
(2.4839e-05 -7.01135e-05 1.84306e-17)
(2.70276e-05 -6.47775e-05 0)
(2.60018e-05 -6.63072e-05 -9.49471e-18)
(2.706e-05 -5.92132e-05 0)
(2.6432e-05 -6.16606e-05 -9.15259e-18)
(2.65436e-05 -5.35409e-05 -1.776e-17)
(2.64883e-05 -5.65188e-05 0)
(2.6529e-05 -4.45459e-05 0)
(2.59054e-05 -5.29478e-05 3.44739e-17)
(-2.61913e-05 -5.55464e-05 -1.83726e-17)
(-2.96017e-05 -5.33699e-05 3.98606e-17)
(-2.66467e-05 -6.3412e-05 -1.8238e-17)
(-2.77775e-05 -5.9119e-05 3.68071e-17)
(-2.70019e-05 -6.73076e-05 -9.14891e-18)
(-2.61847e-05 -6.48694e-05 0)
(-2.59637e-05 -7.06888e-05 2.18997e-18)
(-2.46275e-05 -6.95473e-05 0)
(-2.72561e-05 -7.16663e-05 -3.48946e-17)
(-2.53683e-05 -7.16445e-05 1.96483e-17)
(-2.75054e-05 -7.19471e-05 1.75699e-17)
(-2.90818e-05 -7.82707e-05 1.35135e-17)
(-2.89418e-05 -7.28175e-05 4.36592e-17)
(-2.90201e-05 -7.74034e-05 4.42174e-18)
(-2.90425e-05 -7.91977e-05 -1.81604e-17)
(-2.03019e-05 -1.53633e-05 7.63559e-17)
(3.13133e-05 -7.65916e-05 -1.07258e-16)
(3.24368e-05 -6.02019e-05 -2.17059e-16)
(-3.75066e-05 -4.76734e-05 -2.86742e-17)
(3.29106e-05 -4.61845e-05 -7.62782e-17)
(2.92234e-05 -4.18177e-05 3.98392e-17)
(3.10859e-05 -4.97093e-05 7.67901e-17)
(2.72387e-05 -5.15102e-05 -1.07507e-16)
(-3.16809e-05 -5.08173e-05 0)
(3.21788e-05 -6.12577e-05 6.24149e-17)
(-3.06161e-05 -5.33482e-05 -7.05914e-17)
(-2.63302e-05 -4.92661e-05 7.08891e-17)
(-2.92854e-05 -7.1868e-05 1.79888e-17)
(-2.80944e-05 -7.16248e-05 -2.27663e-17)
(3.00399e-05 -4.89502e-05 3.79613e-17)
(-2.95312e-05 -4.58413e-05 7.88724e-17)
(2.83101e-05 -7.71426e-05 0)
(2.56856e-05 -7.50335e-05 -1.65645e-17)
(3.1268e-05 1.10105 1.01242e-19)
(3.9406e-05 1.04545 -1.34884e-19)
(-0.000106157 1.04545 -1.09637e-18)
(-3.29263e-06 1.1011 1.08839e-18)
(-2.82583e-05 -7.25731e-05 -1.73641e-17)
(-2.85849e-05 -6.71948e-05 -1.72817e-17)
(-2.79974e-05 -6.69467e-05 0)
(1.59304e-05 -4.6055e-05 1.73279e-16)
(3.67374e-05 -4.30345e-05 0)
(-3.03768e-05 -1.85095e-05 -8.16337e-17)
(2.69749e-05 -7.7234e-05 3.50606e-17)
(-1.09482e-05 4.01471e-05 -3.26924e-16)
(0.0168149 0.327926 2.21084e-16)
(0.0119285 0.402537 -8.97896e-17)
(2.9693e-05 -5.0849e-05 0)
(-2.70397e-05 -5.46335e-05 0)
(0.00912789 0.23794 3.6795e-16)
(2.70872e-05 -7.9441e-05 -3.58545e-17)
(3.82935e-05 -2.09775e-05 1.43519e-16)
(2.94379e-05 -7.27818e-05 -3.32061e-17)
(2.73668e-05 -7.72462e-05 3.38295e-17)
(2.94853e-05 -7.25389e-05 0)
(3.05897e-05 -7.521e-05 3.34825e-17)
(3.39586e-05 -7.05843e-05 8.38445e-18)
(3.07594e-05 -7.12786e-05 -1.68945e-17)
(3.76737e-05 -6.67294e-05 1.64569e-17)
(3.54447e-05 -6.85854e-05 9.92448e-26)
(4.12382e-05 -6.14266e-05 0)
(3.93737e-05 -6.43009e-05 -8.17383e-18)
(4.3025e-05 -5.38277e-05 0)
(4.16471e-05 -5.85537e-05 -2.04919e-18)
(4.33147e-05 -4.83977e-05 -3.25909e-17)
(4.10294e-05 -5.32798e-05 0)
(3.86827e-05 -4.26071e-05 -1.73465e-17)
(-4.26149e-05 -5.26517e-05 1.59297e-17)
(-4.25115e-05 -4.89622e-05 2.35519e-17)
(-4.13791e-05 -5.93881e-05 -1.97097e-17)
(-4.26125e-05 -5.6652e-05 -1.56665e-17)
(-3.92679e-05 -6.43869e-05 4.08795e-18)
(-4.13377e-05 -6.21732e-05 9.9694e-18)
(-3.45604e-05 -6.8815e-05 -2.11395e-18)
(-3.69814e-05 -6.66993e-05 0)
(-3.10503e-05 -7.15267e-05 -1.69083e-17)
(-3.22632e-05 -7.01309e-05 2.16183e-17)
(-3.01537e-05 -7.20981e-05 0)
(4.66825e-05 0.995194 3.37131e-20)
(-0.000149582 0.949747 -3.36852e-20)
(-0.000302158 0.908273 -5.2163e-19)
(-0.000510578 0.870181 1.61333e-18)
(-0.000360212 0.835058 -8.05489e-19)
(1.76785e-05 0.802319 -1.33909e-19)
(-0.000405379 0.771448 -2.26823e-18)
(-0.00104062 0.742652 -4.12103e-18)
(-0.00112525 0.715654 -1.3189e-19)
(-0.000788483 0.6896 -2.09257e-18)
(-0.00102188 0.690642 0)
(-0.000758155 0.664622 4.13264e-18)
(-0.0013021 0.640298 1.42257e-17)
(-0.00174785 0.642767 2.42635e-17)
(-0.00181759 0.666177 -8.2666e-18)
(4.79855e-06 0.743227 4.39379e-18)
(-0.00019152 0.716466 8.33196e-18)
(-0.000454412 0.802005 8.04109e-19)
(-0.000609963 0.771505 0)
(0.000314479 0.870388 5.37986e-19)
(0.000258902 0.834988 -9.40067e-25)
(-5.3897e-05 0.949796 5.72898e-19)
(2.21524e-05 0.908423 -1.21116e-18)
(-0.000174985 0.995219 -3.37134e-20)
(2.93525e-05 -6.68142e-05 0)
(2.55238e-05 -6.90279e-05 0)
(2.68156e-05 -6.56249e-05 1.86451e-17)
(2.76537e-05 -6.78121e-05 0)
(2.57402e-05 -6.66085e-05 -9.56309e-18)
(2.5039e-05 -6.69133e-05 -9.45594e-18)
(2.52982e-05 -6.57705e-05 9.63432e-18)
(2.32898e-05 -6.48314e-05 -8.43295e-18)
(2.5278e-05 -6.28147e-05 -1.85071e-17)
(2.33049e-05 -6.40735e-05 -9.37406e-18)
(2.47696e-05 -5.76716e-05 0)
(2.37973e-05 -6.03309e-05 1.81636e-17)
(2.43812e-05 -5.3825e-05 -1.74158e-17)
(2.42552e-05 -5.55694e-05 8.83757e-18)
(-1.82912e-05 2.91485e-05 3.36253e-16)
(2.60649e-05 -5.31568e-05 2.35596e-17)
(2.80549e-05 -5.00682e-05 3.81502e-18)
(-3.01361e-05 -5.259e-05 0)
(-2.25854e-05 -5.54118e-05 -2.75152e-16)
(-3.03065e-05 -4.37571e-05 -2.75875e-16)
(-2.082e-05 -4.95649e-05 -6.17031e-17)
(-2.55808e-05 -4.79765e-05 1.89089e-17)
(-2.76304e-05 -5.27032e-05 0)
(-2.44535e-05 -5.54982e-05 -1.84143e-17)
(-2.26798e-05 -5.40656e-05 -9.47239e-18)
(-2.43846e-05 -6.09518e-05 -9.06734e-18)
(-2.42763e-05 -5.73376e-05 1.81592e-17)
(-2.4879e-05 -6.53701e-05 2.67633e-17)
(-2.35099e-05 -6.13881e-05 0)
(-2.49673e-05 -6.70095e-05 1.52963e-17)
(-2.36602e-05 -6.64909e-05 -8.83569e-18)
(-2.66488e-05 -6.67914e-05 -1.7387e-17)
(-2.51883e-05 -6.70904e-05 -1.90923e-17)
(-2.82171e-05 -6.68577e-05 4.37019e-18)
(-2.73951e-05 -6.65602e-05 8.72359e-18)
(-2.83132e-05 -6.7063e-05 4.3611e-18)
(-2.79321e-05 -7.84514e-05 -1.79794e-17)
(-2.78446e-05 -7.75206e-05 -1.763e-17)
(-2.78734e-05 -7.9131e-05 -5.73665e-17)
(-2.78297e-05 -7.91714e-05 2.04183e-17)
(-2.63403e-05 -7.04833e-05 1.84575e-17)
(-2.71346e-05 -7.51632e-05 0)
(-1.85954e-05 8.0062e-06 0)
(1.88475e-05 5.02812e-05 -1.61397e-16)
(2.90671e-05 -5.15521e-05 -3.74898e-17)
(2.56541e-05 -5.46022e-05 1.40169e-16)
(-2.53081e-05 -5.18806e-05 -1.41641e-16)
(-2.88875e-05 -5.16632e-05 -7.46488e-17)
(2.37518e-05 -5.91622e-05 -1.56758e-17)
(4.13749e-05 -3.4881e-05 1.40082e-16)
(-0.000143638 1.16333 1.34969e-19)
(0.000101165 1.1634 0)
(2.32003e-05 -4.8946e-05 -7.23236e-17)
(2.00329e-05 0.000109176 0)
(-0.000572401 0.68934 8.39646e-18)
(-0.000675482 0.664685 8.32398e-18)
(2.84415e-05 -4.81043e-05 -1.5394e-16)
(-0.0346314 0.534507 9.15148e-17)
(-2.64327e-05 -5.43364e-05 2.8206e-16)
(-3.07795e-05 -4.82078e-05 8.09299e-17)
(2.54964e-05 -7.15372e-05 3.70595e-17)
(1.37703e-05 -7.088e-05 1.22854e-16)
(3.81565e-05 1.1633 -5.39731e-19)
(-0.000311575 1.23247 -1.6869e-19)
(4.28235e-05 1.23256 1.07967e-18)
(-2.70892e-05 -7.32619e-05 -1.08489e-18)
(-2.65524e-05 -6.63738e-05 6.95358e-18)
(-2.86957e-05 -5.41051e-05 -8.0204e-26)
(-2.81014e-05 -5.22395e-05 0)
(0.0039973 0.616726 2.32588e-17)
(-0.00194234 0.612921 -1.57577e-17)
(2.87309e-05 -5.54464e-05 4.9033e-17)
(2.09954e-05 -5.53914e-05 5.37696e-17)
(3.05319e-05 -3.99636e-05 0)
(-2.8122e-05 -4.86081e-05 8.84807e-17)
(-1.95996e-05 -5.78416e-05 4.01998e-17)
(-1.02474e-05 -5.50522e-05 -2.31247e-16)
(0.00999365 0.313329 1.66212e-16)
(3.39916e-05 -3.37633e-05 1.54862e-16)
(3.26215e-05 -1.87328e-05 1.38456e-16)
(-3.94848e-06 3.33229e-06 -1.55949e-16)
(-2.50947e-05 -5.7254e-05 -1.37379e-17)
(-2.41081e-05 -6.94224e-05 -1.85188e-17)
(-2.24445e-05 -5.61905e-05 1.85472e-17)
(2.89602e-05 -5.10029e-05 4.24742e-25)
(-2.80293e-05 -5.04884e-05 7.21844e-17)
(3.1008e-05 -6.78992e-05 3.46264e-17)
(2.71834e-05 -7.64645e-05 -1.72096e-17)
(2.6934e-05 -7.06216e-05 3.42269e-17)
(2.64568e-05 -7.74679e-05 3.52395e-17)
(2.69067e-05 -7.70955e-05 -1.63994e-17)
(2.53231e-05 -7.6887e-05 -3.59005e-17)
(3.24991e-05 -6.31648e-05 -1.64514e-17)
(2.21371e-05 -5.5607e-05 1.54878e-17)
(3.13136e-05 -6.24867e-05 0)
(2.81958e-05 -6.18207e-05 1.6669e-17)
(3.52347e-05 -5.95383e-05 -8.34393e-18)
(3.23765e-05 -5.98696e-05 0)
(3.98254e-05 -5.64724e-05 8.27294e-18)
(3.73968e-05 -5.8047e-05 1.24471e-17)
(4.39857e-05 -5.0938e-05 -4.08418e-18)
(4.21495e-05 -5.34904e-05 -2.45465e-17)
(4.69953e-05 -4.37441e-05 -3.33793e-17)
(4.56221e-05 -4.77858e-05 2.8587e-17)
(4.46802e-05 -3.78935e-05 3.24418e-17)
(4.60694e-05 -4.09693e-05 -3.24924e-17)
(3.89717e-05 -3.81442e-05 2.48714e-17)
(-2.63358e-05 -3.55377e-05 -8.68149e-17)
(-2.37712e-05 -2.79394e-05 -3.29769e-16)
(-4.57669e-05 -3.90099e-05 -3.02286e-17)
(-3.30115e-05 -3.28887e-05 2.16039e-17)
(-4.64947e-05 -4.28726e-05 -3.15803e-17)
(-4.40466e-05 -4.01869e-05 3.89123e-17)
(-4.42954e-05 -4.95923e-05 0)
(-4.597e-05 -4.61897e-05 1.55282e-17)
(-4.08736e-05 -5.37863e-05 4.08406e-18)
(-4.33417e-05 -5.22318e-05 -2.00639e-18)
(-3.56247e-05 -5.72069e-05 8.29487e-18)
(-3.86366e-05 -5.54095e-05 0)
(-3.12461e-05 -5.92976e-05 -5.41328e-19)
(-3.36741e-05 -5.83988e-05 -8.43355e-18)
(-2.87828e-05 -5.88585e-05 1.79306e-17)
(-3.05719e-05 -5.96179e-05 -2.18797e-17)
(-2.73985e-05 -5.8418e-05 1.35719e-17)
(-0.000152768 1.04545 0)
(-0.000133524 1.10104 -5.73434e-19)
(-0.000125355 0.949823 0)
(-0.000184719 0.995264 0)
(9.5167e-05 0.870208 1.68023e-20)
(-3.53689e-06 0.908324 -1.68288e-20)
(-0.000425268 0.802018 -5.36075e-19)
(-0.00019275 0.834875 1.17525e-19)
(0.000143685 0.742663 0)
(-2.37622e-05 0.771377 4.81203e-18)
(-0.000170619 0.715439 -8.472e-18)
(3.27459e-05 1.16337 -1.08e-18)
(-2.4954e-05 1.23259 -1.07982e-18)
(0.000350902 1.2325 3.03679e-19)
(0.027481 0.561112 8.34496e-17)
(-0.0358407 0.554833 5.26407e-17)
(2.89568e-05 6.47215e-05 1.38869e-16)
(-0.000599159 0.644359 -3.69827e-17)
(-0.009654 0.624291 -3.20431e-17)
(0.000422644 0.690217 -8.42298e-18)
(0.000628913 0.666678 0)
(8.27587e-06 0.743262 -4.26222e-18)
(4.71266e-05 0.715999 -4.24365e-18)
(0.000291336 0.802586 -1.60765e-18)
(0.000640387 0.77198 -5.35127e-19)
(-0.000423088 0.870474 -8.0716e-19)
(-0.000656445 0.835288 1.61005e-18)
(4.51574e-05 0.950049 -6.73703e-20)
(2.80972e-05 0.908584 6.72914e-19)
(8.78268e-05 1.04556 5.56685e-19)
(0.000108361 0.995417 -5.05684e-19)
(1.19341e-05 1.10112 1.0713e-18)
(2.61316e-05 -5.11586e-05 -9.10273e-18)
(3.22661e-05 -5.36268e-05 1.80261e-17)
(2.65531e-05 -5.167e-05 -4.64434e-18)
(2.92923e-05 -5.22141e-05 -9.14265e-18)
(2.53749e-05 -5.33738e-05 4.70319e-18)
(2.60419e-05 -5.23742e-05 -2.34112e-18)
(2.34584e-05 -5.38404e-05 -9.26079e-18)
(2.40958e-05 -5.28292e-05 8.48908e-18)
(2.23858e-05 -5.19178e-05 -9.19232e-18)
(2.27457e-05 -5.31117e-05 0)
(2.20241e-05 -4.8304e-05 0)
(2.2119e-05 -5.05795e-05 0)
(2.37282e-05 -4.53235e-05 -1.08384e-17)
(2.27805e-05 -4.69753e-05 2.19672e-18)
(2.6581e-05 -4.52161e-05 -1.66782e-17)
(2.6158e-05 -4.63625e-05 4.53983e-25)
(2.02592e-05 -5.00838e-05 -5.14554e-17)
(2.84769e-05 -4.89059e-05 2.90127e-17)
(1.49132e-05 -5.18518e-05 -1.8754e-17)
(1.56012e-05 -4.74144e-05 1.79061e-17)
(1.90853e-05 -4.45253e-05 0)
(-9.09838e-06 -4.41381e-05 1.32769e-16)
(-1.28852e-05 -4.14475e-05 -2.43448e-17)
(-5.55221e-06 -5.34997e-05 8.49305e-17)
(-1.36926e-05 -4.46148e-05 9.87074e-18)
(-1.52092e-06 -3.97981e-05 3.56795e-17)
(-1.36035e-05 -4.02881e-05 1.22247e-16)
(-2.22354e-05 -4.88117e-05 3.69475e-17)
(-2.44139e-05 -4.76923e-05 -5.01885e-17)
(-2.53091e-05 -4.36908e-05 3.79243e-18)
(-2.47262e-05 -4.59731e-05 4.50644e-17)
(-2.6247e-05 -4.57057e-05 3.52298e-17)
(-2.20804e-05 -4.68416e-05 -9.02553e-18)
(-2.49542e-05 -4.52053e-05 -2.7312e-17)
(-2.1591e-05 -5.07009e-05 8.94867e-18)
(-2.22786e-05 -4.80962e-05 1.80054e-17)
(-2.34262e-05 -5.40501e-05 -1.32392e-17)
(-2.20937e-05 -5.20422e-05 2.22513e-17)
(-2.49047e-05 -5.44751e-05 0)
(-2.35268e-05 -5.44545e-05 -1.31764e-17)
(-2.68393e-05 -5.32928e-05 0)
(-2.57179e-05 -5.38225e-05 -5.44719e-19)
(-2.80127e-05 -5.30496e-05 -1.08724e-17)
(-2.74138e-05 -5.27445e-05 8.69077e-18)
(-2.8019e-05 -5.30565e-05 4.33634e-18)
(-2.67283e-05 -7.86353e-05 -5.59708e-19)
(-2.67061e-05 -7.76321e-05 2.46808e-18)
(-2.60038e-05 -7.86902e-05 1.60468e-17)
(-2.65286e-05 -7.91634e-05 -1.55239e-17)
(-2.50177e-05 -7.44679e-05 0)
(-0.0103411 0.270412 -3.37202e-16)
(3.17616e-05 1.53923e-05 -3.5778e-16)
(0.000846372 0.641418 -4.54406e-23)
(2.64014e-05 -4.85408e-05 7.53845e-17)
(2.77697e-05 -5.33381e-05 1.44674e-16)
(-2.41058e-05 -5.10402e-05 0)
(-2.66808e-05 -5.02977e-05 -2.29613e-16)
(2.44696e-05 -6.0044e-05 -1.10456e-17)
(0.00182547 0.165326 -8.01927e-16)
(3.07401e-05 -3.35276e-05 -7.59214e-17)
(-1.64336e-05 -4.13284e-05 -1.44022e-16)
(-0.00018768 1.16354 1.0794e-18)
(-0.000124563 1.23267 3.37313e-20)
(2.41925e-05 -6.5541e-05 -4.42946e-17)
(2.19355e-05 3.79114e-05 1.84038e-16)
(2.92738e-05 -5.60392e-05 2.96034e-16)
(2.59316e-05 -5.52795e-05 1.70292e-24)
(2.75396e-05 -5.27179e-05 0)
(-3.00759e-05 -5.4365e-05 2.47654e-17)
(-2.42195e-05 -4.93328e-05 -2.27074e-17)
(-2.15373e-05 -4.78933e-05 1.0566e-25)
(-0.0129677 0.583624 -1.18828e-16)
(-3.25872e-05 -2.11142e-05 1.40133e-16)
(-3.90411e-05 -1.45043e-05 1.39353e-16)
(0.000915969 0.21509 1.71998e-16)
(-2.14819e-05 -2.85766e-05 0)
(0.000235966 0.689847 -1.69252e-17)
(0.000887619 0.665304 -6.00083e-22)
(3.09704e-05 -1.83083e-05 1.50587e-16)
(4.1675e-05 -1.08007e-06 6.43929e-17)
(3.86293e-05 -6.97334e-06 1.43223e-16)
(1.36044e-05 -5.44021e-05 -1.60985e-16)
(2.67534e-05 -4.59185e-05 0)
(-2.68544e-05 -4.65289e-05 0)
(-2.03953e-05 -4.92623e-05 0)
(-3.57165e-05 -1.82054e-05 4.24582e-16)
(0.000198167 1.16366 3.37365e-20)
(0.000187749 1.23282 6.74722e-20)
(-3.23435e-05 2.68118e-05 1.71941e-16)
(-0.0260341 0.316711 -6.22169e-17)
(-0.00370192 0.388965 4.96076e-21)
(2.57901e-05 -1.89673e-05 -1.43333e-16)
(3.33317e-05 -4.13227e-05 0)
(1.66963e-05 -4.55555e-05 -1.92746e-17)
(1.1844e-05 -4.48815e-05 0)
(1.39347e-05 -5.07829e-05 0)
(-2.1464e-06 -4.26148e-05 3.67174e-17)
(-3.48179e-06 -4.30722e-05 -5.20524e-25)
(-1.40928e-05 -5.2492e-05 1.45133e-16)
(-3.02313e-05 -4.17727e-05 0)
(-2.0412e-05 -2.13464e-05 -3.25925e-16)
(0.000603476 0.61709 -4.86475e-17)
(9.35462e-06 6.31126e-06 5.83889e-16)
(3.50941e-05 -3.44636e-05 3.0738e-16)
(2.75322e-05 1.2825e-05 2.06292e-16)
(2.48806e-05 -4.84636e-05 -7.36243e-17)
(-2.50941e-05 -5.14427e-05 0)
(2.48069e-05 -7.68416e-05 -1.30416e-25)
(2.50487e-05 -7.28659e-05 -2.61111e-17)
(2.54483e-05 -7.88674e-05 -1.7606e-17)
(2.48692e-05 -7.82527e-05 1.35659e-19)
(2.36844e-05 -7.45321e-05 0)
(2.46855e-05 -7.73311e-05 1.80783e-17)
(2.03852e-05 -4.75468e-05 0)
(2.33309e-05 -6.55957e-05 -3.91835e-17)
(1.7315e-05 -4.48097e-05 0)
(1.83824e-05 -4.31352e-05 2.58508e-24)
(3.00918e-05 -5.04383e-05 -1.04008e-17)
(2.49551e-05 -5.67772e-05 0)
(2.87973e-05 -4.97561e-05 -7.70424e-17)
(2.97968e-05 -5.57144e-05 4.47276e-18)
(3.06117e-05 -5.49238e-05 -4.44812e-18)
(3.5932e-05 -5.39664e-05 -8.3537e-18)
(3.3157e-05 -5.42723e-05 4.1791e-18)
(4.12582e-05 -5.1035e-05 0)
(3.881e-05 -5.24818e-05 -1.985e-25)
(4.58931e-05 -4.5766e-05 2.46066e-17)
(4.38098e-05 -4.86386e-05 4.11855e-18)
(4.898e-05 -3.96885e-05 -5.15951e-19)
(4.81788e-05 -4.27903e-05 -1.23286e-17)
(4.49436e-05 -3.58179e-05 -3.20272e-17)
(4.89767e-05 -3.83097e-05 0)
(3.1624e-05 -2.84741e-05 4.44755e-17)
(4.54356e-05 -3.30948e-05 2.36244e-17)
(4.03836e-05 -2.29651e-05 -1.20113e-16)
(-3.33135e-05 -2.66748e-05 5.62491e-17)
(-3.5675e-05 -2.36675e-05 -1.15577e-16)
(-4.17421e-05 -3.13941e-05 0)
(-3.99936e-05 -3.33083e-05 -5.13964e-17)
(-4.85961e-05 -3.77831e-05 1.52607e-17)
(-4.69537e-05 -3.54648e-05 0)
(-4.66351e-05 -4.46948e-05 -7.87921e-18)
(-4.85149e-05 -4.15688e-05 0)
(-4.22081e-05 -4.9057e-05 0)
(-4.5119e-05 -4.72662e-05 0)
(-3.65163e-05 -5.20096e-05 1.65049e-17)
(-3.98773e-05 -5.0531e-05 -1.63541e-17)
(-3.15223e-05 -5.32363e-05 8.58141e-18)
(-3.45263e-05 -5.3039e-05 4.16042e-18)
(-2.82343e-05 -5.23223e-05 -8.86561e-18)
(-3.02372e-05 -5.31402e-05 -2.17166e-17)
(-2.66116e-05 -5.10694e-05 1.79037e-17)
(-0.00012718 1.04551 -4.71991e-19)
(-0.000132099 1.10121 -1.01157e-18)
(-0.000125075 0.949739 5.38742e-19)
(-0.000106539 0.995211 6.73722e-19)
(-0.000419047 0.87023 0)
(-0.000287596 0.908291 -5.38283e-19)
(-7.83722e-05 0.802105 -1.07335e-18)
(-0.000163204 0.834992 -6.7179e-20)
(-0.000408521 0.742798 -4.26648e-18)
(-0.00030514 0.771384 -2.14208e-18)
(-3.65334e-05 0.715792 1.27681e-17)
(1.38762e-05 1.3108 0)
(0.0001985 1.31109 1.0114e-18)
(0.000104932 1.31091 -7.4166e-19)
(-9.33838e-08 -5.02362e-05 -7.87949e-17)
(-0.000146362 1.31114 -6.74237e-20)
(-0.000195897 1.31109 6.74044e-20)
(-0.00227676 0.505974 0)
(-0.0124363 0.463418 9.97672e-17)
(0.0185022 0.595887 -3.5446e-17)
(0.0142235 0.570251 8.71393e-17)
(4.78359e-05 0.640118 -2.9526e-17)
(0.00119469 0.617519 4.23061e-17)
(6.18016e-06 0.688857 4.24388e-18)
(-1.72283e-05 0.663818 4.22966e-18)
(1.30066e-05 0.742413 -4.26873e-18)
(3.28469e-05 0.715168 -1.74584e-22)
(-0.000243245 0.80235 -2.14205e-18)
(-0.000359366 0.771359 8.55956e-18)
(0.000400063 0.870383 -2.69114e-19)
(0.000654095 0.835237 -2.6869e-19)
(0.000106682 0.949936 -4.71407e-19)
(9.22356e-06 0.908435 5.38595e-19)
(0.000119221 1.04572 5.39484e-19)
(0.000100342 0.99543 2.36028e-19)
(0.000173925 1.10136 -5.39892e-19)
(3.05541e-05 -4.10382e-05 1.35159e-16)
(2.44232e-05 -4.27932e-05 7.76517e-17)
(2.72759e-05 -4.07422e-05 -2.36753e-16)
(2.33962e-05 -4.71991e-05 -1.03554e-17)
(2.91821e-05 -4.75238e-05 -3.34504e-17)
(2.72072e-05 -4.53278e-05 -4.07356e-18)
(2.9668e-05 -4.21373e-05 1.42235e-17)
(2.73652e-05 -4.56165e-05 2.31904e-18)
(2.86907e-05 -4.48032e-05 -5.76995e-19)
(2.58057e-05 -4.74453e-05 2.45428e-18)
(2.70629e-05 -4.62758e-05 -4.47591e-26)
(2.31745e-05 -4.86104e-05 -2.29216e-18)
(2.51404e-05 -4.76261e-05 -2.87351e-19)
(2.08475e-05 -4.76709e-05 1.35783e-17)
(2.28163e-05 -4.81831e-05 4.56895e-18)
(2.02811e-05 -4.57726e-05 4.41338e-18)
(2.07365e-05 -4.70478e-05 1.46167e-25)
(2.31683e-05 -4.44799e-05 1.08436e-17)
(2.19212e-05 -4.51896e-05 -1.31644e-17)
(2.64186e-05 -4.56974e-05 2.11395e-18)
(2.59462e-05 -4.53937e-05 -1.50901e-17)
(2.43472e-05 -4.55177e-05 -5.97821e-17)
(2.53862e-05 -4.69341e-05 1.2725e-17)
(1.45336e-05 -4.62606e-05 -1.74654e-17)
(2.03103e-05 -4.60295e-05 3.47498e-17)
(7.65563e-06 -4.43509e-05 0)
(6.70051e-06 -4.54272e-05 -1.72907e-17)
(1.17862e-05 -4.61065e-05 1.73979e-17)
(5.16911e-06 -4.52559e-05 0)
(1.96213e-06 -4.45569e-05 -4.25012e-18)
(-2.63304e-06 -4.20826e-05 0)
(-7.05436e-07 -4.49346e-05 8.70796e-18)
(1.18444e-06 -4.52968e-05 0)
(-4.01595e-06 -4.33947e-05 -1.13051e-18)
(-2.1261e-06 -4.5893e-05 8.92904e-18)
(-1.26031e-05 -4.9709e-05 0)
(-4.78297e-06 -4.90109e-05 1.10327e-18)
(-1.85264e-05 -5.08404e-05 2.55028e-17)
(-1.54741e-05 -4.33243e-05 -4.32891e-18)
(-2.74292e-05 -4.46725e-05 -1.83709e-25)
(-2.67158e-05 -4.8895e-05 1.65934e-17)
(-2.59396e-05 -4.30063e-05 -8.80914e-18)
(-2.77595e-05 -4.5968e-05 0)
(-2.14032e-05 -4.45968e-05 8.93633e-18)
(-2.3705e-05 -4.44755e-05 -1.78786e-17)
(-2.00964e-05 -4.67614e-05 4.42234e-18)
(-2.03212e-05 -4.53524e-05 4.45296e-18)
(-2.26291e-05 -4.85066e-05 -2.19277e-17)
(-2.09332e-05 -4.74139e-05 1.32358e-17)
(-2.54271e-05 -4.82266e-05 -8.70805e-18)
(-2.37932e-05 -4.85532e-05 1.31252e-17)
(-2.72416e-05 -4.67111e-05 0)
(-2.63911e-05 -4.74148e-05 0)
(-2.78973e-05 -4.56111e-05 1.95297e-17)
(-2.73277e-05 -4.61259e-05 -6.5061e-18)
(-2.9071e-05 -4.44706e-05 3.76092e-25)
(-2.68057e-05 -4.62431e-05 -8.65701e-18)
(-3.0657e-05 -3.92996e-05 -3.06398e-17)
(-2.45823e-05 -4.74006e-05 3.36162e-17)
(-2.45067e-05 -5.48632e-05 2.48958e-17)
(-2.2679e-05 -3.56865e-05 4.64422e-17)
(-2.5487e-05 -7.2661e-05 2.18117e-18)
(-2.63106e-05 -6.58313e-05 -1.22979e-17)
(-2.48174e-05 -7.83665e-05 -1.11692e-18)
(-2.50709e-05 -7.71224e-05 1.20734e-17)
(-2.42304e-05 -7.78683e-05 -2.28157e-18)
(-2.46083e-05 -7.87453e-05 1.80091e-17)
(-2.19784e-05 -6.79911e-05 0)
(-2.30729e-05 -7.33382e-05 2.29833e-18)
(-1.90491e-05 -4.59994e-05 1.68248e-17)
(-1.99676e-05 -5.48484e-05 -1.73777e-17)
(0.000650245 0.19366 -1.63987e-16)
(-0.0128015 0.527886 -1.34537e-16)
(-3.73762e-05 -6.70428e-05 -3.14469e-17)
(3.19376e-05 7.11352e-06 2.91722e-16)
(-0.000418656 0.64252 -1.677e-17)
(1.51541e-05 6.10446e-05 3.05971e-16)
(2.52124e-05 -6.53764e-06 -1.6704e-16)
(2.36728e-05 2.15005e-05 1.38238e-24)
(1.97462e-05 1.819e-05 2.22054e-16)
(1.93541e-05 4.8322e-06 -2.32755e-16)
(2.31339e-05 -4.81303e-05 7.47271e-17)
(2.56424e-05 -4.74072e-05 -7.42726e-17)
(4.37497e-07 -4.29935e-05 -1.70292e-17)
(5.88159e-06 -4.34646e-05 -6.35012e-26)
(-2.45222e-05 -4.73272e-05 3.13206e-16)
(-2.11329e-05 -4.90661e-05 0)
(-2.76873e-05 -2.66191e-05 -4.62189e-16)
(3.95684e-05 -5.94561e-06 -1.20757e-16)
(-4.34124e-05 -2.30693e-06 -2.72389e-17)
(5.62244e-06 6.33325e-06 -1.42333e-16)
(-7.17945e-06 7.87536e-06 -5.10711e-16)
(-3.77687e-05 -3.71921e-06 8.19882e-18)
(-3.76649e-05 -1.44053e-05 5.89193e-17)
(0.000208189 1.31122 -1.07893e-18)
(0.0356275 0.280595 8.68605e-17)
(0.000691114 0.380098 -7.14187e-21)
(2.41779e-05 -4.31443e-05 1.91348e-17)
(2.57366e-05 -2.6273e-05 2.7458e-25)
(2.64774e-05 -2.25568e-05 9.79937e-17)
(0.00352024 0.277127 3.90793e-16)
(3.33405e-05 -1.22958e-05 -3.14244e-16)
(2.15968e-05 -4.44764e-05 0)
(1.92395e-05 -4.97816e-05 7.65263e-17)
(8.77051e-06 -4.93947e-05 -2.20464e-18)
(-3.06637e-06 -4.96741e-05 0)
(-1.86977e-05 -5.16799e-05 -4.97517e-25)
(-2.38208e-05 -4.62034e-05 -2.52243e-16)
(-2.4749e-05 -3.34497e-05 -1.6624e-16)
(1.68757e-05 -5.27977e-05 -1.44847e-17)
(1.80643e-05 -4.34324e-05 4.83303e-18)
(0.00256628 0.581051 1.57988e-17)
(3.21411e-05 2.5744e-05 8.49474e-17)
(-0.000171374 0.00398072 -2.01991e-16)
(-0.00945074 0.241756 4.95009e-16)
(-1.34119e-05 -5.2495e-05 0)
(1.51313e-05 7.98042e-06 1.92726e-16)
(0.00330743 0.353959 -4.14409e-16)
(0.0357846 0.339192 -1.26541e-16)
(2.96358e-05 -2.38844e-05 -3.18555e-16)
(0.0313663 0.437758 -4.92044e-20)
(2.25814e-05 -4.16657e-05 -4.83387e-16)
(1.35054e-05 -4.89268e-05 1.82954e-17)
(-3.22829e-06 -4.75418e-05 -7.10611e-17)
(-2.87749e-05 -4.35179e-05 -9.74558e-17)
(-1.58744e-05 -4.47345e-05 2.32707e-18)
(-1.65504e-05 -2.62889e-05 -8.69354e-18)
(-1.3186e-05 -2.57407e-05 6.97752e-18)
(-0.000494971 1.39569 0)
(-0.000180764 1.31143 1.07902e-18)
(-0.000201858 1.39593 0)
(0.000200888 0.617744 6.64383e-17)
(-2.47022e-05 -5.19055e-05 8.55936e-18)
(2.83783e-05 -2.13767e-05 -1.46481e-24)
(-1.10894e-05 -2.07448e-05 -1.49288e-16)
(2.81756e-05 -2.03004e-06 -1.08589e-16)
(-3.13825e-05 -7.40748e-05 -3.49958e-17)
(-3.16766e-05 -6.31559e-05 2.26403e-17)
(2.36797e-05 -4.79096e-05 7.35823e-17)
(1.79403e-06 -4.27542e-05 2.12624e-17)
(-2.36315e-05 -4.79798e-05 -1.50094e-16)
(-3.11577e-05 -1.59269e-05 -1.89543e-24)
(2.49221e-05 -6.63432e-05 3.59714e-17)
(2.46334e-05 -5.36067e-05 -1.84922e-17)
(2.32453e-05 -7.66129e-05 1.52926e-17)
(2.37771e-05 -7.19104e-05 0)
(2.22606e-05 -7.79304e-05 1.62869e-25)
(2.27725e-05 -7.76215e-05 -6.55662e-18)
(1.97991e-05 -7.18724e-05 0)
(2.10107e-05 -7.67305e-05 -8.97247e-18)
(1.63198e-05 -6.57269e-05 -9.48572e-18)
(1.59736e-05 -2.61904e-05 9.69345e-18)
(1.88564e-05 -3.24878e-05 7.24357e-17)
(1.78967e-05 -2.43304e-05 0)
(2.66002e-05 -3.20968e-05 2.34081e-25)
(2.64642e-05 -3.54061e-05 -8.49759e-18)
(3.07571e-05 -3.50319e-05 -2.6463e-19)
(2.89936e-05 -3.57093e-05 4.36363e-18)
(3.6962e-05 -3.40222e-05 2.09379e-18)
(3.36334e-05 -3.47236e-05 4.34035e-18)
(4.3433e-05 -3.137e-05 2.07499e-18)
(4.02666e-05 -3.27655e-05 -1.45462e-17)
(4.89501e-05 -2.6793e-05 -2.46675e-17)
(4.63265e-05 -2.90339e-05 1.24451e-17)
(5.16152e-05 -2.26421e-05 6.73928e-17)
(5.10637e-05 -2.45894e-05 -3.29597e-17)
(4.74127e-05 -2.03399e-05 0)
(5.03804e-05 -2.1425e-05 -3.25158e-17)
(4.10033e-05 -1.99419e-05 4.62102e-17)
(4.2625e-05 -1.75881e-05 0)
(3.73612e-05 -1.18468e-05 1.14509e-16)