/*--------------------------------*- C++ -*----------------------------------*\
| =========                 |                                                 |
| \\      /  F ield         | OpenFOAM: The Open Source CFD Toolbox           |
|  \\    /   O peration     | Version:  2212                                  |
|   \\  /    A nd           | Website:  www.openfoam.com                      |
|    \\/     M anipulation  |                                                 |
\*---------------------------------------------------------------------------*/
FoamFile
{
    version     2.0;
    format      ascii;
    arch        "LSB;label=32;scalar=64";
    class       surfaceScalarField;
    location    "0.00053";
    object      phi;
}
// * * * * * * * * * * * * * * * * * * * * * * * * * * * * * * * * * * * * * //

dimensions      [1 0 -1 0 0 0 0];

oriented        oriented;

internalField   nonuniform List<scalar> 
5190
(
-1.87364e-17
-2.04383e-17
6.58557e-17
9.21294e-17
-1.19892e-17
7.08397e-17
1.99785e-17
-2.95298e-17
-6.06663e-18
-1.75133e-17
2.04826e-17
2.41671e-17
5.9386e-17
-1.96335e-17
-7.76098e-18
1.93566e-17
3.50107e-17
3.26024e-17
1.43367e-17
3.50636e-17
1.57751e-17
-5.59496e-18
-1.18255e-17
6.01072e-17
-1.3612e-17
-2.31497e-17
-2.72662e-17
-3.58285e-17
-8.9056e-17
7.48568e-17
7.98011e-17
-1.73848e-17
7.17417e-17
1.31748e-17
-5.39273e-17
9.84357e-17
4.34423e-17
-1.00184e-16
6.81176e-17
-7.43702e-17
1.79845e-17
4.99272e-17
-2.83405e-17
1.14174e-17
-3.02469e-18
6.21103e-17
-1.22529e-17
3.43704e-17
2.28083e-17
1.80207e-17
2.47603e-17
-9.12715e-18
2.86206e-17
-1.10928e-17
3.61832e-17
-2.29557e-17
-8.08566e-17
-4.63923e-17
-5.52652e-18
6.60266e-17
8.99526e-17
6.22048e-17
2.09398e-18
-4.37834e-17
-1.46625e-17
-3.95084e-17
-1.86057e-17
-3.90855e-17
-4.15093e-17
-3.40804e-17
3.74737e-18
2.15771e-17
-8.47801e-18
-5.80182e-18
-3.88819e-17
4.08739e-17
2.40179e-17
-1.15389e-17
2.03255e-17
-1.75681e-17
-1.70762e-17
-4.18312e-17
3.0817e-17
-1.10834e-17
-3.64084e-18
-3.30868e-18
6.85037e-19
-1.88789e-17
-8.25506e-18
-5.03827e-17
-7.52004e-17
-2.88309e-17
-2.4395e-17
1.89272e-17
5.41668e-17
-8.08556e-18
-8.01787e-18
1.26351e-17
3.68308e-17
3.29635e-17
-4.85303e-18
2.11365e-17
2.37701e-17
-1.55211e-17
4.14367e-17
3.21601e-17
1.65223e-17
1.19033e-17
4.36441e-18
-1.6946e-17
5.69601e-19
8.44644e-18
2.2622e-17
-7.33631e-17
2.5834e-17
-7.15926e-17
7.7656e-18
-3.50468e-17
1.1654e-16
-5.34802e-17
8.6934e-17
1.38889e-17
9.97449e-18
-3.64266e-17
4.49794e-17
4.15448e-17
-1.05828e-16
4.85967e-17
-2.84786e-17
3.53115e-17
-1.62542e-17
1.80232e-17
4.39927e-17
-1.357e-17
2.32202e-18
-2.49208e-17
-1.75303e-17
7.01732e-18
-2.02334e-17
-2.83547e-17
-6.19338e-18
-6.79283e-18
1.30393e-17
-5.81865e-17
-2.74305e-17
9.93468e-18
-4.62035e-17
7.6777e-17
-1.01623e-16
-3.19137e-17
-4.16333e-17
-2.26599e-17
-4.13593e-17
-5.83172e-17
-1.15488e-16
7.28014e-17
-1.05504e-16
-1.051e-17
3.60723e-17
-6.08103e-17
-3.53261e-18
7.01121e-18
1.04183e-17
1.82125e-17
-2.37824e-18
-2.31581e-17
2.83267e-19
-6.67995e-17
-3.4314e-18
3.58504e-17
-3.38717e-18
2.32479e-17
-7.15729e-18
5.00961e-17
3.17413e-17
5.95746e-17
-1.39059e-16
8.79763e-17
-5.92418e-17
-2.08684e-17
-4.28262e-17
-6.70481e-17
-3.37861e-18
1.2093e-17
4.05221e-18
-2.62243e-17
4.37322e-17
-2.11698e-17
3.83189e-17
2.79772e-17
5.07003e-17
-4.39581e-17
-3.47614e-17
1.48667e-17
4.67145e-17
2.21598e-17
1.00994e-16
-3.30594e-17
4.0211e-18
-9.01946e-17
9.3541e-18
-2.42109e-17
3.1956e-17
-7.56883e-18
3.96283e-17
1.05331e-16
-1.90452e-17
9.39628e-18
5.1337e-17
9.43961e-17
1.45079e-17
3.85705e-17
4.28708e-18
-4.46812e-17
-5.12671e-17
1.85374e-17
-9.86235e-18
3.16273e-18
-8.14919e-18
1.43443e-17
3.61486e-17
-7.71003e-18
1.11057e-16
2.68872e-17
-3.178e-18
-5.92188e-17
-6.18177e-17
-5.21571e-17
-5.77697e-18
-1.40811e-17
1.61296e-17
2.1838e-17
3.66456e-17
2.07117e-17
2.09675e-17
-2.16044e-17
-1.21621e-17
-3.12377e-18
-9.02665e-18
1.38641e-17
3.24037e-17
1.9518e-17
1.01705e-18
1.08806e-17
5.61709e-18
9.41737e-18
-2.77687e-17
2.23494e-17
1.47461e-17
4.0077e-18
-3.27339e-17
1.63572e-17
5.5897e-17
-2.18321e-17
1.39654e-17
-4.16252e-17
1.4716e-17
-6.19977e-17
-3.82742e-17
1.2212e-17
1.01854e-16
-3.89269e-17
3.89299e-17
-2.49581e-17
4.99463e-17
-1.2271e-17
-7.79233e-19
-6.57988e-17
-4.44892e-17
-1.35874e-17
-7.49154e-17
-1.80393e-17
3.27485e-17
-4.83811e-17
9.3237e-18
-4.51149e-17
4.35842e-17
-3.75827e-17
5.01662e-17
-1.4628e-17
4.11463e-17
-6.67032e-19
1.74828e-17
1.4323e-17
-5.37337e-17
1.09603e-17
2.80339e-17
7.15777e-18
3.20607e-17
-2.42108e-17
3.55224e-17
7.30206e-17
-2.67379e-17
3.76978e-17
-2.28075e-17
-6.40442e-18
1.24909e-17
-3.87314e-17
-3.49797e-17
-1.11697e-17
5.48105e-18
-3.2203e-17
-1.77773e-17
-4.81863e-17
3.84233e-17
-3.25861e-17
-7.50997e-17
-6.76751e-17
-2.27479e-18
-3.78641e-17
-4.01141e-17
1.07374e-17
5.36453e-17
-1.78249e-17
-2.45123e-17
-5.41356e-17
-3.08843e-17
-5.99231e-18
9.45057e-18
-1.21255e-17
1.01655e-18
-5.62654e-17
1.34071e-17
6.2668e-18
2.733e-17
4.05725e-17
1.26333e-17
-9.57233e-18
2.4516e-17
1.20216e-17
-1.01342e-17
3.73237e-17
1.67505e-17
4.99161e-17
-4.00749e-17
3.13942e-17
2.37996e-17
2.63328e-17
5.61796e-17
3.7882e-17
1.26765e-17
1.07586e-17
-1.88931e-17
5.88187e-18
2.23766e-17
2.23215e-17
-5.83124e-18
4.6237e-18
2.47893e-17
-1.29355e-17
-7.18297e-18
7.53251e-17
4.07463e-17
9.29036e-18
3.63719e-17
3.8548e-18
3.23482e-17
-2.42111e-17
-4.40759e-17
-3.3395e-17
3.50185e-17
-9.57202e-18
3.55151e-17
4.88027e-17
1.89572e-17
-2.6409e-17
-6.25491e-17
-3.47635e-17
-5.66351e-18
4.35389e-17
1.33245e-17
6.65284e-17
-4.93552e-17
3.91215e-17
5.49423e-17
-5.92045e-17
5.8135e-18
4.70307e-17
-5.34439e-17
2.97915e-17
6.66864e-17
-2.51532e-17
-2.68874e-19
-4.84387e-17
-1.14795e-16
-6.38662e-18
-2.11471e-17
-4.22906e-17
-5.38182e-17
-5.29367e-17
-3.24222e-17
2.34544e-17
-3.91615e-17
5.89294e-18
2.18589e-17
6.11895e-17
6.0161e-17
3.36334e-17
-3.28356e-17
-3.31495e-17
-4.42874e-18
-3.88399e-17
-2.24227e-17
-2.22724e-18
2.79484e-17
1.14539e-17
1.69263e-17
9.43583e-18
-3.40815e-17
6.88331e-18
2.54381e-17
1.6114e-17
1.89739e-17
-1.11327e-17
2.14601e-17
-1.14539e-18
1.88209e-17
-1.03791e-17
5.94542e-17
-4.03085e-17
1.39937e-17
-3.69576e-17
-3.27703e-17
-8.24931e-19
1.0109e-17
9.67347e-18
4.06298e-18
1.171e-17
1.14176e-17
-3.07671e-18
4.16086e-17
-9.35008e-18
-1.38042e-17
8.83313e-18
-2.98531e-17
-5.12894e-17
-6.79835e-17
9.06071e-17
-3.56683e-17
-2.84067e-17
-4.80798e-17
1.06285e-17
-7.03338e-17
5.21029e-18
-3.9518e-17
3.4601e-18
-3.51751e-17
-7.47185e-18
3.02726e-17
8.70982e-17
-4.57466e-17
1.1024e-16
5.15335e-17
-5.18414e-17
2.45204e-17
6.9415e-17
2.631e-17
1.1517e-17
2.1548e-17
-2.88824e-17
-1.76362e-17
4.17628e-18
5.48151e-18
2.27959e-17
-1.55378e-18
-1.98612e-17
-2.72984e-19
-2.36732e-17
-3.39799e-17
-2.1286e-17
-7.22791e-17
-4.91325e-17
-1.94745e-17
-2.02469e-17
9.32439e-18
-2.41757e-17
2.72642e-17
-2.08368e-17
3.36464e-17
-3.1347e-17
-5.15193e-17
2.479e-17
2.15205e-17
5.41607e-17
-1.27472e-17
8.88456e-17
-6.73552e-18
2.50229e-17
1.18896e-19
-6.67371e-17
-5.56224e-17
5.05782e-17
3.34822e-17
1.60513e-17
4.39553e-17
-1.00739e-17
7.24736e-18
-1.48961e-17
5.45975e-18
-5.32509e-17
-2.18979e-17
3.70609e-17
-3.5787e-17
1.91242e-17
3.67965e-17
-1.58805e-08
-6.75828e-12
1.06314e-07
-9.38946e-12
-2.23307e-12
-2.95763e-09
-1.41489e-12
1.58938e-08
-2.9614e-09
-4.88333e-12
1.06384e-07
-1.83899e-11
1.21864e-16
2.48925e-17
7.52285e-17
4.93171e-17
-4.03815e-17
3.74324e-17
8.9514e-18
1.1472e-16
-1.32127e-17
-1.27464e-17
3.381e-17
-7.54892e-17
4.11831e-17
2.21473e-17
-3.03049e-17
6.48552e-18
-3.70937e-17
-2.77193e-17
2.35896e-17
4.69999e-17
-1.83634e-17
-1.25612e-17
-3.28177e-17
-1.08375e-17
-2.32426e-17
3.0954e-17
4.46623e-18
-2.69816e-17
-1.43364e-17
-3.20168e-17
-2.17317e-18
-7.19134e-18
-2.61863e-17
3.5521e-18
-1.19619e-17
7.2437e-17
-3.82521e-17
3.1037e-17
6.23215e-17
7.5271e-18
-9.39474e-17
-1.17609e-18
-1.53424e-17
4.94818e-17
-3.63325e-17
2.41508e-17
-2.77884e-17
4.27308e-17
1.69154e-17
6.25353e-18
2.23067e-17
-6.06473e-17
5.76318e-17
-4.67477e-17
-2.44765e-17
-3.09684e-17
-3.81656e-17
-1.58081e-18
-5.10692e-17
6.30992e-17
2.21493e-17
-5.69099e-17
-3.27811e-17
-5.40197e-17
5.31591e-18
4.02486e-17
1.08854e-16
1.42465e-17
-2.6557e-17
5.54381e-17
1.0241e-16
5.11633e-17
-2.19526e-17
7.10533e-17
-4.04746e-17
-6.76812e-17
-4.865e-17
-5.00763e-17
4.26534e-17
4.112e-17
2.61021e-17
3.77663e-17
-2.52683e-17
-9.52192e-17
3.44669e-17
-4.20519e-17
9.93344e-18
-2.26472e-17
5.30056e-17
-1.84874e-17
9.50259e-18
-6.27753e-17
3.79075e-17
2.55126e-17
-2.87662e-17
9.72144e-18
-9.49917e-17
6.71421e-17
-9.14842e-18
-3.70212e-10
-3.63504e-13
-3.64793e-14
-5.89348e-11
-8.6596e-14
2.09592e-14
-6.38974e-12
-1.09289e-14
6.69847e-15
-8.7925e-13
-1.60126e-15
1.19073e-15
-8.43609e-14
-2.37883e-16
1.76604e-16
-1.00573e-14
-4.34633e-17
1.9388e-17
-7.89295e-16
-3.82913e-17
-1.30006e-17
3.32435e-18
-6.84523e-18
-4.4286e-17
-2.93319e-17
-3.71831e-17
-7.65254e-17
-1.6507e-17
-8.57986e-17
-6.17309e-17
-1.00349e-17
2.69843e-17
2.98043e-17
2.40702e-18
5.02847e-18
1.79351e-17
5.10837e-18
1.1245e-17
-1.89857e-17
6.84922e-18
2.543e-17
6.75006e-17
3.43565e-17
-7.30464e-17
8.28228e-16
-5.6907e-17
-6.80889e-17
-1.00607e-14
8.44041e-14
-9.25514e-17
-6.47735e-17
-8.806e-13
6.39865e-12
-1.63069e-15
-3.07416e-16
-5.90444e-11
3.7072e-10
-1.04088e-13
-8.38908e-15
-4.80109e-13
-2.34024e-17
-1.74282e-17
2.38254e-17
-2.7691e-17
2.99366e-17
-2.06143e-17
5.25953e-18
-1.51308e-17
-1.04467e-17
6.75988e-18
2.1358e-17
4.29313e-17
-3.5642e-17
-5.97666e-18
-7.11512e-18
4.1446e-17
2.75794e-17
-3.63344e-17
3.49174e-17
2.6096e-17
-1.90613e-17
-2.95383e-17
3.72559e-17
5.0763e-18
3.43354e-17
5.18399e-17
-1.45292e-18
-3.59808e-17
-1.0027e-17
2.16547e-17
-1.46342e-17
-2.37194e-17
5.96165e-17
1.54459e-18
-1.61526e-17
-2.56139e-18
6.04708e-17
6.0501e-18
-6.28106e-17
1.81224e-17
5.76116e-17
3.95493e-17
-2.75088e-17
-2.27619e-17
-2.12436e-17
-6.38189e-17
-8.45678e-18
-3.57672e-17
3.08915e-17
-1.9401e-17
-1.09156e-18
9.89767e-18
-2.78926e-17
3.6962e-17
1.62521e-17
1.51021e-17
-9.40351e-18
-3.6193e-17
-8.7087e-18
2.36252e-18
-2.85517e-17
-9.25947e-17
-9.18087e-17
5.41814e-17
-1.16965e-16
-2.71308e-17
-7.65372e-17
2.01179e-17
3.33707e-17
1.21269e-17
9.2037e-17
-3.28039e-17
6.95411e-17
1.03969e-16
5.14521e-17
6.52107e-17
-8.78041e-17
4.60368e-17
1.8774e-17
4.83771e-17
1.51422e-17
1.07596e-17
1.34834e-17
1.75528e-17
-4.50086e-17
1.0325e-17
-2.53482e-17
1.23521e-17
1.81684e-17
-2.45163e-17
6.7103e-18
-2.85412e-18
3.31318e-17
-4.94146e-17
-1.87162e-17
3.83359e-17
3.38166e-17
-8.47403e-18
1.74681e-17
-2.47065e-17
-5.7489e-17
4.27739e-17
-1.86842e-17
3.55573e-17
-9.30698e-18
-3.84621e-17
5.59564e-17
3.10712e-17
5.23632e-18
-6.76929e-17
-6.04085e-11
-9.41199e-11
4.82053e-07
-1.46523e-10
4.82378e-07
-1.38236e-17
3.18769e-17
-5.39878e-18
-2.84326e-17
4.78641e-17
-3.05226e-17
5.88734e-17
3.46626e-17
-5.04628e-17
-3.81903e-17
-2.35777e-17
-1.20039e-17
1.24934e-17
1.6625e-17
4.98212e-18
1.91735e-18
-2.82789e-17
-1.45982e-17
1.12225e-17
6.2268e-17
-5.76966e-18
3.12253e-17
-4.33141e-17
7.93483e-18
2.3817e-17
-1.41349e-17
6.78982e-18
7.2074e-18
4.82432e-07
-1.06384e-07
-2.57292e-10
-1.98542e-10
-5.13613e-11
2.57392e-06
-6.9748e-10
2.576e-06
3.89242e-17
-8.38135e-18
7.43094e-17
-3.0804e-17
-1.85201e-17
6.82408e-17
-2.93558e-17
1.42446e-17
-4.30285e-17
5.4401e-17
2.45396e-17
1.35095e-17
-7.09128e-17
3.23896e-17
-3.11341e-18
-1.76352e-17
-2.26192e-17
2.84905e-17
-1.93404e-17
6.03554e-18
2.45412e-17
1.62227e-17
-1.96185e-17
-4.4192e-17
7.43578e-18
-1.5008e-17
9.12085e-18
-3.37458e-18
2.46871e-17
1.19452e-17
2.33056e-17
4.40509e-18
3.5495e-17
4.69403e-17
3.33445e-17
1.24851e-17
-8.92053e-17
-1.63308e-17
-5.5676e-17
-3.74345e-17
-3.17361e-18
-1.00856e-17
1.33099e-17
-1.85775e-17
-4.77607e-17
-3.50605e-17
-1.93124e-18
-9.96594e-19
-8.09066e-18
-3.15676e-17
5.01558e-18
-2.31409e-17
-3.33479e-17
3.50061e-17
6.7201e-18
5.14951e-17
4.18144e-18
-1.23867e-17
-9.06745e-17
-2.6426e-17
-1.04091e-17
1.24665e-17
-6.51028e-17
1.19025e-16
-5.11244e-17
1.24845e-18
-1.2959e-17
-9.09388e-18
-1.85402e-17
5.24149e-17
-2.70511e-17
-1.48253e-17
-1.60936e-17
2.54528e-17
5.24483e-18
4.53135e-17
2.66308e-17
2.30518e-17
3.20318e-17
-4.57558e-17
-3.71521e-17
-1.77831e-17
-4.80256e-17
3.12742e-17
-1.91179e-17
5.74635e-18
-3.19815e-17
1.18554e-17
6.01904e-17
-1.85215e-17
1.27912e-18
1.97941e-18
7.27971e-17
-1.34067e-17
-5.17446e-17
5.45447e-18
6.02811e-18
4.92549e-17
-5.01864e-17
-2.13895e-17
6.07268e-18
4.53854e-18
-4.2787e-17
-3.11445e-17
-2.97791e-17
6.35188e-17
-1.47383e-17
9.13638e-18
-8.72529e-17
-5.58638e-17
-3.07398e-17
1.2481e-17
7.53785e-17
5.84002e-17
-3.6521e-18
-3.54219e-17
-9.99592e-19
-5.741e-17
3.04069e-17
-3.88153e-17
-1.83757e-17
2.51192e-17
-1.45141e-18
3.33741e-17
-5.43346e-18
1.90024e-17
3.21888e-17
6.28911e-17
5.99263e-18
2.58601e-17
1.58857e-08
-2.95801e-09
-4.76145e-12
-2.28461e-11
3.70098e-10
-5.88825e-11
-5.07442e-14
-4.00831e-13
6.38485e-12
-8.78064e-13
6.1198e-17
-3.9902e-15
8.43416e-14
-1.01054e-14
3.20688e-18
3.57735e-17
8.54162e-16
-6.6855e-17
3.7973e-18
6.81234e-18
-5.47213e-18
4.83038e-07
-1.06528e-07
-2.34812e-10
2.7494e-10
-6.55766e-10
2.57764e-06
2.57456e-06
-3.13387e-17
6.24874e-18
-9.19873e-18
-3.14771e-17
2.39265e-17
-2.42252e-17
-9.51445e-17
-5.74422e-18
-7.51125e-17
4.18076e-17
4.30039e-18
-3.26281e-17
3.7231e-17
-7.88425e-17
1.37294e-18
-1.01675e-17
-7.17171e-18
8.10165e-16
-7.49133e-18
-1.00099e-17
-1.00801e-14
8.4631e-14
-1.35463e-16
1.55679e-17
-8.82125e-13
6.40614e-12
-1.61945e-15
-2.7765e-16
-5.91058e-11
3.71312e-10
-8.47189e-14
-6.90091e-15
-2.96541e-09
1.59172e-08
-5.61352e-12
-3.56292e-13
-2.11714e-11
-6.47842e-18
-1.51114e-17
1.90553e-17
2.88823e-17
-8.44277e-18
3.03298e-17
2.38118e-17
3.26949e-17
1.03957e-17
-8.1461e-18
3.39827e-17
2.6333e-17
-1.43236e-17
9.39181e-18
-1.65195e-17
2.83525e-17
2.09117e-17
-2.40277e-17
-2.80494e-18
3.71977e-18
1.41634e-17
-1.86961e-17
2.29783e-17
2.02546e-17
4.01501e-17
4.79617e-17
2.15732e-17
-4.65403e-17
-4.9884e-17
-2.06418e-17
-5.8722e-17
-3.006e-17
-2.00283e-17
-2.62103e-17
-2.46658e-18
-2.61309e-17
3.3083e-17
3.74414e-17
1.23321e-17
-2.18361e-17
1.95567e-17
-3.58314e-17
7.39763e-17
6.43786e-17
5.74488e-17
1.18487e-17
2.87228e-17
-2.22947e-17
-3.05422e-17
-3.38042e-17
1.82788e-17
1.90867e-17
6.19221e-19
-1.40294e-17
-1.97007e-20
-7.14489e-18
-6.02972e-18
-5.18676e-17
-1.65693e-17
5.81804e-17
-4.10431e-17
2.56507e-17
5.24493e-17
-4.02491e-18
9.71199e-18
6.54562e-17
5.66931e-19
2.21352e-17
-5.47819e-17
2.38686e-17
-4.63099e-17
1.7897e-17
-1.42959e-17
-4.79788e-17
-2.23138e-18
-2.21555e-18
2.39242e-17
-5.79286e-17
-2.58405e-17
-3.98744e-17
5.87858e-17
-1.45439e-17
-1.29795e-16
-9.16195e-17
-8.57819e-17
5.1074e-17
-7.60377e-17
-6.35391e-17
3.934e-17
-3.75314e-17
-5.21879e-17
-3.38109e-17
-2.28417e-17
-3.8804e-17
4.20655e-17
3.61407e-17
8.46587e-17
-3.84158e-17
6.67451e-17
7.82095e-19
6.10732e-17
7.34508e-18
-3.07395e-17
-4.90718e-17
-2.37398e-17
2.28584e-17
2.81824e-17
1.47688e-17
8.47286e-18
-5.42404e-17
-3.24496e-17
-4.47714e-17
3.91109e-17
2.36911e-17
2.43946e-17
-1.09987e-18
-3.53789e-18
-1.50698e-17
2.68223e-17
3.72217e-18
1.53879e-17
-1.93482e-17
3.3556e-17
7.32158e-18
-9.05957e-19
1.97871e-17
5.57516e-19
1.15425e-17
1.29356e-17
-1.83935e-17
8.02868e-18
3.51146e-17
3.21033e-17
-1.04033e-17
4.83689e-07
-1.06613e-07
-2.83699e-10
2.58257e-06
-8.41859e-10
4.06274e-17
-3.26137e-17
-2.589e-17
3.47959e-18
5.09506e-17
-3.16489e-17
-5.08762e-17
-1.59989e-17
5.13355e-18
-4.0325e-18
4.89779e-17
1.58033e-17
-1.14608e-17
2.40269e-17
-3.37384e-19
-1.98626e-17
-6.77006e-19
-1.36351e-17
3.52962e-18
-2.17827e-17
1.65731e-18
-1.54586e-17
-3.00958e-17
6.70036e-17
-7.78901e-17
-6.67237e-17
2.48047e-17
-7.03603e-18
-3.25537e-17
3.20391e-18
1.51858e-17
7.23624e-17
-3.90044e-17
-8.3469e-18
2.03952e-17
6.09849e-18
3.74319e-17
6.68006e-17
1.16769e-17
6.97752e-18
1.71123e-17
4.00095e-18
-4.0409e-17
2.77394e-18
3.74359e-17
3.41561e-17
2.69458e-17
7.86155e-19
4.85522e-17
-1.99023e-17
7.37873e-18
4.19081e-17
1.98941e-17
-1.2998e-17
8.60276e-18
-8.70184e-17
-6.0946e-17
4.84242e-07
-1.06756e-07
-2.43456e-10
2.58452e-06
-6.75187e-10
5.45741e-18
-5.6033e-18
-4.75637e-17
3.75384e-17
-1.43978e-17
2.41852e-17
5.40742e-17
2.99294e-17
1.16112e-17
-2.06863e-17
-2.06203e-17
4.73691e-17
1.90904e-17
8.49322e-19
1.42162e-17
-2.59979e-17
-2.82435e-17
-6.44598e-17
1.17699e-16
-6.51794e-17
4.21002e-17
1.02017e-17
-9.02866e-18
-3.23797e-17
3.93801e-17
1.14809e-17
1.89989e-17
-1.01655e-18
1.65059e-17
1.23043e-17
-4.59265e-18
3.24796e-17
4.08326e-17
-6.17318e-18
6.9643e-18
-1.53722e-17
5.09369e-17
4.28431e-19
1.14818e-17
1.0164e-17
4.19303e-17
-1.59424e-17
-2.99001e-17
-1.8809e-17
-1.40117e-17
2.24425e-17
-2.66336e-17
-4.21105e-17
-4.1643e-17
7.38497e-17
9.71337e-18
-2.02549e-17
-7.06885e-17
-5.50113e-17
2.83e-17
2.98123e-18
-5.69046e-17
-2.90636e-17
2.16057e-18
-1.23561e-18
1.10327e-17
-8.28396e-18
-8.3592e-19
2.73875e-17
2.09994e-17
-2.60475e-17
1.73205e-17
5.16883e-18
-5.69754e-18
1.82432e-17
-9.21071e-18
1.85047e-17
-1.01251e-17
2.56402e-17
2.2431e-17
2.37644e-17
1.17161e-17
2.8053e-18
1.80325e-17
1.43125e-17
8.88369e-18
9.83913e-18
-2.69488e-17
-2.26212e-18
5.35459e-17
4.55067e-17
-6.23235e-18
3.73414e-18
-3.49665e-17
1.44927e-17
1.95004e-17
8.4014e-17
4.08861e-17
-8.35071e-17
2.85268e-17
-2.21529e-17
1.70375e-17
-2.63438e-17
-4.4216e-17
-3.58492e-18
-5.7487e-17
7.37915e-18
-3.58714e-17
-2.25094e-17
3.47157e-17
-3.39981e-17
-4.51667e-17
1.34256e-17
9.91039e-17
6.20887e-18
3.4066e-17
-1.25612e-17
-2.61104e-17
-5.10175e-17
-8.29727e-17
-6.68958e-17
1.71619e-17
5.24584e-17
8.32308e-17
-4.08214e-17
-5.65795e-17
-4.02227e-17
1.27153e-17
1.6113e-17
7.73267e-17
-3.50228e-17
-1.35894e-18
-8.17843e-18
-3.36238e-17
8.87076e-17
1.64294e-17
5.32329e-17
-6.87224e-17
-2.20514e-17
-1.03963e-16
-2.82789e-17
2.57039e-17
-4.07032e-17
-4.4484e-17
-5.44434e-17
2.05515e-17
1.59166e-08
-2.96291e-09
-6.78758e-12
-2.7715e-11
3.70596e-10
-5.89542e-11
-9.80873e-14
-5.88391e-13
6.39094e-12
-8.79002e-13
-9.89135e-16
-7.86825e-15
8.44337e-14
-1.0136e-14
-1.04965e-17
-9.95278e-17
8.54744e-16
-6.5587e-17
5.36891e-17
2.22621e-17
-1.7496e-17
-4.47929e-10
-2.45589e-09
9.73814e-06
2.74255e-09
-4.1204e-09
9.75275e-06
9.74048e-06
1.12865e-17
1.17059e-17
4.26678e-09
9.77168e-06
-6.04092e-09
9.74868e-06
1.05303e-17
-2.25094e-17
-9.88657e-18
2.87464e-17
3.11018e-17
-4.34003e-19
1.00901e-17
1.08928e-17
2.99108e-17
4.26909e-17
-6.98884e-17
4.62358e-18
-6.01283e-17
5.31349e-17
2.35124e-17
-7.44138e-18
5.49007e-18
3.98045e-17
-2.28423e-17
8.21508e-16
3.5671e-17
-1.11463e-17
-1.00922e-14
8.47369e-14
-9.0459e-17
-2.00268e-18
-8.82592e-13
6.41612e-12
-2.25999e-15
-2.26233e-16
-5.91517e-11
3.71925e-10
-7.46693e-14
-5.59961e-15
-2.96975e-09
1.59511e-08
-4.65334e-12
-3.56787e-13
-2.06485e-11
1.24735e-17
2.39187e-17
-4.96282e-17
2.21401e-17
-3.59573e-17
1.82407e-17
-2.45423e-17
-1.69562e-17
-8.72491e-18
-5.84525e-17
-3.98741e-17
-1.79941e-17
-3.21455e-17
-1.05718e-17
-7.60896e-17
7.04767e-18
3.23496e-17
1.92856e-17
7.72447e-18
-1.58308e-17
9.03999e-18
-8.71462e-18
-2.14673e-17
-4.75338e-17
2.26316e-18
-8.38918e-18
-4.44797e-17
-1.976e-17
2.11965e-17
-1.39061e-17
-1.61485e-17
-3.69857e-17
2.25024e-18
-8.83359e-17
-3.08185e-17
2.05662e-17
3.08591e-17
9.81759e-18
-1.10105e-17
4.1877e-17
-5.81527e-17
4.16738e-17
-3.85085e-17
-4.47362e-19
-6.88141e-17
4.75906e-17
-6.33718e-17
1.28142e-17
6.8871e-19
-1.12336e-17
1.69072e-17
3.79577e-18
5.68547e-17
-4.25807e-17
-2.02673e-17
1.18485e-16
-9.0351e-17
8.14007e-17
-9.93571e-18
-1.56626e-17
-5.40145e-17
1.20068e-16
9.07875e-17
8.2049e-18
7.44897e-17
1.15834e-17
-4.86047e-17
4.90589e-17
-6.32735e-17
-3.01982e-17
2.02904e-17
-3.05956e-17
4.29657e-17
5.24493e-18
7.82995e-18
-5.22311e-17
-4.42283e-17
-2.02324e-18
1.43375e-17
-1.04084e-16
-1.88245e-17
1.32263e-17
-3.84199e-18
-1.32087e-17
-3.30912e-17
5.33028e-17
1.14271e-17
3.32076e-18
-3.00138e-19
-2.3922e-17
5.84648e-17
-2.90324e-17
-7.34171e-18
-3.52552e-17
-6.65591e-17
-5.63598e-17
-5.04335e-17
7.30445e-17
-1.06866e-16
-1.76293e-17
-1.12085e-16
1.05301e-16
1.24803e-17
-2.84309e-17
-1.08478e-16
-4.59169e-17
1.55854e-17
2.00264e-17
6.00145e-17
-1.05127e-17
8.1714e-17
6.16302e-17
4.23451e-17
-1.25071e-16
-6.2033e-18
6.64074e-19
1.06081e-16
8.49085e-18
4.74001e-17
8.17333e-17
5.35168e-17
6.68666e-17
-2.60162e-17
5.01998e-17
1.92669e-17
-2.661e-17
-3.16452e-17
-4.16673e-17
5.70196e-17
-2.50042e-17
-2.69737e-17
2.63966e-18
4.77621e-18
1.55498e-18
1.12852e-17
1.04514e-17
3.19054e-17
-5.88797e-18
2.54444e-17
-2.93063e-17
-6.57304e-18
-3.61334e-18
5.71088e-18
5.58677e-18
5.61495e-18
2.80678e-18
-1.23828e-17
7.64167e-18
2.918e-17
1.01833e-17
-1.04775e-17
-1.8853e-17
-1.69465e-17
-6.42362e-17
-7.25271e-18
-7.69897e-17
2.48664e-17
3.11171e-18
-2.52702e-17
1.53957e-17
3.40482e-17
-6.88721e-17
-9.07848e-18
-9.87118e-18
-2.72327e-17
3.72379e-17
-1.03909e-17
-1.18766e-17
1.37573e-17
1.36508e-17
-2.74722e-18
-3.09175e-17
1.06886e-17
6.46558e-18
2.47676e-17
-4.96e-18
4.25395e-17
-2.01511e-17
3.62664e-17
-8.30258e-17
2.37847e-18
4.42327e-17
1.09675e-19
1.86411e-17
3.37439e-17
-4.4833e-17
-1.9527e-17
-5.18609e-17
2.83536e-17
1.31334e-17
7.87417e-18
-1.53813e-17
2.39738e-17
-4.06271e-17
-4.1593e-17
1.50537e-17
-1.5017e-17
-9.16131e-18
1.16552e-17
-2.32803e-17
1.15984e-17
1.15883e-17
-5.16292e-17
-1.90951e-17
-6.86153e-18
-5.73896e-09
9.776e-06
-2.83305e-17
3.95043e-17
2.50857e-17
5.4439e-18
4.74513e-17
2.89617e-17
-1.91182e-17
7.36939e-18
-6.68358e-18
-8.74379e-18
-1.12906e-17
-3.51982e-17
5.56139e-18
4.30431e-17
-2.49268e-17
-3.06029e-17
1.14644e-17
1.67374e-17
-1.53141e-17
1.22518e-17
-3.12063e-17
4.03109e-17
-6.95686e-17
2.07379e-17
-4.20672e-17
-5.02635e-18
3.27714e-17
2.48663e-18
-3.48778e-17
-5.80279e-17
-6.78049e-17
1.04228e-17
-2.59485e-17
1.42e-17
-2.45501e-17
-3.90307e-17
-2.58103e-17
-3.47968e-17
1.84812e-18
2.00051e-17
-4.27214e-17
9.73574e-17
5.93355e-17
1.0395e-17
-2.80709e-17
5.65013e-17
-6.1014e-17
-2.45086e-18
-1.12222e-17
9.52857e-18
3.09701e-17
2.70687e-17
-1.61161e-17
7.12122e-18
1.7429e-17
9.44303e-18
2.76869e-17
-1.44605e-17
-2.41234e-18
-1.04285e-17
1.17208e-17
6.19327e-17
4.72949e-18
3.1877e-17
-5.32266e-17
1.05614e-17
4.75416e-17
9.48952e-18
-8.50493e-18
4.52312e-17
5.42393e-18
5.37125e-17
-1.04001e-17
-1.22112e-17
-3.12936e-17
-4.27406e-17
3.98084e-17
1.3769e-17
-7.74438e-09
5.5096e-09
3.87049e-05
9.80075e-06
-2.59068e-06
-7.46851e-09
-1.78472e-08
3.87905e-05
3.04977e-17
6.96177e-17
2.80399e-17
-8.18749e-18
-1.49745e-17
1.81847e-17
2.35019e-17
1.64512e-17
2.94179e-17
-2.5551e-17
1.32044e-18
-3.74318e-17
2.69164e-17
-2.11909e-17
-4.82374e-18
9.08006e-18
1.07228e-17
4.23509e-17
-1.4747e-17
1.66787e-17
1.26701e-17
1.39998e-17
6.4873e-17
-5.79883e-17
-1.03332e-19
1.1109e-17
4.7173e-17
1.05506e-17
5.39087e-17
8.78242e-18
-1.03055e-16
4.05693e-17
3.25525e-17
5.06348e-17
-2.68133e-17
4.18361e-17
-1.76471e-18
-1.32501e-17
-2.14712e-17
-4.17326e-17
1.37699e-17
-1.68456e-17
-1.32872e-17
2.80851e-17
3.3333e-17
1.70213e-17
1.92386e-18
3.84626e-17
8.7474e-17
1.97656e-17
-4.24737e-17
1.22176e-17
-9.01237e-18
-4.15394e-18
5.35325e-17
-4.25342e-17
4.64974e-18
5.36008e-18
4.00954e-17
4.01586e-17
-2.02253e-17
-2.59683e-17
-3.57562e-17
-1.82402e-17
2.39453e-17
3.92923e-18
-1.62639e-17
-2.38713e-17
-1.69933e-17
4.21755e-17
-5.41526e-17
1.86496e-17
3.29749e-17
-1.86425e-17
3.68294e-17
-5.3487e-17
7.66078e-18
2.28057e-17
-4.01088e-18
1.68498e-17
2.166e-18
-2.31223e-18
1.19532e-17
1.73092e-17
2.5431e-17
2.68188e-17
-4.44225e-17
-4.58101e-17
-5.9929e-17
3.00338e-17
-2.11062e-17
-3.9965e-17
-3.34325e-18
-7.38134e-17
-3.27689e-17
-8.21336e-17
7.88467e-17
1.40936e-17
2.9782e-17
3.66427e-17
-5.9789e-17
2.075e-17
5.4411e-17
6.72016e-17
3.67508e-17
-1.92929e-17
-6.67459e-17
-4.44296e-17
-8.55622e-17
4.30189e-17
-5.24027e-17
6.86233e-18
4.16724e-17
-2.58842e-17
-1.88136e-17
-5.85477e-17
-1.15847e-17
4.85144e-07
-1.06885e-07
-3.09819e-10
-9.62241e-10
1.59555e-08
-2.96935e-09
-7.82196e-12
-3.27571e-11
3.7131e-10
-5.90675e-11
-1.36343e-13
-6.93592e-13
6.40184e-12
-8.8088e-13
-2.66126e-15
-1.26977e-14
8.46857e-14
-1.01133e-14
-5.24933e-17
-1.77911e-16
8.05501e-16
-8.44456e-17
1.84005e-17
-2.8842e-17
2.03289e-18
4.24261e-17
1.47721e-18
-2.17932e-17
3.21538e-17
3.37322e-17
2.45436e-17
2.0681e-17
-4.60331e-09
3.15799e-09
3.86389e-05
9.80372e-06
-2.59197e-06
-7.03821e-09
7.8469e-09
-1.57641e-08
3.87937e-05
3.87067e-05
-2.32578e-09
-3.3324e-09
3.85975e-05
3.86079e-05
3.86306e-05
2.48107e-17
1.79163e-17
3.97246e-17
8.50331e-17
2.8314e-17
-3.74327e-17
6.17721e-17
6.03912e-17
-5.84454e-17
7.40104e-17
-1.96135e-17
1.01441e-16
9.46053e-18
-8.48924e-17
-3.62981e-17
5.84444e-17
-6.3234e-17
8.45132e-16
6.40968e-17
2.33401e-18
-1.01147e-14
8.48407e-14
-9.4156e-17
-3.46063e-17
-8.83279e-13
6.41881e-12
-2.50425e-15
-4.05068e-16
-5.9212e-11
3.72356e-10
-9.02334e-14
-1.41936e-14
-2.9743e-09
1.59803e-08
-4.69595e-12
-3.86542e-13
-1.06991e-07
4.85525e-07
-2.49826e-10
-2.4272e-11
-7.94672e-10
3.44994e-17
2.38808e-17
-6.66738e-19
-2.22655e-18
-1.50629e-17
1.96471e-18
-4.66886e-17
-1.23088e-17
4.32708e-17
1.40177e-17
-2.48148e-17
-3.77226e-17
-2.40271e-17
-8.1057e-18
1.08818e-17
1.10096e-17
-1.51477e-18
-1.80408e-17
-3.09021e-18
-2.22397e-17
2.32315e-17
2.08438e-17
1.01531e-17
1.30626e-18
-2.86127e-17
-1.23033e-17
9.07218e-19
-1.25052e-18
4.3652e-17
-6.10949e-17
2.88655e-17
4.49394e-17
2.00653e-18
8.5517e-18
4.88786e-17
4.85646e-17
-3.85298e-17
5.92112e-17
3.42208e-17
4.60775e-18
-8.43653e-18
4.11049e-17
-5.51994e-17
-8.27109e-17
-7.15152e-17
1.40856e-17
-3.43142e-17
-3.22959e-17
3.99143e-17
-5.95344e-17
-1.50166e-17
-9.22174e-17
5.57663e-17
2.85148e-17
1.00827e-16
1.3461e-17
-7.86126e-18
-6.93971e-17
-1.83608e-17
5.68201e-17
1.19994e-17
1.2951e-17
-4.09291e-17
-6.23486e-17
3.27939e-17
7.3887e-17
-5.27382e-17
-8.67904e-17
-2.15963e-17
-4.69428e-17
-1.02742e-16
-8.24111e-17
6.01811e-17
3.88098e-17
1.49843e-17
-7.53487e-17
-3.11879e-17
2.09337e-17
-1.47474e-17
-2.21943e-17
2.47485e-17
-8.84536e-17
-1.63594e-17
-6.1913e-17
4.21423e-17
-1.25595e-16
-7.73719e-17
-2.35646e-17
1.8535e-17
9.225e-17
1.14951e-17
-9.94766e-18
-5.17914e-17
-7.28498e-18
4.45291e-17
5.06523e-17
-2.18074e-17
8.81824e-17
1.24896e-16
1.24178e-16
-4.51348e-17
3.05988e-17
3.0032e-17
4.4025e-17
-4.34408e-17
4.31886e-17
3.10702e-17
-2.85659e-19
6.99158e-17
2.22282e-17
-1.53015e-17
-5.00243e-17
3.06267e-17
9.13954e-18
4.32793e-17
-9.45492e-17
-1.54385e-18
-1.37718e-18
7.95602e-17
4.32356e-17
9.33049e-18
4.14713e-17
1.73206e-17
3.9941e-17
-1.9489e-17
3.53521e-18
-6.05616e-18
-2.40109e-17
-2.55138e-17
1.86506e-17
5.46377e-17
-7.37188e-17
-1.03337e-16
6.53634e-17
-8.126e-17
-5.00655e-17
-1.50149e-17
4.02437e-18
9.27272e-18
1.81862e-17
2.18131e-17
1.00492e-17
-5.55657e-18
2.17076e-18
-1.76655e-17
3.38114e-18
-3.07895e-17
1.21241e-17
2.91515e-17
-1.56228e-17
1.12217e-17
3.93175e-17
6.00063e-17
-7.94447e-17
1.38715e-18
-1.14944e-17
9.14114e-18
-2.71558e-17
-7.08887e-18
-3.41245e-17
-8.31821e-19
5.89593e-17
3.19396e-17
-9.68999e-18
1.3844e-17
1.82689e-19
5.17872e-17
3.53187e-17
3.51658e-17
3.43673e-17
-1.27326e-17
-5.63231e-17
-3.28307e-17
-4.67423e-17
3.61441e-17
7.82574e-19
-1.5466e-17
-2.80103e-17
-1.16423e-17
9.5212e-18
-5.01376e-17
-7.49541e-18
-5.26805e-17
1.00241e-17
-1.52309e-19
9.82872e-06
-2.59809e-06
-9.79499e-09
3.88756e-05
-4.04624e-08
6.21509e-18
3.57415e-17
3.81578e-17
-2.07228e-17
3.19207e-17
3.38078e-17
-3.2797e-17
-2.50306e-17
-1.37866e-17
8.19819e-18
-2.17447e-17
-4.62958e-17
4.90742e-17
5.94971e-17
1.42918e-17
-6.03879e-18
-4.8219e-17
-3.79664e-19
-6.38349e-18
3.2197e-17
9.38766e-17
-4.3043e-17
-3.65609e-17
-1.90953e-17
3.28818e-17
4.23824e-17
1.45055e-17
-1.3893e-17
9.5946e-18
1.35103e-17
-2.99055e-17
-2.2224e-17
7.89007e-18
-1.22074e-17
5.92508e-17
-2.61268e-17
-2.35901e-17
4.85175e-18
-8.03827e-18
2.61827e-17
2.58593e-17
3.81039e-17
2.29445e-17
3.08187e-17
9.82771e-06
-2.59748e-06
-1.00866e-08
3.88767e-05
-4.10106e-08
-4.52731e-08
2.88321e-08
0.000114441
-8.45763e-08
0.000114656
-1.72445e-17
-3.76495e-17
-1.64336e-17
1.02593e-17
-1.97072e-17
9.98886e-18
-1.82688e-17
2.51327e-17
3.23521e-17
-2.23003e-17
1.11375e-18
9.05297e-18
4.84121e-17
9.51942e-18
-5.23908e-18
1.33805e-17
-2.31149e-17
3.90199e-17
-1.09186e-17
-2.94889e-17
-4.11584e-17
2.15812e-17
5.60591e-17
3.09879e-17
2.08492e-17
1.73066e-17
7.35988e-17
-2.52945e-17
5.51808e-17
1.78934e-17
1.3417e-17
5.60214e-18
9.63521e-18
7.1988e-17
-6.50846e-17
2.81379e-18
-1.55651e-17
5.91512e-17
-2.73068e-17
1.41626e-17
1.21103e-18
2.92255e-17
-3.27073e-17
-1.86347e-17
-3.55917e-17
1.45129e-18
-6.79667e-18
1.90414e-17
-8.75489e-18
-9.48748e-18
9.83906e-18
-1.80515e-17
1.31663e-17
3.11994e-17
8.31784e-18
1.81272e-17
-2.33588e-17
-8.29289e-18
7.51554e-17
1.92528e-17
-1.61123e-17
-5.64121e-18
-6.64072e-17
1.30597e-17
-3.85361e-17
2.125e-17
8.19308e-18
6.0898e-17
2.97076e-17
4.08061e-17
-4.47984e-17
5.43998e-17
1.71582e-17
-6.88621e-18
6.88552e-17
-4.61504e-17
1.77886e-17
-4.33858e-17
-2.10809e-17
-9.66269e-17
-8.75244e-17
1.04419e-17
-6.16025e-18
3.70003e-18
-3.9128e-17
-7.75636e-17
-3.16138e-17
3.33633e-17
3.22509e-17
8.59616e-17
-7.65696e-17
9.20758e-17
-1.52367e-17
6.28145e-17
3.41255e-17
-4.53692e-17
-6.38612e-17
1.4137e-17
1.07945e-17
8.56946e-17
7.32341e-17
-1.55527e-17
2.76179e-17
1.90456e-17
7.38071e-17
-4.67447e-17
2.65e-18
-4.26074e-17
6.14929e-17
-5.82484e-17
1.3606e-17
-4.0791e-17
-1.70195e-17
5.54891e-17
1.26612e-17
-7.28989e-18
-1.22109e-17
2.71409e-18
-7.37878e-17
7.94941e-18
2.87663e-17
2.32122e-17
2.4588e-17
3.11575e-17
3.618e-17
1.70779e-17
3.74452e-17
4.43054e-17
3.45793e-17
-1.92338e-17
-1.21699e-17
-7.7077e-19
-2.95771e-17
-1.2936e-17
4.86481e-07
-1.0714e-07
-3.6498e-10
-1.67124e-09
1.59945e-08
-2.9753e-09
-8.75835e-12
-4.81554e-11
3.72119e-10
-5.91875e-11
-1.81687e-13
-9.66991e-13
6.41995e-12
-8.83587e-13
-3.35174e-15
-1.90362e-14
8.50039e-14
-1.01875e-14
-3.82337e-17
-3.03455e-16
8.66961e-16
-1.13699e-16
-1.31298e-17
-1.42725e-17
7.92816e-18
9.23739e-17
8.32109e-18
2.21412e-18
-3.44643e-17
-2.87566e-17
4.32463e-17
2.34047e-17
-3.34411e-08
1.08335e-08
0.000114275