/*--------------------------------*- C++ -*----------------------------------*\
| =========                 |                                                 |
| \\      /  F ield         | OpenFOAM: The Open Source CFD Toolbox           |
|  \\    /   O peration     | Version:  2212                                  |
|   \\  /    A nd           | Website:  www.openfoam.com                      |
|    \\/     M anipulation  |                                                 |
\*---------------------------------------------------------------------------*/
FoamFile
{
    version     2.0;
    format      ascii;
    arch        "LSB;label=32;scalar=64";
    class       volScalarField;
    location    "0.013";
    object      p;
}
// * * * * * * * * * * * * * * * * * * * * * * * * * * * * * * * * * * * * * //

dimensions      [1 -1 -2 0 0 0 0];

internalField   nonuniform List<scalar> 
2308
(
544.762
520.711
511.244
564.116
528.747
529.75
527.782
526.181
531.208
573.346
573.811
576.433
578.753
580.298
581.076
579.664
575.802
569.188
577.095
582.513
584.596
583.672
581.734
578.863
576.36
575.59
575.891
577.118
527.69
569.396
578.906
579.856
578.251
575.016
569.871
564.238
559.672
558.037
559.321
562.03
568.493
578.545
589.352
594.519
590.822
596.898
599.908
592.719
579.758
568.303
561.134
558.194
556.753
558.6
563.283
568.704
573.421
576.21
577.455
576.365
574.494
572.665
571.432
571.509
572.493
573.887
575.45
576.433
576.841
575.714
573.133
584.958
590.638
574.701
583.058
586.772
586.317
584.292
581.619
579.105
578.252
579.053
580.595
582.229
582.766
580.633
576.648
570.949
564.961
560.337
558.707
559.739
561.969
567.392
575.658
584.419
588.541
585.086
559.276
579.861
560.496
568.463
595.869
601.808
603.202
593.612
578.823
566.653
559.424
556.488
555.127
557.448
562.376
567.694
572.057
574.63
575.589
574.34
572.632
570.981
569.879
569.772
570.431
571.233
571.799
572.239
572.256
571.311
569.703
526.714
534.028
535.337
533.542
558.02
571.261
581.84
587.192
587.94
586.246
584.04
581.733
581.054
582.146
583.966
585.798
585.721
582.94
578.041
571.704
565.352
560.679
559.036
559.837
561.498
565.696
572.119
579.269
583.153
580.54
577.098
577.12
578.076
582.317
588.329
526.844
594.064
527.855
527.257
560.969
536.098
526.871
548.249
566.752
586.898
586.976
590.256
596.105
602.334
606.494
597.987
599.176
604.422
603.744
591.932
576.254
564.308
557.575
554.686
553.743
556.694
561.868
567.064
571.062
573.485
574.118
572.714
571.127
569.677
568.732
568.55
568.721
568.794
568.545
568.045
567.338
566.921
566.238
535.603
521.566
527.724
526.086
526.492
527.762
530.083
534.52
543.067
554.665
567.584
579.034
586.339
588.361
587.239
585.714
584.091
583.881
585.169
587.283
589.233
588.26
584.694
578.87
572.025
565.601
561.131
559.635
560.225
561.306
564.191
568.681
574.445
578.824
578.439
577.3
579.105
588.933
554.093
532.293
485.907
565.247
503.138
530.159
560.957
536.959
607.593
599.283
600.102
604.533
601.838
588.733
573.281
562.071
556.206
553.394
553.157
556.756
562.041
566.947
570.507
572.669
572.793
571.301
569.936
568.779
568.019
567.727
567.429
566.687
565.524
564.02
562.973
562.66
562.988
564.884
537.904
526.108
526.023
526.381
527.495
529.681
533.652
541.229
551.432
563.557
575.089
583.483
587.419
587.451
586.486
585.823
586.338
587.987
590.46
591.857
590.162
585.585
579.08
572.131
566.084
562.197
561.013
561.31
561.745
563.19
565.663
569.84
574.877
578.234
579.758
584.124
593.39
609.614
609.576
608.593
606.939
609.068
615.102
622.371
627.407
628.737
485.46
501.753
573.098
536.317
546.031
578.825
562.919
561.199
541.312
541.093
538.611
526.886
525.934
526.225
527.189
529.273
532.847
539.501
548.617
559.641
570.675
579.388
584.5
586.362
586.479
586.825
588.063
590.385
592.76
593.469
590.887
585.685
578.952
572.374
567.176
564.237
563.463
563.249
562.906
562.713
563.144
565.27
570.137
576.835
583.346
591.481
600.355
608.366
601.913
619.592
637.605
645.562
643.677
644.333
648.328
654.498
659.189
660.669
659.47
626.41
605.557
598.053
598.956
602.613
598.45
584.998
570.481
560.497
555.655
553.033
553.713
557.829
562.966
567.347
570.37
571.987
571.481
570.007
568.908
568.121
567.662
567.244
566.449
564.924
562.889
560.651
559.272
558.866
560.168
538.835
561.411
553.807
530.428
543.623
543.718
539.028
532.994
526.862
525.813
525.503
525.664
526.025
526.901
528.835
532.091
538.082
546.23
556.093
566.28
574.822
580.575
583.642
585.244
586.791
588.978
591.675
593.86
593.808
590.625
585.187
578.769
573.021
569.047
567.292
566.766
565.823
564.402
562.149
560.058
560.869
564.837
572.775
584.933
598.366
607.669
610.872
591.595
590.596
621.034
662.484
696.541
705.325
693.846
679.175
670.48
667.878
667.61
666.916
665.808
667.354
655.395
620.472
600.504
594.841
596.48
599.61
594.274
581.099
568.071
559.692
555.826
553.746
555.504
559.887
564.598
568.245
570.611
571.277
570.11
568.739
567.992
567.639
567.442
566.993
565.731
563.51
560.801
558.152
556.378
556.078
557.92
560.882
541.983
538.515
530.427
561.044
529.356
534.668
540.713
545.954
526.522
530.78
556.557
545.54
544.98
590.557
602.837
625.465
656.409
671.211
670.442
666.957
661.098
656.912
652.587
649.489
648.541
651.658
660.494
669.28
644.077
610.162
593.058
590.838
593.633
596.054
589.634
577.081
565.937
559.483
556.471
555.485
558.257
562.686
566.735
569.574
571.092
570.462
568.689
567.43
566.968
566.997
567.108
566.682
564.981
562.239
559.239
556.511
554.544
554.361
556.552
560.112
528.557
544.272
564.659
516.732
525.613
525.981
526.742
528.453
531.55
536.925
544.173
552.982
562.211
570.263
576.276
580.254
583.042
585.707
588.746
591.682
593.545
592.991
589.585
584.351
578.748
574.227
571.631
570.844
570.103
568.44
565.532
561.29
556.752
555.424
559.356
566.86
582.156
601.973
614.079
618.854
590.44
580.058
582.665
535.055
540.251
538.569
548.931
546.741
558.282
666.869
662.668
622.543
596.391
585.408
587.559
591.517
592.516
584.757
573.08
564.129
559.694
557.428
558.041
561.605
565.817
569.118
571.251
571.422
569.508
567.209
565.98
565.657
566.018
566.426
565.946
563.905
561.005
558.147
555.676
553.863
553.85
556.047
559.791
528.473
545.675
620.81
630.133
661.141
699.164
706.496
708.862
714.987
702.366
680.644
668.336
667.128
668.366
664.769
661.723
665.367
672.487
528.79
544.729
541.928
535.689
530.298
527.851
530.319
535.463
566.301
525.58
525.96
526.728
528.308
531.188
535.924
542.373
550.244
558.54
566.006
572.051
576.641
580.332
583.805
587.301
590.372
591.975
591.141
587.982
583.506
579.051
575.819
574.329
573.936
572.673
570.098
565.798
559.941
553.58
550.302
553.676
560.526
575.826
599.831
617.903
627.481
594.709
583.923
583.45
626.005
530.801
560.969
540.681
527.918
541.295
534.772
528.128
539.871
555.166
530.389
551.31
559.788
528.674
485.338
555.657
530.982
680.442
649.481
639.021
601.012
584.795
580.56
586.313
590.733
589.149
579.957
569.611
562.915
560.04
558.875
561.07
565.081
568.894
571.61
572.787
571.375
568.344
565.589
564.286
564.016
564.567
565.093
564.447
562.333
559.675
557.385
555.49
554.115
554.44
556.551
559.885
528.598
544.727
532.172
603.06
608.351
628.901
615.966
596.266
601.8
597.344
582.794
576.405
575.95
571.539
558.726
552.133
547.276
551.13
568.132
599.064
620.031
526.454
544.71
542.506
536.679
531.974
528.802
507.814
523.268
525.81
525.844
526.198
526.957
528.318
530.88
534.92
540.679
547.661
555.129
562.078
568.12
573.145
577.434
581.357
584.948
587.815
589.283
588.736
586.355
582.997
579.758
577.496
576.479
575.786
573.839
570.38
565.087
558.279
551.141
546.623
548.864
554.974
568.282
591.907
616.018
632.562
599.757
592.831
587.609
619.362
621.732
528.18
561.06
534.45
522.28
520.752
517.603
559.902
540.545
524.653
532.389
534.264
488.604
500.342
539.237
563.341
529.14
537.262
529.467
560.822
557.915
555.774
554.92
555.582
556.751
558.167
560.222
562.088
562.9
562.532
562.031
562.375
563.848
566.965
570.82
573.632
573.861
571.688
568.432
564.368
561.08
560.575
562.711
567.146
575.673
585.61
590.557
587.666
580.678
577.791
585.678
609.647
616.197
674.596
628.704
521.996
717.347
762.619
741.837
706.626
693.926
678.016
621.989
630.469
661.192
723.734
747.005
744.525
734.206
718.954
705.783
693.277
701.959
696.061
691.51
685.878
528.039
561.614
522.683
550.466
548.208
546.227
544.408
542.816
536.453
528.652
520.031
567.769
515.77
489.459
484.997
486.226
513.717
511.031
507.672
554.337
526.364
545.618
545.81
543.316
538.554
534.618
531.862
528.183
534.147
527.337
526.631
526.476
526.715
527.262
528.325
530.364
533.866
538.866
544.979
551.751
558.422
564.616
570.019
574.635
578.633
582.039
584.673
586.239
586.424
585.211
583.165
580.899
579.034
577.685
576.195
573.378
569.319
563.686
556.813
549.806
545.012
545.897
550.778
560.984
580.881
606.368
628.392
601.798
599.353
592.338
602.818
652.581
667.515
492.073
493.093
495.023
493.516
491.868
561.187
502.727
494.894
509.704
519.818
528.104
513.194
498.229
502.806
505.192
520.5
496.592
516.963
519.91
505.867
490.495
487.442
528.548
536.015
541.189
562.87
560.211
557.822
556.25
555.726
556.048
556.474
557.614
558.993
559.959
560.081
559.883
560.374
562.053
565.364
569.66
573.553
575.314
574.192
571.445
567.944
564.236
562.195
563.233
566.053
572.162
581.404
589.144
589.911
584.49
579.03
578.222
589.402
597.888
648.69
619.847
675.07
535.785
538.056
541.284
544.575
547.002
545.012
505.217
528.751
562.775
515.566
500.443
512.01
512.869
491.649
500.295
540.638
502.736
506.4
528.989
526.469
559.182
529.47
542.113
533.953
628.11
579.019
586.591
573.246
618.472
601.998
563.837
564.937
539.227
533.035
499.508
501.594
492.641
497.83
510.724
510.368
498.944
488.078
536.629
558.081
541.32
541.502
556.11
553.385
550.939
548.661
546.837
545.151
520.97
562.188
522.746
497.898
498.203
559.896
506.484
506.068
514.344
506.206
488.424
504.103
499.563
556.499
591.225
560.681
508.347
531.978
530.035
528.562
527.657
527.199
527.064
527.43
528.257
529.947
532.676
536.718
542.092
548.387
555.068
561.587
567.332
572.047
575.821
578.858
581.355
583.38
584.721
584.988
584.137
582.509
580.299
577.852
575.11
571.548
567.122
561.904
556.076
550.222
545.502
544.947
548.3
554.826
569.513
591.873
614.364
600.582
604.003
592.286
595.123
655.584
661.623
626.363
552.827
485.182
579.072
507.47
511.812
495.31
547.305
517.386
526.281
515.285
527.684
525.331
538.676
540.225
542.23
544.715
546.853
548.8
546.031
536.573
518.731
523.299
550.903
495.765
565.012
531.161
568.714
567.9
565.637
562.814
559.946
557.48
555.766
554.912
554.542
554.794
555.588
556.682
557.332
557.661
558.428
560.284
563.556
567.912
572.457
575.689
576.279
574.482
571.737
568.469
565.428
564.467
566.157
569.583
576.545
585.046
589.995
587.257
582.228
577.182
580.309
586.068
625.13
592.801
663.407
545.486
529.488
535.207
539.103
542.564
515.118
568.692
494.353
490.185
486.771
484.822
484.51
484.543
550.938
537.28
564.489
563.056
516.879
503.305
502.932
517.178
504.082
503.999
514.731
509.33
541.292
492.809
531.046
487.982
486.045
491.127
498.179
492.38
547.907
531.568
541.286
500.568
495.381
496.579
496.709
530.924
534.721
562.889
561.638
559.136
556.197
553.47
550.928
548.662
546.553
543.928
523.395
557.914
500.743
503.783
499.544
488.817
538.173
533.356
531.397
529.806
528.615
527.759
527.21
527.333
528.003
529.05
530.977
534.271
539.153
545.244
552.121
559.003
564.994
569.636
573.016
575.669
578.24
581.064
583.855
585.765
585.99
584.384
581.226
577.222
573.112
569.018
564.791
560.647
556.46
551.873
547.351
544.766
546.322
549.822
559.526
577.021
598.835
598.353
607.752
589.183
595.792
651.286
671.257
608.584
714.955
747.564
781.039
735.802
736.819
782.232
790.676
781.791
781.324
719.92
744.907
769.342
780.136
794.164
797.555
792.681
783.344
759.839
749.137
760.164
773.517
771.354
762.548
736.316
723.829
501.537
497.634
509.491
504.399
487.42
540.54
562.866
553.813
530.233
545.783
542.688
544.492
546.623
548.571
550.052
551.48
548.428
540.026
527.954
515.209
499.474
500.151
504.641
563.739
509.887
509.155
503.466
508.818
551.544
487.488
496.353
485.33
494.347
488.242
538.753
493.251
530.348
484.1
483.713
484.399
486.546
490.073
494.299
499.917
512.476
560.52
526.292
524.192
529.826
533.348
535.56
538.689
539.973
525.642
549.191
607.382
497.555
557.665
560.13
561.938
561.899
560.102
556.999
554.104
551.442
548.477
545.242
541.577
538.319
485.72
494.377
545.928
536.998
532.316
591.259
532.114
537.425
534.863
532.661
530.854
529.401
528.268
527.433
526.932
526.919
527.504
528.932
531.814
536.419
542.519
549.621
556.767
562.913
567.356
570.368
572.82
575.687
579.419
583.795
587.335
588.326
586.163
581.758
576.35
571.063
566.517
562.881
559.925
557.183
553.729
549.362
544.91
543.281
545.671
551.69
565.614
587.282
599.748
613.775
590.692
598.08
625.866
686.386
619.82
742.829
452.265
389.09
340.736
364.789
423.208
423.457
432.589
432.607
410.476
400.376
420.592
380.676
363.884
361
363.341
362.482
371.24
361.304
386.284
387.286
375.047
359.072
373.699
408.226
452.148
474.396
527.95
690.343
563.312
638.336
588.189
602.877
582.353
580.014
580.71
585.594
588.14
585.859
578.65
571.742
568.04
566.289
567.001
569.89
573.272
575.915
577.679
577.6
575.006
570.556
565.756
561.619
558.593
556.716
555.646
554.744
553.559
552.53
552.028
552.375
553.543
555.511
558.347
561.735
565.255
568.478
570.686
571.374
571.678
568.383
561.934
484.939
539.387
528.884
527.557
519.84
531.383
513.752
499.634
502.48
558.711
558.519
506.606
518.527
520.291
506.133
496.376
497.293
500.8
492.961
496.759
486.513
486.256
496.149
490.337
491.648
486.922
485.362
539.281
488.007
493.092
486.145
493.725
496.808
498.206
496.331
512.165
512.577
558.816
508.762
519.664
531.941
543.8
551.556
553.816
554.023
552.66
550.69
548.855
546.348
497.071
527.736
535.386
506.863
500.714
495.06
490.414
486.802
484.614
483.871
484.45
526.852
529.921
501.681
517.213
534.45
546.258
526.882
485.207
521.292
486.981
534.128
491.363
548.995
524.315
528.189
529.982
530.768
532.378
534.223
534.766
525.876
525.316
531.064
539.622
548.336
557.37
565.077
571.155
574.146
574.544
573.379
570.93
567.218
562.988
558.736
554.998
552.177
550.412
549.712
550.079
551.014
552.532
553.9
555.292
557.106
559.808
563.606
568.428
573.641
578.151
580.562
580.367
578.101
574.513
570.262
566.956
566.12
567.929
571.894
578.709
584.662
587.424
585.112
585.681
583.83
599.49
584.518
626.766
570.878
667.244
555.184
488.681
493.686
886.66
840.814
850.08
859.748
863.75
902.065
926.768
1004.76
972.751
916.454
907.288
903.308
908.264
912.251
928.487
926.58
921.949
927.146
920.236
902.354
878.967
874.663
869.124
871.937
878.04
855.014
822.032
765.982
487.478
541.068
537.219
534.943
532.945
530.888
529.071
527.491
526.198
524.773
524.668
525.199
527.727
530.674
556.5
557.833
554.705
545.415
542.011
538.783
535.933
533.53
531.509
529.772
528.231
526.849
525.772
525.33
525.704
526.919
529.656
534.14
540.318
547.525
554.853
561.014
565.292
568.19
570.594
573.891
578.614
584.172
589.148
590.199
587.358
582.167
576.025
569.935
564.937
561.575
559.444
557.722
555.182
550.885
544.987
540.129
541.238
546.468
559.738
583.106
605.15
623.989
596.944
601.217
606.306
664.337
615.044
767.891
504.146
942.873
491.099
494.354
491.114
492.366
523.997
510.735
549.549
549.099
492.164
494.28
546.051
492.363
528.636
513.857
507.567
501.414
495.716
490.862
487.12
484.789
483.796
484.047
541.879
558.86
492.364
501.584
514.901
531.939
549.269
511.087
522.179
534.038
546.835
554.15
556.167
556.727
555.576
553.961
551.91
549.287
516.067
516.262
491.323
492.994
491.773
487.396
491.07
522.278
528.338
534.778
542.282
550.779
559.232
566.941
572.997
576.283
576.75
575.442
572.576
568.482
563.662
558.774
554.384
551.082
548.968
548.089
548.287
549.263
550.855
552.543
554.167
555.952
558.38
561.869
566.618
572.385
578.264
582.755
583.894
581.993
578.003
572.989
568.042
564.655
564.312
566.87
571.91
578.832
585.829
587.508
593.282
587.714
602.49
581.926
622.583
562.841
667.547
528.75
722.151
515.469
521.561
524.141
524.9
524.508
524.772
526.686
530.138
531.862
537.539
489.579
490.914
489.696
487.816
527.697
538.452
549.366
548.981
547.783
547.665
534.395
499.398
534.192
526.596
521.472
517.53
514.685
512.698
511.31
510.437
509.938
509.69
511.052
513.604
518.43
526.366
537.413
573.78
18.1111
18.1564
20.6203
26.1045
27.8898
22.9329
19.0181
18.0791
18.4628
17.791
17.4923
17.6629
16.7956
15.6921
15.9534
19.2442
22.2295
23.0703
23.1428
19.2823
15.3348
14.1701
13.814
13.2745
13.0378
14.335
14.3351
14.793
14.1489
16.7358
542.613
539.385
536.324
533.674
531.396
529.358
527.489
525.806
524.506
523.854
524.099
525.303
528.021
532.44
538.664
545.668
553.331
559.683
563.93
566.655
569.192
572.828
578.072
584.607
590.637
591.146
588.056
582.608
575.727
569.202
564.055
560.707
558.951
557.893
556.002
551.746
544.854
538.095
537.303
543.841
557.794
585.859
612.378
643.535
600.285
589.777
585.263
611.334
589.499
771.48
490.127
825.964
20.6197
488.943
490.67
488.35
520.908
537.991
787.095
495.674
505.625
506.67
18.5135
2443.72
2581.37
2324.98
2285.69
2210.47
2211.86
2205.26
2193.3
2185.8
2157.05
2194.97
2101.42
2114.74
2003.23
2024.98
2005.14
2026.82
2008.68
1992.64
1934.24
2008.08
1927.98
1891.55
2093.05
2025.74
2069.19
2102.01
2096.74
2038.85
867.017
24.0739
2039
1994.25
767.359
492.278
589.893
569.984
581.302
572.427
642.93
600.158
590.424
625.089
542.708
559.088
537.467
535.196
551.973
544.79
557.802
556.434
560.306
558.633
569.293
563.751
583.736
576.654
591.788
588.886
584.562
591.232
572.258
577.638
565.851
568.499
558.442
562.962
544.835
552.084
531.325
537.558
524.418
527.083
522.962
523.165
525.128
523.692
529.052
527.004
533.493
531.144
539.46
536.279
546.201
542.886
552.961
549.607
557.065
555.552
557.838
558.112
549.153
556.153
523.462
536.344
511.184
512.408
519.512
514.064
523.822
523.25
517.413
520.155
523.989
517.809
574.555
555.83
563.734
548.185
550.507
545.685
546.53
545.821
545.548
546.662
546.194
548.918
547.515
554.709
551.18
560.716
559.355
548.439
547.851
585.471
601.997
562.39
576.675
538.283
541.674
544.987
543.505
530.578
539.219
503.203
515.924
487.458
493.06
483.748
484.933
484.839
483.693
491.297
487.349
501.955
496.234
513.863
507.941
524.347
519.203
536.421
530.1
551.559
543.654
567.402
559.675
577.538
573.761
576.534
577.941
569.102
573.486
558.675
563.901
550.523
554.075
547.297
548.264
548.299
547.393
551.684
549.878
555.237
553.44
560.866
557.535
571.509
565.547
583.95
578.078
584.312
585.99
574.606
580.237
564.177
568.772
563.96
562.275
574.996
568.402
586.363
585.009
590.308
599.676
580.292
610.186
555.003
630.668
673.103
586.111
601.957
487.633
537.24
2263.51
489.79
2050.37
525.642
607.41
609.41
609.335
611.201
611.222
611.74
611.729
543.008
485.992
488.462
489.712
487.951
544.835
538.405
546.446
535.617
530.026
532.573
535.972
530.421
532.952
533.955
529.855
532.225
529.029
527.534
528.501
484.443
530.734
601.25
526.109
545.436
532.487
489.409
485.036
526.039
529.247
549.909
535.096
567.955
497.653
555.674
532.309
526.255
549.395
536.173
554.19
558.754
526.176
494.337
527.6
560.093
534.574
503.822
539.805
540.635
526.157
539.603
601.841
532.035
521.042
544.59
518.377
486.959
561.394
512.764
493.679
561.946
568.948
562.076
566.71
498.653
551.697
518.583
533.853
545.539
529.009
574.368
573.863
512.179
)
;

boundaryField
{
    wall
    {
        type            zeroGradient;
    }
    outlet
    {
        type            fixedValue;
        value           uniform 1e-05;
    }
    inlet
    {
        type            fixedValue;
        value           uniform 612;
    }
    frontAndBackPlanes
    {
        type            empty;
    }
}


// ************************************************************************* //
