/*--------------------------------*- C++ -*----------------------------------*\
| =========                 |                                                 |
| \\      /  F ield         | OpenFOAM: The Open Source CFD Toolbox           |
|  \\    /   O peration     | Version:  2212                                  |
|   \\  /    A nd           | Website:  www.openfoam.com                      |
|    \\/     M anipulation  |                                                 |
\*---------------------------------------------------------------------------*/
FoamFile
{
    version     2.0;
    format      ascii;
    arch        "LSB;label=32;scalar=64";
    class       volScalarField;
    location    "0.0305";
    object      p;
}
// * * * * * * * * * * * * * * * * * * * * * * * * * * * * * * * * * * * * * //

dimensions      [1 -1 -2 0 0 0 0];

internalField   nonuniform List<scalar> 
7220
(
46.1273
591.848
592.007
592.153
591.85
592.011
592.238
592.104
592.382
592.253
52.0843
565.716
520.029
99.929
102.218
592.452
249.543
65.0115
265.069
60.8246
361.908
554.353
592.626
546.943
588.616
559.188
652.519
77.0052
359.217
446.234
588.938
481.781
590.626
426.207
588.614
35.5881
592.178
55.107
51.4377
117.951
117.3
116.944
117.552
31.8357
32.4123
32.4531
31.9968
31.6215
117.008
116.894
116.649
116.704
116.05
112.155
113.915
116.639
103.81
91.5351
94.9677
106.904
78.3658
65.2027
64.9268
79.925
54.0697
45.0911
44.5643
53.1209
39.8882
36.1532
35.7831
39.3262
33.853
32.4008
32.2301
33.5703
31.6672
31.3108
31.2375
31.5621
31.1525
31.0968
31.0389
31.0925
31.2784
31.0281
31.0881
31.3042
31.6362
31.5066
119.297
118.853
121.716
121.755
32.982
32.9529
32.0407
32.5116
31.5036
31.6765
31.5409
32.716
32.0107
36.3493
34.1325
44.7248
39.8048
58.8738
51.9707
69.4901
64.6782
81.8084
75.0827
102.881
91.0434
120.064
113.742
122.675
122.697
115.292
120.095
94.9741
106.378
77.2756
84.8597
65.4264
71.1422
50.2653
58.5605
38.5613
43.2218
33.4877
35.4522
31.8672
32.4033
31.5133
31.6163
31.4795
31.5481
122.718
121.889
32.2479
32.2496
33.5573
33.0202
31.8288
32.2282
32.3313
32.6201
32.6818
32.6429
32.3825
32.3287
33.0023
32.5678
35.5727
33.9074
42.0024
38.1503
53.4562
47.3062
60.7961
57.8946
65.3605
63.1713
71.3278
68.0005
82.1823
75.8436
103.48
91.1643
124.149
115.999
122.914
127.229
127.252
121.234
121.424
126.603
126.524
122.264
118.73
125.066
94.5237
107.188
77.6025
84.4748
68.943
72.5637
63.6567
66.116
57.2781
60.8639
45.2628
51.843
36.807
40.2681
33.3418
34.5906
32.4228
32.7186
32.2971
33.6966
33.1458
33.172
33.2678
123.442
127.245
120.848
129.374
33.5253
34.2938
34.1761
33.1953
33.4637
34.586
34.0364
33.0149
33.1676
33.4413
33.8675
33.5719
35.8037
34.5148
41.0195
37.8646
51.0748
45.5299
58.9155
55.8883
61.6509
60.6928
63.929
62.7401
67.3882
65.4794
72.9226
69.7798
83.1156
77.1218
103.086
91.0676
127.8
117.06
123.822
123.752
126.575
123.125
94.2571
107.246
78.5609
85.1109
70.4561
73.8466
65.8281
67.8328
63.0372
64.2543
60.6167
61.8309
54.6405
58.4123
43.4257
49.0242
36.525
39.2968
33.9293
34.8043
33.4833
33.5559
132.585
132.228
33.595
34.9421
35.1982
34.1499
33.6054
34.476
34.8192
34.3626
33.4922
102.974
118.006
126.811
132.191
33.7701
34.8403
35.865
35.6443
37.5428
36.8764
36.5731
34.2108
34.7899
35.0594
34.8523
36.5927
35.5508
40.9474
38.2724
49.9314
44.8072
58.56
54.9784
61.582
60.5767
62.4099
62.0905
63.6203
62.8128
66.1103
64.8458
69.4327
67.6327
74.6538
71.658
84.0313
78.4664
91.6646
133.123
124.595
127.397
126.296
126.064
124.887
122.101
94.3323
107.084
79.811
86.0142
72.26
75.5111
67.8717
69.806
64.9323
66.2481
62.9725
63.7955
62.2511
62.5624
60.3065
61.6352
53.3583
57.7574
42.7044
47.7011
36.8852
39.1802
35.5222
34.7029
34.3707
35.6476
35.1134
36.242
33.9596
131.66
133.64
36.5809
37.5915
36.1259
37.4197
34.0457
34.8279
35.5433
37.33
34.3626
38.3566
36.4915
36.399
34.7816
36.345
38.3017
37.6796
36.8673
41.6485
39.3371
49.6442
45.0215
58.7473
54.7247
62.4081
61.1688
63.1616
62.9508
63.5074
63.3051
64.2625
63.8135
65.8493
64.8698
68.2954
67.0914
71.5176
69.7514
76.5481
73.6624
85.694
80.3623
103.472
93.1657
119.034
133.123
138.36
126.905
127.887
128.616
128.372
127.457
127.324
138.524
132.231
123.642
95.523
107.397
81.5179
87.4591
74.2551
77.4261
70.0334
71.9193
67.1691
68.4614
64.8424
65.9001
63.7466
64.1423
63.4522
63.5498
63.1154
63.3591
60.763
62.4043
52.6288
57.5978
42.5986
46.9991
39.5398
35.9352
35.9661
36.3932
36.0278
36.8471
35.1241
34.4564
34.9191
36.3077
40.4396
42.9656
38.9029
88.1208
95.506
138.933
138.403
35.5244
36.3205
37.1891
39.2745
39.6749
40.5354
40.1804
35.5863
34.6837
38.1407
34.9783
36.4284
39.1016
38.1905
39.1845
38.5002
42.936
40.6158
50.142
45.9764
59.3301
55.0449
63.6421
62.1247
64.5419
64.3198
64.6807
64.6107
65.0644
64.8219
65.7036
65.3657
66.5463
66.0819
68.0657
67.1314
70.5402
69.2915
73.8958
72.03
79.1191
76.1882
83.0069
135.567
133.227
139.872
129.584
129.025
130.832
130.679
128.864
129.906
132.436
97.7753
84.0489
89.7764
76.7386
79.9051
72.3437
74.3217
69.4686
70.7544
67.1272
68.173
65.9256
66.4469
65.1702
65.4995
64.8915
64.9823
64.8323
64.8504
64.4654
64.7758
61.4116
63.5112
52.1678
57.5598
46.8406
37.8656
38.1766
37.7113
37.7478
38.2151
37.8063
38.8354
35.0744
38.067
105.344
108.526
52.295
47.6683
36.8704
36.1887
35.6019
36.3021
37.1132
38.032
41.4338
41.1297
47.5401
40.006
589.777
38.9918
38.0498
40.1523
41.0092
40.4107
44.6501
42.2142
51.3415
47.5672
60.3288
55.9599
65.1587
63.4008
66.2692
65.9902
66.3527
66.3303
66.5034
66.4013
66.95
66.7071
67.4544
67.2025
67.9733
67.705
68.7812
68.3075
70.3675
69.4217
73.1721
71.6593
76.8727
74.8388
82.3623
79.3316
91.3097
86.3126
98.5496
144.826
120.652
133.632
139.891
132.418
131.347
133.091
133.039
131.613
132.637
138.991
133.033
125.179
145.184
100.588
87.3241
92.7312
79.8482
83.0983
75.1522
77.2742
71.8925
73.4115
69.4543
70.5145
68.2397
68.7548
67.5578
67.8596
67.0143
67.2839
66.6332
66.7674
66.5478
66.5711
66.5435
66.5427
66.0139
66.4669
62.1746
64.7658
57.7636
40.7355
44.4151
42.0726
39.7635
40.0799
39.6081
39.6486
40.4361
39.8114
41.9822
41.1661
45.0105
43.8939
42.4108
42.889
35.773
591.338
38.3732
40.0803
36.3153
592.149
86.0848
90.0512
143.229
111.591
37.0859
43.4618
37.9764
42.1445
40.979
38.9162
39.9169
591.936
589.911
590.071
589.621
577.474
590.255
37.4652
36.9283
590.852
38.1431
45.5355
44.516
36.418
36.4446
38.8584
591.094
40.079
577.766
39.4984
40.5051
591.744
43.4797
41.0236
42.3713
42.868
42.4416
42.3723
43.1746
42.6524
46.5737
44.2984
53.1742
49.7247
61.7589
57.4829
66.9182
64.978
68.2385
67.8866
68.3232
68.3178
68.3801
68.3394
68.6337
68.4682
68.9885
68.8128
69.3289
69.1585
69.705
69.5063
70.2478
69.944
71.2516
70.6569
73.1058
72.0401
76.334
74.556
80.406
78.2018
83.0048
108.829
147.468
139.726
134.656
139.999
135.376
134.482
135.506
135.532
134.716
135.491
139.189
134.381
146.527
90.9773
83.5127
86.7543
78.5048
80.8004
74.7991
76.5827
72.1006
73.2766
70.6248
71.26
69.864
70.1857
69.3991
69.6102
69.0233
69.2101
68.6564
68.8347
68.4702
68.5306
68.4385
68.4458
68.4644
68.4592
67.7514
68.3629
63.2312
66.2116
53.7075
58.6878
46.5625
49.6398
42.7217
44.0286
41.7961
42.0739
41.7889
41.7396
42.8695
42.2639
43.6353
590.285
590.434
590.197
36.5979
36.4051
590.625
68.1999
584.284
47.3251
95.3459
96.6401
589.471
37.6983
37.2826
37.2368
37.1418
44.5849
589.299
38.9029
45.5568
46.3861
46.6991
37.954
43.2322
42.0198
40.229
160.066
38.8744
92.7531
41.7155
589.238
39.862
40.9041
591.267
590.943
48.5956
590.171
590.557
592.016
45.0638
44.9623
45.8136
45.2917
48.98
46.8773
55.8983
52.2774
63.8094
59.832
68.9377
66.9449
70.4061
69.9873
70.5097
70.51
70.5309
70.5145
70.6601
70.5729
70.8854
70.7749
71.0787
70.9841
71.2869
71.1762
71.5875
71.4189
72.0848
71.804
72.9099
72.4463
74.242
73.4946
76.3698
75.189
79.9418
77.9854
84.2994
82.0076
90.2777
86.9589
94.4609
124.56
102.858
147.502
151.772
136.814
140.365
138.435
137.763
138.176
138.241
138.004
138.449
139.74
137.113
152.273
146.578
104.568
128.403
95.2744
87.4564
90.9577
82.308
84.6679
78.2213
80.2365
75.262
76.5326
73.4877
74.2723
72.4069
72.8823
71.7413
72.0329
71.3378
71.515
71.0745
71.1963
70.8434
70.9603
70.6285
70.7278
70.5574
70.5791
70.5649
70.5496
70.6207
70.6088
69.7522
70.4866
64.9782
68.0481
55.9232
60.5834
48.703
52.0291
45.1092
46.2929
44.3563
44.5787
44.4299
44.3182
44.9181
589.026
589.278
45.505
591.059
590.577
37.4302
37.2068
590.083
47.0861
45.7724
588.439
590.435
591.907
38.5345
47.4004
47.9012
47.3529
37.9854
38.1755
38.089
589.439
44.3889
591.861
88.5205
91.337
114.803
100.333
43.1247
589.574
39.7303
47.8552
591.779
592.16
592.314
592.471
590.284
38.8661
583.692
583.652
588.695
589.225
583.716
582.516
41.0423
48.8139
590.475
590.764
590.735
590.443
587.379
39.8332
41.962
42.5087
591.512
40.8676
583.647
582.413
582.45
44.2649
591.233
582.401
590.909
590.5
48.426
592.034
49.9997
575.38
49.1574
48.5819
52.3125
50.2436
59.0048
55.2779
66.4163
62.6829
71.2802
69.3541
72.7769
72.3302
72.9059
72.9048
72.9077
72.9047
72.9533
72.9212
73.075
73.0174
73.137
73.1138
73.2028
73.1659
73.3223
73.2524
73.5817
73.425
74.096
73.8017
74.9199
74.4673
76.0894
75.4569
77.6918
76.8217
80.0979
78.7701
83.8694
81.8274
86.0076
99.3756
143.645
112.657
147.6
154.898
140.271
141.322
141.607
141.283
141.175
141.242
141.47
141.582
141.013
140.627
154.091
146.72
146.885
91.8077
86.3327
88.9236
82.0549
84.1431
78.8397
80.2268
76.8174
77.7202
75.436
76.0711
74.4407
74.8968
73.7594
74.0629
73.3591
73.5285
73.1594
73.241
73.0478
73.0992
72.9563
73.0001
72.8901
72.9146
72.8711
72.877
72.9672
72.8815
73.0165
73.004
72.0809
72.8505
67.4044
70.3871
58.8817
63.2578
51.4385
55.0394
48.1033
49.2076
47.3814
47.6021
47.3308
588.747
591.463
591.892
591.689
590.662
590.617
579.413
38.3073
50.8885
48.5993
38.0314
584.761
585.7
584.77
587.719
586.489
587.16
589.938
586.425
153.35
45.6199
46.6995
590.716
94.3332
94.8451
44.3062
588.63
585.68
587.762
587.241
589.523
39.4208
591.881
48.467
592.341
590.151
589.824
589.798
591.973
38.9173
39.1098
39.0328
584.76
588.3
586.539
587.224
584.212
583.349
584.506
585.242
586.923
589.182
581.131
590.526
590.811
592.438
588.617
583.682
40.6274
49.1307
588.128
590.117
585.15
39.8724
584.757
583.024
583.978
585.026
43.0879
41.9359
83.3141
50.1539
589.4
590.427
592.082
592.375
592.374
592.232
591.735
40.8652
583.661
584.756
583.81
584.885
69.3138
588.995
41.941
43.4163
591.494
583.71
584.765
584.806
581.038
45.1625
591.22
582.016
582.768
581.017
590.904
582.575
49.8969
46.9536
90.7876
582.467
592.277
51.5035
100.281
56.0083
53.7284
62.7788
59.0385
69.6734
66.4461
74.0104
72.2684
75.3974
74.9679
75.538
75.5359
75.5226
75.5329
75.5121
75.5129
75.5046
75.5098
75.4683
75.4928
75.3709
75.4194
75.3725
75.3677
75.4273
75.3888
75.6659
75.5077
76.2154
75.9009
77.069
76.6063
78.199
77.5999
79.6159
78.8677
81.4142
80.4542
83.9677
82.5601
88.0474
85.8219
92.4711
90.286
94.977
107.298
98.502
157.159
129.268
147.889
154.86
144.002
143.374
144.983
144.982
144.544
144.591
145.08
144.963
143.621
144.292
154.14
147.115
134.093
157.981
99.5628
109.553
95.5423
90.6157
92.8001
86.0851
88.333
82.6375
84.1245
80.4486
81.4363
78.8428
79.5967
77.5811
78.176
76.5913
77.0541
75.8744
76.197
75.4557
75.6284
75.2977
75.35
75.2641
75.2735
75.2865
75.262
75.3599
75.3261
75.387
75.3778
75.4311
75.397
75.5711
75.508
75.62
75.6051
74.741
75.4816
70.3171
73.103
62.7736
66.5785
55.3485
58.6939
51.7048
52.9149
50.8833
51.1227
50.8245
45.5682
586.974
591.718
590.2
585.519
588.249
586.513
591.894
591.47
591.691
590.952
591.232
590.349
590.677
589.973
39.2293
49.5061
86.2724
592.136
38.9736
585.719
587.807
586.137
589.691
588.861
589.304
49.7435
592.055
591.897
591.028
591.068
589.969
589.59
98.6207
587.559
586.567
585.755
582.405
583.684
588.088
584.715
587.049
586.411
589.778
40.3697
49.6073
588.74
589.741
591.694
592.016
39.9181
40.1054
40.0306
585.737
588.827
587.308
587.91
585.918
44.2879
592.202
91.8639
93.6761
109.294
101.051
588.127
582.446
41.5876
589.273
50.3866
588.189
590.11
592.072
592.238
591.911
40.9442
585.752
585.818
589.39
43.1004
588.449
42.91
51.6294
587.619
591.725
41.9906
585.746
585.762
579.546
44.3749
591.494
580.929
581.661
585.738
579.465
46.0375
591.227
581.375
51.4254
48.3451
590.9
581.176
46.9088
591.006
581.068
590.654
588.266
53.1122
592.398
592.304
592.385
592.418
50.0047
54.8882
58.7064
55.098
66.9707
63.0287
73.5125
70.6525
77.1395
75.6755
78.3668
77.9848
78.4611
78.4644
78.4313
78.4507
78.333
78.392
78.1985
78.2695
78.023
78.1164
77.8146
77.9216
77.6012
77.7018
77.5617
77.5588
77.6066
77.5743
77.8212
77.6771
78.4032
78.0726
79.2646
78.8027
80.3638
79.7855
81.6867
80.9987
83.215
82.4254
85.0482
84.0644
88.0079
86.3175
90.0314
99.8678
123.32
107.029
162.115
155.854
148.677
154.964
147.951
146.909
148.583
148.725
148.234
148.256
148.739
148.562
147.066
148.102
154.312
148.103
158.144
161.61
128.216
94.0318
90.3103
92.114
86.4541
88.2498
84.0745
85.1031
82.4053
83.2049
80.9746
81.6626
79.7697
80.3438
78.793
79.253
78.0565
78.3925
77.6242
77.7936
77.5013
77.5405
77.4809
77.4853
77.5881
77.5007
77.8078
77.6996
77.9906
77.9054
78.1117
78.0579
78.2329
78.1653
78.4103
78.3405
78.4684
78.4554
77.7227
78.3315
74.1704
76.3984
67.2289
71.0446
59.8255
63.1895
56.1304
57.3927
55.2856
55.529
55.1779
592.519
592.494
592.502
592.501
592.493
592.44
592.527
592.512
592.168
592.288
592.277
592.278
592.292
591.564
591.729
591.306
591.111
591.341
590.603
590.87
590.304
589.211
588.813
48.4114
584.798
587.599
585.627
592.255
592.545
592.406
591.913
592.091
591.506
591.719
591.028
591.28
590.464
590.761
590.133
40.2079
50.4658
589.294
47.3723
591.497
592.169
39.9704
586.585
588.41
587.378
586.684
587.819
45.5893
81.4035
589.561
59.4273
588.91
96.7504
97.42
94.8209
96.874
592.077
592.228
591.916
256.254
586.963
586.041
585.081
581.336
582.73
587.568
583.617
586.284
585.531
589.949
41.3794
52.9229
50.8001
588.774
589.743
54.736
50.3559
591.265
591.672
592.335
592.071
89.5482
90.2983
40.9878
41.1687
41.1062
586.63
85.5589
89.6389
92.1506
589.306
588.022
588.563
586.604
90.2153
570.031
573.014
588.424
44.3581
587.925
55.9245
592.638
592.671
587.654
580.911
42.6173
51.8029
588.277
590.12
592.074
592.543
592.463
591.929
42.0917
586.655
586.6
87.9797
577.972
43.1879
43.9461
86.8392
87.8861
53.1989
93.2848
90.7073
588.007
592.029
591.736
579.718
580.492
586.606
586.586
577.758
45.3852
91.7137
94.8376
592.31
592.196
591.515
580.101
53.0975
49.8478
83.2868
94.0537
91.1061
95.3319
91.9364
95.8713
92.1159
95.7199
591.237
579.792
48.3312
590.987
579.494
591.005
579.598
46.9858
161.282
590.649
592.108
54.9236
78.5423
54.6583
60.8542
63.9086
62.1339
70.65
66.5653
76.8402
74.0778
80.1327
78.8198
81.4782
80.9966
81.6857
81.6768
81.6393
81.6722
81.4606
81.5782
81.1716
81.3225
80.8441
81.0118
80.4922
80.67
80.1433
80.3155
79.8331
79.9776
79.7614
79.759
79.8067
79.7738
80.0263
79.8789
80.6105
80.2822
81.4406
80.9984
82.4809
81.935
83.7039
83.0724
85.0543
84.3658
86.5105
85.7529
88.608
87.4176
91.7185
90.0943
95.3499
93.1708
99.2994
109.955
102.911
152.916
124.87
162.48
166.63
150.452
155.314
152.075
150.837
152.366
152.565
152.121
152.134
152.491
152.319
150.833
152.09
154.791
150.231
166.405
161.873
129.49
155.199
104.225
112.438
100.043
93.4344
95.7703
90.3009
91.9282
87.4901
88.7568
85.7537
86.5329
84.3527
85.0465
83.0553
83.6876
81.9211
82.4646
80.99
81.4293
80.2719
80.6027
79.8411
80.007
79.7213
79.7593
79.7021
79.706
79.8737
79.7468
80.2011
80.033
80.543
80.3733
80.8406
80.7011
81.076
80.9622
81.309
81.1917
81.5353
81.4513
81.5835
81.5725
80.9593
81.4703
78.1094
79.89
72.2144
75.5739
65.8343
68.7969
61.6414
63.4627
60.4963
592.598
592.613
592.588
592.589
592.599
592.592
592.56
592.62
592.609
592.338
592.427
592.393
592.406
592.391
592.388
592.41
592.505
592.371
591.568
591.748
591.159
591.372
590.695
590.935
590.158
590.436
589.861
593.055
586.521
583.958
586.948
584.642
592.28
592.576
592.431
591.942
592.117
591.552
591.754
591.104
591.336
590.584
590.855
590.285
41.2515
51.5312
589.302
47.0459
48.1788
591.474
592.211
85.0806
85.8301
41.0468
87.0878
587.38
97.5714
94.7406
588.994
587.239
87.8195
82.1048
584.06
582.988
35.7033
95.8254
101.865
45.6962
591.95
94.9156
590.685
588.98
586.171
56.9905
70.6326
116.7
592.711
592.634
592.259
590.412
585.047
580.051
581.563
586.963
582.271
585.397
584.511
42.4539
53.9664
52.1217
588.892
589.778
50.9553
591.254
591.669
592.365
592.102
90.7274
42.1425
42.2997
42.2492
88.1216
81.0467
517.195
587.458
96.9068
589.772
588.667
589.164
587.341
81.8219
85.94
576.325
75.1062
44.4654
88.5051
94.5716
97.0605
115.307
106.252
592.547
592.68
588.108
587.36
579.32
43.7165
53.322
124.86
101.397
94.839
588.581
591.473
60.2441
54.6506
591.87
592.484
591.948
578.293
579.233
43.3132
88.5897
587.424
98.6999
588.375
587.326
83.7811
575.95
67.3222
65.6528
64.3537
45.0504
54.8665
97.6554
592.062
592.628
592.574
591.764
578.75
574.885
587.337
99.7139
54.9122
51.4147
46.4996
79.2796
99.2716
592.231
591.534
578.328
99.9156
49.8707
590.941
577.747
592.452
592.37
591.303
578.02
48.4641
577.831
84.2339
590.996
47.1238
590.374
592.168
123.289
108.46
115.244
60.0279
68.6214
71.7711
69.9779
76.3077
73.9287
81.1955
78.9242
83.6184
82.7078
84.5575
84.1882
85.0049
84.8383
85.0008
85.0121
84.8474
84.9514
84.4173
84.6468
83.9275
84.175
83.4223
83.676
82.9165
83.1675
82.4451
82.6739
82.0494
82.2316
81.9502
81.9483
81.9955
81.9624
82.2181
82.0687
82.7691
82.4648
83.5272
83.1255
84.472
83.9788
85.5604
85.006
86.7397
86.1401
87.9573
87.3371
89.536
88.6707
91.7146
90.5616
92.9306
105.359
128.125
113.97
161.496
146.695
162.277
166.281
154.068
156.249
156.422
155.206
156.339
156.588
156.133
156.157
156.444
156.25
155.345
156.337
155.963
154.435
165.941
161.704
147.819
161.286
129.744
97.5282
93.1452
94.8773
90.7163
91.9061
88.7258
89.6406
87.3488
87.9816
86.1391
86.7444
84.9976
85.5553
83.9682
84.4615
83.118
83.5179
82.4603
82.7638
82.0466
82.2107
81.928
81.9655
81.91
81.9134
82.1359
81.9793
82.5455
82.3318
83.0124
82.7743
83.4869
83.2528
83.9265
83.7113
84.3405
84.1352
84.7243
84.5434
84.9597
84.8822
84.9899
84.9895
84.4126
84.7904
82.4898
83.7298
77.9009
80.4871
72.117
75.0008
69.5142
592.827
592.744
592.783
592.689
592.712
592.664
592.672
592.66
592.66
592.667
592.662
592.635
592.674
592.671
592.48
592.541
592.503
592.521
592.483
592.489
592.495
592.484
592.552
592.518
592.592
592.407
591.606
591.783
591.219
591.418
590.798
591.012
590.338
590.573
589.85
590.094
589.613
585.707
582.883
586.194
583.465
592.614
592.874
592.755
592.313
592.467
591.983
592.153
591.608
591.802
591.187
591.403
590.713
590.958
590.158
590.449
92.6495
42.3591
52.756
589.38
48.1683
49.1235
591.471
592.245
86.2293
42.1977
84.4825
96.1172
95.6859
588.089
99.7274
589.583
587.969
83.8344
399.493
574.486
45.8349
85.0134
592.01
65.6806
587.263
385.847
587.206
586.844
100.303
100.867
592.75
592.805
592.319
587.257
584.009
578.658
580.338
586.466
580.98
584.629
583.634
589.149
589.619
43.5948
55.0718
53.5713
526.983
500.504
489.981
526.202
589.105
589.902
51.746
591.685
592.389
592.126
576.739
577.853
43.373
43.5
43.4681
85.1492
528.298
102.139
100.962
78.7202
75.8313
588.207
583.514
101.963
589.653
588.597
587.956
557.877
82.0624
574.055
78.2564
75.4265
64.5742
585.908
576.73
592.974
78.3514
593.126
44.8804
54.9461
90.5101
89.6505
82.9222
100.049
107.53
588.871
153.36
55.1645
591.906
592.502
591.975
330.396
409.525
577.3
572.729
44.6186
85.3306
592.563
592.598
592.614
588
369.774
345.164
578.223
103.571
561.193
591.203
579.679
53.1348
587.987
46.2345
66.5078
68.3127
80.2506
56.6418
102.604
115.299
115.226
67.9184
60.0508
592.105
592.584
591.788
592.708
592.709
592.686
429.396
576.779
379.176
464.79
104.232
590.311
51.4949
590.498
59.1116
592.302
47.7052
272.181
100.959
597.44
103.976
575.797
592.271
592.675
592.638
591.571
592.679
579.718
576.323
50.0209
575.861
80.8086
592.405
591.301
576.023
48.6308
47.2826
81.6473
592.508
590.962
588.463
99.4254
122.941
96.788
102.886
85.9154
86.7201
91.4162
67.741
78.0922
80.0025
78.8844
82.9095
81.415
85.7409
84.4018
87.5695
86.824
88.3402
88.0561
88.5205
88.4956
88.4896
88.5112
88.2837
88.4224
87.7978
88.054
87.2079
87.5123
86.57
86.892
85.9151
86.2435
85.2696
85.5879
84.6859
84.9661
84.2182
84.4308
84.0901
84.0897
84.1278
84.0992
84.3266
84.1928
84.7997
84.5386
85.4545
85.1051
86.2705
85.8435
87.2008
86.7328
88.1994
87.687
89.2126
88.7183
90.3075
89.7118
91.8879
91.0328
93.973
92.8162
97.1838
95.4612
98.6052
109.607
102.874
133.199
119.749
160.429
147.936
161.558
164.476
158.625
158.22
161.178
160.2
160.761
161.082
160.544
160.579
160.956
160.656
160.421
161.12
158.351
158.945
163.996
161.066
147.805
160.108
120.425
133.655
103.352
110.244
98.9473
95.7779
97.5514
93.0016
94.2118
91.1568
92.0434
89.7705
90.396
88.7473
89.2543
87.6991
88.2183
86.7345
87.2079
85.8394
86.2679
85.1017
85.4506
84.5401
84.7987
84.1832
84.329
84.0787
84.1113
84.0646
84.0666
84.3456
84.1621
84.8264
84.5733
85.3991
85.1039
86.0211
85.7071
86.653
86.3365
87.291
86.9713
87.9097
87.6068
88.4365
88.1927
88.687
88.6086
88.7267
88.7185
88.5496
88.6925
87.1016
88.0813
83.4765
85.5478
81.0005
592.935
592.996
592.84
592.884
592.774
592.803
592.734
592.75
592.717
592.723
592.711
592.712
592.709
592.711
592.705
592.572
592.584
592.566
592.566
592.59
592.572
592.655
592.617
592.701
592.872
592.617
592.755
592.468
591.67
591.845
591.3
591.488
590.918
591.11
590.524
590.722
590.114
590.321
589.9
587.885
59.06
581.764
585.527
582.415
592.678
592.825
592.371
592.525
592.049
592.214
591.689
591.875
591.29
591.493
590.857
591.079
590.346
590.616
590.042
43.5337
54.0836
515.589
505.139
589.565
49.4159
50.2305
591.474
592.271
385.248
384.415
574.555
576.265
592.389
579.673
573.574
82.6154
83.3716
107.42
567.716
77.2121
43.4254
81.8484
57.0296
101.814
73.1621
588.732
354.272
104.992
589.969
588.986
588.472
80.1957
392.766
552.502
556.988
572.027
569.332
131.558
113.422
582.826
82.3942
81.3962
113.119
72.7081
221.194
592.078
589.908
586.297
582.559
584.785
578.319
581.551
593.243
44.7995
58.0787
56.3801
55.1387
88.7235
85.8394
102.497
106.298
589.329
74.1723
403.575
589.832
529.435
76.8073
52.7412
591.732
592.411
592.151
592.706
592.732
592.725
592.697
403.945
408.483
571.896
569.482
572.115
575.734
570.22
107.758
62.2036
44.684
44.7649
44.7639
82.2273
592.627
569.55
592.151
109.066
76.3792
73.6857
68.8169
591.218
588.578
335.765
322.189
107.321
578.177
54.9634
90.9243
590.11
589.104
587.759
66.7556
588.569
589.567
589.893
589.482
95.177
95.9383
104.139
99.5485
592.974
592.954
593.064
563.219
567.048
572.788
575.742
46.1122
70.1279
62.0123
78.694
56.6792
85.0723
79.3037
105.66
114.587
590.902
55.9863
354.536
591.183
591.958
592.516
592.002
592.681
420.215
430.17
566.491
575.118
570.212
311.411
171.143
45.9972
82.1641
592.583
56.7545
65.0453
588.596
108.584
90.712
53.1934
141.939
566.78
318.119
567.997
47.4961
66.0874
77.3654
58.8031
82.8026
81.9427
74.7994
107.899
123.736
573.696
60.5817
592.152
592.589
591.806
592.667
449.101
560.26
574.559
88.217
229.292
212.202
289.762
108.855
51.652
294.445
49.0012
62.5833
76.8854
573.679
77.6335
67.8214
77.7175
592.313
592.64
591.566
553.908
574.079
242.113
50.2201
48.8132
78.4375
592.44
591.273
573.808
377.657
587.49
544.789
588.198
591.791
121.115
97.9074
105.074
87.2928
91.9781
79.9157
81.2465
83.6921
77.6247
87.1109
87.756
87.2605
89.229
88.45
90.7808
90.0343
91.9748
91.4406
92.5964
92.3507
92.7584
92.7625
92.5546
92.6995
91.9244
92.2539
91.2676
91.5994
90.561
90.9177
89.8323
90.201
89.0655
89.454
88.2724
88.6706
87.4999
87.8797
86.8177
87.1437
86.2941
86.53
86.1109
86.1425
86.1371
86.1168
86.2787
86.1835
86.6252
86.4264
87.1626
86.8715
87.8308
87.4776
88.6041
88.2115
89.3292
88.9773
90.0833
89.7021
90.9273
90.476
92.0348
91.4612
93.4294
92.6904
94.2745
99.2726
110.467
103.803
132.632
119.76
156.851
146.378
159.748
160.231
162.232
159.488
166.151
164.968
166.043
166.189
165.935
165.957
166.118
165.984
165.087
166.119
159.516
162.409
159.574
159.387
146.219
156.399
120.349
132.994
110.862
96.1892
94.5001
95.4295
92.8477
93.6173
91.5731
92.1662
90.5389
91.0135
89.7431
90.1335
89.006
89.3636
88.2246
88.6253
87.4835
87.8382
86.8753
87.1674
86.4328
86.6304
86.1822
86.2834
86.1106
86.1326
86.1204
86.1037
86.4573
86.2481
87.0069
86.7139
87.6805
87.33
88.4362
88.0504
89.2341
88.8303
90.0666
89.6461
90.9116
90.49
91.7206
91.3254
92.3999
92.0796
92.8742
92.6875
93.0021
92.9646
92.8561
93.0096
91.545
92.393
88.5796
90.2791
84.3214
86.5366
593.022
593.088
592.915
592.964
592.837
592.872
592.786
592.808
592.759
592.771
592.748
592.752
592.745
592.747
592.746
592.745
592.739
592.717
592.657
592.675
592.688
592.707
592.664
592.684
592.638
592.651
592.62
592.627
592.624
592.619
592.659
592.637
592.732
592.69
592.838
592.783
592.899
592.69
592.837
592.539
591.736
591.912
591.37
591.554
591.015
591.191
590.666
590.839
590.314
590.491
590.125
587.133
137.961
574.208
583.714
579.899
593.054
593.305
593.186
592.756
592.908
592.447
592.6
592.129
592.292
591.767
591.954
591.375
591.573
590.965
591.173
590.503
590.749
590.23
44.767
55.5445
87.615
104.626
589.748
586.034
576.362
50.7761
51.4596
79.7772
592.295
592.687
406.589
573.98
563.541
567.104
109.121
95.4811
101.179
586.482
86.5519
80.6998
79.7477
82.2519
70.7247
44.7387
79.2297
655.272
592.236
108.576
71.2002
491.478
329.29
110.746
123.681
590.349
589.424
546.292
540.332
589.11
588.936
652.705
398.062
297.695
485.485
120.534
87.324
511.459
96.3646
96.5902
80.7658
593.104
239.3
585.203
581.98
570.761
585.412
578.86
582.533
46.0624
578.254
76.9287
59.5201
57.8643
56.8215
84.1858
81.3452
108.53
113.211
589.549
590.329
382.129
157.982
53.9513
591.419
591.795
592.427
592.175
592.674
424.63
429.562
569.313
573.342
567.466
380.737
521.268
95.1277
63.1462
46.0872
46.1353
46.1525
79.3706
592.602
592.651
592.636
579.37
117.147
74.0428
71.5635
67.1445
590.064
589.747
591.168
589.945
589.16
291.394
298.37
112.858
74.458
55.0384
590.924
590.92
94.2134
590.552
553.503
210.644
296.198
566.126
570.883
569.931
593.268
593.365
593.341
47.4131
67.9463
75.9315
58.5557
81.0781
75.8034
79.8986
82.9701
79.8608
111.612
122.861
571.478
569.168
593.024
439.394
57.0311
592.01
592.523
592.008
592.659
589.489
439.606
449.66
563.369
572.665
59.1093
195.943
329.564
601.725
95.5204
95.0502
88.1897
88.214
47.472
79.087
592.535
300.029
57.3725
63.7629
589.114
113.837
567.926
53.3792
135.002
139.074
81.0728
578.81
50.37
48.8373
64.202
75.248
61.2509
78.7465
77.9254
113.398
557.708
548.826
571.254
80.1401
61.528
86.4528
592.198
592.591
591.801
592.634
466.944
557.024
572.043
549.689
221.448
175.283
588.616
75.0225
68.4822
51.8938
50.4251
75.4764
592.352
591.546
571.587
247.727
587.32
588.168
111.945
120.154
97.928
104.69
87.7797
92.0577
82.9181
84.7224
82.3878
88.2071
94.9174
94.922
95.3194
95.0294
96.106
95.7103
96.7397
96.454
97.1465
96.9741
97.1977
97.2118
96.9741
97.1336
96.1329
96.6222
95.0536
95.5943
94.0573
94.5383
93.1526
93.5999
92.2636
92.7091
91.3544
91.8126
90.4307
90.8921
89.5503
89.9807
88.7862
89.15
88.2181
88.4717
87.9603
88.0443
87.9529
87.9492
88.0017
87.967
88.1982
88.0741
88.6147
88.3879
89.1128
88.8641
89.6099
89.3534
90.1403
89.8705
90.7575
90.4421
91.3813
91.0678
92.0807
91.7121
92.948
92.5054
93.9013
93.4183
94.5973
94.3185
94.7226
99.2661
96.4468
110.228
103.733
130.422
119.113
148.972
141.737
155.924
152.008
164.244
159.318
170.479
168.233
172.09
171.513
172.4
172.394
171.512
172.102
168.253
170.461
159.345
164.277
151.587
155.797
141.573
148.374
119.539
130.602
104.044
110.571
96.6436
99.5276
94.8916
94.5087
94.7794
93.5879
94.0871
92.6372
93.0968
91.8115
92.2007
91.1364
91.4635
90.4917
90.8163
89.9059
90.1818
89.3805
89.6407
88.8841
89.1381
88.4012
88.6296
88.0875
88.2108
87.9741
88.011
87.9543
87.9586
88.0255
87.9562
88.4135
88.1817
89.0319
88.7003
89.8032
89.4003
90.6877
90.2337
91.6415
91.1575
92.6497
92.1393
93.691
93.1686
94.7467
94.2166
95.8008
95.278
96.7342
96.2983
97.2356
97.0714
97.3378
97.3122
97.0612
97.3367
95.8889
96.5916
93.8083
94.9559
91.221
92.4838
90.202
593.203
593.297
593.054
593.125
592.936
592.991
592.847
592.887
592.785
592.813
592.747
592.765
592.728
592.736
592.721
592.723
592.711
592.719
592.692
592.702
592.679
592.685
592.658
592.67
592.638
592.652
592.619
592.628
592.613
592.614
592.631
592.619
592.679
592.651
592.76
592.714
592.875
592.815
593.02
592.943
593.16
593.112
593.125
592.939
593.054
592.617
592.787
229.859
592.457
591.991
249.114
591.647
591.823
591.283
591.466
590.945
591.109
590.633
590.784
590.343
590.484
590.053
590.199
586.096
591.514
559.938
573.56
584.068
581.165
592.97
593.123
592.688
592.827
592.387
592.54
592.067
592.23
591.705
591.892
591.321
591.512
590.949
591.134
590.559
590.763
590.329
46.0687
591.181
57.1376
82.9582
415.273
83.1365
84.039
111.124
589.955
589.253
372.007
52.2868
52.8832
591.616
592.314
592.663
427.567
571.385
564.015
449.865
438.912
412.13
269.265
106.611
114.261
94.3779
99.9643
86.7501
89.9118
82.9442
84.428
82.8616
82.8079
83.5592
95.0785
95.2756
70.5106
46.1423
76.6386
592.621
315.263
116.59
69.2605
589.365
129.891
461.395
468.245
591.173
590.385
500.221
589.584
301.655
116.892
57.0441
589.098
167.153
181.521
54.8739
73.921
525.807
601.187
590.796
587.941
544.186
128.06
89.4107
548.459
227.667
137.028
307.941
130.16
593.061
99.4543
580.73
575.564
567.661
564.687
133.305
571.662
575.332
593.418
593.409
47.3904
69.9853
74.2885
60.8668
59.3716
58.5983
80.1541
77.4606
81.2746
80.0753
115.061
120.849
589.548
559.675
589.853
274.598
588.194
460.433
55.3375
581.2
509.885
168.574
591.416
591.843
592.435
592.182
592.649
443.917
448.977
566.181
570.655
144.597
151.481
155.776
181.365
408.498
563.134
365.943
283.198
154.558
147.804
143.156
88.196
54.3987
88.3311
79.9449
64.14
47.5812
47.6179
47.6459
76.5837
592.559
592.62
592.599
77.0366
126.017
71.7039
69.4143
65.5224
589.602
275.057
118.807
59.2752
141.632
76.2243
274.031
589.019
93.5503
93.6876
96.5745
94.8834
593.242
593.234
589.864
51.7584
516.164
59.0162
48.7773
66.1651
73.6951
60.3799
77.7076
72.5733
76.8155
117.77
555.404
132.504
590.72
568.559
590.74
589.28
58.3654
71.9955
592.058
592.524
592.004
592.624
457.639
467.289
559.945
569.891
544.106
148.895
203.273
276.726
159.922
533.545
309.316
148.744