/*--------------------------------*- C++ -*----------------------------------*\
| =========                 |                                                 |
| \\      /  F ield         | OpenFOAM: The Open Source CFD Toolbox           |
|  \\    /   O peration     | Version:  2212                                  |
|   \\  /    A nd           | Website:  www.openfoam.com                      |
|    \\/     M anipulation  |                                                 |
\*---------------------------------------------------------------------------*/
FoamFile
{
    version     2.0;
    format      ascii;
    arch        "LSB;label=32;scalar=64";
    class       volScalarField;
    location    "0.022";
    object      p;
}
// * * * * * * * * * * * * * * * * * * * * * * * * * * * * * * * * * * * * * //

dimensions      [1 -1 -2 0 0 0 0];

internalField   nonuniform List<scalar> 
7220
(
46.3425
589.281
589.539
589.864
589.263
589.547
592.807
592.571
593.12
592.872
54.0688
567.996
517.826
100.311
101.128
600.769
248.906
64.6705
264.745
60.321
362.971
559.809
592.49
541.318
589.462
559.948
656.326
77.1274
360.647
444.845
587.223
479.708
587.981
425.135
586.733
35.1778
589.946
58.1655
53.8271
131.055
123.055
124.141
131.617
31.9694
32.4286
32.3736
31.9261
31.5794
119.504
117.825
119.682
121.037
116.807
113.909
116.408
119.047
107.691
97.3013
95.1226
108.552
84.4377
69.8972
66.5482
80.3579
57.4823
46.2216
45.667
54.2996
40.6176
36.4626
36.6659
40.4416
34.0239
32.4828
32.7503
34.2656
31.6672
31.2673
31.5238
31.928
31.0818
31.0086
31.26
31.3358
31.2849
31.2354
30.99
31.115
31.4516
31.9148
149.944
149.933
127.259
135.807
32.9711
32.8387
31.841
32.2995
31.2
31.3672
31.2367
32.3734
31.6882
35.9897
33.7653
45.2977
39.845
62.2252
55.0086
73.5932
68.66
86.5094
79.3416
107.534
96.4371
119.174
114.987
134.394
124.272
119.714
123.022
96.9055
111.189
75.6908
83.9063
63.3295
69.1146
50.9544
57.6701
40.1264
44.8153
34.6603
36.8635
32.517
33.2359
32.0054
32.1649
31.9425
31.2288
155.065
154.353
32.8291
32.8748
33.5177
32.7919
31.5273
31.9032
31.8399
32.8523
32.3532
32.1331
31.7915
31.751
32.3277
31.9474
34.7785
33.1339
41.516
37.4581
55.6521
48.1962
63.1733
60.2761
67.9941
65.6672
74.4352
70.8276
87.1103
79.687
105.326
96.1477
132.662
114.372
196.175
198.994
170.527
190.536
191.504
175.163
201.297
195.561
119.064
139.009
97.4043
108.562
77.7459
86.3265
67.7731
71.7479
61.8231
64.5501
56.2521
59.2426
46.9242
52.0565
38.709
42.2744
34.5508
36.2225
33.1908
33.6465
32.972
33.8298
33.3374
33.9564
34.146
208.395
207.345
168.089
204.991
33.3895
34.3793
34.1091
32.8574
32.6922
34.8771
34.4132
32.5375
33.9158
32.6833
33.0071
32.7695
34.6996
33.5514
40.0573
36.7236
52.0804
44.9705
60.6399
57.4985
63.4183
62.4203
65.9076
64.5686
69.682
67.5806
76.243
72.5413
86.0653
80.9812
115.452
95.7232
200.65
156.881
211.162
210.666
209.206
209.866
96.946
119.653
79.9942
85.9949
70.5794
74.6616
65.1097
67.4445
61.4575
63.1642
59.01
60.1615
54.3258
57.1875
45.6571
50.2909
38.669
41.645
35.2344
36.5909
34.5216
34.0384
209.157
211.37
33.3548
34.9831
35.4138
33.9954
32.9577
35.6659
36.2387
35.4362
33.0275
180.867
209.689
209.109
210.85
33.4322
34.7477
36.017
35.6581
37.7379
37.1364
36.6714
33.9594
33.8522
34.0399
33.8877
35.2693
34.4277
39.6452
36.9765
49.7214
43.7101
59.8332
56.021
62.9491
61.9057
63.7409
63.4402
65.3758
64.3421
68.0388
66.5674
72.0435
69.8707
77.5667
74.7081
95.0537
83.2218
121.315
208.684
208.317
207.352
211.212
210.808
209.842
214.892
126.213
192.69
82.9802
96.319
73.4538
76.6239
68.1934
70.5442
64.4833
66.1742
61.9748
62.971
60.7728
61.3564
58.8815
60.033
53.8655
56.9411
45.3657
49.7073
39.1854
41.7923
37.3619
35.4159
35.3981
36.0998
35.7165
36.5951
33.3517
209.551
214.231
38.4401
39.992
37.654
37.9017
33.6057
34.6696
35.4304
37.3798
34.0244
38.7265
35.377
36.3821
33.9885
35.2825
38.446
36.3181
35.6604
39.9303
37.6992
48.5113
43.3999
59.6489
54.8838
63.5194
62.2283
64.2063
64.0276
64.4868
64.3155
65.4153
64.8309
67.6552
66.3894
70.6334
69.0767
74.3476
72.4292
84.0803
77.5322
130.392
98.1391
212.864
203.344
211.454
207.124
208.2
207.501
206.734
210.09
209.816
208.082
208.891
211.63
209.029
212.167
213.226
214.375
103.683
145.882
77.2616
85.3779
71.2809
73.4012
67.6339
69.3637
64.8199
65.9884
63.4142
64.0336
62.4718
62.9087
61.6196
62.079
59.5473
60.8709
53.916
57.3139
45.5792
49.6458
42.3322
37.2068
37.3224
37.2247
37.1732
37.5382
34.3814
33.888
34.6638
35.2673
43.4481
46.253
41.4889
209.441
209.559
205.7
206.422
35.3428
36.206
37.1379
39.5702
40.2221
40.968
40.393
34.9126
34.2511
38.1502
34.6543
35.5752
39.1999
36.9587
37.6466
37.1557
40.9012
38.7198
48.3077
43.8765
59.7456
54.3207
64.5413
62.8743
65.4001
65.2167
65.4684
65.4268
65.7383
65.5563
66.5752
66.0963
67.9372
67.1875
70.3109
68.9661
73.313
71.8288
79.2787
75.3015
108.122
87.8746
157.022
207.439
203.701
204.949
205.229
204.642
206.729
206.576
205.126
206.03
204.856
211.938
175.521
212.884
89.9875
114.94
74.9189
79.6268
70.8129
72.5996
67.9538
69.1948
66.3881
67.0697
65.318
65.8197
64.4187
64.844
63.7428
64.0565
62.9298
63.4116
60.4787
62.0505
54.2532
57.9092
50.0204
39.5584
40.1781
39.1434
39.2668
39.0818
39.0884
39.4867
34.5447
36.9006
207.317
207.104
55.0886
51.2544
36.0532
35.5423
35.3491
36.1142
36.9783
37.9535
41.7765
41.2813
47.8248
40.0647
588.992
38.9689
36.9376
38.732
39.3348
38.898
42.1751
40.2649
49.1062
45.1833
60.183
54.4871
65.8505
63.8814
66.967
66.7292
66.9834
66.9788
67.0553
67.002
67.431
67.178
68.2326
67.8133
69.206
68.6852
70.716
69.8694
73.1215
71.7874
77.1466
74.7921
92.4418
81.9198
177.847
117.61
207.726
208.829
202.747
199.086
201.221
197.919
198.219
200.25
199.777
199.202
199.203
198.713
199.7
195.939
196.885
195.81
194.848
197.562
208.808
206.005
127.411
196.843
83.2918
96.4503
74.3482
77.3065
71.3652
72.5686
69.5049
70.3466
68.3616
68.8728
67.4541
67.8908
66.6341
67.0336
65.9249
66.2604
65.3572
65.6323
64.4615
65.0196
61.6182
63.4204
58.8099
43.65
48.0419
45.6112
41.6208
42.3307
41.0817
41.2655
41.4259
41.0706
42.6063
41.945
45.3041
44.286
42.6755
43.3884
35.2771
591.066
37.4186
38.7037
36.0802
589.832
204.533
201.829
182.214
180.52
36.9015
43.6563
37.83
42.241
40.996
38.8167
39.8711
592.229
589.279
589.534
589.062
579.125
589.813
36.7241
36.3128
590.305
37.4481
46.1332
45.2395
36.0253
36.0278
37.9983
590.656
38.9639
578.104
38.7085
39.4591
591.809
42.4645
40.1073
41.1857
41.7368
40.8838
40.8594
41.33
40.9927
43.7616
42.1228
50.6532
46.9302
61.0891
55.5134
67.4684
65.2432
68.8312
68.5468
68.8002
68.8239
68.8023
68.7907
68.9401
68.8433
69.4278
69.1391
70.0938
69.7496
70.9155
70.4742
72.1075
71.4441
73.8977
72.9407
76.7038
75.0312
85.4018
79.5884
127.755
98.0987
193.183
191.471
190.277
190.005
191.436
191.096
192.284
192.098
191.402
191.64
190.069
191.19
186.767
188.644
184.138
192.316
198.412
197.749
107.031
149.498
80.9337
88.9567
75.0873
77.0246
73.1132
74.0307
71.5689
72.2732
70.5033
70.9941
69.6876
70.0738
68.9891
69.3293
68.3244
68.6527
67.7274
68.0114
67.2088
67.4733
66.1982
66.8411
63.0886
65.0262
56.8392
60.288
50.4061
53.393
45.7406
47.8983
43.9059
44.5028
43.6334
43.6897
44.0071
43.6432
44.5343
589.602
589.876
589.712
36.0955
36.0835
589.967
68.2655
581.028
47.4167
193.469
179.154
588.888
37.1102
36.8593
36.8578
36.8812
44.7158
589.178
38.2567
46.8734
47.4664
47.2133
37.7592
43.2778
42.0022
39.5017
158.258
38.7188
93.0485
40.8763
589.021
39.7504
40.834
590.894
590.347
48.6532
589.336
589.76
589.591
43.3611
43.3224
43.7743
43.4658
45.9379
44.4732
52.8864
48.9136
62.5418
57.2894
69.3489
66.8423
70.9796
70.6222
70.9219
70.9678
70.8133
70.8268
70.8571
70.8235
71.0928
70.9347
71.5264
71.2969
72.0707
71.7793
72.8417
72.4176
73.9817
73.3585
75.6154
74.7489
77.5136
76.5017
82.9722
79.3233
107.067
90.444
193.461
145.569
187.664
192.896
174.741
177.953
176.283
182.04
179.807
184.781
183.906
185.177
185.139
184.329
184.807
182.33
183.612
178.23
180.75
170.986
174.784
162.526
166.595
158.075
183.994
175.186
176.832
186.792
96.5597
121.421
80.6713
85.7071
77.0751
78.2609
75.3649
76.2199
73.8415
74.5465
72.7578
73.2557
71.9791
72.3404
71.385
71.6646
70.8483
71.1148
70.3024
70.5752
69.7912
70.0376
69.2835
69.5555
68.1791
68.879
65.0838
66.971
59.2546
62.4514
53.0894
56.0017
48.4005
50.4802
46.8
47.3261
46.5377
46.6127
46.5328
588.108
588.574
44.1457
590.668
590.105
36.9259
36.8807
589.076
47.0771
45.8407
587.786
589.174
592.153
37.9776
49.8244
49.8208
48.2744
37.718
37.7396
37.7169
588.312
44.3866
589.356
177.486
169.541
150.206
144.456
43.0816
590.11
39.1252
48.3742
591.886
589.857
590.213
590.529
588.523
38.6623
581.496
580.971
587.559
587.345
582.161
581.54
40.3729
49.0642
588.233
588.381
588.271
588.11
585.552
39.6765
41.8723
41.7468
591.274
40.7369
580.605
579.274
580.103
43.3177
590.748
579.601
590.181
589.502
48.3665
589.696
50.0244
576.756
46.8504
46.5374
48.8597
47.4966
55.6066
51.5279
64.8885
60.0179
71.5517
68.9821
73.3403
72.8954
73.2904
73.332
73.052
73.1919
73.0433
73.0363
73.1147
73.0655
73.3446
73.2138
73.6648
73.4906
74.1483
73.8768
74.9208
74.4915
76.0842
75.4509
77.703
76.8419
79.3879
78.5591
82.6722
80.4706
97.0657
87.2613
168.406
119.277
179.857
157.41
166.44
161.671
173.904
170.553
177.812
176.406
178.662
178.463
177.782
178.422
175.131
176.707
170.119
173.083
161.644
166.284
156.014
153.513
167.855
163.819
142.303
168.342
92.0918
107.542
81.8433
85.1459
79.4365
80.2395
77.7757
78.6427
76.2204
76.9492
75.1046
75.6142
74.3291
74.683
73.7918
74.034
73.3863
73.5801
72.9884
73.1922
72.5441
72.772
72.0825
72.3126
71.559
71.8467
70.4359
71.1343
67.5511
69.2932
62.303
65.1631
56.5688
59.3862
52.0178
53.9477
50.1901
50.8114
49.9197
588.253
591.307
592.113
591.709
588.855
590.18
580.045
37.8106
53.8495
50.2601
37.7029
583.448
583.926
582.766
586.717
584.974
585.922
588.706
584.058
154.14
45.5799
45.3031
588.19
152.853
139.354
44.2341
588.676
584.628
587.432
586.665
589.585
38.8923
589.47
49.2865
590.291
588.053
587.912
587.843
592.293
38.6362
38.6789
38.6496
582.23
586.948
584.418
585.355
580.945
580.11
581.539
582.197
584.378
587.84
580.857
588.363
588.521
590.482
589.08
582.957
40.0606
49.5523
586.357
587.937
583.142
39.6342
581.835
579.572
580.532
581.726
42.9725
41.3138
82.703
50.3363
587.56
587.991
592.503
593.004
593.059
592.756
591.692
40.6855
580.364
581.557
580.303
581.447
69.3813
587.071
41.7915
42.7003
591.157
580.253
581.383
581.34
578.574
44.2576
590.609
578.547
579.225
578.121
589.984
579.056
49.8093
46.8644
90.9585
579.087
592.924
51.5042
99.81
52.3035
50.7414
58.9999
55.07
67.8728
63.5572
74.2044
71.677
75.9341
75.4999
75.8917
75.9256
75.6249
75.8027
75.4409
75.5067
75.4439
75.4407
75.4782
75.454
75.6051
75.5284
75.8444
75.7017
76.3151
76.0435
77.1159
76.6718
78.3031
77.6574
79.9212
79.0651
81.5703
80.7856
83.7157
82.2932
92.7745
86.6482
135.496
106.123
159.334
159.576
147.312
156.135
133.604
144.498
138.869
156.678
150.499
165.706
161.806
170.535
168.631
172.071
171.613
171.264
171.976
168.07
169.949
162.368
165.622
153.435
158.346
141.099
147.512
128.829
134.633
123.302
144.263
133.661
150.682
149.251
121.062
147.982
90.3679
100.135
83.5482
85.7519
81.8395
82.465
80.2195
81.0648
78.6559
79.3908
77.5163
78.0365
76.7314
77.0852
76.2159
76.439
75.9011
76.0402
75.6602
75.7788
75.3863
75.5327
75.0146
75.2131
74.5927
74.805
74.1031
74.3736
73.0621
73.7065
70.5076
72.0306
66.1109
68.4799
60.6773
63.4854
56.2679
58.1803
54.2281
54.8965
53.9342
45.4574
584.667
589.269
588.162
582.851
588.126
585.72
592.122
591.364
591.75
590.566
590.987
589.973
590.268
589.764
38.7503
50.9172
86.4012
592.626
38.6324
583.376
586.203
583.337
588.206
587.163
587.625
47.5771
589.826
589.61
588.534
588.676
588.107
587.822
98.8987
585.897
584.55
583.502
579.176
580.775
588.514
584.248
587.218
586.415
589.887
39.8671
50.2882
586.869
587.703
589.16
592.325
39.6206
39.6836
39.6465
582.966
587.229
584.941
585.789
582.798
44.1497
590.057
136.975
128.049
121.491
116.01
589.051
582.433
41.0536
587.516
50.7415
586.218
587.825
592.46
592.74
592.02
40.6764
582.672
582.493
587.559
42.9155
586.698
42.3246
51.735
585.283
591.565
41.7511
582.456
582.342
577.525
43.7127
591.043
577.422
578.079
582.331
576.908
45.2176
590.463
577.798
51.3436
48.212
589.852
577.72
46.7664
588.418
577.841
589.266
589.441
53.1326
593.166
592.95
592.98
593.181
48.1525
51.9403
55.1761
51.9762
63.2348
59.0982
71.9748
67.9058
77.3505
75.2045
78.8542
78.4803
78.8028
78.8439
78.4968
78.6992
78.1903
78.3291
78.0092
78.0877
77.8878
77.9441
77.8576
77.8561
77.8922
77.8666
78.0674
77.9496
78.5512
78.2667
79.3792
78.9226
80.5776
79.9284
82.1659
81.3337
83.7652
83.0024
85.318
84.3609
91.2994
87.2543
117.742
99.7765
142.042
139.082
140.978
123.211
135.035
128.798
148.074
141.615
157.592
153.455
163.07
160.788
165.214
164.52
164.558
165.254
161.077
163.134
154.993
158.396
146.005
150.905
133.934
140.251
127.452
118.191
132.398
127.204
134.737
134.355
110.658
129.634
90.1491
96.7824
85.456
86.9969
84.1288
84.6861
82.6087
83.4028
81.092
81.8125
79.9514
80.4735
79.1561
79.5145
78.6522
78.8684
78.4002
78.5005
78.2761
78.3309
78.176
78.2273
78.0112
78.1095
77.7371
77.8847
77.4202
77.5778
77.0116
77.2527
76.0515
76.6321
73.9342
75.1695
70.3061
72.3016
65.4224
67.8635
61.5165
63.2707
59.2156
60.1741
58.635
593.17
593.26
593.203
593.352
593.314
593.166
593.344
593.361
589.965
590.341
590.152
590.21
590.148
589.194
589.405
588.85
588.83
589.004
588.503
588.668
588.322
587.503
587.165
46.5001
582.23
587.919
585.406
592.754
593.163
592.979
592.178
592.487
591.466
591.83
590.738
591.119
590.186
590.439
589.997
39.7496
51.6379
587.363
46.1532
588.951
592.667
39.6232
584
586.55
584.661
583.766
584.946
45.4031
80.7144
587.794
63.699
589.895
118.182
111.276
93.9385
97.0676
589.944
590.156
589.734
256.458
585.286
584.215
582.94
578.093
579.852
588.483
583.853
587.047
586.16
590.091
40.8997
54.6336
51.3534
586.745
587.574
51.9232
48.7484
588.723
589.054
592.936
592.344
88.6701
89.3945
40.6735
40.7591
40.7228
583.702
84.8996
89.0396
91.5008
587.56
585.496
586.283
583.42
89.4504
571.128
574.206
586.785
44.115
586.218
58.784
593.317
593.305
589.024
581.843
42.1137
52.0616
586.005
587.735
592.453
593.3
593.121
591.953
41.8024
583.481
583.266
87.1492
576.51
42.8993
43.4076
86.8593
87.7975
53.2837
93.3195
90.6795
585.446
589.616
591.458
576.149
576.853
583.283
583.205
575.654
44.77
91.5802
94.7732
590.521
590.135
590.916
576.456
52.9959
49.6706
83.3575
93.5254
90.6222
94.9197
91.5687
95.5751
91.8642
95.5381
590.336
576.256
48.1564
588.375
576.51
589.743
576.287
46.7322
162.004
589.071
590.059
54.8877
78.0426
52.14
57.4042
59.1957
57.9703
66.389
61.6115
75.4651
71.2429
80.5174
78.5079
82.0449
81.6509
82.013
82.0399
81.7197
81.9162
81.2952
81.5059
80.9273
81.1013
80.6118
80.7662
80.3242
80.4621
80.2037
80.2297
80.2229
80.2075
80.3503
80.2627
80.824
80.5296
81.6625
81.2015
82.8516
82.2101
84.36
83.577
85.8408
85.13
87.1037
86.3927
91.2035
88.4533
108.736
96.9604
126.74
122.341
125.247
126.549
113.548
121.408
107.178
115.903
111.096
127.724
121.486
140.326
134.154
149.759
145.577
155.592
153.089
158.158
157.291
157.668
158.303
154.159
156.259
147.998
151.411
139.232
143.958
127.963
133.842
116.226
121.903
106.745
111.077
103.553
113.9
107.677
121.012
118.861
121.347
121.563
105.056
116.311
90.7937
95.5285
87.3749
88.5056
86.2318
86.7558
84.876
85.5871
83.4652
84.1468
82.3481
82.8612
81.5656
81.919
81.077
81.2849
80.889
80.9511
80.8501
80.8609
80.8657
80.8471
80.9251
80.9088
80.9162
80.9287
80.7775
80.8534
80.6019
80.6998
80.2338
80.4618
79.3478
79.8719
77.6927
78.6419
74.7962
76.4583
70.9093
72.8965
67.2178
68.9807
65.6579
593.41
593.356
593.484
593.455
593.471
593.488
593.241
593.377
593.431
590.73
591.106
590.722
590.902
590.484
590.575
590.454
590.59
590.372
589.339
589.529
588.979
589.152
588.646
588.813
588.27
588.467
588.046
593.55
584.75
581.455
587.807
585.097
592.8
593.181
593.01
592.264
592.551
591.608
591.945
590.943
591.276
590.418
590.652
590.239
40.8102
52.4856
587.206
46.2961
47.0896
588.834
592.656
84.2588
85.0232
40.6964
86.5353
584.638
96.8069
94.034
586.981
584.213
87.1104
81.5276
581.866
580.458
35.3365
96.4196
102.435
45.4015
589.86
95.4181
588.099
587.191
584.356
59.4139
70.02
115.457
593.316
590.793
590.263
587.897
583.109
576.793
578.691
588.429
583.448
586.871
585.946
41.9999
55.4114
52.5733
586.638
587.493
49.5295
588.648
589.018
592.892
592.305
89.826
41.8222
41.9019
41.8731
87.6827
80.4804
520.907
584.435
96.3364
587.972
586.062
586.804
584.117
81.1246
85.1574
575.546
74.4613
44.1504
88.3011
109.589
104.308
103.96
101.33
590.667
590.845
590.262
589.518
581.238
43.2446
53.5122
123.867
100.834
94.9591
586.105
591.32
57.1794
52.7047
589.298
593.055
591.848
574.667
575.511
43.0047
88.2679
584.211
98.2463
585.615
584.012
82.978
574.418
72.8139
71.1301
64.3408
44.5432
54.9737
97.6604
589.769
593.309
593.166
591.338
575.015
578.037
584.027
99.3746
54.6749
51.2162
45.9273
79.5131
99.1575
590.344
590.784
574.703
99.6884
49.6347
588.3
575.105
591.323
590.958
590.201
574.614
48.1528
574.758
84.192
589.561
46.8008
587.848
590.172
122.019
109.026
113.776
57.1594
64.2187
67.1385
65.2406
72.6264
69.6055
79.6957
76.3018
83.8362
82.2436
85.1211
84.7133
85.2635
85.2699
85.1553
85.2304
84.7266
84.9857
84.1851
84.453
83.6645
83.9204
83.1802
83.4179
82.7505
82.9551
82.5337
82.5986
82.5497
82.5365
82.6629
82.585
83.1018
82.8226
83.9102
83.4636
85.0542
84.4407
86.4246
85.7256
87.7209
87.1026
88.875
88.262
91.888
89.8717
103.422
95.9767
114.879
111.118
114.76
115.124
113.257
103.011
110.737
106.352
121.752
115.952
133.313
127.664
142.339
138.254
148.256
145.677
151.046
150.073
150.72
151.274
147.365
149.402
141.382
144.682
133.065
137.51
122.812
128.122
112.263
117.38
107.693
101.212
108.919
104.422
111.891
111.122
111.021
112.013
101.085
107.427
91.7425
95.2006
89.1418
90.0117
88.1072
88.5842
86.9542
87.5573
85.7011
86.3182
84.6447
85.1339
83.9049
84.2383
83.4788
83.6449
83.3594
83.3972
83.3402
83.3445
83.4521
83.3619
83.7127
83.5788
83.9664
83.8448
84.0848
84.0394
84.1311
84.1166
84.0852
84.135
83.7546
83.9563
83.1003
83.4733
81.9308
82.6323
79.6374
80.9291
76.4024
78.1033
74.6078
593.415
593.429
593.413
593.514
593.467
593.566
593.547
593.549
593.565
593.465
593.513
593.23
593.336
593.406
591.536
591.838
591.449
591.647
591.079
591.256
590.819
590.929
590.754
590.764
590.762
590.469
589.48
589.667
589.123
589.298
588.785
588.954
588.43
588.611
588.034
588.239
587.809
583.848
580.373
587.678
584.815
593.225
593.435
593.353
592.871
593.065
592.378
592.641
591.782
592.088
591.172
591.474
590.674
590.899
590.388
590.498
91.8269
41.9365
53.5453
587.103
47.4943
48.1666
588.755
592.618
85.4435
41.8443
83.9778
95.0952
94.7097
585.266
99.1102
587.491
584.872
83.0975
401.572
574.686
45.5004
84.8574
589.98
65.6736
585.205
386.056
585.08
588.594
100.88
99.7249
590.974
590.996
590.367
585.387
581.676
575.225
577.278
588.508
583.082
586.721
585.804
590.367
590.371
43.1613
56.3542
53.9424
530.706
505.983
494.161
531.192
586.658
587.469
50.4901
589.037
592.818
592.212
572.916
574.018
43.0408
43.1132
43.1022
84.7565
528.22
101.106
100.173
78.2002
75.2617
585.135
581.345
101.469
587.28
585.739
584.741
559.135
81.2914
573.224
81.9406
80.3054
69.6616
588.192
580.342
593.515
77.6456
593.591
44.4312
55.145
91.0876
90.1479
83.0826
100.122
108.003
586.205
151.704
53.4784
589.432
592.971
591.733
332.05
410.014
573.443
575.577
44.2895
85.0556
592.017
592.08
592.237
584.803
371.694
346.813
575.147
103.192
561.854
589.829
579.17
52.8658
584.726
45.7544
65.9302
67.7128
79.5325
56.7823
102.555
115.925
115.806
63.7898
57.5595
589.964
593.075
591.207
593.172
593.259
593.122
429.076
573.036
378.545
463.056
103.962
587.813
51.1873
587.839
58.7842
590.353
47.1813
271.136
101.445
593.985
103.815
573.615
590.574
593.255
593.137
590.638
593.173
578.361
572.811
49.6809
573.131
80.8159
591.189
590.024
572.849
48.2827
46.9283
81.5393
591.739
589.347
590.448
98.7465
123.631
97.481
103.579
86.3953
87.2125
92.0698
63.754
74.2419
76.6113
75.2009
80.5976
78.4713
84.8567
82.821
87.6053
86.5049
88.4719
88.176
88.6523
88.6431
88.5852
88.6315
88.2492
88.4728
87.6515
87.9662
86.9825
87.3177
86.3181
86.6472
85.692
85.9981
85.1472
85.4048
84.8361
84.9466
84.8453
84.8364
84.9383
84.8734
85.3189
85.0729
86.0578
85.6453
87.1103
86.5503
88.2883
87.6989
89.372
88.8516
90.4382
89.8654
92.9109
91.2851
99.7036
95.5918
106.492
103.928
107.232
107.326
105.145
106.68
99.7631
101.993
98.9247
100.609
99.2671
106.962
103.231
116.663
111.538
126.963
121.912
135.387
131.507
141.159
138.62
144.007
142.987
143.826
144.294
140.73
142.636
135.121
138.208
127.43
131.515
118.278
122.975
109.135
113.547
102.301
105.298
99.4231
100.348
99.1309
99.8972
99.1062
104.037
102.027
105.09
104.881
104.021
105.061
98.1997
101.633
92.7307
94.9532
90.6247
91.3696
89.7175
90.1319
88.7824
89.2677
87.7287
88.2589
86.7739
87.2212
86.1196
86.4079
85.8002
85.9087
85.7256
85.7482
85.7184
85.7187
85.9395
85.791
86.3473
86.1322
86.7862
86.5683
87.1926
86.9924
87.5656
87.3866
87.791
87.7171
87.8255
87.8201
87.6868
87.7937
87.3084
87.5254
86.3605
86.9344
84.5851
85.5784
83.3746
593.5
593.521
593.511
593.499
593.57
593.538
593.604
593.592
593.583
593.599
593.508
593.55
593.392
593.456
593.316
591.739
591.913
591.397
591.564
591.132
591.248
591.004
591.053
590.978
591.055
590.752
590.916
590.564
589.609
589.792
589.258
589.432
588.924
589.09
588.591
588.757
588.251
588.425
588.047
585.992
58.5764
579.005
587.538
584.603
593.29
593.408
592.96
593.14
592.513
592.75
591.98
592.253
591.425
591.7
590.956
591.172
590.658
590.785
590.559
43.1243
54.7759
520.352
509.115
587.097
48.7914
49.3595
588.764
592.537
385.911
385.507
570.381
572.319
590.415
576.88
571.041
82.3768
83.3974
106.836
568.245
78.0674
43.0729
81.3898
56.8269
100.876
72.5583
585.894
355.754
104.46
587.869
586.003
585.38
79.4583
395.133
546.89
551.462
572.111
569.538
132.199
112.912
586.12
81.955
79.4586
113.915
78.5143
220.795
590.032
588.005
584.249
580.279
587.439
582.341
585.356
593.662
44.3805
60.6128
57.6876
55.5021
89.1311
86.061
102.646
106.656
586.727
73.5088
402.768
587.243
523.85
76.1276
51.637
589.113
592.725
592.1
593.098
593.114
593.03
593.006
405.645
409.287
567.729
564.933
567.699
571.718
572.941
106.201
66.7716
44.3384
44.4063
44.4129
81.882
592.377
570.271
590.172
108.134
75.9052
73.1607
68.2335
588.468
585.545
337.068
323.663
106.9
577.47
54.5992
89.9017
587.763
586.318
585.677
66.7964
585.383
586.563
590.743
590.579
99.2712
99.0218
99.4635
99.2943
591.16
591.115
591.213
558.117
561.995
577.115
580.043
45.6787
69.5053
61.4934
77.9768
56.8997
85.5175
79.4824
105.677
115.045
588.254
54.4799
356.543
588.467
589.603
592.871
591.605
593.039
422.431
430.472
561.752
571.224
574.587
312.705
171.734
45.6532
81.9381
592.177
56.3242
64.4816
585.425
108.278
89.5794
52.8288
139.903
567.763
318.739
574.083
47.0477
65.5355
76.7904
58.7978
83.1015
82.2776
74.8653
107.799
124.23
572.098
58.2902
590.186
592.971
591.054
593.045
448.625
555.111
570.909
85.5511
229.192
212.469
289.046
108.651
51.2799
295.837
48.5101
62.1842
76.7439
571.409
73.7968
64.2821
77.7611
590.812
593.03
590.459
548.404
570.786
241.925
49.8508
48.4422
78.3772
591.411
589.807
570.975
379.427
588.611
552.09
587.189
591.865
121.926
98.6926
105.827
87.766
92.6464
79.9561
81.1743
83.9055
73.7944
84.354
85.4501
84.6959
87.7133
86.5031
90.1341
88.9679
91.8623
91.1315
92.4899
92.2842
92.6864
92.6873
92.5096
92.6361
91.9105
92.2361
91.1829
91.5593
90.4109
90.7972
89.6311
90.0212
88.8509
89.2382
88.1071
88.4707
87.4662
87.7673
87.0756
87.2254
87.0487
87.0436
87.1121
87.0674
87.3943
87.2061
88.0283
87.6667
88.9431
88.46
89.8918
89.4247
90.7452
90.3309
91.677
91.1733
93.4785
92.3877
97.312
95.168
101.127
99.5186
102.049
101.95
101.476
101.942
100.352
98.9192
99.4256
98.8382
104.133
101.221
112.246
107.906
121.227
116.784
128.923
125.329
134.383
131.966
137.173
136.15
137.123
137.504
134.337
136.077
129.214
132.029
122.264
125.936
114.243
118.32
106.576
110.231
101.313
103.53
99.998
99.0885
99.0597
98.9717
100.439
99.94
100.621
100.606
99.4855
100.293
96.2549
98.0443
93.2358
94.5608
91.779
92.3482
91.0331
91.3687
90.3192
90.6848
89.4862
89.9139
88.6701
89.0585
88.1431
88.3623
87.953
88.0154
87.9139
87.9246
87.9565
87.9119
88.2798
88.0805
88.8068
88.5259
89.4167
89.1051
90.0628
89.7364
90.7001
90.3885
91.2396
90.9868
91.6776
91.4709
91.8568
91.7983
91.8891
91.8822
91.6264
91.8187
90.8759
91.3223
89.4079
90.2491
87.1771
88.3647
593.556
593.581
593.552
593.548
593.589
593.568
593.608
593.602
593.585
593.602
593.515
593.554
593.409
593.467
593.285
593.342
593.191
592.939
592.653
592.787
592.724
592.84
592.492
592.618
592.235
592.368
591.946
592.093
591.646
591.795
591.398
591.508
591.229
591.306
591.134
591.165
591.132
590.789
590.95
590.608
589.669
589.847
589.324
589.496
588.999
589.159
588.678
588.837
588.368
588.522
588.197
585.09
133.754
570.469
586.595
584.008
593.517
593.674
593.593
593.326
593.434
593.008
593.187
592.58
592.806
592.092
592.34
591.612
591.846
591.218
591.403
590.946
591.063
590.862
44.373
56.228
87.9252
104.872
587.195
585.105
572.989
50.2147
50.7023
81.315
592.434
592.907
407.851
569.802
565.973
569.72
107.885
94.0468
99.6082
591.786
86.0425
81.3983
81.231
85.9927
76.6832
44.3882
78.8176
657.795
590.224
107.762
70.6354
485.672
330.174
110.28
123.23
588.249
586.542
540.775
534.8
585.994
590.903
650.42
396.222
298.116
481.337
120.139
84.5045
506.243
99.103
99.4431
85.1451
591.243
239.221
582.199
577.993
565.811
589.743
583.485
588.132
45.6494
590.872
76.2186
61.8228
59.0766
57.1915
84.5719
81.5873
108.622
113.528
586.816
587.624
383.657
158.997
52.9552
588.762
589.28
592.615
591.976
592.935
426.521
430.543
564.732
569.248
571.803
383.494
515.811
93.351
67.3041
45.734
45.8007
45.8186
79.0737
592.313
592.704
592.581
578.027
116.362
73.6153
71.0826
66.5932
590.948
590.777
588.496
587.257
586.115
292.284
299.44
112.517
74.9952
54.6183
588.278
589.098
92.1933
588.283
548.314
210.492
296.488
572.294
569.2
575.689
593.622
593.689
593.667
46.9934
67.3849
75.323
58.8538
81.421
75.9799
79.5357
81.8119
78.8092
111.571
123.248
570.58
569.133
586.461
436.95
55.631
589.81
592.755
591.452
592.929
586.672
441.888
449.796
558.531
568.839
58.9724
196.313
331.562
598.33
93.8999
93.3059
85.4934
85.3116
47.1176
78.9093
591.921
299.865
57.0237
63.2248
586.008
113.598
577.307
52.9706
135.841
139.81
78.6947
574.975
49.9038
48.4208
63.812
74.9904
61.1268
78.8923
77.6899
113.253
559.709
553.619
569.584
80.244
59.4771
85.717
590.421
592.849
590.875
592.906
466.201
551.87
568.597
544.243
221.515
175.55
586.565
75.4359
65.1615
51.5004
50.0492
75.4555
591.046
590.245
568.627
247.607
592.575
588.728
112.891
121.084
98.7454
105.675
88.1827
92.7164
82.6723
84.8563
81.9176
85.9404
93.2842
93.2246
94.181
93.6124
95.5807
94.881
96.6574
96.188
97.1994
96.9925
97.2241
97.2403
96.9896
97.1558
96.0987
96.6226
94.9696
95.5339
93.9349
94.4343
93.0056
93.4632
92.1024
92.5527
91.2085
91.6524
90.3585
90.7729
89.6407
89.9744
89.1823
89.3713
89.0795
89.0911
89.1042
89.085
89.2516
89.1511
89.7442
89.4528
90.4854
90.0984
91.1939
90.8474
91.8232
91.5142
92.5689
92.1609
93.7045
93.071
95.7247
94.6308
97.8661
96.8807
98.9059
98.5205
99.1051
99.0987
99.018
99.0715
99.3526
99.0921
99.9374
99.0078
99.383
98.9181
98.8522
101.945
99.9272
108.384
104.863
116.032
112.2
122.917
119.662
127.951
125.71
130.607
129.611
130.664
130.964
128.212
129.766
123.632
126.146
117.483
120.716
110.605
114.063
104.416
107.307
100.651
102.136
99.6293
99.9341
100.192
99.7143
100.955
99.208
99.9807
98.4622
98.7024
98.2704
98.3618
97.7421
98.0582
96.6765
97.2844
94.9684
95.8574
93.4664
94.1574
92.5909
92.9623
92.0454
92.2882
91.5378
91.7942
90.9248
91.2451
90.279
90.5898
89.9322
90.0489
89.8554
89.8778
89.8485
89.849
89.9954
89.8913
90.4102
90.1683
91.0411
90.703
91.8103
91.4125
92.6565
92.2279
93.5165
93.0896
94.3322
93.9324
95.065
94.7129
95.6475
95.3772
96.0393
95.8746
96.1538
96.1208
96.0756
96.1599
95.5584
95.876
94.4411
95.0883
92.983
93.6808
92.4504
593.623
593.672
593.55
593.58
593.525
593.532
593.534
593.526
593.539
593.539
593.513
593.533
593.448
593.484
593.351
593.403
593.227
593.29
593.075
593.152
592.914
592.997
592.722
592.822
592.528
592.631
592.306
592.421
592.055
592.184
591.792
591.923
591.552
591.667
591.379
591.457
591.263
591.307
591.267
591.251
591.315
591.298
591.333
591.036
591.237
590.731
590.903
229.971
590.54
589.985
249.461
589.618
589.797
589.269
589.442
588.957
589.108
588.649
588.8
588.367
588.504
588.108
588.245
583.468
587.929
563.888
568.768
588.825
586.842
593.414
593.51
593.228
593.327
592.946
593.109
592.546
592.752
592.091
592.323
591.673
591.873
591.337
591.498
591.07
591.19
591.012
45.7176
588.589
57.7934
83.2703
417.911
81.8706
82.4921
111.314
587.251
586.633
370.483
51.7878
52.1929
589.022
592.316
592.823
429.035
567.079
568.274
452.637
442.228
415.183
269.858
104.83
112.533
93.007
98.3337
86.4161
89.0997
84.1285
84.7992
84.4872
84.1503
85.7598
93.3288
93.5675
76.1355
45.7975
76.2741
592.456
315.667
115.975
68.7371
591.088
130.654
465.086
471.074
588.519
587.775
495.484
586.711
302.38
116.523
56.5861
589.792
166.034
180.59
54.576
74.0467
520.669
602.911
588.747
583.583
537.674
127.773
92.0667
542.847
227.109
135.718
307.87
131.087
594.88
98.7382
579.004
573.637
565.76
560.765
133.806
576.773
577.148
593.628
593.62
47.0286
69.4062
73.675
62.8889
60.4753
59.0163
80.4755
77.6896
79.4056
78.8391
115.088
121.092
587.613
561.902
587
274.799
582.926
457.843
54.4122
580.004
507.117
168.458
588.782
589.458
592.487
591.83
592.811
445.854
449.98
561.56
566.603
145.394
152.329
156.47
181.804
408.41
569.25
368.606
283.997
153.284
146.689
141.686
85.3782
53.8904
85.3116
84.7997
67.9776
47.2239
47.3008
47.3266
76.3359
592.081
592.547
592.398
78.0289
125.37
71.3239
68.9796
65.0085
586.617
275.74
118.537
58.786
142.228
74.2971
273.952
589.418
99.763
100.472
101.313
101.87
591.127
591.224
587.919
51.3404
511.355
58.9047
48.3995
65.7829
73.3682
60.6857
77.9101
72.7201
76.1802
117.676
559.045
132.803
590.136
567.622
588.352
587.269
57.086
72.071
590.027
592.619
591.275
592.775
460
467.174
555.12
566.252
538.832
149.583
203.497
277.024
158.985
528.101