/*--------------------------------*- C++ -*----------------------------------*\
| =========                 |                                                 |
| \\      /  F ield         | OpenFOAM: The Open Source CFD Toolbox           |
|  \\    /   O peration     | Version:  2212                                  |
|   \\  /    A nd           | Website:  www.openfoam.com                      |
|    \\/     M anipulation  |                                                 |
\*---------------------------------------------------------------------------*/
FoamFile
{
    version     2.0;
    format      ascii;
    arch        "LSB;label=32;scalar=64";
    class       volScalarField;
    location    "0.005";
    object      nut;
}
// * * * * * * * * * * * * * * * * * * * * * * * * * * * * * * * * * * * * * //

dimensions      [0 2 -1 0 0 0 0];

internalField   nonuniform List<scalar> 
24240
(
6.0441e-07
8.88014e-07
1.03247e-06
1.03296e-06
1.03293e-06
1.03289e-06
1.03284e-06
1.03279e-06
1.03272e-06
1.03266e-06
1.03259e-06
1.03252e-06
1.03246e-06
1.03239e-06
1.03233e-06
1.03227e-06
1.03221e-06
1.03164e-06
8.87228e-07
6.03747e-07
0
3.59845e-09
4.01297e-09
4.10731e-09
4.1072e-09
4.10706e-09
4.1069e-09
4.10673e-09
4.10653e-09
4.10633e-09
4.10611e-09
4.10589e-09
4.10568e-09
4.10547e-09
4.10528e-09
4.10513e-09
4.10502e-09
4.01052e-09
3.57624e-09
0
0
0
6.2049e-11
1.0131e-09
1.01307e-09
1.01303e-09
1.01298e-09
1.01293e-09
1.01287e-09
1.01281e-09
1.01275e-09
1.01268e-09
1.01262e-09
1.01256e-09
1.0125e-09
1.01244e-09
1.01239e-09
6.18699e-11
0
0
0
0
0
0
0
0
0
0
0
0
0
0
0
0
0
0
0
0
0
0
0
0
0
0
0
0
0
0
0
0
0
0
0
0
0
0
0
0
0
0
0
0
0
0
0
0
0
0
0
0
0
0
0
0
0
0
0
0
0
0
0
0
0
0
0
0
0
0
0
0
0
0
0
0
0
0
0
0
0
0
0
0
0
0
0
0
0
0
0
0
0
0
0
0
0
0
0
0
0
0
0
0
0
0
0
0
0
0
0
0
0
0
0
0
0
0
0
0
0
0
0
0
0
0
0
0
0
0
0
0
0
0
0
0
0
0
0
0
0
0
0
0
0
0
0
0
0
0
0
0
0
0
0
0
0
0
0
0
0
0
0
0
0
0
0
0
0
0
0
0
0
0
0
0
0
0
0
0
0
0
0
0
0
0
0
0
0
0
0
0
0
0
0
0
0
0
0
0
0
0
0
0
0
0
0
0
0
0
0
0
0
0
0
0
0
0
0
0
0
0
0
0
0
0
0
0
0
0
0
0
0
0
0
0
0
0
0
0
0
0
0
0
0
0
0
0
0
0
0
0
0
0
0
0
0
0
0
0
0
0
0
0
0
0
0
0
0
0
0
0
0
0
0
0
0
0
0
0
0
0
0
0
2.30291e-10
4.39287e-09
4.39267e-09
4.39239e-09
4.39205e-09
4.39166e-09
4.39123e-09
4.39076e-09
4.39027e-09
4.38975e-09
4.38923e-09
4.38871e-09
4.38821e-09
4.38774e-09
4.38729e-09
2.28868e-10
0
0
0
8.78288e-09
1.96093e-08
2.00814e-08
2.00807e-08
2.00798e-08
2.00788e-08
2.00776e-08
2.00763e-08
2.00749e-08
2.00734e-08
2.00718e-08
2.00702e-08
2.00686e-08
2.00671e-08
2.00656e-08
2.00643e-08
1.95908e-08
8.73531e-09
0
1.60532e-06
2.32757e-06
2.72526e-06
2.72806e-06
2.72796e-06
2.72783e-06
2.72766e-06
2.72747e-06
2.72725e-06
2.72702e-06
2.72677e-06
2.72651e-06
2.72624e-06
2.72598e-06
2.72572e-06
2.72548e-06
2.72524e-06
2.72216e-06
2.32462e-06
1.60277e-06
2.58989e-08
1.19947e-07
1.60947e-07
1.61868e-07
1.61845e-07
1.61815e-07
1.61781e-07
1.61742e-07
1.617e-07
1.61656e-07
1.61609e-07
1.61562e-07
1.61515e-07
1.61469e-07
1.61425e-07
1.61384e-07
1.61346e-07
1.60375e-07
1.19447e-07
2.56769e-08
0
0
7.57817e-11
9.84563e-11
9.83902e-11
9.83188e-11
9.82485e-11
9.81716e-11
9.80935e-11
9.80103e-11
9.79275e-11
9.78292e-11
9.77359e-11
9.76453e-11
9.75592e-11
9.74793e-11
9.73904e-11
7.459e-11
0
0
0
0
0
0
0
0
0
0
0
0
0
0
0
0
0
0
0
0
0
0
0
0
0
0
0
0
0
0
0
0
0
0
0
0
0
0
0
0
0
0
0
0
0
0
0
0
0
0
0
0
0
0
0
0
0
0
0
0
0
0
0
0
0
0
0
0
0
0
0
0
0
0
0
0
0
0
0
0
0
0
0
0
0
0
0
0
0
0
0
0
0
0
0
0
0
0
0
0
0
0
0
0
0
0
0
0
0
0
0
0
0
0
0
0
0
0
0
0
0
0
0
0
0
0
0
0
0
0
0
0
0
0
0
0
0
0
0
0
0
0
0
0
0
0
0
0
0
0
0
0
0
0
0
0
0
0
0
0
0
0
0
0
0
0
0
0
0
0
0
0
0
0
0
0
0
0
0
0
0
0
0
0
0
0
0
0
0
0
0
0
0
0
0
0
0
0
0
0
0
0
0
0
0
0
0
0
0
0
0
0
0
0
0
0
0
0
0
0
0
0
0
0
0
0
0
0
0
0
0
0
0
0
0
0
0
0
0
0
0
0
0
0
0
0
0
0
0
0
0
0
0
0
0
0
0
0
0
0
0
0
0
0
0
0
0
0
0
0
0
0
0
0
0
0
0
0
0
0
0
0
0
0
0
0
0
0
0
0
0
0
0
0
0
0
0
0
0
0
0
0
0
0
0
0
0
0
0
0
0
0
0
0
0
0
0
0
0
0
0
0
0
0
5.10768e-10
6.63927e-10
6.63532e-10
6.63034e-10
6.62435e-10
6.61744e-10
6.60968e-10
6.60119e-10
6.5921e-10
6.58258e-10
6.57281e-10
6.563e-10
6.55339e-10
6.54423e-10
6.53582e-10
4.98334e-10
0
0
1.79402e-07
4.95512e-07
6.37062e-07
6.40017e-07
6.39918e-07
6.3979e-07
6.39638e-07
6.39462e-07
6.39266e-07
6.39053e-07
6.38826e-07
6.3859e-07
6.38349e-07
6.38109e-07
6.37875e-07
6.37655e-07
6.37451e-07
6.3425e-07
4.92977e-07
1.77893e-07
1.33487e-07
2.76655e-07
3.29061e-07
3.2889e-07
3.28861e-07
3.28823e-07
3.28779e-07
3.28731e-07
3.28678e-07
3.28622e-07
3.28564e-07
3.28505e-07
3.28446e-07
3.28388e-07
3.28333e-07
3.28281e-07
3.28232e-07
3.28337e-07
2.75985e-07
1.33033e-07
0
0
4.12196e-10
4.33633e-10
4.33598e-10
4.33554e-10
4.33503e-10
4.33445e-10
4.33382e-10
4.33315e-10
4.33245e-10
4.33175e-10
4.33105e-10
4.33037e-10
4.32982e-10
4.32938e-10
4.32918e-10
4.11379e-10
0
0
0
0
0
3.02797e-10
3.02756e-10
3.02703e-10
3.02642e-10
3.02574e-10
3.02501e-10
3.02422e-10
3.02341e-10
3.02258e-10
3.02176e-10
3.02095e-10
3.02017e-10
3.01947e-10
3.01878e-10
0
0
0
0
0
0
0
0
0
0
0
0
0
0
0
0
0
0
0
0
0
0
0
0
0
0
2.54719e-09
2.57018e-09
2.57128e-09
2.57254e-09
2.57392e-09
2.5754e-09
2.57695e-09
2.57854e-09
2.58014e-09
2.58172e-09
2.58326e-09
2.58474e-09
2.58613e-09
2.5651e-09
0
0
0
0
0
0
0
0
0
0
0
0
0
0
0
0
0
0
0
0
0
0
0
0
0
0
2.081e-10
2.11609e-10
2.11776e-10
2.11988e-10
2.12223e-10
2.12477e-10
2.12745e-10
2.13023e-10
2.13305e-10
2.13585e-10
2.13858e-10
2.14117e-10
2.14356e-10
2.11133e-10
0
0
0
0
0
0
0
0
0
0
0
0
0
0
0
0
0
0
0
0
0
0
0
0
0
0
0
0
0
0
0
0
0
0
0
0
0
0
0
0
0
0
0
0
0
0
0
0
0
0
0
0
0
0
0
0
0
0
0
0
0
0
0
0
0
0
0
0
0
0
0
0
0
0
0
0
0
0
0
0
0
0
0
0
0
0
0
0
0
0
0
0
0
0
0
0
0
0
0
0
0
0
0
0
0
0
0
0
0
0
0
0
0
0
0
0
0
0
0
0
0
0
0
0
0
0
0
0
0
0
0
0
0
0
0
0
0
0
0
0
0
0
0
0
0
0
0
0
0
0
0
0
0
0
0
0
0
0
0
0
0
0
0
0
0
0
1.9367e-08
1.94469e-08
1.94428e-08
1.94381e-08
1.9433e-08
1.94275e-08
1.9422e-08
1.94165e-08
1.94112e-08
1.94064e-08
1.94021e-08
1.93983e-08
1.93951e-08
1.93092e-08
0
0
0
0
0
0
2.77749e-09
2.78307e-09
2.78167e-09
2.78008e-09
2.77837e-09
2.77661e-09
2.77486e-09
2.77318e-09
2.77165e-09
2.77031e-09
2.76919e-09
2.76829e-09
2.76761e-09
2.76038e-09
0
0
0
0
0
0
1.99923e-09
1.9989e-09
1.99844e-09
1.99789e-09
1.99727e-09
1.99657e-09
1.99582e-09
1.99501e-09
1.99417e-09
1.99332e-09
1.99247e-09
1.99164e-09
1.99085e-09
1.9901e-09
0
0
0
0
6.85857e-09
2.45857e-09
2.56424e-09
2.56401e-09
2.56372e-09
2.56338e-09
2.56298e-09
2.56254e-09
2.56207e-09
2.56156e-09
2.56103e-09
2.56049e-09
2.55995e-09
2.55942e-09
2.55892e-09
2.55846e-09
2.45236e-09
6.74568e-09
0
6.029e-07
1.05375e-06
1.23756e-06
1.2373e-06
1.23717e-06
1.237e-06
1.2368e-06
1.23658e-06
1.23632e-06
1.23605e-06
1.23576e-06
1.23546e-06
1.23515e-06
1.23484e-06
1.23454e-06
1.23425e-06
1.23399e-06
1.23392e-06
1.05033e-06
6.00314e-07
8.55973e-08
1.90889e-07
2.325e-07
2.32703e-07
2.32689e-07
2.3267e-07
2.32649e-07
2.32625e-07
2.32599e-07
2.32572e-07
2.32544e-07
2.32516e-07
2.32488e-07
2.3246e-07
2.32434e-07
2.32409e-07
2.32385e-07
2.32151e-07
1.90572e-07
8.53911e-08
0
0
1.95066e-10
2.08328e-10
2.08319e-10
2.08306e-10
2.08291e-10
2.08274e-10
2.08256e-10
2.08237e-10
2.08217e-10
2.08197e-10
2.08176e-10
2.08156e-10
2.08136e-10
2.08117e-10
2.08111e-10
1.94807e-10
0
0
0
0
0
6.88706e-11
6.88613e-11
6.88483e-11
6.88331e-11
6.88162e-11
6.87979e-11
6.87786e-11
6.87587e-11
6.87387e-11
6.87187e-11
6.86992e-11
6.86805e-11
6.86629e-11
6.86455e-11
0
0
0
0
0
0
1.80787e-08
1.81923e-08
1.81947e-08
1.81976e-08
1.82008e-08
1.82042e-08
1.82078e-08
1.82115e-08
1.82153e-08
1.8219e-08
1.82227e-08
1.82261e-08
1.82293e-08
1.81202e-08
0
0
0
0
0
0
2.42067e-08
2.44433e-08
2.44471e-08
2.44516e-08
2.44565e-08
2.44618e-08
2.44673e-08
2.44729e-08
2.44786e-08
2.44841e-08
2.44895e-08
2.44946e-08
2.44993e-08
2.42694e-08
0
0
0
0
0
0
2.85854e-10
2.88917e-10
2.89086e-10
2.8927e-10
2.89483e-10
2.8971e-10
2.89948e-10
2.90191e-10
2.90437e-10
2.90678e-10
2.90911e-10
2.9113e-10
2.91326e-10
2.88534e-10
0
0
0
0
0
0
3.10487e-09
3.15534e-09
3.15629e-09
3.15739e-09
3.1586e-09
3.15991e-09
3.16134e-09
3.16287e-09
3.16442e-09
3.16596e-09
3.16746e-09
3.16888e-09
3.17019e-09
3.12135e-09
0
0
0
0
0
0
0
0
0
0
0
0
0
0
0
0
0
0
0
0
0
0
0
0
0
0
0
0
0
0
0
0
0
0
0
0
0
0
0
0
0
0
0
0
0
0
0
0
0
0
0
0
0
0
0
0
0
0
0
0
0
0
0
0
0
0
0
0
0
0
0
0
0
0
0
0
0
0
0
0
0
0
0
0
0
0
0
0
0
0
0
0
0
0
0
0
0
0
0
0
0
0
0
0
0
0
0
0
0
0
0
0
0
0
0
0
0
0
0
0
0
0
0
0
0
0
0
0
0
0
0
0
0
0
0
0
0
0
0
0
0
0
0
0
0
0
0
0
0
0
0
0
0
0
0
0
0
0
0
0
0
0
0
0
0
0
6.38258e-08
6.41537e-08
6.41496e-08
6.41451e-08
6.41402e-08
6.41353e-08
6.41306e-08
6.41263e-08
6.41225e-08
6.41195e-08
6.41173e-08
6.41159e-08
6.41153e-08
6.37841e-08
0
0
0
0
0
0
6.07495e-08
6.09452e-08
6.09416e-08
6.09376e-08
6.09334e-08
6.09292e-08
6.09252e-08
6.09217e-08
6.09189e-08
6.09168e-08
6.09155e-08
6.09148e-08
6.09148e-08
6.07164e-08
0
0
0
0
0
0
7.06362e-10
7.06269e-10
7.06119e-10
7.05943e-10
7.05741e-10
7.05518e-10
7.05277e-10
7.05023e-10
7.0476e-10
7.04492e-10
7.04225e-10
7.03964e-10
7.03714e-10
7.03459e-10
0
0
0
0
0
1.2339e-09
1.29832e-09
1.29825e-09
1.29818e-09
1.29809e-09
1.29798e-09
1.29787e-09
1.29774e-09
1.29761e-09
1.29747e-09
1.29733e-09
1.29719e-09
1.29706e-09
1.29693e-09
1.29681e-09
1.2324e-09
0
0
4.7542e-07
8.43887e-07
1.0072e-06
1.00811e-06
1.00804e-06
1.00794e-06
1.00783e-06
1.0077e-06
1.00756e-06
1.0074e-06
1.00724e-06
1.00708e-06
1.00691e-06
1.00674e-06
1.00657e-06
1.00642e-06
1.00627e-06
1.00518e-06
8.42008e-07
4.73998e-07
4.81401e-08
1.25784e-07
1.55893e-07
1.56034e-07
1.56027e-07
1.56018e-07
1.56007e-07
1.55995e-07
1.55983e-07
1.55969e-07
1.55956e-07
1.55942e-07
1.55928e-07
1.55915e-07
1.55902e-07
1.5589e-07
1.55877e-07
1.55721e-07
1.25632e-07
4.80503e-08
0
0
1.13376e-10
1.22313e-10
1.22307e-10
1.22301e-10
1.22294e-10
1.22286e-10
1.22278e-10
1.2227e-10
1.22261e-10
1.22252e-10
1.22245e-10
1.22236e-10
1.22228e-10
1.22221e-10
1.22213e-10
1.13229e-10
0
0
0
0
0
2.62213e-11
2.62186e-11
2.62135e-11
2.62076e-11
2.62011e-11
2.61942e-11
2.61869e-11
2.61794e-11
2.61719e-11
2.61645e-11
2.61573e-11
2.61503e-11
2.61437e-11
2.61358e-11
0
0
0
0
0
0
6.98839e-08
7.03881e-08
7.03917e-08
7.03959e-08
7.04006e-08
7.04057e-08
7.0411e-08
7.04165e-08
7.04221e-08
7.04276e-08
7.04329e-08
7.04379e-08
7.04426e-08
6.99449e-08
0
0
0
0
0
0
6.67027e-08
6.73769e-08
6.73823e-08
6.73886e-08
6.73955e-08
6.7403e-08
6.74109e-08
6.74189e-08
6.74269e-08
6.74348e-08
6.74424e-08
6.74497e-08
6.74564e-08
6.67918e-08
0
0
0
0
0
0
2.9235e-09
2.95454e-09
2.95514e-09
2.95581e-09
2.95656e-09
2.95737e-09
2.95821e-09
2.95907e-09
2.95993e-09
2.96078e-09
2.9616e-09
2.96237e-09
2.96308e-09
2.93303e-09
0
0
0
0
0
0
7.01816e-09
7.11961e-09
7.12064e-09
7.12183e-09
7.12315e-09
7.12455e-09
7.1263e-09
7.12836e-09
7.13045e-09
7.13251e-09
7.13452e-09
7.13643e-09
7.1382e-09
7.03886e-09
0
0
0
0
0
0
0
0
0
0
0
0
0
0
0
0
0
0
0
0
0
0
0
0
0
0
0
0
0
0
0
0
0
0
0
0
0
0
0
0
0
0
0
0
0
0
0
0
0
0
0
0
0
0
0
0
0
0
0
0
0
0
0
0
0
0
0
0
0
0
0
0
0
0
0
0
0
0
0
0
0
0
0
0
0
0
0
0
0
0
0
0
0
0
0
0
0
0
0
0
0
0
0
0
0
0
0
0
0
0
0
0
0
0
0
0
0
0
0
0
0
0
0
0
0
0
1.92831e-11
1.93777e-11
1.93638e-11
1.93485e-11
1.93323e-11
1.93157e-11
1.92993e-11
1.92835e-11
1.92703e-11
1.92806e-11
1.92929e-11
1.9308e-11
1.93255e-11
1.92395e-11
0
0
0
0
0
0
0
0
0
0
0
0
0
0
0
0
0
0
0
0
0
0
0
0
0
0
1.11507e-07
1.12167e-07
1.12165e-07
1.12164e-07
1.12163e-07
1.12162e-07
1.12161e-07
1.12161e-07
1.12162e-07
1.12163e-07
1.12166e-07
1.12169e-07
1.12172e-07
1.11515e-07
0
0
0
0
0
0
1.29821e-07
1.3036e-07
1.30358e-07
1.30357e-07
1.30355e-07
1.30353e-07
1.30352e-07
1.30351e-07
1.30351e-07
1.30352e-07
1.30353e-07
1.30355e-07
1.30357e-07
1.29819e-07
0
0
0
0
0
0
5.139e-10
5.13872e-10
5.13788e-10
5.13689e-10
5.13576e-10
5.13452e-10
5.13319e-10
5.13179e-10
5.13034e-10
5.12887e-10
5.12741e-10
5.12596e-10
5.12456e-10
5.12287e-10
0
0
0
0
0
8.07133e-10
8.49795e-10
8.49767e-10
8.49733e-10
8.49693e-10
8.49647e-10
8.49596e-10
8.49542e-10
8.49484e-10
8.49425e-10
8.49364e-10
8.49303e-10
8.49242e-10
8.49182e-10
8.49126e-10
8.06716e-10
0
0
3.74845e-07
6.88654e-07
8.27971e-07
8.28695e-07
8.28653e-07
8.28596e-07
8.28529e-07
8.28453e-07
8.2837e-07
8.2828e-07
8.28186e-07
8.28089e-07
8.27991e-07
8.27894e-07
8.27798e-07
8.27705e-07
8.27616e-07
8.26783e-07
6.87548e-07
3.74022e-07
3.5622e-08
1.00344e-07
1.25673e-07
1.25789e-07
1.25785e-07
1.25779e-07
1.25773e-07
1.25766e-07
1.25758e-07
1.25751e-07
1.25743e-07
1.25735e-07
1.25727e-07
1.25719e-07
1.25712e-07
1.25704e-07
1.25697e-07
1.25572e-07
1.00256e-07
3.55749e-08
0
0
1.01603e-10
1.09635e-10
1.09633e-10
1.0963e-10
1.09626e-10
1.09621e-10
1.09617e-10
1.09612e-10
1.09607e-10
1.09602e-10
1.09597e-10
1.09593e-10
1.09588e-10
1.09585e-10
1.09582e-10
1.01516e-10
0
0
0
0
0
1.14412e-11
1.14392e-11
1.14367e-11
1.1434e-11
1.14309e-11
1.14277e-11
1.14243e-11
1.14209e-11
1.14175e-11
1.1414e-11
1.14107e-11
1.14075e-11
1.14045e-11
1.14016e-11
0
0
0
0
0
0
1.16219e-07
1.17166e-07
1.17168e-07
1.17171e-07
1.17174e-07
1.17177e-07
1.17181e-07
1.17184e-07
1.17188e-07
1.17192e-07
1.17195e-07
1.17199e-07
1.17203e-07
1.16261e-07
0
0
0
0
0
0
1.10783e-07
1.11924e-07
1.11927e-07
1.11932e-07
1.11936e-07
1.11942e-07
1.11947e-07
1.11953e-07
1.11958e-07
1.11964e-07
1.11969e-07
1.11975e-07
1.11981e-07
1.10848e-07
0
0
0
0
0
0
5.03876e-09
5.09131e-09
5.09176e-09
5.09228e-09
5.09286e-09
5.09347e-09
5.09412e-09
5.09477e-09
5.09544e-09
5.0961e-09
5.09677e-09
5.09743e-09
5.09812e-09
5.04653e-09
0
0
0
0
0
0
8.14309e-09
8.25062e-09
8.25156e-09
8.25262e-09
8.25379e-09
8.25503e-09
8.25633e-09
8.25765e-09
8.25898e-09
8.2603e-09
8.2616e-09
8.26286e-09
8.26409e-09
8.15829e-09
0
0
0
0
0
0
0
0
0
0
0
0
0
0
0
0
0
0
0
0
0
0
0
0
0
0
0
0
0
0
0
0
0
0
0
0
0
0
0
0
0
0
0
0
0
0
0
0
0
0
0
0
0
0
0
0
0
0
0
0
0
0
0
0
0
0
0
0
0
0
0
0
0
0
0
0
0
0
0
0
0
0
0
0
0
0
0
0
0
0
0
0
0
0
0
0
0
0
0
0
0
0
0
0
0
0
0
0
0
0
0
0
0
0
0
0
0
0
0
0
0
0
0
0
0
0
2.74407e-10
2.76591e-10
2.76506e-10
2.76411e-10
2.76306e-10
2.76195e-10
2.7608e-10
2.75965e-10
2.75853e-10
2.75746e-10
2.7565e-10
2.75566e-10
2.75503e-10
2.73221e-10
0
0
0
0
0
0
1.04065e-11
1.04482e-11
1.04485e-11
1.04488e-11
1.04492e-11
1.04498e-11
1.04506e-11
1.04518e-11
1.04536e-11
1.04561e-11
1.04597e-11
1.04645e-11
1.04706e-11
1.04368e-11
0
0
0
0
0
0
1.56816e-07
1.57854e-07
1.57855e-07
1.57856e-07
1.57858e-07
1.5786e-07
1.57862e-07
1.57864e-07
1.57867e-07
1.5787e-07
1.57874e-07
1.57878e-07
1.57882e-07
1.56849e-07
0
0
0
0
0
0
1.92457e-07
1.93438e-07
1.93439e-07
1.9344e-07
1.9344e-07
1.93442e-07
1.93443e-07
1.93445e-07
1.93447e-07
1.93449e-07
1.93452e-07
1.93455e-07
1.93457e-07
1.9248e-07
0
0
0
0
0
0
4.39661e-10
4.39669e-10
4.39617e-10
4.39556e-10
4.39486e-10
4.3941e-10
4.39328e-10
4.39242e-10
4.39154e-10
4.39064e-10
4.38975e-10
4.38885e-10
4.38797e-10
4.38664e-10
0
0
0
0
0
6.2177e-10
6.53565e-10
6.53551e-10
6.53534e-10
6.53513e-10
6.5349e-10
6.53464e-10
6.53436e-10
6.53407e-10
6.53377e-10
6.53346e-10
6.53314e-10
6.53282e-10
6.53249e-10
6.53217e-10
6.21837e-10
0
0
3.35311e-07
6.14704e-07
7.42068e-07
7.42732e-07
7.42706e-07
7.4267e-07
7.42627e-07
7.42579e-07
7.42526e-07
7.42469e-07
7.4241e-07
7.4235e-07
7.42288e-07
7.42227e-07
7.42166e-07
7.42106e-07
7.42046e-07
7.41311e-07
6.1399e-07
3.3476e-07
3.2588e-08
9.29386e-08
1.1734e-07
1.17458e-07
1.17456e-07
1.17452e-07
1.17447e-07
1.17443e-07
1.17438e-07
1.17432e-07
1.17427e-07
1.17422e-07
1.17417e-07
1.17411e-07
1.17406e-07
1.17402e-07
1.17396e-07
1.17272e-07
9.28823e-08
3.25595e-08
0
0
3.5744e-10
3.81193e-10
3.8119e-10
3.81183e-10
3.81176e-10
3.81167e-10
3.81158e-10
3.81147e-10
3.81137e-10
3.81126e-10
3.81116e-10
3.81106e-10
3.811e-10
3.811e-10
3.81107e-10
3.57364e-10
0
0
0
0
0
7.50441e-12
7.50312e-12
7.5016e-12
7.49984e-12
7.49797e-12
7.49593e-12
7.49388e-12
7.49172e-12
7.48962e-12
7.48749e-12
7.4855e-12
7.48354e-12
7.48174e-12
7.48002e-12
0
0
0
0
0
0
1.3241e-07
1.33588e-07
1.33588e-07
1.33589e-07
1.3359e-07
1.33591e-07
1.33593e-07
1.33594e-07
1.33596e-07
1.33598e-07
1.336e-07
1.33602e-07
1.33606e-07
1.32433e-07
0
0
0
0
0
0
1.28014e-07
1.29348e-07
1.29349e-07
1.29351e-07
1.29353e-07
1.29355e-07
1.29358e-07
1.2936e-07
1.29363e-07
1.29366e-07
1.29369e-07
1.29373e-07
1.29378e-07
1.28051e-07
0
0
0
0
0
0
4.80161e-09
4.85159e-09
4.85176e-09
4.85196e-09
4.8522e-09
4.85244e-09
4.85271e-09
4.85298e-09
4.85327e-09
4.85358e-09
4.85395e-09
4.85439e-09
4.85496e-09
4.80579e-09
0
0
0
0
0
0
7.71662e-09
7.81254e-09
7.81327e-09
7.81409e-09
7.81499e-09
7.81593e-09
7.81692e-09
7.81791e-09
7.81894e-09
7.81997e-09
7.82102e-09
7.82205e-09
7.82311e-09
7.72873e-09
0
0
0
0
0
0
0
0
0
0
0
0
0
0
0
0
0
0
0
0
0
0
0
0
0
0
0
0
0
0
0
0
0
0
0
0
0
0
0
0
0
0
0
0
0
0
0
0
0
0
0
0
0
0
0
0
0
0
0
0
0
0
0
0
0
0
0
0
0
0
0
0
0
0
0
0
0
0
0
0
0
0
0
0
0
0
0
0
0
0
0
0
0
0
0
0
0
0
0
0
0
0
0
0
0
0
0
0
0
0
0
0
0
0
0
0
0
0
0
0
0
0
0
0
0
0
1.27871e-09
1.29015e-09
1.28997e-09
1.28975e-09
1.28951e-09
1.28924e-09
1.28895e-09
1.28864e-09
1.28833e-09
1.288e-09
1.28767e-09
1.28734e-09
1.28703e-09
1.27518e-09
0
0
0
0
0
0
3.63916e-10
3.66322e-10
3.66326e-10
3.66325e-10
3.66321e-10
3.66311e-10
3.66297e-10
3.66277e-10
3.66252e-10
3.66222e-10
3.66189e-10
3.66152e-10
3.66114e-10
3.63679e-10
0
0
0
0
0
0
1.96095e-07
1.97526e-07
1.9753e-07
1.97534e-07
1.97537e-07
1.97541e-07
1.97545e-07
1.97548e-07
1.97552e-07
1.97555e-07
1.97558e-07
1.9756e-07
1.97562e-07
1.96134e-07
0
0
0
0
0
0
2.41872e-07
2.43334e-07
2.43336e-07
2.43338e-07
2.4334e-07
2.43342e-07
2.43344e-07
2.43346e-07
2.43348e-07
2.43349e-07
2.43351e-07
2.43352e-07
2.43351e-07
2.4189e-07
0
0
0
0
0
0
3.82587e-10
3.82612e-10
3.82581e-10
3.82544e-10
3.82502e-10
3.82456e-10
3.82406e-10
3.82355e-10
3.82301e-10
3.82247e-10
3.82193e-10
3.82138e-10
3.82083e-10
3.81978e-10
0
0
0
0
0
5.04869e-10
5.2999e-10
5.29983e-10
5.29973e-10
5.29962e-10
5.2995e-10
5.29936e-10
5.29921e-10
5.29905e-10
5.29888e-10
5.29872e-10
5.29855e-10
5.29836e-10
5.29817e-10
5.29798e-10
5.05097e-10
0
0
3.04514e-07
5.54765e-07
6.72629e-07
6.73275e-07
6.7326e-07
6.73236e-07
6.73209e-07
6.73178e-07
6.73144e-07
6.73107e-07
6.73069e-07
6.73031e-07
6.72991e-07
6.72952e-07
6.72912e-07
6.72873e-07
6.72831e-07
6.72136e-07
5.54294e-07
3.04138e-07
3.41619e-08
9.44164e-08
1.19804e-07
1.19931e-07
1.1993e-07
1.19927e-07
1.19923e-07
1.1992e-07
1.19916e-07
1.19912e-07
1.19908e-07
1.19904e-07
1.199e-07
1.19896e-07
1.19893e-07
1.19889e-07
1.19885e-07
1.19753e-07
9.43759e-08
3.41435e-08
0
0
5.99655e-10
6.38706e-10
6.38697e-10
6.38682e-10
6.38665e-10
6.38646e-10
6.38625e-10
6.38604e-10
6.38583e-10
6.38562e-10
6.38542e-10
6.38523e-10
6.38507e-10
6.38493e-10
6.38481e-10
5.99423e-10
0
0
0
0
0
9.34073e-12
9.33975e-12
9.33855e-12
9.33716e-12
9.3357e-12
9.33409e-12
9.33248e-12
9.33079e-12
9.32917e-12
9.32752e-12
9.326e-12
9.32451e-12
9.32314e-12
9.3218e-12
0
0
0
0
0
0
1.32047e-07
1.33304e-07
1.33305e-07
1.33305e-07
1.33306e-07
1.33307e-07
1.33308e-07
1.33309e-07
1.3331e-07
1.33312e-07
1.33314e-07
1.33317e-07
1.33321e-07
1.32069e-07
0
0
0
0
0
0
1.29553e-07
1.30933e-07
1.30934e-07
1.30935e-07
1.30936e-07
1.30937e-07
1.30939e-07
1.3094e-07
1.30942e-07
1.30944e-07
1.30947e-07
1.30951e-07
1.30956e-07
1.29584e-07
0
0
0
0
0
0
3.96407e-09
4.00557e-09
4.00563e-09
4.00569e-09
4.00575e-09
4.00581e-09
4.00587e-09
4.00594e-09
4.00604e-09
4.00618e-09
4.00641e-09
4.00675e-09
4.00725e-09
3.96647e-09
0
0
0
0
0
0
7.10612e-09
7.19179e-09
7.19244e-09
7.19317e-09
7.19396e-09
7.19477e-09
7.19562e-09
7.19646e-09
7.19752e-09
7.19869e-09
7.19988e-09
7.20106e-09
7.20228e-09
7.11824e-09
0
0
0
0
0
0
0
0
0
0
0
0
0
0
0
0
0
0
0
0
0
0
0
0
0
0
0
0
0
0
0
0
0
0
0
0
0
0
0
0
0
0
0
0
0
0
0
0
0
0
0
0
0
0
0
0
0
0
0
0
0
0
0
0
0
0
0
0
0
0
0
0
0
0
0
0
0
0
0
0
0
0
0
0
0
0
0
0
0
0
0
0
0
0
0
0
0
0
0
0
0
0
0
0
0
0
0
0
0
0
0
0
0
0
0
0
0
0
0
0
0
0
0
0
0
0
3.42029e-09
3.4527e-09
3.45248e-09
3.4522e-09
3.45186e-09
3.45148e-09
3.45105e-09
3.45056e-09
3.45002e-09
3.44941e-09
3.44872e-09
3.44795e-09
3.44708e-09
3.41357e-09
0
0
0
0
0
0
1.79423e-09
1.8078e-09
1.80782e-09
1.80782e-09
1.80781e-09
1.80777e-09
1.80771e-09
1.80761e-09
1.80748e-09
1.8073e-09
1.80706e-09
1.80677e-09
1.80641e-09
1.79243e-09
0
0
0
0
0
0
2.28646e-07
2.3047e-07
2.30474e-07
2.30478e-07
2.30482e-07
2.30486e-07
2.30489e-07
2.30492e-07
2.30493e-07
2.30494e-07
2.30493e-07
2.30491e-07
2.30487e-07
2.2866e-07
0
0
0
0
0
0
2.77843e-07
2.79783e-07
2.79786e-07
2.79788e-07
2.7979e-07
2.79792e-07
2.79793e-07
2.79794e-07
2.79794e-07
2.79794e-07
2.79793e-07
2.7979e-07
2.79786e-07
2.77842e-07
0
0
0
0
0
0
3.34157e-10
3.3419e-10
3.34172e-10
3.3415e-10
3.34126e-10
3.341e-10
3.34071e-10
3.34041e-10
3.34011e-10
3.3398e-10
3.33948e-10
3.33916e-10
3.33883e-10
3.33803e-10
0
0
0
0
0
4.233e-10
4.44028e-10
4.44023e-10
4.44016e-10
4.44008e-10
4.43999e-10
4.43988e-10
4.43977e-10
4.43965e-10
4.43953e-10
4.43941e-10
4.43929e-10
4.43916e-10
4.43903e-10
4.4389e-10
4.23398e-10
0
0
2.75843e-07
5.00608e-07
6.09777e-07
6.10403e-07
6.10395e-07
6.10381e-07
6.10363e-07
6.10344e-07
6.10322e-07
6.10299e-07
6.10274e-07
6.1025e-07
6.10225e-07
6.102e-07
6.10175e-07
6.10149e-07
6.10121e-07
6.0946e-07
5.00305e-07
2.75601e-07
3.64622e-08
9.71247e-08
1.23796e-07
1.23935e-07
1.23934e-07
1.23931e-07
1.23929e-07
1.23926e-07
1.23924e-07
1.23921e-07
1.23918e-07
1.23915e-07
1.23912e-07
1.2391e-07
1.23907e-07
1.23904e-07
1.23901e-07
1.23759e-07
9.70983e-08
3.64547e-08
0
0
6.99499e-10
7.44804e-10
7.44799e-10
7.44788e-10
7.44776e-10
7.44762e-10
7.44747e-10
7.44731e-10
7.44716e-10
7.44701e-10
7.44687e-10
7.44674e-10
7.44662e-10
7.44649e-10
7.44636e-10
6.99321e-10
0
0
0
0
0
1.22148e-11
1.22142e-11
1.22133e-11
1.22124e-11
1.22113e-11
1.22102e-11
1.22091e-11
1.2208e-11
1.22068e-11
1.22058e-11
1.22047e-11
1.22037e-11
1.22026e-11
1.22016e-11
0
0
0
0
0
0
1.28366e-07
1.29654e-07
1.29656e-07
1.29657e-07
1.29659e-07
1.29661e-07
1.29663e-07
1.29665e-07
1.29667e-07
1.2967e-07
1.29673e-07
1.29677e-07
1.29682e-07
1.284e-07
0
0
0
0
0
0
1.26737e-07
1.28124e-07
1.28126e-07
1.28128e-07
1.2813e-07
1.28132e-07
1.28135e-07
1.28137e-07
1.2814e-07
1.28143e-07
1.28147e-07
1.28151e-07
1.28156e-07
1.26777e-07
0
0
0
0
0
0
3.45194e-09
3.48872e-09
3.48893e-09
3.48913e-09
3.48932e-09
3.48951e-09
3.4897e-09
3.48991e-09
3.49014e-09
3.49041e-09
3.49074e-09
3.49114e-09
3.49158e-09
3.45549e-09
0
0
0
0
0
0
6.81958e-09
6.90111e-09
6.9019e-09
6.90275e-09
6.90367e-09
6.9046e-09
6.90557e-09
6.90652e-09
6.90747e-09
6.90839e-09
6.90932e-09
6.91021e-09
6.91111e-09
6.83095e-09
0
0
0
0
0
0
0
0
0
0
0
0
0
0
0
0
0
0
0
0
0
0
0
0
0
0
0
0
0
0
0
0
0
0
0
0
0
0
0
0
0
0
0
0
0
0
0
0
0
0
0
0
0
0
0
0
0
0
0
0
0
0
0
0
0
0
0
0
0
0
0
0
0
0
0
0
0
0
0
0
0
0
0
0
0
0
0
0
0
0
0
0
0
0
0
0
0
0
0
0
0
0
0
0
0
0
0
0
0
0
0
0
0
0
0
0
0
0
0
0
0
0
0
0
0
0
6.71929e-09
6.78593e-09
6.7857e-09
6.78541e-09
6.78507e-09
6.78468e-09
6.78424e-09
6.78373e-09
6.78311e-09
6.78235e-09
6.78138e-09
6.78014e-09
6.77856e-09
6.70976e-09
0
0
0
0
0
0
4.63257e-09
4.67091e-09
4.67094e-09
4.67095e-09
4.67094e-09
4.6709e-09
4.67084e-09
4.67072e-09
4.67051e-09
4.67019e-09
4.66971e-09
4.66904e-09
4.66811e-09
4.62857e-09
0
0
0
0
0
0
2.5359e-07
2.5579e-07
2.55795e-07
2.55799e-07
2.55804e-07
2.55809e-07
2.55813e-07
2.55817e-07
2.55819e-07
2.55819e-07
2.55817e-07
2.55813e-07
2.55805e-07
2.53596e-07
0
0
0
0
0
0
3.02488e-07
3.04869e-07
3.04872e-07
3.04874e-07
3.04876e-07
3.04878e-07
3.04879e-07
3.0488e-07
3.0488e-07
3.04879e-07
3.04876e-07
3.04872e-07
3.04865e-07
3.02474e-07
0
0
0
0
0
0
2.92071e-10
2.92107e-10
2.92097e-10
2.92084e-10
2.92071e-10
2.92055e-10
2.92039e-10
2.92021e-10
2.92004e-10
2.91986e-10
2.91968e-10
2.9195e-10
2.91932e-10
2.91869e-10
0
0
0
0
0
3.62225e-10
3.79881e-10
3.79877e-10
3.79873e-10
3.79867e-10
3.7986e-10
3.79853e-10
3.79845e-10
3.79836e-10
3.79828e-10
3.7982e-10
3.79812e-10
3.79804e-10
3.79797e-10
3.79791e-10
3.621e-10
0
0
2.48884e-07
4.512e-07
5.52291e-07
5.52897e-07
5.52893e-07
5.52885e-07
5.52874e-07
5.52862e-07
5.52849e-07
5.52834e-07
5.52819e-07
5.52804e-07
5.52788e-07
5.52774e-07
5.52759e-07
5.52744e-07
5.52725e-07
5.52099e-07
4.51023e-07
2.48754e-07
3.73765e-08
9.73683e-08
1.24811e-07
1.24963e-07
1.24962e-07
1.24961e-07
1.24959e-07
1.24958e-07
1.24956e-07
1.24954e-07
1.24953e-07
1.24951e-07
1.2495e-07
1.24948e-07
1.24947e-07
1.24945e-07
1.24943e-07
1.24791e-07
9.73604e-08
3.73829e-08
0
0
7.29402e-10
7.77335e-10
7.77335e-10
7.77332e-10
7.7733e-10
7.77325e-10
7.77322e-10
7.77317e-10
7.77313e-10
7.77309e-10
7.77306e-10
7.77302e-10
7.77299e-10
7.7729e-10
7.77282e-10
7.29334e-10
0
0
0
0
0
1.40413e-11
1.40409e-11
1.40404e-11
1.404e-11
1.40395e-11
1.40391e-11
1.40385e-11
1.4038e-11
1.40375e-11
1.4037e-11
1.40364e-11
1.40359e-11
1.40353e-11
1.40349e-11
0
0
0
0
0
0
1.25041e-07
1.26354e-07
1.26357e-07
1.26361e-07
1.26365e-07
1.26369e-07
1.26372e-07
1.26377e-07
1.26381e-07
1.26386e-07
1.2639e-07
1.26395e-07
1.26398e-07
1.25091e-07
0
0
0
0
0
0
1.23252e-07
1.24641e-07
1.24645e-07
1.2465e-07
1.24654e-07
1.24659e-07
1.24664e-07
1.24669e-07
1.24674e-07
1.2468e-07
1.24685e-07
1.2469e-07
1.24693e-07
1.23309e-07
0
0
0
0
0
0
3.31474e-09
3.35106e-09
3.35162e-09
3.35217e-09
3.35272e-09
3.35328e-09
3.35384e-09
3.35442e-09
3.35501e-09
3.3556e-09
3.35619e-09
3.35671e-09
3.35708e-09
3.32136e-09
0
0
0
0
0
0
6.94989e-09
7.03345e-09
7.03442e-09
7.03541e-09
7.0365e-09
7.03757e-09
7.03871e-09
7.03979e-09
7.0409e-09
7.04193e-09
7.04293e-09
7.04378e-09
7.04454e-09
6.96212e-09
0
0
0
0
0
0
0
0
0
0
0
0
0
0
0
0
0
0
0
0
0
0
0
0
0
0
0
0
0
0
0
0
0
0
0
0
0
0
0
0
0
0
0
0
0
0
0
0
0
0
0
0
0
0
0
0
0
0
0
0
0
0
0
0
0
0
0
0
0
0
0
0
0
0
0
0
0
0
0
0
0
0
0
0
0
0
0
0
0
0
0
0
0
0
0
0
0
0
0
0
0
0
0
0
0
0
0
0
0
0
0
0
0
0
0
0
0
0
0
0
0
0
0
0
0
0
1.09757e-08
1.10894e-08
1.10892e-08
1.10889e-08
1.10887e-08
1.10885e-08
1.10884e-08
1.10882e-08
1.10879e-08
1.10874e-08
1.10866e-08
1.10854e-08
1.10835e-08
1.09668e-08
0
0
0
0
0
0
8.7711e-09
8.84959e-09
8.84957e-09
8.84959e-09
8.84965e-09
8.84975e-09
8.84987e-09
8.84996e-09
8.84997e-09
8.84981e-09
8.8494e-09
8.84861e-09
8.84731e-09
8.76674e-09
0
0
0
0
0
0
2.71242e-07
2.73781e-07
2.73785e-07
2.73789e-07
2.73795e-07
2.738e-07
2.73806e-07
2.73811e-07
2.73815e-07
2.73817e-07
2.73817e-07
2.73814e-07
2.73806e-07
2.71254e-07
0
0
0
0
0
0
3.17991e-07
3.20777e-07
3.20779e-07
3.20781e-07
3.20784e-07
3.20786e-07
3.20789e-07
3.20791e-07
3.20792e-07
3.20792e-07
3.20791e-07
3.20787e-07
3.20781e-07
3.17983e-07
0
0
0
0
0
0
2.55618e-10
2.55655e-10
2.55649e-10
2.55641e-10
2.55634e-10
2.55624e-10
2.55615e-10
2.55604e-10
2.55595e-10
2.55584e-10
2.55575e-10
2.55566e-10
2.55559e-10
2.5551e-10
0
0
0
0
0
3.14084e-10
3.29474e-10
3.29472e-10
3.29469e-10
3.29465e-10
3.2946e-10
3.29455e-10
3.29449e-10
3.29442e-10
3.29437e-10
3.29431e-10
3.29427e-10
3.29423e-10
3.29422e-10
3.29421e-10
3.13985e-10
0
0
2.23743e-07
4.06173e-07
4.99742e-07
5.00325e-07
5.00325e-07
5.00321e-07
5.00315e-07
5.00308e-07
5.003e-07
5.00292e-07
5.00282e-07
5.00274e-07
5.00265e-07
5.00258e-07
5.00251e-07
5.00245e-07
5.00236e-07
4.99647e-07
4.06102e-07
2.2372e-07
3.64688e-08
9.45079e-08
1.21989e-07
1.22151e-07
1.22152e-07
1.22151e-07
1.22151e-07
1.22151e-07
1.2215e-07
1.2215e-07
1.22149e-07
1.22149e-07
1.22148e-07
1.22148e-07
1.22147e-07
1.22147e-07
1.22146e-07
1.21988e-07
9.45175e-08
3.64833e-08
0
0
7.07844e-10
7.56012e-10
7.56022e-10
7.56028e-10
7.56035e-10
7.56042e-10
7.56048e-10
7.56055e-10
7.56063e-10
7.5607e-10
7.56077e-10
7.56082e-10
7.56085e-10
7.5608e-10
7.56071e-10
7.07904e-10
0
0
0
0
0
1.42419e-11
1.4242e-11
1.42422e-11
1.42423e-11
1.42425e-11
1.42426e-11
1.42428e-11
1.42429e-11
1.42431e-11
1.42431e-11
1.42431e-11
1.42431e-11
1.42429e-11
1.42433e-11
0
0
0
0
0
0
1.22058e-07
1.23392e-07
1.23397e-07
1.23403e-07
1.23409e-07
1.23415e-07
1.23421e-07
1.23428e-07
1.23434e-07
1.2344e-07
1.23445e-07
1.2345e-07
1.23452e-07
1.22121e-07
0
0
0
0
0
0
1.19945e-07
1.21338e-07
1.21345e-07
1.21353e-07
1.2136e-07
1.21369e-07
1.21377e-07
1.21385e-07
1.21394e-07
1.21402e-07
1.21408e-07
1.21414e-07
1.21415e-07
1.20025e-07
0
0
0
0
0
0
3.48347e-09
3.52285e-09
3.52386e-09
3.52488e-09
3.52595e-09
3.52702e-09
3.52814e-09
3.52924e-09
3.53037e-09
3.53143e-09
3.53239e-09
3.53309e-09
3.53345e-09
3.49468e-09
0
0
0
0
0
0
7.5101e-09
7.60167e-09
7.60279e-09
7.60397e-09
7.60528e-09
7.60656e-09
7.60793e-09
7.60923e-09
7.61057e-09
7.61176e-09
7.61289e-09
7.61373e-09
7.61435e-09
7.52377e-09
0
0
0
0
0
0
0
0
0
0
0
0
0
0
0
0
0
0
0
0
0
0
0
0
0
0
0
0
0
0
0
0
0
0
0
0
0
0
0
0
0
0
0
0
0
0
0
0
0
0
0
0
0
0
0
0
0
0
0
0
0
0
0
0
0
0
0
0
0
0
0
0
0
0
0
0
0
0
0
0
0
0
0
0
0
0
0
0
0
0
0
0
0
0
0
0
0
0
0
0
0
0
0
0
0
0
0
0
0
0
0
0
0
0
0
0
0
0
0
0
0
0
0
0
0
0
1.59768e-08
1.615e-08
1.61498e-08
1.61498e-08
1.61501e-08
1.61506e-08
1.61514e-08
1.61524e-08
1.61534e-08
1.61543e-08
1.6155e-08
1.61552e-08
1.61548e-08
1.59795e-08
0
0
0
0
0
0
1.39583e-08
1.40928e-08
1.40927e-08
1.40929e-08
1.40933e-08
1.40939e-08
1.40948e-08
1.40958e-08
1.40968e-08
1.40977e-08
1.40985e-08
1.40988e-08
1.40985e-08
1.39625e-08
0
0
0
0
0
0
2.8221e-07
2.8505e-07
2.85051e-07
2.85054e-07
2.85059e-07
2.85066e-07
2.85074e-07
2.85082e-07
2.8509e-07
2.85097e-07
2.85104e-07
2.85107e-07
2.85108e-07
2.8226e-07
0
0
0
0
0
0
3.26421e-07
3.29566e-07
3.29567e-07
3.29568e-07
3.29571e-07
3.29574e-07
3.29578e-07
3.29582e-07
3.29587e-07
3.2959e-07
3.29594e-07
3.29595e-07
3.29596e-07
3.26444e-07
0
0
0
0
0
0
2.24372e-10
2.24407e-10
2.24405e-10
2.244e-10
2.24397e-10
2.2439e-10
2.24387e-10
2.24379e-10
2.24377e-10
2.2437e-10
2.24369e-10
2.24366e-10
2.2437e-10
2.24334e-10
0
0
0
0
0
2.74776e-10
2.88414e-10
2.88415e-10
2.88414e-10
2.88412e-10
2.88409e-10
2.88406e-10
2.88401e-10
2.88397e-10
2.88392e-10
2.88389e-10
2.88387e-10
2.88388e-10
2.8839e-10
2.88395e-10
2.7469e-10
0
0
2.00555e-07
3.65284e-07
4.51858e-07
4.52417e-07
4.5242e-07
4.5242e-07
4.52417e-07
4.52415e-07
4.5241e-07
4.52406e-07
4.52401e-07
4.52397e-07
4.52393e-07
4.52392e-07
4.52392e-07
4.52395e-07
4.52397e-07
4.51848e-07
3.65314e-07
2.00643e-07
3.39496e-08
8.89207e-08
1.15713e-07
1.1588e-07
1.15882e-07
1.15882e-07
1.15883e-07
1.15883e-07
1.15884e-07
1.15884e-07
1.15885e-07
1.15885e-07
1.15886e-07
1.15886e-07
1.15886e-07
1.15886e-07
1.15886e-07
1.15724e-07
8.89359e-08
3.39633e-08
0
0
6.50491e-10
6.97199e-10
6.97215e-10
6.97227e-10
6.9724e-10
6.97252e-10
6.97266e-10
6.9728e-10
6.97294e-10
6.97307e-10
6.9732e-10
6.9733e-10
6.97335e-10
6.97332e-10
6.9732e-10
6.50602e-10
0
0
0
0
0
1.27728e-11
1.27736e-11
1.27743e-11
1.27749e-11
1.27756e-11
1.27763e-11
1.2777e-11
1.27776e-11
1.27783e-11
1.27788e-11
1.27792e-11
1.27795e-11