/*--------------------------------*- C++ -*----------------------------------*\
| =========                 |                                                 |
| \\      /  F ield         | OpenFOAM: The Open Source CFD Toolbox           |
|  \\    /   O peration     | Version:  2212                                  |
|   \\  /    A nd           | Website:  www.openfoam.com                      |
|    \\/     M anipulation  |                                                 |
\*---------------------------------------------------------------------------*/
FoamFile
{
    version     2.0;
    format      ascii;
    arch        "LSB;label=32;scalar=64";
    class       volVectorField;
    location    "0.0107";
    object      U;
}
// * * * * * * * * * * * * * * * * * * * * * * * * * * * * * * * * * * * * * //

dimensions      [0 1 -1 0 0 0 0];

internalField   nonuniform List<vector> 
2308
(
(-0.394161 4.70469 -1.02351e-15)
(0.640157 2.11659 0)
(-0.350612 7.86913 7.23897e-17)
(-0.223159 2.40848 -3.60875e-16)
(-0.0175482 3.20064 0)
(-0.14038 2.63619 -6.32478e-20)
(0.158836 2.41554 2.97639e-20)
(0.170887 2.95723 -4.98818e-16)
(0.0349065 3.41439 9.07674e-16)
(0.0475686 1.54177 -1.20522e-16)
(0.0668263 1.48944 2.14972e-16)
(0.0108538 1.43471 -3.15756e-16)
(0.0158018 1.38729 1.56259e-16)
(0.0164476 1.3658 -7.91364e-17)
(0.0115298 1.36958 1.34789e-17)
(0.0044062 1.39988 1.12003e-16)
(-0.00250532 1.45817 1.49859e-17)
(0.00712117 1.51857 3.46501e-17)
(-0.0134063 1.44615 4.66222e-17)
(-0.0125888 1.39711 3.45045e-18)
(-0.0133583 1.36904 2.63241e-17)
(-0.0153861 1.36547 -7.69002e-17)
(-0.0133114 1.38587 9.88108e-17)
(0.00216292 1.4248 -4.55338e-17)
(-0.0304824 1.47788 -1.9583e-16)
(-0.0241399 1.5308 -9.31851e-17)
(-0.00229727 1.5785 4.76834e-17)
(-0.00449529 1.6353 -5.24706e-17)
(0.107798 2.42422 0)
(-0.00559824 1.54011 -3.19744e-16)
(-0.000558387 1.67404 2.79338e-18)
(0.000958406 1.70087 7.15345e-19)
(0.00194165 1.7166 -1.22334e-17)
(0.0019049 1.72136 1.15607e-17)
(0.00172387 1.71698 -1.2291e-17)
(0.00119453 1.70654 1.15807e-17)
(0.000829958 1.69271 -5.78462e-18)
(0.000730883 1.67872 5.78436e-18)
(0.00092431 1.66756 -5.77681e-18)
(0.00125302 1.66223 2.88851e-18)
(0.00168772 1.6647 5.77955e-18)
(0.00216348 1.67661 8.68136e-18)
(0.0027195 1.69859 -1.7407e-17)
(0.00333112 1.73063 1.16375e-17)
(0.00399538 1.77224 5.81809e-18)
(0.101228 1.77455 -5.83773e-18)
(0.097518 1.73293 5.81734e-18)
(0.0938961 1.7006 -8.70869e-18)
(0.0904115 1.6786 -9.43032e-18)
(0.0872237 1.66634 1.44768e-17)
(0.0843315 1.66357 -2.89584e-18)
(0.0817604 1.66835 5.80437e-18)
(0.0797981 1.67957 1.45221e-18)
(0.0786997 1.69274 -8.70104e-18)
(0.0781697 1.70625 -2.90752e-18)
(0.0779412 1.71694 5.80644e-18)
(0.0780478 1.7216 0)
(0.0779028 1.71741 -7.22041e-19)
(0.0778841 1.70264 -2.37428e-17)
(0.0779962 1.67702 -8.18225e-17)
(0.0815224 1.63229 9.64376e-17)
(0.0757452 1.59805 9.95739e-17)
(0.0948835 1.53914 1.14196e-16)
(0.0837563 1.49544 1.01388e-20)
(0.0877331 1.44502 1.27944e-16)
(0.0845794 1.4105 -2.37167e-16)
(0.0645149 1.39009 -5.44084e-17)
(0.0473156 1.37803 0)
(0.0301795 1.38621 0)
(0.0119871 1.42042 0)
(-0.00622606 1.48332 0)
(0.00459608 1.82285 -2.91143e-18)
(0.104626 1.82477 2.92576e-18)
(0.0143115 1.47774 -1.60896e-16)
(-0.0121983 1.40854 -3.25227e-18)
(-0.0346385 1.37407 1.27435e-17)
(-0.0488534 1.3722 0)
(-0.058499 1.39303 -2.44293e-17)
(-0.066126 1.43076 -2.39152e-17)
(-0.0729488 1.47763 1.19937e-17)
(-0.0771571 1.53502 4.81048e-17)
(-0.0749347 1.59029 0)
(-0.0735627 1.63398 3.58855e-21)
(-0.0750151 1.67348 8.9157e-20)
(-0.0748358 1.70119 -1.15493e-17)
(-0.0744817 1.71714 1.73315e-17)
(-0.0744664 1.72205 -1.00928e-21)
(-0.0750139 1.71811 -1.01315e-17)
(-0.0758589 1.70782 0)
(-0.0769716 1.69381 -1.44754e-18)
(-0.0783496 1.67992 8.67913e-18)
(-0.0798647 1.66885 -1.15685e-17)
(-0.0816851 1.66349 6.95852e-22)
(-0.0837654 1.66592 1.15772e-17)
(-0.0860256 1.67797 0)
(-0.0883591 1.6999 1.15973e-17)
(-0.0907609 1.732 -2.21202e-23)
(-0.0930894 1.77367 -5.82089e-18)
(0.0101269 1.63245 -1.37089e-16)
(-0.0954051 1.82406 -5.82466e-18)
(-0.0123008 1.64288 1.39809e-16)
(-0.0224627 1.57307 4.7358e-21)
(0.200844 1.82945 -5.86047e-18)
(0.194618 1.78016 7.31703e-18)
(0.188367 1.7383 0)
(0.18195 1.70617 -2.18914e-18)
(0.175778 1.68366 5.09838e-18)
(0.169839 1.67085 5.8251e-18)
(0.164432 1.66761 -5.82404e-18)
(0.1598 1.67169 0)
(0.156252 1.68177 -1.45481e-18)
(0.153758 1.69399 2.91699e-18)
(0.152261 1.7072 2.78381e-23)
(0.151664 1.71755 -2.916e-18)
(0.151455 1.72224 0)
(0.151452 1.71881 4.37595e-18)
(0.15107 1.70456 -1.7416e-17)
(0.149338 1.67919 -1.16477e-17)
(0.143947 1.64144 4.7316e-17)
(0.141557 1.60803 1.75422e-16)
(0.143295 1.55246 1.32315e-17)
(0.140276 1.5059 1.25812e-16)
(0.131604 1.46247 -5.68707e-17)
(0.116253 1.42481 0)
(0.0940098 1.40248 0)
(0.0694843 1.39648 0)
(0.0429506 1.41179 1.88224e-16)
(0.0145908 1.45208 -2.186e-16)
(-0.0135473 1.52024 2.22715e-16)
(0.208198 3.20447 -4.00753e-16)
(-0.215868 2.60501 0)
(-0.137553 2.34677 0)
(-0.170436 2.49432 0)
(0.0452788 1.62133 3.20791e-16)
(-0.0106196 1.50558 9.075e-17)
(-0.0310425 1.43378 -2.9048e-21)
(-0.055623 1.39495 -1.5429e-18)
(-0.0790239 1.38911 1.53407e-18)
(-0.099107 1.40722 1.21657e-17)
(-0.115645 1.44257 -2.40519e-17)
(-0.130356 1.48799 -1.68374e-21)
(-0.138244 1.54223 0)
(-0.141452 1.59587 5.3162e-17)
(-0.143716 1.63872 3.49155e-17)
(-0.146419 1.67521 -5.78624e-18)
(-0.147522 1.70169 5.78501e-18)
(-0.14796 1.71748 0)
(-0.148399 1.72292 0)
(-0.149174 1.7193 -7.25281e-19)
(-0.150358 1.70956 0)
(-0.152113 1.69609 4.35023e-18)
(-0.154554 1.68272 -3.36545e-22)
(-0.15773 1.67215 -2.90157e-18)
(-0.16148 1.66709 0)
(-0.165955 1.67028 -2.90116e-18)
(-0.170921 1.68275 4.35695e-18)
(-0.176184 1.70457 -7.27004e-18)
(-0.181469 1.73672 0)
(-0.186604 1.77849 -1.16382e-17)
(-0.191456 1.82855 2.91479e-18)
(-0.19584 1.88607 2.26637e-22)
(-0.097434 1.88209 0)
(0.00509178 1.88088 -1.4603e-18)
(0.10749 1.88255 -4.75528e-18)
(0.152616 3.07676 4.35545e-16)
(0.206174 1.88706 3.66712e-19)
(0.236388 3.29876 -1.25637e-15)
(0.137925 3.40937 -2.88839e-16)
(-0.0339648 1.68864 0)
(0.0970842 3.73123 4.16298e-16)
(0.0289963 3.01859 -8.71341e-16)
(0.00625763 1.781 5.72012e-17)
(-0.0389903 1.61647 -3.36769e-16)
(-0.199763 1.94905 -2.92576e-18)
(-0.0993186 1.94571 -2.9252e-18)
(0.00526349 1.94481 -3.65965e-19)
(0.109654 1.94611 5.85582e-18)
(0.210458 1.94949 3.67187e-19)
(0.303576 1.95506 0)
(0.297119 1.8936 2.9417e-18)
(0.28939 1.83719 5.87927e-18)
(0.281074 1.78807 -1.46877e-18)
(0.272341 1.74665 -5.8696e-18)
(0.263549 1.71441 -6.59224e-18)
(0.254787 1.69151 8.78719e-18)
(0.246293 1.67793 2.92978e-18)
(0.238529 1.67391 -5.86562e-18)
(0.231993 1.67723 4.39712e-18)
(0.226748 1.6857 -1.28174e-18)
(0.222803 1.69686 0)
(0.220258 1.70889 0)
(0.218854 1.7185 0)
(0.218187 1.72295 5.87466e-18)
(0.217777 1.71923 -2.94265e-18)
(0.217106 1.70656 2.75628e-21)
(0.213493 1.6842 -2.37276e-17)
(0.207248 1.65167 0)
(0.201445 1.61435 -2.49299e-17)
(0.193641 1.56826 2.57817e-17)
(0.181802 1.5203 5.30454e-17)
(0.166728 1.47905 2.70651e-17)
(0.145947 1.44601 1.07948e-16)
(0.116968 1.42719 -1.06851e-16)
(0.0841197 1.42666 0)
(0.0485566 1.44871 2.64797e-17)
(0.0106771 1.49624 -5.3211e-17)
(-0.0265817 1.56984 -1.07838e-16)
(0.0987143 1.95967 5.1698e-17)
(-0.275712 5.28546 0)
(-0.0617361 3.00561 -1.69733e-20)
(0.219615 2.87943 5.53962e-16)
(0.196945 2.65684 -1.18298e-16)
(0.19315 2.43257 1.34589e-16)
(0.168563 2.20171 -2.55995e-17)
(0.132381 1.98705 5.00723e-17)
(0.0915228 1.80227 -2.44929e-17)
(0.050104 1.6505 0)
(0.00831721 1.53768 -2.37272e-17)
(-0.032433 1.46508 -2.4074e-17)
(-0.0695217 1.42684 0)
(-0.103232 1.4168 0)
(-0.132108 1.43074 1.50956e-18)
(-0.156414 1.46127 -1.34988e-17)
(-0.176007 1.50393 0)
(-0.190422 1.55341 0)
(-0.200083 1.60279 -1.77553e-17)
(-0.206584 1.64546 -1.17291e-17)
(-0.210861 1.67985 2.33555e-17)
(-0.213599 1.70399 5.83233e-18)
(-0.215084 1.71819 1.45741e-18)
(-0.216265 1.72453 5.82625e-18)
(-0.217503 1.72055 -6.55933e-18)
(-0.219155 1.71175 0)
(-0.221578 1.69925 -2.91408e-18)
(-0.225032 1.68698 0)
(-0.229643 1.67703 0)
(-0.235389 1.67321 0)
(-0.242078 1.67734 -1.1657e-17)
(-0.249347 1.68999 0)
(-0.257197 1.7122 -6.55183e-18)
(-0.265309 1.74484 1.09224e-18)
(-0.273196 1.78626 2.29472e-17)
(-0.280642 1.83588 0)
(-0.287443 1.89252 -1.16629e-17)
(-0.29349 1.95463 1.82182e-19)
(-0.264931 7.35746 0)
(0.225808 3.49921 6.83162e-16)
(1.18038 5.16735 1.09395e-15)
(-0.184674 2.24859 0)
(-1.27389 7.66643 -3.29601e-16)
(0.305327 3.4628 1.43029e-15)
(-0.0603372 1.74097 -5.89697e-20)
(0.0609318 1.94964 1.0865e-16)
(0.38566 1.96236 -3.69487e-19)
(0.377385 1.90246 -2.95201e-18)
(0.367755 1.84679 2.95018e-18)
(0.357255 1.79862 0)
(0.346381 1.75736 0)
(0.335187 1.72492 3.68001e-19)
(0.324086 1.70178 -1.47155e-18)
(0.313419 1.68738 -5.14584e-18)
(0.303638 1.68257 3.67462e-19)
(0.295055 1.68442 -7.57932e-19)
(0.287946 1.6914 -9.0249e-19)
(0.282481 1.70134 4.04842e-18)
(0.278499 1.71148 3.68724e-19)
(0.275895 1.72074 -2.9482e-18)
(0.274213 1.72421 0)
(0.272822 1.72078 1.18242e-17)
(0.270685 1.71019 1.70709e-21)
(0.265098 1.69145 5.98313e-17)
(0.257991 1.66222 -4.84266e-17)
(0.247894 1.62487 0)
(0.235625 1.58399 5.0691e-17)
(0.217482 1.53607 -1.55391e-16)
(0.193862 1.50143 7.87992e-17)
(0.165368 1.47366 1.04815e-16)
(0.130527 1.46038 -8.94913e-21)
(0.0908986 1.46689 -1.03896e-16)
(0.0479019 1.49574 1.0389e-16)
(0.00240222 1.54952 1.04401e-16)
(-0.0427906 1.62977 -1.04299e-16)
(-0.0608893 1.67274 -2.1403e-16)
(0.127316 3.81585 3.10745e-20)
(0.19929 3.45608 -1.19856e-19)
(0.328731 2.95517 -9.77339e-17)
(0.277887 2.69628 -1.29408e-17)
(0.239013 2.45805 -3.83525e-17)
(0.203756 2.23193 -1.25282e-17)
(0.162666 2.02315 0)
(0.116709 1.84128 2.43218e-17)
(0.0683673 1.69285 -1.20163e-17)
(0.0167375 1.58162 -1.19717e-17)
(-0.0326429 1.50696 6.01427e-18)
(-0.0790275 1.46581 6.03149e-18)
(-0.120704 1.45233 1.20583e-17)
(-0.157259 1.46147 0)
(-0.188478 1.48695 1.19719e-17)
(-0.21444 1.52538 -1.17454e-17)
(-0.234428 1.56911 -1.85946e-19)
(-0.24852 1.614 -3.55456e-17)
(-0.25827 1.65375 2.94734e-18)
(-0.264181 1.68527 -1.46793e-17)
(-0.268582 1.70747 0)
(-0.271666 1.72061 -4.75184e-18)
(-0.273866 1.72641 3.65449e-19)
(-0.275833 1.72282 6.58041e-18)
(-0.278266 1.71465 0)
(-0.28164 1.70345 0)
(-0.286344 1.69195 -1.8282e-19)
(-0.292429 1.68373 -5.66225e-18)
(-0.299896 1.68167 5.85069e-18)
(-0.308525 1.68632 7.31147e-18)
(-0.31816 1.69943 -1.45983e-18)
(-0.328424 1.72277 4.37997e-18)
(-0.338916 1.75565 -1.46142e-18)
(-0.349305 1.79643 -1.16916e-17)
(-0.35913 1.84592 1.16787e-17)
(-0.3682 1.90145 2.62769e-17)
(-0.37608 1.96244 1.16677e-17)
(-0.382651 2.02698 0)
(-0.29838 2.02096 -6.01824e-18)
(-0.202976 2.01662 -3.69829e-22)
(-0.100991 2.01406 6.59659e-18)
(0.00523679 2.01328 2.1977e-18)
(0.11129 2.01422 -2.93406e-18)
(0.213522 2.01691 5.87983e-18)
(0.308195 2.02126 -5.8827e-18)
(0.392162 2.02667 -2.9512e-18)
(1.23915 5.71458 -4.06833e-16)
(0.517782 7.8709 -9.34842e-17)
(-1.52091 1.5776 -1.62735e-16)
(0.185731 3.7363 -6.94092e-16)
(-0.196227 4.64522 -3.43605e-16)
(1.16025 2.99201 9.77533e-17)
(-0.0859105 1.73718 0)
(-0.089458 1.80446 4.28333e-16)
(0.125369 4.04229 1.01117e-15)
(0.171644 3.87866 4.14494e-16)
(-0.063045 4.93396 -4.1674e-16)
(-0.0128549 2.82402 8.91701e-16)
(0.294641 2.95394 0)
(0.286912 2.71514 1.27136e-17)
(0.263368 2.48586 -3.13681e-18)
(0.229153 2.2667 -5.87159e-17)
(0.185947 2.06543 1.22133e-17)
(0.135917 1.88884 0)
(0.0817465 1.7439 2.90979e-21)
(0.0252105 1.6336 -2.99708e-18)
(-0.0302257 1.55744 0)
(-0.0826085 1.5122 -6.00547e-18)
(-0.130505 1.49451 -6.00577e-18)
(-0.172958 1.49808 0)
(-0.209429 1.51863 1.49307e-18)
(-0.239714 1.55152 -1.48585e-18)
(-0.263648 1.58923 1.48819e-18)
(-0.281862 1.62829 2.22401e-17)
(-0.294524 1.66375 0)
(-0.303037 1.69218 2.94633e-18)
(-0.309184 1.7127 -1.47089e-18)
(-0.313832 1.7249 3.67852e-19)
(-0.317154 1.72886 1.10312e-18)
(-0.32014 1.72594 -6.61905e-18)
(-0.323627 1.71866 0)
(-0.32833 1.70829 1.46905e-18)
(-0.33451 1.69836 2.93553e-18)
(-0.342214 1.6927 2.93952e-18)
(-0.35149 1.69118 -1.3075e-21)
(-0.362174 1.69687 -1.46545e-18)
(-0.374137 1.71154 -4.39385e-18)
(-0.386729 1.73563 -2.93227e-18)
(-0.399523 1.7681 -2.92938e-18)
(-0.412113 1.8093 0)
(-0.424233 1.85794 -1.17143e-17)
(-0.435525 1.91228 -1.17036e-17)
(-0.44541 1.97212 -8.76412e-18)
(-0.453739 2.03475 -1.60595e-17)
(-0.460253 2.09948 7.30368e-18)
(-0.387556 2.09381 -5.84262e-18)
(-0.301713 2.08965 0)
(-0.205322 2.08705 2.93321e-18)
(-0.101819 2.08589 2.93764e-18)
(0.00518975 2.08527 -5.86922e-18)
(0.112017 2.08552 5.88421e-18)
(0.215229 2.08648 1.19086e-22)
(0.311099 2.08866 -2.94617e-18)
(0.396467 2.09229 8.84811e-18)
(0.468609 2.09719 -8.89173e-18)
(0.462526 2.0336 1.48213e-18)
(0.454427 1.97118 -1.10991e-18)
(0.444445 1.91319 2.21899e-18)
(0.433148 1.85823 -7.37958e-18)
(0.420672 1.81119 2.76965e-18)
(0.407401 1.77002 0)
(0.39394 1.73772 3.69423e-19)
(0.380637 1.71384 5.17354e-18)
(0.367852 1.69925 -7.38454e-19)
(0.356009 1.69315 1.8446e-18)
(0.345472 1.69354 1.08697e-22)
(0.336497 1.69883 7.44171e-19)
(0.329142 1.70762 -3.69449e-19)
(0.323548 1.7157 2.58651e-18)
(0.319463 1.72413 -8.8715e-18)
(0.316246 1.7267 -3.13383e-22)
(0.312959 1.72445 5.93623e-18)
(0.30803 1.71551 -5.95845e-18)
(0.301279 1.69989 -4.79733e-17)
(0.293456 1.67279 4.83819e-17)
(0.281644 1.63716 0)
(0.265621 1.60168 -9.985e-17)
(0.241635 1.5576 7.55649e-17)
(0.211599 1.53106 -7.67547e-17)
(0.176478 1.50747 0)
(0.136425 1.50031 0)
(0.0911976 1.51366 0)
(0.0413158 1.54969 -1.27096e-17)
(-0.0102107 1.61069 1.252e-20)
(-0.0613015 1.69699 2.02527e-16)
(0.059337 4.01346 -4.54957e-16)
(-0.122402 1.86962 2.14492e-16)
(-0.114022 1.96632 -2.01914e-16)
(0.130262 2.17909 2.56353e-17)
(0.0785364 4.2251 4.86398e-16)
(0.127468 4.06131 4.15188e-16)
(0.151099 3.86572 2.47351e-20)
(0.197712 3.69368 -4.32554e-16)
(0.0920623 3.36331 -3.0141e-16)
(0.316201 3.23049 -2.99641e-16)
(0.294291 3.16267 1.08256e-16)
(0.29558 2.95202 -2.51624e-17)
(0.291885 2.73058 -4.96221e-17)
(0.274987 2.51405 0)
(0.243027 2.30401 4.89982e-17)
(0.200007 2.11096 0)
(0.148563 1.94067 0)
(0.0919158 1.7998 1.20131e-17)
(0.0327789 1.69034 2.99778e-18)
(-0.0257738 1.61259 0)
(-0.0816835 1.56409 5.99157e-18)
(-0.133372 1.5412 2.8312e-22)
(-0.179279 1.53967 -9.72795e-22)
(-0.218912 1.55403 5.9665e-18)
(-0.251611 1.58031 6.71473e-18)
(-0.278267 1.61231 -6.69652e-18)
(-0.298798 1.64576 -1.22536e-17)
(-0.313925 1.6766 3.70483e-19)
(-0.324331 1.70068 -2.222e-18)
(-0.331844 1.71937 7.39502e-19)
(-0.337126 1.72972 2.95573e-18)
(-0.341382 1.73277 -2.21637e-18)
(-0.345758 1.72996 2.95422e-18)
(-0.35095 1.72379 4.68675e-22)
(-0.357293 1.7143 -7.3712e-18)
(-0.365161 1.70714 2.95179e-18)
(-0.37484 1.70245 2.9488e-18)
(-0.386274 1.70207 -4.41184e-18)
(-0.399439 1.71005 5.87869e-18)
(-0.413702 1.72614 5.88695e-18)
(-0.42868 1.75007 0)
(-0.443861 1.7831 1.76386e-17)
(-0.45884 1.82384 2.93739e-18)
(-0.473284 1.8715 2.93029e-18)
(-0.486708 1.92534 0)
(-0.49882 1.98329 0)
(-0.509371 2.04412 8.77289e-18)
(-0.517899 2.10657 3.96483e-22)
(-0.524212 2.1686 -1.45997e-18)
(-0.464709 2.16382 1.46115e-18)
(-0.390454 2.16074 0)
(-0.303149 2.15974 0)
(-0.206143 2.15927 -1.46589e-18)
(-0.102302 2.1592 4.39849e-18)
(0.0049095 2.15922 0)
(0.111879 2.15867 -2.94556e-18)
(0.215374 2.15802 -2.94499e-18)
(0.31197 2.1577 5.89621e-18)
(0.398599 2.15848 -2.95218e-18)
(0.472414 2.16107 8.88596e-18)
(0.531139 2.16534 1.48544e-18)
(0.525315 2.1036 1.48627e-18)
(0.517254 2.04189 2.97216e-18)
(0.507198 1.98179 0)
(0.495361 1.9248 -1.11352e-18)
(0.482057 1.87171 -2.78355e-19)
(0.467707 1.82481 1.66951e-18)
(0.452509 1.7847 -3.70914e-19)
(0.436925 1.75246 -7.41475e-19)
(0.421353 1.72807 -5.9235e-18)
(0.406297 1.71293 1.48119e-18)
(0.392194 1.70575 -3.7043e-18)
(0.379559 1.70451 1.8508e-18)
(0.368461 1.70812 -7.40274e-19)
(0.359202 1.71529 0)
(0.351797 1.72192 0)
(0.345795 1.72857 0)
(0.34078 1.73188 -2.96764e-18)
(0.335797 1.73038 0)
(0.328766 1.72301 9.96941e-23)
(0.321503 1.70779 2.3956e-17)
(0.312487 1.68302 -1.20606e-17)
(0.298726 1.65206 2.43674e-17)
(0.279076 1.62249 7.41061e-17)
(0.252486 1.58548 3.3174e-21)
(0.219363 1.56455 -2.50598e-17)
(0.179844 1.54623 -5.0017e-17)
(0.135987 1.54448 9.92694e-17)
(0.0864472 1.56567 -4.98402e-17)
(0.0326813 1.60816 3.60526e-21)
(-0.0222225 1.67512 2.48195e-17)
(-0.0772255 1.76702 2.3971e-20)
(-0.109832 1.80854 -3.08558e-16)
(0.0730499 4.22835 -4.679e-16)
(0.0199521 4.20135 8.82831e-16)
(1.63843 2.68248 0)
(-0.151775 1.9444 -2.10373e-16)
(0.182126 3.52193 7.75431e-16)
(0.0921325 3.80995 -4.13511e-16)
(0.063603 3.98341 -7.91226e-16)
(-0.128475 2.13953 -6.75106e-17)
(0.177938 2.65471 -6.42819e-17)
(0.0873462 2.171 -2.563e-17)
(-0.149168 2.02245 2.05919e-20)
(0.0328253 4.34219 -4.76554e-16)
(0.02762 4.19248 3.97352e-16)
(-0.528344 2.22902 -1.46194e-18)
(-0.466826 2.227 -1.46119e-18)
(-0.390688 2.22738 0)
(-0.302371 2.22947 -1.46582e-18)
(-0.205226 2.23225 1.46807e-18)
(-0.102009 2.2344 -1.4669e-18)
(0.00425566 2.23492 1.46896e-18)
(0.110382 2.23355 2.94405e-18)
(0.213352 2.23061 -2.94684e-18)
(0.310257 2.22719 5.89842e-18)
(0.397943 2.22487 -8.86786e-18)
(0.473521 2.22424 0)
(0.534684 2.22548 3.82991e-22)
(0.578776 2.22877 0)
(0.572608 2.17068 -8.9222e-18)
(0.564507 2.11135 2.97727e-18)
(0.55438 2.05131 0)
(0.542257 1.99343 0)
(0.528526 1.93788 7.44066e-19)
(0.513116 1.88618 -9.30091e-20)
(0.496354 1.84051 0)
(0.478941 1.80066 -3.71729e-19)
(0.461008 1.76891 3.71633e-19)
(0.443077 1.74461 1.48537e-18)
(0.425662 1.72817 7.41723e-19)
(0.40933 1.71986 1.48423e-18)
(0.394305 1.71759 -7.63997e-23)
(0.380962 1.71943 -2.96796e-18)
(0.369461 1.72409 7.42131e-19)
(0.359813 1.72998 2.97003e-18)
(0.351793 1.73494 7.42774e-19)
(0.345 1.73772 -1.48513e-18)
(0.338338 1.73688 2.97554e-18)
(0.331129 1.73087 -8.94288e-18)
(0.323652 1.71668 -1.19552e-17)
(0.313368 1.69519 6.00134e-18)
(0.298345 1.66948 -1.20988e-17)
(0.277168 1.64383 0)
(0.249772 1.61496 -3.68876e-17)
(0.216785 1.60083 7.45513e-17)
(0.176887 1.58734 0)
(0.130767 1.59346 0)
(0.0788606 1.61887 0)
(0.0241607 1.66687 1.83224e-17)
(-0.0322522 1.73895 6.12583e-21)
(-0.088617 1.83643 -3.87441e-21)
(-0.129321 1.88323 -1.9861e-16)
(-0.104022 3.18525 -4.67153e-16)
(0.0568017 4.41158 5.19333e-20)
(-0.117246 2.54722 3.86971e-16)
(-0.642474 7.83878 0)
(0.232187 2.95528 -2.36495e-17)
(0.273805 2.75581 0)
(0.270664 2.54485 0)
(0.244108 2.34242 1.21201e-17)
(0.203275 2.15701 -2.41626e-17)
(0.153188 1.99345 0)
(0.0971397 1.8569 1.20239e-17)
(0.0384158 1.74871 0)
(-0.0203579 1.67006 -2.9933e-18)
(-0.076886 1.61836 2.99269e-18)
(-0.129275 1.59048 -1.4954e-17)
(-0.176357 1.58311 -1.31641e-21)
(-0.216629 1.5911 -5.96836e-18)
(-0.250351 1.61089 1.19312e-17)
(-0.277923 1.63664 8.93259e-18)
(-0.298495 1.66409 -8.92542e-18)
(-0.314173 1.68983 0)
(-0.325561 1.71054 1.03607e-22)
(-0.333627 1.72631 -4.44961e-18)
(-0.340075 1.73477 0)
(-0.345388 1.73767 0)
(-0.350905 1.73569 1.48158e-18)
(-0.357596 1.73008 4.4431e-18)
(-0.36557 1.72236 -2.96013e-18)
(-0.375355 1.71699 2.95422e-18)
(-0.387364 1.71405 -5.90292e-18)
(-0.401441 1.71531 -1.47699e-18)
(-0.417064 1.7256 -1.18119e-17)
(-0.433899 1.7418 5.89982e-18)
(-0.451495 1.76648 0)
(-0.469204 1.79989 -1.17914e-17)
(-0.486834 1.83946 -5.88221e-18)
(-0.503547 1.88721 0)
(-0.519248 1.93985 5.88008e-18)
(-0.53364 1.99578 -7.89831e-22)
(-0.546412 2.05482 8.79373e-18)
(-0.557309 2.11541 8.78059e-18)
(-0.566226 2.17483 0)
(-0.572986 2.23328 -2.92547e-18)
(0.000660794 4.38267 -4.34979e-16)
(0.0400954 4.41857 -8.93977e-16)
(-0.0294715 7.22063 1.34387e-16)
(-0.166047 2.18519 -1.87037e-16)
(-0.0367415 4.4277 8.06296e-16)
(-0.187215 2.10297 -5.16903e-20)
(0.604147 2.23285 1.48722e-18)
(0.5952 2.17633 7.43983e-18)
(0.584578 2.11901 -5.95653e-18)
(0.572098 2.06126 0)
(0.557801 2.00496 0)
(0.541779 1.95153 0)
(0.524242 1.90126 0)
(0.505327 1.85665 1.4891e-18)
(0.485417 1.81791 -7.44222e-19)
(0.46497 1.78605 3.71957e-19)
(0.444466 1.76204 -2.2317e-18)
(0.424432 1.745 1.48675e-18)
(0.405562 1.73518 7.43131e-19)
(0.38815 1.73152 -1.11498e-18)
(0.372483 1.73211 0)
(0.358508 1.73478 -1.43046e-22)
(0.346474 1.73891 -7.43174e-19)
(0.336421 1.74239 7.4386e-19)
(0.327958 1.74438 1.48811e-18)
(0.320286 1.74336 -1.67398e-18)
(0.313851 1.73695 1.67554e-18)
(0.305819 1.72457 -4.47667e-18)
(0.295085 1.70703 -8.98083e-18)
(0.280766 1.68658 6.0204e-18)
(0.261179 1.66577 0)
(0.235511 1.64322 5.7329e-21)
(0.203528 1.63519 -3.68221e-17)
(0.164729 1.62821 3.05787e-17)
(0.120119 1.6428 -6.12091e-18)
(0.0702901 1.67163 0)
(0.0167343 1.72304 -6.04334e-18)
(-0.0381606 1.79976 8.34147e-17)
(-0.0883642 1.90122 -4.63068e-17)
(-0.142769 1.95696 1.87842e-16)
(-0.166407 2.97052 9.5672e-16)
(-0.000806893 4.54957 4.14407e-20)
(-0.577817 2.28833 -7.32287e-19)
(-0.530151 2.2868 4.39305e-18)
(-0.46588 2.28812 7.31248e-19)
(-0.387711 2.29226 0)
(-0.298631 2.29872 -1.4665e-18)
(-0.20193 2.30581 1.46695e-18)
(-0.10029 2.31092 -2.2044e-18)
(0.0034132 2.31226 -5.14592e-18)
(0.107113 2.30947 5.8875e-18)
(0.208602 2.30337 0)
(0.305263 2.29584 -2.95047e-18)
(0.393939 2.28887 8.86248e-18)
(0.471759 2.28395 -5.91862e-18)
(0.535719 2.28236 -2.96314e-18)
(0.583053 2.28356 4.44609e-18)
(0.611784 2.28536 -5.93978e-18)
(-0.155274 3.37767 9.0597e-16)
(-0.114737 4.32664 -3.68337e-16)
(-0.0728531 4.06245 3.75462e-16)
(-0.0211209 3.82826 7.52257e-16)
(0.0592393 3.58013 3.56995e-16)
(-0.0631031 2.64281 -1.34903e-19)
(-0.2083 2.79536 2.75136e-16)
(-0.382029 2.79264 0)
(-0.134432 2.40326 0)
(0.28284 2.93895 0)
(0.270982 2.74995 5.99815e-18)
(0.257774 2.55899 -1.20745e-17)
(0.233347 2.37217 5.79955e-21)
(0.196515 2.19824 3.62189e-17)
(0.149877 2.04318 -2.41086e-17)
(0.0972091 1.91135 7.26514e-22)
(0.0415018 1.80535 1.19887e-17)
(-0.0146627 1.72587 -2.09562e-17)
(-0.0686974 1.67132 2.99288e-18)
(-0.118985 1.63916 1.196e-17)
(-0.163863 1.62569 -2.98742e-18)
(-0.202756 1.62735 2.98691e-18)
(-0.235075 1.64082 -8.95548e-18)
(-0.261074 1.65984 2.97889e-18)
(-0.281019 1.68165 8.93117e-18)
(-0.295575 1.70276 -5.95086e-18)
(-0.306523 1.72003 5.94868e-18)
(-0.314862 1.73297 2.23048e-18)
(-0.321659 1.74051 5.20333e-18)
(-0.327944 1.74262 -6.68811e-18)
(-0.334599 1.74114 4.45724e-18)
(-0.342474 1.73684 -8.16911e-18)
(-0.352259 1.73133 -5.93772e-18)
(-0.364331 1.72737 5.93353e-18)
(-0.378754 1.72707 2.96265e-18)
(-0.395372 1.73032 -2.96015e-18)
(-0.413712 1.74176 0)
(-0.433333 1.75909 -5.91369e-18)
(-0.453661 1.78458 2.95484e-18)
(-0.474226 1.81693 -5.89716e-18)
(-0.494372 1.85697 -8.84534e-18)
(-0.513729 1.90329 -5.89694e-18)
(-0.531913 1.95427 -1.17622e-17)
(-0.548605 2.00876 2.93508e-18)
(-0.563546 2.06635 -2.93563e-18)
(-0.576812 2.12456 -5.87056e-18)
(-0.588353 2.18173 0)
(-0.598136 2.23823 0)
(-0.60636 2.29121 0)
(-0.0172737 7.43762 0)
(-0.17651 2.02353 -7.26513e-20)
(-0.191292 2.37454 1.01262e-15)
(-0.00051163 4.55715 4.31588e-16)
(0.0317442 4.6118 4.43834e-16)
(0.0203937 4.60775 8.73275e-16)
(-0.114149 2.82859 -4.68652e-16)
(-0.123057 7.27651 -1.15118e-16)
(-0.375044 7.46451 0)
(-0.0977537 2.47784 -5.33103e-16)
(-0.221958 2.28402 -2.17577e-16)
(-0.121835 2.02884 -8.31446e-17)
(-0.0257886 2.44097 -1.39925e-15)
(1.21442 6.22115 4.24858e-16)
(-0.129288 2.79871 3.80927e-16)
(0.10499 7.7666 -6.2007e-17)
(0.618952 2.28379 -2.97078e-18)
(0.608177 2.23311 -7.4276e-19)
(0.596595 2.17826 -2.23291e-18)
(0.58366 2.12297 5.69892e-22)
(0.568965 2.06777 0)
(0.552491 2.01346 0)
(0.534275 1.96184 0)
(0.514365 1.91372 -3.72546e-19)
(0.493197 1.87037 -4.65328e-19)
(0.470937 1.83312 4.65309e-19)
(0.448102 1.80169 -3.72302e-19)
(0.425103 1.77796 9.30353e-19)
(0.402646 1.76033 -1.1168e-18)
(0.381135 1.74952 0)
(0.36121 1.74426 0)
(0.3433 1.74347 0)
(0.327543 1.7446 0)
(0.313598 1.7468 0)
(0.301899 1.74871 0)
(0.292457 1.74895 -3.72047e-19)
(0.284849 1.74651 1.48929e-18)
(0.278145 1.74084 0)
(0.270959 1.73093 -3.72694e-18)
(0.261337 1.71611 6.72313e-18)
(0.248358 1.699 5.99219e-18)
(0.231478 1.68273 0)
(0.208824 1.66932 1.8177e-17)
(0.180175 1.66505 -1.82369e-17)
(0.145934 1.66492 -6.05136e-18)
(0.105531 1.68505 1.21437e-17)
(0.0606742 1.71891 -1.81472e-17)
(0.0118139 1.77428 9.0077e-18)
(-0.0405078 1.85285 -2.36745e-17)
(-0.100072 1.9534 5.82526e-18)
(-0.174733 2.07189 1.7966e-16)
(-0.198436 3.20918 5.08479e-16)
(-0.612571 4.8009 6.83864e-16)
(-0.646113 5.21981 3.32603e-16)
(-0.613481 2.33975 0)
(-0.580802 2.33838 -8.89092e-23)
(-0.529267 2.33951 -1.46454e-18)
(-0.461558 2.3448 -7.32145e-19)
(-0.380941 2.35445 -1.83357e-19)
(-0.291046 2.36695 1.83357e-19)
(-0.195498 2.37947 0)
(-0.0970407 2.38861 0)
(0.0023649 2.39152 2.20682e-18)
(0.101882 2.38698 -5.88649e-18)
(0.200523 2.37642 7.36808e-18)
(0.296439 2.36296 0)
(0.386302 2.35029 -5.90199e-18)
(0.46671 2.3408 5.912e-18)
(0.534157 2.33548 1.47959e-18)
(0.585601 2.33402 1.48045e-18)
(0.61831 2.33475 0)
(0.629297 2.33244 0)
(0.121591 2.7051 0)
(-0.330229 4.38058 3.54204e-16)
(-0.258333 4.08569 0)
(-0.182119 3.81993 -7.39791e-16)
(-0.101931 3.58377 3.72901e-16)
(0.030466 3.30945 6.75914e-16)
(-1.04895 7.66963 -1.0393e-16)
(-0.115657 5.19602 4.13598e-16)
(0.158666 3.03224 1.25455e-17)
(0.21047 2.89101 -9.77693e-17)
(0.233732 2.73002 4.25244e-17)
(0.232552 2.5615 -4.8525e-17)
(0.213518 2.39324 -2.11733e-17)
(0.181488 2.23283 3.02158e-17)
(0.140073 2.08688 6.02482e-18)
(0.0925685 1.96038 -3.00536e-17)
(0.0418102 1.85671 1.80003e-17)
(-0.00941403 1.77659 0)
(-0.0587495 1.7193 -1.49589e-17)
(-0.104181 1.68247 8.97085e-18)
(-0.144574 1.6637 1.49431e-17)
(-0.179573 1.65945 2.98804e-18)
(-0.208319 1.66612 -1.19436e-17)
(-0.230629 1.67936 -5.96751e-18)
(-0.248108 1.69535 0)
(-0.260772 1.71146 0)
(-0.270074 1.72624 -1.49008e-18)
(-0.277436 1.73701 -7.44918e-19)
(-0.283549 1.74334 7.44652e-18)
(-0.290099 1.74589 1.48926e-18)
(-0.298079 1.74515 -5.21089e-18)
(-0.307472 1.74228 3.49111e-22)
(-0.319004 1.73898 0)
(-0.333506 1.73719 0)
(-0.350266 1.73874 -5.944e-18)
(-0.369279 1.74463 8.90964e-18)
(-0.390213 1.75662 -2.96645e-18)
(-0.41235 1.77503 6.25313e-22)
(-0.435205 1.80034 2.9563e-18)
(-0.458262 1.83275 2.95677e-18)
(-0.480904 1.87221 1.77324e-17)
(-0.502801 1.91664 0)
(-0.523336 1.96588 8.83647e-18)
(-0.542429 2.0191 -8.83132e-18)
(-0.559709 2.07417 5.88549e-18)
(-0.575274 2.12987 -5.87373e-18)
(-0.589203 2.18575 5.87341e-18)
(-0.601841 2.23967 0)
(-0.613404 2.29126 0)
(-0.624501 2.33869 -2.93337e-18)
(-0.17776 3.53504 8.87143e-16)
(-0.193333 2.10505 -1.91362e-16)
(-0.399144 5.01617 -3.50775e-16)
(-0.0510676 4.2188 8.59833e-16)
(-0.00362207 4.45846 -3.76176e-20)
(0.0360834 4.70545 8.61463e-16)
(-0.215249 2.18274 2.10387e-16)
(-0.0132112 4.77525 -9.36094e-16)
(0.0237801 4.78835 0)
(0.010273 4.82712 0)
(0.0749764 7.88131 -6.8041e-17)
(0.786989 4.71485 -4.24788e-16)
(-1.04441 7.78374 2.90046e-17)
(-0.112934 2.16399 -8.44615e-16)
(-0.114679 2.22262 -9.63008e-17)
(-0.226413 3.02897 -5.64876e-16)
(0.0308375 7.22049 0)
(-0.00269006 7.42235 -5.97423e-17)
(-0.0975957 2.10717 0)
(-0.0794399 1.99148 3.00175e-18)
(-0.038754 1.89324 5.99016e-18)
(0.00617789 1.81426 2.25058e-18)
(0.0491379 1.75555 3.7621e-19)
(0.088154 1.71644 0)
(0.122485 1.69188 7.53741e-18)
(0.151243 1.68392 -7.54715e-18)
(0.174229 1.68351 3.00138e-18)
(0.192168 1.69107 -5.9849e-18)
(0.205541 1.70302 1.49349e-18)
(0.215315 1.71605 0)
(0.222428 1.72716 2.98206e-18)
(0.228353 1.73597 -1.49016e-18)
(0.235278 1.74219 1.48941e-18)
(0.242913 1.74532 -2.60688e-18)
(0.252745 1.74669 3.02581e-18)
(0.265176 1.74686 6.83649e-23)
(0.280336 1.74613 -1.5829e-18)
(0.297905 1.74632 7.44933e-19)
(0.317816 1.74908 -8.38026e-19)
(0.339624 1.75559 0)
(0.362968 1.76708 3.72635e-19)
(0.3873 1.78438 -1.8635e-19)
(0.412128 1.80796 -7.45452e-19)
(0.436929 1.83795 6.46314e-19)
(0.46108 1.87388 9.31894e-20)
(0.484152 1.91539 -3.72579e-19)
(0.505967 1.9608 0)
(0.526112 2.01035 0)
(0.544471 2.06125 -1.49038e-18)
(0.560946 2.11432 8.1921e-18)
(0.576095 2.16679 -1.49006e-18)
(0.590044 2.21927 0)
(0.603254 2.26893 5.95001e-18)
(0.616675 2.31589 -1.3521e-22)
(-0.011905 7.55497 3.19904e-16)
(-0.635572 2.38057 2.93365e-18)
(-0.619829 2.38215 0)
(-0.582231 2.38265 -7.33525e-19)
(-0.525872 2.38667 7.32655e-19)
(-0.453799 2.39628 1.83327e-18)
(-0.37012 2.41239 -1.46682e-18)
(-0.279341 2.43275 3.67153e-19)
(-0.18563 2.45352 7.34921e-19)
(-0.0918576 2.46911 5.1491e-18)
(0.00116349 2.47422 -7.35451e-18)
(0.0944703 2.46704 -5.89008e-18)
(0.188797 2.44989 5.89477e-18)
(0.283308 2.42807 -7.37198e-19)
(0.374709 2.4074 1.47547e-18)
(0.458447 2.39157 -5.9077e-18)
(0.530275 2.38211 -1.47705e-18)
(0.586616 2.37842 5.91733e-18)
(0.624044 2.37783 0)
(0.639667 2.37515 2.96385e-18)
(0.63083 2.35919 -1.483e-18)
(-0.216787 3.33676 4.6507e-16)
(-0.217375 2.19671 -1.67312e-16)
(-0.0990066 3.98771 -4.27299e-16)
(-0.227652 7.1247 0)
(-0.15487 7.02205 0)
(-0.0462359 6.96544 -1.1051e-16)
(0.0630036 6.97043 -2.76901e-17)
(0.17379 7.02661 -3.45054e-17)
(0.0917642 7.27441 -8.48359e-17)
(0.00986868 7.46757 1.18212e-16)
(-0.0798048 7.60613 6.42799e-17)
(-0.162555 2.55184 0)
(0.127966 7.67066 -6.32707e-17)
(0.712894 4.38233 -9.35083e-21)
(1.44369 4.58078 3.79925e-16)
(1.08672 4.75764 -3.62907e-16)
(0.0169283 4.31951 -4.30324e-16)
(0.0661386 4.57502 0)
(0.108148 4.83718 0)
(-0.242143 2.35819 4.39631e-16)
(-0.178119 3.65807 8.66877e-16)
(-0.110062 7.56767 -8.48557e-17)
(-0.556373 4.39892 3.54382e-16)
(-0.476297 4.06355 -3.66943e-16)
(-0.384171 3.78098 0)
(-0.301123 3.55648 -7.79061e-16)
(-0.191933 3.37024 3.91839e-16)
(-0.138988 3.25884 -5.27816e-16)
(-0.370819 3.02674 -3.22905e-16)
(0.0420822 3.05314 1.02244e-16)
(0.121209 2.95747 -1.13882e-16)
(0.170011 2.84095 4.99831e-17)
(0.196655 2.70517 -4.92862e-17)
(0.20047 2.55745 0)
(0.187006 2.40633 -3.03862e-18)
(0.160392 2.2587 -4.54534e-18)
(0.124549 2.12116 1.81051e-17)
(0.0833427 1.99957 6.01197e-18)
(0.0393086 1.89763 -3.00252e-17)
(-0.00502519 1.81675 1.19912e-17)
(-0.04764 1.75631 1.49638e-17)
(-0.0865943 1.71503 -1.19628e-17)
(-0.121014 1.69084 7.47191e-18)
(-0.149719 1.68046 -7.47059e-18)
(-0.173214 1.68059 -2.98666e-18)
(-0.190859 1.68787 8.95769e-18)
(-0.203898 1.69916 1.49182e-18)
(-0.213612 1.71167 5.96686e-18)
(-0.220799 1.72294 -5.9651e-18)
(-0.226116 1.73172 0)