/*--------------------------------*- C++ -*----------------------------------*\
| =========                 |                                                 |
| \\      /  F ield         | OpenFOAM: The Open Source CFD Toolbox           |
|  \\    /   O peration     | Version:  2212                                  |
|   \\  /    A nd           | Website:  www.openfoam.com                      |
|    \\/     M anipulation  |                                                 |
\*---------------------------------------------------------------------------*/
FoamFile
{
    version     2.0;
    format      ascii;
    arch        "LSB;label=32;scalar=64";
    class       volScalarField;
    location    "0.0251";
    object      p;
}
// * * * * * * * * * * * * * * * * * * * * * * * * * * * * * * * * * * * * * //

dimensions      [1 -1 -2 0 0 0 0];

internalField   nonuniform List<scalar> 
2308
(
607.091
603.886
612.094
619.231
613.141
611.074
611.844
614.22
613.903
629.362
629.495
627.671
624.586
621.101
617.377
613.981
611.271
608.948
610.578
613.015
616.299
620.049
623.736
627.104
628.772
629.047
628.189
626.213
610.999
609.343
623.477
620.502
617.977
616.291
615.751
616.545
618.496
621.282
624.322
626.934
628.661
629.263
628.957
628.356
628.002
628.282
628.402
629.067
629.666
629.43
627.908
625.328
622.142
619.062
616.792
615.658
615.85
617.273
619.617
622.542
625.42
627.451
628.812
629.308
628.719
627.128
624.636
621.534
618.104
614.784
612
628.35
629.121
609.788
611.963
614.934
618.423
621.947
625.031
627.162
627.997
627.653
626.309
624.084
621.458
619.111
617.429
616.756
617.282
618.883
621.249
623.926
626.343
628.107
628.997
629.004
628.493
627.919
607.985
627.694
608.199
609.946
629.742
628.531
628.422
629.116
629.967
630.164
629.004
626.675
623.676
620.539
617.992
616.516
616.249
617.179
619.058
621.52
624.127
626.117
627.532
628.119
627.771
626.553
624.416
621.645
618.562
615.516
612.854
615.43
611.47
610.116
610.837
608.511
609.435
611.191
613.653
616.645
619.79
622.623
624.865
626.119
626.331
625.577
624.101
622.206
620.386
619.004
618.412
618.798
620.074
621.998
624.23
626.345
628.096
629.185
629.494
629.064
628.259
627.478
627.321
628.287
629.689
630.994
614.16
631.995
616.086
616.094
608.65
615.185
613.033
607.685
610.799
628.121
629.929
632.058
633.864
635.068
635.763
632.687
630.133
628.579
628.202
628.805
629.823
630.517
629.995
628.224
625.601
622.681
620.033
618.214
617.446
617.778
619.036
620.885
622.93
624.663
625.883
626.441
626.18
625.179
623.56
621.35
618.718
616.133
613.813
609.219
607.69
612.314
615.252
614.307
612.979
611.55
610.278
609.416
609.142
609.612
610.777
612.617
614.995
617.619
620.105
622.187
623.652
624.297
624.197
623.491
622.475
621.411
620.616
620.357
620.765
621.807
623.33
625.151
627.024
628.799
630.078
630.612
630.317
629.357
628.107
627.145
627.107
612.448
615.64
605.587
619.877
609.053
615.831
609.432
608.47
636.409
633.305
630.389
628.416
627.633
628.091
629.255
630.406
630.655
629.695
627.633
625.081
622.551
620.493
619.281
618.975
619.496
620.589
621.92
623.108
623.933
624.251
624.032
623.369
622.223
620.618
618.681
616.694
614.831
611.911
614.527
615.215
616.086
615.415
614.287
612.954
611.622
610.589
610.001
610.014
610.642
611.85
613.592
615.645
617.711
619.539
620.971
621.9
622.293
622.327
622.174
621.988
621.96
622.226
622.817
623.736
624.953
626.472
628.225
630.042
631.577
632.435
632.402
631.496
629.958
628.285
627.066
626.809
628.107
630.079
632.773
635.41
637.328
638.263
638.524
638.807
606.769
611.376
611.97
615.269
608.842
611.602
613.214
610.552
614.178
614.472
609.51
611.919
616.842
616.505
615.631
614.439
613.139
611.942
611.056
610.623
610.733
611.351
612.484
613.986
615.613
617.149
618.456
619.478
620.225
620.83
621.445
622.131
622.913
623.751
624.636
625.513
626.525
627.825
629.573
631.599
633.455
634.762
635.166
634.547
632.962
630.702
628.294
626.313
625.298
627.585
630.184
633.374
636.643
639.325
640.761
640.851
640.298
639.958
640.36
639.627
637.423
634.185
630.855
628.347
627.095
627.286
628.487
630.013
630.975
630.807
629.491
627.379
625.082
622.98
621.411
620.542
620.315
620.575
621.074
621.579
621.886
621.992
621.762
621.306
620.593
619.623
618.439
617.142
615.839
613.707
611.973
609.795
610.391
613.497
613.179
614.004
614.655
613.743
616.555
616.823
617.455
617.465
616.904
615.882
614.632
613.332
612.195
611.363
610.988
611.103
611.687
612.7
613.929
615.179
616.328
617.346
618.297
619.344
620.594
622.046
623.537
624.923
626.027
626.838
627.65
628.875
630.694
632.953
635.244
637.155
638.199
638.029
636.561
633.871
630.322
626.715
623.85
622.243
625.446
629.265
633.445
637.614
641.089
643.126
643.377
642.283
640.906
640.038
640.213
641.183
641.77
641.406
639.248
635.709
631.827
628.673
626.899
626.754
627.901
629.663
631.037
631.438
630.732
629.179
627.174
625.203
623.483
622.17
621.288
620.746
620.409
620.184
619.989
619.765
619.505
619.204
618.87
618.484
618.014
617.435
616.737
614.598
613.302
612.691
610.328
613.53
614.12
613.082
612.255
609.85
613.288
609.542
611.223
612.36
611.415
622.188
626.629
631.906
637.336
642.006
645.113
645.904
644.604
642.429
640.499
639.58
639.518
639.524
638.472
641.544
643.078
643.542
641.651
637.91
633.496
629.675
627.347
626.79
627.759
629.507
630.979
631.592
631.215
630.076
628.498
626.756
625.093
623.559
622.201
621.005
619.951
619.061
618.356
617.812
617.462
617.257
617.213
617.299
617.44
617.52
617.435
615.933
612.466
612.564
618.137
611.098
617.73
618.199
617.979
617.201
616.028
614.638
613.298
612.135
611.342
611.015
611.171
611.762
612.677
613.704
614.727
615.731
616.829
618.216
619.966
621.993
624.094
625.904
627.06
627.686
628.313
629.373
631.167
633.594
636.293
638.823
640.696
641.231
640.006
636.992
632.723
627.97
623.702
620.643
619.463
611.492
612.279
611.779
611.041
610.621
612.739
635.554
640.39
643.135
644.685
643.774
640.338
635.736
631.447
628.609
627.59
628.176
629.602
630.784
631.266
630.912
629.939
628.683
627.348
625.954
624.47
622.912
621.307
619.732
618.306
617.146
616.298
615.78
615.579
615.711
616.134
616.742
617.378
617.863
617.123
612.012
611.499
619.801
623.387
628.724
634.966
640.892
645.45
647.664
646.882
644.284
641.361
639.297
638.38
638.24
637.564
635.009
630.155
612.232
609.508
610.323
611.249
612.393
610.975
611.563
610.289
619.631
617.898
618.73
618.827
618.262
617.186
615.797
614.236
612.831
611.694
610.997
610.813
611.111
611.79
612.693
613.674
614.738
616.026
617.715
619.866
622.361
624.857
626.818
627.851
628.175
628.495
629.276
630.808
633.168
636.15
639.288
641.871
643.011
642.243
639.601
635.353
630.07
625.022
620.879
618.675
618.084
612.077
615.061
610.879
610.195
611.561
611.141
611.583
612.011
612.901
610.337
612.278
618.079
610.197
607.687
615.034
612.438
623.242
631.041
637.697
641.985
644.372
644.417
641.991
637.977
633.81
630.732
629.266
629.292
629.902
630.418
630.37
629.744
628.768
627.743
626.836
625.919
624.796
623.335
621.624
619.773
617.976
616.436
615.276
614.536
614.246
614.438
615.049
615.968
617.025
618.008
618.691
612.075
605.764
605.523
618.885
621.283
625.508
631.446
637.9
643.649
647.387
648.099
645.8
642.497
639.462
637.575
637.149
637.124
635.74
631.314
623.143
613.174
612.68
607.676
608.411
609.295
610.365
611.631
610.043
608.746
616.472
618.072
619.114
619.432
619.026
618.018
616.61
614.989
613.319
611.95
610.968
610.52
610.628
611.178
612.063
613.148
614.437
615.995
617.973
620.454
623.256
625.951
627.827
628.515
628.441
628.323
628.647
629.679
631.64
634.515
637.935
641.157
643.163
643.078
640.949
637.312
632.726
627.652
622.823
619.601
617.711
617.656
611.614
616.485
606.732
608.85
608.858
608.909
614.249
610.561
609.967
610.545
612.731
604.297
609.915
609.342
619.502
612.037
611.712
612.115
618.952
617.862
616.54
615.2
614.092
613.411
613.279
613.74
614.746
616.223
618.059
620.034
621.898
623.473
624.504
625.017
625.325
625.767
626.572
627.722
628.914
629.875
630.475
630.944
631.804
633.548
636.325
639.475
642.165
643.746
643.138
640.212
634.843
626.963
617.188
606.338
612.21
617.439
619.857
622.75
626.975
632.455
637.943
642.335
644.579
644.236
642.049
639.25
637.208
636.41
636.64
636.829
634.21
626.471
612.609
596.807
587.218
611.738
617.734
608.982
611.925
611.621
611.343
611.161
611.124
611.722
612.194
612.422
619.639
612.048
603.26
604.281
604.224
607.337
607.49
607.722
613.607
610.658
612.526
606.173
606.757
607.528
608.455
609.527
612.364
609.613
614.535
616.489
618.179
619.344
619.782
619.458
618.49
617.063
615.382
613.619
612.002
610.842
610.221
610.207
610.738
611.74
613.083
614.696
616.647
619.026
621.791
624.814
627.468
629.022
629.218
628.678
628.031
627.735
628.064
629.341
631.672
634.819
638.19
640.921
641.991
641.174
638.787
635.217
630.658
625.571
621.379
618.057
617.174
615.246
604.599
603.804
603.296
610.949
602.561
615.668
611.355
602.292
611.823
609.544
609.695
608.851
604.706
606.277
605.914
612.312
605.293
612.278
612.486
607.439
602.085
602.98
612.275
611.773
611.116
619.032
617.655
616.024
614.504
613.302
612.638
612.644
613.34
614.641
616.411
618.435
620.452
622.209
623.29
623.649
623.462
623.132
623.072
623.644
625.008
626.951
629.141
631.284
633.222
635.031
636.758
638.348
639.815
641.04
641.824
641.769
639.82
634.48
625.884
613.718
601.705
586.148
607.958
607.012
606.163
605.463
604.956
604.658
607.691
612.019
618.632
607.397
604.399
612.371
612.112
605.433
606.733
608.13
611.669
608.989
615.227
611.091
611.872
612.278
612.23
604.538
619.56
622.548
626.221
630.272
635.705
642.463
647.743
649.335
648.259
644.741
640.964
637.019
636.104
636.482
636.953
637.23
631.553
617.271
595.047
571.193
557.302
561.183
611.501
611.159
610.843
610.617
610.505
610.473
612.44
616.841
609.35
603.198
602.362
615.524
612.209
611.718
608.903
610.89
605.808
607.887
611.212
614.826
611.883
612.286
608.631
611.421
612.975
614.779
616.588
618.247
619.442
619.894
619.578
618.614
617.164
615.427
613.606
611.864
610.532
609.802
609.761
610.408
611.645
613.357
615.429
617.866
620.698
623.816
626.899
629.353
630.389
630.072
629.057
627.883
626.846
626.35
626.746
628.217
630.644
633.584
636.408
638.555
639.38
639.017
637.207
633.736
628.719
623.62
618.219
616.1
612.434
617.493
612.339
608.678
611.838
605.816
612.245
605.971
612.916
604.552
612.747
612.033
611.731
616.502
607.989
607.028
606.097
605.255
604.56
604.066
603.81
603.826
604.675
604.108
612.893
601.671
617.769
610.863
620.339
620.097
619.038
617.444
615.634
613.936
612.691
612.088
612.275
613.245
614.854
616.87
619.013
621.022
622.354
622.865
622.522
621.614
620.63
620.046
620.307
621.843
624.593
628.263
632.268
635.974
638.697
639.777
639.639
639.023
638.713
639.634
641.207
641.042
636.921
629.07
616.161
606.702
598.16
587.988
612.3
611.813
611.127
610.456
611.699
611.824
601.46
601.907
602.932
607.931
605.68
606.941
608.008
609.026
618.445
617.737
607.752
604.494
602.791
605.385
612.075
611.777
605.477
608.187
608.644
610.632
612.056
609.864
609.111
606.197
607.132
610.466
614.058
612.519
611.477
601.834
607.715
608.857
610.349
610.298
608.783
612.01
611.581
611.161
610.776
610.45
610.213
610.076
610.007
609.988
610.037
615.865
607.9
608.224
611.54
610.706
608.879
611.71
613.295
615.05
616.807
618.35
619.453
619.828
619.458
618.456
616.967
615.177
613.3
611.561
610.082
609.324
609.313
610.122
611.677
613.845
616.474
619.475
622.791
626.218
629.301
631.402
631.846
631.047
629.625
627.987
626.284
624.871
624.318
624.755
626.197
628.344
630.778
633.252
635.621
637.283
637.575
635.786
631.699
626.351
620.213
618.487
612.76
622.36
603.62
604.083
609.931
613.81
617.23
621.073
625.73
630.546
634.871
636.327
635.199
634.389
633.025
633.634
637.591
639.671
639.795
638.094
627.562
606.376
578.313
546.475
528.2
540.431
571.15
603.482
611.145
604.706
605.132
606.772
608.848
612.432
613.269
609.401
613.171
607.682
606.611
605.65
604.791
604.058
603.53
603.264
603.323
603.738
604.488
606.574
605.584
605.467
618.229
606.066
603.756
611.923
606.38
608.715
610.096
606.606
608.422
606.591
609.619
613.283
609.197
609.226
607.316
605.958
604.505
603.151
602.117
601.587
601.568
603
612.727
614.469
612.187
612.208
611.801
611.131
610.449
609.989
611.068
614.753
611.953
607.743
612.436
612.138
611.763
611.355
610.954
610.587
610.279
610.055
609.923
609.858
609.844
609.867
609.874
610.54
613.323
608.236
609.529
611.733
614.893
610.266
611.875
613.565
615.334
617.032
618.476
619.44
619.667
619.193
618.121
616.579
614.738
612.826
611.059
609.641
608.764
608.848
609.869
611.763
614.415
617.618
621.214
625.019
628.687
631.707
633.34
633.245
632.031
630.315
628.334
626.101
623.929
622.326
621.741
622.089
623.268
625.101
627.538
630.661
634.057
636.157
636.442
633.997
628.946
622.711
618.666
612.468
622.368
580.78
611.425
651.175
626.444
630.426
637.041
645.815
648.474
648.356
648.487
647.481
644.631
643.496
645.606
649.487
648.032
645.489
647.365
645.008
668.699
655.397
606.927
550.683
508.205
479.076
544.913
613.064
603.855
537.099
580.777
595.417
615.409
625.349
635.919
642.202
643.342
641.176
637.469
635.915
637.365
640.23
642.305
642.33
638.958
633.33
627.284
622.079
618.587
617.001
617.069
618.174
619.792
621.363
622.348
622.426
621.48
619.735
617.456
615.241
613.351
612.096
611.702
612.237
613.511
615.398
617.286
619.056
620.286
620.609
619.958
618.124
615.624
608.426
610.134
612.605
605.923
604.324
612.393
602.885
607.755
606.943
616.521
616.671
604.981
608.468
607.076
604.168
611.188
611.472
605.73
607.997
605.894
607.521
608.715
607.389
606.885
610.398
608.842
608.914
613.593
609.559
607.083
608.134
606.865
606.871
606.352
611.323
605.358
606.702
616.803
605.619
604.428
603.544
603.043
602.976
603.284
603.879
604.665
605.542
606.498
607.527
607.316
607.65
612.134
602.128
601.782
601.888
602.474
603.505
604.836
606.296
607.699
606.533
612.148
611.763
612.529
613.016
613.251
611.328
609.127
609.563
608.272
610.977
609.371
611.332
611.801
612.008
611.726
611.108
610.443
609.999
609.907
610.837
616.345
606.094
608.094
610.41
613.108
615.915
618.396
620.211
620.903
620.482
619.131
617.217
615.217
613.333
611.887
611.439
612.034
613.535
615.64
618.099
620.308
621.89
622.444
621.897
620.387
618.253
616.082
614.507
614.12
615.632
619.775
626.324
634.301
641.771
645.443
644.246
640.239
635.483
633.188
635.083
640.371
646.434
649.072
647.535
640.262
632.14
627.104
625.318
640.572
700.903
607.436
607.503
482.145
558.103
588.364
605.801
611.811
614.271
619.396
630.297
635.145
635.102
633.099
631.798
627.064
618.897
618.242
623.986
623.592
615.503
589.735
526.572
525.316
534.595
479.324
419.635
508.669
415.914
308.688
165.961
610.142
612.195
611.915
611.594
611.259
610.932
610.626
610.38
610.206
610.104
610.062
610.05
610.097
610.158
613.131
612.948
612.713
612.42
609.166
610.512
612.106
613.837
615.603
617.254
618.6
619.422
619.502
618.906
617.738
616.132
614.255
612.318
610.544
609.133
608.304
608.404
609.631
611.842
614.918
618.658
622.807
627.049
630.896
633.802
634.974
634.429
632.92
631.027
628.83
626.223
623.468
621.055
619.369
618.702
618.965
620.125
622.367
625.811
630.003
633.92
635.894
636.205
634.284
631.486
630.233
629.901
633.556
648.725
749.406
389.849
608.202
606.321
610.38
610.525
608.863
605.872
615.093
614.56
607.099
607.521
608.409
607.305
614.11
602.8
602.284
602.07
602.238
602.833
603.825
605.105
606.533
607.91
613.551
608.11
611.06
611.919
612.719
613.293
607.441
606.204
604.688
603.54
602.969
602.913
603.269
603.912
604.688
605.573
606.498
614.974
607.717
607.149
610.432
606.758
607.159
607.871
607.431
603.983
605.033
606.393
608.189
610.471
613.086
615.931
618.508
620.394
621.119
620.671
619.239
617.226
615.15
613.256
611.688
611.3
612.013
613.662
615.959
618.505
620.715
622.151
622.442
621.583
619.714
617.19
614.614
612.668
611.96
613.352
617.974
625.472
634.959
643.894
647.77
645.692
640.026
634.059
630.891
632.521
639.082
647.836
654.379
655.059
651.311
646.162
644.102
646.071
675.311
754.002
186.355
610.425
611.382
611.765
611.62
611.062
610.435
609.998
609.958
610.235
612.445
609.401
607.549
608.305
609.412
610.509
613.481
613.496
613.261
612.955
612.61
614.421
608.135
611.997
611.853
611.667
611.462
611.256
611.057
610.882
610.743
610.655
610.605
610.578
610.584
610.633
610.701
610.786
611.352
19.4772
21.6962
20.672
21.5982
20.7365
20.7326
20.6346
20.7773
20.8421
21.2688
21.9803
22.6373
22.9271
23.3336
24.6901
26.4083
27.3176
26.7454
25.3554
23.7823
22.6702
22.3421
22.2483
40.4624
38.1681
20.1872
18.5987
19.1538
15.9534
21.9511
609.489
610.789
612.342
614.059
615.804
617.413
618.697
619.424
619.406
618.713
617.455
615.777
613.862
611.904
610.123
608.719
607.945
608.027
609.421
611.836
615.237
619.404
623.986
628.546
632.55
635.363
636.124
635.299
633.639
631.642
629.323
626.482
623.341
620.365
617.924
616.321
615.784
616.37
618.353
621.946
626.582
631.247
635.16
637.646
638.753
640.21
643.72
645.373
645.272
653.188
782.718
276.962
24.3028
607.694
607.419
609.333
608.974
613.01
348.096
560.984
602.056
602.536
27.6558
4864.83
4697
4190.08
4828.23
4661.07
4201.29
4265.28
4357.76
4273.29
4332.59
4366.56
4269.31
4264.68
4196.5
4266.03
4074.98
4125.05
3990.48
4033.5
4037.88
4000.18
4132.29
4090.65
4100.51
4115.55
4235.88
4042.57
4294.47
4035.03
476.574
29.7781
4283.57
3860.8
626.794
583.032
651.966
651.095
643.804
649.045
637.108
640.237
628.444
633.015
619.205
623.672
614.245
615.919
615.193
614.099
620.122
617.282
626.773
623.42
632.049
629.704
635.881
634.097
635.86
636.726
629.138
633.107
619.748
624.501
611.772
615.366
607.892
609.234
608.533
607.733
611.771
609.994
615.679
613.74
618.663
617.376
619.393
619.381
617.348
618.639
614.11
615.799
610.909
612.433
608.535
609.612
606.671
607.574
604.862
605.77
603.325
604.005
602.906
602.913
604.678
603.421
608.156
606.358
611.088
609.919
611.555
611.594
610.369
611.005
610.02
609.979
611.063
611.482
611.504
611.434
611.453
611.422
611.421
611.449
611.431
611.51
611.477
611.615
611.559
611.733
611.672
611.983
611.792
610.847
612.028
611.888
611.911
612.496
612.346
613.045
612.747
613.497
613.289
613.433
613.611
611.983
612.838
610.119
611.063
607.946
609.111
605.206
606.597
603.036
603.976
602.283
602.469
602.825
602.42
604.224
603.448
606.489
605.194
610.347
608.197
615.739
612.906
620.451
618.419
620.855
621.289
617.35
619.412
613.155
615.204
611.287
611.757
613.679
611.958
618.682
616.08
622.176
620.826
621.444
622.405
616.729
619.428
611.782
613.944
612.208
610.856
624.844
616.821
644.62
635.03
646.629
648.918
633.544
640.229
629.773
629.285
646.343
636.392
658.112
655.244
651.875
655.326
654.352
650.958
633.387
611.613
611.847
608.548
612.778
3315.15
607.597
3332.17
612.182
611.924
611.97
611.97
611.986
611.991
611.998
611.995
612.185
609.508
608.306
607.595
607.979
608.513
608.058
607.932
613.748
612.992
613.46
612.813
612.475
612.698
611.625
611.599
611.629
610.277
610.418
610.321
609.437
611.704
611.945
614.794
610.563
612.607
605.136
608.954
615.939
615.092
613.222
608.941
608.819
607.471
613.362
608.981
604.95
613.52
607.741
612.129
616.435
616.318
611.229
610.611
611.231
608.787
606.899
611.461
610.232
614.288
614.786
611.832
612.096
606.826
608.361
603.364
609.077
612.625
612.414
601.868
612.214
619.421
618.971
620.022
601.517
607.831
612.067
610.386
610.418
611.835
628.83
628.379
603.338
)
;

boundaryField
{
    wall
    {
        type            zeroGradient;
    }
    outlet
    {
        type            fixedValue;
        value           uniform 1e-05;
    }
    inlet
    {
        type            fixedValue;
        value           uniform 612;
    }
    frontAndBackPlanes
    {
        type            empty;
    }
}


// ************************************************************************* //
