/*--------------------------------*- C++ -*----------------------------------*\
| =========                 |                                                 |
| \\      /  F ield         | OpenFOAM: The Open Source CFD Toolbox           |
|  \\    /   O peration     | Version:  2212                                  |
|   \\  /    A nd           | Website:  www.openfoam.com                      |
|    \\/     M anipulation  |                                                 |
\*---------------------------------------------------------------------------*/
FoamFile
{
    version     2.0;
    format      ascii;
    arch        "LSB;label=32;scalar=64";
    class       volScalarField;
    location    "0.0443";
    object      s;
}
// * * * * * * * * * * * * * * * * * * * * * * * * * * * * * * * * * * * * * //

dimensions      [0 0 0 0 0 0 0];

internalField   nonuniform List<scalar> 
24240
(
5.50785e-148
5.72185e-148
5.71919e-148
5.54338e-148
5.68237e-148
5.69746e-148
5.72088e-148
5.65734e-148
5.49601e-148
5.81999e-148
5.49856e-148
5.80115e-148
5.51709e-148
5.71386e-148
5.37325e-148
5.70798e-148
5.44067e-148
5.62597e-148
5.72485e-148
5.4296e-148
1.48563e-144
1.54233e-144
1.54234e-144
1.494e-144
1.53231e-144
1.53558e-144
1.54172e-144
1.52434e-144
1.48196e-144
1.56883e-144
1.4822e-144
1.56415e-144
1.48696e-144
1.54024e-144
1.44867e-144
1.53928e-144
1.46654e-144
1.51635e-144
1.54298e-144
1.4633e-144
2.49474e-141
2.58802e-141
2.58912e-141
2.50636e-141
2.57219e-141
2.57591e-141
2.58602e-141
2.55652e-141
2.48759e-141
2.63201e-141
2.48719e-141
2.62508e-141
2.4946e-141
2.58408e-141
2.43114e-141
2.58377e-141
2.46103e-141
2.54389e-141
2.58843e-141
2.45513e-141
2.44872e-138
2.53822e-138
2.5402e-138
2.45742e-138
2.52359e-138
2.52516e-138
2.53496e-138
2.5058e-138
2.44063e-138
2.58043e-138
2.43942e-138
2.57476e-138
2.44599e-138
2.53354e-138
2.38448e-138
2.5347e-138
2.41409e-138
2.49422e-138
2.53766e-138
2.4078e-138
1.84367e-135
1.90933e-135
1.91133e-135
1.84782e-135
1.89892e-135
1.89815e-135
1.90554e-135
1.88352e-135
1.83664e-135
1.93984e-135
1.83506e-135
1.93665e-135
1.83932e-135
1.90472e-135
1.79354e-135
1.90689e-135
1.81648e-135
1.87541e-135
1.9078e-135
1.81133e-135
9.8018e-133
1.01409e-132
1.01532e-132
9.8095e-133
1.00884e-132
1.0072e-132
1.0112e-132
9.99529e-133
9.75927e-133
1.0294e-132
9.74718e-133
1.02841e-132
9.76541e-133
1.01087e-132
9.52449e-133
1.01282e-132
9.65237e-133
9.95561e-133
1.01255e-132
9.62244e-133
3.82034e-130
3.94817e-130
3.95295e-130
3.81674e-130
3.9285e-130
3.91618e-130
3.93245e-130
3.88744e-130
3.80151e-130
4.00261e-130
3.79523e-130
4.00227e-130
3.80014e-130
3.93125e-130
3.70697e-130
3.9426e-130
3.76063e-130
3.87331e-130
3.9382e-130
3.74793e-130
9.86383e-128
1.01814e-127
1.01916e-127
9.83456e-128
1.01318e-127
1.00813e-127
1.01263e-127
1.00124e-127
9.80895e-128
1.03038e-127
9.78835e-128
1.03143e-127
9.79404e-128
1.01228e-127
9.55477e-128
1.01638e-127
9.70795e-128
9.98002e-128
1.01431e-127
9.67289e-128
1.19788e-125
1.23476e-125
1.23542e-125
1.1915e-125
1.22871e-125
1.21981e-125
1.22585e-125
1.21246e-125
1.19039e-125
1.24669e-125
1.1873e-125
1.2497e-125
1.18695e-125
1.22523e-125
1.15795e-125
1.23195e-125
1.17905e-125
1.20911e-125
1.2282e-125
1.17451e-125
1.52749e-125
1.55497e-125
1.52978e-125
1.47907e-125
1.53709e-125
1.47671e-125
1.49403e-125
1.49337e-125
1.51064e-125
1.51668e-125
1.49771e-125
1.54932e-125
1.48316e-125
1.48722e-125
1.44226e-125
1.52885e-125
1.52376e-125
1.49973e-125
1.51075e-125
1.51337e-125
2.08777e-125
2.14105e-125
2.10063e-125
2.15783e-125
2.10127e-125
2.13971e-125
2.15855e-125
2.14221e-125
2.15093e-125
2.25018e-125
2.13111e-125
2.21571e-125
2.15928e-125
2.11094e-125
2.13475e-125
2.16155e-125
2.13684e-125
2.1288e-125
2.10544e-125
2.13925e-125
2.64397e-125
2.67624e-125
2.64817e-125
2.68179e-125
2.61335e-125
2.58059e-125
2.58375e-125
2.55521e-125
2.59144e-125
2.74019e-125
2.70209e-125
2.64726e-125
2.62713e-125
2.64161e-125
2.61347e-125
2.66495e-125
2.558e-125
2.68234e-125
2.66044e-125
2.61053e-125
2.91096e-125
3.08161e-125
2.98287e-125
3.04688e-125
2.96928e-125
3.02638e-125
3.09226e-125
3.02661e-125
3.02957e-125
3.02121e-125
3.01618e-125
3.00816e-125
2.93695e-125
2.95295e-125
2.86732e-125
2.9845e-125
3.00168e-125
2.95074e-125
2.93041e-125
2.93753e-125
3.29958e-125
3.37565e-125
3.4663e-125
3.4556e-125
3.38973e-125
3.48817e-125
3.41355e-125
3.45102e-125
3.43393e-125
3.33195e-125
3.34132e-125
3.3159e-125
3.333e-125
3.24739e-125
3.30159e-125
3.28414e-125
3.32793e-125
3.32735e-125
3.32122e-125
3.35608e-125
3.41733e-125
3.49715e-125
3.50476e-125
3.5486e-125
3.50587e-125
3.45292e-125
3.46313e-125
3.54561e-125
3.44608e-125
3.50633e-125
3.41096e-125
3.462e-125
3.58313e-125
3.46189e-125
3.39294e-125
3.60265e-125
3.41911e-125
3.43526e-125
3.46417e-125
3.61867e-125
3.64062e-125
3.68141e-125
3.72844e-125
3.60711e-125
3.64198e-125
3.63262e-125
3.72091e-125
3.65461e-125
3.53802e-125
3.60981e-125
3.66117e-125
3.72873e-125
3.64766e-125
3.67847e-125
3.77367e-125
3.67158e-125
3.73408e-125
3.60472e-125
3.61975e-125
3.63641e-125
3.24101e-125
3.37856e-125
3.28649e-125
3.43415e-125
3.35652e-125
3.46492e-125
3.42321e-125
3.35504e-125
3.37511e-125
3.39797e-125
3.33773e-125
3.44315e-125
3.47895e-125
3.46471e-125
3.3711e-125
3.44541e-125
3.4793e-125
3.31364e-125
3.50859e-125
3.39363e-125
3.25657e-125
3.39957e-125
3.33975e-125
3.34173e-125
3.30349e-125
3.39839e-125
3.38786e-125
3.32825e-125
3.3744e-125
3.24702e-125
3.31984e-125
3.40937e-125
3.3257e-125
3.5068e-125
3.42605e-125
3.4888e-125
3.52747e-125
3.38803e-125
3.4607e-125
3.46668e-125
2.75121e-125
2.74767e-125
2.69006e-125
2.78046e-125
2.83331e-125
2.82069e-125
2.79028e-125
2.68734e-125
2.79861e-125
2.75284e-125
2.78987e-125
2.83161e-125
2.78623e-125
2.79656e-125
2.88343e-125
2.84785e-125
2.81622e-125
2.88958e-125
2.86013e-125
2.9279e-125
2.30545e-125
2.33658e-125
2.31474e-125
2.295e-125
2.38742e-125
2.32104e-125
2.46528e-125
2.31661e-125
2.46057e-125
2.41533e-125
2.36448e-125
2.45719e-125
2.32588e-125
2.43545e-125
2.38628e-125
2.34114e-125
2.44709e-125
2.46719e-125
2.38468e-125
2.53352e-125
8.22565e-146
8.54242e-146
8.54561e-146
8.27827e-146
8.48813e-146
8.51356e-146
8.54614e-146
8.44765e-146
8.20687e-146
8.69752e-146
8.20917e-146
8.66708e-146
8.23786e-146
8.53832e-146
8.02655e-146
8.52855e-146
8.11764e-146
8.40163e-146
8.55072e-146
8.10022e-146
2.69325e-142
2.79494e-142
2.79723e-142
2.70799e-142
2.77829e-142
2.78486e-142
2.79526e-142
2.76264e-142
2.68613e-142
2.84545e-142
2.68606e-142
2.83641e-142
2.69491e-142
2.79343e-142
2.62667e-142
2.79156e-142
2.65618e-142
2.74852e-142
2.7972e-142
2.64997e-142
4.99762e-139
5.18215e-139
5.18841e-139
5.01957e-139
5.15319e-139
5.16131e-139
5.18027e-139
5.11924e-139
4.98223e-139
5.27421e-139
4.98043e-139
5.25961e-139
4.99552e-139
5.17795e-139
4.87054e-139
5.17735e-139
4.92553e-139
5.09474e-139
5.18459e-139
4.91302e-139
5.2874e-136
5.47793e-136
5.48642e-136
5.30438e-136
5.44923e-136
5.45294e-136
5.47281e-136
5.40788e-136
5.26865e-136
5.57276e-136
5.26494e-136
5.56e-136
5.27925e-136
5.47135e-136
5.1487e-136
5.47406e-136
5.20782e-136
5.3838e-136
5.47817e-136
5.19346e-136
4.11551e-133
4.25976e-133
4.26738e-133
4.12305e-133
4.23871e-133
4.23692e-133
4.25248e-133
4.20189e-133
4.09869e-133
4.33029e-133
4.09428e-133
4.32298e-133
4.10376e-133
4.25184e-133
4.00331e-133
4.25703e-133
4.05111e-133
4.18456e-133
4.25722e-133
4.03898e-133
2.25207e-130
2.32861e-130
2.33309e-130
2.25272e-130
2.31771e-130
2.31374e-130
2.32247e-130
2.2949e-130
2.24162e-130
2.36485e-130
2.23835e-130
2.3626e-130
2.24245e-130
2.32232e-130
2.18804e-130
2.32709e-130
2.21575e-130
2.28623e-130
2.32539e-130
2.20851e-130
8.76099e-128
9.04841e-128
9.06545e-128
8.74769e-128
9.00769e-128
8.97792e-128
9.01371e-128
8.90774e-128
8.715e-128
9.17638e-128
8.69863e-128
9.17615e-128
8.70925e-128
9.01311e-128
8.49914e-128
9.04061e-128
8.61671e-128
8.87715e-128
9.02623e-128
8.58611e-128
2.23186e-125
2.30217e-125
2.30592e-125
2.2238e-125
2.292e-125
2.28002e-125
2.28991e-125
2.26349e-125
2.2187e-125
2.33038e-125
2.21354e-125
2.33303e-125
2.21458e-125
2.28959e-125
2.16131e-125
2.29934e-125
2.19485e-125
2.25664e-125
2.29354e-125
2.18655e-125
2.65903e-123
2.73894e-123
2.74183e-123
2.6429e-123
2.72663e-123
2.70592e-123
2.71914e-123
2.68876e-123
2.64149e-123
2.7655e-123
2.63401e-123
2.77273e-123
2.6328e-123
2.71822e-123
2.56937e-123
2.73386e-123
2.61541e-123
2.68188e-123
2.72411e-123
2.6049e-123
3.37908e-123
3.43895e-123
3.3841e-123
3.27154e-123
3.39973e-123
3.26712e-123
3.30603e-123
3.30375e-123
3.34179e-123
3.35421e-123
3.3131e-123
3.42644e-123
3.28017e-123
3.29057e-123
3.18981e-123
3.38224e-123
3.37061e-123
3.31706e-123
3.34083e-123
3.34795e-123
4.60961e-123
4.72824e-123
4.63959e-123
4.76328e-123
4.63862e-123
4.72404e-123
4.76638e-123
4.72963e-123
4.75048e-123
4.96694e-123
4.70712e-123
4.89232e-123
4.76673e-123
4.66107e-123
4.71121e-123
4.77153e-123
4.71694e-123
4.69901e-123
4.64922e-123
4.72326e-123
5.81174e-123
5.883e-123
5.82253e-123
5.89499e-123
5.74488e-123
5.67176e-123
5.67982e-123
5.61622e-123
5.69793e-123
6.02433e-123
5.94045e-123
5.81736e-123
5.77757e-123
5.80786e-123
5.74574e-123
5.85833e-123
5.62226e-123
5.89595e-123
5.84689e-123
5.73987e-123
6.37628e-123
6.7477e-123
6.53303e-123
6.67077e-123
6.5014e-123
6.62855e-123
6.77448e-123
6.62614e-123
6.63397e-123
6.61495e-123
6.60386e-123
6.58577e-123
6.43334e-123
6.46512e-123
6.27955e-123
6.53443e-123
6.57394e-123
6.45951e-123
6.41561e-123
6.43305e-123
7.15626e-123
7.31997e-123
7.51551e-123
7.49242e-123
7.35062e-123
7.56519e-123
7.40061e-123
7.48381e-123
7.44783e-123
7.22141e-123
7.24458e-123
7.18918e-123
7.22732e-123
7.04122e-123
7.15738e-123
7.12004e-123
7.2147e-123
7.21595e-123
7.20146e-123
7.27801e-123
7.38019e-123
7.55093e-123
7.56951e-123
7.6631e-123
7.56894e-123
7.45751e-123
7.47915e-123
7.65794e-123
7.441e-123
7.57112e-123
7.36656e-123
7.47546e-123
7.73712e-123
7.47666e-123
7.32725e-123
7.78157e-123
7.38466e-123
7.41863e-123
7.48151e-123
7.81369e-123
7.72227e-123
7.8043e-123
7.90729e-123
7.65047e-123
7.72576e-123
7.70591e-123
7.8927e-123
7.75233e-123
7.50506e-123
7.65525e-123
7.76317e-123
7.91014e-123
7.73651e-123
7.80468e-123
8.00088e-123
7.7894e-123
7.91842e-123
7.64677e-123
7.67796e-123
7.71334e-123
6.86512e-123
7.1526e-123
6.95974e-123
7.27283e-123
7.10765e-123
7.33716e-123
7.24845e-123
7.10592e-123
7.14743e-123
7.19353e-123
7.0665e-123
7.29008e-123
7.36336e-123
7.33937e-123
7.13873e-123
7.2978e-123
7.36589e-123
7.01519e-123
7.42665e-123
7.18797e-123
6.7024e-123
6.99877e-123
6.87544e-123
6.87935e-123
6.79941e-123
6.99863e-123
6.97551e-123
6.85432e-123
6.947e-123
6.68576e-123
6.83777e-123
7.02128e-123
6.84421e-123
7.22329e-123
7.05191e-123
7.18213e-123
7.2624e-123
6.97465e-123
7.1235e-123
7.1386e-123
5.68688e-123
5.67888e-123
5.55991e-123
5.74531e-123
5.85629e-123
5.82972e-123
5.76616e-123
5.55346e-123
5.78488e-123
5.6874e-123
5.76726e-123
5.85073e-123
5.75838e-123
5.78136e-123
5.95803e-123
5.88657e-123
5.81843e-123
5.97102e-123
5.90963e-123
6.05181e-123
4.5973e-123
4.65992e-123
4.6161e-123
4.57667e-123
4.76123e-123
4.62943e-123
4.91584e-123
4.62123e-123
4.90691e-123
4.81709e-123
4.71726e-123
4.90102e-123
4.63925e-123
4.85965e-123
4.75892e-123
4.67072e-123
4.87949e-123
4.92043e-123
4.75739e-123
5.05193e-123
1.48483e-143
1.54143e-143
1.5433e-143
1.49414e-143
1.5325e-143
1.5375e-143
1.54297e-143
1.52458e-143
1.48128e-143
1.57095e-143
1.48143e-143
1.56514e-143
1.48679e-143
1.54215e-143
1.44931e-143
1.5403e-143
1.4641e-143
1.51658e-143
1.54374e-143
1.46078e-143
5.51552e-140
5.72123e-140
5.73056e-140
5.54437e-140
5.69028e-140
5.70463e-140
5.72444e-140
5.65547e-140
5.49989e-140
5.82935e-140
5.49864e-140
5.81e-140
5.51715e-140
5.72257e-140
5.37982e-140
5.7187e-140
5.4346e-140
5.62754e-140
5.72798e-140
5.42113e-140
1.07961e-136
1.11892e-136
1.12115e-136
1.08399e-136
1.11327e-136
1.1151e-136
1.11892e-136
1.10533e-136
1.07603e-136
1.13959e-136
1.07541e-136
1.13633e-136
1.07871e-136
1.11876e-136
1.05218e-136
1.11867e-136
1.06303e-136
1.10023e-136
1.11977e-136
1.06017e-136
1.1898e-133
1.23201e-133
1.23487e-133
1.19315e-133
1.22621e-133
1.22706e-133
1.23124e-133
1.21619e-133
1.18526e-133
1.25412e-133
1.18417e-133
1.25117e-133
1.1874e-133
1.23128e-133
1.15855e-133
1.23196e-133
1.17078e-133
1.211e-133
1.23236e-133
1.16736e-133
9.34709e-131
9.66911e-131
9.69373e-131
9.3599e-131
9.62641e-131
9.6219e-131
9.65511e-131
9.53688e-131
9.30612e-131
9.83454e-131
9.29407e-131
9.8177e-131
9.31546e-131
9.65634e-131
9.09139e-131
9.66903e-131
9.19219e-131
9.49937e-131
9.66518e-131
9.16308e-131
5.17626e-128
5.34886e-128
5.36307e-128
5.17501e-128
5.32658e-128
5.31687e-128
5.33588e-128
5.27074e-128
5.15059e-128
5.43457e-128
5.14194e-128
5.42949e-128
5.15115e-128
5.33693e-128
5.02831e-128
5.34856e-128
5.08813e-128
5.25188e-128
5.34221e-128
5.07059e-128
1.97575e-125
2.03923e-125
2.04449e-125
1.97159e-125
2.03106e-125
2.02402e-125
2.03174e-125
2.0072e-125
1.96471e-125
2.06881e-125
1.96059e-125
2.06889e-125
1.96285e-125
2.03209e-125
1.91629e-125
2.03862e-125
1.9415e-125
2.00072e-125
2.03441e-125
1.93426e-125
4.95737e-123
5.11001e-123
5.12159e-123
4.93623e-123
5.08981e-123
5.06201e-123
5.0833e-123
5.02313e-123
4.92643e-123
5.17384e-123
4.91388e-123
5.18033e-123
4.91566e-123
5.08367e-123
4.79931e-123
5.10634e-123
4.8712e-123
5.00897e-123
5.09095e-123
4.85191e-123
5.79084e-121
5.96048e-121
5.96998e-121
5.75136e-121
5.93614e-121
5.88897e-121
5.91737e-121
5.84974e-121
5.7506e-121
6.01849e-121
5.73302e-121
6.03545e-121
5.72941e-121
5.91633e-121
5.59337e-121
5.95196e-121
5.69185e-121
5.83598e-121
5.92763e-121
5.66803e-121
7.33048e-121
7.4583e-121
7.3413e-121
7.09629e-121
7.37401e-121
7.08845e-121
7.17424e-121
7.1674e-121
7.2496e-121
7.27446e-121
7.18721e-121
7.43121e-121
7.11417e-121
7.13979e-121
6.91845e-121
7.33769e-121
7.31167e-121
7.19463e-121
7.24491e-121
7.26327e-121
9.98299e-121
1.02419e-120
1.00514e-120
1.03134e-120
1.00441e-120
1.02301e-120
1.03236e-120
1.02424e-120
1.02912e-120
1.07538e-120
1.01981e-120
1.05956e-120
1.03215e-120
1.0095e-120
1.01982e-120
1.03314e-120
1.02132e-120
1.01739e-120
1.007e-120
1.02291e-120
1.25317e-120
1.26859e-120
1.25584e-120
1.27114e-120
1.23885e-120
1.22283e-120
1.22483e-120
1.21092e-120
1.229e-120
1.29924e-120
1.28113e-120
1.25402e-120
1.24643e-120
1.25262e-120
1.23918e-120
1.26333e-120
1.2122e-120
1.2713e-120
1.26051e-120
1.23803e-120
1.37151e-120
1.45087e-120
1.40505e-120
1.43412e-120
1.39786e-120
1.42563e-120
1.45739e-120
1.42449e-120
1.42646e-120
1.42222e-120
1.41983e-120
1.41582e-120
1.38382e-120
1.38994e-120
1.35046e-120
1.40489e-120
1.41378e-120
1.38857e-120
1.37925e-120
1.3834e-120
1.52543e-120
1.56004e-120
1.6015e-120
1.59661e-120
1.56661e-120
1.61254e-120
1.57692e-120
1.59505e-120
1.58771e-120
1.53822e-120
1.54379e-120
1.53192e-120
1.54028e-120
1.50052e-120
1.52498e-120
1.51713e-120
1.53725e-120
1.53805e-120
1.5347e-120
1.55121e-120
1.56887e-120
1.6048e-120
1.60921e-120
1.62896e-120
1.60846e-120
1.58539e-120
1.58992e-120
1.62806e-120
1.58151e-120
1.60918e-120
1.566e-120
1.58886e-120
1.6445e-120
1.58942e-120
1.55756e-120
1.65443e-120
1.56995e-120
1.57697e-120
1.59045e-120
1.66081e-120
1.6162e-120
1.6324e-120
1.65463e-120
1.60102e-120
1.61706e-120
1.61289e-120
1.65188e-120
1.62257e-120
1.57083e-120
1.60183e-120
1.62417e-120
1.65572e-120
1.61904e-120
1.6339e-120
1.67372e-120
1.63057e-120
1.65678e-120
1.60055e-120
1.60692e-120
1.61431e-120
1.43734e-120
1.49668e-120
1.45679e-120
1.52248e-120
1.48774e-120
1.53577e-120
1.51711e-120
1.48768e-120
1.49603e-120
1.50532e-120
1.47886e-120
1.52571e-120
1.5405e-120
1.53667e-120
1.49419e-120
1.52782e-120
1.54129e-120
1.46793e-120
1.55384e-120
1.50481e-120
1.37317e-120
1.43432e-120
1.40901e-120
1.40978e-120
1.39313e-120
1.43478e-120
1.42972e-120
1.40521e-120
1.42372e-120
1.37042e-120
1.40197e-120
1.43941e-120
1.40218e-120
1.48111e-120
1.44492e-120
1.47182e-120
1.48841e-120
1.42931e-120
1.45966e-120
1.46332e-120
1.17217e-120
1.17039e-120
1.1459e-120
1.1838e-120
1.20703e-120
1.20146e-120
1.18821e-120
1.14441e-120
1.19238e-120
1.17167e-120
1.18884e-120
1.20546e-120
1.18671e-120
1.19181e-120
1.22759e-120
1.21333e-120
1.1987e-120
1.23033e-120
1.2176e-120
1.2473e-120
9.38126e-121
9.51008e-121
9.42013e-121
9.33962e-121
9.71665e-121
9.44896e-121
1.00306e-120
9.43345e-121
1.00133e-120
9.83103e-121
9.63044e-121
1.00031e-120
9.46925e-121
9.92279e-121
9.71175e-121
9.53556e-121
9.95632e-121
1.00416e-120
9.71203e-121
1.03083e-120
3.41758e-141
3.54616e-141
3.55325e-141
3.43794e-141
3.52749e-141
3.53929e-141
3.55096e-141
3.50732e-141
3.40851e-141
3.61655e-141
3.40809e-141
3.60275e-141
3.42052e-141
3.55002e-141
3.33573e-141
3.54584e-141
3.36643e-141
3.48935e-141
3.55227e-141
3.35828e-141
1.26808e-137
1.31472e-137
1.3179e-137
1.27428e-137
1.30831e-137
1.31169e-137
1.31591e-137
1.29957e-137
1.26416e-137
1.34048e-137
1.2636e-137
1.3359e-137
1.26789e-137
1.31587e-137
1.23688e-137
1.31503e-137
1.24825e-137
1.29337e-137
1.31661e-137
1.24496e-137
2.45615e-134
2.54422e-134
2.55133e-134
2.46519e-134
2.53275e-134
2.537e-134
2.54506e-134
2.51321e-134
2.44733e-134
2.59292e-134
2.4454e-134
2.58529e-134
2.45295e-134
2.54545e-134
2.39371e-134
2.54537e-134
2.41608e-134
2.50207e-134
2.54679e-134
2.40916e-134
2.7447e-131
2.84046e-131
2.8493e-131
2.75124e-131
2.82863e-131
2.83056e-131
2.83953e-131
2.8038e-131
2.73342e-131
2.89317e-131
2.73032e-131
2.88622e-131
2.73779e-131
2.84043e-131
2.67246e-131
2.84222e-131
2.6982e-131
2.79236e-131
2.8419e-131
2.68984e-131
2.14259e-128
2.21507e-128
2.22242e-128
2.14449e-128
2.20647e-128
2.20531e-128
2.21243e-128
2.18455e-128
2.13252e-128
2.25416e-128
2.12931e-128
2.25027e-128
2.13417e-128
2.21333e-128
2.08377e-128
2.21645e-128
2.10506e-128
2.1764e-128
2.21459e-128
2.098e-128
1.17912e-125
1.21766e-125
1.22181e-125
1.1782e-125
1.21323e-125
1.21089e-125
1.21497e-125
1.19972e-125
1.17288e-125
1.23774e-125
1.17066e-125
1.23661e-125
1.17271e-125
1.21553e-125
1.14525e-125
1.21833e-125
1.15796e-125
1.19568e-125
1.21633e-125
1.15375e-125
4.41032e-123
4.54897e-123
4.56397e-123
4.39843e-123
4.53307e-123
4.51663e-123
4.53305e-123
4.47679e-123
4.38416e-123
4.61668e-123
4.37404e-123
4.61712e-123
4.37879e-123
4.53498e-123
4.27677e-123
4.55021e-123
4.32999e-123
4.46331e-123
4.53872e-123
4.31302e-123
1.08803e-120
1.12074e-120
1.12401e-120
1.08267e-120
1.11684e-120
1.11048e-120
1.115e-120
1.10146e-120
1.08085e-120
1.13501e-120
1.07787e-120
1.13657e-120
1.07815e-120
1.11533e-120
1.05306e-120
1.12051e-120
1.06824e-120
1.0986e-120
1.11659e-120
1.06381e-120
1.24556e-118
1.28108e-118
1.28382e-118
1.23612e-118
1.27638e-118
1.26579e-118
1.27182e-118
1.25695e-118
1.23646e-118
1.29358e-118
1.23241e-118
1.2975e-118
1.23142e-118
1.2718e-118
1.20262e-118
1.2798e-118
1.22341e-118
1.25426e-118
1.2739e-118
1.21808e-118
1.56994e-118
1.59687e-118
1.57224e-118
1.5196e-118
1.57898e-118
1.5183e-118
1.53698e-118
1.53509e-118
1.55264e-118
1.55751e-118
1.53924e-118
1.59108e-118
1.52326e-118
1.5294e-118
1.48142e-118
1.57156e-118
1.56582e-118
1.54057e-118
1.55107e-118
1.55563e-118
2.13508e-118
2.19088e-118
2.15045e-118
2.2052e-118
2.14779e-118
2.18775e-118
2.20815e-118
2.19042e-118
2.20169e-118
2.29922e-118
2.18192e-118
2.26614e-118
2.20708e-118
2.15915e-118
2.18006e-118
2.20909e-118
2.18382e-118
2.17534e-118
2.15395e-118
2.1877e-118
2.66907e-118
2.70204e-118
2.67551e-118
2.70734e-118
2.63879e-118
2.6041e-118
2.60895e-118
2.57889e-118
2.6184e-118
2.76767e-118
2.72906e-118
2.6701e-118
2.65609e-118
2.6685e-118
2.63982e-118
2.69095e-118
2.5816e-118
2.70761e-118
2.6842e-118
2.6376e-118
2.91704e-118
3.08464e-118
2.98799e-118
3.04859e-118
2.97191e-118
3.0318e-118
3.10015e-118
3.02804e-118
3.03284e-118
3.02351e-118
3.01844e-118
3.00966e-118
2.94329e-118
2.95478e-118
2.87176e-118
2.98667e-118
3.00638e-118
2.95153e-118
2.93197e-118
2.94165e-118
3.21905e-118
3.29148e-118
3.37849e-118
3.36824e-118
3.30546e-118
3.40269e-118
3.32645e-118
3.36552e-118
3.35074e-118
3.2437e-118
3.25682e-118
3.23164e-118
3.24978e-118
3.16569e-118
3.21669e-118
3.20035e-118
3.24266e-118
3.24549e-118
3.23786e-118
3.27312e-118
3.30662e-118
3.38161e-118
3.39181e-118
3.43313e-118
3.38893e-118
3.34163e-118
3.35106e-118
3.43183e-118
3.33283e-118
3.39112e-118
3.30066e-118
3.34824e-118
3.46564e-118
3.35001e-118
3.28268e-118
3.48757e-118
3.3092e-118
3.32357e-118
3.35223e-118
3.49988e-118
3.366e-118
3.39767e-118
3.44537e-118
3.33401e-118
3.36807e-118
3.35937e-118
3.44031e-118
3.37943e-118
3.27172e-118
3.33535e-118
3.38134e-118
3.44871e-118
3.37158e-118
3.40381e-118
3.48409e-118
3.39656e-118
3.4495e-118
3.33377e-118
3.34666e-118
3.36196e-118
2.99888e-118
3.12082e-118
3.03867e-118
3.17599e-118
3.10318e-118
3.20329e-118
3.16421e-118
3.10371e-118
3.12035e-118
3.13899e-118
3.0841e-118
3.18193e-118
3.21155e-118
3.20607e-118
3.1165e-118
3.18733e-118
3.21376e-118
3.06089e-118
3.23959e-118
3.13931e-118
2.82542e-118
2.95211e-118
2.89991e-118
2.90156e-118
2.86668e-118
2.95414e-118
2.94305e-118
2.8933e-118
2.93031e-118
2.82126e-118
2.88693e-118
2.96363e-118
2.88515e-118
3.05002e-118
2.97334e-118
3.02913e-118
3.06357e-118
2.94163e-118
3.00387e-118
3.01248e-118
2.42731e-118
2.42337e-118
2.37275e-118
2.45051e-118
2.49932e-118
2.4876e-118
2.45986e-118
2.3693e-118
2.46916e-118
2.42496e-118
2.46201e-118
2.49521e-118
2.45695e-118
2.46836e-118
2.54106e-118
2.51257e-118
2.48104e-118
2.54686e-118
2.52034e-118
2.58269e-118
1.92416e-118
1.95079e-118
1.93222e-118
1.91573e-118
1.99312e-118
1.9385e-118
2.05714e-118
1.93556e-118
2.05378e-118
2.01666e-118
1.97614e-118
2.0521e-118
1.94271e-118
2.03648e-118
1.99206e-118
1.95673e-118
2.04192e-118
2.05976e-118
1.99283e-118
2.11412e-118
7.95423e-139
8.24942e-139
8.27258e-139
7.99905e-139
8.21052e-139
8.23864e-139
8.26365e-139
8.15899e-139
7.93116e-139
8.41927e-139
7.92852e-139
8.38624e-139
7.9578e-139
8.26405e-139
7.76402e-139
8.25454e-139
7.82754e-139
8.11866e-139
8.26614e-139
7.80735e-139
2.97964e-135
3.08759e-135
3.09757e-135
2.9931e-135
3.07424e-135
3.0823e-135
3.09143e-135
3.0519e-135
2.9696e-135
3.15021e-135
2.96764e-135
3.13916e-135
2.97781e-135
3.09225e-135
2.90628e-135
3.09041e-135
2.93009e-135
3.03786e-135
3.09283e-135
2.92186e-135
5.71507e-132
5.91667e-132
5.93799e-132
5.73375e-132
5.89326e-132
5.90321e-132
5.92048e-132
5.8442e-132
5.69285e-132
6.03376e-132
5.68715e-132
6.01561e-132
5.7048e-132
5.92314e-132
5.56956e-132
5.92331e-132
5.61616e-132
5.81939e-132
5.92408e-132
5.59907e-132
6.40279e-129
6.62222e-129
6.64817e-129
6.41511e-129
6.59828e-129
6.60262e-129
6.62194e-129
6.53618e-129
6.37444e-129
6.74905e-129
6.36587e-129
6.73259e-129
6.38328e-129
6.62597e-129
6.23382e-129
6.63068e-129
6.28802e-129
6.51083e-129
6.62704e-129
6.26734e-129
4.91064e-126
5.07356e-126
5.09444e-126
4.91252e-126
5.05666e-126
5.05368e-126
5.06883e-126
5.00312e-126
4.88593e-126
5.16588e-126
4.87755e-126
5.1569e-126
4.88862e-126
5.07235e-126
4.77536e-126
5.08e-126
4.81985e-126
4.98552e-126
5.07348e-126
4.80278e-126
2.662e-123
2.74719e-123
2.7587e-123
2.65848e-123
2.73869e-123
2.73314e-123
2.74177e-123
2.70637e-123
2.64699e-123
2.79383e-123
2.64144e-123
2.79132e-123
2.64598e-123
2.7438e-123
2.5852e-123
2.75042e-123
2.6117e-123
2.69785e-123
2.74468e-123
2.6017e-123
9.75379e-121
1.00534e-120
1.00941e-120
9.72162e-121
1.00236e-120
9.98571e-121
1.00202e-120
9.89234e-121
9.69243e-121
1.0207e-120
9.66808e-121
1.02086e-120
9.67797e-121
1.0027e-120
9.4567e-121
1.00621e-120
9.5673e-121
9.86481e-121
1.0032e-120
9.52794e-121
2.36229e-118
2.43152e-118
2.44028e-118
2.34906e-118
2.42426e-118
2.4099e-118
2.41938e-118
2.38921e-118
2.34584e-118
2.46308e-118
2.33888e-118
2.46676e-118
2.33923e-118
2.42061e-118
2.28575e-118
2.43232e-118
2.31735e-118
2.38355e-118
2.42265e-118
2.30731e-118
2.64909e-116
2.72255e-116
2.72986e-116
2.62696e-116
2.7137e-116
2.69023e-116
2.7029e-116
2.67054e-116
2.62877e-116
2.74915e-116
2.61959e-116
2.75807e-116
2.61704e-116
2.70326e-116
2.55676e-116
2.72097e-116
2.60014e-116
2.66543e-116
2.70705e-116
2.58837e-116
3.32333e-116
3.37937e-116
3.32816e-116
3.21641e-116
3.34187e-116
3.21446e-116
3.25468e-116
3.24974e-116
3.2868e-116
3.29611e-116
3.25835e-116
3.36719e-116
3.2238e-116
3.23818e-116
3.13541e-116
3.32691e-116
3.31442e-116
3.26059e-116
3.28224e-116
3.29323e-116
4.51501e-116
4.63383e-116
4.54911e-116
4.66204e-116
4.54113e-116
4.62593e-116
4.67e-116
4.63165e-116
4.6573e-116
4.86042e-116
4.61581e-116
4.79216e-116
4.66635e-116
4.56611e-116
4.60782e-116
4.67039e-116
4.61698e-116
4.59889e-116
4.55541e-116
4.62624e-116
5.62225e-116
5.69188e-116
5.63742e-116
5.70282e-116
5.55895e-116
5.48463e-116
5.49614e-116
5.43187e-116
5.51729e-116
5.8309e-116
5.74954e-116
5.62274e-116
5.59787e-116
5.62231e-116
5.56182e-116
5.6689e-116
5.43754e-116
5.7033e-116
5.65298e-116
5.55762e-116
6.14174e-116
6.49201e-116
6.29023e-116
6.41512e-116
6.2548e-116
6.38251e-116
6.5282e-116
6.37179e-116
6.38319e-116
6.36287e-116
6.3523e-116
6.33328e-116
6.19717e-116
6.2181e-116
6.04531e-116
6.28541e-116
6.32855e-116
6.21056e-116
6.16988e-116
6.19206e-116
6.73183e-116
6.88196e-116
7.06296e-116
7.0417e-116
6.91149e-116
7.11535e-116
6.95384e-116
7.03718e-116
7.00775e-116
6.77843e-116
6.8088e-116
6.75585e-116
6.79487e-116
6.61864e-116
6.72394e-116
6.6903e-116
6.77848e-116
6.78675e-116
6.76964e-116
6.84421e-116
6.91515e-116
7.07036e-116
7.09359e-116
7.17932e-116
7.08508e-116
6.98872e-116
7.00825e-116
7.17788e-116
6.96898e-116
7.09083e-116
6.90293e-116
7.0011e-116
7.24675e-116
7.00604e-116
6.86489e-116
7.29477e-116
6.92118e-116
6.9503e-116
7.01101e-116
7.31807e-116
6.97231e-116
7.03353e-116
7.13522e-116
6.90512e-116
6.97715e-116
6.95911e-116
7.12619e-116
7.00038e-116
6.77734e-116
6.90723e-116
7.0014e-116
7.14444e-116
6.98306e-116
7.05259e-116
7.21329e-116
7.03689e-116
7.14304e-116
6.90635e-116
6.93219e-116
6.96366e-116
6.23093e-116
6.48032e-116
6.31192e-116
6.59774e-116
6.44575e-116
6.65354e-116
6.57196e-116
6.44824e-116
6.4811e-116
6.51838e-116
6.40502e-116
6.60835e-116
6.66734e-116
6.66115e-116
6.4731e-116
6.62164e-116
6.67301e-116
6.35585e-116
6.726e-116
6.52187e-116
5.80868e-116
6.07094e-116
5.96336e-116
5.96694e-116
5.89395e-116
6.07743e-116
6.05313e-116
5.9523e-116
6.02615e-116
5.80333e-116
5.9398e-116
6.09679e-116
5.93173e-116
6.27557e-116
6.11333e-116
6.22893e-116
6.30036e-116
6.04903e-116
6.17659e-116
6.19644e-116
5.02528e-116
5.01662e-116
4.91208e-116
5.0715e-116
5.17399e-116
5.14937e-116
5.09131e-116
4.90417e-116
5.11198e-116
5.01767e-116
5.09752e-116
5.1637e-116
5.08561e-116
5.11109e-116
5.25864e-116
5.20192e-116
5.13401e-116
5.271e-116
5.21569e-116
5.34655e-116
3.96499e-116
4.02024e-116
3.98176e-116
3.94783e-116
4.10739e-116
3.99547e-116
4.23847e-116
3.98989e-116
4.23194e-116
4.15608e-116
4.07383e-116
4.22936e-116
4.00421e-116
4.19893e-116
4.10506e-116
4.03397e-116
4.20718e-116
4.24465e-116
4.10814e-116
4.35592e-116
1.93179e-136
2.00242e-136
2.00968e-136
1.94196e-136
1.99408e-136
2.001e-136
2.00654e-136
1.98038e-136
1.92564e-136
2.04503e-136
1.92458e-136
2.03682e-136
1.93174e-136
2.00724e-136
1.88557e-136
2.00502e-136
1.89907e-136
1.97094e-136
2.00699e-136
1.89384e-136
7.18043e-133
7.43638e-133
7.46656e-133
7.20995e-133
7.4084e-133
7.42795e-133
7.44803e-133
7.34998e-133
7.15408e-133
7.59216e-133
7.14783e-133
7.56499e-133
7.17247e-133
7.45225e-133
7.00345e-133
7.44821e-133
7.05375e-133
7.31756e-133
7.45087e-133
7.03265e-133
1.34951e-129
1.39629e-129
1.40248e-129
1.35333e-129
1.39155e-129
1.3939e-129
1.39762e-129
1.37908e-129
1.34384e-129
1.42481e-129
1.34221e-129
1.42045e-129
1.34639e-129
1.39867e-129
1.31509e-129
1.3988e-129
1.32479e-129
1.37351e-129
1.39838e-129
1.32051e-129
1.48921e-126
1.53929e-126
1.5466e-126
1.49137e-126
1.5346e-126
1.53556e-126
1.53968e-126
1.51915e-126
1.48212e-126
1.5697e-126
1.47982e-126
1.56582e-126
1.48387e-126
1.54108e-126
1.44982e-126
1.54229e-126
1.46101e-126
1.51359e-126
1.54077e-126
1.45592e-126
1.11839e-123
1.15474e-123
1.16044e-123
1.11824e-123
1.15155e-123
1.1508e-123
1.15398e-123
1.13859e-123
1.11237e-123
1.1764e-123
1.11024e-123
1.17434e-123
1.11275e-123
1.15512e-123
1.08748e-123
1.15696e-123
1.0966e-123
1.13484e-123
1.15498e-123
1.09249e-123
5.95965e-121
6.14619e-121
6.1769e-121
5.94845e-121
6.13058e-121
6.11759e-121
6.13558e-121
6.05407e-121
5.92388e-121
6.25359e-121
5.9103e-121
6.24807e-121
5.92028e-121
6.14184e-121
5.78702e-121
6.15732e-121
5.84125e-121
6.03643e-121
6.14174e-121
5.81767e-121
2.13827e-118
2.20239e-118
2.21299e-118
2.12991e-118
2.19703e-118
2.18841e-118
2.19556e-118
2.16675e-118
2.12402e-118
2.23692e-118
2.11827e-118
2.23739e-118
2.12031e-118
2.19761e-118
2.07278e-118
2.2056e-118
2.0954e-118
2.16124e-118
2.19802e-118
2.08636e-118
5.07761e-116
5.22251e-116
5.24495e-116
5.04572e-116
5.20951e-116
5.1775e-116
5.19717e-116
5.13061e-116
5.04031e-116
5.29164e-116
5.02437e-116
5.30015e-116
5.02461e-116
5.20093e-116
4.91185e-116
5.22703e-116
4.97671e-116
5.11965e-116
5.20377e-116
4.95418e-116
5.5753e-114
5.72539e-114
5.74394e-114
5.52437e-114
5.7092e-114
5.65781e-114
5.6842e-114
5.61453e-114
5.53045e-114
5.78136e-114
5.51002e-114
5.80142e-114
5.50368e-114
5.68581e-114
5.37893e-114
5.72452e-114
5.46842e-114
5.60505e-114
5.69231e-114
5.44272e-114
6.95915e-114
7.07445e-114
6.96917e-114
6.73452e-114
6.99668e-114
6.73216e-114
6.81783e-114
6.80542e-114
6.88292e-114
6.90027e-114
6.82314e-114
7.0491e-114
6.74933e-114
6.78229e-114
6.56467e-114
6.96694e-114
6.9401e-114
6.82659e-114
6.87077e-114
6.89657e-114
9.44824e-114
9.69849e-114
9.52295e-114
9.75312e-114
9.50137e-114
9.6793e-114
9.77356e-114
9.69143e-114
9.74907e-114
1.01672e-113
9.66281e-114
1.00281e-113
9.76293e-114
9.55553e-114
9.63751e-114
9.77091e-114
9.65929e-114
9.62106e-114
9.53384e-114
9.68089e-114
1.17224e-113
1.1868e-113
1.17575e-113
1.18902e-113
1.15915e-113
1.14338e-113
1.14607e-113
1.13247e-113
1.15074e-113
1.21594e-113
1.19898e-113
1.17198e-113
1.16779e-113
1.17252e-113
1.15991e-113
1.18209e-113
1.13364e-113
1.18911e-113
1.17841e-113
1.15912e-113
1.28096e-113
1.35345e-113
1.31173e-113
1.3372e-113
1.30404e-113
1.33098e-113
1.36175e-113
1.32816e-113
1.3308e-113
1.32643e-113
1.32426e-113
1.32017e-113
1.29256e-113
1.29624e-113
1.26062e-113
1.31031e-113
1.31963e-113
1.29452e-113