/*--------------------------------*- C++ -*----------------------------------*\
| =========                 |                                                 |
| \\      /  F ield         | OpenFOAM: The Open Source CFD Toolbox           |
|  \\    /   O peration     | Version:  2212                                  |
|   \\  /    A nd           | Website:  www.openfoam.com                      |
|    \\/     M anipulation  |                                                 |
\*---------------------------------------------------------------------------*/
FoamFile
{
    version     2.0;
    format      ascii;
    arch        "LSB;label=32;scalar=64";
    class       volScalarField;
    location    "0.00988";
    object      p;
}
// * * * * * * * * * * * * * * * * * * * * * * * * * * * * * * * * * * * * * //

dimensions      [1 -1 -2 0 0 0 0];

internalField   nonuniform List<scalar> 
2681
(
250.587
252.864
238.984
190.389
257.427
248.32
189.971
190.368
190.507
190.618
190.316
191.535
191.352
197.584
191.948
192.507
193.9
190.444
190.527
190.633
190.809
191.326
191.138
190.968
191.731
191.524
190.393
190.281
190.336
190.55
190.467
190.748
190.639
191.022
190.878
191.183
191.229
191.439
191.666
191.487
191.687
191.134
191.306
190.863
190.986
247.04
190.739
190.412
190.203
190.271
190.334
191.909
193.447
190.406
190.326
191.197
191.353
190.225
190.22
190.248
190.201
190.596
190.489
190.866
190.727
191.264
191.064
191.73
191.488
190.059
192.001
191.868
192.179
191.316
191.588
191.725
190.048
196.202
254.313
190.351
190.244
190.296
190.492
190.417
190.671
190.575
190.911
190.785
191.05
191.302
191.461
191.012
191.156
190.767
190.882
190.548
190.654
190.371
190.453
190.303
190.263
190.24
191.52
192.474
192.212
192.179
190.196
190.227
190.184
192.71
193.342
192.883
192.889
191.381
191.71
191.529
190.288
190.212
190.232
192.022
196.336
192.954
255.025
191.706
191.946
191.877
190.152
244.045
190.178
262.285
201.114
190.43
190.347
190.66
190.534
190.977
190.805
191.407
191.178
191.975
191.67
192.342
192.13
192.521
191.507
191.793
194.446
190.297
239.295
190.449
190.359
190.215
190.128
190.17
190.315
190.263
190.441
190.374
190.601
190.515
190.808
190.699
191.056
190.929
191.335
191.192
198.317
191.491
191.143
191.263
190.898
191.02
190.678
190.783
190.486
190.578
190.335
190.404
190.276
190.175
190.144
190.159
190.193
189.958
190.198
190.217
193.582
194.013
194.823
192.523
191.906
192.482
190.103
191.914
191.695
190.316
190.254
193.34
193.269
190.112
190.09
199.397
199.984
199.988
199.398
190.105
190.13
190.092
191.669
195.087
189.972
190.179
247.878
248.491
251.002
192.19
192.167
247.936
190.135
241.786
190.31
190.25
190.473
190.382
190.726
190.588
191.078
190.89
191.558
191.3
192.223
191.862
193.249
192.661
194.028
192.441
192.963
191.677
192.022
191.164
191.399
190.775
190.957
190.494
190.621
190.394
200.703
201.555
202.591
203.832
205.354
207.295
209.97
213.943
219.986
228.899
228.919
240.939
254.438
254.502
240.541
214.017
220.045
207.329
210.015
203.854
205.382
201.566
202.607
200.71
190.19
190.147
190.284
190.236
190.397
190.337
190.538
190.463
190.716
190.622
190.93
190.82
191.168
191.046
250.122
191.298
191.575
191.49
191.87
191.8
191.637
191.228
191.352
191.009
191.119
190.795
190.901
190.6
190.694
190.433
190.512
190.305
190.364
190.21
190.254
190.169
190.135
190.12
190.169
190.152
190.205
190.186
255.425
244.493
192.85
192.114
192.136
192.801
190.069
197.275
198.882
198.882
190.09
234.083
228.555
238.228
193.869
257.225
192.082
193.767
190.154
190.168
198.831
198.448
198.394
190.067
190.055
190.118
190.08
259.521
258.09
191.733
192.007
195.888
194.651
191.798
192.042
248.74
203.435
229.651
189.919
190.224
190.163
190.18
192.447
192.433
190.037
190.076
190.056
190.117
190.097
190.136
190.337
190.27
190.518
190.418
190.794
190.642
191.183
190.974
191.723
191.43
192.529
192.082
193.942
193.118
195.215
195.577
211.318
194.682
196.279
192.847
193.595
191.873
192.294
191.274
191.543
190.845
191.044
190.539
190.677
190.344
190.429
190.277
199.946
199.352
201.544
200.676
203.88
202.604
207.492
205.458
214.433
210.304
220.413
198.832
198.393
198.448
259.404
257.965
241.251
247.868
255.766
228.753
238.16
214.572
220.51
207.573
210.391
203.947
205.534
201.581
202.658
199.957
200.698
199.356
190.17
190.129
190.258
190.213
190.36
190.307
190.483
190.418
190.636
190.556
190.819
190.725
191.022
190.919
191.238
191.13
191.432
191.343
191.847
191.593
191.509
191.92
191.665
192.003
191.729
191.707
191.504
191.553
191.301
191.422
191.086
191.192
190.892
190.988
190.704
190.797
190.533
190.615
190.39
190.457
190.28
190.331
190.195
190.236
190.157
190.098
190.082
190.13
190.114
190.147
247.12
252.862
247.915
193.238
192.372
192.382
193.18
190.179
242.033
212.289
192.07
198.752
198.313
190.01
247.875
190.044
190.016
189.993
190.042
190.241
190.194
257.374
247.168
251.924
242.199
189.962
228.039
235.217
251.397
249.802
255.173
192.303
194.518
194.354
192.315
231.762
198.753
198.311
250.246
250.992
252.495
252.605
197.488
192.143
191.675
191.948
191.793
192.087
192.214
196.987
256.717
254.736
189.935
215.775
254.594
192.751
192.739
190.045
190.027
190.082
190.063
190.115
190.099
190.141
190.129
190.154
190.243
190.196
190.366
190.291
190.563
190.454
190.863
190.698
191.29
191.059
191.902
191.564
192.909
192.334
195.107
193.747
202.022
197.539
209.793
208.096
225.409
196.585
200.275
193.367
194.543
192.08
192.607
191.382
191.688
190.914
191.128
190.583
190.732
190.371
190.464
190.299
199.883
199.277
201.529
200.63
203.98
202.638
207.863
205.667
215.189
210.891
220.987
198.048
197.991
198.048
192.301
197.908
197.993
253.968
253.922
253.012
254.127
242.279
247.869
228.329
235.555
215.288
221.063
207.981
210.992
204.094
205.791
201.594
202.731
199.901
200.668
199.284
190.02
189.979
189.998
190.079
190.046
190.152
190.114
190.235
190.193
190.328
190.28
190.438
190.381
190.569
190.5
190.724
190.644
190.897
190.809
191.079
190.988
191.245
191.167
191.383
191.314
191.747
191.505
191.448
191.55
191.576
191.838
191.576
191.588
191.507
191.546
191.425
191.472
191.299
191.358
191.139
191.225
190.961
191.05
190.79
190.875
190.626
190.707
190.477
190.548
190.355
190.412
190.26
190.305
190.181
190.219
190.105
190.143
190.027
190.066
190.009
189.997
190.033
190.021
190.063
190.047
190.096
190.079
190.127
190.111
190.154
190.141
247.27
256.023
191.262
247.721
241.653
241.911
256.167
251.944
252.599
254.598
192.649
193.686
191.861
191.807
193.61
192.661
250.244
242.051
252.537
189.937
256.08
250.873
224.465
197.906
252.842
253.349
189.963
189.955
189.968
244.07
256.954
195.368
192.492
192.044
192.165
192.553
195.166
213.655
190.106
190.117
256.38
252.231
241.942
252.218
192.43
256.147
248.689
256.384
248.154
254.577
199.774
192.28
192.43
198.834
190.119
190.166
190.129
197.609
197.812
197.5
247.214
189.98
204.301
255.197
255.507
190.838
191.135
193.099
191.842
193.076
255.21
189.987
189.974
190.018
190.002
190.051
190.034
190.082
190.067
190.095
190.166
190.261
190.211
190.395
190.321
190.606
190.489
190.928
190.751
191.393
191.14
192.094
191.701
193.396
192.628
196.84
194.645
209.436
201.293
228.193
256.764
245.636
199.181
206.415
193.993
195.775
192.3
192.966
191.486
191.834
190.976
191.207
190.624
190.783
190.397
190.497
190.257
190.319
190.208
198.668
198.224
199.817
199.199
201.523
200.587
204.125
202.691
208.391
205.969
216.107
211.7
227.187
221.548
236.945
232.469
197.699
197.808
197.496
197.607
197.757
197.756
197.701
251.642
253.068
245.792
248.965
238.337
242.209
227.67
233.375
216.091
221.541
208.5
211.735
204.279
206.122
201.613
202.817
199.843
200.64
198.669
199.208
198.221
190.007
189.986
190.063
190.033
190.134
190.097
190.214
190.173
190.301
190.256
190.4
190.349
190.515
190.455
190.647
190.579
190.793
190.719
190.947
190.87
191.089
191.021
191.209
191.151
191.305
191.261
191.36
191.34
191.361
191.369
191.312
191.342
191.241
191.28
191.134
191.187
191.001
191.072
190.852
190.928
190.704
190.778
190.56
190.631
190.431
190.493
190.325
190.375
190.24
190.281
190.164
190.201
190.089
190.127
190.019
190.053
190.002
189.991
190.031
190.016
190.063
190.047
190.093
190.079
190.107
189.983
242.003
253.339
189.95
257.34
257.669
258.95
194.207
192.922
192.125
192.205
192.958
194.128
241.018
190.95
190.127
242.742
246.989
248.594
249.975
256.102
189.962
252.824
256.741
197.701
197.372
248.129
250.481
192.653
243.978
260.662
257.691
255.196
251.658
196.398
192.685
192.404
192.588
192.808
196.215
202.781
189.951
189.945
190.176
190.138
190.086
190.096
197.705
197.376
197.358
197.225
251.054
252.268
189.959
189.952
241.351
190.044
221.054
189.939
257.565
191.056
193.465
192.174
193.461
255.584
189.97
189.96
189.996
189.982
190.025
190.01
190.053
190.04
190.075
190.065
190.093
190.085
190.101
190.176
190.136
190.277
190.223
190.42
190.341
190.645
190.519
190.989
190.8
191.492
191.217
192.301
191.838
194.048
192.978
199.62
195.957
222.623
207.132
236.611
250.343
240.4
247.709
203.972
217.327
194.942
197.854
192.541
193.417
191.586
191.982
191.032
191.278
190.661
190.829
190.419
190.527
190.271
190.336
190.219
198.581
198.127
199.761
199.123
201.539
200.56
204.305
202.765
208.976
206.323
216.833
212.502
226.284
221.581
234.022
230.493
197.464
197.223
197.356
197.524
197.524
197.466
243.812
247.414
239.434
241.768
235.432
237.621
226.999
231.762
216.703
221.73
209.043
212.441
204.479
206.475
201.642
202.91
199.793
200.624
198.583
199.135
198.125
253.765
189.996
189.977
190.048
190.02
190.115
190.08
190.193
190.153
190.277
190.234
190.369
190.322
190.47
190.418
190.585
190.526
190.71
190.646
190.841
190.776
190.964
190.905
191.066
191.017
191.144
191.109
191.187
191.171
191.188
191.193
191.151
191.174
191.088
191.122
190.998
191.045
190.886
190.945
190.76
190.824
190.632
190.696
190.507
190.569
190.395
190.449
190.3
190.345
190.219
190.258
190.143
190.181
190.072
190.107
190.011
190.039
189.989
189.977
189.967
190.003
189.989
190.034
190.019
190.063
190.049
190.075
247.345
247.742
197.076
242.59
249.357
253.557
250.339
256.336
192.874
241.011
261.663
260.491
262.226
253.371
241.199
251.082
194.756
193.18
192.515
192.662
193.29
194.757
212.382
190.87
189.943
190.065
190.072
241.92
253.119
246.616
245.807
190.104
197.079
251.168
245.216
256.225
189.948
244.243
245.583
236.718
193.091
245.547
263.779
250.367
245.957
197.464
192.857
197.954
197.076
196.928
244.256
205.626
239.363
190.053
193.093
240.558
240.462
261.475
190.697
243.135
244.726
193.833
192.579
193.903
234.201
189.938
189.943
189.939
189.958
189.949
189.979
189.968
190.004
189.991
190.029
190.017
190.049
190.039
190.057
190.107
190.078
190.184
190.143
190.289
190.233
190.44
190.357
190.677
190.545
191.042
190.841
191.582
191.283
192.52
191.971
194.855
193.383
202.986
197.653
231.115
213.207
238.469
246.755
240.282
244.074
209.432
228.275
196.095
200.468
192.794
193.931
191.672
192.121
191.078
191.338
190.693
190.867
190.438
190.551
190.282
190.35
190.183
190.227
190.11
190.144
197.6
196.935
197.256
198.495
198.031
199.716
199.052
201.576
200.551
204.527
202.868
209.548
206.71
217.121
213.109
225.659
221.41
232.423
229.534
246.382
197.344
197.224
197.405
197.405
197.225
197.345
196.93
197.077
238.723
241.354
235.58
237.139
233.292
234.526
226.519
230.718
217.1
221.784
209.55
212.993
204.68
206.821
201.675
203.004
199.75
200.613
198.501
199.068
197.598
198.031
196.931
197.253
189.958
189.942
189.949
237.275
189.947
189.938
189.938
190.99
189.988
189.971
190.034
190.009
190.097
190.064
190.171
190.133
190.253
190.212
190.341
190.297
190.435
190.387
190.536
190.484
190.645
190.589
190.757
190.701
190.863
190.812
190.951
190.909
191.016
190.987
191.05
191.037
191.051
191.055
191.021
191.04
190.966
190.996
190.889
190.93
190.793
190.843
190.686
190.74
190.575
190.63
190.467
190.52
190.366
190.415
190.277
190.321
190.197
190.236
190.121
190.158
190.054
190.086
190
190.025
189.967
189.981
189.946
189.955
189.943
189.939
189.959
189.95
189.982
189.969
190.01
189.996
190.036
190.024
190.058
190.048
190.074
190.066
251.359
251.06
251.524
253.658
244.483
239.519
248.565
239.358
233.853
193.39
241.564
264.111
260.559
264.199
243.932
189.919
239.992
243.428
250.269
195.338
193.421
193.01
193.242
193.668
195.645
201.504
226.261
189.935
241.954
190.08
196.774
196.772
243.041
246.905
241.586
253.488
214.85
198.771
190.041
189.937
194.08
253.071
259.601
238.552
239.287
238.422
238.162
239.561
235.069
261.429
193.688
240.178
263.198
263.217
242.201
240.452
245.029
250.891
189.924
246.45
237.161
242.605
244.521
194.186
193.132
194.453
208.395
189.939
189.936
189.949
189.943
189.966
189.957
189.987
189.977
190.008
189.998
190.026
190.018
190.04
190.033
190.047
190.112
190.083
190.19
190.148
190.298
190.239
190.455
190.368
190.703
190.565
191.083
190.874
191.66
191.337
192.757
192.1
195.815
193.849
206.834
199.62
233.152
219.106
241.798
238.929
245.345
241.658
241.83
242.127
238.401
240.77
212.743
230.934
197.203
202.619
193.046
194.455
191.746
192.25
191.116
191.388
190.717
190.897
190.453
190.57
190.29
190.361
190.187
190.233
190.115
190.148
190.085
196.643
196.836
197.166
197.514
197.943
198.414
198.988
199.679
200.554
201.63
203.002
204.773
207.079
209.969
213.378
217.23
221.341
225.4
229.334
231.096
231.673
232.088
233.042
234.105
235.651
236.304
236.435
242.251
254.857
196.675
196.839
196.968
197.129
197.233
197.284
197.285
197.234
197.13
196.97
196.84
196.678
196.495
234.41
235.867
234.646
233.876
232.786
232.051
231.234
229.744
226.261
221.831
217.361
213.342
209.946
207.136
204.876
203.103
201.705
200.605
199.712
199.007
198.425
197.947
197.514
197.164
196.834
196.641
196.492
243.245
243.951
239.703
202.193
219.206
231.62
230.83
264.18
239.388
201.806
235.259
190.568
238.471
191.656
239.953
237.942
242.088
251.084
235.438
239.494
237.89
253.335
241.372
238.857
241.502
240.141
237.566
238.94
238.563
238.003
252.619
196.011
194.094
193.647
194.114
205.234
197.106
240.589
247.157
253.338
253.584
250.907
247.824
191.828
253.985
251.94
190.158
236.704
235.163
190.061
190.055
190.049
190.041
190.033
190.025
190.014
190.003
189.991
189.978
189.967
189.956
189.947
189.939
189.934
189.932
189.931
189.931
189.93
189.927
189.935
189.943
189.952
189.963
189.976
189.992
190.013
190.039
190.069
190.103
190.14
190.179
190.219
190.26
190.302
190.346
190.391
190.437
190.485
190.533
190.581
190.629
190.677
190.722
190.766
190.806
190.841
190.873
190.9
190.921
190.937
190.946
190.949
190.944
190.933
190.915
190.891
190.86
190.824
190.784
190.739
190.693
190.644
190.595
190.546
190.498
190.451
190.405
190.36
190.315
190.272
190.23
190.189
190.149
190.113
190.079
190.05
190.024
190.002
189.985
189.97
189.959
196.656
196.451
196.577
196.388
189.941
241.134
235.909
189.95
189.943
249.137
256.836
189.923
189.925
189.926
189.927
189.929
189.933
189.94
189.948
189.957
189.967
189.978
189.988
189.998
190.007
190.015
190.035
190.029
190.022
190.065
190.088
190.116
190.15
190.189
190.236
190.294
190.367
190.461
190.58
190.728
190.91
191.132
191.409
191.78
192.317
193.192
194.765
197.832
203.698
214.493
230.53
235.52
236.483
236.386
235.839
236.15
260.385
231.628
240.505
237.748
236.071
232.426
223.62
209.189
201.214
196.682
194.275
192.966
192.205
191.717
191.373
191.108
190.894
190.719
190.577
190.464
190.374
190.302
190.242
190.192
190.15
190.086
190.115
254.057
190.034
190.028
190.021
190.015
190.008
190.001
189.993
189.984
189.975
189.966
189.958
189.95
189.944
189.94
189.936
189.935
189.934
189.934
190.254
189.931
189.939
189.948
189.958
189.971
189.986
190.006
190.03
190.059
190.092
190.129
190.168
190.208
190.249
190.291
190.333
190.375
190.418
190.461
190.504
190.547
190.59
190.632
190.673
190.711
190.747
190.779
190.807
190.83
190.849
190.862
190.87
190.871
190.867
190.856
190.84
190.818
190.791
190.759
190.724
190.686
190.645
190.603
190.559
190.515
190.47
190.425
190.38
190.335
190.291
190.248
190.206
190.166
190.129
190.095
190.065
190.038
190.016
189.997
189.982
189.969
189.959
189.951
189.945
259.8
237.887
189.937
189.933
244.784
249.613
252.447
254.167
255.412
249.43
242.325
237.112
233.676
233.497
233.096
232.607
232.111
231.231
230.459
229.761
228.596
226.118
221.973
217.676
213.661
210.191
207.337
205.033
203.21
201.75
200.602
199.681
198.954
198.356
197.879
197.455
196.576
196.79
197.116
199.693
195.211
193.841
194.545
230.013
247.71
237.31
242.498
241.197
238.811
236.778
233.182
241.512
245.113
240.4
244.876
196.657
196.808
196.932
197.095
197.178
197.229
197.229
197.177
197.093
196.931
196.807
249.844
253.639
239.61
240.412
229.731
253.598
199.051
190.282
248.372
251.838
253.464
236.394
251.741
244.96
234.44
233.168
232.543
231.611
230.955
230.451
230.212
229.969
228.896
225.472
221.349
217.351
213.563
210.171
207.319
205
203.173
201.716
200.569
199.653
198.931
198.339
197.869
197.45
197.115
196.791
254.49
251.496
239.339
240.17
231.435
239.469
255.763
259.488
190.458
191.43
190.042
196.453
196.387
207.945
238.764
236.791
254.249
196.285
196.285
189.916
240.199
239.475
235.22
259.554
197.085
194.641
234.722
189.934
190.636
229.848
190.51
239.31
222.894
218.191
237.952
254.293
196.793
196.339
196.562
197.417
197.1
198.277
197.812
199.624
198.879
201.751
200.575
205.097
203.241
210.279
207.428
217.441
213.664
225.763
221.41
229.036
228.182
229.539
229.376
230.029
229.756
230.931
230.506
233.435
231.909
240.103
235.859
255.399
246.016
259.287
260.322
252.758
257.193
246.213
250.452
236.265
240.428
232.936
196.765
196.461
196.642
196.864
196.846
196.807
196.751
196.753
196.808
196.85
196.87
196.642
196.766
196.246
196.192
196.247
196.462
247.145
253.14
190.046
236.296
236.111
194.932
196.369
196.194
196.562
196.34
197.103
196.793
197.828
197.425
198.906
198.299
200.589
199.647
203.235
201.754
207.432
205.089
213.859
210.337
222.074
217.887
227.703
225.89
229.327
228.688
230.508
230.091
230.953
230.725
235.867
231.848
235.491
252.796
245.131
239.314
260.27
254.029
257.552
259.497
251.071
253.545
242.514
247.832
239.672
189.938
189.935
189.947
189.942
189.961
189.954
189.982
189.971
190.013
189.996
190.056
190.033
190.114
190.084
190.187
190.149
190.271
190.228
190.361
190.315
190.451
190.406
190.536
190.494
190.614
190.576
190.684
190.65
190.743
190.715
190.788
190.768
190.815
190.804
190.82
190.821
190.803
190.814
190.765
190.786
190.711
190.74
190.643
190.678
190.567
190.606
190.487
190.527
190.407
190.447
190.328
190.367
190.246
190.287
190.164
190.205
190.088
190.125
190.025
190.055
189.981
190.001
189.954
189.966
189.934
189.943
190.227
189.926
247.045
189.934
189.933
189.936
189.935
189.942
189.938
189.952
189.947
189.966
189.959
189.982
189.974
189.995
189.989
190.008
190.002
190.021
190.014
234.986
190.028
236.158
190.116
190.088
190.194
190.151
190.305
190.244
190.47
190.378
190.729
190.585
191.125
190.907
191.754
191.397
193.087
192.269
197.107
194.51
210.289
201.926
231.958
225.745
234.872
234.058
230.897
234.938
227.141
233.788
231.614
234.727
234.691
229.255
233.773
204.003
214.591
194.895
198.057
192.354
193.261
191.425
191.802
190.918
191.143
190.585
190.735
190.37
190.465
190.238
190.296
190.151
190.191
190.089
190.117
190.065
190.564
190.067
190.022
190.029
190.009
190.015
189.995
190.002
189.978
189.987
189.96
189.969
189.943
189.951
189.931
189.937
189.925
189.928
189.921
189.923
250.831
189.919
222.951
189.912
196.092
196.091
190.784
238.724
189.912
189.913
189.915
189.918
189.921
189.923
189.926
189.93
189.935
189.942
189.949
189.957
189.966
189.974
189.983
189.99
189.997
190.003
190.01
190.015
190.022
190.031
190.705
248.404
190.07
190.089
190.113
190.145
190.184
190.231
190.289
190.361
190.453
190.569
190.713
190.89
191.105
191.374
191.728
192.237
193.059
194.479
197.198
201.972
210.263
219.504
226.772
229.755
230.695
229.115
223.193
221.045
218.391
220.512
224.965
231.126
230.107
227.304
220.958
209.712
201.716
197.038
194.487
193.083
192.262
191.744
191.383
191.111
190.894
190.718
190.575
190.461
190.37
190.296
190.236
190.185
190.143
190.11
190.087
190.071
247.599
190.029
190.022
190.014
190.008
190.001
189.995
189.989
189.983
189.976
189.969
189.962
189.956
189.95
189.945
189.94
189.937
189.935
189.934
189.932
189.932
242.676
189.919
189.923
189.929
189.938
189.949
189.962
189.978
189.998
190.023
190.052
190.087
190.124
190.164
190.205
190.246
190.286
190.325
190.364
190.403
190.441
190.48
190.519
190.557
190.595
190.63
190.664
190.695
190.723
190.747
190.767
190.782
190.792
190.797
190.796
190.79
190.779
190.764
190.744
190.72
190.693
190.664
190.633
190.599
190.563
190.525
190.483
190.44
190.394
190.348
190.302
190.257
190.214
190.174
190.137
190.104
190.075
190.049
190.027
190.008
189.992
189.978
189.967
189.957
189.95
189.944
189.94
189.936
189.933
189.932
189.932
220.886
238.828
245.595
248.227
257.146
261.701
263.898
265.199
258.909
249.087
242.047
237.434
234.212
232.509
231.554
231.107
230.938
230.648
230.271
229.831
229.1
228.303
227.193
225.328
221.722
217.738
213.815
210.328
207.427
205.074
203.211
201.722
200.546
199.596
198.843
198.229
197.75
197.358
197.058
196.781
196.548
196.3
196.136
196.007
198.46
195.607
239.356
236.491
190.063
242.535
248.057
195.988
196.199
196.471
196.68
196.789
196.883
196.921
196.816
196.887
196.886
196.815
196.914
196.878
196.787
196.679
196.468
196.197
195.988
195.868
244.945
233.773
244.597
248.246
256.897
261.231
263.819
265.548
261.004
250.838
242.107
237.069
233.574
231.706
230.706
230.224
229.997
229.728
229.56
229.448
229.25
228.811
227.751
225.228
221.072
217.244
213.566
210.242
207.422
205.101
203.24
201.737
200.541
199.576
198.816
198.204
197.732
197.348
197.055
196.78
196.547
196.299
196.133
196.005
195.866
236.494
237.178
195.393
198.965
253.281
237.001
236.765
239.273
190.042
202.558
252.31
230.077
189.939
202.241
189.916
190.056
230.973
233.52
189.915
189.935
225.41
190.05
255.436
252.704
248.812
191.883
234.031
248.551
249.482
223.401
189.934
206.016
200.74
199.17
251.699
190.043
191.085
192.176
253.568
189.998
247.035
240.651
242.223
251.378
190.053
249.136
190.376
194.793
190.036
231.708
190.035
236.745
193.304
254.756
243.156
232.077
235.221
189.938
238.475
236.446
253.8
253.494
253.924
191.92
189.917
191.686
190.061
204.546
190.217
190.703
191.537
)
;

boundaryField
{
    wall
    {
        type            zeroGradient;
    }
    outlet
    {
        type            inletOutlet;
        inletValue      uniform 1e-05;
        value           nonuniform List<scalar> 
20
(
195.988
196.199
196.471
196.68
196.789
196.883
196.921
196.816
196.887
196.886
196.815
196.914
196.878
196.787
196.679
196.468
196.197
195.988
195.868
195.866
)
;
    }
    frontAndBackPlanes
    {
        type            empty;
    }
}


// ************************************************************************* //
