/*--------------------------------*- C++ -*----------------------------------*\
| =========                 |                                                 |
| \\      /  F ield         | OpenFOAM: The Open Source CFD Toolbox           |
|  \\    /   O peration     | Version:  2212                                  |
|   \\  /    A nd           | Website:  www.openfoam.com                      |
|    \\/     M anipulation  |                                                 |
\*---------------------------------------------------------------------------*/
FoamFile
{
    version     2.0;
    format      ascii;
    arch        "LSB;label=32;scalar=64";
    class       volScalarField;
    location    "0.0356";
    object      epsilon;
}
// * * * * * * * * * * * * * * * * * * * * * * * * * * * * * * * * * * * * * //

dimensions      [0 2 -3 0 0 0 0];

internalField   nonuniform List<scalar> 
31661
(
1.08256e+06
167880
195970
182642
161130
190329
176285
154557
184658
169913
1.05256e+07
129496
3.31533e+07
260106
534652
652915
626968
804738
231379
617308
809761
801706
2.13256e+06
895755
165108
850781
3.34634e+06
1.41696e+06
126709
109823
816663
1.01588e+06
1.17651e+06
220079
332478
648428
536457
598414
726424
1.58306e+06
1.18402e+06
174058
340222
119251
121102
134280
121221
263699
507471
280203
1.07599e+06
479146
140532
273930
526731
202843
151884
145246
2.99701e+06
162528
138508
145202
149370
142752
377958
1.52669e+06
5.70524e+06
3.0141e+06
2.9227e+06
2.57747e+06
133153
1.56978e+06
1.03388e+06
737318
603887
540462
500942
467574
434762
400567
364996
328877
293392
259409
256677
288570
322287
357028
391631
425364
458082
491044
529227
587015
701453
950995
1.41738e+06
2.03359e+06
2.61665e+06
2.94155e+06
3.04192e+06
3.03856e+06
2.99698e+06
2.91665e+06
2.9373e+06
2.85268e+06
2.8727e+06
2.78532e+06
2.80475e+06
2.71616e+06
2.7353e+06
2.64743e+06
2.66643e+06
2.58038e+06
2.59897e+06
2.51491e+06
2.53291e+06
2.45079e+06
2.46807e+06
2.38786e+06
2.40436e+06
2.32606e+06
2.34171e+06
2.26536e+06
2.28014e+06
2.20569e+06
2.21959e+06
2.14707e+06
2.16012e+06
2.08947e+06
2.10166e+06
2.03295e+06
2.04429e+06
1.97755e+06
1.98804e+06
1.92324e+06
1.93294e+06
1.87003e+06
1.87901e+06
1.81792e+06
1.82619e+06
1.76693e+06
1.77455e+06
1.71712e+06
1.72413e+06
1.66852e+06
1.67496e+06
1.62115e+06
1.62707e+06
1.575e+06
1.58044e+06
1.53012e+06
1.5351e+06
1.48652e+06
1.49108e+06
1.44421e+06
1.44838e+06
1.40317e+06
1.407e+06
1.3634e+06
1.36692e+06
1.32488e+06
1.32812e+06
1.2876e+06
1.29059e+06
1.25157e+06
1.25431e+06
1.21673e+06
1.21925e+06
1.18541e+06
1.18307e+06
1.18499e+06
1.21888e+06
1.25398e+06
1.2903e+06
1.32788e+06
1.36674e+06
1.40689e+06
1.44835e+06
1.49112e+06
1.5352e+06
1.58061e+06
1.62733e+06
1.67535e+06
1.72466e+06
1.77524e+06
1.82707e+06
1.8801e+06
1.93433e+06
1.98973e+06
2.0463e+06
2.10406e+06
2.16302e+06
2.22313e+06
2.28441e+06
2.34687e+06
2.41052e+06
2.47542e+06
2.54164e+06
2.60933e+06
2.67877e+06
2.75004e+06
2.82124e+06
2.88956e+06
2.95332e+06
3.00762e+06
3.0338e+06
2.93677e+06
2.54638e+06
1.8213e+06
1.14077e+06
778096
618971
544191
500422
465945
432505
227258
228138
398005
362630
327260
292783
260318
200341
200762
204105
227828
253513
281187
310666
341729
373788
406387
439334
473354
512463
568638
674414
903381
1.36413e+06
2.05301e+06
2.68674e+06
3.03315e+06
3.14343e+06
3.14208e+06
3.09514e+06
3.02816e+06
2.95736e+06
2.88421e+06
2.81031e+06
2.73759e+06
2.66629e+06
2.59632e+06
2.52757e+06
2.46006e+06
2.39373e+06
2.32853e+06
2.26452e+06
2.20174e+06
2.1401e+06
2.07976e+06
2.02068e+06
1.96293e+06
1.90653e+06
1.85143e+06
1.79767e+06
1.74528e+06
1.69427e+06
1.6447e+06
1.59654e+06
1.5498e+06
1.50447e+06
1.46058e+06
1.41812e+06
1.37705e+06
1.33736e+06
1.29901e+06
1.26199e+06
1.22625e+06
1.1918e+06
1.15861e+06
1.15276e+06
1.15059e+06
1.15228e+06
1.15758e+06
1.19087e+06
1.22542e+06
1.26122e+06
1.29833e+06
1.33678e+06
1.37658e+06
1.41778e+06
1.46037e+06
1.5044e+06
1.54985e+06
1.59675e+06
1.64507e+06
1.69486e+06
1.74611e+06
1.7988e+06
1.85293e+06
1.90845e+06
1.96538e+06
2.02371e+06
2.08343e+06
2.14456e+06
2.2071e+06
2.27105e+06
2.33641e+06
2.40322e+06
2.47149e+06
2.5412e+06
2.61245e+06
2.68537e+06
2.76019e+06
2.83684e+06
2.9131e+06
2.98575e+06
3.05304e+06
3.10946e+06
3.13774e+06
3.04536e+06
2.66549e+06
1.94537e+06
1.22229e+06
809161
623445
540221
492526
454954
419976
385564
351780
230426
319097
288191
259451
182679
177240
203477
176146
163528
174010
191247
209724
229404
250348
272722
296707
322675
350672
380593
412533
447160
487547
544065
646546
867822
1.33378e+06
2.07751e+06
2.80149e+06
3.20272e+06
3.32855e+06
3.32404e+06
3.26824e+06
3.1907e+06
3.10958e+06
3.02657e+06
2.94336e+06
2.86201e+06
2.78239e+06
2.70458e+06
2.62826e+06
2.55361e+06
2.48045e+06
2.40876e+06
2.33865e+06
2.27005e+06
2.20293e+06
2.13752e+06
2.07371e+06
2.0115e+06
1.95097e+06
1.89206e+06
1.83478e+06
1.77912e+06
1.72512e+06
1.67281e+06
1.62215e+06
1.57313e+06
1.52568e+06
1.47987e+06
1.43564e+06
1.39298e+06
1.35182e+06
1.31216e+06
1.27394e+06
1.23711e+06
1.20166e+06
1.16757e+06
1.1348e+06
1.12665e+06
1.12131e+06
1.11928e+06
1.12075e+06
1.12551e+06
1.13304e+06
1.16594e+06
1.20014e+06
1.23569e+06
1.27261e+06
1.31094e+06
1.35074e+06
1.39204e+06
1.43486e+06
1.47926e+06
1.52527e+06
1.57287e+06
1.62213e+06
1.67304e+06
1.72564e+06
1.77997e+06
1.83603e+06
1.89382e+06
1.95333e+06
2.01458e+06
2.07759e+06
2.14236e+06
2.20892e+06
2.2773e+06
2.3475e+06
2.41956e+06
2.49349e+06
2.56931e+06
2.64703e+06
2.7267e+06
2.80849e+06
2.89258e+06
2.97902e+06
3.0658e+06
3.14965e+06
3.22842e+06
3.29638e+06
3.33268e+06
3.24318e+06
2.8467e+06
2.06631e+06
1.27856e+06
818894
617067
526972
474336
434253
398713
365678
334937
306586
233065
280742
257179
156900
158107
146724
209112
179932
155435
143658
158167
172028
186461
201264
216358
231795
247827
264779
283144
303499
326297
351883
380775
413767
453614
509484
608661
822361
1.29158e+06
2.1003e+06
2.95764e+06
3.44927e+06
3.60064e+06
3.58998e+06
3.5202e+06
3.42735e+06
3.33095e+06
3.23268e+06
3.13431e+06
3.03863e+06
2.94587e+06
2.85572e+06
2.76786e+06
2.68237e+06
2.59909e+06
2.51792e+06
2.43891e+06
2.362e+06
2.28715e+06
2.21456e+06
2.14412e+06
2.0758e+06
2.00955e+06
1.94542e+06
1.88336e+06
1.82333e+06
1.76531e+06
1.70933e+06
1.65531e+06
1.60323e+06
1.55302e+06
1.50465e+06
1.45811e+06
1.41334e+06
1.37027e+06
1.32887e+06
1.28907e+06
1.25082e+06
1.21408e+06
1.17882e+06
1.14501e+06
1.11261e+06
1.10334e+06
1.0959e+06
1.091e+06
1.0891e+06
1.09039e+06
1.09466e+06
1.10141e+06
1.10992e+06
1.14253e+06
1.17649e+06
1.21186e+06
1.24869e+06
1.28705e+06
1.32697e+06
1.3685e+06
1.41173e+06
1.45667e+06
1.5034e+06
1.55197e+06
1.6024e+06
1.65476e+06
1.70908e+06
1.76539e+06
1.82379e+06
1.88432e+06
1.94699e+06
2.01184e+06
2.0789e+06
2.14823e+06
2.21986e+06
2.29387e+06
2.37027e+06
2.44915e+06
2.53055e+06
2.61447e+06
2.70102e+06
2.79025e+06
2.88216e+06
2.97704e+06
3.07506e+06
3.17652e+06
3.27957e+06
3.38074e+06
3.47757e+06
3.56324e+06
3.6121e+06
3.51952e+06
3.07639e+06
2.18694e+06
1.30606e+06
808871
598345
501963
446523
405898
371835
342003
315746
292674
272396
235554
254237
139637
132193
215674
145112
130796
187592
159682
138064
133096
149036
161298
173913
186565
199007
211094
222836
234398
246089
258336
271649
286641
303950
324202
348120
376835
413059
464934
556641
755678
1.21435e+06
2.09233e+06
3.12904e+06
3.7658e+06
3.96144e+06
3.94347e+06
3.853e+06
3.73829e+06
3.61943e+06
3.49874e+06
3.37908e+06
3.26361e+06
3.15251e+06
3.04532e+06
2.94171e+06
2.84162e+06
2.74473e+06
2.65095e+06
2.56034e+06
2.47277e+06
2.38805e+06
2.30632e+06
2.22753e+06
2.15157e+06
2.07835e+06
2.0078e+06
1.93991e+06
1.87458e+06
1.81176e+06
1.75136e+06
1.69335e+06
1.63764e+06
1.58415e+06
1.5328e+06
1.48354e+06
1.43631e+06
1.391e+06
1.34758e+06
1.30595e+06
1.26605e+06
1.22783e+06
1.19124e+06
1.15623e+06
1.12272e+06
1.09064e+06
1.08154e+06
1.07315e+06
1.06635e+06
1.06184e+06
1.06005e+06
1.06115e+06
1.06495e+06
1.07101e+06
1.07865e+06
1.11925e+06
1.15294e+06
1.18811e+06
1.22482e+06
1.26314e+06
1.30312e+06
1.34486e+06
1.38841e+06
1.43384e+06
1.48125e+06
1.53068e+06
1.58222e+06
1.63596e+06
1.69195e+06
1.75028e+06
1.811e+06
1.87425e+06
1.94011e+06
2.00864e+06
2.07993e+06
2.15406e+06
2.23113e+06
2.31123e+06
2.39452e+06
2.48098e+06
2.57083e+06
2.66414e+06
2.76094e+06
2.86147e+06
2.96587e+06
3.07406e+06
3.1865e+06
3.30354e+06
3.42544e+06
3.5506e+06
3.67565e+06
3.79773e+06
3.90822e+06
3.97539e+06
3.87464e+06
3.3481e+06
2.29157e+06
1.29123e+06
777564
562153
465474
411263
373257
343166
318256
297374
279744
264655
237630
251336
1.08698e+06
239173
125218
222092
119846
197305
119552
168568
137418
122299
142434
123695
126716
142750
154145
165908
177686
189155
200051
210219
219634
228401
236744
244976
253504
262739
273185
285516
300372
318551
341284
371160
415099
493418
665751
1.08486e+06
1.99168e+06
3.2532e+06
4.12705e+06
4.40611e+06
4.38356e+06
4.26479e+06
4.11809e+06
3.9681e+06
3.81768e+06
3.67022e+06
3.52906e+06
3.39435e+06
3.26546e+06
3.14192e+06
3.02338e+06
2.90961e+06
2.80044e+06
2.69582e+06
2.59542e+06
2.49911e+06
2.40674e+06
2.31821e+06
2.23343e+06
2.15223e+06
2.07448e+06
2.00002e+06
1.92878e+06
1.86062e+06
1.79541e+06
1.73301e+06
1.67334e+06
1.61628e+06
1.56173e+06
1.50956e+06
1.45968e+06
1.41199e+06
1.36643e+06
1.32287e+06
1.28125e+06
1.24148e+06
1.20349e+06
1.1672e+06
1.13254e+06
1.09941e+06
1.06774e+06
1.05992e+06
1.05174e+06
1.04414e+06
1.03796e+06
1.03381e+06
1.03211e+06
1.03303e+06
1.03642e+06
1.04183e+06
1.04865e+06
1.05608e+06
1.095e+06
1.12829e+06
1.1631e+06
1.19951e+06
1.2376e+06
1.27746e+06
1.31917e+06
1.3628e+06
1.40846e+06
1.45624e+06
1.50623e+06
1.55855e+06
1.61328e+06
1.67055e+06
1.73048e+06
1.79315e+06
1.85868e+06
1.92726e+06
1.999e+06
2.07405e+06
2.15253e+06
2.23463e+06
2.3205e+06
2.41031e+06
2.50432e+06
2.60258e+06
2.70534e+06
2.8129e+06
2.92528e+06
3.04288e+06
3.16592e+06
3.29451e+06
3.42912e+06
3.57033e+06
3.71877e+06
3.87303e+06
4.02944e+06
4.18527e+06
4.32937e+06
4.42047e+06
4.29866e+06
3.62047e+06
2.31682e+06
1.2306e+06
715486
510695
421522
373105
340757
316433
297226
281703
269017
258304
248888
240293
1.06318e+06
231971
227614
113358
207276
109534
180282
109938
151844
112818
127954
132021
117111
111981
1.03746e+06
1.0305e+06
1.02315e+06
1.01627e+06
1.01065e+06
1.00684e+06
1.00524e+06
1.00599e+06
1.00897e+06
1.01381e+06
1.01989e+06
1.0265e+06
1.03278e+06
1.06898e+06
1.10164e+06
1.13586e+06
1.17173e+06
1.2093e+06
1.24869e+06
1.29002e+06
1.33337e+06
1.37884e+06
1.42653e+06
1.47659e+06
1.52911e+06
1.58426e+06
1.64215e+06
1.70293e+06
1.76677e+06
1.83381e+06
1.90423e+06
1.97823e+06
2.05602e+06
2.1378e+06
2.22381e+06
2.3143e+06
2.40953e+06
2.5098e+06
2.6154e+06
2.72662e+06
2.84375e+06
2.96726e+06
3.0975e+06
3.23463e+06
3.37931e+06
3.53197e+06
3.69314e+06
3.8638e+06
4.04489e+06
4.23534e+06
4.43175e+06
4.63123e+06
4.81863e+06
4.94013e+06
4.76984e+06
3.84012e+06
2.22761e+06
1.10119e+06
628285
450966
376334
337140
312071
294018
280244
269462
260754
253429
247019
241074
235211
223545
229130
1.03783e+06
122200
137795
148540
159747
171080
182193
192767
202559
211429
219351
226403
232747
238609
244264
250015
256239
263245
271490
281642
294420
310886
333233
366930
427683
563235
909681
1.76166e+06
3.22777e+06
4.47185e+06
4.9133e+06
4.90076e+06
4.74602e+06
4.5575e+06
4.36667e+06
4.17837e+06
3.99615e+06
3.82326e+06
3.65978e+06
3.50477e+06
3.35746e+06
3.21734e+06
3.08403e+06
2.95716e+06
2.83647e+06
2.72165e+06
2.61236e+06
2.50834e+06
2.4093e+06
2.31502e+06
2.22532e+06
2.13996e+06
2.05869e+06
1.9813e+06
1.90764e+06
1.8375e+06
1.77067e+06
1.70701e+06
1.64638e+06
1.58862e+06
1.53357e+06
1.4811e+06
1.4311e+06
1.38344e+06
1.33802e+06
1.29472e+06
1.25346e+06
1.21412e+06
1.17661e+06
1.14084e+06
1.10672e+06
1.07417e+06
1.04308e+06
216224
103741
222586
214707
192891
101057
164635
101848
137262
104676
115937
108691
102550
127780
113443
1.04075e+06
1.07251e+06
1.10585e+06
1.14083e+06
1.17757e+06
1.21615e+06
1.25665e+06
1.29922e+06
1.34399e+06
1.39105e+06
1.44055e+06
1.4926e+06
1.5474e+06
1.60508e+06
1.66582e+06
1.72982e+06
1.79726e+06
1.86837e+06
1.94337e+06
2.02251e+06
2.10606e+06
2.19434e+06
2.28768e+06
2.38645e+06
2.49101e+06
2.60181e+06
2.71921e+06
2.84374e+06
2.97592e+06
3.11622e+06
3.26546e+06
3.4239e+06
3.59239e+06
3.77175e+06
3.96285e+06
4.16711e+06
4.38652e+06
4.61999e+06
4.86463e+06
5.11748e+06
5.35629e+06
5.49954e+06
5.19745e+06
3.81398e+06
1.96642e+06
920268
531038
392335
335746
306908
289092
276660
267468
260402
254645
249804
245556
241559
237515
233214
228466
143792
154488
165448
176339
186828
196629
205535
213439
220329
226276
231409
235903
239949
243758
247555
251594
256150
261468
267949
276265
287292
302615
326126
368915
465098
720298
1.41618e+06
2.92897e+06
4.66157e+06
5.43264e+06
5.47221e+06
5.27987e+06
5.0403e+06
4.79871e+06
4.56435e+06
4.34057e+06
4.13037e+06
3.93355e+06
3.74869e+06
3.57461e+06
3.41053e+06
3.25581e+06
3.1098e+06
2.97202e+06
2.84192e+06
2.71908e+06
2.60303e+06
2.49331e+06
2.38955e+06
2.29139e+06
2.19853e+06
2.11063e+06
2.02736e+06
1.94844e+06
1.87362e+06
1.80265e+06
1.7353e+06
1.67135e+06
1.61065e+06
1.55299e+06
1.49819e+06
1.44612e+06
1.39662e+06
1.34956e+06
1.3048e+06
1.26223e+06
1.22172e+06
1.18316e+06
1.14646e+06
1.11151e+06
1.0782e+06
1.04644e+06
1.01615e+06
1.01338e+06
1.00847e+06
1.00229e+06
995702
989495
984377
980890
979388
980009
982631
986923
992351
998208
1.00374e+06
1.00811e+06
133656
1.0105e+06
215322
223052
118693
204688
96042.2
981658
979770
976012
971154
965954
961145
957335
955025
954514
955920
959110
963757
969351
975269
980752
985002
987269
205298
178927
94192.2
124301
139687
149855
160404
171039
181435
191294
200372
208506
215622
221731
226903
231254
234922
238054
240804
243320
245760
248290
251113
254435
258444
263499
270300
279992
295087
322708
384759
552960
1.04396e+06
2.33794e+06
4.46129e+06
5.84432e+06
6.05549e+06
5.83958e+06
5.54255e+06
5.24087e+06
4.95338e+06
4.68263e+06
4.43089e+06
4.1975e+06
3.98049e+06
3.77806e+06
3.58896e+06
3.41214e+06
3.24671e+06
3.09179e+06
2.94666e+06
2.81059e+06
2.68296e+06
2.5631e+06
2.45047e+06
2.34455e+06
2.24486e+06
2.15098e+06
2.06249e+06
1.97898e+06
1.9001e+06
1.82556e+06
1.75509e+06
1.68841e+06
1.62527e+06
1.56548e+06
1.50882e+06
1.4551e+06
1.40416e+06
1.35583e+06
1.30996e+06
1.2664e+06
1.22501e+06
1.18569e+06
1.14831e+06
1.11276e+06
1.07893e+06
1.04671e+06
1.01604e+06
986809
216862
207271
150292
95174.4
124698
97825.9
106087
101484
95043.9
105810
110641
130135
115871
130820
126681
980953
1.01008e+06
1.04068e+06
1.07285e+06
1.10665e+06
1.14217e+06
1.17952e+06
1.21881e+06
1.26014e+06
1.30363e+06
1.34946e+06
1.39773e+06
1.44861e+06
1.50225e+06
1.55884e+06
1.61857e+06
1.68165e+06
1.7483e+06
1.81877e+06
1.89333e+06
1.97225e+06
2.05586e+06
2.14448e+06
2.23856e+06
2.33852e+06
2.44486e+06
2.55809e+06
2.67874e+06
2.80739e+06
2.9448e+06
3.09161e+06
3.24864e+06
3.41676e+06
3.59706e+06
3.79019e+06
3.99742e+06
4.22046e+06
4.46117e+06
4.72215e+06
5.00262e+06
5.30036e+06
5.61366e+06
5.90616e+06
6.04397e+06
5.45377e+06
3.47248e+06
1.56768e+06
726518
440396
342343
303174
283676
271991
264085
258332
253795
250135
247106
244369
241746
239021
236058
232681
228733
224118
954185
209754
218619
236965
953203
192914
89955.4
952732
949518
945266
940692
936432
933046
931006
930584
931890
934801
939015
944071
949370
954217
957908
959712
958948
195206
165403
88713.3
140866
145647
155801
166137
176380
186242
195465
203851
211284
217723
223196
227779
231576
234704
237284
239433
241259
242871
244373
245878
247512
249430
251814
254811
258737
264370
273311
289817
326794
427313
731422
1.63511e+06
3.70089e+06
5.8999e+06
6.55436e+06
6.37494e+06
6.02662e+06
5.66163e+06
5.31878e+06
4.99906e+06
4.70389e+06
4.43301e+06
4.18351e+06
3.95291e+06
3.73933e+06
3.54122e+06
3.35731e+06
3.18639e+06
3.02738e+06
2.87935e+06
2.74138e+06
2.61263e+06
2.49237e+06
2.37988e+06
2.27454e+06
2.17578e+06
2.0831e+06
1.99596e+06
1.91397e+06
1.83674e+06
1.76396e+06
1.69528e+06
1.63044e+06
1.56918e+06
1.51127e+06
1.45649e+06
1.40463e+06
1.35551e+06
1.30897e+06
1.26484e+06
1.22298e+06
1.18325e+06
1.14552e+06
1.10968e+06
1.07561e+06
1.0432e+06
1.01238e+06
983029
955083
198303
137320
89769.2
212216
201605
114017
92175.5
98115.6
95437.7
89136.7
99306.1
103663
108413
117926
927999
926770
140507
132204
949253
977068
1.00628e+06
1.037e+06
1.0693e+06
1.10327e+06
1.13902e+06
1.17667e+06
1.21632e+06
1.25809e+06
1.30211e+06
1.34854e+06
1.39753e+06
1.44926e+06
1.50392e+06
1.5617e+06
1.62282e+06
1.68753e+06
1.75608e+06
1.82877e+06
1.9059e+06
1.98783e+06
2.07491e+06
2.16758e+06
2.26634e+06
2.37176e+06
2.48445e+06
2.60506e+06
2.73427e+06
2.87293e+06
3.02184e+06
3.1819e+06
3.35458e+06
3.54072e+06
3.7416e+06
3.95844e+06
4.19312e+06
4.44775e+06
4.72524e+06
5.02932e+06
5.35756e+06
5.70928e+06
6.08246e+06
6.41745e+06
6.46802e+06
5.23893e+06
2.75476e+06
1.14758e+06
556737
367567
304204
279208
267069
259982
255232
251689
248968
246844
245015
243348
241686
239922
237921
235568
232752
229348
225266
220379
117923
120812
204850
214593
150257
180891
85201
926946
924243
920556
916513
912715
909717
907910
907567
908771
911425
915247
919805
924540
928831
932010
933397
932384
928451
184447
152504
84400.4
142629
151086
161346
171514
181377
190711
199317
207052
213844
219683
224613
228715
232084
234824
237035
238811
240239
241399
242366
243214
244017
244857
245834
247061
248713
250931
254045
258957
268083
288624
344313
515416
1.05749e+06
2.58224e+06
5.22741e+06
6.80312e+06
6.82053e+06
6.45284e+06
6.03298e+06
5.6365e+06
5.26832e+06
4.93067e+06
4.62382e+06
4.34375e+06
4.08703e+06
3.85104e+06
3.63378e+06
3.43352e+06
3.2487e+06
3.07792e+06
2.91992e+06
2.77354e+06
2.63772e+06
2.51152e+06
2.39406e+06
2.28459e+06
2.18238e+06
2.08681e+06
1.99727e+06
1.91329e+06
1.83443e+06
1.76029e+06
1.69053e+06
1.62482e+06
1.56287e+06
1.50442e+06
1.44922e+06
1.39705e+06
1.34771e+06
1.30102e+06
1.25681e+06
1.21491e+06
1.17518e+06
1.13749e+06
1.10171e+06
1.06772e+06
1.03543e+06
1.00472e+06
975513
947713
921236
188472
125746
85447.9
192566
105078
87596.9
207853
196541
91744.4
90466.9
84541.1
93874.5
97729.6
101927
903026
901590
106182
109751
295015
112252
922760
915588
941911
969553
998620
1.02918e+06
1.06134e+06
1.0952e+06
1.13084e+06
1.16842e+06
1.20802e+06
1.24979e+06
1.29386e+06
1.34039e+06
1.38956e+06
1.44155e+06
1.49657e+06
1.55484e+06
1.6166e+06
1.68212e+06
1.7517e+06
1.82565e+06
1.90434e+06
1.98815e+06
2.07752e+06
2.17294e+06
2.275e+06
2.38439e+06
2.50183e+06
2.6281e+06
2.76412e+06
2.91083e+06
3.06919e+06
3.24076e+06
3.42677e+06
3.62847e+06
3.84738e+06
4.08624e+06
4.34589e+06
4.62957e+06
4.94139e+06
5.28682e+06
5.66329e+06
6.06987e+06
6.49351e+06
6.82723e+06
6.55653e+06
4.37903e+06
1.91074e+06
795295
428786
315213
277476
262761
255748
251652
248861
246866
245442
244298
243315
242396
241439
240345
239046
237452
235484
233046
230063
226402
221977
216758
375922
200224
210677
916687
139180
168714
81533.8
902331
900080
896874
893313
889967
887318
885715
885424
886534
888953
892414
896507
900743
904538
907254
908271
907034
903066
896012
173219
140350
81056.6
138184
157706
155021
166033
176365
186018
194908
202945
210068
216262
221551
225996
229679
232689
235119
237053
238570
239741
240630
241294
241790
242167
242481
242786
243142
243627
244338
245420
247070
249668
254416
265088
294019
383135
673939
1.57917e+06
3.82015e+06
6.43102e+06
7.10554e+06
6.79289e+06
6.33516e+06
5.88734e+06
5.47508e+06
5.09899e+06
4.75948e+06
4.45218e+06
4.1727e+06
3.91763e+06
3.68439e+06
3.47081e+06
3.27493e+06
3.09504e+06
2.92958e+06
2.77712e+06
2.6364e+06
2.50625e+06
2.38568e+06
2.27376e+06
2.16968e+06
2.07265e+06
1.98203e+06
1.89727e+06
1.81789e+06
1.74344e+06
1.67355e+06
1.60784e+06
1.54601e+06
1.48776e+06
1.43284e+06
1.381e+06
1.33203e+06
1.28573e+06
1.24193e+06
1.20045e+06
1.16116e+06
1.1239e+06
1.08855e+06
1.05499e+06
1.02312e+06
992824
964018
936610
910519
885670
177981
115634
82059.2
182749
97709.6
83957.2
187365
86713.9
86458
203681
191726
81012.5
89423.7
92772.9
879205
877585
96359.2
99824.6
102769
106454
897539
890529
905031
930963
958206
986870
1.01702e+06
1.04873e+06
1.08214e+06
1.11734e+06
1.15445e+06
1.19359e+06
1.23491e+06
1.27853e+06
1.32465e+06
1.37343e+06
1.42506e+06
1.47978e+06
1.53781e+06
1.59943e+06
1.66491e+06
1.73459e+06
1.8088e+06
1.88795e+06
1.97247e+06
2.06284e+06
2.15962e+06
2.26346e+06
2.37517e+06
2.49556e+06
2.62559e+06
2.76628e+06
2.91872e+06
3.0844e+06
3.26471e+06
3.46094e+06
3.67508e+06
3.90969e+06
4.16678e+06
4.44792e+06
4.75723e+06
5.10069e+06
5.48332e+06
5.9043e+06
6.36266e+06
6.81176e+06
7.04972e+06
5.93477e+06
3.08139e+06
1.21539e+06
549970
343879
280896
259970
251890
247977
245708
244273
243346
242716
242240
241833
241439
240983
240387
239623
238606
237289
235584
233441
230749
227487
223517
218771
213262
125071
195861
206920
112331
880344
156685
78745.7
878825
876973
874214
871090
868134
865778
864359
864121
865154
867353
870478
874164
877948
881284
883576
884272
882848
878856
871973
861995
161731
129229
78507.5
147901
155717
162439
171100
181184
190641
199090
206548
213054
218655
223413
227401
230697
233385
235543
237245
238557
239537
240239
240710
240994
241133
241165
241128
241062
241010
241017
241143
241471
242131
243377
245774
251085
265357
309066
453174
922738
2.32293e+06
5.11814e+06
7.01514e+06
6.98715e+06
6.54726e+06
6.06091e+06
5.61314e+06
5.20431e+06
4.83559e+06
4.50511e+06
4.20713e+06
3.93709e+06
3.69169e+06
3.46828e+06
3.26457e+06
3.07852e+06
2.90829e+06
2.75223e+06
2.60884e+06
2.47683e+06
2.35502e+06
2.24239e+06
2.13799e+06
2.04092e+06
1.95052e+06
1.86619e+06
1.78739e+06
1.71365e+06
1.64454e+06
1.57969e+06
1.51876e+06
1.46144e+06
1.40746e+06
1.35657e+06
1.30853e+06
1.26315e+06
1.22025e+06
1.17964e+06
1.14119e+06
1.10474e+06
1.07018e+06
1.03738e+06
1.00624e+06
976640
948498
921729
896249
871984
848865
167025
106966
79450
172384
91738.5
81118.6
139751
177519
82803
83285.7
182529
78339.1
85843.5
856457
854695
199741
187261
88701.2
91689.8
94534.7
97611.5
101828
873508
866649
856811
866924
891045
916383
942996
970990
1.00045e+06
1.03144e+06
1.06408e+06
1.09848e+06
1.13476e+06
1.17303e+06
1.21347e+06
1.2562e+06
1.30139e+06
1.34923e+06
1.39992e+06
1.45369e+06
1.51079e+06
1.5715e+06
1.63612e+06
1.70498e+06
1.77848e+06
1.85702e+06
1.94108e+06
2.03119e+06
2.12797e+06
2.23209e+06
2.34445e+06
2.46601e+06
2.59779e+06
2.74097e+06
2.89696e+06
3.06721e+06
3.25317e+06
3.45694e+06
3.68065e+06
3.92668e+06
4.19737e+06
4.49648e+06
4.82827e+06
5.20045e+06
5.61471e+06
6.06678e+06
6.55171e+06
6.95824e+06
6.78816e+06
4.47015e+06
1.87038e+06
754271
399464
292435
259786
248850
244552
242515
241472
240915
240650
240536
240497
240484
240460
240372
240156
239794
239216
238400
237262
235775
233872
231461
228498
224929
220688
215718
209971
191804
106999
203410
118558
843937
145002
76662.1
856410
854885
852507
849766
847154
845073
843836
843653
844598
846590
849414
852730
856096
859009
860935
861360
859778
855775
849056
839423
826823
150372
119251
76602
164153
172273
179955
188091
196073
203577
210279
216108
221102
225333
228876
231803
234186
236092
237582
238711
239530
240082
240410
240549
240534
240397
240169
239877
239552
239221
238919
238682
238556
238615
238992
240017
242551
249368
269904
337731
563437
1.29526e+06
3.28246e+06
6.05956e+06
6.95937e+06
6.64102e+06
6.15155e+06
5.67727e+06
5.24389e+06
4.85264e+06
4.50391e+06
4.19197e+06
3.91127e+06
3.65768e+06
3.42805e+06
3.21975e+06
3.03046e+06
2.8581e+06
2.70081e+06
2.55693e+06
2.425e+06
2.30373e+06
2.19198e+06
2.0887e+06
1.99292e+06
1.90395e+06
1.82114e+06
1.74393e+06
1.67182e+06
1.60435e+06
1.54113e+06
1.48181e+06
1.42608e+06
1.37364e+06
1.32424e+06
1.27766e+06
1.23367e+06
1.19211e+06
1.15278e+06
1.11555e+06
1.08028e+06
1.04683e+06
1.01509e+06
984952
956313
929084
903179
878519
855033
832652
811312
156002
99663.9
77482.4
155686
132183
161692
86959.4
78950.8
167296
79796.9
80824.9
834777
832860
172762
76349.1
178070
83019.1
85436.8
196105
183183
87957.3
90536.7
93726.2
97747.9
850598
843884
834377
822029
828097
850356
873720
898260
924023
951115
979619
1.00962e+06
1.04122e+06
1.07451e+06
1.10962e+06
1.14668e+06
1.18583e+06
1.22723e+06
1.27103e+06
1.31743e+06
1.36663e+06
1.41888e+06
1.47441e+06
1.53351e+06
1.59651e+06
1.66374e+06
1.73561e+06
1.81256e+06
1.89509e+06
1.98377e+06
2.07925e+06
2.18227e+06
2.29377e+06
2.41478e+06
2.54643e+06
2.69011e+06
2.84722e+06
3.01929e+06
3.20836e+06
3.41667e+06
3.64622e+06
3.8998e+06
4.1811e+06
4.49407e+06
4.84446e+06
5.23914e+06
5.67642e+06
6.15468e+06
6.63286e+06
6.8857e+06
5.62563e+06
2.77681e+06
1.07493e+06
492701
316194
263357
247155
241633
239542
238706
238397
238357
238492
238712
238971
239238
239478
239650
239720
239669
239435
239010
238318
237350
236034
234311
232164
229503
226322
222504
218031
212823
206844
188066
112587
200079
102323
806879
134023
75140.5
834973
833771
831737
829338
827044
825212
824119
823968
824833
826637
829191
832168
835156
837692
839297
839471
837744
833751
827196
817901
805804
790959
139456
110482
75213.5
171801
179992
187798
195171
202072
208427
214181
219262
223650
227357
230459
233022
235106
236765
238049
239004
239673
240092
240298
240322
240195
239942
239591
239165
238686
238177
237659
237156
236691
236295
236010
235901
236132
237117
240205
249641
280300
382854
726749
1.79138e+06
4.22623e+06
6.43562e+06
6.55606e+06
6.14808e+06
5.66912e+06
5.22417e+06
4.81777e+06
4.45415e+06
4.13186e+06
3.84433e+06
3.58626e+06
3.35381e+06
3.14397e+06
2.95417e+06
2.78213e+06
2.6258e+06
2.48339e+06
2.3533e+06
2.23415e+06
2.12469e+06
2.02377e+06
1.93046e+06
1.84399e+06
1.76369e+06
1.68896e+06
1.61928e+06
1.55419e+06
1.49328e+06
1.43619e+06
1.3826e+06
1.33223e+06
1.28481e+06
1.24012e+06
1.19795e+06
1.1581e+06
1.12042e+06
1.08474e+06
1.05094e+06
1.01889e+06
988475
959592
932143
906040
881200
857550
835019
813540
793057
773514
125084
145199
93627.3
76036.5
147441
163486
151052
83198.5
77339.6
814077
812028
156918
77528.4
74900.9
162749
78959.4
80848.5
168514
82916.7
174133
85087
192668
179543
87588.4
90654.4
94258.1
828760
822198
813017
801150
786645
789084
809463
830835
853263
876812
901539
927521
954847
983608
1.0139e+06
1.04581e+06
1.07945e+06
1.11498e+06
1.1525e+06
1.19219e+06
1.23421e+06
1.27873e+06
1.32598e+06
1.37617e+06
1.42958e+06
1.48647e+06
1.54717e+06
1.61204e+06
1.68149e+06
1.75598e+06
1.83603e+06
1.92221e+06
2.01526e+06
2.11597e+06
2.22518e+06
2.34407e+06
2.47391e+06
2.61606e+06
2.772e+06
2.94365e+06
3.13319e+06
3.34277e+06
3.57492e+06
3.83321e+06
4.12146e+06
4.44522e+06
4.81182e+06
5.22011e+06
5.66581e+06
6.14199e+06
6.52469e+06
6.20519e+06
3.74951e+06
1.52205e+06
633976
355015
272111
247253
239520
236985
236168
235984
236091
236362
236735
237163
237615
238066
238491
238861
239147
239336
239375
239258
238924
238360
237516
236354
234825
232911
230518
227663
224242
220171
215441
210019
203934
184772
98320.6
107374
197053
769644
123939
74061.2
814478
813569
811846
809772
807751
806125
805161
805035
805834
807475
809780
812439
815090
817296
818607
818540
816710
812735
806341
797365
785752
771539
754861
118686
129251
102952
102924
113046
74238.3
139539
155235
171152
179096
186804
194124
200938
207194
212842
217878
222276
226090
229331
232047
234281
236088
237516
238607
239399
239928
240226
240324
240250
240030
239689
239250
238733
238159
237544
236907
236265
235634
235032
234479
234000
233633
233456
233663
234851
238971
252554
297714
450692
950938
2.40974e+06
5.02547e+06
6.27182e+06
6.04754e+06
5.59772e+06
5.14706e+06
4.73378e+06
4.36131e+06
4.03198e+06
3.7407e+06
3.48135e+06
3.2492e+06
3.04069e+06
2.85295e+06
2.6835e+06
2.53015e+06
2.39098e+06
2.26432e+06
2.1487e+06
2.04281e+06
1.94538e+06
1.85555e+06
1.7725e+06
1.69554e+06
1.62404e+06
1.55749e+06
1.4954e+06
1.43737e+06
1.38305e+06
1.33209e+06
1.28423e+06
1.2392e+06
1.19677e+06
1.15675e+06
1.11895e+06
1.0832e+06
1.04936e+06
1.01729e+06
986878
958013
930595
904532
879737
856135
833654
812227
791796
772304
753698
735932
134905
88731.1
75024.8
794294
792130
140751
80285.5
75848.8
146721
76177.3
77606
152772
73879.9
79234.9
158838
81052.1
164833
83023.8
170693
85374.1
189576
176337
88174.1
91365.7
807935
801530
792652
781246
767350
751095
732672
750357
768879
788284
808632
829966
852362
875875
900572
926527
953835
982586
1.01288e+06
1.04481e+06
1.07851e+06
1.11413e+06
1.15179e+06
1.19166e+06
1.23394e+06
1.27882e+06
1.32652e+06
1.37731e+06
1.43145e+06
1.48929e+06
1.55117e+06
1.6175e+06
1.68876e+06
1.76547e+06
1.84827e+06
1.93788e+06
2.03508e+06
2.14069e+06
2.25606e+06
2.38238e+06
2.52114e+06
2.67398e+06
2.84289e+06
3.03018e+06
3.23814e+06
3.47013e+06
3.7298e+06
4.02214e+06
4.35399e+06
4.72997e+06
5.14516e+06
5.598e+06
6.03989e+06
6.19828e+06
4.6179e+06
2.08207e+06
829345
413058
286917
249712
238439
235020
234017
233837
233998
234338
234780
235287
235836
236409
236982
237536
238049
238500
238871
239127
239252
239205
238970
238510
237782
236765
235407
233697
231577
228991
225885
222207
217964
213029
207327
200946
181649
193835
186274
95015.4
188810
114939
193200
187758
99199.5
108179
132159
147292
163196
125446
139828
155482
119452
132923
148081
126621
114162
141081
104019
134551
120942
109554
73332.4
794885
794243
792812
791023
789246
787805
786951
786860
787588
789079
791144
793523
795859
797761
798805
798552
796621
792665
786431
777769
766615
753000
737049
718948
204102
210322
215619
220217
224161
227487
230286
232646
234565
236095
237286
238164
238777
239143
239297
239267
239080
238765
238342
237833
237261
236646
236006
235359
234720
234102
233530
233013
232575
232253
232132
232432
233845
238743
255097
309833
495624
1.09576e+06
2.74794e+06
5.11341e+06
5.72053e+06
5.42324e+06
5.00017e+06
4.59619e+06
4.22207e+06
3.88598e+06
3.59196e+06
3.33386e+06
3.10518e+06
2.90136e+06
2.71897e+06
2.55505e+06
2.40735e+06
2.27373e+06
2.15248e+06
2.0421e+06
1.94122e+06
1.8486e+06
1.76342e+06
1.68486e+06
1.61222e+06
1.54489e+06
1.4823e+06
1.42398e+06
1.36953e+06
1.31859e+06
1.27085e+06
1.22602e+06
1.18387e+06
1.14417e+06
1.10673e+06
1.07137e+06
1.03793e+06
1.00628e+06
976276
947813
920787
895107
870682
847429
825284
804183
784066
764865
746540
729033
712308
119957
96631.5
73612.4
788052
781799
773216
762248
748932
733376
715761
696307
149775
156761
163982
171348
178790
186095
193153
199838
205997
211597
216623
221070
224957
228312