/*--------------------------------*- C++ -*----------------------------------*\
| =========                 |                                                 |
| \\      /  F ield         | OpenFOAM: The Open Source CFD Toolbox           |
|  \\    /   O peration     | Version:  2212                                  |
|   \\  /    A nd           | Website:  www.openfoam.com                      |
|    \\/     M anipulation  |                                                 |
\*---------------------------------------------------------------------------*/
FoamFile
{
    version     2.0;
    format      ascii;
    arch        "LSB;label=32;scalar=64";
    class       volScalarField;
    location    "0.0213";
    object      T;
}
// * * * * * * * * * * * * * * * * * * * * * * * * * * * * * * * * * * * * * //

dimensions      [0 0 0 1 0 0 0];

internalField   nonuniform List<scalar> 
2308
(
197.843
186.914
232.302
173.133
182.846
178.484
176.55
180.722
184.45
151.962
153.84
156.525
158.431
160.348
162.24
164.098
165.902
167.456
165.758
163.967
162.077
160.138
158.153
156.103
154.055
151.999
149.993
147.969
176.864
167.659
145.863
143.82
141.8
139.794
137.797
135.807
133.818
131.829
129.838
127.847
125.855
123.866
121.876
119.886
117.896
117.896
119.884
121.87
123.858
125.846
127.834
129.821
131.811
133.797
135.785
137.775
139.767
141.769
143.783
145.82
147.903
149.85
151.755
153.581
155.315
157.008
158.777
160.625
162.488
164.336
166.166
115.91
115.902
165.958
163.992
162.018
160.028
158.017
155.994
153.976
151.926
149.877
147.874
145.845
143.818
141.805
139.803
137.806
135.813
133.82
131.828
129.836
127.844
125.853
123.863
121.873
119.884
117.896
169.125
115.908
169.351
167.969
115.881
117.873
119.86
121.849
123.836
125.825
127.815
129.806
131.792
133.78
135.768
137.756
139.746
141.739
143.74
145.742
147.731
149.678
151.632
153.531
155.387
157.215
159.044
160.896
162.761
164.619
166.465
182.126
177.77
176.102
177.117
168.286
166.164
164.048
162.004
159.977
157.952
155.928
153.906
151.872
149.831
147.828
145.819
143.807
141.801
139.802
137.805
135.812
133.82
131.826
129.833
127.84
125.85
123.858
121.868
119.879
117.892
115.904
113.915
113.92
113.922
113.91
181.844
113.893
183.531
184.268
169.732
186.533
181.461
170.943
168.318
111.926
111.929
111.93
111.918
111.903
111.888
113.875
115.867
117.853
119.842
121.829
123.818
125.807
127.798
129.789
131.778
133.767
135.754
137.742
139.731
141.72
143.71
145.695
147.663
149.604
151.559
153.493
155.435
157.36
159.248
161.133
163.018
164.899
166.765
172.477
200.935
181.337
180.365
178.325
176.36
174.352
172.309
170.244
168.17
166.109
164.041
161.983
159.943
157.913
155.885
153.86
151.832
149.803
147.798
145.798
143.796
141.795
139.799
137.803
135.81
133.816
131.822
129.828
127.837
125.845
123.851
121.862
119.874
117.885
115.897
113.909
111.92
248.539
185.261
203.904
171.16
223.57
185.288
170.166
172.646
111.875
113.864
115.851
117.84
119.826
121.815
123.804
125.795
127.786
129.776
131.766
133.755
135.743
137.731
139.718
141.703
143.684
145.658
147.617
149.563
151.516
153.472
155.446
157.424
159.382
161.322
163.239
165.139
167.036
168.635
187.757
184.372
180.454
178.267
176.235
174.209
172.17
170.123
168.074
166.029
163.984
161.94
159.906
157.877
155.852
153.827
151.802
149.782
147.777
145.78
143.784
141.791
139.795
137.801
135.806
133.812
131.816
129.824
127.832
125.837
123.846
121.857
119.867
117.877
115.889
113.9
111.913
109.924
109.93
109.935
109.937
109.936
109.928
109.915
109.901
109.888
207.072
229.669
271.129
187.004
196.078
271.999
168.915
170.505
189.373
188.893
197.167
179.948
180.217
178.166
176.115
174.077
172.044
170.01
167.977
165.946
163.916
161.886
159.86
157.838
155.817
153.797
151.778
149.765
147.762
145.767
143.776
141.784
139.791
137.796
135.801
133.806
131.813
129.819
127.824
125.832
123.842
121.85
119.858
117.869
115.88
113.892
111.905
109.918
107.93
107.935
107.941
107.941
107.943
107.946
107.935
107.924
107.914
107.902
107.892
109.878
111.866
113.853
115.842
117.829
119.817
121.806
123.796
125.787
127.776
129.766
131.755
133.744
135.732
137.718
139.702
141.684
143.66
145.628
147.586
149.537
151.493
153.46
155.441
157.427
159.432
161.425
163.395
165.334
167.26
189.216
170.766
172.374
174.538
190.838
190.493
188.676
187.013
185.272
182.296
182.141
180.134
178.055
175.991
173.945
171.916
169.893
167.876
165.858
163.841
161.823
159.807
157.793
155.78
153.768
151.757
149.749
147.75
145.757
143.766
141.774
139.781
137.787
135.792
133.799
131.806
129.811
127.819
125.828
123.836
121.842
119.852
117.86
115.872
113.885
111.897
109.91
107.923
105.936
105.941
105.945
105.948
105.951
105.949
105.949
105.942
105.934
105.925
105.916
105.907
105.899
107.885
109.871
111.859
113.847
115.835
117.823
119.811
121.801
123.79
125.779
127.769
129.758
131.746
133.733
135.72
137.705
139.687
141.665
143.639
145.604
147.564
149.52
151.478
153.454
155.433
157.422
159.431
161.451
163.473
165.475
167.438
169.163
190.934
190.744
265.723
171.022
186.377
188.377
190.25
174.072
178.452
174.706
172.577
192.296
192.202
103.948
103.951
103.955
103.956
103.956
103.956
103.954
103.949
103.942
103.935
103.927
103.919
103.91
103.903
105.891
107.879
109.867
111.855
113.844
115.832
117.82
119.808
121.797
123.786
125.775
127.762
129.75
131.737
133.723
135.708
137.691
139.672
141.649
143.621
145.586
147.548
149.507
151.469
153.445
155.427
157.413
159.425
161.441
163.471
165.517
167.553
169.376
182.732
192.559
176.425
230.806
180.056
177.924
175.845
173.802
171.782
169.772
167.768
165.766
163.761
161.755
159.749
157.744
155.739
153.735
151.733
149.732
147.736
145.744
143.752
141.76
139.768
137.775
135.782
133.789
131.796
129.804
127.812
125.82
123.828
121.836
119.843
117.853
115.865
113.877
111.889
109.902
107.916
105.93
103.942
192.318
192.545
245.442
174.314
194.174
172.851
103.897
105.886
107.874
109.864
111.852
113.841
115.829
117.817
119.806
121.794
123.782
125.769
127.756
129.742
131.728
133.713
135.696
137.677
139.656
141.632
143.605
145.572
147.535
149.497
151.462
153.44
155.414
157.405
159.413
161.429
163.456
165.508
167.591
169.56
181.287
194.055
101.953
101.957
101.96
101.963
101.962
101.962
101.962
101.96
101.955
101.95
101.944
101.935
101.928
101.921
101.913
101.906
184.105
193.844
191.687
189.577
187.453
178.569
179.23
185.936
173.822
179.834
177.716
175.66
173.639
171.638
169.647
167.658
165.67
163.678
161.685
159.689
157.693
155.696
153.7
151.704
149.71
147.717
145.726
143.735
141.744
139.753
137.761
135.77
133.778
131.786
129.794
127.803
125.811
123.82
121.828
119.837
117.848
115.857
113.869
111.883
109.897
107.909
105.923
103.936
101.947
242.059
171.268
175.796
193.887
194.302
194.192
179.905
244.896
248.211
177.274
174.692
169.731
177.124
210.251
179.096
239.12
101.901
103.891
105.881
107.871
109.86
111.849
113.837
115.826
117.815
119.802
121.79
123.777
125.764
127.75
129.735
131.719
133.702
135.684
137.663
139.641
141.616
143.589
145.559
147.525
149.489
151.456
153.43
155.407
157.397
159.399
161.411
163.436
165.473
167.522
169.582
182.652
199.239
201.943
99.9576
99.9618
99.9645
99.9679
99.969
99.9695
99.97
99.9678
99.9638
99.9604
99.9554
99.949
99.9428
99.9364
99.9291
99.9226
99.9168
99.9105
178.936
195.368
193.027
190.811
188.703
186.688
226.823
199.404
181.361
179.409
177.422
175.435
173.457
171.486
169.518
167.547
165.574
163.596
161.614
159.629
157.641
155.653
153.664
151.674
149.684
147.695
145.706
143.716
141.727
139.737
137.747
135.756
133.766
131.775
129.784
127.793
125.802
123.811
121.821
119.831
117.84
115.851
113.863
111.877
109.889
107.902
105.916
103.929
101.941
99.9518
185.337
171.52
200.331
191.43
193.39
195.412
173.133
195.923
195.847
196.054
239.014
199.816
224.626
174.735
171.259
181.24
245.324
241.854
169.321
167.384
165.395
163.391
161.384
159.382
157.389
155.397
153.423
151.451
149.482
147.514
145.545
143.575
141.602
139.627
137.65
135.671
133.691
131.709
129.726
127.742
125.757
123.771
121.784
119.798
117.81
115.822
113.834
111.845
109.856
107.867
105.877
103.886
101.896
99.9053
238.772
97.9615
97.9661
97.9693
97.9726
97.9753
97.9752
97.9757
97.9737
97.9706
97.9677
97.9639
97.9589
97.9538
97.9487
97.9426
97.9367
97.9313
97.925
97.9199
97.9142
183.709
171.812
189.522
249.07
248.921
248.969
248.944
248.851
245.138
241.535
238.092
174.587
235.869
197.444
201.652
200.983
192.724
194.77
196.888
174.979
186.491
244.06
196.656
194.254
192.039
190.02
188.206
185.222
186.827
182.651
180.855
179.002
177.113
175.197
173.268
171.333
169.39
167.439
165.481
163.516
161.546
159.57
157.591
155.61
153.626
151.642
149.657
147.671
145.684
143.697
141.709
139.721
137.732
135.742
133.753
131.763
129.773
127.783
125.793
123.803
121.813
119.823
117.833
115.845
113.857
111.869
109.882
107.895
105.908
103.921
101.933
99.9445
97.9552
198.443
196.331
194.228
225.531
195.232
173.448
228.348
193.23
233.382
197.812
197.826
197.485
195.163
196.071
193.97
238.44
197.292
234.355
237.212
203.201
195.812
198.284
241.011
244.849
248.696
169.213
167.267
165.306
163.329
161.343
159.355
157.371
155.389
153.414
151.442
149.472
147.502
145.532
143.561
141.588
139.614
137.637
135.659
133.68
131.699
129.716
127.733
125.749
123.764
121.778
119.792
117.805
115.817
113.829
111.84
109.852
107.862
105.872
103.882
101.892
99.9011
97.9094
189.417
191.144
193.124
195.303
197.678
200.221
220.933
182.078
172.424
190.747
193.11
234.79
235.322
200.633
198.268
173.083
229.82
224.77
183.523
184.696
253.153
239.703
244.608
202.908
95.965
95.9701
95.9739
95.9768
95.98
95.9803
95.9799
95.978
95.9756
95.9733
95.9701
95.9661
95.9622
95.9582
95.9536
95.9487
95.9441
95.9383
95.9329
95.9278
95.9232
95.9197
253.055
252.884
252.783
252.726
252.674
252.605
236.299
173.85
187.64
192.224
191.416
178.608
231.983
232.216
199.73
228.077
203.532
199.081
229.13
175.35
272.492
252.873
199.582
184.951
183.603
182.059
180.392
178.638
176.826
174.97
173.086
171.184
169.267
167.336
165.394
163.443
161.483
159.516
157.544
155.569
153.591
151.611
149.63
147.647
145.663
143.678
141.691
139.705
137.717
135.729
133.74
131.751
129.762
127.773
125.783
123.794
121.805
119.815
117.826
115.838
113.849
111.861
109.875
107.887
105.9
103.913
101.924
99.9359
97.9475
95.9587
267.588
214.169
272.262
191.946
234.994
199.53
243.668
186.418
180.009
234.324
182.851
182.231
188.692
190.23
191.986
193.955
196.123
198.487
201.038
203.761
205.765
206.638
180.359
192.751
176.821
185.778
172.829
170.973
169.094
167.17
165.226
163.267
161.298
159.324
157.348
155.373
153.4
151.43
149.46
147.49
145.52
143.549
141.576
139.602
137.626
135.648
133.669
131.689
129.707
127.725
125.741
123.756
121.771
119.785
117.799
115.812
113.824
111.836
109.847
107.858
105.868
103.878
101.888
99.8968
97.9063
95.9166
240.428
244.481
248.511
252.519
231.763
271.921
193.912
196.218
198.867
210.982
204.632
207.797
171.443
187.31
175.672
174.4
188.82
191.142
189.684
185.998
231.458
231.713
204.854
201.532
173.612
225.232
179.755
220.946
217.176
203.011
200.577
224.973
177.217
180.973
181.539
190.945
218.469
221.427
224.834
186.822
188.029
256.833
256.86
256.809
256.714
256.62
256.55
256.514
256.482
256.455
185.755
175.81
201.339
201.676
228.37
222.473
182.674
184.546
183.141
181.633
180.032
178.343
176.586
174.777
172.93
171.055
169.158
167.244
165.316
163.376
161.426
159.467
157.502
155.532
153.559
151.583
149.605
147.624
145.643
143.659
141.675
139.689
137.703
135.716
133.728
131.74
129.751
127.763
125.774
123.785
121.796
119.807
117.818
115.83
113.842
111.854
109.866
107.88
105.891
103.904
101.916
99.9279
97.9397
95.9515
93.9625
93.9686
93.9737
93.9784
93.9808
93.9824
93.9831
93.9824
93.981
93.9791
93.9771
93.9742
93.9714
93.9685
93.9654
93.9622
93.9584
93.9545
93.9498
93.9452
93.9409
93.9365
93.9325
93.9291
93.9259
190.353
228.472
209.639
208.797
206.419
187.48
256.953
247.931
175.648
176.799
189.054
190.74
192.549
194.531
196.701
199.077
201.671
204.481
207.485
210.605
216.496
212.633
213.688
175.037
189.999
187.897
231.485
204.43
172.024
221.355
215.521
213.574
201.912
220.991
179.048
221.532
183.234
208.642
205.272
202.169
199.351
196.783
194.465
192.213
188.347
252.773
183.37
235.774
239.935
244.134
248.301
252.438
256.435
183.818
177.718
272.971
203.651
261.031
260.819
260.698
260.632
260.563
260.485
260.402
260.338
260.299
260.28
260.274
260.274
217.978
224.846
180.497
198.399
175.944
272.434
184.8
185.909
184.373
182.883
181.359
179.78
178.129
176.407
174.633
172.812
170.956
169.073
167.169
165.251
163.32
161.377
159.426
157.466
155.501
153.531
151.558
149.582
147.604
145.624
143.643
141.659
139.675
137.689
135.703
133.716
131.729
129.741
127.753
125.764
123.776
121.787
119.799
117.81
115.822
113.834
111.846
109.858
107.87
105.883
103.896
101.908
99.92
97.9323
95.9444
93.9557
91.9659
91.9716
91.977
91.9802
91.983
91.9841
91.9841
91.9838
91.9829
91.9815
91.9796
91.9774
91.9753
91.973
91.9707
91.9683
91.9657
91.9627
91.9594
91.9559
91.9524
91.9489
91.9452
91.9421
91.9391
91.9357
91.9334
93.9227
95.913
97.9039
99.8938
101.884
103.874
105.864
107.853
109.842
111.831
113.819
115.806
117.793
119.779
121.765
123.75
125.734
127.717
129.699
131.68
133.66
135.639
137.616
139.591
141.565
143.538
145.509
147.479
149.448
151.418
153.386
155.355
157.324
159.291
161.256
163.213
165.16
167.097
169.02
170.938
172.923
174.78
176.616
178.343
212.202
182.171
184.305
184.802
186.558
180.381
188.722
203.737
218.369
176.369
177.636
189.273
186.934
185.044
188.58
228.032
228.02
208.083
218.182
211.879
209.438
215.919
202.994
205.613
224.666
217.469
213.48
179.559
221.004
204.451
212.609
214.977
206.885
207.562
227.894
186.831
188.132
176.991
215.219
211.752
208.294
205.058
202.103
199.434
197.035
194.864
192.894
191.095
189.411
205.58
184.031
178.195
190.622
192.611
194.78
197.111
199.66
202.508
205.72
209.359
184.564
182.091
229.321
234.181
238.962
243.513
178.467
213.863
185.087
214.371
182.287
221.277
180.918
235.089
239.451
243.793
248.113
252.394
256.52
260.538
183.379
181.99
184.488
182.845
181.249
179.612
178.002
176.341
174.567
172.747
170.862
168.955
167.039
165.11
163.169
161.22
159.263
157.302
155.338
153.373
151.406
149.438
147.469
145.5
143.529
141.556
139.582
137.607
135.631
133.652
131.673
129.692
127.71
125.727
123.744
121.759
119.774
117.788
115.801
113.814
111.826
109.838
107.849
105.86
103.871
101.881
99.8911
97.9007
95.9104
93.9207
91.9317
208.431
205.54
89.9746
89.978
89.9819
89.9836
89.9847
89.9846
89.9841
89.9835
89.9828
89.9816
89.9799
89.978
89.9761
89.9743
89.9727
89.971
89.9691
89.9671
89.9649
89.9624
89.96
89.9572
89.9545
89.9516
89.9492
89.9469
89.9455
89.9444
218.573
264.706
264.521
264.418
264.338
264.26
264.186
264.116
264.056
264.014
263.988
263.97
264.032
264.42
252.362
256.543
260.799
264.804
187.212
185.709
184.203
182.705
181.187
179.621
177.99
176.292
174.535
172.728
170.883
169.009
167.113
165.201
163.276
161.339
159.392
157.437
155.475
153.508
151.538
149.564
147.587
145.609
143.628
141.646
139.662
137.678
135.692
133.706
131.719
129.731
127.744
125.755
123.767
121.779
119.791
117.803
115.814
113.827
111.839
109.851
107.863
105.875
103.887
101.9
99.9126
97.925
95.9372
93.9488
91.9596
89.9693
217.725
211.237
224.258
224.405
184.068
187.502
178.319
179.548
209.756
206.001
188.302
208.23
183.129
189.199
190.97
192.894
194.985
197.302
199.868
202.725
205.955
209.636
243.97
168.698
223.591
228.794
234.1
239.086
189.718
217.242
212.97
208.936
205.407
202.344
199.652
197.241
195.063
193.091
191.304
178.922
186.356
185.794
224.156
210.597
214.416
211.391
207.153
186.937
185.486
184.053
182.585
181.076
179.508
177.88
176.195
174.443
172.638
170.785
168.9
166.994
165.072
163.138
161.194
159.242
157.286
155.325
153.362
151.396
149.43
147.462
145.492
143.521
141.549
139.576
137.601
135.624
133.646
131.667
129.686
127.705
125.722
123.739
121.754
119.769
117.783
115.797
113.81
111.822
109.834
107.846
105.857
103.868
101.878
99.8884
97.8984
95.9086
93.9193
91.9309
89.9435
229.565
234.342
238.989
243.461
247.972
252.424
256.875
261.141
264.959
181.407
220.719
208.261
217.084
220.352
183.133
180.287
250.86
255.56
260.197
264.455
186.102
220.658
268.377
268.156
268.041
267.984
267.93
267.876
267.821
267.769
267.723
267.685
267.655
267.646
267.696
268.038
268.481
271.024
87.9765
87.9796
87.9811
87.9837
87.984
87.984
87.9834
87.9826
87.9821
87.9827
87.9816
87.9801
87.9784
87.9767
87.9754
87.9742
87.9732
87.9724
87.9715
87.9706
87.9693
87.9677
87.9659
87.964
87.9624
87.9605
87.9593
87.9583
87.9575
87.9566
186.91
185.499
184.045
182.578
181.084
179.541
177.922
176.23
174.474
172.673
170.834
168.966
167.076
165.168
163.246
161.311
159.367
157.415
155.456
153.491
151.522
149.55
147.574
145.596
143.617
141.635
139.652
137.668
135.682
133.697
131.71
129.723
127.735
125.747
123.759
121.771
119.783
117.795
115.807
113.819
111.832
109.844
107.856
105.868
103.881
101.893
99.9059
97.9184
95.9307
93.9426
91.9541
89.9652
87.9745
210.065
213.745
220.237
184.731
180.855
89.9427
91.9303
190.2
189.187
87.9556
85.9702
85.9736
85.9713
85.9704
85.9701
85.9726
85.9715
85.974
85.9737
85.9748
85.9753
85.9743
85.9743
85.9752
85.9748
85.9763
85.976
85.9778
85.977
85.9805
85.9789
85.9757
85.9752
85.9789
85.9778
85.9789
85.9799
85.9778
85.9793
89.9609
87.9716
85.9795
85.9788
93.9375
91.9495
97.9128
95.9252
101.888
99.9002
105.862
103.875
109.837
107.85
113.813
111.825
117.788
115.801
121.764
119.776
125.74
123.752
129.715
127.728
133.689
131.702
137.66
135.675
141.626
139.644
145.587
143.608
149.54
147.565
153.479
151.511
157.401
155.443
161.295
159.352
165.15
163.228
168.946
167.057
172.651
170.812
176.204
174.452
179.512
177.896
182.506
181.039
185.377
183.945
188.315
186.824
191.414
189.808
195.164
193.194
199.759
197.342
205.542
202.462
213.405
209.121
223.175
218.187
233.775
228.571
243.123
238.701
252.78
247.914
262.139
257.647
269.527
271.44
271.56
271.312
271.315
271.337
271.323
271.376
271.356
271.418
271.398
271.453
271.437
271.509
271.471
270.611
271.62
268.782
269.417
272.094
272.8
267.156
269.571
259.463
263.799
249.41
254.591
239.389
244.273
228.829
234.121
218.741
223.727
209.791
214.031
202.842
206.082
197.402
199.975
193.008
195.085
189.54
191.169
186.661
188.074
183.85
185.267
180.967
182.421
177.839
179.453
174.389
176.145
170.738
172.583
166.963
168.862
163.117
165.047
159.228
161.177
155.316
157.274
151.39
153.354
147.456
149.424
143.516
145.487
139.571
141.544
135.619
137.596
131.662
133.641
127.7
129.682
123.734
125.718
119.765
121.75
115.793
117.779
111.818
113.806
107.842
109.831
103.865
105.854
99.8862
101.876
95.9076
97.8969
93.9187
272.068
272.778
216.472
178.605
85.9718
211.001
85.9827
239.58
272.963
273.108
273.11
273.154
273.153
273.16
273.16
176.467
217.671
216.335
212.884
213.108
170.411
172.861
170.682
187.493
184.249
185.841
188.981
185.667
187.299
190.497
187.01
188.732
191.968
188.278
190.098
216.773
182.379
272.701
183.667
267.307
181.037
201.419
214.647
183.71
185.779
180.28
174.81
167.352
218.517
179.655
174.542
185.63
247.568
183.306
249.69
177.881
182.207
225.824
177.047
270.523
174.606
204.651
176.52
175.321
179.866
188.091
272.689
242.197
202.093
188.27
188.041
218.214
257.808
234.637
194.007
269.457
175.228
171.073
172.576
192.167
170.762
236.388
185.905
195.28
180.468
155.207
150.399
187.922
)
;

boundaryField
{
    wall
    {
        type            zeroGradient;
    }
    outlet
    {
        type            fixedValue;
        value           uniform 85;
    }
    inlet
    {
        type            fixedValue;
        value           uniform 273.16;
    }
    frontAndBackPlanes
    {
        type            empty;
    }
}


// ************************************************************************* //
