/*--------------------------------*- C++ -*----------------------------------*\
| =========                 |                                                 |
| \\      /  F ield         | OpenFOAM: The Open Source CFD Toolbox           |
|  \\    /   O peration     | Version:  2212                                  |
|   \\  /    A nd           | Website:  www.openfoam.com                      |
|    \\/     M anipulation  |                                                 |
\*---------------------------------------------------------------------------*/
FoamFile
{
    version     2.0;
    format      ascii;
    arch        "LSB;label=32;scalar=64";
    class       volScalarField;
    location    "0.027";
    object      T;
}
// * * * * * * * * * * * * * * * * * * * * * * * * * * * * * * * * * * * * * //

dimensions      [0 0 0 1 0 0 0];

internalField   nonuniform List<scalar> 
2308
(
238.561
239.798
260.735
255.417
231.156
230.691
230.243
230.927
231.885
257.117
252.619
241.798
239.243
235.206
232.007
230.826
230.061
229.798
230.162
230.748
232.044
234.773
237.841
245.002
253.383
257.72
257.61
257.393
229.759
229.773
256.932
256.206
254.882
253.441
251.77
250.093
248.486
246.88
245.497
244.098
242.933
241.891
241.031
240.49
240.446
240.617
240.681
241.212
241.986
243.023
244.143
245.51
246.862
248.418
249.986
251.608
253.283
254.829
256.324
257.158
257.633
257.819
257.205
250.513
243.669
240.898
239.159
236.923
233.829
231.593
230.534
240.464
240.665
230.529
231.699
233.484
235.893
238.13
243.418
250.463
257.661
257.654
257.543
257.199
256.434
254.857
253.263
251.537
249.881
248.313
246.778
245.45
244.098
243.01
241.968
241.206
240.652
240.553
229.619
240.609
229.576
229.974
241.172
241.148
241.148
241.59
242.228
243.214
244.206
245.494
246.772
248.204
249.714
251.292
253.087
254.955
256.674
257.519
257.964
258.264
254.003
248.63
242.313
240.329
239.329
238.383
236.317
233.587
231.679
231.806
231.353
230.167
230.799
230.919
231.703
233.332
235.738
237.625
238.887
241.517
248.945
255.22
258.11
257.886
257.44
256.49
254.628
252.942
251.236
249.66
248.139
246.7
245.424
244.149
243.148
242.142
241.494
240.988
240.979
240.994
241.047
240.674
240.545
240.743
231.055
241.229
233.028
234.86
229.669
233.205
230.543
229.446
230.702
241.166
240.796
240.699
240.872
241.349
242.164
242.03
241.969
241.944
241.911
242.224
242.657
243.527
244.434
245.573
246.824
248.147
249.646
251.183
253.045
255.035
256.821
257.689
258.041
257.574
251.127
244.457
241.62
240.259
239.587
238.972
238.031
236.255
233.855
230.48
241.871
230.746
231.675
231.347
231.389
231.454
231.628
231.923
232.538
233.8
235.645
237.585
238.848
239.725
241.18
244.399
251.417
257.529
257.763
257.459
256.608
254.854
252.972
251.11
249.516
247.988
246.633
245.402
244.259
243.366
242.483
242.028
241.651
241.699
241.719
241.776
241.911
266.382
233.019
240.196
255.879
252.504
234.029
230.139
229.677
243.374
243.226
243.138
243.093
243.045
243.207
243.529
244.105
244.951
245.87
247.028
248.234
249.71
251.34
253.4
255.598
256.978
257.453
257.709
253.566
248.953
243.749
241.863
240.905
240.262
239.7
239.034
238.093
236.682
232.083
233.698
237.769
232.744
232.773
232.853
232.948
233.201
233.686
234.707
236.189
237.702
239.023
240.048
240.844
241.675
243.517
249.044
253.139
257.652
257.342
256.864
255.535
253.323
251.209
249.536
248.015
246.809
245.633
244.706
243.863
243.293
242.919
242.748
242.821
242.853
242.933
243.074
243.373
242.184
241.431
241.067
241.004
241.148
241.6
242.407
243.675
242.526
258.807
268.049
234.119
238.21
260.093
234.438
231.148
234.669
234.647
239.556
230.24
234.321
234.436
234.566
234.749
235.184
236.016
237.252
238.295
239.357
240.374
241.454
242.147
242.912
244.137
246.953
251.426
256.679
257.408
257.225
256.535
254.833
252.367
250.348
248.717
247.552
246.53
245.837
245.121
244.814
244.533
244.534
244.539
244.571
244.677
244.811
245.089
245.349
243.725
242.604
241.873
241.5
241.44
241.58
242.019
242.849
244.027
245.699
245.451
245.152
244.999
244.886
244.841
244.83
244.842
245.081
245.395
246.12
246.827
247.841
248.978
250.54
252.457
254.802
256.554
257.275
257.429
257.015
251.71
247.433
244.387
243.059
242.185
241.581
240.897
240.3
239.643
238.812
234.585
232.741
230.594
230.262
235.416
235.663
235.247
235.11
239.857
234.378
236.223
236.358
236.521
236.785
237.3
238.11
238.746
239.419
239.971
241.051
242.014
243.296
244.069
245.011
246.345
248.113
252.405
256.214
258.192
258.276
258.041
256.853
255.071
252.856
251.137
249.877
248.907
248.294
247.794
247.633
247.462
247.377
247.382
247.416
247.508
247.613
247.799
248
248.293
245.757
244.303
243.365
242.698
242.368
242.273
242.448
242.853
243.598
244.607
246.134
248.652
248.338
248.148
247.947
247.834
247.708
247.655
247.625
247.701
247.863
248.037
248.539
249.196
250.12
251.362
253.006
255.119
256.91
258.095
258.371
258.293
256.745
252.937
248.736
246.666
245.458
244.362
243.625
242.693
242.065
241.309
240.728
237.466
235.689
235.559
268.24
235.615
236.549
236.243
235.983
230.382
230.473
229.516
231.826
236.096
236.602
248.7
246.351
245.104
244.516
244.254
244.057
243.993
244.129
244.388
244.736
245.39
246.698
249.045
252.023
251.862
251.695
251.593
251.521
251.47
251.444
251.429
251.472
251.613
251.706
251.889
252.145
252.64
253.427
254.53
256.052
257.701
259.019
259.572
259.71
259.534
258.218
255.71
252.824
250.895
249.341
248.042
246.929
245.726
244.942
243.987
243.313
239.81
231.452
236.652
255.991
255.531
238.724
239.389
240.045
240.527
240.88
241.186
241.764
242.455
243.791
244.973
246.457
247.554
248.953
250.504
252.562
255.5
258.199
259.634
259.803
259.675
259.067
257.711
255.978
254.46
253.329
252.526
252.028
251.82
251.612
251.532
251.368
251.327
251.314
251.312
251.334
251.386
251.467
251.647
251.81
236.623
236.817
267.966
231.31
237.177
233.925
254.038
254.028
254.026
254.039
254.045
254.126
254.237
254.283
254.368
254.473
254.554
254.655
254.746
254.882
255.285
255.989
257.102
257.954
258.641
258.907
258.906
258.836
258.266
257.023
256.09
255.261
254.425
253.36
251.885
250.668
249.525
248.484
247.565
242.342
231.263
237.36
252.129
249.282
247.151
246.193
245.965
246.119
246.423
246.562
246.458
246.199
246.129
246.452
247.48
249.611
252.373
254.079
232.333
237.059
236.676
237.214
238.349
230.024
231.396
253.25
256.235
243.321
243.617
243.911
244.152
244.562
245.149
246.024
247.37
248.82
250.435
251.847
253.36
254.447
255.357
256.2
257.046
258.311
258.9
258.939
258.938
258.66
257.938
257.046
255.942
255.231
254.871
254.742
254.661
254.573
254.498
254.388
254.303
254.21
254.137
253.977
253.943
253.941
253.959
253.977
254.011
266.421
238.651
231.076
237.662
238.023
237.96
230.62
267.117
264.263
230.079
232.917
246.495
229.648
245.376
256.477
262.949
253.981
254.064
254.16
254.286
254.374
254.499
254.663
254.755
254.88
254.946
255.035
255.09
255.138
255.175
255.201
255.35
255.735
256.079
256.194
256.17
256.192
256.126
256.292
256.443
256.478
256.414
256.325
256.293
256.066
255.665
255.148
254.745
254.215
253.74
253.312
232.088
238.677
240.732
254.091
252.583
249.945
247.988
247.148
247.001
247.198
247.475
247.605
247.481
247.232
247.12
247.361
248.268
250.236
252.756
254.185
253.925
230.126
237.258
237.54
238.81
240.371
243.857
254.465
241.335
251.005
250.79
250.853
251.019
251.328
251.73
252.477
253.482
254.422
255.148
255.735
256.148
256.357
256.473
256.507
256.583
256.576
256.513
256.317
256.112
256.17
256.136
256.156
256.036
255.696
255.33
255.208
255.19
255.171
255.142
255.108
255.037
254.938
254.786
254.662
254.568
254.357
254.3
254.192
254.09
253.992
253.927
233.135
241.318
240.312
235.611
236.857
238.479
236.791
239
239.163
239.319
261.086
238.205
255.113
229.802
255.871
232.186
268.022
266.567
256.146
256.215
256.246
256.234
256.184
256.11
255.941
255.572
254.967
254.252
253.393
252.722
252.028
251.731
251.758
251.833
252.073
252.581
253.127
253.505
253.764
253.962
254.074
254.126
254.118
254.085
254.011
253.897
253.747
253.6
253.384
253.222
253.003
252.792
252.636
252.449
264.892
253.861
254.287
253.081
250.551
248.575
247.638
247.392
247.427
247.535
247.605
247.533
247.443
247.483
247.807
248.748
250.722
253.169
254.36
253.88
252.246
232.972
245.324
235.053
267.881
268.701
269.327
269.377
269.142
267.759
266.253
264.731
254.638
263.112
238.228
240.88
238.771
236.397
237.506
239.218
235.222
233.877
264.776
237.855
238.87
241.043
243.953
250.92
251.733
256.949
255.652
255.416
255.386
255.398
255.493
255.779
256.193
256.53
256.733
256.827
256.816
256.754
256.595
256.315
255.844
255.208
254.472
253.587
252.879
252.155
251.831
251.854
251.923
252.156
252.648
253.206
253.57
253.829
254.015
254.138
254.192
254.18
254.139
254.048
253.936
253.779
253.639
253.425
253.245
253.034
252.821
252.617
252.46
252.217
238.276
237.503
237.876
254.894
239.505
239.649
258.734
240.982
261.16
240.708
240.462
240.139
237.27
238.091
236.99
265.006
238.278
259.139
263.779
244.321
242.925
239.669
265.541
267.026
268.545
255.762
255.511
255.209
254.765
254.242
253.489
252.676
251.69
250.644
249.512
248.49
247.637
247.021
246.951
247.016
247.206
247.617
248.211
248.882
249.516
250.091
250.573
250.947
251.222
251.398
251.481
251.475
251.437
251.343
251.215
251.035
250.85
250.646
250.418
250.231
250.005
249.84
255.76
252.427
244.953
241.475
239.108
238.475
250.787
233.14
250.847
235.782
236.978
263.141
263.316
239.971
239.765
229.363
257.126
255.519
232.042
233.883
269.353
264.067
266.085
239.83
252.118
253.82
254.404
253.299
250.851
248.837
247.803
247.405
247.397
247.503
247.54
247.502
247.419
247.482
247.915
248.976
250.978
253.353
254.426
253.84
252.177
249.661
269.923
270.435
270.8
270.778
270.524
269.95
262.501
242.334
234.703
239.074
244.811
254.773
261.119
261.508
242.097
256.833
241.365
241.06
259.367
238.547
265.862
268.065
241.884
256.577
256.542
256.604
256.593
256.601
256.599
256.539
256.595
256.552
256.45
256.243
255.919
255.47
254.875
254.126
253.226
252.192
251.084
249.927
248.858
247.991
247.31
247.174
247.232
247.402
247.79
248.381
249.044
249.674
250.239
250.696
251.058
251.301
251.453
251.513
251.5
251.453
251.355
251.209
251.029
250.814
250.605
250.349
250.134
249.904
249.698
249.501
268.611
246.746
263.161
236.314
263.374
239.959
262.74
255.558
230.256
260.898
234.126
238.24
256.493
257.222
257.214
254.165
247.18
242.328
240.033
239.549
242.148
240.895
252.116
252.336
253.679
256.649
253.223
252.98
252.499
252.073
251.526
250.793
249.952
248.942
247.931
246.846
245.815
244.865
244.122
243.622
243.466
243.525
243.665
243.982
244.439
244.991
245.61
246.221
246.775
247.254
247.659
247.989
248.231
248.38
248.47
248.484
248.463
248.407
248.301
248.167
248.012
247.836
247.671
247.483
247.344
247.175
264.174
265.724
267.256
268.788
258.555
260.072
255.254
249.62
243.551
244.025
240.309
241.859
229.506
255.13
256.142
246.748
235.597
237.537
253.644
256.611
261.458
261.676
243.402
243.221
229.614
256.57
232.174
254.151
251.384
241.841
241.754
257.544
236.416
234.382
256.38
256.864
251.659
253.563
257.058
255.456
256.946
270.242
271.392
272.1
272.448
272.609
272.538
272.257
271.75
270.879
235.102
241.227
242.929
243.589
259.439
250.884
248.455
253.706
254.169
254.564
254.774
254.818
254.779
254.674
254.407
254.151
253.684
253.084
252.352
251.494
250.519
249.447
248.315
247.184
246.09
245.092
244.275
243.67
243.411
243.442
243.565
243.858
244.322
244.894
245.533
246.148
246.701
247.175
247.568
247.875
248.081
248.225
248.304
248.304
248.278
248.198
248.087
247.919
247.758
247.555
247.376
247.168
247.007
246.818
246.706
249.351
251.9
253.714
254.399
253.358
250.975
248.934
247.836
247.373
247.361
247.421
247.391
247.42
247.369
247.422
247.902
249.01
251.052
253.354
254.388
253.74
251.997
249.556
247.095
241.089
259.717
243.1
244.97
243.66
250.125
268.831
261.3
229.276
234.07
253.487
256.928
257.986
258.362
256.522
250.243
244.413
241.922
241.493
243.063
247.558
245.96
245.154
253.717
236.461
256.406
261.68
244.404
229.799
252.142
249.079
248.497
241.987
255.353
235.227
255.027
256.549
242.619
242.616
245.324
251.686
257.399
258.123
257.953
253.981
265.876
251.393
260.115
261.565
263.186
264.598
266.558
269.031
235.521
239.415
272.12
244.894
272.074
273.549
273.71
273.819
273.979
274.089
274.153
274.152
274.126
274.142
273.918
272.816
248.509
257.676
256.237
239.636
229.593
264.955
232.203
246.542
246.156
246.512
247.35
248.211
248.705
248.995
248.978
248.843
248.543
247.995
247.386
246.663
245.877
245.05
244.216
243.415
242.69
242.09
241.632
241.319
241.197
241.217
241.326
241.552
241.895
242.308
242.779
243.288
243.784
244.238
244.631
244.962
245.225
245.42
245.56
245.65
245.663
245.648
245.599
245.506
245.385
245.252
245.092
244.947
244.777
244.654
244.491
244.407
244.28
246.567
249.217
251.857
253.696
254.375
253.36
251.063
248.989
247.839
247.383
247.254
247.224
247.196
247.213
247.264
247.423
247.892
249.02
251.097
253.366
254.385
253.765
251.952
249.436
246.977
244.852
244.968
245.033
245.178
245.292
245.452
245.588
245.738
245.861
245.976
246.054
246.091
246.102
246.079
245.986
245.852
245.65
245.381
245.053
244.668
244.228
243.75
243.268
242.827
242.436
242.103
241.864
241.727
241.686
241.738
241.962
242.34
242.844
243.476
244.197
244.959
245.692
246.335
246.893
247.383
247.759
248.196
249.152
248.064
248.701
244.515
254.205
255.938
246.215
249.582
233.244
242.33
245.045
248.189
243.958
255.2
238.881
236.042
255.759
245.322
259.844
259.746
246.213
253.062
247.985
246.407
251.425
243.796
244.115
257.885
253.759
245.874
237.494
255.854
244.211
249.061
250.509
247.036
246.73
259.9
253.143
237.246
249.616
246.663
245.215
245.55
248.225
254.73
259.065
259.475
259.146
257.234
252.021
243.518
246.341
256.267
232.235
249.753
256.041
258.442
259.185
259.265
255.478
248.41
245.722
254.083
237.564
255.446
257.069
258.545
259.747
229.783
251.05
236.948
251.421
255.283
255.716
246.322
257.468
258.172
259.937
261.469
263.957
266.945
270.548
238.475
242.979
239.172
239.633
239.662
240.101
242.277
242.798
243.606
243.387
243.035
242.783
242.51
242.198
241.878
241.56
241.282
241.056
240.898
240.811
240.792
240.825
240.938
241.104
241.302
241.54
241.814
242.114
242.438
242.774
243.101
243.398
243.654
243.865
244.03
244.156
244.238
244.269
244.264
244.241
244.18
244.097
243.984
243.875
243.742
243.631
243.497
243.408
243.288
243.234
243.125
246.574
245.843
244.21
246.478
249.084
251.645
253.49
254.193
253.222
250.964
248.942
247.815
247.217
246.919
246.789
246.766
246.774
246.924
247.227
247.83
248.944
250.959
253.201
254.191
253.535
251.774
249.363
246.934
244.811
243.083
251.629
273.34
274.54
274.578
274.63
274.708
274.773
274.779
274.788
274.811
274.89
274.774
273.812
271.476
262.952
265.598
269.57
270.367
239.266
238.744
238.996
239.762
240.718
241.641
242.338
242.785
242.991
242.975
242.871
242.621
242.273
241.877
241.482
241.105
240.765
240.482
240.269
240.133
240.08
240.089
240.166
240.328
240.525
240.768
241.054
241.371
241.714
242.07
242.417
242.731
243.003
243.222
243.394
243.531
243.621
243.655
243.649
243.624
243.563
243.477
243.371
243.258
243.133
243.019
242.884
242.791
242.664
242.602
242.491
242.434
253.595
248.885
257.991
257.936
252.259
240.988
242.406
253.778
249.335
246.663
235.781
248.192
231.338
236.937
239.147
244.018
252.939
259.124
260.748
260.327
258.186
253.205
258.824
230.035
253.513
255.986
257.786
258.639
236.871
250.892
251.266
253.301
258.118
260.321
260.998
259.903
255.409
246.225
240.122
247.411
238.426
245.448
258.04
249.29
251.432
249.148
246.449
236.634
236.733
237.157
237.621
238.063
238.683
239.597
240.037
240.372
240.347
240.256
240.226
240.205
240.176
240.149
240.13
240.131
240.153
240.202
240.274
240.37
240.49
240.632
240.793
240.97
241.164
241.371
241.586
241.805
242.02
242.221
242.397
242.543
242.648
242.729
242.793
242.81
242.805
242.785
242.741
242.677
242.604
242.52
242.439
242.351
242.278
242.199
242.141
242.072
242.038
241.972
241.949
256.301
257.838
258.766
259.467
260.646
262.584
265.209
267.937
268.361
250.591
255.948
248.101
253.863
255.897
245.274
239.262
261.553
263.55
267.122
268.593
232.762
250.891
268.74
271.96
272.002
270.858
270.104
269.4
268.768
268.737
268.889
269.424
270.188
270.855
271.014
268.379
268.045
266.026
242.372
244.152
246.43
249.046
251.626
253.504
254.237
253.343
251.124
249.019
247.706
247.019
246.656
246.501
246.509
246.492
246.649
247.014
247.701
248.987
251.075
253.286
254.202
253.541
251.762
249.341
246.903
244.765
243.025
241.902
235.777
236.02
236.49
237.086
237.732
238.335
238.817
239.163
239.38
239.494
239.537
239.519
239.473
239.411
239.358
239.329
239.321
239.339
239.388
239.464
239.568
239.696
239.848
240.018
240.205
240.407
240.622
240.846
241.076
241.306
241.52
241.71
241.866
241.98
242.075
242.151
242.18
242.178
242.161
242.124
242.068
242.001
241.926
241.849
241.769
241.698
241.621
241.564
241.495
241.461
241.396
241.37
241.321
249.097
251.569
255.995
240.975
243.406
241.588
241.593
257.053
256.82
241.572
244.581
241.768
242.836
249.099
246.715
252.997
251.413
252.554
253.491
248.329
250.379
246.242
247.005
245.691
245.82
245.698
245.71
246.271
245.835
248.393
247.034
252.659
250.476
252.925
253.533
248.734
251.196
243.935
246.188
241.082
241.065
241.18
242.166
241.102
241.087
241.136
241.114
241.191
241.16
241.259
241.223
241.333
241.296
241.394
241.366
241.415
241.409
241.386
241.41
241.259
241.334
241.071
241.174
240.794
240.942
240.47
240.635
240.14
240.304
239.828
239.981
239.542
239.682
239.279
239.408
239.039
239.156
238.819
238.928
238.609
238.712
238.393
238.504
238.131
238.272
237.723
237.953
237.061
237.428
236.198
236.644
235.295
235.737
234.66
234.916
235.618
234.759
245.279
238.4
259.388
254.577
260.758
260.57
257.128
259.198
259.735
256.766
263.804
262.418
263.904
264.419
265.015
263.739
267.789
266.609
266.449
256.687
262.298
253.962
254.89
252.845
253.22
252.368
252.559
252.151
252.195
252.473
252.203
254.263
253.133
268.356
256.194
268.884
266.886
270.266
268.389
268.036
268.017
266.843
267.403
263.566
264.947
263.783
263.433
261.597
263.164
257.777
259.079
259.929
258.446
260.198
260.519
252.709
258.63
237.753
243.206
235.404
235.869
235.788
235.467
236.606
236.144
237.54
237.076
238.492
238.022
238.994
238.786
239.191
239.101
239.399
239.295
239.585
239.495
239.762
239.673
239.948
239.853
240.155
240.048
240.391
240.269
240.66
240.521
240.96
240.807
241.272
241.117
241.557
241.42
241.772
241.676
241.906
241.844
241.968
241.951
241.958
241.968
241.901
241.935
241.822
241.863
241.742
241.782
241.672
241.706
241.622
241.646
241.608
270.63
267.812
253.859
233.633
241.536
249.993
241.023
264.645
271.879
272.8
272.818
272.117
272.154
272.557
272.547
232.425
249.468
253.837
251.507
251.526
230.553
229.365
229.795
233.554
231.817
232.625
234.447
232.647
233.378
235.37
233.522
234.21
236.218
234.291
234.943
248.378
241.819
272.194
242.856
268.39
236.683
239.857
246.606
236.167
235.381
255.283
229.417
230.033
249.878
244.215
229.291
238.424
259.3
243.547
267.587
256.096
233.134
253.142
229.652
267.011
229.352
245.198
231.486
230.443
230.981
234.077
271.974
265.889
242.182
239.441
236.245
253.408
268.609
262.569
242.807
269.866
252.739
253.322
256.387
257.358
229.504
262.66
256.445
237.887
231.454
244.975
257.56
256.593
)
;

boundaryField
{
    wall
    {
        type            zeroGradient;
    }
    outlet
    {
        type            inletOutlet;
        inletValue      uniform 85;
        value           nonuniform List<scalar> 
33
(
244.584
241.771
242.839
249.101
246.718
252.996
251.414
252.553
253.489
248.327
250.378
246.236
247
245.688
245.815
245.696
245.705
246.266
245.829
248.39
247.029
252.657
250.474
252.924
253.53
248.736
251.196
243.938
246.191
241.183
242.17
241.539
241.026
)
;
    }
    inlet
    {
        type            fixedValue;
        value           uniform 273.16;
    }
    frontAndBackPlanes
    {
        type            empty;
    }
}


// ************************************************************************* //
