/*--------------------------------*- C++ -*----------------------------------*\
| =========                 |                                                 |
| \\      /  F ield         | OpenFOAM: The Open Source CFD Toolbox           |
|  \\    /   O peration     | Version:  2212                                  |
|   \\  /    A nd           | Website:  www.openfoam.com                      |
|    \\/     M anipulation  |                                                 |
\*---------------------------------------------------------------------------*/
FoamFile
{
    version     2.0;
    format      ascii;
    arch        "LSB;label=32;scalar=64";
    class       surfaceScalarField;
    location    "0.0453";
    object      phi;
}
// * * * * * * * * * * * * * * * * * * * * * * * * * * * * * * * * * * * * * //

dimensions      [1 0 -1 0 0 0 0];

oriented        oriented;

internalField   nonuniform List<scalar> 
4475
(
3.92352e-05
-3.67728e-05
2.48489e-05
-2.17297e-05
1.13706e-05
-8.06616e-05
-5.71836e-07
7.84782e-05
4.84824e-05
-6.108e-05
1.37252e-05
-6.15788e-06
-6.81904e-06
0.000130587
-8.16712e-07
-0.000130929
-8.86442e-05
5.85789e-05
9.53659e-05
-5.47168e-05
0.000100994
-4.38173e-05
-0.000109455
5.87162e-05
6.44541e-06
-7.8696e-06
0.00012006
-0.000111558
-7.01682e-05
-6.37443e-05
8.58552e-05
5.55201e-05
5.64961e-05
-8.16523e-05
-5.26179e-05
-6.52967e-05
-3.27078e-05
3.53027e-05
5.62961e-05
-4.82677e-05
3.79365e-05
-5.94053e-05
-8.9838e-05
-2.57189e-05
2.22009e-05
8.92353e-05
-9.3529e-05
-3.28978e-05
3.05601e-05
-0.00010013
-3.55204e-05
3.415e-05
-0.000107344
-3.75195e-05
3.58026e-05
-0.000113817
-3.81268e-05
3.63275e-05
-3.6812e-05
-0.000115633
3.23793e-05
0.000109541
2.80486e-05
-0.000112047
-2.83761e-05
0.000110468
-4.28243e-05
0.000106054
-4.10707e-05
9.95401e-05
-3.95404e-05
9.29997e-05
-3.71855e-05
8.78502e-05
-3.46008e-05
8.90659e-05
-3.2452e-05
7.30352e-05
-3.74854e-05
6.71009e-05
-3.34555e-05
7.61246e-05
-2.53531e-05
3.91871e-06
5.55776e-05
2.92074e-05
-3.03635e-05
0.00012679
-0.000124797
1.32368e-05
-0.000117248
2.57719e-05
3.56033e-05
2.10957e-05
-2.91935e-05
1.49574e-05
1.20498e-05
-2.37809e-05
-4.14766e-06
2.95384e-06
-1.60169e-05
-1.83374e-05
-5.49283e-06
-8.16564e-06
-2.46093e-05
-1.11217e-05
-1.758e-06
-2.15339e-05
-1.19825e-05
9.94545e-07
-1.09679e-05
-8.3785e-06
-6.64995e-07
3.65932e-06
-1.28784e-06
-6.28798e-06
2.04213e-05
7.20577e-06
-1.55823e-05
3.80484e-05
1.61554e-05
-2.55039e-05
5.63253e-05
2.39072e-05
-3.53089e-05
7.56671e-05
2.9451e-05
-4.34513e-05
9.64652e-05
3.18013e-05
-4.8707e-05
0.000119163
3.03084e-05
-5.04005e-05
2.47114e-05
0.000143262
-4.81127e-05
-0.000114102
0.000134097
-8.66774e-07
-9.52343e-05
7.44327e-06
-7.78528e-05
1.16993e-05
-6.21266e-05
1.28848e-05
-4.63251e-05
1.07255e-05
-3.00961e-05
5.87097e-06
-1.35488e-05
-5.07379e-07
3.11057e-06
-7.11413e-06
1.69848e-05
-1.42338e-05
2.51807e-05
-1.88116e-05
2.41739e-05
-2.00939e-05
1.31745e-05
-1.65795e-05
-4.81472e-06
-8.71723e-06
-2.62342e-05
1.16154e-06
-4.65729e-05
1.12632e-05
-6.28348e-05
2.15416e-05
-5.67349e-05
3.53609e-05
-5.57662e-05
-6.74955e-05
3.7733e-05
-7.03137e-05
3.58245e-05
-7.76768e-05
3.25218e-05
-2.83258e-05
-8.75424e-05
2.87311e-05
-9.30202e-05
3.05891e-05
-9.99258e-05
3.33237e-05
-0.000107897
3.46003e-05
-0.000114183
3.37219e-05
-0.000120508
3.15372e-05
1.62151e-05
-4.10962e-05
0.000166013
-1.17954e-05
0.000155426
0.000105689
-5.87168e-05
-9.37789e-05
0.000104382
-4.6111e-05
9.92381e-05
-4.22845e-05
9.3066e-05
-3.93113e-05
8.7794e-05
-3.69055e-05
8.44883e-05
-3.56105e-05
7.72636e-05
-3.62742e-05
7.24274e-05
-3.6137e-05
6.99366e-05
-3.43684e-05
5.84263e-05
-3.6564e-05
4.22224e-05
-3.72444e-05
2.31347e-05
-3.4779e-05
4.08327e-06
-2.95893e-05
-1.16895e-05
-2.30405e-05
-2.16099e-05
-1.69105e-05
-2.38202e-05
-1.30702e-05
-1.81517e-05
-1.30397e-05
-6.33548e-06
-1.71549e-05
9.19576e-06
-2.47605e-05
2.74975e-05
-3.48805e-05
4.78953e-05
-4.56104e-05
7.02558e-05
-5.56935e-05
9.49393e-05
-6.38356e-05
0.000121605
-6.88146e-05
0.000148718
-6.96297e-05
2.23768e-05
-0.000112556
-2.29825e-05
-6.538e-05
0.000174555
1.2429e-05
-0.000108865
-0.000123298
2.37875e-05
-0.000124105
0.000143972
-4.35356e-05
-0.000106189
-2.9508e-05
-8.99598e-05
-1.87026e-05
-7.63968e-05
-1.02523e-05
-6.36946e-05
-5.47372e-06
-5.11252e-05
-3.80505e-06
-3.70524e-05
-4.7092e-06
-2.10388e-05
-7.657e-06
-3.73701e-06
-1.2153e-05
1.19478e-05
-1.76936e-05
2.37888e-05
-2.23721e-05
2.80088e-05
-2.50501e-05
2.16833e-05
-2.39217e-05
5.80589e-06
-1.78922e-05
-1.50626e-05
-7.96794e-06
-3.67899e-05
3.05152e-06
-5.45174e-05
1.47243e-05
-6.20757e-05
2.58782e-05
-6.71993e-05
3.23652e-05
-7.2957e-05
3.51564e-05
-7.82059e-05
3.37387e-05
-8.45044e-05
3.17635e-05
-9.11146e-05
3.21013e-05
-9.86941e-05
3.34744e-05
-0.00010783
3.45076e-05
-0.000116426
3.29317e-05
-0.000122202
2.94688e-05
-7.85847e-05
9.06279e-05
-7.35624e-05
3.62199e-05
-0.000114395
-1.48009e-05
9.68218e-05
-5.24103e-05
-8.29011e-05
6.16318e-05
7.66844e-05
8.83974e-05
0.000128285
-3.35607e-05
2.5575e-05
-0.00012064
0.000111477
-4.47924e-05
0.000106169
-4.55927e-05
0.000100204
-4.31843e-05
9.40055e-05
-4.10938e-05
8.82296e-05
-3.92605e-05
8.31544e-05
-3.82789e-05
7.78267e-05
-3.84473e-05
7.21184e-05
-3.8868e-05
6.67853e-05
-4.00446e-05
5.7728e-05
-4.2962e-05
4.45767e-05
-4.49531e-05
2.83834e-05
-4.47483e-05
1.07632e-05
-4.2115e-05
-5.46198e-06
-3.75773e-05
-1.80196e-05
-3.24961e-05
-2.44297e-05
-2.86365e-05
-2.3313e-05
-2.7415e-05
-1.4976e-05
-2.97139e-05
-1.41126e-06
-3.55194e-05
1.6293e-05
-4.44172e-05
3.78262e-05
-5.55327e-05
6.25607e-05
-6.74131e-05
9.04515e-05
-7.87653e-05
0.000120867
-8.79025e-05
0.000151636
-9.23582e-05
0.000179514
-9.0263e-05
5.42986e-05
0.000202059
-8.01114e-05
2.99831e-05
0.000195244
4.58796e-06
0.000185874
-2.38148e-05
0.000175651
-7.61208e-05
8.3764e-05
-6.19352e-05
0.000164835
-5.62989e-05
-6.03781e-05
-7.81577e-05
6.95146e-05
-3.61851e-05
8.91941e-05
2.61632e-05
-7.36256e-05
8.6385e-06
-0.000121755
5.40443e-05
-4.24628e-05
8.10011e-05
-8.29168e-05
9.80604e-05
5.85502e-05
-8.7796e-05
-0.000139456
-3.8415e-05
6.60438e-05
-0.0001282
2.42611e-05
3.97259e-05
-6.26969e-05
0.000215662
1.6493e-05
0.000209594
-8.05573e-06
0.000201383
-3.61254e-05
0.000193875
-6.81231e-05
0.000186356
-0.000156177
-0.000103372
0.000183128
-0.000131225
-9.35887e-05
-0.000111508
-7.76645e-05
-9.44631e-05
-6.14555e-05
-8.13879e-05
-4.60497e-05
-7.04168e-05
-3.36819e-05
-6.09679e-05
-2.42872e-05
-5.11183e-05
-1.81717e-05
-3.93695e-05
-1.4885e-05
-2.50722e-05
-1.4417e-05
-9.16758e-06
-1.64073e-05
7.44089e-06
-2.00058e-05
2.11058e-05
-2.39276e-05
2.94275e-05
-2.69591e-05
2.84494e-05
-2.75208e-05
1.66333e-05
-2.35073e-05
-2.61588e-06
-1.48574e-05
-2.47798e-05
-3.31481e-06
-4.44651e-05
8.89033e-06
-5.79725e-05
2.02402e-05
-6.71077e-05
2.8856e-05
-7.2462e-05
3.25982e-05
-7.77745e-05
3.40493e-05
-8.30335e-05
3.35458e-05
-8.90796e-05
3.33853e-05
-9.70406e-05
3.44207e-05
-0.00010653
3.48798e-05
-0.000116987
3.36876e-05
2.92271e-05
-0.00012502
-2.5962e-05
2.78759e-05
-0.000117296
0.000119786
3.72318e-05
-2.99214e-05
2.93196e-05
-3.07887e-05
6.4032e-05
-5.92355e-05
0.000100353
8.78989e-05
-1.84423e-05
2.85048e-05
0.000102348
-7.48847e-06
-5.04204e-07
0.000110805
-9.43857e-06
0.000114749
-1.56079e-05
1.796e-05
0.000116613
-2.27165e-05
0.000118082
-2.85335e-05
3.04416e-05
0.00011939
-3.36998e-05
0.000113163
-3.98318e-05
0.000107105
-4.28636e-05
0.000100999
-4.23902e-05
9.48239e-05
-4.21695e-05
8.83326e-05
-4.12336e-05
8.21782e-05
-4.10836e-05
7.57413e-05
-4.12369e-05
6.98245e-05
-4.27303e-05
6.38281e-05
-4.53372e-05
5.56743e-05
-4.88061e-05
4.46325e-05
-5.17807e-05
3.07869e-05
-5.31944e-05
1.50462e-05
-5.24345e-05
-9.09842e-07
-4.97719e-05
-1.45251e-05
-4.61137e-05
-2.36267e-05
-4.29294e-05
-2.61474e-05
-4.14284e-05
-2.12505e-05
-4.2625e-05
-1.03932e-05
-4.70191e-05
5.90694e-06
-5.52473e-05
2.72318e-05
-6.6979e-05
5.30535e-05
-8.10195e-05
8.29115e-05
-9.63094e-05
0.00011569
-0.000109944
0.000149326
-0.000118709
0.000180092
-0.000119135
0.000203839
-0.000108399
-8.76504e-05
0.000218549
3.18582e-06
6.67564e-05
-5.70475e-05
-1.89936e-05
-7.37803e-05
7.76767e-05
-3.2502e-05
4.14814e-05
6.6053e-06
-5.72347e-06
-4.8441e-05
9.59826e-05
4.0657e-05
-0.000101037
-3.35365e-05
1.82756e-06
1.00211e-06
2.72324e-05
-5.11046e-05
-5.61546e-05
1.16509e-05
-0.000134287
-0.000116619
2.13465e-05
0.000126732
-0.000148903
0.00018397
-0.000140997
-0.00011962
-0.000130523
-9.63131e-05
-0.000114356
-8.02914e-05
-9.34751e-05
-6.82979e-05
-7.39853e-05
-5.9992e-05
-5.65062e-05
-5.34922e-05
-4.21846e-05
-4.66886e-05
-3.14555e-05
-3.79221e-05
-2.42547e-05
-2.60582e-05
-2.06277e-05
-1.19694e-05
-1.99699e-05
4.23602e-06
-2.15988e-05
1.85188e-05
-2.43777e-05
2.92743e-05
-2.70491e-05
3.30515e-05
-2.82208e-05
2.63849e-05
-2.61039e-05
9.48532e-06
-1.8983e-05
-1.21251e-05
-7.94613e-06
-3.3705e-05
4.51181e-06
-5.10208e-05
1.63088e-05
-6.30108e-05
2.58116e-05
-7.0754e-05
3.07663e-05
-7.67665e-05
3.40053e-05
-8.18564e-05
3.47079e-05
-8.75211e-05
3.45575e-05
-9.50055e-05
3.53847e-05
-0.00010461
3.57385e-05
-0.000114947
3.43458e-05
-0.000126571
3.22464e-05
2.48986e-05
-0.000131665
-6.23161e-05
-4.64133e-05
7.59011e-05
-4.58301e-05
-6.0941e-05
6.76628e-05
4.33815e-05
9.0663e-05
-8.03454e-06
-9.37854e-05
9.85913e-05
-8.64621e-06
0.000105312
-9.30301e-06
0.000109473
-1.33638e-05
0.000112285
-1.99563e-05
0.000113947
-2.59307e-05
0.000114084
-3.13765e-05
0.000110898
-3.63906e-05
0.00010581
-3.98084e-05
0.000100773
-4.15001e-05
9.46114e-05
-4.20582e-05
8.8089e-05
-4.29935e-05
8.08646e-05
-4.37816e-05
7.36101e-05
-4.48309e-05
6.66198e-05
-4.70248e-05
5.97669e-05
-5.02863e-05
5.21637e-05
-5.41762e-05
4.28464e-05
-5.76144e-05
3.11082e-05
-5.97113e-05
1.70778e-05
-5.99318e-05
2.12003e-06
-5.83986e-05
-1.17801e-05
-5.57877e-05
-2.2456e-05
-5.32312e-05
-2.74493e-05
-5.19208e-05
-2.55968e-05
-5.27884e-05
-1.71579e-05
-5.75283e-05
-2.90762e-06
-6.65097e-05
1.6658e-05
-8.00295e-05
4.13991e-05
-9.80554e-05
7.09797e-05
-0.00011826
0.000104405
-0.000137447
0.000139336
-0.000151226
0.000171423
-0.000153747
0.000196456
-0.000141276
0.000211462
-0.000114364
5.33871e-05
-6.90664e-05
0.000215598
3.73091e-05
0.000222543
2.00746e-05
0.000220156
1.16121e-06
0.000215974
-2.1025e-05
0.000211806
-4.5737e-05
0.000207393
-7.41115e-05
0.000206222
-0.000104687
0.000211077
0.000221374
-0.00013879
-2.86741e-05
-6.45541e-06
9.40441e-06
-4.75349e-06
5.51031e-06
-4.55292e-05
3.9978e-05
-2.54915e-05
1.95539e-05
-2.02756e-05
2.5184e-05
-6.41186e-05
-5.21662e-05
4.80629e-05
3.09518e-05
-3.28779e-05
-1.16041e-05
1.77084e-05
2.59316e-05
-0.000133727
2.56805e-05
1.53519e-05
-0.000138703
-5.0977e-05
-4.67405e-05
4.36055e-05
-4.80598e-05
-4.36571e-05
3.56676e-05
-3.9104e-05
3.27458e-05
-3.78665e-05
5.14377e-05
0.00010018
7.12431e-05
8.77988e-05
-8.19085e-05
-8.32368e-06
9.24387e-05
-7.27943e-06
9.86181e-05
-9.05554e-06
0.000103486
-1.18913e-05
0.000106907
-1.75257e-05
0.000108907
-2.30186e-05
0.000109139
-2.81331e-05
0.000107296
-3.29994e-05
0.000103745
-3.69808e-05
9.89554e-05
-3.99078e-05
9.36261e-05
-4.20822e-05
8.67485e-05
-4.42101e-05
7.88203e-05
-4.63907e-05
7.05731e-05
-4.86176e-05
6.25649e-05
-5.15798e-05
5.5135e-05
-5.52431e-05
4.78129e-05
-5.90421e-05
3.97628e-05
-6.22683e-05
2.98546e-05
-6.41141e-05
1.77307e-05
-6.42972e-05
3.97143e-06
-6.2819e-05
-9.85518e-06
-6.03824e-05
-2.14678e-05
-5.79233e-05
-2.83018e-05
-5.6621e-05
-2.86034e-05
-5.81253e-05
-2.27081e-05
-6.40776e-05
-1.15218e-05
-7.51855e-05
4.55391e-06
-9.26026e-05
2.66762e-05
-0.000116329
5.38034e-05
-0.000143738
8.57122e-05
-0.000170557
0.000119772
-0.000190041
0.00015188
-0.000194963
0.000177136
-0.000179492
0.000192642
-0.000144425
0.000196293
-8.56442e-05
2.13635e-05
-2.64577e-05
0.00019254
1.61126e-05
0.000212524
1.01406e-05
0.000218911
-1.10106e-06
0.000219469
-1.37333e-05
0.000216172
-2.98821e-05
0.00021448
-5.03337e-05
0.000216394
-7.37157e-05
0.000223351
-9.66895e-05
0.000236394
-0.000123179
0.000256231
-0.000233847
0.000278548
-0.000155736
-0.000187777
-0.00017861
-0.000145316
-0.000183299
-0.000108786
-0.000171711
-8.16356e-05
-0.000150309
-6.26437e-05
-0.000125208
-5.13828e-05
-9.97855e-05
-4.52079e-05
-7.68149e-05
-4.16534e-05
-5.78378e-05
-3.82218e-05
-4.29405e-05
-3.26838e-05
-3.24495e-05
-2.39473e-05
-2.59576e-05
-1.22157e-05
-2.29484e-05
2.72696e-06
-2.25893e-05
1.69146e-05
-2.3928e-05
2.87891e-05
-2.58405e-05
3.58852e-05
-2.70398e-05
3.43102e-05
-2.60712e-05
2.14098e-05
-2.05584e-05
7.43109e-07
-1.06414e-05
-2.21815e-05
1.53417e-06
-4.25552e-05
1.34682e-05
-5.78527e-05
2.3497e-05
-6.83431e-05
2.93795e-05
-7.54519e-05
3.36828e-05
-8.04048e-05
3.50627e-05
-8.56917e-05
3.55373e-05
-9.25961e-05
3.63683e-05
-0.000102008
3.70375e-05
-0.00011403
3.69026e-05
3.39284e-05
-0.000124495
-6.10288e-05
-4.65344e-05
7.21614e-05
1.81326e-05
-0.000140089
-0.000150643
1.34262e-05
-1.958e-06
2.68644e-05
-4.5728e-05
-4.57447e-05
4.84679e-05
-4.25558e-05
-4.27213e-05
4.73907e-05
-4.48461e-05
-4.6204e-05
4.2219e-05
-4.27209e-05
-4.76727e-05
4.88769e-05
-7.91181e-06
2.08229e-05
7.85595e-05
-1.09557e-05
-7.13462e-05
8.21926e-05
-7.10133e-06
8.71488e-05
-6.74873e-06
9.22275e-05
-8.1578e-06
9.74666e-05
-1.10395e-05
0.000101062
-1.52348e-05
0.000103408
-2.01171e-05
0.000103756
-2.43731e-05
0.000102708
-2.94841e-05
0.000100042
-3.39634e-05
9.59225e-05
-3.79976e-05
9.08127e-05
-4.16589e-05
8.39756e-05
-4.50327e-05
7.55213e-05
-4.87448e-05
6.65586e-05
-5.23116e-05
5.80259e-05
-5.62241e-05
5.03649e-05
-5.99851e-05
4.35774e-05
-6.32965e-05
3.67422e-05
-6.56244e-05
2.85242e-05
-6.64471e-05
1.80617e-05
-6.54862e-05
5.36913e-06
-6.31663e-05
-8.17956e-06
-5.98845e-05
-2.04405e-05
-5.67916e-05
-2.84301e-05
-5.51846e-05
-3.10821e-05
-5.71301e-05
-2.8732e-05
-6.41044e-05
-2.16139e-05
-7.8214e-05
-1.0022e-05
-0.00010076
6.44777e-06
-0.000130989
2.91383e-05
-0.000167026
5.7833e-05
-0.000204035
8.96999e-05
-0.000231381
0.000119842
-0.000238664
0.000143509
-0.000220187
0.000157742
-0.000176223
0.000160696
-0.000103569
0.000156297
-3.297e-05
-5.93843e-05
0.000142656
7.02673e-05
-4.41689e-05
0.00017812
-3.16826e-05
0.000200534
-2.49859e-05
0.000209144
-2.24885e-05
0.000209274
-2.6081e-05
0.000208499
-3.47624e-05
0.000210651
-4.77777e-05
0.000219251
-6.29993e-05
0.000234979
-7.81036e-05
0.000257985
-9.34904e-05
0.00028475
-0.000113758
0.00031598
-0.000295259
0.000340106
-0.000142007
-0.000242848
-0.000195578
-0.000189155
-0.000224628
-0.000138861
-0.000230112
-9.65287e-05
-0.000215212
-6.43613e-05
-0.000186817
-4.31251e-05
-0.000153906
-3.16819e-05
-0.000121736
-2.72324e-05
-9.33019e-05
-2.66002e-05
-7.01079e-05
-2.64717e-05
-5.21669e-05
-2.45238e-05
-3.8953e-05
-1.92327e-05
-3.01789e-05
-1.02556e-05
-2.51387e-05
2.90371e-06
-2.28972e-05
1.64134e-05
-2.27466e-05
2.87116e-05
-2.36646e-05
3.82533e-05
-2.4651e-05
4.07059e-05
-2.40705e-05
3.22858e-05
-2.01389e-05
1.34531e-05
-1.17089e-05
-1.00809e-05
-3.68872e-07
-3.29372e-05
1.13261e-05
-5.1225e-05
2.1444e-05
-6.44715e-05
2.82734e-05
-7.30439e-05
3.30177e-05
-7.87204e-05
3.51585e-05
-8.34599e-05
3.59949e-05
-8.95327e-05
3.71527e-05
-9.80834e-05
3.8263e-05
-0.000109176
3.89383e-05
3.75905e-05
-0.000121754
-0.000133528
2.80497e-05
-5.13979e-05
-4.65783e-05
-4.49861e-05
-5.99476e-05
7.0513e-05
1.5195e-05
2.66e-05
-3.14259e-05
-9.84664e-06
-0.000139439
2.00696e-05
-4.51493e-05
-4.16006e-05
2.96742e-05
-4.33978e-05
-4.36968e-05
-3.95039e-05
-4.34704e-05
2.60816e-05
-7.45387e-05
-0.000100541
-1.89532e-05
-8.65612e-05
4.29495e-05
-0.000143622
1.62296e-05
-4.17395e-05
-3.99157e-05
-3.29983e-05
-4.32403e-05
-8.01075e-05
8.20543e-05
0.000148925
-7.60915e-05
0.000187842
-6.85857e-05
0.000204995
-5.85546e-05
0.000204374
-4.67463e-05
0.000195122
-3.47889e-05
0.000188651
-2.87481e-05
0.000194521
-2.81567e-05
0.000211501
-3.55185e-05
0.000242244
-4.28979e-05
0.000275811
-4.75639e-05
0.000307557
-5.43703e-05
0.000344111
-6.97967e-05
0.000375769
-0.000345596
-9.59996e-05
0.000389123
-0.000293014
-0.000180464
-0.000235265
-0.000242646
-0.000177601
-0.000275259
-0.000124253
-0.000279078
-7.85498e-05
-0.000258329
-4.42619e-05
-0.000221136
-2.1533e-05
-0.00017869
-1.03687e-05
-0.000138698
-7.64961e-06
-0.000105232
-9.63984e-06
-7.85578e-05
-1.28198e-05
-5.83016e-05
-1.43133e-05
-4.34004e-05
-1.23306e-05
-3.29726e-05
-6.13809e-06
-2.63576e-05
4.78254e-06
-2.22657e-05
1.71703e-05
-2.08281e-05
2.9504e-05
-2.08071e-05
4.01925e-05
-2.11896e-05
4.6009e-05
-2.09421e-05
4.20048e-05
-1.82236e-05
2.58898e-05
-1.15443e-05
2.17366e-06
-1.41957e-06
-2.24339e-05
9.60573e-06
-4.36306e-05
1.95543e-05
-5.92663e-05
2.68496e-05
-6.97245e-05
3.22117e-05
-7.5983e-05
3.45239e-05
-8.07611e-05
3.62514e-05
-8.58684e-05
3.74736e-05
-9.33565e-05
3.9159e-05
-0.00010404
4.09972e-05
4.21254e-05
-0.000117902
3.18734e-05
-0.000132717
0.000100568
-5.15456e-05
-9.76124e-05
-4.30404e-05
-4.54598e-05
0.000113671
-7.77308e-07
5.0182e-06
-0.00012367
3.5576e-05
7.09439e-06
-3.87926e-05
-7.05524e-06
7.64155e-05
-7.86249e-06
-7.08939e-05
8.20263e-05
-7.18918e-06
8.73001e-05
-7.92937e-06
9.19164e-05
-9.92628e-06
9.52452e-05
-1.29061e-05
9.73599e-05
-1.70374e-05
9.79752e-05
-2.07048e-05
9.72421e-05
-2.58221e-05
9.50426e-05
-3.07399e-05
9.12826e-05
-3.57156e-05
8.62106e-05
-4.06305e-05
7.95564e-05
-4.55539e-05
7.10129e-05
-5.06876e-05
6.18779e-05
-5.55814e-05
5.31477e-05
-6.0152e-05
4.58737e-05
-6.39341e-05
4.00615e-05
-6.65082e-05
3.46933e-05
-6.75303e-05
2.821e-05
-6.66644e-05
1.9196e-05
-6.40974e-05
7.6261e-06
-6.011e-05
-5.54611e-06
-5.52797e-05
-1.83148e-05
-5.07554e-05
-2.79133e-05
-4.7985e-05
-3.36494e-05
-4.94219e-05
-3.52647e-05
-5.73543e-05
-3.36091e-05
-7.37775e-05
-2.8704e-05
-0.00010064
-1.94905e-05
-0.000137488
-3.77431e-06
-0.000182972
1.89006e-05
-0.000230866
4.51875e-05
-0.000268754
7.10637e-05
-0.000280274
9.22608e-05
-0.000260516
0.00010447
-0.000207096
0.000107328
-0.000122336
0.000102508
-4.0765e-05
9.70996e-05
6.82518e-05
9.02907e-05
8.82328e-05
-4.20429e-05
-5.81558e-05
6.80458e-05
-5.09337e-05
-4.45796e-05
5.81468e-05
1.73254e-06
-9.2908e-07
-6.38437e-05
-0.000127888
1.20183e-05
-1.98342e-05
-0.000138647
1.43191e-05
-0.000321049
0.000376234
-0.000136851
-0.000260868
-0.000229532
-0.000199737
-0.000295681
-0.000143119
-0.000325962
-9.22618e-05
-0.000325229
-4.9402e-05
-0.000296427
-1.768e-05
-0.000248994
2.56859e-06
-0.000196546
1.18817e-05
-0.00014964
1.22484e-05
-0.000111591
7.36353e-06
-8.26995e-05
1.05296e-06
-6.11996e-05
-3.10915e-06
-4.53345e-05
-4.0441e-06
-3.39482e-05
8.97114e-08
-2.6242e-05
8.25186e-06
-2.07621e-05
1.91523e-05
-1.82246e-05
3.10057e-05
-1.73825e-05
4.24092e-05
-1.73113e-05
5.05392e-05
-1.70908e-05
5.03372e-05
-1.54091e-05
3.76243e-05
-1.04375e-05
1.4722e-05
-1.85389e-06
-1.13884e-05
8.14723e-06
-3.5159e-05
1.76873e-05
-5.34896e-05
2.51872e-05
-6.54165e-05
3.05645e-05
-7.28848e-05
3.34895e-05
-7.76934e-05
3.59046e-05
-8.1961e-05
3.71785e-05
-8.78665e-05
3.89824e-05
-9.72105e-05
4.2056e-05
-0.000110792
4.58749e-05
3.79289e-05
-0.000131964
6.51222e-05
-5.13931e-05
9.62226e-05
-4.1501e-05
-3.45463e-05
-0.000195704
0.000196769
8.20419e-05
-0.000176384
0.000131841
-0.000147118
0.000167489
-0.000116522
0.000183486
-9.14191e-05
0.000183776
-7.02311e-05
0.000172327
-5.24788e-05
0.00016483
-3.76701e-05
0.000173358
-2.6174e-05
0.000196903
-1.79888e-05
0.000237649
-9.36051e-06
0.000280995
-3.3692e-06
0.000324333
3.43701e-06
0.000363025
1.06847e-05
0.000393993
1.08787e-05
0.000410127
-5.96248e-07
0.00040435
0.000111366
-4.91941e-05
-0.000102107
3.3708e-05
-4.04158e-05
3.61187e-05
-4.11589e-05
3.80874e-05
-4.16518e-05
-4.25286e-05
-6.4805e-05
0.000101663
7.08012e-05
-1.7969e-05
-0.000133822
-2.5659e-05
3.07406e-05
-1.61482e-05
1.60765e-05
-1.49208e-05
-0.000124532
0.000123628
7.26821e-05
-8.25537e-06
-6.8072e-05
7.79355e-05
-7.77094e-06
8.28592e-05
-7.83785e-06
8.69019e-05
-8.76436e-06
8.98957e-05
-1.07796e-05
9.12957e-05
-1.37021e-05
9.19754e-05
-1.74028e-05
9.11104e-05
-2.20819e-05
8.89129e-05
-2.73048e-05
8.5213e-05
-3.30631e-05
8.0133e-05
-3.90053e-05
7.34194e-05
-4.54657e-05
6.51489e-05
-5.19437e-05
5.62666e-05
-5.7764e-05
4.8218e-05
-6.27885e-05
4.20725e-05
-6.6343e-05
3.77937e-05
-6.79791e-05
3.423e-05
-6.75111e-05
2.94455e-05
-6.4952e-05
2.20424e-05
-6.06033e-05
1.16836e-05
-5.47724e-05
-8.165e-07
-4.80912e-05
-1.40879e-05
-4.15594e-05
-2.55164e-05
-3.69661e-05
-3.45168e-05
-3.68803e-05
-4.14371e-05
-4.40965e-05
-4.68187e-05
-6.13008e-05
-5.06189e-05
-9.06167e-05
-5.09161e-05
-0.000132825
-4.55783e-05
-0.000186742
-3.29738e-05
-0.000246131
-1.53959e-05
-0.000293678
2.24163e-06
-0.000308748
2.05525e-05
-0.00029348
2.91838e-05
-0.000231159
3.46271e-05
-0.000142287
1.6288e-05
-3.6117e-05
3.43277e-05
3.91061e-05
-2.93547e-06
0.000115855
2.44266e-05
0.000150656
-1.28942e-06
5.48882e-05
-2.98069e-07
1.91982e-05
-0.000136345
-5.98772e-05
2.29681e-05
-3.78831e-05
-5.65244e-05
6.55307e-05
-4.15929e-05
-4.49305e-05
-4.07459e-05
-5.02324e-05
-6.32086e-05
-4.1652e-06
6.28467e-05
5.65488e-05
-1.95442e-06
-5.70601e-05
8.29904e-05
1.36463e-05
-0.000138625
5.65473e-05
-0.000139279
7.40181e-05
9.54435e-05
-9.19331e-05
-7.35082e-06
-2.74852e-05
1.0534e-05
8.2783e-05
-0.000109846
-7.56759e-05
0.000101171
-2.6944e-06
-5.88695e-05
-3.36701e-06
5.72872e-05
-0.000340724
0.000388683
-3.38992e-05
-0.000268952
-0.000195462
-0.000196983
-0.00029214
-0.000134036
-0.000351815
-7.98679e-05
-0.000373606
-3.6558e-05
-0.000361564
-4.18662e-06
-0.000321783
1.84514e-05
-0.000265139
3.14344e-05
-0.000204684
3.52664e-05
-0.000151898
3.19971e-05
-0.000111097
2.41312e-05
-8.12338e-05
1.54023e-05
-5.97174e-05
8.39482e-06
-4.43224e-05
4.82597e-06
-3.29947e-05
6.48585e-06
-2.43764e-05
1.27749e-05
-1.85788e-05
2.21701e-05
-1.52609e-05
3.3285e-05
-1.37553e-05
4.4758e-05
-1.32678e-05
5.44553e-05
-1.31372e-05
5.72757e-05
-1.2142e-05
4.82078e-05
-8.70734e-06
2.6607e-05
-1.89359e-06
-2.32659e-07
6.96068e-06
-2.6054e-05
1.57378e-05
-4.65903e-05
2.30868e-05
-6.06355e-05
2.86119e-05
-6.92872e-05
3.17231e-05
-7.4158e-05
3.45132e-05
-7.80345e-05
3.62661e-05
-8.33087e-05
3.82974e-05
-9.04557e-05
4.09754e-05
-9.82591e-05
4.34986e-05
4.78604e-05
-9.98833e-05
0.000113061
-4.36101e-05
-2.56748e-05
2.35648e-05
-2.96663e-05
3.36866e-05
-2.60267e-05
-2.89023e-05
-0.000166999
0.000208361
-2.15506e-05
-0.000130899
4.84902e-05
-0.000120986
0.000136315
-0.000129217
0.000196145
-0.000135877
0.000210185
-0.00013045
0.000192291
-8.91325e-05
0.000139901
-2.8192e-05
0.000109735
2.97456e-05
0.000122387
7.22842e-05
0.000163493
8.04305e-05
0.000241745
7.83173e-05
0.000301751
8.12124e-05
0.000347423
9.09427e-05
0.000383803
0.000106192
0.000409078
0.000118922
0.000421626
0.000131695
0.000407621
0.000119431
0.000408226
-4.93639e-05
2.71763e-05
-3.7662e-05
2.8179e-05
-3.76601e-05
2.82185e-05
-3.76709e-05
2.5343e-05
-3.58979e-05
-3.97916e-05
2.17127e-05
-6.70173e-06
5.28142e-06
3.9503e-05
-3.40654e-05
6.62252e-05
-8.59328e-06
-6.06277e-05
6.73887e-06
7.04845e-05
-8.30121e-06
7.51071e-05
-7.9696e-06
7.93979e-05
-7.56657e-06
8.29219e-05
-7.72287e-06
8.5221e-05
-8.72735e-06
8.61842e-05
-1.07841e-05
8.60149e-05
-1.40115e-05
8.45282e-05
-1.83174e-05
8.1906e-05
-2.37472e-05
7.78279e-05
-2.99017e-05
7.27643e-05
-3.70208e-05
6.61669e-05
-4.46253e-05
5.82296e-05
-5.18777e-05
5.02291e-05
-5.8301e-05
4.355e-05
-6.33509e-05
3.91874e-05
-6.63979e-05
3.6938e-05
-6.70378e-05
3.5403e-05
-6.52368e-05
3.25277e-05
-6.13093e-05
2.69101e-05
-5.55628e-05
1.79973e-05
-4.82759e-05
6.25992e-06
-3.99826e-05
-6.97689e-06
-3.15019e-05
-2.01613e-05
-2.46982e-05
-3.28099e-05
-2.20702e-05
-4.54094e-05
-2.68178e-05
-5.87356e-05
-4.22407e-05
-7.23649e-05
-7.11517e-05
-8.48578e-05
-0.000115392
-9.41772e-05
-0.000174845
-9.6755e-05
-0.000244389
-9.16998e-05
-0.000302279
-8.36598e-05
-0.000322687
-7.31183e-05
-0.000311898
-6.46945e-05
-0.000249468
-6.18532e-05
-0.000156351
-6.7718e-05
-4.28331e-05
-5.8826e-05
1.68648e-05
-7.25042e-05
0.00011503
-4.2358e-05
9.45639e-05
-5.90001e-05
0.000209422
0.000109044
-4.61354e-05
-9.98031e-05
1.87169e-05
-0.000136729
3.48427e-05
-1.752e-05
-7.09763e-05
8.07413e-05
-3.59095e-05
4.03223e-05
-6.14643e-05
-3.43256e-05
3.86622e-05
-3.3015e-05
-5.32002e-05
-0.000137801
1.41738e-05
-4.23948e-05
-4.86504e-05
-3.65019e-05
-4.06433e-05
-4.38173e-05
4.83936e-05
-5.29564e-05
-4.32807e-06
4.47426e-05
-1.82841e-05
1.7898e-05
-3.37258e-05
-4.20263e-05
3.46768e-05
5.17022e-06
7.39893e-05
-8.42909e-05
0.000103363
-3.13446e-05
-3.25168e-05
0.000118824
3.4214e-05
6.0809e-05
-6.32432e-05
-3.0241e-06
-2.30502e-06
5.68555e-05
9.47715e-05
4.56524e-05
8.50786e-05
4.26099e-05
7.82949e-05
3.93293e-05
7.38823e-05
3.64789e-05
7.051e-05
3.41533e-05
6.52123e-05
3.20726e-05
5.51431e-05
2.94266e-05
3.95394e-05
2.57654e-05
1.68232e-05
2.05828e-05
-1.05884e-05
1.37641e-05
-3.76485e-05
6.0174e-06
-5.73097e-05
-1.54027e-06
-6.2954e-05
-6.72571e-06
-5.76816e-05
-8.91825e-06
-4.72196e-05
-9.37044e-06
-3.60003e-05
-9.5343e-06
-2.58427e-05
-1.02765e-05
-1.79962e-05
-1.21591e-05
-1.37264e-05
-1.5754e-05
-1.37305e-05
-2.15076e-05
-1.87953e-05
-2.97116e-05
-2.7493e-05
-4.02941e-05
-3.8172e-05
-5.44603e-05
-4.87523e-05
-7.4322e-05
-5.67436e-05
-0.000102734
-6.13981e-05
-0.000143393
-6.11124e-05
-0.000197999
-5.46586e-05
-0.000262642
-3.95193e-05
-0.000327514
-1.03057e-05
-0.000382229
3.8511e-05
-0.000414946
0.000106327
-0.000412115
0.000190369
-0.000366373
0.000277415
-0.000268857
0.000359508
-0.000102057
0.000431786
4.88698e-05
-5.98285e-07
5.22048e-05
-1.94609e-06
-0.000249849
0.000188033
-2.23952e-05
-0.000286944
-6.75633e-06
-0.000291552
3.77507e-05
-0.000264604
9.63118e-05
-0.000221755
0.000146877
-0.000179778
0.000158907
-0.000142192
0.000141332
-0.000116264
9.53161e-05
-7.87444e-05
5.91361e-05
-4.17483e-05
6.07619e-05
-2.24865e-05
0.000133289
1.9059e-06
0.000215372
3.49503e-05
0.000280946
7.68915e-05
0.000330135
0.000126146
0.000368336
0.00016905
0.000401478
0.000205587
0.000413303
0.000287231
0.000343443
0.000342225
0.000354228
0.000290143
0.000465056
0.000116783
-4.0695e-05
8.65863e-06
-0.000136129
-3.72687e-05
9.01351e-05
4.17958e-05
1.32009e-05
6.8434e-05
-5.66492e-05
-3.09867e-05
6.21839e-06
-6.15236e-05
1.10803e-06
-6.33473e-05
-1.71222e-06
-6.4315e-05
6.27067e-05
-3.92264e-06
-6.36039e-05
5.99154e-05
-4.03391e-06
5.67213e-05
-3.51964e-06
3.59464e-07
9.36582e-07
5.08617e-05
0.000126021
-3.67878e-05
2.82786e-07
4.61572e-05
-4.96909e-05
-2.13477e-06
1.73752e-05
5.22293e-05
-1.37735e-05
8.29425e-06
3.99114e-05
-3.51293e-05
-3.36843e-06
4.25866e-05
-6.58684e-05
-3.1242e-05
7.52011e-05
-5.69689e-05
-2.97042e-05
-2.80868e-05
-4.92005e-05
1.10257e-05
-0.000134006
0.000103354
-4.17134e-05
-9.49777e-05
1.98983e-06
-1.49414e-06
2.22664e-05
-3.13903e-05
2.19597e-05
-3.26172e-05
2.11743e-05
-3.24345e-05
2.25978e-05
-3.29889e-05
-3.24323e-05
1.97678e-05
-4.6046e-05
6.65741e-05
5.91918e-06
3.35498e-05
-2.43107e-05
-1.99626e-05
1.48583e-05
6.078e-05
-5.24399e-06
6.41146e-06
-5.73202e-05
6.48176e-05
-8.0725e-06
6.92681e-05
-8.14787e-06
7.34574e-05
-7.75579e-06
7.71868e-05
-7.03975e-06
7.9925e-05
-6.59486e-06
8.13932e-05
-6.8709e-06
8.14994e-05
-8.20698e-06
8.0246e-05
-1.07794e-05
7.78593e-05
-1.47781e-05
7.41206e-05
-1.98832e-05
6.98093e-05
-2.66869e-05
6.44694e-05
-3.44163e-05
5.783e-05
-4.24242e-05
5.0625e-05
-5.00917e-05
4.40337e-05
-5.66203e-05
3.93564e-05
-6.12938e-05
3.73146e-05
-6.35891e-05
3.74459e-05
-6.32699e-05
3.80978e-05
-6.05475e-05
3.73157e-05
-5.58808e-05
3.36129e-05
-4.93125e-05
2.63787e-05
-4.12532e-05
1.59774e-05
-3.20675e-05
3.29395e-06
-2.2337e-05
-1.09899e-05
-1.35586e-05
-2.69117e-05
-8.17146e-06
-4.51645e-05
-9.18706e-06
-6.63506e-05
-2.02247e-05
-8.99827e-05
-4.49722e-05
-0.000115609
-8.64185e-05
-0.000141874
-0.000146509
-0.000165652
-0.000220664
-0.000179791
-0.000289952
-0.000184487
-0.000321785
-0.00018321
-0.000319091
-0.000176147
-0.000263997
-0.000171777
-0.000170093
-0.000157422
-6.83189e-05
-0.00015499
1.40774e-06
-0.00013392
7.82853e-05
-0.000113472
4.9058e-05
-0.000103349
0.000182779
-2.45524e-05
8.61517e-05
4.94671e-05
2.06148e-05
-4.18171e-05
5.6794e-05
2.16672e-05
-1.71222e-05
2.27947e-05
6.28524e-05
-3.43168e-05
4.9661e-06
3.18176e-05
-4.79795e-06
5.60761e-05
-1.03769e-05
1.22085e-05
-0.000136928
-9.52078e-06
4.4154e-05
9.10275e-06
2.2548e-05
5.95188e-05
-1.61197e-05
5.89883e-06
4.45713e-05
-1.04717e-05
-4.61406e-05
-4.29657e-05
-3.54249e-05
-3.77722e-05
-3.18627e-05
-4.57959e-05
2.63623e-05
-5.47878e-05
6.25948e-05
6.02555e-05
-2.47452e-05
-5.24076e-05
6.88046e-05
5.14762e-05
-4.7171e-05
4.17336e-05
5.38892e-06
-4.14526e-06
-5.91341e-05
9.44856e-07
5.44142e-05
3.65297e-05
-2.34952e-05
-3.78351e-05
-4.85486e-05
-7.60283e-06
5.65653e-05
-8.80595e-06
-6.17793e-05
-4.85638e-06
-6.38358e-05
-5.13388e-06
-6.40417e-05
-6.14021e-06
8.7937e-05
4.05752e-05
8.00338e-05
3.87427e-05
7.39337e-05
3.62079e-05
7.00216e-05
3.34628e-05
6.66044e-05
3.10296e-05
6.07231e-05
2.8607e-05
4.97507e-05
2.60949e-05
3.23148e-05
2.24025e-05
7.79083e-06
1.77796e-05
-2.06545e-05
1.18185e-05
-4.74594e-05
5.21766e-06
-6.47445e-05
-8.34432e-07
-6.75135e-05
-4.65818e-06
-6.04726e-05
-5.93598e-06
-4.97057e-05
-6.11725e-06
-3.90285e-05
-6.33411e-06
-2.98451e-05
-7.20169e-06
-2.34576e-05
-9.15904e-06
-2.07997e-05
-1.26058e-05
-2.21526e-05
-1.77347e-05
-2.77193e-05
-2.48087e-05
-3.68265e-05
-3.39011e-05
-4.83556e-05
-4.58127e-05
-6.10686e-05
-6.24825e-05
-7.38263e-05
-8.69571e-05
-8.81581e-05
-0.000123448
-0.000103039
-0.000174525
-0.000116771
-0.000238488
-0.000125095
-0.000309274
-0.000119405
-0.000378915
-8.79468e-05
-0.000438466
-3.33369e-05
-0.000458702
5.33776e-05
-0.000442797
0.000158772
-0.000359871
0.000285994
-0.000213846
0.000402994
-6.57576e-05
0.000511434
0.000155768
-1.92597e-05
-2.81549e-05
2.02391e-05
-1.84774e-05
-2.83781e-05
-1.74715e-05
-2.81205e-05
-1.75945e-05
-2.71793e-05
-1.80345e-05
-2.58085e-05
-1.90577e-05
-2.3993e-05
-1.11258e-05
1.55071e-05
-6.10023e-06
-2.83307e-05
0.000121479
-0.000134212
0.000135005
-3.24423e-05
8.42175e-05
2.76842e-05
7.0384e-05
2.93311e-06
4.76716e-05
-4.29233e-06
-1.10265e-06
4.80005e-05
1.77907e-05
-3.83638e-05
-1.20902e-05
-2.30348e-05
-4.55576e-05
0.000148268
-1.97021e-05
-9.73994e-06
-0.000116388