/*--------------------------------*- C++ -*----------------------------------*\
| =========                 |                                                 |
| \\      /  F ield         | OpenFOAM: The Open Source CFD Toolbox           |
|  \\    /   O peration     | Version:  2212                                  |
|   \\  /    A nd           | Website:  www.openfoam.com                      |
|    \\/     M anipulation  |                                                 |
\*---------------------------------------------------------------------------*/
FoamFile
{
    version     2.0;
    format      ascii;
    arch        "LSB;label=32;scalar=64";
    class       surfaceScalarField;
    location    "0.138";
    object      phi;
}
// * * * * * * * * * * * * * * * * * * * * * * * * * * * * * * * * * * * * * //

dimensions      [0 3 -1 0 0 0 0];

oriented        oriented;

internalField   nonuniform List<scalar> 
69808
(
-1.21893e-07
-0.0301522
-1.86109
-3.82145e-07
-0.0301524
-1.86111
-5.37169e-07
-0.0301527
-1.86111
-7.06273e-07
-0.0301531
-1.86111
-8.34059e-07
-0.0301537
-1.86111
-9.42626e-07
-0.0301543
-1.86111
-1.0205e-06
-0.030155
-1.86111
-1.07105e-06
-0.0301558
-1.86111
-1.09182e-06
-0.0301566
-1.86111
-1.08352e-06
-0.0301573
-1.86111
-1.04585e-06
-0.0301581
-1.86111
-9.82498e-07
-0.0301588
-1.86111
-8.96508e-07
-0.0301594
-1.86111
-7.92663e-07
-0.03016
-1.86111
-6.78462e-07
-0.0301605
-1.86111
-5.53182e-07
-0.0301609
-1.86111
-4.39841e-07
-0.0301612
-1.86111
-2.85481e-07
-0.0301614
-1.86111
-2.14729e-07
-0.0301615
-1.86111
-0.0301615
-1.86109
-2.12936e-07
-0.0342991
-1.85661
-3.79182e-07
-0.0342994
-1.85663
-5.50206e-07
-0.0342998
-1.85663
-7.0066e-07
-0.0343004
-1.85663
-8.24729e-07
-0.0343011
-1.85663
-9.22543e-07
-0.034302
-1.85664
-9.90479e-07
-0.0343029
-1.85664
-1.029e-06
-0.034304
-1.85664
-1.03727e-06
-0.034305
-1.85664
-1.01773e-06
-0.034306
-1.85664
-9.73206e-07
-0.034307
-1.85664
-9.05885e-07
-0.034308
-1.85664
-8.19626e-07
-0.0343088
-1.85664
-7.18742e-07
-0.0343096
-1.85664
-6.08173e-07
-0.0343102
-1.85664
-4.91323e-07
-0.0343107
-1.85664
-3.71717e-07
-0.0343111
-1.85664
-2.47815e-07
-0.0343114
-1.85664
-1.03377e-07
-0.0343116
-1.85664
-0.0343116
-1.85662
3.3142e-08
-0.037948
-1.86441
1.25262e-07
-0.0379482
-1.86443
1.90279e-07
-0.0379486
-1.86443
2.39952e-07
-0.037949
-1.86443
2.74864e-07
-0.0379496
-1.86443
2.93539e-07
-0.0379503
-1.86443
2.97559e-07
-0.0379511
-1.86443
2.8847e-07
-0.0379519
-1.86442
2.68598e-07
-0.0379527
-1.86442
2.41643e-07
-0.0379536
-1.86442
2.10131e-07
-0.0379544
-1.86442
1.77489e-07
-0.0379552
-1.86442
1.45924e-07
-0.0379559
-1.86442
1.1768e-07
-0.0379565
-1.86442
9.38683e-08
-0.037957
-1.86442
7.55818e-08
-0.0379575
-1.86442
6.00614e-08
-0.0379578
-1.86442
4.94609e-08
-0.037958
-1.86442
5.12872e-08
-0.0379582
-1.86442
-0.0379581
-1.8644
-1.04716e-07
-0.0279769
-1.84427
-1.90456e-07
-0.0279772
-1.84429
-2.71845e-07
-0.0279775
-1.84429
-3.43897e-07
-0.0279781
-1.84429
-4.03405e-07
-0.0279787
-1.84429
-4.49091e-07
-0.0279795
-1.84429
-4.80231e-07
-0.0279804
-1.84429
-4.96551e-07
-0.0279813
-1.84429
-4.98418e-07
-0.0279823
-1.84429
-4.86298e-07
-0.0279832
-1.84429
-4.61727e-07
-0.0279841
-1.84429
-4.25891e-07
-0.027985
-1.84429
-3.80886e-07
-0.0279857
-1.84429
-3.28701e-07
-0.0279864
-1.84429
-2.71718e-07
-0.027987
-1.84429
-2.12587e-07
-0.0279875
-1.84429
-1.52499e-07
-0.0279878
-1.84429
-9.34421e-08
-0.0279881
-1.84429
-3.90421e-08
-0.0279883
-1.84429
-0.0279883
-1.84427
1.15874e-07
-0.0179951
-1.8491
2.57354e-07
-0.0179952
-1.84912
3.79912e-07
-0.0179954
-1.84912
4.81377e-07
-0.0179956
-1.84912
5.6016e-07
-0.0179959
-1.84912
6.14601e-07
-0.0179963
-1.84912
6.44743e-07
-0.0179968
-1.84912
6.51943e-07
-0.0179972
-1.84912
6.38377e-07
-0.0179977
-1.84912
6.07729e-07
-0.0179982
-1.84912
5.63205e-07
-0.0179986
-1.84912
5.09186e-07
-0.017999
-1.84912
4.49102e-07
-0.0179994
-1.84912
3.86788e-07
-0.0179998
-1.84912
3.2509e-07
-0.0180001
-1.84912
2.65596e-07
-0.0180003
-1.84912
2.08477e-07
-0.0180005
-1.84912
1.50216e-07
-0.0180007
-1.84912
8.8562e-08
-0.0180008
-1.84912
-0.0180008
-1.8491
7.81835e-09
-0.00139075
-1.83253
2.37071e-08
-0.00139068
-1.83255
3.86536e-08
-0.00139079
-1.83255
5.10805e-08
-0.00139095
-1.83255
6.17527e-08
-0.00139115
-1.83255
6.95425e-08
-0.00139139
-1.83255
7.48335e-08
-0.00139165
-1.83255
7.75321e-08
-0.00139193
-1.83255
7.78748e-08
-0.00139221
-1.83255
7.63133e-08
-0.00139249
-1.83255
7.30143e-08
-0.00139276
-1.83255
6.87167e-08
-0.00139302
-1.83255
6.37192e-08
-0.00139326
-1.83255
5.8962e-08
-0.00139347
-1.83255
5.46223e-08
-0.00139366
-1.83255
5.15052e-08
-0.00139382
-1.83255
4.80471e-08
-0.00139396
-1.83255
4.20965e-08
-0.00139407
-1.83255
2.59182e-08
-0.00139415
-1.83255
-0.00139431
-1.83253
6.33793e-08
0.0148336
-1.8353
1.41914e-07
0.0148339
-1.83532
2.10526e-07
0.0148339
-1.83532
2.667e-07
0.0148339
-1.83532
3.10714e-07
0.0148339
-1.83532
3.41257e-07
0.0148339
-1.83532
3.57884e-07
0.0148338
-1.83531
3.61125e-07
0.0148338
-1.83531
3.51946e-07
0.0148338
-1.83531
3.31663e-07
0.0148338
-1.83531
3.02648e-07
0.0148338
-1.83531
2.67456e-07
0.0148338
-1.83531
2.28397e-07
0.0148338
-1.83531
1.88453e-07
0.0148338
-1.83531
1.50011e-07
0.0148337
-1.83531
1.14873e-07
0.0148337
-1.83531
8.35888e-08
0.0148336
-1.83531
5.58458e-08
0.0148336
-1.83531
3.05618e-08
0.0148335
-1.83531
0.0148332
-1.83529
3.97236e-08
0.034033
-1.82668
8.06765e-08
0.0340335
-1.8267
1.18179e-07
0.0340336
-1.8267
1.51071e-07
0.0340338
-1.8267
1.79398e-07
0.034034
-1.8267
2.01439e-07
0.0340342
-1.8267
2.16528e-07
0.0340345
-1.8267
2.23951e-07
0.0340348
-1.8267
2.23377e-07
0.034035
-1.8267
2.15135e-07
0.0340353
-1.82669
1.99594e-07
0.0340356
-1.82669
1.78244e-07
0.0340359
-1.82669
1.52424e-07
0.0340361
-1.82669
1.24584e-07
0.0340363
-1.82669
9.63016e-08
0.0340364
-1.82669
6.94472e-08
0.0340365
-1.82669
4.43401e-08
0.0340366
-1.82669
2.15967e-08
0.0340366
-1.82669
5.42963e-09
0.0340366
-1.82669
0.0340362
-1.82667
5.68146e-08
0.0460359
-1.82203
1.22209e-07
0.0460366
-1.82205
1.78517e-07
0.0460369
-1.82205
2.26354e-07
0.0460373
-1.82205
2.64996e-07
0.0460379
-1.82205
2.932e-07
0.0460385
-1.82205
3.09352e-07
0.0460392
-1.82205
3.12862e-07
0.04604
-1.82205
3.02953e-07
0.0460408
-1.82205
2.80441e-07
0.0460416
-1.82205
2.4612e-07
0.0460424
-1.82205
2.02594e-07
0.0460431
-1.82205
1.52904e-07
0.0460438
-1.82205
1.01586e-07
0.0460443
-1.82205
5.28263e-08
0.0460448
-1.82205
1.18064e-08
0.0460451
-1.82205
-1.95231e-08
0.0460454
-1.82205
-3.76984e-08
0.0460455
-1.82205
-2.99335e-08
0.0460456
-1.82205
0.0460451
-1.82203
-6.44034e-09
0.0590197
-1.82176
-9.80887e-09
0.0590205
-1.82178
-1.42067e-08
0.0590209
-1.82178
-1.96559e-08
0.0590215
-1.82178
-2.47415e-08
0.0590224
-1.82178
-3.00667e-08
0.0590233
-1.82178
-3.67405e-08
0.0590244
-1.82178
-4.53942e-08
0.0590255
-1.82178
-5.64553e-08
0.0590267
-1.82178
-6.96644e-08
0.0590278
-1.82178
-8.44496e-08
0.0590289
-1.82178
-9.94261e-08
0.05903
-1.82178
-1.12617e-07
0.0590309
-1.82178
-1.22267e-07
0.0590317
-1.82178
-1.27625e-07
0.0590323
-1.82178
-1.26058e-07
0.0590328
-1.82178
-1.1782e-07
0.0590332
-1.82178
-9.65917e-08
0.0590334
-1.82178
-5.36962e-08
0.0590335
-1.82178
0.059033
-1.82176
-1.39046e-07
0.0716131
-1.82347
-2.70688e-07
0.071614
-1.82349
-3.93568e-07
0.0716144
-1.82349
-5.01381e-07
0.0716149
-1.82349
-5.91274e-07
0.0716156
-1.82349
-6.61654e-07
0.0716164
-1.82349
-7.12554e-07
0.0716173
-1.82349
-7.44783e-07
0.0716182
-1.82349
-7.5965e-07
0.0716192
-1.82349
-7.5853e-07
0.0716202
-1.82349
-7.42667e-07
0.0716212
-1.82349
-7.12939e-07
0.0716221
-1.82349
-6.70302e-07
0.0716229
-1.82349
-6.15455e-07
0.0716235
-1.82349
-5.49722e-07
0.0716241
-1.82349
-4.73846e-07
0.0716245
-1.82349
-3.86618e-07
0.0716248
-1.82349
-2.80073e-07
0.071625
-1.82349
-1.45328e-07
0.0716251
-1.82349
0.0716244
-1.82347
-2.62722e-08
0.0832981
-1.83239
-3.9666e-08
0.0832991
-1.83241
-5.59398e-08
0.0832997
-1.83241
-7.33412e-08
0.0833005
-1.83241
-9.07116e-08
0.0833015
-1.83241
-1.08319e-07
0.0833027
-1.83241
-1.27282e-07
0.083304
-1.83241
-1.46917e-07
0.0833054
-1.83241
-1.69055e-07
0.0833069
-1.83241
-1.92027e-07
0.0833083
-1.83241
-2.1544e-07
0.0833097
-1.83241
-2.36558e-07
0.083311
-1.83241
-2.53154e-07
0.0833122
-1.83241
-2.60814e-07
0.0833132
-1.83241
-2.57988e-07
0.083314
-1.83241
-2.41794e-07
0.0833146
-1.83241
-2.11645e-07
0.083315
-1.83241
-1.61631e-07
0.0833153
-1.83241
-8.39106e-08
0.0833155
-1.83241
0.0833147
-1.83239
-1.97191e-07
0.0946775
-1.83283
-3.89215e-07
0.0946786
-1.83285
-5.6618e-07
0.0946791
-1.83285
-7.20917e-07
0.0946798
-1.83285
-8.50501e-07
0.0946807
-1.83285
-9.52345e-07
0.0946817
-1.83285
-1.02604e-06
0.0946829
-1.83285
-1.07186e-06
0.0946842
-1.83285
-1.09124e-06
0.0946855
-1.83285
-1.08561e-06
0.0946868
-1.83285
-1.05678e-06
0.094688
-1.83285
-1.00617e-06
0.0946892
-1.83285
-9.35457e-07
0.0946902
-1.83285
-8.4615e-07
0.0946911
-1.83285
-7.40668e-07
0.0946918
-1.83285
-6.21344e-07
0.0946924
-1.83285
-4.89583e-07
0.0946927
-1.83285
-3.40484e-07
0.094693
-1.83285
-1.72241e-07
0.0946931
-1.83285
0.0946922
-1.83283
-5.11393e-08
0.102291
-1.8515
-7.67369e-08
0.102292
-1.85152
-1.07777e-07
0.102293
-1.85152
-1.4104e-07
0.102294
-1.85152
-1.74888e-07
0.102295
-1.85152
-2.08097e-07
0.102296
-1.85152
-2.41562e-07
0.102298
-1.85152
-2.7478e-07
0.1023
-1.85152
-3.07746e-07
0.102302
-1.85152
-3.38776e-07
0.102304
-1.85152
-3.66288e-07
0.102305
-1.85152
-3.86752e-07
0.102307
-1.85152
-3.96748e-07
0.102308
-1.85152
-3.91755e-07
0.10231
-1.85152
-3.69145e-07
0.102311
-1.85152
-3.27663e-07
0.102311
-1.85152
-2.67578e-07
0.102312
-1.85152
-1.87582e-07
0.102312
-1.85152
-8.83321e-08
0.102312
-1.85152
0.102311
-1.8515
-2.6048e-07
0.109629
-1.84963
-5.14746e-07
0.10963
-1.84965
-7.49681e-07
0.10963
-1.84965
-9.54997e-07
0.109631
-1.84965
-1.12829e-06
0.109632
-1.84965
-1.26533e-06
0.109633
-1.84965
-1.36456e-06
0.109635
-1.84965
-1.4249e-06
0.109636
-1.84965
-1.4475e-06
0.109638
-1.84965
-1.43345e-06
0.109639
-1.84965
-1.38511e-06
0.109641
-1.84965
-1.30473e-06
0.109642
-1.84965
-1.19529e-06
0.109644
-1.84965
-1.06067e-06
0.109645
-1.84965
-9.06196e-07
0.109645
-1.84965
-7.3763e-07
0.109646
-1.84965
-5.60396e-07
0.109646
-1.84965
-3.78213e-07
0.109647
-1.84965
-1.89452e-07
0.109647
-1.84965
0.109646
-1.84963
-7.9719e-08
0.107623
-1.87674
-1.17215e-07
0.107624
-1.87676
-1.66821e-07
0.107625
-1.87676
-2.22179e-07
0.107626
-1.87676
-2.77706e-07
0.107627
-1.87676
-3.31109e-07
0.107629
-1.87676
-3.82222e-07
0.107631
-1.87676
-4.30093e-07
0.107632
-1.87676
-4.73119e-07
0.107634
-1.87676
-5.0932e-07
0.107636
-1.87676
-5.35656e-07
0.107638
-1.87676
-5.48694e-07
0.10764
-1.87676
-5.4409e-07
0.107641
-1.87676
-5.18929e-07
0.107642
-1.87677
-4.70966e-07
0.107643
-1.87677
-4.03806e-07
0.107644
-1.87677
-3.20376e-07
0.107645
-1.87677
-2.23328e-07
0.107645
-1.87677
-1.002e-07
0.107645
-1.87677
0.107644
-1.87675
-3.31807e-07
0.104938
-1.871
-6.51948e-07
0.104939
-1.87102
-9.53563e-07
0.104939
-1.87102
-1.22376e-06
0.10494
-1.87102
-1.45255e-06
0.104941
-1.87102
-1.63307e-06
0.104942
-1.87102
-1.76301e-06
0.104943
-1.87102
-1.84031e-06
0.104945
-1.87102
-1.86514e-06
0.104946
-1.87103
-1.83886e-06
0.104948
-1.87103
-1.76421e-06
0.104949
-1.87103
-1.64572e-06
0.10495
-1.87103
-1.48891e-06
0.104951
-1.87103
-1.3021e-06
0.104952
-1.87103
-1.09418e-06
0.104953
-1.87103
-8.776e-07
0.104954
-1.87103
-6.60473e-07
0.104954
-1.87103
-4.4129e-07
0.104954
-1.87103
-2.09676e-07
0.104954
-1.87103
0.104953
-1.87101
-1.71961e-07
0.0830283
-1.89999
-2.70351e-07
0.0830291
-1.90001
-3.97959e-07
0.0830297
-1.90001
-5.23055e-07
0.0830305
-1.90001
-6.35647e-07
0.0830315
-1.90001
-7.37175e-07
0.0830327
-1.90001
-8.2234e-07
0.083034
-1.90001
-8.90702e-07
0.0830354
-1.90001
-9.38724e-07
0.0830368
-1.90001
-9.64674e-07
0.0830383
-1.90001
-9.65775e-07
0.0830396
-1.90001
-9.4066e-07
0.0830409
-1.90001
-8.87579e-07
0.083042
-1.90001
-8.07078e-07
0.083043
-1.90001
-7.02209e-07
0.0830437
-1.90001
-5.76595e-07
0.0830443
-1.90001
-4.41416e-07
0.0830446
-1.90001
-3.00144e-07
0.0830449
-1.90001
-1.17966e-07
0.0830448
-1.90001
0.0830442
-1.89999
-3.67012e-07
0.0595292
-1.88835
-7.35858e-07
0.0595297
-1.88837
-1.11408e-06
0.0595302
-1.88837
-1.44078e-06
0.0595307
-1.88838
-1.71205e-06
0.0595313
-1.88838
-1.92904e-06
0.059532
-1.88838
-2.08394e-06
0.0595327
-1.88838
-2.17561e-06
0.0595335
-1.88838
-2.20179e-06
0.0595344
-1.88838
-2.16412e-06
0.0595352
-1.88838
-2.06537e-06
0.059536
-1.88838
-1.91198e-06
0.0595367
-1.88838
-1.71273e-06
0.0595374
-1.88838
-1.47933e-06
0.0595379
-1.88838
-1.22648e-06
0.0595382
-1.88839
-9.64567e-07
0.0595385
-1.88839
-7.168e-07
0.0595387
-1.88839
-4.90406e-07
0.0595387
-1.88839
-2.36235e-07
0.0595385
-1.88839
0.059538
-1.88837
-3.01585e-07
-1.89092
-7.34124e-07
-1.89094
-1.12795e-06
-1.89094
-1.49906e-06
-1.89094
-1.78958e-06
-1.89094
-2.0292e-06
-1.89094
-2.20288e-06
-1.89094
-2.31239e-06
-1.89094
-2.3526e-06
-1.89095
-2.32337e-06
-1.89095
-2.22707e-06
-1.89095
-2.06844e-06
-1.89095
-1.85873e-06
-1.89095
-1.60934e-06
-1.89095
-1.34109e-06
-1.89095
-1.06124e-06
-1.89095
-8.1329e-07
-1.89095
-5.54061e-07
-1.89095
-3.13447e-07
-1.89095
-1.89094
-7.14467e-08
4.1368e-05
-1.86113
-2.3961e-07
4.1544e-05
-1.86115
-3.66204e-07
4.15024e-05
-1.86115
-4.82439e-07
4.15421e-05
-1.86115
-5.71673e-07
4.15712e-05
-1.86115
-6.48967e-07
4.16198e-05
-1.86115
-7.04525e-07
4.16688e-05
-1.86115
-7.38851e-07
4.17253e-05
-1.86115
-7.4575e-07
4.17869e-05
-1.86115
-7.31276e-07
4.18776e-05
-1.86115
-7.04578e-07
4.2001e-05
-1.86115
-6.62753e-07
4.21261e-05
-1.86115
-6.06353e-07
4.22477e-05
-1.86115
-5.36457e-07
4.2363e-05
-1.86115
-4.59706e-07
4.2473e-05
-1.86115
-3.73892e-07
4.25692e-05
-1.86115
-2.94916e-07
4.2662e-05
-1.86115
-2.06756e-07
4.27192e-05
-1.86115
-1.50017e-07
4.28225e-05
-1.86115
4.26964e-05
-1.86114
-2.40822e-07
-0.00125366
-1.85532
-4.5862e-07
-0.00125352
-1.85534
-6.73138e-07
-0.0012537
-1.85534
-8.60107e-07
-0.00125392
-1.85534
-1.01939e-06
-0.00125421
-1.85534
-1.14866e-06
-0.00125455
-1.85534
-1.24483e-06
-0.00125495
-1.85534
-1.305e-06
-0.00125539
-1.85534
-1.32957e-06
-0.00125585
-1.85534
-1.31854e-06
-0.00125631
-1.85534
-1.26931e-06
-0.00125675
-1.85534
-1.18689e-06
-0.00125717
-1.85534
-1.07779e-06
-0.00125755
-1.85534
-9.47855e-07
-0.00125789
-1.85534
-8.02802e-07
-0.00125818
-1.85534
-6.47392e-07
-0.00125842
-1.85534
-4.84814e-07
-0.0012586
-1.85534
-3.22618e-07
-0.00125874
-1.85534
-1.50385e-07
-0.0012588
-1.85534
-0.00125902
-1.85532
8.17013e-08
-0.00259532
-1.86306
1.98132e-07
-0.00259516
-1.86308
2.94841e-07
-0.00259525
-1.86308
3.81674e-07
-0.00259535
-1.86308
4.49502e-07
-0.00259549
-1.86308
4.99562e-07
-0.00259565
-1.86308
5.29626e-07
-0.00259583
-1.86308
5.39747e-07
-0.00259603
-1.86308
5.28214e-07
-0.00259623
-1.86308
5.04176e-07
-0.00259644
-1.86308
4.72489e-07
-0.00259663
-1.86308
4.35332e-07
-0.0025968
-1.86308
3.93993e-07
-0.00259696
-1.86308
3.50418e-07
-0.00259709
-1.86308
3.0654e-07
-0.00259719
-1.86308
2.60554e-07
-0.00259727
-1.86308
2.13242e-07
-0.00259732
-1.86308
1.57994e-07
-0.00259736
-1.86308
9.85471e-08
-0.00259736
-1.86308
-0.00259752
-1.86306
-1.30026e-07
0.00229309
-1.84916
-2.39634e-07
0.00229321
-1.84918
-3.42175e-07
0.00229302
-1.84918
-4.33404e-07
0.00229277
-1.84918
-5.10274e-07
0.00229243
-1.84918
-5.69666e-07
0.00229204
-1.84918
-6.114e-07
0.00229159
-1.84918
-6.34152e-07
0.00229112
-1.84918
-6.38386e-07
0.00229063
-1.84918
-6.23992e-07
0.00229014
-1.84918
-5.92151e-07
0.00228966
-1.84918
-5.45861e-07
0.00228921
-1.84918
-4.87928e-07
0.0022888
-1.84918
-4.21101e-07
0.00228844
-1.84918
-3.45926e-07
0.00228813
-1.84918
-2.68059e-07
0.00228788
-1.84918
-1.87893e-07
0.00228768
-1.84918
-1.12221e-07
0.00228753
-1.84918
-4.7844e-08
0.00228744
-1.84918
0.00228721
-1.84916
1.66933e-07
0.00699578
-1.85381
3.53534e-07
0.00699595
-1.85383
5.23739e-07
0.00699585
-1.85383
6.69681e-07
0.00699571
-1.85383
7.88081e-07
0.00699553
-1.85383
8.77206e-07
0.00699533
-1.85383
9.34919e-07
0.0069951
-1.85383
9.62427e-07
0.00699485
-1.85383
9.61227e-07
0.0069946
-1.85383
9.35504e-07
0.00699435
-1.85383
8.8887e-07
0.0069941
-1.85383
8.26652e-07
0.00699387
-1.85383
7.52897e-07
0.00699366
-1.85383
6.70635e-07
0.00699347
-1.85383
5.82889e-07
0.00699331
-1.85383
4.90173e-07
0.00699318
-1.85383
3.92091e-07
0.00699307
-1.85383
2.83299e-07
0.00699298
-1.85383
1.54982e-07
0.00699292
-1.85383
0.0069927
-1.85381
1.45654e-08
0.0165911
-1.84213
3.77314e-08
0.0165913
-1.84215
5.89364e-08
0.0165912
-1.84215
8.09799e-08
0.0165911
-1.84215
1.00509e-07
0.0165909
-1.84215
1.16404e-07
0.0165906
-1.84215
1.29144e-07
0.0165904
-1.84215
1.38457e-07
0.0165901
-1.84215
1.44272e-07
0.0165898
-1.84215
1.47043e-07
0.0165896
-1.84215
1.46419e-07
0.0165893
-1.84215
1.43122e-07
0.0165891
-1.84215
1.37295e-07
0.0165888
-1.84215
1.29751e-07
0.0165886
-1.84215
1.20665e-07
0.0165884
-1.84215
1.11452e-07
0.0165882
-1.84215
9.89515e-08
0.0165881
-1.84215
7.72406e-08
0.016588
-1.84215
4.27297e-08
0.0165879
-1.84215
0.0165876
-1.84213
1.34618e-07
0.025847
-1.84455
2.8579e-07
0.0258473
-1.84457
4.23318e-07
0.0258473
-1.84457
5.42978e-07
0.0258472
-1.84457
6.41413e-07
0.0258472
-1.84457
7.16474e-07
0.0258472
-1.84457
7.66278e-07
0.0258471
-1.84457
7.9115e-07
0.0258471
-1.84457
7.92077e-07
0.025847
-1.84457
7.70739e-07
0.025847
-1.84457
7.30498e-07
0.025847
-1.84457
6.74775e-07
0.0258469
-1.84457
6.0742e-07
0.0258469
-1.84457
5.32559e-07
0.0258468
-1.84457
4.53849e-07
0.0258467
-1.84457
3.73412e-07
0.0258467
-1.84457
2.90755e-07
0.0258466
-1.84457
2.02787e-07
0.0258465
-1.84457
1.08276e-07
0.0258465
-1.84457
0.0258461
-1.84455
7.75215e-08
0.0381355
-1.83897
1.54542e-07
0.038136
-1.83899
2.27105e-07
0.038136
-1.83899
2.94647e-07
0.0381361
-1.83899
3.53771e-07
0.0381362
-1.83898
4.01622e-07
0.0381363
-1.83898
4.37024e-07
0.0381364
-1.83898
4.5874e-07
0.0381365
-1.83898
4.66169e-07
0.0381367
-1.83898
4.59807e-07
0.0381368
-1.83898
4.39869e-07
0.0381369
-1.83898
4.08871e-07
0.038137
-1.83898
3.68551e-07
0.0381371
-1.83898
3.22093e-07
0.0381372
-1.83898
2.71656e-07
0.0381372
-1.83898
2.19793e-07
0.0381372
-1.83898
1.66378e-07
0.0381372
-1.83898
1.09622e-07
0.0381372
-1.83898
5.29748e-08
0.0381371
-1.83898
0.0381367
-1.83896
9.34979e-08
0.0433554
-1.82725
1.98236e-07
0.0433559
-1.82727
2.93314e-07
0.043356
-1.82727
3.78721e-07
0.0433563
-1.82727
4.50753e-07
0.0433565
-1.82727
5.07238e-07
0.0433569
-1.82727
5.45495e-07
0.0433572
-1.82727
5.64346e-07
0.0433576
-1.82727
5.62673e-07
0.043358
-1.82727
5.41191e-07
0.0433584
-1.82727
5.01458e-07
0.0433588
-1.82727
4.46556e-07
0.0433592
-1.82727
3.80743e-07
0.0433595
-1.82727
3.09691e-07
0.0433597
-1.82727
2.38762e-07
0.0433599
-1.82727
1.73017e-07
0.0433601
-1.82727
1.13595e-07
0.0433601
-1.82727
6.14574e-08
0.0433602
-1.82727
2.72971e-08
0.0433602
-1.82727
0.0433597
-1.82725
-1.96845e-08
0.0495938
-1.828
-3.25471e-08
0.0495944
-1.82802
-4.41334e-08
0.0495946
-1.82802
-5.24147e-08
0.0495948
-1.82802
-5.86079e-08
0.0495951
-1.82802
-6.3018e-08
0.0495955
-1.82802
-6.6969e-08
0.049596
-1.82802
-7.13032e-08
0.0495964
-1.82802
-7.68561e-08
0.0495969
-1.82802
-8.34312e-08
0.0495973
-1.82802
-9.07419e-08
0.0495978
-1.82802
-9.71338e-08
0.0495982
-1.82802
-1.01443e-07
0.0495985
-1.82802
-1.02145e-07
0.0495988
-1.82802
-9.9153e-08
0.0495991
-1.82802
-9.16633e-08
0.0495992
-1.82802
-7.97385e-08
0.0495993
-1.82802
-5.77577e-08
0.0495994
-1.82802
-2.29408e-08
0.0495994
-1.82802
0.0495989
-1.828
-1.42758e-07
0.0552102
-1.82908
-2.78966e-07
0.0552108
-1.8291
-4.04422e-07
0.055211
-1.8291
-5.12298e-07
0.0552113
-1.8291
-6.01823e-07
0.0552117
-1.8291
-6.71313e-07
0.0552121
-1.8291
-7.21454e-07
0.0552126
-1.8291
-7.52964e-07
0.0552132
-1.8291
-7.67763e-07
0.0552137
-1.8291
-7.66912e-07
0.0552143
-1.8291
-7.51726e-07
0.0552148
-1.82911
-7.2269e-07
0.0552153
-1.82911
-6.8055e-07
0.0552157
-1.82911
-6.24329e-07
0.0552161
-1.82911
-5.55618e-07
0.0552164
-1.82911
-4.745e-07
0.0552166
-1.82911
-3.80797e-07
0.0552167
-1.82911
-2.6978e-07
0.0552168
-1.82911
-1.35867e-07
0.0552169
-1.82911
0.0552163
-1.82909
-5.16233e-08
0.0595001
-1.83668
-8.2539e-08
0.0595007
-1.8367
-1.12837e-07
0.059501
-1.8367
-1.39575e-07
0.0595014
-1.8367
-1.62753e-07
0.0595019
-1.8367
-1.82146e-07
0.0595025
-1.8367
-1.99863e-07
0.0595031
-1.8367
-2.17026e-07
0.0595038
-1.8367
-2.32357e-07
0.0595046
-1.8367
-2.47465e-07
0.0595053
-1.8367
-2.60953e-07
0.059506
-1.8367
-2.70238e-07
0.0595066
-1.8367
-2.72517e-07
0.0595071
-1.8367
-2.64656e-07
0.0595076
-1.8367
-2.45533e-07
0.059508
-1.8367
-2.13957e-07
0.0595083
-1.8367
-1.71906e-07
0.0595085
-1.8367
-1.18952e-07
0.0595086
-1.8367
-4.99929e-08
0.0595086
-1.8367
0.0595081
-1.83668
-2.41833e-07
0.0631973
-1.83652
-4.80162e-07
0.0631979
-1.83654
-6.99664e-07
0.0631982
-1.83654
-8.88513e-07
0.0631986
-1.83654
-1.04729e-06
0.0631991
-1.83654
-1.17207e-06
0.0631997
-1.83654
-1.26279e-06
0.0632004
-1.83655
-1.31892e-06
0.0632011
-1.83655
-1.34288e-06
0.0632019
-1.83655
-1.33554e-06
0.0632026
-1.83655
-1.29933e-06
0.0632034
-1.83655
-1.23562e-06
0.063204
-1.83655
-1.14631e-06
0.0632046
-1.83655
-1.03304e-06
0.0632051
-1.83655
-8.98012e-07
0.0632055
-1.83655
-7.44364e-07
0.0632058
-1.83655
-5.74829e-07
0.063206
-1.83655
-3.93457e-07
0.0632061
-1.83655
-1.96842e-07
0.0632062
-1.83655
0.0632056
-1.83653
-9.06514e-08
0.0629162
-1.85122
-1.46366e-07
0.0629168
-1.85124
-2.02141e-07
0.0629172
-1.85124
-2.54801e-07
0.0629177
-1.85124
-3.03262e-07
0.0629183
-1.85124
-3.45455e-07
0.0629191
-1.85124
-3.83533e-07
0.06292
-1.85124
-4.16143e-07
0.0629209
-1.85124
-4.44281e-07
0.0629219
-1.85124
-4.66427e-07
0.0629228
-1.85124
-4.79479e-07
0.0629237
-1.85124
-4.81303e-07
0.0629245
-1.85124
-4.68436e-07
0.0629253
-1.85124
-4.37052e-07
0.0629259
-1.85124
-3.85743e-07
0.0629264
-1.85124
-3.1695e-07
0.0629268
-1.85124
-2.3554e-07
0.062927
-1.85124
-1.47678e-07
0.0629272
-1.85124
-5.66693e-08
0.0629273
-1.85124
0.0629268
-1.85122
-3.48e-07
0.0619456
-1.84866
-6.88783e-07
0.0619461
-1.84868
-1.0055e-06
0.0619465
-1.84868
-1.27658e-06
0.061947
-1.84868
-1.50765e-06
0.0619476
-1.84868
-1.69155e-06
0.0619483
-1.84868
-1.82632e-06
0.0619491
-1.84868
-1.90893e-06
0.0619499
-1.84868
-1.94173e-06
0.0619508
-1.84868
-1.92497e-06
0.0619517
-1.84868
-1.86262e-06
0.0619525
-1.84868
-1.75686e-06
0.0619533
-1.84868
-1.61211e-06
0.061954
-1.84868
-1.43268e-06
0.0619545
-1.84868
-1.22372e-06
0.061955
-1.84868
-9.92492e-07
0.0619553
-1.84868
-7.44865e-07
0.0619556
-1.84868
-4.98837e-07
0.0619557
-1.84868
-2.46403e-07
0.0619557
-1.84868
0.0619553
-1.84866
-1.2895e-07
0.0544349
-1.86923
-2.06605e-07
0.0544354
-1.86925
-2.87895e-07
0.0544359
-1.86925
-3.7314e-07
0.0544365
-1.86925
-4.52695e-07
0.0544373
-1.86925
-5.21276e-07
0.0544383
-1.86925
-5.81886e-07
0.0544394
-1.86925
-6.32232e-07
0.0544405
-1.86925
-6.71947e-07
0.0544417
-1.86926
-6.97855e-07
0.0544429
-1.86926
-7.07495e-07
0.054444
-1.86926
-6.96817e-07
0.054445
-1.86926
-6.62308e-07
0.054446
-1.86926
-6.01631e-07
0.0544467
-1.86926
-5.15154e-07
0.0544473
-1.86926
-4.12119e-07
0.0544478
-1.86926
-2.9938e-07
0.0544481
-1.86926
-1.83157e-07
0.0544483
-1.86926
-6.66453e-08
0.0544483
-1.86926
0.054448
-1.86924
-4.83664e-07
0.046141
-1.86271
-9.4597e-07
0.0461413
-1.86273
-1.37663e-06
0.0461417
-1.86273
-1.76688e-06
0.0461422
-1.86273
-2.09996e-06
0.0461428
-1.86273
-2.36309e-06
0.0461435
-1.86273
-2.55476e-06
0.0461443
-1.86273
-2.67013e-06
0.0461452
-1.86273
-2.71092e-06
0.0461461
-1.86273
-2.6778e-06
0.046147
-1.86273
-2.57616e-06
0.0461478
-1.86273
-2.41141e-06
0.0461486
-1.86273
-2.19201e-06
0.0461493
-1.86273
-1.92835e-06
0.0461498
-1.86273
-1.63138e-06
0.0461503
-1.86273
-1.31642e-06
0.0461506
-1.86273
-9.92958e-07
0.0461508
-1.86273
-6.57917e-07
0.0461509
-1.86273
-3.09396e-07
0.0461509
-1.86273
0.0461506
-1.86271
-1.81492e-07
0.0294586
-1.8833
-3.12292e-07
0.0294589
-1.88332
-4.57494e-07
0.0294594
-1.88332
-5.93591e-07
0.0294601
-1.88332
-7.13712e-07
0.029461
-1.88333
-8.22165e-07
0.029462
-1.88333
-9.12574e-07
0.0294631
-1.88333
-9.84704e-07
0.0294643
-1.88333
-1.03435e-06
0.0294655
-1.88333
-1.05855e-06
0.0294668
-1.88333
-1.05553e-06
0.0294679
-1.88333
-1.02027e-06
0.029469
-1.88333
-9.53618e-07
0.02947
-1.88333
-8.53343e-07
0.0294708
-1.88333
-7.24304e-07
0.0294714
-1.88333
-5.71391e-07
0.0294719
-1.88333
-4.14876e-07
0.0294722
-1.88333
-2.65664e-07
0.0294724
-1.88333
-1.04373e-07
0.0294724
-1.88333
0.0294723
-1.88331
-6.04726e-07
0.0123503
-1.87125
-1.21578e-06
0.0123504
-1.87127
-1.79885e-06
0.0123508
-1.87127
-2.31219e-06
0.0123511
-1.87127
-2.744e-06
0.0123515
-1.87127
-3.08884e-06
0.0123521
-1.87127
-3.336e-06
0.0123526
-1.87127
-3.48122e-06
0.0123533
-1.87127
-3.5233e-06
0.0123539
-1.87127
-3.46428e-06
0.0123545
-1.87127
-3.31135e-06
0.0123551
-1.87127
-3.0744e-06
0.0123557
-1.87127
-2.76924e-06
0.0123562
-1.87127
-2.41153e-06
0.0123566
-1.87127
-2.02291e-06
0.0123569
-1.87127
-1.61732e-06
0.0123571
-1.87127
-1.21744e-06
0.0123573
-1.87127
-8.23174e-07
0.0123574
-1.87127
-4.0861e-07
0.0123572
-1.87127
0.0123572
-1.87125
-4.71855e-07
-1.87857
-9.45828e-07
-1.87859
-1.45322e-06
-1.87859
-1.89692e-06
-1.87859
-2.25988e-06
-1.87859
-2.55903e-06
-1.87859
-2.77819e-06
-1.87859
-2.91625e-06
-1.87859
-2.96795e-06
-1.87859
-2.93322e-06
-1.87859
-2.81484e-06
-1.87859
-2.61867e-06
-1.87859
-2.35935e-06
-1.87859
-2.05047e-06
-1.87859
-1.71767e-06
-1.87859
-1.36726e-06
-1.87859
-1.03432e-06
-1.87859
-7.09791e-07
-1.87859
-3.25172e-07
-1.8786
-1.87858
-1.62387e-07
0.000604293
-1.86174
-3.67788e-07
0.000604504
-1.86176
-4.65486e-07
0.00060451
-1.86176
-5.8978e-07
0.000604568
-1.86176
-6.8993e-07
0.000604602
-1.86176
-7.79252e-07
0.000604661
-1.86176
-8.43989e-07
0.000604718
-1.86176
-8.85981e-07
0.000604783
-1.86176
-9.01022e-07
0.000604848
-1.86176
-8.91416e-07
0.000604913
-1.86176
-8.60763e-07
0.000604977
-1.86176
-8.09523e-07
0.000605039
-1.86176
-7.40657e-07
0.000605101
-1.86176
-6.5576e-07
0.000605162
-1.86176
-5.61602e-07
0.000605226
-1.86176
-4.52133e-07
0.00060528
-1.86176
-3.40846e-07
0.00060534
-1.86176
-1.77202e-07
0.000605353
-1.86176
-1.08177e-07
0.000605393
-1.86176
0.000605235
-1.86174
-2.33862e-07
-0.000108457
-1.85461
-3.30718e-07
-0.000108308
-1.85463
-4.39992e-07
-0.000108199
-1.85463
-5.45635e-07
-0.000107986
-1.85463
-6.44051e-07
-0.000107745
-1.85463
-7.27484e-07
-0.000107444
-1.85463
-7.91866e-07
-0.000107112
-1.85463
-8.33146e-07
-0.000106748
-1.85463
-8.55594e-07
-0.000106367
-1.85463
-8.5372e-07
-0.00010598
-1.85463
-8.25503e-07
-0.000105598
-1.85463
-7.78373e-07
-0.000105225
-1.85463
-7.13893e-07
-0.000104868
-1.85463
-6.35243e-07
-0.000104535
-1.85463
-5.43428e-07
-0.000104228
-1.85463
-4.40065e-07
-0.000103962
-1.85463
-3.20881e-07
-0.000103729
-1.85463
-1.84307e-07
-0.000103575
-1.85463
-3.22831e-08
-0.000103431
-1.85463
-0.000103427
-1.85461
3.05787e-09
-0.00183572
-1.86134
9.90791e-08
-0.00183568
-1.86136
1.6553e-07
-0.00183569
-1.86136
2.28317e-07
-0.00183568
-1.86136
2.76155e-07
-0.00183569
-1.86136
3.10562e-07
-0.00183569
-1.86136
3.31032e-07
-0.0018357
-1.86136
3.38151e-07
-0.0018357
-1.86136
3.37682e-07
-0.0018357
-1.86136
3.29079e-07
-0.0018357
-1.86135
3.14237e-07
-0.00183569
-1.86135
2.97529e-07
-0.00183568
-1.86135
2.79283e-07
-0.00183566
-1.86135
2.58828e-07
-0.00183563
-1.86135
2.37878e-07
-0.0018356
-1.86135
2.15062e-07
-0.00183557
-1.86135
1.91823e-07
-0.00183553
-1.86135
1.55182e-07
-0.0018355
-1.86135
1.30262e-07
-0.00183547
-1.86135
-0.00183547
-1.86133
-1.16073e-07
0.00294183
-1.85394
-1.83791e-07
0.00294192
-1.85396
-2.5254e-07
0.00294192
-1.85396
-3.17421e-07
0.00294193
-1.85396
-3.75523e-07
0.00294194
-1.85396
-4.21351e-07
0.00294195
-1.85396
-4.55604e-07
0.00294196
-1.85396
-4.75885e-07
0.00294198
-1.85396
-4.81561e-07
0.00294201
-1.85396
-4.7329e-07
0.00294205
-1.85396
-4.52415e-07
0.00294209
-1.85396
-4.201e-07
0.00294214
-1.85396
-3.78008e-07
0.00294219
-1.85396
-3.28707e-07
0.00294224
-1.85396
-2.71918e-07
0.0029423
-1.85396
-2.10998e-07
0.00294235
-1.85396
-1.4272e-07
0.0029424
-1.85396
-7.50189e-08
0.00294242
-1.85396
-1.60735e-08
0.00294245
-1.85396
0.00294241
-1.85394
1.58183e-07
0.00720006
-1.85807
3.56476e-07
0.00720017
-1.85809
5.33411e-07
0.00720012
-1.85809
6.86774e-07
0.00720008
-1.85809
8.1165e-07
0.0072
-1.85808
9.07735e-07
0.00719991
-1.85808
9.72327e-07
0.00719981
-1.85808
1.00703e-06
0.00719972
-1.85808
1.01302e-06
0.00719962
-1.85808
9.95337e-07
0.00719952
-1.85808
9.5721e-07
0.00719943
-1.85808
9.02713e-07
0.00719935
-1.85808
8.33047e-07
0.00719928
-1.85808
7.53096e-07
0.00719922
-1.85808
6.6563e-07
0.00719916
-1.85808
5.69401e-07
0.00719912
-1.85808
4.64022e-07
0.00719908
-1.85808
3.40917e-07
0.00719904
-1.85808
1.97413e-07
0.00719901
-1.85808
0.00719889
-1.85806
2.47655e-08
0.016475
-1.8514
6.40677e-08
0.0164752
-1.85142
9.96901e-08
0.0164751
-1.85142
1.3524e-07
0.016475
-1.85142
1.65675e-07
0.0164749
-1.85142
1.89676e-07
0.0164748
-1.85142
2.07935e-07
0.0164746
-1.85142
2.20401e-07
0.0164745
-1.85142
2.27738e-07
0.0164743
-1.85142
2.3001e-07
0.0164742
-1.85142
2.27238e-07
0.016474
-1.85142
2.20155e-07
0.0164739
-1.85142
2.08863e-07
0.0164737
-1.85142
1.94724e-07
0.0164736
-1.85142
1.78412e-07
0.0164735
-1.85142
1.62108e-07
0.0164734
-1.85142
1.43133e-07
0.0164733
-1.85142
1.11146e-07
0.0164733
-1.85142
6.3668e-08
0.0164732
-1.85142
0.016473
-1.8514
1.5122e-07
0.0254974
-1.85357
3.2788e-07
0.0254977
-1.85359
4.88586e-07
0.0254976
-1.85359
6.30661e-07
0.0254976
-1.85359
7.4906e-07
0.0254975
-1.85359
8.42049e-07
0.0254975
-1.85359
9.07115e-07
0.0254974
-1.85359
9.44389e-07
0.0254973
-1.85359
9.54486e-07
0.0254973
-1.85359
9.39937e-07
0.0254972
-1.85359
9.03095e-07
0.0254972
-1.85359
8.47822e-07
0.0254971
-1.85359
7.76976e-07
0.025497
-1.85359
6.95093e-07
0.025497
-1.85359
6.05457e-07
0.0254969
-1.85359
5.09201e-07
0.0254968
-1.85359
4.05695e-07
0.0254968
-1.85359
2.88577e-07
0.0254967
-1.85359
1.59067e-07
0.0254967
-1.85359
0.0254964
-1.85357
8.6273e-08
0.0368614
-1.85033
1.78019e-07
0.0368618
-1.85035
2.64522e-07
0.0368618
-1.85035
3.46382e-07
0.0368618
-1.85035
4.18054e-07
0.0368618
-1.85035
4.77291e-07