/*--------------------------------*- C++ -*----------------------------------*\
| =========                 |                                                 |
| \\      /  F ield         | OpenFOAM: The Open Source CFD Toolbox           |
|  \\    /   O peration     | Version:  2212                                  |
|   \\  /    A nd           | Website:  www.openfoam.com                      |
|    \\/     M anipulation  |                                                 |
\*---------------------------------------------------------------------------*/
FoamFile
{
    version     2.0;
    format      ascii;
    arch        "LSB;label=32;scalar=64";
    class       volVectorField;
    location    "0.138";
    object      U_0;
}
// * * * * * * * * * * * * * * * * * * * * * * * * * * * * * * * * * * * * * //

dimensions      [0 1 -1 0 0 0 0];

internalField   nonuniform List<vector> 
24240
(
(9.24437 0.656907 5.27817e-07)
(9.24446 0.656915 -1.66504e-06)
(9.24446 0.656914 -2.04794e-06)
(9.24447 0.656914 -3.10464e-06)
(9.24447 0.656914 -3.70036e-06)
(9.24447 0.656914 -4.32375e-06)
(9.24447 0.656914 -4.74856e-06)
(9.24448 0.656915 -5.06276e-06)
(9.24448 0.656915 -5.21262e-06)
(9.24449 0.656915 -5.22217e-06)
(9.24449 0.656915 -5.09779e-06)
(9.24449 0.656915 -4.8547e-06)
(9.24449 0.656916 -4.49914e-06)
(9.2445 0.656916 -4.05501e-06)
(9.2445 0.656916 -3.51931e-06)
(9.2445 0.656916 -2.9901e-06)
(9.2445 0.656916 -2.30169e-06)
(9.2445 0.656917 -1.92744e-06)
(9.24451 0.656917 -7.73655e-07)
(9.24441 0.656909 -1.38277e-06)
(9.09523 0.658375 -5.7531e-07)
(9.09533 0.658384 -1.42273e-06)
(9.09533 0.658385 -2.18085e-06)
(9.09533 0.658387 -3.00607e-06)
(9.09533 0.65839 -3.61745e-06)
(9.09533 0.658393 -4.16422e-06)
(9.09534 0.658397 -4.5435e-06)
(9.09534 0.658401 -4.80115e-06)
(9.09534 0.658405 -4.91316e-06)
(9.09534 0.658409 -4.89741e-06)
(9.09534 0.658413 -4.75014e-06)
(9.09535 0.658416 -4.48411e-06)
(9.09535 0.65842 -4.11663e-06)
(9.09535 0.658423 -3.67171e-06)
(9.09535 0.658425 -3.16009e-06)
(9.09535 0.658428 -2.63425e-06)
(9.09535 0.658429 -2.03631e-06)
(9.09535 0.658431 -1.52682e-06)
(9.09535 0.658432 -8.32258e-07)
(9.09526 0.658424 -1.94572e-07)
(9.13099 0.368706 -3.75795e-08)
(9.13108 0.368711 4.09523e-07)
(9.13108 0.368712 8.74562e-07)
(9.13108 0.368713 1.10988e-06)
(9.13108 0.368714 1.36734e-06)
(9.13108 0.368715 1.4889e-06)
(9.13108 0.368716 1.55997e-06)
(9.13108 0.368717 1.54328e-06)
(9.13108 0.368719 1.4674e-06)
(9.13107 0.36872 1.33903e-06)
(9.13107 0.368721 1.18314e-06)
(9.13107 0.368723 1.01681e-06)
(9.13107 0.368724 8.50426e-07)
(9.13107 0.368725 6.94142e-07)
(9.13107 0.368726 5.62942e-07)
(9.13106 0.368727 4.36762e-07)
(9.13106 0.368728 3.75156e-07)
(9.13106 0.368728 2.46566e-07)
(9.13106 0.368729 2.69769e-07)
(9.13096 0.368724 2.28338e-07)
(8.96591 0.364483 -2.68505e-07)
(8.96601 0.364488 -7.45979e-07)
(8.96601 0.364488 -1.13091e-06)
(8.96601 0.364489 -1.53131e-06)
(8.96601 0.36449 -1.84236e-06)
(8.96601 0.36449 -2.10904e-06)
(8.96601 0.364491 -2.292e-06)
(8.96601 0.364492 -2.41121e-06)
(8.96601 0.364493 -2.45537e-06)
(8.96601 0.364494 -2.43251e-06)
(8.96601 0.364495 -2.34244e-06)
(8.96601 0.364496 -2.19198e-06)
(8.96601 0.364497 -1.9899e-06)
(8.96601 0.364498 -1.74829e-06)
(8.96601 0.364498 -1.47495e-06)
(8.96601 0.364499 -1.1943e-06)
(8.96601 0.3645 -8.91783e-07)
(8.96601 0.3645 -6.22156e-07)
(8.96601 0.3645 -2.993e-07)
(8.96592 0.364495 -8.89905e-08)
(8.98953 0.198682 2.25384e-07)
(8.98963 0.198685 9.13241e-07)
(8.98962 0.198686 1.58112e-06)
(8.98962 0.198687 2.11342e-06)
(8.98962 0.198688 2.5638e-06)
(8.98962 0.198689 2.88262e-06)
(8.98961 0.19869 3.0907e-06)
(8.98961 0.198692 3.17683e-06)
(8.98961 0.198694 3.15775e-06)
(8.9896 0.198695 3.04449e-06)
(8.9896 0.198697 2.85678e-06)
(8.9896 0.198698 2.61396e-06)
(8.98959 0.1987 2.33326e-06)
(8.98959 0.198701 2.03382e-06)
(8.98959 0.198702 1.73168e-06)
(8.98958 0.198703 1.43412e-06)
(8.98958 0.198704 1.15441e-06)
(8.98958 0.198704 8.67089e-07)
(8.98958 0.198705 6.00003e-07)
(8.98948 0.198702 2.59593e-07)
(8.8761 0.192591 4.65098e-09)
(8.87619 0.192593 5.45174e-08)
(8.87619 0.192593 1.38299e-07)
(8.87619 0.192593 1.85279e-07)
(8.87619 0.192592 2.43643e-07)
(8.87619 0.192591 2.78813e-07)
(8.87619 0.19259 3.10205e-07)
(8.87619 0.192589 3.26016e-07)
(8.87619 0.192589 3.33462e-07)
(8.87619 0.192588 3.30841e-07)
(8.87618 0.192587 3.21453e-07)
(8.87618 0.192586 3.06836e-07)
(8.87618 0.192585 2.90258e-07)
(8.87618 0.192585 2.7143e-07)
(8.87618 0.192584 2.58109e-07)
(8.87618 0.192583 2.3958e-07)
(8.87618 0.192583 2.36138e-07)
(8.87618 0.192583 2.08326e-07)
(8.87618 0.192582 1.86394e-07)
(8.87608 0.192579 7.33492e-08)
(8.8915 0.0876291 1.17276e-07)
(8.89159 0.0876306 4.93141e-07)
(8.89159 0.0876307 8.6184e-07)
(8.89159 0.0876309 1.15416e-06)
(8.89159 0.0876312 1.40099e-06)
(8.89158 0.0876316 1.57867e-06)
(8.89158 0.0876319 1.69301e-06)
(8.89158 0.0876323 1.73899e-06)
(8.89157 0.0876328 1.72188e-06)
(8.89157 0.0876332 1.64895e-06)
(8.89157 0.0876336 1.52964e-06)
(8.89156 0.0876339 1.37371e-06)
(8.89156 0.0876343 1.19438e-06)
(8.89156 0.0876345 1.00376e-06)
(8.89156 0.0876347 8.16498e-07)
(8.89156 0.0876348 6.37308e-07)
(8.89155 0.0876349 4.80225e-07)
(8.89155 0.0876348 3.31831e-07)
(8.89155 0.0876348 2.19303e-07)
(8.89146 0.0876334 1.0067e-07)
(8.83479 0.0783535 9.3416e-08)
(8.83489 0.0783546 2.80389e-07)
(8.83489 0.0783545 4.78683e-07)
(8.83488 0.0783544 6.3738e-07)
(8.83488 0.0783543 7.8921e-07)
(8.83488 0.0783542 9.0702e-07)
(8.83488 0.0783541 9.98179e-07)
(8.83488 0.078354 1.05222e-06)
(8.83487 0.0783538 1.07002e-06)
(8.83487 0.0783537 1.05007e-06)
(8.83487 0.0783536 9.94783e-07)
(8.83487 0.0783534 9.07827e-07)
(8.83486 0.0783532 7.97942e-07)
(8.83486 0.078353 6.69667e-07)
(8.83486 0.0783528 5.39829e-07)
(8.83486 0.0783525 4.03745e-07)
(8.83486 0.0783522 2.86384e-07)
(8.83486 0.0783519 1.58491e-07)
(8.83486 0.0783516 7.43807e-08)
(8.83476 0.0783503 1.01283e-08)
(8.84728 0.00225791 1.10777e-07)
(8.84738 0.00225784 4.35548e-07)
(8.84738 0.00225757 7.3616e-07)
(8.84737 0.00225719 9.82871e-07)
(8.84737 0.0022567 1.19526e-06)
(8.84737 0.00225612 1.35721e-06)
(8.84737 0.00225546 1.46621e-06)
(8.84736 0.00225473 1.51478e-06)
(8.84736 0.00225396 1.4997e-06)
(8.84736 0.00225317 1.42174e-06)
(8.84735 0.00225235 1.28428e-06)
(8.84735 0.00225155 1.09557e-06)
(8.84735 0.00225076 8.70283e-07)
(8.84734 0.00225001 6.22437e-07)
(8.84734 0.00224931 3.82122e-07)
(8.84734 0.00224868 1.5799e-07)
(8.84734 0.00224812 -1.32408e-08)
(8.84734 0.00224767 -1.46599e-07)
(8.84734 0.00224732 -1.82636e-07)
(8.84724 0.00224712 -6.2794e-08)
(8.84116 -0.0146815 -2.21194e-08)
(8.84125 -0.0146823 -4.43101e-08)
(8.84125 -0.0146835 -5.63273e-08)
(8.84125 -0.0146852 -8.64227e-08)
(8.84125 -0.0146874 -1.08636e-07)
(8.84125 -0.0146899 -1.35692e-07)
(8.84125 -0.0146928 -1.64274e-07)
(8.84125 -0.0146958 -2.00958e-07)
(8.84124 -0.0146989 -2.47419e-07)
(8.84124 -0.0147021 -3.04354e-07)
(8.84124 -0.0147052 -3.7064e-07)
(8.84124 -0.0147081 -4.40919e-07)
(8.84124 -0.0147108 -5.05194e-07)
(8.84124 -0.0147132 -5.61109e-07)
(8.84124 -0.0147153 -5.89373e-07)
(8.84124 -0.0147171 -6.03284e-07)
(8.84124 -0.0147185 -5.72593e-07)
(8.84124 -0.0147196 -5.24607e-07)
(8.84124 -0.0147203 -3.57308e-07)
(8.84114 -0.0147203 -1.12416e-07)
(8.8514 -0.0827606 -3.42726e-07)
(8.8515 -0.0827619 -1.01972e-06)
(8.8515 -0.0827619 -1.6419e-06)
(8.8515 -0.082762 -2.21679e-06)
(8.8515 -0.0827622 -2.70142e-06)
(8.8515 -0.0827624 -3.09621e-06)
(8.8515 -0.0827626 -3.39215e-06)
(8.8515 -0.0827628 -3.59402e-06)
(8.8515 -0.082763 -3.70644e-06)
(8.8515 -0.0827633 -3.73623e-06)
(8.85151 -0.0827637 -3.68985e-06)
(8.85151 -0.082764 -3.57349e-06)
(8.85151 -0.0827644 -3.38871e-06)
(8.85151 -0.0827648 -3.14531e-06)
(8.85151 -0.0827651 -2.83979e-06)
(8.85151 -0.0827655 -2.49603e-06)
(8.85151 -0.0827658 -2.08752e-06)
(8.85151 -0.0827661 -1.64185e-06)
(8.85151 -0.0827662 -1.03109e-06)
(8.85141 -0.0827651 -3.35794e-07)
(8.89944 -0.100222 -9.50075e-08)
(8.89954 -0.100224 -1.57001e-07)
(8.89954 -0.100225 -2.21108e-07)
(8.89954 -0.100225 -3.0517e-07)
(8.89954 -0.100226 -3.86072e-07)
(8.89954 -0.100226 -4.69254e-07)
(8.89953 -0.100227 -5.53782e-07)
(8.89953 -0.100228 -6.45849e-07)
(8.89953 -0.100229 -7.47076e-07)
(8.89953 -0.10023 -8.56131e-07)
(8.89953 -0.100231 -9.6962e-07)
(8.89953 -0.100232 -1.07957e-06)
(8.89953 -0.100233 -1.16911e-06)
(8.89953 -0.100234 -1.23102e-06)
(8.89953 -0.100234 -1.23795e-06)
(8.89952 -0.100235 -1.1985e-06)
(8.89952 -0.100235 -1.07773e-06)
(8.89952 -0.100235 -9.08597e-07)
(8.89952 -0.100236 -5.92944e-07)
(8.89943 -0.100234 -1.56694e-07)
(8.90308 -0.186425 -4.63697e-07)
(8.90317 -0.186428 -1.46208e-06)
(8.90317 -0.186428 -2.35604e-06)
(8.90318 -0.186428 -3.17994e-06)
(8.90318 -0.186429 -3.87437e-06)
(8.90318 -0.186429 -4.44431e-06)
(8.90318 -0.186429 -4.87254e-06)
(8.90318 -0.186429 -5.16349e-06)
(8.90318 -0.18643 -5.31942e-06)
(8.90319 -0.18643 -5.34823e-06)
(8.90319 -0.186431 -5.25777e-06)
(8.90319 -0.186431 -5.05654e-06)
(8.90319 -0.186431 -4.75053e-06)
(8.90319 -0.186432 -4.35211e-06)
(8.90319 -0.186432 -3.86253e-06)
(8.9032 -0.186432 -3.31613e-06)
(8.9032 -0.186433 -2.68654e-06)
(8.9032 -0.186433 -2.03452e-06)
(8.9032 -0.186433 -1.21977e-06)
(8.9031 -0.18643 -4.04968e-07)
(9.01277 -0.198263 -1.8282e-07)
(9.01286 -0.198267 -3.03845e-07)
(9.01286 -0.198267 -4.28726e-07)
(9.01286 -0.198268 -5.87839e-07)
(9.01286 -0.198268 -7.46954e-07)
(9.01286 -0.198269 -9.08557e-07)
(9.01286 -0.19827 -1.06816e-06)
(9.01286 -0.198271 -1.23006e-06)
(9.01286 -0.198272 -1.39121e-06)
(9.01286 -0.198273 -1.54812e-06)
(9.01285 -0.198274 -1.69161e-06)
(9.01285 -0.198275 -1.81143e-06)
(9.01285 -0.198276 -1.88504e-06)
(9.01285 -0.198277 -1.89972e-06)
(9.01285 -0.198277 -1.82653e-06)
(9.01285 -0.198278 -1.67802e-06)
(9.01285 -0.198278 -1.42369e-06)
(9.01285 -0.198278 -1.10329e-06)
(9.01285 -0.198278 -6.57286e-07)
(9.01275 -0.198275 -1.37462e-07)
(9.00494 -0.332356 -6.06036e-07)
(9.00504 -0.332361 -1.93231e-06)
(9.00504 -0.332361 -3.11089e-06)
(9.00504 -0.332362 -4.20642e-06)
(9.00505 -0.332362 -5.12574e-06)
(9.00505 -0.332362 -5.89263e-06)
(9.00505 -0.332362 -6.4687e-06)
(9.00506 -0.332363 -6.85863e-06)
(9.00506 -0.332363 -7.05775e-06)
(9.00506 -0.332364 -7.07382e-06)
(9.00507 -0.332364 -6.91441e-06)
(9.00507 -0.332365 -6.59173e-06)
(9.00507 -0.332365 -6.11745e-06)
(9.00508 -0.332365 -5.51218e-06)
(9.00508 -0.332366 -4.79088e-06)
(9.00508 -0.332366 -4.00638e-06)
(9.00508 -0.332366 -3.13761e-06)
(9.00508 -0.332366 -2.29744e-06)
(9.00509 -0.332366 -1.33949e-06)
(9.00499 -0.332362 -4.55597e-07)
(9.18322 -0.33671 -2.89961e-07)
(9.18332 -0.336715 -4.64372e-07)
(9.18332 -0.336716 -6.50932e-07)
(9.18332 -0.336716 -9.20029e-07)
(9.18332 -0.336717 -1.18033e-06)
(9.18332 -0.336718 -1.44747e-06)
(9.18332 -0.336719 -1.69659e-06)
(9.18331 -0.33672 -1.9408e-06)
(9.18331 -0.336721 -2.16282e-06)
(9.18331 -0.336723 -2.36013e-06)
(9.18331 -0.336724 -2.51523e-06)
(9.18331 -0.336725 -2.61678e-06)
(9.18331 -0.336726 -2.63909e-06)
(9.18331 -0.336727 -2.57303e-06)
(9.18331 -0.336727 -2.39179e-06)
(9.18331 -0.336728 -2.12044e-06)
(9.18331 -0.336728 -1.74455e-06)
(9.18331 -0.336728 -1.33349e-06)
(9.18331 -0.336729 -7.86556e-07)
(9.18321 -0.336724 -1.45207e-07)
(9.15841 -0.568698 -7.82293e-07)
(9.15851 -0.568706 -2.4431e-06)
(9.15851 -0.568707 -3.93158e-06)
(9.15852 -0.568707 -5.36335e-06)
(9.15852 -0.568708 -6.57718e-06)
(9.15852 -0.568709 -7.589e-06)
(9.15853 -0.56871 -8.34425e-06)
(9.15853 -0.568712 -8.8533e-06)
(9.15854 -0.568713 -9.09936e-06)
(9.15855 -0.568714 -9.09272e-06)
(9.15855 -0.568716 -8.83977e-06)
(9.15856 -0.568717 -8.36117e-06)
(9.15856 -0.568718 -7.67792e-06)
(9.15857 -0.568719 -6.83212e-06)
(9.15857 -0.56872 -5.85185e-06)
(9.15857 -0.568721 -4.82197e-06)
(9.15858 -0.568721 -3.73769e-06)
(9.15858 -0.568721 -2.7247e-06)
(9.15858 -0.568722 -1.54672e-06)
(9.15848 -0.568714 -5.00677e-07)
(9.39419 -0.565978 -5.84734e-07)
(9.39429 -0.565985 -1.04889e-06)
(9.39429 -0.565985 -1.54552e-06)
(9.39429 -0.565986 -2.23576e-06)
(9.39429 -0.565986 -2.75881e-06)
(9.39429 -0.565987 -3.30418e-06)
(9.3943 -0.565988 -3.74065e-06)
(9.3943 -0.565989 -4.12379e-06)
(9.3943 -0.56599 -4.40556e-06)
(9.3943 -0.56599 -4.59459e-06)
(9.3943 -0.565991 -4.6665e-06)
(9.3943 -0.565992 -4.62112e-06)
(9.3943 -0.565993 -4.43706e-06)
(9.3943 -0.565993 -4.1313e-06)
(9.3943 -0.565994 -3.67231e-06)
(9.3943 -0.565994 -3.14478e-06)
(9.3943 -0.565994 -2.46018e-06)
(9.3943 -0.565994 -1.87371e-06)
(9.3943 -0.565995 -1.04192e-06)
(9.3942 -0.565987 -1.28136e-07)
(9.34497 -0.979919 -8.85173e-07)
(9.34507 -0.979932 -2.65583e-06)
(9.34507 -0.979933 -4.48752e-06)
(9.34508 -0.979935 -6.28092e-06)
(9.34508 -0.979938 -7.67758e-06)
(9.34509 -0.979941 -8.89862e-06)
(9.34509 -0.979945 -9.78722e-06)
(9.3451 -0.979949 -1.03975e-05)
(9.34511 -0.979953 -1.0681e-05)
(9.34512 -0.979957 -1.06576e-05)
(9.34512 -0.979961 -1.03259e-05)
(9.34513 -0.979965 -9.71885e-06)
(9.34514 -0.979968 -8.85827e-06)
(9.34514 -0.979971 -7.81897e-06)
(9.34515 -0.979973 -6.61724e-06)
(9.34515 -0.979975 -5.40333e-06)
(9.34515 -0.979977 -4.08997e-06)
(9.34516 -0.979977 -3.03175e-06)
(9.34516 -0.979979 -1.82884e-06)
(9.34506 -0.979967 -5.61975e-07)
(9.53382 -0.963561 -4.43977e-08)
(9.53391 -0.96357 -2.76083e-06)
(9.53391 -0.963568 -4.2892e-06)
(9.53392 -0.963569 -6.48108e-06)
(9.53392 -0.963569 -7.88918e-06)
(9.53393 -0.963569 -9.24157e-06)
(9.53393 -0.963569 -1.02137e-05)
(9.53394 -0.963569 -1.09228e-05)
(9.53395 -0.96357 -1.1286e-05)
(9.53396 -0.96357 -1.13313e-05)
(9.53397 -0.963571 -1.10415e-05)
(9.53397 -0.963571 -1.04525e-05)
(9.53398 -0.963572 -9.57806e-06)
(9.53399 -0.963572 -8.50584e-06)
(9.53399 -0.963573 -7.23898e-06)
(9.534 -0.963573 -5.99682e-06)
(9.534 -0.963573 -4.53613e-06)
(9.534 -0.963573 -3.65767e-06)
(9.53401 -0.963575 -1.95235e-06)
(9.53392 -0.963566 -1.49265e-06)
(8.70044 0.742261 9.8462e-08)
(8.70053 0.742269 -1.11119e-06)
(8.70052 0.742268 -1.71173e-06)
(8.70052 0.742268 -2.55153e-06)
(8.70052 0.742267 -3.0522e-06)
(8.70052 0.742267 -3.57596e-06)
(8.70052 0.742266 -3.92141e-06)
(8.70052 0.742265 -4.16898e-06)
(8.70052 0.742265 -4.18176e-06)
(8.70052 0.742264 -3.99252e-06)
(8.70052 0.742262 -3.77426e-06)
(8.70052 0.742261 -3.57987e-06)
(8.70052 0.74226 -3.31913e-06)
(8.70052 0.742259 -2.99669e-06)
(8.70052 0.742258 -2.58982e-06)
(8.70052 0.742258 -2.19469e-06)
(8.70052 0.742257 -1.66583e-06)
(8.70052 0.742257 -1.34128e-06)
(8.70052 0.742257 -7.39655e-07)
(8.70043 0.742248 -7.71103e-07)
(8.78857 0.749681 -5.27093e-07)
(8.78866 0.749691 -1.50306e-06)
(8.78866 0.749692 -2.39115e-06)
(8.78866 0.749695 -3.29722e-06)
(8.78866 0.749698 -3.99185e-06)
(8.78866 0.749701 -4.63186e-06)
(8.78865 0.749705 -5.09929e-06)
(8.78865 0.749709 -5.45236e-06)
(8.78865 0.749713 -5.69198e-06)
(8.78865 0.749717 -5.8434e-06)
(8.78865 0.749721 -5.782e-06)
(8.78865 0.749725 -5.49667e-06)
(8.78865 0.749728 -5.06749e-06)
(8.78864 0.749732 -4.53719e-06)
(8.78864 0.749734 -3.91089e-06)
(8.78864 0.749737 -3.25837e-06)
(8.78864 0.749739 -2.50497e-06)
(8.78864 0.74974 -1.83025e-06)
(8.78864 0.749741 -1.0468e-06)
(8.78855 0.749733 -3.5334e-07)
(8.82722 0.499399 1.69989e-07)
(8.82731 0.499405 7.48242e-07)
(8.82731 0.499406 1.37513e-06)
(8.82731 0.499407 1.81619e-06)
(8.82731 0.499407 2.27559e-06)
(8.82731 0.499409 2.57102e-06)
(8.82731 0.49941 2.79973e-06)
(8.82731 0.499411 2.90101e-06)
(8.82731 0.499413 2.88496e-06)
(8.82731 0.499415 2.76112e-06)
(8.82731 0.499416 2.59592e-06)
(8.82731 0.499418 2.41373e-06)
(8.82731 0.49942 2.20615e-06)
(8.82731 0.499421 1.98035e-06)
(8.82731 0.499423 1.75266e-06)
(8.82731 0.499424 1.49402e-06)
(8.82731 0.499425 1.27497e-06)
(8.82731 0.499425 9.51724e-07)
(8.82731 0.499426 7.0247e-07)
(8.82722 0.49942 2.8086e-07)
(8.78269 0.494848 -3.15066e-07)
(8.78278 0.494855 -8.72199e-07)
(8.78278 0.494855 -1.32886e-06)
(8.78278 0.494856 -1.79603e-06)
(8.78278 0.494856 -2.16762e-06)
(8.78278 0.494857 -2.48862e-06)
(8.78278 0.494858 -2.71102e-06)
(8.78278 0.494859 -2.8616e-06)
(8.78278 0.49486 -2.92359e-06)
(8.78277 0.494861 -2.90624e-06)
(8.78277 0.494862 -2.80105e-06)
(8.78277 0.494863 -2.61727e-06)
(8.78277 0.494864 -2.37071e-06)
(8.78277 0.494865 -2.07819e-06)
(8.78277 0.494866 -1.74391e-06)
(8.78277 0.494867 -1.4027e-06)
(8.78277 0.494868 -1.0277e-06)
(8.78277 0.494868 -6.91648e-07)
(8.78277 0.494868 -3.25346e-07)
(8.78268 0.494862 -1.02372e-07)
(8.80599 0.296132 3.73808e-07)
(8.80609 0.296136 1.26946e-06)
(8.80609 0.296137 2.17703e-06)
(8.80609 0.296138 2.93687e-06)
(8.80609 0.296139 3.59813e-06)
(8.80609 0.296141 4.10124e-06)
(8.80609 0.296143 4.46689e-06)
(8.80609 0.296145 4.67224e-06)
(8.80609 0.296147 4.73503e-06)
(8.80609 0.296149 4.66519e-06)
(8.80608 0.296151 4.48545e-06)
(8.80608 0.296153 4.21959e-06)
(8.80608 0.296155 3.88654e-06)
(8.80608 0.296157 3.50371e-06)
(8.80608 0.296158 3.08704e-06)
(8.80608 0.296159 2.63821e-06)
(8.80608 0.29616 2.17324e-06)
(8.80608 0.296161 1.65558e-06)
(8.80608 0.296162 1.1132e-06)
(8.80599 0.296158 3.99129e-07)
(8.74914 0.288598 2.40609e-08)
(8.74924 0.288602 1.31794e-07)
(8.74924 0.288602 2.54837e-07)
(8.74924 0.288601 3.54383e-07)
(8.74924 0.288601 4.72766e-07)
(8.74924 0.288601 5.55941e-07)
(8.74924 0.2886 6.35677e-07)
(8.74923 0.2886 6.9047e-07)
(8.74923 0.288599 7.31534e-07)
(8.74923 0.288599 7.53709e-07)
(8.74923 0.288598 7.60933e-07)
(8.74923 0.288598 7.52423e-07)
(8.74923 0.288597 7.32923e-07)
(8.74923 0.288597 6.96551e-07)
(8.74923 0.288596 6.58784e-07)
(8.74923 0.288596 5.95254e-07)
(8.74923 0.288596 5.47913e-07)
(8.74923 0.288595 4.44867e-07)
(8.74923 0.288595 3.23078e-07)
(8.74914 0.288591 1.20467e-07)
(8.76208 0.133561 2.85234e-07)
(8.76217 0.133563 1.02741e-06)
(8.76217 0.133563 1.74537e-06)
(8.76217 0.133564 2.36797e-06)
(8.76217 0.133564 2.90702e-06)
(8.76217 0.133565 3.33046e-06)
(8.76217 0.133566 3.63951e-06)
(8.76217 0.133566 3.82273e-06)
(8.76217 0.133567 3.88634e-06)
(8.76217 0.133568 3.83827e-06)
(8.76217 0.133569 3.69117e-06)
(8.76216 0.13357 3.45871e-06)
(8.76216 0.133571 3.16061e-06)
(8.76216 0.133571 2.81209e-06)
(8.76216 0.133572 2.43764e-06)
(8.76216 0.133572 2.03901e-06)
(8.76216 0.133573 1.64138e-06)
(8.76216 0.133573 1.21659e-06)
(8.76216 0.133573 7.85035e-07)
(8.76206 0.133571 3.02047e-07)
(8.73212 0.119571 1.92879e-07)
(8.73221 0.119573 5.67607e-07)
(8.73221 0.119572 9.44017e-07)
(8.73221 0.119572 1.28313e-06)
(8.73221 0.119572 1.60472e-06)
(8.73221 0.119571 1.86532e-06)
(8.73221 0.119571 2.07646e-06)
(8.73221 0.11957 2.21905e-06)
(8.7322 0.119569 2.2951e-06)
(8.7322 0.119569 2.30106e-06)
(8.7322 0.119568 2.24152e-06)
(8.7322 0.119568 2.12017e-06)
(8.7322 0.119567 1.95084e-06)
(8.7322 0.119566 1.73589e-06)
(8.7322 0.119566 1.50376e-06)
(8.7322 0.119565 1.2389e-06)
(8.7322 0.119565 9.89495e-07)
(8.7322 0.119564 6.96864e-07)
(8.7322 0.119564 4.31567e-07)
(8.7321 0.119562 1.4168e-07)
(8.74017 -0.00368971 1.96199e-07)
(8.74027 -0.00369 7.26639e-07)
(8.74027 -0.00369054 1.22382e-06)
(8.74027 -0.0036913 1.66921e-06)
(8.74027 -0.00369229 2.06407e-06)
(8.74026 -0.00369345 2.38383e-06)
(8.74026 -0.00369476 2.62301e-06)
(8.74026 -0.00369618 2.76814e-06)
(8.74026 -0.00369768 2.81476e-06)
(8.74026 -0.0036992 2.76283e-06)
(8.74026 -0.00370073 2.6171e-06)
(8.74026 -0.00370222 2.3872e-06)
(8.74026 -0.00370363 2.09458e-06)
(8.74026 -0.00370495 1.75409e-06)
(8.74026 -0.00370613 1.40783e-06)
(8.74026 -0.00370716 1.0572e-06)
(8.74026 -0.00370802 7.55667e-07)
(8.74026 -0.0037087 4.54094e-07)
(8.74026 -0.00370918 2.31564e-07)
(8.74016 -0.00370932 1.09525e-07)
(8.74247 -0.0268007 -5.20784e-08)
(8.74256 -0.0268019 -1.09046e-07)
(8.74256 -0.0268032 -1.49597e-07)
(8.74256 -0.0268053 -1.88277e-07)
(8.74256 -0.0268078 -2.07193e-07)
(8.74256 -0.0268109 -2.23251e-07)
(8.74256 -0.0268143 -2.31618e-07)
(8.74256 -0.0268179 -2.43657e-07)
(8.74256 -0.0268217 -2.60547e-07)
(8.74256 -0.0268256 -2.84994e-07)
(8.74256 -0.0268293 -3.15079e-07)
(8.74256 -0.0268329 -3.48216e-07)
(8.74256 -0.0268363 -3.71525e-07)
(8.74256 -0.0268393 -3.9092e-07)
(8.74256 -0.026842 -3.82944e-07)
(8.74256 -0.0268443 -3.7947e-07)
(8.74256 -0.0268461 -3.30417e-07)
(8.74256 -0.0268475 -2.96113e-07)
(8.74256 -0.0268485 -1.3954e-07)
(8.74247 -0.0268484 7.66365e-09)
(8.7486 -0.142611 -3.38338e-07)
(8.74869 -0.142613 -1.01007e-06)
(8.74869 -0.142613 -1.62772e-06)
(8.74869 -0.142614 -2.18603e-06)
(8.74869 -0.142614 -2.64865e-06)
(8.74869 -0.142614 -3.02466e-06)
(8.74869 -0.142614 -3.3028e-06)
(8.74869 -0.142615 -3.49099e-06)
(8.74868 -0.142615 -3.59478e-06)
(8.74868 -0.142615 -3.62189e-06)
(8.74868 -0.142616 -3.57758e-06)
(8.74868 -0.142616 -3.46855e-06)
(8.74868 -0.142617 -3.29142e-06)
(8.74868 -0.142617 -3.0592e-06)
(8.74868 -0.142618 -2.75615e-06)
(8.74868 -0.142618 -2.4162e-06)
(8.74868 -0.142618 -1.98841e-06)
(8.74868 -0.142619 -1.54634e-06)
(8.74868 -0.142619 -9.36117e-07)
(8.74858 -0.142617 -2.8107e-07)
(8.78744 -0.164444 -1.6194e-07)
(8.78754 -0.164446 -2.93877e-07)
(8.78754 -0.164447 -4.20462e-07)
(8.78754 -0.164448 -5.40597e-07)
(8.78754 -0.164449 -6.408e-07)
(8.78754 -0.16445 -7.29338e-07)
(8.78754 -0.164452 -8.06076e-07)
(8.78754 -0.164453 -8.77298e-07)
(8.78754 -0.164455 -9.48598e-07)
(8.78754 -0.164456 -1.0214e-06)
(8.78754 -0.164458 -1.08841e-06)
(8.78754 -0.16446 -1.14649e-06)
(8.78754 -0.164461 -1.17462e-06)
(8.78754 -0.164462 -1.17331e-06)
(8.78754 -0.164463 -1.10839e-06)
(8.78754 -0.164464 -1.00974e-06)
(8.78754 -0.164465 -8.29786e-07)
(8.78754 -0.164466 -6.4186e-07)
(8.78754 -0.164466 -3.46942e-07)
(8.78744 -0.164464 -2.19085e-08)
(8.78685 -0.305079 -5.52442e-07)
(8.78694 -0.305083 -1.7429e-06)
(8.78694 -0.305083 -2.82801e-06)
(8.78694 -0.305083 -3.81223e-06)
(8.78694 -0.305083 -4.6325e-06)
(8.78694 -0.305084 -5.31166e-06)
(8.78694 -0.305084 -5.82009e-06)
(8.78694 -0.305085 -6.16629e-06)
(8.78694 -0.305085 -6.35073e-06)
(8.78694 -0.305086 -6.3834e-06)
(8.78694 -0.305086 -6.27174e-06)
(8.78694 -0.305087 -6.02627e-06)
(8.78694 -0.305088 -5.65219e-06)
(8.78694 -0.305088 -5.16594e-06)
(8.78694 -0.305089 -4.56206e-06)
(8.78694 -0.305089 -3.88902e-06)
(8.78694 -0.305089 -3.0958e-06)
(8.78694 -0.305089 -2.30415e-06)
(8.78694 -0.305089 -1.36418e-06)
(8.78685 -0.305086 -4.43337e-07)
(8.86271 -0.318186 -2.82272e-07)
(8.86281 -0.318191 -5.39175e-07)
(8.86281 -0.318192 -7.75998e-07)
(8.86281 -0.318192 -1.02135e-06)
(8.86281 -0.318194 -1.24496e-06)
(8.86281 -0.318195 -1.44866e-06)
(8.86281 -0.318196 -1.62662e-06)
(8.86281 -0.318198 -1.78798e-06)
(8.86281 -0.3182 -1.92831e-06)
(8.86281 -0.318201 -2.04541e-06)
(8.86281 -0.318203 -2.12989e-06)
(8.86281 -0.318205 -2.17552e-06)
(8.86281 -0.318206 -2.15173e-06)
(8.86281 -0.318208 -2.05729e-06)
(8.86281 -0.318209 -1.85971e-06)
(8.86281 -0.31821 -1.59347e-06)
(8.86281 -0.31821 -1.23053e-06)
(8.86281 -0.318211 -8.55433e-07)
(8.86281 -0.318211 -4.18048e-07)
(8.86272 -0.318207 -1.28225e-08)
(8.8506 -0.510659 -8.02381e-07)
(8.85069 -0.510666 -2.5113e-06)
(8.85069 -0.510666 -4.07549e-06)
(8.85069 -0.510666 -5.50237e-06)
(8.8507 -0.510666 -6.68288e-06)
(8.8507 -0.510667 -7.68854e-06)
(8.8507 -0.510667 -8.44495e-06)
(8.8507 -0.510668 -8.96406e-06)
(8.8507 -0.510668 -9.2334e-06)
(8.8507 -0.510669 -9.26501e-06)
(8.8507 -0.51067 -9.06669e-06)
(8.8507 -0.51067 -8.65532e-06)
(8.8507 -0.510671 -8.04551e-06)
(8.8507 -0.510671 -7.26383e-06)
(8.8507 -0.510672 -6.32173e-06)
(8.8507 -0.510672 -5.28716e-06)
(8.8507 -0.510673 -4.10374e-06)
(8.8507 -0.510673 -2.97072e-06)
(8.8507 -0.510673 -1.7315e-06)
(8.85061 -0.510666 -5.70712e-07)
(8.94976 -0.513215 -3.93132e-07)
(8.94985 -0.513222 -7.86187e-07)
(8.94985 -0.513223 -1.10184e-06)
(8.94985 -0.513224 -1.50597e-06)
(8.94985 -0.513226 -1.88163e-06)
(8.94985 -0.513227 -2.22656e-06)
(8.94985 -0.513229 -2.51887e-06)
(8.94986 -0.513231 -2.78221e-06)
(8.94986 -0.513233 -2.99208e-06)
(8.94986 -0.513236 -3.1525e-06)
(8.94986 -0.513238 -3.2397e-06)
(8.94986 -0.51324 -3.24906e-06)
(8.94986 -0.513242 -3.14506e-06)
(8.94986 -0.513243 -2.93321e-06)
(8.94986 -0.513245 -2.58032e-06)
(8.94986 -0.513246 -2.14386e-06)
(8.94986 -0.513247 -1.62543e-06)
(8.94986 -0.513247 -1.11661e-06)
(8.94986 -0.513248 -5.21859e-07)
(8.94976 -0.513241 -3.70383e-08)
(8.91968 -0.778028 -1.13872e-06)
(8.91978 -0.778038 -3.48947e-06)
(8.91978 -0.778038 -5.57883e-06)
(8.91978 -0.778039 -7.59174e-06)
(8.91978 -0.778039 -9.32514e-06)
(8.91978 -0.77804 -1.07696e-05)
(8.91978 -0.778041 -1.18539e-05)
(8.91978 -0.778042 -1.25946e-05)
(8.91978 -0.778043 -1.29625e-05)
(8.91979 -0.778044 -1.29771e-05)
(8.91979 -0.778045 -1.26444e-05)
(8.91979 -0.778046 -1.1998e-05)
(8.91979 -0.778047 -1.10629e-05)
(8.91979 -0.778048 -9.90006e-06)
(8.91979 -0.778049 -8.53583e-06)
(8.91979 -0.778049 -7.08016e-06)
(8.91979 -0.77805 -5.5277e-06)
(8.91979 -0.77805 -4.00577e-06)
(8.9198 -0.778051 -2.25755e-06)
(8.9197 -0.778041 -7.23693e-07)
(8.98425 -0.767605 -5.3914e-07)
(8.98434 -0.767615 -1.14423e-06)
(8.98434 -0.767615 -1.73929e-06)
(8.98434 -0.767617 -2.47441e-06)
(8.98434 -0.767618 -3.00551e-06)
(8.98434 -0.76762 -3.5789e-06)
(8.98435 -0.767622 -4.01967e-06)
(8.98435 -0.767624 -4.41818e-06)
(8.98435 -0.767627 -4.70211e-06)
(8.98435 -0.767629 -4.89332e-06)
(8.98435 -0.767631 -4.94928e-06)
(8.98435 -0.767633 -4.88211e-06)
(8.98435 -0.767635 -4.6501e-06)
(8.98435 -0.767637 -4.28535e-06)
(8.98436 -0.767638 -3.72262e-06)
(8.98436 -0.76764 -3.09818e-06)
(8.98436 -0.76764 -2.29198e-06)
(8.98436 -0.767641 -1.63822e-06)
(8.98436 -0.767642 -8.55649e-07)
(8.98426 -0.767632 -1.33013e-07)
(8.92314 -1.11161 -1.43814e-06)
(8.92324 -1.11163 -4.40709e-06)
(8.92324 -1.11163 -7.2375e-06)
(8.92324 -1.11163 -9.97554e-06)
(8.92324 -1.11163 -1.21889e-05)
(8.92324 -1.11164 -1.41026e-05)
(8.92324 -1.11164 -1.55063e-05)
(8.92324 -1.11165 -1.64668e-05)
(8.92324 -1.11165 -1.69101e-05)
(8.92324 -1.11166 -1.68761e-05)
(8.92324 -1.11167 -1.63628e-05)
(8.92325 -1.11167 -1.54321e-05)
(8.92325 -1.11168 -1.41183e-05)
(8.92325 -1.11168 -1.25408e-05)
(8.92325 -1.11168 -1.07133e-05)
(8.92325 -1.11169 -8.85162e-06)
(8.92325 -1.11169 -6.83475e-06)
(8.92325 -1.11169 -5.02934e-06)
(8.92325 -1.11169 -3.00232e-06)
(8.92316 -1.11168 -1.00763e-06)
(8.78139 -1.06897 -1.23077e-06)
(8.78147 -1.06898 -3.32223e-06)
(8.78146 -1.06898 -5.67877e-06)
(8.78147 -1.06897 -8.15767e-06)
(8.78147 -1.06897 -9.95373e-06)
(8.78147 -1.06897 -1.16128e-05)
(8.78147 -1.06897 -1.28207e-05)
(8.78147 -1.06897 -1.3705e-05)
(8.78147 -1.06897 -1.41553e-05)
(8.78148 -1.06897 -1.42138e-05)
(8.78148 -1.06896 -1.38526e-05)
(8.78148 -1.06896 -1.31272e-05)
(8.78148 -1.06896 -1.20499e-05)
(8.78148 -1.06896 -1.07387e-05)
(8.78149 -1.06896 -9.16818e-06)
(8.78149 -1.06896 -7.60159e-06)
(8.78149 -1.06896 -5.79585e-06)
(8.78149 -1.06896 -4.40953e-06)
(8.7815 -1.06896 -2.68656e-06)
(8.78142 -1.06895 -7.32784e-07)
(8.87085 0.751916 1.62428e-07)
(8.87094 0.751925 -1.69864e-06)
(8.87094 0.751925 -1.82095e-06)
(8.87094 0.751926 -2.59731e-06)
(8.87094 0.751926 -3.01608e-06)
(8.87094 0.751926 -3.53304e-06)
(8.87094 0.751926 -3.8654e-06)
(8.87094 0.751927 -4.12735e-06)
(8.87094 0.751927 -4.22726e-06)
(8.87094 0.751927 -4.202e-06)
(8.87094 0.751927 -4.07883e-06)
(8.87094 0.751928 -3.88399e-06)
(8.87094 0.751928 -3.59948e-06)
(8.87094 0.751928 -3.25308e-06)
(8.87094 0.751928 -2.80305e-06)
(8.87094 0.751928 -2.37831e-06)
(8.87094 0.751928 -1.73068e-06)
(8.87094 0.751928 -1.32733e-06)
(8.87095 0.751928 -1.87905e-07)
(8.87085 0.751919 -8.23164e-07)
(8.73984 0.754537 -7.94369e-07)
(8.73994 0.754546 -1.31563e-06)
(8.73994 0.754547 -1.68277e-06)
(8.73993 0.754549 -2.23225e-06)
(8.73993 0.754551 -2.64863e-06)
(8.73993 0.754554 -3.08945e-06)
(8.73993 0.754557 -3.40594e-06)
(8.73993 0.754561 -3.6643e-06)
(8.73993 0.754564 -3.80571e-06)
(8.73993 0.754568 -3.84813e-06)
(8.73993 0.754572 -3.79213e-06)
(8.73993 0.754575 -3.63495e-06)
(8.73993 0.754578 -3.38034e-06)
(8.73993 0.754581 -3.06342e-06)
(8.73993 0.754584 -2.6602e-06)
(8.73993 0.754586 -2.24637e-06)
(8.73993 0.754588 -1.69423e-06)
(8.73993 0.754589 -1.18517e-06)
(8.73993 0.75459 -4.28509e-07)
(8.73983 0.754582 1.77521e-07)
(8.77423 0.496625 -2.00463e-07)
(8.77433 0.496631 3.35139e-07)
(8.77433 0.496632 7.92005e-07)
(8.77433 0.496632 1.08448e-06)
(8.77433 0.496633 1.4409e-06)
(8.77433 0.496633 1.63984e-06)
(8.77433 0.496634 1.8128e-06)
(8.77433 0.496635 1.89837e-06)
(8.77433 0.496636 1.91911e-06)
(8.77432 0.496637 1.87406e-06)
(8.77432 0.496638 1.80921e-06)
(8.77432 0.496639 1.7291e-06)
(8.77432 0.49664 1.63076e-06)
(8.77432 0.496641 1.51465e-06)
(8.77432 0.496642 1.401e-06)
(8.77432 0.496643 1.23905e-06)
(8.77432 0.496643 1.14454e-06)
(8.77432 0.496644 9.05423e-07)
(8.77432 0.496644 7.45302e-07)
(8.77423 0.496639 5.3481e-07)
(8.69963 0.495556 -3.44018e-07)
(8.69973 0.495562 -6.74153e-07)
(8.69973 0.495563 -9.41485e-07)
(8.69973 0.495564 -1.25224e-06)
(8.69973 0.495565 -1.50893e-06)
(8.69973 0.495566 -1.74206e-06)
(8.69973 0.495568 -1.90634e-06)
(8.69973 0.49557 -2.02552e-06)
(8.69973 0.495571 -2.0783e-06)
(8.69973 0.495573 -2.07151e-06)
(8.69972 0.495575 -2.00399e-06)
(8.69972 0.495577 -1.88299e-06)
(8.69972 0.495578 -1.71277e-06)
(8.69972 0.49558 -1.51212e-06)
(8.69972 0.495581 -1.27294e-06)
(8.69972 0.495582 -1.03107e-06)
(8.69972 0.495583 -7.42115e-07)
(8.69972 0.495584 -4.64371e-07)
(8.69972 0.495585 -1.51586e-07)
(8.69963 0.495579 4.44179e-08)
(8.72087 0.293425 2.95099e-07)
(8.72097 0.293429 1.27217e-06)
(8.72097 0.29343 2.21101e-06)
(8.72097 0.293431 3.01115e-06)
(8.72097 0.293432 3.70522e-06)
(8.72096 0.293433 4.24492e-06)
(8.72096 0.293435 4.6475e-06)
(8.72096 0.293437 4.89045e-06)
(8.72096 0.293439 4.99196e-06)
(8.72096 0.293441 4.96232e-06)
(8.72096 0.293443 4.82402e-06)
(8.72096 0.293444 4.59366e-06)
(8.72096 0.293446 4.28834e-06)
(8.72096 0.293448 3.9203e-06)
(8.72096 0.293449 3.50596e-06)
(8.72096 0.29345 3.04028e-06)
(8.72096 0.293451 2.54729e-06)
(8.72096 0.293452 1.97439e-06)
(8.72096 0.293452 1.34682e-06)
(8.72087 0.293449 5.64862e-07)
(8.67287 0.2871 3.71412e-08)
(8.67296 0.287103 2.42077e-07)
(8.67296 0.287103 4.46051e-07)
(8.67296 0.287103 6.21854e-07)
(8.67296 0.287102 8.11604e-07)
(8.67296 0.287102 9.4667e-07)
(8.67296 0.287102 1.06562e-06)