/*--------------------------------*- C++ -*----------------------------------*\
| =========                 |                                                 |
| \\      /  F ield         | OpenFOAM: The Open Source CFD Toolbox           |
|  \\    /   O peration     | Version:  2212                                  |
|   \\  /    A nd           | Website:  www.openfoam.com                      |
|    \\/     M anipulation  |                                                 |
\*---------------------------------------------------------------------------*/
FoamFile
{
    version     2.0;
    format      ascii;
    arch        "LSB;label=32;scalar=64";
    class       volScalarField;
    location    "0.00242";
    object      epsilon;
}
// * * * * * * * * * * * * * * * * * * * * * * * * * * * * * * * * * * * * * //

dimensions      [0 2 -3 0 0 0 0];

internalField   nonuniform List<scalar> 
7220
(
67484.8
106402
106221
105356
105960
105792
107189
106574
106590
106558
69634.7
1.4061e+07
98121.8
113237
122317
3.83864e+07
150905
97634
128569
91593.6
88966.2
170286
101390
252152
202536
2.27152e+06
6.55224e+07
98607.7
90599
101681
121737
104316
105692
100968
650476
71250.3
106552
70283.2
69353.8
62574.9
63118.9
63114.6
62571.4
76524.5
75805.3
76039.1
76558
77005.4
63750.7
64462.1
64456.1
63745.4
65245
66089.7
66082
65238.1
66986.2
67923.6
67914.7
66977.9
68889.9
69872.3
69862.7
68880.5
70856.9
71829.1
71820.5
70847.5
72773.8
73674
73668.6
72766.3
74512
75268.4
75269.8
74509.6
75924.7
76466.4
76482.8
75931.5
76878.1
77101.9
77135.9
76903.7
77177.6
77206.1
77142.8
77052.7
76794.4
76670.9
62126.6
62123.8
62825.5
62287.4
75303.5
75477.4
76368.4
75879.8
76568.3
76338.4
76551
75413.6
75940.8
74031
74772.4
72325.1
73208.7
70444.7
71398.5
68514.5
69478.6
66645
67565.8
64933.4
65764
63461.8
64163.1
62297.6
62837.6
64146.1
63447.2
65741.6
64913.7
67539.1
66620.2
69450.2
68486.6
71372.4
70416.7
73191.2
72302.4
74775.2
74021.6
75988.5
75434.5
76643.8
76411.9
76708.7
76439.7
61849.1
61840.9
75694.8
75787.1
74610.4
75291.6
76148.3
75721.6
75184.9
75289.7
75231.5
74775.7
75597
75464.9
75383.1
75586.6
74487.4
75001.2
73145
73863.9
71493.7
72348.5
69676.3
70597.6
67812.9
68743.5
66009
66897.5
64356.4
65158.6
62930.7
63611.3
61791.5
62321.8
61498.3
60989.6
61345.5
61778.3
61780.6
61332.9
60979.7
61491.7
62302.5
61775.9
63584
62907.5
65122.9
64324.9
66854.4
65969.3
68698.2
67768.1
70556.5
69632
72321.1
71457.8
73868.7
73130.5
75070.4
74518.8
75734.7
75491.5
75824.6
73942.2
74622.6
74575.1
74657
61250.3
60728.1
60706.1
60352.7
74837.3
73237.8
73878.6
74687.6
74035.2
72337.7
72985
74289.3
74172.5
73656.1
74400.3
74286
74184.7
74383.2
73303.2
73810
72002.9
72696.1
70420.1
71237.9
68685.4
69564.5
66910.9
67796.6
65195.7
66040.3
63623.6
64387
62262.4
62913.4
61161.8
61676.7
60365.4
60723.1
61540.7
61542.5
60720.8
61245.2
61650.3
61140.2
62876.6
62230.9
64339.9
63582
65984.2
65143.6
67737.5
66852.4
69511.6
68627.7
71206.9
70376.1
72705.3
71988.6
73883.5
73340.7
74540
74296
74650.5
73600.4
60092.5
60083
74591.5
72534
71693.7
74140.1
73193.8
73317.4
73419.7
72984.3
73753.3
59753.5
59474.7
60559.6
59899.5
73997.7
73141.8
71073.5
71845.2
69271.1
69777.9
70503.5
73866.7
72072.2
72843.5
72500.5
73139.6
73057.6
72896.1
73101.7
72040.3
72527.5
70799.6
71460.6
69292.1
70071
67641.1
68476.2
65964.1
66800.1
64348.5
65143.3
62869.9
63588.2
61582.9
62199.1
60532.4
61025.8
60106.8
59906.3
61110.2
60565
61416.2
61417.6
61106.3
59462.8
60085.4
59737.3
60991.6
60504.7
62152.3
61542.3
63528.6
62816.3
65074.1
64283.6
66726.6
65891.6
68407.5
67569.1
70021.3
69228.9
71460.7
70771
72604.3
72074.6
73260.7
73009
73388.7
71932.2
72489.6
70734.8
71329.7
70197.9
72666.6
59271
59262.9
72141.7
72247.5
71856.8
68916.2
73078.3
73424.1
72404.3
69966.2
73432.2
68039.5
71067.6
71195.1
71580.8
70619.7
68726.9
71748.7
71452.4
71968.2
71924.2
71679.9
71899.4
70835.2
71313.3
69640.7
70274.1
68214.1
68949.3
66667.6
67449.4
65097.5
65879.9
63588.5
64330.4
62208.3
62878.4
61005.7
61582.1
60018
60482.8
59273
59613.8
58779.9
58995.5
58623.8
59809.1
59141.8
61085.5
60504.3
61416.3
61417.4
60500.3
61082.7
59136.3
59804.5
58617.4
58980.8
58769.9
59587.2
59252.8
60441
59983.9
61524.5
60956.2
62805.9
62142.2
64243.9
63508
65786.9
65006.5
67364.9
66577
68894.8
68141.5
70273.8
69610
71388.2
70869.4
72053.7
71791.1
72202.2
70922.8
71428.4
69823.3
70374.6
69325.5
71018.7
72023.8
73149.6
70120.3
71158.9
71254.8
70917.7
58513.9
58333
59082.1
58521.5
72661.7
71707.9
70588.9
67693.3
67200.5
66938
67414.9
70457.6
72490.3
69407.4
72790.8
69586.9
68269.3
69414.6
70265.2
69862.4
70853.6
70605.1
70998.4
70992.2
70667.5
70897.7
69829.1
70300.6
68674.4
69283.1
67319.5
68015.4
65867.4
66599.7
64404.9
65132.7
63005.6
63693.3
61729.9
62350.1
60620.1
61152.5
59707.7
60137.8
59009.2
59331.3
58738.1
58525.2
59801.9
59085.5
61178.7
60549.6
61535.5
61536.4
60546.8
61176.6
59798.8
58325.3
58720.1
58501.7
59298.7
58984.4
60087.9
59666.6
61084.6
60561.4
62265.2
61653.8
63596.1
62915
65030.4
64303.8
66509.2
65768.6
67956.6
67242.2
69278.4
68639.9
70364.8
69856.1
71033.5
70761.8
71200.5
70089.6
70542.8
69072.3
69591.6
68150.2
68540.8
67681.3
71412.4
68929.5
58192.9
58188.8
70521.9
70444.1
68997.4
69773.5
72600.9
71974.9
71065.3
70006.4
66807.1
67232.1
68226.3
67948.6
110539
68909.5
68407.8
68045.8
68944.2
68506.9
69711.5
69347.4
70219.3
70011.7
70299.7
70325
69924.1
70167.1
69092.6
69557
67973.2
68560
66684.1
67343.5
65320
66007
63957.2
64634.5
62663.5
63298.8
61491.2
62059.7
60480.3
60963.9
59652.2
60042.5
59008.4
59308.7
58512.9
58745.4
58129.7
58308.2
57979.2
58479.9
58093.5
59872.1
59097
61334.4
60671.7
61716.1
61716.9
60669.8
61332.6
59095.2
59870
58091.9
58478.2
57977.6
58299.1
58125
58723.8
58498.2
59269.6
58978.4
59983
59603.1
60885.2
60410.5
61963.8
61404.1
63189.6
62560.1
64522.2
63845.7
65907.5
65211.4
67277.8
66599.2
68546.7
67932
69603.3
69108
70277.7
69997.4
70457.7
69494.3
70237.6
69905.6
68566.1
69041.9
67696.5
68099.7
66947.3
67322.6
66623.8
66722.4
67256.8
66943.9
66835
66674.2
70674.3
106745
67887.3
67593.6
71908.7
105755
58346.3
58150.9
58031.6
57858.9
71312.8
67083.6
70457.2
67235.4
67749.9
69480.4
68527.9
106665
111789
113477
117233
137782
117202
68394.8
69072.3
109512
67871.3
67231
67013.7
71061.9
70570.3
67436.7
107763
67204.6
120957
67070.5
66897.2
106780
66833.8
66695.9
66763.8
66683.3
67197.7
66934.9
67931.6
67536.1
68729.4
68340.2
69421.6
69093.7
69861.3
69688.2
69901.1
69943.9
69492
69746.5
68665.5
69126
67569.2
68141.9
66334.4
66963
65046.9
65692.1
63776.4
64405.4
62581.5
63166
61513
62029.1
60605.3
61037.7
59871.2
60217.4
59282.4
59561.8
58785.4
59025.3
58558.9
57858.4
58479.1
58031.4
59991.9
59156.9
61561.7
60848.9
61971
61971.6
60847.5
61560.3
59156.1
59990.7
58478.9
58148.9
58548
58340.5
58999.9
58767.8
59515.9
59247
60148.4
59813.4
60947.2
60525.7
61920.8
61413.3
63046.3
62466.9
64284.8
63653.9
65587.6
64932
66892
66243.9
68116.9
67521.8
69148
68665.8
69823.1
69537
70072.6
70006.1
69834.9
70009.4
69173.5
69542.1
68331.5
68762.2
67529.1
67910.3
66911.7
67196.9
66669.5
66735.9
66748.6
109717
110797
115398
69860
71542.4
108031
91837.5
1.04313e+06
68273.6
57979.2
57979.8
114957
68474.1
69901.8
70461.9
71250
67389.1
128409
67445.3
67242.4
67409
67560.8
70677.2
67465.2
67753.2
66828.6
7.10297e+06
69905.7
108167
66656.8
122379
69059.7
68296.5
106414
106768
69476.8
108727
107395
106688
67156
66997.5
67434.6
67233
68055.9
67719.7
68754.1
68408.2
69379
69082.7
69756.9
69614.5
69765.7
69819
69338.4
69597.9
68536.1
68983.1
67472.6
68026.3
66281.9
66886.8
65054.3
65668
63863.3
64450.1
62760.5
63297.5
61794.4
62258.2
60993.3
61372.1
60351.6
60655
59815.7
60075
59320.4
59566
58835.5
59075.8
58389.2
58603.7
58195.2
57768.4
57834.4
58513.5
58001.2
60154.5
59254.2
61838.2
61071.2
62283.3
62283.7
61070.3
61837.2
59254.1
60153.9
58002.7
58514.2
57836.8
57770.4
58197.7
58600.9
58389.6
59062.6
58828.2
59535
59299.2
60020.6
59773.9
60574.4
60284.5
61269.9
60901
62140.1
61682.9
63168.7
62636.7
64322.2
63732.1
65554.5
64932.2
66800.6
66180.9
67976.1
67402.6
68969.9
68504.1
69637.7
69351.3
69897.8
69824.9
69707.5
69850.5
69121.6
69450.8
68363.2
68750.2
67662
67992.4
67148.8
67379.6
66973
67010.5
67044.7
111723
113279
67493.4
109580
112016
69186.4
70910.9
108236
68718.6
68012.4
115594
106227
107309
67981.5
67756.4
67924.1
67761.9
70614.4
69301.1
69876.1
109544
67794.2
106876
59065
58824.2
57723.5
58029.8
67975.1
200803
67145.8
68371.3
106296
106160
105545
104563
105014
70109.6
108806
106730
111222
726006
112182
115371
66744.9
69151.6
109677
108446
107596
108608
123991
69459.4
68295.3
66713.1
105820
68798.8
105316
105105
107937
67085
105927
106225
106233
106771
69922.8
107186
71029.6
128431
67702.6
67589.2
67891.6
67741.4
68407.2
68120.4
69026.6
68716.8
69587.1
69321
69908.5
69790.6
69888.9
69953.2
69450.9
69714.1
68661.2
69098.6
67622.4
68162.3
66474.5
67055.6
65311.6
65890.3
64195.5
64744.4
63184
63673.5
62319.4
62730.3
61623.2
61950.6
61069.2
61331.9
60583.8
60823.7
60092.4
60341.1
59577.6
59837.2
59318.7
58026.1
57710
57720.1
58579.4
58003.2
60355.4
59386.5
62167.1
61338.4
62648.4
62648.6
61337.9
62166.6
59387.1
60355.3
58005.5
58580.8
57713
58826.4
59314.9
59064.8
59821.3
59568.4
60304.3
60067.2
60759.5
60533.4
61242.1
60991.7
61837.3
61521.1
62597.9
62195.8
63529.5
63043.6
64600
64050.3
65760.7
65172.3
66952
66357.3
68089.7
67533.6
69061.2
68605.4
69721.5
69436.2
69993.3
69913.6
69846.2
69962.4
69334
69626
68660.9
69003.5
68050.8
68334.1
67646.4
67814.3
67527.8
67544.7
67595.8
118162
108713
107932
108127
103963
113967
126665
68626.2
68984.1
68269
70309.2
113777
110659
109719
113761
111598
112582
107654
115162
979988
68450.8
67970.1
106853
58600.7
58604.3
68322.8
130622
115511
121369
118836
136641
67614.3
107445
68453.7
105792
111298
116110
113504
106116
70061
68811.4
69366.4
107319
110363
108502
109085
107744
110556
112102
108693
110700
108761
119939
111005
109465
104434
149598
117774
66996.7
69087.3
120222
109855
332824
69656.7
105640
106951
105283
105749
68504.2
66793.7
102142
70432.8
116598
107653
107202
107894
107215
107869
105541
69178.6
104360
104436
104099
104086
93795.3
1.61444e+06
68786.8
66850.7
105357
103880
103666
103468
107197
67532.4
105422
109259
105050
105846
105624
104300
71675.2
69290.4
105254
104419
105987
73090.1
256592
68392.7
68368.8
68548.7
68430.2
68985.6
68744.2
69526.1
69254.1
70023.2
69787.2
70291.4
70194.5
70246.6
70319.3
69804.1
70068.1
69030.2
69457.3
68012.3
68541.4
66891.6
67457.9
65769.4
66325.6
64717.2
65231
63788
64234.3
63023.1
63383.1
62434.6
62708.5
61971.7
62193
61540.5
61757.8
61070.3
61312.8
60540.6
60812.2
59974.9
60260.4
59413.1
59690.3
59150.5
57886.4
58400.9
57688.2
57639.8
58682.2
58041.3
60591
59558.4
62516.5
61636.9
63029.1
63029.3
61636.9
62516.2
59559.6
60591.5
58044.1
58684
57643.8
57691.7
58405.4
57890.7
59155.1
59692.1
59416.7
60255.3
59974
60792.4
60529.5
61270.7
61040.3
61686.7
61484.7
62090.7
61884.9
62579.1
62317.8
63236
62883.9
64079.5
63635.5
65080.9
64563.3
66189.8
65625.7
67340.9
66764.8
68448.5
67906.2
69397.1
68951.4
70048.4
69765.9
70332
70243.5
70224.2
70317.3
69786.2
70041.2
69197.3
69494.6
68677.9
68917.5
68356.4
68485.4
68307.8
68289.8
68534.8
68394.8
68703.8
68983.5
4.8667e+06
107691
113181
113768
125287
117281
108628
109739
108969
113416
111221
120329
116525
126071
68189.7
68804.4
103584
105999
69788.4
107913
109659
109736
107084
189414
125544
68313.1
107699
108017
107633
108449
119899
128666
111172
139932
124249
121941
114530
116881
143692
120504
131321
127222
142861
67399.5
69097.1
116986
111579
107039
105597
69626
68469.9
68985.3
106054
108151
106942
107406
106391
68867.8
106948
60375.6
60049.9
58235.8
58917.9
184196
123925
67023.1
207924
70029.3
114657
108616
107868
108551
105271
69374.1
104654
104268
375076
68980.1
293236
66886.4
72250.4
111352
105035
69163.7
103618
103271
108381
67205.5
104909
112555
106365
103094
106621
67891.1
104882
104991
74008.9
70621.1
104971
104628
69958.4
106835
105001
105002
306390
75686.4
106026
105468
108591
105512
68719.5
69771.9
69465.5
69504.1
69304.1
69390.7
69401.9
69315.5
69763.9
69563.6
70229.3
69994.1
70661.6
70456.8
70878
70800.7
70809.3
70888.8
70365.4
70628.2
69608.4
70024.9
68610
69129.8
67510.6
68065.4
66420.5
66958.6
65419.6
65905.1
64562.5
64970.3
63885.2
64200.2
63385
63615.7
62993.6
63182.1
62610.8
62806.6
62168.3
62399.4
61641.4
61915.7
61033.4
61346.5
60707.2
58912.9
57783.2
58231
57708.4
57599.7
58822.8
58121.3
60850.4
59762.6
62855.5
61939.8
63390.2
63390.3
61940.1
62855.4
59764.1
60851.2
58124.3
58825
57604
57712
57787.9
60054.3
60708.1
60378.7
61339
61030.9
61891.7
61626.8
62349.8
62132.5
62725.2
62545.8
63068.5
62895.7
63475.4
63257.1
64042.8
63735
64808.2
64401.1
65749.8
65259.8
66815.4
66271.2
67934.8
67373.4
69016.5
68486.8
69943.8
69507.7
70586.4
70306.3
70881.3
70784.7
70811.7
70884.2
70447.2
70665.3
69942.4
70197.8
69510.6
69709.5
69274
69368
69264.2
69238.2
69491
69351.4
69883.2
69665.4
70117.5
108584
107240
107900
106095
106640
105080
105164
105596
104982
104296
104952
104621
105269
108414
108341
107829
109347
108616
112308
110492
115185
147714
139512
67597.1
119470
137007
123636
109275
109300
109322
109384
109249
111080
109923
115437
112829
123241
118606
130205
67909.6
69297.2
113891
68259.7
107424
105506
69382.1
106485
107808
107644
107122
105860
69561.3
102764
155080
71708.9
317308
59743.3
59748.3
110657
109331
108265
107341
108635
111841
167180
139074
134551
120807
124742
169269
128555
147295
139939
149669
67388.8
70132.9
69840.1
112728
109883
70118.9
69170.6
107121
106579
105019
105103
107942
109705
69372.2
68344.7
68809.3
104983
103129
104732
106306
106801
105682
106097
104671
106051
117498
121991
168615
69361.7
236366
70845.2
108508
109194
259031
133369
67125.5
71495.9
110611
107625
108538
104789
104705
104823
69374.7
103713
103364
105724
109901
69346.4
67187.1
103642
104001
74632.4
105893
104921
108056
105412
104581
117654
108208
102938
102685
107499
67650.8
105129
106210
103999
104641
104461
105957
76862.3
72606.8
102147
106278
104905
106291
105070
106320
105161
106313
104480
105026
71458.1
106189
105569
104515
105002
70659.4
406400
104405
108881
78578.7
100255
70588.1
71523.1
70805.4
71120.2
70459
70572
70373.3
70485.4
70426.5
70360.6
70717.1
70550.2
71108.4
70909.2
71474.4
71302
71638.9
71581.3
71544.5
71632.7
71100.6
71361.5
70359.6
70766.1
69378.5
69890.4
68294.9
68841.5
67229.1
67753.3
66271
66732.4
65478
65851.3
64879.2
65154
64455.8
64649.5
64125.4
64285.7
63788.1
63962.8
63376.6
63594.3
62854
63130.9
62203.7
62544.3
61460.1
61838.6
60720.4
61082.2
60388.8
58709.6
59468.9
57722.2
58100.6
57773.5
57605
58998.3
58242.4
61115.5
59989.3
63162.3
62242.3
63693.3
63693.3
62242.9
63162.5
59991
61116.6
58245.4
59000.6
57609.4
57777.3
58105.6
57727
59474.3
58714.8
60394.3
61086.3
60725.4
61838.6
61462.6
62534.5
62199.7
63102.5
62836.1
63538.1
63335.3
63872.5
63715.2
64161.7
64017.8
64498.4
64317.1
64987.5
64718.7
65683.3
65309.1
66572.9
66106.6
67602.6
67074.6
68695.8
68146.9
69756.7
69236.8
70665.4
70238.5
71300.4
71021.6
71607.2
71501.8
71576.2
71628.5
71284.5
71465.9
70863
71076.3
70522.6
70673.6
70360.1
70417.7
70382.6
70348.7
70568.7
70457.4
70863.1
70708.2
71064.6
107226
107854
106122
106647
105188
105632
104457
104427
104788
103749
103027
103491
103244
104019
103759
104253
104640
106001
109088
108939
110134
109450
113569
111474
122485
116915
133067
108236
147997
129599
156947
133879
110039
110037
110079
110245
110022
112544
111101
117236
114481
126507
120969
135147
67846.5
69844
111257
68352.4
68665.5
106828
105019
105279
106674
69165
103552
105273
110516
108148
106498
105374
104477
103868
157013
203803
71904.4
115281
119616
70100.3
109338
112557
106223
341971
224405
71504.5
96035
132468
109844
103449
107711
106822
170210
131112
137416
222366
141349
176133
161981
67508
70653.8
70993.6
109555
108401
69767.7
106482
106094
104630
104671
111109
69405.7
68464.3
68909.8
103889
101449
138439
103948
108035
105771
104656
105042
103677
101327
103878
111957
98497.6
69756.9
104171
61872.7
61494.5
59243.8
60104.7
104662
103405
540950
407752
149121
67402.7
73541.7
136883
248866
107262
108131
107633
72065.9
71243.9
105573
104382
104375
126093
110873
69564
104110
102926
107842
106364
102581
103294
108637
72203.2
72512.1
89567.2
67655
77208.3
107499
105059
104108
104176
104166
107321
157287
102359
107749
79966.6
75189.1
68226.3
100221
107633
104374
104085
105654
107676
73663.7
105703
106160
102845
103547
104040
105116
72381.9
105359
102821
103973
71331.8
106233
109457
143395
123837
138519
72801.5
73626.1
72555.9
73016.7
71905.3
72188.5
71647.2
71716
71563.3
71648.8
71599.6
71549.3
71827.3
71691.8
72146.7
71983
72444
72306
72556.4
72519.8
72433.1
72531.9
71987.7
72247.2
71259.8
71657.7
70294.4
70799.4
69223.4
69763.6
68176.9
68689.8
67255.4
67695.9
66519.3
66861.9
65989.3
66229.1
65631.3
65793.5
65355.7
65489.6
65067
65218
64695
64895
64183.8
64459.9
63501.6
63863.5
62693.2
63106.9
62276.6
60098.9
58550.3
59238.3
57708.7
58016.7
57881.6
57655.2
59198.7
58399.6
61375.1
60224.8
63445.6
62516.5
63977.1
63977
62517.3
63446
60226.6
61376.4
58402.7
59201
57659.5
57885.2
58021.6
57713.2
58555.5
61500
62280.2
61877.5
63105.6
62694.9
63851
63495.7
64426.9
64162.3
64832.1
64648.1
65119.2
64986.6
65355.7
65238.7
65632.7
65482.4
66055.4
65820.1
66690
66344.9
67532.7
67087.9
68530
68016.6
69601.5
69062.4
70644.8
70133.9
71536.3
71117.9
72164.8
71886.6
72485.2
72369
72493.4
72524.6
72274.1
72416.6
71936.9
72104.8
71682.6
71790.5
71589.6
71616.3
71636.2
71597.6
71781
71698.6
71971.6
71877.1
72075.4
109572
108295
108926
107080
107680
105983
106510
105005
105480
104154
104563
103835
103441
103777
102706
102043
102320
102166
102696
102499
103098
102903
103375
103262
103434
106153
109908
109661
111045
110269
114763
112496
124495
118389
159700
135776
218262
187134
146013
195476
150797
110811
110062
110648
110831
110848
111277
110855
113948
112377
119082
116050
130544
123530
163270
142397
108054
67973.8
70705.9
108885
69048.2
69287.6
106286
104606
107429
69239.3
102704
115044
113022
104179
110108
105266
103804
102432
93639.7
115690
70555.4
103211
110065
89521.7
2.61194e+07
90138.4
115536
1.04036e+06
61152.9
61159.2
102510
102459
107955
391141
234327
150785
162646
323860
163263
229080
201986
477852
315221
67770.5
71783.2
72645
141480
184884
130954
200831
107593
106932
70559.8
105642
104290
104266
141713
114943
69598.7
68697.1
69124.5
103108
4.73038e+07
119186
113392
100971
99662.3
102877
422792
109716
104107
104842
102706
1.13025e+06
101551
110205
73393.8
73593.6
72923.1
715412
176899
110790
99436.9
108683
67881.8
76053.3
110664
108561
101781
109291
119439
106269
821670
72143.4
105220
104121
103987
114223
87875.9
109338
142910
70015.2
103307
101957
101507
101431
102261
100871
101056
210994
109513
1.10615e+07
1.26993e+07
116420
78387.9
102215
68334.4
93395
93856.4
100865
79886.1
109229
132904
127972
74406.8
73726.4
104811
103954
103811
101832
102419
102304
92311.4
106568
99841.7
103220
109299
102546
76510.4
105260
84162.1
108336
69051.5
149561
116050
1.8298e+07
109233
106771
104158
103178
103614
103704
102980
111431
105394
74858.6
105739
101432
103393
103635
105215
73295
71933.7
102177
102607
103581
783695
127736
138329
119081
124739
106174
107956
113346
75370.5
76173.2
74680.5
75339.8
73783
74184.4
73241.1
73472.6
73034.7
73096
72958.9
73011.6
72983.8
72946.5
73154.2
73052.3
73400.5
73274.2
73624.2
73524
73682.9
73669.3
73526.9
73638.5
73076.3
73335.9
72358.9
72749.3
71409.3
71907.2
70352.1
70885.2
69326.1
69827.3
68441.5
68861.1
67761.2
68073.8
67297
67503.5
67002.4
67133.7
66786.7
66890.7
66559.2
66679.5
66241.3
66416.3
65757
66024.2
65068.7
65436.9
64235.1
64663.1
63372.8
63800.6
62585
62963.7
62249
59859.4
60858.3
58439.8
59059.6
57740.3
57984
58025.4
57748.4
59412
58583.2
61613.8
60456.2
63667.2
62747.5
64190.2
64190
62748.5
63667.7
60457.9
61615.1
58586
59414.4
57752.3
58028.9
57988.6
57744.7
59065.1
58444.9
60865.2
59865.5
62257
62969.4
62591.9
63803.5
63377.3
64660
64235.7
65421.2
65060.3
65986.1
65731.3
66346.5
66188.4
66572
66470.8
66747
66660.4
66964
66843.9
67323.9
67120.2
67898.8
67582.5
68693.5
68270.9
69656.8
69158.7
70705
70176.6
71729.1
71227.7
72602.8
72193.3
73224.8
72948.1
73557.8
73431.1
73607
73615.3
73459.2
73561.2
73209.5
73331.5
73045.5
73109.6
73017.7
73016.3
73087.3
73043
73198.5
73140.7
73287.5
73252.2
73324.2
108207
108436
107398
107839
106407
106913
105391
105891
104441
104903
103605
104007
102883
103231
102561
101731
101609
102020
101870
102312
102171
102494
102423
102522
102371
104588
103287
106203
110720
110408
111940
111095
115925
113477
126496
119940
163479
138497
218366
545045
87267.3
180118
267948
180869
111524
111165
111683
111624
112400
111799
115181
113563
120936
117478
135522
126411
180283
151620
229858
68223.9
72057.1
195975
134356
107120
70003.4
70153.5
105792
104240
87438.4
86886.8
133903
121658
108282
243544
753932
104236
104967
114009
4.41989e+07
96860.6
69441.8
102095
81863.8
116463
98049.1
103324
94985.5
111841
104411
103482
103166
100222
102001
211084
176675
112785
5.121e+07
142407
116801
329283
104067
85835.8
139404
73792.7
145691
110938
446198
774792
347938
521856
202754
277438
106371
68268.8
73004.2
73141.5
74698.3
106618
103565
111182
116088
106031
97003
101169
102917
267726
98829.8
71643.4
105320
104020
103929
101671
101259
101141
101543
87931
85932.9
157158
144437
126789
112433
133074
132824
73381.2
70080.9
69230.1
69652.6
102480
101380
2.16507e+07
110452
123523
100616
99373.4
95665.7
105738
102613
93420.5
102559
111629
114013
81600
112509
103330
104774
2.054e+06
91527.4
102302
102716
440742
743780
65315.2
64970.1
60626.9
61974.1
101729
102260
101656
161421
180568
194309
230165
68653.3
94849.2
91473.6
99430
78944.6
104718
99703.6
111195
123158
105215
73216.4
119636
105290
104992
103925
103678
102164
94110.7
87444.3
133780
107964
170005
136659
232631
70864.5
102536
101911
83941.3
93362.1
102103
111262
114766
79890.1
861642
114123
95328.3
262681
69305.5
91746
98483.1
83033.6
103069
101994
98099.8
111074
132212
107554
74816
104591
103789
103517
102846
92761.8
143297
105887
90548.9
156568
160951
122112
111057
77881.6
198842
70187
88775.4
97669.2
106113
77152.7
76516.4
99891.2
103990
103437
103421
152231
105146
135193
76013.5
74073.6
100985
103283
103361
105337
93780.2
1.62192e+06
273034
6.60557e+06
105929
146455
124715
132138
110906
117483
98690.4
100067
105141
78258.3
79567.5
77750.1
78597.8
76482.5
77037.2
75709.4
76049.9
75266.9
75446.5
75096.3
75158.1
75024
75059.6
75028.4
75010.8
75130.5
75070.1
75289.1
75207.8
75425.7
75369.3
75422.9
75436.9
75229.1
75356.3
74768.9
75030.5
74062.2
74444.3
73136.5
73622.1
72108
72625.7
71123.1
71601.6
70300.3
70685.9
69704.8
69972.4
69339.9
69495.8
69149.1
69228.1
69043.3
69091.2
68932.8
68994.1
68726.3
68847.7
68329.4
68556.3
67708.5
68044.5
66931.1
67332.7
66101.5
66516.9
65696.5
61965.4
59676.2
60619.4
58378.3
58936.3
57815.5
58001.2
58195.2
57875.8
59624.6
58781
61815
60669.9
63817.7
62921.4
64326.5
64326.4
62922.4
63818.2
60671.6
61816.3
58783.6
59626.7
57879.2
58198.4
58005.6
57819.4
58941.8
58383.3
59682.6
64979.6
65702.3
65323
66518.6
66105.3
67326.9
66929.7
68024.2
67696.6
68511.5
68298.2
68768.9
68665.5
68875.8
68834.6
68935.6
68905.4
69047.2
68978.8
69308
69153.3
69791.5
69519.5
70509.7
70123.2
71414
70943.4
72418.2
71910
73408.7
72923.1
74253.8
73857.4
74861.3
74590.2
75202.7
75066.8
75296.4
75278.4
75227.7
75283.6
75077.8
75147.4
75017.4
75031.7
75071.1
75032.7
75189.9
75126.4
75302.4
75252.2
75336
75329.9
75303.4
75318.3
75425.8
75379.6
106317
106398
105887
106153
105199
105564
104404
104804
103613
104002
102892
103242
102269
102568
101659
101990
101412
101053
101394
101393
100992
101001
100995
100989
101107
101039
101288
101193
101508
101395
101715
101618
101834
101789
101834
101848
101793
104502
103078
106274
111564
111252
112781
111927
117046
114381
129161
121549
176924
143937
255113
1.2633e+06
7.76832e+07
171775
402489
236097
111547
106518
109090
112355
112166
112676
112510
113518
112890
116174
114597
122852
118680
142413
129975
207484
165230
285945
68745.5
73717.8
105100
113392
105780
3.37427e+06
188901
71249
71362.1
95303.6
103945
101448
85873.7
117557
120949
125989
127450
120421
126597
1.43857e+06
109521
100889
97537.3
75567.3
74063.3
69952
101619
7.04276e+07
110114
119957
97725.1
1.48356e+07
97470.4
114067
123503
103862
103675
173872
165603
102652
1.39094e+06
5.99495e+07
123146
100446
520823
119760
80597.4
282602
64668.4
64677.9
75988.4
101642
141934
1.59966e+06
590867
200891
978735
280054
445463
69110.3
880208
98179.5
74394.7
74690.5
77140
103454
101236
113431
119278
104714
104816
88650.6
9.07262e+07
72880.1
105101
105043
103827
103666
102047
88281.1
85745.9
120592
110159
153487
126288
264795
88823.3
74486.7
70976.3
70155.5
70586.1
101887
101914
101918
101914
3.08496e+07
127882
100333
99211.5
95690.2
606306
1.14706e+06
104922
102120
102125
115867
106172
113634
93804.7
83131.1
104046
103412
111994
102823
280044
253952
100249
219942
1.78088e+07
333247
106584
104586
104654
69770.1
92764.5
97327.4
81852.7
101143
97405.1
95759.4
95976
92493.9
113266
126821
108582
110515
4.32814e+07
127133
74438.6
104776
103790
103467
102722
102378
95357.3
88216.3
124720
106726
82797.7
167217
179175
6.73629e+06
94752.6
90662.7
86256.3
84790
72325.3
101690
102553
107028
82900.4
93524.8
102030
113204
402053
81306
171385
154378
84896.5
354373
71761.8
70637.3
90137.9
96818.7
86520.6
98171.4
95039.1
113109
4.16077e+07
167058
106541
100488
76184.7
108156
104417
103676
103326
103315
93563
130180
105245
137946
139625
460115
3.1524e+06
96131.5
77817.7
79363
77060.3
99581.2
103871
103211
104928
119336
3.30206e+06
3.01845e+06
154622
162619
135340
145056
118039
126151
105426
111131
101166
88810
84773.8
86006.2
82916.7
83751.1
81702.2
82231.8
80974.8
81292.4
80574
80730.9
80394.1
80468.5
80284
80338.5
80196.7
80236.6
80147.7
80167.4
80137.4
80139.3
80121.9
80139.7
80010.7
80073.2
79750
79905.2
79271.9
79536.5
78595.7
78955.7
77747.8
78189.7
76836.4
77290.4
76013.2
76404.7
75404.6
75676.3
75076.2
75204.1
75019.5
75017.2
75162.8
75072.1
75409.4
75279.4
75659.2
75540.5
75798.8
75750.6
75715.3
75789.7
75384.3
75577.5
74874.2
75146
74273.5
74580
73677
73968
73166.5
73409.6
72944.8
61738.6
64410.5
59552.7
60441.7
58366.7
58868.3
57926.9
58056.3
58378.5
58029.2
59821.9
58979.4
61965.8
60851.6
63887.9
63030.3
64376.4
64376.4
63031.1
63888.4
60853.1
61966.9
58981.6
59823.7
58032.3
58381.2
58060.6
57930.1
58873.8
58371.5
60449.3
59559.2
64417.3
61746.5
72950.3
73420.8
73176.4
73973.4
73685.8
74577.9
74275.2
75133.8
74867.8
75547.2
75364.2
75730.8
75672
75653.2
75721.7
75399.4
75540.2
75097.6
75246.9
74864
74965.5
74803.3
74806
74996.6
74865.1
75466.1
75198.3
76163.7
75791.5
77002.6
76572.1
77866.7
77440.4
78617.9
78264
79168.3
78921.7
79498.4
79359.4
79655.6
79597.4
79716
79698
79731.9
79715.2
79865
79781.9
80119.9
79981.9
80431.5
80275.3
80694
80580.6
80792.6
80768.9
80641.3
80750.6
80387
80527.4
80611.3
80380.2
81055.9
104618
104572
104746
104728
104542
104674
104104
104344
103534
103829
102912
103226
102300
102599
101798
102034
101391
101603
101043
101199
100842
100927
100767
100788
100793
100768
100907
100841
101070
100984
101237
101156
101373
101312
101441
101416
101437
101447
101376
101412
101384
101347
101619
102326
101849
104548
103156
130380
106274
111705
124992
112508
112117
114104
113007
119787
116269
134367
125239
194052
151809
600101
305130
2.90829e+06
2.51673e+07
134976
229376
684427
348571
111750
109212
113145
112839
114014
113543
115475
114553
118713
116837
126825
121765
150855
135411
239949
181489
355736
69642.1
103687
75667
102409
104661
93028.7
91639
116077
104647
103792
119423
73030.1
72804
105050
103730
101963
85984.8
113862
142362
107220
129764
129313
119971
143563
150731
128089
135670
114342
120882
104342
108920
98451.8
100686
97591.7
89395.8
88866
74784.5
70875.2
101186
101930
96925.3
123879
97628.4
2.35963e+06
151278
133844
112060
104541
102134
385245
102120
101458
116466
85952.7
218705
190310
185750
77435
96488.8
149806
1.31769e+07
103205
3.27545e+07
2.69066e+06
122285
81796.2
413024
281989
164146
101271
207964
3.38667e+07
119352
3.59245e+06
1.19875e+06
431073
277956
136059
451819
975011
103242
103402
70384.9
94091
96294.6
75786.2
76500.9
79740.2
100379
98652
86945.5
89652.6
115805
122399
894244
117349
104050
106205
3.86822e+07
127802
74252.5
113225
103274
131293
104810
104823
103703
103497
102626
89505.8
86607.8
115335
108139
176285
226792
177421
171966
92805.9
196307
164215
138441
193753
165251
195193
81927.1
75835.8
83906.8
76728.5
75668.5
72565.9
71702.8
72197.7
101233
102531
102532
102522
94454.2
131957
100030
99069.3
95783
101917
111134
115759
90678.3
144889
84832
638613
156853
108985
109052
64195.3
72748.9
101348
101629
1.3687e+06
73650.4
150454
84521.6
71282.1
91015.8
95844.7
83968
97770.2
94938.4
91964.4
115502
130146
129243
108698
107139
102269
3.33964e+06
76132.1
96020.4
104603
103714
103333
103229
96823.2
89703.7
117581
105599
128458
156051
144147
105822
163656
155717
540831
305888
79358.4
83750.9
824359
1.65905e+06
74682.5
100679
103219
103127
105507
140549
93553.4
102221
86361.6
72399.6
87776.5
95430.6
94844.6
152588
115428
239409
6.67449e+06
77745.6
83235.9
80781.8
97840.1
104288
103613
103157
94257.8
120959
104642
125904
150628
104761
102099
102414
6.64862e+06
6.60821e+06
5.11767e+06
110274
112572
104167
102196
118147
115214
150205
816198
1.00433e+06
134864
132579
135770
219727
190707
201087
165369
178261
143042
153406
128298
134652
121917
124860
113378
117179
115823
112820
89811.4
114991
107049
1.52162e+06
116231
116738
114714
116353
109706
111937
106787
108086
105045
105779
103929
104409
103329
103583
102906
103096
102473
102699
101933
102217
101317
101625
100740
101015
100268
100498
99823.6
100037
99352.3
99593.2
98837.6
99096.1
98332.9
98578.3
97878.1
98097
97566.3
97695
97543.9
97510.1
97938
97683.7
98795.2
98309.9
100055
99382.6
101576
100793
103197
102384
104765
103997
106114
105477
107114
106661
107782
107484
108221
108024
108519
108383
108767
108643
108888
72747.5
61566
64192.9
59488.4
60325.3
58398.3
58852.3
58066.1
58140
58561.4
58196.5
59989.5
59164.6
62056.1
60987.6
63873.2
63064.8