/*--------------------------------*- C++ -*----------------------------------*\
| =========                 |                                                 |
| \\      /  F ield         | OpenFOAM: The Open Source CFD Toolbox           |
|  \\    /   O peration     | Version:  2212                                  |
|   \\  /    A nd           | Website:  www.openfoam.com                      |
|    \\/     M anipulation  |                                                 |
\*---------------------------------------------------------------------------*/
FoamFile
{
    version     2.0;
    format      ascii;
    arch        "LSB;label=32;scalar=64";
    class       volScalarField;
    location    "0.461";
    object      s;
}
// * * * * * * * * * * * * * * * * * * * * * * * * * * * * * * * * * * * * * //

dimensions      [0 0 0 0 0 0 0];

internalField   nonuniform List<scalar> 
24240
(
5.91141e-69
5.90031e-69
5.93906e-69
5.87738e-69
5.85968e-69
5.95566e-69
5.92728e-69
5.80832e-69
5.85094e-69
6.00396e-69
5.89104e-69
5.98359e-69
5.92941e-69
5.99849e-69
5.85929e-69
6.02569e-69
5.84947e-69
5.91128e-69
5.8786e-69
5.72603e-69
1.83491e-66
1.8324e-66
1.8442e-66
1.82528e-66
1.81938e-66
1.84932e-66
1.84046e-66
1.80372e-66
1.81695e-66
1.86427e-66
1.82936e-66
1.85769e-66
1.84154e-66
1.86253e-66
1.81967e-66
1.87087e-66
1.81686e-66
1.83583e-66
1.82556e-66
1.77782e-66
2.84168e-64
2.83919e-64
2.85711e-64
2.82814e-64
2.81839e-64
2.86497e-64
2.8512e-64
2.7946e-64
2.8151e-64
2.8881e-64
2.83427e-64
2.87752e-64
2.85355e-64
2.88536e-64
2.81951e-64
2.89809e-64
2.81555e-64
2.84458e-64
2.8285e-64
2.75403e-64
2.58821e-62
2.5872e-62
2.60318e-62
2.57707e-62
2.56764e-62
2.61025e-62
2.59766e-62
2.54638e-62
2.56507e-62
2.63125e-62
2.58245e-62
2.62124e-62
2.60037e-62
2.62867e-62
2.56919e-62
2.64006e-62
2.56593e-62
2.59202e-62
2.57726e-62
2.50897e-62
1.66277e-60
1.66291e-60
1.67294e-60
1.65634e-60
1.64993e-60
1.67742e-60
1.66931e-60
1.63655e-60
1.64859e-60
1.69088e-60
1.65971e-60
1.68422e-60
1.67145e-60
1.68919e-60
1.6513e-60
1.69635e-60
1.64945e-60
1.66597e-60
1.65643e-60
1.61233e-60
7.4044e-59
7.40826e-59
7.45183e-59
7.37863e-59
7.34855e-59
7.47135e-59
7.43519e-59
7.29019e-59
7.34405e-59
7.5311e-59
7.39317e-59
7.50034e-59
7.44633e-59
7.52322e-59
7.35607e-59
7.55429e-59
7.34894e-59
7.42125e-59
7.37868e-59
7.18171e-59
2.2967e-57
2.29889e-57
2.31202e-57
2.28953e-57
2.27972e-57
2.31791e-57
2.30671e-57
2.26204e-57
2.2789e-57
2.33639e-57
2.29398e-57
2.32652e-57
2.31072e-57
2.33384e-57
2.28254e-57
2.34315e-57
2.28071e-57
2.30267e-57
2.28951e-57
2.22839e-57
4.60164e-56
4.60754e-56
4.633e-56
4.58827e-56
4.56773e-56
4.64426e-56
4.62195e-56
4.53315e-56
4.56756e-56
4.68106e-56
4.59721e-56
4.6607e-56
4.63093e-56
4.67567e-56
4.57412e-56
4.69334e-56
4.57139e-56
4.61413e-56
4.58812e-56
4.46669e-56
2.72193e-55
2.72684e-55
2.74147e-55
2.71515e-55
2.70251e-55
2.74756e-55
2.73464e-55
2.6827e-55
2.70397e-55
2.7692e-55
2.7209e-55
2.75689e-55
2.74059e-55
2.76572e-55
2.70674e-55
2.7752e-55
2.70587e-55
2.72992e-55
2.71499e-55
2.64412e-55
6.59924e-56
6.60997e-56
6.66506e-56
6.56748e-56
6.55411e-56
6.6006e-56
6.60593e-56
6.50457e-56
6.66668e-56
6.63596e-56
6.64389e-56
6.63613e-56
6.60094e-56
6.60734e-56
6.52098e-56
6.55721e-56
6.56647e-56
6.54464e-56
6.55989e-56
6.55771e-56
1.23845e-55
1.24378e-55
1.25672e-55
1.23395e-55
1.22978e-55
1.23023e-55
1.23813e-55
1.2239e-55
1.25544e-55
1.25209e-55
1.25488e-55
1.2443e-55
1.24505e-55
1.23502e-55
1.22659e-55
1.23189e-55
1.22005e-55
1.22586e-55
1.23263e-55
1.22795e-55
1.31384e-55
1.31967e-55
1.3287e-55
1.30524e-55
1.30942e-55
1.29808e-55
1.3197e-55
1.30876e-55
1.31418e-55
1.33784e-55
1.32253e-55
1.30384e-55
1.32728e-55
1.31913e-55
1.31342e-55
1.32186e-55
1.28701e-55
1.30713e-55
1.30165e-55
1.29899e-55
1.59337e-55
1.59858e-55
1.60616e-55
1.60874e-55
1.6123e-55
1.62595e-55
1.63369e-55
1.61949e-55
1.6127e-55
1.59411e-55
1.59424e-55
1.59832e-55
1.61327e-55
1.6169e-55
1.60012e-55
1.60755e-55
1.60684e-55
1.60473e-55
1.59037e-55
1.59811e-55
1.67056e-55
1.65816e-55
1.66569e-55
1.68976e-55
1.68342e-55
1.69959e-55
1.67068e-55
1.70499e-55
1.65895e-55
1.64817e-55
1.64657e-55
1.66252e-55
1.65978e-55
1.64481e-55
1.64131e-55
1.6557e-55
1.63661e-55
1.66263e-55
1.6547e-55
1.67096e-55
1.76295e-55
1.75603e-55
1.77885e-55
1.75828e-55
1.7606e-55
1.78846e-55
1.77049e-55
1.80148e-55
1.7667e-55
1.79193e-55
1.77643e-55
1.78237e-55
1.7837e-55
1.80015e-55
1.78013e-55
1.80665e-55
1.77297e-55
1.75413e-55
1.77297e-55
1.7563e-55
1.71732e-55
1.70554e-55
1.69371e-55
1.69999e-55
1.7131e-55
1.72526e-55
1.71969e-55
1.71526e-55
1.69273e-55
1.69653e-55
1.67842e-55
1.71546e-55
1.72256e-55
1.7317e-55
1.73409e-55
1.72085e-55
1.71776e-55
1.7249e-55
1.71149e-55
1.71315e-55
1.6232e-55
1.65023e-55
1.62513e-55
1.66087e-55
1.61697e-55
1.64711e-55
1.62354e-55
1.64725e-55
1.63159e-55
1.64643e-55
1.63277e-55
1.66948e-55
1.63574e-55
1.67195e-55
1.63833e-55
1.64376e-55
1.65414e-55
1.62042e-55
1.65801e-55
1.65645e-55
1.45375e-55
1.48866e-55
1.48294e-55
1.46624e-55
1.45784e-55
1.49768e-55
1.47335e-55
1.48316e-55
1.476e-55
1.4561e-55
1.46763e-55
1.49042e-55
1.46873e-55
1.50581e-55
1.47087e-55
1.49002e-55
1.49002e-55
1.48126e-55
1.49253e-55
1.50048e-55
1.45439e-55
1.45564e-55
1.4618e-55
1.47165e-55
1.47019e-55
1.4707e-55
1.44449e-55
1.48003e-55
1.48429e-55
1.45618e-55
1.4778e-55
1.48878e-55
1.44635e-55
1.4918e-55
1.48879e-55
1.50759e-55
1.47962e-55
1.48271e-55
1.46949e-55
1.49287e-55
8.64895e-56
8.72808e-56
8.73547e-56
8.63991e-56
8.69521e-56
8.68082e-56
8.68633e-56
8.72018e-56
8.61449e-56
8.77282e-56
8.59328e-56
8.77423e-56
8.6161e-56
8.8643e-56
8.63902e-56
8.65412e-56
8.65096e-56
8.80878e-56
8.69879e-56
8.85359e-56
1.14544e-67
1.14386e-67
1.15129e-67
1.1395e-67
1.13586e-67
1.15458e-67
1.14906e-67
1.12613e-67
1.13437e-67
1.16399e-67
1.14215e-67
1.15988e-67
1.14974e-67
1.16287e-67
1.13605e-67
1.16806e-67
1.13419e-67
1.14606e-67
1.13961e-67
1.10971e-67
3.5035e-65
3.50052e-65
3.52279e-65
3.48716e-65
3.47524e-65
3.53278e-65
3.51581e-65
3.44601e-65
3.47121e-65
3.56146e-65
3.49493e-65
3.54841e-65
3.51869e-65
3.55797e-65
3.47661e-65
3.57367e-65
3.4714e-65
3.50727e-65
3.48733e-65
3.39509e-65
5.3413e-63
5.33949e-63
5.37277e-63
5.31903e-63
5.29973e-63
5.38783e-63
5.36188e-63
5.25601e-63
5.29446e-63
5.4315e-63
5.33053e-63
5.41086e-63
5.36754e-63
5.42609e-63
5.30307e-63
5.44968e-63
5.29588e-63
5.34989e-63
5.3192e-63
5.17746e-63
4.80619e-61
4.80699e-61
4.8363e-61
4.78844e-61
4.77005e-61
4.84965e-61
4.82621e-61
4.73144e-61
4.76608e-61
4.88881e-61
4.79839e-61
4.86954e-61
4.83237e-61
4.88379e-61
4.77403e-61
4.90463e-61
4.76821e-61
4.81615e-61
4.78834e-61
4.65987e-61
3.04034e-59
3.04235e-59
3.06045e-59
3.03048e-59
3.0182e-59
3.06875e-59
3.05389e-59
2.99429e-59
3.01627e-59
3.09348e-59
3.03661e-59
3.08085e-59
3.05852e-59
3.09022e-59
3.02141e-59
3.10314e-59
3.01818e-59
3.04806e-59
3.03039e-59
2.94864e-59
1.33649e-57
1.33798e-57
1.34573e-57
1.33267e-57
1.327e-57
1.34929e-57
1.34275e-57
1.31671e-57
1.32641e-57
1.36012e-57
1.33528e-57
1.35438e-57
1.34508e-57
1.35863e-57
1.32867e-57
1.36416e-57
1.32745e-57
1.34036e-57
1.33259e-57
1.29652e-57
4.08642e-56
4.0928e-56
4.11579e-56
4.07624e-56
4.05806e-56
4.12638e-56
4.10641e-56
4.02732e-56
4.05727e-56
4.15941e-56
4.08411e-56
4.14124e-56
4.11451e-56
4.15466e-56
4.06402e-56
4.17097e-56
4.06096e-56
4.0996e-56
4.07595e-56
3.96557e-56
8.06527e-55
8.08055e-55
8.12441e-55
8.04686e-55
8.00945e-55
8.14426e-55
8.10512e-55
7.95022e-55
8.01045e-55
8.20907e-55
8.06246e-55
8.17218e-55
8.12278e-55
8.1992e-55
8.02252e-55
8.22969e-55
8.01811e-55
8.09216e-55
8.04623e-55
7.83008e-55
4.7039e-54
4.7153e-54
4.74012e-54
4.69511e-54
4.67244e-54
4.75067e-54
4.72832e-54
4.63899e-54
4.67569e-54
4.78827e-54
4.70498e-54
4.76628e-54
4.73975e-54
4.782e-54
4.68084e-54
4.79811e-54
4.67953e-54
4.72061e-54
4.69466e-54
4.57014e-54
1.10198e-54
1.10383e-54
1.11313e-54
1.09675e-54
1.09446e-54
1.10205e-54
1.103e-54
1.08628e-54
1.11345e-54
1.10821e-54
1.10961e-54
1.10804e-54
1.10245e-54
1.10324e-54
1.08908e-54
1.09477e-54
1.09642e-54
1.09281e-54
1.09547e-54
1.09508e-54
2.09842e-54
2.10735e-54
2.12932e-54
2.09062e-54
2.08377e-54
2.08429e-54
2.09769e-54
2.07387e-54
2.12697e-54
2.12162e-54
2.12608e-54
2.10797e-54
2.10964e-54
2.09269e-54
2.07851e-54
2.08731e-54
2.06713e-54
2.07692e-54
2.08847e-54
2.08018e-54
2.21311e-54
2.22275e-54
2.23808e-54
2.19876e-54
2.20587e-54
2.18718e-54
2.22337e-54
2.2052e-54
2.21352e-54
2.2532e-54
2.22739e-54
2.19609e-54
2.23563e-54
2.22226e-54
2.21264e-54
2.22681e-54
2.16872e-54
2.20183e-54
2.193e-54
2.18834e-54
2.69334e-54
2.70151e-54
2.71462e-54
2.7194e-54
2.72525e-54
2.74847e-54
2.76044e-54
2.73752e-54
2.72566e-54
2.69413e-54
2.69438e-54
2.7015e-54
2.72647e-54
2.73212e-54
2.70453e-54
2.71667e-54
2.71535e-54
2.71236e-54
2.68813e-54
2.70131e-54
2.81149e-54
2.79042e-54
2.8032e-54
2.84311e-54
2.83271e-54
2.86003e-54
2.81132e-54
2.86913e-54
2.79149e-54
2.77423e-54
2.7712e-54
2.798e-54
2.79326e-54
2.76821e-54
2.76273e-54
2.78664e-54
2.75455e-54
2.79791e-54
2.78526e-54
2.81173e-54
2.97801e-54
2.96637e-54
3.00451e-54
2.96959e-54
2.97425e-54
3.02081e-54
2.99049e-54
3.04254e-54
2.98451e-54
3.02698e-54
3.00055e-54
3.01044e-54
3.01302e-54
3.04118e-54
3.00725e-54
3.05137e-54
2.99514e-54
2.96319e-54
2.99502e-54
2.96648e-54
2.88867e-54
2.86961e-54
2.8491e-54
2.86007e-54
2.88159e-54
2.90195e-54
2.89263e-54
2.88529e-54
2.84809e-54
2.85399e-54
2.82364e-54
2.88566e-54
2.89775e-54
2.91262e-54
2.91706e-54
2.89424e-54
2.88972e-54
2.9018e-54
2.87946e-54
2.88222e-54
2.74331e-54
2.78912e-54
2.7468e-54
2.80657e-54
2.73245e-54
2.78298e-54
2.74352e-54
2.78341e-54
2.75739e-54
2.78258e-54
2.75934e-54
2.82139e-54
2.76425e-54
2.82515e-54
2.76892e-54
2.77731e-54
2.79545e-54
2.73857e-54
2.80188e-54
2.79928e-54
2.45086e-54
2.50892e-54
2.49974e-54
2.47146e-54
2.45773e-54
2.52398e-54
2.4832e-54
2.4997e-54
2.48799e-54
2.45428e-54
2.47383e-54
2.51183e-54
2.47573e-54
2.53753e-54
2.47954e-54
2.51145e-54
2.5112e-54
2.49685e-54
2.51521e-54
2.52882e-54
2.47062e-54
2.47259e-54
2.48341e-54
2.49976e-54
2.49717e-54
2.49782e-54
2.45362e-54
2.51421e-54
2.52088e-54
2.47362e-54
2.51017e-54
2.5288e-54
2.45708e-54
2.53372e-54
2.529e-54
2.5603e-54
2.51351e-54
2.5181e-54
2.49584e-54
2.53516e-54
1.46094e-54
1.47438e-54
1.47576e-54
1.45947e-54
1.46865e-54
1.46628e-54
1.4672e-54
1.47299e-54
1.45484e-54
1.4817e-54
1.45144e-54
1.48183e-54
1.45546e-54
1.4971e-54
1.45921e-54
1.46172e-54
1.46115e-54
1.48769e-54
1.4693e-54
1.4952e-54
2.11288e-66
2.11114e-66
2.12467e-66
2.10324e-66
2.09611e-66
2.13089e-66
2.12068e-66
2.07859e-66
2.09375e-66
2.14832e-66
2.10812e-66
2.14044e-66
2.12244e-66
2.14614e-66
2.09698e-66
2.15559e-66
2.09365e-66
2.11531e-66
2.10319e-66
2.04736e-66
6.35872e-64
6.35695e-64
6.39685e-64
6.33309e-64
6.31024e-64
6.41537e-64
6.3845e-64
6.25845e-64
6.30409e-64
6.46769e-64
6.3472e-64
6.44305e-64
6.39127e-64
6.461e-64
6.31428e-64
6.48907e-64
6.30513e-64
6.36953e-64
6.33272e-64
6.1631e-64
9.53677e-62
9.5392e-62
9.59783e-62
9.5032e-62
9.46692e-62
9.62524e-62
9.57878e-62
9.39071e-62
9.45923e-62
9.70357e-62
9.5237e-62
9.6653e-62
9.59124e-62
9.6934e-62
9.47521e-62
9.73489e-62
9.46283e-62
9.55819e-62
9.50256e-62
9.24596e-62
8.46706e-60
8.47367e-60
8.52458e-60
8.44139e-60
8.40739e-60
8.54849e-60
8.5071e-60
8.341e-60
8.40193e-60
8.61781e-60
8.45889e-60
8.58257e-60
8.52005e-60
8.60851e-60
8.41647e-60
8.64467e-60
8.40665e-60
8.49015e-60
8.44047e-60
8.21083e-60
5.26822e-58
5.27504e-58
5.30595e-58
5.25467e-58
5.23242e-58
5.32052e-58
5.29473e-58
5.19197e-58
5.23e-58
5.36357e-58
5.26526e-58
5.34088e-58
5.30406e-58
5.35764e-58
5.23926e-58
5.37967e-58
5.23393e-58
5.28509e-58
5.25409e-58
5.11027e-58
2.28275e-56
2.28679e-56
2.29982e-56
2.2778e-56
2.26769e-56
2.30597e-56
2.29479e-56
2.25052e-56
2.26708e-56
2.32456e-56
2.28224e-56
2.31439e-56
2.29933e-56
2.32189e-56
2.27109e-56
2.33118e-56
2.26912e-56
2.29091e-56
2.27749e-56
2.2149e-56
6.87227e-55
6.88758e-55
6.9256e-55
6.85986e-55
6.82801e-55
6.94353e-55
6.90992e-55
6.77756e-55
6.82787e-55
6.99933e-55
6.87304e-55
6.96769e-55
6.92526e-55
6.99098e-55
6.83971e-55
7.01796e-55
6.83492e-55
6.89909e-55
6.85897e-55
6.67025e-55
1.33407e-53
1.3375e-53
1.34462e-53
1.33193e-53
1.3255e-53
1.34791e-53
1.34143e-53
1.31594e-53
1.32589e-53
1.35868e-53
1.3345e-53
1.35237e-53
1.34469e-53
1.35698e-53
1.32799e-53
1.36194e-53
1.32732e-53
1.33942e-53
1.33177e-53
1.2954e-53
7.66343e-53
7.68723e-53
7.72684e-53
7.65425e-53
7.61597e-53
7.74403e-53
7.7076e-53
7.56279e-53
7.62251e-53
7.8056e-53
7.67025e-53
7.76854e-53
7.72818e-53
7.79498e-53
7.63151e-53
7.82075e-53
7.6297e-53
7.69577e-53
7.65331e-53
7.44673e-53
1.73154e-53
1.73454e-53
1.74931e-53
1.72344e-53
1.71974e-53
1.73139e-53
1.73298e-53
1.70704e-53
1.74986e-53
1.7415e-53
1.7438e-53
1.7409e-53
1.73258e-53
1.73338e-53
1.71155e-53
1.7199e-53
1.72264e-53
1.71704e-53
1.72139e-53
1.72072e-53
3.3472e-53
3.36131e-53
3.39641e-53
3.33447e-53
3.32392e-53
3.32436e-53
3.34574e-53
3.30821e-53
3.39238e-53
3.38435e-53
3.39103e-53
3.36187e-53
3.36516e-53
3.33821e-53
3.31579e-53
3.32949e-53
3.29716e-53
3.31263e-53
3.33121e-53
3.31738e-53
3.50969e-53
3.5247e-53
3.54921e-53
3.48719e-53
3.49859e-53
3.46967e-53
3.52664e-53
3.49822e-53
3.51012e-53
3.57267e-53
3.53177e-53
3.48247e-53
3.54519e-53
3.5246e-53
3.50935e-53
3.53171e-53
3.44073e-53
3.49184e-53
3.47855e-53
3.47087e-53
4.28725e-53
4.29921e-53
4.32057e-53
4.3288e-53
4.33787e-53
4.37497e-53
4.39226e-53
4.35757e-53
4.33805e-53
4.28781e-53
4.28822e-53
4.29983e-53
4.33917e-53
4.3473e-53
4.30473e-53
4.32334e-53
4.32094e-53
4.3172e-53
4.27874e-53
4.29979e-53
4.45772e-53
4.42403e-53
4.44443e-53
4.50676e-53
4.49074e-53
4.5342e-53
4.45687e-53
4.54862e-53
4.42525e-53
4.39932e-53
4.39397e-53
4.4364e-53
4.42869e-53
4.38927e-53
4.3812e-53
4.41856e-53
4.36783e-53
4.43585e-53
4.41692e-53
4.45739e-53
4.74035e-53
4.72192e-53
4.78192e-53
4.72611e-53
4.73473e-53
4.80797e-53
4.75984e-53
4.84209e-53
4.75101e-53
4.81829e-53
4.77583e-53
4.79132e-53
4.796e-53
4.84134e-53
4.78719e-53
4.85627e-53
4.76792e-53
4.71692e-53
4.76756e-53
4.72153e-53
4.58147e-53
4.55252e-53
4.51909e-53
4.53708e-53
4.57029e-53
4.60246e-53
4.58773e-53
4.57636e-53
4.51853e-53
4.52706e-53
4.47913e-53
4.57695e-53
4.5964e-53
4.6191e-53
4.62679e-53
4.58978e-53
4.58371e-53
4.60282e-53
4.56792e-53
4.57218e-53
4.3728e-53
4.44588e-53
4.37871e-53
4.47276e-53
4.35492e-53
4.43473e-53
4.37248e-53
4.43571e-53
4.39496e-53
4.43523e-53
4.39794e-53
4.49687e-53
4.40572e-53
4.5022e-53
4.41367e-53
4.42567e-53
4.45555e-53
4.36522e-53
4.46558e-53
4.46151e-53
3.89932e-53
3.99041e-53
3.97651e-53
3.93145e-53
3.91021e-53
4.01407e-53
3.94962e-53
3.97582e-53
3.95773e-53
3.90397e-53
3.93518e-53
3.99501e-53
3.93825e-53
4.03544e-53
3.94466e-53
3.99474e-53
3.99401e-53
3.97182e-53
4e-53
4.02199e-53
3.96249e-53
3.96541e-53
3.98336e-53
4.0089e-53
4.00452e-53
4.00528e-53
3.93495e-53
4.03244e-53
4.04213e-53
3.9672e-53
4.02553e-53
4.05537e-53
3.94104e-53
4.06294e-53
4.05597e-53
4.10506e-53
4.03133e-53
4.03756e-53
4.00225e-53
4.06459e-53
2.32955e-53
2.35103e-53
2.3535e-53
2.32732e-53
2.34168e-53
2.33797e-53
2.33937e-53
2.3488e-53
2.3194e-53
2.36235e-53
2.31429e-53
2.36243e-53
2.32089e-53
2.38683e-53
2.32676e-53
2.3307e-53
2.32968e-53
2.37179e-53
2.34275e-53
2.38367e-53
3.89833e-65
3.89736e-65
3.92201e-65
3.88305e-65
3.86916e-65
3.93376e-65
3.91486e-65
3.8376e-65
3.86553e-65
3.96607e-65
3.89207e-65
3.95095e-65
3.91906e-65
3.96184e-65
3.87172e-65
3.979e-65
3.86574e-65
3.90526e-65
3.88253e-65
3.77814e-65
1.15462e-62
1.15499e-62
1.16214e-62
1.15073e-62
1.14636e-62
1.16557e-62
1.15995e-62
1.13718e-62
1.14545e-62
1.17512e-62
1.15329e-62
1.17047e-62
1.16147e-62
1.17384e-62
1.14738e-62
1.17886e-62
1.14577e-62
1.15733e-62
1.15054e-62
1.11931e-62
1.70318e-60
1.70467e-60
1.715e-60
1.69833e-60
1.69153e-60
1.71998e-60
1.71167e-60
1.67825e-60
1.69047e-60
1.73403e-60
1.70199e-60
1.72694e-60
1.71431e-60
1.73213e-60
1.69343e-60
1.73942e-60
1.6913e-60
1.70813e-60
1.69805e-60
1.65155e-60
1.49071e-58
1.49284e-58
1.50168e-58
1.48722e-58
1.48096e-58
1.50594e-58
1.49865e-58
1.46955e-58
1.48026e-58
1.51821e-58
1.4903e-58
1.51177e-58
1.5013e-58
1.51649e-58
1.48292e-58
1.52275e-58
1.48127e-58
1.49579e-58
1.48693e-58
1.44588e-58
9.12053e-57
9.13841e-57
9.19111e-57
9.10345e-57
9.06324e-57
9.21663e-57
9.17192e-57
8.99491e-57
9.06067e-57
9.29149e-57
9.12174e-57
9.2508e-57
9.19034e-57
9.28073e-57
9.0773e-57
9.31826e-57
9.06854e-57
9.15603e-57
9.10176e-57
8.84874e-57
3.89234e-55
3.90188e-55
3.92374e-55
3.88663e-55
3.86869e-55
3.93432e-55
3.91523e-55
3.84013e-55
3.86834e-55
3.96616e-55
3.8942e-55
3.94821e-55
3.92396e-55
3.9614e-55
3.87544e-55
3.97698e-55
3.87229e-55
3.90896e-55
3.88587e-55
3.77735e-55
1.15346e-53
1.15684e-53
1.16311e-53
1.1522e-53
1.14665e-53
1.16613e-53
1.16049e-53
1.13838e-53
1.14682e-53
1.17554e-53
1.1544e-53
1.17005e-53
1.16335e-53
1.17408e-53
1.14889e-53
1.17853e-53
1.14815e-53
1.15878e-53
1.15199e-53
1.11976e-53
2.20103e-52
2.20825e-52
2.21976e-52
2.19905e-52
2.18805e-52
2.22521e-52
2.21451e-52
2.17266e-52
2.18907e-52
2.24306e-52
2.20327e-52
2.23229e-52
2.22045e-52
2.24013e-52
2.19268e-52
2.24817e-52
2.1917e-52
2.2114e-52
2.19871e-52
2.13762e-52
1.24506e-51
1.24982e-51
1.25611e-51
1.24444e-51
1.238e-51
1.2589e-51
1.25298e-51
1.22957e-51
1.23926e-51
1.26895e-51
1.24702e-51
1.26273e-51
1.25664e-51
1.26716e-51
1.24082e-51
1.27127e-51
1.24058e-51
1.25117e-51
1.24426e-51
1.21005e-51
2.71077e-52
2.71558e-52
2.73897e-52
2.69822e-52
2.69229e-52
2.71006e-52
2.71274e-52
2.67265e-52
2.73992e-52
2.72659e-52
2.73035e-52
2.72511e-52
2.71284e-52
2.71338e-52
2.67988e-52
2.69203e-52
2.69652e-52
2.68787e-52
2.69498e-52
2.69383e-52
5.32328e-52
5.34552e-52
5.40144e-52
5.30259e-52
5.28639e-52
5.28649e-52
5.32051e-52
5.26158e-52
5.39454e-52
5.38259e-52
5.39251e-52
5.34569e-52
5.35194e-52
5.30923e-52
5.27389e-52
5.29516e-52
5.24352e-52
5.26786e-52
5.29768e-52
5.2747e-52
5.55056e-52
5.57385e-52
5.61292e-52
5.51542e-52
5.53363e-52
5.48905e-52
5.57847e-52
5.53413e-52
5.55093e-52
5.64921e-52
5.58457e-52
5.50717e-52
5.60638e-52
5.57476e-52
5.55069e-52
5.58588e-52
5.4438e-52
5.52245e-52
5.50252e-52
5.4899e-52
6.8066e-52
6.82397e-52
6.85865e-52
6.87268e-52
6.8867e-52
6.94582e-52
6.97048e-52
6.91824e-52
6.88623e-52
6.8064e-52
6.80707e-52
6.82597e-52
6.88775e-52
6.89922e-52
6.83384e-52
6.86224e-52
6.85792e-52
6.85362e-52
6.79276e-52
6.82627e-52
7.05404e-52
7.00028e-52
7.03276e-52
7.12989e-52
7.10531e-52
7.17434e-52
7.0517e-52
7.19712e-52
7.00143e-52
6.96266e-52
6.95335e-52
7.02035e-52
7.00785e-52
6.94593e-52
6.93417e-52
6.99242e-52
6.91238e-52
7.01885e-52
6.99072e-52
7.0524e-52
7.5314e-52
7.5024e-52
7.59658e-52
7.50746e-52
7.5231e-52
7.638e-52
7.56188e-52
7.69146e-52
7.54898e-52
7.6553e-52
7.58724e-52
7.61143e-52
7.61983e-52
7.6926e-52
7.6064e-52
7.71425e-52
7.57579e-52
7.49453e-52
7.57495e-52
7.50081e-52
7.25924e-52
7.21544e-52
7.16102e-52
7.19046e-52
7.2416e-52
7.29237e-52
7.26915e-52
7.25158e-52
7.16183e-52
7.17398e-52
7.09838e-52
7.25253e-52
7.28376e-52
7.31832e-52
7.33155e-52
7.27159e-52
7.26375e-52
7.29383e-52
7.23948e-52
7.24605e-52
6.96388e-52
7.08036e-52
6.97386e-52
7.12165e-52
6.93448e-52
7.0604e-52
6.96228e-52
7.06242e-52
6.99873e-52
7.06304e-52
7.00326e-52
7.16081e-52
7.01558e-52
7.16828e-52
7.02901e-52
7.04595e-52
7.0951e-52
6.95179e-52
7.11069e-52
7.10431e-52
6.20365e-52
6.34655e-52
6.32553e-52
6.25374e-52
6.22095e-52
6.38368e-52
6.28192e-52
6.32342e-52
6.29552e-52
6.20978e-52
6.25964e-52
6.3538e-52
6.26462e-52
6.41742e-52
6.27533e-52
6.35388e-52
6.35225e-52
6.31795e-52
6.36117e-52
6.39662e-52
6.35491e-52
6.35923e-52
6.38896e-52
6.42879e-52
6.42143e-52
6.42218e-52
6.31034e-52
6.46712e-52
6.48104e-52
6.36228e-52
6.45536e-52
6.50315e-52
6.32095e-52
6.5148e-52
6.50457e-52
6.5815e-52
6.46541e-52
6.47356e-52
6.4176e-52
6.51638e-52
3.71114e-52
3.7454e-52
3.74975e-52
3.70778e-52
3.73022e-52
3.72436e-52
3.72651e-52
3.74187e-52
3.69432e-52
3.76292e-52
3.68667e-52
3.76284e-52
3.69747e-52
3.80179e-52
3.70668e-52
3.71286e-52
3.71104e-52
3.77778e-52
3.73196e-52
3.79652e-52
7.19096e-64
7.19351e-64
7.23842e-64
7.16757e-64
7.14058e-64
7.26052e-64
7.2256e-64
7.08379e-64
7.13524e-64
7.32042e-64
7.18424e-64
7.29145e-64
7.23511e-64
7.3122e-64
7.14707e-64
7.34335e-64
7.13638e-64
7.20842e-64
7.16582e-64
6.97055e-64
2.09575e-61
2.09774e-61
2.11055e-61
2.09012e-61
2.0818e-61
2.11689e-61
2.10667e-61
2.06554e-61
2.08054e-61
2.1343e-61
2.09478e-61
2.12554e-61
2.10994e-61
2.13186e-61
2.08416e-61
2.14082e-61
2.08134e-61
2.10207e-61
2.08957e-61
2.03204e-61
3.03979e-59
3.04443e-59
3.06262e-59
3.03326e-59
3.02056e-59
3.07164e-59
3.05678e-59
2.99743e-59
3.01921e-59
3.09684e-59
3.03979e-59
3.08371e-59
3.06225e-59
3.09326e-59
3.02469e-59
3.10607e-59
3.02104e-59
3.05071e-59
3.03249e-59
2.9482e-59
2.62186e-57
2.62737e-57
2.64268e-57
2.61758e-57
2.60608e-57
2.65028e-57
2.63743e-57
2.58651e-57
2.60534e-57
2.67195e-57
2.623e-57
2.66023e-57
2.64275e-57
2.66879e-57
2.61018e-57
2.67963e-57
2.60741e-57
2.63263e-57
2.61687e-57
2.54348e-57
1.57699e-55
1.58118e-55
1.59015e-55
1.57518e-55
1.56794e-55
1.59461e-55
1.58687e-55
1.55641e-55
1.56777e-55
1.60761e-55
1.57834e-55
1.60032e-55
1.59045e-55
1.60566e-55
1.57075e-55
1.61204e-55
1.56932e-55
1.58425e-55
1.57478e-55
1.53028e-55
6.62511e-54
6.64611e-54
6.68269e-54
6.62026e-54
6.58852e-54
6.70081e-54
6.6683e-54
6.5411e-54
6.58909e-54
6.75524e-54
6.63312e-54
6.72364e-54
6.68484e-54
6.74679e-54
6.60163e-54
6.77286e-54
6.59663e-54
6.65822e-54
6.61859e-54
6.43061e-54
1.93185e-52
1.93893e-52
1.94923e-52
1.93116e-52
1.92151e-52
1.95431e-52
1.94486e-52
1.90802e-52
1.92214e-52
1.97014e-52
1.93484e-52
1.96063e-52
1.95015e-52
1.96758e-52
1.92574e-52
1.97491e-52
1.9246e-52
1.94216e-52
1.93073e-52
1.87575e-52
3.62165e-51
3.6362e-51
3.65475e-51
3.62102e-51
3.60227e-51
3.6637e-51
3.64611e-51
3.57758e-51
3.60457e-51
3.69321e-51
3.62794e-51
3.6749e-51
3.65681e-51
3.6882e-51
3.61078e-51
3.70117e-51
3.60936e-51
3.64132e-51
3.62035e-51
3.51793e-51
2.01689e-50
2.02611e-50
2.03608e-50
2.01734e-50
2.00656e-50
2.04057e-50
2.03098e-50
1.99324e-50
2.00894e-50
2.05694e-50
2.02151e-50
2.04651e-50
2.03744e-50
2.05392e-50
2.01163e-50
2.06044e-50
2.01133e-50
2.02825e-50
2.01702e-50
1.9605e-50
4.23004e-51
4.23772e-51
4.27463e-51
4.21063e-51
4.20122e-51
4.22816e-51
4.23264e-51
4.17092e-51
4.27621e-51
4.25511e-51
4.26119e-51
4.25192e-51
4.23397e-51
4.23368e-51
4.18247e-51
4.20003e-51
4.20727e-51
4.19396e-51
4.20555e-51
4.20355e-51
8.43887e-51
8.47383e-51
8.56264e-51
8.40538e-51
8.38066e-51
8.37986e-51
8.43383e-51
8.34158e-51
8.55095e-51
8.53329e-51
8.5479e-51
8.47296e-51
8.48449e-51
8.417e-51
8.36149e-51
8.39439e-51
8.31228e-51
8.35033e-51
8.3981e-51
8.36004e-51
8.75176e-51
8.7878e-51
8.84992e-51
8.69716e-51
8.7261e-51
8.65774e-51
8.79758e-51
8.72859e-51
8.75201e-51
8.90577e-51
8.80404e-51
8.6829e-51
8.8393e-51
8.79091e-51
8.75307e-51
8.80822e-51
8.58719e-51
8.70769e-51
8.67802e-51
8.65738e-51
1.07749e-50
1.07999e-50
1.0856e-50
1.08796e-50
1.09013e-50
1.09951e-50
1.10298e-50
1.09515e-50
1.08993e-50
1.0773e-50
1.0774e-50
1.08046e-50
1.09014e-50
1.09172e-50
1.08173e-50
1.08604e-50
1.08526e-50
1.08485e-50
1.07525e-50
1.08056e-50
1.11343e-50
1.10487e-50
1.11003e-50
1.12513e-50
1.12138e-50
1.13231e-50
1.11291e-50
1.1359e-50
1.10494e-50
1.09917e-50
1.09757e-50
1.10812e-50
1.10611e-50
1.09641e-50
1.09471e-50
1.10376e-50
1.09118e-50
1.10778e-50
1.10363e-50
1.11299e-50
1.19361e-50
1.18908e-50
1.20381e-50
1.18962e-50
1.1924e-50
1.21037e-50
1.19837e-50
1.21872e-50
1.1965e-50
1.21325e-50
1.20237e-50
1.20614e-50
1.20763e-50
1.21925e-50
1.20558e-50
1.22236e-50
1.20073e-50
1.18784e-50
1.20057e-50
1.18866e-50
1.14783e-50
1.14123e-50
1.13242e-50
1.13721e-50
1.14505e-50
1.15305e-50
1.1494e-50
1.1467e-50
1.13281e-50
1.13451e-50
1.12262e-50
1.14685e-50
1.15185e-50
1.15709e-50
1.15935e-50
1.14967e-50
1.1487e-50
1.15341e-50
1.14498e-50
1.14598e-50
1.10674e-50
1.12524e-50
1.10841e-50
1.13156e-50
1.10192e-50
1.12173e-50
1.10631e-50
1.12212e-50
1.11219e-50
1.12243e-50
1.11287e-50
1.13791e-50
1.11483e-50
1.13894e-50
1.11709e-50
1.11943e-50
1.12749e-50
1.10481e-50
1.1299e-50
1.1289e-50
9.85141e-51
1.00752e-50
1.00435e-50
9.92954e-51
9.87884e-51
1.01333e-50
9.97298e-51
1.00386e-50
9.99567e-51
9.85927e-51
9.93877e-51
1.00867e-50
9.94679e-51
1.01866e-50
9.96457e-51
1.00875e-50
1.00842e-50
1.00313e-50
1.00974e-50
1.01544e-50
1.01723e-50
1.01786e-50
1.02277e-50
1.02896e-50
1.02773e-50
1.02778e-50
1.01003e-50
1.03519e-50
1.03715e-50
1.01837e-50
1.0332e-50
1.04084e-50
1.01187e-50
1.04263e-50
1.04114e-50
1.05316e-50
1.03493e-50
1.03594e-50
1.02709e-50
1.04271e-50
5.90235e-51
5.95685e-51
5.96448e-51
5.8973e-51
5.9323e-51
5.92304e-51
5.92633e-51
5.9513e-51
5.87458e-51
5.98393e-51
5.8632e-51
5.98348e-51
5.8808e-51
6.04555e-51
5.89523e-51
5.90489e-51
5.90171e-51
6.00728e-51
5.9351e-51
6.03681e-51
1.32694e-62
1.32825e-62
1.33643e-62
1.32354e-62
1.31831e-62
1.34058e-62
1.33413e-62
1.30809e-62
1.31758e-62
1.35169e-62
1.32663e-62
1.34614e-62
1.33621e-62
1.3501e-62
1.31984e-62
1.35575e-62
1.31792e-62
1.33105e-62
1.32308e-62
1.28651e-62
3.8002e-60
3.80631e-60
3.82924e-60
3.79268e-60
3.77689e-60
3.8409e-60
3.82236e-60
3.74816e-60
3.77533e-60
3.87262e-60
3.80116e-60
3.85617e-60
3.82923e-60
3.868e-60
3.78211e-60
3.88397e-60
3.77719e-60
3.8143e-60
3.79133e-60
3.68538e-60
5.41846e-58
5.43045e-58
5.46241e-58
5.41075e-58
5.38712e-58
5.47869e-58
5.45218e-58
5.34692e-58
5.38572e-58
5.52381e-58
5.42241e-58
5.49956e-58
5.46329e-58
5.51714e-58
5.3958e-58
5.53958e-58
5.38958e-58
5.44178e-58
5.40891e-58
5.25618e-58
4.60297e-56
4.61591e-56
4.64239e-56
4.59887e-56
4.57785e-56
4.65588e-56
4.6333e-56
4.54435e-56
4.57738e-56
4.69408e-56
4.60839e-56
4.67278e-56
4.6438e-56
4.68828e-56
4.58617e-56
4.70699e-56
4.58155e-56
4.62524e-56
4.59728e-56
4.46622e-56
2.72097e-54
2.7302e-54
2.74543e-54
2.7199e-54
2.70692e-54
2.75317e-54
2.73982e-54
2.68752e-54
2.70712e-54
2.7757e-54
2.72535e-54
2.7627e-54
2.74668e-54
2.77219e-54
2.71244e-54
2.78301e-54
2.71012e-54
2.73553e-54
2.71903e-54
2.64088e-54
1.12476e-52
1.12917e-52
1.13527e-52
1.12479e-52
1.1192e-52
1.13836e-52
1.13284e-52
1.11135e-52
1.1195e-52
1.14764e-52
1.12697e-52
1.1421e-52
1.13594e-52
1.14615e-52
1.1217e-52
1.15049e-52
1.12092e-52
1.13123e-52
1.12445e-52
1.09194e-52
3.22634e-51
3.24065e-51
3.25752e-51
3.22765e-51
3.21097e-51
3.26601e-51
3.25023e-51
3.189e-51
3.21259e-51
3.29255e-51
3.23379e-51
3.27614e-51
3.25988e-51
3.28811e-51
3.21881e-51
3.30012e-51
3.21709e-51
3.24601e-51
3.22681e-51
3.13323e-51
5.93975e-50
5.96825e-50
5.998e-50
5.94322e-50
5.91143e-50
6.01263e-50
5.9838e-50
5.87195e-50
5.91622e-50
6.06124e-50
5.95454e-50
6.03022e-50
6.00288e-50
6.0527e-50
5.92684e-50
6.07357e-50
5.92483e-50
5.97647e-50
5.942e-50
5.77068e-50
3.25594e-49
3.27339e-49
3.28909e-49
3.2591e-49
3.24113e-49
3.29627e-49
3.28081e-49
3.22018e-49
3.24551e-49
3.32282e-49
3.2658e-49
3.30544e-49
3.29207e-49
3.31777e-49
3.25011e-49
3.32809e-49
3.24978e-49
3.27669e-49
3.25857e-49
3.16543e-49
6.57336e-50
6.58548e-50
6.64351e-50
6.54338e-50
6.52853e-50
6.5691e-50
6.57659e-50
6.48202e-50
6.64612e-50
6.61284e-50
6.62263e-50
6.60648e-50
6.58046e-50
6.57823e-50
6.50037e-50
6.52546e-50
6.537e-50
6.51663e-50
6.53544e-50
6.53204e-50
1.33292e-49
1.3384e-49
1.35245e-49
1.32752e-49
1.32377e-49
1.3235e-49
1.33203e-49
1.31764e-49
1.35048e-49
1.3479e-49
1.35003e-49
1.33808e-49
1.34016e-49
1.32953e-49
1.32085e-49
1.32591e-49
1.31291e-49
1.31883e-49
1.32646e-49
1.32018e-49
1.37494e-49
1.38049e-49
1.39033e-49
1.3665e-49
1.37108e-49
1.36065e-49
1.38243e-49
1.37173e-49
1.37494e-49
1.39889e-49
1.38294e-49
1.36405e-49
1.38862e-49
1.38125e-49
1.37532e-49
1.38393e-49
1.34969e-49
1.36806e-49
1.36367e-49
1.36032e-49
1.69975e-49
1.7033e-49
1.71234e-49
1.71628e-49
1.71961e-49
1.73444e-49
1.73924e-49
1.7276e-49
1.71909e-49
1.69921e-49
1.69936e-49
1.70427e-49
1.7194e-49
1.7215e-49
1.70631e-49
1.71283e-49
1.71144e-49
1.71121e-49
1.69615e-49
1.7045e-49
1.75184e-49
1.73825e-49
1.74643e-49
1.76982e-49
1.76411e-49
1.78138e-49
1.75078e-49
1.78701e-49
1.73818e-49
1.72966e-49
1.72695e-49
1.74347e-49
1.74027e-49
1.72514e-49
1.72271e-49
1.73671e-49
1.717e-49
1.74279e-49
1.73674e-49
1.75087e-49
1.88578e-49
1.87872e-49
1.90168e-49
1.87914e-49
1.88403e-49
1.91203e-49
1.89319e-49
1.92501e-49
1.89052e-49
1.9168e-49
1.89947e-49
1.90532e-49
1.90793e-49
1.92643e-49
1.90481e-49
1.93083e-49
1.89716e-49
1.87679e-49
1.89687e-49
1.87781e-49
1.80986e-49
1.8e-49
1.78576e-49
1.79353e-49
1.80551e-49
1.81807e-49
1.81234e-49
1.80822e-49
1.78679e-49
1.78913e-49
1.77046e-49
1.80844e-49
1.81644e-49
1.82434e-49
1.82817e-49
1.81258e-49
1.81149e-49
1.81885e-49
1.80582e-49
1.80734e-49
1.7541e-49
1.78343e-49
1.7569e-49
1.79307e-49
1.74625e-49
1.77733e-49
1.75315e-49
1.77805e-49
1.76261e-49
1.77888e-49
1.76364e-49
1.8033e-49
1.76674e-49
1.80469e-49
1.77053e-49
1.77367e-49
1.78683e-49
1.75103e-49
1.79054e-49
1.78899e-49
1.56076e-49
1.59574e-49
1.59098e-49
1.57291e-49
1.56511e-49
1.6048e-49
1.5796e-49
1.58993e-49
1.58336e-49
1.5617e-49
1.57436e-49
1.59753e-49
1.57565e-49
1.61317e-49
1.57859e-49
1.59777e-49
1.59715e-49
1.58901e-49
1.59909e-49
1.6082e-49
1.62486e-49
1.62577e-49
1.63386e-49
1.64345e-49
1.6414e-49
1.64135e-49
1.61325e-49
1.65353e-49
1.65626e-49
1.62663e-49
1.65018e-49
1.66237e-49
1.61642e-49
1.66511e-49
1.66298e-49
1.6817e-49
1.65315e-49
1.65429e-49
1.64033e-49
1.66496e-49
9.37379e-50
9.46038e-50
9.47363e-50
9.36624e-50
9.42073e-50
9.40611e-50
9.41119e-50
9.45167e-50
9.32806e-50
9.50216e-50
9.31127e-50
9.50095e-50
9.33995e-50
9.5997e-50
9.36243e-50
9.3775e-50
9.37203e-50
9.53877e-50
9.42527e-50
9.58522e-50
2.44477e-61
2.44882e-61
2.46369e-61
2.44027e-61
2.43019e-61
2.47147e-61
2.45957e-61
2.41184e-61
2.4293e-61
2.49204e-61
2.44598e-61
2.48143e-61
2.46402e-61
2.48896e-61
2.4336e-61
2.49919e-61
2.43019e-61
2.45407e-61
2.43917e-61
2.37073e-61
6.88624e-59
6.90208e-59
6.94304e-59
6.87768e-59
6.84783e-59
6.96449e-59
6.93086e-59
6.79707e-59
6.84628e-59
7.02223e-59
6.8931e-59
6.99134e-59
6.94504e-59
7.01348e-59
6.85897e-59
7.04192e-59
6.8504e-59
6.91676e-59
6.87463e-59
6.67944e-59
9.64881e-57
9.67711e-57
9.73318e-57
9.64237e-57
9.59855e-57
9.76252e-57
9.71528e-57
9.52876e-57
9.59782e-57