/*--------------------------------*- C++ -*----------------------------------*\
| =========                 |                                                 |
| \\      /  F ield         | OpenFOAM: The Open Source CFD Toolbox           |
|  \\    /   O peration     | Version:  2212                                  |
|   \\  /    A nd           | Website:  www.openfoam.com                      |
|    \\/     M anipulation  |                                                 |
\*---------------------------------------------------------------------------*/
FoamFile
{
    version     2.0;
    format      ascii;
    arch        "LSB;label=32;scalar=64";
    class       volVectorField;
    location    "0.0325";
    object      U;
}
// * * * * * * * * * * * * * * * * * * * * * * * * * * * * * * * * * * * * * //

dimensions      [0 1 -1 0 0 0 0];

internalField   nonuniform List<vector> 
2308
(
(-130.42 573.369 -4.3072e-16)
(32.7739 71.8179 0)
(4.60191 382.379 3.3532e-17)
(76.6781 571.591 -1.43538e-16)
(9.95318 633.281 0)
(59.8526 651.12 -5.07437e-18)
(-59.9773 658.947 1.11149e-18)
(-60.5917 642.166 -2.07986e-16)
(-6.49761 625.578 3.74555e-16)
(-8.82684 697.287 -4.66288e-17)
(-5.42179 699.242 7.92248e-17)
(0.329621 702.184 -1.2327e-16)
(3.49669 703.601 6.02472e-17)
(6.2779 703.303 -3.01795e-17)
(8.45898 701.412 5.14365e-18)
(9.77122 697.93 4.36386e-17)
(10.6442 694.123 7.14447e-18)
(-6.10014 690.693 1.33831e-17)
(-6.12618 695.019 1.79214e-17)
(-6.04872 698.922 1.32377e-18)
(-5.87685 702.622 9.84062e-18)
(-5.46485 704.621 -2.96345e-17)
(-4.8311 704.407 3.73277e-17)
(-3.44478 703.236 -1.67981e-17)
(-4.45201 701.911 -7.36366e-17)
(-3.86485 699.256 -3.60673e-17)
(-5.44951 694.99 1.79328e-17)
(-9.22139 689.752 -2.04636e-17)
(-35.7257 658.934 0)
(10.672 689.88 -1.22873e-16)
(-6.54845 681.208 1.10691e-18)
(-8.41116 664.164 2.90482e-19)
(3.5117 636.345 -5.60661e-18)
(8.28572 585.774 4.32345e-18)
(8.39356 519.543 -5.95291e-18)
(9.93046 485.989 4.69021e-18)
(7.90597 476.672 -2.57063e-18)
(-10.4762 466.947 2.48409e-18)
(-7.18154 448.72 -2.74302e-18)
(0.480006 406.032 1.0556e-18)
(-0.0151661 373.925 2.52051e-18)
(-1.57697 374.178 3.90009e-18)
(-2.5195 375.681 -7.85123e-18)
(-3.05716 379.782 5.36518e-18)
(-2.98575 388.916 2.62766e-18)
(-1.60996 390.324 -2.71495e-18)
(-4.0311 383.982 2.65682e-18)
(-6.10706 381.579 -4.02562e-18)
(-7.93883 381.443 -4.3852e-18)
(-10.7487 384.291 6.74579e-18)
(-14.5073 400.192 -1.30252e-18)
(7.86976 422.173 2.58158e-18)
(20.915 431.726 1.73523e-19)
(-2.71666 501.963 -4.19026e-18)
(-39.5758 539.982 -1.20639e-18)
(-79.7449 561.949 2.61142e-18)
(-96.6374 582.651 0)
(-81.1598 617.102 -3.36097e-19)
(-55.8206 653.294 -9.02205e-18)
(-34.0975 674.151 -3.10502e-17)
(-25.2083 685.328 3.84027e-17)
(-19.0032 690.219 3.34896e-17)
(-16.8327 692.371 4.39485e-17)
(-8.28182 694.277 -1.96784e-18)
(-3.37644 695.855 4.88934e-17)
(4.2096 697.13 -9.06582e-17)
(9.67815 698.436 -2.06023e-17)
(16.2777 699.018 0)
(21.4132 698.076 0)
(24.712 695.367 0)
(26.9145 691.846 0)
(-1.57667 406.147 -1.39316e-18)
(1.19767 404.236 1.34488e-18)
(-23.5244 694.078 -6.12159e-17)
(-22.2031 698.266 -1.2498e-18)
(-20.4334 701.841 4.87893e-18)
(-16.7846 703.273 0)
(-13.0843 702.802 -9.51576e-18)
(-8.87182 701.771 -8.9325e-18)
(-5.35456 700.372 4.69529e-18)
(0.0543276 697.333 1.84154e-17)
(5.07753 693.593 0)
(11.4708 685.268 -1.07937e-18)
(25.9395 672.456 3.7493e-20)
(54.0766 642.23 -5.15068e-18)
(84.1025 603.355 7.25499e-18)
(97.6903 580.306 5.99184e-19)
(83.9958 557.719 -4.01222e-18)
(38.8548 539.512 0)
(12.3917 512.997 -5.88873e-19)
(-21.5278 460.78 4.09784e-18)
(-15.7245 413.663 -5.17762e-18)
(9.06409 392.08 -1.14858e-19)
(4.92834 385.842 5.36645e-18)
(1.15405 383.738 0)
(-1.99975 383.319 5.31415e-18)
(-2.76412 384.89 -2.78991e-20)
(-2.70736 390.015 -2.66838e-18)
(-8.97823 686.533 -5.43909e-17)
(-1.10773 401.838 -2.65151e-18)
(9.21431 685.505 5.43599e-17)
(27.7426 687.737 -7.63954e-19)
(6.56455 410.488 -2.77679e-18)
(-5.27929 393.646 3.28978e-18)
(-11.1653 384.659 0)
(-11.8943 379.909 -1.00466e-18)
(-6.2007 377.794 2.35944e-18)
(0.720785 380.417 2.73565e-18)
(6.81079 383.016 -2.71734e-18)
(15.024 403.985 0)
(-49.6716 489.243 -7.52425e-19)
(-88.0936 542.087 1.3936e-18)
(-105.455 567.522 -1.34899e-19)
(-117.632 580.097 -1.25992e-18)
(-125.622 589.997 0)
(-125.467 601.93 1.62164e-18)
(-108.873 617.106 -7.40548e-18)
(-78.4661 647.889 -4.5022e-18)
(-50.4253 670.967 1.88592e-17)
(-34.9621 678.83 6.5841e-17)
(-23.3108 684.342 5.11623e-18)
(-12.3743 686.204 4.75604e-17)
(-2.78878 688.625 -2.24202e-17)
(6.62419 689.771 0)
(15.0808 691.068 0)
(23.7203 691.53 0)
(31.9906 691.82 7.30411e-17)
(38.8132 690.439 -8.39965e-17)
(43.1249 687.373 8.76499e-17)
(-84.446 635.635 -1.59675e-16)
(87.5047 651.049 0)
(57.4251 659.791 0)
(70.3631 655.198 0)
(-44.324 685.669 1.25382e-16)
(-41.6462 691.426 3.45748e-17)
(-37.8806 695.939 -1.65238e-20)
(-32.8349 698.493 -5.92644e-19)
(-25.3921 698.903 5.93194e-19)
(-18.2966 698.162 4.53837e-18)
(-10.3011 696.952 -9.15939e-18)
(-2.10977 694.373 6.40957e-20)
(9.55401 690.211 0)
(23.2986 681.592 2.22415e-17)
(47.141 666.908 1.28444e-17)
(80.0954 636.205 -2.9134e-18)
(111.458 609.301 2.14191e-18)
(120.218 596.877 0)
(122.021 585.82 0)
(113.318 579.66 -3.17022e-19)
(105.08 565.318 0)
(79.7277 547.024 1.86192e-18)
(66.2815 496.707 1.24661e-19)
(3.95857 421.905 -1.14387e-18)
(-11.3946 385.215 0)
(-7.74295 383.323 -1.25516e-18)
(-3.04747 381.659 2.03011e-18)
(2.01294 379.08 -3.37538e-18)
(6.39746 382.477 0)
(4.95582 390.068 -5.24486e-18)
(-3.18613 405.825 1.28818e-18)
(-10.9074 430.711 -1.05622e-19)
(-2.33809 426.358 0)
(0.416618 427.114 -6.67135e-19)
(4.86935 428.754 -2.06859e-18)
(-41.6313 638.206 1.74988e-16)
(14.9312 431.697 1.69788e-19)
(-105.052 628.622 -5.18446e-16)
(-139.73 624.03 -1.20527e-16)
(26.5568 683.223 0)
(-62.3244 616.506 1.73331e-16)
(-11.5824 640.282 -3.55009e-16)
(-10.971 681.179 2.11729e-17)
(46.1529 683.648 -1.31918e-16)
(-16.0062 452.671 -1.38362e-18)
(-4.43942 449.755 -1.27609e-18)
(1.71396 448.413 -1.65324e-19)
(8.85345 451.527 2.76825e-18)
(21.3305 453.031 1.68171e-19)
(30.2702 457.955 0)
(19.9675 438.463 1.31095e-18)
(7.59139 419.832 2.78582e-18)
(-5.98644 402.691 -5.3101e-19)
(-14.9795 385.138 -2.62627e-18)
(-12.6768 370.704 -3.07825e-18)
(-4.36514 365.398 4.08919e-18)
(5.93393 365.524 1.35847e-18)
(12.3993 379.368 -2.56075e-18)
(-68.8137 479.98 2.20862e-18)
(-110.962 534.324 -6.34889e-19)
(-125.183 562.57 0)
(-131.056 576.18 0)
(-131.945 586.05 0)
(-133.341 593.766 2.35624e-18)
(-133.043 599.923 -1.25855e-18)
(-127.382 605.228 -3.20934e-19)
(-114.997 614.698 -1.00304e-17)
(-85.7001 635.776 0)
(-57.3302 658.646 -9.67862e-18)
(-33.4191 669.314 1.04058e-17)
(-18.3952 675.446 2.18735e-17)
(-3.65323 678.933 1.02486e-17)
(7.52129 680.934 4.20682e-17)
(18.6843 682.241 -4.18369e-17)
(28.7329 682.802 0)
(38.7749 682.978 1.00263e-17)
(48.4508 682.892 -2.143e-17)
(56.0828 681.297 -4.32002e-17)
(-52.704 673.402 1.94893e-17)
(-57.9007 543.823 0)
(26.8394 639.912 -3.33441e-19)
(-91.7276 642.632 2.29359e-16)
(-88.758 650.109 -4.75581e-17)
(-83.5314 657.172 5.39176e-17)
(-78.8561 664.376 -9.48417e-18)
(-73.7083 671.256 2.05501e-17)
(-69.2429 677.471 -9.22614e-18)
(-63.5524 682.935 0)
(-58.5673 687.601 -9.16082e-18)
(-51.1067 690.612 -9.21335e-18)
(-41.6172 691.207 0)
(-31.0612 691.091 0)
(-19.9733 689.824 5.89895e-19)
(-7.58048 687.894 -5.49166e-18)
(8.17773 682.257 0)
(28.6462 674.19 0)
(59.5456 655.231 -4.53009e-18)
(93.4916 627.446 -4.70557e-18)
(117.323 610.62 9.08632e-18)
(126.991 601.978 2.32961e-18)
(129.636 596.824 5.97309e-19)
(130.082 591.551 2.43431e-18)
(129.204 584.912 -2.68671e-18)
(127.236 577.736 0)
(123.309 563.966 -1.28868e-18)
(106.065 542.489 0)
(77.1212 491.309 0)
(-5.95035 402.728 0)
(-10.5065 369.941 -5.17143e-18)
(-5.96842 370.254 0)
(2.14457 371.197 -3.0942e-18)
(11.2992 380.587 5.07797e-19)
(8.27695 398.718 1.06195e-17)
(-5.20233 418.5 0)
(-16.8215 438.097 -5.19121e-18)
(-25.9508 457.267 7.9456e-20)
(-32.1313 306.992 0)
(-84.2482 623.145 2.86683e-16)
(149.114 551.041 4.87884e-16)
(48.2737 516.747 0)
(-35.1578 455.088 -1.40224e-16)
(-119.437 621.663 5.84359e-16)
(46.728 679.398 -2.88303e-18)
(-32.2929 673.985 4.29763e-17)
(41.0741 464.395 -1.62096e-19)
(27.4031 446.191 -1.3787e-18)
(12.5285 426.724 1.32275e-18)
(-0.46777 405.102 0)
(-7.16902 377.05 0)
(-6.47146 361.683 1.65873e-19)
(-5.5276 356.484 -6.51626e-19)
(-0.537604 357.66 -2.30201e-18)
(-77.8685 461.54 2.58424e-19)
(-123.169 522.981 -3.10947e-19)
(-138.576 552.233 -3.70769e-19)
(-142.472 567.078 1.67081e-18)
(-140.6 576.995 1.00635e-19)
(-137.235 586.662 -1.25253e-18)
(-133.649 594.148 0)
(-129.659 598.929 4.8714e-18)
(-126.513 601.896 -1.20653e-19)
(-120.849 604.695 2.40514e-17)
(-109.784 610.522 -2.03621e-17)
(-87.6125 623.884 0)
(-57.6852 645.515 1.98132e-17)
(-30.788 659.035 -6.11766e-17)
(-9.21756 666.076 3.21801e-17)
(6.08871 670.301 4.1221e-17)
(20.1595 672.172 -2.86987e-19)
(31.9395 673.202 -4.10316e-17)
(43.4152 673.317 4.08877e-17)
(54.1436 673.207 3.96701e-17)
(64.5539 672.82 -4.20872e-17)
(61.1409 678.276 -8.4878e-17)
(-37.4335 609.676 8.95877e-19)
(-172.679 615.375 -3.82834e-18)
(-111.633 640.882 -3.91484e-17)
(-107.498 648.139 -5.22375e-18)
(-102.526 654.888 -1.54019e-17)
(-97.1007 661.511 -5.08267e-18)
(-91.1394 667.948 0)
(-84.7717 673.513 9.49817e-18)
(-77.5236 678.274 -4.8373e-18)
(-68.59 680.872 -4.68812e-18)
(-57.6176 681.306 2.35755e-18)
(-45.129 681.365 2.36321e-18)
(-31.5884 680.343 4.97006e-18)
(-15.368 677.863 0)
(4.62048 671.754 4.51518e-18)
(32.8403 661.34 -5.23237e-18)
(64.9881 640.46 -7.15951e-20)
(95.3234 620.27 -1.37646e-17)
(112.759 610.623 1.22557e-18)
(121.795 605.419 -5.84526e-18)
(126.302 602.056 0)
(129.789 598.527 -1.96126e-18)
(132.482 593.705 1.23017e-19)
(134.692 587.167 2.73582e-18)
(137.003 579.584 0)
(137.785 570.993 0)
(134.524 557.286 -8.18688e-20)
(120.195 532.275 -2.33941e-18)
(86.4912 479.055 2.40232e-18)
(-1.81588 377.141 3.532e-18)
(-1.04185 361.104 -6.40636e-19)
(0.106736 365.306 1.96059e-18)
(2.61931 377.019 -6.11064e-19)
(2.2462 401.899 -5.3459e-18)
(-8.50699 427.146 5.36419e-18)
(-22.0933 447.22 1.20129e-17)
(-35.021 464.71 5.12328e-18)
(-45.6105 481.863 0)
(-32.9657 476.432 -2.73537e-18)
(-19.8851 472.915 1.26016e-20)
(-6.48461 470.844 3.01433e-18)
(2.8093 469.489 9.82794e-19)
(12.6629 472.393 -1.32536e-18)
(26.5058 473.488 2.61045e-18)
(38.1696 477.285 -2.67392e-18)
(51.7266 482.033 -1.28757e-18)
(111.431 538.059 -1.68082e-16)
(3.91614 398.873 -4.83999e-17)
(-199.905 211.187 -8.51348e-17)
(-101.95 615.552 -2.74561e-16)
(-111.197 575.991 -1.53703e-16)
(100.231 529.668 4.82999e-17)
(72.6694 671.328 0)
(64.3433 674.769 1.6867e-16)
(-51.9277 601.898 4.28337e-16)
(-84.7348 606.411 1.72098e-16)
(-66.608 562.002 -1.91074e-16)
(8.44221 646.126 3.60549e-16)
(-133.013 638.189 0)
(-127.222 645.226 5.0935e-18)
(-120.881 651.629 -1.23467e-18)
(-113.46 657.584 -2.36486e-17)
(-105.663 662.952 4.92729e-18)
(-96.014 667.329 0)
(-84.608 669.865 -3.27128e-19)
(-71.2778 670.519 -1.24271e-18)
(-56.8366 670.361 0)
(-40.6162 668.948 -2.40484e-18)
(-20.5166 665.222 -2.19405e-18)
(4.59497 658.025 0)
(34.2528 643.836 6.33757e-19)
(63.9855 626.481 -1.36164e-18)
(88.0305 615.754 6.22386e-19)
(101.618 609.889 9.05699e-18)
(109.778 606.174 0)
(115.539 603.059 1.24879e-18)
(120.754 600.049 -6.25018e-19)
(126.676 595.651 1.50914e-19)
(132.169 590.947 4.72674e-19)
(138.01 584.243 -2.77848e-18)
(141.706 578.396 0)
(145.114 569.986 6.2472e-19)
(145.571 560.712 1.28189e-18)
(141.26 545.156 1.37182e-18)
(127.612 511.586 -3.24722e-19)
(79.6953 456.966 -8.04604e-19)
(20.701 362.279 -1.8326e-18)
(7.93486 359.238 -1.36435e-18)
(-8.26148 368.197 -1.25998e-18)
(-14.4169 395.348 0)
(-22.2858 429.042 -5.48198e-18)
(-34.6391 452.635 -5.46846e-18)
(-48.2721 470.607 -4.14503e-18)
(-60.2739 486.737 -7.05511e-18)
(-69.6681 501.284 3.31688e-18)
(-53.8266 497.973 -2.53873e-18)
(-38.6288 494.299 0)
(-23.1821 491.378 1.35987e-18)
(-8.1191 489.865 1.36021e-18)
(3.69859 488.74 -2.61319e-18)
(15.8889 490.934 2.56355e-18)
(30.8382 491.761 -5.48803e-20)
(44.3152 494.726 -1.26676e-18)
(59.5621 497.971 3.8327e-18)
(74.2191 499.672 -3.97546e-18)
(65.8145 485.524 7.57958e-19)
(54.5108 469.37 -4.75365e-19)
(40.7951 451.226 1.02658e-18)
(26.9964 428.858 -3.46199e-18)
(16.8988 401.099 1.2199e-18)
(13.2189 367.34 0)
(-7.50245 347.821 1.54785e-19)
(-30.7542 341.593 2.25796e-18)
(-69.4963 431.727 -4.0476e-19)
(-128.994 495.214 7.7606e-19)
(-144.232 536.956 -8.53772e-21)
(-149.98 554.762 3.13853e-19)
(-149.313 565.135 -1.54831e-19)
(-146.312 573.086 1.07095e-18)
(-139.915 580.784 -3.70024e-18)
(-132.718 588.713 6.01213e-20)
(-125.412 595.305 2.49467e-18)
(-120.125 599.241 -2.52251e-18)
(-115.6 601.164 -1.98537e-17)
(-110.243 603.121 1.97264e-17)
(-100.705 607.09 0)
(-83.5561 614.374 -4.11627e-17)
(-56.016 630.103 3.00064e-17)
(-26.4034 646.522 -3.11826e-17)
(-1.02482 655.379 0)
(17.341 660.057 0)
(33.028 662.315 0)
(46.0467 662.923 -5.25889e-18)
(58.3251 662.862 -1.45272e-18)
(69.5671 662.409 8.04456e-17)
(-20.0124 601.319 -1.86154e-16)
(78.4217 668.707 8.54287e-17)
(64.3939 670.571 -7.79813e-17)
(-57.1275 666.319 1.01686e-17)
(-70.2823 596.148 2.11208e-16)
(-103.227 600.221 1.76201e-16)
(-121.346 608.386 4.54269e-18)
(-137.92 614.397 -1.76852e-16)
(-181.319 604.933 -1.19109e-16)
(-137.471 631.083 -1.23134e-16)
(-151.609 627.564 4.26711e-17)
(-146.223 633.897 -1.10831e-17)
(-138.884 640.501 -2.03888e-17)
(-130.765 646.621 0)
(-121.337 651.427 1.92599e-17)
(-109.701 654.695 0)
(-96.6367 656.217 0)
(-81.328 657.319 4.61217e-18)
(-64.8487 657.103 1.14937e-18)
(-44.6403 655.269 0)
(-20.4321 650.056 2.48885e-18)
(6.30135 640.219 1.53964e-19)
(33.5074 627.878 2.5005e-19)
(57.7502 617.848 2.57716e-18)
(74.6202 611.541 2.4124e-18)
(85.9802 607.503 -2.8499e-18)
(94.4097 604.312 -4.97477e-18)
(101.65 601.677 1.53902e-19)
(109.292 597.842 -8.87585e-19)
(116.501 594.147 2.90474e-19)
(124.214 589.063 1.23962e-18)
(130.415 584.643 -9.20821e-19)
(136.917 578.008 1.2245e-18)
(141.533 572.011 -1.01198e-20)
(147.331 563.526 -3.12666e-18)
(149.545 556.116 1.24434e-18)
(150.79 541.004 1.25161e-18)
(141.376 522.814 -1.97641e-18)
(126.752 474.736 2.45272e-18)
(64.9074 408.533 3.12327e-18)
(31.5364 356.933 0)
(-6.90419 361.692 8.11128e-18)
(-34.9201 378.797 1.32208e-18)
(-42.6952 413.315 1.43238e-18)
(-52.1668 445.057 0)
(-63.7119 467.886 0)
(-74.7517 485.513 4.09778e-18)
(-83.9419 499.708 -6.61512e-20)
(-89.9626 512.739 -6.87485e-19)
(-75.959 515.491 6.25536e-19)
(-59.5374 513.689 0)
(-42.8258 511.327 0)
(-25.8732 508.941 -6.50708e-19)
(-9.51448 507.946 1.98874e-18)
(4.2835 507.038 0)
(18.403 508.4 -1.34868e-18)
(34.1986 508.747 -1.34703e-18)
(48.692 510.948 2.60321e-18)
(64.771 512.981 -1.34289e-18)
(79.5979 512.976 3.90756e-18)
(92.0557 507.317 5.38615e-19)
(86.9873 495.567 6.47395e-19)
(78.4764 482.707 1.36993e-18)
(67.6249 466.913 0)
(55.4079 446.822 -5.02044e-19)
(44.3102 418.46 -1.21343e-19)
(36.6417 380.083 8.02366e-19)
(18.7694 357.309 -1.41379e-19)
(-20.2693 353.496 -3.97111e-19)
(-62.5592 373.504 -2.88716e-18)
(-128.543 449.738 5.99171e-19)
(-142.964 509.153 -1.62128e-18)
(-154.078 531.18 8.11412e-19)
(-152.972 548.421 -3.15244e-19)
(-150.632 556.429 0)
(-144.559 565.024 0)
(-139.041 571.413 0)
(-130.835 579.895 -1.27902e-18)
(-122.639 587.091 0)
(-113.901 593.8 3.44624e-20)
(-107.361 596.964 9.91885e-18)
(-101.577 599.295 -4.90651e-18)
(-95.5601 600.741 1.01546e-17)
(-87.4596 602.836 2.97273e-17)
(-74.1542 606.945 -8.59915e-19)
(-52.4266 615.654 -1.09507e-17)
(-24.2727 631.623 -1.9918e-17)
(4.17851 643.159 4.04853e-17)
(28.1682 648.747 -2.03851e-17)
(45.136 651.541 -4.4818e-19)
(60.7002 652.152 8.8208e-18)
(73.4007 652.064 -1.61723e-18)
(80.2277 661.723 -1.2398e-16)
(-33.7427 592.872 -1.9198e-16)
(-1.83895 592.409 3.829e-16)
(144.842 160.908 0)
(88.706 660.588 -8.39684e-17)
(-165.25 613.553 3.15697e-16)
(-160.966 607.626 -1.72301e-16)
(-140.607 601.988 -3.33593e-16)
(63.9705 665.684 -2.5999e-17)
(-66.9006 651.409 -2.4909e-17)
(-36.7161 666.809 -1.02243e-17)
(81.3759 665.631 2.44557e-18)
(-84.7434 590.206 -2.03897e-16)
(-123.173 593.64 1.65903e-16)
(-93.3929 523.759 -6.53831e-19)
(-79.9246 527.933 -6.56494e-19)
(-63.5897 527.631 0)
(-46.0728 526.393 -6.47063e-19)
(-28.1715 524.652 6.36494e-19)
(-10.7955 524.027 -6.65286e-19)
(4.51937 523.23 6.62591e-19)
(20.1556 523.935 1.28032e-18)
(36.7029 523.785 -1.29566e-18)
(51.9533 525.069 2.46273e-18)
(68.1406 525.861 -3.87039e-18)
(82.6035 524.274 0)
(94.5921 517.174 -4.56994e-20)
(101.202 502.102 0)
(99.8131 493.043 -3.99842e-18)
(96.1069 481.942 1.31876e-18)
(89.5086 468.936 0)
(81.3941 451.326 0)
(72.7516 426.81 3.49644e-19)
(64.4952 391.714 -4.4145e-20)
(45.663 362.421 0)
(0.695862 353.366 -1.41703e-19)
(-46.9615 352.352 1.63738e-19)
(-97.4677 390.906 7.50817e-19)
(-138.72 452.222 3.2216e-19)
(-146.277 496.397 6.34509e-19)
(-151.304 515.828 -2.45635e-20)
(-147.381 532.374 -1.28779e-18)
(-145.369 541.032 3.33534e-19)
(-138.925 551.387 1.27126e-18)
(-134.283 558.691 2.93723e-19)
(-126.982 567.809 -6.86344e-19)
(-119.756 574.895 1.24643e-18)
(-110.374 583.037 -3.72263e-18)
(-101.372 588.687 -5.01075e-18)
(-93.2764 592.687 2.7019e-18)
(-86.3734 594.974 -5.19083e-18)
(-79.6113 596.909 0)
(-72.2448 598.216 -1.55251e-17)
(-62.3038 600.41 3.08829e-17)
(-46.6144 604.492 0)
(-22.534 613.647 0)
(4.92309 626.999 0)
(32.7503 635.048 7.48442e-18)
(56.9274 638.424 -1.08578e-18)
(74.9458 640.131 -1.35609e-18)
(85.397 651.438 -8.10153e-17)
(44.0862 633.322 -1.8549e-16)
(-48.2586 585.538 9.78829e-18)
(74.437 513.223 1.74334e-16)
(-3.62403 428 0)
(-158.132 626.695 -9.42347e-18)
(-146.591 632.099 0)
(-133.024 636.75 0)
(-118.878 640.013 4.90333e-18)
(-103.006 642.186 -1.00706e-17)
(-86.0415 642.755 0)
(-66.7446 642.222 5.28727e-18)
(-44.2725 638.501 0)
(-19.9227 631.192 -1.32878e-18)
(5.03372 623.284 1.21354e-18)
(27.4758 616.331 -6.25633e-18)
(45.4512 610.997 1.12266e-19)
(58.9683 606.863 -2.38848e-18)
(69.4713 603.378 4.98846e-18)
(78.683 600.434 3.68303e-18)
(87.6919 597.046 -3.81093e-18)
(96.4589 593.585 0)
(105.127 589.323 5.40197e-21)
(112.642 585.431 -1.88569e-18)
(119.927 580.39 0)
(125.626 575.453 0)
(132.029 567.788 6.42653e-19)
(136.897 559.92 1.88685e-18)
(142.876 549.837 -1.27951e-18)
(146.495 540.489 1.26415e-18)
(148.77 527.289 -2.57805e-18)
(147.962 508.571 -6.55395e-19)
(139.22 480.828 -5.51778e-18)
(115.336 419.002 2.48844e-18)
(59.5255 356.939 0)
(11.8416 358.795 -5.94743e-18)
(-35.3265 364.427 -2.91916e-18)
(-62.1647 388.861 0)
(-72.3861 426.218 2.71766e-18)
(-81.5361 454.277 2.03781e-19)
(-89.9129 474.544 4.13601e-18)
(-96.7372 489.43 3.91506e-18)
(-100.755 501.881 0)
(-102.473 511.886 -1.27288e-18)
(16.0112 583.7 -1.9153e-16)
(-17.0246 582.711 -3.80686e-16)
(-3.71773 280.057 6.72934e-17)
(82.8417 661.75 -7.53988e-17)
(-100.462 583.042 3.44694e-16)
(95.2321 658.567 1.05209e-18)
(102.33 476.321 6.73458e-19)
(102.508 466.57 3.37603e-18)
(101.204 454.702 -2.71686e-18)
(97.6999 439.235 0)
(92.2963 417.221 0)
(84.7976 385.697 0)
(71.9546 352.986 0)
(36.1365 336.28 7.06179e-19)
(-11.9325 334.155 -3.23716e-19)
(-60.8606 338.799 1.43728e-19)
(-113.575 375.088 -9.90465e-19)
(-134.297 429.187 7.15885e-19)
(-137.123 463.561 3.28818e-19)
(-140.671 484.988 -4.99135e-19)
(-137.042 503.95 0)
(-134.896 515.735 3.99401e-21)
(-130.118 528.64 -3.2487e-19)
(-125.595 539.012 3.15028e-19)
(-119.749 549.724 6.26652e-19)
(-113.402 558.377 -7.30002e-19)
(-105.9 566.421 7.11348e-19)
(-96.9327 573.537 -1.90068e-18)
(-87.5109 580.075 -3.81142e-18)
(-78.6262 584.594 2.36623e-18)
(-70.4005 587.722 0)
(-62.5793 590.071 -2.3391e-19)
(-54.941 591.831 -1.5146e-17)
(-46.3181 593.299 1.2966e-17)
(-35.0713 595.023 -2.647e-18)
(-17.9456 598.215 0)
(5.93028 605.054 -2.33017e-18)
(31.7611 615.298 3.41422e-17)
(59.2978 622.167 -1.95435e-17)
(90.7019 640.069 7.79336e-17)
(60.6068 639.332 3.9322e-16)
(-64.2414 579.752 1.11145e-17)
(-101.064 521.49 -3.03053e-19)
(-93.4532 534.361 1.89817e-18)
(-81.0573 539.987 3.10341e-19)
(-65.4006 541.034 0)
(-47.9528 540.716 -6.40904e-19)
(-29.6955 539.684 6.31379e-19)
(-11.6813 539.486 -9.79442e-19)
(4.53713 538.85 -2.1857e-18)
(21.0535 539.005 2.55764e-18)
(38.0105 538.265 0)
(53.4939 538.572 -1.31838e-18)
(69.3489 538.19 3.85656e-18)
(83.1711 535.061 -2.59024e-18)
(93.8362 526.628 -1.31474e-18)
(99.5675 511.141 1.97163e-18)
(100.285 486.437 -2.6521e-18)
(64.178 626.787 3.74059e-16)
(-138.162 589.358 -1.53789e-16)
(-160.127 596.85 1.52905e-16)
(-175.691 603.016 3.08057e-16)
(-182.984 604.904 1.40398e-16)
(25.2039 652.038 -7.10571e-18)
(77.9154 646.749 1.03972e-16)
(-95.4139 321.946 0)
(59.7929 537.585 0)
(-154.157 616.836 0)
(-139.674 620.896 2.58947e-18)
(-123.276 623.95 -4.96433e-18)
(-104.774 625.75 -2.81493e-20)
(-84.9715 626.609 1.46713e-17)
(-63.776 624.954 -1.00007e-17)
(-42.4009 620.46 2.66007e-19)
(-20.5479 615.203 5.0797e-18)
(-0.978971 610.483 -8.82684e-18)
(15.7183 606.924 1.09363e-18)
(29.9466 603.742 4.88875e-18)
(42.2725 600.468 -1.29891e-18)
(53.4245 597.212 1.22868e-18)
(63.8692 593.77 -3.66217e-18)
(73.7477 590.1 1.29508e-18)
(83.1002 586.13 3.71705e-18)
(91.65 582.088 -2.52349e-18)
(99.3378 577.638 2.52302e-18)
(106.101 572.806 9.42676e-19)
(112.376 566.744 2.2261e-18)
(117.993 559.383 -2.86212e-18)
(123.814 549.433 1.95355e-18)
(128.769 537.798 -3.5117e-18)
(133.776 525.256 -2.60368e-18)
(136.8 511.343 2.59239e-18)
(139.256 497.166 1.2976e-18)
(139.583 472.491 -1.33983e-18)
(132.553 447.408 0)
(122.688 393.255 -2.6682e-18)
(72.2711 350.412 1.40518e-18)
(19.3329 338.525 -2.77304e-18)
(-29.0696 340.312 -3.88876e-18)
(-71.7763 352.494 -2.70611e-18)
(-89.4236 383.223 -5.4435e-18)
(-96.552 418.718 1.31447e-18)
(-101.644 444.645 -1.3821e-18)
(-105.232 463.049 -2.69426e-18)
(-106.244 476.901 0)
(-106.014 487.657 0)
(-103.46 498.018 0)
(-2.962 301.295 0)
(95.515 650.563 -2.41616e-21)
(82.9105 658.078 3.89105e-16)
(32.1545 575.284 1.78453e-16)
(-32.7346 573.683 1.9395e-16)
(0.755411 573.181 3.64027e-16)
(44.3623 645.815 -1.93507e-16)
(-15.6649 290.356 -5.58447e-17)
(-43.4274 339.217 0)
(45.6753 656.252 -2.1657e-16)
(99.6847 655.54 -8.51877e-17)
(86.1338 624.412 -3.27471e-17)
(10.6529 657.358 -5.57504e-16)
(83.9903 517.36 1.91312e-16)
(104.472 510.162 1.75199e-16)
(-8.66224 354.055 -3.13618e-17)
(93.3559 447.129 -1.36965e-18)
(97.1771 436.024 -3.4011e-19)
(98.9622 423.972 -1.01137e-18)
(99.5442 409.307 -1.22919e-21)
(98.6383 391.173 0)
(95.5462 365.92 0)
(86.8493 332.529 0)
(63.8736 306.429 -1.74867e-19)
(25.0727 296.542 -2.17687e-19)
(-13.6718 295.465 2.17003e-19)
(-54.6384 304.455 -1.93407e-19)
(-96.4887 334.121 4.43289e-19)
(-117.066 375.842 -5.16042e-19)
(-120.789 411.058 0)
(-123.198 438.442 0)
(-121.589 459.085 0)
(-120.29 476.9 0)
(-117.437 492.428 0)
(-114.08 507.133 0)
(-109.191 520.481 -1.65967e-19)
(-103.777 532.434 6.34987e-19)
(-97.6085 542.379 0)
(-90.841 550.808 -1.63424e-18)
(-82.6802 558.261 2.82414e-18)
(-73.562 565.139 2.50502e-18)
(-64.4389 570.63 0)
(-55.3457 574.653 7.64e-18)
(-46.3011 577.8 -7.65743e-18)
(-37.1432 580.182 -2.51811e-18)
(-28.2284 582.297 5.10103e-18)
(-18.6133 583.633 -7.71649e-18)
(-7.12552 584.651 3.79544e-18)
(9.8397 586.217 -9.73073e-18)
(32.6356 588.804 2.49867e-18)
(56.8448 591.662 7.43943e-17)
(77.7572 633.056 2.03521e-16)
(-142.254 572.277 2.90548e-16)
(-114.344 554.78 1.53235e-16)
(-100.285 506.869 0)
(-98.9315 529.674 8.34025e-21)
(-92.0343 542.854 -6.45086e-19)
(-80.6409 549.635 -3.2283e-19)
(-66.0612 552.174 -7.94006e-20)
(-48.9321 552.921 7.83866e-20)
(-30.7141 552.648 0)
(-12.5116 552.69 0)
(4.34045 552.146 9.62197e-19)
(21.4647 551.988 -2.52391e-18)
(38.6521 550.825 3.15896e-18)
(54.3005 550.049 0)
(69.4389 548.18 -2.53157e-18)
(82.1844 543.64 2.55987e-18)
(92.1854 534.48 6.32259e-19)
(97.7012 519.276 6.56452e-19)
(96.8112 494.713 0)
(87.8775 455.631 0)
(-45.6116 650.034 0)
(-157.012 586.127 1.57041e-16)
(-177.157 593.093 0)
(-191.775 596.246 -3.05485e-16)
(-193.269 593.706 1.51122e-16)
(-189.435 592.93 2.74829e-16)
(-24.536 436.81 -4.52401e-17)
(-42.1547 547.687 1.77063e-16)
(-155.403 592.027 5.46439e-18)
(-137.647 597.813 -4.06486e-17)
(-118.933 601.849 1.79601e-17)
(-100.454 603.924 -2.0178e-17)
(-81.8223 603.886 -8.90016e-18)
(-63.3133 602.953 1.27054e-17)
(-44.3556 601.727 2.4626e-18)
(-27.0152 600.031 -1.27575e-17)
(-11.4115 598.146 7.65766e-18)
(2.21451 595.865 0)
(14.8985 592.882 -6.40622e-18)
(27.0638 589.433 3.72635e-18)
(38.6608 585.742 6.31128e-18)
(49.5195 581.851 1.25023e-18)
(59.5772 577.801 -5.08524e-18)
(68.6242 573.521 -2.54533e-18)
(76.7844 568.847 0)
(84.0134 563.623 0)
(90.7034 557.618 -6.27935e-19)
(96.7597 550.372 -3.15124e-19)
(102.536 541.711 3.24432e-18)
(107.746 530.694 6.77536e-19)
(112.649 517.106 -2.26831e-18)
(116.648 501.269 -1.09615e-20)
(119.614 484.502 0)
(121.022 467.012 0)
(122.084 446.628 -2.72791e-18)
(120.29 421.659 4.0419e-18)
(115.902 389.386 -1.36618e-18)
(105.599 347.384 -2.73708e-20)
(65.1272 311.695 1.28643e-18)
(20.9063 298.485 1.36756e-18)
(-19.5434 299.853 8.54071e-18)
(-59.7467 308.102 0)
(-89.652 330.355 4.17992e-18)
(-100.906 364.312 -4.08194e-18)
(-104.991 395.506 2.66498e-18)
(-106.052 417.1 -2.72899e-18)
(-105.095 434.002 2.69213e-18)
(-103.103 447.48 0)
(-98.6117 459.606 0)
(-93.1491 468.917 -1.32594e-18)
(84.9757 621.034 3.72524e-16)
(102.695 639.622 -8.06328e-17)
(-100.771 557.585 -1.60004e-16)
(89.9098 591.793 3.56443e-16)
(68.56 580.46 -9.5993e-18)
(49.544 568.111 3.69647e-16)
(104.383 649.444 8.42543e-17)
(-47.7032 566.16 -3.92424e-16)
(16.1142 563.54 0)
(-14.5664 562.946 0)
(-13.6809 380.042 -3.27349e-17)
(160.897 567.979 -1.91602e-16)
(-23.9348 442.613 1.35123e-17)
(47.5419 665.346 -3.31083e-16)
(54.2362 561.66 -3.88148e-17)
(93.3256 637.435 -2.34655e-16)
(2.88578 280.842 0)
(1.77665 301.531 -2.96711e-17)
(39.8738 560.797 0)
(26.5778 562.118 1.32777e-18)
(14.3946 562.259 2.49643e-18)
(3.10537 562.026 9.26309e-19)
(-8.06863 560.971 1.67333e-19)
(-19.2632 558.485 0)
(-29.9236 555.23 3.33543e-18)
(-40.258 551.305 -3.34028e-18)
(-49.5948 546.654 1.30569e-18)
(-58.5319 540.685 -2.61081e-18)
(-66.9362 533.339 6.38017e-19)
(-74.193 525.022 0)
(-80.4674 515.469 1.28918e-18)
(-85.9714 504.196 -6.71277e-19)
(-91.016 490.552 6.68547e-19)
(-95.2467 475.061 -1.17498e-18)
(-98.2697 458.064 1.37169e-18)
(-100.026 440.004 4.57778e-21)
(-100.756 420.29 -7.23217e-19)
(-100.805 398.68 3.43634e-19)
(-100.187 373.626 -3.83906e-19)
(-96.8246 344.548 0)
(-89.3739 311.426 1.72187e-19)
(-71.3512 278.455 -8.7698e-20)
(-42.0168 254.932 -3.44978e-19)
(-11.568 245.702 2.95143e-19)
(17.0536 246.706 4.44496e-20)
(46.2706 254.845 -1.69035e-19)
(72.7341 274.245 0)
(83.9364 303.079 0)
(87.1158 329.848 -6.8418e-19)
(87.2185 350.775 3.77053e-18)
(85.0756 367.332 -6.64137e-19)
(82.0783 380.353 0)
(76.9818 392.696 2.71289e-18)
(72.1031 402.65 1.55986e-20)
(-1.28747 322.487 1.52726e-16)
(-84.065 477.157 1.3232e-18)
(-93.1287 515.399 0)
(-94.1705 538.631 -3.10781e-19)
(-88.4111 552.282 3.24018e-19)
(-77.8189 559.565 7.82653e-19)
(-64.3783 563.142 -6.26707e-19)
(-48.4352 564.733 1.52867e-19)
(-30.9177 565.281 3.05235e-19)
(-12.9708 565.731 2.2091e-18)
(3.98442 565.376 -3.13838e-18)
(21.1219 564.854 -2.50931e-18)
(37.9976 563.131 2.48517e-18)
(53.1563 561.391 -3.06961e-19)
(67.436 558.461 6.16729e-19)
(79.5258 553.132 -2.54221e-18)
(88.5588 543.531 -6.75138e-19)
(92.3394 527.868 2.55837e-18)
(89.4551 502.508 0)
(80.1672 464.062 1.34096e-18)
(66.1672 412.882 -6.79573e-19)
(101.316 627.076 1.92191e-16)
(109.29 625.286 -7.66339e-17)
(112.79 601.126 -1.84545e-16)
(-35.751 276.637 0)
(-25.4824 265.951 0)
(-6.0868 257.65 -5.30834e-17)
(5.65668 258.899 -1.40644e-17)
(22.3164 261.71 -1.67405e-17)
(15.9318 284.502 -4.06087e-17)
(11.8895 306.141 5.77691e-17)
(6.36669 325.923 3.11941e-17)
(68.4743 470.49 0)
(-2.49475 342.846 -3.1969e-17)
(185.925 576.911 -4.78277e-18)
(200.944 553.107 1.59507e-16)
(175.722 563.802 -1.65132e-16)
(110.888 587.635 -1.801e-16)
(87.5448 575.467 0)
(65.6318 561.795 0)
(111.66 647.656 1.79262e-16)
(108.715 614.986 3.62026e-16)
(-29.3854 337.369 -4.09969e-17)
(-169.712 583.633 1.43987e-16)
(-193.53 587.079 -1.59242e-16)
(-202.313 584.898 0)
(-204.589 578.661 -3.23762e-16)
(-200.386 569.472 1.62904e-16)
(-182.456 572.88 -2.13486e-16)
(-144.724 455.987 -1.51768e-16)
(-142.877 551.605 4.42247e-17)
(-128.997 558.792 -4.82548e-17)
(-113.74 564.592 2.14396e-17)
(-97.6834 570.313 -2.10154e-17)
(-81.4708 574.657 0)
(-66.0043 577.246 -1.22694e-18)
(-51.7393 578.366 -1.79639e-18)
(-38.2833 578.447 7.64557e-18)
(-24.9574 577.491 2.51662e-18)
(-11.7462 575.504 -1.27662e-17)
(1.28461 572.849 5.12325e-18)
(13.7578 569.25 6.40888e-18)
(25.0406 565.133 -5.13662e-18)
(35.3883 560.671 3.24481e-18)
(44.6584 555.982 -3.24573e-18)
(53.1 550.874 -1.3277e-18)
(60.4122 545.149 3.87201e-18)
(67.0036 538.475 6.63025e-19)
(73.1581 530.788 2.61856e-18)
(79.0872 521.749 -2.62845e-18)
(84.6114 511.221 0)
(89.715 498.844 -6.6505e-19)
(94.1799 483.956 -3.29655e-19)
(97.3961 466.108 -3.39523e-18)
(99.422 446.309 3.03737e-18)
(100.2 425.654 -3.44184e-19)
(99.8555 404.22 2.74153e-18)
(98.7093 380.384 -5.13077e-18)
(95.8616 352.197 2.71513e-18)
(89.9438 319.926 1.36625e-18)
(75.7124 285.955 6.77938e-19)
(48.1451 259.629 -1.40035e-18)
(16.6402 248.124 4.04112e-18)
(-13.2916 248.471 -4.15343e-18)
(-42.4501 255.955 -1.31547e-18)
(-71.7001 272.92 -4.04364e-18)
(-88.9285 301.769 5.43702e-18)
(-94.092 332.532 -4.10603e-18)
(-94.6108 356.573 2.68855e-18)
(-92.194 376.003 -5.3982e-18)
(-88.3334 390.628 0)
(-82.3281 403.781 2.69334e-18)
(-76.1372 414.458 -1.34116e-18)
(-68.8093 424.429 -1.34215e-18)
(139.323 571.451 -4.13257e-16)
(163.814 582.347 1.98065e-16)
(186.249 587.607 -1.87383e-16)
(18.3367 442.918 8.95378e-17)
(203.449 578.141 -2.02428e-16)
(113.221 638.756 0)
(-2.7809 402.71 -5.18029e-17)
(207.952 576.94 -2.03856e-16)
(-4.76829 366.109 1.46824e-16)
(0.581033 551.813 5.64008e-16)
(-29.0556 554.145 -3.79763e-16)
(32.8311 555.202 -1.78933e-16)
(144.091 584.535 0)
(107.088 572.628 -1.96894e-16)
(128.577 585.496 1.76716e-16)
(0.392886 322.57 -9.05345e-17)