/*--------------------------------*- C++ -*----------------------------------*\
| =========                 |                                                 |
| \\      /  F ield         | OpenFOAM: The Open Source CFD Toolbox           |
|  \\    /   O peration     | Version:  2212                                  |
|   \\  /    A nd           | Website:  www.openfoam.com                      |
|    \\/     M anipulation  |                                                 |
\*---------------------------------------------------------------------------*/
FoamFile
{
    version     2.0;
    format      ascii;
    arch        "LSB;label=32;scalar=64";
    class       volScalarField;
    location    "0.03";
    object      T;
}
// * * * * * * * * * * * * * * * * * * * * * * * * * * * * * * * * * * * * * //

dimensions      [0 0 0 1 0 0 0];

internalField   nonuniform List<scalar> 
2308
(
197.734
186.814
232.169
173.043
182.748
178.39
176.458
180.626
184.351
151.891
153.767
156.45
158.354
160.27
162.161
164.017
165.819
167.371
165.675
163.886
161.997
160.06
158.077
156.028
153.983
151.928
149.924
147.902
176.771
167.574
145.797
143.756
141.738
139.733
137.738
135.75
133.763
131.776
129.787
127.798
125.808
123.821
121.834
119.846
117.858
117.858
119.843
121.827
123.813
125.799
127.784
129.77
131.758
133.742
135.728
137.717
139.707
141.707
143.719
145.754
147.836
149.781
151.684
153.509
155.241
156.932
158.7
160.547
162.408
164.254
166.083
115.874
115.866
165.875
163.911
161.939
159.95
157.94
155.92
153.903
151.855
149.808
147.807
145.78
143.754
141.743
139.743
137.748
135.757
133.766
131.776
129.786
127.796
125.807
123.819
121.831
119.844
117.858
169.039
115.872
169.265
167.884
115.844
117.834
119.819
121.806
123.791
125.777
127.765
129.755
131.739
133.725
135.711
137.697
139.685
141.677
143.676
145.676
147.663
149.609
151.561
153.459
155.313
157.14
158.967
160.817
162.681
164.536
166.382
182.029
177.677
176.01
177.024
168.201
166.08
163.967
161.924
159.899
157.876
155.854
153.833
151.802
149.762
147.76
145.754
143.744
141.739
139.742
137.747
135.755
133.765
131.774
129.783
127.792
125.804
123.814
121.825
119.839
117.854
115.868
113.881
113.886
113.888
113.876
181.747
113.858
183.432
184.169
169.645
186.432
181.365
170.855
168.232
111.895
111.898
111.898
111.886
111.871
111.856
113.841
115.83
117.814
119.801
121.786
123.772
125.76
127.749
129.737
131.725
133.711
135.697
137.684
139.67
141.658
143.646
145.629
147.595
149.535
151.487
153.42
155.361
157.284
159.171
161.054
162.937
164.816
166.681
172.388
200.823
181.24
180.269
178.231
176.268
174.262
172.221
170.157
168.085
166.026
163.959
161.903
159.865
157.836
155.811
153.787
151.761
149.734
147.731
145.732
143.732
141.733
139.739
137.745
135.754
133.762
131.77
129.777
127.789
125.798
123.807
121.82
119.834
117.847
115.861
113.875
111.889
248.396
185.161
203.79
171.072
223.443
185.188
170.079
172.557
111.842
113.829
115.814
117.801
119.785
121.771
123.759
125.748
127.737
129.724
131.712
133.7
135.686
137.672
139.657
141.641
143.62
145.592
147.549
149.493
151.445
153.399
155.371
157.348
159.304
161.242
163.158
165.056
166.951
168.549
187.655
184.274
180.359
178.173
176.143
174.118
172.082
170.036
167.989
165.946
163.902
161.86
159.828
157.801
155.778
153.754
151.731
149.713
147.71
145.714
143.721
141.729
139.735
137.743
135.75
133.757
131.764
129.774
127.783
125.791
123.801
121.815
119.827
117.839
115.853
113.867
111.882
109.896
109.901
109.905
109.907
109.906
109.898
109.885
109.871
109.857
206.956
229.538
270.97
186.903
195.97
271.839
168.829
170.418
189.27
188.791
197.058
179.852
180.122
178.072
176.023
173.987
171.955
169.923
167.892
165.863
163.834
161.806
159.782
157.762
155.743
153.724
151.707
149.696
147.695
145.701
143.713
141.723
139.731
137.738
135.745
133.751
131.76
129.769
127.776
125.786
123.797
121.808
119.818
117.832
115.844
113.859
111.874
109.889
107.903
107.909
107.914
107.914
107.916
107.918
107.908
107.896
107.886
107.874
107.864
109.848
111.833
113.818
115.805
117.789
119.775
121.762
123.75
125.739
127.727
129.714
131.702
133.689
135.675
137.659
139.642
141.621
143.596
145.562
147.518
149.468
151.422
153.387
155.366
157.35
159.353
161.345
163.313
165.251
167.175
189.113
170.678
172.285
174.447
190.734
190.389
188.574
186.912
185.173
182.199
182.044
180.038
177.961
175.899
173.855
171.828
169.807
167.791
165.775
163.759
161.743
159.729
157.717
155.706
153.695
151.686
149.68
147.683
145.692
143.702
141.712
139.721
137.729
135.736
133.745
131.754
129.761
127.77
125.781
123.791
121.8
119.812
117.822
115.836
113.852
111.866
109.881
107.897
105.912
105.917
105.921
105.924
105.927
105.924
105.924
105.916
105.909
105.899
105.89
105.881
105.873
107.857
109.841
111.826
113.812
115.797
117.784
119.77
121.757
123.745
125.732
127.719
129.706
131.692
133.678
135.663
137.646
139.626
141.602
143.574
145.538
147.496
149.45
151.407
153.38
155.358
157.345
159.352
161.37
163.39
165.392
167.353
169.076
190.83
190.64
265.568
170.934
186.277
188.275
190.146
173.981
178.358
174.616
172.488
192.191
192.097
103.926
103.929
103.933
103.934
103.934
103.933
103.931
103.926
103.919
103.912
103.904
103.896
103.887
103.88
105.865
107.851
109.836
111.822
113.808
115.794
117.781
119.767
121.754
123.74
125.727
127.713
129.699
131.684
133.668
135.651
137.632
139.611
141.586
143.556
145.52
147.48
149.437
151.397
153.371
155.351
157.336
159.346
161.361
163.389
165.433
167.468
169.289
182.635
192.454
176.333
230.675
179.961
177.83
175.753
173.712
171.694
169.685
167.683
165.682
163.679
161.675
159.671
157.668
155.665
153.663
151.662
149.663
147.668
145.678
143.688
141.698
139.708
137.717
135.726
133.735
131.744
129.754
127.764
125.774
123.784
121.794
119.804
117.815
115.83
113.843
111.858
109.874
107.89
105.906
103.921
192.212
192.44
245.301
174.223
194.068
172.762
103.872
105.859
107.845
109.832
111.818
113.805
115.792
117.777
119.764
121.75
123.736
125.722
127.707
129.691
131.675
133.657
135.638
137.618
139.595
141.57
143.541
145.506
147.467
149.427
151.39
153.366
155.339
157.328
159.335
161.348
163.374
165.424
167.506
169.473
181.19
193.949
101.934
101.937
101.94
101.943
101.942
101.942
101.942
101.939
101.934
101.929
101.923
101.915
101.908
101.901
101.893
101.884
184.007
193.738
191.582
189.474
187.352
178.475
179.135
185.836
173.731
179.739
177.623
175.568
173.549
171.549
169.56
167.573
165.587
163.597
161.605
159.611
157.617
155.622
153.627
151.633
149.641
147.65
145.661
143.671
141.682
139.693
137.703
135.713
133.724
131.734
129.744
127.755
125.765
123.776
121.786
119.797
117.81
115.822
113.836
111.852
109.868
107.883
105.899
103.914
101.928
241.92
171.18
175.704
193.781
194.195
194.085
179.81
244.754
248.068
177.181
174.6
169.643
177.031
210.133
179.002
238.982
101.878
103.866
105.853
107.841
109.828
111.815
113.801
115.788
117.775
119.76
121.746
123.731
125.716
127.7
129.683
131.665
133.647
135.626
137.604
139.58
141.554
143.525
145.493
147.457
149.419
151.384
153.357
155.332
157.32
159.321
161.331
163.353
165.389
167.436
169.495
182.554
199.129
201.831
99.9407
99.9451
99.9477
99.9509
99.9517
99.9519
99.9519
99.9492
99.9451
99.942
99.9372
99.931
99.9244
99.9181
99.9111
99.9044
99.8973
99.8899
178.841
195.261
192.921
190.707
188.601
186.587
226.694
199.293
181.265
179.314
177.329
175.344
173.367
171.398
169.431
167.463
165.491
163.515
161.534
159.551
157.565
155.578
153.591
151.603
149.615
147.628
145.64
143.653
141.665
139.677
137.689
135.7
133.711
131.723
129.734
127.745
125.756
123.767
121.779
119.791
117.803
115.816
113.83
111.846
109.86
107.876
105.893
103.907
101.922
99.9351
185.237
171.431
200.22
191.326
193.284
195.304
173.043
195.815
195.739
195.946
238.877
199.706
224.498
174.644
171.171
181.143
245.182
241.714
169.234
167.298
165.311
163.309
161.303
159.303
157.312
155.322
153.349
151.379
149.412
147.446
145.479
143.51
141.539
139.566
137.591
135.614
133.635
131.655
129.674
127.692
125.709
123.725
121.741
119.756
117.77
115.784
113.798
111.811
109.824
107.837
105.849
103.86
101.873
99.8837
238.634
97.9473
97.9518
97.955
97.9582
97.9608
97.9604
97.9603
97.9578
97.9542
97.9512
97.9476
97.943
97.9383
97.9325
97.9265
97.921
97.9155
97.908
97.9015
97.8947
183.61
171.723
189.419
248.925
248.777
248.825
248.8
248.707
244.997
241.396
237.956
174.495
235.734
197.335
201.54
200.872
192.619
194.663
196.779
174.888
186.391
243.919
196.548
194.148
191.935
189.918
188.105
185.123
186.727
182.555
180.759
178.907
177.02
175.106
173.179
171.245
169.304
167.355
165.398
163.435
161.466
159.492
157.515
155.535
153.554
151.571
149.588
147.603
145.619
143.633
141.647
139.661
137.674
135.686
133.699
131.711
129.723
127.735
125.747
123.759
121.771
119.783
117.796
115.81
113.824
111.838
109.853
107.869
105.884
103.9
101.915
99.928
97.9412
198.334
196.223
194.121
225.402
195.125
173.357
228.218
193.124
233.248
197.702
197.717
197.376
195.056
195.963
193.864
238.303
197.184
234.221
237.075
203.088
195.704
198.175
240.872
244.707
248.552
169.126
167.182
165.222
163.246
161.262
159.276
157.294
155.314
153.34
151.37
149.402
147.433
145.465
143.496
141.525
139.553
137.578
135.602
133.624
131.645
129.665
127.683
125.701
123.718
121.734
119.75
117.765
115.779
113.793
111.806
109.82
107.832
105.844
103.856
101.867
99.8787
97.8889
189.315
191.04
193.018
195.197
197.57
200.111
220.808
181.981
172.334
190.643
193.005
234.655
235.187
200.522
198.158
172.993
229.689
224.643
183.424
184.597
253.006
239.565
244.467
202.795
95.9537
95.9584
95.962
95.965
95.9681
95.9684
95.9676
95.965
95.9619
95.9591
95.9557
95.9521
95.9488
95.9452
95.9397
95.935
95.9307
95.925
95.9184
95.9117
95.9056
95.9009
252.908
252.738
252.637
252.579
252.527
252.458
236.163
173.759
187.539
192.119
191.312
178.514
231.85
232.082
199.619
227.947
203.419
198.97
228.999
175.259
272.332
252.727
199.471
184.853
183.505
181.963
180.297
178.545
176.734
174.88
172.997
171.096
169.181
167.251
165.311
163.361
161.403
159.438
157.468
155.494
153.518
151.54
149.561
147.579
145.597
143.614
141.629
139.645
137.659
135.673
133.686
131.699
129.712
127.725
125.737
123.75
121.763
119.776
117.789
115.803
113.816
111.831
109.847
107.861
105.877
103.892
101.906
99.9197
97.9338
95.9476
267.432
214.048
272.102
191.841
234.859
199.42
243.527
186.318
179.914
234.19
182.753
182.134
188.591
190.127
191.882
193.849
196.016
198.378
200.927
203.648
205.65
206.523
180.264
192.646
176.728
185.679
172.739
170.885
169.007
167.085
165.142
163.185
161.217
159.245
157.271
155.298
153.327
151.358
149.39
147.422
145.453
143.484
141.513
139.541
137.567
135.591
133.614
131.635
129.656
127.675
125.693
123.711
121.727
119.743
117.759
115.774
113.788
111.802
109.815
107.827
105.84
103.852
101.863
99.874
97.8852
95.8971
240.289
244.34
248.367
252.373
231.63
271.762
193.806
196.111
198.757
210.863
204.519
207.681
171.355
187.209
175.579
174.309
188.718
191.038
189.582
185.899
231.325
231.581
204.74
201.42
173.522
225.103
179.66
220.821
217.053
202.898
200.466
224.845
177.123
180.876
181.443
190.842
218.345
221.301
224.706
186.722
187.928
256.684
256.711
256.66
256.565
256.471
256.401
256.365
256.333
256.306
185.655
175.718
201.227
201.564
228.239
222.347
182.577
184.448
183.044
181.537
179.937
178.249
176.494
174.686
172.841
170.968
169.072
167.16
165.233
163.295
161.346
159.389
157.426
155.458
153.486
151.512
149.535
147.557
145.577
143.596
141.613
139.629
137.645
135.659
133.674
131.688
129.701
127.715
125.728
123.741
121.754
119.768
117.781
115.795
113.809
111.824
109.838
107.854
105.868
103.883
101.897
99.9117
97.9261
95.9405
93.9543
93.9602
93.9652
93.969
93.9712
93.973
93.9737
93.9734
93.9713
93.9685
93.9656
93.9621
93.9593
93.9567
93.9544
93.9517
93.9467
93.9429
93.9386
93.9343
93.9288
93.9226
93.9168
93.912
93.9082
190.25
228.341
209.522
208.68
206.304
187.379
256.804
247.787
175.556
176.706
188.952
190.637
192.445
194.425
196.594
198.968
201.56
204.368
207.37
210.487
216.374
212.514
213.568
174.946
189.896
187.796
231.352
204.316
171.935
221.229
215.399
213.454
201.8
220.866
178.953
221.406
183.136
208.526
205.158
202.057
199.241
196.676
194.359
192.109
188.245
252.626
183.272
235.639
239.797
243.993
248.157
252.291
256.286
183.719
177.624
272.811
203.538
260.879
260.667
260.546
260.48
260.411
260.333
260.251
260.187
260.148
260.128
260.122
260.122
217.855
224.718
180.402
198.29
175.852
272.274
184.701
185.81
184.275
182.786
181.263
179.685
178.035
176.315
174.543
172.723
170.869
168.987
167.085
165.168
163.239
161.298
159.348
157.39
155.426
153.459
151.487
149.513
147.537
145.559
143.579
141.598
139.615
137.631
135.647
133.662
131.677
129.691
127.705
125.718
123.732
121.746
119.759
117.773
115.787
113.801
111.816
109.83
107.845
105.86
103.875
101.889
99.9039
97.9187
95.9333
93.9473
91.96
91.9668
91.9714
91.9738
91.9756
91.9766
91.9775
91.9778
91.9768
91.9743
91.9713
91.9682
91.9654
91.963
91.9612
91.9598
91.9577
91.9532
91.9499
91.9467
91.9438
91.9389
91.9332
91.9281
91.9237
91.9195
91.9172
93.9048
95.8934
97.8827
99.8709
101.859
103.847
105.836
107.823
109.81
111.797
113.783
115.768
117.753
119.737
121.721
123.704
125.686
127.667
129.648
131.627
133.605
135.581
137.557
139.53
141.502
143.473
145.442
147.411
149.378
151.346
153.312
155.279
157.247
159.213
161.175
163.131
165.077
167.011
168.933
170.85
172.833
174.689
176.523
178.249
212.083
182.074
184.207
184.704
186.458
180.285
188.62
203.623
218.246
176.276
177.542
189.171
186.833
184.945
188.479
227.902
227.89
207.967
218.059
211.76
209.321
215.797
202.881
205.498
224.538
217.346
213.36
179.463
220.879
204.337
212.489
214.855
206.769
207.446
227.763
186.73
188.031
176.897
215.098
211.634
208.178
204.944
201.991
199.325
196.927
194.758
192.789
190.991
189.309
205.465
183.933
178.101
190.519
192.506
194.674
197.003
199.551
202.396
205.605
209.242
184.465
181.994
229.19
234.047
238.824
243.372
178.372
213.743
184.988
214.25
182.19
221.151
180.822
234.954
239.313
243.652
247.969
252.247
256.371
260.387
183.281
181.894
184.39
182.748
181.153
179.517
177.908
176.248
174.476
172.657
170.773
168.869
166.953
165.026
163.087
161.14
159.185
157.225
155.263
153.299
151.334
149.368
147.401
145.433
143.464
141.493
139.521
137.548
135.573
133.597
131.619
129.641
127.661
125.68
123.698
121.715
119.732
117.748
115.763
113.778
111.792
109.806
107.819
105.831
103.844
101.856
99.8684
97.8799
95.8916
93.9038
91.9169
208.314
205.425
89.9702
89.977
89.9788
89.979
89.9794
89.9802
89.981
89.9813
89.9796
89.9768
89.9738
89.9709
89.9684
89.9666
89.9656
89.965
89.9638
89.9598
89.9574
89.9551
89.9538
89.9492
89.9441
89.9389
89.9354
89.9323
89.931
89.9317
218.45
264.552
264.367
264.264
264.184
264.106
264.032
263.962
263.902
263.86
263.834
263.816
263.878
264.265
252.216
256.394
260.647
264.649
187.111
185.61
184.105
182.609
181.091
179.526
177.897
176.2
174.445
172.639
170.796
168.923
167.029
165.119
163.195
161.259
159.314
157.361
155.401
153.436
151.467
149.495
147.52
145.543
143.564
141.584
139.602
137.62
135.636
133.652
131.667
129.681
127.696
125.71
123.723
121.737
119.751
117.765
115.78
113.794
111.808
109.823
107.837
105.852
103.867
101.882
99.8966
97.9115
95.9262
93.9403
91.9535
89.9658
217.602
211.119
224.131
224.277
183.97
187.401
178.225
179.453
209.638
205.885
188.201
208.114
183.031
189.097
190.867
192.789
194.879
197.194
199.758
202.613
205.84
209.519
243.83
168.612
223.464
228.663
233.966
238.949
189.615
217.119
212.85
208.819
205.293
202.232
199.542
197.133
194.957
192.986
191.201
178.828
186.256
185.694
224.029
210.479
214.295
211.272
207.037
186.837
185.387
183.955
182.488
180.98
179.413
177.786
176.103
174.352
172.548
170.697
168.813
166.908
164.988
163.056
161.113
159.164
157.209
155.25
153.288
151.325
149.36
147.393
145.426
143.457
141.486
139.515
137.541
135.567
133.591
131.613
129.635
127.655
125.674
123.693
121.71
119.727
117.743
115.759
113.774
111.788
109.802
107.815
105.828
103.841
101.853
99.8657
97.8778
95.8902
93.9031
91.9171
89.9325
229.434
234.208
238.852
243.32
247.828
252.278
256.725
260.989
264.804
181.311
220.594
208.144
216.961
220.226
183.036
180.191
250.715
255.412
260.046
264.301
186.002
220.533
268.22
268
267.884
267.828
267.774
267.719
267.664
267.612
267.566
267.528
267.499
267.489
267.539
267.881
268.324
270.865
87.9764
87.9771
87.9843
87.9837
87.9826
87.9812
87.9818
87.9831
87.9838
87.9813
87.9787
87.9758
87.9733
87.9711
87.9698
87.9695
87.9699
87.9699
87.9664
87.9649
87.9635
87.9636
87.9594
87.955
87.9513
87.948
87.9458
87.9449
87.9471
87.949
186.81
185.401
183.947
182.481
180.988
179.447
177.829
176.138
174.384
172.584
170.747
168.881
166.992
165.085
163.165
161.232
159.29
157.339
155.382
153.419
151.452
149.481
147.507
145.531
143.553
141.573
139.592
137.61
135.626
133.642
131.658
129.673
127.687
125.702
123.716
121.73
119.744
117.758
115.772
113.787
111.801
109.816
107.83
105.845
103.86
101.875
99.8899
97.9048
95.9196
93.934
91.9479
89.961
87.9711
209.947
213.624
220.112
184.632
180.759
89.9329
91.9173
190.097
189.084
87.9499
85.9611
85.9664
85.9669
85.9628
85.9617
85.9643
85.9674
85.9653
85.9643
85.9679
85.9673
85.97
85.9689
85.9672
85.9682
85.9683
85.9668
85.9707
85.9702
85.9728
85.9726
85.9741
85.9742
85.982
85.9758
85.9921
85.9899
85.9796
85.9942
89.9574
87.9712
85.9795
85.9881
93.929
91.9434
97.8992
95.9142
101.869
99.8842
105.839
103.854
109.81
107.824
113.78
111.795
117.751
115.766
121.723
119.737
125.694
123.709
129.665
127.68
133.635
131.65
137.602
135.618
141.565
139.584
145.522
143.544
149.471
147.498
153.407
151.441
157.325
155.369
161.216
159.274
165.067
163.147
168.86
166.973
172.562
170.725
176.112
174.362
179.418
177.803
182.41
180.944
185.278
183.847
188.214
186.724
191.31
189.706
195.057
193.089
199.649
197.234
205.428
202.35
213.286
209.005
223.049
218.064
233.641
228.44
242.982
238.564
252.634
247.77
261.986
257.497
269.37
271.281
271.401
271.153
271.156
271.178
271.164
271.217
271.197
271.259
271.239
271.294
271.279
271.35
271.312
270.453
271.461
268.625
269.259
271.934
272.64
267
269.413
259.312
263.645
249.265
254.444
239.251
244.132
228.699
233.986
218.618
223.6
209.673
213.91
202.73
205.967
197.294
199.865
192.903
194.978
189.438
191.066
186.561
187.973
183.752
185.168
180.871
182.325
177.745
179.358
174.298
176.053
170.65
172.494
166.878
168.776
163.035
164.963
159.15
161.096
155.24
157.197
151.318
153.28
147.388
149.353
143.451
145.42
139.51
141.481
135.562
137.536
131.609
133.586
127.651
129.63
123.689
125.67
119.723
121.706
115.755
117.739
111.784
113.77
107.812
109.798
103.838
105.825
99.8636
101.851
95.8894
97.8764
93.9029
271.909
272.618
216.349
178.51
85.9721
210.882
85.9867
239.442
272.803
272.948
272.95
272.994
272.993
273
273
176.375
217.548
216.213
212.764
212.988
170.324
172.772
170.594
187.392
184.15
185.741
188.878
185.567
187.197
190.393
186.909
188.63
191.863
188.176
189.995
216.65
182.282
272.541
183.57
267.151
180.94
201.307
214.526
183.612
185.679
180.185
174.719
167.267
218.394
179.56
174.451
185.531
247.425
183.208
249.545
177.787
182.11
225.696
176.954
270.365
174.516
204.537
176.427
175.229
179.771
187.989
272.529
242.057
201.981
188.169
187.94
218.09
257.658
234.503
193.901
269.299
175.137
170.984
172.486
192.062
170.675
236.252
185.805
195.172
180.372
155.134
150.329
187.821
)
;

boundaryField
{
    wall
    {
        type            zeroGradient;
    }
    outlet
    {
        type            fixedValue;
        value           uniform 85;
    }
    inlet
    {
        type            fixedValue;
        value           uniform 273;
    }
    frontAndBackPlanes
    {
        type            empty;
    }
}


// ************************************************************************* //
