/*--------------------------------*- C++ -*----------------------------------*\
| =========                 |                                                 |
| \\      /  F ield         | OpenFOAM: The Open Source CFD Toolbox           |
|  \\    /   O peration     | Version:  2212                                  |
|   \\  /    A nd           | Website:  www.openfoam.com                      |
|    \\/     M anipulation  |                                                 |
\*---------------------------------------------------------------------------*/
FoamFile
{
    version     2.0;
    format      ascii;
    arch        "LSB;label=32;scalar=64";
    class       volScalarField;
    location    "0.16";
    object      k;
}
// * * * * * * * * * * * * * * * * * * * * * * * * * * * * * * * * * * * * * //

dimensions      [0 2 -2 0 0 0 0];

internalField   nonuniform List<scalar> 
24240
(
9.86942e-06
1.85146e-05
2.31747e-05
2.31665e-05
2.31666e-05
2.31672e-05
2.31678e-05
2.31684e-05
2.31689e-05
2.31694e-05
2.31697e-05
2.317e-05
2.31701e-05
2.31701e-05
2.317e-05
2.31698e-05
2.31699e-05
2.31782e-05
1.85137e-05
9.86527e-06
8.77239e-09
1.26816e-08
5.74393e-08
6.86226e-08
6.17293e-08
6.17227e-08
6.17151e-08
6.17066e-08
6.16972e-08
6.16872e-08
6.16768e-08
6.16661e-08
6.16553e-08
6.16447e-08
6.16344e-08
6.16247e-08
6.84833e-08
5.73137e-08
1.26479e-08
8.80441e-09
5.32349e-13
1.03277e-12
3.90223e-12
1.06311e-08
8.66425e-09
8.66321e-09
8.66206e-09
8.66076e-09
8.65934e-09
8.65783e-09
8.65626e-09
8.65465e-09
8.65303e-09
8.65144e-09
8.6499e-09
8.64849e-09
1.06089e-08
3.89979e-12
1.03183e-12
5.36812e-13
1.09116e-15
1.61873e-15
1.59516e-14
1.98862e-09
1.99918e-09
1.99917e-09
1.99915e-09
1.99913e-09
1.99912e-09
1.99911e-09
1.9991e-09
1.99909e-09
1.99909e-09
1.9991e-09
1.99911e-09
1.99912e-09
1.98855e-09
1.53779e-14
1.61839e-15
1.09254e-15
1.00007e-15
1.00119e-15
8.49516e-15
2.14911e-09
2.16915e-09
2.16916e-09
2.16917e-09
2.16919e-09
2.16921e-09
2.16923e-09
2.16925e-09
2.16928e-09
2.16931e-09
2.16934e-09
2.16938e-09
2.16941e-09
2.14941e-09
8.8024e-15
1.00119e-15
1.00007e-15
1e-15
1e-15
2.26553e-15
3.90242e-10
3.94304e-10
3.94298e-10
3.9429e-10
3.94283e-10
3.94276e-10
3.94268e-10
3.94262e-10
3.94256e-10
3.9425e-10
3.94246e-10
3.94242e-10
3.9424e-10
3.90171e-10
2.24918e-15
1e-15
1e-15
1e-15
1e-15
3.61734e-15
8.32716e-10
8.4446e-10
8.44446e-10
8.44432e-10
8.44417e-10
8.44402e-10
8.44389e-10
8.44378e-10
8.44368e-10
8.44361e-10
8.44355e-10
8.44351e-10
8.44349e-10
8.32595e-10
3.65871e-15
1.00001e-15
1e-15
1e-15
1e-15
1.24019e-15
8.98911e-11
9.11759e-11
9.11816e-11
9.1188e-11
9.1195e-11
9.12024e-11
9.12101e-11
9.12177e-11
9.12251e-11
9.12318e-11
9.12378e-11
9.12428e-11
9.12467e-11
8.99682e-11
1.23967e-15
1e-15
1e-15
1e-15
1e-15
1.39548e-15
1.56108e-10
1.58837e-10
1.58843e-10
1.58849e-10
1.58856e-10
1.58864e-10
1.58872e-10
1.5888e-10
1.58887e-10
1.58894e-10
1.58899e-10
1.58902e-10
1.58904e-10
1.56179e-10
1.39316e-15
1e-15
1e-15
1e-15
1e-15
1.06414e-15
3.25597e-11
3.30552e-11
3.30466e-11
3.3037e-11
3.30267e-11
3.30161e-11
3.30054e-11
3.29949e-11
3.29848e-11
3.29754e-11
3.29667e-11
3.29589e-11
3.29519e-11
3.24449e-11
1.06166e-15
1e-15
1e-15
1e-15
1e-15
1.01046e-15
5.65177e-12
5.72277e-12
5.72093e-12
5.71887e-12
5.71667e-12
5.71438e-12
5.71209e-12
5.70984e-12
5.70769e-12
5.70568e-12
5.70385e-12
5.70221e-12
5.70079e-12
5.62737e-12
1.00951e-15
1e-15
1e-15
1e-15
1e-15
1.26817e-15
1.12354e-10
1.13733e-10
1.13716e-10
1.13698e-10
1.13678e-10
1.13657e-10
1.13637e-10
1.13617e-10
1.13598e-10
1.1358e-10
1.13565e-10
1.13551e-10
1.1354e-10
1.1214e-10
1.25709e-15
1e-15
1e-15
1e-15
1e-15
1.04704e-15
1.89921e-11
1.9185e-11
1.91827e-11
1.91801e-11
1.91774e-11
1.91746e-11
1.91719e-11
1.91693e-11
1.91669e-11
1.91647e-11
1.91628e-11
1.91613e-11
1.91602e-11
1.89648e-11
1.0418e-15
1e-15
1e-15
1e-15
1.00001e-15
3.71158e-15
8.04061e-10
8.11095e-10
8.1107e-10
8.11043e-10
8.11016e-10
8.10991e-10
8.10968e-10
8.10948e-10
8.10934e-10
8.10925e-10
8.10924e-10
8.10929e-10
8.10941e-10
8.03904e-10
3.5858e-15
1e-15
1e-15
1e-15
1e-15
1.98776e-15
2.94963e-10
2.97048e-10
2.97037e-10
2.97025e-10
2.97013e-10
2.97002e-10
2.96992e-10
2.96984e-10
2.96978e-10
2.96975e-10
2.96975e-10
2.96978e-10
2.96983e-10
2.94897e-10
1.85884e-15
1e-15
1e-15
1e-15
1.0001e-15
3.6521e-14
9.7991e-09
9.84777e-09
9.8478e-09
9.84767e-09
9.84754e-09
9.84743e-09
9.84735e-09
9.84718e-09
9.84729e-09
9.84734e-09
9.84744e-09
9.8476e-09
9.84764e-09
9.79906e-09
3.45989e-14
1.0001e-15
1e-15
1.00088e-15
1.02577e-15
2.93763e-13
1.01569e-08
1.01857e-08
1.01738e-08
1.01736e-08
1.01735e-08
1.01734e-08
1.01733e-08
1.01827e-08
1.01736e-08
1.01737e-08
1.01738e-08
1.0174e-08
1.01859e-08
1.01571e-08
2.84052e-13
1.02556e-15
1.00088e-15
1.35699e-13
4.39309e-13
2.57768e-08
3.84896e-08
3.35686e-08
3.13601e-08
3.13552e-08
3.13497e-08
3.13435e-08
3.13368e-08
3.47305e-08
3.13234e-08
3.13158e-08
3.13083e-08
3.13009e-08
3.34976e-08
3.83866e-08
2.56948e-08
4.32799e-13
1.35549e-13
4.49891e-10
9.88423e-09
1.97786e-07
2.41901e-07
2.17386e-07
2.16993e-07
2.16957e-07
2.16917e-07
2.16872e-07
2.16823e-07
2.17555e-07
2.16722e-07
2.16667e-07
2.16611e-07
2.16557e-07
2.1687e-07
2.41234e-07
1.97172e-07
9.83673e-09
4.49373e-10
6.95191e-05
0.00010837
0.00013376
0.000133802
0.000133798
0.000133797
0.000133796
0.000133794
0.000133792
0.000133789
0.000133785
0.000133781
0.000133777
0.000133772
0.000133767
0.000133763
0.000133762
0.000133716
0.00010833
6.94488e-05
1.11645e-05
2.27787e-05
2.83268e-05
2.82845e-05
2.82858e-05
2.82873e-05
2.82889e-05
2.82906e-05
2.82923e-05
2.8294e-05
2.82956e-05
2.8297e-05
2.82982e-05
2.82993e-05
2.83001e-05
2.83008e-05
2.83013e-05
2.83448e-05
2.27923e-05
1.11675e-05
2.82516e-08
2.53401e-08
7.44247e-08
8.54917e-08
7.8193e-08
7.81878e-08
7.81817e-08
7.81748e-08
7.81672e-08
7.8159e-08
7.81504e-08
7.81416e-08
7.81327e-08
7.81238e-08
7.81151e-08
7.81069e-08
8.53741e-08
7.43198e-08
2.53153e-08
2.83187e-08
4.36047e-12
4.9693e-12
1.71576e-11
1.11794e-08
9.07691e-09
9.07599e-09
9.07497e-09
9.07382e-09
9.07257e-09
9.07124e-09
9.06986e-09
9.06845e-09
9.06703e-09
9.06563e-09
9.06427e-09
9.06303e-09
1.11598e-08
1.71365e-11
4.96295e-12
4.38272e-12
1.71772e-15
3.49971e-15
4.35321e-14
9.58825e-09
9.63727e-09
9.63714e-09
9.637e-09
9.63687e-09
9.63675e-09
9.63664e-09
9.63656e-09
9.63649e-09
9.63645e-09
9.63644e-09
9.63646e-09
9.63649e-09
9.58742e-09
4.19578e-14
3.49834e-15
1.72642e-15
1.00056e-15
1.00538e-15
3.18775e-14
1.02668e-08
1.03597e-08
1.03597e-08
1.03598e-08
1.03599e-08
1.036e-08
1.03601e-08
1.03602e-08
1.03603e-08
1.03605e-08
1.03606e-08
1.03608e-08
1.0361e-08
1.02683e-08
3.34635e-14
1.00538e-15
1.00056e-15
1e-15
1.00003e-15
6.91149e-15
2.09494e-09
2.11648e-09
2.11644e-09
2.11639e-09
2.11634e-09
2.11629e-09
2.11623e-09
2.11619e-09
2.11614e-09
2.1161e-09
2.11607e-09
2.11604e-09
2.11602e-09
2.09443e-09
6.83888e-15
1.00003e-15
1e-15
1e-15
1.00002e-15
1.15128e-14
4.0553e-09
4.11102e-09
4.11099e-09
4.11095e-09
4.11091e-09
4.11088e-09
4.11085e-09
4.11083e-09
4.11081e-09
4.1108e-09
4.1108e-09
4.1108e-09
4.11081e-09
4.05506e-09
1.18011e-14
1.00002e-15
1e-15
1e-15
1e-15
2.16709e-15
5.37232e-10
5.44692e-10
5.44745e-10
5.44805e-10
5.44869e-10
5.44937e-10
5.45007e-10
5.45076e-10
5.45141e-10
5.45201e-10
5.45253e-10
5.45297e-10
5.45331e-10
5.37929e-10
2.1691e-15
1e-15
1e-15
1e-15
1e-15
2.63184e-15
7.9538e-10
8.08397e-10
8.08466e-10
8.08543e-10
8.08627e-10
8.08714e-10
8.08804e-10
8.0889e-10
8.08972e-10
8.09043e-10
8.09104e-10
8.09149e-10
8.0918e-10
7.96221e-10
2.63381e-15
1e-15
1e-15
1e-15
1e-15
1.35205e-15
2.26277e-10
2.29542e-10
2.29469e-10
2.29387e-10
2.293e-10
2.29208e-10
2.29116e-10
2.29025e-10
2.28937e-10
2.28855e-10
2.28779e-10
2.2871e-10
2.28649e-10
2.25286e-10
1.33476e-15
1e-15
1e-15
1e-15
1e-15
1.07729e-15
4.99594e-11
5.0571e-11
5.05549e-11
5.05368e-11
5.05174e-11
5.04972e-11
5.04769e-11
5.04569e-11
5.04377e-11
5.04198e-11
5.04034e-11
5.03887e-11
5.03759e-11
4.97427e-11
1.06979e-15
1e-15
1e-15
1e-15
1e-15
2.38424e-15
7.05616e-10
7.14052e-10
7.13938e-10
7.1381e-10
7.13674e-10
7.13533e-10
7.13392e-10
7.13254e-10
7.13122e-10
7.12998e-10
7.12886e-10
7.12785e-10
7.12699e-10
7.04114e-10
2.31793e-15
1e-15
1e-15
1e-15
1e-15
1.30662e-15
1.46335e-10
1.47767e-10
1.47749e-10
1.47729e-10
1.47709e-10
1.47687e-10
1.47666e-10
1.47645e-10
1.47627e-10
1.47609e-10
1.47594e-10
1.47582e-10
1.47572e-10
1.4612e-10
1.26765e-15
1e-15
1e-15
1e-15
1.00002e-15
1.24968e-14
3.9807e-09
4.01523e-09
4.01503e-09
4.01482e-09
4.0146e-09
4.01438e-09
4.01416e-09
4.01397e-09
4.0138e-09
4.01366e-09
4.01355e-09
4.01348e-09
4.01345e-09
3.97878e-09
1.18936e-14
1.00002e-15
1e-15
1e-15
1.00001e-15
6.09997e-15
1.75995e-09
1.77213e-09
1.77205e-09
1.77197e-09
1.77188e-09
1.7718e-09
1.77172e-09
1.77165e-09
1.77159e-09
1.77156e-09
1.77153e-09
1.77153e-09
1.77154e-09
1.75933e-09
5.33709e-15
1.00001e-15
1e-15
1e-15
1.00025e-15
1.33786e-13
4.17152e-08
4.19308e-08
4.19305e-08
4.19299e-08
4.19293e-08
4.19287e-08
4.19282e-08
4.19276e-08
4.19276e-08
4.19277e-08
4.19279e-08
4.19283e-08
4.19287e-08
4.17132e-08
1.25506e-13
1.00023e-15
1e-15
1.00095e-15
1.03107e-15
4.09977e-13
4.35589e-08
4.37203e-08
4.36967e-08
4.3696e-08
4.36953e-08
4.36947e-08
4.36942e-08
4.37099e-08
4.3694e-08
4.3694e-08
4.36942e-08
4.36946e-08
4.37181e-08
4.35566e-08
3.84234e-13
1.03081e-15
1.00095e-15
1.55689e-13
4.99467e-13
2.92236e-08
4.38753e-08
3.95061e-08
3.59052e-08
3.59005e-08
3.58951e-08
3.58891e-08
3.58827e-08
3.98198e-08
3.58679e-08
3.58605e-08
3.58533e-08
3.58462e-08
3.94325e-08
4.37744e-08
2.91432e-08
4.92513e-13
1.55569e-13
5.26523e-10
1.21106e-08
2.1808e-07
2.65831e-07
2.38767e-07
2.38352e-07
2.38318e-07
2.3828e-07
2.38237e-07
2.3819e-07
2.38704e-07
2.38094e-07
2.38042e-07
2.37989e-07
2.37938e-07
2.38275e-07
2.65196e-07
2.17494e-07
1.20628e-08
5.26095e-10
8.92142e-05
0.000140536
0.000172528
0.000172488
0.000172489
0.000172492
0.000172495
0.000172498
0.0001725
0.000172502
0.000172504
0.000172505
0.000172506
0.000172506
0.000172506
0.000172505
0.000172507
0.000172547
0.000140546
8.91855e-05
6.86826e-06
2.21785e-05
2.80998e-05
2.80595e-05
2.80611e-05
2.8063e-05
2.8065e-05
2.80671e-05
2.80693e-05
2.80715e-05
2.80735e-05
2.80754e-05
2.80771e-05
2.80787e-05
2.808e-05
2.8081e-05
2.80818e-05
2.81239e-05
2.21993e-05
6.87941e-06
4.82465e-08
1.83647e-08
5.65344e-08
6.45692e-08
5.86191e-08
5.86178e-08
5.86163e-08
5.86145e-08
5.86125e-08
5.86103e-08
5.8608e-08
5.86055e-08
5.86029e-08
5.86003e-08
5.85977e-08
5.8595e-08
6.45473e-08
5.64918e-08
1.83554e-08
4.8348e-08
5.46718e-12
6.02552e-12
2.1349e-11
7.73883e-09
6.20289e-09
6.20263e-09
6.20237e-09
6.20209e-09
6.20178e-09
6.20146e-09
6.20113e-09
6.20079e-09
6.20045e-09
6.20012e-09
6.1998e-09
6.19951e-09
7.73399e-09
2.13436e-11
6.02341e-12
5.52593e-12
4.07136e-15
8.97487e-15
9.75084e-14
2.82818e-08
2.84972e-08
2.84968e-08
2.84963e-08
2.84958e-08
2.84954e-08
2.84949e-08
2.84945e-08
2.84941e-08
2.84937e-08
2.84935e-08
2.84933e-08
2.84932e-08
2.82774e-08
9.47611e-14
8.97182e-15
4.11e-15
1.00297e-15
1.01874e-15
7.84101e-14
3.08478e-08
3.11411e-08
3.11409e-08
3.11406e-08
3.11403e-08
3.114e-08
3.11397e-08
3.11395e-08
3.11392e-08
3.11391e-08
3.1139e-08
3.11389e-08
3.1139e-08
3.08456e-08
8.32475e-14
1.01874e-15
1.00301e-15
1e-15
1.00008e-15
1.85718e-14
8.03396e-09
8.11542e-09
8.11523e-09
8.11502e-09
8.1148e-09
8.11457e-09
8.11435e-09
8.11414e-09
8.11394e-09
8.11376e-09
8.1136e-09
8.11347e-09
8.11339e-09
8.03174e-09
1.84167e-14
1.00008e-15
1e-15
1e-15
1.00004e-15
2.56557e-14
1.12471e-08
1.13908e-08
1.13906e-08
1.13903e-08
1.139e-08
1.13897e-08
1.13894e-08
1.13891e-08
1.13889e-08
1.13886e-08
1.13884e-08
1.13882e-08
1.13881e-08
1.12441e-08
2.65353e-14
1.00004e-15
1e-15
1e-15
1e-15
4.39831e-15
2.02632e-09
2.05297e-09
2.05298e-09
2.053e-09
2.05302e-09
2.05305e-09
2.05307e-09
2.05309e-09
2.05312e-09
2.05314e-09
2.05315e-09
2.05316e-09
2.05317e-09
2.02653e-09
4.41741e-15
1e-15
1e-15
1e-15
1e-15
4.76713e-15
2.22829e-09
2.26022e-09
2.26022e-09
2.26021e-09
2.26021e-09
2.26021e-09
2.26021e-09
2.26021e-09
2.26021e-09
2.26021e-09
2.2602e-09
2.26018e-09
2.26016e-09
2.22821e-09
4.79464e-15
1e-15
1e-15
1e-15
1e-15
2.13607e-15
8.98596e-10
9.10556e-10
9.10402e-10
9.10229e-10
9.10042e-10
9.09847e-10
9.0965e-10
9.09456e-10
9.09269e-10
9.09093e-10
9.0893e-10
9.08783e-10
9.08652e-10
8.96476e-10
2.08252e-15
1e-15
1e-15
1e-15
1e-15
1.3838e-15
3.45523e-10
3.49618e-10
3.49504e-10
3.49376e-10
3.49239e-10
3.49095e-10
3.4895e-10
3.48807e-10
3.4867e-10
3.4854e-10
3.48421e-10
3.48314e-10
3.48221e-10
3.4397e-10
1.34637e-15
1e-15
1e-15
1e-15
1.00001e-15
5.35177e-15
2.7094e-09
2.74043e-09
2.7402e-09
2.73993e-09
2.73965e-09
2.73935e-09
2.73906e-09
2.73877e-09
2.73849e-09
2.73823e-09
2.738e-09
2.7378e-09
2.73763e-09
2.70629e-09
5.14719e-15
1e-15
1e-15
1e-15
1e-15
2.43026e-15
9.1159e-10
9.20235e-10
9.20122e-10
9.19995e-10
9.19861e-10
9.19722e-10
9.19583e-10
9.19448e-10
9.19321e-10
9.19204e-10
9.191e-10
9.19011e-10
9.18938e-10
9.10154e-10
2.24115e-15
1e-15
1e-15
1e-15
1.00005e-15
3.20869e-14
1.41784e-08
1.43002e-08
1.42996e-08
1.4299e-08
1.42983e-08
1.42977e-08
1.4297e-08
1.42964e-08
1.42959e-08
1.42954e-08
1.42951e-08
1.42948e-08
1.42947e-08
1.41724e-08
3.04063e-14
1.00004e-15
1e-15
1e-15
1.00003e-15
1.90758e-14
8.11731e-09
8.17285e-09
8.17243e-09
8.17196e-09
8.17148e-09
8.17099e-09
8.17053e-09
8.1701e-09
8.16973e-09
8.16943e-09
8.16921e-09
8.16907e-09
8.16901e-09
8.11315e-09
1.6245e-14
1.00002e-15
1e-15
1e-15
1.00042e-15
2.57954e-13
9.06528e-08
9.12379e-08
9.12362e-08
9.12347e-08
9.12332e-08
9.12317e-08
9.12302e-08
9.12292e-08
9.12278e-08
9.1227e-08
9.12265e-08
9.12262e-08
9.12266e-08
9.06408e-08
2.44556e-13
1.00039e-15
1e-15
1.00068e-15
1.03289e-15
5.11475e-13
9.3205e-08
9.37181e-08
9.37547e-08
9.37535e-08
9.37522e-08
9.3751e-08
9.37498e-08
9.37197e-08
9.37467e-08
9.37461e-08
9.37458e-08
9.37457e-08
9.37082e-08
9.31946e-08
4.66981e-13
1.03264e-15
1.00068e-15
1.1967e-13
4.54666e-13
2.68785e-08
3.9577e-08
3.81648e-08
3.24127e-08
3.24103e-08
3.24076e-08
3.24047e-08
3.24015e-08
3.60241e-08
3.23919e-08
3.23884e-08
3.23849e-08
3.23816e-08
3.81119e-08
3.95253e-08
2.68401e-08
4.48985e-13
1.19634e-13
4.3466e-10
1.30346e-08
1.94168e-07
2.34084e-07
2.09282e-07
2.08829e-07
2.08813e-07
2.08794e-07
2.08774e-07
2.08752e-07
2.08985e-07
2.08707e-07
2.08683e-07
2.08659e-07
2.08636e-07
2.09051e-07
2.3378e-07
1.9388e-07
1.29948e-08
4.34505e-10
8.60926e-05
0.00014572
0.000178262
0.000178269
0.00017827
0.000178274
0.000178277
0.000178281
0.000178285
0.000178288
0.000178291
0.000178293
0.000178295
0.000178297
0.000178298
0.000178299
0.000178301
0.000178297
0.000145746
8.60981e-05
4.76783e-07
6.60608e-06
9.75822e-06
9.77114e-06
9.77202e-06
9.773e-06
9.77411e-06
9.77529e-06
9.77652e-06
9.77774e-06
9.77893e-06
9.78007e-06
9.78112e-06
9.78209e-06
9.78295e-06
9.78368e-06
9.78423e-06
9.77239e-06
6.61734e-06
4.78184e-07
6.1944e-08
1.08629e-08
2.90481e-08
3.31719e-08
2.91316e-08
2.91327e-08
2.91341e-08
2.91357e-08
2.91374e-08
2.91393e-08
2.91413e-08
2.91434e-08
2.91455e-08
2.91475e-08
2.91494e-08
2.91512e-08
3.31923e-08
2.90749e-08
1.08729e-08
6.21187e-08
1.96691e-11
1.53773e-11
5.16592e-11
6.15521e-09
4.85101e-09
4.85082e-09
4.85066e-09
4.85049e-09
4.8503e-09
4.8501e-09
4.8499e-09
4.84971e-09
4.84951e-09
4.84932e-09
4.84914e-09
4.849e-09
6.15198e-09
5.16461e-11
1.53739e-11
1.98434e-11
1.65583e-14
2.73594e-14
1.8293e-13
3.45307e-08
3.48232e-08
3.48228e-08
3.48222e-08
3.48216e-08
3.4821e-08
3.48204e-08
3.48198e-08
3.48193e-08
3.48188e-08
3.48183e-08
3.4818e-08
3.48177e-08
3.45247e-08
1.80234e-13
2.73504e-14
1.67262e-14
1.01489e-15
1.06131e-15
9.90102e-14
3.79455e-08
3.83215e-08
3.83209e-08
3.83202e-08
3.83195e-08
3.83187e-08
3.83179e-08
3.83171e-08
3.83164e-08
3.83157e-08
3.83152e-08
3.83147e-08
3.83145e-08
3.79379e-08
1.05946e-13
1.06129e-15
1.01508e-15
1.00001e-15
1.0002e-15
2.85267e-14
1.25858e-08
1.27145e-08
1.27142e-08
1.27138e-08
1.27134e-08
1.2713e-08
1.27126e-08
1.27122e-08
1.27118e-08
1.27114e-08
1.27111e-08
1.27108e-08
1.27106e-08
1.25816e-08
2.86623e-14
1.0002e-15
1.00001e-15
1e-15
1.00005e-15
3.30395e-14
1.46314e-08
1.48064e-08
1.4806e-08
1.48057e-08
1.48052e-08
1.48048e-08
1.48044e-08
1.48039e-08
1.48035e-08
1.48031e-08
1.48028e-08
1.48024e-08
1.48022e-08
1.46268e-08
3.45349e-14
1.00005e-15
1e-15
1e-15
1.00001e-15
6.31451e-15
3.14463e-09
3.18268e-09
3.18266e-09
3.18264e-09
3.18262e-09
3.18259e-09
3.18257e-09
3.18255e-09
3.18252e-09
3.1825e-09
3.18247e-09
3.18244e-09
3.18241e-09
3.14432e-09
6.39621e-15
1.00001e-15
1e-15
1e-15
1.00001e-15
6.23971e-15
3.14357e-09
3.18234e-09
3.18228e-09
3.18222e-09
3.18214e-09
3.18207e-09
3.18199e-09
3.18192e-09
3.18184e-09
3.18176e-09
3.18169e-09
3.1816e-09
3.18152e-09
3.14263e-09
6.30379e-15
1.00001e-15
1e-15
1e-15
1e-15
3.01332e-15
1.57404e-09
1.59283e-09
1.59264e-09
1.59242e-09
1.59219e-09
1.59195e-09
1.5917e-09
1.59145e-09
1.59121e-09
1.59099e-09
1.59077e-09
1.59057e-09
1.59039e-09
1.57132e-09
2.95016e-15
1e-15
1e-15
1e-15
1e-15
1.98147e-15
8.40336e-10
8.497e-10
8.49542e-10
8.49362e-10
8.49168e-10
8.48964e-10
8.48756e-10
8.48549e-10
8.48348e-10
8.48157e-10
8.47978e-10
8.47813e-10
8.47666e-10
8.38067e-10
1.89941e-15
1e-15
1e-15
1e-15
1.00001e-15
9.0407e-15
4.94895e-09
5.0032e-09
5.00288e-09
5.00251e-09
5.00211e-09
5.00169e-09
5.00127e-09
5.00085e-09
5.00045e-09
5.00006e-09
4.99971e-09
4.9994e-09
4.99912e-09
4.94441e-09
8.75662e-15
1.00001e-15
1e-15
1e-15
1e-15
5.17623e-15
2.60761e-09
2.63207e-09
2.63188e-09
2.63166e-09
2.63143e-09
2.63118e-09
2.63094e-09
2.6307e-09
2.63048e-09
2.63026e-09
2.63007e-09
2.62991e-09
2.62977e-09
2.60507e-09
4.66179e-15
1e-15
1e-15
1e-15
1.00008e-15
5.17523e-14
2.29814e-08
2.31854e-08
2.31848e-08
2.3184e-08
2.31833e-08
2.31825e-08
2.31818e-08
2.31811e-08
2.31805e-08
2.31799e-08
2.31795e-08
2.31792e-08
2.3179e-08
2.29745e-08
4.957e-14
1.00007e-15
1e-15
1e-15
1.00006e-15
4.12104e-14
1.69379e-08
1.70597e-08
1.70592e-08
1.70586e-08
1.7058e-08
1.70575e-08
1.70569e-08
1.70564e-08
1.7056e-08
1.70556e-08
1.70553e-08
1.70552e-08
1.70551e-08
1.6933e-08
3.5285e-14
1.00005e-15
1e-15
1e-15
1.0005e-15
3.02992e-13
1.01687e-07
1.02403e-07
1.02402e-07
1.024e-07
1.02398e-07
1.02397e-07
1.02395e-07
1.02394e-07
1.02392e-07
1.02391e-07
1.0239e-07
1.02389e-07
1.02389e-07
1.01672e-07
2.89601e-13
1.00048e-15
1e-15
1.00006e-15
1.03306e-15
5.29814e-13
1.03832e-07
1.04459e-07
1.04486e-07
1.04485e-07
1.04484e-07
1.04483e-07
1.04482e-07
1.04459e-07
1.04479e-07
1.04478e-07
1.04478e-07
1.04477e-07
1.04449e-07
1.03822e-07
4.82214e-13
1.03284e-15
1.00006e-15
2.75754e-14
3.20641e-13
2.14749e-08
3.23394e-08
3.04355e-08
2.63114e-08
2.63101e-08
2.63086e-08
2.63071e-08
2.63054e-08
2.92997e-08
2.62997e-08
2.62977e-08
2.62959e-08
2.62941e-08
3.04179e-08
3.23106e-08
2.14622e-08
3.18732e-13
2.75851e-14
8.20724e-11
1.32076e-08
1.36788e-07
1.6399e-07
1.45399e-07
1.45088e-07
1.45087e-07
1.45085e-07
1.45084e-07
1.45083e-07
1.45227e-07
1.45082e-07
1.45082e-07
1.45082e-07
1.45081e-07
1.45391e-07
1.63975e-07
1.36771e-07
1.31772e-08
8.2116e-11
3.66097e-05
8.441e-05
0.000107403
0.000107534
0.000107536
0.000107539
0.000107542
0.000107545
0.000107548
0.000107551
0.000107555
0.000107558
0.00010756
0.000107563
0.000107565
0.000107567
0.00010757
0.000107442
8.44402e-05
3.66141e-05
3.80281e-07
8.22406e-06
1.14078e-05
1.13964e-05
1.13973e-05
1.13982e-05
1.13993e-05
1.14004e-05
1.14016e-05
1.14028e-05
1.1404e-05
1.14052e-05
1.14063e-05
1.14073e-05
1.14082e-05
1.14091e-05
1.14096e-05
1.14222e-05
8.236e-06
3.81056e-07
4.21025e-08
2.2768e-08
5.25709e-08
5.87117e-08
5.35384e-08
5.3539e-08
5.35397e-08
5.35404e-08
5.35412e-08
5.35419e-08
5.35426e-08
5.35432e-08
5.35438e-08
5.35442e-08
5.35445e-08
5.35447e-08
5.87164e-08
5.25781e-08
2.27817e-08
4.21762e-08
5.44925e-11
3.59924e-11
1.11822e-10
6.24201e-09
4.92773e-09
4.92758e-09
4.92747e-09
4.92735e-09
4.92723e-09
4.9271e-09
4.92697e-09
4.92685e-09
4.92673e-09
4.92662e-09
4.9265e-09
4.92644e-09
6.23945e-09
1.11797e-10
3.59901e-11
5.48599e-11
4.69442e-14
6.52783e-14
3.24791e-13
4.07969e-08
4.11498e-08
4.11495e-08
4.1149e-08
4.11485e-08
4.11481e-08
4.11476e-08
4.11471e-08
4.11466e-08
4.11462e-08
4.11458e-08
4.11456e-08
4.11454e-08
4.07922e-08
3.23175e-13
6.52586e-14
4.73715e-14
1.04044e-15
1.14354e-15
1.05972e-13
4.22293e-08
4.26546e-08
4.26542e-08
4.26537e-08
4.26531e-08
4.26525e-08
4.26519e-08
4.26513e-08
4.26507e-08
4.26502e-08
4.26498e-08
4.26495e-08
4.26494e-08
4.2224e-08
1.13622e-13
1.1435e-15
1.04089e-15
1.00003e-15
1.0004e-15
3.28562e-14
1.52278e-08
1.53853e-08
1.5385e-08
1.53847e-08
1.53844e-08
1.53841e-08
1.53837e-08
1.53833e-08
1.5383e-08
1.53826e-08
1.53824e-08
1.53822e-08
1.53821e-08
1.52246e-08
3.33174e-14
1.0004e-15
1.00003e-15
1e-15
1.00005e-15
3.65312e-14
1.67257e-08
1.69173e-08
1.6917e-08
1.69167e-08
1.69164e-08
1.6916e-08
1.69157e-08
1.69153e-08
1.69149e-08
1.69146e-08
1.69143e-08
1.6914e-08
1.69138e-08
1.67221e-08
3.84081e-14
1.00006e-15
1e-15
1e-15
1.00001e-15
7.98051e-15
4.28094e-09
4.32993e-09
4.32989e-09
4.32983e-09
4.32977e-09
4.32971e-09
4.32964e-09
4.32957e-09
4.3295e-09
4.32943e-09
4.32936e-09
4.32929e-09
4.32922e-09
4.28014e-09
8.15131e-15
1.00001e-15
1e-15
1e-15
1.00001e-15
8.05518e-15
4.26695e-09
4.31615e-09
4.31605e-09
4.31594e-09
4.31581e-09
4.31568e-09
4.31554e-09
4.31541e-09
4.31527e-09
4.31512e-09
4.31498e-09
4.31483e-09
4.31466e-09
4.26523e-09
8.16774e-15
1.00001e-15
1e-15
1e-15
1e-15
4.28917e-15
2.51262e-09
2.54083e-09
2.54063e-09
2.54041e-09
2.54016e-09
2.5399e-09
2.53963e-09
2.53936e-09
2.53909e-09
2.53883e-09
2.53858e-09
2.53833e-09
2.5381e-09
2.50953e-09
4.24089e-15
1e-15
1e-15
1e-15
1e-15
2.98882e-15
1.62457e-09
1.6419e-09
1.64172e-09
1.64151e-09
1.64128e-09
1.64104e-09
1.64079e-09
1.64054e-09
1.64029e-09
1.64005e-09
1.63981e-09
1.63959e-09
1.63939e-09
1.62175e-09
2.85019e-15
1e-15
1e-15
1e-15
1.00002e-15
1.3605e-14
7.60504e-09
7.68522e-09
7.68491e-09
7.68455e-09
7.68416e-09
7.68374e-09
7.68331e-09
7.68287e-09
7.68244e-09
7.68202e-09
7.68161e-09
7.68123e-09
7.68087e-09
7.60016e-09
1.33826e-14
1.00001e-15
1e-15
1e-15
1.00001e-15
9.68497e-15
5.30273e-09
5.35227e-09
5.35206e-09
5.35181e-09
5.35155e-09
5.35127e-09
5.35098e-09
5.35069e-09
5.35041e-09
5.35014e-09
5.34988e-09
5.34965e-09
5.34945e-09
5.29958e-09
8.7166e-15
1.00001e-15
1e-15
1e-15
1.0001e-15
7.05095e-14
3.15821e-08
3.18692e-08
3.18686e-08
3.18679e-08
3.18672e-08
3.18664e-08
3.18656e-08
3.18648e-08
3.1864e-08
3.18632e-08
3.18625e-08
3.18618e-08
3.18612e-08
3.15731e-08
6.926e-14
1.0001e-15
1e-15
1e-15
1.00009e-15
6.58976e-14
2.78358e-08
2.80489e-08
2.80484e-08
2.80478e-08
2.80471e-08
2.80464e-08
2.80457e-08
2.8045e-08
2.80442e-08
2.80435e-08
2.80428e-08
2.80421e-08
2.80415e-08
2.78275e-08
5.75044e-14
1.00008e-15
1e-15
1e-15
1.00054e-15
3.3268e-13
1.17352e-07
1.18207e-07
1.18206e-07
1.18205e-07
1.18203e-07
1.18202e-07
1.182e-07
1.18199e-07
1.18198e-07
1.18197e-07
1.18196e-07
1.18195e-07
1.18195e-07
1.17338e-07
3.2173e-13
1.00053e-15
1e-15
1.00031e-15
1.03277e-15
5.62544e-13
1.24244e-07
1.2503e-07
1.2505e-07
1.25049e-07
1.25048e-07
1.25047e-07
1.25045e-07
1.25027e-07
1.25043e-07
1.25042e-07
1.25041e-07
1.25041e-07
1.25019e-07
1.24231e-07
5.10804e-13
1.03259e-15
1.00031e-15
6.036e-14
3.41072e-13
1.98238e-08
3.06732e-08
2.78524e-08
2.5008e-08
2.50072e-08
2.50062e-08
2.50051e-08
2.5004e-08
2.77469e-08
2.49996e-08
2.49982e-08
2.49971e-08
2.49959e-08
2.78375e-08
3.06531e-08
1.98034e-08
3.39068e-13
6.03615e-14
2.00628e-10
1.33925e-08
1.47295e-07
1.76852e-07
1.57992e-07
1.57909e-07
1.57902e-07
1.57893e-07
1.57884e-07
1.57874e-07
1.57963e-07
1.57855e-07
1.57844e-07
1.57834e-07
1.57823e-07
1.57889e-07
1.76717e-07
1.47166e-07
1.33702e-08
2.00631e-10
4.50071e-05
8.63221e-05
0.000107913
0.000107947
0.000107949
0.000107951
0.000107955
0.000107958
0.000107962
0.000107965
0.000107969
0.000107973
0.000107976
0.000107979
0.000107983
0.000107986
0.000107988
0.000107958
8.63587e-05
4.50306e-05
3.44587e-07
4.15488e-06
6.41342e-06
6.42222e-06
6.42279e-06
6.42338e-06
6.42406e-06
6.42479e-06
6.42557e-06
6.42636e-06
6.42716e-06
6.42795e-06
6.42871e-06
6.42943e-06
6.4301e-06
6.4307e-06
6.43115e-06
6.42315e-06
4.16265e-06
3.44579e-07
3.38492e-08
1.29925e-08
4.09034e-08
4.89582e-08
4.16331e-08
4.16328e-08
4.16326e-08
4.16325e-08
4.16324e-08
4.16323e-08
4.16323e-08
4.16323e-08
4.16324e-08
4.16324e-08
4.16325e-08
4.16326e-08
4.89561e-08
4.09024e-08
1.29936e-08
3.36008e-08
1.48486e-11
3.45449e-11
1.18135e-10
6.81699e-09
5.14212e-09
5.14196e-09
5.14187e-09
5.14178e-09
5.14168e-09
5.14158e-09
5.14148e-09
5.14139e-09
5.1413e-09
5.14121e-09
5.14112e-09
5.14111e-09
6.81546e-09
1.18113e-10
3.45376e-11
1.49079e-11
5.40135e-15
8.44954e-14
3.94544e-13
3.87943e-08
3.91313e-08
3.9131e-08
3.91307e-08
3.91304e-08
3.913e-08
3.91296e-08
3.91292e-08
3.91288e-08
3.91285e-08
3.91282e-08
3.9128e-08
3.91279e-08
3.87909e-08
3.93852e-13
8.44684e-14
5.50469e-15
1.0017e-15
1.21191e-15
1.05518e-13
4.11478e-08
4.157e-08
4.15697e-08
4.15692e-08
4.15687e-08
4.15682e-08
4.15677e-08
4.15671e-08
4.15666e-08
4.15661e-08
4.15657e-08
4.15655e-08
4.15654e-08
4.11432e-08
1.12731e-13
1.21184e-15
1.00172e-15
1e-15
1.0006e-15
3.47309e-14
1.6178e-08
1.63467e-08
1.63465e-08
1.63462e-08
1.63459e-08
1.63455e-08
1.63452e-08
1.63448e-08
1.63444e-08
1.63441e-08
1.63438e-08
1.63437e-08
1.63436e-08
1.61749e-08
3.53916e-14
1.00061e-15
1e-15
1e-15
1.00006e-15
3.79424e-14
1.7437e-08
1.76344e-08
1.76342e-08
1.76339e-08
1.76336e-08
1.76333e-08
1.7633e-08
1.76326e-08
1.76323e-08
1.7632e-08
1.76317e-08
1.76315e-08
1.76313e-08
1.74338e-08
3.99937e-14
1.00006e-15
1e-15
1e-15
1.00001e-15
9.10448e-15
4.97827e-09
5.03446e-09
5.0344e-09
5.03433e-09
5.03425e-09
5.03416e-09
5.03407e-09
5.03397e-09
5.03387e-09
5.03377e-09
5.03367e-09
5.03358e-09
5.03348e-09
4.97716e-09
9.36391e-15
1.00001e-15
1e-15
1e-15
1.00001e-15
9.41164e-15
5.07126e-09
5.12737e-09
5.12724e-09
5.12708e-09
5.12691e-09
5.12673e-09
5.12653e-09
5.12634e-09
5.12612e-09
5.12592e-09
5.12569e-09
5.12545e-09
5.12518e-09
5.0687e-09
9.60064e-15
1.00001e-15
1e-15
1e-15
1e-15
5.60019e-15
3.40752e-09
3.44461e-09
3.44441e-09
3.44417e-09
3.44391e-09
3.44363e-09
3.44333e-09
3.44303e-09
3.44272e-09
3.44241e-09
3.44208e-09
3.44176e-09
3.44143e-09
3.40388e-09
5.61987e-15
1e-15
1e-15
1e-15
1e-15
4.17307e-15
2.47374e-09
2.49963e-09
2.49944e-09
2.49922e-09
2.49897e-09
2.49871e-09
2.49844e-09
2.49815e-09
2.49787e-09
2.49758e-09
2.49729e-09
2.497e-09
2.49671e-09
2.47043e-09
4.02657e-15
1e-15
1e-15
1e-15
1.00002e-15
1.75339e-14
9.74841e-09
9.85027e-09
9.84995e-09
9.84957e-09
9.84915e-09
9.8487e-09
9.84822e-09
9.84773e-09
9.84722e-09
9.84671e-09
9.84619e-09
9.84567e-09
9.84515e-09
9.74258e-09
1.76929e-14
1.00002e-15
1e-15
1e-15
1.00002e-15
1.39607e-14
7.65225e-09
7.72495e-09
7.72472e-09
7.72444e-09
7.72414e-09
7.7238e-09
7.72346e-09
7.7231e-09
7.72274e-09
7.72238e-09
7.72202e-09
7.72168e-09
7.72134e-09
7.64818e-09
1.28464e-14
1.00001e-15
1e-15
1e-15
1.00011e-15
7.80215e-14
3.48452e-08
3.51655e-08
3.51649e-08
3.51642e-08
3.51634e-08
3.51625e-08
3.51616e-08
3.51607e-08
3.51597e-08
3.51587e-08
3.51577e-08
3.51567e-08
3.51557e-08
3.4834e-08
7.91774e-14
1.00012e-15
1e-15
1e-15
1.00011e-15
7.69106e-14
3.22016e-08
3.24565e-08
3.2456e-08
3.24554e-08
3.24548e-08
3.2454e-08
3.24532e-08
3.24524e-08
3.24515e-08
3.24506e-08
3.24497e-08
3.24487e-08
3.24477e-08
3.21916e-08
6.84065e-14
1.0001e-15
1e-15
1e-15
1.00053e-15
3.19121e-13
1.10538e-07
1.11438e-07
1.11438e-07
1.11437e-07
1.11437e-07
1.11436e-07
1.11435e-07
1.11435e-07
1.11434e-07
1.11433e-07
1.11432e-07
1.11432e-07
1.11431e-07
1.10529e-07
3.21387e-13
1.00053e-15
1e-15
1.00017e-15
1.03094e-15
4.96359e-13
1.13388e-07
1.1424e-07
1.1425e-07
1.1425e-07
1.14249e-07
1.14249e-07
1.14248e-07
1.14241e-07
1.14247e-07
1.14246e-07
1.14246e-07
1.14245e-07
1.14234e-07
1.13381e-07
4.62563e-13
1.03086e-15
1.00017e-15
3.32382e-14
2.77234e-13
1.83991e-08
2.55282e-08
2.431e-08
2.05422e-08
2.05418e-08
2.05415e-08
2.05411e-08
2.05407e-08
2.297e-08
2.05372e-08
2.05367e-08
2.05363e-08
2.05361e-08
2.42989e-08
2.55194e-08
1.83949e-08
2.78138e-13
3.32551e-14
1.08382e-10
1.30489e-08
1.22602e-07
1.47001e-07
1.30516e-07
1.30352e-07
1.30351e-07
1.3035e-07
1.30349e-07
1.30348e-07
1.30433e-07
1.30347e-07
1.30346e-07
1.30346e-07
1.30346e-07
1.30508e-07
1.46988e-07
1.22588e-07
1.30437e-08
1.08437e-10
2.48504e-05
5.75366e-05
7.38527e-05
7.39346e-05
7.39361e-05
7.39381e-05
7.39403e-05
7.39428e-05
7.39455e-05
7.39483e-05
7.39512e-05
7.39543e-05
7.39574e-05
7.39606e-05
7.39636e-05
7.39664e-05
7.3969e-05
7.38899e-05
5.75671e-05
2.48686e-05
3.35365e-07
4.52766e-06
6.77437e-06
6.77537e-06
6.77583e-06
6.77632e-06
6.7769e-06
6.77753e-06
6.7782e-06
6.77889e-06
6.77959e-06
6.78028e-06
6.78097e-06
6.78162e-06
6.78223e-06
6.78278e-06
6.7832e-06
6.78293e-06
4.53467e-06
3.35497e-07
4.24591e-10
1.7547e-08
4.82733e-08
5.75659e-08
4.89461e-08
4.89461e-08
4.89464e-08
4.89467e-08
4.89471e-08
4.89475e-08
4.89479e-08
4.89483e-08
4.89488e-08
4.89492e-08
4.89496e-08
4.89501e-08
5.75694e-08
4.82782e-08
1.75535e-08
4.18443e-10
7.96107e-13
4.3778e-11
1.44959e-10
7.45302e-09
5.41244e-09
5.41226e-09
5.4122e-09
5.41215e-09
5.41209e-09
5.41203e-09
5.41198e-09
5.41192e-09
5.41187e-09
5.41183e-09
5.41178e-09
5.41185e-09
7.45232e-09
1.44947e-10
4.37759e-11
7.8932e-13
3.95646e-15
1.09296e-13
4.75958e-13
3.93687e-08
3.97128e-08
3.97127e-08
3.97125e-08
3.97123e-08
3.97121e-08
3.97118e-08
3.97116e-08
3.97113e-08
3.97111e-08
3.97109e-08
3.97109e-08
3.97109e-08
3.9367e-08
4.7599e-13
1.09274e-13
3.93414e-15
1.00665e-15
1.27559e-15
1.05061e-13
4.13071e-08
4.17417e-08
4.17415e-08
4.17413e-08
4.1741e-08
4.17407e-08
4.17404e-08
4.174e-08
4.17397e-08
4.17395e-08
4.17392e-08
4.17392e-08
4.17392e-08
4.1305e-08
1.11893e-13
1.27553e-15
1.00664e-15
1.00001e-15
1.00076e-15
3.59434e-14
1.70148e-08
1.7197e-08
1.7197e-08
1.7197e-08
1.71969e-08
1.71968e-08
1.71966e-08
1.71965e-08
1.71964e-08
1.71963e-08
1.71962e-08
1.71961e-08
1.71961e-08
1.70139e-08
3.67026e-14
1.00076e-15
1.00001e-15
1e-15
1.00006e-15
3.94699e-14
1.8355e-08
1.85627e-08
1.85626e-08
1.85624e-08
1.85622e-08
1.8562e-08
1.85617e-08
1.85614e-08
1.85612e-08
1.85609e-08
1.85608e-08
1.85606e-08
1.85605e-08
1.83528e-08
4.1582e-14