/*--------------------------------*- C++ -*----------------------------------*\
| =========                 |                                                 |
| \\      /  F ield         | OpenFOAM: The Open Source CFD Toolbox           |
|  \\    /   O peration     | Version:  2212                                  |
|   \\  /    A nd           | Website:  www.openfoam.com                      |
|    \\/     M anipulation  |                                                 |
\*---------------------------------------------------------------------------*/
FoamFile
{
    version     2.0;
    format      ascii;
    arch        "LSB;label=32;scalar=64";
    class       volVectorField;
    location    "0.16";
    object      U;
}
// * * * * * * * * * * * * * * * * * * * * * * * * * * * * * * * * * * * * * //

dimensions      [0 1 -1 0 0 0 0];

internalField   nonuniform List<vector> 
24240
(
(9.1717 0.682902 6.60805e-07)
(9.17181 0.682912 -1.27188e-06)
(9.17181 0.682911 -1.40488e-06)
(9.17181 0.682911 -2.25178e-06)
(9.17181 0.682911 -2.63971e-06)
(9.17182 0.682911 -3.11182e-06)
(9.17182 0.682911 -3.41296e-06)
(9.17182 0.682911 -3.65624e-06)
(9.17182 0.682911 -3.78126e-06)
(9.17182 0.682911 -3.81006e-06)
(9.17182 0.682911 -3.7307e-06)
(9.17182 0.682911 -3.55581e-06)
(9.17183 0.682911 -3.28533e-06)
(9.17183 0.682911 -2.95096e-06)
(9.17183 0.682911 -2.53632e-06)
(9.17183 0.682911 -2.16066e-06)
(9.17183 0.682911 -1.62716e-06)
(9.17183 0.682911 -1.45645e-06)
(9.17183 0.682912 -4.74246e-07)
(9.17172 0.682903 -1.27368e-06)
(9.07052 0.684878 -5.04388e-07)
(9.07064 0.684889 -1.13138e-06)
(9.07064 0.68489 -1.67325e-06)
(9.07064 0.684891 -2.33075e-06)
(9.07064 0.684893 -2.78394e-06)
(9.07064 0.684895 -3.21404e-06)
(9.07064 0.684898 -3.50208e-06)
(9.07064 0.6849 -3.70461e-06)
(9.07064 0.684903 -3.7881e-06)
(9.07064 0.684906 -3.772e-06)
(9.07064 0.684909 -3.65297e-06)
(9.07064 0.684911 -3.44476e-06)
(9.07064 0.684913 -3.15518e-06)
(9.07064 0.684915 -2.80786e-06)
(9.07064 0.684917 -2.40418e-06)
(9.07064 0.684919 -2.00824e-06)
(9.07064 0.68492 -1.53768e-06)
(9.07064 0.684921 -1.17724e-06)
(9.07064 0.684922 -6.00853e-07)
(9.07052 0.684912 -9.08531e-08)
(9.10678 0.400688 -1.38808e-07)
(9.10689 0.400694 1.82598e-07)
(9.10689 0.400694 5.41412e-07)
(9.10689 0.400695 6.58371e-07)
(9.10689 0.400696 8.37324e-07)
(9.10689 0.400697 8.88878e-07)
(9.10689 0.400697 9.20638e-07)
(9.10689 0.400698 8.85986e-07)
(9.10688 0.400699 8.21555e-07)
(9.10688 0.4007 7.27179e-07)
(9.10688 0.400701 6.2148e-07)
(9.10688 0.400702 5.14805e-07)
(9.10688 0.400703 4.18634e-07)
(9.10688 0.400704 3.34446e-07)
(9.10688 0.400705 2.8083e-07)
(9.10688 0.400706 2.15179e-07)
(9.10688 0.400706 2.2085e-07)
(9.10688 0.400707 1.38986e-07)
(9.10688 0.400707 2.31963e-07)
(9.10676 0.400701 2.40184e-07)
(8.96502 0.396008 -2.47929e-07)
(8.96513 0.396015 -6.22881e-07)
(8.96513 0.396015 -8.94959e-07)
(8.96513 0.396016 -1.21461e-06)
(8.96513 0.396016 -1.45483e-06)
(8.96513 0.396017 -1.66901e-06)
(8.96513 0.396017 -1.81226e-06)
(8.96513 0.396018 -1.90768e-06)
(8.96513 0.396019 -1.93936e-06)
(8.96513 0.396019 -1.9174e-06)
(8.96513 0.39602 -1.84113e-06)
(8.96513 0.396021 -1.71781e-06)
(8.96513 0.396021 -1.55248e-06)
(8.96513 0.396022 -1.35722e-06)
(8.96513 0.396022 -1.13329e-06)
(8.96513 0.396023 -9.09605e-07)
(8.96513 0.396023 -6.56147e-07)
(8.96513 0.396023 -4.39372e-07)
(8.96513 0.396024 -1.56297e-07)
(8.96502 0.396017 -1.84895e-08)
(8.98914 0.221276 9.46455e-08)
(8.98925 0.22128 5.74777e-07)
(8.98925 0.22128 1.06583e-06)
(8.98925 0.221281 1.41997e-06)
(8.98925 0.221281 1.72459e-06)
(8.98924 0.221282 1.92735e-06)
(8.98924 0.221283 2.05371e-06)
(8.98924 0.221284 2.09326e-06)
(8.98924 0.221285 2.06532e-06)
(8.98924 0.221285 1.97265e-06)
(8.98924 0.221286 1.83331e-06)
(8.98923 0.221287 1.66432e-06)
(8.98923 0.221288 1.47806e-06)
(8.98923 0.221288 1.28347e-06)
(8.98923 0.221289 1.09708e-06)
(8.98923 0.221289 9.13643e-07)
(8.98923 0.22129 7.5398e-07)
(8.98923 0.22129 5.82451e-07)
(8.98923 0.22129 4.51701e-07)
(8.98911 0.221287 2.25898e-07)
(8.88615 0.214649 -7.79244e-08)
(8.88626 0.214653 -1.48275e-07)
(8.88626 0.214652 -1.71795e-07)
(8.88626 0.214652 -2.32941e-07)
(8.88626 0.214652 -2.62906e-07)
(8.88626 0.214651 -3.04194e-07)
(8.88626 0.214651 -3.28361e-07)
(8.88626 0.21465 -3.49908e-07)
(8.88626 0.21465 -3.58008e-07)
(8.88626 0.214649 -3.58167e-07)
(8.88626 0.214649 -3.46855e-07)
(8.88626 0.214648 -3.26016e-07)
(8.88626 0.214648 -2.94097e-07)
(8.88626 0.214648 -2.56293e-07)
(8.88626 0.214647 -2.01239e-07)
(8.88626 0.214647 -1.48158e-07)
(8.88626 0.214647 -6.52559e-08)
(8.88626 0.214646 -6.61171e-09)
(8.88625 0.214646 6.41208e-08)
(8.88614 0.214642 4.16737e-08)
(8.90203 0.0982937 5.45523e-08)
(8.90214 0.0982954 3.55743e-07)
(8.90214 0.0982955 6.6194e-07)
(8.90214 0.0982956 8.85221e-07)
(8.90214 0.0982957 1.07482e-06)
(8.90213 0.0982958 1.20484e-06)
(8.90213 0.098296 1.28442e-06)
(8.90213 0.0982961 1.30748e-06)
(8.90213 0.0982963 1.28147e-06)
(8.90213 0.0982964 1.21027e-06)
(8.90213 0.0982966 1.10336e-06)
(8.90212 0.0982967 9.69594e-07)
(8.90212 0.0982967 8.21892e-07)
(8.90212 0.0982967 6.67998e-07)
(8.90212 0.0982967 5.25652e-07)
(8.90212 0.0982966 3.93875e-07)
(8.90212 0.0982965 2.91931e-07)
(8.90212 0.0982963 2.01058e-07)
(8.90212 0.0982962 1.49008e-07)
(8.90201 0.0982943 8.64444e-08)
(8.84965 0.0881858 -1.47157e-08)
(8.84976 0.0881873 -2.3248e-08)
(8.84976 0.0881872 -7.65539e-09)
(8.84976 0.0881872 -2.21223e-08)
(8.84976 0.0881872 -1.7454e-08)
(8.84976 0.0881871 -2.40424e-08)
(8.84976 0.088187 -2.74825e-08)
(8.84975 0.088187 -3.88402e-08)
(8.84975 0.0881869 -5.49565e-08)
(8.84975 0.0881868 -7.9715e-08)
(8.84975 0.0881867 -1.11215e-07)
(8.84975 0.0881866 -1.49966e-07)
(8.84975 0.0881864 -1.88047e-07)
(8.84975 0.0881861 -2.27639e-07)
(8.84975 0.0881859 -2.50328e-07)
(8.84975 0.0881855 -2.70041e-07)
(8.84975 0.0881852 -2.5391e-07)
(8.84975 0.0881848 -2.4484e-07)
(8.84975 0.0881845 -1.84391e-07)
(8.84964 0.0881828 -8.01299e-08)
(8.86164 0.00109598 6.85081e-08)
(8.86175 0.00109573 3.43842e-07)
(8.86174 0.00109515 5.98082e-07)
(8.86174 0.00109434 7.92014e-07)
(8.86174 0.00109329 9.57586e-07)
(8.86174 0.00109205 1.07583e-06)
(8.86174 0.00109066 1.14695e-06)
(8.86174 0.00108917 1.1635e-06)
(8.86173 0.00108761 1.12399e-06)
(8.86173 0.00108603 1.02712e-06)
(8.86173 0.00108446 8.78659e-07)
(8.86173 0.00108295 6.8517e-07)
(8.86173 0.00108152 4.63249e-07)
(8.86172 0.0010802 2.26244e-07)
(8.86172 0.00107902 9.17005e-09)
(8.86172 0.001078 -1.81813e-07)
(8.86172 0.00107714 -3.0189e-07)
(8.86172 0.00107647 -3.77722e-07)
(8.86172 0.00107598 -3.48266e-07)
(8.86161 0.00107575 -1.22411e-07)
(8.85764 -0.0164594 -2.63816e-07)
(8.85775 -0.0164603 -7.34474e-07)
(8.85775 -0.0164615 -1.16464e-06)
(8.85775 -0.0164632 -1.57509e-06)
(8.85775 -0.0164654 -1.92038e-06)
(8.85775 -0.016468 -2.20749e-06)
(8.85775 -0.0164708 -2.4258e-06)
(8.85775 -0.0164738 -2.5811e-06)
(8.85776 -0.016477 -2.67419e-06)
(8.85776 -0.0164801 -2.71019e-06)
(8.85776 -0.0164831 -2.69101e-06)
(8.85776 -0.016486 -2.6203e-06)
(8.85776 -0.0164886 -2.49478e-06)
(8.85776 -0.016491 -2.32461e-06)
(8.85776 -0.0164931 -2.10047e-06)
(8.85776 -0.0164948 -1.85097e-06)
(8.85776 -0.0164963 -1.54641e-06)
(8.85777 -0.0164973 -1.22602e-06)
(8.85777 -0.016498 -7.72193e-07)
(8.85766 -0.016498 -2.39632e-07)
(8.86548 -0.0960068 -3.83285e-07)
(8.86559 -0.0960085 -1.1322e-06)
(8.86559 -0.0960084 -1.81644e-06)
(8.86559 -0.0960082 -2.45023e-06)
(8.86559 -0.096008 -2.98082e-06)
(8.86559 -0.0960078 -3.41143e-06)
(8.86559 -0.0960076 -3.7307e-06)
(8.86559 -0.0960073 -3.94673e-06)
(8.86559 -0.0960071 -4.06526e-06)
(8.8656 -0.0960069 -4.09591e-06)
(8.8656 -0.0960068 -4.04746e-06)
(8.8656 -0.0960067 -3.9288e-06)
(8.8656 -0.0960066 -3.7411e-06)
(8.8656 -0.0960066 -3.49388e-06)
(8.8656 -0.0960067 -3.1765e-06)
(8.8656 -0.0960068 -2.81137e-06)
(8.8656 -0.0960069 -2.36154e-06)
(8.8656 -0.0960069 -1.87222e-06)
(8.8656 -0.096007 -1.21094e-06)
(8.86549 -0.0960053 -4.11169e-07)
(8.91429 -0.113621 -2.70358e-07)
(8.9144 -0.113623 -6.29472e-07)
(8.9144 -0.113624 -9.67653e-07)
(8.9144 -0.113624 -1.30449e-06)
(8.9144 -0.113625 -1.60175e-06)
(8.9144 -0.113626 -1.8603e-06)
(8.9144 -0.113627 -2.07434e-06)
(8.9144 -0.113628 -2.24872e-06)
(8.9144 -0.113629 -2.38378e-06)
(8.9144 -0.113631 -2.4817e-06)
(8.9144 -0.113632 -2.53947e-06)
(8.9144 -0.113633 -2.55517e-06)
(8.9144 -0.113634 -2.51664e-06)
(8.9144 -0.113635 -2.42432e-06)
(8.9144 -0.113636 -2.25567e-06)
(8.9144 -0.113636 -2.03216e-06)
(8.9144 -0.113637 -1.7187e-06)
(8.9144 -0.113637 -1.35821e-06)
(8.9144 -0.113637 -8.48438e-07)
(8.91429 -0.113635 -2.25593e-07)
(8.91377 -0.212483 -5.35328e-07)
(8.91389 -0.212486 -1.66919e-06)
(8.91389 -0.212487 -2.6835e-06)
(8.91389 -0.212487 -3.62101e-06)
(8.91389 -0.212487 -4.40886e-06)
(8.91389 -0.212487 -5.05687e-06)
(8.91389 -0.212487 -5.54232e-06)
(8.91389 -0.212488 -5.87224e-06)
(8.9139 -0.212488 -6.04894e-06)
(8.9139 -0.212488 -6.08341e-06)
(8.9139 -0.212489 -5.98549e-06)
(8.9139 -0.212489 -5.76668e-06)
(8.9139 -0.21249 -5.43347e-06)
(8.91391 -0.21249 -4.99884e-06)
(8.91391 -0.21249 -4.45785e-06)
(8.91391 -0.21249 -3.84581e-06)
(8.91391 -0.212491 -3.12569e-06)
(8.91391 -0.212491 -2.37896e-06)
(8.91391 -0.212491 -1.45139e-06)
(8.9138 -0.212487 -4.89423e-07)
(9.02035 -0.224518 -3.73517e-07)
(9.02046 -0.224522 -8.00346e-07)
(9.02046 -0.224522 -1.19574e-06)
(9.02046 -0.224523 -1.60917e-06)
(9.02046 -0.224523 -1.98708e-06)
(9.02046 -0.224524 -2.32491e-06)
(9.02046 -0.224525 -2.61173e-06)
(9.02046 -0.224526 -2.85195e-06)
(9.02046 -0.224527 -3.0397e-06)
(9.02046 -0.224528 -3.17429e-06)
(9.02046 -0.224528 -3.2473e-06)
(9.02046 -0.224529 -3.25457e-06)
(9.02046 -0.22453 -3.1781e-06)
(9.02046 -0.224531 -3.01614e-06)
(9.02046 -0.224531 -2.74703e-06)
(9.02046 -0.224532 -2.3983e-06)
(9.02046 -0.224532 -1.94338e-06)
(9.02046 -0.224532 -1.43003e-06)
(9.02046 -0.224532 -7.92676e-07)
(9.02035 -0.224528 -1.46291e-07)
(9.0081 -0.372098 -6.70316e-07)
(9.00821 -0.372104 -2.09838e-06)
(9.00821 -0.372104 -3.3628e-06)
(9.00822 -0.372104 -4.54131e-06)
(9.00822 -0.372104 -5.52307e-06)
(9.00822 -0.372105 -6.34657e-06)
(9.00822 -0.372105 -6.96208e-06)
(9.00823 -0.372105 -7.37927e-06)
(9.00823 -0.372105 -7.59207e-06)
(9.00823 -0.372106 -7.61208e-06)
(9.00823 -0.372106 -7.44818e-06)
(9.00824 -0.372106 -7.11532e-06)
(9.00824 -0.372107 -6.62455e-06)
(9.00824 -0.372107 -5.99602e-06)
(9.00824 -0.372107 -5.23685e-06)
(9.00825 -0.372107 -4.40012e-06)
(9.00825 -0.372107 -3.44777e-06)
(9.00825 -0.372107 -2.52155e-06)
(9.00825 -0.372107 -1.45546e-06)
(9.00814 -0.372101 -4.78786e-07)
(9.17367 -0.376945 -4.76133e-07)
(9.17379 -0.376951 -9.35097e-07)
(9.17379 -0.376952 -1.35411e-06)
(9.17379 -0.376952 -1.85467e-06)
(9.17379 -0.376952 -2.31418e-06)
(9.17379 -0.376953 -2.73668e-06)
(9.17379 -0.376954 -3.09189e-06)
(9.17379 -0.376954 -3.39467e-06)
(9.17379 -0.376955 -3.62287e-06)
(9.17379 -0.376956 -3.77744e-06)
(9.17379 -0.376956 -3.84063e-06)
(9.17379 -0.376957 -3.80841e-06)
(9.17379 -0.376957 -3.6601e-06)
(9.17379 -0.376958 -3.40228e-06)
(9.17379 -0.376958 -3.01857e-06)
(9.17379 -0.376958 -2.55584e-06)
(9.17379 -0.376958 -2.00434e-06)
(9.17379 -0.376958 -1.43061e-06)
(9.17379 -0.376958 -7.26192e-07)
(9.17368 -0.376952 -6.98319e-08)
(9.14544 -0.61803 -7.84542e-07)
(9.14556 -0.61804 -2.4083e-06)
(9.14556 -0.61804 -3.84041e-06)
(9.14556 -0.618041 -5.24257e-06)
(9.14556 -0.618041 -6.42959e-06)
(9.14556 -0.618042 -7.41495e-06)
(9.14557 -0.618043 -8.14394e-06)
(9.14557 -0.618044 -8.63323e-06)
(9.14557 -0.618045 -8.86423e-06)
(9.14558 -0.618046 -8.85183e-06)
(9.14558 -0.618047 -8.60133e-06)
(9.14558 -0.618047 -8.13506e-06)
(9.14559 -0.618048 -7.47006e-06)
(9.14559 -0.618049 -6.64831e-06)
(9.14559 -0.618049 -5.6909e-06)
(9.14559 -0.61805 -4.68542e-06)
(9.1456 -0.61805 -3.61691e-06)
(9.1456 -0.61805 -2.62314e-06)
(9.1456 -0.61805 -1.44702e-06)
(9.14549 -0.618041 -4.45324e-07)
(9.34883 -0.615695 -7.2283e-07)
(9.34895 -0.615704 -1.36034e-06)
(9.34895 -0.615704 -2.00545e-06)
(9.34895 -0.615704 -2.85513e-06)
(9.34895 -0.615704 -3.49117e-06)
(9.34895 -0.615704 -4.13014e-06)
(9.34895 -0.615705 -4.61677e-06)
(9.34895 -0.615705 -5.01749e-06)
(9.34896 -0.615705 -5.27418e-06)
(9.34896 -0.615706 -5.40215e-06)
(9.34896 -0.615706 -5.37469e-06)
(9.34896 -0.615706 -5.20039e-06)
(9.34896 -0.615706 -4.86119e-06)
(9.34896 -0.615706 -4.39529e-06)
(9.34896 -0.615706 -3.78076e-06)
(9.34896 -0.615706 -3.1364e-06)
(9.34896 -0.615706 -2.35402e-06)
(9.34896 -0.615706 -1.72417e-06)
(9.34896 -0.615706 -8.55029e-07)
(9.34885 -0.615697 -8.64821e-09)
(9.29722 -1.01732 -7.86956e-07)
(9.29733 -1.01733 -2.32101e-06)
(9.29733 -1.01734 -3.96166e-06)
(9.29733 -1.01734 -5.61616e-06)
(9.29733 -1.01734 -6.86245e-06)
(9.29734 -1.01734 -7.96229e-06)
(9.29734 -1.01734 -8.74829e-06)
(9.29734 -1.01734 -9.28982e-06)
(9.29735 -1.01735 -9.53221e-06)
(9.29735 -1.01735 -9.50214e-06)
(9.29735 -1.01735 -9.19279e-06)
(9.29735 -1.01735 -8.63659e-06)
(9.29736 -1.01736 -7.84666e-06)
(9.29736 -1.01736 -6.90005e-06)
(9.29736 -1.01736 -5.80464e-06)
(9.29736 -1.01736 -4.72672e-06)
(9.29736 -1.01736 -3.55106e-06)
(9.29737 -1.01736 -2.69143e-06)
(9.29737 -1.01736 -1.63337e-06)
(9.29725 -1.01735 -4.69394e-07)
(9.42145 -0.999152 1.09255e-07)
(9.42155 -0.999163 -2.24307e-06)
(9.42155 -0.999161 -3.48898e-06)
(9.42155 -0.999161 -5.47492e-06)
(9.42155 -0.999161 -6.64812e-06)
(9.42155 -0.999161 -7.80961e-06)
(9.42156 -0.999161 -8.61272e-06)
(9.42156 -0.999161 -9.20467e-06)
(9.42157 -0.999161 -9.488e-06)
(9.42157 -0.999161 -9.50493e-06)
(9.42157 -0.999161 -9.23335e-06)
(9.42158 -0.999161 -8.70214e-06)
(9.42158 -0.999161 -7.91535e-06)
(9.42158 -0.999161 -6.96819e-06)
(9.42159 -0.999161 -5.8488e-06)
(9.42159 -0.999161 -4.80129e-06)
(9.42159 -0.999161 -3.54649e-06)
(9.42159 -0.999161 -3.01109e-06)
(9.4216 -0.999163 -1.54323e-06)
(9.42149 -0.999152 -1.28569e-06)
(8.69559 0.758558 4.83973e-07)
(8.69569 0.758568 -3.58501e-07)
(8.69569 0.758567 -4.97107e-07)
(8.69569 0.758566 -9.2875e-07)
(8.69569 0.758565 -1.04259e-06)
(8.69569 0.758565 -1.27141e-06)
(8.69569 0.758563 -1.38674e-06)
(8.69569 0.758562 -1.51277e-06)
(8.69568 0.758561 -1.57497e-06)
(8.69568 0.75856 -1.60365e-06)
(8.69568 0.758559 -1.57688e-06)
(8.69568 0.758558 -1.50852e-06)
(8.69568 0.758557 -1.38557e-06)
(8.69568 0.758556 -1.24196e-06)
(8.69567 0.758555 -1.03513e-06)
(8.69567 0.758554 -8.89776e-07)
(8.69567 0.758554 -6.13467e-07)
(8.69567 0.758553 -6.18299e-07)
(8.69567 0.758553 -2.96185e-07)
(8.69557 0.758543 -7.33082e-07)
(8.76636 0.765401 -4.18877e-07)
(8.76647 0.765412 -1.00885e-06)
(8.76646 0.765412 -1.53471e-06)
(8.76646 0.765414 -2.14495e-06)
(8.76646 0.765415 -2.56085e-06)
(8.76646 0.765418 -2.98397e-06)
(8.76646 0.76542 -3.26986e-06)
(8.76646 0.765422 -3.49515e-06)
(8.76646 0.765425 -3.60435e-06)
(8.76645 0.765428 -3.62142e-06)
(8.76645 0.76543 -3.53073e-06)
(8.76645 0.765433 -3.35044e-06)
(8.76645 0.765435 -3.07879e-06)
(8.76645 0.765437 -2.75119e-06)
(8.76645 0.765439 -2.35148e-06)
(8.76644 0.765441 -1.97196e-06)
(8.76644 0.765442 -1.49399e-06)
(8.76644 0.765443 -1.11966e-06)
(8.76644 0.765444 -5.90225e-07)
(8.76633 0.765434 -1.43185e-07)
(8.80454 0.519384 1.29994e-07)
(8.80465 0.519391 7.28611e-07)
(8.80465 0.519391 1.34384e-06)
(8.80465 0.519392 1.7701e-06)
(8.80465 0.519392 2.23927e-06)
(8.80465 0.519393 2.52971e-06)
(8.80465 0.519393 2.76606e-06)
(8.80465 0.519394 2.88009e-06)
(8.80465 0.519395 2.91578e-06)
(8.80465 0.519395 2.8655e-06)
(8.80465 0.519396 2.75053e-06)
(8.80465 0.519397 2.58174e-06)
(8.80465 0.519398 2.37201e-06)
(8.80465 0.519398 2.12718e-06)
(8.80465 0.519399 1.88149e-06)
(8.80465 0.5194 1.58922e-06)
(8.80465 0.5194 1.36355e-06)
(8.80465 0.5194 1.00253e-06)
(8.80465 0.519401 7.06262e-07)
(8.80454 0.519394 3.02089e-07)
(8.77039 0.515535 -3.0269e-07)
(8.7705 0.515543 -7.53297e-07)
(8.7705 0.515543 -1.09517e-06)
(8.7705 0.515543 -1.47696e-06)
(8.7705 0.515543 -1.77275e-06)
(8.7705 0.515543 -2.0317e-06)
(8.7705 0.515544 -2.20016e-06)
(8.7705 0.515544 -2.31053e-06)
(8.7705 0.515544 -2.33798e-06)
(8.7705 0.515545 -2.29759e-06)
(8.7705 0.515545 -2.18681e-06)
(8.7705 0.515545 -2.01771e-06)
(8.77049 0.515545 -1.79578e-06)
(8.77049 0.515545 -1.54358e-06)
(8.77049 0.515546 -1.25638e-06)
(8.77049 0.515546 -9.84885e-07)
(8.77049 0.515546 -6.79382e-07)
(8.77049 0.515546 -4.18403e-07)
(8.77049 0.515546 -1.02734e-07)
(8.77039 0.515539 1.62123e-08)
(8.79379 0.311333 2.31438e-07)
(8.7939 0.311337 8.97313e-07)
(8.7939 0.311338 1.59641e-06)
(8.7939 0.311338 2.1503e-06)
(8.7939 0.311339 2.63214e-06)
(8.7939 0.31134 2.98827e-06)
(8.7939 0.311341 3.24538e-06)
(8.7939 0.311342 3.38043e-06)
(8.7939 0.311343 3.41704e-06)
(8.7939 0.311345 3.36038e-06)
(8.7939 0.311346 3.22681e-06)
(8.79389 0.311347 3.03562e-06)
(8.79389 0.311348 2.80299e-06)
(8.79389 0.311349 2.53313e-06)
(8.79389 0.311349 2.24802e-06)
(8.79389 0.31135 1.93512e-06)
(8.79389 0.31135 1.62051e-06)
(8.79389 0.311351 1.25581e-06)
(8.79389 0.311351 8.94053e-07)
(8.79378 0.311347 3.47549e-07)
(8.74689 0.303549 -7.82233e-08)
(8.747 0.303554 -1.44895e-07)
(8.747 0.303553 -1.90029e-07)
(8.747 0.303553 -2.46556e-07)
(8.747 0.303553 -2.57798e-07)
(8.747 0.303553 -2.91557e-07)
(8.747 0.303552 -2.99622e-07)
(8.747 0.303552 -3.08327e-07)
(8.747 0.303551 -2.99173e-07)
(8.747 0.303551 -2.8189e-07)
(8.747 0.303551 -2.51303e-07)
(8.747 0.30355 -2.14147e-07)
(8.747 0.30355 -1.64928e-07)
(8.747 0.303549 -1.18907e-07)
(8.747 0.303549 -5.35204e-08)
(8.747 0.303549 -6.5303e-09)
(8.747 0.303548 8.24255e-08)
(8.747 0.303548 1.18749e-07)
(8.747 0.303548 1.32448e-07)
(8.74689 0.303543 6.30665e-08)
(8.75952 0.14086 1.60721e-07)
(8.75963 0.140862 6.99942e-07)
(8.75963 0.140862 1.22768e-06)
(8.75963 0.140863 1.66874e-06)
(8.75963 0.140863 2.05188e-06)
(8.75963 0.140863 2.34589e-06)
(8.75963 0.140863 2.55782e-06)
(8.75963 0.140863 2.6761e-06)
(8.75963 0.140864 2.7099e-06)
(8.75963 0.140864 2.66112e-06)
(8.75963 0.140864 2.54222e-06)
(8.75963 0.140864 2.36298e-06)
(8.75962 0.140864 2.14273e-06)
(8.75962 0.140864 1.88595e-06)
(8.75962 0.140864 1.62421e-06)
(8.75962 0.140864 1.34815e-06)
(8.75962 0.140864 1.09026e-06)
(8.75962 0.140864 8.14297e-07)
(8.75962 0.140864 5.32716e-07)
(8.75951 0.140862 2.19622e-07)
(8.73497 0.126411 -2.74883e-09)
(8.73508 0.126412 -3.43692e-09)
(8.73508 0.126412 1.06462e-08)
(8.73508 0.126412 1.73303e-08)
(8.73508 0.126411 5.35581e-08)
(8.73508 0.126411 7.16096e-08)
(8.73508 0.126411 9.67007e-08)
(8.73508 0.12641 1.08761e-07)
(8.73508 0.12641 1.14416e-07)
(8.73508 0.126409 1.05629e-07)
(8.73508 0.126409 8.62159e-08)
(8.73508 0.126409 5.28607e-08)
(8.73508 0.126408 1.71083e-08)
(8.73508 0.126408 -3.15672e-08)
(8.73508 0.126407 -5.92436e-08)
(8.73508 0.126406 -9.92442e-08)
(8.73508 0.126406 -9.03501e-08)
(8.73508 0.126406 -1.09911e-07)
(8.73508 0.126405 -9.48071e-08)
(8.73497 0.126403 -4.76804e-08)
(8.74213 -0.00645776 1.0488e-07)
(8.74224 -0.00645826 4.75737e-07)
(8.74224 -0.00645909 8.21281e-07)
(8.74224 -0.00646026 1.12785e-06)
(8.74224 -0.00646177 1.40732e-06)
(8.74224 -0.00646356 1.63225e-06)
(8.74224 -0.00646557 1.80218e-06)
(8.74224 -0.00646773 1.9007e-06)
(8.74224 -0.00647 1.92452e-06)
(8.74224 -0.00647231 1.86751e-06)
(8.74224 -0.00647459 1.73523e-06)
(8.74224 -0.0064768 1.53116e-06)
(8.74224 -0.00647887 1.27852e-06)
(8.74224 -0.00648076 9.88079e-07)
(8.74224 -0.00648242 7.10467e-07)
(8.74224 -0.00648384 4.40362e-07)
(8.74224 -0.006485 2.43688e-07)
(8.74224 -0.00648588 5.57425e-08)
(8.74224 -0.00648649 -5.5303e-08)
(8.74213 -0.0064866 -2.35693e-09)
(8.74651 -0.0286355 -3.75911e-07)
(8.74662 -0.0286368 -1.04561e-06)
(8.74662 -0.0286383 -1.6688e-06)
(8.74662 -0.0286403 -2.24035e-06)
(8.74662 -0.0286429 -2.72097e-06)
(8.74662 -0.028646 -3.12028e-06)
(8.74662 -0.0286495 -3.42023e-06)
(8.74662 -0.0286532 -3.62836e-06)
(8.74662 -0.0286571 -3.74225e-06)
(8.74662 -0.028661 -3.76849e-06)
(8.74662 -0.0286649 -3.70585e-06)
(8.74662 -0.0286685 -3.56291e-06)
(8.74662 -0.0286719 -3.33381e-06)
(8.74662 -0.028675 -3.04259e-06)
(8.74662 -0.0286777 -2.67441e-06)
(8.74662 -0.02868 -2.28727e-06)
(8.74662 -0.0286819 -1.82986e-06)
(8.74662 -0.0286833 -1.37764e-06)
(8.74662 -0.0286842 -7.90981e-07)
(8.74651 -0.028684 -2.01312e-07)
(8.7505 -0.15582 -4.39609e-07)
(8.75061 -0.155822 -1.30883e-06)
(8.75061 -0.155822 -2.10837e-06)
(8.75061 -0.155821 -2.83069e-06)
(8.75061 -0.155821 -3.42851e-06)
(8.75061 -0.155821 -3.91646e-06)
(8.7506 -0.15582 -4.27426e-06)
(8.7506 -0.15582 -4.51591e-06)
(8.7506 -0.15582 -4.64544e-06)
(8.7506 -0.155819 -4.67203e-06)
(8.7506 -0.155819 -4.60474e-06)
(8.7506 -0.155819 -4.45421e-06)
(8.7506 -0.155818 -4.2168e-06)
(8.7506 -0.155818 -3.90968e-06)
(8.7506 -0.155818 -3.51047e-06)
(8.7506 -0.155818 -3.06128e-06)
(8.7506 -0.155818 -2.50006e-06)
(8.7506 -0.155818 -1.92524e-06)
(8.7506 -0.155817 -1.18624e-06)
(8.75049 -0.155815 -3.74095e-07)
(8.78812 -0.175936 -3.79823e-07)
(8.78823 -0.175939 -9.04598e-07)
(8.78823 -0.17594 -1.39803e-06)
(8.78823 -0.175941 -1.85231e-06)
(8.78823 -0.175942 -2.23976e-06)
(8.78823 -0.175944 -2.5617e-06)
(8.78823 -0.175946 -2.8103e-06)
(8.78823 -0.175947 -2.99307e-06)
(8.78823 -0.175949 -3.11053e-06)
(8.78823 -0.175951 -3.1685e-06)
(8.78823 -0.175953 -3.16284e-06)
(8.78823 -0.175955 -3.0966e-06)
(8.78823 -0.175957 -2.95387e-06)
(8.78823 -0.175958 -2.74729e-06)
(8.78823 -0.17596 -2.4479e-06)
(8.78823 -0.175961 -2.1041e-06)
(8.78823 -0.175962 -1.6663e-06)
(8.78823 -0.175962 -1.22485e-06)
(8.78823 -0.175963 -6.83822e-07)
(8.78812 -0.17596 -1.215e-07)
(8.78466 -0.327586 -7.0633e-07)
(8.78477 -0.327591 -2.19683e-06)
(8.78477 -0.327591 -3.56227e-06)
(8.78477 -0.327591 -4.79672e-06)
(8.78477 -0.327591 -5.82416e-06)
(8.78477 -0.327592 -6.67665e-06)
(8.78477 -0.327592 -7.31197e-06)
(8.78477 -0.327592 -7.74188e-06)
(8.78477 -0.327593 -7.96435e-06)
(8.78477 -0.327593 -7.99324e-06)
(8.78477 -0.327594 -7.83888e-06)
(8.78477 -0.327594 -7.51761e-06)
(8.78477 -0.327595 -7.03645e-06)
(8.78477 -0.327595 -6.41871e-06)
(8.78477 -0.327595 -5.65562e-06)
(8.78477 -0.327596 -4.80701e-06)
(8.78477 -0.327596 -3.80866e-06)
(8.78477 -0.327596 -2.81647e-06)
(8.78477 -0.327596 -1.67492e-06)
(8.78466 -0.327591 -5.45521e-07)
(8.85433 -0.339607 -4.93679e-07)
(8.85444 -0.339612 -1.12422e-06)
(8.85444 -0.339613 -1.69827e-06)
(8.85444 -0.339614 -2.25158e-06)
(8.85444 -0.339615 -2.74007e-06)
(8.85444 -0.339616 -3.15189e-06)
(8.85444 -0.339617 -3.47722e-06)
(8.85444 -0.339618 -3.72415e-06)
(8.85444 -0.33962 -3.88583e-06)
(8.85444 -0.339621 -3.96617e-06)
(8.85445 -0.339623 -3.95496e-06)
(8.85445 -0.339624 -3.8556e-06)
(8.85445 -0.339626 -3.64365e-06)
(8.85445 -0.339627 -3.33312e-06)
(8.85445 -0.339628 -2.89814e-06)
(8.85445 -0.339628 -2.39446e-06)
(8.85444 -0.339629 -1.79583e-06)
(8.85444 -0.339629 -1.2026e-06)
(8.85444 -0.339629 -5.66533e-07)
(8.85433 -0.339624 -3.2539e-08)
(8.83924 -0.540626 -9.32668e-07)
(8.83935 -0.540634 -2.88267e-06)
(8.83935 -0.540634 -4.67898e-06)
(8.83935 -0.540634 -6.30295e-06)
(8.83935 -0.540635 -7.63353e-06)
(8.83935 -0.540635 -8.77161e-06)
(8.83936 -0.540635 -9.62029e-06)
(8.83936 -0.540635 -1.01974e-05)
(8.83936 -0.540636 -1.04868e-05)
(8.83936 -0.540636 -1.0506e-05)
(8.83936 -0.540636 -1.02638e-05)
(8.83936 -0.540637 -9.7832e-06)
(8.83936 -0.540637 -9.0789e-06)
(8.83936 -0.540637 -8.18405e-06)
(8.83936 -0.540637 -7.10476e-06)
(8.83936 -0.540637 -5.92171e-06)
(8.83936 -0.540637 -4.55656e-06)
(8.83936 -0.540637 -3.26039e-06)
(8.83936 -0.540637 -1.86731e-06)
(8.83925 -0.540629 -5.93134e-07)
(8.92556 -0.542523 -5.77289e-07)
(8.92567 -0.542531 -1.26668e-06)
(8.92567 -0.542531 -1.83879e-06)
(8.92567 -0.542532 -2.48898e-06)
(8.92567 -0.542533 -3.0824e-06)
(8.92567 -0.542533 -3.58362e-06)
(8.92567 -0.542534 -3.97393e-06)
(8.92567 -0.542535 -4.27934e-06)
(8.92567 -0.542537 -4.4707e-06)
(8.92567 -0.542538 -4.5588e-06)
(8.92567 -0.542539 -4.51991e-06)
(8.92568 -0.54254 -4.36174e-06)
(8.92568 -0.542541 -4.05563e-06)
(8.92568 -0.542541 -3.62948e-06)
(8.92568 -0.542542 -3.06133e-06)
(8.92568 -0.542542 -2.43678e-06)
(8.92568 -0.542543 -1.7629e-06)
(8.92568 -0.542543 -1.12223e-06)
(8.92568 -0.542543 -4.28038e-07)
(8.92557 -0.542535 3.85924e-08)
(8.89277 -0.811248 -1.11761e-06)
(8.89288 -0.811259 -3.38659e-06)
(8.89288 -0.811259 -5.3837e-06)
(8.89288 -0.81126 -7.32809e-06)
(8.89288 -0.81126 -9.00574e-06)
(8.89288 -0.81126 -1.03872e-05)
(8.89288 -0.811261 -1.14111e-05)
(8.89288 -0.811262 -1.21009e-05)
(8.89288 -0.811262 -1.24266e-05)
(8.89288 -0.811263 -1.24136e-05)
(8.89288 -0.811263 -1.2066e-05)
(8.89288 -0.811264 -1.14203e-05)
(8.89288 -0.811264 -1.04948e-05)
(8.89288 -0.811265 -9.35459e-06)
(8.89289 -0.811265 -8.01907e-06)
(8.89289 -0.811265 -6.60487e-06)
(8.89289 -0.811266 -5.1095e-06)
(8.89289 -0.811266 -3.66392e-06)
(8.89289 -0.811266 -1.99512e-06)
(8.89278 -0.811255 -6.06575e-07)
(8.94421 -0.799743 -6.69863e-07)
(8.94432 -0.799755 -1.43003e-06)
(8.94432 -0.799755 -2.23595e-06)
(8.94432 -0.799755 -3.14211e-06)
(8.94432 -0.799755 -3.77692e-06)
(8.94432 -0.799755 -4.43312e-06)
(8.94432 -0.799756 -4.89913e-06)
(8.94432 -0.799756 -5.28276e-06)
(8.94433 -0.799757 -5.4974e-06)
(8.94433 -0.799757 -5.5781e-06)
(8.94433 -0.799757 -5.48052e-06)
(8.94433 -0.799758 -5.23202e-06)
(8.94433 -0.799758 -4.79569e-06)
(8.94433 -0.799758 -4.24078e-06)
(8.94433 -0.799758 -3.50878e-06)
(8.94433 -0.799758 -2.78791e-06)
(8.94433 -0.799758 -1.91261e-06)
(8.94433 -0.799758 -1.28531e-06)
(8.94433 -0.799758 -6.00895e-07)
(8.94422 -0.799747 8.99172e-09)
(8.88221 -1.13312 -1.12158e-06)
(8.88231 -1.13314 -3.38672e-06)
(8.88232 -1.13314 -5.61848e-06)
(8.88232 -1.13314 -7.80875e-06)
(8.88232 -1.13314 -9.52241e-06)
(8.88231 -1.13314 -1.10223e-05)
(8.88231 -1.13315 -1.20964e-05)
(8.88231 -1.13315 -1.2836e-05)
(8.88231 -1.13315 -1.31611e-05)
(8.88231 -1.13315 -1.31183e-05)
(8.88231 -1.13316 -1.26952e-05)
(8.88231 -1.13316 -1.1948e-05)
(8.88231 -1.13316 -1.08871e-05)
(8.88231 -1.13316 -9.62582e-06)
(8.88231 -1.13317 -8.15417e-06)
(8.88231 -1.13317 -6.6992e-06)
(8.88231 -1.13317 -5.10245e-06)
(8.88231 -1.13317 -3.79753e-06)
(8.88231 -1.13317 -2.27238e-06)
(8.8822 -1.13316 -7.17148e-07)
(8.77357 -1.09262 -1.62994e-07)
(8.77367 -1.09263 -2.11632e-06)
(8.77366 -1.09263 -4.01128e-06)
(8.77366 -1.09263 -6.02951e-06)
(8.77366 -1.09263 -7.32583e-06)
(8.77366 -1.09263 -8.56847e-06)
(8.77366 -1.09263 -9.41256e-06)
(8.77366 -1.09262 -1.00374e-05)
(8.77366 -1.09262 -1.03246e-05)
(8.77366 -1.09262 -1.03284e-05)
(8.77366 -1.09262 -1.0011e-05)
(8.77367 -1.09262 -9.43056e-06)
(8.77367 -1.09262 -8.57001e-06)
(8.77367 -1.09262 -7.56003e-06)
(8.77367 -1.09261 -6.34353e-06)
(8.77367 -1.09261 -5.20927e-06)
(8.77367 -1.09261 -3.86742e-06)
(8.77367 -1.09261 -3.15883e-06)
(8.77368 -1.09261 -2.09843e-06)
(8.77358 -1.0926 -1.15207e-06)
(8.84553 0.746224 5.27889e-07)
(8.84564 0.746234 -8.51433e-07)
(8.84564 0.746234 -2.75661e-07)
(8.84564 0.746234 -5.27687e-07)
(8.84563 0.746233 -4.35089e-07)
(8.84563 0.746233 -5.61176e-07)
(8.84563 0.746233 -5.79633e-07)
(8.84563 0.746232 -6.45974e-07)
(8.84563 0.746232 -6.70886e-07)
(8.84563 0.746232 -6.89242e-07)
(8.84563 0.746231 -6.75357e-07)
(8.84563 0.746231 -6.49429e-07)
(8.84563 0.746231 -5.88104e-07)
(8.84563 0.74623 -5.33253e-07)
(8.84563 0.74623 -4.11042e-07)
(8.84563 0.74623 -3.77149e-07)
(8.84563 0.74623 -1.14164e-07)
(8.84563 0.746229 -1.98265e-07)
(8.84563 0.746229 5.75249e-07)
(8.84552 0.746219 -6.47527e-07)
(8.72522 0.747734 -6.38657e-07)
(8.72533 0.747744 -7.36322e-07)
(8.72533 0.747744 -6.93285e-07)
(8.72533 0.747745 -8.89691e-07)
(8.72533 0.747746 -9.65915e-07)
(8.72533 0.747747 -1.13809e-06)
(8.72533 0.747749 -1.23014e-06)
(8.72533 0.74775 -1.33052e-06)
(8.72533 0.747752 -1.37429e-06)
(8.72532 0.747753 -1.39032e-06)
(8.72532 0.747755 -1.3592e-06)
(8.72532 0.747756 -1.2991e-06)
(8.72532 0.747757 -1.19225e-06)
(8.72532 0.747759 -1.07745e-06)
(8.72532 0.74776 -9.04299e-07)
(8.72532 0.747761 -7.73012e-07)
(8.72532 0.747762 -5.06663e-07)
(8.72532 0.747762 -3.26462e-07)
(8.72532 0.747763 1.18041e-07)
(8.72521 0.747753 4.0061e-07)
(8.75828 0.500393 -2.27355e-07)
(8.75838 0.5004 3.45472e-07)
(8.75838 0.500399 8.37777e-07)
(8.75838 0.500399 1.13229e-06)
(8.75838 0.500399 1.51613e-06)
(8.75838 0.500399 1.711e-06)
(8.75838 0.500399 1.88758e-06)
(8.75838 0.500398 1.96547e-06)
(8.75838 0.500398 1.99604e-06)
(8.75838 0.500398 1.96769e-06)
(8.75838 0.500398 1.90636e-06)
(8.75838 0.500397 1.81186e-06)
(8.75838 0.500397 1.69453e-06)
(8.75838 0.500397 1.54837e-06)
(8.75838 0.500397 1.41224e-06)
(8.75838 0.500397 1.21114e-06)
(8.75838 0.500397 1.11776e-06)
(8.75838 0.500397 8.48734e-07)
(8.75838 0.500397 7.0831e-07)
(8.75827 0.500391 5.49862e-07)
(8.69278 0.499201 -3.50379e-07)
(8.69289 0.499208 -6.22634e-07)
(8.69289 0.499208 -8.21849e-07)
(8.69289 0.499209 -1.09522e-06)
(8.69288 0.499209 -1.3172e-06)
(8.69288 0.49921 -1.52233e-06)
(8.69288 0.499211 -1.65945e-06)
(8.69288 0.499212 -1.76036e-06)
(8.69288 0.499213 -1.79658e-06)
(8.69288 0.499214 -1.78173e-06)
(8.69288 0.499215 -1.70928e-06)
(8.69288 0.499216 -1.59248e-06)
(8.69288 0.499217 -1.42975e-06)
(8.69288 0.499218 -1.25057e-06)
(8.69288 0.499218 -1.03133e-06)
(8.69288 0.499219 -8.31152e-07)
(8.69288 0.49922 -5.86976e-07)
(8.69288 0.49922 -3.53543e-07)
(8.69288 0.49922 -4.51965e-08)
(8.69278 0.499214 1.16386e-07)
(8.71415 0.299276 1.50232e-07)
(8.71426 0.29928 9.10578e-07)
(8.71426 0.29928 1.65189e-06)
(8.71425 0.299281 2.24985e-06)
(8.71425 0.299281 2.76586e-06)
(8.71425 0.299282 3.15702e-06)
(8.71425 0.299283 3.44825e-06)
(8.71425 0.299284 3.61676e-06)
(8.71425 0.299285 3.68625e-06)
(8.71425 0.299286 3.6604e-06)
(8.71425 0.299287 3.55721e-06)
(8.71425 0.299288 3.38577e-06)
(8.71425 0.299289 3.16465e-06)
(8.71425 0.29929 2.89532e-06)
(8.71425 0.299291 2.59802e-06)
(8.71425 0.299291 2.25357e-06)
(8.71425 0.299292 1.9023e-06)
(8.71425 0.299292 1.48498e-06)
(8.71425 0.299292 1.06752e-06)
(8.71414 0.299289 5.00282e-07)
(8.67197 0.292618 -8.20044e-08)
(8.67208 0.292621 -7.33114e-08)
(8.67208 0.292621 -5.4986e-08)
(8.67208 0.292621 -5.707e-08)
(8.67208 0.292621 -1.43413e-08)
(8.67208 0.29262 -1.41341e-08)
(8.67208 0.29262 2.66456e-09)