/*--------------------------------*- C++ -*----------------------------------*\
| =========                 |                                                 |
| \\      /  F ield         | OpenFOAM: The Open Source CFD Toolbox           |
|  \\    /   O peration     | Version:  2212                                  |
|   \\  /    A nd           | Website:  www.openfoam.com                      |
|    \\/     M anipulation  |                                                 |
\*---------------------------------------------------------------------------*/
FoamFile
{
    version     2.0;
    format      ascii;
    arch        "LSB;label=32;scalar=64";
    class       volScalarField;
    location    "0.3515";
    object      s;
}
// * * * * * * * * * * * * * * * * * * * * * * * * * * * * * * * * * * * * * //

dimensions      [0 0 0 0 0 0 0];

internalField   nonuniform List<scalar> 
24240
(
7.67793e-78
7.60079e-78
7.66557e-78
7.55321e-78
7.56845e-78
7.66742e-78
7.63778e-78
7.46382e-78
7.52566e-78
7.72319e-78
7.57406e-78
7.7188e-78
7.60101e-78
7.72331e-78
7.52421e-78
7.76824e-78
7.50563e-78
7.59659e-78
7.57876e-78
7.40632e-78
3.10506e-75
3.07473e-75
3.10047e-75
3.05586e-75
3.06105e-75
3.10168e-75
3.08949e-75
3.01956e-75
3.04449e-75
3.12422e-75
3.0641e-75
3.122e-75
3.07545e-75
3.12424e-75
3.04415e-75
3.14217e-75
3.03696e-75
3.07348e-75
3.06563e-75
2.99612e-75
6.41852e-73
6.35758e-73
6.40982e-73
6.3193e-73
6.32806e-73
6.41324e-73
6.38766e-73
6.24403e-73
6.29542e-73
6.45987e-73
6.33603e-73
6.4544e-73
6.3604e-73
6.45989e-73
6.29522e-73
6.49639e-73
6.28108e-73
6.35597e-73
6.33845e-73
6.19536e-73
7.72952e-71
7.65825e-71
7.72e-71
7.61299e-71
7.62118e-71
7.72518e-71
7.69392e-71
7.52207e-71
7.58383e-71
7.7813e-71
7.63274e-71
7.77361e-71
7.66313e-71
7.78121e-71
7.58403e-71
7.82444e-71
7.56791e-71
7.6573e-71
7.63468e-71
7.46317e-71
6.58757e-69
6.52869e-69
6.58028e-69
6.49078e-69
6.49574e-69
6.58555e-69
6.55855e-69
6.41308e-69
6.46567e-69
6.63332e-69
6.50729e-69
6.62582e-69
6.53406e-69
6.63313e-69
6.46609e-69
6.66925e-69
6.45323e-69
6.5286e-69
6.50807e-69
6.36278e-69
3.89225e-67
3.85855e-67
3.88841e-67
3.83651e-67
3.83827e-67
3.89199e-67
3.87585e-67
3.79051e-67
3.8216e-67
3.92015e-67
3.8461e-67
3.91515e-67
3.86237e-67
3.91993e-67
3.82186e-67
3.94076e-67
3.81484e-67
3.85879e-67
3.84595e-67
3.76076e-67
1.59441e-65
1.58109e-65
1.59304e-65
1.57219e-65
1.57242e-65
1.59468e-65
1.58801e-65
1.55332e-65
1.56613e-65
1.60617e-65
1.57608e-65
1.60389e-65
1.5829e-65
1.60603e-65
1.56615e-65
1.61429e-65
1.56357e-65
1.58125e-65
1.57572e-65
1.5412e-65
4.29953e-64
4.26494e-64
4.29636e-64
4.24121e-64
4.24055e-64
4.3011e-64
4.28309e-64
4.19037e-64
4.22541e-64
4.33181e-64
4.25177e-64
4.32513e-64
4.2703e-64
4.33122e-64
4.22467e-64
4.35249e-64
4.2188e-64
4.26521e-64
4.24969e-64
4.15838e-64
3.24673e-63
3.22228e-63
3.24536e-63
3.20454e-63
3.20302e-63
3.24889e-63
3.23556e-63
3.16638e-63
3.19402e-63
3.27171e-63
3.21311e-63
3.26643e-63
3.22669e-63
3.27101e-63
3.19179e-63
3.28573e-63
3.18879e-63
3.22205e-63
3.21009e-63
3.14347e-63
1.19769e-63
1.19839e-63
1.20647e-63
1.18891e-63
1.18941e-63
1.19786e-63
1.20013e-63
1.17826e-63
1.209e-63
1.19948e-63
1.20342e-63
1.20389e-63
1.19267e-63
1.19711e-63
1.17824e-63
1.18873e-63
1.19307e-63
1.18548e-63
1.18801e-63
1.1934e-63
2.06839e-63
2.07892e-63
2.09975e-63
2.06345e-63
2.05325e-63
2.05753e-63
2.07247e-63
2.04282e-63
2.10039e-63
2.08995e-63
2.0988e-63
2.08331e-63
2.07928e-63
2.0604e-63
2.0455e-63
2.05819e-63
2.04017e-63
2.04994e-63
2.06102e-63
2.05976e-63
2.28275e-63
2.29535e-63
2.30867e-63
2.26558e-63
2.27135e-63
2.24285e-63
2.28584e-63
2.26125e-63
2.28588e-63
2.33197e-63
2.3046e-63
2.26627e-63
2.30974e-63
2.28752e-63
2.27951e-63
2.29473e-63
2.22015e-63
2.27291e-63
2.25279e-63
2.25325e-63
2.69396e-63
2.71432e-63
2.72099e-63
2.7192e-63
2.7279e-63
2.75089e-63
2.7829e-63
2.73734e-63
2.73288e-63
2.69851e-63
2.70222e-63
2.70778e-63
2.73482e-63
2.74711e-63
2.70556e-63
2.7259e-63
2.73153e-63
2.71396e-63
2.69185e-63
2.70388e-63
2.87779e-63
2.86001e-63
2.8725e-63
2.92285e-63
2.9068e-63
2.93415e-63
2.88352e-63
2.94309e-63
2.86845e-63
2.83024e-63
2.83636e-63
2.86264e-63
2.86145e-63
2.8293e-63
2.81813e-63
2.84816e-63
2.81444e-63
2.867e-63
2.84379e-63
2.88743e-63
2.98284e-63
2.97069e-63
3.01661e-63
2.98353e-63
2.97423e-63
3.02816e-63
3.00156e-63
3.05547e-63
2.98574e-63
3.03241e-63
3.01029e-63
3.02038e-63
3.02118e-63
3.04157e-63
3.00964e-63
3.06703e-63
2.99931e-63
2.96592e-63
2.99843e-63
2.97952e-63
2.94655e-63
2.91177e-63
2.90199e-63
2.90658e-63
2.93735e-63
2.95922e-63
2.95058e-63
2.93874e-63
2.88879e-63
2.902e-63
2.86955e-63
2.94161e-63
2.94928e-63
2.97496e-63
2.97234e-63
2.9572e-63
2.94217e-63
2.95375e-63
2.92493e-63
2.93121e-63
2.73933e-63
2.78335e-63
2.73974e-63
2.81507e-63
2.73576e-63
2.79398e-63
2.74713e-63
2.79032e-63
2.75674e-63
2.77982e-63
2.76171e-63
2.82163e-63
2.76411e-63
2.83347e-63
2.76217e-63
2.78759e-63
2.79535e-63
2.73237e-63
2.80425e-63
2.80229e-63
2.4568e-63
2.52817e-63
2.51138e-63
2.48292e-63
2.46461e-63
2.54821e-63
2.50374e-63
2.5191e-63
2.5017e-63
2.46676e-63
2.48845e-63
2.53242e-63
2.48923e-63
2.56488e-63
2.49069e-63
2.52953e-63
2.53354e-63
2.51084e-63
2.5399e-63
2.5505e-63
2.3562e-63
2.35772e-63
2.36147e-63
2.38527e-63
2.38691e-63
2.38842e-63
2.34127e-63
2.39295e-63
2.4123e-63
2.35704e-63
2.39629e-63
2.41331e-63
2.33927e-63
2.42248e-63
2.4121e-63
2.45291e-63
2.39403e-63
2.41198e-63
2.38632e-63
2.43314e-63
1.52449e-63
1.53733e-63
1.53548e-63
1.52039e-63
1.53425e-63
1.53056e-63
1.53363e-63
1.53553e-63
1.52361e-63
1.54978e-63
1.5162e-63
1.55176e-63
1.51839e-63
1.56701e-63
1.52278e-63
1.52552e-63
1.52758e-63
1.55714e-63
1.5348e-63
1.56715e-63
1.92192e-76
1.90308e-76
1.91908e-76
1.89145e-76
1.89471e-76
1.91988e-76
1.91232e-76
1.86904e-76
1.8844e-76
1.93392e-76
1.89659e-76
1.93256e-76
1.9036e-76
1.93388e-76
1.88422e-76
1.94501e-76
1.87962e-76
1.90232e-76
1.89748e-76
1.85431e-76
7.71889e-74
7.64546e-74
7.7086e-74
7.59965e-74
7.61034e-74
7.71292e-74
7.68205e-74
7.50931e-74
7.5708e-74
7.76929e-74
7.61983e-74
7.76271e-74
7.64914e-74
7.76906e-74
7.5707e-74
7.81315e-74
7.55306e-74
7.64354e-74
7.62253e-74
7.44966e-74
1.56948e-71
1.55499e-71
1.5676e-71
1.54585e-71
1.54755e-71
1.5687e-71
1.56233e-71
1.52743e-71
1.5399e-71
1.58016e-71
1.54988e-71
1.57861e-71
1.55607e-71
1.58011e-71
1.54e-71
1.58894e-71
1.53659e-71
1.55484e-71
1.55026e-71
1.51524e-71
1.86897e-69
1.85226e-69
1.86699e-69
1.84157e-69
1.84302e-69
1.86854e-69
1.86085e-69
1.81956e-69
1.83438e-69
1.88219e-69
1.84627e-69
1.88007e-69
1.8539e-69
1.88209e-69
1.83461e-69
1.89243e-69
1.83077e-69
1.85231e-69
1.84649e-69
1.80495e-69
1.568e-67
1.55445e-67
1.56656e-67
1.54563e-67
1.54637e-67
1.56806e-67
1.56152e-67
1.52712e-67
1.53954e-67
1.5795e-67
1.5495e-67
1.57749e-67
1.55611e-67
1.57939e-67
1.5398e-67
1.58789e-67
1.53679e-67
1.55466e-67
1.54948e-67
1.51483e-67
9.15699e-66
9.08052e-66
9.1498e-66
9.02986e-66
9.03141e-66
9.15957e-66
9.12098e-66
8.92151e-66
8.99411e-66
9.22624e-66
9.05202e-66
9.21316e-66
9.09171e-66
9.22531e-66
8.9956e-66
9.27378e-66
8.97941e-66
9.08238e-66
9.05054e-66
8.84955e-66
3.6967e-64
3.66697e-64
3.6943e-64
3.64681e-64
3.6463e-64
3.69862e-64
3.68291e-64
3.60302e-64
3.63247e-64
3.72543e-64
3.65566e-64
3.71961e-64
3.67206e-64
3.72492e-64
3.63289e-64
3.74388e-64
3.62703e-64
3.66787e-64
3.6544e-64
3.57409e-64
9.8326e-63
9.75669e-63
9.82756e-63
9.70361e-63
9.69937e-63
9.83967e-63
9.79784e-63
9.58722e-63
9.66675e-63
9.91039e-63
9.72733e-63
9.89366e-63
9.77127e-63
9.90854e-63
9.66606e-63
9.95661e-63
9.65294e-63
9.75862e-63
9.72151e-63
9.51182e-63
7.32321e-62
7.2705e-62
7.32185e-62
7.23133e-62
7.2259e-62
7.33068e-62
7.30012e-62
7.14516e-62
7.20704e-62
7.38255e-62
7.25031e-62
7.36952e-62
7.28214e-62
7.38057e-62
7.20278e-62
7.41334e-62
7.19619e-62
7.27089e-62
7.24278e-62
7.09172e-62
2.62928e-62
2.63097e-62
2.64902e-62
2.61046e-62
2.6111e-62
2.62969e-62
2.63445e-62
2.58695e-62
2.65456e-62
2.63362e-62
2.64232e-62
2.64289e-62
2.61882e-62
2.62807e-62
2.58718e-62
2.60929e-62
2.61919e-62
2.6027e-62
2.60836e-62
2.62007e-62
4.5831e-62
4.60604e-62
4.65228e-62
4.57166e-62
4.54939e-62
4.55836e-62
4.59116e-62
4.52637e-62
4.65325e-62
4.63088e-62
4.64994e-62
4.61528e-62
4.60707e-62
4.5655e-62
4.53257e-62
4.56019e-62
4.51973e-62
4.54178e-62
4.56611e-62
4.56272e-62
5.02993e-62
5.05725e-62
5.08681e-62
4.99204e-62
5.00514e-62
4.94315e-62
5.03746e-62
4.98414e-62
5.03604e-62
5.13718e-62
5.07681e-62
4.99323e-62
5.08869e-62
5.04094e-62
5.02282e-62
5.05639e-62
4.89338e-62
5.00773e-62
4.96459e-62
4.96512e-62
5.95118e-62
5.99432e-62
6.00984e-62
6.00713e-62
6.02578e-62
6.07714e-62
6.14485e-62
6.04732e-62
6.03641e-62
5.96044e-62
5.96815e-62
5.98096e-62
6.04023e-62
6.06706e-62
5.97657e-62
6.0206e-62
6.03269e-62
5.99526e-62
5.94604e-62
5.9732e-62
6.32149e-62
6.28153e-62
6.309e-62
6.41866e-62
6.38396e-62
6.44407e-62
6.33276e-62
6.46399e-62
6.29888e-62
6.218e-62
6.23e-62
6.28823e-62
6.28479e-62
6.21508e-62
6.19109e-62
6.25674e-62
6.18227e-62
6.29704e-62
6.2471e-62
6.34142e-62
6.57362e-62
6.54654e-62
6.64703e-62
6.57369e-62
6.55472e-62
6.67322e-62
6.61383e-62
6.73279e-62
6.58024e-62
6.68299e-62
6.63359e-62
6.65594e-62
6.65745e-62
6.70406e-62
6.63308e-62
6.75815e-62
6.60998e-62
6.53625e-62
6.60797e-62
6.565e-62
6.45578e-62
6.38076e-62
6.35741e-62
6.36878e-62
6.43562e-62
6.48313e-62
6.46407e-62
6.43819e-62
6.33006e-62
6.35825e-62
6.28715e-62
6.44426e-62
6.46174e-62
6.51688e-62
6.51224e-62
6.47751e-62
6.44609e-62
6.47227e-62
6.40903e-62
6.42281e-62
6.02812e-62
6.12573e-62
6.02961e-62
6.19398e-62
6.01911e-62
6.1469e-62
6.04426e-62
6.13952e-62
6.06642e-62
6.11769e-62
6.07714e-62
6.20937e-62
6.0823e-62
6.23423e-62
6.0786e-62
6.13306e-62
6.15121e-62
6.01293e-62
6.17078e-62
6.16642e-62
5.38446e-62
5.53914e-62
5.50334e-62
5.44041e-62
5.40123e-62
5.58254e-62
5.4853e-62
5.51926e-62
5.48168e-62
5.40515e-62
5.45222e-62
5.54804e-62
5.45428e-62
5.61846e-62
5.4577e-62
5.54223e-62
5.55027e-62
5.50189e-62
5.56409e-62
5.58804e-62
5.20104e-62
5.2042e-62
5.2133e-62
5.26507e-62
5.26807e-62
5.27127e-62
5.16757e-62
5.28287e-62
5.32398e-62
5.20316e-62
5.28922e-62
5.32694e-62
5.16371e-62
5.3465e-62
5.32434e-62
5.41337e-62
5.28472e-62
5.32283e-62
5.26649e-62
5.36906e-62
3.34416e-62
3.37253e-62
3.36879e-62
3.33537e-62
3.36517e-62
3.35741e-62
3.36383e-62
3.36851e-62
3.34125e-62
3.39915e-62
3.32545e-62
3.40315e-62
3.33067e-62
3.43676e-62
3.34009e-62
3.34609e-62
3.35035e-62
3.41508e-62
3.36645e-62
3.43685e-62
4.65016e-75
4.60582e-75
4.64403e-75
4.57838e-75
4.58489e-75
4.64679e-75
4.62814e-75
4.52411e-75
4.56098e-75
4.68096e-75
4.59063e-75
4.677e-75
4.6083e-75
4.68068e-75
4.56099e-75
4.70732e-75
4.55001e-75
4.60474e-75
4.59208e-75
4.48759e-75
1.84444e-72
1.8274e-72
1.84229e-72
1.81673e-72
1.81874e-72
1.84364e-72
1.83613e-72
1.79512e-72
1.8097e-72
1.85719e-72
1.82148e-72
1.85536e-72
1.82876e-72
1.85707e-72
1.80986e-72
1.86749e-72
1.8057e-72
1.82724e-72
1.82185e-72
1.78051e-72
3.68733e-70
3.65437e-70
3.68359e-70
3.63344e-70
3.63633e-70
3.68678e-70
3.67156e-70
3.5901e-70
3.61917e-70
3.7139e-70
3.64276e-70
3.7097e-70
3.65786e-70
3.71362e-70
3.61978e-70
3.73414e-70
3.6119e-70
3.65461e-70
3.64312e-70
3.5607e-70
4.3368e-68
4.29935e-68
4.33307e-68
4.27517e-68
4.27725e-68
4.33736e-68
4.31921e-68
4.22404e-68
4.25816e-68
4.36924e-68
4.28589e-68
4.36367e-68
4.30426e-68
4.36882e-68
4.25911e-68
4.39255e-68
4.25037e-68
4.30013e-68
4.28579e-68
4.18919e-68
3.57891e-66
3.54911e-66
3.57638e-66
3.52949e-66
3.53012e-66
3.58034e-66
3.56518e-66
3.48719e-66
3.51532e-66
3.60663e-66
3.53816e-66
3.60151e-66
3.55382e-66
3.60621e-66
3.51625e-66
3.6254e-66
3.50952e-66
3.55013e-66
3.53765e-66
3.45831e-66
2.0627e-64
2.04617e-64
2.06155e-64
2.03503e-64
2.03478e-64
2.06406e-64
2.05522e-64
2.0106e-64
2.02683e-64
2.07917e-64
2.03993e-64
2.07591e-64
2.04921e-64
2.07886e-64
2.02737e-64
2.08965e-64
2.0238e-64
2.04688e-64
2.03934e-64
1.9939e-64
8.19882e-63
8.13573e-63
8.19546e-63
8.09206e-63
8.08857e-63
8.2062e-63
8.17081e-63
7.99485e-63
8.05967e-63
8.26608e-63
8.11134e-63
8.2519e-63
8.14906e-63
8.26452e-63
8.06143e-63
8.30606e-63
8.04875e-63
8.13887e-63
8.10755e-63
7.92868e-63
2.14771e-61
2.1319e-61
2.14715e-61
2.12057e-61
2.11903e-61
2.15008e-61
2.1408e-61
2.09512e-61
2.11236e-61
2.16564e-61
2.12565e-61
2.16164e-61
2.13561e-61
2.16512e-61
2.11243e-61
2.17549e-61
2.10964e-61
2.13261e-61
2.12414e-61
2.07811e-61
1.57626e-60
1.56549e-60
1.57639e-60
1.55725e-60
1.55563e-60
1.57847e-60
1.57179e-60
1.53868e-60
1.5519e-60
1.58973e-60
1.56126e-60
1.58667e-60
1.56838e-60
1.58921e-60
1.55115e-60
1.59617e-60
1.54978e-60
1.56578e-60
1.55948e-60
1.52675e-60
5.49947e-61
5.50332e-61
5.54173e-61
5.46104e-61
5.4614e-61
5.50033e-61
5.50983e-61
5.41157e-61
5.55328e-61
5.50939e-61
5.52769e-61
5.52793e-61
5.47879e-61
5.49706e-61
5.41266e-61
5.45696e-61
5.47836e-61
5.4443e-61
5.45637e-61
5.48054e-61
9.67852e-61
9.72613e-61
9.82399e-61
9.65331e-61
9.60702e-61
9.62489e-61
9.69349e-61
9.5586e-61
9.82507e-61
9.77946e-61
9.81848e-61
9.74459e-61
9.72882e-61
9.64164e-61
9.57227e-61
9.62949e-61
9.54295e-61
9.59029e-61
9.64128e-61
9.63276e-61
1.05665e-60
1.06229e-60
1.06854e-60
1.04866e-60
1.0515e-60
1.03866e-60
1.05837e-60
1.04736e-60
1.05775e-60
1.07892e-60
1.06622e-60
1.04884e-60
1.06884e-60
1.05905e-60
1.05516e-60
1.06222e-60
1.02827e-60
1.05186e-60
1.04307e-60
1.04307e-60
1.25362e-60
1.26231e-60
1.26576e-60
1.26545e-60
1.26926e-60
1.28018e-60
1.29381e-60
1.27394e-60
1.27142e-60
1.25541e-60
1.25693e-60
1.25974e-60
1.27212e-60
1.2777e-60
1.25893e-60
1.268e-60
1.27045e-60
1.26289e-60
1.25244e-60
1.25828e-60
1.32512e-60
1.31655e-60
1.32232e-60
1.34509e-60
1.33794e-60
1.35055e-60
1.32721e-60
1.35478e-60
1.31993e-60
1.30363e-60
1.30584e-60
1.31815e-60
1.31725e-60
1.30283e-60
1.29793e-60
1.3116e-60
1.29592e-60
1.31984e-60
1.3096e-60
1.32903e-60
1.38272e-60
1.37696e-60
1.39793e-60
1.38243e-60
1.37878e-60
1.40361e-60
1.39095e-60
1.41601e-60
1.38417e-60
1.40573e-60
1.39521e-60
1.39993e-60
1.40021e-60
1.41037e-60
1.3953e-60
1.42129e-60
1.39039e-60
1.37485e-60
1.38994e-60
1.38063e-60
1.35118e-60
1.33578e-60
1.33052e-60
1.33315e-60
1.34696e-60
1.35685e-60
1.35282e-60
1.34748e-60
1.32513e-60
1.33087e-60
1.31599e-60
1.34868e-60
1.35246e-60
1.36376e-60
1.36299e-60
1.35546e-60
1.34916e-60
1.35477e-60
1.34159e-60
1.34444e-60
1.26751e-60
1.28814e-60
1.26789e-60
1.30211e-60
1.26535e-60
1.29211e-60
1.27066e-60
1.29069e-60
1.2755e-60
1.28638e-60
1.27769e-60
1.30558e-60
1.2788e-60
1.31056e-60
1.27817e-60
1.28923e-60
1.2933e-60
1.26435e-60
1.2974e-60
1.29649e-60
1.12835e-60
1.16037e-60
1.15309e-60
1.13982e-60
1.13179e-60
1.16936e-60
1.14903e-60
1.15621e-60
1.14845e-60
1.13244e-60
1.1422e-60
1.16216e-60
1.14271e-60
1.17675e-60
1.14347e-60
1.16104e-60
1.16258e-60
1.15272e-60
1.16544e-60
1.1706e-60
1.09791e-60
1.09856e-60
1.10066e-60
1.1114e-60
1.11189e-60
1.11255e-60
1.09075e-60
1.11535e-60
1.12366e-60
1.09842e-60
1.11645e-60
1.12446e-60
1.09006e-60
1.12844e-60
1.12392e-60
1.14247e-60
1.11563e-60
1.12333e-60
1.11152e-60
1.13298e-60
7.02554e-61
7.08548e-61
7.07841e-61
7.00755e-61
7.06888e-61
7.05319e-61
7.06594e-61
7.07697e-61
7.01736e-61
7.13994e-61
6.9852e-61
7.14767e-61
6.99692e-61
7.21855e-61
7.01644e-61
7.02904e-61
7.03728e-61
7.17301e-61
7.07164e-61
7.21831e-61
1.12823e-73
1.11779e-73
1.12694e-73
1.11131e-73
1.11255e-73
1.12781e-73
1.1232e-73
1.09812e-73
1.107e-73
1.13615e-73
1.11423e-73
1.13502e-73
1.11869e-73
1.13604e-73
1.10711e-73
1.14243e-73
1.10449e-73
1.11771e-73
1.11441e-73
1.08903e-73
4.40656e-71
4.36716e-71
4.40223e-71
4.3423e-71
4.3458e-71
4.40621e-71
4.38795e-71
4.29063e-71
4.32518e-71
4.43879e-71
4.35348e-71
4.43376e-71
4.37156e-71
4.43831e-71
4.32599e-71
4.46293e-71
4.31621e-71
4.36748e-71
4.35372e-71
4.25478e-71
8.66117e-69
8.58644e-69
8.65411e-69
8.5385e-69
8.54275e-69
8.66303e-69
8.62666e-69
8.43662e-69
8.50437e-69
8.72714e-69
8.56005e-69
8.716e-69
8.59689e-69
8.72609e-69
8.50664e-69
8.77376e-69
8.48845e-69
8.58834e-69
8.55965e-69
8.36563e-69
1.00487e-66
9.96515e-67
1.00422e-66
9.9105e-67
9.9124e-67
1.00537e-66
1.0011e-66
9.79194e-67
9.87037e-67
1.01281e-66
9.93494e-67
1.01136e-66
9.97912e-67
1.01266e-66
9.87357e-67
1.0181e-66
9.85368e-67
9.96846e-67
9.93332e-67
9.70885e-67
8.15504e-65
8.08991e-65
8.15115e-65
8.04629e-65
8.04536e-65
8.16142e-65
8.12632e-65
7.94982e-65
8.01342e-65
8.22172e-65
8.06572e-65
8.20879e-65
8.10271e-65
8.22036e-65
8.01635e-65
8.26357e-65
8.00133e-65
8.09342e-65
8.06346e-65
7.88203e-65
4.63412e-63
4.5986e-63
4.63267e-63
4.57418e-63
4.57227e-63
4.63895e-63
4.61881e-63
4.51924e-63
4.55542e-63
4.67315e-63
4.585e-63
4.66511e-63
4.6066e-63
4.67222e-63
4.55709e-63
4.69617e-63
4.54926e-63
4.60086e-63
4.58307e-63
4.48055e-63
1.81326e-61
1.79997e-61
1.81299e-61
1.79054e-61
1.78924e-61
1.81561e-61
1.80766e-61
1.76902e-61
1.78325e-61
1.82894e-61
1.79473e-61
1.82552e-61
1.80337e-61
1.8285e-61
1.78382e-61
1.83757e-61
1.78108e-61
1.80091e-61
1.79367e-61
1.75391e-61
4.6748e-60
4.64213e-60
4.67484e-60
4.61802e-60
4.61333e-60
4.6818e-60
4.66131e-60
4.56257e-60
4.59982e-60
4.71591e-60
4.62889e-60
4.70647e-60
4.65137e-60
4.71451e-60
4.60045e-60
4.73679e-60
4.59456e-60
4.64428e-60
4.62508e-60
4.52429e-60
3.38064e-59
3.35884e-59
3.38187e-59
3.34154e-59
3.33712e-59
3.38673e-59
3.37219e-59
3.30167e-59
3.32982e-59
3.41106e-59
3.34999e-59
3.40395e-59
3.36587e-59
3.40975e-59
3.32859e-59
3.42447e-59
3.32574e-59
3.35987e-59
3.34584e-59
3.27514e-59
1.14522e-59
1.14609e-59
1.15422e-59
1.1374e-59
1.13728e-59
1.14539e-59
1.14728e-59
1.12705e-59
1.15662e-59
1.14746e-59
1.1513e-59
1.15114e-59
1.14117e-59
1.14473e-59
1.1274e-59
1.13622e-59
1.14081e-59
1.13381e-59
1.13638e-59
1.14134e-59
2.03585e-59
2.04568e-59
2.06631e-59
2.03032e-59
2.02075e-59
2.02427e-59
2.03857e-59
2.0106e-59
2.06634e-59
2.05709e-59
2.06504e-59
2.04934e-59
2.04636e-59
2.02815e-59
2.0136e-59
2.0254e-59
2.00698e-59
2.01708e-59
2.02773e-59
2.02565e-59
2.21172e-59
2.22331e-59
2.2365e-59
2.19497e-59
2.20106e-59
2.17461e-59
2.21564e-59
2.19298e-59
2.21365e-59
2.25781e-59
2.2312e-59
2.19518e-59
2.23693e-59
2.21696e-59
2.20867e-59
2.22344e-59
2.15301e-59
2.20146e-59
2.18361e-59
2.18339e-59
2.63173e-59
2.64913e-59
2.65676e-59
2.65666e-59
2.66441e-59
2.68752e-59
2.7148e-59
2.67451e-59
2.66875e-59
2.63513e-59
2.63812e-59
2.64425e-59
2.66999e-59
2.68155e-59
2.64274e-59
2.66135e-59
2.66633e-59
2.65114e-59
2.62904e-59
2.64155e-59
2.77054e-59
2.75224e-59
2.7643e-59
2.81146e-59
2.79679e-59
2.82316e-59
2.77434e-59
2.83211e-59
2.75878e-59
2.72604e-59
2.73002e-59
2.75595e-59
2.75374e-59
2.72394e-59
2.71398e-59
2.74239e-59
2.70945e-59
2.75917e-59
2.73825e-59
2.77814e-59
2.90138e-59
2.88917e-59
2.93281e-59
2.90011e-59
2.89318e-59
2.94507e-59
2.91817e-59
2.97078e-59
2.90452e-59
2.94968e-59
2.92731e-59
2.93726e-59
2.93777e-59
2.95987e-59
2.92796e-59
2.98183e-59
2.91755e-59
2.88485e-59
2.91652e-59
2.89642e-59
2.82436e-59
2.79287e-59
2.78108e-59
2.78711e-59
2.81555e-59
2.83612e-59
2.82758e-59
2.8166e-59
2.77049e-59
2.78215e-59
2.75106e-59
2.819e-59
2.82715e-59
2.85026e-59
2.84905e-59
2.83276e-59
2.8202e-59
2.83217e-59
2.80478e-59
2.81068e-59
2.66216e-59
2.70573e-59
2.66308e-59
2.73427e-59
2.65709e-59
2.71301e-59
2.66827e-59
2.71032e-59
2.67881e-59
2.70187e-59
2.68329e-59
2.74204e-59
2.68563e-59
2.75198e-59
2.68464e-59
2.70701e-59
2.71617e-59
2.65558e-59
2.72471e-59
2.72283e-59
2.3652e-59
2.43145e-59
2.4167e-59
2.38866e-59
2.37224e-59
2.45008e-59
2.4076e-59
2.42274e-59
2.40675e-59
2.37322e-59
2.39347e-59
2.43503e-59
2.39473e-59
2.46527e-59
2.39643e-59
2.43296e-59
2.43583e-59
2.41579e-59
2.44173e-59
2.45287e-59
2.31891e-59
2.32021e-59
2.32503e-59
2.34732e-59
2.34807e-59
2.34943e-59
2.30359e-59
2.35605e-59
2.37285e-59
2.32011e-59
2.35792e-59
2.37489e-59
2.3024e-59
2.38299e-59
2.37378e-59
2.41245e-59
2.35643e-59
2.37196e-59
2.34719e-59
2.39212e-59
1.47864e-59
1.49133e-59
1.49e-59
1.47495e-59
1.48759e-59
1.48441e-59
1.48695e-59
1.48951e-59
1.47648e-59
1.50248e-59
1.46993e-59
1.50396e-59
1.47256e-59
1.51894e-59
1.4766e-59
1.47925e-59
1.48084e-59
1.50935e-59
1.48819e-59
1.51879e-59
2.73526e-72
2.71075e-72
2.73262e-72
2.69542e-72
2.69763e-72
2.7352e-72
2.72383e-72
2.66344e-72
2.68479e-72
2.75555e-72
2.70242e-72
2.75242e-72
2.71365e-72
2.75516e-72
2.68533e-72
2.77048e-72
2.67905e-72
2.71099e-72
2.70244e-72
2.64081e-72
1.05286e-69
1.04377e-69
1.05204e-69
1.03799e-69
1.03851e-69
1.05316e-69
1.04873e-69
1.02563e-69
1.03382e-69
1.061e-69
1.04062e-69
1.05964e-69
1.0451e-69
1.06084e-69
1.03412e-69
1.06665e-69
1.03182e-69
1.04402e-69
1.04052e-69
1.01683e-69
2.03435e-67
2.01746e-67
2.03314e-67
2.00649e-67
2.00689e-67
2.03556e-67
2.02688e-67
1.98254e-67
1.99833e-67
2.05071e-67
2.01147e-67
2.04779e-67
2.02045e-67
2.05037e-67
1.99906e-67
2.06144e-67
1.99486e-67
2.01822e-67
2.01109e-67
1.96538e-67
2.32718e-65
2.30863e-65
2.32622e-65
2.2963e-65
2.29606e-65
2.32925e-65
2.31919e-65
2.26882e-65
2.28684e-65
2.34658e-65
2.30187e-65
2.34288e-65
2.31247e-65
2.34613e-65
2.28781e-65
2.35857e-65
2.28329e-65
2.30974e-65
2.30117e-65
2.24899e-65
1.85665e-63
1.84249e-63
1.85623e-63
1.8328e-63
1.83205e-63
1.85884e-63
1.85073e-63
1.81082e-63
1.82519e-63
1.87266e-63
1.83715e-63
1.86943e-63
1.84588e-63
1.87226e-63
1.82604e-63
1.88198e-63
1.82269e-63
1.84355e-63
1.83639e-63
1.7949e-63
1.0394e-61
1.03182e-61
1.03935e-61
1.02648e-61
1.02575e-61
1.04091e-61
1.03632e-61
1.01415e-61
1.0222e-61
1.04863e-61
1.02886e-61
1.04666e-61
1.03388e-61
1.04836e-61
1.02268e-61
1.05367e-61
1.02096e-61
1.03247e-61
1.0283e-61
1.00519e-61
4.002e-60
3.97422e-60
4.00253e-60
3.9539e-60
3.94989e-60
4.00882e-60
3.99105e-60
3.90635e-60
3.93752e-60
4.03846e-60
3.96297e-60
4.03027e-60
3.98273e-60
4.03727e-60
3.93918e-60
4.05704e-60
3.93331e-60
3.97682e-60
3.96016e-60
3.87189e-60
1.01469e-58
1.008e-58
1.01499e-58
1.00288e-58
1.00158e-58
1.01662e-58
1.01212e-58
9.90835e-59
9.98861e-59
1.02408e-58
1.0052e-58
1.02187e-58
1.01025e-58
1.02372e-58
9.99103e-59
1.02849e-58
9.97865e-59
1.00859e-58
1.00426e-58
9.82237e-59
7.22839e-58
7.1847e-58
7.23321e-58
7.14851e-58
7.13705e-58
7.2444e-58
7.21289e-58
7.06318e-58
7.12292e-58
7.29684e-58
7.16627e-58
7.28042e-58
7.2015e-58
7.29359e-58
7.12109e-58
7.32462e-58
7.11522e-58
7.18775e-58
7.15669e-58
7.00428e-58
2.376e-58
2.37793e-58
2.3951e-58
2.36017e-58
2.3595e-58
2.37631e-58
2.38006e-58
2.33857e-58
2.40004e-58
2.38103e-58
2.38901e-58
2.38825e-58
2.36811e-58
2.37502e-58
2.33957e-58
2.35702e-58
2.3668e-58
2.35249e-58
2.35793e-58
2.36805e-58
4.26711e-58
4.28735e-58
4.33069e-58
4.25505e-58
4.23535e-58
4.24226e-58
4.27196e-58
4.21418e-58
4.33034e-58
4.31166e-58
4.32776e-58
4.29456e-58
4.28901e-58
4.25112e-58
4.22069e-58
4.24495e-58
4.2059e-58
4.22734e-58
4.24953e-58
4.24453e-58
4.6147e-58
4.63845e-58
4.66617e-58
4.57969e-58
4.59273e-58
4.53844e-58
4.62354e-58
4.57707e-58
4.61797e-58
4.70983e-58
4.65418e-58
4.57978e-58
4.66667e-58
4.62605e-58
4.60847e-58
4.63928e-58
4.49373e-58
4.59278e-58
4.55678e-58
4.55583e-58
5.50786e-58
5.54252e-58
5.5593e-58
5.56018e-58
5.57591e-58
5.6246e-58
5.67896e-58
5.59757e-58
5.5846e-58
5.51419e-58
5.52009e-58
5.53335e-58
5.58675e-58
5.61054e-58
5.53065e-58
5.56867e-58
5.57859e-58
5.54837e-58
5.50175e-58
5.52842e-58
5.77885e-58
5.7399e-58
5.76508e-58
5.86247e-58
5.83245e-58
5.88747e-58
5.78565e-58
5.90632e-58
5.75248e-58
5.68691e-58
5.69394e-58
5.7484e-58
5.7431e-58
5.68168e-58
5.66153e-58
5.72031e-58
5.65141e-58
5.7545e-58
5.7119e-58
5.79352e-58
6.07387e-58
6.04806e-58
6.13863e-58
6.06986e-58
6.05693e-58
6.16502e-58
6.10806e-58
6.21822e-58
6.0807e-58
6.17498e-58
6.12753e-58
6.14843e-58
6.14944e-58
6.1972e-58
6.12989e-58
6.2412e-58
6.10784e-58
6.03924e-58
6.10554e-58
6.06231e-58
5.89506e-58
5.83088e-58
5.80472e-58
5.81831e-58
5.87669e-58
5.91952e-58
5.90145e-58
5.879e-58
5.78405e-58
5.80767e-58
5.74284e-58
5.88371e-58
5.90128e-58
5.94837e-58
5.94661e-58
5.91163e-58
5.88663e-58
5.91195e-58
5.85529e-58
5.86742e-58
5.58317e-58
5.67483e-58
5.58527e-58
5.73293e-58
5.5714e-58
5.68794e-58
5.59488e-58
5.6829e-58
5.61765e-58
5.66639e-58
5.6267e-58
5.7503e-58
5.6318e-58
5.77008e-58
5.63053e-58
5.67551e-58
5.69594e-58
5.56952e-58
5.71365e-58
5.70978e-58
4.95281e-58
5.08976e-58
5.05987e-58
5.00091e-58
4.96721e-58
5.12827e-58
5.03962e-58
5.07152e-58
5.03859e-58
4.96857e-58
5.01053e-58
5.09697e-58
5.01348e-58
5.15952e-58
5.01725e-58
5.09303e-58
5.0984e-58
5.05766e-58
5.11061e-58
5.13453e-58
4.89156e-58
4.8943e-58
4.90524e-58
4.95131e-58
4.95227e-58
4.95517e-58
4.85893e-58
4.9706e-58
5.00436e-58
4.89435e-58
4.97349e-58
5.00948e-58
4.85699e-58
5.02595e-58
5.00717e-58
5.08756e-58
4.971e-58
5.0021e-58
4.95035e-58
5.04418e-58
3.10117e-58
3.12786e-58
3.12546e-58
3.09368e-58
3.11963e-58
3.11316e-58
3.11813e-58
3.1241e-58
3.09583e-58
3.15063e-58
3.08254e-58
3.15349e-58
3.08829e-58
3.18499e-58
3.09675e-58
3.10233e-58
3.10526e-58
3.16492e-58
3.12086e-58
3.18453e-58
6.63288e-71
6.57552e-71
6.62782e-71
6.53931e-71
6.54273e-71
6.63519e-71
6.60718e-71
6.46171e-71
6.51308e-71
6.68485e-71
6.55606e-71
6.67627e-71
6.58432e-71
6.68362e-71
6.51501e-71
6.72035e-71
6.50003e-71
6.57714e-71
6.5551e-71
6.40532e-71
2.51221e-68
2.49135e-68
2.51079e-68
2.4779e-68
2.47842e-68
2.51389e-68
2.50314e-68
2.44839e-68
2.46779e-68
2.53271e-68
2.48409e-68
2.52909e-68
2.49519e-68
2.53221e-68
2.46874e-68
2.54592e-68
2.46335e-68
2.49231e-68
2.48349e-68
2.42679e-68
4.77081e-66
4.73285e-66
4.76909e-66
4.70777e-66
4.70733e-66
4.7755e-66
4.75484e-66
4.65156e-66
4.68831e-66
4.81128e-66
4.71928e-66
4.80369e-66
4.7411e-66
4.81025e-66
4.69048e-66
4.8359e-66
4.68082e-66
4.73532e-66
4.71769e-66
4.61012e-66
5.37722e-64
5.33631e-64
5.37636e-64
5.30852e-64
5.30642e-64
5.38416e-64
5.36059e-64
5.24497e-64
5.28631e-64
5.42447e-64
5.32119e-64
5.41509e-64
5.34658e-64
5.42317e-64
5.28906e-64
5.45156e-64
5.27885e-64
5.33964e-64
5.31883e-64
5.19774e-64
4.21676e-62
4.18618e-62
4.21694e-62
4.16473e-62
4.16182e-62
4.22346e-62
4.20478e-62
4.11476e-62
4.14716e-62
4.25506e-62
4.17444e-62
4.24705e-62
4.19497e-62
4.25392e-62
4.14949e-62
4.27572e-62
4.14207e-62
4.18917e-62
4.17215e-62
4.07744e-62
2.32429e-60
2.30826e-60
2.32485e-60
2.29659e-60
2.2943e-60
2.32863e-60
2.31824e-60
2.26899e-60
2.28687e-60
2.34602e-60
2.30183e-60
2.34124e-60
2.31345e-60
2.3453e-60
2.28816e-60
2.35701e-60
2.28443e-60
2.31002e-60
2.30028e-60
2.24829e-60
8.80451e-59
8.74699e-59
8.80833e-59
8.70331e-59
8.69201e-59
8.82327e-59
8.78366e-59
8.59862e-59
8.6667e-59
8.88893e-59
8.72292e-59
8.86948e-59
8.76792e-59
8.8858e-59
8.67123e-59
8.92874e-59
8.6587e-59
8.75381e-59
8.71571e-59
8.52019e-59
2.19443e-57
2.18089e-57
2.19579e-57
2.17007e-57
2.16663e-57
2.19956e-57
2.18969e-57
2.144e-57
2.16123e-57
2.21581e-57
2.17499e-57
2.21066e-57
2.18631e-57
2.2149e-57
2.16198e-57
2.22508e-57
2.15939e-57
2.18244e-57
2.17273e-57
2.12473e-57
1.5398e-56
1.53115e-56
1.54133e-56
1.5236e-56
1.52074e-56
1.54387e-56
1.53707e-56
1.50541e-56
1.51805e-56
1.55513e-56
1.52732e-56
1.55137e-56
1.5351e-56
1.55434e-56
1.51782e-56
1.56086e-56
1.51662e-56
1.53197e-56
1.52513e-56
1.49237e-56
4.90769e-57
4.91192e-57
4.94798e-57
4.87573e-57
4.87354e-57
4.90816e-57
4.91559e-57
4.8309e-57
4.95813e-57
4.91884e-57
4.93537e-57
4.93288e-57
4.89247e-57
4.90569e-57
4.83352e-57
4.86782e-57
4.8885e-57
4.8594e-57
4.8709e-57
4.89141e-57
8.90721e-57
8.94869e-57
9.03934e-57
8.88105e-57
8.84071e-57
8.8541e-57
8.91559e-57
8.79671e-57
9.03777e-57
9.00028e-57
9.03269e-57
8.96277e-57
8.95266e-57
8.87415e-57
8.81081e-57
8.86042e-57
8.77804e-57
8.82327e-57
8.86937e-57
8.85756e-57
9.59061e-57
9.63902e-57
9.69712e-57
9.5178e-57
9.54552e-57
9.43466e-57
9.61041e-57
9.5155e-57
9.59587e-57
9.78628e-57
9.67026e-57
9.51717e-57
9.69734e-57
9.61511e-57
9.57797e-57
9.64199e-57
9.3425e-57
9.54406e-57
9.47185e-57
9.46885e-57
1.14836e-56
1.15522e-56
1.15889e-56
1.1593e-56
1.16248e-56
1.17269e-56
1.18345e-56
1.1671e-56
1.1642e-56
1.1495e-56
1.15067e-56
1.15352e-56
1.16456e-56
1.16942e-56
1.15306e-56
1.16078e-56
1.16275e-56
1.15678e-56
1.14699e-56
1.15265e-56
1.2013e-56
1.19304e-56
1.19829e-56
1.21832e-56
1.2122e-56
1.22365e-56
1.20247e-56
1.2276e-56
1.19544e-56
1.18236e-56
1.18357e-56
1.19497e-56
1.19372e-56
1.1811e-56
1.17705e-56
1.18917e-56
1.1748e-56
1.1961e-56
1.18748e-56
1.2041e-56
1.26736e-56
1.26193e-56
1.28066e-56
1.26624e-56
1.26388e-56
1.28631e-56
1.27431e-56
1.29728e-56
1.26884e-56
1.28847e-56
1.27844e-56
1.2828e-56
1.28302e-56
1.29329e-56
1.27914e-56
1.30206e-56
1.27449e-56
1.26014e-56
1.27397e-56
1.26471e-56
1.22711e-56
1.21408e-56
1.20831e-56
1.21135e-56
1.22329e-56
1.23218e-56
1.22838e-56
1.2238e-56
1.20431e-56
1.20907e-56
1.19559e-56
1.22472e-56
1.22849e-56
1.23805e-56
1.23785e-56
1.23036e-56
1.22542e-56
1.23075e-56
1.21907e-56
1.22156e-56
1.16781e-56
1.18705e-56
1.16829e-56
1.19884e-56
1.16511e-56
1.18934e-56
1.17003e-56
1.18841e-56
1.17494e-56
1.18522e-56
1.17677e-56
1.2027e-56
1.17786e-56
1.20661e-56
1.17776e-56
1.18676e-56
1.1913e-56
1.16498e-56
1.19497e-56
1.19417e-56
1.035e-56
1.06323e-56
1.0572e-56
1.04482e-56
1.03795e-56
1.07118e-56
1.05273e-56
1.05942e-56
1.05267e-56
1.03806e-56
1.04675e-56
1.06468e-56
1.04743e-56
1.07759e-56
1.04828e-56
1.06396e-56
1.06494e-56
1.05669e-56
1.06744e-56
1.07257e-56
1.02974e-56
1.03029e-56
1.03277e-56
1.04228e-56
1.04236e-56
1.04295e-56
1.02279e-56
1.04651e-56
1.05327e-56
1.03037e-56
1.04691e-56
1.05452e-56
1.02251e-56
1.05785e-56
1.05405e-56
1.07072e-56
1.04651e-56
1.05272e-56
1.04192e-56
1.06148e-56
6.49906e-57
6.55525e-57
6.55099e-57
6.4838e-57
6.53703e-57
6.52396e-57
6.53377e-57
6.54734e-57
6.48602e-57
6.60163e-57
6.45914e-57
6.60703e-57
6.47188e-57
6.67327e-57
6.48934e-57
6.50103e-57
6.50652e-57
6.63121e-57
6.53966e-57
6.67191e-57
1.60697e-69
1.5936e-69
1.60609e-69
1.58506e-69
1.58542e-69
1.60815e-69
1.60125e-69
1.56625e-69
1.5786e-69
1.62026e-69
1.58906e-69
1.61794e-69
1.59616e-69
1.61989e-69
1.57922e-69
1.62868e-69
1.57565e-69
1.59424e-69
1.58858e-69
1.55219e-69
5.98627e-67
5.93864e-67
5.98432e-67
5.90742e-67
5.90693e-67
5.99264e-67
5.96664e-67
5.83707e-67
5.88295e-67
6.03779e-67
5.92198e-67
6.02824e-67
5.94938e-67
6.03631e-67
5.88578e-67
6.0686e-67
5.87317e-67
5.94184e-67
5.91966e-67
5.78406e-67
1.1171e-64
1.10862e-64
1.11699e-64
1.1029e-64
1.10248e-64
1.11866e-64
1.11375e-64
1.08973e-64