/*--------------------------------*- C++ -*----------------------------------*\
| =========                 |                                                 |
| \\      /  F ield         | OpenFOAM: The Open Source CFD Toolbox           |
|  \\    /   O peration     | Version:  2212                                  |
|   \\  /    A nd           | Website:  www.openfoam.com                      |
|    \\/     M anipulation  |                                                 |
\*---------------------------------------------------------------------------*/
FoamFile
{
    version     2.0;
    format      ascii;
    arch        "LSB;label=32;scalar=64";
    class       volScalarField;
    location    "0.0765";
    object      k;
}
// * * * * * * * * * * * * * * * * * * * * * * * * * * * * * * * * * * * * * //

dimensions      [0 2 -2 0 0 0 0];

internalField   nonuniform List<scalar> 
44662
(
78.5696
253.441
252.642
257.394
255.364
55.2457
124.721
52.1738
218.95
237.038
64.7224
108.364
122.79
182.116
238.842
114.396
160.596
143.508
216.582
145.783
233.4
149.058
211.385
221.739
318.801
211.739
118.232
97.113
116.648
108.422
183.937
195.169
280.659
67.7375
1698.11
223.648
144.685
133.781
216.965
200.026
194.998
156.173
95.4369
214.072
212.969
24.4784
126.064
231.561
232.434
217.567
262.044
114.627
195.666
37.0156
237.746
33.7036
187.803
90.2874
104.851
103.591
59.3183
27.2049
236.801
187.487
237.6
70.4337
67.1829
90.0091
193.009
158.742
31.0033
71.396
186.617
69.8839
150.054
178.138
15.0774
106.819
99.7505
66.1287
29.5832
142.347
229.131
136.635
35.6073
228.276
134.896
330.06
214.92
130.349
117.714
127.403
225.907
18.8034
208.481
207.4
69.8398
204.693
230.713
218.249
111.759
320.217
99.8283
42.7487
119.803
105.623
117.206
33.5479
218.066
118.466
114.635
200.457
316.608
216.659
50.908
111.827
94.8559
234.276
21.3035
108.74
193.491
110.326
94.2789
105.661
108.266
458.387
102.303
105.965
276.14
98.3945
103.488
92.6958
64.8032
99.9044
93.1435
100.977
89.8205
89.3111
86.5234
98.5093
95.9457
79.0503
106.469
98.3471
71.0026
276.777
245.219
245.483
441.752
227.409
202.426
263.746
71.5093
97.9407
382.989
424.645
196.488
111.307
110.952
110.606
110.27
109.943
109.626
109.317
109.016
108.722
108.435
108.155
107.882
107.616
107.356
107.104
106.858
106.619
106.387
106.162
105.943
105.731
105.525
105.327
105.135
104.95
104.772
104.6
104.436
104.278
104.126
103.982
103.844
103.713
103.588
103.471
103.36
103.257
103.161
103.071
102.989
102.914
102.847
102.787
102.734
102.688
102.65
102.62
102.597
102.581
102.75
102.735
102.774
34.0921
111.672
111.317
111.677
102.573
102.574
102.737
102.73
102.845
102.806
102.942
102.89
103.067
103.001
103.219
103.139
103.399
103.306
103.608
103.5
103.848
103.724
104.115
103.978
104.407
104.259
104.722
104.561
105.062
104.888
105.431
105.243
105.828
105.626
106.252
106.037
106.703
106.474
107.181
106.939
107.686
107.43
108.219
107.949
108.781
108.497
109.371
109.073
109.991
109.677
110.645
110.313
110.987
110.624
110.966
109.97
110.292
109.352
109.657
108.766
109.056
108.208
108.483
107.676
107.938
107.172
107.42
106.694
106.929
106.243
106.465
105.819
106.028
105.422
105.617
105.05
105.233
104.704
104.874
104.386
104.542
104.097
104.238
103.836
103.963
103.602
103.716
103.395
103.495
103.215
103.301
103.063
103.136
102.941
102.999
102.849
102.891
102.789
102.815
102.756
102.769
102.751
102.75
103.226
103.214
103.248
25.8827
32.9669
111.373
111.719
102.752
103.231
103.259
103.264
102.759
103.278
112.044
112.043
103.217
103.315
103.279
103.404
103.357
103.516
103.457
103.655
103.582
103.82
103.734
104.014
103.913
104.24
104.123
104.497
104.365
104.772
104.632
105.067
104.917
105.385
105.222
105.734
105.556
106.111
105.919
106.516
106.311
106.948
106.729
107.406
107.174
107.891
107.645
108.403
108.143
108.946
108.671
109.516
109.228
110.115
109.812
110.745
110.426
111.074
116.754
102.583
110.706
111.035
110.075
110.386
109.481
109.774
108.917
109.195
108.38
108.645
107.871
108.122
107.387
107.626
106.93
107.156
106.5
106.712
106.095
106.294
105.716
105.903
105.363
105.537
105.035
105.196
104.734
104.881
104.461
104.594
104.218
104.336
104.001
104.106
103.81
103.902
103.646
103.725
103.51
103.574
103.402
103.452
103.324
103.359
103.278
103.297
103.259
103.265
103.258
112.072
104.084
104.044
104.012
104.01
104.032
102.776
103.299
112.067
112.431
112.416
112.419
104.133
105.199
105.26
112.79
112.796
104.021
104.087
104.057
104.159
104.12
104.252
104.203
104.369
104.307
104.511
104.437
104.682
104.593
104.887
104.78
105.122
105.001
105.372
105.244
105.635
105.502
105.921
105.774
106.238
106.075
106.585
106.408
106.959
106.769
107.359
107.156
107.784
107.568
108.236
108.007
108.716
108.472
109.225
108.967
109.764
109.492
110.327
110.043
110.918
110.619
237.417
111.225
102.776
102.601
103.294
112.831
112.147
112.486
111.49
111.814
110.863
111.172
110.271
110.563
109.713
109.988
109.185
109.445
108.684
108.931
108.208
108.443
107.759
107.98
107.334
107.543
106.935
107.132
106.562
106.746
106.213
106.385
105.89
106.048
105.59
105.737
105.317
105.45
105.071
105.19
104.853
104.959
104.662
104.754
104.496
104.576
104.356
104.423
104.242
104.295
104.156
104.195
104.099
104.124
104.073
104.083
104.073
104.07
104.095
104.081
104.147
104.117
113.166
113.182
112.113
105.146
112.437
104.186
105.327
106.551
106.624
105.283
104.185
105.331
112.801
113.173
113.539
105.097
105.088
105.093
113.539
112.347
112.199
105.11
105.135
105.114
105.187
105.159
105.255
105.219
105.345
105.297
105.458
105.398
105.599
105.525
105.776
105.683
105.982
105.876
106.198
106.09
106.423
106.31
106.667
106.542
106.944
106.801
107.251
107.094
107.585
107.415
107.943
107.761
108.326
108.131
108.734
108.527
109.169
108.948
109.635
109.398
110.13
109.879
110.644
110.385
111.18
110.909
233.849
111.459
412.14
102.802
103.33
102.807
102.626
103.335
113.577
112.923
113.247
112.293
112.605
111.691
111.988
111.118
111.4
110.577
110.843
110.067
110.318
109.586
109.823
109.13
109.355
108.7
108.912
108.294
108.494
107.913
108.101
107.556
107.731
107.223
107.386
106.914
107.065
106.628
106.768
106.366
106.494
106.129
106.245
105.917
106.02
105.732
105.822
105.572
105.649
105.437
105.502
105.326
105.379
105.24
105.28
105.181
105.207
105.149
105.161
105.145
105.144
105.167
105.153
105.212
105.186
105.244
113.9
113.913
112.473
106.488
106.406
106.419
106.403
106.701
104.232
105.386
112.586
112.661
112.866
112.817
113.189
113.562
113.923
114.269
114.255
112.54
106.443
106.421
106.409
106.452
106.435
106.492
106.469
106.553
106.52
106.635
106.591
106.743
106.685
106.887
106.811
107.061
106.972
107.24
107.15
107.42
107.33
107.617
107.515
107.848
107.728
108.11
107.976
108.396
108.25
108.705
108.548
109.037
108.868
109.394
109.213
109.776
109.581
110.189
109.979
110.63
110.406
111.085
110.855
111.555
111.317
112.053
111.8
112.315
102.837
103.369
102.845
102.66
104.244
103.381
106.782
105.397
114.303
113.691
113.994
113.103
113.394
112.54
112.818
112.001
112.267
111.492
111.743
111.01
111.247
110.559
110.781
110.134
110.343
109.734
109.931
109.357
109.542
109.003
109.177
108.671
108.834
108.363
108.514
108.077
108.217
107.814
107.943
107.572
107.69
107.353
107.46
107.156
107.252
106.983
107.067
106.834
106.906
106.709
106.769
106.607
106.656
106.528
106.565
106.472
106.497
106.44
106.453
106.434
106.434
106.453
106.44
106.496
106.472
106.562
106.526
106.652
106.604
106.771
106.708
114.604
114.619
113.155
112.983
112.841
108.071
108.149
108.002
113.202
106.863
108.317
108.404
108.305
106.841
108.379
113.432
113.453
113.695
113.582
113.957
114.312
114.644
114.959
107.92
107.9
107.889
114.941
112.887
108.232
107.951
107.885
107.884
107.895
107.89
107.913
107.903
107.947
107.928
107.999
107.97
108.075
108.033
108.187
108.127
108.327
108.255
108.47
108.398
108.602
108.536
108.751
108.673
108.936
108.84
109.149
109.039
109.384
109.264
109.641
109.51
109.918
109.777
110.217
110.065
110.541
110.376
110.895
110.714
111.275
111.082
111.664
111.469
112.061
111.86
112.483
112.268
112.939
112.706
113.181
104.287
105.449
102.88
103.417
102.89
102.702
104.306
103.433
105.469
115.009
114.447
114.725
113.911
114.175
113.398
113.65
112.908
113.15
112.441
112.671
112.002
112.219
111.589
111.792
111.202
111.392
110.839
111.018
110.499
110.666
110.18
110.337
109.882
110.029
109.605
109.741
109.349
109.474
109.113
109.228
108.897
109.003
108.702
108.797
108.526
108.611
108.372
108.447
108.238
108.302
108.125
108.179
108.034
108.077
107.964
107.996
107.914
107.937
107.886
107.898
107.879
107.88
107.894
107.884
107.932
107.91
107.992
107.96
108.073
108.03
108.177
108.122
108.238
115.269
115.299
113.313
113.215
109.659
109.736
109.59
109.48
109.504
109.463
109.9
109.983
106.919
108.459
113.97
113.761
113.591
113.984
114.36
114.706
115.024
115.319
115.603
115.596
113.244
109.817
109.539
109.449
109.454
109.444
109.445
109.445
109.443
109.458
109.45
109.485
109.469
109.535
109.507
109.618
109.572
109.728
109.672
109.836
109.785
109.927
109.882
110.034
109.977
110.174
110.1
110.34
110.254
110.526
110.431
110.73
110.626
110.953
110.839
111.194
111.071
111.459
111.323
111.75
111.6
112.067
111.906
112.387
112.227
112.708
112.546
113.05
112.876
113.421
113.232
113.827
113.62
114.274
114.045
114.261
114.518
104.351
105.52
102.932
103.474
102.942
102.752
104.373
103.491
106.947
105.545
110.068
108.492
115.69
115.189
115.436
114.712
114.948
114.258
114.482
113.825
114.038
113.413
113.617
113.024
113.215
112.658
112.838
112.316
112.484
111.996
112.153
111.698
111.845
111.419
111.556
111.159
111.287
110.918
111.036
110.694
110.804
110.489
110.59
110.302
110.393
110.132
110.215
109.98
110.054
109.846
109.911
109.729
109.785
109.63
109.677
109.55
109.588
109.487
109.516
109.443
109.463
109.416
109.427
109.408
109.41
109.418
109.411
109.447
109.43
109.495
109.469
109.563
109.527
109.649
109.603
109.754
109.699
109.88
109.814
110.028
109.951
115.895
115.948
113.65
113.596
111.189
111.255
111.131
111.032
111.054
111.016
114.075
113.99
110.154
111.538
111.611
111.487
110.11
111.555
114.848
114.55
114.391
114.765
115.106
115.411
115.686
115.944
116.211
116.2
113.606
111.395
111.466
111.324
111.087
111
111.006
110.992
110.996
110.988
110.99
110.99
110.987
111.005
110.995
111.038
111.019
111.101
111.066
111.188
111.143
111.268
111.23
111.329
111.299
111.403
111.363
111.506
111.451
111.633
111.567
111.775
111.702
111.933
111.852
112.105
112.017
112.293
112.197
112.501
112.395
112.733
112.614
112.988
112.859
113.242
113.116
113.49
113.364
113.754
113.618
114.042
113.895
114.359
114.197
114.713
114.53
115.107
114.905
115.053
115.399
115.257
107.003
108.545
104.423
105.599
102.993
103.539
103.003
102.811
104.446
103.557
107.035
105.627
108.583
116.759
116.337
116.473
116.552
115.909
116.121
115.501
115.702
115.112
115.303
114.742
114.924
114.391
114.563
114.058
114.222
113.745
113.899
113.452
113.596
113.178
113.312
112.924
113.048
112.687
112.804
112.466
112.575
112.262
112.362
112.072
112.165
111.897
111.983
111.738
111.816
111.593
111.663
111.462
111.526
111.346
111.403
111.244
111.293
111.157
111.199
111.084
111.119
111.026
111.053
110.982
111.002
110.953
110.966
110.938
110.944
110.938
110.936
110.953
110.943
110.982
110.966
111.027
111.003
111.088
111.056
111.163
111.124
111.254
111.207
111.362
111.306
111.422
113.993
113.982
112.513
112.555
112.477
112.737
112.785
110.197
111.628
114.396
114.392
114.828
114.801
115.571
115.281
115.178
115.513
115.805
116.06
116.289
116.51
116.732
117.043
116.966
112.426
112.413
112.406
113.973
112.645
112.691
112.599
112.447
112.403
112.403
112.408
112.404
112.412
112.409
112.42
112.415
112.438
112.428
112.471
112.453
112.526
112.496
112.6
112.562
112.667
112.635
112.714
112.691
112.77
112.74
112.85
112.807
112.948
112.898
113.059
113.002
113.18
113.118
113.312
113.244
113.456
113.382
113.616
113.534
113.796
113.703
113.995
113.894
114.192
114.095
114.375
114.285
114.57
114.47
114.787
114.675
115.029
114.904
115.301
115.161
115.602
115.453
115.845
115.726
115.758
116.115
115.974
107.095
108.638
104.503
105.686
103.062
103.612
103.072
102.878
104.526
103.631
107.129
105.715
110.245
108.678
112.834
111.686
116.59
116.76
116.258
116.423
115.939
116.096
115.636
115.785
115.348
115.49
115.074
115.209
114.816
114.943
114.575
114.694
114.348
114.459
114.137
114.241
113.94
114.036
113.757
113.847
113.586
113.67
113.428
113.506
113.28
113.353
113.145
113.211
113.02
113.081
112.906
112.962
112.803
112.853
112.711
112.755
112.629
112.668
112.557
112.592
112.496
112.526
112.446
112.47
112.406
112.425
112.377
112.39
112.357
112.366
112.349
112.352
112.351
112.348
112.364
112.356
112.387
112.374
112.422
112.403
112.468
112.443
112.524
112.494
112.593
112.557
112.673
112.631
112.766
112.718
114.342
114.374
113.454
113.46
113.45
113.459
113.452
113.47
114.718
114.801
112.886
113.51
113.523
113.427
112.816
113.439
115.111
115.219
115.52
115.599
116.265
115.956
115.928
116.207
116.438
116.638
116.819
116.998
117.231
117.182
114.346
113.489
113.499
113.473
113.481
113.466
113.45
113.499
113.483
113.532
113.515
113.565
113.548
113.601
113.582
113.642
113.621
113.692
113.666
113.757
113.722
113.833
113.794
113.904
113.87
113.958
113.931
114.017
113.986
114.091
114.052
114.178
114.134
114.272
114.224
114.372
114.321
114.479
114.425
114.593
114.535
114.718
114.654
114.859
114.786
115.014
114.936
115.165
115.091
115.297
115.232
115.44
115.366
115.598
115.517
115.777
115.685
115.977
115.874
116.184
116.083
116.37
116.278
116.565
116.464
116.422
116.786
116.673
110.29
111.706
107.194
108.737
104.591
105.78
103.14
103.695
103.15
102.955
104.615
103.713
107.228
105.81
110.339
108.778
111.765
117.424
117.54
117.194
117.384
116.939
117.06
116.702
116.821
116.469
116.584
116.245
116.355
116.031
116.137
115.827
115.927
115.635
115.73
115.452
115.542
115.281
115.365
115.121
115.2
114.969
115.044
114.827
114.897
114.693
114.759
114.567
114.629
114.447
114.506
114.335
114.391
114.23
114.282
114.132
114.18
114.04
114.085
113.954
113.996
113.875
113.914
113.802
113.838
113.735
113.767
113.673
113.703
113.618
113.645
113.569
113.593
113.526
113.547
113.488
113.506
113.457
113.472
113.431
113.443
113.412
113.421
113.399
113.404
113.391
113.394
113.39
113.39
113.396
113.392
113.408
113.401
113.417
114.697
114.771
113.832
113.787
113.875
113.993
113.955
114.031
113.524
113.484
112.87
113.453
115.048
115.218
115.401
115.646
115.768
116.027
116.161
116.35
116.904
116.585
116.613
116.821
116.99
117.136
117.266
117.688
117.408
117.609
117.946
117.835
118.053
114.727
113.608
113.566
113.696
113.651
113.741
113.916
114.109
114.07
114.191
114.149
114.276
114.233
114.363
114.319
114.451
114.407
114.54
114.495
114.634
114.586
114.732
114.683
114.825
114.779
114.911
114.869
114.996
114.953
115.087
115.041
115.183
115.135
115.28
115.231
115.379
115.329
115.479
115.429
115.583
115.531
115.691
115.636
115.808
115.749
115.933
115.87
116.051
115.994
116.155
116.104
116.262
116.208
116.38
116.32
116.508
116.443
116.646
116.576
116.785
116.717
116.917
116.852
117.051
116.983
117.198
117.123
117.025
117.356
117.276
110.388
111.787
107.3
108.843
104.687
105.883
103.226
103.786
103.236
103.04
104.712
103.803
107.335
105.912
110.438
108.884
112.941
111.847
113.443
113.537
117.739
117.842
117.523
117.632
117.339
117.425
117.179
117.258
117.021
117.1
116.863
116.941
116.71
116.786
116.562
116.635
116.419
116.489
116.282
116.349
116.15
116.215
116.023
116.086
115.9
115.961
115.782
115.841
115.667
115.724
115.555
115.61
115.445
115.5
115.338
115.392
115.234
115.286
115.131
115.182
115.03
115.08
114.931
114.98
114.834
114.882
114.737
114.785
114.643
114.69
114.549
114.596
114.457
114.503
114.365
114.411
114.275
114.32
114.186
114.23
114.097
114.141
114.01
114.053
113.923
113.967
113.838
113.881
113.754
113.796
113.67
113.712
113.588
113.629
113.506
113.547
113.426
113.466
113.347
113.386
115.062
115.177
113.355
113.463
115.383
115.642
113.404
112.487
112.38
112.376
113.308
112.27
115.698
116.08
116.023
116.462
116.373
116.778
116.754
117.024
117.44
117.152
117.211
117.35
117.453
117.54
225.987
329.218
117.649
117.798
117.985
117.946
183.884
113.752
118.16
113.831
115.116
112.699
112.593
112.913
112.806
113.132
113.022
113.244
113.566
113.664
114.053
113.905
113.978
114.208
114.129
114.367
114.287
114.528
114.448
114.685
114.607
114.838
114.762
114.982
114.911
115.121
115.052
115.26
115.19
115.402
115.331
115.541
115.472
115.673
115.607
115.8
115.737
115.923
115.862
116.042
115.983
116.159
116.101
116.273
116.216
116.385
116.329
116.497
116.441
116.609
116.553
116.714
116.662
116.811
116.763
116.907
116.859
117.004
116.955
117.102
117.053
117.199
117.15
117.295
117.247
117.387
117.342
117.476
117.431
117.567
117.521
117.66
117.613
117.529
117.763
117.709
112.927
113.468
110.492
111.873
107.413
108.955
104.792
105.993
103.322
103.885
103.332
103.134
104.816
103.902
107.448
106.022
110.542
108.996
112.999
111.934
113.552
117.945
118.006
117.82
117.88
117.703
117.761
117.592
117.646
117.485
117.539
117.375
117.43
117.265
117.32
117.153
117.209
117.041
117.097
116.929
116.985
116.817
116.873
116.704
116.761
116.59
116.648
116.475
116.533
116.359
116.417
116.24
116.299
116.119
116.18
115.995
116.057
115.869
115.933
115.74
115.805
115.608
115.675
115.473
115.541
115.335
115.404
115.192
115.264
115.047
115.12
114.898
114.973
114.744
114.821
114.587
114.666
114.426
114.507
114.261
114.344
114.092
114.177
113.919
114.006
113.741
113.83
113.559
113.651
113.373
113.467
113.183
113.278
112.988
113.086
112.789
112.889
112.585
112.687
112.481
115.433
115.592
110.516
110.33
86.9486
113.269
112.163
115.723
116.074
116.001
116.52
116.285
116.903
116.592
117.21
116.928
117.443
117.282
117.606
117.81
117.618
117.711
117.775
117.828
117.899
117.998
118.134
118.267
118.351
116.379
117.925
145.391
115.514
110.882
110.699
111.248
111.065
111.621
111.433
111.999
111.812
112.362
112.187
112.665
112.523
112.916
112.795
113.155
113.034
113.403
113.277
113.66
113.531
113.918
113.789
114.168
114.044
114.406
114.289
114.623
114.518
114.823
114.724
115.031
114.924
115.254
115.141
115.471
115.365
115.668
115.572
115.851
115.761
116.023
115.938
116.187
116.106
116.342
116.266
116.49
116.417
116.628
116.56
116.755
116.693
116.872
116.815
116.985
116.929
117.1
117.043
117.211
117.157
117.313
117.263
117.405
117.36
117.488
117.447
117.565
117.527
117.637
117.602
117.703
117.67
117.763
117.733
117.818
117.791
117.866
117.842
117.65
117.539
117.897
114.764
117.934
112.39
112.987
113.485
110.601
111.964
107.534
109.073
104.906
106.111
103.427
103.994
103.436
103.237
104.929
104.01
107.568
106.139
110.652
109.115
113.06
112.025
113.365
113.57
110.144
112.272
118.025
118.063
117.95
117.985
117.876
117.914
117.796
117.836
117.715
117.756
117.631
117.674
117.54
117.586
117.444
117.493
117.342
117.393
117.233
117.288
117.119
117.177
116.998
117.059
116.871
116.935
116.737
116.805
116.596
116.667
116.448
116.523
116.293
116.371
116.13
116.212
115.96
116.046
115.782
115.872
115.595
115.69
115.401
115.499
115.199
115.301
114.988
115.094
114.768
114.879
114.54
114.656
114.304
114.423
114.058
114.182
113.804
113.932
113.54
113.673
113.267
113.405
112.986
113.128
112.694
112.841
112.394
112.545
112.084
112.24
111.765
111.926
111.436
111.602
111.098
111.268
110.75
110.925
110.391
110.572
110.023
110.208
118.254
115.809
116.015
116.069
116.513
109.955
106.878
106.602
106.745
109.835
106.471
116.31
116.966
116.553
117.349
116.816
117.65
117.107
117.868
117.415
118.005
117.706
118.077
118.106
228.329
118.125
114.621
118.157
118.212
118.375
118.398
118.267
118.464
118.26
118.293
118.246
117.826
117.774
115.918
107.421
107.151
107.957
107.689
108.491
108.223
109.034
108.76
109.588
109.311
110.108
109.858
110.546
110.339
110.913
110.735
111.261
111.087
111.622
111.439
111.998
111.808
112.373
112.186
112.737
112.557
113.08
112.912
113.388
113.239
113.668
113.528
113.965
113.811
114.293
114.126
114.612
114.457
114.897
114.759
115.157
115.029
115.4
115.28
115.63
115.517
115.848
115.741
116.051
115.951
116.237
116.147
116.399
116.321
116.541
116.471
116.682
116.609
116.84
116.76
116.994
116.919
117.127
117.063
117.237
117.184
117.331
117.286
117.415
117.374
117.49
117.453
117.555
117.523
117.61
117.583
117.655
117.634
117.69
117.673
117.699
117.72
112.554
113.23
112.055
113.051
113.504
110.716
112.059
107.662
109.198
105.029
106.238
103.541
104.112
103.549
103.349
105.05
104.127
107.696
106.265
110.766
109.24
113.123
112.12
113.326
113.589
112.163
117.91
117.898
117.858
117.899
117.792
117.822
117.74
117.766
117.681
117.713
117.613
117.649
117.537
117.575
117.453
117.496
117.36
117.408
117.255
117.309
117.14
117.199
117.012
117.077
116.873
116.944
116.721
116.798
116.558
116.641
116.383
116.472
116.196
116.291
115.997
116.098
115.785
115.893
115.562
115.675
115.325
115.445
115.076
115.202
114.814
114.947
114.54
114.679
114.252
114.397
113.951
114.103
113.637
113.796
113.31
113.475
112.969
113.141
112.615
112.794
112.247
112.433
111.866
112.058
111.471
111.67
111.062
111.268
110.639
110.852
110.202
110.422
109.751
109.978
109.286
109.52
108.807
109.048
108.314
108.562
107.806
108.061
107.283
107.546
107.016
116.191
116.444
117.866
102.431
102.066
109.644
106.193
116.421
116.957
116.626
117.419
116.829
117.803
117.047
118.098
117.29
118.297
117.728
118.241
117.552
118.409
117.796
118.449
117.988
118.447
118.489
118.077
118.431
118.579
310.858
118.422
8.80515
118.426
118.459
117.692
116.814
116.745
116.327
103.15
102.792
103.861
103.506
104.571
104.215
105.294
104.929
106.028
105.662
106.711
106.384
107.289
107.012
107.787
107.545
108.26
108.022
108.751
108.5
109.26
109.003
109.768
109.515
110.259
110.016
110.723
110.496
111.136
110.937
111.512
111.326
111.915
111.708
112.368
112.137
112.806
112.593
113.197
113.008
113.552
113.378
113.886
113.722
114.202
114.046
114.5
114.353
114.779
114.642
115.033
114.91
115.246
115.145
115.429
115.34
115.62
115.519
115.844
115.728
116.066
115.958
116.254
116.166
116.407
116.334
116.536
116.474
116.648
116.594
116.747
116.699
116.833
116.792
116.903
116.87
116.959
116.932
117.012
116.984
117.014
117.032
116.898
113.191
111.945
113.117
113.524
110.837
112.158
107.799
109.331
105.16
106.373
103.665
104.239
103.672
103.471
105.18
104.253
107.831
106.399
110.887
109.371
113.19
112.219
113.288
113.609
109.764
112.054
101.697
106.323
116.989
116.893
117.183
117.1
117.142
117.166
117.05
117.086
116.995
117.024
116.932
116.966
116.851
116.892
116.759
116.806
116.654
116.708
116.534
116.596
116.399
116.469
116.247
116.325
116.079
116.165
115.893
115.988
115.69
115.794
115.471
115.583
115.234
115.355
114.981
115.11
114.711
114.848
114.423
114.569
114.119
114.273
113.798
113.961
113.459
113.631
113.104
113.284
112.731
112.919
112.341
112.538
111.933
112.139
111.508
111.723
111.065
111.289
110.605
110.837
110.127
110.368
109.632
109.882
109.118
109.377
108.587
108.855
108.038
108.315
107.471
107.757
106.886
107.181
106.283
106.587
105.663
105.975
105.024
105.346
104.367
104.698
103.692
104.032
102.999
103.348
102.287
102.645
101.557
101.924
116.578
116.878
116.779
117.408
101.324
95.9189
95.459
95.77
101.185
95.3119
116.949
117.879
117.111
118.266
116.691
117.669
117.284
118.552
118.243
117.48
118.734
117.692
118.82
117.895
118.83
118.531
118.049
118.796
118.638
118.063
118.741
118.686
169.897
231.632
118.687
118.642
118.638
116.655
115.143
115.09
116.743
96.8256
96.3746
97.716
97.2723
98.5983
98.1565
99.4817
99.04
100.379
99.9274
101.289
100.835
102.13
101.726
102.857
102.507
103.493
103.183
104.098
103.794
104.726
104.406
105.376
105.049
106.022
105.701
106.649
106.339
107.242
106.951
107.772
107.515
108.258
108.017
108.779
108.505
109.365
109.066
109.932
109.655
110.44
110.194
110.904
110.676
111.342
111.126
111.758
111.553
112.152
111.958
112.522
112.34
112.857
112.695
113.137
113.005
113.374
113.26
113.628
113.494
113.94
113.778
114.252
114.1
114.516
114.391
114.731
114.628
114.913
114.825
115.073
114.996
115.216
115.147
115.34
115.28
115.444
115.394
115.53
115.488
115.617
115.572
115.621
115.636
115.365
115.505
115.133
115.243
114.907
115.033
109.451
105.912
113.153
111.835
113.187
113.547
110.963
112.262
107.942
109.47
105.301
106.517
103.798
104.375
103.803
103.602
105.319
104.387
107.974
106.541
111.013
109.51
113.26
112.323
113.25
113.632
109.57
111.943
106.041
115.307
115.214
115.529
115.411
115.732
115.646
115.721
115.743
115.601
115.657
115.523
115.56
115.432
115.481
115.319
115.377
115.191
115.256
115.045
115.12
114.88
114.965
114.694
114.79
114.487
114.593
114.259
114.375
114.009
114.137
113.737
113.876
113.444
113.593
113.13
113.289
112.794
112.965
112.437
112.618
112.059
112.251
111.66
111.862
111.24
111.452
110.798
111.022
110.336
110.57
109.852
110.097
109.348
109.603
108.822
109.088
108.276
108.552
107.708
107.994
107.119
107.416
106.509
106.816
105.878
106.196
105.226
105.554
104.552
104.892
103.858
104.208
103.143
103.503
102.406
102.777
101.649
102.03
100.871
101.263
100.073
100.475
99.2534
99.6657
98.4133
98.836
97.5527
97.9856
96.6714
97.1146
96.2232
116.972
117.319
89.1001
88.5626
112.716
108.745
100.809
94.8488
117.145
117.867
115.062
116.64
117.28
118.348
117.661
117.4
118.735
118.259
117.527
119.012
117.673
119.178
117.834
119.238
118.572
117.985
119.22
118.721
118.1
119.15
118.792
118.082
119.053
9.38815
118.95
118.864
118.838
116.274
108.947
117.164
90.1615
89.6328
91.2065
90.6864
92.2465
91.7263
93.2891
92.7666
94.3463
93.8144
95.4193
94.8847
96.4101
95.9287
97.2848
96.8612
98.0475
97.6718
98.7818
98.4149
99.5459
99.1611
100.336
99.9398
101.12
100.73
101.881
101.504
102.603
102.249
103.257
102.939
103.855
103.561
104.498
104.164
105.221
104.856
105.92
105.577
106.548
106.242
107.127
106.842
107.676
107.405
108.199
107.94
108.697
108.451
109.167
108.936
109.593
109.387
109.949
109.781
110.25
110.104
110.576
110.402
110.99
110.776
111.405
111.202
111.761
111.591
112.051
111.912
112.302
112.181
112.525
112.416
112.725
112.627
112.901
112.816
113.052
112.979
113.18
113.118
113.294
113.241
113.325
113.321
113.144
113.252
112.939
113.034
112.853
109.256
105.627
113.115
111.723
113.26
113.571
111.095
112.371
108.094
109.616
105.45
106.669
103.94
104.521
103.945
103.743
105.466
104.532
108.124
106.691
111.145
109.655
113.333
112.431
113.213
113.656
109.375
111.831
100.947
105.755
88.0203
94.9942
104.885
104.655
113.05
112.892
115.062
112.769
112.795
112.852
112.797
113.018
112.929
113.24
113.129
113.384
113.332
113.395
113.398
113.27
113.333
113.139
113.195
113.007
113.077
112.845
112.929
112.667
112.758
112.465
112.568
112.239
112.355
111.987
112.116
111.711
111.852
111.409
111.563
111.082
111.249
110.729
110.908
110.35
110.542
109.947
110.152
109.519
109.736
109.066
109.295
108.588
108.83
108.086
108.34
107.559
107.825
107.008
107.286
106.433
106.723
105.833
106.136
105.21
105.524
104.562
104.889
103.891
104.229
103.195
103.546
102.476
102.839
101.734
102.108
100.968
101.354
100.178
100.576
99.3654
99.7748
98.5295
98.9504
97.6706
98.1029
96.7888
97.2325
95.8846
96.3395
94.9579
95.424
94.0092
94.4863
93.0386
93.5266
92.0463
92.5451
91.0327
91.5422
89.9978
90.5179
88.9426
89.4728
87.8676
88.4075
109.931
115.114
117.373
117.766
116.635
117.517
118.332
87.4741
80.2211
79.6133
80.0611
87.3229
79.456
117.662
117.617
118.824
118.281
117.697
119.21
117.777
119.479
117.872
119.628
118.626
117.983
119.665
118.808
118.105
119.615
118.919
118.163
119.507
118.105
119.367
8.77128
119.222
119.022
119.106
117.246
116.171
112.222
114.487
110.075
112.989
115.174
112.058
47.7021
117.592
81.4243
80.8247
82.6107
82.0196
83.7847
83.199
84.9541
84.3708
86.1297
85.5403
87.3241
86.7234
88.5292
87.9321
89.6672
89.1109
90.6619
90.1798
91.5418
91.1068
92.3967
91.965
93.2856
92.8381
94.2003
93.742
95.1106
94.6576
95.9971
95.5575
96.8422
96.4262
97.6154
97.238
98.3308
97.9754
99.094
98.6977
99.9395
99.5145
100.76
100.358
101.504
101.141
102.196
101.855
102.855
102.529
103.485
103.173
104.089
103.791
104.661
104.379
105.182
104.928
105.616
105.41
105.983
105.804
106.387
106.17
106.905
106.637
107.431
107.173
107.887
107.671
108.261
108.081
108.588
108.429
108.882
108.739
109.148
109.018
109.385
109.27
109.592
109.492
109.769
109.684
109.915
109.847
109.967
109.953
109.884
109.947
109.778
109.831
109.621
109.716
109.32
109.474
109.132
100.429
94.381
109.058
105.338
113.078
111.61
113.336
113.596
111.234
112.484
108.254
109.769
105.608
106.829
104.092
104.676
104.097
103.894
105.623
104.685
108.283
106.851
111.283
109.807
113.409
112.545
113.175
113.682
109.177
111.718
100.565
105.466
94.5253
109.659
109.734
109.683
109.656
109.811
109.746
109.961
109.893
110.036
110.013
110.034
110.035
109.882
109.962
109.704
109.791
109.521
109.618
109.304
109.415
109.06
109.183
108.793
108.93
108.497
108.649
108.172
108.338
107.818
107.999
107.435
107.63
107.024
107.233
106.584
106.808
106.115
106.353
105.619
105.87
105.095
105.36
104.543
104.822
103.964
104.257
103.357
103.664
102.724
103.044
102.064
102.397
101.377
101.724
100.664
101.024
99.9248
100.298
99.1598
99.5455
98.3689
98.7675
97.5526
97.9639
96.711
97.135
95.8443
96.2807
94.9527
95.4015
94.0365
94.4977
93.0961
93.5693
92.1316
92.6168
91.1435
91.6405
90.1321
90.6407
89.0978
89.6177
88.0412
88.5723
86.9626
87.5046
85.8626
86.4153
84.7416
85.3047
83.6002
84.1734
82.4389
83.0219
81.2588
81.8512
80.6623
116.658
117.781
118.221
48.4747
71.8559
71.2087
86.7739
78.8472
117.674
117.897
118.806
118.313
117.962
119.305
118
119.693
118.033
119.953
118.687
118.082
120.085
118.906
118.155
120.098
119.059
118.216
120.017
118.227
119.87
118.132
119.691
119.207
119.514
117.826
117.186
119.362
116.076
114.359
109.78
105.743
105.502
204.647
289.071
111.902
109.605
112.85
115.148
116.684
118.028
73.1409
72.5
74.4133
73.7786
75.6785
75.0461
76.942
76.3104
78.212
77.5739
79.5111
78.8568
80.8213
80.1708
82.0639
81.464
83.1612
82.6376
84.1326
83.6528
85.0906
84.6065
86.0798
85.5781
87.1023
86.5892
88.1193
87.6128
89.1126
88.6196
90.0645
89.595
90.9472
90.5168
91.7758
91.3639
92.6467
92.1971
93.5931
93.1153
94.5166
94.0644
95.3641
94.9499
96.1577
95.7661
96.9172
96.541
97.648
97.2861
98.3496
98.0025
99.0182
98.6887
99.6298
99.3331
100.138
99.8987
100.57
100.358
101.047