/*--------------------------------*- C++ -*----------------------------------*\
| =========                 |                                                 |
| \\      /  F ield         | OpenFOAM: The Open Source CFD Toolbox           |
|  \\    /   O peration     | Version:  2212                                  |
|   \\  /    A nd           | Website:  www.openfoam.com                      |
|    \\/     M anipulation  |                                                 |
\*---------------------------------------------------------------------------*/
FoamFile
{
    version     2.0;
    format      ascii;
    arch        "LSB;label=32;scalar=64";
    class       surfaceScalarField;
    location    "0.0318";
    object      phi;
}
// * * * * * * * * * * * * * * * * * * * * * * * * * * * * * * * * * * * * * //

dimensions      [1 0 -1 0 0 0 0];

oriented        oriented;

internalField   nonuniform List<scalar> 
62761
(
2.79181e-05
-0.000231248
1.66537e-05
0.000186676
-1.44027e-05
-0.000175628
0.000176316
1.38758e-05
1.61396e-05
-0.000182559
0.000182332
-1.5754e-05
-0.000178867
0.000180763
-1.24864e-05
-0.00017547
1.24885e-05
1.24136e-05
-0.000183147
-1.16695e-05
-0.000178782
-1.12614e-05
1.04701e-05
-0.000174516
1.13986e-05
-1.1181e-05
-0.000183207
-0.000178484
-0.000290526
-5.71396e-05
6.6594e-05
0.000281072
-7.06553e-05
-0.000136252
9.39949e-05
0.000113033
6.48546e-05
-7.84251e-05
1.35705e-05
0.000252591
-2.5035e-05
-0.000310977
8.3421e-05
0.000174325
-1.49926e-05
-0.000197934
3.86009e-05
0.000224009
-0.000170837
-0.000102845
4.96729e-05
0.000152108
-8.885e-05
-0.000184968
0.00012171
-0.000208792
0.00020919
-5.20947e-05
5.16973e-05
0.000178846
3.73428e-05
-0.000207636
-8.39301e-06
0.00023267
-6.22649e-06
2.32103e-06
-0.000228765
0.000200367
-0.00014983
-1.28806e-06
-4.91802e-05
1.12989e-05
0.000210703
-2.15478e-05
-1.66001e-06
-0.000301997
0.000303517
1.41051e-07
-0.000221123
0.000293246
8.27357e-05
-0.000154858
0.000155039
-4.86586e-05
-0.000175315
6.90832e-05
-0.000129421
-7.2445e-05
5.20921e-05
-0.000284923
-3.27739e-06
0.000286541
0.00028571
9.91903e-05
-0.000322261
-6.26393e-05
0.000127705
-8.3058e-05
-0.000115222
-0.000108098
0.00012616
8.86886e-05
-0.000106712
0.000274468
3.41622e-05
-2.18166e-05
-0.000286813
3.57923e-06
-2.55247e-05
-3.26453e-06
2.5322e-05
1.93604e-06
-3.28115e-05
3.45604e-05
-9.407e-05
-0.000195259
0.000214748
7.47818e-05
-1.20217e-05
0.000199886
-0.000185212
-2.55653e-06
0.000189343
-0.000181149
0.000160996
-0.000169189
-0.000145657
-8.45631e-05
0.000108758
0.000121552
0.000322982
0.000102031
-0.00023567
0.000243638
-0.000222363
0.000120781
-0.000142055
2.47673e-05
-5.59199e-05
4.99537e-05
-1.86782e-05
8.38401e-05
-8.11913e-05
-4.36252e-06
1.84089e-06
-0.000173145
1.72406e-05
0.000174659
-1.85919e-05
5.7871e-05
-7.99485e-05
0.000235175
-0.000213097
-0.000158083
0.000150787
0.000138692
-0.000131393
0.00012322
-0.000151198
-0.000125145
0.000153125
-0.000102662
0.000114833
-0.000111616
9.95169e-05
0.000128695
-0.000163556
-0.000201258
0.000112282
-6.43001e-05
0.000153315
-0.000167877
0.000100427
-7.80984e-05
-0.000296115
7.69888e-05
-4.32931e-05
0.00026242
-3.56086e-05
3.84791e-05
-0.000118966
0.00011621
-0.000370723
-7.27459e-05
0.000141386
0.000302084
0.00010258
0.000100938
-0.000135587
-6.78818e-05
-0.000183471
0.000206201
-1.57333e-05
-6.93389e-06
0.000107649
-0.00026762
-0.000140175
0.000300146
-8.27008e-05
-0.000157988
0.000160379
8.04696e-05
0.000100944
-9.45247e-05
0.000117386
-0.000123746
6.98021e-05
-0.000109507
0.000160795
-0.000121063
-0.000243644
-2.33118e-05
3.24752e-05
0.000234149
0.000171234
-0.000164946
-7.86177e-06
1.75422e-06
-2.08556e-05
-0.000144621
-3.21971e-05
0.000197804
-0.000162856
0.000154369
0.000140472
-0.000131792
0.000154818
-8.97281e-05
-0.000170286
0.000105199
6.32433e-05
0.00018106
-0.000135486
-0.000108613
-8.43836e-05
0.000167572
-0.000168293
8.52005e-05
-2.10354e-05
0.000306881
1.0996e-05
-0.000296841
-0.000146944
0.000172537
5.01453e-05
-7.57382e-05
-0.000245069
-6.81995e-06
7.90916e-06
-0.000242069
6.59745e-06
-9.92039e-06
2.46661e-05
-3.42893e-05
-0.00023274
-0.00014585
-6.01903e-05
0.000156563
4.96338e-05
-0.000240511
-2.4594e-05
3.66857e-05
0.000228146
-0.000243033
-9.51567e-06
1.1781e-05
-0.000244324
-3.94154e-06
4.99113e-06
-0.000244612
-1.96006e-06
2.01879e-06
-0.000244114
-1.59701e-06
8.79756e-07
-0.000243224
-1.59304e-06
4.88485e-07
-0.000242817
-1.79798e-06
1.17697e-06
-0.000242223
-2.50195e-06
1.70907e-06
-0.000241776
-2.93305e-06
2.39778e-06
-0.000241402
-3.91574e-06
3.52035e-06
-0.000241246
-4.69451e-06
4.55654e-06
-0.000240035
-5.47471e-06
4.64152e-06
-5.59668e-06
-0.000238946
5.43331e-06
0.000241802
-0.000240545
-5.84048e-06
0.000241902
-5.17344e-06
0.000241923
-4.67737e-06
0.000242067
-4.05667e-06
0.000242516
-3.44618e-06
0.000242987
-3.15558e-06
0.000243579
-2.59692e-06
0.000244234
-2.45564e-06
0.000244859
-2.43573e-06
0.000245901
-3.22625e-06
0.000246071
-4.3476e-06
0.000245164
-8.8546e-06
0.000235612
-1.52872e-05
0.000232608
-1.93876e-06
4.70544e-06
0.000246513
1.04977e-05
0.000249154
3.6557e-06
0.000247698
-5.67443e-06
0.00023591
-1.18183e-05
0.000235487
-3.42598e-07
4.84376e-07
2.81802e-05
0.000246169
-4.01946e-05
-0.000234502
0.000249627
1.37328e-05
1.14792e-05
0.0002496
-1.52635e-05
0.000251791
8.97533e-06
4.95231e-06
0.000250886
-6.59431e-06
0.000252186
4.20762e-06
1.9016e-06
0.000251461
-2.83595e-06
0.000252079
1.65335e-06
9.77134e-07
0.000251357
-1.23422e-06
0.000251695
1.00306e-06
5.96976e-07
0.000250936
-5.36479e-07
0.000251245
6.90592e-07
4.1513e-07
0.000250346
-1.82922e-07
0.000250614
6.90301e-07
1.26181e-07
0.000249731
1.34858e-07
0.000249817
5.70833e-07
1.33384e-07
0.000248941
3.05702e-07
0.00024896
6.42476e-07
2.2097e-07
0.000247944
4.31311e-07
0.000247997
8.41725e-07
1.49194e-07
0.000246929
5.28369e-07
0.000247012
7.97143e-07
1.77072e-07
0.000245882
5.38831e-07
0.000245932
9.28001e-07
2.24525e-07
0.000244713
6.21272e-07
0.00024479
1.04432e-06
1.50308e-07
0.000243543
7.04934e-07
0.000243463
1.16307e-06
2.53455e-07
0.000242286
6.97315e-07
0.000242209
1.20271e-06
3.55329e-07
0.000240924
7.0962e-07
0.000240915
1.35299e-06
3.60532e-07
0.000239547
7.29488e-07
0.000239579
1.40919e-06
3.40493e-07
0.000238162
7.65345e-07
0.000238148
1.49293e-06
3.4058e-07
0.000236762
7.90849e-07
0.000236708
1.51265e-06
3.60108e-07
0.000235322
8.20238e-07
0.000235298
1.50973e-06
3.47106e-07
0.000233879
8.45404e-07
0.000233843
1.55233e-06
3.60927e-07
0.000232413
8.64752e-07
0.000232399
1.56489e-06
3.38587e-07
0.000230954
8.89379e-07
0.000230921
1.58581e-06
3.59762e-07
0.000229526
8.45985e-07
0.000229443
1.6166e-06
3.98458e-07
0.000228082
8.34109e-07
0.000228028
1.60174e-06
4.07271e-07
0.00022662
8.52867e-07
0.000226593
1.64029e-06
3.93094e-07
0.000225209
8.25095e-07
0.000225168
1.62583e-06
4.19044e-07
0.000223791
8.16205e-07
0.000223792
1.61246e-06
4.07405e-07
0.000222406
8.03232e-07
0.000222391
1.63541e-06
4.23268e-07
0.000221054
7.65419e-07
0.000221062
1.5887e-06
4.50629e-07
0.000219729
7.19138e-07
0.000219713
1.64494e-06
4.95883e-07
0.000218412
6.75963e-07
0.000218416
1.64824e-06
5.50516e-07
0.000217138
5.88481e-07
0.000217176
1.65525e-06
-6.12291e-07
1.69009e-06
0.000215973
4.90698e-07
0.000215908
-0.000217134
0.000215893
1.60598e-06
-0.000218417
1.73539e-06
-0.000219731
1.84497e-06
-0.000221074
1.90812e-06
-0.000222435
1.9626e-06
-0.00022382
2.01501e-06
-0.000225219
2.03252e-06
-0.000226651
2.06496e-06
-0.000228067
2.06645e-06
-0.000229538
2.09374e-06
-0.000231028
2.11459e-06
-0.000232456
2.08744e-06
-0.000233926
2.09385e-06
-0.00023537
2.03992e-06
-0.0002368
1.99075e-06
-0.000238252
1.97375e-06
-0.000239669
1.90435e-06
-0.000241022
1.79431e-06
-0.000242336
1.72771e-06
-0.000243566
1.62117e-06
-0.000244713
1.5369e-06
-0.000245851
1.43576e-06
-0.000246988
1.34393e-06
-0.000248019
1.22115e-06
-0.000248912
9.78059e-07
-0.000249763
8.05604e-07
-0.000250341
3.56419e-07
-0.000250878
-4.46196e-09
-0.000251207
-5.70346e-07
-0.00025121
-1.59443e-06
-0.000250927
-3.4821e-06
-0.000250498
-7.38923e-06
-0.000253956
-1.21782e-05
-0.000279498
-1.50542e-05
-0.000253215
5.80111e-06
-0.000248178
2.5104e-06
-0.000251702
-6.7432e-06
-0.000276222
-1.01089e-05
-0.000249704
9.84291e-06
-0.000245951
7.75234e-06
-0.000245159
3.94651e-06
-0.000244305
9.28747e-07
-0.000243529
-1.18757e-07
-0.000243032
-2.26533e-07
-0.000242404
3.29119e-07
-0.000241743
8.36291e-07
6.39415e-06
-0.000238146
-6.80715e-06
-0.000237677
7.01887e-06
-0.000241576
2.13488e-06
-0.000241458
3.378e-06
-0.000240488
3.6036e-06
-0.00023933
3.80155e-06
-0.00023827
5.24192e-06
-7.15999e-06
5.88616e-06
-0.000233512
-7.67848e-06
-0.000234681
0.000238473
-0.00023429
-8.81098e-06
0.000240832
-7.02847e-06
0.000241986
-5.88088e-06
0.000242317
-5.06605e-06
0.000242461
-4.76875e-06
0.000242681
-4.26313e-06
0.0002431
-3.92084e-06
0.000243537
-3.76533e-06
0.000244337
-3.59584e-06
0.000244976
-3.29748e-06
0.00024574
-3.41017e-06
0.000246189
-3.89659e-06
0.000246859
-5.25056e-06
0.000245285
-7.52578e-06
0.000239459
-9.71576e-06
0.000241146
-3.88852e-06
0.000246443
4.92418e-06
0.000249027
7.76802e-07
0.000247282
-4.23597e-06
0.000242868
-7.71279e-06
0.000242781
-5.67837e-07
0.000248979
7.21122e-06
0.000251986
5.62975e-06
0.000252651
3.19477e-06
0.00025234
1.61138e-06
0.000252178
8.106e-07
0.000251578
9.35304e-07
0.000250847
1.06896e-06
0.000250094
9.73648e-07
0.00024921
1.18053e-06
0.00024829
1.42047e-06
0.00024712
1.6331e-06
0.000246025
1.69483e-06
0.000244778
1.97107e-06
0.000243557
2.07098e-06
0.000242196
2.26002e-06
0.000240894
2.36035e-06
0.00023954
2.47665e-06
0.000238174
2.58212e-06
0.000236739
2.6806e-06
0.000235295
2.69558e-06
0.000233822
2.77669e-06
0.000232356
2.79137e-06
0.000230891
2.82049e-06
0.000229453
2.83465e-06
0.000228021
2.82349e-06
0.000226589
2.87063e-06
0.000225194
2.83035e-06
0.000223789
2.83534e-06
0.000222447
2.80564e-06
0.000221057
2.81524e-06
0.000219756
2.79314e-06
0.000218503
2.75766e-06
0.000217247
2.77739e-06
0.000216066
2.74683e-06
-1.65176e-06
2.68631e-06
0.000214916
-6.36682e-07
0.000214842
3.96164e-07
0.000214759
1.46901e-06
0.000214704
-0.000215962
0.000214732
2.58288e-06
-0.000217186
2.70517e-06
-0.000218481
2.89603e-06
-0.000219787
3.00709e-06
-0.000221103
3.07105e-06
-0.000222472
3.16781e-06
-0.000223837
3.20751e-06
-0.000225274
3.28753e-06
-0.000226675
3.27485e-06
-0.00022812
3.31045e-06
-0.000229566
3.32948e-06
-0.00023105
3.37912e-06
-0.000232508
3.31586e-06
-0.000233941
3.28777e-06
-0.000235383
3.23359e-06
-0.000236862
3.21124e-06
-0.000238299
3.14333e-06
-0.000239662
2.98979e-06
-0.000241011
2.85669e-06
-0.000242317
2.73824e-06
-0.000243587
2.58593e-06
-0.000244801
2.43576e-06
-0.000246005
2.31704e-06
-0.000247115
2.12289e-06
-0.000248108
1.87491e-06
-0.000248987
1.51134e-06
-0.000249792
1.25796e-06
-0.000250516
7.22523e-07
-0.000251032
1.47608e-07
-0.000251196
-7.70908e-07
-0.000251312
-1.84491e-06
-0.000251578
-3.58384e-06
-0.000253575
-5.76446e-06
-0.00025769
-8.43917e-06
-0.000264287
-8.83623e-06
-0.00025784
-1.0217e-06
-0.000254049
-1.6395e-06
-0.000256336
-4.80066e-06
-0.00026165
-5.12518e-06
-0.000253627
1.51107e-06
-0.000249075
2.91885e-06
-0.000246904
1.51609e-06
-0.000245677
-5.38912e-07
-0.000244904
-1.11731e-06
-0.000243074
-2.27157e-06
-0.000242476
-4.83125e-07
-0.000242462
6.14162e-07
-0.000242333
1.90125e-06
-0.000241217
2.22382e-06
-0.000233946
4.54306e-06
-0.000240179
2.56788e-06
-0.000239055
2.98641e-06
-0.000236774
3.84231e-06
8.77205e-06
-0.000229094
-1.1063e-05
6.64734e-06
-0.000229604
6.05871e-06
-0.000231228
4.29533e-06
-0.000228182
-1.25188e-05
9.79688e-06
-0.000224506
0.000227912
-0.000222871
-1.58256e-05
0.000233047
-1.33647e-05
0.000237635
-1.02065e-05
0.000240519
-7.57204e-06
0.000241952
-6.07115e-06
0.000242657
-5.27552e-06
0.000242843
-4.88697e-06
0.000243235
-4.63323e-06
0.000243727
-4.46618e-06
0.000244202
-4.41469e-06
0.000244805
-4.39756e-06
0.000245632
-4.32907e-06
0.000246428
-4.41757e-06
0.000247135
-4.82406e-06
0.000247265
-5.61305e-06
0.000246206
-6.71551e-06
0.000244174
-7.94686e-06
0.000243712
-3.69974e-06
0.000247541
8.10364e-07
0.000249261
-1.24346e-06
0.000248478
-3.76451e-06
0.000245887
-5.43939e-06
0.000246498
-1.50242e-06
0.000249819
3.55594e-06
0.000252042
3.06311e-06
0.00025283
2.05765e-06
0.000252809
1.27926e-06
0.000252278
9.88494e-07
0.000251783
1.07649e-06
0.000251208
1.29331e-06
0.000250293
1.53905e-06
0.000249385
1.74529e-06
0.00024828
2.1869e-06
0.000247217
2.3644e-06
0.000246001
2.58512e-06
0.000244857
2.79723e-06
0.000243577
3.04032e-06
0.000242303
3.23188e-06
0.000240895
3.47509e-06
0.000239535
3.55322e-06
0.000238129
3.71328e-06
0.000236707
3.83635e-06
0.000235248
3.89833e-06
0.000233808
3.97027e-06
0.000232334
4.02714e-06
0.000230899
4.02749e-06
0.000229432
4.08368e-06
0.000227978
4.06923e-06
0.000226583
4.06549e-06
0.000225173
4.05037e-06
0.000223802
4.02689e-06
0.000222433
4.00385e-06
0.000221125
3.96254e-06
0.000219821
3.94461e-06
0.00021854
3.89796e-06
0.000217325
3.85922e-06
0.000216169
3.78058e-06
0.000215023
3.71815e-06
-2.62632e-06
3.55386e-06
0.000213992
-1.64173e-06
0.000213826
-6.17847e-07
0.000213712
4.16638e-07
0.000213618
1.38293e-06
0.000213631
2.43332e-06
0.000213576
-0.000214754
0.000213609
3.47433e-06
-0.000215985
3.69928e-06
-0.00021726
3.85686e-06
-0.000218502
4.00409e-06
-0.000219808
4.1707e-06
-0.000221147
4.25826e-06
-0.000222484
4.34328e-06
-0.000223884
4.43675e-06
-0.000225253
4.47628e-06
-0.000226677
4.50874e-06
-0.000228137
4.57146e-06
-0.000229579
4.56283e-06
-0.000231027
4.60985e-06
-0.000232494
4.55548e-06
-0.000233929
4.48499e-06
-0.000235404
4.46289e-06
-0.000236828
4.37865e-06
-0.000238227
4.27658e-06
-0.000239602
4.08977e-06
-0.000241029
3.99865e-06
-0.000242337
3.75158e-06
-0.000243629
3.57438e-06
-0.000244915
3.40843e-06
-0.000246107
3.1872e-06
-0.000247183
2.86869e-06
-0.000248165
2.51966e-06
-0.000249059
2.05896e-06
-0.000249919
1.76723e-06
-0.000250547
9.92693e-07
-0.000251047
2.85147e-07
-0.0002515
-6.83286e-07
-0.000251987
-1.72691e-06
-0.000252919
-3.02373e-06
-0.000254398
-4.6598e-06
-0.000257042
-6.1684e-06
-0.000259363
-6.88722e-06
-0.000257677
-3.07571e-06
-0.000256139
-3.53298e-06
-0.000256685
-4.59551e-06
-0.000257407
-4.72857e-06
-0.000254357
-1.84486e-06
-0.00025105
-6.7434e-07
-0.000248447
-1.35049e-06
-0.000246956
-2.27444e-06
-0.000244789
-3.51165e-06
-0.000244618
-2.65878e-06
-0.000244083
-1.23213e-06
-0.00024367
-5.07247e-09
-0.000242293
4.13658e-07
-0.000240934
8.16397e-07
-0.000239882
1.50618e-06
-0.000234148
3.7947e-06
-0.00023861
2.03448e-06
-0.000236234
2.37063e-06
6.75382e-06
-0.000224594
1.33951e-05
-0.000217921
-1.72745e-05
9.61467e-06
-0.00021959
3.11213e-06
-0.000228269
3.37338e-06
-0.000227266
4.17292e-06
-0.000223574
-1.7718e-05
1.37871e-05
-0.000213214
0.000215561
-0.000210787
-2.17487e-05
0.000220193
-2.09116e-05
0.000225221
-1.92808e-05
0.000230836
-1.62736e-05
0.00023617
-1.21929e-05
0.000239781
-8.57883e-06
0.000241612
-6.48014e-06
0.000242517
-5.60475e-06
0.000243042
-5.31524e-06
0.000243595
-5.14774e-06
0.000244164
-5.08486e-06
0.000244714
-5.14462e-06
0.000245393
-5.27923e-06
0.000246258
-5.40264e-06
0.000246973
-5.3456e-06
0.000247624
-5.70055e-06
0.000247932
-6.15934e-06
0.000247621
-6.65749e-06
0.000246478
-7.07287e-06
0.00024601
-3.51306e-06
0.000248959
-2.43264e-06
0.000250222
-2.81416e-06
0.000249899
-3.75997e-06
0.000248161
-4.0278e-06
0.000248948
-2.62211e-06
0.000250987
1.17572e-06
0.000252398
1.30366e-06
0.000253002
1.1013e-06
0.000252968
9.59638e-07
0.000252579
1.02283e-06
0.000252022
1.27978e-06
0.00025131
1.6548e-06
0.000250449
2.05328e-06
0.000249477
2.37647e-06
0.000248472
2.85622e-06
0.000247338
3.16826e-06
0.000246142
3.45773e-06
0.000244856
3.76867e-06
0.000243539
4.04856e-06
0.00024222
4.25223e-06
0.000240914
4.49101e-06
0.000239469
4.71757e-06
0.000238076
4.83364e-06
0.000236658
4.991e-06
0.000235214
5.08906e-06
0.000233752
5.18833e-06
0.000232313
5.23104e-06
0.000230836
5.27861e-06
0.000229418
5.28633e-06
0.000227977
5.30384e-06
0.000226564
5.28085e-06
0.000225169
5.25785e-06
0.000223795
5.22274e-06
0.000222471
5.15959e-06
0.000221153
5.12219e-06
0.000219876
5.07222e-06
0.000218608
5.02552e-06
0.000217414
4.92273e-06
0.000216258
4.81494e-06
0.000215194
4.67075e-06
0.000214167
4.47912e-06
-3.31166e-06
4.25008e-06
0.000213136
-2.4244e-06
0.00021301
-1.56634e-06
0.000212872
-6.72267e-07
0.000212721
3.02302e-07
0.000212546
1.33114e-06
0.000212505
2.36087e-06
0.00021245
3.32499e-06
0.000212549
-0.000213679
0.000212572
4.33952e-06
-0.000214869
4.56125e-06
-0.00021605
4.76861e-06
-0.000217294
4.97865e-06
-0.000218576
5.15577e-06
-0.000219836
5.28942e-06
-0.000221165
5.43789e-06
-0.000222515
5.53411e-06
-0.000223865
5.61798e-06
-0.000225248
5.68212e-06
-0.000226674
5.74736e-06
-0.000228083
5.78319e-06
-0.000229543
5.81729e-06
-0.000230967
5.81885e-06
-0.000232436
5.79984e-06
-0.000233907
5.72178e-06
-0.000235349
5.6612e-06
-0.000236751
5.52752e-06
-0.000238159
5.42131e-06
-0.000239599
5.25731e-06
-0.000240955
5.07166e-06
-0.000242359
4.86383e-06
-0.000243741
4.65453e-06
-0.000244955
4.31168e-06
-0.000246095
4.00704e-06
-0.000247203
3.64788e-06
-0.000248205
3.18569e-06
-0.000249155
2.66529e-06
-0.000249971
2.23181e-06
-0.000250691
1.35625e-06
-0.000251392
6.24413e-07
-0.00025205
-3.92403e-07
-0.000252689
-1.45825e-06
-0.000253419
-2.66651e-06
-0.000254572
-3.88103e-06
-0.00025611
-5.00379e-06
-0.000257571
-5.79521e-06
-0.000257054
-3.9579e-06
-0.000256511
-4.42908e-06
-0.000256438
-5.00952e-06
-0.000256511
-4.98162e-06
-0.000254577
-4.08866e-06
-0.000251908
-3.63368e-06
-0.000249958
-3.57054e-06
-0.00024824
-4.24352e-06
-0.000247005
-4.98002e-06
-0.000246285
-3.60174e-06
-0.000245637
-2.09907e-06
-0.000243934
-1.92501e-06
-0.000242308
-1.32877e-06
-0.000240704
-8.42246e-07
-0.000239977
7.64123e-07
-0.000238177
5.73195e-07
-0.000232989
2.49025e-06
-0.000236128
1.27643e-06
5.76378e-06
-0.000219563
9.30813e-06
-0.000214309
3.28852e-07
-0.000227159
1.81174e-05
-0.000205972
-2.22789e-05
1.34972e-05
-0.000207925
1.57503e-06
-0.000223397
3.94835e-07
-0.000221452
1.86881e-06
-0.000218474
-2.2198e-05
1.77453e-05
-0.000200912
0.000203257
-0.000198697
-2.61803e-05
0.000207601
-2.59978e-05
0.000212071
-2.55156e-05
0.000216691
-2.4625e-05
0.000221784
-2.29826e-05
0.000227826
-1.98189e-05
0.000234108
-1.49905e-05
0.000238713
-1.02511e-05
0.000241142
-7.24172e-06
0.000242454
-6.23027e-06
0.000243147
-5.82112e-06
0.000243777
-5.79498e-06
0.000244475
-5.83591e-06
0.000245176
-5.99482e-06
0.000245907
-6.2067e-06
0.000246607
-6.31233e-06
0.000247513
-6.46997e-06
0.000248216
-6.63452e-06
0.000248712
-6.90383e-06
0.000249281
-7.48889e-06
0.000248688
-6.75627e-06
0.000249171
-4.28623e-06
0.000250497
-4.06271e-06
0.000251411
-4.04562e-06
0.000251504
-4.18043e-06
0.000250924
-3.78271e-06
0.000250814
-2.8528e-06
0.00025206
-4.1791e-07
0.000252904
1.07117e-07
0.000253235
4.15693e-07
0.00025313
7.08833e-07
0.000252725
1.0717e-06
0.000252111
1.54073e-06
0.000251362
2.05365e-06
0.000250513
2.55662e-06
0.00024951
3.04011e-06
0.000248485
3.54821e-06
0.000247338
3.98818e-06
0.000246098
4.3782e-06
0.000244825
4.72936e-06
0.000243546
5.02358e-06
0.000242198
5.30395e-06
0.00024082
5.58235e-06
0.000239454
5.8061e-06
0.000237993
6.0255e-06
0.000236574
6.14999e-06
0.000235125
6.28832e-06
0.000233691
6.38072e-06
0.000232235
6.45559e-06
0.000230795
6.49628e-06
0.000229352
6.51682e-06
0.000227952
6.50022e-06
0.000226532
6.50655e-06
0.000225154
6.45165e-06
0.000223806
6.39565e-06
0.000222457
6.3429e-06
0.000221159
6.26416e-06
0.000219901
6.18328e-06
0.00021868
6.10926e-06
0.000217503
5.97215e-06
0.000216377
5.82221e-06
0.0002153
5.63886e-06
0.000214261
5.41934e-06
0.000213225
5.19579e-06
-4.02493e-06
4.95364e-06
0.000212216
-3.10105e-06
0.00021213
-2.20435e-06
0.000212029
-1.33708e-06
0.000211919
-5.0117e-07
0.000211798
3.2308e-07
0.000211634
1.30553e-06
0.000211435
2.17223e-06
0.000211497
3.17646e-06
0.00021146
4.1481e-06
0.000211517
-0.000213813
0.000212708
5.35424e-06
-0.000215006
5.65387e-06
-0.00021619
5.84332e-06
-0.000217381
6.05081e-06
-0.000218622
6.26829e-06
-0.000219908
6.43793e-06
-0.000221185
6.56801e-06
-0.000222517
6.70986e-06
-0.00022387
6.805e-06
-0.000225239
6.87702e-06
-0.000226647
6.97116e-06
-0.000228062
7.00454e-06
-0.000229471
7.02455e-06
-0.000230905
7.04e-06
-0.000232365
7.03959e-06
-0.000233821
6.94678e-06
-0.000235248
6.84743e-06
-0.00023667
6.69981e-06
-0.000238115
6.60648e-06
-0.000239512
6.38542e-06
-0.000240946
6.22565e-06
-0.000242294
5.92253e-06
-0.000243648
5.70959e-06
-0.000244906
5.2622e-06
-0.000246069
4.85219e-06
-0.00024719
4.44285e-06
-0.000248264
3.92637e-06
-0.000249255
3.31468e-06
-0.0002501
2.72693e-06
-0.000250954
1.85485e-06
-0.000251624
9.32326e-07
-0.000252246
-1.36295e-07
-0.000252773
-1.30229e-06
-0.000253544
-2.26997e-06
-0.000254563
-3.23624e-06
-0.000255776
-4.164e-06
-0.000257057
-4.88501e-06
-0.000256795
-4.58466e-06
-0.000256402
-5.17742e-06
-0.000256115
-5.63986e-06
-0.000255187
-6.2393e-06
-0.000254061
-5.52983e-06
-0.000252611
-5.38148e-06
-0.00025084
-5.62163e-06
-0.000249188
-6.15626e-06
-0.000248585
-5.82472e-06
-0.000247627
-4.78802e-06
-0.000245938
-4.01439e-06
-0.000244163
-3.92526e-06
-0.000242271
-3.33855e-06
-0.000241795
-1.37196e-06
-0.000240129
-9.08137e-07
-0.000238356
-8.42188e-07
4.99791e-07
-0.000232068
-0.00023554
-5.09634e-07
0.000211659
5.11573e-06
-1.49029e-06
-0.000231287
4.88553e-06
-0.000214322
-2.453e-06
-0.000226057
8.79503e-06
-0.000208931
-2.12073e-06
-0.000220322
1.33255e-05
-0.00020288
-2.47971e-06
-0.000218502
2.2578e-05
-0.00019438
-2.63518e-05
1.81939e-05
-0.000195953
-1.94913e-06
-0.000216426
5.10016e-07
-0.000213271
-2.60605e-05
2.21776e-05
-0.000189983
0.000192461
-0.000188747
-2.93014e-05
0.000196149
-2.95366e-05
0.000200078
-2.95718e-05
0.000204107
-2.94402e-05
0.000208304
-2.9059e-05
0.000212788
-2.82984e-05
0.000217852
-2.6845e-05
0.00022416
-2.39407e-05
0.000231433
-1.87317e-05
0.00023735
-1.28433e-05
0.000240857
-8.74938e-06
0.000242287
-6.80612e-06
0.000243246
-6.51153e-06
0.000243988
-6.56683e-06
0.00024478
-6.68153e-06
0.000245566
-6.90064e-06
0.000246392
-7.24347e-06
0.000247222
-7.3625e-06
0.000248075
-7.55106e-06
0.000248849
-7.64734e-06
0.000249483
-7.79078e-06
0.000249969
-8.24592e-06
0.00024994
-7.01224e-06
0.000250917
-5.56326e-06
0.000251848
-5.30817e-06
0.000252549
-5.07194e-06
0.000253139
-5.10646e-06
0.000252623
-3.61038e-06
0.000252761
-3.33988e-06
0.000253077
-1.08679e-06
0.000253452
-6.24358e-07
0.000253531
-1.9933e-08
0.000253308
5.74247e-07
0.000252828
1.19496e-06
0.000252174
1.84134e-06
0.000251398
2.48086e-06
0.000250501
3.10909e-06
0.000249495
3.70834e-06
0.000248438
4.27348e-06
0.000247309
4.79303e-06
0.000246097
5.27387e-06
0.000244815
5.7039e-06
0.000243476
6.0614e-06
0.000242105
6.38364e-06
0.000240738
6.66573e-06
0.000239328
6.94278e-06
0.000237932
7.15726e-06
0.000236473
7.35261e-06
0.00023504
7.47574e-06
0.000233589
7.59438e-06
0.000232153
7.66359e-06
0.000230725
7.70555e-06
0.000229301
7.73185e-06
0.000227874
7.72745e-06
0.000226509
7.68128e-06
0.000225131
7.6486e-06
0.000223782
7.57354e-06
0.000222474
7.48875e-06
0.00022119
7.39436e-06
0.000219942
7.28824e-06
0.000218749
7.16848e-06
0.000217588
7.00844e-06
0.00021647
6.82454e-06
0.000215392
6.61191e-06
0.000214345
6.36988e-06
0.000213303
6.15156e-06
0.000212321
5.8575e-06
-4.71634e-06
0.000211356
5.61426e-06
-3.89108e-06
0.00021132
-2.99788e-06
0.000211164
-2.07804e-06
0.000211034
-1.19666e-06
0.000210961
-3.46456e-07
0.000210871
4.55556e-07
0.000210755
1.18668e-06
0.000210627
2.22626e-06
0.00021038
3.08703e-06
0.000210524
3.95547e-06
0.000210575
4.86195e-06
0.000210682
-0.000212884
0.000211856
6.06535e-06
-0.000213977
6.36013e-06
-0.000215116
6.6953e-06
-0.00021628
6.90201e-06
-0.000217479
7.13336e-06
-0.000218686
7.35051e-06
-0.000219942
7.56043e-06
-0.000221223
7.70515e-06
-0.000222516
7.85052e-06
-0.000223843
7.97015e-06
-0.000225213
8.0761e-06
-0.000226579
8.15748e-06
-0.000227983
8.21919e-06
-0.000229402
8.24435e-06
-0.000230818
8.24851e-06
-0.000232264
8.26806e-06
-0.000233696
8.15297e-06
-0.000235116
8.03099e-06
-0.000236577
7.91448e-06
-0.000237996
7.76952e-06
-0.000239472
7.59601e-06
-0.000240827
7.30456e-06
-0.000242239
7.04919e-06
-0.000243517
6.69238e-06
-0.000244807
6.24758e-06
-0.000246017
5.74863e-06
-0.000247209
5.31183e-06
-0.000248336
4.72193e-06
-0.00024943
4.06962e-06
-0.000250301
3.25e-06
-0.000251147
2.34646e-06
-0.00025185
1.27424e-06
-0.000252619
2.65763e-07
-0.000253623
-6.69594e-07
-0.000254594
-1.67377e-06
-0.000255244
-2.96281e-06
-0.000255889
-3.89525e-06
-0.000256708
-4.43846e-06
-0.000256192
-5.46773e-06
-0.000256161
-5.56637e-06
-0.000255801
-6.34876e-06
-0.000255627
-6.75047e-06
-0.00025473
-6.75195e-06
-0.000253293
-7.12817e-06
-0.00025182
-7.38683e-06
-0.000250687
-7.56294e-06
-0.000249494
-7.27215e-06
-0.000248421
-6.10602e-06
-0.000246401
-6.28402e-06
-0.000244511
-6.04913e-06
-0.000244108
-3.85481e-06
-0.000242868
-2.64964e-06
-0.000240352
-3.41256e-06
-0.000239013
-1.77828e-06
-0.000235906
-2.4338e-06
-0.000229916
-4.91942e-06
0.000210872
5.77791e-06
6.12403e-06
-9.79783e-06
-0.00022248
-0.000224143
4.03592e-06
-0.000208883
-6.61703e-06
-0.000218364
8.32973e-06
-0.000203303
-5.85348e-06
-0.000214977
1.29911e-05
-0.000197079
-5.71503e-06
-0.000213551
1.76789e-05
-0.000190903
-3.79261e-06
-0.000211296
2.59114e-05
-0.000185157
-2.90566e-05
2.19074e-05
-0.000185491
-6.68541e-07
-0.000207886
-4.61264e-06
5.48777e-06
0.000210422
-3.69645e-06
0.000210343
-2.85413e-06
0.000210258
-2.02526e-06
0.00021014
-1.13782e-06
0.000210007
-2.72218e-07
0.000209938
5.50194e-07
0.000209864
1.3304e-06
0.000209779
2.00298e-06
0.000209641
2.86575e-06
0.000209595
3.69761e-06
0.000209679
4.56096e-06
0.000209757
5.48191e-06
0.000209892
-0.000212061
0.000211075
6.69864e-06
-0.000213115
7.04512e-06
-0.000214161
7.3228e-06
-0.000215264
7.70526e-06
-0.000216395
7.93054e-06
-0.000217558
8.18468e-06
-0.00021877
8.44086e-06
-0.000219974
8.63494e-06
-0.000221245
8.83722e-06
-0.00022252
8.97712e-06
-0.000223834
9.12722e-06
-0.000225165
9.23991e-06
-0.000226533
9.35038e-06
-0.000227906
9.40783e-06
-0.000229301
9.4451e-06
-0.000230734
9.47852e-06
-0.00023213
9.45125e-06
-0.000233548
9.34926e-06
-0.000235005
9.25618e-06
-0.000236459
9.12649e-06
-0.000237913
8.9729e-06
-0.0002393
8.72117e-06
-0.000240736
8.46893e-06
-0.000242079
8.11077e-06
-0.00024339
7.7124e-06
-0.000244685
7.24206e-06
-0.000246074
6.82762e-06
-0.000247164
6.0831e-06
-0.000248426
5.65514e-06
-0.000249474
4.78235e-06
-0.000250457
3.88766e-06
-0.000251336
2.87275e-06
-0.000252422
1.99977e-06
-0.000253361
8.38916e-07
-0.000254262
-1.40246e-07
-0.000254809
-1.50352e-06
-0.000255613
-2.53682e-06
-0.000256463
-3.42308e-06
-0.000256723
-4.55508e-06
-0.000257207
-5.35465e-06
-0.000256643
-6.49586e-06
-0.000256404
-6.94465e-06
-0.000256063
-7.43921e-06
-0.000255365
-7.78703e-06
-0.000254191
-8.62652e-06
-0.000253128
-8.75791e-06
-0.000251733
-9.24662e-06
-0.00025052
-8.7558e-06
-0.000248638
-8.24593e-06
-0.000246813
-8.36124e-06
-0.000246442
-6.65551e-06
-0.000245188
-5.2194e-06
-0.000242262
-5.62105e-06
-0.000241921
-3.75852e-06
-0.000238909
-4.28684e-06
-0.000235187
-4.75344e-06
-0.000228971
-8.1403e-06
-0.00021948
-1.5223e-05
-1.65825e-05
1.10124e-05
-0.000213805
-0.000210919
-2.24075e-05
6.39104e-06
0.000210111
-2.84858e-05
2.54376e-05
-0.000181695
0.000184683
-0.000181848
-3.09458e-05
0.000187469
-3.14485e-05
0.000190511
-3.19157e-05
0.000193726
-3.22929e-05
0.00019715
-3.25042e-05
0.000200782
-3.2535e-05
0.000204659
-3.2338e-05
0.000208892
-3.18166e-05
0.000213766
-3.07038e-05
0.000220035
-2.84035e-05
0.000228071
-2.33799e-05
0.000235462
-1.64952e-05
0.000239956
-1.08026e-05
0.000242201
-7.95963e-06
0.000243384
-7.33813e-06
0.000244255
-7.43926e-06
0.000245112
-7.57998e-06
0.000245964
-7.86526e-06
0.000246748
-8.25014e-06
0.0002477
-8.54785e-06
0.000248622
-8.71176e-06
0.000249495
-8.77045e-06
0.000250267
-8.82791e-06
0.000250629
-8.88922e-06
0.000250998
-7.67747e-06
0.000252121
-6.99732e-06
0.000252931
-6.44329e-06
0.000254002
-6.47863e-06
0.000253506
-4.95541e-06
0.000253957
-4.41218e-06
0.000253303
-3.04139e-06
0.00025386
-2.00291e-06
0.00025397
-1.09439e-06
0.000253842
-2.53069e-07
0.000253483
5.72946e-07
0.00025294
1.38168e-06
0.000252254
2.17449e-06
0.000251425
2.9617e-06
0.000250485
3.70659e-06
0.000249462
4.39478e-06
0.000248367
5.03979e-06
0.000247201
5.63741e-06
0.000245997
6.16549e-06
0.000244717
6.67925e-06
0.000243374
7.10853e-06
0.000242011
7.45904e-06
0.000240608
7.78999e-06
0.000239203
8.07849e-06
0.000237776
8.32464e-06
0.000236359
8.51792e-06
0.000234915
8.67835e-06
0.000233487
8.78981e-06
0.000232047
8.88115e-06
0.000230623
8.9152e-06
0.000229212
8.938e-06
0.000227825
8.91938e-06
0.000226437
8.88249e-06
0.000225095
8.81434e-06
0.000223768
8.73313e-06
0.000222472
8.62594e-06
0.000221208
8.50939e-06
0.000219986
8.37115e-06
0.000218808
8.21667e-06
0.000217662
8.03317e-06
0.000216556
7.81936e-06
0.000215483
7.58228e-06
0.000214414
7.34641e-06
0.000213432
7.05058e-06
0.000212469
6.74652e-06
0.00021151
6.50935e-06
6.28834e-06
0.000210654
-0.00021654
3.32065e-06
-0.000203238
2.11969e-05
-2.67979e-05
-0.000203936
1.62254e-05
-0.000207292
-1.05308e-05
-0.000211806
7.91318e-06
-0.000197614
-9.69132e-06
-0.000209858
1.27662e-05
-0.000191586
-7.99093e-06
-0.000208537
1.72477e-05
-0.000185716
-5.24851e-06
-0.000206036
2.1672e-05
-0.000181261
-1.60515e-06
-0.000202323
2.80917e-05
-3.05764e-05
-0.000179002
2.47784e-05
-0.000177985
-0.000211338
0.000210429
7.24877e-06
-0.00021232
7.61891e-06
-0.000213301
7.95583e-06
-0.000214406
8.34875e-06
-0.000215397
8.6076e-06
-0.000216514
8.94943e-06
-0.000217661
9.22433e-06
-0.000218809
9.47205e-06
-0.000220018
9.7187e-06
-0.000221242
9.92686e-06
-0.000222517
1.01089e-05
-0.000223798
1.02556e-05
-0.00022512
1.04005e-05
-0.000226453
1.05136e-05
-0.000227812
1.05873e-05
-0.000229204
1.06487e-05
-0.000230588
1.06643e-05
-0.000231979
1.06349e-05
-0.000233417
1.05707e-05
-0.000234858
1.04704e-05
-0.000236307
1.0339e-05
-0.000237713
1.0133e-05
-0.000239154
9.90569e-06
-0.00024053