/*--------------------------------*- C++ -*----------------------------------*\
| =========                 |                                                 |
| \\      /  F ield         | OpenFOAM: The Open Source CFD Toolbox           |
|  \\    /   O peration     | Version:  2212                                  |
|   \\  /    A nd           | Website:  www.openfoam.com                      |
|    \\/     M anipulation  |                                                 |
\*---------------------------------------------------------------------------*/
FoamFile
{
    version     2.0;
    format      ascii;
    arch        "LSB;label=32;scalar=64";
    class       volScalarField;
    location    "0.00394";
    object      nut;
}
// * * * * * * * * * * * * * * * * * * * * * * * * * * * * * * * * * * * * * //

dimensions      [0 2 -1 0 0 0 0];

internalField   nonuniform List<scalar> 
7220
(
0.280888
0.358295
0.350697
0.341804
0.353246
0.346879
0.349018
0.350062
0.341016
0.345203
0.279627
0.364038
0.342543
0.467128
0.422225
0.337942
0.0918411
0.331385
0.178751
0.319482
0.319354
0.131014
0.325855
0.0602918
0.144856
0.326627
0.295281
0.385739
0.315155
0.274888
0.205323
0.286298
0.369729
0.267928
0.261606
0.274601
0.351103
0.278522
0.276907
0.256796
0.257745
0.257785
0.256833
0.278865
0.277448
0.277496
0.278269
0.279327
0.258777
0.259892
0.259937
0.25882
0.26111
0.262474
0.262522
0.261156
0.264031
0.26578
0.26583
0.264081
0.267777
0.270133
0.270185
0.267827
0.272874
0.275967
0.27602
0.272927
0.279231
0.282293
0.282354
0.279287
0.284669
0.285946
0.286011
0.284734
0.286136
0.28555
0.285612
0.286193
0.284445
0.283146
0.283235
0.28452
0.280564
0.281887
0.281777
0.280438
0.279206
0.27995
0.255932
0.255967
0.257239
0.256298
0.276684
0.276923
0.278131
0.277302
0.281014
0.283653
0.282365
0.285303
0.284744
0.283745
0.285064
0.278294
0.28135
0.272
0.275056
0.266983
0.269299
0.263299
0.265019
0.260432
0.261772
0.258138
0.259236
0.256187
0.257121
0.259365
0.258262
0.261912
0.260567
0.265168
0.263445
0.269451
0.267133
0.275215
0.272154
0.281535
0.278463
0.285265
0.283946
0.284903
0.285479
0.282503
0.283795
0.28118
0.279701
0.255338
0.255441
0.277695
0.278739
0.276189
0.276684
0.278495
0.277438
0.277258
0.276751
0.276586
0.276218
0.279705
0.278435
0.282244
0.281009
0.283754
0.28327
0.282024
0.283421
0.276554
0.279594
0.270388
0.273369
0.265531
0.267768
0.261972
0.263633
0.259208
0.2605
0.256984
0.258049
0.255089
0.255996
0.254564
0.253515
0.254265
0.255177
0.255145
0.254423
0.253661
0.25466
0.256177
0.255259
0.258247
0.257174
0.260713
0.259413
0.26386
0.262194
0.268
0.26576
0.273611
0.270623
0.279886
0.276814
0.283758
0.282349
0.283544
0.284063
0.281211
0.282471
0.279927
0.275307
0.275877
0.276205
0.277234
0.253848
0.25282
0.25303
0.252299
0.27653
0.275032
0.275957
0.275953
0.275634
0.27368
0.273958
0.275366
0.275302
0.274626
0.277979
0.276767
0.280348
0.279206
0.281627
0.281265
0.279667
0.281167
0.274179
0.277194
0.268201
0.271074
0.263569
0.265696
0.260187
0.261765
0.257565
0.258792
0.255441
0.256461
0.253626
0.254495
0.25212
0.252837
0.254447
0.254417
0.252955
0.253936
0.254714
0.253833
0.256698
0.255671
0.259047
0.257811
0.262034
0.260451
0.265968
0.263841
0.271353
0.268474
0.277537
0.27448
0.281593
0.28006
0.281661
0.282051
0.279558
0.280708
0.278365
0.27451
0.251455
0.25162
0.276282
0.275033
0.27368
0.276362
0.273789
0.274397
0.275377
0.273532
0.274736
0.250515
0.249889
0.252294
0.250985
0.275545
0.275973
0.273946
0.275296
0.273627
0.272954
0.274453
0.276151
0.272037
0.273778
0.272825
0.275969
0.274841
0.278123
0.277097
0.279109
0.278903
0.276852
0.278486
0.271352
0.274329
0.265615
0.268351
0.261262
0.263254
0.258098
0.259573
0.25565
0.256796
0.253649
0.254612
0.251935
0.252755
0.251192
0.250832
0.253177
0.252169
0.253762
0.253734
0.253259
0.250069
0.251401
0.25071
0.252992
0.252159
0.254865
0.253896
0.257065
0.25591
0.259854
0.258375
0.263534
0.261544
0.268634
0.265893
0.274685
0.271659
0.278958
0.277273
0.279387
0.2796
0.277554
0.278582
0.276452
0.272297
0.272809
0.272075
0.272046
0.27239
0.273171
0.249302
0.249469
0.272403
0.273326
0.271587
0.271293
0.274346
0.27642
0.27625
0.275183
0.275429
0.272627
0.270166
0.275803
0.271459
0.269638
0.274433
0.271769
0.270893
0.273774
0.272744
0.275682
0.274785
0.276337
0.276311
0.273735
0.275523
0.268241
0.271164
0.2628
0.265371
0.258767
0.260606
0.255852
0.257211
0.253599
0.254655
0.251742
0.252638
0.250147
0.250909
0.248831
0.249458
0.247707
0.24825
0.247198
0.250251
0.248753
0.252554
0.251563
0.253128
0.253102
0.251682
0.252631
0.248909
0.250395
0.247355
0.248433
0.247876
0.249669
0.249028
0.251147
0.250372
0.252888
0.251988
0.254917
0.253855
0.257479
0.256118
0.260868
0.259034
0.265633
0.263058
0.271507
0.268529
0.276014
0.274157
0.276864
0.276868
0.275326
0.276223
0.274329
0.270437
0.270915
0.270252
0.270207
0.270599
0.271128
0.272811
0.276286
0.269338
0.270314
0.271165
0.269555
0.246151
0.245689
0.248394
0.246871
0.276719
0.276778
0.276538
0.273556
0.27162
0.272885
0.274777
0.271064
0.274286
0.276096
0.275543
0.269287
0.275387
0.267522
0.268244
0.267777
0.26968
0.268893
0.271478
0.270556
0.273125
0.272365
0.273412
0.273586
0.270447
0.27239
0.264999
0.267841
0.259905
0.262287
0.256224
0.257895
0.253574
0.254809
0.25153
0.25249
0.249829
0.250651
0.248368
0.249065
0.247171
0.247741
0.246643
0.246723
0.249718
0.248246
0.25199
0.251012
0.252556
0.252531
0.251124
0.252063
0.249855
0.24584
0.24682
0.246314
0.247945
0.247362
0.249292
0.248585
0.250886
0.250062
0.252729
0.251767
0.255047
0.253814
0.258121
0.256457
0.262511
0.260124
0.268156
0.265251
0.272891
0.270855
0.274194
0.273978
0.272961
0.273727
0.272077
0.268502
0.268935
0.268369
0.268301
0.269514
0.268751
0.27056
0.272748
0.267508
0.245253
0.245394
0.268967
0.268198
0.269493
0.271257
0.276699
0.277286
0.277525
0.277456
0.274348
0.276194
0.282257
0.276604
0.352871
0.277111
0.267744
0.266047
0.265731
0.265775
0.266324
0.265929
0.267575
0.266885
0.269156
0.268347
0.270535
0.269917
0.270422
0.270819
0.267094
0.269181
0.261741
0.264475
0.257039
0.259215
0.253729
0.255227
0.251354
0.25246
0.249523
0.250384
0.247987
0.248729
0.246673
0.247297
0.245608
0.246115
0.244704
0.245139
0.243904
0.244295
0.243556
0.246309
0.24487
0.24926
0.247808
0.251507
0.250539
0.252064
0.252041
0.250642
0.251574
0.247944
0.249386
0.245001
0.246446
0.243677
0.244435
0.244034
0.245305
0.244856
0.246306
0.245787
0.247508
0.246875
0.248943
0.248201
0.250593
0.249733
0.252659
0.251559
0.255408
0.25392
0.259393
0.257213
0.264755
0.261951
0.269687
0.267481
0.271474
0.271023
0.270547
0.271182
0.26978
0.266596
0.267514
0.266966
0.266564
0.26645
0.267686
0.266973
0.269719
0.268624
0.272518
0.271023
0.278222
0.276077
0.275987
0.274199
0.272982
0.363367
0.268222
0.266568
0.277328
0.344612
0.242699
0.242392
0.244686
0.243397
0.278048
0.277802
0.278455
0.277764
0.27798
0.278511
0.278292
0.355158
0.341167
0.320416
0.295149
0.24756
0.249639
0.269933
0.271655
0.34966
0.27065
0.276473
0.274349
0.276031
0.274824
0.268967
0.364019
0.267346
0.313054
0.269968
0.268371
0.359348
0.271105
0.269616
0.268207
0.269662
0.265837
0.26691
0.26444
0.265013
0.264012
0.264111
0.264446
0.264135
0.265508
0.264915
0.266871
0.266176
0.267978
0.267504
0.267426
0.268063
0.263739
0.265957
0.258539
0.261134
0.254264
0.256219
0.251334
0.252656
0.249234
0.250211
0.247618
0.248381
0.246253
0.246913
0.245096
0.245643
0.244171
0.244611
0.243391
0.243765
0.24304
0.243287
0.245978
0.244568
0.248884
0.247452
0.251103
0.250147
0.25165
0.25163
0.250238
0.251162
0.247573
0.248995
0.2461
0.242497
0.243165
0.242813
0.243918
0.24353
0.244786
0.244335
0.245834
0.24528
0.247101
0.246445
0.248557
0.2478
0.25037
0.249403
0.252793
0.251481
0.256356
0.254395
0.261378
0.25871
0.266458
0.264101
0.268756
0.268046
0.26816
0.26866
0.266799
0.267509
0.265521
0.266118
0.264759
0.265053
0.264839
0.264677
0.265952
0.265263
0.267966
0.266864
0.27078
0.269279
0.272466
0.354024
0.340657
0.289891
0.273327
0.276904
0.361371
0.349616
0.127749
0.283465
0.242156
0.242253
0.32228
0.272345
0.275479
0.276717
0.278063
0.279824
0.214836
0.271634
0.272777
0.274819
0.27849
0.27899
0.27947
0.279477
0.271197
0.0563197
0.279529
0.457312
0.271035
0.265516
0.279693
0.27961
0.360905
0.361385
0.285968
0.358825
0.360301
0.354733
0.266898
0.26838
0.264451
0.26557
0.26294
0.263575
0.262369
0.262541
0.262635
0.262411
0.263507
0.263012
0.264654
0.264073
0.265471
0.265158
0.264422
0.265319
0.260393
0.262719
0.255406
0.257834
0.251584
0.253311
0.249033
0.250183
0.247211
0.248057
0.24581
0.246473
0.244619
0.245196
0.243624
0.24409
0.242842
0.243214
0.242185
0.242499
0.241603
0.241891
0.241133
0.241336
0.240989
0.243074
0.241979
0.245698
0.24432
0.248556
0.247145
0.250745
0.249802
0.251283
0.251265
0.249882
0.250798
0.247252
0.248654
0.244424
0.245806
0.24207
0.243173
0.241071
0.241426
0.241218
0.242002
0.241701
0.242637
0.24231
0.243372
0.24299
0.244262
0.243791
0.24536
0.244791
0.246621
0.245966
0.248181
0.247348
0.250285
0.249145
0.253419
0.251683
0.258048
0.255548
0.263206
0.260727
0.266038
0.265046
0.265834
0.266183
0.264699
0.265304
0.263602
0.26411
0.263002
0.263218
0.263202
0.262987
0.26435
0.263656
0.26637
0.265257
0.269195
0.267685
0.270891
0.350057
0.341511
0.27084
0.335944
0.314577
0.273988
0.277608
0.359135
0.284576
0.282054
0.333478
0.354759
0.35879
0.273312
0.271338
0.273388
0.276948
0.278993
0.276416
0.277657
0.358161
0.281334
0.363098
0.240073
0.239953
0.241875
0.240913
0.281086
0.164708
0.272846
0.280808
0.35568
0.347724
0.344747
0.341778
0.348712
0.280074
0.357355
0.355504
0.354323
0.301517
0.35442
0.344932
0.272604
0.284699
0.290182
0.330509
0.359773
0.334196
0.259525
0.280716
0.281034
0.272557
0.355824
0.28098
0.35334
0.353812
0.357617
0.272563
0.357245
0.3556
0.357802
0.357384
0.28719
0.358703
0.288964
0.277551
0.265661
0.267346
0.263135
0.264281
0.261512
0.262213
0.260769
0.26103
0.260844
0.260715
0.261523
0.261125
0.262449
0.261987
0.262929
0.262812
0.261306
0.26249
0.256973
0.259375
0.252273
0.254502
0.248918
0.250415
0.246739
0.24772
0.245194
0.245908
0.244008
0.24457
0.242988
0.243484
0.242153
0.242539
0.241505
0.241814
0.240962
0.241221
0.240479
0.24072
0.24025
0.240838
0.242851
0.241793
0.24541
0.244061
0.248224
0.246832
0.250391
0.249456
0.250921
0.250905
0.249529
0.250438
0.246929
0.248313
0.244155
0.245507
0.24294
0.240037
0.240335
0.240155
0.240828
0.240573
0.241357
0.241084
0.24197
0.241651
0.242707
0.242316
0.24364
0.243154
0.244707
0.244155
0.246018
0.245318
0.247811
0.246837
0.250517
0.249009
0.254707
0.252408
0.259851
0.257294
0.263229
0.261937
0.263523
0.263684
0.262629
0.263123
0.261713
0.262134
0.261277
0.261413
0.261611
0.261334
0.262828
0.26211
0.264882
0.263753
0.267736
0.266211
0.269447
0.31755
0.343207
0.35974
0.35554
0.344548
0.273232
0.292623
0.274935
0.274394
0.275602
0.278549
0.350658
0.356152
0.356953
0.347605
0.354559
0.3517
0.357971
0.339613
0.0309685
0.28341
0.272675
0.372049
0.23983
0.23991
0.28283
0.246397
0.344841
0.306095
0.323361
0.175726
0.274502
0.366582
0.279317
0.347567
0.256256
0.187202
0.238067
0.350644
0.280077
0.277561
0.278784
0.355583
0.356116
0.356273
0.356626
0.359264
0.353334
0.350654
0.360319
0.360987
0.358091
0.324993
0.23774
0.284219
0.339668
0.174619
0.335936
0.27423
0.283368
0.256815
0.308877
0.13695
0.281265
0.353078
0.358172
0.357354
0.359164
0.282552
0.274122
0.41598
0.287683
0.230044
0.360326
0.354287
0.347535
0.344132
0.352908
0.350678
0.281991
0.352164
0.351438
0.35415
0.355057
0.351508
0.301164
0.282352
0.274149
0.352247
0.35232
0.351032
0.352129
0.357908
0.274251
0.353286
0.354843
0.356165
0.355895
0.35347
0.353895
0.290188
0.285719
0.445121
0.353105
0.341854
0.292518
0.0998743
0.264458
0.266178
0.261791
0.26301
0.25998
0.260783
0.259005
0.259386
0.258842
0.258832
0.259289
0.259008
0.259957
0.259634
0.26
0.260149
0.257742
0.259239
0.253183
0.255608
0.248843
0.250847
0.245958
0.247229
0.244135
0.244954
0.24286
0.243446
0.241884
0.242346
0.24103
0.241449
0.240342
0.240656
0.23981
0.240065
0.239357
0.239574
0.238949
0.239154
0.238583
0.238747
0.238363
0.238471
0.238209
0.240647
0.239664
0.242597
0.241571
0.245103
0.243778
0.247885
0.246507
0.250035
0.249107
0.25056
0.250546
0.249175
0.250079
0.246595
0.247967
0.243864
0.245192
0.241644
0.242677
0.239737
0.240714
0.238313
0.238587
0.238476
0.238862
0.238695
0.239296
0.239076
0.239747
0.239515
0.240261
0.239995
0.240865
0.240547
0.241643
0.241234
0.242522
0.242071
0.243596
0.243022
0.24509
0.244275
0.247382
0.246098
0.251097
0.249028
0.256125
0.253542
0.260053
0.25843
0.260969
0.260862
0.260357
0.260726
0.259644
0.259966
0.259394
0.259439
0.259894
0.259541
0.261225
0.260456
0.263367
0.262195
0.2663
0.264736
0.269978
0.268049
0.272086
0.284754
0.290427
0.371714
0.204268
0.346272
0.2786
0.336036
0.353043
0.313509
0.338041
0.256866
0.286875
0.206029
0.22691
0.189887
0.276101
0.278002
0.429838
0.345953
0.279651
0.355861
0.356674
0.361019
0.356458
0.1646
0.167912
0.270977
0.362114
0.367851
0.361406
0.331276
0.163089
0.158237
0.469463
0.16821
0.276089
0.295928
0.336381
0.326542
0.201551
0.323566
0.261823
0.286636
0.157264
0.275856
0.281994
0.26042
0.292129
0.371468
0.346319
0.281264
0.278848
0.280035
0.353068
0.35712
0.35403
0.354967
0.361438
0.284192
0.354575
0.235353
0.235183
0.23954
0.23812
0.148451
0.308805
0.27573
0.201698
0.286344
0.322519
0.346516
0.357759
0.355371
0.346122
0.282532
0.350901
0.356611
0.288146
0.283806
0.174728
0.275729
0.291189
0.360161
0.347668
0.283334
0.349996
0.352518
0.3594
0.275869
0.348788
0.343244
0.357332
0.350402
0.358202
0.276255
0.349419
0.355604
0.293745
0.288292
0.349363
0.354292
0.286899
0.374336
0.354469
0.348623
0.141579
0.296842
0.338343
0.339117
0.350534
0.336105
0.27348
0.272074
0.267227
0.269476
0.262944
0.26482
0.259961
0.261344
0.257784
0.258774
0.256424
0.256997
0.255896
0.256066
0.255987
0.255885
0.256258
0.256145
0.255683
0.256185
0.252733
0.254549
0.248061
0.250445
0.244152
0.245912
0.241728
0.242782
0.240239
0.240903
0.239224
0.23969
0.238448
0.238814
0.237757
0.238099
0.237197
0.23745
0.236753
0.236969
0.236354
0.236548
0.235979
0.23617
0.235607
0.235781
0.235476
0.238021
0.240436
0.239472
0.242337
0.241337
0.244801
0.243495
0.24756
0.246191
0.249701
0.248776
0.250223
0.250209
0.248839
0.249742
0.246273
0.247636
0.243575
0.244884
0.241404
0.242411
0.240499
0.235377
0.235691
0.235562
0.236002
0.235821
0.236429
0.236217
0.236848
0.236635
0.237301
0.237069
0.237801
0.237542
0.23844
0.238102
0.239144
0.238786
0.240001
0.239543
0.241215
0.240547
0.243123
0.242049
0.24635
0.244527
0.251156
0.248609
0.255619
0.253638
0.257328
0.256836
0.257156
0.257335
0.256746
0.256925
0.256765
0.256676
0.257505
0.257037
0.259052
0.258178
0.261392
0.260122
0.26451
0.262854
0.268373
0.266349
0.273064
0.2706
0.275729
0.345355
0.339964
0.342682
0.335351
0.337493
0.334261
0.332046
0.333531
0.339317
0.335895
0.339817
0.33774
0.342158
0.356785
0.366973
0.362219
0.284738
0.333809
0.193525
0.232151
0.172963
0.158589
0.156147
0.269059
0.313066
0.23181
0.307198
0.353133
0.347053
0.351328
0.331938
0.348378
0.266605
0.302853
0.208304
0.234973
0.174289
0.188431
0.164302
0.277421
0.280695
0.281567
0.274823
0.375796
0.342562
0.280859
0.353363
0.356044
0.366727
0.364056
0.364277
0.286003
0.437197
0.18426
0.280772
0.168179
0.23497
0.235154
0.47113
0.467322
0.362916
0.357104
0.363357
0.316324
0.153988
0.206161
0.238182
0.305435
0.287397
0.162596
0.288838
0.211622
0.23899
0.155834
0.277327
0.28239
0.284974
0.321568
0.336497
0.274768
0.276061
0.374675
0.366905
0.336861
0.342984
0.460882
0.459651
0.282518
0.28023
0.281373
0.350593
0.429947
0.444482
0.457777
0.354591
0.351063
0.351888
0.358768
0.456039
0.316957
0.298722
0.151215
0.285373
0.15135
0.283315
0.340792
0.342568
0.131754
0.268809
0.277324
0.28979
0.358973
0.366205
0.357536
0.330887
0.332785
0.343673
0.283858
0.349132
0.353498
0.453241
0.35859
0.28475
0.27746
0.426424
0.426786
0.295379
0.45028
0.439776
0.369019
0.343484
0.344798
0.31946
0.355716
0.34901
0.350251
0.360244
0.277804
0.441611
0.453874
0.334267
0.337187
0.345677
0.356897
0.297986
0.291217
0.413122
0.458189
0.444548
0.458083
0.444146
0.457374
0.443182
0.455974
0.346223
0.355681
0.289336
0.374538
0.356353
0.346284
0.355335
0.288035
0.0373168
0.346481
0.357619
0.302226
0.424924
0.277582
0.275915
0.270136
0.27295
0.264807
0.267451
0.259966
0.262197
0.256291
0.258021
0.253364
0.254736
0.251233
0.252193
0.249981
0.250505
0.249379
0.249622
0.248912
0.249183
0.247377
0.248382
0.243597
0.245758
0.2389
0.241191
0.235455
0.236965
0.233466
0.234319
0.232303
0.232813
0.231552
0.231894
0.230988
0.231255
0.230483
0.230736
0.230059
0.230252
0.229693
0.229877
0.229323
0.229509
0.228931
0.229134
0.228492
0.228709
0.228114
0.228301
0.227584
0.227875
0.227256
0.237817
0.234733
0.240223
0.23927
0.242088
0.241106
0.244519
0.243228
0.247264
0.2459
0.249402
0.248478
0.249924
0.249911
0.248538
0.249441
0.245979
0.247337
0.243305
0.244599
0.241173
0.24216
0.239341
0.240287
0.234914
0.237917
0.227616
0.228281
0.227963
0.228753
0.228547
0.229193
0.228955
0.229684
0.229448
0.230125
0.229907
0.230551
0.230339
0.230968
0.230759
0.231463
0.231203
0.231995
0.231726
0.232641
0.232294
0.233591
0.233062
0.235155
0.234268
0.237924
0.236338
0.242448
0.239978
0.247471
0.245082
0.250314
0.249251
0.251004
0.250812
0.251181
0.251084
0.251703
0.251366
0.252926
0.25222
0.254938
0.253833
0.257725
0.256235
0.261277
0.259407
0.265564
0.263329
0.27068
0.268
0.273647
0.336511
0.338623
0.332825
0.334552
0.33021
0.331374
0.330027
0.328689
0.329333
0.332831
0.330761
0.333088
0.331854
0.336028
0.334465
0.337762
0.34398
0.35019
0.325798
0.352228
0.230957
0.283403
0.169503
0.18939
0.168323
0.165725
0.173754
0.333137
0.172179
0.264908
0.184814
0.26519
0.340802
0.345603
0.3462
0.293493
0.324242
0.216387
0.253446
0.175529
0.190578
0.161813
0.166991
0.15826
0.278851
0.283641
0.330363
0.278617
0.277292
0.374593
0.339839
0.449103
0.449559
0.282148
0.430275
0.350599
0.477163
0.468836
0.353081
0.36147
0.443625
0.438455
0.196012
0.164708
0.275703
0.436579
0.436078
0.287107
0.348677
0.453645
0.373485
0.227753
0.144236
0.286411
0.358415
0.404213
0.34271
0.338825
0.356389
0.37121
0.174665
0.264547
0.242889
0.134351
0.242614
0.165564
0.189201
0.27889
0.285291
0.28833
0.358615
0.363122
0.278773
0.374876
0.360873
0.335011
0.340451
0.446583
0.283834
0.281694
0.28278
0.43004
0.40227
0.241373
0.348454
0.469971
0.351108
0.348268
0.348685
0.354977
0.41538
0.441467
0.352787
0.378384
0.286277
0.428207
0.210044
0.209539
0.234661
0.227244
0.345697
0.340626
0.188465
0.13005
0.217685
0.279034
0.293864
0.3886
0.071776
0.459009
0.370536
0.358057
0.279041
0.280563
0.348595
0.331658
0.341318
0.283751
0.348031
0.285255
0.429383
0.347836
0.470386
0.366374
0.350683
0.439881
0.360781
0.272614
0.276737
0.33341
0.279369
0.300455
0.464159
0.340684
0.328198
0.329387
0.342342
0.3564
0.185272
0.348395
0.470055
0.30272
0.294646
0.280041
0.409367
0.467139
0.335318
0.343162
0.356933
0.468922
0.292117
0.370143
0.358628
0.32983
0.331609
0.343729
0.356401
0.290359
0.356967
0.412622
0.344107
0.289079
0.372517
0.344003
0.327345
0.433527
0.344796
0.282348
0.279353
0.272241
0.275736
0.265606
0.268868
0.258961
0.262352
0.252625
0.255645
0.247314
0.249857
0.242726
0.244937
0.238921
0.240717
0.236047
0.237374
0.233862
0.234893
0.231802
0.23288
0.228625
0.230438
0.223775
0.226339
0.219077
0.221261
0.216082
0.217355
0.214524
0.215172
0.213746
0.214065
0.213362
0.213522
0.213145
0.213245
0.212957
0.213053
0.21281
0.212878
0.212624
0.212727
0.21235
0.212499
0.211964
0.212173
0.21144
0.211714
0.210852
0.211158
0.210486
0.226898
0.237604
0.23448
0.240012
0.239065
0.241852
0.240884
0.244262
0.24298
0.247001
0.245638
0.249144
0.248217
0.249666
0.249654
0.248276
0.249182
0.245716
0.247073
0.243058
0.244342
0.240955
0.241927
0.239142
0.240082
0.237709
0.21023
0.211291
0.210789
0.212071
0.211716
0.21272
0.212393
0.213309
0.213035
0.21376
0.213549
0.214106
0.213945
0.214358
0.214244
0.214596
0.214468
0.214859
0.214727
0.215204
0.21501
0.215842
0.215472
0.217073
0.216358
0.219451
0.218067
0.223731
0.221327
0.229443
0.226543
0.234049
0.232033
0.23651
0.235488
0.238079
0.237324
0.239807
0.238878
0.242163
0.240898
0.245265
0.243617
0.249104
0.247092
0.253696
0.251306
0.259026
0.25627
0.26519
0.261982
0.268714
0.339423
0.336981
0.338525
0.333691
0.33532
0.330797
0.332157
0.328799
0.329672
0.327678
0.328154
0.327815
0.326954
0.327292
0.329043
0.327835
0.329109
0.328429
0.330821
0.329907
0.332961
0.331833
0.335639
0.334217
0.337168
0.351258
0.280072
0.322971
0.187971
0.229776
0.169916
0.167947
0.196537
0.18278
0.232738
0.211955
0.262244
0.156352
0.219269
0.146508
0.215513
0.336792
0.3383
0.338079
0.312601
0.32964
0.241939
0.282633
0.177055
0.202575
0.166052
0.167046
0.170406
0.168195
0.1742
0.172137
0.466186
0.280369
0.286846
0.360773
0.281243
0.279956
0.369027
0.33758
0.438577
0.283501
0.415874
0.452429
0.467659
0.348107
0.478623
0.3495
0.35706
0.428563
0.310342
0.337135
0.287975
0.41325
0.323317
0.339287
0.334737
0.31332
0.330423
0.264563
0.208977
0.20962
0.334846
0.336498
0.349716
0.152822
0.152383
0.220457
0.200503
0.114346
0.189466
0.127107
0.143244
0.25041
0.228911
0.28056
0.288564
0.292218
0.241539
0.163713
0.244959
0.173346
0.371374
0.372422
0.281684
0.35498
0.333582
0.338371
0.240222
0.330356
0.285226
0.283252
0.284272
0.415346
0.398577
0.453464
0.478105
0.389134
0.377753
0.346787
0.126674
0.479876
0.345879
0.360077
0.351597
0.245392
0.427051
0.357376
0.261088
0.266804
0.282071
0.203658
0.155477
0.325949
0.401458
0.326678
0.280905
0.298718
0.432265
0.445176
0.414984
0.472117
0.458179
0.367995
0.0247133
0.283777
0.344844
0.330833
0.339368
0.213499
0.326521
0.351572
0.216673
0.28677
0.414435
0.327309
0.327046
0.326576
0.346899
0.271039
0.270355
0.162258
0.480441
0.298904
0.340821
0.337313
0.29865
0.348355
0.281526
0.34197
0.350492
0.427194
0.306591
0.475944
0.38368
0.428507
0.283115
0.285899
0.338253
0.328916
0.340358
0.324847
0.325684
0.325477
0.315404
0.357103
0.264847
0.280393
0.479764
0.341989
0.295336
0.364937
0.315679
0.300102
0.282564
0.0893308
0.457692
0.34318
0.478336
0.360894
0.333741
0.326683
0.3275
0.34115
0.326377
0.355531
0.357492
0.293025
0.359108
0.39898
0.330591
0.341821
0.35775
0.291364
0.289922
0.399113
0.328375
0.342546
0.282711
0.148916
0.367964
0.402914
0.397901
0.423981
0.401438
0.404209
0.28704
0.280258
0.271237
0.275733
0.262232
0.26672
0.253217
0.257747
0.243589
0.248529
0.233901
0.23863
0.225168
0.229433
0.217242
0.221118
0.210177
0.213587
0.20414
0.207038
0.198858
0.201433
0.193772
0.196348
0.187993
0.191
0.181894
0.184871
0.177288
0.179319
0.174796
0.175807
0.173768
0.174149
0.173547
0.173582
0.173771
0.17362
0.174196
0.173972
0.174666
0.174427
0.175132
0.174911
0.175453
0.175315
0.175568
0.17554
0.175417
0.17553
0.174972
0.175227
0.174282
0.174665
0.173196
0.173797
0.171683
0.172488
0.170783
0.226511
0.208361
0.237381
0.23421
0.239803
0.238856
0.241632
0.24067
0.244031
0.242752
0.246773
0.245406
0.248926
0.247994
0.249451
0.249438
0.248053
0.248964
0.245487
0.246846
0.242835
0.244114
0.240749
0.241712
0.238942
0.239882
0.234393
0.237494
0.208959
0.226843
0.171707
0.173613
0.172705
0.175144
0.174429
0.176223
0.175738
0.176987
0.176626
0.177514
0.177289
0.177743
0.177662
0.177729
0.177764
0.177513
0.177643
0.177172
0.177346
0.176868
0.177015
0.176667
0.176742
0.176812
0.17668
0.177612
0.177107
0.179591
0.178403
0.183618
0.18129
0.190026
0.186578
0.197092
0.193642
0.202793
0.200142
0.20731
0.20514
0.211668
0.209448
0.216487
0.214006
0.221931
0.219129
0.228035
0.224897
0.234881
0.23136
0.242529
0.238609
0.251102
0.246672
0.255889
0.336261
0.335958
0.334356
0.335473
0.331846
0.333131
0.32952
0.330622
0.327842
0.328584
0.326843
0.327276
0.326116
0.326474
0.325904
0.328049
0.327551
0.329337
0.32867
0.330989
0.330122
0.332769
0.331883
0.333714
0.338577
0.345128
0.341538
0.348367
0.231281
0.283275
0.165075
0.186313
0.19201
0.170258
0.241349
0.217876
0.292449
0.266027
0.311695
0.192208
0.315462
0.181138
0.116774
0.164339
0.315226
0.324573
0.267862
0.297214
0.190835
0.22888
0.161382
0.166307
0.181205
0.169264
0.199797
0.191647
0.212109
0.206221
0.220266
0.281984
0.290485
0.164705
0.241015
0.371901
0.284152
0.282851
0.362927
0.335814
0.323281
0.325439
0.259705
0.300582
0.334829
0.148484
0.0890988
0.417659
0.38853
0.486017
0.263328
0.39715
0.284927
0.401772
0.308528
0.471337
0.367601
0.346072
0.301927
0.485552
0.346149
0.354599
0.353016
0.413871
0.273231
0.0784676
0.127255
0.345545
0.294087
0.351093
0.488694
0.0983121
0.430808
0.315844
0.323134
0.273384
0.135329
0.286297
0.320908
0.153975
0.130279
0.128765
0.130758
0.10158
0.32751
0.282379
0.290355
0.292773
0.29682
0.447054
0.430346
0.476477
0.471191
0.36938
0.37763
0.260517
0.343797
0.0690359
0.389377
0.284891
0.349654
0.332533
0.336764
0.324802
0.323493
0.323452
0.324783
0.327353
0.332848
0.211382
0.231037
0.278404
0.338878
0.243604
0.360914
0.287115
0.286735
0.284938
0.285891
0.400977
0.326177
0.288102
0.276479
0.450069
0.376851
0.366622
0.349363
0.368825
0.345823
0.311636
0.26844
0.487407
0.346596
0.303054
0.425885
0.343526
0.361839
0.281958
0.342067
0.34868
0.349785
0.304558
0.325383
0.112311
0.111382
0.20824
0.170617
0.33492
0.33777
0.333806
0.184832
0.170108
0.113897
0.093522
0.283
0.360269
0.323387
0.414316
0.304534
0.433033
0.399548
0.481491
0.455907
0.363925
0.287331
0.212292
0.363076
0.341666
0.330232
0.337807
0.325434
0.316326
0.335392
0.250177
0.354266
0.139794
0.124497
0.0618272
0.288474
0.399986
0.326863
0.307667
0.334571
0.346457
0.487695
0.385795
0.299066
0.0237507
0.331556
0.314195
0.0730675
0.28397
0.343292
0.415552
0.314491
0.395176
0.412857
0.373549
0.484884
0.417011
0.36236
0.289703
0.336235
0.328531
0.338753
0.326042
0.322456
0.209119
0.357979
0.277289
0.0974663
0.102168
0.178483
0.486879
0.296107
0.0562054
0.285389
0.327761
0.412241
0.361434
0.28481
0.291125
0.385933
0.332441
0.327171
0.339599
0.157434
0.358594
0.180705
0.294015
0.292197
0.386001
0.329743
0.340517
0.359662
0.305548
0.330172
0.0782917
0.349532
0.353295
0.297483
0.348629
0.337648
0.3611
0.356991
0.386244
0.357175
0.360999
0.289403
0.272431
0.260899
0.266825
0.248365
0.254734
0.234998
0.24176
0.220823
0.22805
0.20581
0.213363
0.190565
0.19804
0.176846
0.183527
0.1645
0.170517
0.153511
0.158825
0.143917
0.148552
0.1354
0.139552
0.127544
0.131419
0.12017
0.123767
0.114191
0.116921
0.110535
0.112067
0.1089
0.109514
0.10854
0.108598
0.108928
0.108665
0.109749
0.109296
0.110803
0.110258
0.111978
0.111381
0.113132
0.112567
0.114129
0.113657
0.114863
0.114536
0.115225
0.115096
0.115175
0.115246
0.114758
0.115018
0.113805
0.114353
0.113121
0.169789
0.226089
0.207686
0.237145
0.233919
0.239597
0.238642
0.241426
0.240465
0.243826
0.242546
0.246579
0.245205
0.248745
0.247808
0.249275
0.249262
0.247869
0.248785
0.245291
0.246656
0.242637
0.243916
0.240555
0.241517
0.23874
0.239688
0.234105
0.237268
0.22641
0.1124
0.114416
0.113465
0.115947
0.115247
0.116895
0.116498
0.117388
0.117182
0.117514
0.117507
0.117218
0.117414
0.116582
0.116937
0.1157
0.116166
0.114678
0.115198
0.113706
0.114173
0.112907
0.113275
0.112483
0.112631
0.112691
0.112486
0.11399
0.113169
0.117111
0.115265
0.122871
0.119638
0.130913
0.126718
0.139451
0.135237
0.147337
0.14347
0.155089
0.15118
0.163294
0.159111
0.172103
0.16763
0.181562
0.176742
0.191914
0.186598
0.203325
0.197508
0.216164
0.209518
0.231293
0.223396
0.249144
0.23987
0.333798
0.33391
0.331791
0.332958
0.329595
0.330564
0.327737
0.328687
0.326157
0.326875
0.325204
0.325615
0.324569
0.324872
0.323813
0.324231
0.323631
0.323522
0.325419
0.325042
0.324022
0.32373
0.324808
0.324399
0.325736
0.325249
0.326784
0.326252
0.327873
0.327333
0.328721
0.328356
0.330274
0.329395
0.332121
0.331202
0.333389
0.337505
0.334842
0.338379
0.188379
0.237079
0.163953
0.16059
0.227215
0.191208
0.287608
0.259287
0.328766
0.312745
0.328902
0.236483
0.16376
0.193169
0.103799
0.112633
0.303308
0.314064
0.309772
0.275026
0.293707
0.210618
0.246573
0.153976
0.175665
0.171715
0.154408
0.216757
0.195436
0.246279
0.233424
0.269822
0.257174
0.287272
0.283741
0.294858
0.441789
0.476509
0.370205
0.337505
0.177118
0.287349
0.286057
0.372874
0.334499
0.324862
0.333014
0.314967
0.290438
0.268794
0.415853
0.38094
0.372162
0.295989
0.388165
0.386152
0.380397
0.258294
0.279795
0.286477
0.38835
0.245381
0.319639
0.470401
0.357556
0.249969
0.299841
0.490293
0.477253
0.343553
0.355829
0.0963823
0.109349
0.349178
0.332406
0.279409
0.17146
0.309515
0.0499907
0.487395
0.277623
0.0549489
0.110336
0.111223
0.266388
0.332626
0.127903
0.197636
0.106667
0.157059
0.210625
0.0829317
0.096488
0.284411
0.191916
0.400843
0.295535
0.297737
0.302253
0.432485
0.413728
0.483013
0.471793
0.36302
0.363537
0.320588
0.196781
0.288553
0.355733
0.345489
0.331761
0.335537
0.325423
0.334751
0.341435
0.295358
0.345348
0.166977
0.214109
0.0667043
0.236258
0.292392
0.288449
0.286827
0.28771
0.387448
0.326497
0.32571
0.325968
0.323109
0.441822
0.365626
0.356552
0.341303
0.337688
0.339014
0.357332
0.34265
0.344974
0.203544
0.262204
0.491793
0.38897
0.303526
0.34943
0.34169
0.187748
0.341467
0.0616227
0.053186
0.314687
0.0797731
0.334015
0.076315
0.279272
0.316182
0.28818
0.285394
0.352988
0.403371
0.311731
0.418671
0.384711
0.349635
0.296236
0.342414
0.487749
0.449877
0.360934
0.353015
0.347349
0.175856
0.291192
0.339106
0.329752
0.336547
0.325964
0.344178
0.323674
0.342625
0.269645
0.356445
0.314068
0.108002
0.0686309
0.368913
0.242725
0.256792
0.290862
0.297109
0.290454
0.386551
0.327815
0.25767
0.310742
0.32868
0.346176
0.491972
0.0891595
0.299763
0.178038
0.261145
0.31576
0.115275
0.288554
0.286741
0.336889
0.404907
0.322854
0.400005
0.375556
0.490731
0.238329
0.161238
0.363389
0.399507
0.293712
0.423148
0.334593
0.328172
0.337506
0.32686
0.328303
0.233219
0.359139
0.17829
0.184774
0.0365712
0.291431
0.401391
0.295438
0.29707
0.294855
0.373928
0.331366
0.338518
0.360219
0.25397
0.344536
0.336668
0.235312
0.21196
0.273073
0.255005
0.2978
0.287718
0.304647
0.303376
0.300864
0.280746
0.22483
0.230859
0.209219
0.217396
0.191265
0.20039
0.172112
0.18179
0.152666
0.162395
0.133537
0.143019
0.116245
0.124535
0.101819
0.108686