/*--------------------------------*- C++ -*----------------------------------*\
| =========                 |                                                 |
| \\      /  F ield         | OpenFOAM: The Open Source CFD Toolbox           |
|  \\    /   O peration     | Version:  2212                                  |
|   \\  /    A nd           | Website:  www.openfoam.com                      |
|    \\/     M anipulation  |                                                 |
\*---------------------------------------------------------------------------*/
FoamFile
{
    version     2.0;
    format      ascii;
    arch        "LSB;label=32;scalar=64";
    class       volVectorField;
    location    "0.000309";
    object      U;
}
// * * * * * * * * * * * * * * * * * * * * * * * * * * * * * * * * * * * * * //

dimensions      [0 1 -1 0 0 0 0];

internalField   nonuniform List<vector> 
26145
(
(2.43818e-11 -0.710884 -12.3714)
(1.27203e-11 -0.198575 -7.12755)
(1.29641e-11 -0.151207 -6.42462)
(1.45191e-11 -0.0231654 -5.75397)
(7.49471e-12 0.090657 -5.22316)
(7.98218e-12 0.18544 -4.74463)
(7.41493e-12 0.260204 -4.33703)
(5.9727e-12 0.320884 -3.98108)
(5.49598e-12 0.371224 -3.66407)
(5.07955e-12 0.415355 -3.37659)
(4.63754e-12 0.454212 -3.12001)
(4.17296e-12 0.488147 -2.88891)
(3.75872e-12 0.51825 -2.67748)
(2.98869e-12 0.545395 -2.48501)
(2.6676e-12 0.570662 -2.30663)
(2.42246e-12 0.595797 -2.12929)
(2.13444e-12 0.622436 -1.93753)
(1.80608e-12 0.650677 -1.73753)
(1.50727e-12 0.678996 -1.5436)
(1.17271e-12 0.706256 -1.36181)
(9.67679e-13 0.73173 -1.19325)
(5.39715e-13 0.755678 -1.03359)
(3.10354e-13 0.77882 -0.879254)
(1.21659e-13 0.802159 -0.727546)
(-9.25781e-14 0.825586 -0.578247)
(-2.96375e-13 0.849519 -0.432111)
(-5.45791e-13 0.871775 -0.286677)
(-7.70355e-13 0.892872 -0.141657)
(-9.85233e-13 0.904861 0.00546383)
(-1.30734e-12 0.928321 0.150619)
(-1.50953e-12 0.967335 0.286253)
(-1.35612e-12 0.991605 0.413281)
(-1.51436e-12 1.01248 0.534478)
(-1.63696e-12 1.03308 0.654746)
(-1.76737e-12 1.05304 0.77385)
(-1.89328e-12 1.07361 0.892544)
(-2.03182e-12 1.09408 1.00426)
(-2.1996e-12 1.11291 1.10174)
(-2.32241e-12 1.12949 1.18752)
(-2.55368e-12 1.14385 1.26987)
(-2.87912e-12 1.15762 1.35453)
(-2.02049e-12 1.17238 1.44432)
(-2.34726e-12 1.18806 1.54279)
(-2.60087e-12 1.20463 1.65244)
(-2.79897e-12 1.2216 1.76932)
(-3.02982e-12 1.238 1.88586)
(-3.80376e-12 1.25294 1.99695)
(-2.46724e-12 1.26664 2.09916)
(-1.49326e-12 1.27969 2.18928)
(-2.58808e-12 1.29144 2.26509)
(-2.88411e-12 1.30065 2.32475)
(-2.93738e-12 1.30691 2.36825)
(-2.97009e-12 1.30794 2.3969)
(-3.04005e-12 1.30136 2.41641)
(-3.99141e-12 1.28465 2.43308)
(-2.48675e-12 1.2509 2.45006)
(-1.14518e-12 1.19448 2.45853)
(-2.0914e-12 1.11527 2.44202)
(-2.30293e-12 1.00977 2.38158)
(-2.40541e-12 0.864293 2.26459)
(-2.65584e-12 0.693081 2.05486)
(-1.48111e-12 0.491191 1.74254)
(-1.89999e-12 0.382479 1.31421)
(-1.83718e-12 0.497653 0.822077)
(-1.296e-12 0.988578 0.654306)
(-1.98931e-12 1.63275 1.46858)
(-2.61192e-12 2.37377 3.39908)
(-4.15061e-12 3.40563 6.61346)
(-7.68024e-12 5.14975 11.2351)
(-1.15922e-11 8.57037 17.9566)
(-9.12742e-12 16.1778 26.7741)
(-2.43343e-11 29.2774 39.9535)
(3.70741e-11 -2.11454 -23.3437)
(3.17998e-11 -1.28121 -14.9514)
(2.77518e-11 -0.584512 -13.9362)
(2.51592e-11 -0.184768 -12.8417)
(2.15818e-11 0.123674 -11.8769)
(1.99652e-11 0.369508 -10.9445)
(1.89007e-11 0.571004 -10.1098)
(1.38353e-11 0.734723 -9.34888)
(1.33945e-11 0.872499 -8.65187)
(1.2563e-11 0.993794 -8.00361)
(1.14864e-11 1.10136 -7.41014)
(1.04782e-11 1.19614 -6.86525)
(1.04087e-11 1.28051 -6.3608)
(7.63308e-12 1.35659 -5.89738)
(6.60566e-12 1.42674 -5.4655)
(6.17592e-12 1.4962 -5.03489)
(5.48913e-12 1.57195 -4.56884)
(4.68191e-12 1.65422 -4.07818)
(3.93654e-12 1.73642 -3.59653)
(3.04112e-12 1.81466 -3.14009)
(3.52447e-12 1.88749 -2.71355)
(2.21593e-12 1.95647 -2.30778)
(7.70542e-13 2.02383 -1.91383)
(3.33902e-13 2.09083 -1.52459)
(-2.28602e-13 2.1579 -1.13793)
(-7.19955e-13 2.22618 -0.755901)
(-1.4203e-12 2.29111 -0.375183)
(-1.99758e-12 2.35555 0.00563526)
(-2.52672e-12 2.42176 0.385204)
(-3.33691e-12 2.483 0.755555)
(-2.64917e-12 2.54926 1.11022)
(-2.40313e-12 2.61776 1.45209)
(-3.96354e-12 2.67842 1.7786)
(-4.34547e-12 2.73819 2.10122)
(-4.69284e-12 2.79774 2.42184)
(-5.03696e-12 2.85829 2.74195)
(-5.44194e-12 2.91703 3.0448)
(-5.90564e-12 2.96968 3.31085)
(-5.28725e-12 3.01616 3.54661)
(-5.19404e-12 3.05906 3.77282)
(-5.68108e-12 3.10195 4.00518)
(-5.04825e-12 3.14618 4.25047)
(-6.46571e-12 3.19331 4.51819)
(-6.36202e-12 3.24398 4.8145)
(-6.25474e-12 3.29608 5.12814)
(-7.09457e-12 3.34665 5.44106)
(-6.70817e-12 3.39368 5.74357)
(-6.1798e-12 3.43809 6.03088)
(-6.35821e-12 3.48096 6.29615)
(-7.09041e-12 3.52242 6.53862)
(-6.74195e-12 3.55924 6.7563)
(-7.30766e-12 3.58798 6.94633)
(-6.81265e-12 3.60178 7.10667)
(-7.80067e-12 3.5916 7.23891)
(-7.8683e-12 3.54628 7.33456)
(-5.70253e-12 3.4553 7.38735)
(-6.52886e-12 3.3236 7.38064)
(-6.76383e-12 3.15553 7.28424)
(-6.5772e-12 2.94926 7.04702)
(-6.52058e-12 2.6796 6.64408)
(-6.56844e-12 2.41028 6.01383)
(-6.0712e-12 2.1465 5.2554)
(-5.83095e-12 2.02805 4.34075)
(-5.51506e-12 2.17974 3.3437)
(-5.35201e-12 2.75979 3.0006)
(-5.66969e-12 3.52414 4.37179)
(-7.06528e-12 4.44056 7.89365)
(-1.02584e-11 5.75031 13.6172)
(-1.58351e-11 8.09846 21.3678)
(-2.40612e-11 12.7546 31.0086)
(-2.0322e-11 20.2576 41.5866)
(-2.90405e-11 31.1847 51.1043)
(4.58111e-11 -1.74871 -29.0553)
(4.18605e-11 -1.10086 -19.9368)
(3.48331e-11 -0.409451 -18.7372)
(3.32372e-11 0.0340254 -17.4576)
(3.03581e-11 0.410972 -16.263)
(2.79427e-11 0.723935 -15.091)
(2.62496e-11 0.992338 -14.0112)
(2.1836e-11 1.21587 -13.0139)
(1.98798e-11 1.40925 -12.0869)
(1.83571e-11 1.58102 -11.2089)
(1.67067e-11 1.73647 -10.3895)
(1.51538e-11 1.87574 -9.6293)
(1.47988e-11 2.00151 -8.92093)
(1.25397e-11 2.11561 -8.26434)
(1.03618e-11 2.22057 -7.64875)
(9.46495e-12 2.32415 -7.03344)
(8.38959e-12 2.43696 -6.36612)
(7.27268e-12 2.55905 -5.65995)
(7.58933e-12 2.6809 -4.96264)
(5.99401e-12 2.7971 -4.29796)
(4.88466e-12 2.90588 -3.67359)
(4.04071e-12 3.00964 -3.07737)
(1.54241e-12 3.11154 -2.49664)
(7.5372e-13 3.21336 -1.92133)
(-1.21165e-13 3.31602 -1.34663)
(7.81473e-13 3.41981 -0.776771)
(-2.29048e-13 3.51746 -0.206295)
(-2.95123e-12 3.62031 0.366164)
(-1.85633e-12 3.7229 0.932221)
(-2.75725e-12 3.82236 1.48245)
(-5.41494e-12 3.92083 2.01155)
(-5.76674e-12 4.01771 2.52027)
(-6.18513e-12 4.11237 3.01444)
(-6.62576e-12 4.20618 3.50319)
(-7.11328e-12 4.3003 3.99103)
(-7.66229e-12 4.39471 4.47807)
(-8.33367e-12 4.48499 4.93964)
(-9.19657e-12 4.56679 5.34802)
(-5.72268e-12 4.64025 5.71154)
(-5.67573e-12 4.70742 6.05837)
(-9.67952e-12 4.77515 6.41416)
(-1.00524e-11 4.84526 6.78817)
(-1.069e-11 4.92032 7.19466)
(-9.61695e-12 5.0013 7.64258)
(-1.02121e-11 5.08426 8.11483)
(-1.06261e-11 5.16439 8.58666)
(-1.15351e-11 5.23806 9.04347)
(-1.14962e-11 5.30777 9.48166)
(-1.1221e-11 5.37514 9.89218)
(-1.12973e-11 5.44237 10.2781)
(-1.1353e-11 5.50603 10.6381)
(-1.13395e-11 5.56044 10.9644)
(-1.13267e-11 5.59493 11.2465)
(-1.2305e-11 5.59564 11.4719)
(-1.20449e-11 5.54132 11.6056)
(-1.11078e-11 5.4246 11.6498)
(-9.94881e-12 5.26738 11.5996)
(-9.49394e-12 5.07742 11.4186)
(-1.04305e-11 4.85807 11.0334)
(-1.02245e-11 4.58093 10.4444)
(-1.01274e-11 4.31383 9.56585)
(-9.50241e-12 4.08282 8.48329)
(-9.34161e-12 3.96042 7.30192)
(-7.43971e-12 4.07987 6.08461)
(-6.97549e-12 4.55759 5.58192)
(-8.81545e-12 5.20292 6.77665)
(-1.02702e-11 6.06384 10.1852)
(-1.39313e-11 7.49142 15.7745)
(-1.91604e-11 9.98472 22.9437)
(-2.60152e-11 14.113 30.954)
(-2.65425e-11 20.075 39.5067)
(-3.6039e-11 27.6062 47.521)
(5.20166e-11 -1.32427 -32.2685)
(4.82302e-11 -0.710795 -22.8539)
(4.15372e-11 -0.0410752 -21.7175)
(3.86948e-11 0.410716 -20.4077)
(3.56322e-11 0.817099 -19.1294)
(3.27588e-11 1.15812 -17.8507)
(2.97907e-11 1.45899 -16.6408)
(2.67977e-11 1.71519 -15.507)
(2.47185e-11 1.9427 -14.4405)
(2.26158e-11 2.14686 -13.4179)
(2.05271e-11 2.33234 -12.4507)
(1.85524e-11 2.49925 -11.5454)
(1.65826e-11 2.65205 -10.6954)
(1.48349e-11 2.79199 -9.90256)
(1.34211e-11 2.92121 -9.15618)
(1.21413e-11 3.04886 -8.40833)
(1.07084e-11 3.18768 -7.59558)
(9.12064e-12 3.33769 -6.73217)
(9.01376e-12 3.48794 -5.87559)
(7.8637e-12 3.63213 -5.05514)
(4.77836e-12 3.76808 -4.28108)
(5.73124e-12 3.89854 -3.53946)
(4.38401e-12 4.02708 -2.81528)
(9.64701e-13 4.15593 -2.0964)
(-2.16793e-13 4.28633 -1.37657)
(1.69509e-13 4.41731 -0.662548)
(-5.06343e-13 4.54115 0.0600749)
(-3.83419e-12 4.67532 0.784794)
(-3.14113e-12 4.80524 1.49661)
(-3.82328e-12 4.93475 2.19241)
(-6.48489e-12 5.06258 2.8625)
(-7.35868e-12 5.18741 3.50658)
(-7.85818e-12 5.30988 4.13483)
(-8.51228e-12 5.43149 4.75731)
(-9.17112e-12 5.55347 5.37949)
(-9.91049e-12 5.67554 6.00036)
(-1.07443e-11 5.79141 6.58818)
(-1.14668e-11 5.89371 7.10561)
(-9.92698e-12 5.98467 7.5646)
(-1.00499e-11 6.07151 8.00637)
(-1.24829e-11 6.15976 8.45924)
(-1.30273e-11 6.25173 8.93501)
(-1.37339e-11 6.35025 9.45073)
(-1.10535e-11 6.45658 10.0175)
(-1.28276e-11 6.56628 10.615)
(-1.55057e-11 6.67394 11.2139)
(-1.65435e-11 6.77089 11.7898)
(-1.68231e-11 6.86202 12.3433)
(-1.67991e-11 6.94959 12.8636)
(-1.70845e-11 7.03806 13.3566)
(-1.70575e-11 7.12557 13.823)
(-1.70421e-11 7.20582 14.2517)
(-1.69415e-11 7.26684 14.6238)
(-1.66148e-11 7.29431 14.9145)
(-1.64013e-11 7.2549 15.0634)
(-1.36379e-11 7.14556 15.0916)
(-1.18874e-11 7.00024 15.014)
(-1.06755e-11 6.83383 14.7826)
(-1.18488e-11 6.65053 14.3175)
(-1.37051e-11 6.45517 13.6247)
(-1.34458e-11 6.23242 12.6162)
(-1.02558e-11 6.07218 11.4198)
(-1.06647e-11 5.96737 10.1504)
(-1.0048e-11 6.07891 8.79925)
(-9.50006e-12 6.42596 8.01858)
(-1.12692e-11 6.90057 8.726)
(-9.78793e-12 7.62361 11.3629)
(-1.36998e-11 8.95688 15.9577)
(-2.01222e-11 11.2165 21.8871)
(-2.59445e-11 14.679 28.6051)
(-3.19232e-11 19.2191 35.7174)
(-3.89397e-11 24.4538 42.499)
(5.38725e-11 -0.557161 -34.0417)
(5.01134e-11 -0.0313971 -24.8948)
(4.52883e-11 0.467915 -23.5841)
(4.22961e-11 0.916251 -22.3238)
(3.87834e-11 1.31504 -21.0063)
(3.52813e-11 1.65122 -19.6845)
(3.26376e-11 1.95616 -18.4042)
(2.99961e-11 2.22155 -17.1926)
(2.77978e-11 2.46159 -16.0431)
(2.67051e-11 2.68246 -14.9344)
(2.48283e-11 2.88292 -13.8748)
(2.21522e-11 3.06485 -12.8734)
(2.05488e-11 3.23309 -11.9261)
(1.66735e-11 3.38841 -11.0381)
(1.52519e-11 3.53285 -10.1996)
(1.37967e-11 3.67621 -9.35811)
(1.21416e-11 3.83254 -8.44228)
(1.03547e-11 4.00204 -7.46672)
(8.4991e-12 4.17281 -6.49562)
(6.94794e-12 4.33781 -5.56218)
(5.20249e-12 4.49437 -4.67862)
(5.45271e-12 4.64526 -3.83004)
(4.56565e-12 4.79417 -3)
(1.21312e-12 4.94354 -2.17482)
(2.52986e-12 5.09477 -1.34721)
(8.71068e-13 5.24725 -0.526251)
(6.6829e-14 5.39611 0.311403)
(1.13365e-12 5.55202 1.15291)
(-3.30487e-12 5.70508 1.97468)
(-6.86831e-12 5.8581 2.78156)
(-4.594e-12 6.00827 3.56009)
(-6.06672e-12 6.15484 4.30954)
(-9.52176e-12 6.29928 5.04202)
(-1.03097e-11 6.44351 5.76864)
(-1.11062e-11 6.58872 6.49504)
(-1.20006e-11 6.73442 7.21945)
(-1.25774e-11 6.87308 7.90528)
(-9.34727e-12 6.9956 8.50911)
(-1.11389e-11 7.10432 9.04478)
(-1.41844e-11 7.20855 9.56075)
(-1.49092e-11 7.31475 10.089)
(-1.56341e-11 7.42545 10.643)
(-1.66754e-11 7.54378 11.2417)
(-1.43052e-11 7.67087 11.8973)
(-1.63896e-11 7.8002 12.5848)
(-1.39807e-11 7.92491 13.2684)
(-1.64592e-11 8.04143 13.9312)
(-1.94001e-11 8.15116 14.5679)
(-1.97496e-11 8.25595 15.1661)
(-2.00201e-11 8.36021 15.7318)
(-2.02183e-11 8.46743 16.2734)
(-1.95546e-11 8.57252 16.7774)
(-2.00861e-11 8.6626 17.2141)
(-1.96556e-11 8.73024 17.5641)
(-1.49496e-11 8.73146 17.74)
(-1.44219e-11 8.65045 17.7639)
(-1.35363e-11 8.53866 17.6838)
(-1.34328e-11 8.41351 17.444)
(-1.15623e-11 8.29338 16.9745)
(-1.44586e-11 8.18067 16.2375)
(-1.6508e-11 8.04786 15.2196)
(-1.29339e-11 7.99708 14.01)
(-1.31364e-11 7.90986 12.7612)
(-1.4285e-11 8.03812 11.3871)
(-1.38194e-11 8.32871 10.3189)
(-1.40637e-11 8.72031 10.464)
(-1.21548e-11 9.30304 12.215)
(-1.49606e-11 10.4334 15.6729)
(-1.46485e-11 12.3008 20.4071)
(-2.10295e-11 14.9567 25.8494)
(-2.27675e-11 18.18 31.6354)
(-3.0913e-11 21.715 37.2038)
(5.27854e-11 0.198704 -35.2985)
(4.90887e-11 0.584277 -26.0758)
(4.50257e-11 1.04665 -24.7336)
(4.27282e-11 1.48861 -23.5557)
(3.93029e-11 1.85151 -22.2259)
(3.55106e-11 2.16646 -20.8934)
(3.31576e-11 2.45836 -19.5782)
(3.17238e-11 2.71796 -18.3259)
(3.00135e-11 2.9563 -17.1278)
(2.7655e-11 3.18106 -15.9685)
(2.69141e-11 3.3891 -14.8548)
(2.13949e-11 3.57973 -13.7934)
(2.06826e-11 3.75692 -12.7831)
(1.681e-11 3.92118 -11.832)
(1.53348e-11 4.0745 -10.9315)
(1.38176e-11 4.22718 -10.0264)
(1.20316e-11 4.39406 -9.04038)
(1.01538e-11 4.5755 -7.98825)
(8.27878e-12 4.75911 -6.93835)
(6.52162e-12 4.93749 -5.92634)
(4.79819e-12 5.10772 -4.96586)
(3.12814e-12 5.2725 -4.04171)
(1.79824e-12 5.43554 -3.13687)
(2.36275e-13 5.59943 -2.23669)
(3.32839e-12 5.76579 -1.33264)
(1.7935e-12 5.93483 -0.433512)
(-2.80457e-12 6.10342 0.486653)
(-2.23869e-12 6.27536 1.41179)
(-5.57252e-12 6.44648 2.31444)
(-8.94748e-12 6.61777 3.20273)
(-7.42648e-12 6.78597 4.06136)
(-8.66455e-12 6.95035 4.88938)
(-1.15322e-11 7.11278 5.69987)
(-1.22553e-11 7.27539 6.5047)
(-1.31278e-11 7.43931 7.30937)
(-1.39855e-11 7.60397 8.11163)
(-1.05431e-11 7.76088 8.87167)
(-4.99597e-12 7.89963 9.542)
(-1.05523e-11 8.02281 10.1375)
(-1.64768e-11 8.14118 10.7113)
(-1.71012e-11 8.26207 11.2979)
(-1.79246e-11 8.38837 11.9113)
(-1.86815e-11 8.52379 12.5719)
(-1.95673e-11 8.66991 13.2924)
(-2.10591e-11 8.81911 14.0455)
(-1.77886e-11 8.96214 14.7921)
(-1.98886e-11 9.0962 15.5176)
(-2.18299e-11 9.22278 16.2153)
(-2.23623e-11 9.34387 16.8718)
(-2.25925e-11 9.4635 17.4924)
(-2.26046e-11 9.58438 18.0832)
(-1.6611e-11 9.70398 18.6304)
(-1.94857e-11 9.8165 19.1119)
(-2.19299e-11 9.92844 19.5227)
(-1.76782e-11 9.99019 19.7578)
(-2.03464e-11 9.95313 19.798)
(-1.80406e-11 9.88526 19.7367)
(-2.01267e-11 9.80396 19.5235)
(-1.64615e-11 9.7586 19.0872)
(-1.76486e-11 9.7257 18.3782)
(-1.87085e-11 9.68847 17.4493)
(-1.76979e-11 9.75498 16.2699)
(-1.71055e-11 9.75739 15.0649)
(-1.64431e-11 9.91179 13.7487)
(-1.58772e-11 10.1705 12.4449)
(-1.55571e-11 10.5405 12.0647)
(-1.20539e-11 10.983 13.0684)
(-1.50355e-11 11.8385 15.4555)
(-1.05504e-11 13.3174 19.0416)
(-1.78962e-11 15.2857 23.2519)
(-2.36408e-11 17.569 27.8515)
(-2.92012e-11 20.0108 32.3745)
(5.00547e-11 0.878201 -36.0709)
(4.49186e-11 1.18522 -26.8359)
(4.05691e-11 1.671 -25.5123)
(3.77978e-11 2.06234 -24.3493)
(3.52647e-11 2.37565 -23.0118)
(3.2702e-11 2.66189 -21.6761)
(3.03186e-11 2.93219 -20.3456)
(2.98575e-11 3.17784 -19.0741)
(2.9374e-11 3.40631 -17.8512)
(2.32907e-11 3.62381 -16.6633)
(2.30529e-11 3.83074 -15.5188)
(2.01721e-11 4.02413 -14.4233)
(1.96382e-11 4.20503 -13.3753)
(1.67327e-11 4.3733 -12.3852)
(1.59381e-11 4.5309 -11.4454)
(1.15826e-11 4.6883 -10.4996)
(9.91249e-12 4.8608 -9.46862)
(8.10919e-12 5.04891 -8.36729)
(6.27209e-12 5.24019 -7.26637)
(4.48556e-12 5.42711 -6.20285)
(2.78771e-12 5.60656 -5.19127)
(1.20749e-12 5.78117 -4.21657)
(-1.17003e-13 5.95459 -3.26167)
(9.87233e-13 6.12962 -2.31129)
(1.1312e-12 6.30807 -1.35569)
(-2.87804e-12 6.49089 -0.40397)
(-3.49721e-12 6.6732 0.57273)
(-5.55636e-12 6.8593 1.55572)
(-9.75775e-12 7.04541 2.51453)
(-1.09454e-11 7.23195 3.45965)
(-1.19474e-11 7.41538 4.37481)
(-1.28507e-11 7.59486 5.25895)
(-1.37219e-11 7.77246 6.1257)
(-1.42113e-11 7.95044 6.98731)
(-1.53941e-11 8.12988 7.84897)
(-1.63184e-11 8.31004 8.70807)
(-1.38843e-11 8.48177 9.52294)
(-1.2202e-11 8.63399 10.2436)
(-1.13545e-11 8.76933 10.8855)
(-1.57195e-11 8.89949 11.5048)
(-1.92537e-11 9.03243 12.1375)
(-2.02119e-11 9.17129 12.798)
(-2.06161e-11 9.32033 13.5075)
(-2.18689e-11 9.4815 14.2784)
(-2.25749e-11 9.64632 15.0808)
(-2.34514e-11 9.80514 15.8743)
(-1.83477e-11 9.95619 16.6459)
(-1.49856e-11 10.1018 17.39)
(-2.09193e-11 10.2424 18.0927)
(-2.45887e-11 10.3811 18.7597)
(-1.89753e-11 10.5208 19.397)
(-1.59843e-11 10.6604 19.9865)
(-2.2877e-11 10.7935 20.5069)
(-2.31503e-11 10.9198 20.9402)
(-2.33567e-11 11.049 21.2575)
(-2.31414e-11 11.0897 21.3583)
(-2.27729e-11 11.0598 21.3175)
(-2.29596e-11 11.0234 21.1495)
(-1.62828e-11 11.0489 20.7808)
(-1.23691e-11 11.092 20.1383)
(-1.71712e-11 11.1538 19.3346)
(-1.91705e-11 11.2816 18.2582)
(-1.87928e-11 11.416 17.1069)
(-1.81305e-11 11.6205 15.8581)
(-1.77492e-11 11.8903 14.4351)
(-1.77503e-11 12.2362 13.6011)
(-1.48077e-11 12.63 14.0015)
(-1.69676e-11 13.2415 15.5016)
(-1.65724e-11 14.3878 18.0879)
(-2.05745e-11 15.8478 21.2264)
(-2.67945e-11 17.4946 24.7941)
(-2.93677e-11 19.2186 28.4106)
(4.26245e-11 1.54085 -36.5539)
(3.80998e-11 1.80863 -27.3046)
(3.42386e-11 2.23951 -26.0068)
(3.18306e-11 2.57078 -24.8432)
(2.95441e-11 2.84047 -23.5059)
(2.71703e-11 3.0969 -22.1715)
(2.47863e-11 3.34197 -20.8367)
(2.34203e-11 3.56826 -19.5583)
(2.42796e-11 3.7805 -18.3254)
(2.02909e-11 3.98403 -17.1234)
(1.59493e-11 4.17998 -15.9601)
(1.51171e-11 4.36658 -14.8441)
(1.49574e-11 4.54398 -13.7745)
(1.38845e-11 4.71136 -12.7614)
(1.4491e-11 4.86941 -11.7978)
(7.59585e-12 5.02812 -10.8268)
(6.17957e-12 5.20292 -9.76796)
(4.54873e-12 5.39436 -8.63649)
(2.85699e-12 5.59013 -7.50418)
(1.16023e-12 5.78272 -6.40852)
(-4.63951e-13 5.969 -5.36453)
(-2.05462e-12 6.15148 -4.35745)
(-3.59874e-12 6.33365 -3.37056)
(-3.44324e-12 6.51836 -2.38844)
(-4.49552e-12 6.70738 -1.40015)
(-7.98445e-12 6.90262 -0.415866)
(-4.06257e-12 7.09672 0.59717)
(-5.76896e-12 7.29674 1.61839)
(-1.24297e-11 7.49726 2.61377)
(-1.32465e-11 7.69868 3.59631)
(-1.41538e-11 7.89714 4.54928)
(-1.49504e-11 8.09167 5.4716)
(-1.55377e-11 8.28448 6.37714)
(-1.16901e-11 8.47789 7.27828)
(-1.39544e-11 8.67284 8.1798)
(-1.77855e-11 8.86849 9.07886)
(-1.82506e-11 9.05541 9.93305)
(-1.96031e-11 9.22163 10.6907)
(-1.66262e-11 9.36967 11.3676)
(-1.88606e-11 9.51197 12.0213)
(-2.12428e-11 9.65693 12.6893)
(-2.22441e-11 9.80771 13.3857)
(-1.69667e-11 9.96882 14.132)
(-2.00802e-11 10.1417 14.9402)
(-2.39811e-11 10.3179 15.7798)
(-2.5585e-11 10.4886 16.6115)
(-2.10811e-11 10.6532 17.4233)
(-1.95786e-11 10.8145 18.2091)
(-2.40917e-11 10.9734 18.9527)
(-2.65238e-11 11.1334 19.6599)
(-2.14784e-11 11.2979 20.3388)
(-1.65546e-11 11.4622 20.9701)
(-2.3099e-11 11.6218 21.5303)
(-1.76559e-11 11.7732 22.0004)
(-2.16643e-11 11.9211 22.3457)
(-2.33937e-11 12.0684 22.5555)
(-2.38775e-11 12.0876 22.543)
(-2.36934e-11 12.0924 22.4302)
(-1.87196e-11 12.1745 22.1416)
(-1.58883e-11 12.2925 21.5923)
(-2.02179e-11 12.4476 20.9024)
(-2.07294e-11 12.6182 19.9554)
(-2.07461e-11 12.8671 18.9123)
(-1.93438e-11 13.1469 17.7355)
(-1.96475e-11 13.4551 16.2741)
(-1.86778e-11 13.7956 15.1477)
(-1.92213e-11 14.2286 15.0422)
(-1.95421e-11 14.6759 15.8823)
(-2.04334e-11 15.5374 17.6188)
(-2.23775e-11 16.6304 19.8447)
(-2.38652e-11 17.8289 22.5256)
(-2.50953e-11 19.0563 25.3047)
(3.30868e-11 2.1118 -36.8487)
(3.15067e-11 2.34033 -27.5833)
(2.66106e-11 2.70097 -26.3076)
(2.47534e-11 2.97218 -25.1426)
(2.27167e-11 3.19953 -23.8069)
(2.05428e-11 3.42221 -22.4746)
(1.83228e-11 3.63757 -21.1401)
(1.60844e-11 3.83906 -19.8602)
(1.54972e-11 4.02949 -18.6238)
(1.45625e-11 4.2134 -17.4166)
(1.03452e-11 4.39148 -16.2443)
(8.82598e-12 4.56299 -15.1146)
(7.78344e-12 4.72909 -14.0277)
(9.08861e-12 4.88839 -12.9962)
(1.00801e-11 5.04108 -12.0143)
(2.98458e-12 5.1961 -11.0249)
(1.86135e-12 5.36813 -9.94666)
(4.55006e-13 5.55806 -8.79571)
(-9.56986e-13 5.75475 -7.64333)
(-2.1619e-12 5.95092 -6.52661)
(-9.09302e-13 6.14326 -5.46063)
(-1.67383e-12 6.33384 -4.43124)
(-3.7536e-12 6.52552 -3.42277)
(-5.18009e-12 6.72103 -2.42051)
(-9.55734e-12 6.92216 -1.41215)
(-1.10207e-11 7.13199 -0.410423)
(-1.02689e-11 7.34013 0.622574)
(-7.54628e-12 7.55653 1.66424)
(-1.14376e-11 7.7738 2.67744)
(-1.52301e-11 7.99278 3.67923)
(-1.60407e-11 8.20933 4.65306)
(-1.67423e-11 8.42244 5.59858)
(-1.74235e-11 8.63403 6.52849)
(-1.49664e-11 8.84629 7.45487)
(-1.68331e-11 9.06004 8.38219)
(-1.89978e-11 9.27459 9.30756)
(-1.47922e-11 9.47996 10.1882)
(-1.70362e-11 9.66296 10.9716)
(-2.06633e-11 9.82614 11.6731)
(-2.17031e-11 9.98284 12.3518)
(-1.71604e-11 10.1419 13.0453)
(-2.02222e-11 10.3066 13.7676)
(-1.97473e-11 10.4816 14.5399)
(-2.24822e-11 10.668 15.374)
(-2.54328e-11 10.8578 16.2398)
(-2.6198e-11 11.042 17.0992)
(-1.89982e-11 11.2215 17.9419)
(-2.22956e-11 11.3993 18.7627)
(-2.5992e-11 11.5763 19.5449)
(-2.65871e-11 11.7536 20.2936)
(-2.57543e-11 11.9342 21.0135)
(-2.06865e-11 12.1156 21.6836)
(-2.52798e-11 12.3007 22.2812)
(-1.98471e-11 12.4849 22.7894)
(-2.47836e-11 12.6666 23.1717)
(-1.74792e-11 12.8481 23.4205)
(-2.16892e-11 12.9797 23.5086)
(-2.27922e-11 13.0213 23.4414)
(-2.1923e-11 13.1424 23.2285)
(-2.19619e-11 13.333 22.7777)
(-2.23502e-11 13.5623 22.1889)
(-1.4733e-11 13.7965 21.3816)
(-1.76649e-11 14.1333 20.4674)
(-1.27204e-11 14.4889 19.3608)
(-1.61044e-11 14.8544 17.9246)
(-1.18836e-11 15.2338 16.6572)
(-1.4952e-11 15.6751 16.141)
(-1.88716e-11 16.0913 16.5293)
(-1.28608e-11 16.7313 17.6106)
(-1.63346e-11 17.571 19.0912)
(-2.17874e-11 18.4671 21.0232)
(-2.26076e-11 19.3656 23.0735)
(2.48162e-11 2.55164 -37.0252)
(2.56683e-11 2.71983 -27.7247)
(1.95454e-11 2.99743 -26.4785)
(1.81974e-11 3.20915 -25.3031)
(1.63927e-11 3.39114 -23.9641)
(1.44618e-11 3.57231 -22.6333)
(1.26257e-11 3.74838 -21.3024)
(1.20669e-11 3.9144 -20.0257)
(1.14145e-11 4.07237 -18.7913)
(7.14119e-12 4.22622 -17.5836)
(5.37554e-12 4.37729 -16.4069)
(4.20816e-12 4.52594 -15.2695)
(4.58567e-12 4.67294 -14.1735)
(5.1778e-12 4.81649 -13.1325)
(2.85272e-12 4.95664 -12.1411)
(-8.52284e-13 5.10141 -11.1417)
(-1.76144e-12 5.26475 -10.0521)
(-2.93929e-12 5.44813 -8.8886)
(-4.10685e-12 5.64128 -7.72379)
(-5.21293e-12 5.83777 -6.59497)
(-2.83213e-12 6.03424 -5.51726)
(-3.02937e-12 6.23201 -4.47659)
(-7.42859e-12 6.4332 -3.45713)
(-8.21315e-12 6.64013 -2.4437)
(-1.14763e-11 6.85511 -1.42183)
(-1.26499e-11 7.08384 -0.407354)
(-1.3265e-11 7.3146 0.644826)
(-9.14656e-12 7.55685 1.71263)
(-1.10683e-11 7.80096 2.7472)
(-1.65057e-11 8.04784 3.76866)
(-1.70872e-11 8.29239 4.75904)
(-1.76023e-11 8.53292 5.7171)
(-1.77022e-11 8.77238 6.6578)
(-1.84887e-11 9.01299 7.59506)
(-1.90955e-11 9.25487 8.53527)
(-1.48889e-11 9.49744 9.47532)
(-1.3545e-11 9.72963 10.3712)
(-1.87776e-11 9.9368 11.17)
(-2.12699e-11 10.1217 11.887)
(-2.2519e-11 10.2989 12.5817)
(-1.9106e-11 10.4778 13.2918)
(-2.16691e-11 10.6618 14.0307)
(-2.38832e-11 10.8557 14.8192)
(-1.88694e-11 11.0615 15.6689)
(-2.20552e-11 11.2702 16.5509)
(-2.61281e-11 11.474 17.4297)
(-2.0898e-11 11.6757 18.2971)
(-2.38883e-11 11.8775 19.1467)
(-2.57091e-11 12.0768 19.9571)
(-2.63633e-11 12.2725 20.7329)
(-1.82863e-11 12.4652 21.484)
(-2.07614e-11 12.6578 22.1948)
(-2.53067e-11 12.8549 22.8387)
(-2.36781e-11 13.0636 23.3906)
(-2.64555e-11 13.2767 23.8118)
(-1.25491e-11 13.4908 24.0871)
(-1.26831e-11 13.6903 24.2484)
(-1.87546e-11 13.8138 24.2427)
(-2.12522e-11 13.9762 24.0953)
(-2.21219e-11 14.2217 23.7445)
(-1.48581e-11 14.514 23.2496)
(-1.26351e-11 14.8184 22.5695)
(-1.99091e-11 15.2286 21.7802)
(-1.60008e-11 15.6429 20.7505)
(-1.97599e-11 16.0696 19.372)
(-1.55793e-11 16.5058 18.0713)
(-1.84977e-11 16.959 17.3113)
(-2.11591e-11 17.4329 17.3327)
(-1.63417e-11 17.9351 17.9377)
(-1.87852e-11 18.6137 18.8601)
(-2.23157e-11 19.3137 20.1631)
(-2.26655e-11 19.9888 21.6424)
(1.79201e-11 2.81025 -37.14)
(1.83313e-11 2.88713 -27.8275)
(1.43487e-11 3.07364 -26.5886)
(1.30524e-11 3.21563 -25.4184)
(1.14162e-11 3.34144 -24.0836)
(9.7038e-12 3.4717 -22.7485)
(7.96057e-12 3.60124 -21.4087)
(7.01596e-12 3.72583 -20.1224)
(6.98047e-12 3.84489 -18.8799)
(3.39914e-12 3.96152 -17.6645)
(1.88952e-12 4.07857 -16.4792)
(6.77049e-13 4.19836 -15.331)
(5.81281e-13 4.32143 -14.2227)
(8.79356e-13 4.44554 -13.1689)
(-1.7103e-12 4.56997 -12.1647)
(-2.98845e-12 4.70114 -11.1529)
(-3.75368e-12 4.85234 -10.0503)
(-4.88483e-12 5.02568 -8.8743)
(-5.88908e-12 5.21327 -7.69697)
(-6.80606e-12 5.40973 -6.55554)
(-6.40268e-12 5.61167 -5.46534)
(-3.97479e-12 5.81937 -4.41282)
(-4.86175e-12 6.03341 -3.38306)
(-8.12066e-12 6.25524 -2.36121)
(-1.20331e-11 6.4881 -1.33013)
(-1.29748e-11 6.7358 -0.309468)
(-1.10888e-11 6.99762 0.747009)
(-1.00311e-11 7.26668 1.82126)
(-1.38421e-11 7.54001 2.85949)
(-1.64889e-11 7.81781 3.88641)
(-1.69292e-11 8.09539 4.88395)
(-1.71433e-11 8.3704 5.85232)
(-1.33406e-11 8.64548 6.80637)
(-1.48604e-11 8.92348 7.75763)
(-1.85301e-11 9.20461 8.70764)
(-1.58295e-11 9.48681 9.6536)
(-1.75388e-11 9.75761 10.555)
(-2.02698e-11 10.0003 11.3597)
(-1.58478e-11 10.2178 12.083)
(-1.81312e-11 10.426 12.7845)
(-2.16293e-11 10.6351 13.5023)
(-2.28516e-11 10.8484 14.2489)
(-2.37407e-11 11.0716 15.0446)
(-2.01143e-11 11.3077 15.9007)
(-2.26235e-11 11.5473 16.7901)
(-2.52462e-11 11.7836 17.6815)
(-2.41798e-11 12.0187 18.5667)
(-2.42365e-11 12.2511 19.4357)
(-2.47648e-11 12.4758 20.2652)
(-2.51562e-11 12.6923 21.0591)
(-1.86197e-11 12.9059 21.8306)
(-2.18779e-11 13.1182 22.5667)
(-2.4383e-11 13.3292 23.2481)
(-1.65016e-11 13.5486 23.8483)
(-1.35823e-11 13.7764 24.3203)
(-1.38898e-11 14.0203 24.6372)
(-1.55988e-11 14.2578 24.8301)
(-2.06439e-11 14.4676 24.8918)
(-2.15211e-11 14.6868 24.8045)
(-2.20362e-11 14.9788 24.5472)
(-1.55392e-11 15.3241 24.1413)
(-1.95074e-11 15.6956 23.5836)
(-1.31611e-11 16.1658 22.8955)
(-1.56891e-11 16.6246 21.9281)
(-2.05436e-11 17.1149 20.6359)
(-2.00802e-11 17.6244 19.3711)
(-2.12625e-11 18.1315 18.5037)
(-2.13542e-11 18.6303 18.2469)
(-2.16005e-11 19.1211 18.5283)
(-2.1555e-11 19.69 19.0258)
(-2.18579e-11 20.2585 19.8042)
(-2.18993e-11 20.7849 20.8149)
(1.39929e-11 2.85326 -37.2656)
(1.33662e-11 2.81435 -27.9541)
(1.10588e-11 2.89067 -26.6765)
(9.75174e-12 2.96205 -25.4798)
(8.28046e-12 3.02238 -24.1286)
(6.7208e-12 3.08618 -22.7837)
(5.25429e-12 3.1507 -21.4379)
(3.73639e-12 3.21315 -20.1463)
(4.13171e-12 3.27314 -18.8973)
(3.15219e-12 3.33306 -17.6747)
(-4.60858e-13 3.39821 -16.4801)
(-1.28254e-12 3.4737 -15.3193)
(-2.0278e-12 3.55956 -14.1963)
(-2.23624e-12 3.65248 -13.1275)
(-2.96658e-12 3.75129 -12.1082)
(-2.17381e-12 3.8612 -11.0809)
(-2.26416e-12 3.99402 -9.96153)
(-5.53684e-12 4.15146 -8.76929)
(-4.24059e-12 4.32906 -7.57632)
(-2.54987e-12 4.52314 -6.41983)
(-5.55764e-12 4.73051 -5.31529)
(-7.37018e-12 4.95002 -4.24965)
(-6.56981e-12 5.18031 -3.20905)
(-6.11546e-12 5.42217 -2.17865)
(-6.35316e-12 5.68002 -1.14089)
(-9.94834e-12 5.95273 -0.110258)
(-1.16539e-11 6.26135 0.952201)
(-9.23055e-12 6.56997 2.03061)
(-1.19795e-11 6.88875 3.07251)
(-1.53691e-11 7.21266 4.10238)
(-1.57449e-11 7.5394 5.10164)
(-1.60438e-11 7.86522 6.07099)
(-1.36303e-11 8.19257 7.02503)
(-1.48167e-11 8.52319 7.97607)
(-1.69402e-11 8.85622 8.92732)
(-1.70063e-11 9.18956 9.87605)
(-1.79818e-11 9.50965 10.7807)
(-1.9013e-11 9.79837 11.5893)
(-1.61547e-11 10.0589 12.3169)
(-1.78713e-11 10.3099 13.0216)
(-2.05942e-11 10.5629 13.7402)
(-2.11572e-11 10.8206 14.4859)
(-2.17907e-11 11.0893 15.2803)
(-2.21583e-11 11.3721 16.1344)
(-1.68952e-11 11.6617 17.0245)
(-2.02164e-11 11.9502 17.9208)
(-2.25664e-11 12.234 18.8131)
(-1.6187e-11 12.5103 19.6893)
(-1.90588e-11 12.7688 20.5249)
(-2.2353e-11 13.0137 21.3268)
(-2.04073e-11 13.2552 22.1122)
(-2.18125e-11 13.4937 22.8681)
(-2.24712e-11 13.7324 23.5724)
(-1.66995e-11 13.9725 24.205)
(-1.45453e-11 14.2143 24.7274)
(-1.9243e-11 14.4668 25.0977)
(-1.99297e-11 14.7351 25.3332)
(-2.10521e-11 15.002 25.44)
(-2.06547e-11 15.2857 25.4063)
(-1.98921e-11 15.6218 25.2343)
(-1.94388e-11 16.0149 24.918)
(-2.06322e-11 16.447 24.4654)
(-1.4253e-11 16.9505 23.8566)
(-1.83668e-11 17.4567 22.95)
(-2.07172e-11 18.0189 21.7566)
(-2.04397e-11 18.6119 20.5633)
(-2.19346e-11 19.1925 19.6659)
(-1.27463e-11 19.7399 19.2408)
(-1.61299e-11 20.2394 19.2722)
(-2.15442e-11 20.7261 19.4568)
(-2.18091e-11 21.2103 19.834)
(-2.15287e-11 21.651 20.473)
(1.16738e-11 2.60828 -37.4151)
(1.0706e-11 2.43068 -28.0083)
(8.87436e-12 2.33609 -26.7365)
(7.67195e-12 2.30173 -25.5158)
(6.56323e-12 2.2645 -24.1429)
(6.27837e-12 2.23114 -22.7809)
(5.32971e-12 2.20113 -21.42)
(1.89523e-12 2.17582 -20.1143)
(1.50211e-12 2.15365 -18.8517)
(1.37934e-12 2.13573 -17.6155)
(-1.10236e-12 2.13047 -16.4054)
(-1.63066e-12 2.14636 -15.2259)
(-2.06528e-12 2.18229 -14.0825)
(-2.37137e-12 2.23369 -12.9931)
(-2.88928e-12 2.30024 -11.9519)
(-2.93544e-12 2.38314 -10.9019)
(-2.65813e-12 2.49158 -9.75923)
(-5.142e-12 2.62694 -8.54504)
(-5.05716e-12 2.78962 -7.33053)
(-3.72949e-12 2.9782 -6.15316)
(-2.977e-12 3.18985 -5.02887)
(-2.84024e-12 3.42212 -3.94533)
(-5.42695e-12 3.67125 -2.88984)
(-7.57878e-12 3.93772 -1.84789)
(-7.2469e-12 4.2266 -0.803237)
(-9.13827e-12 4.53302 0.242256)
(-1.13129e-11 4.89633 1.31391)
(-1.02374e-11 5.25591 2.39452)
(-1.08907e-11 5.63376 3.43897)
(-1.28578e-11 6.02252 4.46827)
(-1.31549e-11 6.41766 5.46692)
(-1.33199e-11 6.81619 6.4334)
(-1.33884e-11 7.21989 7.38275)
(-1.39619e-11 7.62937 8.32819)
(-1.43878e-11 8.04227 9.27317)
(-1.437e-11 8.45551 10.2145)
(-1.54311e-11 8.85312 11.1115)
(-1.61425e-11 9.21383 11.9136)
(-1.63174e-11 9.54078 12.6352)
(-1.23687e-11 9.85556 13.3345)
(-1.49635e-11 10.1712 14.0484)
(-1.836e-11 10.4921 14.7891)
(-1.91854e-11 10.8259 15.5775)
(-2.01474e-11 11.1774 16.4267)
(-1.61809e-11 11.5409 17.3127)
(-1.97589e-11 11.9064 18.2037)
(-1.4732e-11 12.2659 19.0901)
(-1.21064e-11 12.6082 19.9586)
(-1.81508e-11 12.9201 20.7863)
(-2.02352e-11 13.2128 21.5846)
(-1.18908e-11 13.4991 22.3704)
(-1.53574e-11 13.7783 23.1346)
(-1.87655e-11 14.0516 23.8583)
(-1.7854e-11 14.3245 24.5143)
(-1.78335e-11 14.5955 25.0643)
(-1.94304e-11 14.8637 25.4824)
(-1.0633e-11 15.1475 25.77)
(-1.47461e-11 15.4461 25.9251)
(-1.87692e-11 15.7829 25.9426)
(-1.01521e-11 16.163 25.8409)
(-1.39048e-11 16.5959 25.6107)
(-1.78286e-11 17.0741 25.2416)
(-1.73942e-11 17.5997 24.6939)
(-1.89135e-11 18.1532 23.8534)
(-2.04172e-11 18.7878 22.7648)
(-1.10542e-11 19.4679 21.6582)
(-1.62279e-11 20.1326 20.7729)
(-1.54535e-11 20.7445 20.2481)
(-1.00611e-11 21.2703 20.0701)
(-6.84625e-12 21.6914 20.0315)
(-1.4711e-11 22.1219 20.1432)
(-2.02792e-11 22.5196 20.4974)
(1.04683e-11 1.90563 -37.6256)
(9.5415e-12 1.47584 -28.0436)
(8.05096e-12 1.12402 -26.7927)
(7.18773e-12 0.961416 -25.5295)