/*--------------------------------*- C++ -*----------------------------------*\
| =========                 |                                                 |
| \\      /  F ield         | OpenFOAM: The Open Source CFD Toolbox           |
|  \\    /   O peration     | Version:  2212                                  |
|   \\  /    A nd           | Website:  www.openfoam.com                      |
|    \\/     M anipulation  |                                                 |
\*---------------------------------------------------------------------------*/
FoamFile
{
    version     2.0;
    format      ascii;
    arch        "LSB;label=32;scalar=64";
    class       volScalarField;
    location    "0.000171";
    object      p;
}
// * * * * * * * * * * * * * * * * * * * * * * * * * * * * * * * * * * * * * //

dimensions      [1 -1 -2 0 0 0 0];

internalField   nonuniform List<scalar> 
29939
(
122.744
122.706
119.609
115.821
114.711
114.423
114.127
113.945
113.611
113.545
114.794
117.406
122.199
123.546
122.588
123.797
127.057
131.263
136.809
142.763
148.66
154.757
161.943
169.234
177.446
186.556
198.023
210.179
224.405
236.751
247.884
255.19
260.475
263.213
264.623
265.296
265.423
264.84
264.078
262.861
260.824
257.831
253.514
247.917
241.095
232.846
227.195
206.451
105.564
104.973
102.475
100.696
99.7541
99.1607
98.8279
98.6655
98.6576
98.9181
100.329
102.245
105.446
108.805
110.23
111.572
114.566
118.493
123.219
128.459
133.906
139.327
145.168
151.985
159.546
168.09
178.301
189.569
202.116
213.379
223.457
230.827
236.059
238.747
239.853
240.182
240.05
239.392
238.665
237.583
235.91
233.923
231.357
228.011
223.862
218.323
214.274
203.936
99.8933
99.0821
97.1047
96.0732
95.1444
94.3908
93.9975
93.807
94.0441
94.5374
96.0167
97.6385
99.9386
104.163
107.022
108.425
111.278
115.145
119.601
124.635
129.983
135.217
140.649
147.258
154.628
163.043
172.84
183.925
195.864
206.834
216.516
224.263
229.577
232.391
233.569
233.89
233.745
233.086
232.343
231.26
229.667
228.044
226.181
223.8
220.691
215.994
212.195
203.645
97.516
96.7752
95.1638
94.2666
93.3155
92.5001
92.0597
91.8969
92.2361
92.9519
94.3905
95.905
97.7959
102.152
105.792
107.339
110.062
113.886
118.25
123.223
128.541
133.672
139.003
145.418
152.702
161.036
170.646
181.672
193.347
204.281
213.868
221.881
227.242
230.092
231.345
231.68
231.539
230.881
230.126
229.031
227.452
225.965
224.423
222.541
219.999
215.721
211.997
206.619
96.4885
95.9052
94.4942
93.5602
92.5953
91.7724
91.3172
91.2051
91.5707
92.3893
93.8306
95.3298
97.1049
101.195
105.301
107.053
109.732
113.542
117.873
122.868
128.167
133.203
138.482
144.778
152.053
160.331
169.814
180.783
192.361
203.407
213.092
221.263
226.534
229.342
230.664
231.009
230.873
230.212
229.444
228.338
226.745
225.272
223.834
222.16
219.87
216.9
214.228
209.572
96.049
95.5575
94.2398
93.253
92.3117
91.5047
91.0517
90.9713
91.3575
92.1511
93.6689
95.1728
96.9325
100.27
105.092
106.986
109.674
113.481
117.787
122.803
128.077
133.083
138.317
144.585
151.871
160.114
169.509
180.407
191.933
203.08
212.895
221.157
226.332
229.114
230.495
230.85
230.722
230.065
229.293
228.183
226.585
225.108
223.695
222.087
220.541
218.775
216.724
212.221
95.8915
95.4146
94.1516
93.1494
92.2381
91.4431
90.9926
90.9192
91.331
92.0919
93.6611
95.1648
96.9643
99.7654
105.026
107.481
109.848
113.494
117.786
122.802
128.051
133.07
138.298
144.577
151.858
160.093
169.447
180.296
191.782
202.986
212.88
221.356
226.313
229.085
230.633
231.635
231.876
231.335
230.393
229.088
227.416
225.822
224.304
223.054
221.915
220.488
219.009
214.834
95.8327
95.3574
94.1317
93.1715
92.2804
91.5085
91.0627
90.968
91.5522
92.3198
94.0945
95.4842
97.2591
99.6037
105.325
108.523
111.383
114.656
118.685
123.579
129.1
134.818
140.332
146.286
152.938
160.53
169.549
180.367
191.837
203.07
214.637
224.046
228.729
231.468
233.645
234.497
234.575
233.967
233.083
231.842
230.142
228.4
226.577
224.82
223.353
221.879
220.739
217.003
95.7983
95.3439
94.3163
93.8282
93.0582
92.3713
91.9176
91.8844
92.345
93.2515
94.9519
96.387
97.3014
99.6854
105.575
109.298
112.367
115.885
120.135
125.605
130.951
136.147
141.619
147.636
154.576
162.423
171.485
182.405
194.012
205.523
216.757
225.809
230.516
233.577
235.626
236.64
236.857
236.34
235.374
234.06
232.282
230.51
228.664
226.8
225.057
223.327
222.138
218.648
96.005
95.4961
95.1137
94.6206
94.0648
93.3136
92.9502
92.9073
93.7102
94.9244
96.2573
97.4196
98.1852
100.07
105.981
110.22
113.801
117.454
122.026
127.223
132.698
138.37
143.973
149.924
156.77
164.393
173.355
184.094
195.619
206.866
218.427
227.846
232.068
235.52
238.106
238.961
239.142
238.642
237.779
236.52
234.695
232.832
230.883
228.915
227.032
225.111
223.667
220.183
96.5613
96.5176
95.8858
95.7543
95.0044
94.1412
93.9346
94.0214
95.0343
96.3804
97.4383
98.693
99.712
101.414
106.482
110.812
114.74
118.701
123.356
128.914
134.548
139.882
145.554
151.56
158.429
166.186
175.113
186.02
197.743
208.998
220.466
229.782
234.127
238.257
240.487
241.378
241.577
241.088
240.152
238.878
237.014
235.12
233.118
231.056
229.081
227.097
225.498
221.924
97.572
97.6337
97.4454
97.0717
96.4293
95.6153
95.3484
95.3115
96.2206
97.5687
98.5833
99.9074
101.22
102.935
107.272
111.553
116.007
120.249
125.076
130.506
136.281
141.771
147.141
153.292
160.107
167.929
176.93
187.61
199.213
210.565
222.122
231.705
235.748
239.892
242.675
243.66
243.852
243.336
242.442
241.199
239.421
237.5
235.442
233.293
231.206
229.161
227.534
223.878
98.4232
99.0648
98.54
98.2524
97.447
96.6932
96.4748
96.4727
97.4532
98.8321
100.099
101.53
102.891
104.492
108.476
112.663
117.005
121.562
126.676
132.105
138.072
143.238
148.943
155.14
161.98
169.596
178.537
189.474
201.226
212.674
224.021
233.658
238.523
243.103
245.237
246.269
246.461
245.897
244.9
243.659
241.891
240.005
237.915
235.681
233.46
231.301
229.687
226.047
100.032
100.194
99.7592
99.5142
98.6539
97.9299
97.747
97.78
98.8653
100.347
101.623
103.124
105.006
106.534
109.73
113.672
118.415
123.132
128.445
133.807
140.222
145.525
150.816
156.92
163.718
171.487
180.49
191.31
202.897
214.471
225.803
235.075
240.434
244.813
247.461
248.774
248.986
248.469
247.489
246.229
244.413
242.548
240.441
238.136
235.775
233.43
231.762
228.189
104.003
101.962
101.379
100.917
100.24
99.7444
99.637
99.6789
100.599
102.137
103.837
105.338
107.059
108.669
111.777
115.386
119.889
124.715
129.763
135.297
141.896
146.998
152.728
158.912
165.803
173.508
182.513
193.492
205.173
216.632
228.22
237.807
243.518
247.815
250.171
251.4
251.652
251.142
250.107
248.869
247.057
245.148
243.031
240.677
238.198
235.661
233.779
230.188
108.124
104.541
103.337
102.831
102.028
101.797
101.73
101.659
102.43
104.018
105.649
107.151
108.814
110.818
113.409
116.909
121.456
126.493
131.968
137.579
143.937
149.548
154.752
161.022
168.045
175.692
184.618
195.616
207.269
218.834
230.214
239.953
245.404
250.176
252.891
254.098
254.409
253.973
252.968
251.717
249.893
247.921
245.762
243.378
240.823
238.166
236.046
232.342
109.587
107.909
105.58
104.792
104.112
103.766
103.715
103.655
104.549
106.161
107.676
108.967
110.886
112.818
115.564
118.803
122.858
127.971
133.506
139.229
144.967
150.944
156.664
162.726
169.716
177.657
186.73
197.753
209.502
221.099
232.259
242.923
248.526
254.013
256.39
257.212
257.38
256.892
255.849
254.65
252.87
250.907
248.738
246.32
243.697
240.95
238.679
234.877
110.934
112.235
108.33
107.039
106.077
105.851
105.803
105.776
106.325
107.788
109.33
110.878
112.812
114.985
117.529
120.801
124.426
129.118
134.436
140.454
146.347
152.3
157.863
164.17
171.707
179.627
188.492
199.686
211.398
223.112
234.438
244.89
251.267
256.569
259.292
260.283
260.455
259.995
258.922
257.675
255.885
253.994
251.849
249.422
246.734
243.872
241.496
237.651
112.245
116.534
111.278
109.429
108.281
107.867
107.767
107.911
108.553
109.858
111.124
112.452
114.697
117.025
119.494
122.889
126.818
131.116
136.308
142.038
147.769
153.058
159.375
165.89
173.242
181.506
190.748
201.745
213.48
225.181
236.872
247.579
253.653
259.896
262.503
263.399
263.538
263.062
261.948
260.729
258.96
257.103
255.002
252.578
249.827
246.818
244.302
240.416
113.374
119.488
114.497
112.235
110.823
110.122
109.997
110.246
110.779
111.858
113.368
115.193
117.203
119.432
122.053
125.249
128.889
133.192
138.256
144.126
150.051
155.363
161.334
167.923
174.964
183.334
192.616
203.829
215.576
227.443
239.098
249.681
255.445
262.126
265.158
266.373
266.653
266.318
265.195
263.939
262.137
260.277
258.2
255.795
253.009
249.864
247.176
243.218
115.41
120.668
116.439
114.63
113.069
112.114
112.121
112.347
112.832
113.821
115.201
116.798
119.155
121.499
123.918
127.265
131.199
135.658
140.868
146.418
152.392
157.938
163.374
169.798
177.282
185.123
194.652
205.899
217.734
229.664
241.533
252.493
259.272
265.641
268.439
269.501
269.736
269.417
268.277
267.02
265.215
263.387
261.353
258.966
256.151
252.863
250.007
245.976
118.165
121.207
118.372
117.102
115.641
114.726
114.075
114.192
114.806
115.927
117.415
119.102
121.175
123.438
126.24
129.478
133.193
137.689
142.568
148.188
153.971
160.279
165.86
172.438
179.478
187.559
196.548
207.924
219.8
231.784
243.445
254.024
261.93
268.189
270.922
272.175
272.567
272.416
271.317
270.047
268.199
266.357
264.362
262.012
259.2
255.782
252.708
248.54
120.819
121.435
120.197
118.816
117.68
116.999
116.239
116.176
116.875
117.995
119.175
120.712
123.007
125.067
127.695
131.498
135.259
139.827
144.971
150.692
156.345
162.078
167.932
174.234
181.369
189.37
198.633
210.124
222.085
234.182
246.01
257.024
265.201
271.448
274.172
275.317
275.657
275.488
274.4
273.14
271.27
269.415
267.404
265.09
262.317
258.833
255.52
251.089
122.786
121.259
121.983
120.98
119.686
118.79
118.441
118.2
118.841
119.881
121.236
123.395
125.285
127.767
130.796
133.833
137.785
142.162
147.149
152.581
158.453
163.971
170.326
176.652
183.839
192.043
200.851
212.345
224.35
236.617
248.145
259.243
267.551
273.898
276.861
278.221
278.641
278.591
277.545
276.276
274.36
272.488
270.494
268.231
265.537
262.092
258.625
253.88
125.335
122.034
123.433
122.425
121.331
120.452
120.327
120.093
120.662
121.61
122.88
125.141
127.281
129.596
132.347
136.181
140.156
144.61
149.341
154.797
160.547
166.86
172.265
178.672
185.861
193.885
203.223
214.623
226.652
239.011
250.899
262.225
271.314
277.403
280.308
281.584
281.921
281.818
280.762
279.483
277.52
275.646
273.711
271.501
268.913
265.57
262.096
257.107
127.091
123.869
124.842
123.923
122.923
122.264
122.114
121.904
122.308
123.251
125.084
127.355
129.429
131.839
134.952
137.954
141.963
146.325
151.558
157.373
163.342
168.805
174.726
181.249
188.532
196.709
205.751
216.945
228.945
241.19
253.202
264.383
273.754
279.848
282.897
284.52
285.024
285.026
283.969
282.667
280.619
278.678
276.776
274.676
272.2
268.931
265.544
260.439
129.579
126.928
126.596
125.516
124.484
124.063
123.999
123.689
123.949
125.105
127.287
128.993
131.054
133.706
136.774
140.405
144.015
148.342
153.794
159.491
165.244
171.392
177.228
183.688
190.718
198.72
208.19
219.35
231.331
243.358
255.506
266.815
276.465
282.749
285.596
287.456
288.051
288.082
287.04
285.781
283.703
281.701
279.739
277.691
275.289
272.02
268.661
263.437
133.093
131.32
128.717
127.679
126.751
126.478
126.385
125.639
125.869
127.707
129.83
131.641
133.714
136.222
138.953
142.118
146.385
151.032
156.29
162.237
167.948
174.137
180.179
186.714
193.852
202.088
210.952
221.902
233.901
245.918
258.053
269.54
279.102
285.186
288.411
290.556
291.245
291.314
290.297
289.062
286.94
284.859
282.827
280.728
278.377
275.14
271.713
266.288
138.271
135.929
132.333
130.243
129.445
130.002
129.85
128.126
128.484
130.105
131.877
133.482
135.884
138.476
141.629
144.82
148.465
152.979
158.073
163.947
170.353
176.327
182.274
188.625
196.133
204.366
213.506
224.501
236.536
248.659
260.717
272.519
282.507
287.897
291.422
293.677
294.57
294.644
293.646
292.461
290.335
288.209
286.09
283.96
281.668
278.55
275.095
269.403
146.296
140.703
137.417
134.991
134.658
135.794
134.251
130.79
131.254
132.912
134.422
136.058
137.986
140.642
143.368
146.942
150.876
155.871
161.063
166.644
172.72
178.935
184.921
191.61
198.765
207.331
216.408
227.266
239.35
251.54
263.597
275.303
285.356
291.219
294.486
297.231
298.206
298.335
297.344
296.163
293.997
291.821
289.653
287.489
285.272
282.329
279.005
273.068
155.273
150.16
144.225
140.48
141.174
140.386
138.153
134.011
134.622
135.528
136.959
138.87
140.841
143.319
146.182
149.593
153.351
158.042
163.42
169.717
176.057
181.754
187.579
194.114
201.971
210.29
219.499
230.295
242.393
254.574
266.889
278.671
289.158
295.541
298.744
301.122
301.933
302.047
301.103
299.988
297.82
295.624
293.424
291.225
289.066
286.31
283.255
277.232
159.121
156.58
152.934
147.244
145.584
142.39
139.849
137.309
137.037
137.877
139.644
141.443
143.263
145.891
149.263
152.63
156.418
160.195
165.531
171.773
178.198
184.306
190.463
197.111
204.288
213.233
222.529
233.452
245.603
257.667
270.086
281.923
292.755
298.974
302.172
304.886
305.874
305.993
305.021
303.929
301.73
299.485
297.24
294.982
292.826
290.191
287.461
281.568
160.616
159.23
156.285
151.54
147.576
143.234
141.072
140.784
139.89
140.903
142.485
144.352
146.263
148.758
151.251
154.635
158.704
163.634
168.875
174.326
180.922
186.869
192.729
199.225
207.108
216.225
225.702
236.529
248.749
260.762
273.369
285.369
296.286
302.614
305.678
308.564
309.613
309.728
308.761
307.744
305.564
303.314
301.004
298.65
296.418
293.791
291.31
285.654
161.3
160.238
157.876
153.911
148.537
143.967
142.364
143.559
143.011
143.594
144.614
146.355
148.515
151.329
154.696
158.032
161.968
166.372
171.75
177.196
182.913
188.766
195.16
201.912
209.516
218.387
228.4
239.512
251.868
263.894
276.416
288.111
299.22
305.331
309.515
312.469
313.464
313.585
312.586
311.598
309.409
307.112
304.714
302.24
299.89
297.223
294.846
289.34
161.628
160.668
158.698
156.2
149.347
145.135
144.45
146.299
146.336
146.257
147.506
149.5
151.69
154.009
156.452
160.018
163.938
168.393
173.382
179.829
185.699
191.398
197.732
205.032
211.865
221.056
231.332
242.365
254.878
267.037
279.454
291.515
302.595
308.552
313.181
316.148
317.178
317.33
316.371
315.466
313.292
310.947
308.46
305.898
303.424
300.711
298.337
292.858
161.744
160.858
159.392
157.11
150.525
147.193
147.313
148.254
148.869
148.676
150.07
151.959
154.179
156.836
160.076
163.149
166.82
171.505
176.578
182.179
188.05
194.137
200.486
207.734
214.829
223.614
233.754
245.213
257.894
270.257
282.522
294.543
306.052
311.871
317.205
320.268
321.276
321.41
320.427
319.561
317.392
314.972
312.428
309.788
307.208
304.471
302.089
296.516
161.774
160.931
159.708
157.808
152.653
150.595
150.515
150.925
151.508
151.586
152.841
154.811
156.912
159.23
162.075
165.573
169.368
174.207
179.278
185.464
191.072
197.583
204.2
210.505
218.719
227.526
236.777
248.285
261.111
273.688
285.837
298.211
309.754
315.63
321.243
324.442
325.543
325.687
324.761
323.962
321.848
319.411
316.833
314.133
311.475
308.758
306.399
300.688
161.774
160.946
159.844
158.697
154.761
153.278
152.93
153.397
154.081
154.185
155.486
157.306
159.472
162.254
165.368
168.63
172.406
176.945
182.498
188.309
194.035
200.633
207.069
214.525
222.43
230.55
240.421
251.686
264.658
277.34
289.692
302.215
314.171
320.094
326.635
329.601
330.451
330.466
329.443
328.604
326.503
324.117
321.509
318.76
316.046
313.338
311.064
305.359
161.606
160.939
159.886
159.301
156.216
155.198
154.971
155.824
156.678
157.216
158.09
159.618
162.005
164.623
167.674
171.319
175.015
179.588
185.296
191.539
198.126
204.556
211.23
217.641
225.669
234.012
243.745
255.12
268.159
280.787
293.089
305.441
317.5
324.814
330.901
333.83
334.743
334.785
333.822
333.033
330.979
328.641
326.082
323.301
320.535
317.829
315.62
310.125
161.219
160.647
159.892
159.582
157.756
157.042
157.157
158.077
158.94
159.405
160.179
162.172
164.491
167.368
170.392
173.77
178.153
183.006
188.731
194.653
201.046
207.824
214.048
221.263
229.157
238.041
247.619
258.604
271.678
284.275
296.802
309.285
322.134
329.969
336.547
339.271
339.971
339.815
338.698
337.757
335.627
333.23
330.695
327.865
325.042
322.3
320.144
314.923
161.1
160.417
159.808
159.713
159.036
158.785
159.488
160.186
161.272
162.134
163.277
164.918
167.074
169.675
172.94
176.915
181.182
186.494
191.902
197.718
204.498
211.597
218.232
224.479
232.631
241.056
251.32
262.31
275.343
287.808
300.298
313.015
325.533
334.095
340.787
343.535
344.317
344.282
343.307
342.377
340.244
337.824
335.248
332.419
329.493
326.652
324.484
319.556
161.017
160.34
159.77
159.787
160.315
160.463
162.444
162.355
163.36
164.696
165.714
167.168
169.434
172.384
175.621
179.287
183.784
188.582
194.483
201.415
208.352
214.431
221.119
228.681
236.144
245.819
255.207
266.326
279.326
291.681
304.144
316.925
330.097
338.388
345.803
348.865
349.684
349.453
348.33
347.288
345.082
342.586
339.943
337.011
333.961
330.959
328.667
323.97
161.033
160.345
159.742
159.854
161.438
162.127
163.545
164.291
166.117
167.695
168.769
170.46
172.813
175.582
178.906
182.83
187.339
192.554
198.4
204.599
211.889
219.028
225.371
232.384
240.149
248.39
259.048
270.355
283.304
295.621
308.16
321.189
333.5
343.339
350.356
353.375
354.319
354.265
353.171
352.11
349.901
347.374
344.665
341.627
338.426
335.227
332.75
328.205
161.082
160.556
159.737
159.884
162.04
163.061
163.947
165.897
167.96
169.935
171.429
173.1
175.184
177.929
181.411
185.314
189.902
195.298
201.153
208.068
214.693
221.978
228.961
236.284
244.371
253.516
262.678
274.19
287.172
299.564
312.2
325.197
337.893
348.49
355.634
358.626
359.537
359.369
358.169
356.955
354.679
352.09
349.317
346.182
342.809
339.367
336.634
332.167
161.375
160.406
159.964
159.893
162.317
163.632
164.102
166.926
169.172
171.98
174.17
175.854
178.19
181.098
184.498
188.419
192.963
197.853
203.625
210.744
218.058
225.03
231.659
239.44
246.853
255.876
266.663
277.719
290.725
303.148
315.734
328.77
341.15
352.778
359.719
362.782
363.843
363.909
362.844
361.604
359.315
356.69
353.852
350.615
347.082
343.377
340.319
335.846
163.7
161.581
160.793
160.14
162.488
164.016
164.181
167.642
170.057
173.013
175.844
178.207
180.578
183.492
186.84
190.859
195.403
200.97
206.722
213.416
220.526
226.784
234.166
241.704
250.677
259.781
269.232
281.109
294.216
306.812
319.594
332.838
345.51
357.053
364.542
367.758
368.872
368.938
367.909
366.561
364.206
361.516
358.606
355.254
351.545
347.568
344.126
339.489
167.339
164.979
162.201
161.448
163.142
164.446
164.737
168.216
170.633
173.941
177.242
180.51
183.32
186.488
189.947
193.828
198.321
203.141
208.917
215.695
222.753
229.795
236.828
244.414
253.142
263.101
273.385
284.583
297.807
310.519
323.448
336.892
349.987
361.9
369.279
372.481
373.861
374.058
373.168
371.802
369.435
366.713
363.742
360.285
356.429
352.207
348.382
343.474
171.405
169.06
165.82
164.656
165.123
165.987
166.383
169.552
171.816
174.819
178.2
182.061
185.598
189.082
192.843
196.821
201.405
206.722
212.283
219.336
226.59
233.402
240.553
248.031
256.452
265.896
276.82
288.644
301.909
314.762
327.805
341.44
354.681
366.581
374.564
378.319
379.698
379.871
379.006
377.536
375.093
372.324
369.314
365.78
361.779
357.302
353.097
347.842
175.035
172.938
169.844
168.739
168.664
169.609
169.779
172.141
174.303
177.035
180.268
183.808
187.825
191.963
196.241
200.393
204.835
210.048
216.498
223.357
230.392
237.8
245
252.038
260.977
271.103
281.218
293.165
306.331
319.184
332.072
345.557
358.378
371.189
378.946
382.343
384.406
384.938
384.412
383.056
380.628
377.888
374.889
371.32
367.209
362.514
357.98
352.327
178.617
176.548
173.494
171.99
172.18
173.019
173.113
175.041
177.403
179.833
182.662
185.967
189.793
194.337
199.417
203.766
208.548
213.778
219.987
226.589
234.234
241.144
248.309
256.178
264.294
273.853
285.248
297.531
310.787
323.745
336.716
350.368
363.671
377.215
384.876
388.663
390.535
390.995
390.403
388.875
386.288
383.509
380.52
376.917
372.711
367.819
363.036
356.963
182.21
179.955
177.137
175.518
175.267
175.914
176.885
178.49
180.704
183.169
186.015
189.234
192.792
196.929
202.563
207.247
212.075
217.618
224.179
231.191
238.34
245.35
252.894
260.755
269.784
278.235
289.727
301.79
314.999
328.053
340.918
354.733
367.493
381.395
388.518
392.545
395.366
396.176
395.847
394.312
391.649
388.862
385.934
382.38
378.115
373.023
368.043
361.639
185.523
183.521
181.272
179.798
179.133
179.739
181.754
182.801
184.683
186.925
189.554
192.562
196.149
200.355
205.694
210.92
216.029
221.589
228.027
235.328
242.71
249.538
256.474
263.718
273.321
282.878
293.786
306.205
319.5
332.66
345.549
359.37
372.941
386.582
393.804
398.545
401.497
402.2
401.687
400.008
397.2
394.311
391.39
387.845
383.548
378.24
372.994
366.188
189.116
187.531
185.375
184.07
183.243
183.765
186.193
187.724
189.608
191.771
194.277
197.121
200.372
204.194
209.55
214.857
220.244
226.02
232.138
238.895
246.112
253.488
260.929
269.189
277.51
287.638
298.233
310.843
324.172
337.475
350.364
364.129
377.609
390.487
396.687
403.403
407.066
407.952
407.549
405.877
402.98
399.992
396.996
393.471
389.201
383.758
378.213
370.861
192.835
191.724
189.668
188.496
187.916
188.236
190.538
192.31
194.194
196.488
199.112
202.1
205.394
209.112
213.469
219.201
224.783
230.592
237.082
244.286
252.002
258.619
265.887
273.974
282.341
292.583
303.607
315.739
329.114
342.579
355.643
369.494
384.263
396.361
402.322
410.281
414.024
414.832
414.194
412.362
409.286
406.151
403.038
399.54
395.361
389.909
384.131
376.121
196.234
195.694
194.138
193.072
192.869
193.293
195.08
196.593
198.437
201.014
203.892
206.903
210.445
214.483
218.673
223.518
229.222
235.123
241.416
248.355
255.638
263.401
270.376
278.071
286.489
295.918
308.156
320.807
334.187
347.82
361.035
374.828
389.802
400.692
406.377
415.075
419.867
421.183
420.848
419.064
415.909
412.694
409.517
406.057
402.043
396.753
390.951
382.299
199.689
199.318
198.387
198.04
198.32
198.554
199.476
200.796
202.849
205.503
208.804
212.211
215.949
219.972
224.099
228.478
233.866
239.872
246.633
253.722
260.818
268.056
275.349
284.091
293.93
304.245
313.732
326.228
339.649
353.453
366.853
380.806
395.549
407.674
414.744
424.207
427.887
428.642
428.197
426.337
423.021
419.651
416.422
412.973
409.14
404.099
398.529
389.335
202.565
202.91
203.365
203.976
202.87
202.516
203.704
205.343
207.4
210.652
214.033
217.535
221.307
225.401
229.14
233.56
238.724
244.505
250.852
258.459
266.313
273.407
280.889
288.414
298.283
307.988
319.725
331.855
345.296
359.136
372.427
386.109
399.519
412.509
420.444
429.963
433.868
434.862
434.809
433.237
429.99
426.588
423.323
419.86
416.177
411.424
406.259
396.813
205.494
206.756
208.927
211.578
207.656
206.932
208.02
210.36
212.853
215.807
219.145
222.937
226.772
230.814
234.662
238.94
244.026
249.779
255.996
262.845
270.387
277.997
285.675
294.262
303.957
312.862
324.626
337.528
351.128
365.1
378.425
392.263
406.204
418.758
427.569
437.457
441.341
442.101
441.917
440.391
437.099
433.567
430.165
426.647
422.998
418.401
413.614
404.266
208.435
210.707
215.115
216.587
213.833
210.85
212.038
214.396
217.101
220.355
223.606
227.395
231.214
235.437
239.646
244.301
249.237
254.935
261.746
268.708
275.911
283.28
290.68
299.175
308.251
319.924
330.632
343.095
356.703
370.728
383.945
397.583
411.071
423.182
431.98
442.376
446.256
447.344
447.926
446.845
443.694
440.122
436.653
432.982
429.288
424.752
420.273
411.133
211.39
214.573
218.916
218.818
219.436
215.867
217.316
219.842
222.829
225.476
228.524
232.036
235.841
239.968
244.604
249.28
254.299
260.015
266.445
273.471
280.715
287.998
295.724
304.147
313.092
323.222
335.301
348.185
361.964
376.185
389.562
403.252
417.204
430.446
439.568
449.74
453.011
453.75
454.371
453.454
450.354
446.661
443.031
439.211
435.421
430.916
426.613
417.588
214.006
219.543
220.675
219.82
221.909
221.705
222.898
225.083
227.502
230.186
233.029
236.285
240.038
244.358
249.227
254.125
259.437
265.352
271.808
279.226
286.908
294.32
301.639
310.171
319.244
329.582
340.397
353.133
366.967
381.37
394.885
408.542
422.51
435.034
444.782
454.899
458.729
459.963
460.742
460.035
457.053
453.291
449.517
445.573
441.694
437.228
433.144
424.111
217.648
222.311
221.576
220.763
223.498
226.671
227.766
229.489
231.592
234.649
237.916
241.003
244.992
249.389
254.028
259.037
264.513
270.309
276.279
283.382
290.69
297.959
305.087
313.162
323.427
334.955
345.663
358.331
372.303
386.935
400.745
414.468
428.754
441.598
451.722
461.859
465.669
467.328
468.057
467.463
464.531
460.646
456.699
452.608
448.624
444.226
440.303
431.261
221.042
223.899
222.827
222.199
225.234
229.654
231.134
232.886
235.207
238.166
242.003
245.958
250.031
254.622
259.473
264.67
270.365
276.521
284.037
291.217
298.341
305.596
313.685
321.152
330.025
338.821
351.436
364.389
378.421
393.196
407.114
420.859
435.363
448.333
459.474
468.705
472.504
474.855
475.652
475.383
472.677
468.751
464.663
460.41
456.309
451.964
448.273
439.272
223.969
226.164
225.12
225.647
228.78
232.85
234.652
236.741
239.776
243.293
247.079
251.335
255.837
260.385
265.269
270.673
276.431
282.713
288.871
296.488
304.672
312.438
319.659
328.45
337.442
348.153
358.71
371.498
385.509
400.314
414.395
428.201
442.727
456.278
467.736
477.256
481.251
483.314
484.043
483.878
481.423
477.485
473.271
468.817
464.529
460.133
456.652
447.76
227.021
228.672
229.438
231.357
234.649
237.379
238.999
242.112
244.993
248.533
252.606
256.828
261.427
266.25
271.361
276.799
282.809
289.416
296.652
303.894
310.887
318.045
325.662
333.715
343.18
354.628
365.847
378.706
392.675
407.398
421.572
435.433
449.928
463.045
475.124
483.583
487.218
490.607
491.958
492.104
490.071
486.268
482.036
477.402
472.883
468.342
464.927
456.292
232.733
234.767
235.58
238.56
241.388
242.566
244.782
248.085
250.434
253.873
257.769
262.497
267.378
272.427
277.175
282.83
289.098
295.852
302.877
311.011
319.793
327.787
334.997
342.836
352.183
362.31
373.495
386.317
400.226
414.789
429.212
443.134
457.544
471.132
483.775
492.073
496.997
499.791
500.879
500.942
499.094
495.383
491.149
486.361
481.562
476.764
473.157
464.823
245.503
246.422
244.364
247.149
249.43
248.961
251.508
254.731
256.934
260.433
264.414
268.004
272.699
278.122
283.993
289.591
295.746
302.546
309.838
317.012
324.778
332.614
340.973
350.064
359.769
369.823
381.388
394.178
408.022
422.379
436.967
450.888
465.165
478.821
490.975
498.4
503.512
507.724
509.252
509.518
507.976
504.451
500.321
495.497
490.482
485.432
481.481
473.41
264.888
264.16
258.012
257.079
256.936
256.209
259.203
262.299
263.523
266.766
270.834
275.202
279.606
284.351
289.764
296.022
302.544
309.581
317.168
325.752
334.032
342.03
349.15
357.364
367.021
377.685
389.305
402.2
416.109
430.322
445.212
459.354
473.769
488.487
500.464
509.149
515.233
517.751
518.642
518.688
517.089
513.646
509.677
504.868
499.724
494.469
490.114
482.196
270.531
270.156
268.337
267.156
265.075
263.959
268.051
270.55
270.425
273.113
276.967
281.161
285.617
290.813
296.517
302.459
309.049
316.117
323.411
331.119
339.547
347.549
355.794
364.823
374.872
385.428
396.821
409.904
423.912
438.135
453.209
467.442
481.601
495.911
508.543
516.217
522.583
526.143
527.352
527.462
525.85
522.468
518.686
514.03
508.908
503.563
498.936
491.102
272.1
272.132
271.98
271.189
269.579
271.883
278.969
280.298
276.994
279.708
283.711
287.781
291.914
296.511
302.127
308.463
315.213
322.503
330.418
338.721
346.776
354.744
362.422
371.3
380.941
391.781
403.851
417.15
431.399
445.738
460.982
475.288
489.521
504.245
518.399
525.865
532.537
535.523
536.437
536.203
534.435
530.995
527.255
522.785
517.716
512.318
507.523
499.766
272.504
272.708
273.483
273.494
272.337
280.585
286.866
286.015
283.175
285.849
289.41
293.61
298.089
302.713
308.089
314.094
320.972
328.321
335.821
343.65
351.992
359.894
368.38
377.139
387.39
398.146
410.163
423.743
438.209
452.689
468.004
482.284
496.513
511.168
525.039
531.611
539.36
543.168
544.385
544.117
542.429
538.983
535.245
530.831
525.806
520.344
515.399
507.732
272.597
272.821
274.433
275.034
275.473
286.764
290.525
288.983
290.26
291.85
295.229
299.393
303.696
308.28
313.4
319.594
326.434
333.846
341.849
350.211
358.137
366.342
374.024
383.07
392.323
403.743
415.955
429.769
444.524
459.178
474.63
489.003
503.486
519.18
533.636
541.121
549.122
552.301
553.274
552.322
550.619
547.121
543.315
538.822
533.761
528.126
522.911
515.199
272.518
272.817
275.213
276.245
278.673
289.803
292.519
291.56
296.284
296.852
300.281
304.58
309.378
314.332
319.298
325.176
332.047
339.494
347.23
355.087
363.518
371.5
379.875
388.558
398.731
409.448
421.87
435.787
450.766
465.572
481.153
495.789
510.803
527.415
541.097
548.298
557.785
561.717
562.571
561.015
559.251
555.747
551.941
547.398
542.22
536.383
530.832
522.888
272.081
272.801
276.045
277.718
282.643
291.767
294.397
296.226
301.278
302.812
306.076
310.383
314.903
319.999
325.615
331.711
338.453
345.774
353.655
361.915
370.057
378.12
386.07
394.819
404.624
415.898
428.442
442.665
457.869
472.826
488.577
503.531
519.004
535.551
551.393
560.369
569.251
572.28
572.707
570.537
568.484
564.951
561.163
556.617
551.357
545.34
539.442
531.055
271.516
272.818
277.354
280.131
286.835
294.24
296.572
300.304
307.482
308.77
312.193
316.319
321.356
326.725
332.175
338.278
345.166
352.714
360.614
368.834
376.99
384.827
392.929
401.865
411.98
423.17
435.733
450.047
465.39
480.442
496.25
511.303
526.815
543.123
558.213
568.482
578.036
581.141
581.72
579.523
577.348
573.814
570.075
565.603
560.342
554.265
548.147
539.298
269.759
272.69
278.833
283.007
289.97
296.322
298.937
304.195
311.361
313.992
317.686
321.988
326.877
332.312
338.225
344.39
351.159
358.452
366.265
374.538
382.974
391.177
399.358
408.258
418.218
429.605
442.493
457.068
472.564
487.71
503.598
518.774
534.498
551.176
567.055
579.171
588.238
591.158
591.267
588.877
586.422
582.673
578.784
574.284
569.062
562.924
556.695
547.46
267.817
272.601
280.094
286.124
294.737
299.577
301.171
306.077
313.386
318.072
321.828
326.294
331.648
337.571
343.58
349.921
356.867
364.504
372.645
381.04
389.25
397.17
405.272
414.44
424.821
436.389
449.119
463.817
479.436
494.72
510.609
525.855
541.546
558.285
573.326
586.315
596.065
599.1
599.33
597.265
594.883
591.074
587.052