/*--------------------------------*- C++ -*----------------------------------*\
| =========                 |                                                 |
| \\      /  F ield         | OpenFOAM: The Open Source CFD Toolbox           |
|  \\    /   O peration     | Version:  2212                                  |
|   \\  /    A nd           | Website:  www.openfoam.com                      |
|    \\/     M anipulation  |                                                 |
\*---------------------------------------------------------------------------*/
FoamFile
{
    version     2.0;
    format      ascii;
    arch        "LSB;label=32;scalar=64";
    class       volScalarField;
    location    "0.4426";
    object      s;
}
// * * * * * * * * * * * * * * * * * * * * * * * * * * * * * * * * * * * * * //

dimensions      [0 0 0 0 0 0 0];

internalField   nonuniform List<scalar> 
24240
(
2.72631e-70
2.71678e-70
2.73531e-70
2.70554e-70
2.69906e-70
2.7423e-70
2.72938e-70
2.67364e-70
2.69347e-70
2.76422e-70
2.71186e-70
2.75602e-70
2.72834e-70
2.76213e-70
2.69679e-70
2.77521e-70
2.69191e-70
2.72123e-70
2.70711e-70
2.63928e-70
8.82188e-68
8.79518e-68
8.85405e-68
8.75898e-68
8.73594e-68
8.8767e-68
8.83465e-68
8.65522e-68
8.71934e-68
8.9475e-68
8.77872e-68
8.91972e-68
8.83336e-68
8.94056e-68
8.73069e-68
8.98233e-68
8.71603e-68
8.80989e-68
8.76341e-68
8.54251e-68
1.42745e-65
1.42378e-65
1.43313e-65
1.41794e-65
1.41389e-65
1.4368e-65
1.42996e-65
1.40108e-65
1.41146e-65
1.44824e-65
1.42105e-65
1.44355e-65
1.4301e-65
1.44709e-65
1.41339e-65
1.45376e-65
1.41121e-65
1.42623e-65
1.41858e-65
1.38264e-65
1.35649e-63
1.35361e-63
1.36232e-63
1.34806e-63
1.34391e-63
1.36579e-63
1.35926e-63
1.33198e-63
1.34184e-63
1.37664e-63
1.35092e-63
1.37199e-63
1.35971e-63
1.37551e-63
1.34373e-63
1.38173e-63
1.34184e-63
1.35593e-63
1.34856e-63
1.31423e-63
9.09619e-62
9.08094e-62
9.13809e-62
9.04367e-62
9.01375e-62
9.16127e-62
9.11732e-62
8.93543e-62
9.00174e-62
9.23392e-62
9.06233e-62
9.20141e-62
9.12251e-62
9.22604e-62
9.01476e-62
9.26689e-62
9.00335e-62
9.0965e-62
9.04659e-62
8.81549e-62
4.22981e-60
4.22448e-60
4.25044e-60
4.20703e-60
4.1922e-60
4.26109e-60
4.2406e-60
4.15654e-60
4.1875e-60
4.29477e-60
4.21547e-60
4.27903e-60
4.24396e-60
4.29092e-60
4.19353e-60
4.30943e-60
4.18885e-60
4.23146e-60
4.20808e-60
4.10044e-60
1.3684e-58
1.36724e-58
1.37542e-58
1.36154e-58
1.35643e-58
1.37881e-58
1.37218e-58
1.34517e-58
1.35527e-58
1.38967e-58
1.36423e-58
1.38438e-58
1.3736e-58
1.38836e-58
1.35717e-58
1.39415e-58
1.35589e-58
1.36939e-58
1.36181e-58
1.32702e-58
2.87023e-57
2.86877e-57
2.88542e-57
2.85658e-57
2.84528e-57
2.89226e-57
2.87843e-57
2.82225e-57
2.84382e-57
2.9149e-57
2.86227e-57
2.90345e-57
2.88202e-57
2.91198e-57
2.84732e-57
2.9235e-57
2.84525e-57
2.87276e-57
2.85698e-57
2.7847e-57
1.76145e-56
1.76148e-56
1.77142e-56
1.75387e-56
1.74658e-56
1.7753e-56
1.76698e-56
1.73289e-56
1.74673e-56
1.78909e-56
1.75765e-56
1.7819e-56
1.76961e-56
1.78711e-56
1.74814e-56
1.79353e-56
1.74739e-56
1.76345e-56
1.75399e-56
1.71033e-56
4.56238e-57
4.56877e-57
4.60606e-57
4.53884e-57
4.53077e-57
4.56345e-57
4.5673e-57
4.4954e-57
4.60852e-57
4.58472e-57
4.59184e-57
4.58762e-57
4.5602e-57
4.56663e-57
4.50513e-57
4.53183e-57
4.54047e-57
4.52333e-57
4.53368e-57
4.53616e-57
8.45176e-57
8.48857e-57
8.57643e-57
8.42233e-57
8.39163e-57
8.3969e-57
8.45121e-57
8.35104e-57
8.56933e-57
8.5436e-57
8.56528e-57
8.49453e-57
8.49613e-57
8.42675e-57
8.36828e-57
8.4067e-57
8.32639e-57
8.36718e-57
8.41244e-57
8.38498e-57
9.02874e-57
9.07002e-57
9.13058e-57
8.96732e-57
8.99554e-57
8.91227e-57
9.06426e-57
8.98646e-57
9.03131e-57
9.19752e-57
9.09139e-57
8.96011e-57
9.12236e-57
9.06222e-57
9.02333e-57
9.08204e-57
8.83385e-57
8.98234e-57
8.93905e-57
8.92366e-57
1.08969e-56
1.09385e-56
1.0987e-56
1.10016e-56
1.10271e-56
1.11208e-56
1.1184e-56
1.10753e-56
1.1033e-56
1.09041e-56
1.09063e-56
1.09336e-56
1.10369e-56
1.10672e-56
1.09434e-56
1.09989e-56
1.0998e-56
1.09757e-56
1.08775e-56
1.09309e-56
1.14579e-56
1.13739e-56
1.14248e-56
1.1596e-56
1.15493e-56
1.16595e-56
1.14607e-56
1.16968e-56
1.13822e-56
1.12985e-56
1.12915e-56
1.14015e-56
1.13835e-56
1.12779e-56
1.12503e-56
1.13529e-56
1.12204e-56
1.14045e-56
1.13434e-56
1.14654e-56
1.20525e-56
1.20039e-56
1.21649e-56
1.2025e-56
1.20328e-56
1.2229e-56
1.21068e-56
1.23212e-56
1.20759e-56
1.22513e-56
1.21475e-56
1.21888e-56
1.21954e-56
1.23054e-56
1.21688e-56
1.23579e-56
1.21203e-56
1.19903e-56
1.21196e-56
1.20104e-56
1.17656e-56
1.16758e-56
1.16e-56
1.16401e-56
1.17353e-56
1.18194e-56
1.1781e-56
1.17482e-56
1.15865e-56
1.16174e-56
1.14919e-56
1.17504e-56
1.17968e-56
1.18654e-56
1.18777e-56
1.17915e-56
1.17642e-56
1.18137e-56
1.17178e-56
1.17314e-56
1.10873e-56
1.12716e-56
1.10982e-56
1.13516e-56
1.10479e-56
1.1259e-56
1.10933e-56
1.12581e-56
1.11465e-56
1.12474e-56
1.11561e-56
1.14065e-56
1.11751e-56
1.14274e-56
1.11892e-56
1.1236e-56
1.13009e-56
1.10672e-56
1.13291e-56
1.13189e-56
9.93005e-57
1.01754e-56
1.01324e-56
1.00175e-56
9.95771e-57
1.02399e-56
1.0071e-56
1.01379e-56
1.00854e-56
9.94922e-57
1.0028e-56
1.01875e-56
1.00356e-56
1.02962e-56
1.00483e-56
1.01835e-56
1.01854e-56
1.0122e-56
1.02045e-56
1.02578e-56
9.86187e-57
9.87049e-57
9.90844e-57
9.98011e-57
9.97195e-57
9.97658e-57
9.79527e-57
1.00341e-56
1.007e-56
9.87354e-57
1.00222e-56
1.00967e-56
9.80442e-57
1.01193e-56
1.00953e-56
1.02299e-56
1.00313e-56
1.006e-56
9.96749e-57
1.01318e-56
5.94839e-57
6.0022e-57
6.00545e-57
5.94081e-57
5.98089e-57
5.97056e-57
5.97503e-57
5.99653e-57
5.92701e-57
6.03529e-57
5.91035e-57
6.03701e-57
5.92496e-57
6.09865e-57
5.94116e-57
5.95178e-57
5.95059e-57
6.06059e-57
5.98306e-57
6.09255e-57
5.49245e-69
5.47576e-69
5.51267e-69
5.45357e-69
5.43941e-69
5.5272e-69
5.50104e-69
5.38932e-69
5.42914e-69
5.57158e-69
5.46625e-69
5.5543e-69
5.50022e-69
5.5671e-69
5.43617e-69
5.59311e-69
5.42655e-69
5.48513e-69
5.45604e-69
5.31809e-69
1.75203e-66
1.74755e-66
1.75911e-66
1.7405e-66
1.73558e-66
1.76374e-66
1.75535e-66
1.7199e-66
1.73259e-66
1.77787e-66
1.74441e-66
1.77211e-66
1.75551e-66
1.77641e-66
1.73496e-66
1.7846e-66
1.73212e-66
1.7506e-66
1.74117e-66
1.69686e-66
2.79046e-64
2.78465e-64
2.8027e-64
2.77344e-64
2.76497e-64
2.81008e-64
2.79665e-64
2.74049e-64
2.76071e-64
2.83256e-64
2.77949e-64
2.823e-64
2.79759e-64
2.83018e-64
2.76468e-64
2.84303e-64
2.76054e-64
2.78962e-64
2.77439e-64
2.70336e-64
2.62011e-62
2.61588e-62
2.63249e-62
2.60534e-62
2.5968e-62
2.63937e-62
2.6267e-62
2.57426e-62
2.59326e-62
2.66042e-62
2.61082e-62
2.65106e-62
2.62818e-62
2.65809e-62
2.59709e-62
2.66995e-62
2.59355e-62
2.62051e-62
2.60603e-62
2.53895e-62
1.72997e-60
1.72798e-60
1.7387e-60
1.72099e-60
1.71496e-60
1.74321e-60
1.73482e-60
1.7004e-60
1.71298e-60
1.75709e-60
1.72452e-60
1.75066e-60
1.73622e-60
1.7555e-60
1.71557e-60
1.76317e-60
1.71348e-60
1.73103e-60
1.72138e-60
1.67689e-60
7.94262e-59
7.9369e-59
7.98496e-59
7.90453e-59
7.87513e-59
8.00534e-59
7.96674e-59
7.8097e-59
7.86768e-59
8.06887e-59
7.92027e-59
8.03818e-59
7.97496e-59
8.06124e-59
7.87954e-59
8.09552e-59
7.87114e-59
7.95035e-59
7.9058e-59
7.70107e-59
2.53289e-57
2.53215e-57
2.54706e-57
2.52169e-57
2.51176e-57
2.55343e-57
2.54112e-57
2.4914e-57
2.51004e-57
2.57363e-57
2.52665e-57
2.56347e-57
2.54436e-57
2.57108e-57
2.51373e-57
2.58164e-57
2.51148e-57
2.53622e-57
2.522e-57
2.45673e-57
5.23446e-56
5.23473e-56
5.2646e-56
5.21265e-56
5.19106e-56
5.27724e-56
5.25195e-56
5.15001e-56
5.18926e-56
5.31874e-56
5.22294e-56
5.29707e-56
5.25977e-56
5.31313e-56
5.19603e-56
5.33382e-56
5.19248e-56
5.24214e-56
5.21303e-56
5.07935e-56
3.16772e-55
3.16958e-55
3.18717e-55
3.15595e-55
3.14227e-55
3.1942e-55
3.17921e-55
3.11822e-55
3.14305e-55
3.21915e-55
3.16271e-55
3.20572e-55
3.18471e-55
3.21541e-55
3.14582e-55
3.22677e-55
3.14459e-55
3.17317e-55
3.156e-55
3.07628e-55
7.93593e-56
7.9475e-56
8.0131e-56
7.89567e-56
7.88102e-56
7.93686e-56
7.94383e-56
7.82021e-56
8.01767e-56
7.97557e-56
7.98846e-56
7.97926e-56
7.93355e-56
7.94283e-56
7.83765e-56
7.88145e-56
7.89731e-56
7.86781e-56
7.88651e-56
7.89061e-56
1.49033e-55
1.49674e-55
1.51226e-55
1.48501e-55
1.47974e-55
1.4805e-55
1.49008e-55
1.47263e-55
1.51089e-55
1.50658e-55
1.51021e-55
1.49761e-55
1.49817e-55
1.48598e-55
1.47574e-55
1.48237e-55
1.46811e-55
1.47529e-55
1.48331e-55
1.47822e-55
1.58288e-55
1.58999e-55
1.60068e-55
1.57218e-55
1.5772e-55
1.56288e-55
1.58937e-55
1.57593e-55
1.58318e-55
1.61222e-55
1.59359e-55
1.57072e-55
1.59919e-55
1.58892e-55
1.58208e-55
1.59235e-55
1.54928e-55
1.57473e-55
1.56744e-55
1.56462e-55
1.91679e-55
1.92362e-55
1.93236e-55
1.93525e-55
1.93962e-55
1.9562e-55
1.96651e-55
1.94819e-55
1.94047e-55
1.9177e-55
1.91811e-55
1.92306e-55
1.94104e-55
1.94604e-55
1.9248e-55
1.93427e-55
1.93402e-55
1.93051e-55
1.91326e-55
1.92273e-55
2.00631e-55
1.99143e-55
2.00041e-55
2.02998e-55
2.022e-55
2.04135e-55
2.00653e-55
2.04791e-55
1.99268e-55
1.97871e-55
1.97721e-55
1.99646e-55
1.99321e-55
1.97483e-55
1.97028e-55
1.98803e-55
1.96484e-55
1.99679e-55
1.98655e-55
2.00729e-55
2.11815e-55
2.10963e-55
2.13764e-55
2.11294e-55
2.11483e-55
2.14898e-55
2.12748e-55
2.16499e-55
2.12237e-55
2.15309e-55
2.13468e-55
2.14187e-55
2.1432e-55
2.16285e-55
2.13873e-55
2.1715e-55
2.1302e-55
2.10726e-55
2.13e-55
2.11051e-55
2.05857e-55
2.04336e-55
2.02964e-55
2.03695e-55
2.05327e-55
2.06789e-55
2.06121e-55
2.05554e-55
2.02773e-55
2.0328e-55
2.01093e-55
2.05595e-55
2.06418e-55
2.07582e-55
2.07827e-55
2.06279e-55
2.05849e-55
2.06724e-55
2.05059e-55
2.05295e-55
1.949e-55
1.98151e-55
1.95109e-55
1.99516e-55
1.94182e-55
1.97866e-55
1.94978e-55
1.97865e-55
1.95934e-55
1.97715e-55
1.96099e-55
2.00504e-55
1.96427e-55
2.0084e-55
1.96695e-55
1.97462e-55
1.98645e-55
1.94544e-55
1.99133e-55
1.98956e-55
1.74087e-55
1.78333e-55
1.77612e-55
1.75587e-55
1.7457e-55
1.79452e-55
1.76507e-55
1.77679e-55
1.76783e-55
1.74386e-55
1.75772e-55
1.7854e-55
1.75909e-55
1.80428e-55
1.76147e-55
1.78492e-55
1.78505e-55
1.77424e-55
1.78826e-55
1.79776e-55
1.74196e-55
1.74336e-55
1.75033e-55
1.76272e-55
1.76118e-55
1.76186e-55
1.73005e-55
1.77243e-55
1.77834e-55
1.744e-55
1.77014e-55
1.78328e-55
1.73189e-55
1.78711e-55
1.78314e-55
1.80648e-55
1.77191e-55
1.7765e-55
1.7603e-55
1.78905e-55
1.04488e-55
1.05439e-55
1.05506e-55
1.04359e-55
1.0505e-55
1.04875e-55
1.04951e-55
1.05336e-55
1.0409e-55
1.06002e-55
1.03811e-55
1.06025e-55
1.04081e-55
1.07112e-55
1.04356e-55
1.0454e-55
1.04517e-55
1.06441e-55
1.05093e-55
1.06998e-55
1.05559e-67
1.05291e-67
1.05992e-67
1.04873e-67
1.04579e-67
1.0628e-67
1.05775e-67
1.03639e-67
1.04402e-67
1.07137e-67
1.05117e-67
1.0679e-67
1.05785e-67
1.07046e-67
1.04544e-67
1.07539e-67
1.04364e-67
1.05479e-67
1.04908e-67
1.02228e-67
3.31346e-65
3.3067e-65
3.32828e-65
3.29362e-65
3.28362e-65
3.3373e-65
3.32136e-65
3.25467e-65
3.27861e-65
3.36416e-65
3.30099e-65
3.35278e-65
3.32248e-65
3.36121e-65
3.2833e-65
3.37648e-65
3.27808e-65
3.3127e-65
3.2945e-65
3.20974e-65
5.19133e-63
5.1833e-63
5.21646e-63
5.16282e-63
5.14599e-63
5.23053e-63
5.20545e-63
5.10154e-63
5.13905e-63
5.27257e-63
5.17403e-63
5.25401e-63
5.20849e-63
5.26786e-63
5.14678e-63
5.29144e-63
5.13931e-63
5.1929e-63
5.164e-63
5.03026e-63
4.81024e-61
4.80515e-61
4.83524e-61
4.78611e-61
4.76945e-61
4.84816e-61
4.82482e-61
4.72907e-61
4.76385e-61
4.88701e-61
4.79613e-61
4.8691e-61
4.82874e-61
4.88248e-61
4.77122e-61
4.90393e-61
4.76495e-61
4.81394e-61
4.78688e-61
4.66215e-61
3.12396e-59
3.12216e-59
3.14126e-59
3.10971e-59
3.0982e-59
3.14956e-59
3.13435e-59
3.07254e-59
3.09519e-59
3.17475e-59
3.11605e-59
3.16266e-59
3.13767e-59
3.17171e-59
3.10009e-59
3.18535e-59
3.09648e-59
3.12783e-59
3.11011e-59
3.02869e-59
1.41408e-57
1.4139e-57
1.42233e-57
1.4082e-57
1.40269e-57
1.42602e-57
1.41913e-57
1.39132e-57
1.40162e-57
1.43739e-57
1.41099e-57
1.4317e-57
1.42095e-57
1.43595e-57
1.40383e-57
1.44196e-57
1.4024e-57
1.41635e-57
1.40831e-57
1.37134e-57
4.4402e-56
4.4416e-56
4.46732e-56
4.42344e-56
4.40514e-56
4.47865e-56
4.45701e-56
4.37031e-56
4.40292e-56
4.51424e-56
4.43206e-56
4.49573e-56
4.46384e-56
4.50951e-56
4.40971e-56
4.52774e-56
4.40599e-56
4.44887e-56
4.42362e-56
4.3075e-56
9.02722e-55
9.03325e-55
9.08389e-55
8.99541e-55
8.9564e-55
9.10591e-55
9.06219e-55
8.88732e-55
8.95487e-55
9.17785e-55
9.01303e-55
9.13904e-55
9.07802e-55
9.16767e-55
8.96725e-55
9.20279e-55
8.96156e-55
9.04621e-55
8.99548e-55
8.76132e-55
5.38143e-54
5.38795e-54
5.41729e-54
5.36488e-54
5.34059e-54
5.42932e-54
5.40379e-54
5.30074e-54
5.34283e-54
5.47194e-54
5.37628e-54
5.44826e-54
5.41455e-54
5.46529e-54
5.34799e-54
5.48426e-54
5.34612e-54
5.39409e-54
5.36468e-54
5.22697e-54
1.30163e-54
1.3036e-54
1.31448e-54
1.29513e-54
1.29263e-54
1.30161e-54
1.3028e-54
1.28278e-54
1.31527e-54
1.30827e-54
1.31045e-54
1.30863e-54
1.30148e-54
1.30267e-54
1.28573e-54
1.29248e-54
1.29519e-54
1.29041e-54
1.2936e-54
1.29421e-54
2.47905e-54
2.48959e-54
2.51545e-54
2.46997e-54
2.46147e-54
2.46244e-54
2.47837e-54
2.44971e-54
2.51295e-54
2.50617e-54
2.51188e-54
2.49072e-54
2.49211e-54
2.47191e-54
2.45501e-54
2.4658e-54
2.44194e-54
2.45381e-54
2.46723e-54
2.45835e-54
2.61809e-54
2.62962e-54
2.64745e-54
2.60054e-54
2.60894e-54
2.58579e-54
2.6293e-54
2.60737e-54
2.61836e-54
2.66614e-54
2.63532e-54
2.59776e-54
2.64486e-54
2.62835e-54
2.61702e-54
2.63393e-54
2.56354e-54
2.60457e-54
2.59308e-54
2.58818e-54
3.18171e-54
3.19223e-54
3.20714e-54
3.21243e-54
3.21948e-54
3.24712e-54
3.26289e-54
3.23385e-54
3.22057e-54
3.1827e-54
3.18336e-54
3.19181e-54
3.22134e-54
3.22905e-54
3.19478e-54
3.20996e-54
3.20932e-54
3.20428e-54
3.17566e-54
3.1915e-54
3.31673e-54
3.29189e-54
3.30683e-54
3.355e-54
3.34215e-54
3.37425e-54
3.31664e-54
3.38509e-54
3.29358e-54
3.2716e-54
3.26868e-54
3.30048e-54
3.29493e-54
3.26479e-54
3.25773e-54
3.28668e-54
3.24842e-54
3.30072e-54
3.2846e-54
3.3178e-54
3.5152e-54
3.5011e-54
3.54706e-54
3.50589e-54
3.50996e-54
3.56601e-54
3.53034e-54
3.59224e-54
3.5224e-54
3.57318e-54
3.54233e-54
3.5541e-54
3.55667e-54
3.58975e-54
3.54958e-54
3.6031e-54
3.5354e-54
3.49722e-54
3.53495e-54
3.50212e-54
3.40323e-54
3.37903e-54
3.35564e-54
3.36819e-54
3.39451e-54
3.41858e-54
3.40756e-54
3.39839e-54
3.35328e-54
3.36107e-54
3.32505e-54
3.39906e-54
3.41288e-54
3.43147e-54
3.43599e-54
3.4098e-54
3.40349e-54
3.41797e-54
3.3908e-54
3.39462e-54
3.23815e-54
3.29224e-54
3.24184e-54
3.31417e-54
3.22576e-54
3.28644e-54
3.23895e-54
3.28667e-54
3.25513e-54
3.28483e-54
3.25776e-54
3.33098e-54
3.26318e-54
3.33606e-54
3.26803e-54
3.27973e-54
3.30011e-54
3.23222e-54
3.30807e-54
3.30518e-54
2.88636e-54
2.9558e-54
2.94436e-54
2.91072e-54
2.89432e-54
2.97411e-54
2.92558e-54
2.94498e-54
2.93054e-54
2.89071e-54
2.91374e-54
2.95917e-54
2.91606e-54
2.99011e-54
2.92025e-54
2.95865e-54
2.95858e-54
2.94116e-54
2.96364e-54
2.97965e-54
2.91117e-54
2.91337e-54
2.92545e-54
2.94566e-54
2.94289e-54
2.94384e-54
2.89108e-54
2.96218e-54
2.9713e-54
2.91454e-54
2.958e-54
2.97994e-54
2.89454e-54
2.98608e-54
2.97991e-54
3.0181e-54
2.9613e-54
2.96812e-54
2.94132e-54
2.98883e-54
1.73688e-54
1.75274e-54
1.75405e-54
1.73483e-54
1.7461e-54
1.74325e-54
1.74446e-54
1.75101e-54
1.72994e-54
1.76183e-54
1.72553e-54
1.76209e-54
1.73017e-54
1.78021e-54
1.73465e-54
1.73766e-54
1.7372e-54
1.76903e-54
1.74684e-54
1.77822e-54
2.02933e-66
2.02523e-66
2.03854e-66
2.01736e-66
2.01129e-66
2.04424e-66
2.03449e-66
1.99365e-66
2.00828e-66
2.06081e-66
2.02204e-66
2.05383e-66
2.0352e-66
2.05894e-66
2.01114e-66
2.06828e-66
2.00776e-66
2.029e-66
2.01777e-66
1.96567e-66
6.26911e-64
6.25972e-64
6.30003e-64
6.23544e-64
6.21525e-64
6.31755e-64
6.28727e-64
6.16178e-64
6.20694e-64
6.36865e-64
6.24935e-64
6.34617e-64
6.29097e-64
6.36272e-64
6.21624e-64
6.3912e-64
6.20666e-64
6.2715e-64
6.23637e-64
6.07405e-64
9.66022e-62
9.65073e-62
9.71161e-62
9.61325e-62
9.57999e-62
9.73842e-62
9.69157e-62
9.49925e-62
9.56888e-62
9.81705e-62
9.63406e-62
9.78105e-62
9.69967e-62
9.80775e-62
9.5839e-62
9.85099e-62
9.57047e-62
9.66915e-62
9.6144e-62
9.36231e-62
8.82526e-60
8.82109e-60
8.87554e-60
8.78668e-60
8.75434e-60
8.89974e-60
8.85678e-60
8.68204e-60
8.74571e-60
8.97138e-60
8.80501e-60
8.93716e-60
8.86622e-60
8.96258e-60
8.75983e-60
9.00136e-60
8.74877e-60
8.83769e-60
8.78721e-60
8.55524e-60
5.63593e-58
5.63609e-58
5.67005e-58
5.61393e-58
5.59204e-58
5.68529e-58
5.65778e-58
5.54685e-58
5.58763e-58
5.73096e-58
5.62531e-58
5.70827e-58
5.66521e-58
5.72517e-58
5.59686e-58
5.74941e-58
5.59063e-58
5.64656e-58
5.61412e-58
5.46511e-58
2.51305e-56
2.51429e-56
2.52905e-56
2.50427e-56
2.49398e-56
2.5357e-56
2.52342e-56
2.47426e-56
2.49253e-56
2.55601e-56
2.5092e-56
2.54551e-56
2.52731e-56
2.55331e-56
2.49664e-56
2.56383e-56
2.49424e-56
2.51875e-56
2.50425e-56
2.43756e-56
7.76782e-55
7.77524e-55
7.81951e-55
7.7437e-55
7.71018e-55
7.83955e-55
7.80162e-55
7.65074e-55
7.70769e-55
7.90212e-55
7.75871e-55
7.8685e-55
7.81556e-55
7.89341e-55
7.72013e-55
7.9248e-55
7.71402e-55
7.78815e-55
7.74347e-55
7.53709e-55
1.55267e-53
1.55472e-53
1.56327e-53
1.54824e-53
1.54123e-53
1.56709e-53
1.55956e-53
1.52964e-53
1.54124e-53
1.57953e-53
1.55125e-53
1.5726e-53
1.56268e-53
1.57769e-53
1.54348e-53
1.58363e-53
1.54258e-53
1.55697e-53
1.54816e-53
1.50722e-53
9.11623e-53
9.13325e-53
9.18201e-53
9.09422e-53
9.05135e-53
9.20248e-53
9.15917e-53
8.98551e-53
9.05668e-53
9.27509e-53
9.1134e-53
9.23346e-53
9.17979e-53
9.26328e-53
9.06617e-53
9.29487e-53
9.06338e-53
9.14366e-53
9.09348e-53
8.85606e-53
2.12687e-53
2.13019e-53
2.14818e-53
2.1164e-53
2.11217e-53
2.12652e-53
2.12858e-53
2.09627e-53
2.14952e-53
2.13794e-53
2.14161e-53
2.13811e-53
2.12701e-53
2.12841e-53
2.10124e-53
2.11154e-53
2.11613e-53
2.10844e-53
2.11386e-53
2.11477e-53
4.11092e-53
4.12821e-53
4.17117e-53
4.09549e-53
4.08186e-53
4.08297e-53
4.10938e-53
4.06246e-53
4.16665e-53
4.15606e-53
4.16498e-53
4.12955e-53
4.13263e-53
4.09927e-53
4.07146e-53
4.08894e-53
4.04916e-53
4.06871e-53
4.09111e-53
4.07566e-53
4.31794e-53
4.3366e-53
4.36624e-53
4.28928e-53
4.30329e-53
4.266e-53
4.33724e-53
4.30161e-53
4.31805e-53
4.39643e-53
4.34561e-53
4.28411e-53
4.36179e-53
4.33534e-53
4.31663e-53
4.34442e-53
4.22972e-53
4.29565e-53
4.27761e-53
4.26915e-53
5.26707e-53
5.28316e-53
5.30846e-53
5.31802e-53
5.32938e-53
5.37533e-53
5.39919e-53
5.3534e-53
5.33062e-53
5.26784e-53
5.26893e-53
5.28328e-53
5.33165e-53
5.34338e-53
5.28831e-53
5.31254e-53
5.31109e-53
5.30406e-53
5.25675e-53
5.28313e-53
5.47199e-53
5.43061e-53
5.45541e-53
5.53372e-53
5.5131e-53
5.56623e-53
5.47105e-53
5.58411e-53
5.43275e-53
5.39834e-53
5.39278e-53
5.44522e-53
5.43577e-53
5.38643e-53
5.37556e-53
5.42266e-53
5.35969e-53
5.44513e-53
5.41988e-53
5.47284e-53
5.8224e-53
5.79913e-53
5.87443e-53
5.80589e-53
5.81416e-53
5.90595e-53
5.84699e-53
5.94882e-53
5.83475e-53
5.91847e-53
5.86689e-53
5.88608e-53
5.891e-53
5.94651e-53
5.87978e-53
5.96699e-53
5.85626e-53
5.79278e-53
5.85529e-53
5.80009e-53
5.62084e-53
5.58247e-53
5.54265e-53
5.56412e-53
5.6065e-53
5.6461e-53
5.62796e-53
5.61312e-53
5.54007e-53
5.55193e-53
5.49268e-53
5.61422e-53
5.6374e-53
5.66702e-53
5.67528e-53
5.63102e-53
5.62194e-53
5.6458e-53
5.6016e-53
5.60777e-53
5.37522e-53
5.46511e-53
5.38174e-53
5.50028e-53
5.35388e-53
5.45371e-53
5.37568e-53
5.45451e-53
5.40306e-53
5.45254e-53
5.40724e-53
5.52884e-53
5.41622e-53
5.53644e-53
5.42487e-53
5.44259e-53
5.47765e-53
5.36535e-53
5.49059e-53
5.48586e-53
4.78593e-53
4.89944e-53
4.88135e-53
4.82547e-53
4.79904e-53
4.92941e-53
4.8495e-53
4.88158e-53
4.85832e-53
4.79214e-53
4.83041e-53
4.90496e-53
4.83435e-53
4.95568e-53
4.84171e-53
4.90451e-53
4.90398e-53
4.87595e-53
4.91192e-53
4.9389e-53
4.86554e-53
4.86896e-53
4.8899e-53
4.92279e-53
4.91787e-53
4.91913e-53
4.83165e-53
4.95091e-53
4.96486e-53
4.87109e-53
4.94335e-53
4.97998e-53
4.83808e-53
4.98982e-53
4.98026e-53
5.04273e-53
4.94942e-53
4.95939e-53
4.9151e-53
4.9936e-53
2.88472e-53
2.91111e-53
2.91362e-53
2.88146e-53
2.89983e-53
2.89516e-53
2.89708e-53
2.90823e-53
2.87265e-53
2.92576e-53
2.86571e-53
2.92602e-53
2.87365e-53
2.95618e-53
2.88098e-53
2.88593e-53
2.88498e-53
2.9376e-53
2.90109e-53
2.95272e-53
3.89932e-65
3.89356e-65
3.91881e-65
3.87875e-65
3.86629e-65
3.93007e-65
3.91127e-65
3.83322e-65
3.86125e-65
3.96208e-65
3.88773e-65
3.94809e-65
3.91361e-65
3.95826e-65
3.86699e-65
3.97595e-65
3.86067e-65
3.90106e-65
3.87906e-65
3.77772e-65
1.18575e-62
1.18464e-62
1.19217e-62
1.18013e-62
1.17608e-62
1.19557e-62
1.18982e-62
1.16621e-62
1.17473e-62
1.20528e-62
1.18276e-62
1.20085e-62
1.19082e-62
1.20409e-62
1.17657e-62
1.2094e-62
1.17481e-62
1.18694e-62
1.18018e-62
1.14908e-62
1.79662e-60
1.79591e-60
1.80708e-60
1.78906e-60
1.78251e-60
1.81218e-60
1.80344e-60
1.76786e-60
1.78078e-60
1.82687e-60
1.79292e-60
1.8199e-60
1.8054e-60
1.82504e-60
1.78369e-60
1.83296e-60
1.78128e-60
1.79943e-60
1.78908e-60
1.74155e-60
1.61762e-58
1.61785e-58
1.62769e-58
1.61163e-58
1.60538e-58
1.63221e-58
1.62431e-58
1.59245e-58
1.6041e-58
1.64541e-58
1.61498e-58
1.63888e-58
1.62646e-58
1.6437e-58
1.6068e-58
1.6507e-58
1.60485e-58
1.62097e-58
1.61157e-58
1.56844e-58
1.01558e-56
1.01625e-56
1.02228e-56
1.0123e-56
1.00816e-56
1.02507e-56
1.0201e-56
1.00022e-56
1.00755e-56
1.03334e-56
1.01435e-56
1.02909e-56
1.0217e-56
1.03224e-56
1.00929e-56
1.03654e-56
1.00822e-56
1.01818e-56
1.01225e-56
9.84986e-57
4.45837e-55
4.46349e-55
4.48926e-55
4.44588e-55
4.42674e-55
4.50121e-55
4.47938e-55
4.39262e-55
4.42498e-55
4.5374e-55
4.45459e-55
4.51807e-55
4.48743e-55
4.53238e-55
4.4326e-55
4.55075e-55
4.42857e-55
4.47152e-55
4.4455e-55
4.32527e-55
1.35607e-53
1.35827e-53
1.36587e-53
1.3528e-53
1.34669e-53
1.3694e-53
1.36277e-53
1.33657e-53
1.34649e-53
1.38038e-53
1.35541e-53
1.37429e-53
1.36555e-53
1.37878e-53
1.34876e-53
1.38417e-53
1.34777e-53
1.36055e-53
1.35267e-53
1.31604e-53
2.66345e-52
2.66876e-52
2.68317e-52
2.65767e-52
2.64514e-52
2.68975e-52
2.67681e-52
2.62576e-52
2.64563e-52
2.71119e-52
2.66281e-52
2.69887e-52
2.68287e-52
2.70788e-52
2.64968e-52
2.7179e-52
2.64827e-52
2.67264e-52
2.65741e-52
2.58595e-52
1.5398e-51
1.54374e-51
1.55181e-51
1.53714e-51
1.52961e-51
1.55527e-51
1.54795e-51
1.51877e-51
1.53077e-51
1.56761e-51
1.54036e-51
1.56032e-51
1.55184e-51
1.56552e-51
1.53251e-51
1.57076e-51
1.5321e-51
1.54549e-51
1.53696e-51
1.49611e-51
3.46387e-52
3.46943e-52
3.49907e-52
3.44703e-52
3.43993e-52
3.46275e-52
3.46627e-52
3.41433e-52
3.50132e-52
3.48224e-52
3.48838e-52
3.48182e-52
3.4647e-52
3.46608e-52
3.42269e-52
3.4383e-52
3.44598e-52
3.43366e-52
3.44284e-52
3.44412e-52
6.79492e-52
6.82318e-52
6.89433e-52
6.7688e-52
6.74703e-52
6.74808e-52
6.79174e-52
6.71517e-52
6.88626e-52
6.8698e-52
6.88364e-52
6.82452e-52
6.83089e-52
6.77597e-52
6.73038e-52
6.75859e-52
6.69254e-52
6.72455e-52
6.76189e-52
6.73509e-52
7.09998e-52
7.13006e-52
7.17922e-52
7.05337e-52
7.07664e-52
7.01686e-52
7.13309e-52
7.07532e-52
7.09972e-52
7.22775e-52
7.14427e-52
7.0439e-52
7.17158e-52
7.12937e-52
7.09859e-52
7.14407e-52
6.9579e-52
7.06336e-52
7.03523e-52
7.02069e-52
8.69374e-52
8.71813e-52
8.76093e-52
8.77792e-52
8.79619e-52
8.87223e-52
8.90804e-52
8.83616e-52
8.79727e-52
8.69369e-52
8.6954e-52
8.7196e-52
8.79868e-52
8.81626e-52
8.72819e-52
8.76669e-52
8.7635e-52
8.75414e-52
8.67619e-52
8.7199e-52
9.00528e-52
8.93651e-52
8.97756e-52
9.10456e-52
9.07162e-52
9.15934e-52
9.00246e-52
9.18872e-52
8.93902e-52
8.88538e-52
8.87506e-52
8.96122e-52
8.94527e-52
8.86476e-52
8.84816e-52
8.9245e-52
8.82122e-52
8.9603e-52
8.921e-52
9.00518e-52
9.62036e-52
9.58218e-52
9.70513e-52
9.59132e-52
9.60754e-52
9.75737e-52
9.66024e-52
9.82723e-52
9.64151e-52
9.77907e-52
9.69308e-52
9.72433e-52
9.73357e-52
9.82625e-52
9.71578e-52
9.85743e-52
9.67686e-52
9.57183e-52
9.67506e-52
9.5825e-52
9.26519e-52
9.20458e-52
9.13714e-52
9.17366e-52
9.24166e-52
9.30669e-52
9.2769e-52
9.25307e-52
9.13504e-52
9.15292e-52
9.05569e-52
9.25479e-52
9.2936e-52
9.34058e-52
9.35553e-52
9.28096e-52
9.26816e-52
9.30725e-52
9.23565e-52
9.24554e-52
8.90501e-52
9.05397e-52
8.91644e-52
9.11014e-52
8.86841e-52
9.03225e-52
8.90433e-52
9.03416e-52
8.95046e-52
9.03265e-52
8.95702e-52
9.15854e-52
8.97198e-52
9.16979e-52
8.98739e-52
9.01382e-52
9.07388e-52
8.88868e-52
9.09481e-52
9.08712e-52
7.92174e-52
8.10704e-52
8.0785e-52
7.98599e-52
7.94335e-52
8.15593e-52
8.0246e-52
8.07755e-52
8.04019e-52
7.93049e-52
7.99399e-52
8.11611e-52
8.0006e-52
8.19907e-52
8.01341e-52
8.11592e-52
8.11444e-52
8.06934e-52
8.12686e-52
8.17213e-52
8.11675e-52
8.12207e-52
8.15823e-52
8.21158e-52
8.2029e-52
8.20448e-52
8.05972e-52
8.25931e-52
8.28042e-52
8.12585e-52
8.24574e-52
8.3068e-52
8.07157e-52
8.32254e-52
8.30783e-52
8.40971e-52
8.25688e-52
8.27107e-52
8.19806e-52
8.32744e-52
4.78181e-52
4.8256e-52
4.83032e-52
4.77667e-52
4.80651e-52
4.79886e-52
4.8019e-52
4.82087e-52
4.76092e-52
4.84919e-52
4.75008e-52
4.84935e-52
4.76359e-52
4.89944e-52
4.77558e-52
4.78366e-52
4.7818e-52
4.8686e-52
4.80865e-52
4.89343e-52
7.49622e-64
7.48944e-64
7.53738e-64
7.46152e-64
7.43607e-64
7.55956e-64
7.52329e-64
7.37405e-64
7.42782e-64
7.62142e-64
7.47881e-64
7.59338e-64
7.52969e-64
7.61366e-64
7.43932e-64
7.64714e-64
7.42752e-64
7.50432e-64
7.46123e-64
7.26386e-64
2.24021e-61
2.23946e-61
2.2535e-61
2.23109e-61
2.22298e-61
2.26006e-61
2.24917e-61
2.2048e-61
2.22087e-61
2.2785e-61
2.23606e-61
2.26979e-61
2.25163e-61
2.27613e-61
2.22448e-61
2.28601e-61
2.22127e-61
2.24393e-61
2.23093e-61
2.17135e-61
3.33673e-59
3.33749e-59
3.35796e-59
3.32495e-59
3.31213e-59
3.3676e-59
3.35133e-59
3.2856e-59
3.30955e-59
3.39503e-59
3.33211e-59
3.38156e-59
3.35582e-59
3.39144e-59
3.31518e-59
3.40592e-59
3.31087e-59
3.34419e-59
3.32465e-59
3.23508e-59
2.95927e-57
2.96159e-57
2.97933e-57
2.95036e-57
2.93835e-57
2.98774e-57
2.97326e-57
2.91529e-57
2.93656e-57
3.012e-57
2.95648e-57
2.9996e-57
2.97795e-57
3.00872e-57
2.9417e-57
3.02132e-57
2.9383e-57
2.96742e-57
2.94999e-57
2.86985e-57
1.82603e-55
1.82846e-55
1.83914e-55
1.82144e-55
1.81363e-55
1.84422e-55
1.83527e-55
1.79971e-55
1.81287e-55
1.85916e-55
1.8251e-55
1.85123e-55
1.83862e-55
1.85708e-55
1.81612e-55
1.86469e-55
1.81429e-55
1.83198e-55
1.82119e-55
1.77137e-55
7.88854e-54
7.90303e-54
7.94787e-54
7.87209e-54
7.83671e-54
7.96925e-54
7.93056e-54
7.77786e-54
7.83504e-54
8.03359e-54
7.88745e-54
7.99811e-54
7.94687e-54
8.02426e-54
7.84907e-54
8.05622e-54
7.84238e-54
7.91742e-54
7.87086e-54
7.65453e-54
2.36049e-52
2.366e-52
2.37898e-52
2.35651e-52
2.34542e-52
2.38517e-52
2.37362e-52
2.32824e-52
2.34551e-52
2.40437e-52
2.36103e-52
2.39338e-52
2.37908e-52
2.40146e-52
2.34963e-52
2.41068e-52
2.34802e-52
2.36998e-52
2.35614e-52
2.29124e-52
4.55378e-51
4.56611e-51
4.59025e-51
4.54716e-51
4.52488e-51
4.60155e-51
4.57941e-51
4.49257e-51
4.52651e-51
4.63838e-51
4.5559e-51
4.61656e-51
4.59097e-51
4.63247e-51
4.53379e-51
4.64928e-51
4.53162e-51
4.57271e-51
4.5465e-51
4.42208e-51
2.59183e-50
2.60034e-50
2.61363e-50
2.5892e-50
2.57605e-50
2.61945e-50
2.60712e-50
2.55826e-50
2.57844e-50
2.64032e-50
2.59459e-50
2.62761e-50
2.61436e-50
2.63666e-50
2.58157e-50
2.64531e-50
2.581e-50
2.60323e-50
2.58882e-50
2.51872e-50
5.61766e-51
5.6269e-51
5.67554e-51
5.59064e-51
5.57882e-51
5.61485e-51
5.62092e-51
5.53781e-51
5.67929e-51
5.64801e-51
5.65821e-51
5.64614e-51
5.61998e-51
5.62072e-51
5.55177e-51
5.57519e-51
5.58793e-51
5.56828e-51
5.58377e-51
5.58554e-51
1.11896e-50
1.12356e-50
1.1353e-50
1.11456e-50
1.1111e-50
1.11114e-50
1.11833e-50
1.10589e-50
1.13387e-50
1.13134e-50
1.13346e-50
1.12364e-50
1.1249e-50
1.11589e-50
1.10845e-50
1.11298e-50
1.10206e-50
1.10727e-50
1.11348e-50
1.10885e-50
1.16317e-50
1.168e-50
1.17613e-50
1.15563e-50
1.15948e-50
1.14995e-50
1.16883e-50
1.1595e-50
1.16307e-50
1.18389e-50
1.17024e-50
1.15392e-50
1.17483e-50
1.16812e-50
1.16308e-50
1.17049e-50
1.1404e-50
1.15719e-50
1.15283e-50
1.15035e-50
1.42992e-50
1.43358e-50
1.44079e-50
1.44378e-50
1.4467e-50
1.45924e-50
1.46454e-50
1.45333e-50
1.44672e-50
1.4297e-50
1.42996e-50
1.43403e-50
1.44691e-50
1.44949e-50
1.43548e-50
1.44157e-50
1.44091e-50
1.43974e-50
1.42695e-50
1.43416e-50
1.47719e-50
1.4658e-50
1.47257e-50
1.4931e-50
1.48786e-50
1.5023e-50
1.47651e-50
1.50711e-50
1.46604e-50
1.45773e-50
1.45586e-50
1.46996e-50
1.46728e-50
1.45419e-50
1.45167e-50
1.464e-50
1.44712e-50
1.46968e-50
1.46361e-50
1.47693e-50
1.58454e-50
1.57832e-50
1.59832e-50
1.57947e-50
1.58256e-50
1.60692e-50
1.591e-50
1.61826e-50
1.58816e-50
1.61069e-50
1.5964e-50
1.60146e-50
1.60318e-50
1.6186e-50
1.60037e-50
1.62329e-50
1.59396e-50
1.57663e-50
1.59362e-50
1.57815e-50
1.52292e-50
1.5134e-50
1.50201e-50
1.50821e-50
1.51907e-50
1.52972e-50
1.52484e-50
1.52103e-50
1.50203e-50
1.50468e-50
1.48878e-50
1.5213e-50
1.52778e-50
1.53519e-50
1.53787e-50
1.52534e-50
1.52361e-50
1.52998e-50
1.51843e-50
1.52001e-50
1.47122e-50
1.49584e-50
1.47323e-50
1.50478e-50
1.46497e-50
1.49178e-50
1.47087e-50
1.49219e-50
1.47862e-50
1.49224e-50
1.47965e-50
1.51295e-50
1.48213e-50
1.51459e-50
1.48485e-50
1.48873e-50
1.49899e-50
1.46851e-50
1.50236e-50
1.50111e-50
1.30815e-50
1.33832e-50
1.33384e-50
1.31855e-50
1.31171e-50
1.34628e-50
1.32476e-50
1.33346e-50
1.32748e-50
1.30933e-50
1.31985e-50
1.3398e-50
1.32097e-50
1.35334e-50
1.32318e-50
1.33987e-50
1.33953e-50
1.33231e-50
1.34145e-50
1.34902e-50
1.3512e-50
1.35201e-50
1.35824e-50
1.36687e-50
1.36535e-50
1.36551e-50
1.34162e-50
1.37494e-50
1.3781e-50
1.35268e-50
1.37253e-50
1.38268e-50
1.34378e-50
1.38519e-50
1.38295e-50
1.39952e-50
1.37455e-50
1.37651e-50
1.3645e-50
1.38577e-50
7.91726e-51
7.98985e-51
7.99862e-51
7.90918e-51
7.95761e-51
7.94504e-51
7.94991e-51
7.98206e-51
7.88121e-51
8.0278e-51
7.86435e-51
8.02757e-51
7.88736e-51
8.11068e-51
7.90687e-51
7.92004e-51
7.91655e-51
8.05953e-51
7.96122e-51
8.10025e-51
1.43889e-62
1.43846e-62
1.44754e-62
1.4332e-62
1.42803e-62
1.4519e-62
1.44492e-62
1.41642e-62
1.42672e-62
1.46383e-62
1.43652e-62
1.45823e-62
1.44651e-62
1.46226e-62
1.42902e-62
1.46858e-62
1.42682e-62
1.44139e-62
1.43298e-62
1.39456e-62
4.22934e-60
4.23058e-60
4.25672e-60
4.21503e-60
4.19889e-60
4.26935e-60
4.24875e-60
4.16543e-60
4.19571e-60
4.30435e-60
4.22443e-60
4.28724e-60
4.25448e-60
4.29964e-60
4.2028e-60
4.31798e-60
4.19695e-60
4.23923e-60
4.21427e-60
4.10014e-60
6.19073e-58
6.19618e-58
6.23363e-58
6.17324e-58
6.14826e-58
6.25182e-58
6.22157e-58