/*--------------------------------*- C++ -*----------------------------------*\
| =========                 |                                                 |
| \\      /  F ield         | OpenFOAM: The Open Source CFD Toolbox           |
|  \\    /   O peration     | Version:  2212                                  |
|   \\  /    A nd           | Website:  www.openfoam.com                      |
|    \\/     M anipulation  |                                                 |
\*---------------------------------------------------------------------------*/
FoamFile
{
    version     2.0;
    format      ascii;
    arch        "LSB;label=32;scalar=64";
    class       volScalarField;
    location    "0.0572";
    object      alphat;
}
// * * * * * * * * * * * * * * * * * * * * * * * * * * * * * * * * * * * * * //

dimensions      [1 -1 -1 0 0 0 0];

internalField   nonuniform List<scalar> 
31661
(
0.00100566
0.000102442
0.000107977
0.000104703
0.00010228
0.000106727
0.000103981
0.000102294
0.000105815
0.000103526
0.000125919
0.000125653
0.000340768
0.00102627
0.00127269
0.00136389
0.00122859
0.00129971
8.52098e-05
0.00137857
2.33094e-05
2.38961e-05
8.19561e-05
0.00115782
0.000106279
2.21637e-05
6.45241e-05
8.05165e-05
0.000129389
0.000156289
0.00120376
3.26155e-05
3.24374e-05
9.01162e-05
0.00010451
0.00127473
3.02794e-05
0.00128305
0.00034458
2.98828e-05
2.94659e-05
0.000101769
0.00121171
0.000294849
0.000305876
0.000139196
0.000299323
0.000115186
3.18561e-05
0.000897198
2.60777e-05
0.000735965
0.000146255
9.76144e-05
0.000347574
9.6137e-05
0.000141321
0.000168093
0.000290978
0.000111381
0.000129482
0.000120885
0.000254192
9.52452e-05
4.83859e-05
0.000557004
0.000193747
0.000255245
0.000226912
0.000199833
0.000116703
0.000170551
0.000150378
0.000136968
0.000124558
0.000115302
0.00010738
0.000101408
9.64831e-05
9.27674e-05
8.979e-05
8.75827e-05
8.58838e-05
8.46767e-05
8.51323e-05
8.64379e-05
8.82403e-05
9.05902e-05
9.36915e-05
9.75838e-05
0.000102611
0.000108758
0.000116615
0.000126002
0.000137795
0.000151461
0.000167365
0.000184916
0.000203867
0.000226755
0.000252095
0.000278503
0.000304748
0.000334456
0.000332115
0.000366895
0.000361385
0.000397734
0.000390387
0.000426139
0.000417759
0.000451531
0.000442831
0.000473618
0.00046517
0.000492367
0.000484565
0.00050797
0.000501045
0.000520755
0.000514801
0.000531104
0.000526108
0.000539413
0.000535291
0.000546054
0.00054269
0.000551347
0.000548609
0.000555564
0.000553328
0.000558925
0.00055708
0.000561602
0.000560056
0.000563737
0.000562416
0.000565446
0.000564283
0.000566813
0.000565764
0.00056791
0.000566942
0.000568792
0.000567883
0.000569509
0.000568646
0.000570111
0.000569269
0.000570629
0.000569803
0.000571099
0.000570285
0.000571557
0.000570751
0.000572037
0.000571237
0.000572573
0.000571779
0.000573204
0.000572415
0.000573971
0.000573187
0.000574917
0.000574139
0.000576092
0.000575322
0.000577555
0.000576793
0.000578618
0.000579372
0.000579104
0.000577244
0.000575746
0.000574541
0.000573568
0.000572778
0.000572125
0.000571568
0.00057107
0.000570594
0.000570106
0.00056957
0.000568949
0.000568205
0.00056729
0.000566155
0.00056474
0.000562968
0.000560748
0.00055796
0.000554455
0.000550047
0.00054451
0.000537563
0.000528876
0.00051808
0.000504784
0.000488617
0.000469286
0.00044662
0.000420665
0.000391674
0.00036001
0.000325989
0.000292166
0.000257512
0.000226033
0.000197386
0.000174272
0.000155052
0.000139709
0.00012702
0.000117008
0.000108823
0.000102467
9.73701e-05
8.41939e-05
8.38147e-05
9.34599e-05
9.03864e-05
8.80761e-05
8.63052e-05
8.50227e-05
8.33369e-05
8.36353e-05
8.45243e-05
8.53016e-05
8.64683e-05
8.80517e-05
9.01547e-05
9.28783e-05
9.63794e-05
0.000100775
0.000106284
0.00011303
0.000121259
0.000131119
0.000142761
0.000156202
0.000171526
0.000188377
0.000206561
0.000226577
0.000248182
0.000270738
0.000294126
0.000319282
0.000345334
0.000371567
0.000397245
0.000421783
0.000444633
0.000465409
0.000483816
0.000499757
0.000513273
0.000524533
0.000533766
0.000541238
0.00054723
0.000551991
0.000555747
0.000558697
0.000561008
0.000562815
0.000564231
0.000565345
0.000566232
0.00056695
0.000567555
0.000568091
0.000568602
0.000569127
0.000569705
0.000570379
0.000571187
0.00057218
0.000573407
0.00057493
0.000576816
0.000579143
0.000580878
0.000581622
0.000581401
0.000580219
0.000577815
0.000575866
0.00057429
0.000573016
0.000571983
0.000571139
0.000570437
0.000569833
0.000569289
0.000568765
0.000568225
0.000567628
0.000566932
0.000566092
0.000565052
0.00056375
0.000562109
0.000560033
0.000557405
0.000554078
0.000549871
0.000544566
0.000537908
0.000529603
0.000519333
0.000506788
0.000491678
0.000473795
0.000453062
0.000429583
0.000403641
0.000375698
0.000346369
0.000316346
0.000286398
0.000255978
0.00022818
0.00020295
0.000180912
0.000161971
0.000146214
0.000132921
0.000122047
0.000113156
0.000106033
0.00010037
9.59379e-05
9.24782e-05
8.41065e-05
8.98074e-05
8.7753e-05
8.62156e-05
8.40272e-05
8.32948e-05
8.35688e-05
8.30403e-05
8.37741e-05
8.48625e-05
8.52717e-05
8.6073e-05
8.72157e-05
8.87715e-05
9.08169e-05
9.34586e-05
9.68098e-05
0.000101029
0.000106239
0.000112616
0.000120259
0.000129279
0.000139669
0.00015147
0.000164542
0.000178884
0.000193975
0.000209726
0.000226348
0.000243771
0.000261907
0.000280819
0.000301286
0.00032295
0.000345462
0.000368505
0.000391623
0.00041442
0.000436287
0.000456732
0.000475309
0.000491774
0.000506014
0.000518042
0.000528017
0.000536152
0.000542674
0.000547842
0.000551903
0.000555067
0.000557523
0.000559425
0.000560902
0.000562058
0.000562981
0.000563741
0.000564399
0.00056501
0.000565621
0.000566278
0.000567024
0.000567911
0.000568985
0.000570302
0.000571925
0.000573924
0.000576382
0.000579392
0.000582004
0.000583661
0.000584396
0.000584232
0.000583176
0.000581217
0.000578066
0.000575495
0.000573402
0.000571702
0.000570317
0.000569186
0.000568254
0.000567468
0.000566783
0.000566157
0.000565543
0.0005649
0.000564179
0.000563327
0.000562284
0.000560976
0.000559315
0.000557195
0.000554484
0.000551019
0.00054661
0.00054103
0.000534022
0.000525313
0.000514633
0.000501736
0.000486461
0.000468736
0.00044867
0.000426524
0.000402728
0.000377786
0.000352278
0.000326748
0.000301607
0.00027686
0.000252453
0.000229589
0.000208249
0.000188886
0.000171314
0.000155821
0.000142199
0.000130529
0.000120608
0.000112458
0.000105849
0.000100571
9.63601e-05
9.30413e-05
8.50982e-05
9.04552e-05
8.84688e-05
8.31338e-05
8.45664e-05
8.36256e-05
8.43688e-05
8.32435e-05
8.29112e-05
8.44191e-05
8.55844e-05
8.58907e-05
8.64289e-05
8.72355e-05
8.84497e-05
9.00852e-05
9.22194e-05
9.49518e-05
9.83987e-05
0.000102693
0.000107966
0.000114322
0.000121835
0.00013053
0.000140332
0.000151125
0.000162766
0.000174984
0.000187673
0.000200369
0.000213128
0.000226065
0.000239277
0.000252863
0.000267097
0.000282572
0.000299352
0.000317428
0.000336767
0.000357213
0.000378462
0.00040006
0.000421456
0.00044202
0.000461224
0.000478669
0.000494077
0.000507335
0.000518478
0.000527639
0.000535035
0.000540917
0.00054554
0.000549136
0.00055192
0.00055407
0.00055574
0.000557052
0.000558113
0.000559007
0.000559807
0.000560577
0.000561374
0.000562253
0.000563266
0.000564473
0.000565931
0.000567709
0.00056988
0.000572533
0.000575766
0.000579696
0.000583067
0.000585509
0.000587077
0.000587803
0.000587707
0.0005868
0.000585071
0.000582485
0.00057832
0.000574901
0.0005721
0.000569807
0.000567928
0.000566388
0.000565115
0.000564049
0.000563136
0.00056232
0.000561553
0.000560783
0.000559951
0.000558998
0.00055785
0.000556422
0.000554608
0.000552283
0.000549292
0.000545453
0.000540551
0.000534345
0.000526576
0.000516988
0.000505352
0.000491515
0.00047542
0.000457161
0.000437007
0.000415415
0.000392913
0.000370139
0.000347603
0.000325766
0.000304922
0.000285111
0.000266111
0.000247725
0.000230285
0.000213462
0.000197419
0.000182066
0.000167686
0.000154322
0.000142154
0.000131312
0.000122015
0.000114166
0.000107636
0.000102287
9.79831e-05
9.45827e-05
8.69676e-05
9.18927e-05
8.31205e-05
8.37439e-05
8.58761e-05
8.54023e-05
8.45649e-05
8.39172e-05
8.30891e-05
8.29563e-05
8.55292e-05
8.65329e-05
8.67655e-05
8.71749e-05
8.77269e-05
8.87014e-05
9.00499e-05
9.18437e-05
9.41666e-05
9.71139e-05
0.000100803
0.000105354
0.000110877
0.00011745
0.000125096
0.000133774
0.000143352
0.000153615
0.000164309
0.000175184
0.000185987
0.000196518
0.000206538
0.000216213
0.00022566
0.000235092
0.00024467
0.000254736
0.000265767
0.000277981
0.000291557
0.000306649
0.000323323
0.000341526
0.000361041
0.000381493
0.000402319
0.000422971
0.00044283
0.000461315
0.000478006
0.000492688
0.000505231
0.000515694
0.000524253
0.000531119
0.000536556
0.000540807
0.000544114
0.000546682
0.000548691
0.00055029
0.000551605
0.000552742
0.000553788
0.00055482
0.00055591
0.000557124
0.000558528
0.00056019
0.000562185
0.000564596
0.000567513
0.000571045
0.000575315
0.000580472
0.000584465
0.000587543
0.000589787
0.000591254
0.000591973
0.000591961
0.000591232
0.000589774
0.000587548
0.000578975
0.00057442
0.00057066
0.000567558
0.000565002
0.000562889
0.000561133
0.000559662
0.000558403
0.000557294
0.000556274
0.000555277
0.000554236
0.000553076
0.000551709
0.000550031
0.000547917
0.000545216
0.000541751
0.000537309
0.000531657
0.000524538
0.000515698
0.000504907
0.000492015
0.000476941
0.000459786
0.000440796
0.00042038
0.000399102
0.000377642
0.000356563
0.000336415
0.00031755
0.000300147
0.000284189
0.000269502
0.000255776
0.00024269
0.000230176
0.000217738
0.000205344
0.000192878
0.000180437
0.000168107
0.000156143
0.000144882
0.000134629
0.000125462
0.000117463
0.000110674
0.0001051
0.000100538
8.98186e-05
9.68445e-05
0.000584484
9.39177e-05
8.33419e-05
8.82288e-05
8.3966e-05
8.51168e-05
8.47913e-05
8.36793e-05
8.6596e-05
8.57335e-05
8.30925e-05
8.3201e-05
8.67676e-05
8.77459e-05
8.77771e-05
8.80912e-05
8.8554e-05
8.9308e-05
9.04086e-05
9.19427e-05
9.39592e-05
9.65423e-05
9.9798e-05
0.000103835
0.000108765
0.000114669
0.0001216
0.000129528
0.000138346
0.000147868
0.000157814
0.000167894
0.000177816
0.000187299
0.000196204
0.00020437
0.000211788
0.000218645
0.000225122
0.00023147
0.000237781
0.000244527
0.000251972
0.00026037
0.000269945
0.000280922
0.000293489
0.000307774
0.0003238
0.000341457
0.000360472
0.000380436
0.000400801
0.000420928
0.000440221
0.000458118
0.000474229
0.00048831
0.000500285
0.000510244
0.000518352
0.00052485
0.000529989
0.000534028
0.0005372
0.000539714
0.000541747
0.000543454
0.000544959
0.000546375
0.000547796
0.000549312
0.000550999
0.000552945
0.000555234
0.000557957
0.000561216
0.000565126
0.00056982
0.000575451
0.000582196
0.00058669
0.000590244
0.000592984
0.000594999
0.000596349
0.000597064
0.000597157
0.000596638
0.000595495
0.000593686
0.000591131
0.000580474
0.000574441
0.00056942
0.000565244
0.000561771
0.00055888
0.000556463
0.000554425
0.000552678
0.000551145
0.000549743
0.0005484
0.00054703
0.000545538
0.000543817
0.000541742
0.00053916
0.000535897
0.000531745
0.00052647
0.000519816
0.000511528
0.000501373
0.000489175
0.000474849
0.000458494
0.000440315
0.000420705
0.000400251
0.000379525
0.000359176
0.000339807
0.000321815
0.000305477
0.000290844
0.000277859
0.000266358
0.000256063
0.000246666
0.000237856
0.000229353
0.000220727
0.000211798
0.000202436
0.000192475
0.000181966
0.000171107
0.000160194
0.000149569
0.000139435
0.000130117
0.000121907
0.000114814
0.000108741
0.000103756
9.96818e-05
0.000587705
9.6409e-05
9.16343e-05
8.36349e-05
8.7052e-05
8.43422e-05
8.4738e-05
8.51789e-05
8.35428e-05
8.61151e-05
8.33128e-05
8.78692e-05
8.7115e-05
8.35315e-05
0.000590256
0.000594175
0.000597238
0.000599593
0.000601344
0.000602558
0.000603269
0.000603487
0.00060322
0.000602444
0.000601113
0.000599129
0.000596335
0.000583229
0.000575369
0.000568747
0.000563188
0.000558524
0.000554606
0.000551303
0.000548497
0.000546085
0.000543962
0.000542029
0.000540198
0.000538354
0.000536383
0.000534155
0.000531515
0.000528283
0.000524254
0.000519195
0.000512849
0.000504958
0.00049528
0.000483634
0.000469921
0.000454194
0.000436659
0.000417708
0.000397859
0.000377713
0.000357915
0.000339057
0.000321559
0.000305732
0.000291697
0.000279442
0.000268876
0.000259797
0.000251971
0.000245138
0.000239024
0.000233469
0.000228053
0.000222471
0.000216571
0.000209992
0.000202638
0.000194448
0.000185407
0.000175704
0.000165549
0.000155226
0.00014525
0.000135881
0.000127245
0.000119649
0.00011307
0.000107521
0.000102941
9.38099e-05
9.92395e-05
0.000592517
8.81588e-05
8.90418e-05
8.89645e-05
8.91426e-05
8.95254e-05
9.01413e-05
9.10223e-05
9.23462e-05
9.41133e-05
9.64047e-05
9.93127e-05
0.000102943
0.000107403
0.000112789
0.000119158
0.000126515
0.000134784
0.000143804
0.000153331
0.00016306
0.000172663
0.000181827
0.000190317
0.000197964
0.000204741
0.000210622
0.000215739
0.000220267
0.000224443
0.000228381
0.000232443
0.000236562
0.000241257
0.000246682
0.000253013
0.000260469
0.000269264
0.000279594
0.00029162
0.00030544
0.000321052
0.000338319
0.000356955
0.000376523
0.000396448
0.000416128
0.000434923
0.000452311
0.000467906
0.000481484
0.000493011
0.000502573
0.000510365
0.000516622
0.000521612
0.00052559
0.000528792
0.000531427
0.00053368
0.000535705
0.000537638
0.000539594
0.000541693
0.000544028
0.000546703
0.000549825
0.000553509
0.000557878
0.000563075
0.000569254
0.000576591
0.000585277
8.98629e-05
8.40866e-05
9.63045e-05
9.18064e-05
8.62863e-05
8.48082e-05
8.44535e-05
8.56577e-05
8.36869e-05
8.65821e-05
8.36148e-05
8.75514e-05
8.39956e-05
8.92479e-05
8.85671e-05
0.000587391
0.000577466
0.000568962
0.000561716
0.000555558
0.000550338
0.000545895
0.000542092
0.000538798
0.00053589
0.000533248
0.000530748
0.000528263
0.000525644
0.000522732
0.000519342
0.000515261
0.000510254
0.000504063
0.000496427
0.000487096
0.000475872
0.000462652
0.000447453
0.000430473
0.000412067
0.000392757
0.000373119
0.000353824
0.000335401
0.000318297
0.000302859
0.000289241
0.000277415
0.000267343
0.000258847
0.000251734
0.000245804
0.000240823
0.000236627
0.000233031
0.000229627
0.000226429
0.000223074
0.000219427
0.000215218
0.000210328
0.000204514
0.000197679
0.000189833
0.000181018
0.000171534
0.000161724
0.000151784
0.000142231
0.000133185
0.000125068
0.000117898
0.000111753
0.000106624
0.000102466
9.02712e-05
9.02781e-05
9.06012e-05
9.11257e-05
9.18091e-05
9.29608e-05
9.45156e-05
9.65631e-05
9.91823e-05
0.000102473
0.00010654
0.000111484
0.000117379
0.000124253
0.00013206
0.000140673
0.00014988
0.000159395
0.00016889
0.000178032
0.000186529
0.000194171
0.000200838
0.000206509
0.000211251
0.00021515
0.000218389
0.000221128
0.000223564
0.000225796
0.00022814
0.00023056
0.000233214
0.000236347
0.000240193
0.000244888
0.00025059
0.000257495
0.000265801
0.000275695
0.000287321
0.000300764
0.000316015
0.000332917
0.000351187
0.000370358
0.000389876
0.000409105
0.000427439
0.000444358
0.00045949
0.000472652
0.000483818
0.000493099
0.000500692
0.000506854
0.000511848
0.000515938
0.000519364
0.000522342
0.000525059
0.000527681
0.000530361
0.000533228
0.000536409
0.000540032
0.00054423
0.000549139
0.000554906
0.000561688
0.000569654
0.000578971
0.000589803
0.000595509
0.000599854
0.000603165
0.000605689
0.000607614
0.000609066
0.000610125
0.00061083
0.000611194
0.000611219
0.000610869
0.000610072
0.000608709
0.000606583
0.00060342
9.03875e-05
0.00059888
9.39842e-05
9.90779e-05
8.96158e-05
8.85398e-05
8.46006e-05
0.000612055
0.000616116
0.00061867
0.000620131
0.000620843
0.000621055
0.000620932
0.00062058
0.000620051
0.000619349
0.000618462
0.00061734
0.000615882
0.000613924
0.000611229
0.000607489
0.000602293
9.02677e-05
8.5769e-05
8.53794e-05
9.06939e-05
9.15945e-05
9.15492e-05
9.17243e-05
9.2172e-05
9.27334e-05
9.37553e-05
9.51086e-05
9.69402e-05
9.93107e-05
0.000102308
0.000106036
0.000110595
0.000116069
0.000122505
0.000129891
0.000138133
0.000147051
0.000156388
0.000165825
0.000175028
0.000183676
0.000191514
0.000198373
0.000204185
0.000208958
0.000212787
0.00021579
0.000218106
0.000219907
0.000221321
0.000222481
0.00022354
0.000224526
0.000225776
0.000227124
0.000228702
0.000230658
0.00023324
0.00023657
0.000240776
0.000246033
0.000252524
0.00026044
0.000269956
0.000281217
0.000294304
0.000309191
0.000325734
0.000343613
0.00036239
0.000381488
0.000400281
0.000418171
0.000434654
0.000449391
0.000462211
0.000473119
0.000482234
0.000489776
0.000496006
0.000501199
0.000505624
0.000509529
0.000513138
0.000516645
0.00052026
0.000524113
0.000528368
0.000533182
0.000538709
0.000545103
0.000552519
0.00056111
0.000571014
0.000582343
0.000595176
9.64612e-05
9.22083e-05
8.43452e-05
8.6244e-05
8.39078e-05
8.71631e-05
8.40653e-05
8.81156e-05
8.45332e-05
8.90945e-05
9.00899e-05
9.17982e-05
9.11071e-05
9.42448e-05
9.32143e-05
0.000606004
0.00059256
0.000580617
0.000570129
0.000561004
0.000553118
0.000546327
0.000540479
0.000535437
0.000531025
0.000527113
0.000523548
0.00052017
0.000516852
0.000513389
0.000509594
0.000505248
0.000500105
0.000493904
0.000486373
0.000477256
0.000466342
0.000453508
0.000438756
0.000422251
0.000404335
0.000385497
0.000366338
0.000347466
0.000329485
0.000312786
0.000297742
0.000284446
0.000273001
0.000263296
0.000255196
0.00024852
0.000243086
0.000238675
0.00023515
0.000232369
0.000230128
0.000228158
0.000226234
0.000224627
0.000222887
0.000220916
0.000218535
0.00021555
0.000211837
0.000207173
0.000201445
0.000194575
0.000186674
0.000177891
0.000168352
0.000158571
0.000148842
0.000139594
0.000130892
0.000123115
0.000116425
0.000110743
0.000106031
0.000102248
0.000626987
9.43587e-05
9.91386e-05
0.000196959
0.000620948
8.75776e-05
8.52241e-05
0.000630763
0.00063283
0.000633689
0.000633746
0.00063335
0.000632725
0.000632016
0.000631306
0.000630606
0.000629905
0.000629132
0.000628151
0.000626753
0.000624636
0.000621402
0.000616553
0.000609551
8.91731e-05
8.54628e-05
8.60238e-05
9.41494e-05
9.28663e-05
9.29081e-05
9.32869e-05
9.38304e-05
9.46573e-05
9.58277e-05
9.74842e-05
9.96407e-05
0.000102384
0.000105816
0.000110037
0.000115133
0.000121169
0.000128156
0.000136035
0.000144663
0.00015381
0.000163182
0.000172444
0.000181265
0.000189361
0.000196517
0.00020262
0.000207642
0.00021164
0.000214709
0.000216996
0.000218628
0.000219752
0.000220485
0.00022095
0.000221232
0.000221414
0.000221576
0.000221756
0.000222145
0.000222757
0.00022351
0.000224592
0.000226088
0.000228262
0.00023121
0.000235038
0.000239929
0.000246064
0.000253626
0.000262794
0.000273706
0.000286435
0.000300958
0.000317118
0.000334609
0.000352973
0.000371649
0.000390014
0.000407483
0.000423583
0.000437993
0.000450574
0.000461342
0.00047045
0.000478129
0.00048465
0.000490299
0.000495356
0.000500081
0.00050469
0.000509478
0.000514548
0.000520108
0.000526339
0.000533406
0.00054146
0.00055063
0.000561015
0.000572674
0.000585618
0.0005998
9.08661e-05
8.44818e-05
8.6901e-05
9.67534e-05
9.27861e-05
8.42976e-05
8.78178e-05
8.45834e-05
8.87598e-05
8.51687e-05
8.97147e-05
9.06811e-05
9.16534e-05
9.35883e-05
0.000643702
0.000637331
9.60283e-05
9.61875e-05
0.000612063
0.000597433
0.00058398
0.000571781
0.000560864
0.000551193
0.00054269
0.000535241
0.000528716
0.00052296
0.000517814
0.000513096
0.000508613
0.000504245
0.000499718
0.00049482
0.000489294
0.000482868
0.000475261
0.000466204
0.000455472
0.00044292
0.000428528
0.000412436
0.000394957
0.000376566
0.000357838
0.00033939
0.000321781
0.000305495
0.000290809
0.000277901
0.000266781
0.00025745
0.000249691
0.000243379
0.000238303
0.000234308
0.000231185
0.000228833
0.000227156
0.000225787
0.000224804
0.000223878
0.000223301
0.000222702
0.000222092
0.000221296
0.000220211
0.000218709
0.000216639
0.000213818
0.000210085
0.000205291
0.000199353
0.000192271
0.000184037
0.000175054
0.000165574
0.000155789
0.000146148
0.000137179
0.000128931
0.000121615
0.000115297
0.000110059
0.000105659
0.00010219
9.56083e-05
9.45e-05
9.48793e-05
9.93722e-05
0.000247009
8.70383e-05
8.59022e-05
0.000647485
0.00064927
0.000649646
0.000649135
0.000648171
0.000647045
0.000645974
0.000645071
0.00064437
0.00064385
0.000643416
0.000642888
0.000641992
0.000640334
0.000637424
0.000632663
0.000625449
0.000615129
8.84183e-05
8.53065e-05
8.67438e-05
0.000103732
9.4165e-05
9.44381e-05
9.49517e-05
9.55872e-05
9.67057e-05
9.81832e-05
0.000100151
0.000102676
0.00010584
0.000109761
0.000114518
0.000120185
0.000126796
0.000134318
0.000142642
0.000151574
0.000160843
0.000170128
0.000179096
0.000187438
0.00019491
0.000201355
0.000206711
0.000210995
0.000214288
0.000216712
0.0002184
0.000219489
0.0002201
0.000220343
0.000220314
0.000220085
0.000219731
0.000219296
0.00021884
0.000218391
0.000217989
0.000217691
0.00021771
0.000217822
0.000218178
0.000218899
0.00022007
0.000221919
0.000224544
0.000228059
0.000232634
0.000238451
0.000245692
0.000254529
0.000265094
0.000277467
0.000291616
0.00030739
0.000324477
0.00034243
0.000360684
0.00037864
0.000395739
0.000411525
0.000425712
0.00043819
0.000449003
0.000458321
0.000466391
0.0004735
0.00047995
0.000486027
0.000491964
0.000498161
0.000504658
0.000511704
0.000519492
0.000528164
0.000537826
0.000548538
0.000560304
0.00057307
0.000586726
0.000601123
8.99814e-05
8.4724e-05
8.76356e-05
9.16085e-05
8.47632e-05
8.85563e-05
9.7199e-05
9.35028e-05
8.5207e-05
8.94885e-05
8.5861e-05
9.04254e-05
9.13607e-05
9.2293e-05
0.000662185
0.000655052
9.32161e-05
9.41189e-05
7.47571e-05
9.49853e-05
0.000627749
0.000614389
0.000599767
0.000585797
0.000572638
0.000560433
0.000549266
0.000539164
0.000530098
0.000521988
0.000514713
0.00050813
0.000502043
0.000496215
0.000490573
0.000484749
0.00047851
0.000471573
0.000463644
0.000454441
0.000443719
0.000431313
0.000417177
0.000401421
0.00038433
0.000366348
0.000348037
0.000329995
0.000312784
0.000296854
0.000282531
0.00026997
0.000259207
0.000250185
0.000242767
0.000236748
0.000231988
0.000228325
0.000225553
0.000223551
0.00022224
0.000221248
0.00022076
0.000220398
0.000220263
0.000220363
0.000220518
0.000220689
0.000220823
0.000220846
0.000220684
0.000220231
0.000219374
0.000217984
0.000215893
0.000212942
0.000208977
0.000203876
0.000197544
0.000190105
0.000181694
0.000172441
0.000162776
0.000153206
0.000143794
0.000135072
0.000127119
0.000120312
0.000114417
0.000109511
0.000105488
0.000102301
0.0012337
9.55322e-05
9.97652e-05
2.28192e-05
0.000138731
8.66292e-05
8.66588e-05
0.00066638
0.000668199
0.000668353
0.000667467
0.000666022
0.000664449
0.000663039
0.000661952
0.000661237
0.000660869
0.000660723
0.000660561
0.000660015
0.000658588
0.0006557
0.000650674
0.000642815
0.000631473
0.000616104
8.79374e-05
8.54239e-05
8.75242e-05
0.000143328
0.000104329
9.55581e-05
9.60433e-05
9.66882e-05
9.76405e-05
9.89527e-05
0.000100776
0.000103115
0.000106069
0.000109707
0.000114176
0.000119504
0.000125763
0.00013294
0.000140954
0.000149644
0.000158769
0.000168028
0.00017709
0.000185637
0.000193399
0.000200184
0.000205893
0.000210512
0.000214097
0.000216751
0.000218602
0.000219783
0.000220419
0.000220622
0.000220487
0.000220091
0.000219497
0.000218759
0.000217915
0.000217011
0.000216081
0.000215145
0.00021424
0.000213391
0.000212617
0.000212034
0.000211729
0.000211509
0.000211574
0.000212017
0.000212927
0.000214521
0.000216874
0.000220124
0.000224425
0.000229957
0.0002369
0.000245419
0.000255652
0.000267669
0.000281442
0.00029682
0.0003135
0.000331044
0.000348907
0.000366511
0.000383322
0.00039892
0.000413049
0.000425627
0.000436729
0.000446546
0.00045534
0.000463412
0.000471065
0.000478526
0.000486313
0.000494356
0.000502948
0.000512221
0.000522272
0.000533126
0.000544746
0.000557033
0.000569839
0.000582991
0.000596343
8.93446e-05
8.51137e-05
8.84323e-05
9.09246e-05
8.53417e-05
8.93572e-05
9.25492e-05
8.58871e-05
9.02864e-05
9.77953e-05
9.43633e-05
8.66274e-05
9.12113e-05
9.21289e-05
0.000682437
0.000674016
9.30331e-05
9.39179e-05
9.47846e-05
9.56266e-05
0.000644331
0.000629506
0.000596842
0.000583575
0.000570581
0.000558024
0.000546084
0.000534885
0.0005245
0.000514942
0.000506162
0.000498042
0.000490431
0.000483059
0.000475937
0.000468585
0.000460774
0.000452203
0.000442575
0.000431629
0.000419176
0.000405142
0.000389607
0.00037282
0.000355198
0.000337272
0.000319622
0.000302797
0.000287244
0.000273274
0.00026105
0.000250604
0.000241875
0.000234742
0.000229029
0.000224548
0.00022113
0.000218637
0.000216906
0.000215863
0.00021529
0.000215056
0.000215092
0.000215261
0.000215757
0.000216363
0.000217036
0.000217754
0.00021847
0.000219153
0.000219771
0.000220242
0.000220523
0.000220531
0.00022017
0.000219317
0.000217833
0.000215556
0.000212339
0.00020802
0.00020253
0.000195863
0.000188024
0.00017928
0.000169998
0.000160288
0.000150769
0.000141536
0.00013326
0.000125704
0.000119189
0.000113754
0.000109214
0.000105542
0.000102606
9.67251e-05
9.63035e-05
0.000100295
9.64629e-05
0.000610252
8.63967e-05
8.74639e-05
0.000687517
0.000689861
0.000690194
0.000689222
0.000687522
0.000685657
0.000683997
0.000682753
0.000681992
0.000681704
0.000681719
0.000681719
0.000681238
0.000679685
0.000676386
0.000670595
0.00066158
0.000648719
0.000631544
0.00060981
8.76149e-05
8.5644e-05
8.83635e-05
9.713e-05
9.73175e-05
9.71728e-05
9.76509e-05
9.85236e-05
9.97274e-05
0.000101459
0.000103669
0.000106438
0.000109877
0.000114043
0.0001191
0.00012502
0.000131868
0.000139573
0.000148004
0.00015695
0.00016613
0.000175229
0.000183923
0.000191926
0.000199018
0.000205067
0.000210026
0.000213927
0.000216853
0.000218923
0.000220264
0.000221004
0.000221258
0.000221122
0.000220681
0.000219997
0.000219124
0.000218107
0.000216972
0.00021576
0.000214492
0.000213189
0.000211873
0.000210561
0.000209285
0.000208081
0.000206975
0.000205953
0.000205157
0.000204573
0.000204139
0.000203996
0.000204236
0.000204939
0.000206323
0.000208447
0.000211477
0.000215543
0.000220824
0.000227492
0.000235711
0.000245616
0.000257279
0.000270682
0.000285676
0.000301974
0.000319154
0.000336697
0.000354052
0.000370715
0.000386304
0.000400597
0.000413543
0.00042524
0.000435889
0.000445765
0.000455152
0.000464243
0.000473652
0.000483229
0.000493143
0.000503509
0.000514335
0.00052558
0.000537125
0.000548812
0.000560498
0.000572078
0.000583529
8.89524e-05
8.55997e-05
8.92885e-05
9.03929e-05
8.59861e-05
9.02218e-05
9.74128e-05
9.19118e-05
8.66441e-05
9.11507e-05
9.35348e-05
8.74418e-05
9.20689e-05
0.00070443
0.000694166
9.85024e-05
9.53041e-05
9.29713e-05
9.38558e-05
9.47237e-05
9.55675e-05
9.6339e-05
0.00066168
0.000644993
0.000623741
0.000586448
0.000574854
0.000563144
0.000551383
0.000539709
0.000528288
0.000517274
0.000506753
0.000496751
0.000487234
0.000478063
0.000469073
0.000460331
0.000451274
0.000441698
0.000431312
0.000419843
0.000407087
0.000392943
0.000377457
0.000360845
0.000343489
0.000325885
0.000308589
0.000292128
0.000276935
0.000263314
0.000251421
0.000241288
0.000232848
0.000225971
0.000220503
0.000216265
0.00021307
0.000210801
0.000209291
0.000208464
0.000208118
0.000208138
0.000208455
0.000208873
0.000209583
0.000210495
0.000211492
0.000212562
0.000213711
0.000214843
0.00021599
0.000217107
0.000218142
0.000219086
0.000219888
0.000220513
0.000220883
0.000220917
0.000220508
0.000219539
0.000217851
0.000215292
0.000211714
0.000207014
0.000201094
0.000194016
0.000185913
0.000176885
0.000167452
0.000157728
0.000148494
0.000139569
0.000131571
0.000124529
0.00011839
0.000113361
0.000109189
0.000105807
0.000103084
9.71536e-05
9.70573e-05
0.00010094
9.72134e-05
0.000597929
8.6471e-05
8.83287e-05
0.000711018
0.0007145
0.000715595
0.000715051
0.000713517
0.000711642
0.000709891
0.000708544
0.000707706
0.000707358
0.000707277
0.000707073
0.000706199
0.000703982
0.000699664
0.000692465
0.000681693
0.000666799
0.000647405
0.000623411
0.000594938
8.76006e-05
8.60257e-05
8.92535e-05
9.87245e-05
9.91954e-05
9.97725e-05
0.000100716
0.000102221
0.000104289
0.000106931
0.000110194
0.000114169
0.000118915
0.000124573
0.00013109
0.000138491
0.00014665
0.000155385
0.000164441
0.000173517
0.000182293
0.000190478
0.000197826
0.000204179
0.00020946
0.000213674
0.000216884
0.000219197
0.000220734
0.000221622
0.000221975
0.000221898
0.000221476
0.000220775
0.000219859
0.000218755
0.000217517
0.000216169
0.000214718
0.000213222
0.000211672
0.000210074
0.000208459
0.000206847
0.000205251
0.000203709
0.000202221
0.00020079
0.000199456
0.000198282
0.000197335
0.000196575
0.000195976
0.000195693
0.000195794
0.000196345
0.000197548
0.000199508
0.000202354
0.000206217
0.000211265
0.000217678
0.000225619
0.000235219
0.000246557
0.00025962
0.000274277
0.000290257
0.000307161
0.000324498
0.000341752
0.000358456
0.000374261
0.000388976
0.000402566
0.000415133
0.000426874
0.000438011
0.000448674
0.000459416
0.000470271
0.000481007
0.000491753
0.000502501
0.000513148
0.000523562
0.00053368
0.000543477
0.000553002
0.000562403
8.87908e-05
8.61857e-05
9.0197e-05
9.85713e-05
9.76497e-05
9.0067e-05
8.67116e-05
9.11402e-05
9.1467e-05
8.74501e-05
9.2073e-05
0.000728254
0.000715535
9.29832e-05
8.83138e-05
9.45698e-05
9.29887e-05
9.38847e-05
9.93054e-05
9.63069e-05
9.47601e-05
9.56096e-05
9.64123e-05
9.71652e-05
0.000679743
0.000660831
0.000637328
0.000609364
0.000567827
0.000558256
0.00054847
0.000538392
0.000528016
0.000517419
0.000506696
0.000495982
0.000485374
0.000474868
0.000464317
0.000453906
0.000443551
0.00043273
0.000421297
0.000409011
0.000395666
0.000381155
0.0003655
0.000348884
0.000331648
0.000314263
0.000297245
0.000281093
0.000266224
0.000252921
0.000241334
0.00023149
0.000223318
0.00021669
0.000211446
0.00020741
0.00020441
0.000202305
0.000200974
0.000200313
0.000200115
0.000200298
0.000200798
0.000201434
0.000202311
0.000203417
0.000204617
0.000205937
0.00020733
0.000208797
0.000210267
0.000211744
0.000213221
0.000214655
0.000216006
0.000217306
0.000218513
0.000219577
0.000220472
0.000221132
0.000221488
0.000221456
0.00022092
0.000219748
0.000217805
0.000214922
0.000210968
0.000205852
0.000199553
0.000192031
0.00018364
0.000174406
0.000165048
0.000155493
0.000146346
0.000137813
0.000130229
0.000123589
0.000118023
0.000113272
0.000109387
0.000106189
0.000103625
9.80548e-05
9.79091e-05
0.000101599
9.79254e-05
0.000577285
8.66476e-05
8.92363e-05
0.000737078
0.000742497
0.000745174
0.000745814
0.000745089
0.000743696
0.000742187
0.000740894
0.000739919
0.000739258
0.000738634
0.000737632