/*--------------------------------*- C++ -*----------------------------------*\
| =========                 |                                                 |
| \\      /  F ield         | OpenFOAM: The Open Source CFD Toolbox           |
|  \\    /   O peration     | Version:  2212                                  |
|   \\  /    A nd           | Website:  www.openfoam.com                      |
|    \\/     M anipulation  |                                                 |
\*---------------------------------------------------------------------------*/
FoamFile
{
    version     2.0;
    format      ascii;
    arch        "LSB;label=32;scalar=64";
    class       surfaceScalarField;
    location    "0.0572";
    object      phi;
}
// * * * * * * * * * * * * * * * * * * * * * * * * * * * * * * * * * * * * * //

dimensions      [1 0 -1 0 0 0 0];

oriented        oriented;

internalField   nonuniform List<scalar> 
62761
(
2.79188e-05
-0.000231252
1.66539e-05
0.00018668
1.92705e-05
-0.000107386
0.000107162
-1.90464e-05
-1.91631e-05
-0.000110218
0.00010992
1.94607e-05
-0.000108786
0.000108893
2.01768e-05
-0.000108276
-1.92869e-05
-2.08229e-05
-0.000110804
2.1409e-05
-0.000109432
2.1001e-05
-2.01822e-05
-0.000109095
-2.14385e-05
2.17556e-05
-0.000111121
-0.000109869
-0.00029053
-5.71404e-05
6.65951e-05
0.000281075
-6.905e-05
-0.000114803
9.35279e-05
9.03254e-05
6.48557e-05
-7.8426e-05
1.35704e-05
0.000252596
-2.50353e-05
-0.000310983
8.34225e-05
0.000174329
-1.49942e-05
-0.000197938
3.86028e-05
0.000224013
-0.00017084
-0.000102847
4.96744e-05
0.000152111
-8.8851e-05
-0.000184972
0.000121712
-0.000208797
0.000209194
-5.2096e-05
5.16985e-05
0.000121845
5.55614e-05
-0.00014522
-3.21861e-05
0.000232674
-6.2257e-06
2.32037e-06
-0.000228769
0.000193231
-0.000142604
1.25632e-05
-6.319e-05
-8.46338e-06
0.00020889
-7.1964e-06
-1.64949e-06
-0.000301992
0.00030351
1.31723e-07
-0.000221127
0.000293251
8.2738e-05
-0.000154862
0.000102919
-3.17128e-07
-0.000126745
2.41437e-05
-0.000122302
-8.48844e-05
6.45829e-05
-0.000284922
-3.26687e-06
0.000286539
0.000285703
9.9152e-05
-0.000322247
-6.26088e-05
0.000108966
-8.0092e-05
-9.79241e-05
-0.000103268
0.000124653
8.38617e-05
-0.000105247
0.000274472
3.41643e-05
-2.18182e-05
-0.000286818
3.37089e-06
-5.32563e-05
-3.53638e-06
5.34218e-05
-5.46103e-07
-6.28689e-05
6.67859e-05
-6.15853e-05
-0.000174564
0.00018523
5.09191e-05
6.31057e-06
0.000178136
-0.000165305
-1.91415e-05
0.000189347
-0.000181152
0.000160997
-0.000169193
-0.000128198
-4.92104e-05
6.70576e-05
0.000110351
0.000322987
0.000102035
-0.000235674
0.000243614
-0.000222347
0.000120793
-0.000142061
3.38194e-05
-9.39013e-05
8.71694e-05
-2.70875e-05
0.000132733
-0.000129184
-1.37383e-05
1.01889e-05
-0.000104723
-1.6919e-05
0.000104099
1.75428e-05
5.78713e-05
-7.99491e-05
0.00023518
-0.000213102
-0.00015786
0.000150571
0.000138557
-0.000131268
0.000123117
-0.00015101
-0.000125041
0.000152933
-0.000100423
0.000102107
-9.80287e-05
9.63454e-05
0.000128587
-0.000163329
-0.000197602
0.000106552
-5.89838e-05
0.000150034
-0.00014549
5.98738e-05
-4.25814e-05
-0.000296114
7.69935e-05
-4.32967e-05
0.000262417
-5.91128e-05
6.56345e-05
-0.000166365
0.000159844
-0.000370716
-7.27535e-05
0.000141394
0.000302075
0.000100474
9.28207e-05
-0.000124754
-6.85403e-05
-0.000177054
0.000197996
-9.20641e-06
-1.17353e-05
0.000107598
-0.000267609
-0.000140117
0.000300128
-8.33392e-05
-9.97591e-05
9.68657e-05
8.62326e-05
0.000100043
-9.40552e-05
0.000106933
-0.00011292
7.0267e-05
-0.000109151
0.000155967
-0.000117084
-0.000135494
-1.88619e-05
1.88706e-05
0.000135486
0.000135937
-0.000131078
1.19243e-05
-1.67842e-05
-2.74475e-05
-0.000132604
-1.68032e-05
0.000176855
-0.00014914
0.000121355
0.000128978
-0.000101193
0.000154549
-8.91966e-05
-0.000170007
0.000104655
1.62923e-05
0.000116767
-9.0494e-05
-4.25648e-05
-6.67064e-05
0.000157799
-0.000160246
6.91531e-05
-2.10345e-05
0.000306884
1.09951e-05
-0.000296845
-0.000146946
0.000172539
5.01458e-05
-7.57388e-05
-0.000129848
-9.33888e-06
3.69399e-06
-0.000122592
-1.78151e-06
-5.47385e-06
7.40728e-06
-1.66338e-05
-0.000113365
-0.000109407
-6.52213e-05
0.000119853
5.47755e-05
-0.00010946
-1.4851e-05
1.73949e-05
0.000106916
-0.000106986
-7.44239e-06
4.9689e-06
-0.000104616
-4.35787e-06
1.98851e-06
-0.000102211
-3.10155e-06
6.97015e-07
-9.99644e-05
-2.5475e-06
3.01107e-07
-9.79654e-05
-2.19563e-06
1.96866e-07
-9.65384e-05
-1.96387e-06
5.37135e-07
-9.53486e-05
-1.9817e-06
7.92079e-07
-9.45253e-05
-1.93094e-06
1.10783e-06
-9.39901e-05
-2.11208e-06
1.57706e-06
-9.37598e-05
-2.24268e-06
2.01252e-06
-9.34231e-05
-2.42602e-06
2.08938e-06
-2.35636e-06
-9.35202e-05
2.45364e-06
9.43796e-05
-9.44365e-05
-2.29932e-06
9.42856e-05
-2.33187e-06
9.44761e-05
-2.43305e-06
9.49373e-05
-2.57317e-06
9.57712e-05
-2.76458e-06
9.69258e-05
-3.13611e-06
9.84416e-05
-3.47948e-06
0.000100296
-4.05e-06
0.000102556
-4.80706e-06
0.000105446
-5.99074e-06
0.000108416
-7.3278e-06
0.000111361
-1.03869e-05
0.000111197
-1.46866e-05
0.000114199
-9.45072e-06
6.44907e-06
0.000125642
-4.03563e-06
0.000132208
-8.34684e-06
0.000136974
-1.41048e-05
0.000136329
-1.82164e-05
0.0001423
-1.19759e-05
6.00541e-06
1.14784e-05
0.000154632
-2.46183e-05
-0.000141491
0.000157027
-3.24804e-06
1.92726e-06
0.000163364
-1.06595e-05
0.000164598
-5.64386e-06
-1.74611e-06
0.000170685
-5.5739e-06
0.000170912
-8.05918e-06
-3.28828e-06
0.000177152
-3.17904e-06
0.00017658
-8.95605e-06
-3.42313e-06
0.000182618
-2.04215e-06
0.000181678
-8.52117e-06
-3.17861e-06
0.000187259
-1.46251e-06
0.000186239
-7.73998e-06
-2.81029e-06
0.000191179
-1.1105e-06
0.000190172
-6.74318e-06
-2.57036e-06
0.000194532
-7.82163e-07
0.000193502
-5.89997e-06
-2.16271e-06
0.000197264
-5.70419e-07
0.000196324
-4.98543e-06
-1.74532e-06
0.000199418
-4.08893e-07
0.000198662
-4.08356e-06
-1.51317e-06
0.000201216
-2.85105e-07
0.000200642
-3.49433e-06
-1.25851e-06
0.00020272
-2.46372e-07
0.000202259
-2.87604e-06
-1.03016e-06
0.000203911
-1.61511e-07
0.000203593
-2.36396e-06
-9.45128e-07
0.00020494
-8.42349e-08
0.000204592
-1.94527e-06
-7.41256e-07
0.00020577
-8.97474e-08
0.000205503
-1.65271e-06
-5.59248e-07
0.000206413
-8.44696e-08
0.00020627
-1.32773e-06
-4.78891e-07
0.000206968
-7.71061e-08
0.000206908
-1.11779e-06
-4.34415e-07
0.000207459
-5.8244e-08
0.000207394
-9.22178e-07
-3.84208e-07
0.000207891
-4.94427e-08
0.000207819
-8.09775e-07
-3.24555e-07
0.000208252
-3.74019e-08
0.000208225
-7.32995e-07
-2.98943e-07
0.000208577
-2.80213e-08
0.000208553
-6.28544e-07
-2.53756e-07
0.000208853
-2.44803e-08
0.000208862
-5.64935e-07
-2.44846e-07
0.000209111
-1.55053e-08
0.000209111
-4.95306e-07
-1.99653e-07
0.000209377
-6.80746e-08
0.000209336
-4.27612e-07
-1.3964e-07
0.000209606
-9.21193e-08
0.000209598
-4.04438e-07
-1.08237e-07
0.0002098
-8.87241e-08
0.000209821
-3.34488e-07
-9.94922e-08
0.000210025
-1.29165e-07
0.000210038
-3.1899e-07
-5.5101e-08
0.00021023
-1.53589e-07
0.000210283
-3.04167e-07
-4.69986e-08
0.000210455
-1.82531e-07
0.000210494
-2.62627e-07
-1.4716e-08
0.000210702
-2.37534e-07
0.000210766
-2.91089e-07
2.79444e-08
0.000210975
-3.05596e-07
0.000211015
-2.27009e-07
8.6901e-08
0.000211255
-3.72978e-07
0.000211314
-2.1837e-07
1.53892e-07
0.000211582
-4.88421e-07
0.000211675
-2.14352e-07
-2.26584e-07
-1.87652e-07
0.000212082
-6.19497e-07
0.000211967
-0.000211634
0.00021201
-1.00375e-06
-0.000211311
-8.18612e-07
-0.000211025
-6.64806e-07
-0.000210773
-5.63175e-07
-0.00021053
-4.85592e-07
-0.000210303
-4.14187e-07
-0.000210076
-3.8441e-07
-0.000209866
-3.41926e-07
-0.000209626
-3.32359e-07
-0.000209417
-3.03315e-07
-0.000209207
-2.81123e-07
-0.000208917
-3.07879e-07
-0.000208638
-3.05265e-07
-0.000208307
-3.60571e-07
-0.00020793
-4.16435e-07
-0.000207532
-4.4842e-07
-0.000207053
-5.3806e-07
-0.000206457
-6.75158e-07
-0.000205748
-7.94302e-07
-0.000204863
-9.74908e-07
-0.000203776
-1.17244e-06
-0.000202508
-1.43056e-06
-0.000201014
-1.74029e-06
-0.00019915
-2.14985e-06
-0.000196818
-2.74165e-06
-0.000194026
-3.36261e-06
-0.000190513
-4.29547e-06
-0.000186397
-5.22649e-06
-0.000181514
-6.34504e-06
-0.000175787
-7.76983e-06
-0.000169303
-9.66277e-06
-0.000162244
-1.26325e-05
-0.000157184
-1.5719e-05
-0.000164747
-1.70546e-05
-0.00014167
-4.20631e-06
-0.000131846
-6.12896e-06
-0.000127027
-1.0292e-05
-0.000132883
-1.07776e-05
-0.000115359
-1.2874e-07
-0.000109737
-6.52872e-07
-0.000106011
-1.73684e-06
-0.000102894
-2.41981e-06
-0.000100333
-2.2597e-06
-9.83579e-05
-1.77748e-06
-9.67273e-05
-1.09326e-06
-9.54246e-05
-5.10409e-07
2.55991e-06
-9.46361e-05
-2.36021e-06
-9.41271e-05
3.16687e-06
-9.46446e-05
3.28028e-07
-9.41639e-05
1.09654e-06
-9.35735e-05
1.42229e-06
-9.31926e-05
1.70861e-06
-9.32414e-05
2.50254e-06
-2.75996e-06
2.88939e-06
-9.42564e-05
-2.27504e-06
-9.5121e-05
9.54346e-05
-9.573e-05
-1.97954e-06
9.51637e-05
-2.08924e-06
9.50818e-05
-2.2173e-06
9.51408e-05
-2.39068e-06
9.54606e-05
-2.75277e-06
9.60393e-05
-3.15162e-06
9.69673e-05
-3.69248e-06
9.82119e-05
-4.38041e-06
9.99195e-05
-5.18692e-06
0.000101935
-6.06561e-06
0.000104365
-7.23678e-06
0.000107064
-8.68878e-06
0.000110383
-1.06467e-05
0.000113178
-1.31813e-05
0.00011439
-1.58983e-05
0.000119576
-1.46363e-05
0.000126852
-1.13117e-05
0.000133101
-1.45949e-05
0.000137296
-1.82994e-05
0.000140159
-2.10792e-05
0.000145657
-1.7473e-05
0.000155147
-1.27379e-05
0.000162679
-1.31756e-05
0.00016862
-1.39998e-05
0.000173772
-1.41076e-05
0.000178718
-1.34674e-05
0.000183177
-1.21988e-05
0.000187188
-1.07546e-05
0.000190858
-9.57001e-06
0.000194031
-8.15868e-06
0.000196809
-6.86158e-06
0.000199042
-5.72766e-06
0.000201003
-4.83816e-06
0.000202567
-3.92806e-06
0.000203919
-3.29858e-06
0.00020495
-2.68452e-06
0.000205869
-2.2476e-06
0.000206627
-1.87739e-06
0.000207265
-1.56094e-06
0.000207765
-1.31128e-06
0.000208196
-1.16551e-06
0.000208552
-9.86609e-07
0.000208869
-8.83833e-07
0.000209154
-7.82685e-07
0.00020943
-7.05983e-07
0.000209686
-6.62662e-07
0.000209928
-5.79797e-07
0.000210177
-5.71889e-07
0.000210406
-5.37171e-07
0.000210679
-5.39543e-07
0.000210899
-5.16574e-07
0.000211197
-5.30734e-07
0.000211545
-5.72608e-07
0.000211896
-5.72159e-07
0.000212333
-6.33344e-07
2.43183e-07
-7.42594e-07
0.000212823
-2.64001e-07
0.00021258
-7.55081e-07
0.000212449
-1.21485e-06
0.000212461
-0.000212262
0.000212682
-1.64464e-06
-0.000211853
-1.42022e-06
-0.000211537
-1.1423e-06
-0.000211236
-9.72173e-07
-0.000210941
-8.63761e-07
-0.000210698
-7.33309e-07
-0.000210441
-6.76021e-07
-0.000210246
-5.83648e-07
-0.000209998
-5.93329e-07
-0.000209775
-5.57865e-07
-0.000209535
-5.46209e-07
-0.000209309
-5.09946e-07
-0.00020903
-5.88972e-07
-0.000208697
-6.39998e-07
-0.000208337
-7.22979e-07
-0.000207965
-7.89405e-07
-0.000207504
-9.11722e-07
-0.00020691
-1.13315e-06
-0.000206218
-1.36827e-06
-0.000205383
-1.63042e-06
-0.00020438
-1.9781e-06
-0.000203157
-2.39654e-06
-0.000201709
-2.87914e-06
-0.000199915
-3.53512e-06
-0.0001977
-4.36506e-06
-0.000195015
-5.42715e-06
-0.000191847
-6.53062e-06
-0.00018815
-7.99327e-06
-0.000183804
-9.57227e-06
-0.000178719
-1.14302e-05
-0.000173164
-1.33242e-05
-0.000167297
-1.55302e-05
-0.000162208
-1.77212e-05
-0.000158211
-1.97155e-05
-0.0001555
-1.97653e-05
-0.000144902
-1.48031e-05
-0.000136379
-1.46514e-05
-0.000131526
-1.51448e-05
-0.000128548
-1.37545e-05
-0.000119757
-8.91986e-06
-0.000113438
-6.97074e-06
-0.000108846
-6.32902e-06
-0.000105278
-5.98778e-06
-0.000102459
-5.07795e-06
-9.96737e-05
-4.56252e-06
-9.78445e-05
-2.92217e-06
-9.66223e-05
-1.73241e-06
-9.57065e-05
-5.87571e-07
-9.4693e-05
8.32747e-08
-9.26573e-05
2.5828e-06
-9.39572e-05
6.86616e-07
-9.35076e-05
1.25917e-06
-9.30696e-05
2.06459e-06
2.19461e-06
-9.60084e-05
-1.91607e-06
2.47352e-06
-9.53998e-05
3.67036e-06
-9.34381e-05
2.64938e-06
-9.44322e-05
-1.66713e-06
2.16134e-06
-9.65026e-05
9.67733e-05
-9.71142e-05
-1.3262e-06
9.63891e-05
-1.53171e-06
9.61364e-05
-1.72675e-06
9.60129e-05
-1.96565e-06
9.60839e-05
-2.28818e-06
9.64044e-05
-2.71101e-06
9.69041e-05
-3.25233e-06
9.77351e-05
-3.98244e-06
9.88989e-05
-4.85607e-06
0.000100368
-5.84945e-06
0.000102239
-7.058e-06
0.000104552
-8.37801e-06
0.000107226
-9.91009e-06
0.000110259
-1.17221e-05
0.000113442
-1.38293e-05
0.000116453
-1.61917e-05
0.000119334
-1.87788e-05
0.000123048
-1.835e-05
0.000129207
-1.74703e-05
0.000134458
-1.98451e-05
0.000138464
-2.2306e-05
0.00014149
-2.41047e-05
0.000146403
-2.23858e-05
0.000153111
-1.94451e-05
0.000159289
-1.93538e-05
0.000164624
-1.9334e-05
0.000169458
-1.89413e-05
0.000174008
-1.80173e-05
0.000178451
-1.66419e-05
0.00018275
-1.50542e-05
0.000186594
-1.34139e-05
0.000190217
-1.17811e-05
0.000193376
-1.00215e-05
0.000196234
-8.58606e-06
0.000198641
-7.24532e-06
0.000200788
-6.0759e-06
0.000202516
-5.02743e-06
0.000203975
-4.14466e-06
0.000205104
-3.37726e-06
0.000206082
-2.85598e-06
0.000206883
-2.36345e-06
0.000207532
-1.96151e-06
0.000208053
-1.68887e-06
0.000208515
-1.44989e-06
0.000208888
-1.25944e-06
0.00020924
-1.13709e-06
0.000209527
-9.94914e-07
0.00020979
-9.28993e-07
0.000210079
-8.71916e-07
0.000210338
-8.34172e-07
0.000210607
-8.11077e-07
0.000210871
-8.07644e-07
0.000211178
-8.28994e-07
0.000211488
-8.46778e-07
0.00021182
-9.10928e-07
0.000212225
-9.84552e-07
0.000212703
-1.1194e-06
0.000213216
-1.26555e-06
8.73119e-07
-1.53928e-06
0.000213871
2.82852e-07
0.000213403
-2.56989e-07
0.000213109
-7.84497e-07
0.000212966
-1.39128e-06
0.000213057
-1.93066e-06
0.000213211
-0.000213021
0.000213589
-2.50958e-06
-0.000212582
-2.09367e-06
-0.000212213
-1.79765e-06
-0.000211818
-1.54545e-06
-0.000211506
-1.2908e-06
-0.000211226
-1.14954e-06
-0.000210933
-1.03086e-06
-0.000210707
-9.07291e-07
-0.000210429
-8.66049e-07
-0.000210189
-8.36951e-07
-0.000209968
-7.81489e-07
-0.000209701
-8.16896e-07
-0.000209411
-8.01845e-07
-0.000209111
-8.91741e-07
-0.000208735
-1.01783e-06
-0.000208347
-1.11307e-06
-0.000207847
-1.29136e-06
-0.000207243
-1.51668e-06
-0.000206519
-1.8586e-06
-0.000205715
-2.17336e-06
-0.00020465
-2.69643e-06
-0.000203377
-3.25201e-06
-0.000201861
-3.91314e-06
-0.000199985
-4.75579e-06
-0.000197689
-5.83195e-06
-0.000194957
-7.09716e-06
-0.000191774
-8.61086e-06
-0.000188181
-1.01236e-05
-0.000184039
-1.21356e-05
-0.000179482
-1.41291e-05
-0.000174662
-1.62507e-05
-0.000169644
-1.83412e-05
-0.000164793
-2.03819e-05
-0.000160261
-2.2252e-05
-0.000156404
-2.35727e-05
-0.000152211
-2.39577e-05
-0.000145642
-2.13718e-05
-0.000139356
-2.09373e-05
-0.000134364
-2.01362e-05
-0.00012967
-1.84477e-05
-0.000123397
-1.5193e-05
-0.000117543
-1.28236e-05
-0.000112605
-1.12672e-05
-0.000108661
-9.93073e-06
-0.000104904
-8.83549e-06
-0.000102525
-6.94076e-06
-0.000100432
-5.01464e-06
-9.88044e-05
-3.36015e-06
-9.71392e-05
-2.2525e-06
-9.58052e-05
-1.25056e-06
-9.48767e-05
-2.41733e-07
-9.30604e-05
2.57373e-06
-9.42351e-05
6.17774e-07
-9.35923e-05
1.42189e-06
2.46407e-06
-9.57024e-05
1.48238e-06
-9.74251e-05
-1.17141e-06
1.8009e-06
-9.6821e-05
3.11506e-06
-9.2505e-05
3.3398e-06
-9.41285e-05
2.95089e-06
-9.4919e-05
-8.55861e-07
1.29257e-06
-9.78617e-05
9.8142e-05
-9.85174e-05
-4.80384e-07
9.77064e-05
-7.35751e-07
9.73716e-05
-9.91288e-07
9.7124e-05
-1.28405e-06
9.70237e-05
-1.62634e-06
9.71089e-05
-2.05072e-06
9.74017e-05
-2.5808e-06
9.79756e-05
-3.28477e-06
9.88373e-05
-4.11388e-06
9.99946e-05
-5.13953e-06
0.000101468
-6.32943e-06
0.000103311
-7.69194e-06
0.00010552
-9.26723e-06
0.000108154
-1.10113e-05
0.000111017
-1.27727e-05
0.000114207
-1.49117e-05
0.000117514
-1.71365e-05
0.000120757
-1.94343e-05
0.000123656
-2.16771e-05
0.000126895
-2.15886e-05
0.000132004
-2.2579e-05
0.000136247
-2.40883e-05
0.000139622
-2.568e-05
0.000142167
-2.66498e-05
0.000146147
-2.63654e-05
0.000151037
-2.43351e-05
0.000155747
-2.40633e-05
0.000160148
-2.37352e-05
0.000164338
-2.31305e-05
0.000168482
-2.21616e-05
0.000172684
-2.08439e-05
0.000176887
-1.92573e-05
0.000180985
-1.75118e-05
0.000184874
-1.56703e-05
0.000188613
-1.376e-05
0.000192036
-1.20096e-05
0.00019511
-1.03204e-05
0.000197762
-8.72807e-06
0.000200075
-7.34068e-06
0.000202053
-6.12369e-06
0.000203714
-5.03989e-06
0.000205002
-4.1452e-06
0.000206107
-3.46899e-06
0.000207019
-2.87545e-06
0.000207738
-2.40921e-06
0.000208323
-2.03691e-06
0.000208831
-1.7703e-06
0.000209238
-1.54584e-06
0.000209626
-1.3855e-06
0.000209949
-1.25536e-06
0.000210257
-1.18326e-06
0.000210554
-1.13523e-06
0.000210853
-1.11437e-06
0.000211173
-1.13238e-06
0.000211496
-1.15798e-06
0.000211851
-1.20773e-06
0.000212217
-1.28402e-06
0.000212664
-1.43862e-06
0.000213167
-1.63178e-06
0.000213782
-1.89133e-06
0.000214474
-2.24222e-06
1.92975e-06
-2.68309e-06
0.000215214
1.1674e-06
0.000214621
4.01271e-07
0.000214157
-3.1912e-07
0.000213818
-9.58047e-07
0.000213594
-1.55241e-06
0.00021364
-2.16806e-06
0.000213814
-2.88648e-06
0.000214294
-0.000214142
0.000214835
-3.59317e-06
-0.000213592
-3.07092e-06
-0.000213062
-2.63481e-06
-0.000212637
-2.23142e-06
-0.000212269
-1.92094e-06
-0.000211878
-1.68923e-06
-0.000211572
-1.46223e-06
-0.000211283
-1.32528e-06
-0.000210974
-1.22063e-06
-0.000210698
-1.14672e-06
-0.000210441
-1.09837e-06
-0.000210133
-1.09283e-06
-0.000209854
-1.09914e-06
-0.000209496
-1.16215e-06
-0.000209131
-1.2593e-06
-0.000208707
-1.44395e-06
-0.000208177
-1.64513e-06
-0.000207513
-1.95694e-06
-0.000206731
-2.3008e-06
-0.000205823
-2.76728e-06
-0.000204651
-3.34656e-06
-0.000203293
-4.05575e-06
-0.000201639
-4.90735e-06
-0.000199542
-6.01065e-06
-0.000197036
-7.26224e-06
-0.000194149
-8.71902e-06
-0.000190844
-1.04026e-05
-0.000187173
-1.22822e-05
-0.000183105
-1.41923e-05
-0.000178821
-1.64199e-05
-0.000174424
-1.85258e-05
-0.000169979
-2.06959e-05
-0.000165611
-2.27082e-05
-0.000161452
-2.45408e-05
-0.000157679
-2.60249e-05
-0.000154221
-2.70308e-05
-0.000150714
-2.74646e-05
-0.000146082
-2.6003e-05
-0.000141479
-2.55406e-05
-0.000137093
-2.45216e-05
-0.000132695
-2.28452e-05
-0.000127421
-2.04666e-05
-0.000122083
-1.81609e-05
-0.000117328
-1.60224e-05
-0.000113067
-1.41908e-05
-0.000109419
-1.24835e-05
-0.000106456
-9.90394e-06
-0.000103959
-7.51126e-06
-0.000101376
-5.94278e-06
-9.92632e-05
-4.36479e-06
-9.75114e-05
-3.00218e-06
-9.64502e-05
-1.30272e-06
-9.53721e-05
-4.6019e-07
-9.32471e-05
2.22861e-06
-9.46443e-05
6.94215e-07
2.07057e-06
-9.59721e-05
1.49903e-06
-9.70274e-05
2.61954e-06
-9.27514e-05
6.6021e-07
-9.8893e-05
-2.84576e-07
9.08726e-07
-9.81102e-05
3.75672e-06
-9.29218e-05
2.93791e-06
-9.41154e-05
2.32454e-06
-9.51729e-05
9.54384e-08
1.93253e-07
-9.91816e-05
9.95609e-05
-9.99199e-05
4.54511e-07
9.90795e-05
1.96926e-07
9.86813e-05
-8.21496e-08
9.83574e-05
-4.11734e-07
9.81513e-05
-7.85085e-07
9.8095e-05
-1.22759e-06
9.82333e-05
-1.76457e-06
9.86031e-05
-2.42039e-06
9.92034e-05
-3.18097e-06
0.000100164
-4.24485e-06
0.000101383
-5.33343e-06
0.000102932
-6.68747e-06
0.000104823
-8.2206e-06
0.000107068
-9.93648e-06
0.00010963
-1.18287e-05
0.000112442
-1.38235e-05
0.000115629
-1.59592e-05
0.000118881
-1.81632e-05
0.000122164
-2.04198e-05
0.000125545
-2.28153e-05
0.000128218
-2.43496e-05
0.000131352
-2.47216e-05
0.000134855
-2.60823e-05
0.000138077
-2.73098e-05
0.00014079
-2.83928e-05
0.000143073
-2.8933e-05
0.000145658
-2.89506e-05
0.000149167
-2.78431e-05
0.000152647
-2.75441e-05
0.000156064
-2.71516e-05
0.000159483
-2.6549e-05
0.000163004
-2.56826e-05
0.000166686
-2.45262e-05
0.000170546
-2.31175e-05
0.00017454
-2.15054e-05
0.0001786
-1.97305e-05
0.000182651
-1.78106e-05
0.000186504
-1.58628e-05
0.000190078
-1.38954e-05
0.000193413
-1.20637e-05
0.000196404
-1.03315e-05
0.000199019
-8.73986e-06
0.000201276
-7.29777e-06
0.000203172
-6.04293e-06
0.000204691
-4.98877e-06
0.00020597
-4.15592e-06
0.000207013
-3.45434e-06
0.000207865
-2.89047e-06
0.000208548
-2.45569e-06
0.000209124
-2.12513e-06
0.000209612
-1.87553e-06
0.000210054
-1.70136e-06
0.000210425
-1.55752e-06
0.000210785
-1.49929e-06
0.000211146
-1.47974e-06
0.000211487
-1.47914e-06
0.000211861
-1.53774e-06
0.000212263
-1.61585e-06
0.000212704
-1.73275e-06
0.0002132
-1.9434e-06
0.000213762
-2.20364e-06
0.000214405
-2.5451e-06
0.000215129
-2.97866e-06
0.000215914
-3.48222e-06
3.18299e-06
-4.08544e-06
0.0002168
2.33915e-06
0.000216042
1.51483e-06
0.000215431
6.90704e-07
0.000214967
-1.51672e-07
0.000214647
-1.00641e-06
0.000214435
-1.7151e-06
0.000214335
-2.56965e-06
0.000214655
-3.31341e-06
0.000215023
-4.14471e-06
0.00021565
-0.000214904
0.000215641
-4.34463e-06
-0.000214306
-3.68152e-06
-0.000213751
-3.20131e-06
-0.000213221
-2.77125e-06
-0.00021278
-2.37087e-06
-0.0002124
-2.07703e-06
-0.000212001
-1.86784e-06
-0.000211668
-1.66399e-06
-0.000211341
-1.55299e-06
-0.000211006
-1.48657e-06
-0.000210693
-1.41516e-06
-0.000210348
-1.44183e-06
-0.000209946
-1.5038e-06
-0.000209514
-1.59734e-06
-0.000209033
-1.7433e-06
-0.000208447
-2.0317e-06
-0.000207714
-2.38057e-06
-0.000206825
-2.84794e-06
-0.00020577
-3.35733e-06
-0.000204441
-4.09745e-06
-0.000202875
-4.91422e-06
-0.000200929
-6.00308e-06
-0.000198637
-7.20001e-06
-0.00019592
-8.72853e-06
-0.000192779
-1.04033e-05
-0.000189269
-1.22294e-05
-0.000185491
-1.4181e-05
-0.00018144
-1.63334e-05
-0.000177212
-1.84203e-05
-0.00017305
-2.05821e-05
-0.000168893
-2.26825e-05
-0.000164915
-2.46744e-05
-0.000161147
-2.64759e-05
-0.000157866
-2.78217e-05
-0.000155022
-2.88689e-05
-0.000152426
-2.96266e-05
-0.000149944
-2.99461e-05
-0.000146598
-2.93492e-05
-0.000143159
-2.89788e-05
-0.000139639
-2.80418e-05
-0.000135643
-2.6841e-05
-0.000131386
-2.47237e-05
-0.000126967
-2.25793e-05
-0.000122452
-2.05367e-05
-0.000118137
-1.85056e-05
-0.000114612
-1.60083e-05
-0.00011123
-1.32856e-05
-0.000107851
-1.08901e-05
-0.000104822
-8.97096e-06
-0.000102157
-7.0299e-06
-0.000100514
-4.64521e-06
-9.87059e-05
-3.11042e-06
-9.72899e-05
-1.87597e-06
1.53479e-06
-9.39503e-05
-9.6049e-05
-5.46554e-07
0.000216531
-5.05249e-06
6.80481e-07
-9.51945e-05
1.73726e-06
-9.62102e-05
2.13898e-06
-9.34696e-05
1.15757e-06
-9.72762e-05
3.44053e-06
-9.24352e-05
6.29337e-07
-9.85462e-05
3.38935e-06
-9.33732e-05
-1.1681e-07
-0.000100391
5.87839e-07
2.32301e-07
-9.95307e-05
2.64104e-06
-9.44319e-05
2.01045e-06
-9.5446e-05
8.2435e-07
-4.53149e-07
-0.000100762
0.00010103
-0.000101514
1.30828e-06
0.000100497
1.12096e-06
0.000100055
8.96618e-07
9.96659e-05
5.85702e-07
9.93818e-05
2.02095e-07
9.92252e-05
-2.55035e-07
9.92372e-05
-7.96949e-07
9.94547e-05
-1.44495e-06
9.99135e-05
-2.22329e-06
0.000100656
-3.16316e-06
0.00010174
-4.26452e-06
0.000102998
-5.50212e-06
0.000104662
-6.99735e-06
0.000106655
-8.68005e-06
0.000108975
-1.05403e-05
0.0001116
-1.25614e-05
0.000114505
-1.47334e-05
0.000117555
-1.68734e-05
0.000120722
-1.91256e-05
0.000123873
-2.13142e-05
0.000126905
-2.34514e-05
0.000129738
-2.56483e-05
0.000132107
-2.67181e-05
0.000134841
-2.7456e-05
0.000137405
-2.86453e-05
0.000139745
-2.96497e-05
0.000141959
-3.06065e-05
0.000143517
-3.04916e-05
0.000145521
-3.0954e-05
0.000147763
-3.00859e-05
0.00015024
-3.00207e-05
0.000152787
-2.96987e-05
0.000155434
-2.91957e-05
0.000158245
-2.84931e-05
0.000161285
-2.75665e-05
0.000164589
-2.64212e-05
0.000168139
-2.50555e-05
0.000171908
-2.34997e-05
0.00017586
-2.17621e-05
0.000179883
-1.98865e-05
0.000183894
-1.79066e-05
0.0001877
-1.58707e-05
0.000191292
-1.39234e-05
0.000194577
-1.20262e-05
0.000197538
-1.02591e-05
0.000200123
-8.62947e-06
0.000202323
-7.19022e-06
0.000204133
-5.96713e-06
0.000205644
-4.96745e-06
0.000206887
-4.1352e-06
0.000207897
-3.46813e-06
0.000208729
-2.96062e-06
0.000209418
-2.56772e-06
0.000209995
-2.28175e-06
0.000210525
-2.09164e-06
0.000210982
-1.96046e-06
0.000211411
-1.91319e-06
0.000211848
-1.92195e-06
0.000212283
-1.979e-06
0.000212749
-2.08946e-06
0.000213262
-2.25328e-06
0.000213815
-2.50585e-06
0.000214435
-2.83464e-06
0.00021513
-3.25203e-06
0.000215907
-3.76875e-06
0.000216753
-4.34442e-06
0.00021774
-5.0898e-06
4.77263e-06
0.000218838
-5.89097e-06
3.66477e-06
0.000217889
2.69663e-06
0.000216993
1.80806e-06
0.000216303
9.1496e-07
0.000215845
6.58958e-09
0.00021554
-9.5127e-07
0.000215377
-1.99939e-06
0.000215367
-2.75568e-06
0.000215395
-3.74412e-06
0.000215995
-4.78689e-06
0.000216675
-5.8548e-06
0.00021758
-0.000216655
0.000217629
-6.04479e-06
-0.000215821
-5.19465e-06
-0.000215117
-4.39962e-06
-0.000214491
-3.83925e-06
-0.000213935
-3.33829e-06
-0.000213401
-2.91411e-06
-0.000212943
-2.54346e-06
-0.000212523
-2.29534e-06
-0.000212093
-2.09993e-06
-0.000211696
-1.95561e-06
-0.000211314
-1.87403e-06
-0.00021088
-1.85369e-06
-0.00021044
-1.88628e-06
-0.00020994
-2.00715e-06
-0.000209342
-2.19879e-06
-0.000208653
-2.43501e-06
-0.000207805
-2.88236e-06
-0.000206754
-3.4333e-06
-0.000205517
-4.08735e-06
-0.000203972
-4.90346e-06
-0.000202169
-5.90182e-06
-0.000199911
-7.17343e-06
-0.000197338
-8.57778e-06
-0.000194296
-1.02425e-05
-0.000190915
-1.21105e-05
-0.000187216
-1.41027e-05
-0.000183311
-1.61351e-05
-0.000179235
-1.82568e-05
-0.000175235
-2.03335e-05
-0.000171199
-2.24564e-05
-0.000167333
-2.44478e-05
-0.000163692
-2.63238e-05
-0.000160469
-2.78972e-05
-0.00015788
-2.90646e-05
-0.000155533
-3.01694e-05
-0.000153199
-3.12021e-05
-0.000151103
-3.17228e-05
-0.000149227
-3.18221e-05
-0.000146623
-3.19533e-05
-0.000144327
-3.1274e-05
-0.000141685
-3.06838e-05
-0.000138945
-2.95815e-05
-0.000135669
-2.79987e-05
-0.000131851
-2.63976e-05
-0.000127911
-2.44757e-05
-0.000124088
-2.23287e-05
-0.000120241
-1.98551e-05
-0.000116611
-1.69155e-05
-0.00011273
-1.47707e-05
-0.000109214
-1.24861e-05
-0.000106798
-9.44614e-06
-0.000104368
-7.0748e-06
-0.000101733
-5.74486e-06
-0.000100119
-3.48961e-06
-9.8502e-05
-2.16383e-06
-9.69195e-05
-9.01793e-07
0.000218752
-6.99956e-06
-1.28013e-06
4.71977e-07
-9.61112e-05
-9.43355e-05
1.41003e-06
-9.64626e-05
2.83666e-06
-9.28656e-05
8.56835e-07
-9.75037e-05
3.72063e-06
-9.27664e-05
3.17655e-07
-9.86315e-05
3.02309e-06
-9.37552e-05
-1.72374e-07
-9.98114e-05
2.33689e-06
-9.47583e-05
-8.77351e-07
-0.000101987
1.35117e-06
-6.17639e-07
-0.000101022
1.7067e-06
-9.57426e-05
5.4273e-06
-6.69774e-06
0.000220084
4.29214e-06
0.000219002
3.15955e-06
0.000218105
2.07118e-06
0.000217372
1.08188e-06
0.000216815
8.97724e-08
0.000216514
-9.46328e-07
0.000216395
-2.04493e-06
0.000216448
-3.29319e-06
0.000216624
-4.39037e-06
0.000217072
-5.58715e-06
0.00021785
-6.82816e-06
0.000218798
-8.09193e-06
0.000219991
-0.000218883
0.000220092
-8.23242e-06
-0.000217871
-7.07721e-06
-0.000216908
-6.17538e-06
-0.000216096
-5.22669e-06
-0.000215357
-4.59155e-06
-0.000214704
-4.00327e-06
-0.000214127
-3.50212e-06
-0.000213547
-3.13208e-06
-0.000213046
-2.80432e-06
-0.000212543
-2.60979e-06
-0.000212051
-2.45403e-06
-0.000211529
-2.40177e-06
-0.000210991
-2.39659e-06
-0.000210366
-2.51606e-06
-0.000209649
-2.7271e-06
-0.000208829
-3.02246e-06
-0.000207783
-3.4844e-06
-0.000206534
-4.13403e-06
-0.000205056
-4.9137e-06
-0.00020326
-5.88545e-06
-0.000201114
-7.05113e-06
-0.000198532
-8.48505e-06
-0.000195628
-1.00788e-05
-0.000192279
-1.19277e-05
-0.000188635
-1.38871e-05
-0.000184767
-1.59794e-05
-0.000180864
-1.80059e-05
-0.000176767
-2.02325e-05
-0.000172867
-2.2157e-05
-0.000169077
-2.41243e-05
-0.000165564
-2.59693e-05
-0.000162314
-2.76984e-05
-0.000159662
-2.8975e-05
-0.000157325
-3.02346e-05
-0.00015514
-3.12499e-05
-0.00015312
-3.21896e-05
-0.000151542
-3.27795e-05
-0.000150228
-3.30365e-05
-0.000148688
-3.33624e-05
-0.000147503
-3.31388e-05
-0.000145537
-3.32395e-05
-0.00014377
-3.24507e-05
-0.000141732
-3.16194e-05
-0.000139384
-3.0347e-05
-0.00013647
-2.93113e-05
-0.000133349
-2.75962e-05
-0.00012984
-2.5838e-05
-0.000126269
-2.34253e-05
-0.000122237
-2.09469e-05
-0.000118299
-1.8709e-05
-0.000115262
-1.5523e-05
-0.000112056
-1.2651e-05
-0.000108348
-1.07828e-05
-0.000106221
-7.8715e-06
-0.000103434
-6.2769e-06
-0.000101267
-4.32978e-06
-9.95686e-05
-2.60039e-06
-9.79668e-05
-1.12962e-06
1.44244e-06
-2.41619e-06
-9.51373e-05
-9.68946e-05
3.70348e-07
-9.46665e-06
0.00022144
1.4513e-06
-1.0065e-06
-0.000102432
0.000102664
-0.000103256
2.04371e-06
0.000102038
1.97706e-06
0.000101509
1.83746e-06
0.000101035
1.59535e-06
0.000100677
1.25453e-06
0.000100447
8.15454e-07
0.000100367
2.81985e-07
0.000100471
-3.58179e-07
0.000100792
-1.11818e-06
0.000101364
-2.01661e-06
0.000102215
-3.07416e-06
0.00010336
-4.30766e-06
0.000104815
-5.72001e-06
0.000106629
-7.31528e-06
0.000108752
-9.1199e-06
0.000111177
-1.11048e-05
0.000113871
-1.32344e-05
0.000116789
-1.54789e-05
0.000119787
-1.77316e-05
0.000122904
-1.99897e-05
0.00012593
-2.21521e-05
0.000128791
-2.41744e-05
0.000131406
-2.60661e-05
0.000133568
-2.78104e-05
0.000135507
-2.86568e-05
0.000137681
-2.96297e-05
0.000139541
-3.05055e-05
0.000141464
-3.15723e-05
0.000142471
-3.16138e-05
0.000144032
-3.20529e-05
0.000145004
-3.19259e-05
0.000146813
-3.18942e-05
0.000148564
-3.1772e-05
0.000150403
-3.15381e-05
0.000152374
-3.11663e-05
0.000154521
-3.064e-05
0.000156892
-2.99377e-05
0.000159533
-2.90621e-05
0.000162487
-2.80099e-05
0.000165729
-2.67417e-05
0.000169245
-2.52777e-05
0.000173017
-2.3659e-05
0.000176954
-2.18441e-05
0.000180996
-1.99124e-05
0.000184942
-1.78706e-05
0.000188774
-1.58584e-05
0.000192363
-1.3849e-05
0.000195654
-1.19215e-05
0.000198595
-1.01327e-05
0.000201141
-8.51544e-06
0.000203295
-7.12262e-06
0.000205103
-5.94623e-06
0.000206601
-4.96796e-06
0.000207827
-4.19034e-06
0.000208839
-3.58298e-06
0.000209691
-3.13704e-06
0.000210409
-2.81444e-06
0.000211046
-2.60211e-06
0.000211621
-2.49355e-06
0.000212166
-2.47274e-06
0.000212705
-2.52488e-06
0.00021326
-2.65263e-06
0.000213855
-2.85652e-06
0.000214491
-3.15207e-06
0.00021519
-3.54539e-06
0.000215962
-4.03726e-06
0.000216794
-4.61523e-06
0.000217781
-5.34891e-06
0.000218874
-6.20215e-06
0.000220074
-7.11423e-06
-8.14842e-06
0.000221499
-9.39149e-05
1.12813e-06
-9.67339e-05
-2.35637e-06
1.38681e-06
-9.59249e-05
-2.73011e-06
-9.47635e-05
3.51405e-06
-9.2659e-05
5.95824e-07
-9.77818e-05
3.35849e-06
-9.31017e-05
1.06934e-07
-9.89108e-05
2.73152e-06
-9.41498e-05
-4.56318e-07
-9.99727e-05
2.06931e-06
-9.51208e-05
-6.63645e-07
-0.000101365
1.45921e-06
-9.60737e-05
-1.38579e-06
1.91345e-06
-0.000103784
-1.12624e-06
-0.000102692
-0.000221676
0.000223191
-1.10118e-05
-0.000220367
-9.5672e-06
-0.000219146