/*--------------------------------*- C++ -*----------------------------------*\
| =========                 |                                                 |
| \\      /  F ield         | OpenFOAM: The Open Source CFD Toolbox           |
|  \\    /   O peration     | Version:  2212                                  |
|   \\  /    A nd           | Website:  www.openfoam.com                      |
|    \\/     M anipulation  |                                                 |
\*---------------------------------------------------------------------------*/
FoamFile
{
    version     2.0;
    format      ascii;
    arch        "LSB;label=32;scalar=64";
    class       volScalarField;
    location    "0.0494";
    object      p;
}
// * * * * * * * * * * * * * * * * * * * * * * * * * * * * * * * * * * * * * //

dimensions      [1 -1 -2 0 0 0 0];

internalField   nonuniform List<scalar> 
2308
(
625.978
583.086
623.724
596.282
615.001
609.262
614.505
616.745
616.969
609.283
609.116
609.186
609.476
609.896
610.33
610.647
610.813
611.602
611.438
611.205
610.814
610.301
609.729
609.226
608.94
608.819
608.953
609.265
614.234
610.919
609.444
609.497
609.443
609.321
609.219
609.157
609.046
608.721
608.037
606.971
605.705
604.535
603.61
603.012
602.842
604.969
604.955
605.276
605.896
606.733
607.569
608.179
608.519
608.7
608.891
609.229
609.724
610.247
610.608
610.695
610.478
610.275
609.912
609.481
609.152
608.988
609.07
609.34
609.632
609.855
609.977
602.943
605.214
611.785
611.498
611.076
610.527
609.888
609.269
608.761
608.389
608.208
608.212
608.301
608.451
608.651
608.903
609.175
609.362
609.332
608.826
607.791
606.286
604.626
603.138
601.94
601.127
600.782
611.778
600.693
611.083
610.01
607.401
606.986
606.771
606.783
607.069
607.537
607.966
608.202
608.29
608.39
608.699
609.332
610.209
611.11
611.762
612.019
611.861
611.387
610.663
609.841
609.135
608.683
608.536
608.615
608.753
608.909
608.92
617.861
606.537
608.641
607.826
612.171
611.861
611.507
611.083
610.546
609.907
609.223
608.572
608.015
607.592
607.346
607.296
607.463
607.836
608.371
608.954
609.375
609.363
608.738
607.463
605.679
603.708
601.937
600.489
599.47
598.937
598.558
598.197
600.734
603.23
605.635
617.001
607.829
618.794
619.041
610.137
620.287
615.289
611.955
608.871
597.929
600.884
603.625
606.08
608.188
609.899
609.72
609.279
608.777
608.32
608.027
607.964
608.072
608.17
608.153
608.109
608.2
608.665
609.586
610.806
612.026
612.92
613.306
613.134
612.449
611.394
610.181
609.106
608.32
607.901
607.78
607.835
607.825
607.702
613.004
627.336
613.003
616.765
615.467
614.383
613.487
612.756
612.192
611.78
611.442
611.109
610.735
610.277
609.711
609.051
608.358
607.691
607.099
606.649
606.429
606.521
606.941
607.631
608.43
609.019
609.086
608.454
607.108
605.238
603.121
601.243
599.654
598.395
597.478
596.641
595.716
594.85
614.455
619.824
617.844
596.322
626.096
619.944
608.93
612.845
611.11
611.133
610.791
610.225
609.57
609.012
608.63
608.434
608.297
608.149
608.054
608.206
608.834
609.988
611.479
612.95
614.022
614.482
614.255
613.371
612.001
610.443
609.029
607.943
607.268
606.956
606.82
606.658
606.421
607.542
620.433
618.703
616.544
615.085
613.854
612.846
612.037
611.402
610.932
610.58
610.289
610.003
609.671
609.24
608.693
608.059
607.374
606.69
606.097
605.729
605.688
606.033
606.722
607.554
608.22
608.401
607.902
606.696
604.954
603.002
601.142
599.508
598.041
596.55
595.031
593.361
591.803
590.596
594.171
597.765
601.096
603.986
606.388
608.296
609.74
610.746
622.028
624.454
610.909
621.058
625.417
611.988
606.128
607.497
621.809
622.044
625.923
613.53
615.763
614.227
612.864
611.737
610.841
610.147
609.636
609.285
609.047
608.871
608.696
608.453
608.098
607.616
607.008
606.316
605.641
605.134
604.93
605.12
605.667
606.386
607.032
607.337
607.086
606.229
604.872
603.236
601.579
599.92
598.119
596.073
593.696
591.194
588.98
587.379
586.78
589.983
593.761
597.628
601.184
604.166
606.472
608.175
609.392
610.028
610.022
611.184
611.839
612.063
611.867
611.315
610.556
609.794
609.199
608.792
608.497
608.301
608.229
608.469
609.216
610.521
612.181
613.813
614.989
615.459
615.136
614.058
612.421
610.587
608.889
607.552
606.656
606.147
605.841
605.544
605.162
620.684
605.96
607.614
613.67
622.919
623.039
622.141
621.104
619.453
617.487
616.848
614.94
613.156
611.59
610.282
609.245
608.463
607.913
607.569
607.392
607.338
607.339
607.32
607.224
606.974
606.539
605.936
605.255
604.651
604.287
604.264
604.56
605.052
605.595
605.999
606.04
605.659
604.887
603.778
602.431
600.755
598.59
595.928
592.756
589.459
586.757
585.021
584.795
585.096
586.778
589.77
593.514
597.456
601.094
604.098
606.352
607.921
608.858
609.128
608.702
607.415
609.331
611.015
612.159
612.632
612.642
612.184
611.424
610.579
609.834
609.301
608.927
608.722
608.686
608.981
609.79
611.151
612.873
614.555
615.745
616.159
615.715
614.473
612.626
610.61
608.693
607.165
606.089
605.408
604.95
604.515
603.991
604.719
622.32
620.861
612.479
604.381
620.561
622.032
623.098
607.691
615.516
613.442
605.886
623.824
623.958
588.652
588.193
590.094
593.388
597.172
600.779
603.817
606.129
607.688
608.467
608.47
607.67
605.945
603.118
605.101
607.82
610.3
612.166
613.087
613.366
613.075
612.373
611.499
610.693
610.085
609.658
609.44
609.416
609.716
610.514
611.84
613.516
615.145
616.254
616.552
615.973
614.595
612.653
610.479
608.447
606.792
605.578
604.751
604.158
603.597
602.93
603.402
612.349
623.616
591.491
623.196
614.165
611.977
610.112
608.568
607.337
606.424
605.814
605.469
605.353
605.427
605.605
605.836
606.046
606.089
605.915
605.501
604.914
604.297
603.813
603.558
603.554
603.765
604.149
604.601
604.931
605.026
604.88
604.378
603.353
601.711
599.233
596.095
592.477
588.779
585.926
584.247
584.55
584.92
591.427
621.033
622.791
616.969
605.976
624.702
604.188
598.994
601.573
605.388
609.096
612.107
613.714
614.33
614.219
613.594
612.664
611.803
611.13
610.681
610.431
610.385
610.643
611.355
612.564
614.095
615.571
616.526
616.666
615.959
614.494
612.481
610.247
608.156
606.416
605.101
604.156
603.437
602.748
601.923
602.137
610.251
624.576
582.722
583.919
586.089
589.064
592.684
596.553
600.246
603.454
605.982
607.661
608.325
608.211
607.287
605.381
602.373
598.16
611.374
624.732
623.964
622.932
621.482
611.759
607.789
620.907
594.442
613.108
610.626
608.465
606.656
605.21
604.131
603.426
603.058
602.994
603.18
603.524
604.026
604.559
604.956
605.107
604.971
604.583
604.035
603.51
603.085
602.814
602.752
602.951
603.391
603.933
604.486
604.901
604.877
604.231
602.696
600.097
596.645
592.724
588.865
586.222
584.801
586.48
586.075
596.135
582.993
618.754
602.865
606.584
621.116
624.317
623.265
611.019
617.021
614.112
610.106
604.185
600.861
612.196
625.219
589.378
619.304
592.232
593.377
596.665
601.995
607.487
612.158
614.675
615.661
615.687
615.098
614.153
613.198
612.426
611.932
611.633
611.533
611.698
612.274
613.312
614.619
615.859
616.629
616.595
615.768
614.239
612.199
609.954
607.824
606.016
604.608
603.552
602.716
601.914
600.977
599.8
609.167
626.366
626.892
616.258
610.029
603.727
599.481
597.856
598.708
601.081
603.624
605.83
607.432
608.239
608.486
608.321
607.525
605.691
602.857
599.383
595.306
615.411
625.415
624.811
623.953
622.712
620.991
624.822
627.004
614.293
611.642
609.068
606.703
604.649
602.973
601.699
600.856
600.433
600.376
600.649
601.14
601.887
602.755
603.538
604.102
604.333
604.24
603.863
603.394
602.883
602.43
602.164
602.226
602.657
603.382
604.279
605.128
605.472
605.107
603.677
601.162
597.726
593.914
590.314
587.984
587.066
589.281
588.872
599.655
584.495
619.84
609.983
601.393
626.713
613.923
617.598
621.048
602.536
625.373
623.728
625.058
618.58
613.831
626.397
609.043
597.447
607.288
617.017
618.891
598.84
600.044
601.044
601.929
602.875
604.053
605.57
607.461
609.639
611.904
613.96
615.532
616.497
616.65
616.086
615.096
614.043
613.223
612.818
612.788
612.97
613.305
613.884
614.761
615.842
616.881
617.439
617.319
616.054
612.686
606.64
599.38
591.789
588.06
587.122
592.66
620.748
569.76
569.32
569.366
570.948
574.427
578.794
583.173
587.041
590.872
595.013
599.009
602.457
604.954
606.494
606.994
606.1
603.529
599.033
593.449
586.139
607.482
599.859
610.229
614.921
615.159
615.268
615.349
615.399
617.048
618.968
621.033
592.428
622.398
608.813
610.955
612.873
612.934
616.996
620.839
602.389
608.372
616.68
626.026
625.657
625.047
624.096
622.775
619.375
621.898
615.827
613.145
610.35
607.596
604.998
602.685
600.756
599.258
598.234
597.7
597.633
597.941
598.557
599.532
600.715
601.878
602.859
603.529
603.856
603.758
603.45
602.968
602.457
602.087
602.048
602.447
603.292
604.481
605.682
606.209
606.059
604.787
602.479
599.34
595.865
592.558
590.691
590.275
592.084
593.114
601.778
587.85
619.961
570.076
614.279
609.728
605.211
624.535
604.198
600.907
625.665
599.92
623.369
625.811
626.294
624.161
610.831
616.233
611.898
620.954
615.331
620.904
621.306
628.578
602.469
607.507
619.089
617.087
615.425
597.793
599.027
600.064
601.022
602.077
603.391
605.054
607.071
609.346
611.671
613.764
615.433
616.467
616.689
616.316
615.565
614.745
614.158
613.928
614.016
614.319
614.72
615.4
616.397
617.631
618.766
619.284
619.121
617.721
613.826
607.063
598.728
589.863
585.998
582.178
593.018
579.334
624.309
625.38
626.133
626.528
626.674
626.757
626.455
605.444
598.214
608.899
606.38
623.15
622.995
618.573
620.389
611.232
622.949
625.214
618.494
605.497
612.921
619.605
616.925
627.016
651.598
650.883
647.957
644.681
639.776
633.105
627.498
626.676
627.73
629.645
630.231
628.408
625.195
622.409
620.117
618.844
617.493
617.455
617.773
619.048
620.507
621.931
613.297
613.636
613.831
613.98
614.072
614.111
621.526
599.207
606.716
600.924
595.941
588.228
624.509
624.796
627.259
625.024
620.355
624.248
625.875
600.635
611.518
612.636
626.552
619.313
617.218
614.743
612.021
609.136
606.224
603.415
600.853
598.659
596.919
595.685
595.009
594.872
595.221
595.909
597.084
598.545
600.059
601.45
602.561
603.326
603.642
603.637
603.346
602.916
602.56
602.5
602.888
603.803
605.167
606.581
607.232
607.196
606.087
604.03
601.363
598.398
595.435
593.704
593.186
593.796
594.886
600.374
589.508
618.065
570.323
650.171
610.001
625.013
611.365
607.608
623.173
619.64
616.271
585.581
615.371
622.023
603.04
616.504
624.247
625.517
626.521
627.155
627.408
627.418
627.317
627.327
627.543
627.556
586.612
595.97
589.868
620.35
593.703
595.291
596.729
597.941
598.984
599.993
601.152
602.618
604.463
606.662
609.096
611.542
613.744
615.522
616.59
616.865
616.593
616.045
615.43
615.012
614.954
615.173
615.535
616.03
616.825
617.984
619.377
620.595
621.034
620.832
619.434
615.74
609.617
601.072
591.987
587.799
587.539
596.872
578.327
627.467
619.177
617.104
615.38
614.115
623.343
611.201
596.266
600.73
605.826
623.053
615.772
619.876
610.613
622.759
593.451
597.382
605.126
602.235
592.316
587.214
625.31
625.403
627.724
628.144
609.922
626.429
605.896
627.789
628.122
622.497
624.141
628.023
600.689
601.788
587.804
591.971
628.136
627.472
627.222
621.462
623.137
611.347
611.681
612.083
612.467
612.76
612.98
613.109
613.166
613.217
603.534
598.792
627.154
628.306
626.501
622.951
584.538
618.8
616.512
613.942
611.133
608.137
605.071
602.067
599.267
596.806
594.806
593.342
592.478
592.255
592.589
593.345
594.649
596.35
598.179
599.955
601.519
602.759
603.544
603.962
603.992
603.745
603.51
603.506
603.922
604.878
606.313
607.798
608.515
608.5
607.492
605.762
603.64
601.334
598.971
596.919
595.622
595.174
595.867
597.412
592.993
613.962
573.239
650.322
534.967
527.959
531.244
535.009
537.994
539.006
539.199
540.704
543.718
546.972
549.305
551.499
554.946
561.58
570.144
577.693
582.914
585.283
584.862
580.944
573.216
564.655
556.175
549.267
549.706
597.131
627.11
627.882
628.168
624.178
623.216
610.984
613.826
612.604
602.535
625.006
626.432
627.455
628.05
628.246
628.209
627.974
627.786
627.745
627.793
627.746
628.186
627.815
595.396
603.619
589.043
625.519
628.17
609.209
625.373
628.305
627.295
623.597
629.619
601.106
628.358
588.121
617.969
613.811
609.13
604.224
599.467
595.05
591.251
585.71
612.236
617.046
621.305
619.138
617.096
615.387
614.113
613.235
600.766
598.657
611.828
629.225
610.056
610.263
610.557
610.902
611.313
611.721
612.062
612.324
612.492
612.566
612.663
612.711
622.242
628.177
589.781
626.228
610.627
611.857
618.781
621.039
618.695
616.173
613.445
610.523
607.42
604.211
601.031
598.006
595.291
593.031
591.331
590.276
589.914
590.214
591.009
592.405
594.286
596.374
598.488
600.459
602.17
603.456
604.332
604.763
604.82
604.777
604.885
605.354
606.358
607.816
609.304
609.985
609.879
608.837
607.307
605.666
604.04
602.327
600.505
598.434
596.697
595.539
594.162
593.548
604.875
578.526
642.896
500.311
718.896
704.858
708.75
710.535
705.533
704.872
699.984
691.272
686.06
684.364
684.599
684.499
686.561
687.886
685.917
682.641
674.955
666.011
665.502
664.204
672.95
680.184
684.218
677.1
677.123
683.777
694.98
521.13
624.209
582.167
596.965
593.118
593.012
597.003
605.654
613.406
618.113
620.879
622.174
622.516
622.228
620.966
619.41
618.075
617.145
616.551
616.12
615.819
615.777
616.048
616.51
616.977
617.218
616.91
615.794
613.916
611.513
608.883
606.239
603.825
601.785
600.163
598.905
597.865
596.84
595.66
594.233
592.539
590.732
588.841
587.139
621.35
586.03
618.248
583.529
584.051
603.948
584.561
629.413
627.168
596.813
592.482
598.488
601.799
589.122
593.766
627.729
627.424
628.662
628.958
628.744
627.236
630.201
627.33
625.958
629.186
631.675
619.919
598.985
630.756
627.002
629.264
629.026
629.817
629.284
627.777
591.007
600.109
594.635
627.541
627.814
628.024
628.279
628.601
628.894
628.97
628.774
628.181
627.158
625.766
629.899
586.309
604.865
587.071
590.184
593.88
598.119
602.696
607.453
612.085
616.334
584.837
598.401
621.744
619.934
617.86
615.785
613.837
618.399
599.071
631.701
590.106
629.376
585.079
621.203
619.097
617.101
615.395
614.101
613.231
612.706
596.668
615.722
582.438
582.973
583.797
585.016
586.556
588.245
590.041
591.799
593.387
594.737
595.85
596.84
597.898
599.233
600.984
603.197
605.818
608.695
611.575
614.171
616.178
617.369
617.687
617.44
616.984
616.567
616.37
616.472
616.821
617.31
617.995
619.059
620.565
622.269
623.515
623.638
623.041
621.658
619.602
616.429
610.675
604.922
602.481
601.945
601.835
602.071
621.978
644.606
763.232
628.825
629.821
337.625
396.391
420.694
434.734
447.818
457.958
466.464
470.709
475.848
477.868
479.416
480.221
477.485
476.231
484.037
493.16
508.721
522.561
525.478
527.129
515.578
498.098
475.352
473.996
457.041
419.61
345.802
169.29
620.576
609.928
610.1
610.344
610.665
611.041
611.426
611.762
612.021
612.192
612.269
612.404
612.458
612.436
612.071
610.755
609.945
609.798
623.245
621.063
618.603
615.974
613.165
610.158
606.966
603.645
600.3
597.076
594.134
591.639
589.723
588.48
587.992
588.252
589.06
590.511
592.523
594.797
597.17
599.476
601.604
603.355
604.666
605.502
605.914
606.116
606.383
606.924
607.925
609.361
610.842
611.467
611.158
609.916
608.339
607
606.117
605.043
603.266
600.632
598.597
597.322
596.804
597.656
600.637
600.82
622.721
627.956
817.363
179.481
629.964
629.491
629.774
629.197
591.034
595.309
596.545
591.971
630.962
630.52
624.767
631.087
617.093
584.177
586.437
589.359
592.927
597.001
601.441
606.081
610.664
614.891
615.142
612.145
621.238
620.656
619.118
617.189
626.33
627.187
627.807
628.276
628.692
629.1
629.421
629.512
629.295
628.679
627.663
594.282
597.183
592.742
629.749
630.307
629.931
630.795
629.713
582.187
581.724
581.754
582.273
583.217
584.494
586.072
587.767
589.515
591.217
592.745
594.045
595.11
596.066
597.127
598.503
600.33
602.662
605.452
608.536
611.636
614.41
616.548
617.819
618.15
617.897
617.412
616.977
616.793
616.907
617.262
617.786
618.539
619.709
621.353
623.171
624.409
624.406
623.453
621.874
620.165
618.165
614.153
611.651
611.236
613.582
618.607
625.024
636.405
664.583
725.085
126.594
623.41
621.268
619.122
617.159
615.454
614.143
613.237
612.632
612.352
592.258
630.431
631.352
631.044
631.394
593.13
596.817
612.414
610.961
610.012
609.713
618.827
627.048
610.216
610.272
610.383
610.564
610.811
611.109
611.418
611.693
611.906
612.041
612.113
612.233
612.261
612.215
612.159
612.022
12.2505
15.5631
13.1336
14.2768
14.0237
14.2481
14.4692
14.585
14.5051
14.2717
14.1104
13.9913
13.8922
14.2556
14.7195
15.4147
16.0731
16.9963
18.0811
18.8799
17.5899
17.3817
15.7798
16.4783
15.8989
17.3607
14.8473
15.61
12.4572
17.4314
622.936
620.837
618.447
615.851
613.027
609.974
606.713
603.309
599.84
596.467
593.355
590.679
588.585
587.183
586.581
586.809
587.624
589.086
591.155
593.543
596.104
598.686
601.135
603.242
604.894
606.078
606.821
607.263
607.661
608.269
609.273
610.684
612.113
612.695
612.155
610.605
608.732
607.517
607.14
606.764
605.083
602.064
600.041
599.465
599.812
603.201
609.459
618.529
629.869
646.762
761.236
157.795
18.3758
631.549
630.916
631.244
594.857
594.537
261.629
538.141
588.136
588.737
24.4547
5517.62
5402.16
4657.59
5289.06
4735.81
5308.1
4894.44
5225.99
4982.72
5252.22
4991.37
5197.08
5161.44
5154.6
5162.67
5014.41
5056.56
5045.33
4981.95
5155.33
5098.52
5305.23
5264.84
5255.13
5289.05
5179.47
5189.93
5390.51
4696.42
314.954
24.6643
5134.91
4299.65
607.379
545.998
624.57
632.352
604.83
613.388
600.333
600.599
603.176
601.402
606.037
604.944
607.243
606.64
610.862
608.754
613.411
612.675
611.505
612.876
609.119
610.128
607.971
608.468
606.339
607.344
603.026
604.895
598.236
600.777
592.76
595.482
588.077
590.224
585.865
586.634
586.466
585.755
590.203
587.979
596.285
593.022
603.417
599.815
610.234
606.945
615.906
613.18
620.835
618.468
624.867
622.976
627.855
626.491
629.543
628.894
629.724
629.796
628.941
629.398
627.807
628.424
625.747
626.897
621.556
623.809
617.414
619.278
614.128
615.595
612.39
613.028
611.913
611.929
611.939
611.881
611.912
611.8
611.832
611.646
611.746
611.398
611.531
611.161
611.269
611.05
611.085
610.62
611.069
612.167
610.41
611.266
611.69
609.952
610.401
610.209
609.789
612.952
611.288
616.819
614.76
620.016
618.644
619.566
620.407
613.534
617.18
604.685
609.232
595.964
600.2
588.719
592.097
583.917
585.984
581.566
582.493
581.39
581.219
582.952
581.993
585.812
584.251
589.215
587.498
592.399
590.888
594.716
593.679
596.685
595.648
599.924
598.059
605.216
602.331
611.585
608.403
616.695
614.448
618.487
618.092
617.706
618.24
617.022
617.225
617.477
617.127
618.788
618.006
621.739
620.013
624.886
623.631
623.377
624.773
619.146
621.345
614.817
616.916
614.961
614.215
626.46
618.315
647.259
638.672
619.859
611.961
611.919
632.315
603.021
3967.35
631.952
3835.34
619.977
611.96
611.975
611.915
611.973
611.987
611.996
611.994
604.347
625.54
631.983
631.758
632.39
612.522
612.238
612.441
618.793
614.519
616.701
618.627
613.803
616.275
618.435
612.773
615.637
618.081
611.541
614.832
623.6
594.899
611.684
617.617
612.206
599.726
617.5
623.267
618.358
620.158
587.869
610.86
611.946
627.645
585.746
612.82
582.391
613.7
583.667
614.336
590.856
617.744
622.962
613.649
612.11
611.569
628.798
605.713
607.65
616.394
621.32
611.995
618.514
627.461
624.607
582.913
630.458
610.637
623.016
599.327
610.293
591.193
598.662
594.998
592.659
611.241
621.666
620.763
625.166
608.659
609.144
609.501
586.714
)
;

boundaryField
{
    wall
    {
        type            zeroGradient;
    }
    outlet
    {
        type            fixedValue;
        value           uniform 1e-05;
    }
    inlet
    {
        type            fixedValue;
        value           uniform 612;
    }
    frontAndBackPlanes
    {
        type            empty;
    }
}


// ************************************************************************* //
