/*--------------------------------*- C++ -*----------------------------------*\
| =========                 |                                                 |
| \\      /  F ield         | OpenFOAM: The Open Source CFD Toolbox           |
|  \\    /   O peration     | Version:  2212                                  |
|   \\  /    A nd           | Website:  www.openfoam.com                      |
|    \\/     M anipulation  |                                                 |
\*---------------------------------------------------------------------------*/
FoamFile
{
    version     2.0;
    format      ascii;
    arch        "LSB;label=32;scalar=64";
    class       volScalarField;
    location    "0.00447";
    object      p;
}
// * * * * * * * * * * * * * * * * * * * * * * * * * * * * * * * * * * * * * //

dimensions      [1 -1 -2 0 0 0 0];

internalField   nonuniform List<scalar> 
2681
(
190.952
209.492
210.303
190.196
222.024
211.541
190.135
190.205
190.22
190.233
190.186
190.302
190.288
190.519
190.343
190.361
190.428
190.201
190.211
190.222
190.24
190.295
190.277
190.258
190.327
190.312
190.191
190.178
190.184
190.207
190.199
190.227
190.215
190.256
190.24
190.272
190.288
190.305
190.32
190.312
190.322
190.284
190.299
190.257
190.27
211.117
190.245
190.207
190.17
190.183
190.195
190.334
190.402
190.212
190.2
190.263
190.276
190.17
190.174
190.172
190.164
190.222
190.21
190.254
190.237
190.297
190.276
190.336
190.317
190.159
190.356
190.326
190.343
190.289
190.308
190.316
190.159
190.481
216.187
190.181
190.168
190.174
190.196
190.188
190.212
190.203
190.236
190.222
190.25
190.29
190.302
190.264
190.278
190.239
190.251
190.216
190.228
190.193
190.204
190.181
190.19
190.183
190.289
190.384
190.362
190.349
190.163
190.16
190.155
190.401
190.424
190.405
190.383
190.276
190.313
190.285
190.194
190.179
190.184
190.311
190.485
190.38
254.024
190.302
190.332
190.334
190.158
210.293
190.165
190.805
190.565
190.204
190.192
190.234
190.218
190.272
190.252
190.317
190.295
190.358
190.337
190.378
190.338
190.359
190.297
190.318
190.437
190.194
199.973
190.214
190.204
190.161
190.153
190.156
190.172
190.166
190.185
190.178
190.199
190.191
190.217
190.207
190.241
190.229
190.264
190.253
190.515
190.274
190.261
190.269
190.238
190.25
190.216
190.226
190.196
190.206
190.177
190.187
190.168
190.166
190.15
190.158
190.173
190.134
190.171
190.174
190.408
190.446
190.468
190.381
190.315
190.366
190.148
190.323
190.293
190.196
190.187
190.426
190.407
190.155
190.15
232.497
235.829
235.827
232.497
190.147
190.145
190.142
190.269
190.46
190.135
190.168
191.346
212
217.1
190.348
190.348
208.554
190.16
190.659
190.188
190.178
190.212
190.199
190.246
190.228
190.289
190.267
190.333
190.312
190.374
190.354
190.418
190.396
190.439
190.362
190.385
190.315
190.339
190.268
190.291
190.234
190.249
190.214
190.223
190.206
239.679
244.162
249.305
255.086
261.376
267.932
274.349
280.12
284.913
287.741
287.754
288.019
287.916
287.868
287.997
280.147
284.936
267.943
274.365
255.081
261.382
244.155
249.297
239.675
190.155
190.151
190.164
190.159
190.176
190.17
190.188
190.182
190.202
190.194
190.222
190.211
190.242
190.232
191.214
190.25
190.267
190.26
190.301
190.278
190.266
190.246
190.253
190.23
190.238
190.21
190.22
190.194
190.202
190.178
190.186
190.163
190.171
190.152
190.157
190.148
190.159
190.152
190.17
190.165
190.178
190.175
191.028
191.431
190.4
190.329
190.336
190.388
190.145
190.482
229.622
229.621
190.145
192.532
287.765
288.025
190.448
242.303
190.315
190.437
190.164
190.167
229.541
227.102
227
190.144
190.14
190.142
190.14
286.71
286.868
190.271
190.299
190.494
190.46
190.264
190.295
212.192
190.532
190.635
190.133
190.181
190.17
190.174
190.365
190.365
190.143
190.151
190.147
190.159
190.155
190.162
190.193
190.182
190.221
190.206
190.259
190.239
190.304
190.281
190.347
190.326
190.387
190.366
190.431
190.409
190.454
190.494
190.6
190.446
190.481
190.392
190.416
190.344
190.369
190.289
190.317
190.242
190.263
190.216
190.227
190.198
190.207
190.19
235.847
232.456
244.327
239.768
255.359
249.534
268.198
261.665
280.281
274.574
285.005
229.541
227
227.102
276.692
277.426
191.476
287.838
286.63
287.774
287.984
280.293
285.012
268.188
274.578
255.341
261.643
244.314
249.519
235.843
239.76
232.455
190.151
190.148
190.158
190.154
190.168
190.163
190.179
190.173
190.19
190.184
190.205
190.197
190.223
190.215
190.237
190.231
190.246
190.242
190.277
190.253
190.249
190.27
190.244
190.271
190.246
190.245
190.238
190.239
190.231
190.237
190.218
190.225
190.204
190.211
190.189
190.196
190.177
190.183
190.165
190.171
190.154
190.159
190.146
190.15
190.144
190.153
190.148
190.163
190.158
190.167
209.689
190.963
287.921
190.421
190.348
190.352
190.415
190.169
206.123
190.578
190.285
229.416
226.846
190.141
191.283
190.143
190.141
190.139
190.138
190.184
190.177
278.015
190.716
190.77
207.715
190.135
287.818
288.047
190.736
190.813
190.83
190.332
190.473
190.471
190.332
190.654
229.415
226.845
191.168
211.508
215.636
190.704
190.521
190.308
190.257
190.283
190.252
190.28
190.307
190.527
190.702
286.872
190.133
190.605
191.035
190.386
190.387
190.148
190.144
190.154
190.151
190.159
190.157
190.164
190.161
190.166
190.179
190.172
190.2
190.187
190.231
190.214
190.272
190.251
190.317
190.295
190.357
190.338
190.397
190.376
190.444
190.419
190.512
190.475
190.567
190.585
190.649
190.476
190.526
190.414
190.439
190.371
190.394
190.315
190.344
190.258
190.285
190.222
190.237
190.201
190.211
190.192
235.859
232.385
244.543
239.882
255.738
249.841
268.63
262.092
280.559
274.948
285.185
224.845
224.74
224.846
190.304
224.582
224.739
233.162
221.323
282.637
262.199
288.138
287.421
287.867
288.205
280.569
285.171
268.626
274.962
255.716
262.07
244.529
249.824
235.855
239.873
232.384
190.14
190.137
190.138
190.143
190.141
190.148
190.146
190.153
190.15
190.161
190.157
190.171
190.166
190.18
190.176
190.192
190.186
190.208
190.2
190.219
190.214
190.228
190.224
190.234
190.231
190.26
190.239
190.237
190.24
190.24
190.258
190.237
190.24
190.228
190.233
190.223
190.225
190.217
190.22
190.209
190.213
190.198
190.204
190.186
190.192
190.175
190.18
190.166
190.17
190.157
190.161
190.149
190.153
190.144
190.146
190.14
190.142
190.137
190.138
190.137
190.136
190.142
190.139
190.149
190.145
190.157
190.153
190.164
190.161
190.171
190.167
207.932
241.719
190.277
190.869
287.941
191.611
190.895
191.163
191.125
191.034
190.369
190.444
190.263
190.263
190.447
190.374
190.706
190.706
190.855
190.134
191.035
190.79
190.639
224.581
210.867
214.736
190.136
190.136
190.136
209.494
190.766
190.498
190.346
190.289
190.289
190.352
190.506
190.619
190.159
190.162
278.082
191.129
196.888
208.603
190.325
191.045
214.402
213.357
190.659
229.642
190.55
190.318
190.318
190.559
190.165
190.173
190.168
222.763
224.475
222.645
286.894
190.136
190.59
190.702
190.96
190.255
190.273
190.408
190.263
190.414
190.75
190.14
190.138
190.145
190.142
190.15
190.148
190.155
190.153
190.157
190.169
190.184
190.176
190.207
190.194
190.241
190.223
190.284
190.262
190.327
190.306
190.364
190.346
190.407
190.384
190.463
190.432
190.558
190.504
190.627
191.045
190.717
190.502
190.565
190.423
190.455
190.383
190.402
190.336
190.362
190.277
190.306
190.231
190.251
190.205
190.216
190.187
190.195
190.18
229.349
226.754
235.883
232.349
244.774
239.994
256.227
250.21
269.176
262.64
280.937
275.44
287.875
285.446
287.944
288.06
222.918
224.473
222.641
222.762
223.022
223.022
222.917
231.367
220.022
282.755
260.627
288.088
287.285
287.939
288.183
280.944
285.447
269.172
275.445
256.213
262.625
244.764
250.197
235.881
239.988
229.349
232.349
226.753
190.138
190.137
190.142
190.14
190.146
190.144
190.15
190.148
190.156
190.153
190.164
190.16
190.173
190.169
190.183
190.178
190.195
190.189
190.205
190.2
190.212
190.209
190.218
190.215
190.222
190.221
190.223
190.223
190.221
190.223
190.215
190.218
190.209
190.212
190.202
190.205
190.195
190.198
190.186
190.191
190.176
190.181
190.167
190.171
190.159
190.163
190.152
190.155
190.146
190.149
190.142
190.144
190.139
190.141
190.137
190.138
190.14
190.138
190.146
190.143
190.153
190.15
190.159
190.156
190.162
190.136
199.382
205.118
190.135
190.962
190.831
190.946
190.467
190.388
190.293
190.295
190.4
190.481
190.662
190.258
190.164
190.779
191.359
209.663
190.881
240.409
190.136
191.099
190.88
224.407
222.557
206.55
214.028
190.347
207.612
190.958
190.713
221
219.689
190.528
190.36
190.327
190.335
190.375
190.54
190.595
190.136
190.135
190.176
190.17
190.16
190.162
224.408
222.56
221.074
220.922
190.966
278.744
190.135
190.134
286.878
190.158
190.633
190.134
190.891
190.26
190.43
190.295
190.445
190.702
190.138
190.137
190.142
190.14
190.147
190.145
190.152
190.15
190.156
190.154
190.16
190.158
190.162
190.172
190.166
190.188
190.179
190.213
190.199
190.25
190.23
190.294
190.271
190.333
190.315
190.369
190.35
190.419
190.392
190.489
190.45
190.607
190.541
190.687
191.066
190.699
190.793
190.531
190.608
190.429
190.471
190.38
190.4
190.34
190.361
190.289
190.316
190.241
190.264
190.209
190.222
190.19
190.198
190.183
229.328
226.713
235.932
232.353
244.955
240.105
256.52
250.447
269.654
263.024
281.377
275.939
288
285.782
288.037
288.149
221.235
220.918
221.073
221.337
221.337
221.234
229.504
218.033
282.67
257.734
288.153
287.319
288.056
288.252
281.378
285.774
269.661
275.946
256.514
263.026
244.953
250.443
235.937
240.107
229.33
232.357
226.713
224.096
190.137
190.136
190.14
190.139
190.144
190.142
190.148
190.146
190.152
190.15
190.159
190.155
190.167
190.163
190.175
190.171
190.185
190.18
190.194
190.19
190.2
190.197
190.205
190.202
190.209
190.207
190.209
190.209
190.208
190.209
190.204
190.206
190.198
190.201
190.192
190.195
190.187
190.189
190.179
190.183
190.17
190.175
190.162
190.166
190.155
190.159
190.149
190.152
190.145
190.147
190.142
190.144
190.139
190.141
190.137
190.138
190.136
190.139
190.137
190.144
190.141
190.149
190.146
190.154
190.152
190.157
191.267
191.283
220.776
204.898
205.534
207.383
191.239
190.949
190.369
205.895
190.884
190.766
190.87
223.879
191.689
216.725
190.49
190.405
190.334
190.342
190.429
190.514
190.629
190.245
190.134
190.157
190.159
190.83
209.438
191.035
190.955
190.164
220.78
191.093
190.915
241.66
190.134
191.354
279.492
287.035
190.401
207.018
190.874
190.673
191.495
190.549
190.372
190.572
219.709
219.546
203.889
190.604
191.716
190.158
190.388
203.334
204.506
190.821
190.243
191.563
200.651
190.45
190.338
190.478
190.663
190.134
190.135
190.134
190.137
190.136
190.141
190.139
190.145
190.143
190.149
190.147
190.153
190.151
190.155
190.164
190.161
190.174
190.168
190.192
190.182
190.219
190.204
190.257
190.236
190.301
190.279
190.338
190.321
190.374
190.354
190.435
190.402
190.518
190.473
190.652
190.578
190.74
191.141
190.748
190.853
190.559
190.646
190.439
190.49
190.374
190.402
190.334
190.353
190.293
190.314
190.247
190.27
190.212
190.228
190.192
190.201
190.178
190.185
190.166
190.172
224.356
220.662
222.488
229.372
226.717
236.056
232.433
245.172
240.272
256.923
250.742
270.187
263.517
281.875
276.487
288.158
286.199
288.132
288.259
191.239
220.026
219.872
220.121
220.122
219.874
220.026
219.552
219.714
228.15
217.24
281.903
254.562
288.185
287.197
288.208
288.314
281.878
286.207
270.186
276.487
256.935
263.517
245.183
250.753
236.069
240.284
229.378
232.443
224.356
226.719
220.657
222.485
190.136
190.134
190.135
191.447
190.133
190.133
190.133
190.269
190.137
190.136
190.139
190.138
190.143
190.141
190.147
190.145
190.15
190.149
190.155
190.152
190.162
190.158
190.169
190.165
190.177
190.173
190.185
190.181
190.19
190.188
190.194
190.192
190.197
190.196
190.198
190.198
190.198
190.198
190.195
190.197
190.191
190.194
190.186
190.189
190.182
190.184
190.175
190.179
190.166
190.17
190.159
190.162
190.153
190.156
190.148
190.15
190.145
190.146
190.142
190.143
190.139
190.14
190.137
190.138
190.135
190.136
190.133
190.134
190.134
190.133
190.137
190.135
190.141
190.139
190.146
190.144
190.151
190.148
190.155
190.153
190.16
190.158
209.731
207.819
204.491
206.066
209.601
212.048
191.067
280.766
287.117
190.427
204.929
190.812
190.715
190.805
191.638
190.133
191.925
191.662
245.715
190.512
190.42
190.382
190.399
190.46
190.547
190.602
190.663
190.133
191.421
190.162
219.403
219.397
198.098
203.01
202.383
213.406
190.638
190.572
190.157
190.133
190.47
191.14
190.874
194.308
195.204
195.383
194.555
202.059
281.267
190.75
190.45
203.301
190.76
190.75
191.779
191.826
207.419
205.815
190.133
203.933
252.858
250.499
205.302
190.468
190.392
190.511
190.633
190.134
190.134
190.136
190.135
190.14
190.138
190.144
190.142
190.147
190.146
190.15
190.149
190.154
190.152
190.156
190.166
190.162
190.177
190.171
190.195
190.184
190.223
190.208
190.262
190.241
190.305
190.284
190.341
190.325
190.382
190.358
190.452
190.414
190.544
190.494
190.69
190.608
190.89
190.79
191
191.008
191.116
191.251
190.786
190.898
190.585
190.677
190.458
190.512
190.385
190.418
190.335
190.358
190.294
190.314
190.251
190.272
190.215
190.231
190.194
190.203
190.18
190.186
190.168
190.173
190.163
219.318
220.586
222.425
224.31
226.72
229.401
232.485
236.132
240.374
245.321
250.919
257.064
263.623
270.375
276.785
282.261
286.621
288.517
288.607
288.474
287.411
281.512
253.096
228.026
218.329
213.487
208.37
191.206
204.467
218.096
218.248
218.422
218.594
218.752
218.849
218.848
218.751
218.596
218.427
218.255
218.103
217.982
192.131
217.91
227.9
252.83
281.704
287.426
288.473
288.61
288.527
286.653
282.291
276.81
270.395
263.638
257.073
250.935
245.339
240.392
236.147
232.497
229.408
226.723
224.309
222.422
220.58
219.311
217.976
202.37
201.558
206.811
190.55
190.664
192.877
192.627
190.753
190.672
190.603
192.532
190.23
196.375
190.284
198.947
192.161
191.838
207.788
191.862
196.07
194.076
224.523
213.655
227.918
203.427
201.093
193.791
196.515
195.504
194.681
191.145
190.532
190.464
190.434
190.49
190.629
190.577
208.473
206.755
205.16
203.714
202.346
201.013
190.294
190.867
216.078
190.164
191.772
192.165
190.16
190.158
190.156
190.154
190.152
190.15
190.148
190.146
190.144
190.141
190.139
190.137
190.136
190.134
190.133
190.133
190.132
190.132
190.132
190.133
190.133
190.133
190.134
190.135
190.135
190.136
190.137
190.139
190.14
190.142
190.143
190.145
190.146
190.147
190.149
190.151
190.154
190.156
190.159
190.162
190.166
190.17
190.174
190.177
190.18
190.182
190.184
190.186
190.188
190.189
190.19
190.19
190.19
190.19
190.19
190.189
190.188
190.187
190.185
190.183
190.181
190.178
190.174
190.17
190.167
190.164
190.161
190.158
190.155
190.153
190.151
190.149
190.147
190.145
190.143
190.141
190.14
190.139
190.138
190.137
190.136
190.135
217.654
217.528
219.295
217.919
190.134
200.993
191.578
190.135
190.134
191.234
190.808
190.132
190.132
190.132
190.132
190.133
190.134
190.135
190.136
190.138
190.14
190.142
190.144
190.146
190.148
190.15
190.156
190.154
190.152
190.161
190.165
190.169
190.174
190.181
190.188
190.196
190.206
190.218
190.234
190.253
190.274
190.297
190.32
190.346
190.374
190.405
190.438
190.476
190.529
190.603
190.697
190.811
190.93
191.056
191.355
191.184
190.95
191.66
191.137
190.969
190.841
190.721
190.631
190.562
190.509
190.464
190.423
190.389
190.363
190.345
190.328
190.309
190.288
190.266
190.245
190.226
190.21
190.197
190.187
190.179
190.173
190.164
190.168
202.929
190.155
190.154
190.152
190.15
190.148
190.147
190.145
190.144
190.143
190.141
190.139
190.137
190.135
190.134
190.134
190.133
190.133
190.133
190.177
190.133
190.134
190.134
190.135
190.135
190.136
190.137
190.139
190.14
190.141
190.143
190.144
190.146
190.147
190.149
190.151
190.153
190.155
190.157
190.16
190.163
190.166
190.169
190.173
190.176
190.178
190.18
190.182
190.183
190.184
190.184
190.184
190.184
190.184
190.184
190.184
190.183
190.181
190.18
190.177
190.175
190.172
190.169
190.166
190.163
190.16
190.158
190.156
190.153
190.151
190.149
190.148
190.146
190.144
190.142
190.141
190.14
190.139
190.138
190.137
190.136
190.135
190.135
190.134
190.81
192.033
190.134
190.133
199.747
199.422
200.646
201.963
203.219
204.524
205.919
207.422
209.28
212.914
217.844
226.82
249.787
280.883
287.67
288.932
289.112
289.08
287.366
282.92
277.391
271.016
264.297
257.597
251.276
245.562
240.537
236.237
232.559
229.453
226.763
224.295
219.289
220.547
222.391
190.606
190.541
190.448
190.487
192.303
191.367
193.94
196.475
195.383
194.6
193.867
193.314
200.243
191.46
218.331
226.826
217.661
217.812
217.989
218.162
218.323
218.423
218.424
218.324
218.161
217.983
217.805
191.252
222.905
194.846
195.784
192.11
190.936
190.528
190.183
199.263
200.513
201.812
193.02
204.335
205.442
210.408
213.311
217.905
227.103
250.502
280.979
287.681
288.916
289.087
289.049
287.317
282.881
277.363
270.998
264.27
257.569
251.251
245.539
240.517
236.222
232.549
229.448
226.763
224.298
222.396
220.553
206.744
205.954
192.072
192.003
192.393
197.281
190.708
190.709
190.218
190.258
190.157
217.535
217.913
190.631
198.76
192.438
210.399
217.448
217.454
190.133
201.999
197.427
192.882
190.752
190.561
190.517
193.223
190.134
190.234
191.694
190.223
198.271
190.668
192.537
192.258
207.908
220.539
217.864
219.297
224.301
222.386
229.464
226.787
236.233
232.572
245.576
240.526
257.649
251.331
270.933
264.246
283.173
277.53
289.471
287.267
289.508
289.656
281.013
288.338
226.027
247.817
212.918
217.327
208.108
210.075
205.184
206.538
202.832
203.976
200.295
201.58
197.86
199.047
195.613
196.83
193.906
194.716
193.053
216.426
216.25
216.283
216.798
216.594
217.097
216.985
216.984
217.096
216.6
216.801
216.291
216.435
216.197
217.387
216.202
216.257
217.527
191.022
190.159
193.351
192.66
190.508
190.571
217.383
219.292
217.86
222.381
220.533
226.787
224.298
232.581
229.468
240.544
236.247
251.356
245.598
264.278
257.676
277.586
270.983
287.356
283.244
289.699
289.539
288.312
289.541
247.145
280.787
217.121
225.838
210.601
212.832
206.694
191.124
204.058
205.349
201.645
202.822
199.13
200.367
196.83
197.786
194.718
195.589
193.926
190.134
190.134
190.135
190.134
190.136
190.135
190.137
190.136
190.139
190.138
190.141
190.139
190.143
190.142
190.147
190.145
190.15
190.148
190.154
190.152
190.158
190.156
190.163
190.16
190.168
190.165
190.173
190.171
190.177
190.175
190.179
190.178
190.181
190.18
190.181
190.181
190.18
190.18
190.178
190.179
190.174
190.176
190.169
190.172
190.163
190.166
190.158
190.161
190.155
190.156
190.151
190.153
190.147
190.149
190.144
190.146
190.141
190.142
190.138
190.14
190.136
190.137
190.135
190.136
190.134
190.134
190.175
190.134
191.301
190.133
190.133
190.133
190.133
190.134
190.133
190.138
190.136
190.141
190.14
190.144
190.143
190.147
190.145
190.151
190.149
190.154
190.152
193.048
190.155
193.337
190.168
190.164
190.18
190.173
190.199
190.188
190.228
190.212
190.268
190.247
190.312
190.291
190.349
190.332
190.393
190.367
190.472
190.428
190.576
190.52
190.751
190.65
191.049
190.887
191.447
191.249
191.759
191.233
191.433
190.96
191.093
190.713
190.833
190.535
190.613
190.439
190.479
190.381
190.409
190.327
190.354
190.278
190.302
190.237
190.256
190.208
190.22
190.189
190.197
190.175
190.181
190.166
190.17
190.163
190.223
190.16
190.154
190.156
190.15
190.152
190.146
190.148
190.143
190.144
190.139
190.141
190.136
190.137
190.133
190.134
190.132
190.133
190.132
190.132
203.474
190.132
192.317
190.133
216.07
216.074
190.245
197.82
190.133
190.133
190.133
190.132
190.132
190.132
190.132
190.133
190.134
190.136
190.137
190.139
190.14
190.142
190.144
190.146
190.148
190.15
190.152
190.153
190.155
190.157
190.233
202.002
190.164
190.167
190.171
190.176
190.182
190.189
190.198
190.209
190.222
190.238
190.259
190.282
190.305
190.327
190.349
190.369
190.391
190.418
190.455
190.508
190.581
190.677
190.799
190.932
191.093
191.25
191.501
191.864
192.05
191.538
191.33
191.079
190.923
190.766
190.66
190.581
190.521
190.47
190.425
190.392
190.369
190.353
190.335
190.315
190.293
190.27
190.248
190.229
190.213
190.2
190.189
190.18
190.173
190.168
190.165
190.162
198.037
190.157
190.154
190.153
190.152
190.15
190.148
190.146
190.144
190.143
190.142
190.141
190.139
190.137
190.135
190.134
190.133
190.133
190.133
190.133
190.133
191.471
190.133
190.134
190.135
190.135
190.135
190.136
190.137
190.138
190.138
190.139
190.141
190.142
190.144
190.145
190.147
190.149
190.151
190.153
190.155
190.156
190.158
190.16
190.162
190.164
190.167
190.169
190.171
190.173
190.175
190.176
190.177
190.178
190.178
190.178
190.178
190.177
190.177
190.176
190.174
190.173
190.171
190.168
190.166
190.163
190.161
190.159
190.157
190.155
190.153
190.151
190.15
190.148
190.146
190.144
190.143
190.142
190.141
190.14
190.139
190.138
190.137
190.136
190.136
190.135
190.135
190.135
190.134
190.134
190.134
190.134
192.739
193.6
194.535
195.262
196.525
197.833
199.342
200.669
201.919
203.049
204.192
205.358
206.702
208.038
210.077
212.301
216.306
224.109
240.505
278.611
290.139
291.242
291.286
290.403
287.871
284.075
278.75
272.202
265.054
258.001
251.456
245.6
240.515
236.225
232.574
229.468
226.799
224.299
222.384
220.531
219.332
217.844
217.379
216.106
190.588
190.536
199.781
193.208
190.16
198.578
213.358
216.31
216.496
216.592
216.651
216.805
217
217.223
217.424
217.541
217.542
217.425
217.221
216.993
216.797
216.643
216.585
216.491
216.306
216.269
191.5
193.494
194.582
195.22
196.505
197.788
199.289
200.644
201.874
203.05
204.112
205.262
206.459
207.881
209.69
212.135
216.039
224.04
240.527
278.692
290.182
291.24
291.274
290.351
287.807
284.013
278.698
272.16
265.017
257.971
251.429
245.577
240.497
236.212
232.566
229.464
226.798
224.302
222.388
220.535
219.336
217.848
217.383
216.109
216.272
192.759
192.35
190.542
190.585
211.843
193.653
192.57
200.874
190.159
190.62
191.107
192.498
190.134
190.556
190.133
190.162
191.975
207.981
190.134
190.133
193.103
190.16
190.977
190.871
213.087
190.291
191.352
190.979
209.454
190.604
190.133
190.57
190.576
190.502
212.898
190.157
190.278
190.365
235.164
190.136
191.23
208.693
214.324
190.988
190.16
210.951
190.193
190.453
190.157
192.571
190.156
193.723
190.411
203.243
197.331
210.417
192.299
190.134
197.203
214.536
191.079
210.676
190.795
190.264
190.132
190.259
190.143
190.582
190.175
190.227
190.302
)
;

boundaryField
{
    wall
    {
        type            zeroGradient;
    }
    outlet
    {
        type            inletOutlet;
        inletValue      uniform 1e-05;
        value           nonuniform List<scalar> 
20
(
216.31
216.496
216.592
216.651
216.805
217
217.223
217.424
217.541
217.542
217.425
217.221
216.993
216.797
216.643
216.585
216.491
216.306
216.269
216.272
)
;
    }
    frontAndBackPlanes
    {
        type            empty;
    }
}


// ************************************************************************* //
