/*--------------------------------*- C++ -*----------------------------------*\
| =========                 |                                                 |
| \\      /  F ield         | OpenFOAM: The Open Source CFD Toolbox           |
|  \\    /   O peration     | Version:  2212                                  |
|   \\  /    A nd           | Website:  www.openfoam.com                      |
|    \\/     M anipulation  |                                                 |
\*---------------------------------------------------------------------------*/
FoamFile
{
    version     2.0;
    format      ascii;
    arch        "LSB;label=32;scalar=64";
    class       volScalarField;
    location    "0.0034";
    object      nut;
}
// * * * * * * * * * * * * * * * * * * * * * * * * * * * * * * * * * * * * * //

dimensions      [0 2 -1 0 0 0 0];

internalField   nonuniform List<scalar> 
7220
(
0.292583
0.336132
0.333243
0.33025
0.334561
0.332098
0.335524
0.33599
0.331832
0.3336
0.287708
0.327045
0.328607
0.407075
0.40095
0.327973
0.118211
0.325906
0.20431
0.319291
0.300544
0.16316
0.326676
0.0775463
0.134083
0.169416
0.302425
0.347104
0.298813
0.273511
0.278651
0.288345
0.349884
0.26608
0.20013
0.290445
0.333092
0.286071
0.285592
0.268333
0.268844
0.268871
0.268359
0.28526
0.287813
0.28908
0.28738
0.285661
0.269362
0.269889
0.269913
0.269387
0.270433
0.270999
0.271022
0.270457
0.271588
0.272202
0.272224
0.271611
0.272842
0.273501
0.273521
0.272863
0.274163
0.274906
0.274924
0.274182
0.27575
0.276651
0.276669
0.275768
0.277563
0.278414
0.278438
0.277585
0.279281
0.280177
0.280212
0.279308
0.281088
0.282013
0.282086
0.281139
0.284247
0.283098
0.282997
0.284109
0.285444
0.28374
0.267819
0.267846
0.268296
0.267795
0.289847
0.290636
0.287043
0.288815
0.282052
0.280198
0.281095
0.27845
0.279319
0.27678
0.277609
0.275003
0.275889
0.273434
0.274169
0.272135
0.272783
0.270909
0.271509
0.269782
0.270334
0.268733
0.26925
0.267724
0.268226
0.269313
0.268801
0.270393
0.269843
0.271563
0.270965
0.272831
0.272187
0.274212
0.27348
0.275934
0.275045
0.277668
0.276832
0.27941
0.278521
0.281322
0.280335
0.282442
0.283138
0.267219
0.267292
0.284107
0.282302
0.291234
0.290446
0.284443
0.286016
0.282707
0.286056
0.287808
0.28434
0.280346
0.281404
0.278576
0.279426
0.276919
0.277746
0.275326
0.276116
0.273614
0.274473
0.272083
0.272799
0.270828
0.271452
0.269654
0.270227
0.268581
0.269107
0.267581
0.268074
0.266614
0.267095
0.266692
0.265623
0.266128
0.267307
0.267281
0.266237
0.265731
0.266764
0.267199
0.26672
0.268167
0.26768
0.26919
0.268669
0.270301
0.269733
0.271518
0.270898
0.272856
0.272144
0.274533
0.27367
0.276201
0.275398
0.277881
0.277022
0.279758
0.27878
0.2809
0.28971
0.288019
0.281622
0.27992
0.266141
0.265098
0.264808
0.264338
0.291901
0.29074
0.292024
0.28955
0.280352
0.288919
0.287641
0.286227
0.283666
0.282002
0.278033
0.279057
0.276379
0.277171
0.274826
0.275602
0.273325
0.274068
0.271704
0.272522
0.270235
0.270922
0.269045
0.269634
0.267945
0.26848
0.266951
0.267437
0.266023
0.266481
0.265124
0.265572
0.264203
0.26467
0.266742
0.266717
0.265201
0.26621
0.2657
0.265257
0.266593
0.266144
0.267534
0.267055
0.268563
0.268035
0.269706
0.269122
0.270985
0.270301
0.272593
0.271768
0.274171
0.273412
0.275769
0.274951
0.277538
0.276621
0.278598
0.285753
0.263717
0.263845
0.291655
0.291248
0.289595
0.292615
0.283936
0.278643
0.277064
0.280609
0.288021
0.262571
0.262137
0.264692
0.263364
0.290845
0.292404
0.290004
0.291566
0.289302
0.28863
0.290442
0.29236
0.281138
0.277518
0.279158
0.275294
0.276262
0.27376
0.274491
0.272321
0.273041
0.270929
0.271617
0.269423
0.270187
0.268041
0.268685
0.26693
0.267479
0.26592
0.266409
0.265023
0.26546
0.264194
0.264602
0.263392
0.263792
0.262986
0.263231
0.26561
0.264584
0.266206
0.266179
0.265683
0.262284
0.263143
0.262723
0.263936
0.263543
0.264727
0.264329
0.265564
0.265137
0.266494
0.266014
0.267549
0.267007
0.268749
0.268105
0.270261
0.269488
0.271729
0.271022
0.273224
0.272459
0.274866
0.274017
0.275844
0.284942
0.282806
0.287551
0.286575
0.288147
0.285843
0.261692
0.261842
0.275332
0.273903
0.277191
0.286526
0.289274
0.292957
0.29267
0.291039
0.291412
0.287638
0.277976
0.291961
0.283208
0.2802
0.290004
0.274378
0.275969
0.272297
0.273192
0.270895
0.271562
0.269587
0.270243
0.26831
0.268941
0.26693
0.267633
0.265645
0.266244
0.264621
0.265124
0.263712
0.264149
0.262927
0.263307
0.262219
0.262566
0.261543
0.26188
0.260853
0.261202
0.260096
0.260485
0.259731
0.262794
0.261284
0.265151
0.264133
0.265745
0.265717
0.264245
0.265226
0.261438
0.262934
0.259889
0.260644
0.260254
0.26137
0.261016
0.262034
0.261706
0.262699
0.262364
0.263415
0.263048
0.264233
0.263808
0.26519
0.264696
0.266303
0.265705
0.2677
0.266989
0.269044
0.268395
0.270418
0.269717
0.271918
0.271144
0.272806
0.281835
0.279442
0.285274
0.283903
0.286031
0.284948
0.28733
0.29279
0.282224
0.271863
0.270603
0.273568
0.258539
0.258227
0.261082
0.259555
0.293208
0.293052
0.292558
0.288288
0.285912
0.286973
0.289384
0.286054
0.290077
0.291827
0.291839
0.283606
0.290717
0.279159
0.274567
0.276881
0.271093
0.272593
0.269198
0.270006
0.26795
0.268541
0.266776
0.267368
0.265606
0.266184
0.264351
0.264992
0.263164
0.263717
0.262236
0.262689
0.261436
0.261817
0.260773
0.26109
0.260203
0.26048
0.259679
0.259938
0.259144
0.259416
0.258853
0.259406
0.262433
0.260938
0.264766
0.263758
0.265351
0.265326
0.26386
0.264835
0.262561
0.258383
0.259018
0.258695
0.259589
0.259313
0.260102
0.259849
0.260621
0.260356
0.261204
0.260901
0.261903
0.261536
0.262756
0.262311
0.263776
0.263225
0.265053
0.264408
0.266275
0.265682
0.267525
0.26689
0.268855
0.268166
0.269643
0.278316
0.275781
0.282436
0.280707
0.284477
0.283551
0.285118
0.288335
0.280894
0.257933
0.25808
0.267299
0.268385
0.28431
0.286554
0.29315
0.293625
0.293677
0.293405
0.28824
0.290639
0.292941
0.291731
0.356808
0.292769
0.281904
0.279359
0.275832
0.277937
0.271034
0.273361
0.267789
0.269155
0.26612
0.266823
0.26503
0.265551
0.263981
0.264511
0.262916
0.263444
0.261785
0.262364
0.260702
0.261207
0.259869
0.260272
0.25918
0.259504
0.258644
0.258895
0.258221
0.258422
0.257861
0.258037
0.257497
0.257684
0.257062
0.257293
0.256561
0.256814
0.256309
0.259076
0.257641
0.262042
0.260575
0.264328
0.263341
0.264894
0.264873
0.263421
0.264382
0.260692
0.262143
0.25776
0.259197
0.256428
0.256965
0.256702
0.25746
0.257217
0.257861
0.257671
0.258209
0.258037
0.258574
0.258385
0.259019
0.258783
0.259598
0.259289
0.260344
0.259952
0.261268
0.260767
0.262422
0.261842
0.263525
0.262986
0.264645
0.26408
0.265814
0.265216
0.26648
0.274551
0.269903
0.27198
0.279486
0.277243
0.28211
0.281048
0.283671
0.282893
0.285885
0.284667
0.290371
0.288742
0.289625
0.287265
0.288569
0.347769
0.282505
0.280251
0.293659
0.331088
0.25529
0.255081
0.257369
0.256084
0.2943
0.291088
0.294583
0.291997
0.29296
0.294466
0.29388
0.33911
0.358362
0.356822
0.343329
0.269528
0.332776
0.284724
0.28687
0.360124
0.285209
0.288024
0.286457
0.292145
0.290592
0.28307
0.353863
0.280969
0.321951
0.283798
0.281747
0.342918
0.283184
0.282698
0.280778
0.281952
0.278885
0.279786
0.276644
0.277924
0.272328
0.274772
0.26749
0.269742
0.264568
0.265773
0.263134
0.263737
0.2622
0.262647
0.261285
0.261752
0.260326
0.260804
0.259309
0.25983
0.258327
0.258785
0.257586
0.257942
0.257002
0.257271
0.25659
0.256776
0.256312
0.256437
0.256115
0.256208
0.255927
0.256025
0.255669
0.255812
0.255492
0.255999
0.258671
0.25728
0.261552
0.260127
0.263793
0.262823
0.264349
0.26433
0.262892
0.263842
0.260212
0.261633
0.258762
0.255194
0.255632
0.255419
0.255978
0.255819
0.256207
0.256103
0.256391
0.256299
0.256607
0.256491
0.256918
0.256746
0.257382
0.257128
0.258026
0.257683
0.258854
0.258402
0.25989
0.259371
0.260877
0.260391
0.261864
0.261371
0.262864
0.262356
0.264109
0.263426
0.266325
0.26502
0.270673
0.268195
0.276233
0.273535
0.279673
0.278292
0.281473
0.280636
0.283634
0.282464
0.284981
0.357541
0.359759
0.349813
0.288817
0.293094
0.353174
0.330275
0.113117
0.294681
0.254826
0.254904
0.351941
0.287333
0.291147
0.292678
0.294345
0.292678
0.274898
0.285921
0.284305
0.285779
0.289336
0.295255
0.293408
0.294285
0.284752
0.0418794
0.295711
0.390352
0.283836
0.317158
0.295663
0.295116
0.345415
0.347754
0.296571
0.354193
0.349524
0.334508
0.279027
0.27996
0.276894
0.278033
0.273776
0.275547
0.268724
0.271437
0.264047
0.266136
0.261499
0.262532
0.26029
0.260796
0.259508
0.259883
0.258722
0.259127
0.257867
0.258297
0.256959
0.257424
0.256076
0.256489
0.255418
0.25573
0.254929
0.255149
0.254629
0.254757
0.254485
0.254542
0.254439
0.254454
0.254416
0.25443
0.254326
0.254386
0.254084
0.254223
0.253717
0.25392
0.253428
0.2556
0.254481
0.2582
0.256839
0.261049
0.259634
0.263278
0.262314
0.263827
0.263811
0.262374
0.263321
0.259706
0.26112
0.256896
0.258266
0.254513
0.255642
0.253455
0.254015
0.253781
0.25435
0.254195
0.254549
0.254471
0.254618
0.254594
0.25465
0.254632
0.254732
0.25468
0.254925
0.254812
0.255285
0.255081
0.255834
0.255538
0.256573
0.256169
0.257495
0.257034
0.258373
0.25794
0.259234
0.258809
0.260071
0.259651
0.261089
0.26053
0.262938
0.261842
0.266842
0.264558
0.272705
0.269701
0.277095
0.275261
0.279329
0.278328
0.281542
0.280375
0.282867
0.355533
0.355737
0.281994
0.361304
0.359669
0.28934
0.293802
0.351196
0.296344
0.294462
0.350755
0.344505
0.342003
0.288065
0.282355
0.283865
0.287367
0.295277
0.292006
0.293575
0.353715
0.294882
0.337828
0.252585
0.252349
0.254068
0.253039
0.295633
0.128559
0.286885
0.291048
0.339997
0.332052
0.331073
0.330363
0.340593
0.296397
0.349216
0.346777
0.354472
0.246241
0.350189
0.346037
0.285885
0.294808
0.367153
0.366707
0.362456
0.367743
0.306902
0.296949
0.296395
0.285057
0.340853
0.296912
0.344903
0.345222
0.348806
0.284334
0.342837
0.346615
0.344759
0.346414
0.298266
0.335824
0.298721
0.292804
0.277329
0.278346
0.274671
0.276077
0.270675
0.272931
0.265121
0.267951
0.26078
0.262654
0.258604
0.259475
0.257598
0.258018
0.256949
0.257261
0.256284
0.256629
0.255533
0.255914
0.254728
0.25514
0.253941
0.254312
0.253358
0.25363
0.252952
0.253129
0.252747
0.252826
0.252708
0.252709
0.252787
0.252736
0.252911
0.25285
0.252968
0.252955
0.252856
0.252936
0.25274
0.25304
0.255147
0.254052
0.257728
0.256374
0.260578
0.259161
0.262807
0.261843
0.263353
0.263339
0.261894
0.262843
0.259222
0.260637
0.25642
0.257783
0.255179
0.252368
0.252816
0.252634
0.253048
0.252949
0.253112
0.253102
0.253044
0.253088
0.252949
0.252993
0.252918
0.252921
0.253022
0.252949
0.253297
0.253137
0.253763
0.253508
0.254422
0.254061
0.255235
0.254828
0.25601
0.255628
0.256746
0.256387
0.257431
0.257089
0.258254
0.257803
0.259772
0.258868
0.263142
0.261138
0.268924
0.265829
0.274241
0.271874
0.277205
0.27593
0.279573
0.278357
0.280912
0.345503
0.356313
0.345406
0.350428
0.337224
0.353207
0.308463
0.290136
0.283752
0.285521
0.294721
0.349838
0.350544
0.349781
0.35295
0.35143
0.352323
0.349211
0.356992
0.0265485
0.296459
0.28346
0.357874
0.252008
0.251994
0.296996
0.299612
0.348919
0.335662
0.342819
0.220355
0.289059
0.339479
0.289087
0.332002
0.355951
0.288122
0.337562
0.336525
0.296401
0.293084
0.294674
0.347122
0.352949
0.348556
0.349775
0.356507
0.35675
0.357703
0.358844
0.36342
0.351805
0.333353
0.356911
0.367115
0.329588
0.204931
0.342665
0.288032
0.292964
0.31137
0.367032
0.119795
0.297647
0.34481
0.354361
0.351562
0.353514
0.297656
0.287107
0.361348
0.297024
0.326727
0.364058
0.338366
0.335195
0.333369
0.33779
0.33743
0.298205
0.344254
0.343578
0.347521
0.348639
0.331903
0.272207
0.298146
0.286301
0.338838
0.345079
0.343712
0.345356
0.348512
0.285577
0.340403
0.355403
0.349999
0.346605
0.341765
0.34678
0.300337
0.298133
0.378589
0.3452
0.332012
0.301175
0.07336
0.275632
0.2769
0.272218
0.274051
0.267268
0.269987
0.261517
0.264305
0.257642
0.259268
0.255815
0.256541
0.254983
0.25533
0.254443
0.254703
0.253885
0.254175
0.253237
0.253569
0.252533
0.252893
0.251835
0.252167
0.251318
0.251557
0.250973
0.251121
0.250823
0.250874
0.250856
0.250818
0.251026
0.250929
0.25125
0.251139
0.251411
0.251346
0.251396
0.251431
0.251199
0.251317
0.250725
0.251014
0.250355
0.252613
0.251609
0.254695
0.253607
0.25727
0.255916
0.260131
0.258708
0.262372
0.261402
0.262916
0.262905
0.261441
0.2624
0.258751
0.260174
0.255945
0.257307
0.253619
0.254715
0.251597
0.252614
0.250321
0.251029
0.250697
0.251383
0.251244
0.251535
0.251478
0.251503
0.251542
0.251343
0.251432
0.251163
0.251248
0.25106
0.251097
0.251096
0.251058
0.251322
0.251184
0.251731
0.251506
0.252318
0.251997
0.253027
0.252674
0.253701
0.25337
0.254316
0.25402
0.254873
0.254596
0.255536
0.255172
0.256772
0.256034
0.259595
0.257898
0.264962
0.261975
0.270978
0.268134
0.274878
0.273197
0.277605
0.276261
0.280492
0.279003
0.28206
0.298414
0.241759
0.344221
0.327268
0.35788
0.320674
0.346869
0.349368
0.360006
0.355132
0.354547
0.361241
0.299689
0.331626
0.260485
0.291171
0.287279
0.368608
0.333912
0.295826
0.347678
0.351303
0.361224
0.347561
0.130368
0.223268
0.280997
0.337337
0.341382
0.359969
0.364227
0.227642
0.179273
0.401667
0.197807
0.316058
0.328258
0.348998
0.345029
0.240326
0.33748
0.298858
0.317006
0.176469
0.290228
0.291104
0.327152
0.360829
0.342306
0.33444
0.297632
0.294296
0.2959
0.344915
0.34971
0.345902
0.346885
0.355761
0.298907
0.334266
0.248512
0.24815
0.251142
0.249876
0.150018
0.324424
0.289266
0.144126
0.295225
0.353841
0.367733
0.341175
0.340326
0.334793
0.298901
0.343149
0.350108
0.209481
0.299333
0.137336
0.288361
0.299535
0.365067
0.335956
0.299406
0.34265
0.346001
0.350155
0.287599
0.337076
0.350956
0.352508
0.343549
0.348334
0.286948
0.338206
0.348809
0.302683
0.299932
0.339378
0.346448
0.29992
0.354577
0.345769
0.339845
0.120086
0.30404
0.33058
0.330859
0.337222
0.32961
0.283243
0.281627
0.27758
0.279073
0.273481
0.275143
0.26908
0.271477
0.263205
0.266298
0.257578
0.26018
0.25425
0.255621
0.25275
0.253341
0.252084
0.252361
0.251654
0.251862
0.2512
0.251437
0.250653
0.250937
0.250045
0.250355
0.24943
0.249724
0.248951
0.249176
0.248613
0.24876
0.248466
0.248515
0.248502
0.248463
0.24868
0.248578
0.248915
0.248796
0.249095
0.249019
0.24911
0.249129
0.248934
0.249041
0.248769
0.249945
0.252177
0.251189
0.254241
0.253161
0.256818
0.25546
0.259701
0.258266
0.261964
0.260985
0.26251
0.262501
0.26101
0.261984
0.258288
0.259727
0.255464
0.256832
0.253143
0.254234
0.252147
0.248111
0.248795
0.248489
0.249116
0.24899
0.249253
0.249206
0.249207
0.249251
0.249039
0.249131
0.248859
0.248945
0.248755
0.248792
0.248797
0.248755
0.249018
0.248884
0.249412
0.249196
0.249962
0.249667
0.250574
0.250276
0.251144
0.250863
0.251646
0.251407
0.25209
0.25187
0.252621
0.252329
0.253621
0.253022
0.255933
0.254533
0.260643
0.25795
0.266949
0.263792
0.271888
0.269708
0.275211
0.273637
0.278398
0.276775
0.281901
0.280095
0.283862
0.334899
0.331782
0.333257
0.329486
0.330521
0.328829
0.327988
0.32865
0.329576
0.328371
0.329482
0.328852
0.330232
0.352627
0.346412
0.355814
0.364896
0.359897
0.332711
0.359112
0.284339
0.141586
0.171214
0.279353
0.338176
0.272691
0.329391
0.34289
0.336615
0.339312
0.352729
0.347429
0.359665
0.35776
0.333677
0.353669
0.254147
0.297863
0.211316
0.292363
0.289321
0.352609
0.285
0.348517
0.33246
0.297051
0.34524
0.348151
0.360772
0.358268
0.355858
0.300191
0.378644
0.133053
0.286604
0.130414
0.247736
0.247663
0.404156
0.395452
0.339104
0.33557
0.343771
0.321985
0.156254
0.232438
0.267131
0.326597
0.313238
0.177748
0.312202
0.244261
0.272675
0.144987
0.291473
0.289958
0.293384
0.358133
0.368018
0.283769
0.285375
0.351945
0.339955
0.329922
0.332993
0.394816
0.400086
0.298868
0.295546
0.297144
0.342943
0.368644
0.37617
0.385038
0.345955
0.343312
0.343938
0.351902
0.385556
0.320576
0.307902
0.137287
0.300485
0.12657
0.289829
0.333212
0.334652
0.120781
0.291729
0.290532
0.297761
0.365206
0.364183
0.344346
0.327498
0.328234
0.333694
0.300087
0.341834
0.346995
0.385987
0.350467
0.300534
0.289677
0.365993
0.365756
0.302405
0.380015
0.372996
0.362749
0.331142
0.334649
0.335366
0.353952
0.342096
0.343729
0.350053
0.288992
0.373515
0.38129
0.328034
0.329091
0.335652
0.350979
0.305387
0.301875
0.359641
0.384185
0.375466
0.383503
0.374769
0.3827
0.374051
0.381956
0.336803
0.348013
0.301556
0.350653
0.346804
0.337947
0.346575
0.301553
0.0454317
0.338613
0.340639
0.307452
0.371472
0.285957
0.284018
0.279476
0.281672
0.274604
0.277186
0.269642
0.272071
0.263944
0.266959
0.257351
0.260659
0.252063
0.254411
0.249294
0.250394
0.248144
0.248585
0.247708
0.247879
0.247453
0.247578
0.247142
0.247311
0.246696
0.246939
0.246152
0.246435
0.245537
0.245848
0.245017
0.245262
0.244616
0.244799
0.244364
0.24447
0.244264
0.244296
0.244284
0.244263
0.244356
0.244319
0.244387
0.244382
0.244285
0.244359
0.244009
0.244164
0.243539
0.243812
0.242736
0.243162
0.242249
0.249474
0.24726
0.251708
0.250721
0.253775
0.252692
0.256371
0.255001
0.259286
0.257834
0.261581
0.260588
0.26213
0.262125
0.2606
0.261592
0.257836
0.259296
0.254981
0.256363
0.252644
0.253742
0.25064
0.251645
0.247158
0.249375
0.242165
0.243153
0.242685
0.243883
0.243554
0.244306
0.244122
0.244573
0.244459
0.244679
0.244642
0.244698
0.244695
0.244701
0.244696
0.244766
0.244721
0.244953
0.244843
0.245275
0.245098
0.245716
0.245484
0.246264
0.245975
0.246854
0.246567
0.247356
0.247118
0.247756
0.247565
0.24808
0.247921
0.248474
0.248257
0.249235
0.248779
0.251019
0.24993
0.254982
0.252663
0.261165
0.257925
0.26702
0.264303
0.271277
0.269286
0.275096
0.273184
0.279085
0.277043
0.281333
0.330633
0.331854
0.328665
0.329568
0.327376
0.327941
0.327198
0.326757
0.326983
0.327806
0.327161
0.327492
0.327279
0.328309
0.32783
0.328896
0.331101
0.332975
0.356104
0.349587
0.358568
0.361514
0.293096
0.337667
0.178255
0.232996
0.143636
0.334833
0.191901
0.293654
0.211135
0.295259
0.345077
0.338274
0.341247
0.354128
0.349652
0.350896
0.356103
0.296456
0.331929
0.204024
0.24939
0.168106
0.293613
0.291594
0.365651
0.288718
0.286966
0.345062
0.331321
0.386108
0.391035
0.298287
0.368056
0.342934
0.404647
0.394465
0.344822
0.353986
0.376722
0.382987
0.210503
0.163954
0.291975
0.400316
0.406392
0.301656
0.345584
0.401911
0.35343
0.16598
0.132477
0.291841
0.336729
0.402062
0.336092
0.329777
0.336686
0.359281
0.182369
0.287409
0.265755
0.134208
0.271131
0.186872
0.217448
0.292736
0.292228
0.295895
0.365948
0.366408
0.287436
0.347794
0.337804
0.329196
0.331908
0.39917
0.300045
0.296768
0.29834
0.367366
0.3548
0.253529
0.341262
0.393336
0.342682
0.341039
0.341254
0.3482
0.36178
0.376862
0.347344
0.345016
0.301615
0.366161
0.230261
0.229707
0.246608
0.2416
0.331634
0.330139
0.127973
0.11361
0.244521
0.29184
0.300602
0.396338
0.0512833
0.38703
0.363375
0.351943
0.286444
0.288224
0.333211
0.327847
0.332724
0.304216
0.351658
0.301183
0.3667
0.340906
0.392573
0.356992
0.344312
0.377845
0.351004
0.278463
0.28138
0.322943
0.29108
0.305686
0.389134
0.330474
0.326672
0.327062
0.333715
0.352539
0.215225
0.341888
0.391824
0.308352
0.304053
0.290624
0.366198
0.390165
0.328712
0.334781
0.349792
0.390878
0.303347
0.3476
0.348264
0.327128
0.327686
0.335913
0.347665
0.303043
0.347194
0.359
0.336613
0.302906
0.355717
0.340962
0.358144
0.410204
0.366861
0.288915
0.285229
0.279668
0.282458
0.274188
0.2769
0.267893
0.271376
0.261051
0.264508
0.253588
0.257383
0.246427
0.24983
0.241534
0.243635
0.239159
0.240087
0.238438
0.238664
0.238437
0.238391
0.238585
0.238514
0.238622
0.238626
0.238446
0.238567
0.237938
0.238233
0.237234
0.237597
0.2365
0.236866
0.2358
0.236143
0.235162
0.235473
0.234601
0.234871
0.234114
0.234351
0.233662
0.233885
0.233199
0.233436
0.232655
0.232943
0.232021
0.232343
0.231256
0.231668
0.230769
0.241707
0.248953
0.246729
0.251205
0.250208
0.253301
0.252203
0.255931
0.254543
0.258886
0.257413
0.261219
0.260209
0.261774
0.261772
0.260209
0.261222
0.257399
0.258881
0.254504
0.255904
0.252134
0.253248
0.250106
0.251121
0.248836
0.229676
0.230833
0.23027
0.231825
0.231351
0.232621
0.232241
0.233323
0.232978
0.233932
0.233636
0.234503
0.23422
0.235056
0.234779
0.235628
0.235338
0.236252
0.235933
0.236926
0.236583
0.237641
0.23728
0.238388
0.238009
0.239068
0.238741
0.239577
0.23935
0.239838
0.239743
0.23993
0.239887
0.240107
0.24
0.240575
0.240285
0.241929
0.241082
0.245091
0.24322
0.25066
0.247606
0.257171
0.253953
0.26272
0.260088
0.267623
0.265185
0.272705
0.270106
0.275492
0.334383
0.331994
0.333184
0.329809
0.330857
0.328095
0.328885
0.326986
0.327455
0.326514
0.326677
0.326701
0.326527
0.32647
0.327148
0.326814
0.326765
0.32678
0.326925
0.326807
0.327503
0.327148
0.328533
0.327962
0.329182
0.333754
0.356575
0.351386
0.340979
0.356387
0.242299
0.30147
0.14668
0.183996
0.147761
0.135406
0.175887
0.156091
0.239218
0.157647
0.24614
0.339406
0.335504
0.337133
0.345833
0.342311
0.350906
0.349387
0.327976
0.345808
0.245875
0.29353
0.163522
0.198358
0.135447
0.143553
0.395219
0.294858
0.294041
0.366789
0.290607
0.288936
0.342046
0.330414
0.389762
0.299466
0.360707
0.407797
0.409482
0.340925
0.402536
0.341647
0.349643
0.368875
0.295744
0.336659
0.302712
0.359074
0.345434
0.325174
0.283359
0.29578
0.354727
0.143006
0.229115
0.229053
0.328889
0.329025
0.33696
0.127791
0.145886
0.236246
0.212134
0.113531
0.217913
0.141526
0.164574
0.160404
0.158473
0.294015
0.294319
0.298669
0.253475
0.188765
0.25388
0.19899
0.362869
0.360634
0.289601
0.336062
0.328721
0.331138
0.257975
0.341077
0.301137
0.29795
0.299481
0.360034
0.370081
0.414623
0.413171
0.349009
0.344497
0.33993
0.112138
0.401584
0.339036
0.351268
0.345108
0.100477
0.369255
0.349398
0.264967
0.269781
0.285941
0.117105
0.187389
0.33588
0.355564
0.335025
0.293217
0.30376
0.391814
0.392095
0.361071
0.396855
0.416176
0.356952
0.0255717
0.290611
0.332238
0.327656
0.332091
0.231807
0.304999
0.351625
0.242064
0.302226
0.359474
0.326846
0.326658
0.326669
0.340448
0.269464
0.270667
0.163828
0.401012
0.317039
0.291004
0.339821
0.306523
0.342145
0.292637
0.329643
0.333258
0.370981
0.309444
0.398296
0.389934
0.411977
0.287975
0.291433
0.329919
0.327048
0.33312
0.326822
0.326708
0.326861
0.299496
0.351289
0.261243
0.28071
0.399958
0.336187
0.305352
0.347615
0.315304
0.330519
0.292427
0.11243
0.410063
0.32429
0.399093
0.34992
0.328477
0.326672
0.326828
0.334085
0.326852
0.349607
0.349009
0.304698
0.348308
0.352899
0.327654
0.334848
0.34782
0.304291
0.303889
0.352829
0.327198
0.335591
0.165969
0.121702
0.385763
0.387661
0.391214
0.381561
0.373232
0.381532
0.290739
0.281749
0.274992
0.27842
0.267661
0.271368
0.259875
0.263834
0.250667
0.255609
0.240361
0.245543
0.229987
0.235139
0.221322
0.225282
0.216302
0.218316
0.214644
0.215138
0.214669
0.214539
0.215336
0.214964
0.216043
0.215711
0.216412
0.216285
0.21631
0.216414
0.215843
0.216122
0.215006
0.215461
0.213928
0.21449
0.212692
0.213327
0.211353
0.21203
0.209989
0.210669
0.208642
0.209314
0.207316
0.207976
0.206039
0.20667
0.204796
0.205416
0.203588
0.204183
0.202448
0.203011
0.201307
0.20188
0.200056
0.200688
0.199405
0.241122
0.228496
0.248396
0.246156
0.250683
0.249665
0.252827
0.251704
0.255503
0.254093
0.258504
0.257008
0.260876
0.259848
0.261438
0.261439
0.259839
0.260873
0.256981
0.258487
0.254041
0.255464
0.251624
0.252761
0.249553
0.250587
0.246024
0.24827
0.228407
0.240999
0.199374
0.200769
0.200077
0.202144
0.201455
0.203468
0.202804
0.204847
0.204146
0.206309
0.205572
0.207805
0.207054
0.209344
0.208569
0.210897
0.210122
0.212413
0.211661
0.213883
0.213155
0.215267
0.21459
0.21652
0.215911
0.217603
0.217088
0.218416
0.218051
0.218845
0.218676
0.218979
0.218937
0.218994
0.218992
0.219011
0.218996
0.219023
0.21902
0.219536
0.219127
0.222084
0.220473
0.227475
0.224435
0.234744
0.230994
0.242015
0.238449
0.249093
0.24552
0.256618
0.252768
0.260697
0.333189
0.33409
0.331153
0.332178
0.329237
0.330158
0.327744
0.328425
0.326817
0.327208
0.326472
0.326579
0.326537
0.326461
0.326663
0.326609
0.326632
0.326661
0.326608
0.327049
0.326801
0.327875
0.327407
0.328413
0.330192
0.332756
0.332091
0.334182
0.352636
0.350398
0.313273
0.344
0.195722
0.258126
0.137577
0.151481
0.178867
0.149881
0.215394
0.153597
0.316655
0.186823
0.123632
0.190618
0.339007
0.337315
0.343486
0.341238
0.33922
0.344126
0.288115
0.322184
0.193127
0.240377
0.14353
0.159391
0.148019
0.141607
0.153971
0.296089
0.296604
0.191818
0.251836
0.361479
0.292691
0.291056
0.339944
0.329811
0.302034
0.303582
0.277175
0.31714
0.334878
0.14493
0.0889788
0.374288
0.357607
0.416564
0.327839
0.357901
0.300573
0.354156
0.311146
0.417592
0.340469
0.339356
0.291892
0.409985
0.338958
0.346992
0.346114
0.361806
0.270944
0.108102
0.162481
0.341589
0.339167
0.376761
0.423326
0.111681
0.380106
0.296397
0.352303
0.275568
0.191996
0.343469
0.274542
0.128981
0.11841
0.106272
0.161418
0.122889
0.333718
0.295336
0.294135
0.29717
0.301775
0.386952
0.370187
0.404202
0.415169
0.356594
0.34498
0.259178
0.337572
0.0903498
0.349959
0.29196
0.334481
0.32846
0.330687
0.326844
0.326848
0.326757
0.326817
0.305555
0.308409
0.224732
0.245355
0.293653
0.344697
0.263444
0.371321
0.290122
0.30218
0.299129
0.300597
0.353539
0.326676
0.309557
0.333228
0.419015
0.343912
0.339961
0.333013
0.344472
0.339445
0.298486
0.272092
0.409745
0.344477
0.30928
0.388568
0.337244
0.351323
0.235916
0.327339
0.34259
0.343213
0.209721
0.229551
0.143579
0.142892
0.227743
0.198656
0.329092
0.329713
0.328084
0.203422
0.185318
0.154619
0.130404
0.294712
0.337453
0.320992
0.363047
0.307331
0.381058
0.353645
0.405899
0.420157
0.344733
0.293135
0.22936
0.342261
0.331458
0.327582
0.33166
0.326986
0.300113
0.311917
0.264187
0.351183
0.179643
0.163547
0.0928444
0.303287
0.353118
0.32688
0.312163
0.326508
0.340372
0.408739
0.368409
0.307592
0.0248953
0.33054
0.30175
0.097803
0.29437
0.329689
0.364987
0.314007
0.36349
0.370403
0.341861
0.406936
0.410548
0.351247
0.294062
0.329526
0.327131
0.332522
0.326977
0.306178
0.228363
0.35028
0.254688
0.128908
0.139683
0.20018
0.407673
0.306562
0.0852889
0.294434
0.321831
0.364501
0.349753
0.284958
0.29349
0.347233
0.328363
0.327004
0.333256
0.192053
0.348677
0.211514
0.305851
0.305213
0.347258
0.327686
0.334093
0.348503
0.292959
0.215687
0.0892088
0.300927
0.33861
0.340599
0.355996
0.355357
0.349234
0.354009
0.353269
0.334003
0.342271
0.288019
0.264898
0.256021
0.260714
0.245534
0.250972
0.233562
0.23971
0.220362
0.227145
0.20557
0.213191
0.190607
0.197942
0.177884
0.183803
0.169585
0.173134
0.16548
0.167091
0.16412
0.164541
0.164449
0.164115
0.165773
0.165055
0.166984
0.166448
0.167413
0.167314
0.166995
0.167295
0.165984
0.166548
0.164577
0.165323
0.162908
0.16377
0.161084
0.162006
0.159158
0.16013
0.157204
0.15818
0.155262
0.156232
0.153343
0.154298
0.151471
0.152401
0.149642
0.150549
0.147918
0.14876
0.146377
0.147129
0.144947
0.145652
0.144262
0.198731
0.240505
0.227853
0.247815
0.245556
0.250152
0.249106
0.252361
0.251206
0.255094
0.253657
0.258139
0.256622
0.260549
0.259503
0.261118
0.26112
0.259487
0.26054
0.256587
0.258115
0.253598
0.255047
0.25112
0.252288
0.248989
0.250051
0.245416
0.247684
0.240368
0.142832
0.144322
0.143576
0.145881
0.145084
0.147582
0.146715
0.149448
0.148486
0.151499
0.150458
0.153641
0.152561
0.155853
0.154738
0.158121
0.156985
0.160343
0.159243
0.162488
0.161425
0.164523
0.163522
0.166412
0.165489
0.168116
0.167292
0.169549
0.16887
0.170649
0.170134
0.171506
0.171116
0.172077
0.171813
0.172392
0.172277
0.172325
0.17239
0.172575
0.172335
0.174192
0.173156
0.177796
0.175707
0.184103
0.18058
0.193112
0.188312
0.203508
0.198194
0.215209
0.20914
0.228873
0.221747
0.245002
0.236823
0.33244
0.333234
0.330608
0.331538
0.328891
0.329709
0.327622
0.328191
0.326896
0.327198
0.326639
0.326714
0.326719
0.326648
0.326871
0.326771
0.326935
0.326667
0.326711
0.326712
0.326559
0.326608
0.326664
0.326593
0.326705
0.326686
0.326702
0.32671
0.326714
0.326695
0.326966
0.326797
0.327618
0.327242
0.328477
0.328062
0.32865
0.329654
0.328256
0.332049
0.344119
0.347058
0.277292
0.323617
0.160511
0.214075
0.147639
0.137713
0.216295
0.178928
0.250431
0.165884
0.137236
0.203645
0.105376
0.139496
0.334368
0.332513
0.333769
0.336052
0.335301
0.335147
0.336564
0.311857
0.328492
0.233362
0.279911
0.153928
0.18549
0.147877
0.143325
0.180366
0.162641
0.195967
0.297343
0.299632
0.379413
0.41061
0.355398
0.295512
0.183585
0.294997
0.293396
0.341513
0.329472
0.326758
0.308572
0.32684
0.298919
0.282756
0.403536
0.372138
0.372837
0.143554
0.363317
0.352109
0.346689
0.253301
0.281043
0.301643
0.348389
0.246864
0.338823
0.423388
0.336378
0.214106
0.293024
0.417407
0.429292
0.337113
0.347026
0.133575
0.147061
0.343013
0.261351
0.27474
0.191863
0.303689
0.0533661
0.427606
0.268393
0.0755383
0.14219
0.142082
0.259813
0.327106
0.178887
0.131636
0.103997
0.168705
0.109706
0.111451
0.0934545
0.296755
0.0766823
0.355863
0.297628
0.300412
0.305197
0.376099
0.361293
0.412609
0.421082
0.350973
0.348362
0.301293
0.163262
0.294592
0.338295
0.333341
0.328307
0.330363
0.327037
0.311
0.314866
0.307146
0.346767
0.202267
0.229942
0.0881263
0.212789
0.293604
0.303241
0.300377
0.301764
0.347888
0.326931
0.327056
0.32704
0.291927
0.419689
0.339428
0.335953
0.329696
0.275735
0.300292
0.34037
0.336693
0.33897
0.233281
0.273503
0.416644
0.352336
0.310306
0.339483
0.335222
0.163502
0.335654
0.0758876
0.0672286
0.306719
0.114405
0.343986
0.0841488
0.326887
0.331097
0.326133
0.296377
0.334052
0.357895
0.311616
0.369717
0.346565
0.324241
0.272434
0.316168
0.413912
0.421692
0.350828
0.345944
0.319528
0.195831
0.295773
0.330864
0.327592
0.331158
0.327165
0.337777
0.305965
0.318365
0.281767
0.350575
0.312924
0.152986
0.0932162
0.317002
0.216018
0.231622
0.272229
0.280757
0.304438
0.347528
0.327265
0.261907
0.31331
0.32398
0.340344
0.415539
0.0617916
0.308726
0.246337
0.315854
0.299464
0.115261
0.296659
0.29631
0.326193
0.359667
0.318511
0.35933
0.343065
0.414658
0.314171
0.189085
0.351163
0.353328
0.296726
0.38102
0.329309
0.327287
0.331856
0.327188
0.312097
0.251175
0.349606
0.210227
0.222512
0.0385174
0.265997
0.358881
0.29626
0.30762
0.306731
0.342226
0.328343
0.332702
0.348845
0.272152
0.266424
0.287494
0.284371
0.272559
0.297742
0.292431
0.298982
0.300034
0.289533
0.295217
0.281057
0.25929
0.206679
0.210876
0.193599
0.200546
0.177833
0.186008
0.160378
0.169243
0.142703
0.151511
0.125721
0.13409
0.111228
0.118032