/*--------------------------------*- C++ -*----------------------------------*\
| =========                 |                                                 |
| \\      /  F ield         | OpenFOAM: The Open Source CFD Toolbox           |
|  \\    /   O peration     | Version:  2212                                  |
|   \\  /    A nd           | Website:  www.openfoam.com                      |
|    \\/     M anipulation  |                                                 |
\*---------------------------------------------------------------------------*/
FoamFile
{
    version     2.0;
    format      ascii;
    arch        "LSB;label=32;scalar=64";
    class       volVectorField;
    location    "0.491";
    object      UMean;
}
// * * * * * * * * * * * * * * * * * * * * * * * * * * * * * * * * * * * * * //

dimensions      [0 1 -1 0 0 0 0];

internalField   nonuniform List<vector> 
24240
(
(9.20869 0.695772 8.80463e-07)
(9.20885 0.695786 -5.77503e-07)
(9.20885 0.695785 -6.78762e-08)
(9.20885 0.695784 -4.51098e-07)
(9.20885 0.695782 -3.39746e-07)
(9.20885 0.69578 -4.82597e-07)
(9.20885 0.695778 -4.89043e-07)
(9.20885 0.695776 -5.74121e-07)
(9.20885 0.695774 -6.07139e-07)
(9.20885 0.695772 -6.61276e-07)
(9.20885 0.69577 -6.77909e-07)
(9.20885 0.695768 -7.01611e-07)
(9.20885 0.695767 -6.75467e-07)
(9.20885 0.695765 -6.71709e-07)
(9.20885 0.695764 -5.68982e-07)
(9.20885 0.695763 -5.79212e-07)
(9.20885 0.695762 -3.19097e-07)
(9.20885 0.695761 -5.29336e-07)
(9.20885 0.695761 1.72133e-07)
(9.20869 0.695747 -1.06355e-06)
(9.06769 0.699974 -7.73742e-07)
(9.06785 0.699989 -1.41914e-06)
(9.06785 0.699989 -1.91429e-06)
(9.06785 0.69999 -2.63974e-06)
(9.06785 0.699991 -3.08711e-06)
(9.06785 0.699993 -3.56897e-06)
(9.06785 0.699995 -3.85723e-06)
(9.06785 0.699997 -4.08521e-06)
(9.06785 0.699998 -4.16447e-06)
(9.06785 0.7 -4.15835e-06)
(9.06785 0.700002 -4.03015e-06)
(9.06785 0.700004 -3.82624e-06)
(9.06785 0.700005 -3.51875e-06)
(9.06786 0.700007 -3.17727e-06)
(9.06786 0.700008 -2.73392e-06)
(9.06786 0.700009 -2.33496e-06)
(9.06786 0.70001 -1.76797e-06)
(9.06786 0.700011 -1.362e-06)
(9.06786 0.700012 -6.14267e-07)
(9.06769 0.699997 5.91522e-08)
(9.09597 0.435993 -1.69385e-07)
(9.09613 0.436003 5.04806e-07)
(9.09613 0.436003 1.18117e-06)
(9.09613 0.436003 1.56591e-06)
(9.09613 0.436003 2.08803e-06)
(9.09613 0.436003 2.33629e-06)
(9.09613 0.436003 2.56702e-06)
(9.09613 0.436002 2.64125e-06)
(9.09613 0.436002 2.65428e-06)
(9.09613 0.436002 2.56486e-06)
(9.09612 0.436002 2.42473e-06)
(9.09612 0.436002 2.21553e-06)
(9.09612 0.436001 1.9904e-06)
(9.09612 0.436001 1.71673e-06)
(9.09612 0.436001 1.49245e-06)
(9.09612 0.436001 1.18952e-06)
(9.09612 0.436001 1.07422e-06)
(9.09612 0.436001 7.4939e-07)
(9.09612 0.436001 6.47938e-07)
(9.09596 0.435991 5.14979e-07)
(8.98275 0.432381 -6.43467e-07)
(8.98292 0.432392 -1.45442e-06)
(8.98292 0.432392 -2.03783e-06)
(8.98292 0.432392 -2.75906e-06)
(8.98292 0.432392 -3.35342e-06)
(8.98292 0.432392 -3.84964e-06)
(8.98292 0.432392 -4.18511e-06)
(8.98292 0.432393 -4.41564e-06)
(8.98292 0.432393 -4.49842e-06)
(8.98292 0.432393 -4.47287e-06)
(8.98292 0.432393 -4.32272e-06)
(8.98292 0.432394 -4.08217e-06)
(8.98292 0.432394 -3.74085e-06)
(8.98292 0.432394 -3.35032e-06)
(8.98292 0.432394 -2.88126e-06)
(8.98292 0.432395 -2.41421e-06)
(8.98292 0.432395 -1.89391e-06)
(8.98292 0.432395 -1.3851e-06)
(8.98293 0.432395 -6.28944e-07)
(8.98276 0.432385 -6.50625e-08)
(9.00039 0.255305 1.46991e-08)
(9.00056 0.255312 6.78149e-07)
(9.00056 0.255312 1.44534e-06)
(9.00056 0.255313 1.95649e-06)
(9.00056 0.255314 2.40625e-06)
(9.00055 0.255315 2.72857e-06)
(9.00055 0.255315 2.97464e-06)
(9.00055 0.255316 3.0885e-06)
(9.00055 0.255317 3.11892e-06)
(9.00055 0.255318 3.04327e-06)
(9.00055 0.255319 2.90242e-06)
(9.00055 0.25532 2.68621e-06)
(9.00055 0.255321 2.43869e-06)
(9.00055 0.255321 2.14231e-06)
(9.00055 0.255322 1.85786e-06)
(9.00055 0.255323 1.53406e-06)
(9.00054 0.255323 1.24527e-06)
(9.00054 0.255323 9.18278e-07)
(9.00054 0.255324 7.73439e-07)
(9.00038 0.255317 4.55224e-07)
(8.92824 0.247967 -4.38081e-07)
(8.9284 0.247973 -9.56241e-07)
(8.9284 0.247972 -1.34671e-06)
(8.9284 0.247972 -1.79016e-06)
(8.9284 0.247971 -2.105e-06)
(8.92841 0.24797 -2.41086e-06)
(8.92841 0.247969 -2.60998e-06)
(8.92841 0.247968 -2.75578e-06)
(8.92841 0.247966 -2.80604e-06)
(8.92841 0.247965 -2.79348e-06)
(8.92841 0.247964 -2.69751e-06)
(8.92841 0.247963 -2.54821e-06)
(8.92841 0.247962 -2.32689e-06)
(8.92841 0.247961 -2.07779e-06)
(8.92841 0.24796 -1.76123e-06)
(8.92841 0.247959 -1.45575e-06)
(8.92841 0.247959 -1.05761e-06)
(8.92841 0.247958 -7.30941e-07)
(8.92841 0.247958 -2.85015e-07)
(8.92824 0.247952 2.59944e-08)
(8.93786 0.114559 -1.42257e-07)
(8.93802 0.114562 1.09428e-07)
(8.93802 0.114562 4.62916e-07)
(8.93802 0.114563 6.4786e-07)
(8.93802 0.114563 8.19196e-07)
(8.93802 0.114564 9.29509e-07)
(8.93802 0.114565 1.01707e-06)
(8.93802 0.114566 1.04557e-06)
(8.93802 0.114567 1.04831e-06)
(8.93802 0.114568 1.00471e-06)
(8.93802 0.114569 9.44311e-07)
(8.93802 0.11457 8.51529e-07)
(8.93802 0.11457 7.60429e-07)
(8.93802 0.114571 6.48152e-07)
(8.93802 0.114572 5.61122e-07)
(8.93802 0.114572 4.54272e-07)
(8.93802 0.114573 3.89738e-07)
(8.93802 0.114573 2.96867e-07)
(8.93801 0.114573 3.59139e-07)
(8.93785 0.11457 2.90461e-07)
(8.90502 0.10342 -2.61226e-07)
(8.90518 0.103422 -4.73948e-07)
(8.90518 0.103422 -5.86217e-07)
(8.90518 0.103421 -7.62341e-07)
(8.90518 0.10342 -8.55006e-07)
(8.90518 0.103419 -9.74313e-07)
(8.90518 0.103418 -1.03929e-06)
(8.90518 0.103417 -1.09876e-06)
(8.90518 0.103416 -1.11506e-06)
(8.90518 0.103415 -1.11613e-06)
(8.90518 0.103414 -1.07826e-06)
(8.90518 0.103412 -1.02619e-06)
(8.90518 0.103411 -9.33057e-07)
(8.90518 0.10341 -8.36308e-07)
(8.90518 0.10341 -6.90302e-07)
(8.90518 0.103409 -5.66261e-07)
(8.90518 0.103408 -3.66618e-07)
(8.90518 0.103408 -2.42054e-07)
(8.90518 0.103407 -1.37827e-08)
(8.90502 0.103405 1.03818e-07)
(8.91075 -0.00858448 -2.98074e-07)
(8.91092 -0.00858481 -4.51958e-07)
(8.91092 -0.00858448 -5.10308e-07)
(8.91092 -0.00858391 -6.56224e-07)
(8.91092 -0.00858327 -7.49915e-07)
(8.91092 -0.0085825 -8.61128e-07)
(8.91092 -0.00858165 -9.33438e-07)
(8.91092 -0.00858073 -1.00474e-06)
(8.91092 -0.00857979 -1.04474e-06)
(8.91092 -0.00857884 -1.07695e-06)
(8.91092 -0.00857792 -1.07952e-06)
(8.91092 -0.00857705 -1.07333e-06)
(8.91092 -0.00857626 -1.03094e-06)
(8.91092 -0.00857556 -9.81904e-07)
(8.91092 -0.00857497 -8.80833e-07)
(8.91092 -0.00857449 -7.84446e-07)
(8.91092 -0.00857411 -6.06097e-07)
(8.91092 -0.00857391 -4.61041e-07)
(8.91092 -0.00857374 -1.48039e-07)
(8.91075 -0.00857317 1.01831e-07)
(8.91371 -0.0247426 -1.48503e-07)
(8.91387 -0.0247441 -4.2552e-08)
(8.91387 -0.0247451 1.56643e-07)
(8.91387 -0.0247466 2.43503e-07)
(8.91387 -0.0247484 3.55775e-07)
(8.91387 -0.0247506 4.17065e-07)
(8.91387 -0.024753 4.77578e-07)
(8.91387 -0.0247555 4.98663e-07)
(8.91387 -0.0247582 5.08128e-07)
(8.91387 -0.0247608 4.83845e-07)
(8.91387 -0.0247635 4.50408e-07)
(8.91387 -0.0247659 3.90624e-07)
(8.91387 -0.0247682 3.3722e-07)
(8.91387 -0.0247703 2.65794e-07)
(8.91386 -0.0247721 2.24348e-07)
(8.91386 -0.0247736 1.61693e-07)
(8.91386 -0.0247748 1.57581e-07)
(8.91386 -0.0247757 1.06165e-07)
(8.91386 -0.0247763 1.90282e-07)
(8.9137 -0.0247755 1.96529e-07)
(8.91679 -0.13281 -6.60309e-07)
(8.91696 -0.132814 -1.68991e-06)
(8.91696 -0.132813 -2.56326e-06)
(8.91696 -0.132813 -3.41986e-06)
(8.91696 -0.132812 -4.10077e-06)
(8.91696 -0.132811 -4.6967e-06)
(8.91696 -0.13281 -5.12259e-06)
(8.91696 -0.132809 -5.41653e-06)
(8.91696 -0.132808 -5.5476e-06)
(8.91696 -0.132807 -5.54234e-06)
(8.91696 -0.132806 -5.39051e-06)
(8.91696 -0.132805 -5.12289e-06)
(8.91697 -0.132805 -4.73101e-06)
(8.91697 -0.132804 -4.26116e-06)
(8.91697 -0.132803 -3.68845e-06)
(8.91697 -0.132803 -3.09667e-06)
(8.91697 -0.132803 -2.39005e-06)
(8.91697 -0.132802 -1.73467e-06)
(8.91697 -0.132802 -9.02503e-07)
(8.9168 -0.132798 -1.75283e-07)
(8.95579 -0.148241 -3.6265e-08)
(8.95596 -0.148246 4.0643e-07)
(8.95596 -0.148247 9.39443e-07)
(8.95596 -0.148248 1.30007e-06)
(8.95595 -0.148249 1.61936e-06)
(8.95595 -0.14825 1.85988e-06)
(8.95595 -0.148252 2.04143e-06)
(8.95595 -0.148254 2.1343e-06)
(8.95595 -0.148255 2.15955e-06)
(8.95595 -0.148257 2.09967e-06)
(8.95595 -0.148259 1.98288e-06)
(8.95595 -0.14826 1.79959e-06)
(8.95594 -0.148262 1.59034e-06)
(8.95594 -0.148263 1.34454e-06)
(8.95594 -0.148264 1.115e-06)
(8.95594 -0.148265 8.70717e-07)
(8.95594 -0.148266 6.70504e-07)
(8.95594 -0.148266 4.5782e-07)
(8.95594 -0.148267 4.15666e-07)
(8.95577 -0.148262 3.04706e-07)
(8.95534 -0.272322 -9.10243e-07)
(8.9555 -0.27233 -2.48105e-06)
(8.9555 -0.27233 -3.865e-06)
(8.9555 -0.272329 -5.17052e-06)
(8.95551 -0.272329 -6.20414e-06)
(8.95551 -0.272328 -7.11629e-06)
(8.95551 -0.272328 -7.77498e-06)
(8.95551 -0.272327 -8.22368e-06)
(8.95551 -0.272327 -8.4242e-06)
(8.95551 -0.272326 -8.4046e-06)
(8.95552 -0.272325 -8.15961e-06)
(8.95552 -0.272325 -7.72537e-06)
(8.95552 -0.272324 -7.10604e-06)
(8.95552 -0.272324 -6.35851e-06)
(8.95552 -0.272324 -5.46877e-06)
(8.95552 -0.272323 -4.5446e-06)
(8.95552 -0.272323 -3.46253e-06)
(8.95552 -0.272323 -2.47135e-06)
(8.95552 -0.272323 -1.31285e-06)
(8.95536 -0.272315 -3.0737e-07)
(9.03279 -0.283039 1.16723e-08)
(9.03295 -0.283048 6.65071e-07)
(9.03295 -0.283048 1.43329e-06)
(9.03295 -0.283049 1.94994e-06)
(9.03295 -0.28305 2.36592e-06)
(9.03295 -0.283051 2.70195e-06)
(9.03295 -0.283051 2.94761e-06)
(9.03295 -0.283052 3.07395e-06)
(9.03294 -0.283054 3.10309e-06)
(9.03294 -0.283055 3.01485e-06)
(9.03294 -0.283056 2.84551e-06)
(9.03294 -0.283057 2.5863e-06)
(9.03294 -0.283058 2.28823e-06)
(9.03294 -0.283058 1.94472e-06)
(9.03293 -0.283059 1.61434e-06)
(9.03293 -0.28306 1.27457e-06)
(9.03293 -0.28306 9.52671e-07)
(9.03293 -0.28306 6.59668e-07)
(9.03293 -0.28306 5.79257e-07)
(9.03277 -0.283052 3.89488e-07)
(9.02537 -0.444131 -1.07734e-06)
(9.02554 -0.444143 -2.97201e-06)
(9.02554 -0.444143 -4.67494e-06)
(9.02554 -0.444143 -6.27507e-06)
(9.02554 -0.444143 -7.53209e-06)
(9.02555 -0.444143 -8.66375e-06)
(9.02555 -0.444142 -9.48486e-06)
(9.02555 -0.444142 -1.00436e-05)
(9.02555 -0.444142 -1.02919e-05)
(9.02555 -0.444142 -1.02621e-05)
(9.02556 -0.444142 -9.94845e-06)
(9.02556 -0.444142 -9.39588e-06)
(9.02556 -0.444142 -8.61558e-06)
(9.02556 -0.444142 -7.67695e-06)
(9.02556 -0.444142 -6.57828e-06)
(9.02556 -0.444142 -5.44301e-06)
(9.02557 -0.444142 -4.11709e-06)
(9.02557 -0.444142 -2.93176e-06)
(9.02557 -0.444142 -1.57997e-06)
(9.0254 -0.444131 -3.90135e-07)
(9.14493 -0.448106 -8.02595e-09)
(9.1451 -0.448118 7.7003e-07)
(9.1451 -0.448118 1.6698e-06)
(9.1451 -0.448119 2.20233e-06)
(9.1451 -0.448119 2.59061e-06)
(9.1451 -0.448119 2.91912e-06)
(9.14509 -0.448119 3.16503e-06)
(9.14509 -0.448119 3.26566e-06)
(9.14509 -0.44812 3.26918e-06)
(9.14509 -0.44812 3.13667e-06)
(9.14509 -0.44812 2.92274e-06)
(9.14509 -0.44812 2.60944e-06)
(9.14508 -0.44812 2.26595e-06)
(9.14508 -0.44812 1.87249e-06)
(9.14508 -0.448121 1.51059e-06)
(9.14508 -0.448121 1.13445e-06)
(9.14508 -0.448121 7.46572e-07)
(9.14508 -0.44812 4.25853e-07)
(9.14508 -0.448121 4.20368e-07)
(9.14491 -0.448109 3.58911e-07)
(9.12425 -0.679187 -1.07714e-06)
(9.12442 -0.679203 -2.96331e-06)
(9.12442 -0.679203 -4.49243e-06)
(9.12442 -0.679204 -6.18516e-06)
(9.12442 -0.679204 -7.73315e-06)
(9.12442 -0.679205 -8.94761e-06)
(9.12442 -0.679206 -9.84621e-06)
(9.12443 -0.679207 -1.04488e-05)
(9.12443 -0.679208 -1.07158e-05)
(9.12443 -0.679209 -1.06908e-05)
(9.12443 -0.67921 -1.03588e-05)
(9.12443 -0.679211 -9.77983e-06)
(9.12444 -0.679212 -8.96046e-06)
(9.12444 -0.679213 -7.98819e-06)
(9.12444 -0.679214 -6.87935e-06)
(9.12444 -0.679215 -5.73182e-06)
(9.12444 -0.679216 -4.60722e-06)
(9.12444 -0.679217 -3.42072e-06)
(9.12444 -0.679217 -1.78064e-06)
(9.12428 -0.679201 -4.60301e-07)
(9.28941 -0.67382 -2.51194e-07)
(9.28957 -0.673836 3.90736e-07)
(9.28957 -0.673835 7.56993e-07)
(9.28957 -0.673834 9.01217e-07)
(9.28957 -0.673833 1.30567e-06)
(9.28957 -0.673832 1.38365e-06)
(9.28957 -0.673831 1.51447e-06)
(9.28957 -0.67383 1.47837e-06)
(9.28957 -0.673828 1.42108e-06)
(9.28957 -0.673827 1.25631e-06)
(9.28957 -0.673825 1.06963e-06)
(9.28956 -0.673824 8.14291e-07)
(9.28956 -0.673823 5.86088e-07)
(9.28956 -0.673822 3.15466e-07)
(9.28956 -0.673821 1.69042e-07)
(9.28956 -0.67382 -5.12562e-08)
(9.28956 -0.673819 4.48319e-08)
(9.28956 -0.673819 -1.30691e-07)
(9.28956 -0.673818 -1.02791e-07)
(9.2894 -0.673802 2.84541e-07)
(9.24384 -1.0346 -8.51215e-07)
(9.24401 -1.03462 -2.08299e-06)
(9.24401 -1.03462 -3.4892e-06)
(9.24401 -1.03462 -4.9767e-06)
(9.24401 -1.03463 -6.04882e-06)
(9.24401 -1.03463 -7.0574e-06)
(9.24401 -1.03463 -7.73346e-06)
(9.24401 -1.03463 -8.23367e-06)
(9.24402 -1.03464 -8.44106e-06)
(9.24402 -1.03464 -8.44192e-06)
(9.24402 -1.03464 -8.18425e-06)
(9.24402 -1.03465 -7.74972e-06)
(9.24402 -1.03465 -7.10375e-06)
(9.24402 -1.03465 -6.36923e-06)
(9.24402 -1.03465 -5.47188e-06)
(9.24402 -1.03465 -4.6232e-06)
(9.24402 -1.03465 -3.57954e-06)
(9.24402 -1.03466 -2.7665e-06)
(9.24403 -1.03466 -1.66361e-06)
(9.24386 -1.03464 -3.78641e-07)
(9.44856 -1.01499 1.71164e-06)
(9.44871 -1.01501 -3.67623e-07)
(9.4487 -1.01501 -7.49968e-07)
(9.4487 -1.01501 -1.86744e-06)
(9.4487 -1.015 -2.1826e-06)
(9.4487 -1.015 -2.71251e-06)
(9.4487 -1.015 -2.96847e-06)
(9.4487 -1.015 -3.25557e-06)
(9.4487 -1.01499 -3.39292e-06)
(9.4487 -1.01499 -3.49967e-06)
(9.4487 -1.01499 -3.48552e-06)
(9.4487 -1.01498 -3.43188e-06)
(9.44871 -1.01498 -3.25155e-06)
(9.44871 -1.01498 -3.0699e-06)
(9.44871 -1.01498 -2.71354e-06)
(9.44871 -1.01498 -2.49692e-06)
(9.44871 -1.01498 -1.94121e-06)
(9.44871 -1.01497 -2.08763e-06)
(9.44871 -1.01498 -1.42301e-06)
(9.44856 -1.01496 -2.36277e-06)
(8.76626 0.726943 5.35089e-07)
(8.76642 0.726956 -4.26262e-07)
(8.76642 0.726955 1.47274e-08)
(8.76642 0.726954 -2.45502e-07)
(8.76642 0.726952 -4.5951e-08)
(8.76642 0.72695 -1.31129e-07)
(8.76642 0.726948 -7.55038e-08)
(8.76642 0.726945 -1.34612e-07)
(8.76642 0.726943 -1.41239e-07)
(8.76642 0.72694 -1.97096e-07)
(8.76642 0.726938 -2.17127e-07)
(8.76642 0.726936 -2.66484e-07)
(8.76642 0.726934 -2.62682e-07)
(8.76642 0.726932 -3.03473e-07)
(8.76642 0.72693 -2.28126e-07)
(8.76642 0.726929 -2.9119e-07)
(8.76642 0.726928 -6.48881e-08)
(8.76641 0.726927 -2.91361e-07)
(8.76642 0.726927 2.02875e-07)
(8.76626 0.726913 -6.69374e-07)
(8.79272 0.734031 -7.7695e-07)
(8.79288 0.734046 -1.51972e-06)
(8.79288 0.734047 -2.09503e-06)
(8.79288 0.734048 -2.8456e-06)
(8.79288 0.734049 -3.29941e-06)
(8.79288 0.734051 -3.80259e-06)
(8.79288 0.734053 -4.08984e-06)
(8.79288 0.734055 -4.32559e-06)
(8.79288 0.734058 -4.39234e-06)
(8.79287 0.73406 -4.37759e-06)
(8.79287 0.734062 -4.22506e-06)
(8.79287 0.734064 -4.00358e-06)
(8.79287 0.734066 -3.6628e-06)
(8.79287 0.734068 -3.29987e-06)
(8.79287 0.73407 -2.81352e-06)
(8.79287 0.734071 -2.38824e-06)
(8.79287 0.734073 -1.76379e-06)
(8.79287 0.734074 -1.31616e-06)
(8.79287 0.734075 -5.81938e-07)
(8.79271 0.73406 3.95257e-08)
(8.8204 0.503219 -1.43872e-08)
(8.82056 0.503229 8.01817e-07)
(8.82056 0.503229 1.56452e-06)
(8.82056 0.503229 2.13609e-06)
(8.82056 0.503229 2.88236e-06)
(8.82056 0.503228 3.26881e-06)
(8.82056 0.503228 3.63105e-06)
(8.82056 0.503228 3.78365e-06)
(8.82056 0.503227 3.85309e-06)
(8.82056 0.503227 3.77844e-06)
(8.82056 0.503227 3.63295e-06)
(8.82056 0.503226 3.38303e-06)
(8.82056 0.503226 3.1031e-06)
(8.82056 0.503226 2.74502e-06)
(8.82056 0.503226 2.4404e-06)
(8.82056 0.503225 2.0164e-06)
(8.82056 0.503225 1.82926e-06)
(8.82056 0.503225 1.34664e-06)
(8.82056 0.503225 9.65851e-07)
(8.8204 0.503215 5.68408e-07)
(8.7843 0.499626 -6.54529e-07)
(8.78446 0.499636 -1.56433e-06)
(8.78446 0.499636 -2.24095e-06)
(8.78446 0.499636 -3.03624e-06)
(8.78446 0.499635 -3.71391e-06)
(8.78446 0.499636 -4.2637e-06)
(8.78446 0.499635 -4.63147e-06)
(8.78446 0.499636 -4.88774e-06)
(8.78446 0.499636 -4.97501e-06)
(8.78446 0.499636 -4.94726e-06)
(8.78446 0.499636 -4.77828e-06)
(8.78446 0.499636 -4.51416e-06)
(8.78446 0.499636 -4.13429e-06)
(8.78446 0.499636 -3.70937e-06)
(8.78446 0.499636 -3.19009e-06)
(8.78445 0.499636 -2.67898e-06)
(8.78445 0.499636 -2.11934e-06)
(8.78445 0.499636 -1.54884e-06)
(8.78446 0.499636 -7.39588e-07)
(8.78429 0.499626 -1.30726e-07)
(8.80303 0.308188 1.11614e-07)
(8.80319 0.308194 8.66393e-07)
(8.80319 0.308195 1.70073e-06)
(8.80319 0.308196 2.32177e-06)
(8.80319 0.308196 2.86777e-06)
(8.80319 0.308197 3.27706e-06)
(8.80319 0.308198 3.60637e-06)
(8.80319 0.3082 3.77727e-06)
(8.80319 0.308201 3.8556e-06)
(8.80319 0.308202 3.80274e-06)
(8.80319 0.308203 3.67576e-06)
(8.80319 0.308204 3.4495e-06)
(8.80319 0.308205 3.18626e-06)
(8.80319 0.308206 2.84901e-06)
(8.80319 0.308207 2.52275e-06)
(8.80319 0.308208 2.12622e-06)
(8.80319 0.308208 1.75273e-06)
(8.80319 0.308209 1.3098e-06)
(8.80319 0.308209 1.00412e-06)
(8.80303 0.308203 5.09513e-07)
(8.76895 0.299386 -4.17181e-07)
(8.76911 0.299392 -9.546e-07)
(8.76911 0.299392 -1.41606e-06)
(8.76911 0.299391 -1.86943e-06)
(8.76911 0.29939 -2.16531e-06)
(8.76911 0.299389 -2.47369e-06)
(8.76911 0.299388 -2.66095e-06)
(8.76911 0.299386 -2.8043e-06)
(8.76911 0.299385 -2.84212e-06)
(8.76911 0.299384 -2.82343e-06)
(8.76911 0.299382 -2.71326e-06)
(8.76911 0.299381 -2.55719e-06)
(8.76911 0.29938 -2.32081e-06)
(8.7691 0.299379 -2.06783e-06)
(8.7691 0.299378 -1.73307e-06)
(8.7691 0.299377 -1.42761e-06)
(8.7691 0.299376 -9.98546e-07)
(8.7691 0.299376 -6.75489e-07)
(8.7691 0.299376 -2.92444e-07)
(8.76894 0.299369 3.06515e-10)
(8.77771 0.137618 -8.72572e-08)
(8.77788 0.137621 2.14364e-07)
(8.77788 0.137621 5.79297e-07)
(8.77788 0.137622 8.27117e-07)
(8.77788 0.137623 1.05798e-06)
(8.77788 0.137624 1.22103e-06)
(8.77788 0.137625 1.36239e-06)
(8.77788 0.137626 1.42872e-06)
(8.77788 0.137627 1.4677e-06)
(8.77788 0.137628 1.44434e-06)
(8.77788 0.137629 1.40224e-06)
(8.77788 0.13763 1.31097e-06)
(8.77788 0.137631 1.22065e-06)
(8.77788 0.137632 1.08986e-06)
(8.77788 0.137633 9.86448e-07)
(8.77788 0.137634 8.39021e-07)
(8.77788 0.137635 7.32026e-07)
(8.77788 0.137635 5.69308e-07)
(8.77788 0.137635 5.11854e-07)
(8.77771 0.137632 3.28781e-07)
(8.76354 0.123546 -2.21061e-07)
(8.7637 0.123548 -4.08212e-07)
(8.7637 0.123547 -5.45477e-07)
(8.7637 0.123546 -6.82287e-07)
(8.7637 0.123545 -7.12533e-07)
(8.7637 0.123544 -7.9406e-07)
(8.7637 0.123543 -8.13042e-07)
(8.7637 0.123541 -8.42051e-07)
(8.7637 0.12354 -8.25432e-07)
(8.7637 0.123538 -8.06322e-07)
(8.7637 0.123536 -7.46733e-07)
(8.7637 0.123535 -6.86417e-07)
(8.7637 0.123534 -5.82609e-07)
(8.7637 0.123532 -4.92122e-07)
(8.7637 0.123531 -3.45092e-07)
(8.7637 0.12353 -2.45385e-07)
(8.7637 0.123529 -5.06375e-08)
(8.7637 0.123529 2.42819e-08)
(8.7637 0.123528 1.32629e-07)
(8.76354 0.123526 1.41561e-07)
(8.76704 -0.0182629 -3.02255e-07)
(8.7672 -0.0182635 -5.14186e-07)
(8.7672 -0.0182632 -6.71411e-07)
(8.7672 -0.0182626 -8.49024e-07)
(8.7672 -0.0182619 -9.50102e-07)
(8.7672 -0.0182612 -1.07365e-06)
(8.7672 -0.0182603 -1.1386e-06)
(8.7672 -0.0182594 -1.2046e-06)
(8.7672 -0.0182584 -1.22451e-06)
(8.7672 -0.0182575 -1.23733e-06)
(8.7672 -0.0182565 -1.20903e-06)
(8.7672 -0.0182556 -1.17602e-06)
(8.7672 -0.0182548 -1.09686e-06)
(8.7672 -0.018254 -1.02086e-06)
(8.7672 -0.0182533 -8.81327e-07)
(8.7672 -0.0182527 -7.64586e-07)
(8.7672 -0.0182523 -5.49724e-07)
(8.7672 -0.018252 -3.96698e-07)
(8.7672 -0.0182518 -1.30599e-07)
(8.76704 -0.0182509 9.25795e-08)
(8.77362 -0.0378276 -1.11731e-07)
(8.77378 -0.0378294 1.61121e-08)
(8.77378 -0.0378303 1.97409e-07)
(8.77378 -0.0378318 3.29923e-07)
(8.77378 -0.0378335 5.01039e-07)
(8.77378 -0.0378356 6.09393e-07)
(8.77378 -0.0378378 7.24573e-07)
(8.77378 -0.0378403 7.88883e-07)
(8.77378 -0.0378429 8.45198e-07)
(8.77378 -0.0378454 8.58376e-07)
(8.77378 -0.037848 8.65466e-07)
(8.77378 -0.0378504 8.36147e-07)
(8.77378 -0.0378527 8.15441e-07)
(8.77378 -0.0378547 7.61723e-07)
(8.77378 -0.0378565 7.37898e-07)
(8.77378 -0.0378581 6.63784e-07)
(8.77378 -0.0378594 6.43416e-07)
(8.77378 -0.0378602 5.26292e-07)
(8.77378 -0.0378609 4.6344e-07)
(8.77362 -0.0378598 2.88352e-07)
(8.77549 -0.176263 -6.43329e-07)
(8.77565 -0.176267 -1.69313e-06)
(8.77565 -0.176267 -2.64576e-06)
(8.77565 -0.176266 -3.51493e-06)
(8.77565 -0.176266 -4.17445e-06)
(8.77565 -0.176265 -4.77636e-06)
(8.77564 -0.176264 -5.19417e-06)
(8.77564 -0.176263 -5.49243e-06)
(8.77564 -0.176262 -5.62128e-06)
(8.77564 -0.176261 -5.62121e-06)
(8.77564 -0.17626 -5.47008e-06)
(8.77564 -0.17626 -5.21132e-06)
(8.77564 -0.176259 -4.82185e-06)
(8.77564 -0.176258 -4.36284e-06)
(8.77564 -0.176257 -3.78254e-06)
(8.77564 -0.176257 -3.1911e-06)
(8.77564 -0.176256 -2.44071e-06)
(8.77564 -0.176256 -1.76404e-06)
(8.77564 -0.176256 -9.71005e-07)
(8.77548 -0.176251 -2.25166e-07)
(8.80374 -0.194291 -3.55521e-09)
(8.8039 -0.194297 4.35078e-07)
(8.8039 -0.194297 9.41658e-07)
(8.8039 -0.194299 1.33939e-06)
(8.8039 -0.1943 1.70383e-06)
(8.80391 -0.194302 1.9958e-06)
(8.80391 -0.194303 2.24049e-06)
(8.80391 -0.194305 2.39508e-06)
(8.80391 -0.194307 2.49037e-06)
(8.80391 -0.194309 2.49742e-06)
(8.80391 -0.194311 2.45405e-06)
(8.80391 -0.194313 2.3381e-06)
(8.80391 -0.194315 2.19852e-06)
(8.80391 -0.194316 2.00684e-06)
(8.80391 -0.194318 1.82079e-06)
(8.80391 -0.194319 1.58479e-06)
(8.80391 -0.19432 1.3593e-06)
(8.80391 -0.19432 1.06102e-06)
(8.80391 -0.194321 8.35141e-07)
(8.80375 -0.194316 4.50957e-07)
(8.80146 -0.350048 -9.25232e-07)
(8.80162 -0.350056 -2.58687e-06)
(8.80162 -0.350056 -4.14595e-06)
(8.80162 -0.350055 -5.53604e-06)
(8.80162 -0.350055 -6.59242e-06)
(8.80162 -0.350054 -7.56633e-06)
(8.80162 -0.350054 -8.26224e-06)
(8.80162 -0.350053 -8.75181e-06)
(8.80162 -0.350052 -8.9761e-06)
(8.80162 -0.350051 -8.97645e-06)
(8.80162 -0.350051 -8.73721e-06)
(8.80162 -0.35005 -8.30676e-06)
(8.80162 -0.350049 -7.67719e-06)
(8.80162 -0.350049 -6.91722e-06)
(8.80162 -0.350048 -5.98871e-06)
(8.80161 -0.350048 -5.01915e-06)
(8.80161 -0.350047 -3.81963e-06)
(8.80161 -0.350047 -2.73367e-06)
(8.80162 -0.350047 -1.56039e-06)
(8.80145 -0.350038 -4.32726e-07)
(8.85128 -0.361353 9.06542e-08)
(8.85145 -0.361361 7.91905e-07)
(8.85145 -0.361362 1.59911e-06)
(8.85145 -0.361363 2.2095e-06)
(8.85145 -0.361364 2.70511e-06)
(8.85145 -0.361365 3.13496e-06)
(8.85145 -0.361366 3.47847e-06)
(8.85145 -0.361367 3.69468e-06)
(8.85145 -0.361368 3.8148e-06)
(8.85145 -0.36137 3.8063e-06)
(8.85145 -0.361371 3.71583e-06)
(8.85145 -0.361372 3.52206e-06)
(8.85145 -0.361373 3.28493e-06)
(8.85145 -0.361374 2.98e-06)
(8.85145 -0.361375 2.6674e-06)
(8.85145 -0.361376 2.30342e-06)
(8.85145 -0.361377 1.89935e-06)
(8.85145 -0.361377 1.46155e-06)
(8.85145 -0.361377 1.13273e-06)
(8.85129 -0.361368 5.73731e-07)
(8.84048 -0.552052 -1.11596e-06)
(8.84064 -0.552064 -3.15534e-06)
(8.84064 -0.552064 -5.09883e-06)
(8.84064 -0.552063 -6.8325e-06)
(8.84064 -0.552063 -8.14661e-06)
(8.84064 -0.552063 -9.38e-06)
(8.84064 -0.552063 -1.02725e-05)
(8.84064 -0.552063 -1.08973e-05)
(8.84064 -0.552062 -1.11866e-05)
(8.84064 -0.552062 -1.11867e-05)
(8.84063 -0.552062 -1.08829e-05)
(8.84063 -0.552062 -1.03335e-05)
(8.84063 -0.552062 -9.53981e-06)
(8.84063 -0.552062 -8.58055e-06)
(8.84063 -0.552062 -7.4331e-06)
(8.84063 -0.552061 -6.22757e-06)
(8.84063 -0.552062 -4.73806e-06)
(8.84063 -0.552062 -3.39291e-06)
(8.84063 -0.552062 -1.96282e-06)
(8.84047 -0.55205 -5.70856e-07)
(8.90579 -0.553571 1.05862e-07)
(8.90595 -0.553583 9.48758e-07)
(8.90595 -0.553583 1.93761e-06)
(8.90595 -0.553584 2.60076e-06)
(8.90595 -0.553584 3.07961e-06)
(8.90596 -0.553584 3.5273e-06)
(8.90596 -0.553585 3.89839e-06)
(8.90596 -0.553585 4.10409e-06)
(8.90596 -0.553585 4.21197e-06)
(8.90596 -0.553585 4.16162e-06)
(8.90596 -0.553586 4.02602e-06)
(8.90596 -0.553586 3.7685e-06)
(8.90596 -0.553586 3.47471e-06)
(8.90596 -0.553586 3.10067e-06)
(8.90596 -0.553586 2.73937e-06)
(8.90596 -0.553587 2.31317e-06)
(8.90596 -0.553587 1.7999e-06)
(8.90596 -0.553586 1.32055e-06)
(8.90596 -0.553586 1.06631e-06)
(8.90579 -0.553574 5.64936e-07)
(8.88021 -0.793681 -1.13585e-06)
(8.88037 -0.793697 -3.20025e-06)
(8.88037 -0.793698 -4.83993e-06)
(8.88037 -0.793697 -6.6701e-06)
(8.88037 -0.793698 -8.41123e-06)
(8.88037 -0.793699 -9.74028e-06)
(8.88037 -0.7937 -1.07271e-05)
(8.88037 -0.793701 -1.13964e-05)
(8.88037 -0.793702 -1.16974e-05)
(8.88037 -0.793703 -1.16932e-05)
(8.88037 -0.793704 -1.13566e-05)
(8.88037 -0.793705 -1.07686e-05)
(8.88036 -0.793706 -9.92298e-06)
(8.88036 -0.793707 -8.92251e-06)
(8.88036 -0.793708 -7.77159e-06)
(8.88036 -0.793709 -6.5552e-06)
(8.88036 -0.79371 -5.38477e-06)
(8.88036 -0.793711 -3.99316e-06)
(8.88037 -0.793712 -2.12975e-06)
(8.8802 -0.793695 -6.43992e-07)
(8.93525 -0.781884 -1.11107e-07)
(8.93541 -0.7819 5.91183e-07)
(8.93541 -0.781899 8.85252e-07)
(8.93541 -0.781899 1.17793e-06)
(8.93541 -0.781898 1.85428e-06)
(8.93541 -0.781897 2.06232e-06)
(8.93541 -0.781895 2.35078e-06)
(8.93541 -0.781894 2.40978e-06)
(8.93541 -0.781892 2.44696e-06)
(8.93541 -0.781891 2.33534e-06)
(8.93541 -0.781889 2.1967e-06)
(8.93541 -0.781887 1.95339e-06)
(8.93541 -0.781886 1.73886e-06)
(8.93541 -0.781885 1.44245e-06)
(8.93541 -0.781883 1.29429e-06)
(8.93541 -0.781882 1.0036e-06)
(8.93541 -0.781881 1.12913e-06)
(8.93541 -0.781881 7.96872e-07)
(8.93541 -0.78188 4.12731e-07)
(8.93525 -0.781864 4.0414e-07)
(8.88671 -1.08227 -9.50985e-07)
(8.88687 -1.08229 -2.38184e-06)
(8.88687 -1.0823 -3.91823e-06)
(8.88687 -1.0823 -5.49555e-06)
(8.88687 -1.0823 -6.61813e-06)
(8.88687 -1.0823 -7.69144e-06)
(8.88687 -1.0823 -8.38839e-06)
(8.88686 -1.08231 -8.90872e-06)
(8.88686 -1.08231 -9.0974e-06)
(8.88686 -1.08231 -9.07493e-06)
(8.88686 -1.08232 -8.76529e-06)
(8.88686 -1.08232 -8.28304e-06)
(8.88686 -1.08232 -7.56795e-06)
(8.88686 -1.08233 -6.77962e-06)
(8.88686 -1.08233 -5.80381e-06)
(8.88686 -1.08233 -4.89241e-06)
(8.88686 -1.08233 -3.74193e-06)
(8.88686 -1.08233 -2.81753e-06)
(8.88686 -1.08234 -1.64e-06)
(8.8867 -1.08232 -3.87885e-07)
(8.84965 -1.04793 1.30233e-06)
(8.84979 -1.04794 -2.66826e-07)
(8.84978 -1.04794 -8.9487e-07)
(8.84978 -1.04794 -1.92854e-06)
(8.84978 -1.04794 -2.17303e-06)
(8.84978 -1.04793 -2.67501e-06)
(8.84978 -1.04793 -2.88335e-06)
(8.84978 -1.04793 -3.16432e-06)
(8.84978 -1.04792 -3.28173e-06)
(8.84978 -1.04792 -3.39272e-06)
(8.84978 -1.04792 -3.36969e-06)
(8.84978 -1.04791 -3.32854e-06)
(8.84978 -1.04791 -3.14113e-06)
(8.84978 -1.04791 -2.97332e-06)
(8.84978 -1.04791 -2.59167e-06)
(8.84978 -1.04791 -2.37721e-06)
(8.84978 -1.0479 -1.77955e-06)
(8.84978 -1.0479 -1.8672e-06)
(8.84979 -1.04791 -1.48273e-06)
(8.84965 -1.04789 -1.96285e-06)
(8.79932 0.737482 2.58917e-07)
(8.79947 0.737496 -8.50351e-07)
(8.79947 0.737495 -1.27938e-07)
(8.79947 0.737494 -2.98013e-07)
(8.79947 0.737493 -4.41187e-08)
(8.79947 0.737491 -1.06991e-07)
(8.79947 0.737489 -3.02427e-08)
(8.79947 0.737487 -7.44666e-08)
(8.79947 0.737485 -6.46665e-08)
(8.79947 0.737483 -1.07363e-07)
(8.79947 0.737481 -1.12674e-07)
(8.79947 0.737479 -1.52916e-07)
(8.79947 0.737477 -1.37633e-07)
(8.79947 0.737475 -1.74416e-07)
(8.79947 0.737474 -8.98839e-08)
(8.79947 0.737472 -1.49783e-07)
(8.79947 0.737471 1.09576e-07)
(8.79947 0.73747 -5.92329e-08)
(8.79947 0.73747 6.89219e-07)
(8.79932 0.737455 -3.71237e-07)
(8.74229 0.742772 -9.5777e-07)
(8.74245 0.742787 -1.53209e-06)
(8.74245 0.742787 -1.89665e-06)
(8.74245 0.742788 -2.4986e-06)
(8.74245 0.74279 -2.85363e-06)
(8.74245 0.742791 -3.28979e-06)
(8.74245 0.742793 -3.53583e-06)
(8.74245 0.742795 -3.75473e-06)
(8.74245 0.742797 -3.82311e-06)
(8.74245 0.742799 -3.83074e-06)
(8.74245 0.742801 -3.71517e-06)
(8.74245 0.742803 -3.54805e-06)
(8.74245 0.742805 -3.26926e-06)
(8.74244 0.742806 -2.97818e-06)
(8.74244 0.742808 -2.56055e-06)
(8.74244 0.742809 -2.2027e-06)
(8.74244 0.74281 -1.6254e-06)
(8.74244 0.742811 -1.18948e-06)
(8.74244 0.742812 -4.00633e-07)
(8.74229 0.742797 2.66303e-07)
(8.77092 0.504125 -2.75399e-07)
(8.77108 0.504135 5.3647e-07)
(8.77108 0.504135 1.2631e-06)
(8.77108 0.504135 1.787e-06)
(8.77108 0.504135 2.51502e-06)
(8.77108 0.504134 2.87002e-06)
(8.77108 0.504134 3.2177e-06)
(8.77108 0.504134 3.36715e-06)
(8.77108 0.504134 3.44971e-06)
(8.77108 0.504134 3.39929e-06)
(8.77108 0.504133 3.29442e-06)
(8.77108 0.504133 3.09051e-06)
(8.77108 0.504133 2.86757e-06)
(8.77108 0.504133 2.56928e-06)
(8.77108 0.504133 2.32994e-06)
(8.77108 0.504133 1.96479e-06)
(8.77108 0.504133 1.86068e-06)
(8.77108 0.504133 1.42952e-06)
(8.77108 0.504133 1.10977e-06)
(8.77092 0.504122 7.86764e-07)
(8.71998 0.501398 -7.00051e-07)
(8.72014 0.501408 -1.40941e-06)
(8.72014 0.501408 -1.87249e-06)
(8.72014 0.501408 -2.52151e-06)
(8.72014 0.501408 -3.08949e-06)
(8.72014 0.501408 -3.55246e-06)
(8.72014 0.501408 -3.86385e-06)
(8.72014 0.501408 -4.09104e-06)
(8.72014 0.501408 -4.17439e-06)
(8.72014 0.501408 -4.16848e-06)
(8.72014 0.501408 -4.04066e-06)
(8.72014 0.501408 -3.83802e-06)
(8.72014 0.501408 -3.53172e-06)
(8.72014 0.501408 -3.19435e-06)
(8.72014 0.501408 -2.76538e-06)
(8.72014 0.501408 -2.34172e-06)
(8.72014 0.501408 -1.86345e-06)
(8.72014 0.501409 -1.35522e-06)
(8.72014 0.501409 -5.56923e-07)
(8.71998 0.501399 2.34713e-08)
(8.73941 0.306663 -5.50778e-08)
(8.73957 0.306669 6.76643e-07)
(8.73957 0.30667 1.48694e-06)
(8.73957 0.306671 2.05955e-06)
(8.73957 0.306671 2.57489e-06)
(8.73957 0.306672 2.95588e-06)
(8.73957 0.306673 3.26876e-06)
(8.73957 0.306674 3.43515e-06)
(8.73957 0.306675 3.52319e-06)
(8.73957 0.306676 3.49133e-06)
(8.73957 0.306677 3.39831e-06)
(8.73957 0.306678 3.2122e-06)
(8.73957 0.306679 2.99804e-06)
(8.73957 0.30668 2.70975e-06)
(8.73957 0.306681 2.43642e-06)
(8.73957 0.306682 2.08796e-06)
(8.73957 0.306682 1.77256e-06)
(8.73957 0.306682 1.36358e-06)
(8.73957 0.306683 1.11752e-06)
(8.73941 0.306676 6.55026e-07)
(8.70612 0.298304 -4.6461e-07)
(8.70628 0.29831 -8.65498e-07)
(8.70628 0.29831 -1.17731e-06)
(8.70628 0.298309 -1.53296e-06)
(8.70628 0.298308 -1.74157e-06)
(8.70628 0.298307 -1.98645e-06)
(8.70628 0.298306 -2.12822e-06)
(8.70628 0.298305 -2.24454e-06)
(8.70628 0.298304 -2.27163e-06)
(8.70628 0.298302 -2.26013e-06)
(8.70628 0.298301 -2.16914e-06)
(8.70628 0.2983 -2.04855e-06)
(8.70628 0.298299 -1.85597e-06)