/*--------------------------------*- C++ -*----------------------------------*\
| =========                 |                                                 |
| \\      /  F ield         | OpenFOAM: The Open Source CFD Toolbox           |
|  \\    /   O peration     | Version:  2212                                  |
|   \\  /    A nd           | Website:  www.openfoam.com                      |
|    \\/     M anipulation  |                                                 |
\*---------------------------------------------------------------------------*/
FoamFile
{
    version     2.0;
    format      ascii;
    arch        "LSB;label=32;scalar=64";
    class       volScalarField;
    location    "0.0352";
    object      p;
}
// * * * * * * * * * * * * * * * * * * * * * * * * * * * * * * * * * * * * * //

dimensions      [1 -1 -2 0 0 0 0];

internalField   nonuniform List<scalar> 
2308
(
594.207
590.097
601.867
595.21
599.222
600.322
606.655
605.054
598.678
601.514
598.903
596.373
595.576
595.643
596.473
597.824
599.409
600.433
598.739
597.086
595.728
594.998
595.173
596.393
598.575
601.628
604.848
607.64
605.929
601.012
609.754
610.654
610.534
609.886
609.277
609.226
609.927
611.301
613.112
615.157
617.148
618.649
619.029
617.792
614.827
616.336
617.909
618.25
617.475
616.097
614.522
613.031
611.807
611.03
610.825
611.14
611.816
612.076
611.593
610.105
607.597
604.596
601.736
599.424
597.796
596.759
596.32
596.622
597.539
598.835
600.277
609.935
613.122
598.501
596.615
595.218
594.609
595.043
596.513
598.948
602.087
605.228
607.695
609.15
609.434
608.867
608.081
607.692
608.042
609.287
611.21
613.525
615.965
618.053
619.132
618.587
616.064
611.553
602.06
605.185
602.469
601.692
614.39
616.102
616.601
616.52
615.917
615.035
614.091
613.259
612.669
612.439
612.597
613.011
613.367
613.098
612.006
610.067
607.47
604.652
601.984
599.871
598.442
597.646
597.431
597.859
598.743
599.882
601.099
605.127
599.241
602.315
600.774
600.618
598.313
596.251
594.88
594.428
595.104
596.827
599.497
602.65
605.542
607.551
608.434
608.204
607.379
606.712
606.637
607.452
609.187
611.603
614.319
616.919
618.687
618.811
616.937
612.931
607.045
599.734
591.592
597.654
603.565
608.374
603.269
611.467
605.073
605.956
602.934
599.934
601.676
603.708
602.256
583.637
589.84
596.376
602.376
607.233
610.179
612.762
614.164
614.676
614.599
614.406
614.253
614.157
614.001
613.813
613.739
613.897
614.17
614.388
614.173
613.315
611.695
609.474
606.934
604.437
602.234
600.546
599.413
598.849
598.827
599.263
600.02
600.949
601.863
604.825
593.554
599.677
606.568
607.236
607.025
606.133
604.546
602.411
600.071
597.793
595.873
594.653
594.436
595.362
597.33
600.174
603.258
605.837
607.397
607.779
607.204
606.329
605.898
606.198
607.479
609.694
612.536
615.521
617.995
618.92
617.749
614.387
609.059
602.246
594.473
586.298
578.64
611.178
602.339
598.735
596.099
597.09
604.074
603.199
604.916
611.984
613.337
613.723
613.483
613.075
612.917
613.105
613.537
614.063
614.55
614.892
615.086
615.145
614.864
613.968
612.538
610.659
608.479
606.287
604.304
602.656
601.45
600.689
600.36
600.427
600.788
601.365
601.987
602.512
602.637
597.583
606.663
607.375
607.808
607.241
605.968
604.125
601.851
599.469
597.263
595.495
594.501
594.582
595.777
598.013
600.978
603.924
606.176
607.326
607.292
606.51
605.81
605.66
606.389
608.15
610.816
614.013
617.108
619.026
618.742
616.171
611.528
605.352
598.08
590.343
582.627
575.571
570.422
572.856
577.209
582.883
589.396
595.991
601.901
606.45
609.477
600.159
608.202
611.995
601.494
594.866
611.436
602.829
603.132
597.043
599.026
593.988
602.063
608.324
608.166
607.214
605.631
603.57
601.184
598.804
596.715
595.152
594.454
594.857
596.335
598.85
601.881
604.661
606.616
607.419
607.024
606.241
605.719
605.956
607.18
609.43
612.536
616.011
618.955
619.843
618.26
614.48
609.001
602.493
595.311
588.252
581.218
574.503
569.476
569.509
570.597
571.917
574.238
578.255
583.784
590.201
596.562
601.952
605.808
607.754
610.822
612.667
613.55
613.579
613.107
612.595
612.453
612.778
613.51
614.392
615.12
615.514
615.493
615.02
614.11
612.741
611.048
609.181
607.354
605.725
604.365
603.328
602.621
602.213
602.093
602.167
602.4
602.711
602.935
602.989
595.519
602.809
603.269
606.123
596.752
598.247
600.578
602.902
605.965
607.114
608.037
608.659
608.246
606.968
605.096
602.866
600.424
598.091
596.167
594.866
594.506
595.234
597.033
599.803
602.866
605.482
607.248
607.552
607.018
606.33
606.123
606.795
608.509
611.275
614.815
618.474
620.81
620.465
617.729
613.101
607.26
600.948
594.216
587.751
581.144
574.703
569.374
568.073
572.213
574.646
575.873
576.441
576.596
577.58
580.678
585.72
591.612
597.058
601.291
603.694
604.486
608.108
610.938
612.779
613.756
613.988
613.625
613.183
612.955
613.156
613.798
614.595
615.174
615.28
614.802
613.793
612.41
610.803
609.161
607.655
606.399
605.417
604.714
604.272
604.025
603.94
603.944
604.002
603.991
603.954
603.727
603.243
602.787
595.241
593.9
609.275
602.317
604.467
601.977
599.583
603.072
606.554
605.831
602.691
596.388
597.365
579.822
583.243
584.614
583.744
581.626
580.27
580.693
583.199
587.717
592.355
596.551
599.248
600.572
600.856
604.202
607.553
610.389
612.654
614.085
614.795
614.831
614.446
613.996
613.794
613.916
614.168
614.245
613.881
612.974
611.625
610.098
608.619
607.375
606.456
605.838
605.503
605.405
605.467
605.606
605.76
605.818
605.758
605.514
605.049
604.303
603.239
602.465
597.136
595.073
591.107
599.663
608.722
608.076
606.514
604.411
602.058
599.578
597.333
595.629
594.632
594.639
595.705
597.867
600.847
603.915
606.539
607.889
607.865
607.296
606.796
606.941
608.067
610.315
613.625
617.575
621.227
622.541
621.051
617.439
612.32
606.4
600.461
594.084
588.276
582.308
576.088
570.122
566.846
569.386
575.73
592.817
593.88
608.358
601.699
595.59
601.614
600.602
603.466
606.729
609.653
612.279
614.191
615.351
615.812
615.565
614.801
613.935
613.223
612.691
612.156
611.383
610.272
608.949
607.685
606.696
606.096
605.826
605.836
606.073
606.461
606.907
607.325
607.599
607.608
607.386
606.821
605.901
604.605
602.954
601.863
597.59
594.941
586.522
591.167
594.613
596.319
594.421
590.169
585.318
582.348
581.455
583.526
586.64
590.756
593.878
596.03
597.121
597.623
594.707
596.435
598.483
600.87
603.445
602.225
598.536
601.141
593.65
608.636
607.699
605.882
603.602
601.169
598.716
596.583
595.124
594.461
594.844
596.279
598.804
601.96
605.156
607.63
608.624
608.43
607.876
607.594
608.109
609.714
612.524
616.381
620.698
624.011
624.204
621.764
617.476
612.002
606.113
600.451
594.985
589.767
584.398
578.503
572.199
567.35
567.374
572.194
581.014
607.924
601.49
601.16
592.341
593.902
593.052
600.017
609.19
611.771
602.304
600.518
600.88
603.921
601.43
589.662
610.176
597.347
599.824
602.478
605.853
608.95
611.773
613.87
615.291
615.925
615.727
614.581
612.983
611.4
610.098
609.06
608.118
607.161
606.266
605.612
605.371
605.494
605.91
606.511
607.212
607.93
608.609
609.144
609.381
609.287
608.788
607.836
606.436
604.616
602.467
600.093
595.119
593.652
593.248
592.675
598.141
600.966
602.176
605.023
603.949
601.565
597.293
591.899
585.624
585.744
586.667
589.198
591.293
592.997
594.443
595.881
596.997
605.499
595.489
597.257
599.398
601.718
604.086
598.216
593.562
608.318
608.255
607.079
605.1
602.72
600.258
597.885
595.882
594.682
594.361
595.114
596.942
599.802
603.181
606.48
608.774
609.51
609.211
608.724
608.688
609.574
611.662
615.029
619.402
624.005
626.677
625.884
622.655
617.781
611.964
606.142
600.976
596.425
592.078
587.564
582.128
576.046
570.734
568.624
571.543
577.992
589.012
592.737
600.402
593.557
591.202
591.749
592.348
600.351
593.932
592.759
593.288
610.917
596.112
598.303
603.57
597.002
595.66
607.458
606.952
599.399
601.87
604.33
606.6
608.49
609.914
610.801
611.158
611.061
610.603
609.845
608.912
607.856
606.734
605.632
604.733
604.146
603.958
604.124
604.576
605.378
606.671
608.522
610.766
612.923
614.277
614.416
613.845
612.522
610.659
607.945
604.707
600.939
598.237
595.774
597.338
607.405
587.521
586.52
590.263
593.601
599.411
605.335
605.28
599.954
594.091
583.397
574.255
570.122
569.328
572.989
577.263
581.959
586.066
588.975
589.882
589.003
593.084
598.998
590.762
610.174
609.412
608.64
607.854
607.089
606.564
605.953
605.269
592.181
607.76
594.94
598.467
597.383
591.319
592.051
592.816
598.998
591.318
610.773
594.582
595.971
597.696
599.617
601.586
605.38
601.266
607.19
607.931
607.619
606.285
604.227
601.819
599.375
597.136
595.276
594.323
594.332
595.442
597.651
600.825
604.455
607.79
609.965
610.548
610.203
609.814
610.017
611.255
613.802
617.689
622.52
627.273
629.179
627.569
623.657
618.21
612.082
606.383
601.814
598.256
595.093
591.556
587.216
581.76
576.709
573.444
573.888
578.06
586.974
584.124
594.747
593.767
592.744
607.839
593.812
598.897
600.524
592.793
608.23
593.137
593.465
592.939
592.702
592.727
591.855
606.335
593.658
610.112
604.117
593.773
594.732
596.071
604.964
605.7
606.368
598.456
601.059
603.758
606.408
608.771
610.718
612.119
612.911
613.127
612.869
612.168
611.114
609.749
608.134
606.379
604.682
603.272
602.208
601.517
601.275
601.661
602.888
604.976
607.59
610.042
611.391
611.479
611.015
610.06
608.784
606.381
603.004
598.655
595.974
592.378
596.366
585.521
599.09
597.505
595.952
594.629
593.637
593.027
595.61
593.687
597.171
590.679
591.784
604.555
606.688
595.719
593.622
604.656
609.056
596.91
602.955
591.507
610.852
609.41
610.002
592.808
604.017
610.1
605.035
612.075
613.678
603.226
609.503
613.317
621.517
620.503
623.17
600.509
605.26
598.456
598.66
599.654
601.739
603.492
604.119
603.959
603.407
603.503
610.263
609.562
608.871
608.222
607.596
607.022
602.988
597.271
590.484
591.816
591.949
589.459
602.742
606.952
593.439
599.493
597.787
593.563
607.106
597.341
611.967
611.394
593.471
603.606
605.428
606.809
607.315
606.844
605.425
603.348
600.971
598.589
596.475
594.805
594.053
594.362
595.805
598.36
601.85
605.701
609.103
611.21
611.703
611.358
611.08
611.499
613.049
616.002
620.336
625.548
630.284
631.473
629.205
624.652
618.645
612.254
606.716
602.818
600.414
598.489
596.198
593.115
588.949
584.287
580.559
579.861
581.937
588.829
580.911
607.529
612.125
603.718
611.968
591.054
605.603
594.629
611.451
589.877
603.958
609.298
591.984
608.207
598.133
596.85
595.49
594.271
593.315
592.662
592.332
592.286
592.985
592.587
588.909
593.117
590.382
603.419
593.344
595.233
597.501
600.103
602.938
605.864
608.692
611.204
613.217
614.582
615.269
615.309
614.749
613.621
611.967
609.88
607.528
605.138
602.915
600.984
599.437
598.458
598.34
599.29
601.327
604.041
606.567
607.76
607.793
607.419
606.937
606.502
605.161
602.181
597.456
593.11
589.564
596.358
579.184
604.37
603.992
604.892
605.72
606.521
600.744
611.98
594.25
595.571
597.054
602.53
599.868
601.259
603.879
599.463
592.328
595.441
590.189
590.977
591.194
589.668
603.573
605.775
593.316
593.652
604.182
606.906
596.576
605.441
604.023
596.784
594.504
605.817
595.798
592.954
589.02
592.228
596.288
597.326
599.256
602.845
600.294
611.417
610.916
610.365
609.778
609.205
608.67
608.165
607.717
607.354
590.426
595.616
594.248
593.919
601.475
607.7
588.653
603.152
604.939
606.185
606.573
606.02
604.582
602.541
600.236
597.941
595.934
594.476
593.874
594.439
596.171
599.038
602.805
606.878
610.395
612.491
612.939
612.62
612.443
613.031
614.83
618.11
622.798
628.292
632.884
633.512
630.708
625.536
619.03
612.434
607.06
603.844
602.609
601.911
601.109
599.549
596.532
592.283
588.603
587.668
588.348
589.128
587.452
586.488
534.65
542.144
566.09
572.661
555.483
580.732
581.522
589.852
610.72
603.84
577.453
589.813
566.203
542.917
533.756
528.78
530.861
536.419
545.821
553.193
559.932
563.87
564.377
562.632
560.956
591.044
605.878
593.191
593.533
599.032
597.96
611.904
612.224
605.246
597.436
596.212
594.838
593.614
592.667
592.013
591.65
591.543
591.732
592.184
592.905
594.879
594.056
593.831
593.736
590.386
590.432
604.625
593.553
603.724
606.533
595.088
602.681
595.617
604.317
594.383
598.078
589.024
602.312
600.852
599.391
597.947
596.495
595.07
593.558
590.989
611.937
607.289
601.972
603.127
604.188
605.172
606.128
607.108
590.634
594.12
611.982
594.848
612.046
611.797
611.448
611.02
610.569
610.107
609.656
609.221
608.827
608.505
608.283
608.142
606.302
600.173
589.442
593.9
603.818
611.616
600.576
600.176
602.358
604.208
605.453
605.809
605.245
603.837
601.868
599.651
597.445
595.548
594.248
593.782
594.547
596.505
599.626
603.648
607.931
611.582
613.731
614.18
613.891
613.791
614.504
616.466
619.978
624.91
630.577
634.984
635.23
631.99
626.268
619.344
612.635
607.397
604.789
604.488
604.98
605.926
605.819
603.893
600.151
596.662
595.597
595.822
597.176
588.452
582.321
611.533
786.592
623.294
605.391
618.31
641
631.364
721.534
686.534
595.766
618.801
604.346
631.106
750.713
753.403
647.878
672.218
655.688
655.925
659.486
662.882
658.983
646.324
641.293
632.583
642.584
657.458
637.1
541.997
602.56
573.518
591.955
587.916
590.476
596.807
602.194
604.51
604.471
603.728
603.719
604.142
604.217
603.196
600.723
598.05
596.18
595.566
596.211
597.885
600.197
602.884
605.799
608.814
611.716
614.239
616.163
617.377
617.797
617.396
616.131
614.086
611.403
608.323
605.093
601.967
599.09
596.566
594.431
592.662
591.22
590.068
589.211
603.704
588.801
605.564
589.083
589.896
594.682
591.351
594.285
595.153
593.891
591.088
590.321
589.895
589.318
590.395
604.628
602.399
593.852
596.821
594.427
600.195
602.5
595.333
597.842
604.587
601.697
604.773
592.852
603.141
596.572
601.326
595.58
594.516
594.176
603.451
589.816
589.891
592.357
593.797
592.689
591.84
591.225
590.853
590.7
590.84
591.261
592.01
593.106
594.468
594.537
589.019
597.733
592.711
594.164
595.672
597.165
598.639
600.114
601.616
603.166
589.095
590.912
609.578
610.693
611.498
611.978
604.155
605.316
589.822
600.66
589.209
598.835
588.576
601.07
602.401
603.596
604.74
605.85
606.959
608.061
589.915
608.356
588.856
588.398
588.334
588.542
589.039
589.823
590.879
592.204
593.795
595.763
598.159
601.005
604.268
607.81
611.396
614.718
617.448
619.315
620.07
619.787
618.453
616.274
613.361
609.99
606.469
603.006
599.73
596.809
594.564
593.427
593.686
595.375
598.011
600.415
601.325
601.081
600.587
601.068
602.862
603.698
602.223
597.612
593.074
590.491
589.764
589.96
606.006
618.8
770.538
598.848
596.086
189.525
354.681
428.188
503.601
509.274
489.219
376.116
457.835
580.765
755.203
645.806
513.595
295.192
402.656
407.749
435.569
442.239
444.431
448.699
459.273
474.273
494.633
504.975
516.741
499.35
466.553
398.309
227.667
606.988
611.988
611.79
611.528
611.213
610.886
610.545
610.206
609.885
609.612
609.411
609.284
609.196
609.147
612.338
612.328
612.255
612.125
597.143
599.389
601.62
603.515
604.783
605.159
604.623
603.271
601.372
599.227
597.104
595.3
594.116
593.756
594.654
596.771
600.082
604.308
608.782
612.581
614.821
615.295
615.033
614.992
615.756
617.819
621.463
626.538
632.283
636.567
636.587
633.023
626.847
619.629
612.911
607.749
605.3
605.593
607.408
610.048
611.113
610.032
607.048
603.614
600.989
598.744
595.86
585.566
576.251
583.881
630.538
135.037
597.465
594.819
603.266
601.075
589.23
589.823
592.54
590.217
595.708
595.377
594.759
595.78
601.084
591.718
593.135
594.59
596.081
597.557
599.039
600.528
602.058
603.648
612.39
601.375
608.575
609.888
611.101
611.93
593.166
594.192
592.805
591.659
590.87
590.353
590.062
590.015
590.297
590.902
591.882
591.247
589.586
589.464
602.089
595.246
596.073
599.793
597.455
590.112
589.19
588.528
588.155
588.092
588.348
588.871
589.644
590.639
591.842
593.325
595.159
597.432
600.224
603.547
607.303
611.27
615.103
618.404
620.774
621.839
621.658
620.301
617.83
614.589
610.891
607.016
603.17
599.49
596.154
593.508
591.964
591.896
593.443
596.052
598.434
599.321
598.845
598.223
598.882
601.385
603.312
602.454
598.446
596.201
595.862
598.298
603.87
614.959
635.586
740.532
157.734
598.678
600.331
601.816
603.134
604.417
605.673
606.865
608.029
609.191
589.689
599.662
596.78
598.185
601.701
589.456
591.418
612.625
612.54
612.398
612.233
598.144
596.364
612.041
611.965
611.837
611.674
611.483
611.28
611.069
610.858
610.671
610.522
610.41
610.315
610.253
610.213
610.321
611.147
17.9857
17.4628
18.3567
19.5879
20.3918
19.7698
18.8002
17.7076
18.1791
22.4872
24.8384
22.9551
17.5322
15.1172
16.3582
16.4296
17.0168
17.5667
17.4439
17.0141
16.9945
16.7802
16.0588
16.9212
15.0478
16.4097
14.5568
16.3096
12.7274
17.9868
596.689
598.879
601.096
603.006
604.306
604.731
604.245
602.948
601.091
598.988
596.918
595.172
594.051
593.783
594.735
596.938
600.359
604.725
609.357
613.291
615.634
616.17
615.948
615.93
616.703
618.761
622.441
627.568
633.336
637.584
637.557
633.824
627.334
619.974
613.233
607.951
605.301
606.131
608.949
612.451
614.965
614.636
612.001
608.868
605.55
600.77
593.974
577.058
557.349
504.739
549.485
299.931
26.6376
598.285
596.641
600.56
589.46
590.433
324.925
538.763
592.201
591.319
25.2344
5012.73
4570.5
4015
4850.08
4401.28
4874.71
4341.63
4921.03
4647.52
5099.62
5006.33
5115.5
5116.25
4940.14
5039.58
4494.59
4814.7
3680.42
4320.95
3906.29
3513.51
4438.6
4216.66
4534.92
4499.7
4643.87
4591.44
4735.97
4691.73
434.922
34.8423
4763.91
4624.01
537.609
508.153
582.685
564.359
603.755
597.192
611.088
608.23
617.071
614.675
613.2
616.411
606.289
609.586
607.78
605.149
620.486
613.617
634.537
627.97
637.793
638.187
627.739
633.326
619.172
622.769
616.422
617.155
616.67
616.482
613.507
615.987
604.884
609.54
597.015
600.468
593.824
594.791
595.195
594.061
598.951
596.923
602.813
601.004
604.442
604.043
602.697
603.975
598.613
600.816
594.322
596.374
591.192
592.576
589.663
590.221
589.602
589.474
590.604
589.983
592.759
591.504
596.035
594.322
599.842
597.986
602.763
601.464
605.617
604.184
608.511
607.102
611.054
611.342
611.318
611.393
611.366
611.478
611.436
611.593
611.529
611.736
611.664
611.868
611.804
611.97
611.924
612.011
611.987
610.314
612.031
611.959
611.972
612.199
612.133
612.497
612.319
612.713
612.658
612.185
612.608
610.164
611.346
607.1
608.713
603.69
605.384
600.573
602.09
597.66
599.11
594.777
596.21
592.076
593.377
589.798
590.913
588.297
588.918
587.945
587.962
588.769
588.231
590.522
589.543
593.099
591.679
597.031
594.848
603.109
599.773
611.119
606.967
618.818
615.215
622.794
621.488
621.276
622.682
615.3
618.711
607.341
611.409
599.43
603.3
592.991
595.881
590.963
591.188
594.996
592.422
598.316
597.416
596.721
597.621
598.956
596.944
601.877
601.36
596.777
599.421
601.599
597.372
616.559
608.869
595.83
611.461
611.782
600.1
596.003
3756.26
597.394
3825.7
608.533
611.895
611.949
611.988
611.995
611.985
611.996
611.998
599.178
605.176
598.961
597.305
599.024
602.896
604.78
603.403
595.875
596.696
596.262
593.978
594.371
594.121
592.627
592.551
592.524
591.93
591.351
591.578
605.372
589.906
611.978
607.339
609.912
592.074
596.674
604.456
606.765
604.661
589.171
604.391
600.028
595.841
588.752
605.332
589.375
612.491
588.639
610.741
590.46
606.524
608.53
605.245
610.864
604.823
593.865
600.137
602.219
606.13
598.854
611.764
608.761
593.487
595.494
590.894
602.972
612.075
603.639
593.686
612.083
591.326
598.298
594.502
593.255
603.491
608.653
601.994
594.79
597.6
597.564
603.967
590.633
)
;

boundaryField
{
    wall
    {
        type            zeroGradient;
    }
    outlet
    {
        type            fixedValue;
        value           uniform 1e-05;
    }
    inlet
    {
        type            fixedValue;
        value           uniform 612;
    }
    frontAndBackPlanes
    {
        type            empty;
    }
}


// ************************************************************************* //
