/*--------------------------------*- C++ -*----------------------------------*\
| =========                 |                                                 |
| \\      /  F ield         | OpenFOAM: The Open Source CFD Toolbox           |
|  \\    /   O peration     | Version:  2212                                  |
|   \\  /    A nd           | Website:  www.openfoam.com                      |
|    \\/     M anipulation  |                                                 |
\*---------------------------------------------------------------------------*/
FoamFile
{
    version     2.0;
    format      ascii;
    arch        "LSB;label=32;scalar=64";
    class       volScalarField;
    location    "0.35";
    object      T;
}
// * * * * * * * * * * * * * * * * * * * * * * * * * * * * * * * * * * * * * //

dimensions      [0 0 0 1 0 0 0];

internalField   nonuniform List<scalar> 
2308
(
160.071
275.262
155.788
114.402
128.842
126.07
123.033
127.784
129.749
103.153
104.391
106.507
107.619
109.109
110.555
112.01
113.415
113.845
112.442
111.148
109.523
108.318
106.618
105.691
104.043
102.491
101.706
100.261
123.256
114.808
98.9795
97.7553
96.5887
95.4383
94.3525
93.2889
92.2755
91.2881
90.3592
89.4531
88.6205
87.8084
87.093
86.3701
85.7457
85.9173
86.7326
87.2189
88.0839
88.6967
89.6442
90.4084
91.4393
92.327
93.4287
94.4114
95.5699
96.6407
97.8438
99.0007
100.295
101.682
102.824
104.109
105.566
106.758
108.017
109.393
110.927
112.386
113.915
85.1286
85.6667
113.512
111.81
110.439
108.82
107.541
106.025
104.847
103.491
102.144
100.87
99.6886
98.5204
97.401
96.3231
95.2538
94.2498
93.2309
92.2863
91.3199
90.4351
89.5518
88.7169
87.9194
87.1657
86.4103
115.171
85.7958
116.194
115.35
87.6131
86.8314
87.765
87.9338
88.9404
89.2871
90.3033
90.7997
91.8688
92.5155
93.6717
94.4223
95.6889
96.5613
97.9299
98.9289
100.385
101.478
102.939
104.301
105.467
106.947
108.158
109.759
111.137
112.86
114.313
128.335
125.737
123.525
123.859
115.63
113.72
111.872
110.287
108.73
107.313
105.884
104.592
103.276
101.956
100.669
99.4715
98.3101
97.1868
96.1451
95.0799
94.1346
93.0837
92.2446
91.1606
90.4583
89.3548
88.7646
87.6834
87.2107
86.2438
85.927
85.3176
85.12
84.6027
85.1383
128.696
86.7964
130.323
134.114
116.859
133.408
126.132
116.864
116.081
85.4421
84.9289
84.318
85.4538
87.8641
91.0241
88.4672
88.2655
87.4492
88.0829
87.8183
88.6342
88.9034
89.8737
90.2887
91.2994
91.8781
92.9254
93.7109
94.8801
95.8693
97.1547
98.29
99.6478
100.857
102.263
103.48
104.942
106.204
107.774
109.184
110.876
112.415
114.236
119.134
154.093
127.276
125.835
123.954
122.055
120.159
118.409
116.622
115.123
113.236
111.675
109.898
108.589
106.989
105.84
104.334
103.324
101.899
100.983
99.576
98.7017
97.3602
96.6075
95.3289
94.7161
93.4683
92.8981
91.7754
91.0721
90.2903
89.2428
89.0419
87.8031
88.04
86.9675
87.7308
87.2384
176.006
132.191
165.822
117.878
119.864
132.487
117.546
119.55
106.604
96.6578
94.4159
91.2704
91.5006
90.3763
91.2992
90.7245
91.8001
91.8362
93.0797
93.4058
94.644
95.1845
96.3806
97.0566
98.2414
99.1157
100.335
101.367
102.555
103.645
104.884
106.164
107.57
109.048
110.637
112.308
114.056
115.827
135.914
136.44
125.74
123.185
121.013
118.98
116.935
115.228
113.419
111.85
110.196
108.578
107.066
105.507
104.194
102.824
101.771
100.576
99.7096
98.4629
97.8225
96.5087
95.9411
94.6617
93.9423
92.9401
92.0369
91.3301
90.322
89.8676
88.9691
88.7024
88.1001
88.5665
88.6071
89.2635
90.7942
93.7121
88.1814
85.323
84.6971
84.3255
85.1145
87.3555
93.9746
121.931
160.523
153.783
218.843
134.601
152.883
131.521
115.92
117.703
137.144
135.863
147.608
126.194
127.026
124.094
121.495
118.996
116.769
114.667
113.018
111.08
109.768
107.873
106.719
104.94
104.073
102.55
101.954
100.543
99.979
98.7894
98.062
97.1972
96.2105
95.8033
94.5461
94.4125
93.1329
93.154
91.9047
92.1525
91.3478
92.0142
91.9148
92.1369
95.24
96.1809
106.015
120.076
123.36
100.498
89.1348
85.7545
84.839
84.3914
85.7734
90.5033
103.645
126.607
126.3
127.3
128.886
124.969
108.897
98.2494
96.381
92.1042
92.6002
90.9119
92.3376
91.2402
92.8771
92.418
94.0022
93.867
95.2393
95.3091
96.6665
96.9563
98.3417
98.9545
100.422
101.37
102.93
104.118
105.722
107.175
108.963
110.637
112.567
136.043
117.806
119.396
121.061
137.472
140.602
138.83
137.985
141.946
129.893
131.396
128.332
124.921
122.207
119.309
116.984
114.35
112.395
110.252
108.755
106.766
105.472
103.6
102.678
100.957
100.301
98.8076
98.1895
96.9323
96.1159
95.1616
94.1785
93.4917
92.6561
91.8246
91.5136
91.0857
91.9239
91.1226
93.5439
92.4479
98.6946
98.9983
113.278
126.118
126.913
123.581
122.311
119.731
121.1
113.968
92.0586
85.9432
84.8754
84.5545
85.9882
92.4756
118.778
125.231
125.408
126.212
127.499
128.64
129.932
130.858
132.704
130.252
113.717
101.236
99.8305
94.377
95.1852
92.9529
94.348
93.5203
95.0182
94.7542
96.2846
96.3289
97.9596
98.2077
99.7614
100.154
101.669
102.313
103.797
104.689
106.281
107.578
109.332
110.915
112.829
114.467
139.889
136.374
210.764
116.592
138.8
145.33
143.523
121.491
125.256
121.273
119.657
140.122
146.222
118.687
119.755
120.737
100.304
88.0725
85.3777
84.9275
88.6718
103.237
122.684
124.15
124.307
125.421
125.676
126.417
127.582
128.453
129.873
131.462
132.982
134.147
136.932
135.059
119.301
104.731
103.734
97.2642
98.1594
95.64
97.519
96.0288
97.6809
97.0084
98.6039
98.1839
99.7736
99.5288
100.883
100.84
102.225
102.481
104.138
104.924
106.914
108.036
110.429
114.833
129.791
140.698
132.842
129.966
128.278
124.71
122.217
119.354
117.441
115.101
113.662
111.522
110.436
108.654
107.601
106.133
104.826
103.699
102.248
101.55
100.108
99.7601
98.3509
98.0116
96.9718
96.3588
96.0361
95.4379
95.4745
94.5919
95.9615
97.0072
101.154
103.771
119.397
130.927
128.469
126.321
124.573
121.782
120.227
118.681
117.622
140.254
141.035
109.487
121.581
144.342
118.533
126.279
126.906
127.92
128.689
129.815
130.844
132.484
134.666
136.769
138.359
140.805
141.955
126.827
109.241
108.375
100.802
100.991
97.4045
98.8177
96.4529
98.0646
97.6282
99.0731
98.9624
100.704
101.134
103.077
104.123
105.5
107.017
107.954
109.625
110.969
112.034
129.819
142.894
116.487
117.221
118.212
118.845
113.309
90.5862
85.8714
85.9791
91.6155
116.957
121.578
123.151
123.169
124.317
124.614
125.341
132.85
152.764
152.195
149.383
142.422
124.922
127.415
256.893
118.497
125.865
122.677
119.721
117.964
115.543
114.414
112.236
111.38
109.353
108.39
106.378
105.336
103.669
102.61
101.157
100.219
99.1297
98.1819
97.6128
96.9254
96.5543
97.0666
97.0749
98.5218
99.5102
102.438
105.547
112.105
124.342
134.962
131.182
129.788
128.44
126.493
124.621
122.733
121.288
119.714
118.737
117.753
119.795
116.955
123.646
144.276
143.388
142.056
126.716
138.263
168.007
124.816
120.725
113.066
123.313
148.685
142.947
165.536
126.595
127.586
128.008
128.438
129.186
129.867
130.472
131.361
132.503
133.988
136.449
139.49
141.696
143.279
148.029
130.905
115.407
111.789
106.801
104.466
102.038
103.178
100.807
102.801
102.535
105.215
104.413
106.991
105.821
108.37
107.428
109.209
109.296
110.593
111.402
130.014
163.7
162.419
117.174
115.807
116.407
117.533
118.664
119.001
99.2719
88.661
88.3754
101.022
120.248
121.388
122.421
122.588
123.721
124.048
124.851
126.145
126.086
157.968
158.922
152.264
152.99
145.833
126.112
151.648
131.753
128.429
125.597
123.62
121.205
119.795
117.329
116.258
114.215
113.527
111.871
111.327
109.492
108.919
106.998
106.625
104.546
104.144
102.767
102.178
102.554
101.519
103.636
103.376
109.393
108.939
123.889
136.194
137.227
132.778
131.405
129.959
127.336
126.121
124.971
124.054
122.766
121.679
120.236
119.563
118.649
118.098
133.982
114.905
158.145
142.612
144.399
147.4
119.124
145.279
145.502
146.21
160.727
183.458
129.576
122.249
114.377
129.055
107.326
116.848
112.146
111.929
108.883
108.924
106.166
106.588
105.135
105.376
106.916
107.319
109.851
109.321
113.271
111.983
119.671
119.632
133.107
145.564
153.401
148.158
146.625
143.967
140.341
138.243
136.741
136.141
135.243
134.959
134.478
134.026
132.983
132.233
131.064
130.387
129.26
128.601
144.787
117.26
116.341
115.103
115.216
115.894
117.571
118.621
113.113
90.8798
91.3801
116.036
120.468
120.416
121.159
121.515
122.662
123.061
123.96
125.353
127.529
132.388
115.431
141.924
133.706
124.429
103.875
101.143
106.971
117.61
141.855
163.712
135.466
167.197
200.176
181.294
178.332
148.078
147.917
150.864
121.391
136.447
168.071
166.745
174.979
174.067
175.182
171.442
147.293
247.41
148.456
140.469
133.004
127.827
123.314
120.031
117.157
115.416
113.37
111.344
110.144
108.84
108.34
107.248
107.296
107.242
107.751
107.944
108.311
109.324
109.749
111.839
112.892
118.686
119.612
130.239
144.394
140.298
138.858
136.563
133.762
131.08
129.222
127.942
127.211
126.551
125.995
125.354
124.481
123.195
122.473
121.84
121.042
120.479
164.32
167.898
171.078
134.191
210.04
117.197
150.881
212.466
162.236
148.247
148.651
149.594
157.841
154.957
154.716
138.496
160.023
151.954
163.316
158.556
217.566
191.924
163.012
163.078
126.759
116.527
116.684
116.04
116.393
116.414
116.424
116.62
115.642
116.523
118.578
120.521
124.706
129.222
134.58
144.004
159.295
154.764
152.044
149.119
145.23
141.236
140.061
138.184
137.528
137.28
137.264
137.207
136.93
136.062
134.836
133.619
132.638
131.587
130.703
129.743
128.935
128.048
235.128
235.982
228.977
215.95
188.557
170.005
121.58
131.272
114.181
145.66
157.263
181.825
168.26
162.788
155.29
119.504
144.116
132.958
129.875
135.322
125.828
166.809
165.668
158.524
119.866
116.99
115.811
114.313
114.713
115.538
116.476
117.834
116.346
101.517
102.029
116.99
119.661
119.836
120.931
121.117
122.224
122.585
123.474
124.913
126.948
127.255
112.576
103.347
98.8498
98.8658
100.533
110.566
163.076
118.083
139.421
177.258
210.768
170.861
166.138
171.711
151.467
138.006
167.131
153.406
156.701
120.448
169.596
155.775
152.574
230.14
186.893
169.482
158.439
152.211
144.125
138.03
132.104
128.822
125.845
124.744
122.24
121.455
118.472
118.338
115.991
116.161
114.267
115.488
114.813
118.026
118.109
123.625
124.445
136.474
145.347
145.562
142.78
140.78
139.502
136.102
134.101
132.437
130.882
130.001
129.454
129.092
128.704
128.462
127.482
126.367
125.133
124.09
123.073
122.54
121.612
121.056
173.329
130.232
104.966
151.713
193.585
161.078
166.051
256.264
126.223
157.781
132.526
131.624
256.86
258.195
259.678
259.942
252.374
217.876
188.207
165.735
153.807
157.149
204.218
220.371
162.568
189.989
135.54
133.228
129.846
128.851
127.593
127.729
128.282
129.083
132.046
133.692
135.551
141.775
143.601
149.287
160.834
157.517
154.392
152.516
148.416
145.023
143.607
142.022
141.874
141.924
142.002
142.24
142.1
141.954
140.908
139.573
138.011
136.983
135.749
134.983
133.885
133.308
132.258
131.805
130.751
130.271
164.235
166.596
171.658
139.275
143.319
91.6269
273.438
257.913
226.84
133.636
160.967
147.162
118.322
256.517
119.062
116.226
144.721
153.345
205.354
205.623
184.991
193.844
169.921
154.471
121.224
145.445
127.059
142.589
145.971
166.649
159.388
163.473
122.863
129.037
168.523
248.4
124.396
129.772
150.357
177.801
242.067
125.06
104.659
100.51
98.4871
97.8391
97.8059
98.5004
101.392
113.645
138.714
121.352
156.461
155.811
169.16
127.564
253.874
250.515
241.295
215.482
190.638
175.791
164.65
156.213
148.124
142.411
136.493
133.383
130.649
129.595
129.125
127.628
129.542
126.774
129.479
127.353
132.698
132.14
137.369
145.824
149.207
146.128
145.369
142.887
139.979
137.108
135.966
134.903
134.694
134.694
134.626
133.788
132.946
131.693
131.099
130.11
128.922
127.936
127.423
126.431
125.288
124.215
123.332
122.398
121.214
119.769
118.976
116.305
115.15
113.711
113.763
114.111
115.081
117.039
116.908
109.323
110.093
118.35
119.282
118.963
119.799
120.13
121.239
121.668
122.588
124.048
125.944
126.46
129.213
179.876
174.151
135.134
144.322
161.524
262.253
148.615
167.301
120.875
123.783
262.942
262.813
264.474
266.225
269.513
267.899
233.201
187.861
159.334
130.917
116.897
129.655
120.741
116.497
150.253
212.714
222.989
162.809
119.437
130.537
123.431
149.562
165.658
151.531
126.346
149.353
168.513
156.904
190.725
246.781
275.676
276.957
278.914
274.894
274.612
175.971
139.647
153.657
159.459
169.886
171.737
181.681
159.915
133.018
124.06
262.553
160.436
139.075
126.187
106.774
101.006
98.1564
96.9559
97.0201
97.1636
97.5457
99.1404
104.096
122.45
127.106
171.485
137.865
148.673
122.737
157.037
131.284
262.221
260.311
259.356
256.023
247.878
234.085
215.836
202.043
185.964
176.08
162.933
156.077
149.375
146.555
143.962
143.002
141.062
144.049
145.002
150.069
153.746
152.994
152.61
150.994
149.989
146.226
143.685
141.072
140.438
140.81
140.783
141.357
141.848
141.067
140.364
138.652
136.343
134.828
133.094
132.307
131.429
131.005
130.438
129.789
128.886
127.971
127.054
126.022
125.377
124.339
120.116
119.04
118.244
115.596
114.977
113.647
113.676
114.101
114.863
117.201
118.662
124.604
125.887
121.139
119.631
118.734
119.759
119.968
120.959
121.288
122.181
123.648
125.439
125.731
128.773
133.572
133.953
134.694
135.186
135.942
136.462
137.252
137.791
138.633
139.196
140.095
140.765
141.788
142.751
144.07
145.432
146.303
146.952
147.052
146.458
146.007
144.878
144.563
144.131
144.533
148.762
152.307
158.444
160.686
164.802
164.293
166.795
156.582
153.431
146.24
147.348
144.687
147.558
147.832
152.733
158.906
167.52
177.863
195.943
199.008
136.046
200.224
156.61
271.555
276.053
128.501
275.961
159.329
118.572
119.664
122.867
150.927
140.722
171.758
176.816
208.394
186.34
173.669
151.101
148.042
158.984
161.943
162.279
170.402
183.506
198.73
144.622
127.447
198.606
169.771
161.76
144.729
167.444
164.952
220.594
175.134
143.287
119.352
119.861
154.237
180.797
240.293
278.344
268.766
267.314
264.226
263.636
261.807
262.708
164.076
204.327
124.884
278.468
278.225
277.463
276.717
272.9
268.429
240.424
179.811
245.176
131.438
135.723
141.76
148.084
156.639
123.19
179.821
136.744
191.707
140.094
176.909
238
138.63
144.838
157.876
162.363
169.297
171.338
160.977
131.973
130.597
277.926
276.507
270.246
271.204
244.728
242.696
226.912
219.221
204.813
198.828
191.724
190.029
184.365
182.418
179.126
178.263
175.066
173.105
170.196
167.506
166.055
165.981
165.653
166.029
165.759
166.085
166.218
166.158
165.698
164.626
162.714
160.846
159.448
158.466
157.797
157.392
157.124
156.762
156.488
155.906
155.526
154.761
154.329
153.513
153.064
152.259
151.822
151.071
150.747
177.427
167.446
124.095
118.907
117.513
117.35
114.959
114.384
113.127
112.774
113.144
113.804
116.248
120.82
127.57
131.035
121.391
119.005
118.224
118.807
119.077
120.05
120.406
121.352
122.818
124.417
124.98
127.82
132.935
150.132
141.525
112.844
103.935
99.911
97.3045
96.687
96.4165
96.8558
96.9504
97.3617
97.8949
100.638
110.547
114.112
174.763
177.23
180.793
138.787
262.666
264.578
264.636
265.162
265.449
263.307
261.802
256.086
249.272
243.982
233.313
220.256
213.398
198.181
188.696
180.5
174.857
172.317
170.171
169.677
169.22
168.93
168.685
166.502
164.247
162.106
161.121
159.242
157.604
157.77
157.428
157.042
156.178
154.356
151.5
149.155
147.842
147.312
147.057
146.888
146.909
146.889
146.844
146.774
146.577
145.997
145.289
144.499
143.762
143.145
142.34
142.284
179.921
178.149
212.412
192.098
144.744
148.397
122.544
127.704
175.185
163.597
260.653
169.633
129.612
269.913
272.942
274.608
276.415
277.405
276.763
276.699
274.167
231.982
151.385
116.11
128.842
131.65
136.404
144.142
260.686
134.418
189.123
204.859
253.287
265.456
266.46
267.017
264.402
263.061
261.869
123.095
139.924
146.912
213.967
172.652
179.111
183.907
176.322
269.957
272.487
275.029
276.832
274.626
282.964
274.312
275.095
267.337
262.916
252.935
249.292
241.854
238.078
230.409
224.468
218.532
214.484
212.061
209.227
206.484
205.694
205.401
204.085
202.628
201.228
199.332
196.49
192.912
189.989
188.285
187.134
186.867
186.831
186.732
186.426
185.876
184.843
183.8
182.503
181.431
180.152
179.155
177.957
177.133
176.119
175.547
174.777
174.41
173.779
173.524
172.976
131.046
140.174
146.049
156.293
160.756
171.343
171.287
171.33
171.658
128.737
190.325
170.424
187.641
202.889
134.585
126.462
175.214
179.934
189.959
192.98
132.543
117.166
106.24
103.013
102.14
99.2109
97.2015
96.5267
96.2913
96.8113
96.8682
97.1708
97.9629
100.147
105.743
102.824
104.137
214.801
142.274
123.749
118.509
116.954
116.51
114.721
114.12
113.005
112.876
113.413
114.223
117.46
124.465
139.457
142.124
126.827
121.127
118.455
119.149
119.165
119.884
120.199
121.114
122.566
124.065
124.484
127.539
132.689
149.895
172.78
260.32
261.43
263.387
264.752
265.944
267.536
268.099
268.516
269.097
266.491
259.769
256.043
251.84
242.17
236.897
229.656
221.675
216.756
211.081
207.864
205.175
203.38
200.805
198.612
197.185
194.23
188.811
185.86
184.491
182.979
182.308
182.597
183.748
184.075
185.075
186.121
186.403
186.294
185.682
183.887
181.25
178.568
175.925
173.281
170.586
167.811
165.176
162.975
161.781
161.227
161.27
161.652
162.697
181.423
178.438
207.149
134.256
126.853
204.74
206.21
275.691
255.09
203.94
132.079
171.998
149.172
123.611
126.606
121.675
122.981
119.269
120.264
118.227
118.951
118.127
118.245
130.808
121.497
145.134
148.608
117.511
126.894
112.342
113.593
112.492
112.013
114.022
113.56
115.644
115.607
123.701
117.578
203.497
202.624
165.01
142.617
204.83
204.599
205.177
205.074
205.859
205.399
207.154
206.439
209.77
208.243
214.257
211.857
218.974
216.664
222.637
220.908
226.806
224.445
231.898
229.338
234.195
233.464
236.305
234.813
241.453
238.592
246.97
244.599
251.233
249.048
253.577
252.579
256.089
255.105
259.066
257.423
262.217
260.7
263.786
263.478
261.049
262.991
259.749
261.182
256.976
257.933
255.31
256.011
254.65
254.442
255.223
255.25
256.613
255.596
259.748
258.23
261.667
262.672
257.555
269.609
203.759
214.435
167.001
174.525
180.564
175.9
181.273
184.863
198.729
193.339
208.871
205.674
210.613
88.3272
54.0231
107.854
108.088
108.429
107.66
108.142
108.393
106.638
107.119
105.156
105.927
99.8998
103.87
152.416
90.3375
203.282
109.177
242.952
214.657
213.763
223.591
213.804
214.888
201.549
211.879
198.345
198.987
182.995
192.228
189.228
178.478
255.611
217.164
274.365
272.109
270.558
271.284
266.255
268.416
260.951
264.123
259.532
259.907
260.67
259.857
261.321
261.654
268.083
261.512
273.935
270.191
274.861
274.755
273.335
274.536
269.444
271.691
264.158
266.486
260.095
261.819
253.161
255.585
251.237
251.661
248.682
249.959
244.153
245.776
238.785
241.558
233.524
235.648
229.828
231.479
226.816
228.168
224.418
225.502
221.758
222.895
219.003
220.188
216.341
217.439
213.918
214.929
211.449
212.51
208.888
210.009
207.356
246.491
219.498
196.151
126.347
202.453
175.885
200.068
158.568
261.559
259.901
258.244
238.744
244.121
220.346
215.146
123.009
125.06
192.387
182.482
187.591
117.298
118.278
117.526
132.481
130.333
132.524
136.538
132.665
134.834
139.879
135.696
136.46
141.789
138.6
139.31
129.883
130.129
260.138
134.987
213.264
129.598
177.005
128.519
133.913
138.857
170.784
122.555
114.752
115.433
246.181
120.904
276.343
161.033
271.005
131.467
136.422
128.582
134.438
123.486
182.778
120.666
161.256
124.371
122.55
126.398
134.964
255.391
140.32
155.358
262.029
269.643
172.581
163.78
164.82
219.186
180.249
154.281
112.507
118.298
275.564
117.231
166.955
252.308
144.68
128.61
105.507
102.274
260.091
)
;

boundaryField
{
    wall
    {
        type            zeroGradient;
    }
    outlet
    {
        type            inletOutlet;
        inletValue      uniform 85;
        value           nonuniform List<scalar> 
33
(
132.084
171.997
149.168
123.61
126.609
121.675
122.981
119.266
120.263
118.225
118.948
118.129
118.244
130.81
121.502
145.107
148.63
117.514
126.877
112.346
113.598
112.508
112.021
114.039
113.584
115.638
115.621
123.739
117.584
165.141
142.68
202.449
200.021
)
;
    }
    inlet
    {
        type            fixedValue;
        value           uniform 273.16;
    }
    frontAndBackPlanes
    {
        type            empty;
    }
}


// ************************************************************************* //
