/*--------------------------------*- C++ -*----------------------------------*\
| =========                 |                                                 |
| \\      /  F ield         | OpenFOAM: The Open Source CFD Toolbox           |
|  \\    /   O peration     | Version:  2212                                  |
|   \\  /    A nd           | Website:  www.openfoam.com                      |
|    \\/     M anipulation  |                                                 |
\*---------------------------------------------------------------------------*/
FoamFile
{
    version     2.0;
    format      ascii;
    arch        "LSB;label=32;scalar=64";
    class       surfaceScalarField;
    location    "0.00108";
    object      phi;
}
// * * * * * * * * * * * * * * * * * * * * * * * * * * * * * * * * * * * * * //

dimensions      [1 0 -1 0 0 0 0];

oriented        oriented;

internalField   nonuniform List<scalar> 
14149
(
3.84411e-05
-3.27304e-05
-0.000233916
0.00027805
-1.23081e-05
2.55205e-06
-2.5777e-06
1.12345e-05
2.28568e-06
-1.31994e-05
-2.35224e-06
1.32321e-05
-2.17985e-06
1.97043e-06
-1.36339e-05
-1.25071e-05
1.17163e-05
2.33343e-06
2.14434e-06
2.06628e-06
1.23142e-05
-1.32588e-05
-2.06423e-06
-1.24856e-05
1.15144e-05
-2.22285e-06
2.25003e-06
1.33134e-05
-2.03407e-06
1.86024e-06
-1.37281e-05
2.06821e-06
0.000402597
-2.10917e-06
-0.000400014
3.15737e-05
2.06987e-05
-7.80183e-06
-2.18057e-05
8.57079e-06
0.00023505
-5.57804e-05
2.74768e-05
-0.000210521
-0.000405932
0.00040809
-5.18113e-05
8.79858e-05
-0.000442495
-5.85278e-05
0.000445244
7.66951e-05
6.04591e-06
-3.67083e-06
3.02774e-07
-9.94408e-06
-9.60412e-05
-0.00017673
0.000138282
0.000143324
2.76417e-05
2.69802e-05
-1.23457e-06
4.37541e-06
-0.000166676
0.000133925
-5.85306e-05
7.71918e-05
0.000115424
-7.48416e-05
-7.40566e-05
2.49009e-05
-0.000208837
-1.44476e-05
0.000186461
0.00016343
8.02381e-05
-0.00011924
-0.000113605
-2.21762e-06
-1.46396e-05
1.16483e-05
5.29642e-06
-3.52449e-05
0.000107331
-0.000115361
5.18375e-05
1.73417e-05
2.09016e-05
-1.74876e-05
-2.12684e-05
1.65487e-05
0.000281926
2.87761e-05
-0.000341554
-4.00102e-06
-1.09955e-05
-9.24943e-08
1.29439e-05
0.000346699
-0.000295127
-0.000143881
0.000159044
4.30004e-05
0.000183031
-0.000210184
0.000248381
-0.000274581
-1.52117e-05
4.17335e-05
-2.40481e-05
-1.94906e-06
1.03318e-06
2.75068e-05
0.000269399
1.53055e-05
-2.36734e-05
-0.000262062
-7.12186e-06
1.35919e-05
9.54355e-06
-1.49094e-05
-1.69701e-05
0.000237495
3.00989e-05
-9.00485e-06
-2.11829e-05
1.22247e-05
1.83629e-05
9.8464e-05
-1.37558e-05
-5.48011e-05
2.35563e-06
2.53105e-06
-1.41646e-05
1.34776e-05
-2.8175e-06
4.02903e-05
0.000521207
-0.000129572
5.45823e-06
-0.000409225
0.000435365
-4.17272e-05
4.61536e-09
5.16714e-05
2.03199e-05
3.55978e-09
-3.60597e-05
2.04024e-05
4.17394e-05
-3.60799e-05
2.04196e-05
5.16743e-05
2.03411e-05
-9.02283e-06
3.37697e-05
3.51016e-05
-3.6902e-05
-1.50815e-05
-2.6491e-05
4.36524e-05
2.04072e-05
2.76572e-05
-3.03945e-05
4.25049e-06
2.90918e-05
6.94844e-06
7.72417e-06
3.08686e-05
6.87531e-06
-3.30903e-05
1.23334e-09
2.04491e-05
1.2903e-09
-3.16481e-05
2.04887e-05
3.31214e-05
-3.16828e-05
2.04963e-05
2.04694e-05
-3.0997e-05
-1.58908e-10
2.05088e-05
2.12138e-09
-3.07209e-05
2.05186e-05
3.10354e-05
-3.07605e-05
2.05263e-05
2.05133e-05
-3.06116e-05
4.59229e-09
2.05254e-05
7.05938e-09
-3.05714e-05
2.05237e-05
3.06507e-05
-3.06085e-05
2.05414e-05
2.05352e-05
-3.05617e-05
4.85773e-09
2.05334e-05
2.02761e-10
-3.05561e-05
2.05382e-05
3.05894e-05
-3.05798e-05
2.05402e-05
2.05407e-05
-3.05503e-05
-2.33785e-09
2.05408e-05
-4.86144e-09
-3.05446e-05
2.05423e-05
3.05762e-05
-3.05763e-05
2.054e-05
2.0541e-05
-3.0539e-05
-8.93892e-09
2.05432e-05
-1.90612e-08
-3.05341e-05
2.05468e-05
3.05779e-05
-3.05868e-05
2.05289e-05
2.05333e-05
-3.05309e-05
-4.26472e-08
2.05554e-05
-9.49935e-08
-3.05194e-05
2.05746e-05
3.06041e-05
-3.06475e-05
2.04479e-05
2.04969e-05
-3.052e-05
-1.75529e-07
2.06481e-05
-4.56262e-07
-3.05173e-05
2.08665e-05
3.0683e-05
-3.08236e-05
2.01207e-05
2.03401e-05
-3.06317e-05
-7.62397e-07
2.12941e-05
-1.65116e-06
-3.04672e-05
2.18085e-05
3.08652e-05
-3.10367e-05
1.87794e-05
1.96657e-05
3.11399e-05
4.30868e-06
1.48496e-05
3.12341e-06
1.70528e-05
-3.01535e-05
2.28726e-05
-3.0192e-05
2.39999e-05
-2.94507e-05
2.51979e-05
3.2628e-05
3.94115e-05
5.58009e-09
2.01875e-05
6.76332e-05
2.02057e-05
6.7631e-05
4.1529e-05
-3.59118e-05
4.41662e-05
5.1414e-05
4.39852e-05
-1.57234e-05
-2.87721e-05
4.03495e-05
3.65644e-06
-3.10922e-05
-2.95504e-05
2.55726e-05
-3.14192e-05
2.49868e-05
3.0306e-05
-3.01835e-05
4.6259e-05
-3.03016e-05
3.03018e-05
4.50065e-05
4.548e-05
-3.02866e-05
3.03006e-05
4.44233e-05
4.46345e-05
-3.03204e-05
3.034e-05
4.43747e-05
4.43689e-05
-3.03658e-05
3.03818e-05
4.43905e-05
4.43743e-05
-3.03939e-05
3.04039e-05
4.43985e-05
4.43975e-05
-3.04129e-05
3.04214e-05
4.43915e-05
4.43959e-05
-3.04521e-05
3.05573e-05
4.43835e-05
4.43811e-05
-3.08297e-05
3.14749e-05
4.43418e-05
4.43634e-05
-3.29067e-05
3.5849e-05
4.42276e-05
4.42992e-05
-4.14948e-05
5.13998e-05
4.39359e-05
4.41096e-05
3.29759e-05
-3.15548e-05
4.43231e-05
4.42672e-05
3.09141e-05
-3.06427e-05
4.43785e-05
4.43558e-05
3.05325e-05
-3.04916e-05
4.44034e-05
4.43912e-05
3.04686e-05
-3.04625e-05
4.44122e-05
4.44017e-05
3.04577e-05
-3.04573e-05
4.44123e-05
4.44091e-05
3.04683e-05
-3.04777e-05
4.44132e-05
4.44173e-05
3.05125e-05
-3.05743e-05
4.43596e-05
4.43946e-05
3.06898e-05
-3.08926e-05
4.41277e-05
4.4286e-05
3.12033e-05
-3.16978e-05
4.29886e-05
4.37456e-05
4.16486e-05
-3.0146e-05
4.72402e-05
6.7294e-05
4.36481e-05
4.37041e-05
6.72838e-05
3.26795e-05
-3.32573e-05
6.8555e-05
3.22775e-05
7.04673e-05
3.9556e-05
-1.61758e-05
-2.97224e-05
2.47239e-05
-3.28973e-05
-3.00501e-05
4.81836e-05
-3.06109e-05
4.90686e-05
-3.06586e-05
3.03319e-05
7.79062e-05
-2.70427e-05
7.00579e-05
-3.19215e-05
4.94923e-05
-3.14268e-05
7.9251e-05
-3.02214e-05
3.01556e-05
7.6109e-05
7.69261e-05
-3.01207e-05
3.01276e-05
7.48878e-05
7.53723e-05
-3.01152e-05
3.00226e-05
7.45707e-05
7.45865e-05
-2.9993e-05
3.00169e-05
7.44766e-05
7.44883e-05
-3.00522e-05
3.00806e-05
7.4505e-05
7.44661e-05
-3.00999e-05
3.01147e-05
7.45319e-05
7.45261e-05
-3.01275e-05
3.0139e-05
7.45257e-05
7.45305e-05
-3.01611e-05
3.02823e-05
7.45011e-05
7.45165e-05
-3.0536e-05
3.11707e-05
7.44521e-05
7.45014e-05
-3.25773e-05
3.54828e-05
7.42833e-05
7.4392e-05
-4.10481e-05
5.08541e-05
7.37842e-05
7.40949e-05
4.32265e-05
-1.99938e-05
9.06077e-05
-6.65831e-05
8.96778e-05
7.25875e-05
7.33217e-05
-7.27586e-09
2.00164e-05
9.10415e-05
9.10461e-05
6.65922e-05
-5.08641e-05
7.33964e-05
-4.32651e-05
7.26769e-05
8.96593e-05
9.05939e-05
4.10932e-05
-3.55409e-05
7.41823e-05
7.38852e-05
3.26476e-05
-3.12512e-05
7.44342e-05
7.43471e-05
3.06272e-05
-3.03619e-05
7.45124e-05
7.44849e-05
3.02564e-05
-3.02159e-05
7.4547e-05
7.45304e-05
3.02035e-05
-3.01893e-05
7.45606e-05
7.45542e-05
3.0187e-05
-3.01953e-05
7.45827e-05
7.45657e-05
3.02045e-05
-3.02261e-05
7.46001e-05
7.4591e-05
3.02752e-05
-3.03721e-05
7.46203e-05
7.46082e-05
3.05515e-05
-3.08086e-05
7.45498e-05
7.46287e-05
3.11918e-05
-3.17099e-05
7.37047e-05
7.43007e-05
7.25125e-05
2.72536e-05
-2.81031e-05
6.95037e-05
7.03745e-05
3.01512e-05
-3.01136e-05
0.00010678
3.06855e-05
0.0001078
4.26299e-05
-1.97187e-05
0.000121605
7.15934e-05
0.000120376
6.55473e-05
-5.009e-05
0.000109865
8.82878e-05
0.000108755
3.21416e-06
-3.13008e-05
-3.9618e-05
6.87832e-05
-2.85733e-05
-1.70655e-05
-2.98247e-05
5.0202e-05
-3.37481e-05
-3.12752e-05
3.06465e-05
0.00011446
2.75725e-05
-2.852e-05
0.000105775
2.72517e-05
0.00010649
8.0498e-05
-3.27136e-05
-2.82869e-05
0.00010662
-3.19844e-05
0.000115951
-3.02718e-05
3.0106e-05
0.000112569
0.000113352
-2.9981e-05
2.98559e-05
0.000111518
0.000111864
-2.97468e-05
2.97614e-05
0.000111412
0.00011137
-2.97317e-05
2.96732e-05
0.000111464
0.000111396
-2.96375e-05
2.96557e-05
0.000111439
0.00011144
-2.96784e-05
2.96959e-05
0.000111475
0.000111463
-2.97112e-05
2.973e-05
0.000111465
0.000111475
-2.97553e-05
2.98623e-05
0.000111441
0.000111466
-3.01292e-05
3.07478e-05
0.000111377
0.000111435
-3.21241e-05
3.4974e-05
0.000111154
0.000111302
-4.04415e-05
5.00697e-05
0.00011043
0.000110887
-6.5555e-05
8.83021e-05
0.000108622
0.000109745
-6.94535e-09
1.97391e-05
0.00012217
0.000122175
-4.26689e-05
7.16517e-05
0.00012036
0.000121589
4.04572e-05
-3.50029e-05
0.000111009
0.000110548
3.21501e-05
-3.07916e-05
0.000111374
0.000111227
3.01809e-05
-2.99307e-05
0.000111468
0.000111429
2.98314e-05
-2.97872e-05
0.000111499
0.000111486
2.9776e-05
-2.97754e-05
0.000111534
0.000111518
2.97878e-05
-2.9795e-05
0.000111572
0.000111555
2.98081e-05
-2.98433e-05
0.00011163
0.00011159
2.99008e-05
-3.00167e-05
0.000111756
0.000111667
3.01454e-05
-3.03209e-05
0.000111793
0.000111798
3.05517e-05
-3.07301e-05
0.000111119
0.000111644
0.000109926
0.000106816
0.000107115
0.000118565
0.000118516
0.000107251
2.4088e-05
-3.36803e-05
6.83273e-05
-3.99507e-05
-2.86904e-05
-2.91327e-05
0.000104281
2.27257e-06
-3.12233e-05
0.000117789
-3.30311e-05
2.89937e-05
-2.86846e-05
0.000150151
2.91557e-05
0.000151163
-2.79919e-05
0.000149546
8.25169e-05
-3.5052e-05
8.65408e-05
-6.42587e-05
0.000150097
0.000116191
0.000148011
7.03672e-05
-4.18923e-05
0.000157141
0.000105305
0.000154777
5.35212e-05
-3.82145e-05
-1.82336e-05
-2.92851e-05
-6.78564e-05
-2.83077e-05
0.00010121
-4.07415e-05
-2.80995e-05
2.70105e-05
-9.43773e-05
-1.40759e-05
0.000114829
-9.74499e-05
3.36786e-05
0.000127474
-2.60739e-05
-6.68234e-05
2.14298e-05
-3.2654e-05
3.19973e-05
0.000159723
-3.25138e-05
-3.14191e-05
3.07804e-05
0.000156389
0.000157781
-3.03006e-05
2.99595e-05
0.000154579
0.000155303
-2.95717e-05
2.93589e-05
0.000153877
0.000154101
-2.92904e-05
2.92207e-05
0.000153854
0.000153679
-2.92273e-05
2.92162e-05
0.000153933
0.000153795
-2.91832e-05
2.91477e-05
0.000153943
0.000153935
-2.91547e-05
2.91665e-05
0.000153938
0.000153929
-2.91792e-05
2.91982e-05
0.000153917
0.000153936
-2.92388e-05
2.93474e-05
0.000153891
0.000153917
-2.96119e-05
3.02218e-05
0.000153818
0.000153884
-3.15531e-05
3.43375e-05
0.00015355
0.00015375
-3.96782e-05
4.90941e-05
0.000152592
0.000153208
0.000151657
-7.03129e-05
0.000105203
0.000154829
4.18562e-05
-1.93585e-05
0.000158743
0.000157149
-7.9922e-09
1.93798e-05
0.000159472
0.000159476
0.000158728
-8.65254e-05
0.000116184
0.0001482
6.42657e-05
-4.90982e-05
0.000151791
0.000150297
3.9681e-05
-3.4329e-05
0.000153338
0.000152725
3.15641e-05
-3.02179e-05
0.000153822
0.000153656
2.9616e-05
-2.93721e-05
0.000153949
0.000153892
2.92703e-05
-2.92358e-05
0.000153976
0.000153957
2.92295e-05
-2.92369e-05
0.000154034
0.000154003
2.92457e-05
-2.92611e-05
0.000154089
0.00015406
2.92702e-05
-2.93049e-05
0.000154188
0.000154106
2.93384e-05
-2.94168e-05
0.000154416
0.000154235
2.94716e-05
-2.95517e-05
0.000154565
0.000154459
2.95273e-05
-2.94055e-05
0.00015386
0.000154358
0.000152749
2.76514e-05
-2.81084e-05
0.000149633
0.000149621
2.95152e-05
-3.1592e-05
0.000148041
0.000149349
0.000143792
0.000120244
-3.41252e-05
0.000145388
0.00015172
0.000151748
0.000145506
2.78067e-05
-2.7762e-05
0.000197162
2.80364e-05
0.000197832
-2.76114e-05
0.00019654
4.85284e-05
0.000208195
-8.39263e-05
8.55411e-05
-3.74705e-05
7.7121e-07
-3.08583e-05
-2.00501e-05
-2.81566e-05
-6.6338e-05
-2.23819e-05
3.6867e-05
-3.04023e-05
-0.000131499
1.03118e-05
0.000212957
-4.77499e-05
-3.17065e-05
3.16048e-05
0.000204543
-4.10069e-05
-2.68933e-05
0.000161998
-3.25548e-05
-3.13605e-05
0.000206514
-9.88135e-05
-1.06655e-05
-3.10256e-05
3.04065e-05
0.000201909
0.000203078
-2.98492e-05
2.93894e-05
0.000200412
0.000200991
-2.90484e-05
2.88383e-05
0.00019987
0.000200034
-2.86831e-05
2.86123e-05
0.000199945
0.000199686
-2.85712e-05
2.8551e-05
0.000200042
0.000199869
-2.85607e-05
2.85551e-05
0.000200044
0.000200017
-2.85431e-05
2.85514e-05
0.000200025
0.000200033
-2.85603e-05
2.85776e-05
0.000199989
0.000200019
-2.86298e-05
2.87321e-05
0.000199962
0.000199971
-2.89893e-05
2.95783e-05
0.000199889
0.000199955
-3.08952e-05
3.3606e-05
0.000199575
0.000199808
-3.88103e-05
4.79832e-05
0.000198387
0.000199157
-6.27853e-05
8.4524e-05
0.000195169
0.000197174
-0.00011347
0.000148206
0.000189026
0.000192455
-0.000142274
0.00018499
0.000186612
0.000102963
-6.87748e-05
0.00019487
0.00019103
4.09401e-05
-1.89222e-05
0.000199768
0.000197798
-7.2575e-09
1.89438e-05
0.000200701
0.000200706
-4.09694e-05
6.88335e-05
0.000197793
0.000199761
-0.000103034
0.00014239
0.000191063
0.000194852
-0.000148228
0.000186613
0.000185195
0.000113504
-8.45687e-05
0.000192725
0.000189207
6.27957e-05
-4.80058e-05
0.000197332
0.000195376
3.88184e-05
-3.36049e-05
0.000199295
0.000198516
3.08884e-05
-2.95788e-05
0.000199902
0.000199694
2.89875e-05
-2.87395e-05
0.000200052
0.000199982
2.86402e-05
-2.86032e-05
0.000200075
0.000200054
2.85968e-05
-2.86042e-05
0.000200148
0.0002001
2.86036e-05
-2.86194e-05
0.000200223
0.000200169
2.86305e-05
-2.86307e-05
0.000200338
0.000200245
2.86525e-05
-2.87072e-05
0.000200697
0.000200417
2.87099e-05
-2.8682e-05
0.00020086
0.00020071
2.85321e-05
-2.83501e-05
0.000200146
0.000200542
0.00019905
2.76792e-05
-2.85845e-05
0.000197285
0.000196595
3.09337e-05
-3.63125e-05
0.00019973
0.000198229
0.000202143
-0.000123088
0.00016428
-3.10975e-05
-3.38457e-05
2.44482e-05
-3.52676e-05
-3.04222e-05
0.000208537
2.69721e-05
-2.69088e-05
0.000245555
2.71563e-05
0.00024605
-2.7018e-05
0.000245132
0.000144286
-0.000110478
0.000234215
0.000181631
0.000229284
0.000138964
-0.000100527
0.000232032
0.000180737
0.000226656
-3.55788e-06
-2.8646e-05
-2.03508e-05
-2.74489e-05
-4.08979e-05
-2.57599e-05
0.000202584
-2.31147e-06
-0.000143303
-4.51529e-06
4.9108e-06
0.000252341
-0.000198114
-6.7345e-06
0.000248641
-8.27421e-06
-0.000146909
0.000166735
-0.000125269
-2.92725e-05
8.77813e-05
-5.69857e-05
-6.77096e-05
-2.1171e-05
-2.53623e-05
4.20848e-05
0.000210497
-2.90461e-05
-1.25443e-05
-0.000101818
3.04376e-05
-3.01277e-05
0.000254318
-3.07189e-05
3.0634e-05
0.000250793
0.000252293
-3.01507e-05
2.96224e-05
0.000249019
0.000249947
-2.90889e-05
2.85982e-05
0.000247962
0.000248346
-2.83781e-05
2.81582e-05
0.000247483
0.000247471
-2.79018e-05
2.7918e-05
0.000247528
0.000247425
-2.78109e-05
2.78473e-05
0.000247657
0.000247592
-2.78375e-05
2.7851e-05
0.000247685
0.000247676
-2.78627e-05
2.78727e-05
0.000247665
0.000247674
-2.78794e-05
2.78916e-05
0.000247621
0.000247655
-2.79328e-05
2.80477e-05
0.000247584
0.0002476
-2.83021e-05
2.88709e-05
0.00024752
0.00024758
-3.01591e-05
3.28015e-05
0.000247151
0.00024741
-3.78699e-05
4.68043e-05
0.000245731
0.000246657
-6.11891e-05
8.23239e-05
0.000241828
0.000244269
0.000238484
-0.000138859
0.000180619
0.000226612
0.000100485
-6.71119e-05
0.000236626
0.000232021
3.9923e-05
-1.84505e-05
0.000242524
0.000240139
-6.92296e-09
1.84625e-05
0.000243646
0.000243652
-3.99436e-05
6.71333e-05
0.000240144
0.000242508
0.000236604
-0.000144319
0.000181732
0.000229497
0.000110542
-8.2321e-05
0.000238749
0.000234492
6.11836e-05
-4.6781e-05
0.000244413
0.00024206
3.78636e-05
-3.27923e-05
0.000246805
0.000245882
3.01492e-05
-2.88685e-05
0.000247531
0.000247284
2.83051e-05
-2.80293e-05
0.000247684
0.000247647
2.79326e-05
-2.7912e-05
0.000247746
0.000247708
2.79019e-05
-2.78974e-05
0.00024781
0.000247765
2.79056e-05
-2.79186e-05
0.000247906
0.00024783
2.78863e-05
-2.79049e-05
0.000248064
0.000247886
2.79338e-05
-2.79047e-05
0.00024847
0.000248162
2.79688e-05
-2.77925e-05
0.000248622
0.000248614
2.76077e-05
-2.73848e-05
0.000248034
0.000248348
0.000247043
2.73792e-05
-2.82631e-05
0.00024659
0.000245354
2.99113e-05
-3.16493e-05
0.00025034
0.000248392
3.1552e-05
-2.02778e-05
0.000251713
0.000252148
0.000252055
-3.06924e-05
-2.94088e-05
0.000255476
0.000223819
0.00022064
0.000220731
0.000224005
-2.61752e-05
2.63509e-05
0.000293713
-2.62211e-05
0.000293453
-0.000169164
0.000212105
-2.73563e-05
-0.000129766
-2.59215e-05
-2.75796e-05
7.00645e-06
-2.83134e-06
-2.81015e-05
-1.98818e-05
-2.73163e-05
-4.13264e-05
-2.53747e-05
-0.000197044
0.000248461
-1.00406e-05
-1.24712e-05
-0.000147815
-0.000251653
0.000294044
1.36306e-05
-1.45968e-05
-1.47831e-05
-0.000104512
-9.29154e-06
-1.72793e-05
2.20965e-05
6.51517e-06
-6.88299e-05
-2.06784e-05
0.000256027
-2.82635e-05
2.93221e-05
-2.91301e-05
0.000300202
-2.95191e-05
3.00398e-05
0.000299136
0.000300248
-2.98333e-05
2.92593e-05
0.000297149
0.000297958
-2.88286e-05
2.86234e-05
0.000295529
0.000296525
-2.81763e-05
2.78546e-05
0.000294991
0.000295331
-2.73815e-05
2.72989e-05
0.000294583
0.00029479
-2.71356e-05
2.71277e-05
0.000294692
0.000294702
-2.70693e-05
2.70915e-05
0.000294832
0.000294837
-2.71008e-05
2.71301e-05
0.000294849
0.000294869
-2.71451e-05
2.71598e-05
0.000294829
0.000294847
-2.71713e-05
2.71767e-05
0.000294801
0.000294815
-2.72188e-05
2.73035e-05
0.000294768
0.000294772
-2.75589e-05
2.81227e-05
0.000294669
0.000294725
-2.93789e-05
3.19513e-05
0.000294251
0.000294536
-3.68851e-05
4.55032e-05
0.000292679
0.000293679
-5.95255e-05
8.0037e-05
0.000288083
0.000290859
-0.000107357
0.000140143
0.000279103
0.000284153
-0.000176488
0.00021438
0.000266706
0.000273184
-0.000218179
0.000259972
0.00025207
0.000176043
-0.000135338
0.000266377
0.000259398
9.78662e-05
-6.53012e-05
0.000278018
0.000272678
3.88478e-05
-1.79412e-05
0.000284923
0.000282167
-4.07957e-09
1.79526e-05
0.000286244
0.000286249
-3.88594e-05
6.53374e-05
0.000282163
0.000284911
-9.78889e-05
0.000135372
0.000272691
0.000278029
-0.000176108
0.000218303
0.000259467
0.000266411
-0.000214537
0.000252223
0.00026015
0.000176661
-0.000140293
0.000273436
0.000266983
0.000107456
-8.00364e-05
0.000284354
0.000279397
5.95097e-05
-4.55e-05
0.000291012
0.00028832
3.68623e-05
-3.19377e-05
0.000293844
0.000292809
2.93794e-05
-2.8112e-05
0.00029466
0.000294411
2.75392e-05
-2.73056e-05
0.000294879
0.000294815
2.72153e-05
-2.71731e-05
0.000294921
0.000294897
2.7167e-05
-2.71654e-05
0.000295007
0.000294964
2.71816e-05
-2.71467e-05
0.000295066
0.000295028
2.72149e-05
-2.71505e-05
0.000295233
0.000295152
2.72542e-05
-2.71158e-05
0.000295658
0.00029553
2.70033e-05
-2.68234e-05
0.000295944
0.000295922
2.6781e-05
-2.65279e-05
0.000295406
0.000295824
0.000294619
2.67441e-05
-2.71783e-05
0.000295
-2.6259e-05
0.000293069
0.000293747
2.80289e-05
-2.69818e-05
0.00029773
0.000297411
2.29789e-05
-1.72132e-05
0.000296906
0.000298015
1.29645e-05
-9.42515e-06
0.000298658
0.000298944
9.26266e-06
-9.6019e-06
0.000297547
0.000297234
1.53554e-05
0.000327443
-0.000247783
9.20402e-06
-0.000248696
0.000305805
0.000249027
-1.4141e-05
-0.000196246
0.000298049
-2.14983e-05
8.64698e-06
8.60864e-06
-8.78216e-06
-7.64539e-06
0.000256729
-0.00021359
-2.69414e-05
-2.85908e-05
0.000299971
1.45195e-05
-2.85779e-05
-2.34918e-06
-1.37215e-05
0.000208129
-0.000171344
0.000307603
0.000244732
0.000299806
0.000212548
-0.000171456
0.000296328
0.000253374
0.000288023
-2.02173e-06
-2.808e-05
-1.7725e-05
-0.000195456
-2.00105e-05
-2.73575e-05
-1.55607e-05
-0.000147779
-1.66422e-05
-0.000105647
-4.17085e-05
-2.52191e-05
-6.98617e-05
-2.11386e-05
1.06308e-05
-2.52647e-06
2.65171e-06
-8.97498e-06
-1.68675e-05
1.8974e-05
1.65875e-05
-1.57362e-05
-7.14121e-06
9.86677e-06
2.28732e-05
-1.34084e-05
4.27949e-05
6.70201e-06
-3.27629e-05
-3.35454e-05
4.16666e-06
-1.69337e-05
-2.08157e-06
1.82811e-05
-0.000171729
-2.5294e-05
-0.000132669
-2.32496e-05
-1.01316e-05
-1.2082e-05
1.47518e-05
1.03171e-05
0.000214285
-0.000172676
-2.34996e-05
-1.24088e-05
0.00034444
5.07138e-05
-8.63661e-08
0.00034154
6.09397e-05
-3.40638e-05
-2.30879e-05
1.83256e-05
9.63425e-05
-1.88272e-05
0.00025674
-2.5176e-05
-9.98259e-06
1.00213e-05
-2.8047e-05
0.000299616
3.31477e-07
-3.65672e-05
-1.23932e-05
3.89408e-05
0.00025535
-0.000214298
-2.25186e-05
-2.6498e-05
0.000296503
3.34011e-06
-2.97708e-06
9.99476e-06
1.68171e-05
-0.000283281
2.10133e-05
0.000280976
0.000292029
-0.000255176
-2.13248e-05
-3.39923e-05
3.31235e-05
0.000333076
-0.000283495
0.00030355
-3.13353e-05
3.06643e-05
0.000341838
0.000339408
-2.97926e-05
2.93079e-05
0.000342954
0.000342593
-2.91602e-05
2.8507e-05
0.000342892
0.000343092
-2.82409e-05
2.79892e-05
0.000341207
0.000341703
-2.788e-05
2.73006e-05
0.000340284
0.000340656
-2.70145e-05
2.67626e-05
0.000339824
0.000340059
-2.66004e-05
2.6469e-05
0.000339473
0.000339642
-2.63946e-05
2.63413e-05
0.000339617
0.000339632
-2.63413e-05
2.63452e-05
0.00033973
0.000339733
-2.63773e-05
2.63843e-05
0.000339736
0.000339741
-2.64146e-05
2.64274e-05
0.000339691
0.000339696
-2.6452e-05
2.64843e-05
0.00033966
0.000339673
-2.64962e-05
2.65864e-05
0.000339621
0.000339655
-2.68352e-05
2.73897e-05
0.000339508
0.000339562
-2.85908e-05
3.1083e-05
0.000339046
0.00033937
-3.58434e-05
4.42912e-05
0.000337244
0.00033842
-5.78356e-05
7.77667e-05
0.000332072
0.00033523
-0.000104248
0.000136101
0.000321849
0.000327682
0.000315068
-0.000212527
0.000253213
0.000287979
0.000171416
-0.000131731
0.000304172
0.000296226
9.5218e-05
-6.35118e-05
0.000317356
0.000311315
3.77577e-05
-1.74381e-05
0.000325191
0.000322075
-4.60486e-09
1.74431e-05
0.000326685
0.000326688
-3.77592e-05
6.35189e-05
0.000322063
0.000325181
-9.52201e-05
0.000131746
0.000311318
0.000317372
0.000304192
-0.000208258
0.000244838
0.000300065
0.000171429
-0.000136181
0.000315378
0.000307912
0.000104279
-7.77176e-05
0.00032781
0.000322148
5.77753e-05
-4.42417e-05
0.000335386
0.000332307
3.58322e-05
-3.10585e-05
0.000338576
0.000337408
2.85594e-05
-2.73655e-05
0.000339509
0.00033921
2.68126e-05
-2.65709e-05
0.000339725
0.000339657
2.64877e-05
-2.64396e-05
0.000339787
0.000339771
2.64178e-05
-2.64133e-05
0.00033987
0.000339822
2.64438e-05
-2.64882e-05
0.000339994
0.000339934
2.64114e-05
-2.6407e-05
0.00034015
0.000339963
2.64217e-05
-2.62216e-05
0.000340462
0.000340518
2.61866e-05
-2.60932e-05
0.000341023
0.000341019
2.6032e-05
-2.57824e-05
0.000340373
0.00034096
2.56486e-05
-2.55784e-05
0.000339088
0.00033984
2.55457e-05
-2.57137e-05
0.000338679
0.000338881
2.62462e-05
-2.65855e-05
0.000340875
0.000339769
2.48917e-05
-2.34623e-05
0.000342452
0.000341582
1.99411e-05
-1.75299e-05
0.000341762
0.00034152
1.38469e-05
-1.14944e-05
0.00034344
0.000342725
8.31035e-06
-3.58781e-06
0.000339576
0.000340666
0.000342302
-9.22266e-06
-1.6063e-05
1.06298e-05
-7.08594e-06
-1.51582e-05
-1.59539e-05
1.59946e-05
-2.04404e-05
-2.73414e-05
2.4823e-05
-1.41728e-05
9.90258e-06
-1.00772e-05
0.000188696
-0.000363567
0.000416666
-0.000181229
-1.58402e-05
1.56802e-05
-1.29795e-05
1.08458e-05
-1.33303e-05
-0.000228149
0.000292028
0.000279564
0.000279636
0.000292278
1.21022e-05
1.9062e-05
-0.000133092
-2.19687e-05
-6.19238e-05
9.54861e-05
-2.21866e-05
-3.54514e-05
-2.56249e-05
1.53286e-05
-2.87549e-05
-2.22267e-05
-0.000193235
2.91508e-06
-2.79931e-06
-2.59198e-05
2.84729e-05
-0.000173283
-2.13677e-05
7.1797e-06
-2.1683e-07
0.000377732
0.000378548
1.94075e-05
0.000341053
4.25457e-05
-0.000283917
-1.59677e-06
-2.83996e-05
-1.84919e-05
-0.000146684
-1.82787e-05
-0.000105698
-0.000214747
-1.95148e-05
-0.000277051
-0.000111985
0.000413141
5.63257e-06
-2.00878e-05
-2.74455e-05
-4.13284e-05
8.12983e-05
0.000428774
-0.000418158
-0.000252254
-1.14516e-05
2.79123e-05
5.2601e-07
-4.20845e-05
-2.52653e-05
-2.18657e-05
-7.04251e-05
-1.027e-05
8.66152e-06
1.10831e-05
-1.26664e-05
9.68318e-06
-9.82607e-06
0.000263141
-0.000225442
-3.62756e-06
-1.65523e-05
1.15674e-05
-1.61815e-05
1.1046e-05
1.2215e-05
-1.32699e-05
-2.39294e-06
-6.22411e-05
4.02685e-05
0.000392858
0.000419688
-0.000140232
-3.31031e-05
3.07425e-05
0.000382557
0.000384773
-2.94727e-05
2.85382e-05
0.000382667
0.000382356
-2.76617e-05
2.75166e-05
0.00038247
0.000383107
-2.7009e-05
2.66571e-05
0.000381675
0.000381973
-2.64033e-05
2.61571e-05
0.000381033
0.000381259
-2.59871e-05
2.58563e-05
0.000380693
0.00038087
-2.5736e-05
2.56149e-05
0.000380438
0.00038057
-2.5607e-05
2.55526e-05
0.00038059
0.000380539
-2.55824e-05
2.56244e-05
0.000380622
0.000380643
-2.5652e-05
2.56809e-05
0.000380632
0.000380641
-2.57219e-05
2.5726e-05
0.000380604
0.000380575
-2.57512e-05
2.57722e-05
0.000380551
0.000380557
-2.5802e-05
2.58912e-05
0.000380505
0.000380549
-2.61273e-05
2.6657e-05
0.000380391
0.000380441
-2.78365e-05
3.02528e-05
0.00037988
0.000380223
-3.48827e-05
4.30317e-05
0.000377903
0.00037919
-5.61494e-05
7.54318e-05
0.000372246
0.000375701
-0.00010125
0.000132169
0.000360894
0.000367294
-0.000166397
0.000202113
0.000344993
0.000353337
-0.000237617
0.00027141
0.000327531
0.000336255
-0.000284539
0.000319101
0.00030231
0.00024674
-0.000206933
0.000320634
0.000311428
0.000166921
-0.000128211
0.000338637
0.000329906
9.26162e-05
-6.1741e-05
0.000353212
0.000346538
3.66739e-05
-1.69325e-05
0.000361875
0.000358423
-3.59165e-09
1.69444e-05
0.000363523
0.000363526
-3.6691e-05
6.17453e-05
0.000358428
0.000361868
-9.26251e-05
0.000128218
0.000346546
0.000353226
-0.000166958
0.000207048
0.000329957
0.000338635
-0.000246844
0.000284745
0.000311437
0.000320723
-0.000271498
0.000302376
0.00031938
0.000237719
-0.000202204
0.000336566
0.000327859
0.00016645
-0.000132158
0.000353637
0.000345332
0.000101165
-7.54018e-05
0.000367472
0.000361154
5.60748e-05
-4.29609e-05
0.000375845
0.000372432
3.48291e-05
-3.02059e-05
0.00037935
0.000378076
2.77909e-05
-2.66081e-05
0.000380364
0.000380048
2.60672e-05
-2.58714e-05
0.000380631
0.000380522
2.5768e-05
-2.57099e-05
0.000380673
0.000380643
2.57072e-05
-2.57184e-05
0.000380776
0.000380734
2.56818e-05
-2.56264e-05
0.000380856
0.000380798
2.56616e-05
-2.57207e-05
0.00038117
0.000380917
2.54908e-05
-2.5701e-05
0.000381713
0.0003813
2.54745e-05
-2.53882e-05
0.000382095
0.000381928
2.51263e-05
-2.50551e-05
0.000381556
0.000381903
2.49516e-05
-2.4952e-05
0.000380536
0.000381096
2.4995e-05
-2.51228e-05
0.000380243
0.000380375
2.49008e-05
-2.4094e-05
0.000381676
0.000381066
2.34641e-05
-2.13338e-05
0.000382355
0.000382745
2.029e-05
-1.78187e-05
0.000381678
0.000382841
1.53927e-05
-9.71168e-06
0.000380359
0.00038291
8.12636e-06
-4.83353e-06
0.000378923
0.000381697
0.000380954
-1.81624e-05
1.82877e-05
-1.69099e-05
1.87827e-05
1.83769e-05
-0.000309659
9.55908e-05
0.000411624
-0.00015611
-6.37951e-06
8.48243e-06
-1.12508e-05
-4.84184e-06
-2.15364e-05
-2.837e-05
-1.69094e-05
1.46708e-05
1.48699e-05
2.07094e-05
-1.8424e-05
-0.000183417
-0.000187148
-1.7666e-05
2.51638e-05
1.27583e-05
-1.41688e-05
1.80917e-05
1.0326e-05
-1.34791e-05
-2.28344e-06
-1.11246e-05
1.00466e-05
-0.000132801
-2.18916e-05
-2.37442e-06
4.09179e-06
0.000414512
3.2201e-06
0.000412525
0.000382284
2.30713e-05
1.60443e-05
-2.87608e-05
-6.23721e-05
9.53155e-05
-2.44489e-05
-3.62541e-05
-2.69382e-05
-1.37239e-05
2.01978e-05
-2.20145e-05
-1.99402e-05
-0.000146045
-2.42952e-06
1.08463e-05
0.000263886
-0.000231035
0.000358338
0.000293864
0.000349118
0.000277776
-0.000240753
0.000339317
0.00031153
0.000329509
-1.9409e-05
-0.00010506
1.34437e-05
1.88565e-05
-1.56115e-05
-1.6317e-05
-0.000172961
-2.01705e-05
0.000351129
2.8616e-05
-1.17072e-05
6.20632e-06
8.56684e-06
-1.39074e-05
-3.14951e-06
-1.43899e-05
2.74029e-06
1.47284e-05
3.4822e-06
-4.06709e-06
-1.46052e-05
-1.95013e-05
2.36338e-05
-5.30016e-06
1.59633e-06
-1.66886e-06
-2.84144e-05
2.84144e-05
-2.66167e-05
-2.28537e-05
2.34791e-05
2.47676e-05
2.74556e-05
-2.58335e-05
-2.27515e-05
2.10467e-05
-1.61707e-05
1.53661e-05
2.11232e-05
-2.71201e-05
-2.57557e-06
2.07801e-05
-2.72334e-05
-2.18683e-05
2.90872e-05
1.68161e-05
-2.83516e-05
3.11055e-05
-0.000213864
-1.48818e-05
0.000309
1.46839e-05
-1.43853e-05
3.31653e-06
1.66405e-05
-2.3309e-06
4.5558e-06
-3.33073e-06
-1.29467e-05
1.45432e-05
5.15703e-06
-1.29941e-05
1.62889e-05
4.23257e-06
-2.93324e-05
2.9725e-05
-1.05346e-05
1.26491e-05
-2.03021e-05
-2.74537e-05
-2.24528e-05
-7.06278e-05
-0.000253124
-3.81545e-07
-9.68128e-06
7.46212e-06
-7.63566e-06
-4.23746e-05
-2.53794e-05
2.62255e-05
2.50075e-05
-2.41352e-05
-2.28418e-05
-2.55326e-05
2.87327e-05
2.9403e-05
3.07845e-05
2.6105e-05
-0.000291297
4.23587e-05
-1.16573e-05
8.58188e-06
2.78945e-05
2.99672e-05
-1.41526e-05
8.90454e-06
-1.88693e-05
-1.49417e-05
-0.000181948
1.23343e-05
-2.51778e-06
0.000272433
-0.000227091
1.91479e-06
5.65011e-05
-2.88364e-05
-1.96067e-05
2.78566e-05
0.000418263
0.000419348
1.62367e-05
-2.91335e-05
2.85807e-05
0.000416732
0.000417041
-2.84459e-05
2.76867e-05
0.000417222
0.000416128
-2.72353e-05
2.62225e-05
0.000417549
0.000417463
-2.5818e-05
2.55094e-05
0.000416828
0.000416867
-2.54304e-05
2.52249e-05
0.000416378
0.000416357
-2.51147e-05
2.50124e-05
0.000416112
0.000416225
-2.4959e-05
2.48375e-05
0.000415958
0.000415991
-2.4842e-05
2.48592e-05
0.000416002
0.000415958
-2.49266e-05
2.4955e-05
0.000416008
0.000416
-2.49967e-05
2.50424e-05
0.000415992
0.000416002
-2.50568e-05
2.51048e-05
0.000415927
0.000415969
-2.51166e-05
2.51445e-05
0.000415904
0.000415911
-2.51816e-05
2.52587e-05
0.000415878
0.000415904
-2.54527e-05
2.59915e-05
0.000415733
0.000415828
-2.71242e-05
2.9463e-05
0.000415213
0.000415585
-3.39431e-05
4.18497e-05
0.000413078
0.000414472
-5.4589e-05
7.33615e-05
0.000406981
0.000410715
-9.8402e-05
0.000128486
0.000394719
0.000401642
-0.000161788
0.000196525
0.000377439
0.000386518
0.000367905
-0.000277628
0.000311351
0.000329439
0.000240607
-0.000201861
0.000349409
0.000339277
0.000162712
-0.000124906
0.000368835
0.000359387
9.01542e-05
-6.00831e-05
0.000384639
0.000377372
3.5674e-05
-1.64638e-05
0.000393984
0.00039025
-2.86364e-09
1.64671e-05
0.000395769
0.000395769
-3.56686e-05
6.00788e-05
0.000390249
0.000393984
-9.01543e-05
0.000124923
0.000377365
0.000384647
-0.000162691
0.000201905
0.000359371
0.000368867
0.000349418
-0.000263975
0.000293952
0.000349455
0.000231132
-0.000196586
0.00036824
0.000358744
0.000161744
-0.000128391
0.000386805
0.000377724
9.82571e-05
-7.32408e-05
0.000401833
0.000394944
5.44811e-05
-4.17612e-05
0.000410857
0.00040716
3.38531e-05
-2.93828e-05
0.000414634
0.000413238
2.70436e-05
-2.59039e-05
0.00041572
0.000415377
2.5411e-05
-2.51842e-05
0.000416007
0.000415917
2.50569e-05
-2.50328e-05
0.000416054
0.000415998
2.50265e-05
-2.50251e-05
0.000416144
0.000416109
2.49733e-05
-2.50064e-05
0.000416281
0.000416118
2.50705e-05
-2.51069e-05
0.000416668
0.000416389
2.51223e-05
-2.49096e-05