/*--------------------------------*- C++ -*----------------------------------*\
| =========                 |                                                 |
| \\      /  F ield         | OpenFOAM: The Open Source CFD Toolbox           |
|  \\    /   O peration     | Version:  2212                                  |
|   \\  /    A nd           | Website:  www.openfoam.com                      |
|    \\/     M anipulation  |                                                 |
\*---------------------------------------------------------------------------*/
FoamFile
{
    version     2.0;
    format      ascii;
    arch        "LSB;label=32;scalar=64";
    class       volScalarField;
    location    "0.0642";
    object      epsilon;
}
// * * * * * * * * * * * * * * * * * * * * * * * * * * * * * * * * * * * * * //

dimensions      [0 2 -3 0 0 0 0];

internalField   nonuniform List<scalar> 
31661
(
1.08257e+06
90979.4
105503
96791.8
90131.9
102357
95022.9
89626.4
100030
93766
1.05257e+07
126472
3.31534e+07
260121
534655
652921
626973
804746
176404
617315
666310
662996
2.13262e+06
895767
99858.5
702305
3.34648e+06
1.41695e+06
124813
110051
816674
1.66681e+06
1.81539e+06
204520
322172
648436
387179
598422
726434
2.16978e+06
1.35306e+06
89882.3
340233
119254
121105
133876
121224
261698
371476
280217
1.0542e+06
479160
140482
270104
526728
151099
151572
145435
508246
153022
136624
140579
149409
77596.9
354787
1.52671e+06
5.70527e+06
450204
386990
329095
123256
254664
215470
182167
155140
133387
116339
103100
93021.9
85406
79755.6
75612
72626.9
70500.2
71460.9
73915.1
77332.7
82020.2
88309.1
96620.1
107407
121180
138544
160057
186092
217264
251722
287830
331386
380039
431128
480390
527909
597431
580560
649546
630815
694311
675431
730939
713399
759657
744520
781230
768955
796717
787280
807256
800358
813892
809103
817515
814391
818848
816987
818456
817520
816766
816490
814104
814282
810716
811194
806789
807455
802465
803240
797853
798683
793038
793883
788093
788926
783080
783886
778054
778821
773063
773786
768152
768828
763371
763998
758769
759350
754398
754935
750316
750812
746589
747047
743288
743714
740506
740906
738354
738733
736963
737326
736851
736500
736857
737213
738519
740604
743332
746591
750294
754359
758716
763307
768081
772985
777973
782995
788002
792936
797732
802315
806591
810442
813715
816205
817644
817676
815833
811506
803926
792154
775144
751784
721100
682444
635562
580552
519369
453274
386152
323769
270260
226035
190409
161605
138506
120306
106149
95340.7
69732.2
69022.2
87186.8
81148.8
76719.5
73499.5
71187.7
68040.5
68557.2
70102
71795.4
74200.9
77527.3
82035.4
88063.8
95950.8
106056
118759
134335
153102
175236
200713
229307
260568
293526
329218
367692
407731
448723
491220
537359
583956
628644
669682
705925
736613
761445
780614
794618
804201
810154
813212
814026
813129
810947
807811
803981
799656
794981
790074
785033
779933
774847
769829
764936
760224
755754
751589
747794
744448
741647
739503
738154
737768
738552
737510
737168
737660
738938
737874
738027
739178
741152
743804
747016
750692
754748
759114
763725
768526
773459
778476
783520
788532
793442
798170
802619
806663
810140
812839
814483
814705
813034
808870
801480
790028
773595
751363
722739
687560
646203
599623
549002
495873
438738
383112
331622
285042
243529
208372
178581
153715
133356
116923
104035
94100.8
86579.6
69564.5
80940.8
76758
73695.4
68950
67800.1
68465.3
67424
68201.6
69809.9
71081
72944.9
75554.5
79129.3
83933.1
90260.4
98444.3
108814
121600
137025
155083
175624
198309
222682
248198
274240
300288
326982
354663
383523
413943
447210
484425
524349
565724
607154
647030
683969
716510
743918
765808
782414
794242
801980
806391
808172
807923
806155
803264
799563
795292
790630
785720
780680
775605
770571
765650
760902
756403
752220
748428
745112
742373
740331
739130
738949
740001
742549
740766
739560
739223
739886
741490
743809
740778
739324
739170
740087
741886
744417
747552
751183
755224
759595
764224
769051
774009
779038
784069
789022
793805
798299
802360
805797
808362
809731
809487
807098
801915
793183
780090
761882
737992
708269
673078
633349
590488
546180
501958
458477
414927
373710
335133
298601
264153
232487
203626
177770
154995
135694
119808
107031
96890.6
88992.3
71487.3
83002.9
78513.7
67332.2
68973
67735
69932.9
67758
67052
68425.5
69981.1
70987.2
72473.8
74605.3
77575.7
81603
86956.9
93940.9
102864
114011
127575
143584
161889
182111
203565
225581
247371
268336
288056
306550
324587
342750
361739
382335
405733
433003
464058
498556
535871
574941
614311
652298
687286
717909
743411
763582
778608
789035
795568
798944
799866
798925
796608
793298
789297
784829
780075
775181
770260
765410
760716
756261
752131
748413
745201
742608
740763
739823
739976
741444
744491
749426
746911
744731
743324
742992
743860
745861
748750
752111
746458
742808
740834
740256
740839
742382
744720
747716
751250
755226
759556
764153
768944
773850
778784
783656
788347
792719
796587
799717
801806
802460
801182
797362
790285
779178
763301
742060
715243
683150
646641
607167
566398
526071
487704
452188
419503
388989
360973
334558
309375
283852
258283
232804
207794
183957
162235
143135
126714
113013
101912
93197.7
75183.8
86440
67069.8
67480.9
72758.3
69317.1
68119.5
68881.5
67320.1
66861.5
68919.9
70384.6
71211.7
72421.3
74185.1
76690.5
80125.3
84741.5
90823.4
98674.1
108583
120793
135411
152358
171310
191677
212627
233235
252646
270264
285785
299178
310963
321891
332679
344035
356741
371693
389827
411581
437233
466873
500234
536603
574792
613219
650096
683886
713293
737521
756417
770286
779668
785315
787984
788353
787005
784413
780954
776916
772526
767966
763383
758900
754628
750671
747138
744140
741806
740280
739730
740356
742385
746078
751724
759645
756615
753478
750851
749216
748893
750008
752473
756001
760126
755383
748932
744543
741922
740798
740928
742107
744153
746915
750263
754079
758258
762703
767314
771983
776586
780985
784999
788400
790892
792100
791544
788636
782678
772925
758619
739160
714284
684145
649523
611816
572675
533925
497179
463608
433843
407981
385585
365938
348555
332390
316384
299499
281222
261200
239569
217058
194640
173128
153263
135667
120836
108560
81314
98616.3
764203
90834
66979
77465.7
67401.6
71022.6
68002.6
68192.9
69864.2
68734.6
67074.8
66826.5
69582.4
70951.8
71627.5
72650.9
74133.6
76245
79179.9
83175.5
88494.5
95434.2
104299
115358
128772
144579
162563
182228
202816
223377
242892
260545
275767
288369
298492
306511
313077
318850
324447
330422
337374
345951
356828
370534
387573
408406
433344
462435
495337
531236
568856
606597
642699
675516
703872
727055
744958
757905
766517
771560
773777
773853
772360
769766
766435
762659
758668
754653
750773
747170
743979
741342
739408
738341
738323
739560
742281
746730
753162
761824
772940
770186
766497
762747
759660
757785
757483
758884
761851
766051
770918
775691
767436
757883
750615
745414
742040
740247
739801
740485
742112
744512
747534
751040
754899
758984
763160
767267
771117
774489
777092
778557
778419
776101
770927
762142
748983
730855
707419
678757
645630
609197
571098
533213
497175
464287
435293
410485
389783
372752
358787
347224
337411
328479
319578
309711
298269
284561
268278
249541
228951
207220
185452
164977
146433
130060
116297
105026
779435
96011.8
84857.6
67021.3
74617.4
67448.4
69828.2
68019.9
67753.5
68699.9
66993.3
70551
69476.5
66909.3
786727
783742
779622
775393
771911
769829
769568
771266
774736
779529
784974
790158
793985
781096
768910
758816
750806
744790
740602
738039
736890
736945
738000
739872
742382
745359
748638
752048
755379
758390
760794
762226
762224
760230
755566
747488
735231
718153
695874
668458
636521
601191
564055
526946
491465
458976
430326
405872
385652
369338
356442
346401
338650
332653
327885
323699
319507
314830
308822
300859
290341
276901
260443
241299
220517
199111
177890
158170
140390
125042
112199
89000.3
101838
795284
70355.4
71657.3
72206
73067.2
74331.1
76134.6
78660.9
82124.2
86771.5
92898.7
100811
110799
123094
137794
154802
173757
194010
214670
234713
253146
269206
282461
292859
300653
306269
310247
313146
315474
317648
320102
323163
327260
332914
340540
350601
363612
380082
400452
425000
453734
486262
521724
558819
595894
631187
663141
690548
712809
729859
742073
750122
754767
756769
756802
755438
753135
750262
747117
743942
740950
738324
736236
734870
734415
735069
737040
740548
745806
753009
762301
773764
787426
80316.2
67157.1
93748.4
83654.1
72561.4
67591.8
69026.6
68142.9
67514.4
68783.3
67039.4
69505.8
67072.9
71353.9
70317.1
792895
779575
767633
757308
748748
741997
736991
733598
731641
730921
731235
732369
734110
736255
738583
740817
742655
743726
743572
741633
737241
729647
718085
701873
680602
654259
623410
589106
552939
516601
481699
449659
421384
397228
377288
361284
348776
339269
332228
327192
323732
321411
319859
318717
317605
316162
313894
310259
304681
296551
285380
271033
253785
234005
212917
191294
170557
151490
134544
120167
108459
72930.4
73651.9
74743.6
76292.3
78479.5
81507.7
85580.3
90977.3
98026.4
107022
118231
131824
147803
165934
185698
206302
226757
246028
263202
277656
289130
297709
303728
307656
309983
311191
311684
311800
311810
312001
312604
313796
315907
319305
324355
331440
341020
353598
369677
389683
413869
442210
474301
509239
545719
582053
616526
647570
674070
695470
711767
723404
731063
735528
737558
737835
736923
735288
733308
731297
729530
728244
727650
727973
729429
732228
736565
742604
750453
760139
771594
784668
799211
803317
803467
800873
796795
792433
788787
786626
786442
788391
792217
797351
802955
807990
811218
811382
72492.5
807349
87483.2
99142.8
71232.4
76917.1
67366.9
822899
829506
831518
829963
826082
821136
816298
812522
810477
810515
812429
815697
819455
822561
823741
821701
815239
79614.5
71110.9
67806.2
72267
73802.1
74405.7
75340.8
76686.3
78599.7
81261.9
84855.6
89639.8
95900.1
103978
114161
126665
141575
158773
177872
198200
218842
238762
256970
272689
285475
295245
302214
306783
309428
310613
310744
310161
309130
307856
306521
305276
304306
303731
303654
304303
305974
308973
313640
320362
329586
341814
357528
377139
400896
428759
460289
494594
530311
565817
599375
629479
655071
675663
691326
702535
710014
714554
716931
717825
717811
717365
716890
716734
717175
718466
720850
724532
729676
736379
744648
754390
765401
777405
790132
803507
91911.8
82724
68495.5
68342
67442.1
68953.2
67176.9
69635.7
67303.1
70397.1
71245.8
73452.8
72208
75786.7
74517.2
810978
798232
785831
773862
762626
752460
743635
736320
730572
726335
723489
721854
721219
721341
721977
722857
723634
723919
723247
721053
716668
709338
698279
682792
662406
637066
607238
573963
538707
503226
469047
437611
409726
385959
366319
350595
338357
329166
322454
317799
314822
313168
312506
312384
312857
313596
314370
314950
315049
314305
312286
308446
302248
293174
280903
265292
246755
226313
204913
183432
163078
144934
129164
115923
105381
840036
86330.6
96960.9
236921
824438
74426.7
67630.1
850431
856129
857952
856933
854273
851085
848289
846568
846280
847257
848985
850613
851058
849108
843551
833382
817958
76623.9
70109.7
68074.9
76281.7
75312.5
76117.1
77308
78991.2
81331.9
84530.8
88808.7
94415.3
101653
110858
122325
136170
152370
170662
190503
211080
231398
250431
267293
281385
292455
300587
306098
309431
311049
311377
310766
309500
307792
305808
303675
301499
299374
297388
295660
294288
293325
292907
293266
294671
297409
301803
308236
317148
329026
344345
363511
386755
414019
444860
478372
513217
547760
580322
609448
634151
654028
669204
680210
687793
692778
695947
697990
699487
700943
702779
705295
708743
713339
719213
726389
734782
744193
754323
764835
775445
786069
797050
79154.8
68193.4
68599.4
90457.1
82079.3
67489.9
69189.4
67387
69844
67582
70568.2
71373.3
72273.5
74383.4
860441
839842
78194.2
77781.8
803529
793431
783492
773373
763129
753033
743441
734694
727065
720707
715663
711859
709145
707283
706024
705066
703984
702291
699418
694689
687338
676565
661633
642029
617622
588818
556573
522309
487672
454334
423553
396301
372964
353770
338355
326413
317444
310996
306567
303840
302470
302076
302518
303478
304829
306542
308414
310324
312140
313672
314717
314993
314129
311675
307088
299797
289381
275651
258879
239371
218083
196567
175656
156208
138949
124344
112362
102783
76399.5
75419
85485.4
95253.8
150304
72644.7
67935.6
876504
888312
896389
901450
904265
905439
905623
905113
904229
902802
900591
897114
891709
883533
871761
855718
834986
809542
74449.1
69437.7
68384.2
90400.5
77023.2
78096.9
79594.6
81691
84574.2
88422
93484.3
100031
108365
118799
131614
146799
164197
183386
203669
224125
243732
261536
276810
289151
298502
305080
309274
311538
312309
311963
310805
309068
306929
304519
301937
299262
296560
293887
291298
288846
286600
284663
283072
281901
281315
281511
282742
285289
289463
295640
304251
315768
330657
349308
371933
398484
428498
461088
494922
528413
559918
588072
611977
631297
646237
657379
665507
671459
676024
679878
683615
687719
692465
698032
704546
711985
720201
728926
737831
746600
755000
763005
770959
779790
76526.1
68072.9
68901.2
78927.9
67633.3
69477
89425.1
81743.3
67650.3
70111.6
67898.8
70810.4
71582.1
72436
888101
860009
73380
74360.1
284786
75305.5
814736
785530
777648
770422
763074
755255
746919
738260
729599
721270
713588
706795
700980
696128
692069
688604
685443
682087
677958
672388
664606
653792
639177
620189
596633
568820
537635
504421
470786
438304
408322
381725
359008
340256
325268
313604
304883
298656
294455
291880
290661
290415
291060
292260
293883
295871
298155
300621
303176
305785
308339
310722
312842
314509
315509
315539
314170
310916
305282
296732
284912
269795
251688
231504
210066
188605
168146
149739
133709
120259
109372
100766
375927
85013.1
94040.3
801539
138669
71406.3
68271.9
913280
935658
955354
972393
986480
997204
1.00418e+06
1.0068e+06
1.00479e+06
998280
987672
973531
956283
936157
913207
887285
858244
826154
791372
72902.9
69029.6
68725
137988
93535.1
78830
80293.4
82243.9
84876.5
88395.8
93025.2
99008.1
106625
116170
127920
142106
158569
176995
196801
217158
237084
255595
271870
285373
295909
303584
308719
311738
313080
313144
312256
310674
308593
306156
303470
300614
297651
294628
291588
288569
285605
282731
279984
277406
275064
273040
271360
270100
269435
269542
270657
273059
277049
282989
291298
302434
316848
334915
356845
382574
411650
443199
475931
508313
538791
566084
589387
608457
623565
635336
644573
652098
658644
664837
671222
677987
685153
692729
700558
708378
715906
722910
729245
734981
740504
746602
754632
74636.7
68087.2
69237.8
76644.5
67846.7
69804.5
78984.1
67956
70426
88845.9
81714.8
68243.5
71107.3
71854.5
930954
890468
72673.1
73557
74467.5
75426.9
829012
795412
753058
747611
742637
737471
731735
725270
718151
710621
702948
695426
688296
681679
675519
669756
664162
658171
651160
642399
631074
616394
597744
574849
547937
517787
485663
453093
421612
392507
366686
344608
326370
311806
300528
292081
286036
281997
279555
278431
278302
278998
280280
282015
284124
286515
289144
291976
294875
297889
300929
303907
306812
309562
312070
314180
315719
316419
315943
313872
309679
302831
292911
279733
263377
244321
223490
201900
180967
161433
143862
129176
116999
107168
99411.2
77747.1
84914.6
93357.2
76534.9
759878
70546.7
68632.9
971738
1.01266e+06
1.05304e+06
1.09163e+06
1.12632e+06
1.15471e+06
1.1744e+06
1.18311e+06
1.17943e+06
1.16398e+06
1.13839e+06
1.10495e+06
1.06626e+06
1.02464e+06
981758
938471
895220
852101
809158
766813
71832.8
68832.2
69089.8
80011.7
80756.8
81466
82899.9
85312.1
88603.1
92924.2
98473
105516
114329
125185
138299
153821
171422
190619
210681
230690
249666
266731
281241
292871
301614
307708
311534
313522
314077
313551
312222
310305
307961
305306
302430
299396
296255
293046
289797
286540
283300
280100
276965
273922
270995
268217
265631
263297
261275
259588
258321
257641
257716
258758
261046
264875
270595
278612
289358
303270
320710
341878
366711
394781
425243
456874
488217
517819
544500
567554
586814
602591
615504
626294
635668
644198
652433
660573
668431
675910
682873
689139
694604
699232
703211
706985
711259
717027
725630
73312
68206
69600.9
75028.6
68115.2
70162.5
79563.2
76998.1
68292.3
70776.4
79299.2
68610.7
71446.6
1.00183e+06
940372
88689.4
81984.9
72177.6
72970.5
73817.5
74713.1
75686.2
850014
809539
769319
723430
718526
714667
711253
707726
703669
698829
693120
686686
679686
672313
664719
656977
649220
641217
632394
622161
609801
594565
575826
553263
527021
497781
466695
435201
404760
376615
351633
330271
312621
298501
287580
279414
273567
269653
267322
266260
266166
266874
268158
269885
271984
274404
277068
279898
282941
286037
289256
292533
295809
299062
302278
305428
308423
311205
313642
315590
316840
317098
315975
313021
307756
299691
288411
273874
256341
236494
215475
194208
173891
155356
139145
125660
114639
105746
98685.9
85155.4
76792.8
93154.1
77843.6
729871
70004
69012.3
1.06839e+06
1.13902e+06
1.21141e+06
1.28205e+06
1.34625e+06
1.39902e+06
1.43584e+06
1.45297e+06
1.44809e+06
1.42162e+06
1.3763e+06
1.31635e+06
1.24677e+06
1.17258e+06
1.09798e+06
1.02599e+06
958550
896266
839028
786702
738899
71123.8
68789.8
69473.6
83338.7
84748.3
86549.5
89243.6
93089.6
98255.2
104869
113127
123261
135498
149975
166720
185221
204836
224723
243937
261568
276897
289492
299231
306261
310908
313576
314675
314567
313552
311864
309679
307130
304311
301297
298141
294882
291557
288190
284796
281402
278028
274685
271398
268184
265053
262029
259145
256432
253916
251650
249693
248072
246862
246224
246318
247339
249546
253248
258769
266506
276881
290296
307107
327511
351454
378541
407983
438638
469150
498171
524616
547837
567682
584410
598519
610577
621067
630383
638883
646523
653095
658564
662972
666448
669299
672042
675317
679893
686474
695587
72412
68403.2
69984.9
82312.2
79364.9
73886.8
68424.6
70544.9
75590.2
68653.6
71155.3
1.11339e+06
1.02085e+06
77563
68994.7
79856.6
71819.7
72540.9
88909.4
82539.8
73319.5
74153
75046.5
76024.5
883819
831631
783300
738436
692068
687356
683426
680368
677842
675344
672425
668727
664034
658323
651617
643962
635564
626478
616358
604767
591195
575049
555799
533149
507214
478605
448374
417855
388414
361214
337078
316439
299384
285736
275155
267251
261596
257790
255520
254471
254371
255020
256260
257919
259935
262284
264878
267685
270643
273772
276983
280268
283683
287072
290491
293924
297361
300739
304050
307220
310181
312882
315152
316828
317665
317360
315508
311625
305191
295819
283210
267492
249149
228975
207856
186947
167590
150336
135664
123309
113166
104946
98397.2
85694.6
78035
93280.5
77108.5
697190
69706.3
69406.6
1.21511e+06
1.32267e+06
1.43087e+06
1.53362e+06
1.62416e+06
1.6968e+06
1.74699e+06
1.77101e+06
1.76637e+06
1.73313e+06
1.67375e+06
1.59238e+06
1.49442e+06
1.38619e+06
1.27416e+06
1.16463e+06
1.0624e+06
970246
889349
819423
759401
708017
70701.8
68867.8
69872.2
86467.6
88395.9
90956.5
94305.5
98803.4
104759
112430
121967
133516
147163
162935
180691
199747
219342
238583
256562
272509
285904
296528
304433
309880
313239
314907
315255
314595
313179
311198
308800
306088
303146
300028
296783
293448
290044
286602
283137
279654
276175
272722
269306
265939
262633
259401
256256
253222
250307
247526
244926
242542
240403
238564
237075
235997
235467
235644
236707
238894
242504
247885
255398
265443
278429
294686
314402
337557
363798
392409
422337
452316
481073
507549
531066
551371
568562
582938
594898
604789
612928
619651
625078
629230
632355
634860
637298
640332
644597
650324
657093
664428
79338.1
71835.6
68660.6
70385.7
81631.9
85048.3
73129.6
68766.1
70946.3
1.26169e+06
1.13508e+06
74618
69033.3
69392.4
76334.4
71556.7
72219.8
78329
72937.5
80653.5
73712.7
89401.1
83341.2
74542.3
75439.7
76419.5
938879
867250
804889
750437
702877
659966
656916
653006
649284
646332
644046
641919
639415
636123
631735
626034
619077
610837
600982
589206
575160
558425
538661
515715
489778
461470
431801
402024
373408
347040
323673
303697
287179
273941
263669
255974
250452
246739
244485
243389
243210
243755
244857
246390
248287
250496
252968
255635
258493
261500
264654
267884
271189
274614
278068
281533
285053
288612
292159
295701
299182
302575
305873
309009
311896
314420
316439
317762
318123
317170
314465
309583
301989
291422
277724
261110
242002
221636
200877
181047
162880
146977
133285
121705
112184
104507
98493
86514.1
77496.2
78321.9
93760.6
661579
69589.4
69812.6
1.39607e+06
1.53169e+06
1.66122e+06
1.77786e+06
1.87633e+06
1.95273e+06
2.00452e+06
2.02975e+06
2.02641e+06
1.99448e+06
1.93531e+06
1.8509e+06
1.74413e+06
1.61959e+06
1.48336e+06
1.34294e+06
1.20589e+06
1.07888e+06
966531
870625
790948
725827
673053
79450.4
70492.8
69035.7
78683.1
79681.4
70283
81228.6
84053.6
88306.6
90187
92710
96050.1
100364
105833
112792
121547
132292
145141
160121
177046
195491
214671
233756
251874
268238
282256
293621
302307
308504
312534
314777
315598
315320
314207
312464
310249
307679
304842
301800
298607
295300
291908
288465
284975
281450
277915
274387
270877
267394
263949
260551
257211
253938
250741
247635
244634
241754
239002
236390
233967
231764
229807
228156
226878
226021
225676
226024
227238
229528
233171
238495
245877
255712
268372
284202
303409
325962
351565
379560
408956
438533
467012
493275
516521
536350
552728
565883
576225
584176
590164
594639
598082
600979
603883
607479
612249
617995
623620
627818
630581
71514.1
68963.4
70799.6
1.41322e+06
1.26488e+06
72673.4
69131.7
69428.2
73994.7
71363.3
71976.3
75512.3
69800.9
72641.7
77268.2
73361
79295.6
74137.2
81649.4
74972.8
90145
84360.6
75876.4
76858.7
1.02121e+06
922395
838739
768961
710956
662842
623157
626175
627162
625302
621532
617393
613881
611088
608577
605729
602132
597452
591264
583164
572754
559662
543497
524016
501208
475403
447328
418036
388772
360764
335024
312253
292777
276666
263749
253688
246117
240654
236921
234575
233338
232991
233358
234254
235575
237284
239306
241583
244086
246777
249622
252592
255693
258896
262177
265560
268991
272457
275979
279563
283163
286789
290391
293960
297513
301025
304436
307674
310693
313416
315712
317422
318327
318131
316490
312937
307073
298446
286745
272133
254770
235657
215417
195508
176760
159623
144454
131448
120609
111644
104372
98680.3
87483.4
94239.8
91006.5
77929.9
99126.9
69612.6
96808.7
94016.7
79107.4
80007.4
81052.9
83414.4
86943.1
81071.2
83063.5
86017.9
81223.2
82937.9
85440.6
82987.2
81489.2
85129.7
80403.2
85030.4
83168.6
81842.1
70228.6
1.56162e+06
1.70267e+06
1.83036e+06
1.94016e+06
2.02957e+06
2.09721e+06
2.1424e+06
2.16463e+06
2.16256e+06
2.13596e+06
2.08559e+06
2.01155e+06
1.91448e+06
1.7961e+06
1.65974e+06
1.51086e+06
1.35662e+06
1.2053e+06
1.0648e+06
940911
836751
752437
685841
634154
103803
110860
119479
130014
142497
156867
173238
191518
211026
230620
249671
267069
282336
294737
304304
311056
315416
317747
318506
318051
316694
314666
312154
309283
306152
302821
299385
295837
292210
288560
284910
281273
277632
274006
270432
266891
263421
260001
256639
253337
250129
247010
243997
241114
238352
235716
233254
231000
228968
227202
225771
224736
224168
224141
224784
226307
228914
232859
238450
246043
256033
268808
284655
303769
326111
351333
378772
407435
436097
463468
488415
510130
528224
542710
553903
562311
568502
573050
576617
579961
583831
588566
593701
597822
599069
596445
590808
70447.7
69273.1
70703.7
1.12428e+06
997684
888746
798416
725270
666815
620560
584338
87721.5
88276.5
89156.9
90446.6
92239.1
94671.1
97910.6
102110
107453
114126
122333
132327
144326
158368
174336
192023
210754
229564
247645
264217
278670
290627
299978
306845
311505
314306
315603
315721
314931
313450
311444
309041
306335
303397
300283
297033
293681
290263
286785
283256
279702
276143
272588
269049
265534
262052
258612
255220
251884
248613
245415
242299
239276
236357
233565
230898
228354
225971
223787
221835
220141
218772
217792
217273
217284
217946
219464
222044
225924
231404
238836
248605
261112
276673
295499
317581
342607
369958
398664
427496
455127
480365
502337
520605
535161
546334
554663
560770
565312
569034
572791
577500
583473
589951
595242
597584
596721
594571
71385.5
69301.3
69516.6
72442.4
71224.7
71792.9
73641
69834.9
1.52589e+06
1.37583e+06
72410.7
75008.8
70218.5
73081.2
76573.3
73807.8
78370
74588.2
80439.3
75431.6
82832.7
76344.8
85605.3
77332.9
89095.8
78407.5
79576.8
87423.4
85095.1
80855.8
90210.6
87337.7
69741.8
97069.4
92232.4
83453.8
82261.7
70652.5
103696
108722
116646
127396
140048
154479
170577
188087
206678
226100
245261
262891
278314
291317
301463
308986
314021
317008
318310
318314
317332
315604
313327
310638
307652
304440
301070
297571
293989
290395
286717
283018
279322
275661
272043
268445
264880
261377
257923
254539
251214
247956
244770
241680
238687
235805
233058
230425
227911
225563
223414
221479
219792
218408
217375
216772
216671
217165
218358
220395
223499
227922
233916
241790
251901
264622
280274
299025
320807
345281
371785
399348
426760
452727
476096
496069
512313
524947
534463
541543
547055
551975
557211
563352
569861
574745
575788
572174
565049
556449
1.66852e+06
1.79845e+06
1.91231e+06
2.00801e+06
2.08465e+06
2.14185e+06
2.17981e+06
2.19851e+06
2.19693e+06
2.17486e+06
2.13271e+06
2.06999e+06
1.98635e+06
1.88225e+06
1.7591e+06
1.61995e+06
1.46943e+06
1.314e+06
1.16137e+06
1.01929e+06
894194
789761
706415
642250
594298
70527.5
69562.7
90015.2
124597
69666.2
71404.8
71132.8
71659
90783.7
91663.1
92934.4
94683.1
97035.6
100157
104203
109360
115827
123779
133371
144733
157945
173005
189709
207650
226035
243937
260571
275281
287656
297537
304979
310206
313529
315289
315804
315348
314144
312367
310152
307600
304787
301772
298601
295312
291939
288497
284990
281442
277878
274309
270745
267196
263670
260175
256719
253307
249947
246645
243409
240244
237159
234162
231264
228476
225821
223285
220857
218593
216532
214684
213082
211779
210823
210291
210257
210811
212062
214143
217251
221642
227564
235307
245217
257654
272968
291352
312772
336929
363193
390636
418060
444151
467711
487884
504294
517048
526655
533868
539654
545138
551314
558671
566316
571880
573251
570200
564624
559236
72387.1
69916.4
1.22528e+06
1.08182e+06
952186
841007
749843
677562
621679
579443
548094
1.58422e+06
1.44496e+06
87425.1
87523
85284.7
72232.9
73493.2
70251.2
72857.6
74744.6
70643.4
73534.9
76166.2
74268.4
77784.1
75059.2
79645
75914.8
81797.8
76837.6
84355.5
77834.8
87632.8
78916.2
102241
80085.9
81353.4
69951.9
93765.3
93895.3
69892.5
70702.8
71568.9
1.71313e+06
1.82864e+06
1.9289e+06
2.0128e+06
2.07975e+06
2.12899e+06
2.16134e+06
2.17747e+06
2.17588e+06
2.15646e+06
2.12007e+06
2.0653e+06
1.99145e+06
1.89914e+06
1.78939e+06
1.66413e+06
1.52637e+06
1.38031e+06
1.23156e+06
1.0866e+06
952118
833923
735538
657710
598980
556584
155080
94240.1
95609.6
97388.9
99744.9
102834
106806
111802
118036
125706
134967
145922
158603
172946
188758
205741
223478
241001
257465
272231
284847
295103
302997
308703
312496
314689
315588
315466
314548
313013
311001
308620
305952
303054
299982
296771
293459
290075
286610
283087
279538
275973
272406
268845
265299
261776
258284
254829
251418
248055
244749
241503
238325
235220
232196
229260
226422
223689
221087
218611
216233
213989
211929
210076
208446
207068
205983
205240
204901
205030
205712
207047
209139
212115
216097
221241
227795
235991
246078
258365
273186
290762
311050
333791
358459
384210
409912
434303
456218
474858
489953
501858
511435
519956
528726
538223
547310
553411
554269
549877
542388
534167
526942
71536.2
70051.9
106281
111607
118276
126726
137681
151328
167326
185012
203747
222871
241455
258744
274585
288102
298811
306818
312441
315962
317775
318215
317599
316184
314162
311689
308878
305803
302542
299131
295611
292051
288423
284754
281066
277373
273703
270036
266436
262888
259376
255912
252517
249179
245918
242724
239606
236574
233641
230814
228116
225546
223079
220742
218584
216635
214906
213428
212241
211395
210954
210979
211564
212806
214810
217715
221642
226776
233397
241732
252049
264671
279926
298004
318807
342023
367075
393058
418816
443097
464786
483140
497935
509511
518638
526442
534133
542337
550407
556215
557382
553087
545088
535528
525358
1.29994e+06
1.15511e+06
1.01706e+06
892162
785122
697888
629772
578755
541874
515672
91020.7
89109.1
87611.7
85565
85908.2
72101.1
72464.2
70328.2
72681.8
73502.5
70675.5
73313.9
74669
71083.3
71074.8
74000.9
75982.7
74743.8
77474.1
75547.4
79183.7
76414.9
81159.9
77350.4
83520.3
78363.1
141649
79452.7
2.06348e+06
109644
80623.9
83818.8
82734.1
81885.4
1.59937e+06
1.47329e+06
94093.6
70223.2
71520.2
1.71534e+06
1.81917e+06
1.90938e+06
1.98496e+06
2.04532e+06
2.09001e+06
2.1193e+06
2.13334e+06
2.13161e+06
2.11386e+06
2.08015e+06
2.02978e+06
1.96231e+06
1.87821e+06
1.7784e+06
1.66455e+06
1.53918e+06
1.40544e+06
1.26734e+06
1.12954e+06
997109
875223
768454
679833
610239
558822
522851
70950.6
70253.6
497272
509283
520856
530729
538892
543649
542334
535180
524649
513175
501550
488981
474302
456734
436170
413217
388931
364522
341076
319391
299927
282925
268423
256194
245895
237235
230004
223972
219012
215054
211998
209752
208199
207260
206861
206930
207407
208240
209383
210799
212455
214325
216403
218654
221024
223501
226108
228845
231687
234629
237659
240766
243956
247214
250545
253936
257377
260885
264439
268051
271687
275349
279018
282680
286337
289961
293526
297023
300449
303745
306871
309779
312403
314650
316399
317509
317766
316920
314685
310703
304573
296100
285161
271784
256032
238391
219497
200125
181804
165375
151123
139157
129236
121171
114822
133058
86307.4
72011.4
97443.6
97859.8
98350.4
100036
102554
105749
109772
114764
120891
128324
137255
147809
160007
173787
188945
205151
221937
238867
255009
269651
282329
292796
301003
307083
311270
313849
315107
315307
314674
313387
311590
309392
306882
304119
301163
298046
294810
291493
288088
284611
281092
277548
273993
270436
266888
263356
259847
256369
252928
249529
246179
242884
239647
236476
233376
230353
227413
224564
221816
219175
216664
214283
212000
209849
207877
206110
204564
203263
202239
201531
201184
201250
201787
202862
204550
206921
210077
214110
219106
225127
232264
240714
250689
262474
276430
292827
311679
332814
355837
380015
404292
427449
448384
466461
481816
495333
508240
521100