/*--------------------------------*- C++ -*----------------------------------*\
| =========                 |                                                 |
| \\      /  F ield         | OpenFOAM: The Open Source CFD Toolbox           |
|  \\    /   O peration     | Version:  2212                                  |
|   \\  /    A nd           | Website:  www.openfoam.com                      |
|    \\/     M anipulation  |                                                 |
\*---------------------------------------------------------------------------*/
FoamFile
{
    version     2.0;
    format      ascii;
    arch        "LSB;label=32;scalar=64";
    class       surfaceScalarField;
    location    "0.02";
    object      phi;
}
// * * * * * * * * * * * * * * * * * * * * * * * * * * * * * * * * * * * * * //

dimensions      [1 0 -1 0 0 0 0];

oriented        oriented;

internalField   nonuniform List<scalar> 
4475
(
2.84459e-05
-2.13949e-05
6.58979e-05
-7.58249e-05
-7.87705e-06
6.66396e-06
5.13849e-06
-5.1497e-06
0.000113617
-0.000124135
4.73892e-06
7.73768e-06
-2.92946e-05
5.64708e-05
2.49394e-05
-5.51819e-05
-6.96117e-05
6.1704e-05
6.88174e-05
-5.94155e-05
5.97731e-05
-4.51263e-05
-6.84623e-05
5.22861e-05
-1.32986e-05
1.17812e-05
8.42424e-05
-8.4262e-05
-5.24448e-05
-6.83043e-05
6.39602e-05
5.82191e-05
6.37079e-05
-6.94888e-05
-6.10274e-05
-4.72063e-05
1.10302e-05
-4.04999e-06
4.2174e-05
5.52702e-06
-2.23259e-06
-4.59554e-05
-4.01284e-05
1.75499e-05
-9.39561e-06
3.80008e-05
-3.95581e-05
9.69193e-06
-5.19649e-06
-4.00453e-05
5.29486e-06
-1.82238e-06
-4.22534e-05
1.98988e-06
4.63007e-07
-4.59954e-05
-3.7736e-07
1.78147e-06
-1.57423e-06
-4.95348e-05
9.331e-07
4.86502e-05
-1.05531e-06
-5.22132e-05
1.03061e-06
4.74457e-05
-3.1301e-06
4.46069e-05
1.28632e-06
4.3006e-05
4.83645e-06
4.31195e-05
8.79053e-06
4.49257e-05
1.30927e-05
5.21307e-05
1.60178e-05
4.77167e-05
1.36598e-05
4.37633e-05
1.56845e-05
5.35681e-05
1.77983e-05
-2.87516e-05
4.87479e-05
-7.44265e-06
9.8834e-06
8.70594e-05
-9.02496e-05
-1.23677e-05
-5.38654e-05
-1.56232e-06
4.65421e-05
-4.10434e-06
4.78378e-06
4.6591e-05
-1.32803e-06
2.0369e-06
4.89665e-05
1.21897e-07
5.64508e-07
5.29034e-05
4.11909e-07
5.15604e-07
5.75505e-05
-9.76e-07
1.71166e-06
6.14648e-05
-3.08148e-06
3.31039e-06
6.39173e-05
-5.47943e-06
4.74083e-06
6.40573e-05
-7.41915e-06
5.50384e-06
6.09689e-05
-7.96295e-06
4.75565e-06
5.41121e-05
-6.06094e-06
1.90461e-06
4.41761e-05
-1.7827e-06
-3.0471e-06
3.28448e-05
5.16824e-06
-9.89595e-06
2.63777e-05
1.35321e-05
-1.5414e-05
2.98356e-05
1.89119e-05
-1.60966e-05
1.82112e-05
4.61196e-05
-9.94074e-06
-2.86767e-05
3.63827e-05
2.08543e-05
-3.18871e-05
1.58543e-05
-4.15748e-05
7.04745e-06
-5.1708e-05
-1.12389e-06
-5.8932e-05
-6.77081e-06
-6.27403e-05
-9.64051e-06
-6.31966e-05
-9.88864e-06
-6.17903e-05
-7.49246e-06
-5.8683e-05
-4.85578e-06
-5.48772e-05
-1.82999e-06
-5.14504e-05
6.53755e-07
-4.89427e-05
1.56206e-06
-4.80945e-05
1.02473e-06
-4.91755e-05
-7.6749e-07
-5.24179e-05
-2.84861e-06
-5.82104e-05
-3.16679e-06
-4.67804e-05
2.78656e-06
-1.35528e-05
-4.67364e-05
-9.73508e-07
-4.15997e-05
-2.38576e-06
-3.83212e-05
-3.52271e-06
5.7028e-06
-3.82081e-05
-4.07252e-06
-3.72659e-05
-1.63238e-06
-3.81242e-05
9.23065e-07
-4.11983e-05
2.30448e-06
-4.57228e-05
2.33513e-06
-5.16464e-05
1.27555e-06
9.30448e-06
3.57351e-06
7.2846e-05
1.83749e-05
5.62406e-05
4.98865e-05
-4.37054e-06
-5.11219e-05
4.76129e-05
3.08808e-06
4.66307e-05
7.56191e-06
4.69741e-05
1.19494e-05
4.88063e-05
1.54185e-05
5.06334e-05
1.75236e-05
4.85641e-05
1.70131e-05
4.65776e-05
1.65407e-05
4.73134e-05
1.46898e-05
4.49929e-05
9.78911e-06
4.3787e-05
5.3973e-06
4.52704e-05
2.5619e-06
4.88948e-05
1.1353e-06
5.41048e-05
1.01504e-06
5.91401e-05
1.72318e-06
6.28531e-05
2.60306e-06
6.45205e-05
2.98548e-06
6.29865e-05
2.86794e-06
5.75019e-05
1.30457e-06
4.83564e-05
-1.83209e-06
3.67828e-05
-6.65004e-06
2.73761e-05
-1.12829e-05
2.60983e-05
-1.31692e-05
3.69921e-05
-9.41042e-06
6.04405e-05
4.66375e-07
-3.0867e-06
-5.74247e-05
4.23999e-06
1.70397e-05
9.28994e-05
-7.63279e-06
-5.39078e-05
-5.68841e-05
-2.46455e-06
-3.38271e-05
4.54012e-05
1.97826e-05
-3.35725e-05
1.58469e-05
-4.08687e-05
7.11356e-06
-5.04188e-05
-1.22948e-06
-5.75034e-05
-7.40775e-06
-6.1632e-05
-1.06786e-05
-6.24241e-05
-1.10873e-05
-6.11452e-05
-9.20018e-06
-5.81966e-05
-6.0868e-06
-5.50357e-05
-2.62742e-06
-5.21969e-05
6.13955e-07
-5.01008e-05
2.61711e-06
-4.91983e-05
2.96379e-06
-4.98454e-05
1.90819e-06
-5.20339e-05
-8.05825e-08
-5.47496e-05
-2.02239e-06
-5.59174e-05
-2.33288e-06
-5.03847e-05
-6.94171e-07
-4.59163e-05
-8.20811e-07
-4.12431e-05
-7.38537e-07
-3.73512e-05
-9.91029e-07
-3.55494e-05
-3.38328e-07
-3.50885e-05
1.37655e-06
-3.68779e-05
2.87432e-06
-4.12272e-05
3.45993e-06
-4.72244e-05
2.58438e-06
-5.36089e-05
4.57149e-07
-5.88047e-05
8.98271e-05
-7.98042e-05
3.718e-05
-7.29986e-05
-2.3765e-05
5.83265e-05
-4.51774e-05
-4.32138e-05
4.87705e-05
3.76077e-05
5.02414e-05
6.32928e-05
5.64318e-06
-9.16452e-06
-6.34921e-05
5.40099e-05
2.95493e-06
5.12967e-05
5.89048e-06
5.03085e-05
1.04041e-05
5.06195e-05
1.43933e-05
5.10308e-05
1.73815e-05
5.05973e-05
1.87861e-05
4.80397e-05
1.82941e-05
4.50501e-05
1.65524e-05
4.27843e-05
1.35364e-05
4.09798e-05
9.38378e-06
4.11558e-05
5.57799e-06
4.385e-05
2.90226e-06
4.8803e-05
1.51067e-06
5.45679e-05
1.20543e-06
5.97239e-05
1.17936e-06
6.32238e-05
1.24254e-06
6.38435e-05
1.07764e-06
6.07888e-05
3.3317e-07
5.33989e-05
-1.46371e-06
4.32128e-05
-4.41094e-06
3.18943e-05
-7.76678e-06
2.58945e-05
-9.90482e-06
3.04534e-05
-8.52471e-06
4.82197e-05
-1.90513e-06
7.80476e-05
1.03459e-05
0.00011204
2.70887e-05
-3.57903e-05
0.000138763
4.21123e-05
-2.23166e-05
0.000123902
-5.50169e-06
0.000104818
8.78015e-06
8.45849e-05
-5.94562e-05
6.06814e-05
-6.75745e-05
6.76773e-05
1.73502e-05
-7.39375e-05
-6.11276e-05
8.2742e-05
-5.76741e-05
8.30592e-05
4.68793e-05
-6.58932e-05
-1.04363e-05
-5.98083e-05
7.22422e-05
-5.73595e-05
7.15216e-05
-8.16396e-05
6.74457e-05
6.12293e-05
-6.60904e-05
-7.80214e-05
-3.4846e-06
1.92253e-05
-6.06564e-05
-2.9004e-06
-5.14902e-05
5.07515e-05
0.00014576
-4.2481e-05
0.000143287
-2.63387e-05
0.000132175
-8.0571e-06
0.00011532
6.69859e-06
9.58568e-05
-5.6896e-05
1.34857e-05
7.97889e-05
-4.205e-05
1.64052e-05
-3.82322e-05
1.23616e-05
-4.23044e-05
4.45232e-06
-5.01136e-05
-3.42456e-06
-5.65278e-05
-9.27939e-06
-6.0699e-05
-1.2018e-05
-6.15432e-05
-1.22225e-05
-5.99754e-05
-9.9367e-06
-5.71488e-05
-6.41612e-06
-5.4051e-05
-2.67317e-06
-5.14023e-05
8.14734e-07
-4.9685e-05
3.49714e-06
-4.9216e-05
4.75863e-06
-4.998e-05
4.34892e-06
-5.18455e-05
2.61338e-06
-5.43298e-05
4.13903e-07
-5.59544e-05
-1.55051e-06
-5.51376e-05
-2.07287e-06
-5.09347e-05
-1.24684e-06
-4.58191e-05
-1.09722e-08
-3.996e-05
4.73717e-07
-3.57e-05
1.43669e-06
-3.34945e-05
2.26153e-06
-3.35005e-05
3.18936e-06
-3.62894e-05
3.87568e-06
-4.16472e-05
3.64147e-06
-4.89525e-05
2.34282e-06
-4.81248e-07
-5.65742e-05
4.92805e-06
-2.88775e-06
-7.528e-05
6.95379e-05
5.18734e-05
-9.94975e-05
8.49866e-05
-3.83967e-05
6.21164e-05
-5.97463e-05
6.67769e-05
7.69346e-05
3.89055e-06
1.13297e-05
8.15208e-05
1.15396e-05
-1.53665e-05
8.09319e-05
1.14384e-05
7.65689e-05
9.41913e-06
-7.50738e-06
7.08816e-05
7.33856e-06
6.58469e-05
6.60693e-06
-4.91506e-06
6.22608e-05
6.65135e-06
5.74778e-05
6.81631e-06
5.4852e-05
8.95218e-06
5.40052e-05
1.28245e-05
5.3716e-05
1.61783e-05
5.27275e-05
1.86032e-05
5.04593e-05
1.92337e-05
4.6448e-05
1.84635e-05
4.21869e-05
1.61123e-05
3.88077e-05
1.27013e-05
3.73509e-05
8.92151e-06
3.8508e-05
5.60415e-06
4.22589e-05
3.17837e-06
4.81846e-05
1.6809e-06
5.41887e-05
1.14203e-06
5.92964e-05
4.11542e-07
6.23276e-05
4.54749e-08
6.233e-05
-5.56979e-07
5.82491e-05
-1.45809e-06
5.02498e-05
-3.25427e-06
3.94387e-05
-5.27841e-06
2.98182e-05
-7.10839e-06
2.79488e-05
-7.09277e-06
3.80296e-05
-3.58927e-06
6.16976e-05
4.26132e-06
9.52312e-05
1.68621e-05
0.000127931
3.03627e-05
0.000146667
3.94767e-05
3.8593e-05
0.000139543
-2.00905e-05
9.50621e-05
-7.10312e-05
-7.73337e-07
-5.90679e-05
6.33558e-05
-5.85213e-05
5.84705e-05
2.71769e-05
-2.14179e-05
1.01644e-05
4.47819e-05
-8.4439e-06
-4.90236e-05
-4.97445e-05
-1.60233e-05
1.19513e-05
5.05539e-05
-7.08584e-05
-4.14586e-05
-9.8655e-06
-6.82491e-05
-7.35836e-05
-4.70022e-06
7.13329e-05
-5.36027e-05
6.9944e-05
9.22056e-06
-4.63347e-05
5.98522e-06
-4.63641e-05
-1.01994e-06
-5.09924e-05
-7.96614e-06
-5.57626e-05
-1.32008e-05
-5.91984e-05
-1.48937e-05
-6.03734e-05
-1.39432e-05
-5.90908e-05
-1.08435e-05
-5.62671e-05
-6.4273e-06
-5.28738e-05
-2.08884e-06
-4.99423e-05
1.76478e-06
-4.82768e-05
4.73438e-06
-4.80171e-05
6.44333e-06
-4.91785e-05
6.7683e-06
-5.14373e-05
5.48503e-06
-5.42547e-05
3.30707e-06
-5.63783e-05
8.10135e-07
-5.68559e-05
-8.52562e-07
-5.48924e-05
-1.30264e-06
-5.03809e-05
-4.5868e-07
-4.42904e-05
1.06557e-06
-3.83449e-05
1.80534e-06
-3.41825e-05
3.18843e-06
-3.22251e-05
3.69655e-06
-3.28605e-05
3.77528e-06
-3.63354e-05
3.5733e-06
-4.25058e-05
2.78734e-06
-5.02225e-05
1.01964e-06
-5.9124e-05
-1.25636e-06
-3.54147e-06
-6.44707e-05
-5.6859e-05
-6.41676e-05
6.79326e-05
-1.22597e-05
-7.28848e-05
7.24264e-05
2.05469e-05
8.01691e-05
1.12135e-05
-8.39644e-05
8.17451e-05
1.15337e-05
8.0613e-05
1.2242e-05
7.665e-05
1.13752e-05
7.18271e-05
9.35701e-06
6.71624e-05
8.54263e-06
6.33187e-05
8.65228e-06
6.0176e-05
9.58649e-06
5.79518e-05
1.16504e-05
5.72476e-05
1.447e-05
5.60097e-05
1.73466e-05
5.37095e-05
1.88554e-05
4.95243e-05
1.89797e-05
4.41638e-05
1.77637e-05
3.88605e-05
1.51322e-05
3.50585e-05
1.179e-05
3.40339e-05
8.38357e-06
3.60977e-05
5.42707e-06
4.09356e-05
3.27636e-06
4.71397e-05
1.90798e-06
5.33666e-05
7.72884e-07
5.8212e-05
-1.47291e-07
6.11117e-05
-9.90576e-07
6.07456e-05
-1.69171e-06
5.62946e-05
-2.73873e-06
4.76507e-05
-3.75097e-06
3.7303e-05
-4.91554e-06
3.01751e-05
-5.57164e-06
3.22255e-05
-4.13429e-06
4.6886e-05
1.13041e-07
7.47859e-05
8.00022e-06
0.000108877
1.75692e-05
0.000136735
2.56473e-05
0.000144999
2.66866e-05
0.00012598
1.82154e-05
-2.67626e-05
5.22104e-07
8.60505e-05
-4.51411e-05
0.00011007
-5.46635e-05
0.00012674
-5.36362e-05
0.000140039
-4.34577e-05
0.000145683
-2.59637e-05
0.000138965
-7.66145e-06
0.000124413
5.10097e-06
0.000107017
9.23561e-05
7.3562e-06
-6.31198e-05
-3.00182e-05
4.00263e-05
-2.80279e-05
3.45722e-05
-9.42747e-05
9.26883e-05
-1.70198e-05
2.1112e-05
-1.71044e-05
1.3244e-05
-8.65252e-05
-3.72664e-05
4.24367e-05
7.25029e-05
-8.66811e-05
-1.86812e-05
2.76794e-05
3.58083e-05
-6.69762e-05
-4.88255e-06
-8.5388e-06
-7.34249e-05
-4.47562e-05
-6.9447e-05
6.13431e-05
-7.07551e-05
-2.94008e-05
1.83695e-05
-9.16474e-05
3.24602e-05
-3.27811e-05
9.29561e-05
6.31238e-05
6.60323e-05
7.99542e-05
-7.73336e-05
1.24631e-05
7.99915e-05
1.38168e-05
7.92233e-05
1.32663e-05
7.63553e-05
1.27294e-05
7.22768e-05
1.10744e-05
6.81986e-05
1.03519e-05
6.47895e-05
1.06615e-05
6.24873e-05
1.17132e-05
6.08603e-05
1.35041e-05
5.97343e-05
1.56493e-05
5.77693e-05
1.75986e-05
5.3921e-05
1.84722e-05
4.81264e-05
1.80253e-05
4.15929e-05
1.64241e-05
3.54819e-05
1.37841e-05
3.1626e-05
1.07022e-05
3.10888e-05
7.71052e-06
3.3831e-05
5.17475e-06
3.91877e-05
3.35833e-06
4.55794e-05
1.85487e-06
5.16937e-05
3.91368e-07
5.67619e-05
-8.28653e-07
5.97325e-05
-1.73261e-06
5.95523e-05
-2.61549e-06
5.4562e-05
-3.11056e-06
4.58541e-05
-3.48528e-06
3.66632e-05
-4.12412e-06
3.19201e-05
-3.85568e-06
3.70606e-05
-1.88355e-06
5.50988e-05
1.72668e-06
8.49343e-05
7.02867e-06
0.000116261
1.19639e-05
0.000137414
1.23867e-05
0.000134701
5.43508e-06
0.000108747
-8.21391e-06
5.83751e-05
-2.96917e-05
2.8933e-05
-5.68182e-05
3.47788e-06
-2.21432e-06
2.89342e-05
-2.89427e-05
6.13276e-05
-4.72202e-05
9.12958e-05
-5.61165e-05
0.0001161
-5.50703e-05
0.000136219
-4.43052e-05
0.000147922
-2.74251e-05
0.000145611
-1.04788e-05
0.000132549
-1.63102e-06
0.000116676
-8.39429e-05
0.000102733
-4.58631e-06
-6.74654e-05
-1.87736e-06
-5.76247e-05
-3.57227e-06
-5.36302e-05
-8.57383e-06
-5.41485e-05
-1.45996e-05
-5.58552e-05
-1.86923e-05
-5.73081e-05
-1.95583e-05
-5.78901e-05
-1.74524e-05
-5.66954e-05
-1.30745e-05
-5.44337e-05
-7.28167e-06
-5.14369e-05
-1.66385e-06
-4.85618e-05
3.01175e-06
-4.65979e-05
6.39136e-06
-4.62127e-05
8.52564e-06
-4.74779e-05
9.01714e-06
-5.00012e-05
8.27082e-06
-5.33038e-05
6.32451e-06
-5.6376e-05
3.94165e-06
-5.80438e-05
1.61965e-06
-5.74304e-05
3.50961e-07
-5.44086e-05
1.93588e-07
-4.90864e-05
1.05308e-06
-4.29457e-05
2.67092e-06
-3.72249e-05
3.05687e-06
-3.33586e-05
4.15995e-06
-3.16889e-05
3.78608e-06
-3.28939e-05
3.02975e-06
-3.6934e-05
2.05293e-06
-4.34429e-05
8.21702e-07
-5.18047e-05
-8.13525e-07
-3.29453e-06
-6.02912e-05
-5.97849e-05
-6.7444e-05
6.78266e-05
-8.71151e-06
-7.45576e-05
-8.8002e-05
-9.39466e-06
1.73304e-05
-1.52129e-06
-3.8253e-05
-7.3611e-05
7.57156e-05
-7.34346e-05
-2.78971e-05
6.96156e-05
-2.64337e-05
-2.60719e-05
5.92653e-05
-5.80099e-05
-1.00495e-05
6.47138e-05
1.25509e-05
-1.24185e-06
7.59545e-05
1.23035e-05
-7.00777e-05
7.72592e-05
1.5874e-05
7.81521e-05
1.59323e-05
7.74508e-05
1.47841e-05
7.56067e-05
1.34857e-05
7.2303e-05
1.22876e-05
6.8987e-05
1.16616e-05
6.60711e-05
1.23248e-05
6.43298e-05
1.31492e-05
6.29356e-05
1.46077e-05
6.14556e-05
1.61162e-05
5.85079e-05
1.72331e-05
5.33412e-05
1.75018e-05
4.6288e-05
1.65657e-05
3.87468e-05
1.47489e-05
3.21732e-05
1.22117e-05
2.84773e-05
9.45408e-06
2.8305e-05
6.94953e-06
3.15838e-05
4.779e-06
3.7228e-05
3.15032e-06
4.36045e-05
1.48227e-06
4.97895e-05
-1.84072e-07
5.51219e-05
-1.56412e-06
5.85679e-05
-2.50789e-06
5.82681e-05
-3.04156e-06
5.31857e-05
-3.04818e-06
4.50666e-05
-3.27293e-06
3.6841e-05
-3.22895e-06
3.37456e-05
-2.47334e-06
4.0922e-05
-1.15999e-06
6.05346e-05
1.80303e-07
8.90038e-05
1.4319e-06
0.00011642
-7.43574e-07
0.000129908
-7.94401e-06
0.000119358
-2.06617e-05
8.86116e-05
-3.76458e-05
3.53524e-05
-5.65368e-05
-1.48823e-05
-7.29453e-05
8.02131e-05
-4.33585e-05
-7.91428e-05
6.32001e-05
-3.93707e-05
3.44564e-05
-2.30506e-05
2.50594e-06
6.61017e-06
-2.22199e-05
4.1944e-05
-3.8682e-05
7.7184e-05
-4.73835e-05
0.000112812
-4.86006e-05
0.000140206
-3.9926e-05
0.000154818
-2.61812e-05
0.000152432
-1.32562e-05
0.000138567
-9.87765e-06
0.000122304
-9.65336e-05
0.000112523
-1.68227e-05
-8.11764e-05
-1.71018e-05
-6.9672e-05
-1.76237e-05
-6.28971e-05
-2.0188e-05
-5.95361e-05
-2.32492e-05
-5.77934e-05
-2.52724e-05
-5.63515e-05
-2.50412e-05
-5.48726e-05
-2.21633e-05
-5.29148e-05
-1.68219e-05
-5.06717e-05
-1.00538e-05
-4.82961e-05
-2.9763e-06
-4.62753e-05
3.28083e-06
-4.47398e-05
7.77645e-06
-4.42477e-05
1.04553e-05
-4.5219e-05
1.14919e-05
-4.78323e-05
1.09397e-05
-5.14273e-05
9.34492e-06
-5.5451e-05
7.21596e-06
-5.83256e-05
4.78736e-06
-5.91591e-05
2.98213e-06
-5.75194e-05
2.10516e-06
-5.34216e-05
2.25908e-06
-4.77525e-05
3.06334e-06
-4.14964e-05
4.09537e-06
-3.65105e-05
4.19682e-06
-3.30274e-05
4.12647e-06
-3.20438e-05
2.86989e-06
-3.35836e-05
1.02383e-06
-3.78645e-05
-5.3094e-07
-4.42772e-05
-2.09398e-06
-5.21309e-05
-3.56942e-06
-5.32951e-06
-6.0778e-05
-6.82203e-05
-6.48622e-06
-5.10029e-05
-7.37387e-05
-6.90959e-05
-6.41879e-05
7.10954e-05
2.4379e-05
1.3092e-05
-3.50876e-05
-6.33295e-06
-7.45301e-05
-1.02417e-05
-6.06925e-05
-1.01354e-05
4.14028e-06
-6.69185e-05
-1.5224e-05
-7.02814e-05
-1.95316e-05
7.66978e-07
-2.94003e-05
-6.32523e-05
-2.95531e-05
-7.00407e-05
8.60574e-06
-8.03529e-05
-9.77607e-06
-3.64104e-05
-7.24761e-05
-7.04818e-05
-2.52143e-05
8.87712e-05
-7.7321e-05
-4.37784e-06
8.13155e-05
-9.76048e-06
5.58886e-05
-1.11876e-05
2.86034e-05
1.9746e-07
4.81366e-06
1.56753e-05
-1.61569e-05
4.11498e-05
-3.51991e-05
8.21639e-05
-4.69056e-05
0.000122646
-4.98809e-05
0.000148447
-4.21329e-05
0.000159474
-2.88945e-05
0.000152502
-1.92563e-05
0.000137947
-1.83315e-05
0.000126557
-0.000113928
-2.90856e-05
0.000129104
-9.71445e-05
-3.4417e-05
-8.27179e-05
-3.71807e-05
-7.24326e-05
-3.75652e-05
-6.58444e-05
-3.65851e-05
-6.10438e-05
-3.47636e-05
-5.69637e-05
-3.18791e-05
-5.2883e-05
-2.73991e-05
-4.87766e-05
-2.13892e-05
-4.53487e-05
-1.40068e-05
-4.29198e-05
-6.14971e-06
-4.16463e-05
1.22558e-06
-4.11242e-05
7.1873e-06
-4.14283e-05
1.13122e-05
-4.26299e-05
1.32719e-05
-4.50721e-05
1.34052e-05
-4.87543e-05
1.22325e-05
-5.31077e-05
1.02656e-05
-5.69908e-05
8.0232e-06
-5.94525e-05
6.19746e-06
-5.95107e-05
4.98283e-06
-5.69775e-05
4.5564e-06
-5.23394e-05
4.77364e-06
-4.65131e-05
5.19343e-06
-4.07135e-05
5.36317e-06
-3.6051e-05
4.47421e-06
-3.35643e-05
3.60595e-06
-3.29129e-05
9.08938e-07
-3.49412e-05
-1.52949e-06
-3.88967e-05
-3.9368e-06
-4.47358e-05
-5.63373e-06
-5.20314e-05
-6.73725e-06
-7.48807e-06
-6.04123e-05
-8.20761e-06
-6.87401e-05
6.98745e-05
-5.43729e-05
-7.41259e-05
-4.11848e-05
-7.96625e-05
3.41177e-05
-1.23618e-05
1.76618e-05
-3.88422e-05
4.95781e-05
-3.26235e-06
-4.97184e-05
2.457e-06
7.2584e-05
1.92088e-05
-7.02775e-05
7.50434e-05
1.70665e-05
7.57104e-05
1.53259e-05
7.45184e-05
1.3891e-05
7.19074e-05
1.30238e-05
6.92042e-05
1.24262e-05
6.69434e-05
1.32123e-05
6.55315e-05
1.38485e-05
6.41596e-05
1.49783e-05
6.21798e-05
1.59498e-05
5.82242e-05
1.6447e-05
5.1974e-05
1.61091e-05
4.39527e-05
1.48906e-05
3.56997e-05
1.29602e-05
2.89593e-05
1.05649e-05
2.54506e-05
8.15823e-06
2.56928e-05
5.97084e-06
2.92763e-05
4.19314e-06
3.48796e-05
2.55572e-06
4.12047e-05
7.21747e-07
4.75306e-05
-1.0224e-06
5.32735e-05
-2.43321e-06
5.70816e-05
-3.23794e-06
5.71033e-05
-3.47635e-06
5.25177e-05
-3.24792e-06
4.44226e-05
-2.79168e-06
3.67914e-05
-2.47548e-06
3.45544e-05
-2.01246e-06
4.22386e-05
-2.38341e-06
6.07898e-05
-4.12745e-06
8.62026e-05
-9.0163e-06
0.000108256
-1.8314e-05
0.000115219
-3.16485e-05
0.00010344
-4.75084e-05
7.25328e-05
-6.31946e-05
2.43445e-05
-7.28532e-05
-1.80869e-05
-7.5903e-05
-3.52466e-05
-6.88709e-05
8.56865e-06
-5.86118e-05
-6.89892e-05
-6.89298e-05
7.47363e-05
-5.66878e-05
-7.63609e-05
8.7854e-05
-1.57755e-05
1.63548e-05
-8.51113e-05
-7.16803e-05
-1.21144e-05
-6.27125e-05
-7.78242e-05
-1.25094e-05
-0.000122204
0.000145108
-5.52271e-05
-0.000101008
-6.07617e-05
-8.37001e-05
-6.09859e-05
-7.16102e-05
-5.63122e-05
-6.327e-05
-5.01108e-05
-5.72665e-05
-4.26502e-05
-5.16018e-05
-3.47956e-05
-4.57104e-05
-2.66983e-05
-4.04129e-05
-1.84921e-05
-3.64297e-05
-1.04665e-05
-3.45271e-05
-2.60255e-06
-3.46073e-05
4.27262e-06
-3.61013e-05
9.60459e-06
-3.83957e-05
1.30405e-05
-4.14116e-05
1.45289e-05
-4.52263e-05
1.42068e-05
-4.95728e-05
1.2774e-05
-5.4052e-05
1.09499e-05
-5.77902e-05
9.25031e-06
-5.9594e-05
8.08376e-06
-5.89428e-05
7.54183e-06
-5.58874e-05
7.41705e-06
-5.10812e-05
7.44969e-06
-4.55763e-05
7.18776e-06
-4.04786e-05
6.28574e-06
-3.68559e-05
4.47206e-06
-3.45465e-05
1.98616e-06
-3.43199e-05
-1.48654e-06
-3.61481e-05
-4.48371e-06
-3.97685e-05
-7.31423e-06
-4.47684e-05
-9.26729e-06
-5.09833e-05
-1.01074e-05
-5.86776e-05
-9.51596e-06
-9.50662e-06
-6.86858e-05
6.17398e-05
-5.05963e-05
5.88659e-05
-8.01246e-05
-3.09786e-05
5.37448e-05
-2.38438e-05
6.60148e-05
7.43842e-05
4.34818e-05
7.98141e-05
4.90268e-05
8.52668e-05
3.22416e-05
7.93492e-05
1.44982e-05
5.80788e-05
7.00365e-06
2.45443e-05
2.42202e-05
-6.15728e-06
6.21889e-05
-3.14949e-05
0.000104191
-4.77546e-05
0.000139886
-5.12914e-05
0.000157669
-4.20177e-05
0.000156679
-2.58763e-05
0.000141994
-1.2578e-05
0.000129249
-1.13975e-05
0.000134828
-3.23633e-05
0.000164588
8.37288e-05
-5.3348e-05
-8.28468e-05
6.58905e-05
-1.7969e-05
5.98223e-05
-1.11786e-05
5.58912e-05
-7.11171e-06
-6.02409e-06
-5.94086e-05
5.93648e-05
6.17604e-05
-2.48132e-05
-9.42888e-05
8.54938e-07
4.08737e-06
2.4888e-06
-3.55935e-06
-2.24997e-05
-4.47196e-05
3.67292e-05
6.69259e-05
1.80265e-05
-5.96874e-05
7.14409e-05
1.63419e-05
7.32766e-05
1.486e-05
7.28357e-05
1.36621e-05
7.10897e-05
1.29487e-05
6.87621e-05
1.27275e-05
6.71922e-05
1.31269e-05
6.59253e-05
1.38395e-05
6.43977e-05
1.47057e-05
6.18162e-05
1.52893e-05
5.69784e-05
1.53463e-05
4.97207e-05
1.46468e-05
4.10092e-05
1.32137e-05
3.2314e-05
1.12517e-05
2.56125e-05
9.00297e-06
2.23111e-05
6.85149e-06
2.2811e-05
4.91825e-06
2.65397e-05
3.29934e-06
3.19353e-05
1.55159e-06
3.82059e-05
-4.07713e-07
4.47776e-05
-2.18524e-06
5.10788e-05
-3.52293e-06
5.54687e-05
-4.13515e-06
5.59073e-05
-4.03671e-06
5.14368e-05
-3.39481e-06
4.35715e-05
-2.59666e-06
3.5898e-05
-2.13433e-06
3.31104e-05
-2.63199e-06
3.90141e-05
-5.29141e-06
5.45117e-05
-1.13981e-05
7.54109e-05
-2.2286e-05
9.27762e-05
-3.71759e-05
9.885e-05
-5.46551e-05
9.09107e-05
-7.02315e-05
6.65334e-05
-8.01322e-05
2.67263e-05
-8.05814e-05
-3.887e-06
-7.45121e-05
-1.82484e-05
-5.63479e-05
2.65588e-05
-4.96833e-05
0.000108336
-4.27058e-06
1.69125e-05
9.15193e-05
-1.75311e-05
-1.347e-05
-7.3265e-05
-5.0351e-05
2.65851e-05
-6.68169e-05
-7.53634e-05
7.96897e-05
-4.58886e-05
-8.64636e-05
-7.60233e-05
-6.38551e-05
-8.88413e-05
-3.04285e-05
0.00010727
7.19661e-05
-2.26688e-05
-6.63832e-05
6.63048e-05
-1.15497e-05
-8.27799e-05
-6.46259e-06
-7.11917e-05
6.26815e-05
5.01329e-05
-5.3327e-05
-3.73103e-05
-6.93094e-05
4.8755e-05
2.00989e-05
-3.62441e-05
-2.41511e-05
4.09507e-05
-2.42407e-05
-9.46998e-05
1.83264e-05
0.000105414
-0.000158459
0.000192462
-7.33119e-05
-0.000126418
-9.32246e-05
-9.87418e-05
-9.26037e-05
-7.79952e-05
-8.45734e-05
-6.36481e-05
-7.26259e-05
-5.42846e-05
-5.9597e-05
-4.742e-05
-4.67579e-05
-4.14895e-05
-3.47891e-05
-3.56496e-05
-2.42073e-05
-3.03798e-05
-1.50869e-05
-2.68887e-05
-7.211e-06
-2.58626e-05
-2.22593e-07
-2.7404e-05
5.74295e-06
-3.08176e-05
1.02236e-05
-3.51812e-05
1.30241e-05
-3.98381e-05
1.41807e-05
-4.46155e-05
1.38868e-05
-4.94245e-05
1.28165e-05
-5.38602e-05
1.16014e-05
-5.70997e-05
1.07134e-05
-5.83821e-05
1.03866e-05
-5.72772e-05
1.03408e-05
-5.41319e-05
1.03491e-05
-4.96392e-05
9.9664e-06
-4.48595e-05
8.79416e-06
-4.06009e-05
6.70261e-06
-3.75713e-05
3.76464e-06
-3.60681e-05
3.33968e-07
-3.59736e-05
-3.99976e-06
-3.72933e-05
-7.4199e-06
-3.99185e-05
-1.04997e-05
-4.38707e-05
-1.23883e-05
-4.92506e-05
-1.26543e-05
-5.53433e-05
-1.15211e-05
-7.10705e-06
-6.21972e-05
7.9464e-05
-4.54266e-05
-7.329e-05
5.67935e-05
-1.00366e-05
3.41916e-05
-1.64588e-05
-9.73397e-05
5.86293e-05
-5.29261e-05
0.000141251
6.04422e-05
8.70689e-05
5.19587e-05
8.46743e-05
3.29692e-05
0.000108195
8.30376e-06
0.000103584
-9.47897e-06
8.10216e-05
-1.66978e-05
5.52749e-05
-9.80097e-06
4.34439e-05
-8.08153e-06
5.53196e-05
-2.20833e-05
8.92645e-05
-4.20324e-05
0.000126522
-5.08059e-05
0.000147922
-4.43057e-05
0.000147095
-2.85622e-05
0.000135229
-1.22704e-05
0.000124163
-2.79025e-06
0.000130788
-8.25105e-06
0.000168851
-3.76739e-05
0.000215113
-5.60059e-05
5.7134e-05
-1.05809e-05
5.02074e-05
-3.48996e-06
4.62279e-05
-1.71933e-07
4.46471e-05
4.9751e-07
-3.57617e-06
4.52498e-05
3.38128e-06
-5.89534e-06
5.58913e-05
-9.45834e-05
5.61898e-05
1.81755e-05
-4.68191e-05
-2.08969e-05
6.32003e-05
1.66389e-05
6.80523e-05
1.50889e-05
7.04461e-05
1.37766e-05
7.07407e-05
1.27135e-05
6.95626e-05
1.22813e-05
6.79514e-05
1.21814e-05
6.65448e-05
1.25481e-05
6.52745e-05
1.32253e-05
6.34676e-05
1.39103e-05
6.02217e-05
1.42909e-05
5.45442e-05
1.41116e-05
4.6492e-05
1.32416e-05
3.71913e-05
1.17383e-05
2.82211e-05
9.78836e-06
2.16161e-05
7.66893e-06
1.85334e-05
5.62126e-06
1.93196e-05
3.80153e-06
2.29109e-05
2.15402e-06
2.81048e-05
2.76916e-07
3.43083e-05
-1.75191e-06
4.13462e-05
-3.57469e-06
4.83602e-05
-4.77973e-06
5.3437e-05
-5.16665e-06
5.43579e-05
-4.70322e-06
5.00486e-05
-3.64757e-06
4.18278e-05
-2.56936e-06
3.32393e-05
-2.30252e-06
2.81944e-05
-4.0394e-06
3.04437e-05
-9.35507e-06
4.10739e-05
-1.96853e-05
5.72486e-05
-3.51526e-05
7.34183e-05
-5.37803e-05
8.28184e-05
-7.17041e-05
8.21436e-05
-8.41176e-05
6.73061e-05
-8.90253e-05
3.71793e-05
-8.43781e-05
9.343e-06
-7.34028e-05
-6.41196e-07
-5.50574e-05
4.14245e-05
-5.27048e-05
0.0001354
-1.27142e-05
0.000188673
-5.18535e-05
8.60484e-05
-5.05563e-05
-8.60526e-05
-1.74905e-05
-7.23266e-05
3.55387e-05
-8.08035e-05
-8.48638e-05
8.62296e-05
-4.9548e-05
5.45175e-05
-8.21299e-05
-5.53241e-05
5.94595e-05
-6.26065e-05
-7.94454e-05
-7.66414e-05
-1.48398e-05
-9.10452e-05
-7.09625e-05
-7.44801e-05
-8.63393e-05
-5.94449e-05
7.62101e-05
-7.48753e-05
-2.12873e-05
5.80631e-05
-3.23275e-05
3.10609e-05
-5.16348e-05
-9.615e-05
9.04989e-05
-1.20057e-05
5.79088e-05
-4.18736e-05
5.04612e-05
1.20899e-05
-3.58375e-05
7.98374e-05
3.56449e-05
9.07784e-05
-8.31056e-05
1.20816e-05
1.46045e-05
9.63417e-05
4.95927e-05
-1.12595e-05
4.54932e-05
-1.31878e-05
4.17853e-05
-1.45152e-05
3.8963e-05
-1.44148e-05
3.74041e-05
-1.28579e-05
3.68684e-05
-9.8414e-06
3.6941e-05
-5.92468e-06
3.84556e-05
-1.581e-06
4.07665e-05
2.79865e-06
4.39835e-05
6.69992e-06
4.77579e-05
9.81694e-06
5.14618e-05
1.1939e-05
5.4223e-05
1.29241e-05
5.53071e-05
1.29973e-05
5.43795e-05
1.26184e-05
5.15657e-05
1.22377e-05
4.744e-05
1.21514e-05
4.24695e-05
1.24319e-05
3.68972e-05
1.2731e-05
3.08575e-05
1.25829e-05
2.48659e-05
1.15278e-05
1.9845e-05
9.25728e-06
1.69141e-05
5.72937e-06
1.67556e-05
9.04225e-07
1.91833e-05
-4.9234e-06
2.31022e-05
-1.20354e-05
2.74052e-05
-2.12e-05
3.19232e-05
-3.28959e-05
3.77034e-05
-4.74024e-05
4.68805e-05
-6.47373e-05
6.16734e-05
-8.47741e-05
8.41632e-05
-0.000106572
0.000116151
-0.000126813
0.000157327
-0.000139243
0.000203482
-0.000126545
0.000244943
-8.6912e-05
1.90367e-05
9.81058e-05
-2.24134e-05
-7.76427e-05
5.74649e-05
0.000228657
-7.90514e-05
0.000157259
-1.33381e-05
7.19281e-05
4.44561e-05
8.1759e-05
2.39099e-05
0.000170368
1.07948e-05
0.000183611
2.07173e-05
0.000172203
3.81379e-05
0.000146764
3.44155e-05
0.000117603
1.25283e-05
0.000100287
-1.32653e-05
0.000104663
-4.06437e-05
0.000124374
-5.57763e-05
0.000135996
-4.78114e-05
0.000126539
-2.23508e-05
0.000108947
1.04121e-05
9.63356e-05
4.0136e-05
0.000104394
5.46521e-05
0.000152996
4.68518e-05
0.000217683
1.60925e-05
0.000270564
8.50967e-05
-4.29595e-05
-2.78343e-05
-6.83348e-05
-4.44017e-05
8.57259e-05
5.02447e-05
3.8244e-05
9.67617e-05
-6.74782e-05
-6.39737e-05
2.5862e-05
-7.31151e-05
1.72477e-05
-7.32717e-05
1.14807e-05
-7.45302e-05
8.46124e-05
5.96785e-06
-7.658e-05
9.13037e-05
8.62105e-06
9.75597e-05
1.15682e-05
-1.92087e-05
2.05286e-05
9.93629e-05
3.64058e-05
-2.44712e-05
2.1765e-05
9.55655e-05
-8.99445e-05
-2.40668e-05
2.17625e-05
5.60928e-05
-1.53815e-05
1.54934e-05
2.712e-05
-3.23285e-05
-6.13031e-06
4.69333e-05
-8.47702e-05
-4.34031e-05
8.51457e-05
-8.3173e-05
-4.99559e-05
-5.73188e-05
-8.14906e-05
-1.45829e-05
-7.75205e-05
8.44693e-05
-4.55288e-05
-8.60534e-05
2.8508e-05
-2.39594e-05
4.51344e-05
-2.05484e-06
3.78909e-05
2.99539e-06
3.39384e-05
5.35104e-06
3.25876e-05
5.21347e-06
2.45871e-06
3.15017e-05
-1.64128e-05
4.27721e-05
2.64076e-05
2.77165e-06
3.39235e-06
-1.0417e-05
7.78232e-06
4.3077e-05
1.693e-05
-2.07062e-05
-3.26369e-05
5.20309e-05
1.54939e-05
5.92967e-05
1.44657e-05
6.43397e-05
1.32842e-05
6.69857e-05
1.22557e-05
6.76046e-05
1.13626e-05
6.69656e-05
1.10422e-05
6.58117e-05
1.10548e-05
6.45782e-05
1.14714e-05
6.3229e-05
1.21171e-05
6.10242e-05
1.27248e-05
5.71043e-05
1.30833e-05
5.06298e-05
1.28396e-05
4.19067e-05
1.19727e-05
3.20896e-05
1.05113e-05
2.29767e-05
8.61355e-06
1.64782e-05
6.56789e-06
1.36467e-05
4.52744e-06
1.45822e-05
2.71839e-06
1.78652e-05
9.81033e-07
2.278e-05
-1.00694e-06
2.91576e-05
-3.16733e-06
3.68571e-05
-4.98223e-06
4.47481e-05
-6.02058e-06
5.06301e-05
-6.14549e-06
5.20845e-05
-5.33618e-06
4.77863e-05
-3.94171e-06
3.87271e-05
-2.69729e-06
2.81405e-05
-2.77841e-06
1.94722e-05
-5.73717e-06
1.64752e-05
-1.32315e-05
2.15278e-05
-2.6641e-05
3.46481e-05
-4.48106e-05
5.20572e-05
-6.36544e-05
6.81702e-05
-7.97011e-05
7.62068e-05
-8.87915e-05
7.00978e-05
-9.08182e-05
4.84533e-05
-8.67375e-05
2.02411e-05
-7.89389e-05
9.55357e-06
-6.7765e-05
3.87057e-05
-6.90045e-05
0.000134199
-5.02804e-05
0.000206658
-7.07955e-05
0.000274504
2.50654e-05
6.933e-05
3.6731e-05
-6.99993e-05
6.70425e-05
2.90099e-05
-1.38766e-05
2.24618e-05
6.27741e-05
-6.53176e-05
3.07384e-05
6.38136e-05
-2.42464e-05
4.98549e-05
-4.11708e-06
-1.84989e-05
-7.40882e-05
1.2537e-06
0.000116773
-3.8317e-06
1.27885e-05
4.59782e-05
-6.19251e-06
3.34065e-05
9.75804e-05
-4.49704e-05
-8.18209e-05
-6.87661e-05
-8.35442e-05
-9.16855e-05
-7.12341e-05
-7.63421e-05
3.63738e-05
-7.73504e-05
7.56482e-05
8.23198e-05
-4.30811e-05
-8.25671e-05
8.15491e-05
9.94186e-05
-7.77863e-05
7.2703e-05
2.87318e-05
-2.03773e-05
-0.000102383
2.45937e-05
0.000101566
6.79978e-05
-8.69352e-05
-8.08896e-05
-4.18481e-05
2.87697e-06
3.8039e-05
-6.45723e-06
-9.65559e-05
8.9705e-06
-8.9709e-05
4.74951e-06
-8.13707e-05
-1.74474e-07
4.22962e-05
-1.20077e-05
3.98012e-05
-1.4074e-05
3.75436e-05
-1.52059e-05
3.614e-05
-1.5198e-05
3.5613e-05
-1.38029e-05
3.59243e-05
-1.11729e-05
3.67107e-05
-7.32282e-06
3.811e-05
-3.04657e-06
3.98713e-05
1.80553e-06
4.21753e-05
6.23889e-06
4.47839e-05
1.01408e-05
4.74245e-05
1.29343e-05
4.93675e-05
1.45366e-05
5.00212e-05
1.4867e-05
4.9069e-05
1.43243e-05
4.65543e-05
1.33582e-05
4.2764e-05
1.23635e-05
3.78591e-05
1.16313e-05
3.1828e-05
1.10069e-05
2.48209e-05
1.02515e-05
1.76557e-05
9.11061e-06
1.1456e-05
7.23921e-06
7.41512e-06
4.58029e-06
6.13746e-06
1.00347e-06
6.97142e-06
-3.39559e-06
8.61922e-06
-9.36951e-06
1.01652e-05
-1.77712e-05
1.16178e-05
-2.9349e-05
1.43061e-05
-4.48772e-05
2.0302e-05
-6.51526e-05
3.19143e-05
-9.10417e-05
5.18157e-05
-0.000122743
8.31198e-05
-0.000157355
0.000127503
-0.000186098
0.000183556
-0.00018721
0.000242438
-0.000150573
0.000281615
-2.54112e-05
-1.51253e-05
7.59519e-06
1.37785e-05
-1.65508e-05
9.2221e-06
-2.01287e-05
9.57539e-06
-2.68172e-05
8.12239e-06
-3.74372e-05
4.4227e-06
-5.23223e-05
-1.38223e-06
3.0225e-06
1.25265e-05
-9.23055e-06
-3.22091e-05
8.19897e-05
-6.0764e-05
5.25695e-05
-3.7494e-05
8.3873e-05
3.01836e-05
7.29755e-05
-1.58182e-05
0.000107238
1.07632e-05
1.97186e-05
0.000103519
4.17844e-05
-7.56943e-05
-3.11472e-05
-5.03482e-05
-8.28616e-05
7.88594e-05
-2.47468e-05
1.38859e-05
-7.2848e-05
-1.57038e-05
4.10742e-06
-1.99147e-06
-7.19901e-05
8.60083e-05
-4.23146e-05
3.42554e-05
-3.04309e-05
-6.471e-05
6.3283e-05
-9.91599e-05
1.75204e-05
0.00010427
-7.17169e-06
-6.91385e-05
1.8024e-05
1.08309e-05
0.000267732
4.77087e-05
0.000197338
6.17718e-05
0.0001296
6.72711e-05
5.37572e-05
1.9348e-05
0.000109244
-4.92865e-05
0.000210435
-0.000130477