/*--------------------------------*- C++ -*----------------------------------*\
| =========                 |                                                 |
| \\      /  F ield         | OpenFOAM: The Open Source CFD Toolbox           |
|  \\    /   O peration     | Version:  2212                                  |
|   \\  /    A nd           | Website:  www.openfoam.com                      |
|    \\/     M anipulation  |                                                 |
\*---------------------------------------------------------------------------*/
FoamFile
{
    version     2.0;
    format      ascii;
    arch        "LSB;label=32;scalar=64";
    class       surfaceScalarField;
    location    "0.0161";
    object      phi;
}
// * * * * * * * * * * * * * * * * * * * * * * * * * * * * * * * * * * * * * //

dimensions      [1 0 -1 0 0 0 0];

oriented        oriented;

internalField   nonuniform List<scalar> 
4475
(
0.000122868
-0.000136186
0.000131075
-0.000131431
-1.2755e-05
-1.28978e-05
1.07052e-05
5.37571e-06
0.000227774
-0.000255277
4.41319e-05
-1.41151e-05
-1.65814e-05
4.63846e-05
1.56158e-05
-4.32971e-05
-4.76134e-05
4.35432e-05
4.84427e-05
-4.37814e-05
4.83623e-05
-2.96792e-05
-5.3814e-05
3.54737e-05
-7.13996e-06
9.41179e-06
5.45168e-05
-5.00911e-05
-2.6082e-05
-4.80861e-05
3.72413e-05
3.93214e-05
4.86509e-05
-4.87886e-05
-4.85172e-05
-6.33168e-05
1.18799e-06
4.43018e-06
5.3241e-05
-9.90854e-06
7.7748e-06
-6.3809e-05
-7.15104e-05
8.43986e-06
-3.42172e-06
6.63608e-05
-7.22299e-05
-1.62803e-06
3.29707e-06
-7.16676e-05
-6.18066e-06
7.32114e-06
-6.99776e-05
-9.40535e-06
9.67974e-06
-6.76201e-05
-1.13888e-05
1.08683e-05
-1.20205e-05
-6.34433e-05
9.44512e-06
6.12608e-05
8.23969e-06
-5.86926e-05
-8.08102e-06
6.78768e-05
-1.55818e-05
7.1872e-05
-1.21956e-05
7.42644e-05
-8.97069e-06
7.53581e-05
-5.40633e-06
7.55144e-05
-1.47204e-06
8.05643e-05
1.54167e-06
6.73197e-05
-1.42126e-06
5.829e-05
3.31733e-06
6.48161e-05
9.06421e-06
-2.5943e-05
5.06429e-05
-1.62648e-06
1.43892e-06
6.08147e-05
-5.87963e-05
-3.27653e-06
-6.05814e-05
6.74668e-06
3.84599e-05
9.48638e-07
-3.34464e-06
2.78588e-05
4.49093e-06
-6.91142e-06
1.96038e-05
8.13923e-06
-9.76226e-06
1.41645e-05
1.08313e-05
-1.15e-05
1.10833e-05
1.20856e-05
-1.18383e-05
9.82653e-06
1.1804e-05
-1.12062e-05
9.97189e-06
1.02673e-05
-9.84314e-06
1.1552e-05
7.74499e-06
-7.84894e-06
1.48412e-05
4.45838e-06
-5.12944e-06
1.99471e-05
5.7115e-07
-1.54483e-06
2.63674e-05
-3.73599e-06
2.61163e-06
3.31877e-05
-8.06906e-06
6.87824e-06
3.93345e-05
-1.14782e-05
1.01556e-05
4.42353e-05
-1.3247e-05
1.14665e-05
-1.27671e-05
4.7906e-05
1.01851e-05
-4.5217e-05
5.09784e-05
-1.4468e-05
-3.7915e-05
-1.40899e-05
-2.96639e-05
-1.20472e-05
-2.18288e-05
-8.53238e-06
-1.5238e-05
-4.41022e-06
-1.05607e-05
-1.3524e-07
-7.96505e-06
3.87635e-06
-7.24079e-06
7.52089e-06
-8.12368e-06
1.02491e-05
-1.07688e-05
1.16879e-05
-1.54932e-05
1.14506e-05
-2.25244e-05
9.40716e-06
-3.16802e-05
6.05732e-06
-4.2152e-05
2.26042e-06
-5.32869e-05
-4.06963e-07
-6.61017e-05
2.9794e-07
-5.64747e-05
8.11057e-06
-2.42771e-05
-6.19919e-05
6.72648e-06
-6.13169e-05
5.77965e-06
-6.34789e-05
4.19794e-06
-2.19097e-06
-6.89324e-05
2.49126e-06
-6.97687e-05
5.0957e-06
-6.9395e-05
8.10395e-06
-6.82852e-05
9.37731e-06
-6.62321e-05
9.16619e-06
-6.4987e-05
8.18251e-06
-1.00572e-05
7.13323e-06
4.98069e-05
-1.31309e-05
5.50571e-05
6.83895e-05
-2.09653e-05
-5.7907e-05
7.35463e-05
-1.27505e-05
7.67694e-05
-8.70441e-06
7.83429e-05
-5.20473e-06
7.89566e-05
-2.67959e-06
7.7964e-05
-1.03187e-06
7.08273e-05
-9.53214e-07
6.37131e-05
3.81815e-07
5.82607e-05
1.02275e-06
4.70791e-05
-2.86142e-06
3.50558e-05
-6.59816e-06
2.49888e-05
-9.42615e-06
1.7977e-05
-1.10855e-05
1.37777e-05
-1.15908e-05
1.18001e-05
-1.11794e-05
1.13028e-05
-1.03514e-05
1.21126e-05
-9.35441e-06
1.44857e-05
-7.96136e-06
1.86841e-05
-5.83587e-06
2.44177e-05
-2.73914e-06
3.07513e-05
9.63941e-07
3.64244e-05
4.84913e-06
4.04639e-05
7.71287e-06
4.27454e-05
8.67207e-06
4.38413e-05
7.23364e-06
6.44609e-06
-5.66663e-05
-5.65352e-06
4.13479e-06
4.41152e-05
1.16688e-06
-5.39427e-05
-6.2951e-05
4.63083e-06
-5.29975e-05
5.91462e-05
-1.58983e-05
-4.51181e-05
-1.56013e-05
-3.56604e-05
-1.44692e-05
-2.61407e-05
-1.18178e-05
-1.74394e-05
-8.5116e-06
-1.06772e-05
-4.61052e-06
-6.21151e-06
-3.8657e-07
-4.13551e-06
3.45589e-06
-4.27837e-06
7.00185e-06
-6.57736e-06
9.52537e-06
-1.10673e-05
1.05168e-05
-1.77015e-05
9.65586e-06
-2.61947e-05
7.13324e-06
-3.58029e-05
3.70342e-06
-4.56649e-05
4.89936e-07
-5.45841e-05
-1.22752e-06
-6.10035e-05
-3.90393e-07
-6.03454e-05
3.18362e-06
-6.06563e-05
5.08083e-06
-6.16403e-05
6.33547e-06
-6.3095e-05
5.9345e-06
-6.5716e-05
5.64794e-06
-6.70289e-05
6.96716e-06
-6.71588e-05
8.18871e-06
-6.70946e-05
8.67339e-06
-6.64811e-05
7.38119e-06
-6.51815e-05
5.39727e-06
-2.63604e-05
5.9353e-05
-5.85108e-05
2.41272e-05
-5.70781e-05
-1.38188e-05
4.64866e-05
-3.0962e-05
-3.71816e-05
3.44421e-05
3.34796e-05
4.13025e-05
7.47441e-05
-5.58201e-06
3.20664e-06
-6.36662e-05
7.25396e-05
-1.07612e-05
7.60316e-05
-1.01902e-05
7.88654e-05
-7.55913e-06
8.05988e-05
-5.52326e-06
8.04521e-05
-4.21278e-06
7.806e-05
-3.66916e-06
7.22653e-05
-3.74142e-06
6.40489e-05
-3.89133e-06
5.4913e-05
-4.99719e-06
4.34782e-05
-7.78259e-06
3.22332e-05
-1.04267e-05
2.3376e-05
-1.19926e-05
1.75503e-05
-1.22935e-05
1.42287e-05
-1.16351e-05
1.26904e-05
-1.06588e-05
1.242e-05
-9.81587e-06
1.36202e-05
-9.13924e-06
1.67562e-05
-8.23893e-06
2.19371e-05
-6.65552e-06
2.84483e-05
-4.21695e-06
3.46495e-05
-1.00035e-06
3.9068e-05
2.11493e-06
4.10578e-05
4.3084e-06
4.11022e-05
4.9683e-06
4.01306e-05
3.89259e-06
3.88049e-05
1.35979e-06
1.20002e-06
3.67907e-05
-2.87246e-06
-1.14731e-06
4.27799e-05
-4.40938e-06
4.99087e-05
-8.74544e-06
5.73311e-05
-3.44093e-05
3.72277e-05
-4.94797e-05
6.35625e-05
-1.32365e-05
-6.47195e-05
-3.47693e-05
6.87754e-05
-6.29805e-05
5.5582e-05
5.74671e-05
-5.83231e-05
-2.08425e-06
-5.97816e-05
6.71329e-05
-5.3378e-05
5.03993e-05
-7.16712e-05
4.61627e-05
4.17041e-05
-4.28094e-05
-6.81502e-05
-1.35245e-05
2.83389e-05
-6.51068e-05
2.89665e-06
6.45803e-06
-7.20229e-06
3.40239e-05
4.38996e-06
4.02736e-05
7.79707e-07
4.83796e-05
-4.37374e-06
5.76463e-05
-1.02873e-05
6.63977e-05
-6.78753e-05
-1.52664e-05
7.30394e-05
-6.11573e-05
-1.71465e-05
-5.3584e-05
-1.75005e-05
-4.37432e-05
-1.64472e-05
-3.32505e-05
-1.41025e-05
-2.26422e-05
-1.12864e-05
-1.33913e-05
-7.93466e-06
-6.42771e-06
-4.27872e-06
-2.07978e-06
-3.10225e-07
-5.14086e-07
3.13768e-06
-1.69269e-06
6.12665e-06
-5.5698e-06
7.88816e-06
-1.19652e-05
8.13977e-06
-2.03757e-05
6.79409e-06
-2.98527e-05
4.23064e-06
-3.92718e-05
1.31784e-06
-4.77957e-05
-7.94948e-07
-5.44952e-05
-1.61459e-06
-5.88611e-05
-4.30807e-07
-6.01059e-05
2.12272e-06
-6.08448e-05
5.07496e-06
-6.07615e-05
6.31292e-06
-6.19728e-05
7.3219e-06
-6.374e-05
7.4115e-06
-6.48294e-05
7.41404e-06
-6.56851e-05
7.73199e-06
-6.6107e-05
7.09752e-06
-6.65269e-05
5.37986e-06
2.54584e-06
-6.63206e-05
-1.18235e-06
5.76764e-06
-5.52805e-05
5.90388e-05
0.000143567
-0.000156831
0.000137244
-0.000137999
4.18667e-05
-4.20287e-05
4.98051e-05
4.36967e-05
1.95378e-05
-7.11864e-07
4.5506e-05
1.80188e-05
-1.41634e-05
4.90116e-05
1.40429e-05
5.31761e-05
9.40525e-06
-3.92525e-06
5.79194e-05
4.55449e-06
6.39351e-05
8.18839e-07
3.99029e-06
7.08671e-05
-2.22871e-06
7.44353e-05
-5.19229e-06
7.7878e-05
-6.67549e-06
8.06326e-05
-6.06094e-06
8.20068e-05
-5.8757e-06
8.11122e-05
-5.88938e-06
7.79837e-05
-6.78368e-06
7.16737e-05
-7.48177e-06
6.29114e-05
-8.82604e-06
5.2567e-05
-1.06209e-05
4.12015e-05
-1.27346e-05
3.08868e-05
-1.41945e-05
2.31953e-05
-1.44438e-05
1.82617e-05
-1.36012e-05
1.5286e-05
-1.20471e-05
1.35999e-05
-1.07694e-05
1.31312e-05
-9.95681e-06
1.45665e-05
-9.51685e-06
1.83993e-05
-8.91585e-06
2.45814e-05
-7.82592e-06
3.16553e-05
-5.85435e-06
3.76924e-05
-3.33721e-06
4.12063e-05
-1.077e-06
4.14938e-05
4.40084e-07
3.96957e-05
1.08349e-06
3.72019e-05
4.74912e-07
3.50255e-05
-1.34627e-06
3.25004e-05
-3.81504e-06
-7.08019e-06
3.01958e-05
8.88593e-07
0.000242926
-0.000191407
-5.009e-05
-4.2672e-05
3.7461e-05
-0.000161763
0.000155052
6.16255e-05
-6.08007e-05
3.06953e-06
4.14211e-05
-2.36357e-06
-3.7985e-05
-0.000202804
-1.41098e-05
5.07397e-05
0.000176425
-7.44209e-05
-3.40479e-05
-2.28296e-06
-6.63028e-05
-5.55845e-05
5.75387e-06
6.15254e-05
-6.97408e-05
7.71099e-05
-1.79962e-05
-6.19041e-05
-1.85947e-05
-5.23119e-05
-1.84409e-05
-4.1825e-05
-1.61361e-05
-3.02927e-05
-1.35666e-05
-1.92583e-05
-1.03772e-05
-9.74078e-06
-6.96112e-06
-2.57984e-06
-3.38895e-06
1.54124e-06
-8.19008e-09
2.40425e-06
2.65541e-06
-1.71612e-08
4.60634e-06
-5.32183e-06
5.31327e-06
-1.33484e-05
4.75711e-06
-2.30235e-05
3.22831e-06
-3.28515e-05
1.1508e-06
-4.17833e-05
-6.3576e-07
-4.88097e-05
-1.63409e-06
-5.39475e-05
-1.29902e-06
-5.71873e-05
1.78015e-07
-5.87595e-05
2.66313e-06
-5.9464e-05
5.52726e-06
-5.99427e-05
6.54887e-06
-6.12299e-05
8.0159e-06
-6.28079e-05
7.72357e-06
-6.41141e-05
6.76703e-06
-6.50847e-05
6.172e-06
-6.57428e-05
4.83831e-06
-6.6087e-05
2.55779e-06
-6.72102e-05
4.70088e-07
5.38508e-07
-6.66025e-05
-5.11837e-05
-6.16161e-05
5.18355e-05
7.54657e-06
-8.97297e-05
7.04531e-05
-2.04444e-06
4.1377e-05
2.72824e-05
-4.5811e-05
4.22293e-05
2.40877e-05
4.53619e-05
2.0386e-05
4.99448e-05
1.60739e-05
5.57118e-05
1.09955e-05
6.22161e-05
6.63333e-06
6.87747e-05
2.8205e-06
7.3998e-05
-5.14089e-07
7.78522e-05
-3.12711e-06
8.09914e-05
-4.8779e-06
8.18475e-05
-6.06638e-06
8.07533e-05
-7.958e-06
7.6956e-05
-9.9351e-06
7.03686e-05
-1.1671e-05
6.12222e-05
-1.37686e-05
5.06197e-05
-1.58011e-05
3.99533e-05
-1.73726e-05
3.09239e-05
-1.78311e-05
2.43464e-05
-1.69699e-05
1.98254e-05
-1.51289e-05
1.6718e-05
-1.31455e-05
1.443e-05
-1.16871e-05
1.35888e-05
-1.09622e-05
1.51641e-05
-1.06022e-05
1.96417e-05
-1.02e-05
2.65277e-05
-9.26107e-06
3.40506e-05
-7.65786e-06
4.00308e-05
-5.89374e-06
4.27144e-05
-4.32745e-06
4.16559e-05
-3.12667e-06
3.88984e-05
-2.62557e-06
3.55396e-05
-2.80378e-06
3.26865e-05
-3.51473e-06
3.01364e-05
-4.23703e-06
2.81682e-05
-6.13055e-06
8.66869e-06
-3.34388e-06
2.32688e-05
1.30215e-05
2.45547e-05
1.57262e-05
2.77759e-05
1.57649e-05
3.47345e-05
1.24622e-05
4.5001e-05
6.56314e-06
5.70072e-05
-1.23358e-06
6.94178e-05
-8.65288e-06
7.93028e-05
8.55822e-05
-1.34155e-05
-0.000175598
-6.97574e-05
8.05146e-05
-2.0535e-05
2.5046e-05
-0.000234642
0.000233152
-6.53048e-05
4.92534e-05
-5.45133e-05
7.19099e-05
-9.27016e-05
-3.88962e-05
0.000121416
0.000120441
-0.000137871
-3.45911e-05
4.69186e-05
9.47043e-05
-6.73166e-05
-2.22298e-06
-2.72737e-06
-6.8362e-05
-5.16626e-05
-7.33758e-05
6.28114e-05
-8.07686e-05
-4.05457e-05
1.35761e-05
-0.000142759
8.57885e-05
-0.00011571
0.000155289
4.67041e-05
4.31468e-05
3.92243e-05
-4.25789e-05
3.38575e-05
3.86891e-05
3.19023e-05
4.13442e-05
2.79288e-05
4.62463e-05
2.33513e-05
5.25116e-05
1.7972e-05
5.93671e-05
1.29087e-05
6.61108e-05
8.26289e-06
7.19822e-05
3.85314e-06
7.65888e-05
-1.47266e-07
7.95292e-05
-3.58734e-06
8.05816e-05
-6.68603e-06
7.90947e-05
-9.85897e-06
7.50303e-05
-1.29846e-05
6.82998e-05
-1.57304e-05
5.92742e-05
-1.83484e-05
4.92365e-05
-2.04417e-05
3.96899e-05
-2.15116e-05
3.19551e-05
-2.11938e-05
2.61831e-05
-1.94712e-05
2.18205e-05
-1.70953e-05
1.81247e-05
-1.49071e-05
1.51426e-05
-1.34749e-05
1.39235e-05
-1.27473e-05
1.56521e-05
-1.23948e-05
2.05362e-05
-1.19222e-05
2.79959e-05
-1.09194e-05
3.59036e-05
-9.59358e-06
4.16405e-05
-8.15424e-06
4.34928e-05
-6.82291e-06
4.18412e-05
-6.0179e-06
3.88354e-05
-5.70213e-06
3.5032e-05
-5.25209e-06
3.21013e-05
-5.25587e-06
2.99874e-05
-4.69835e-06
2.84621e-05
-5.18765e-06
2.56948e-05
-5.05054e-08
1.08977e-05
-9.02918e-06
2.34104e-05
1.31662e-05
1.99344e-05
1.49362e-05
1.98317e-05
1.55848e-05
2.1879e-05
1.47755e-05
2.85436e-05
1.28824e-05
3.91762e-05
8.74327e-06
5.39927e-05
2.10314e-06
7.08776e-05
-4.64704e-06
8.45673e-05
-9.33064e-06
9.34665e-05
-9.023e-05
9.96665e-05
-1.12809e-05
-8.05197e-05
-1.42585e-05
-7.14033e-05
-1.74835e-05
-6.14206e-05
-1.81577e-05
-5.08247e-05
-1.75364e-05
-3.89375e-05
-1.54317e-05
-2.70045e-05
-1.24239e-05
-1.58032e-05
-9.03835e-06
-6.25614e-06
-5.5974e-06
6.53403e-07
-2.26514e-06
4.29837e-06
2.29755e-07
4.29882e-06
1.85337e-06
5.21089e-07
2.37768e-06
-5.88648e-06
1.90543e-06
-1.4967e-05
7.99018e-07
-2.50667e-05
-5.22331e-07
-3.46211e-05
-1.63125e-06
-4.26774e-05
-2.02381e-06
-4.86747e-05
-1.64998e-06
-5.27696e-05
-3.40934e-07
-5.54829e-05
1.45285e-06
-5.71638e-05
3.79699e-06
-5.85442e-05
6.27626e-06
-5.97892e-05
6.58912e-06
-6.13909e-05
7.71536e-06
-6.2894e-05
6.46367e-06
-6.42916e-05
4.932e-06
-6.51664e-05
3.67225e-06
-6.57285e-05
1.99422e-06
-6.64171e-05
7.4183e-08
-2.35882e-06
-6.64169e-05
-6.02979e-05
-6.76058e-05
5.68788e-05
-4.44334e-06
-6.81716e-05
-7.45689e-05
-2.39897e-06
6.81867e-06
3.29216e-06
-6.06763e-05
-8.65804e-05
9.47021e-05
-9.43047e-05
-5.9555e-05
8.45818e-05
-4.62163e-05
-3.3297e-05
7.01346e-05
-9.69122e-05
-1.03381e-05
9.41499e-05
3.34899e-05
-2.2535e-05
4.38791e-05
3.8508e-05
-5.19616e-05
3.68113e-05
4.31551e-05
3.47102e-05
4.09903e-05
3.67774e-05
3.62011e-05
4.17348e-05
3.06625e-05
4.81556e-05
2.48411e-05
5.53023e-05
1.89276e-05
6.21819e-05
1.34485e-05
6.8436e-05
7.71569e-06
7.33448e-05
2.37193e-06
7.65039e-05
-2.63654e-06
7.75827e-05
-7.31431e-06
7.61679e-05
-1.16099e-05
7.21679e-05
-1.57075e-05
6.56006e-05
-1.92314e-05
5.72218e-05
-2.23118e-05
4.82647e-05
-2.43473e-05
4.00879e-05
-2.49611e-05
3.35881e-05
-2.41264e-05
2.84294e-05
-2.19478e-05
2.38574e-05
-1.93804e-05
1.94215e-05
-1.7207e-05
1.57308e-05
-1.5811e-05
1.42394e-05
-1.50433e-05
1.60158e-05
-1.45437e-05
2.13128e-05
-1.38496e-05
2.94045e-05
-1.27065e-05
3.73322e-05
-1.11784e-05
4.25083e-05
-9.55204e-06
4.38796e-05
-8.38771e-06
4.2113e-05
-7.92457e-06
3.8984e-05
-7.45987e-06
3.55156e-05
-7.11449e-06
3.28406e-05
-6.78392e-06
3.12978e-05
-5.75053e-06
3.06382e-05
-5.74361e-06
3.09895e-05
-9.33279e-07
3.01154e-05
-9.30179e-06
-1.3456e-05
2.62052e-05
1.5277e-05
-3.31703e-06
1.24084e-05
9.89122e-06
5.35225e-06
2.09827e-05
5.28277e-06
3.06254e-05
6.26644e-06
3.79493e-05
1.35907e-05
4.20243e-05
2.73339e-05
3.73561e-05
5.2018e-05
2.43009e-05
7.95521e-05
9.53948e-06
9.83864e-05
-1.32978e-06
0.000107265
-7.63611e-06
0.000111068
-0.000101481
0.000106213
-8.25973e-06
-9.32332e-05
-1.04774e-05
-8.33624e-05
-1.16759e-05
-7.24311e-05
-1.44663e-05
-6.06618e-05
-1.56335e-05
-4.84461e-05
-1.54432e-05
-3.59155e-05
-1.35878e-05
-2.36265e-05
-1.07019e-05
-1.24118e-05
-7.37304e-06
-3.07662e-06
-4.11295e-06
3.2624e-06
-1.4319e-06
5.94616e-06
1.62025e-08
4.82852e-06
2.70473e-07
2.17641e-07
-3.83587e-07
-6.95546e-06
-1.69782e-06
-1.62481e-05
-3.01131e-06
-2.60355e-05
-3.78636e-06
-3.5021e-05
-3.64607e-06
-4.22185e-05
-2.71526e-06
-4.74584e-05
-1.05628e-06
-5.11027e-05
8.41777e-07
-5.36971e-05
2.93702e-06
-5.57972e-05
4.89487e-06
-5.76224e-05
6.39357e-06
-6.00229e-05
6.37817e-06
-6.20191e-05
6.07389e-06
-6.39974e-05
4.30515e-06
-6.51981e-05
1.96447e-06
-6.57322e-05
4.43795e-07
-6.56928e-05
-1.11989e-06
-6.54158e-05
-2.70863e-06
-4.42085e-06
-6.54125e-05
-6.65562e-05
-4.69299e-06
-6.57169e-05
-8.13233e-05
-7.30336e-05
-7.11507e-05
6.54558e-05
4.90066e-05
0.000106064
-0.000117775
-3.89451e-05
-6.66118e-05
-6.69777e-06
-8.65461e-05
-1.22824e-05
-6.63795e-06
-9.84086e-05
-3.84661e-05
-0.000102778
-6.12202e-05
4.89275e-06
-3.0425e-05
-5.01017e-05
-1.98993e-05
-3.9854e-05
1.41631e-05
-6.8419e-05
-4.16197e-06
-7.66538e-05
-9.54178e-05
-9.92596e-05
-8.33208e-05
1.15273e-05
-1.56231e-05
2.90061e-05
1.05879e-05
1.40283e-05
1.23893e-05
4.38263e-06
1.89587e-05
-1.56694e-06
2.55078e-05
-3.12882e-06
2.63025e-05
7.04042e-06
2.44893e-05
2.3366e-05
2.07261e-05
5.07243e-05
1.47698e-05
8.2773e-05
7.42779e-06
0.000105928
-1.23271e-06
0.000117896
-9.20407e-06
0.000120928
-1.36053e-05
0.000109154
-0.000101962
-1.46222e-05
9.73342e-05
-0.000102478
-6.99703e-06
-9.6432e-05
-9.46268e-06
-8.65566e-05
-8.7738e-06
-7.4098e-05
-1.07895e-05
-6.04917e-05
-1.21042e-05
-4.66177e-05
-1.24737e-05
-3.29888e-05
-1.11099e-05
-2.02068e-05
-8.67611e-06
-9.04591e-06
-5.70677e-06
-3.20114e-07
-2.99296e-06
4.9158e-06
-1.21876e-06
6.35392e-06
-7.6983e-07
4.22078e-06
-1.55391e-06
-8.04788e-07
-3.22092e-06
-8.06824e-06
-4.95303e-06
-1.67981e-05
-6.05452e-06
-2.57417e-05
-6.04148e-06
-3.37751e-05
-4.8269e-06
-4.03696e-05
-2.63836e-06
-4.53225e-05
-1.09688e-07
-4.90197e-05
2.21812e-06
-5.20141e-05
4.17422e-06
-5.48034e-05
5.42954e-06
-5.7535e-05
5.85268e-06
-6.03325e-05
4.68404e-06
-6.34474e-05
4.10987e-06
-6.52832e-05
9.94404e-07
-6.67553e-05
-9.90293e-07
-6.64644e-05
-3.14099e-06
-6.55456e-05
-4.33637e-06
-6.44449e-05
-5.16729e-06
-5.86478e-06
-6.37221e-05
-6.63626e-06
-6.52285e-05
5.29765e-05
-4.00709e-05
-5.42712e-05
-7.15269e-05
-9.70176e-05
2.62749e-05
-3.43877e-08
6.04633e-06
-3.31458e-05
0.000188815
1.96245e-05
-0.000182642
-1.79667e-05
3.2184e-05
5.54824e-05
-4.46638e-05
2.93268e-05
4.96028e-05
3.14125e-05
4.35328e-05
3.62655e-05
3.72123e-05
4.26317e-05
3.08098e-05
4.97697e-05
2.40774e-05
5.68133e-05
1.76754e-05
6.32465e-05
1.08272e-05
6.84292e-05
4.26307e-06
7.18206e-05
-1.98093e-06
7.30556e-05
-7.80887e-06
7.2082e-05
-1.3138e-05
6.84603e-05
-1.79021e-05
6.24979e-05
-2.20035e-05
5.50509e-05
-2.52986e-05
4.74569e-05
-2.72884e-05
4.08671e-05
-2.76782e-05
3.54455e-05
-2.6468e-05
3.06542e-05
-2.41905e-05
2.56815e-05
-2.167e-05
2.04789e-05
-1.95887e-05
1.61604e-05
-1.82052e-05
1.44318e-05
-1.737e-05
1.6369e-05
-1.66918e-05
2.23285e-05
-1.56831e-05
3.06745e-05
-1.39591e-05
3.83507e-05
-1.20639e-05
4.30627e-05
-1.01439e-05
4.40587e-05
-8.99363e-06
4.19698e-05
-8.38733e-06
3.9219e-05
-8.2421e-06
3.60465e-05
-8.31596e-06
3.36859e-05
-8.38066e-06
3.29182e-05
-8.17633e-06
3.37958e-05
-9.10855e-06
3.71828e-05
-6.68699e-06
3.86729e-05
-1.33923e-05
4.40583e-05
5.74187e-06
4.73965e-05
-2.29743e-05
-7.76741e-05
-8.33063e-05
7.54859e-05
-7.9739e-05
-8.78722e-05
0.000206898
-1.32432e-05
1.75828e-05
-0.000212531
-5.95896e-05
-5.3541e-06
-7.4099e-05
-6.56644e-05
-7.03197e-06
-0.000113537
0.000115609
-2.44163e-05
-0.000109015
-1.54998e-05
-0.000100765
-1.54132e-05
-8.9906e-05
-9.94367e-06
-7.60724e-05
-9.3398e-06
-6.08203e-05
-9.26704e-06
-4.51816e-05
-9.57802e-06
-3.0172e-05
-8.74856e-06
-1.68958e-05
-6.89349e-06
-5.93744e-06
-4.66044e-06
1.85484e-06
-2.65589e-06
5.76642e-06
-1.80834e-06
5.97116e-06
-2.20481e-06
3.04834e-06
-3.73784e-06
-1.99741e-06
-5.73974e-06
-8.67352e-06
-7.34968e-06
-1.62358e-05
-7.92597e-06
-2.39428e-05
-7.08495e-06
-3.11503e-05
-4.96263e-06
-3.72949e-05
-2.04286e-06
-4.24339e-05
9.39891e-07
-4.67079e-05
3.36395e-06
-5.05551e-05
4.84674e-06
-5.43246e-05
5.20935e-06
-5.81044e-05
4.50305e-06
-6.21882e-05
2.82191e-06
-6.48706e-05
7.39339e-07
-6.68471e-05
-2.33598e-06
-6.75898e-05
-4.22635e-06
-6.69732e-05
-6.24913e-06
-6.49916e-05
-7.35737e-06
-6.24704e-05
-7.48562e-06
-6.10991e-05
-6.30658e-06
-7.48392e-06
-6.33795e-05
4.28393e-05
-3.61271e-05
4.69635e-05
-0.000109474
-7.36138e-05
-4.93241e-05
4.77405e-05
3.76362e-05
-3.07901e-05
1.55666e-06
-1.00267e-05
-1.50469e-05
8.15876e-06
-1.84159e-05
2.27013e-05
-2.06376e-05
3.50357e-05
-2.09698e-05
5.19413e-05
-1.54789e-05
7.72924e-05
-8.10006e-06
8.64789e-05
3.81653e-05
6.72657e-05
0.000101225
3.83635e-05
0.000136025
8.91944e-06
0.000148564
-1.50287e-05
0.000143299
-1.92708e-05
0.000106609
6.37978e-07
6.62736e-05
3.05375e-06
0.000103212
6.46853e-05
-4.10829e-05
-6.35008e-05
0.000116425
-9.81773e-05
0.000109595
-7.33705e-05
0.000101281
-4.89515e-05
-2.6721e-05
-3.97999e-05
4.73207e-05
4.04391e-05
-1.5053e-05
-7.15514e-05
-6.62758e-05
5.31984e-05
1.85588e-05
-1.44357e-05
-1.09168e-05
-3.4863e-05
3.11604e-05
2.35333e-05
5.58226e-05
-2.71584e-05
2.26862e-05
5.33771e-05
2.51177e-05
4.84203e-05
2.98378e-05
4.21644e-05
3.60629e-05
3.52293e-05
4.28618e-05
2.80262e-05
4.99689e-05
2.05749e-05
5.64922e-05
1.2986e-05
6.19199e-05
5.52008e-06
6.56513e-05
-1.596e-06
6.73918e-05
-8.18072e-06
6.6844e-05
-1.41154e-05
6.38359e-05
-1.94074e-05
5.87823e-05
-2.38359e-05
5.26734e-05
-2.72325e-05
4.66393e-05
-2.91277e-05
4.14912e-05
-2.93386e-05
3.70801e-05
-2.8065e-05
3.24831e-05
-2.58909e-05
2.70252e-05
-2.35365e-05
2.10881e-05
-2.1585e-05
1.62753e-05
-2.02405e-05
1.44341e-05
-1.92917e-05
1.67058e-05
-1.83329e-05
2.33124e-05
-1.68282e-05
3.19099e-05
-1.46408e-05
3.92563e-05
-1.21869e-05
4.34105e-05
-9.97953e-06
4.36697e-05
-8.46583e-06
4.14292e-05
-7.90676e-06
3.85971e-05
-8.0745e-06
3.53121e-05
-8.86904e-06
3.34685e-05
-1.05771e-05
3.35682e-05
-1.22928e-05
3.62459e-05
-1.55672e-05
4.24868e-05
-1.67513e-05
4.89141e-05
-2.38218e-05
6.47874e-05
-1.56456e-05
7.39647e-05
-3.76296e-05
9.44872e-05
1.75695e-05
1.42195e-05
0.000209125
-1.75487e-05
-9.64112e-06
-6.38523e-05
-3.58582e-05
1.68643e-05
-8.09924e-05
-9.79694e-05
8.79478e-05
-8.58404e-05
-0.000108688
-9.19212e-05
-9.53629e-05
-0.000217648
-3.60758e-05
0.000239831
0.000216105
-1.31415e-05
-0.000199599
4.60246e-05
-5.11611e-06
-6.75243e-05
-2.2926e-06
-6.50395e-05
4.03392e-05
4.21349e-05
-4.02821e-05
-7.3964e-05
-0.000189459
8.67088e-05
2.191e-05
-3.80512e-05
-1.35018e-05
2.61834e-05
-1.7386e-05
-0.000236544
-3.97889e-07
0.000257096
-0.000147939
0.000178869
-2.65097e-05
-0.000126531
-4.88202e-05
-0.000110724
-3.66759e-05
-9.97186e-05
-2.85888e-05
-8.90988e-05
-1.68041e-05
-7.6144e-05
-1.10312e-05
-6.03087e-05
-8.48127e-06
-4.34711e-05
-7.74419e-06
-2.74773e-05
-7.16891e-06
-1.37083e-05
-6.06378e-06
-3.06485e-06
-4.58982e-06
3.71614e-06
-3.28029e-06
6.36261e-06
-3.15962e-06
5.5326e-06
-4.04313e-06
2.21868e-06
-5.67781e-06
-2.51876e-06
-7.43448e-06
-8.13073e-06
-8.56725e-06
-1.42718e-05
-8.47527e-06
-2.06903e-05
-6.95831e-06
-2.71122e-05
-4.28786e-06
-3.3227e-05
-1.09255e-06
-3.89276e-05
1.9189e-06
-4.42187e-05
4.03009e-06
-4.92798e-05
4.85326e-06
-5.42324e-05
4.2978e-06
-5.89588e-05
2.6074e-06
-6.3309e-05
2.53778e-07
-6.6698e-05
-2.08215e-06
-6.84471e-05
-5.41743e-06
-6.8514e-05
-7.1309e-06
-6.69799e-05
-8.89674e-06
-6.4201e-05
-9.52466e-06
-6.09524e-05
-8.7933e-06
-5.77726e-05
-6.82496e-06
-2.07845e-06
-5.51717e-05
6.19326e-05
-3.29402e-05
-0.00017806
0.000154083
-0.000119019
0.000157146
-0.000125988
-0.000214341
2.0624e-05
-2.92553e-05
0.000101544
7.61916e-06
4.72913e-05
-1.20429e-05
1.63334e-05
-2.17249e-05
-7.01847e-06
-1.39944e-05
-2.72092e-05
1.27437e-05
-4.53756e-05
4.52984e-05
-5.03013e-05
5.42955e-05
-2.18462e-05
3.92963e-05
6.8725e-06
2.11921e-05
5.40997e-05
1.39771e-05
0.000107655
8.73837e-06
0.000141946
3.26405e-08
0.00015699
-1.21736e-05
0.000151678
-2.57041e-05
0.000110731
-2.93851e-05
5.74104e-05
-2.49427e-05
8.98009e-05
-3.53319e-05
0.000193478
-3.72912e-05
0.000126286
-0.000107837
0.000117916
-7.99483e-05
0.000109066
-5.61163e-05
9.93276e-05
-3.36095e-05
-2.73663e-05
9.67894e-05
-1.70575e-05
1.23997e-05
0.000127443
-0.000142227
2.49343e-05
5.56411e-05
-3.63614e-05
-5.54127e-05
1.8535e-05
5.60194e-05
1.66587e-05
5.46299e-05
1.84076e-05
5.06655e-05
2.26612e-05
4.47577e-05
2.8308e-05
3.77394e-05
3.4827e-05
3.01537e-05
4.16765e-05
2.21841e-05
4.82589e-05
1.40798e-05
5.39713e-05
6.13442e-06
5.81682e-05
-1.39686e-06
6.05285e-05
-8.31913e-06
6.0608e-05
-1.45756e-05
5.83754e-05
-2.00769e-05
5.4442e-05
-2.46026e-05
4.9754e-05
-2.79243e-05
4.53304e-05
-2.97112e-05
4.15994e-05
-2.98442e-05
3.80227e-05
-2.86428e-05
3.34991e-05
-2.66671e-05
2.75876e-05
-2.45521e-05
2.10219e-05
-2.27512e-05
1.58119e-05
-2.14203e-05
1.40385e-05
-2.03162e-05
1.6872e-05
-1.90344e-05
2.4138e-05
-1.70687e-05
3.28082e-05
-1.44654e-05
3.97948e-05
-1.15597e-05
4.31892e-05
-9.0364e-06
4.27567e-05
-7.29883e-06
3.97513e-05
-6.67534e-06
3.6094e-05
-7.161e-06
3.25151e-05
-9.29573e-06
3.04242e-05
-1.28116e-05
3.08532e-05
-1.71446e-05
3.45566e-05
-2.3509e-05
4.29055e-05
-2.92495e-05
5.49456e-05
-4.03419e-05
7.85209e-05
-4.46691e-05
0.000100781
-6.49855e-05
0.000148297
-3.58976e-05
0.000169639
-4.91041e-05
6.91988e-05
-4.10411e-05
-6.9557e-05
-1.22135e-05
-6.13313e-05
0.000132748
-0.000118601
-9.03096e-05
8.41723e-05
-5.74203e-05
5.67394e-05
-9.86096e-05
-6.92133e-05
6.71808e-05
-8.27483e-05
-0.000110504
-6.33469e-05
-8.98513e-06
-0.000126625
-0.0001108
-9.53674e-05
-0.000111974
-0.000110561
0.000230709
-0.000224139
-2.03717e-05
0.000115275
-8.51896e-05
6.64401e-05
-0.000104076
-0.000224852
0.000210192
7.47074e-06
4.114e-05
-3.74284e-05
4.56875e-05
7.17086e-06
-2.44016e-05
6.2234e-05
2.44267e-05
0.000211494
-0.000206473
1.07546e-05
1.04383e-05
0.000213693
5.28266e-05
-5.22826e-06
5.77588e-05
-7.63742e-06
6.23801e-05
-9.72114e-06
6.60054e-05
-1.06918e-05
6.83852e-05
-1.06909e-05
6.90988e-05
-9.36988e-06
6.73393e-05
-7.3238e-06
6.45389e-05
-4.95082e-06
5.97705e-05
-2.04778e-06
5.40205e-05
6.91888e-07
4.78325e-05
2.99013e-06
4.13577e-05
4.27739e-06
3.47383e-05
4.15362e-06
2.81218e-05
2.59055e-06
2.1783e-05
-8.81094e-08
1.58893e-05
-3.11429e-06
1.06309e-05
-5.94128e-06
5.94799e-06
-7.82824e-06
1.55241e-06
-8.46171e-06
-2.62363e-06
-7.93619e-06
-6.01961e-06
-6.9173e-06
-7.56455e-06
-5.76642e-06
-5.88656e-06
-5.03629e-06
1.12394e-07
-4.90736e-06
1.03635e-05
-5.34861e-06
2.44642e-05
-6.24992e-06
4.10211e-05
-6.83081e-06
5.79017e-05
-7.52277e-06
7.19454e-05
-9.69801e-06
8.13432e-05
-1.53217e-05
8.94069e-05
-2.59069e-05
0.000100344
-4.30483e-05
0.000123452
-5.87537e-05
0.000161376
-7.57033e-05
0.000218227
-6.88978e-05
0.000267664
-6.972e-05
1.41524e-05
0.000215631
-2.14639e-05
-0.000144555
0.000103609
0.000216803
-0.000138633
9.46966e-05
-9.28498e-05
-6.26399e-06
-5.52415e-05
-3.48461e-05
-2.72365e-05
-4.86075e-05
-7.2127e-06
-5.7886e-05
3.60479e-06
-6.54764e-05
1.1707e-05
-6.68695e-05
3.38808e-05
-5.13849e-05
7.7177e-05
-3.9194e-05
0.000119472
1.29724e-05
9.60424e-05
0.000135659
5.85931e-05
0.000183839
1.96172e-05
0.000197382
-2.15373e-05
0.000188376
-3.60584e-05
0.000114067
2.88534e-05
-1.95124e-05
9.69557e-05
1.29922e-05
7.05627e-05
0.000220743
2.99713e-06
0.000343177
6.86316e-05
-3.21145e-05
-1.97457e-05
-5.65954e-05
-4.68906e-05
7.94866e-05
4.78365e-05
6.44122e-05
0.000238787
-0.000181422
-0.000121425
4.19844e-05
-0.000195773
2.59427e-05
-0.000197746
1.68301e-05
-0.000199171
0.000204288
8.33731e-06
-0.000197959
0.00020714
5.89432e-06
0.000211324
4.65165e-06
-1.55989e-05
1.8759e-05
0.000207218
2.61516e-05
-9.50505e-06
1.282e-05
0.000212596
-0.000206277
-1.90569e-05
5.05663e-05
0.000105841
-4.85342e-05
5.68323e-05
0.000110758
-0.000131151
-4.09216e-05
0.000120147
-9.94973e-05
-5.73002e-05
9.16215e-05
-0.000109212
-7.02749e-05
-8.34432e-05
-0.000121766
-7.26729e-06
-6.24724e-05
7.14469e-05
-3.94786e-05
-7.40882e-05
2.47941e-05
-1.63203e-05
0.000136492
-9.8308e-05
0.000125104
-7.76809e-05
0.000115063
-5.64402e-05
0.000110778
-4.14253e-05
-3.29588e-05
0.000102622
-4.77142e-05
5.8312e-05
6.70657e-05
3.0931e-05
-1.39921e-05
-8.60644e-05
6.11059e-05
3.26607e-05
5.17384e-05
-5.60492e-05
-4.49097e-05
2.16247e-05
5.26637e-05
1.40716e-05
5.38402e-05
1.07876e-05
5.31576e-05
1.11318e-05
5.01739e-05
1.43096e-05
4.48331e-05
1.93013e-05
3.79396e-05
2.53107e-05
3.03304e-05
3.19391e-05
2.22759e-05
3.86124e-05
1.411e-05
4.46295e-05
6.15642e-06
4.93989e-05
-1.31294e-06
5.24027e-05
-8.22475e-06
5.32027e-05
-1.44088e-05
5.18911e-05
-1.97857e-05
4.9127e-05
-2.41631e-05
4.59203e-05
-2.73121e-05
4.30751e-05
-2.89522e-05
4.06343e-05
-2.90334e-05
3.77528e-05
-2.79652e-05
3.32871e-05
-2.62408e-05
2.69661e-05
-2.43668e-05
1.98901e-05
-2.27267e-05
1.4456e-05
-2.13586e-05
1.29035e-05
-2.00756e-05
1.64936e-05
-1.85426e-05
2.42756e-05
-1.62498e-05
3.29474e-05
-1.31913e-05
3.96045e-05
-1.02378e-05
4.21793e-05
-7.56653e-06
4.06526e-05
-5.73751e-06
3.63115e-05
-5.08352e-06
3.14242e-05
-6.11909e-06
2.65301e-05
-9.2382e-06
2.35824e-05
-1.44827e-05
2.35001e-05
-2.1184e-05
2.70944e-05
-3.06779e-05
3.55276e-05
-4.10563e-05
4.95534e-05
-5.80576e-05
7.56931e-05
-7.50919e-05
0.000109834
-0.000102665
0.000172896
-0.000100982
0.000216531
-8.88064e-05
0.000287849
4.15411e-05
0.000115808
6.8023e-05
-0.000125542
0.000104807
5.36037e-05
-3.49186e-05
4.04685e-05
9.24077e-05
-0.000213136
2.2346e-05
0.000220121
-2.52524e-05
8.86454e-05
-2.4217e-05
-1.11369e-05
-5.98917e-05
-3.10357e-05
0.000233494
2.85759e-05
2.9681e-05
7.69333e-05
-2.35906e-05
3.14534e-05
0.000226856
-5.35047e-05
-0.000203432
-0.000128593
-0.00011203
-0.000127556
-9.7398e-05
-0.000124246
5.61258e-05
-0.000113301
0.000102479
0.000107133
-6.91226e-05
-0.000118823
9.76967e-05
0.000211126
-0.000124064
0.000225688
2.81669e-05
-1.91235e-05
-0.00022004
2.06318e-05
0.000217652
0.000169814
-0.000131587
-0.000207241
-0.000104425
-1.78379e-05
9.13705e-05
-3.94402e-05
-0.000215044
-1.62592e-06
-0.000210455
-6.01061e-07
-0.000202535
-1.91652e-06
4.70544e-05
-5.7119e-06
5.31578e-05
-8.1864e-06
5.87209e-05
-9.99369e-06
6.33765e-05
-1.10851e-05
6.63867e-05
-1.12822e-05
6.77541e-05
-1.05472e-05
6.69235e-05
-8.63488e-06
6.41189e-05
-6.70817e-06
5.91104e-05
-3.70971e-06
5.26803e-05
-8.82126e-07
4.53382e-05
1.71413e-06
3.74787e-05
3.37479e-06
2.94593e-05
3.85517e-06
2.17693e-05
2.9177e-06
1.49521e-05
8.38744e-07
9.3626e-06
-1.75848e-06
5.09744e-06
-4.30236e-06
1.58823e-06
-6.11859e-06
-1.72479e-06
-7.09937e-06
-5.25874e-06
-7.40905e-06
-8.65727e-06
-7.21803e-06
-1.05585e-05
-6.94356e-06
-9.50475e-06
-6.75572e-06
-4.12658e-06
-6.76354e-06
6.03984e-06
-6.78734e-06
2.03859e-05
-7.016e-06
3.67263e-05
-7.29228e-06
5.19464e-05
-8.26807e-06
6.2128e-05
-1.16319e-05
6.66893e-05
-1.92649e-05
6.97709e-05
-3.28858e-05
7.92396e-05
-5.29526e-05
0.000105974
-7.42201e-05
0.000147433
-9.7352e-05
0.000206654
-0.000107202
0.000264556
-0.000111148
0.000337576
-6.43789e-05
-0.000114056
-3.20058e-05
0.000104844
-0.000121732
-4.05013e-05
-0.000129167
-5.32279e-05
-0.000140805
-6.82565e-05
-0.000155678
-8.42756e-05
-0.000175486
-9.84677e-05
-0.000129868
0.000114417
8.137e-05
-2.15624e-05
6.59607e-05
-4.91103e-05
4.6855e-05
-4.53385e-05
8.51261e-05
4.34272e-05
9.29303e-05
-3.38675e-06
0.000213527
-3.4776e-06
9.70721e-06
0.000218371
7.61649e-05
-0.000144862
-6.48131e-05
-8.14895e-05
-0.000132924
7.13595e-05
-1.26642e-05
-3.32593e-07
-5.69523e-05
-3.87496e-06
-0.000122116
-9.68529e-06
-5.71081e-05
7.24021e-05
-3.32238e-05
5.12531e-05
-3.5575e-05
-0.000185552
0.000171012
-0.000227994
5.82777e-06