/*--------------------------------*- C++ -*----------------------------------*\
| =========                 |                                                 |
| \\      /  F ield         | OpenFOAM: The Open Source CFD Toolbox           |
|  \\    /   O peration     | Version:  2212                                  |
|   \\  /    A nd           | Website:  www.openfoam.com                      |
|    \\/     M anipulation  |                                                 |
\*---------------------------------------------------------------------------*/
FoamFile
{
    version     2.0;
    format      ascii;
    arch        "LSB;label=32;scalar=64";
    class       volVectorField;
    location    "0.000147";
    object      U;
}
// * * * * * * * * * * * * * * * * * * * * * * * * * * * * * * * * * * * * * //

dimensions      [0 1 -1 0 0 0 0];

internalField   nonuniform List<vector> 
26145
(
(3.27899e-11 -12.6796 -83.0277)
(1.72148e-12 -9.41074 -44.0236)
(9.64234e-12 -7.92347 -43.7724)
(9.87939e-12 -7.37641 -36.6577)
(-1.59016e-11 -5.67323 -30.6101)
(2.69048e-11 -4.63213 -26.2525)
(-1.8928e-11 -4.28534 -22.8128)
(1.86952e-12 -3.4815 -20.2731)
(-1.13039e-11 -3.00526 -18.1287)
(-7.6852e-12 -2.39034 -16.334)
(-3.19201e-12 -1.78295 -14.9101)
(2.62126e-12 -1.01432 -13.8149)
(1.29317e-11 -0.744817 -14.9747)
(2.07671e-11 -1.58863 -18.2384)
(2.50632e-11 -2.19465 -20.9013)
(2.75777e-11 -2.47123 -22.2253)
(2.9496e-11 -2.62176 -22.7237)
(3.04229e-11 -2.59041 -22.2946)
(3.03788e-11 -2.43419 -21.3264)
(2.97469e-11 -2.25987 -20.1657)
(2.89691e-11 -2.08263 -18.9763)
(2.77106e-11 -1.90034 -17.7858)
(2.67757e-11 -1.71625 -16.567)
(2.50102e-11 -1.55717 -15.3662)
(2.33381e-11 -1.37042 -14.1262)
(2.10652e-11 -1.19387 -12.8263)
(1.95412e-11 -1.01259 -11.5372)
(1.74068e-11 -0.791657 -10.2082)
(1.64101e-11 -0.606089 -8.87075)
(1.33711e-11 -0.372114 -7.5417)
(1.36038e-11 -0.177242 -6.21815)
(4.89312e-12 0.045227 -4.9463)
(1.3115e-11 0.244261 -3.69495)
(7.89348e-12 0.46386 -2.45251)
(8.91251e-12 0.678395 -1.20397)
(4.91118e-12 0.907426 0.0811133)
(7.33812e-12 1.14768 1.24476)
(3.4791e-12 1.35114 2.23613)
(4.71204e-12 1.5363 3.15498)
(2.55589e-12 1.6357 3.97604)
(4.4393e-12 1.74256 4.81334)
(1.81296e-12 1.87153 5.62019)
(5.12586e-12 1.99061 6.53639)
(9.04338e-13 2.15029 7.47829)
(4.54107e-12 2.3427 8.51193)
(7.85974e-13 2.56792 9.49364)
(3.16115e-12 2.75743 10.4432)
(2.37384e-12 2.94988 11.3011)
(-2.35688e-13 3.11578 12.053)
(-1.33083e-14 3.25816 12.7293)
(-7.11218e-13 3.40536 13.3007)
(-4.3101e-13 3.54127 13.7937)
(1.67429e-12 3.63805 14.2082)
(2.9292e-13 3.75326 14.4969)
(3.81611e-12 3.85547 14.7137)
(5.27477e-12 3.92099 14.8651)
(2.11301e-12 3.99768 14.9675)
(1.2429e-13 4.05731 15.0067)
(1.07604e-12 4.09476 15.0153)
(-8.94084e-13 4.10947 14.9786)
(2.38939e-12 4.18233 14.918)
(2.13339e-12 4.19605 14.7911)
(-6.4038e-13 4.19459 14.5928)
(4.43912e-12 4.09437 14.1831)
(1.47205e-12 4.01942 14.023)
(-7.65033e-13 3.88885 14.0104)
(-1.18727e-12 3.86259 14.5558)
(-1.22744e-12 3.76359 13.625)
(-1.28719e-12 4.18853 19.3993)
(-4.22084e-13 2.49189 8.41844)
(5.60934e-12 7.78899 34.0024)
(2.6258e-11 16.534 8.74936)
(3.42329e-10 -14.2024 -92.579)
(3.50971e-10 -11.3722 -57.1326)
(3.79983e-10 -9.83286 -57.7827)
(4.00451e-10 -8.10435 -49.5391)
(4.18985e-10 -6.87679 -46.5782)
(4.48868e-10 -5.8556 -42.0106)
(5.10424e-10 -4.86627 -39.9483)
(4.82672e-10 -3.80411 -36.9802)
(4.81538e-10 -2.50214 -35.6811)
(4.7041e-10 -1.10206 -33.8428)
(4.36468e-10 0.33561 -32.4361)
(3.92816e-10 1.97562 -31.8308)
(3.0734e-10 1.75074 -34.1309)
(2.5305e-10 0.218361 -36.8734)
(1.98411e-10 -0.859457 -38.1179)
(1.31077e-10 -1.62934 -38.2156)
(8.99357e-11 -1.90405 -37.5308)
(6.99665e-11 -1.83927 -36.2819)
(2.89708e-11 -1.64574 -34.6661)
(-2.21289e-11 -1.48524 -32.9177)
(-3.87123e-11 -1.21831 -31.1908)
(-4.38906e-11 -1.00764 -29.553)
(-2.85859e-11 -0.775729 -27.7567)
(-9.16956e-11 -0.455515 -26.0952)
(-3.06064e-11 -0.310714 -24.2809)
(-8.62267e-11 -0.0268068 -22.3776)
(-4.78153e-11 0.26315 -20.5426)
(-7.05389e-11 0.496589 -18.5176)
(-4.96088e-11 0.835528 -16.6446)
(-7.18704e-11 1.09591 -14.635)
(-1.10188e-11 1.41538 -12.7035)
(-7.00152e-11 1.69667 -10.8221)
(1.11645e-12 2.00555 -8.91611)
(-4.0996e-11 2.28794 -7.08078)
(6.40304e-12 2.57996 -5.12542)
(-4.34455e-11 2.86865 -3.23539)
(1.26002e-11 3.14035 -1.34933)
(-2.10968e-11 3.37296 0.245365)
(-3.33602e-13 3.63743 1.67734)
(-1.12474e-11 3.86365 2.91984)
(5.9904e-12 4.15032 4.24737)
(-1.4238e-11 4.41859 5.53517)
(2.00744e-11 4.71752 7.01249)
(-3.85287e-11 4.97637 8.45537)
(2.85499e-11 5.27305 10.1578)
(-2.73953e-11 5.53959 11.6675)
(3.39572e-11 5.85464 13.3798)
(-6.91007e-14 6.17618 14.7699)
(-7.68117e-12 6.46798 16.2512)
(1.9331e-11 6.79235 17.5006)
(-2.64006e-12 7.07262 18.6978)
(-1.59533e-12 7.32521 19.7933)
(2.40381e-11 7.64892 20.8555)
(-9.46317e-12 7.86335 21.6873)
(3.13831e-11 8.09046 22.5052)
(1.09468e-11 8.29264 23.174)
(-1.45698e-13 8.52123 23.756)
(-1.005e-11 8.69225 24.1924)
(-6.00586e-12 8.8328 24.6068)
(6.06493e-12 8.98659 24.9165)
(1.20646e-11 9.03652 25.2069)
(5.34238e-12 9.21686 25.551)
(-5.23942e-12 9.38926 25.6283)
(-9.28867e-12 9.3895 25.5827)
(-1.47312e-11 9.25999 25.5741)
(-1.71694e-11 8.95154 25.7664)
(-1.64109e-11 8.57842 26.386)
(-1.38149e-11 7.35333 27.3062)
(-1.07307e-11 7.03346 28.693)
(-6.59197e-12 4.07048 29.7465)
(6.09286e-12 7.06484 33.5031)
(1.76882e-11 10.3389 26.3099)
(-1.03324e-09 -11.5396 -95.5819)
(-1.03907e-09 -10.0138 -62.2693)
(-1.06249e-09 -8.97604 -62.8288)
(-1.04532e-09 -7.49179 -55.7333)
(-1.09037e-09 -6.62025 -53.1674)
(-1.16125e-09 -5.70007 -48.8193)
(-1.25174e-09 -4.5338 -46.9289)
(-1.23991e-09 -3.32985 -43.6594)
(-1.28666e-09 -1.65782 -42.3554)
(-1.28921e-09 -0.103142 -40.1631)
(-1.26813e-09 1.11498 -38.7223)
(-1.17474e-09 2.74731 -39.0146)
(-1.07056e-09 1.1445 -42.3463)
(-9.79936e-10 -0.0180472 -44.5949)
(-8.86985e-10 -0.85083 -45.0883)
(-7.78384e-10 -1.44024 -44.3243)
(-6.54508e-10 -1.51248 -42.9829)
(-5.61713e-10 -1.29805 -41.2576)
(-3.61114e-10 -1.1741 -39.4009)
(-3.78524e-10 -1.0223 -37.4402)
(-2.44932e-10 -0.719774 -35.4779)
(-2.16714e-10 -0.466311 -33.6916)
(-2.00774e-10 -0.27451 -31.6741)
(-1.61194e-10 0.121776 -29.8239)
(-5.72373e-11 0.269391 -27.8061)
(-8.5105e-11 0.590944 -25.7427)
(-2.88014e-11 0.884123 -23.6849)
(-5.65635e-11 1.09616 -21.4767)
(3.43557e-11 1.43548 -19.433)
(-5.03224e-11 1.65877 -17.1883)
(4.18508e-11 1.9781 -15.0995)
(-4.03868e-11 2.25084 -13.0046)
(8.34806e-11 2.55683 -10.9177)
(-5.99687e-11 2.83597 -8.8958)
(7.25128e-11 3.13547 -6.74833)
(-6.14212e-11 3.44407 -4.71856)
(6.38859e-11 3.81379 -2.65795)
(-3.12671e-11 4.14054 -0.918245)
(2.19624e-11 4.44722 0.710961)
(-9.05815e-12 4.73518 2.10287)
(2.9135e-11 5.02029 3.58005)
(-3.25691e-11 5.26441 5.07541)
(7.08685e-11 5.57613 6.77237)
(-9.49107e-11 5.81363 8.44271)
(1.1013e-10 6.15879 10.3903)
(-8.60955e-11 6.46109 12.076)
(9.18946e-11 6.86968 13.9954)
(-4.75136e-11 7.24643 15.5189)
(1.5694e-11 7.61049 17.2232)
(1.88508e-11 8.05101 18.5978)
(-2.86411e-11 8.4257 20.0791)
(-2.37457e-11 8.76575 21.3669)
(4.00778e-11 9.2385 22.6403)
(1.02163e-11 9.5539 23.7569)
(1.64782e-11 9.87462 24.82)
(7.07647e-13 10.2058 25.7236)
(1.17587e-11 10.5553 26.466)
(-1.99631e-11 10.8526 27.1292)
(6.50349e-14 11.1188 27.7074)
(1.07455e-11 11.3859 28.3758)
(1.6428e-11 11.6155 28.8446)
(2.70309e-11 11.8014 29.4246)
(3.38713e-11 12.2178 29.8767)
(5.99868e-11 12.3171 30.0646)
(5.56336e-11 12.2313 30.154)
(6.21752e-11 12.0017 30.2517)
(6.01859e-11 11.5456 30.4368)
(6.11235e-11 10.6298 30.576)
(5.78963e-11 9.10919 30.0205)
(6.33155e-11 7.66678 27.9659)
(5.67175e-11 6.24548 27.301)
(7.1466e-11 11.0201 24.6084)
(5.68649e-10 -9.17608 -96.6532)
(6.68123e-10 -7.78122 -63.8864)
(6.84799e-10 -6.97296 -64.5495)
(7.35985e-10 -5.63976 -57.8468)
(7.60995e-10 -4.88859 -55.4543)
(8.2458e-10 -3.6071 -51.1307)
(8.64221e-10 -1.84537 -49.3328)
(9.13468e-10 -0.70206 -46.024)
(1.03655e-09 1.40905 -44.7711)
(1.13328e-09 2.80385 -42.8441)
(1.22378e-09 4.38318 -41.4248)
(1.29197e-09 3.73197 -43.3498)
(1.35329e-09 1.81067 -46.6751)
(1.37995e-09 1.04286 -48.0073)
(1.41089e-09 0.329367 -47.801)
(1.41114e-09 0.277731 -46.6544)
(1.48191e-09 0.25848 -45.118)
(1.41306e-09 0.524518 -43.1705)
(1.26954e-09 0.687387 -41.1384)
(1.28795e-09 0.774103 -39.1126)
(1.22953e-09 1.0735 -37.0299)
(1.15632e-09 1.31335 -35.1426)
(1.07308e-09 1.40565 -33.1055)
(9.86097e-10 1.86284 -31.1032)
(8.12583e-10 1.89151 -29.1192)
(7.93516e-10 2.21147 -26.9007)
(6.56976e-10 2.46911 -24.8609)
(5.12499e-10 2.62146 -22.5424)
(5.28282e-10 2.99616 -20.455)
(3.08683e-10 3.13799 -18.1361)
(4.02039e-10 3.49856 -15.9725)
(1.26835e-10 3.71656 -13.8131)
(2.69736e-10 4.02756 -11.6685)
(4.40467e-11 4.27974 -9.58525)
(1.31586e-10 4.5931 -7.38433)
(-6.48008e-11 4.89257 -5.3024)
(4.40328e-11 5.25275 -3.17157)
(-9.34272e-11 5.53863 -1.407)
(-4.28979e-11 5.82648 0.275442)
(-9.40772e-11 6.08266 1.7312)
(-5.27206e-11 6.39386 3.24881)
(-1.44656e-10 6.65331 4.82304)
(-1.33771e-11 7.03243 6.57374)
(-2.57593e-10 7.3048 8.29791)
(6.91522e-11 7.75709 10.3318)
(-2.48998e-10 8.06841 12.0498)
(2.45529e-11 8.56009 14.0395)
(-1.80495e-10 8.92643 15.561)
(-3.20568e-11 9.34306 17.3534)
(-6.24474e-11 9.76638 18.7004)
(-1.28945e-10 10.2007 20.3359)
(-8.0665e-11 10.5829 21.6252)
(-4.4746e-11 11.105 22.9979)
(-1.17257e-11 11.4517 24.1932)
(-5.5763e-11 11.8093 25.4015)
(-1.1254e-10 12.2613 26.3258)
(-9.48502e-11 12.7161 27.1283)
(-8.47645e-11 13.037 27.9308)
(-1.0234e-10 13.2988 28.5614)
(-1.2721e-10 13.6583 29.3574)
(-1.64173e-10 14.0008 29.8585)
(-1.25818e-10 14.2997 30.6109)
(-1.4302e-10 14.7606 31.1095)
(-1.46523e-10 14.9985 31.2858)
(-1.96755e-10 14.9884 31.4652)
(-2.14658e-10 14.9402 31.7467)
(-2.06268e-10 14.7517 31.7411)
(-2.13107e-10 14.5047 31.4609)
(-2.09269e-10 14.0512 30.5888)
(-2.30288e-10 13.4684 28.5655)
(-1.98756e-10 13.0037 25.2921)
(-1.42553e-10 16.4991 26.0084)
(4.20408e-10 -7.01992 -97.3716)
(1.54181e-10 -5.83682 -65.1177)
(3.86177e-11 -5.06152 -65.8116)
(-3.82868e-11 -4.17616 -58.8157)
(-1.1456e-10 -3.0852 -56.3635)
(-1.04409e-10 -2.21471 -51.6442)
(-1.92658e-10 -0.197664 -49.6629)
(-9.06844e-11 0.788995 -46.3151)
(-2.15098e-10 3.03119 -44.6488)
(-2.20549e-10 4.02492 -43.0225)
(-2.65373e-10 6.00588 -43.2665)
(-3.65825e-10 3.23226 -46.7715)
(-4.37414e-10 1.89403 -49.4402)
(-5.33117e-10 1.17301 -49.9632)
(-7.30343e-10 0.853556 -48.973)
(-7.9829e-10 0.878371 -47.5737)
(-9.13625e-10 0.90379 -45.9462)
(-9.9613e-10 1.18058 -43.918)
(-1.00407e-09 1.40485 -41.7691)
(-1.09531e-09 1.5199 -39.7598)
(-1.02057e-09 1.80099 -37.6491)
(-1.14162e-09 2.06044 -35.6323)
(-9.95343e-10 2.16674 -33.6822)
(-1.06248e-09 2.60385 -31.5463)
(-9.06467e-10 2.67498 -29.5766)
(-9.85725e-10 3.01411 -27.3086)
(-8.70004e-10 3.24953 -25.2135)
(-8.15479e-10 3.47719 -22.8995)
(-6.94021e-10 3.82045 -20.75)
(-7.49258e-10 3.99904 -18.4432)
(-5.67834e-10 4.34665 -16.2305)
(-5.90247e-10 4.58388 -14.0599)
(-4.08483e-10 4.90135 -11.864)
(-4.94854e-10 5.15232 -9.7594)
(-2.79132e-10 5.46581 -7.50798)
(-3.51187e-10 5.76681 -5.40665)
(-1.40438e-10 6.11463 -3.23608)
(-2.02166e-10 6.3751 -1.42831)
(-8.33536e-11 6.69346 0.294452)
(-1.04057e-10 6.95315 1.78035)
(-2.31855e-11 7.28852 3.31265)
(-6.97877e-11 7.55606 4.92387)
(8.8633e-11 7.97517 6.68045)
(-1.14814e-10 8.25001 8.43776)
(2.71855e-10 8.76106 10.4665)
(-1.34268e-10 9.05635 12.2604)
(2.81817e-10 9.60892 14.2285)
(-6.4859e-11 9.96729 15.8155)
(1.45347e-10 10.4755 17.6005)
(1.21684e-10 10.8802 18.9265)
(-7.67393e-11 11.3806 20.6288)
(1.32682e-10 11.8241 21.8978)
(1.59952e-10 12.4197 23.2651)
(1.06925e-10 12.7447 24.5338)
(1.58519e-10 13.2374 25.7146)
(1.88428e-10 13.7721 26.6413)
(1.52058e-10 14.2643 27.4883)
(1.9915e-10 14.6678 28.3191)
(1.94036e-10 14.9391 28.9809)
(2.33239e-10 15.3553 29.7262)
(2.46929e-10 15.7315 30.2595)
(3.0715e-10 16.2342 31.0618)
(3.27077e-10 16.615 31.5982)
(3.72532e-10 17.0095 31.7171)
(4.06942e-10 17.1071 31.8152)
(3.85618e-10 17.2802 32.0248)
(3.40357e-10 17.2243 31.9207)
(2.82667e-10 17.1231 31.4862)
(2.46619e-10 16.9876 30.2294)
(2.10544e-10 16.4527 27.7187)
(1.31956e-10 16.7729 24.4061)
(8.35974e-11 19.4635 24.9285)
(-3.21386e-10 -4.38037 -97.4312)
(5.05683e-11 -3.21261 -65.0577)
(2.55279e-10 -2.47821 -65.6304)
(4.41858e-10 -1.43043 -58.7109)
(5.56686e-10 -0.274492 -56.328)
(5.21779e-10 0.562312 -51.2666)
(6.84093e-10 2.50081 -49.0558)
(5.57115e-10 3.4665 -45.6605)
(5.45839e-10 5.22581 -44.0661)
(4.52802e-10 6.85535 -42.3095)
(4.03556e-10 6.03605 -45.1702)
(2.71925e-10 3.80142 -49.3722)
(1.99875e-10 2.97181 -50.7955)
(6.51728e-11 2.30149 -50.548)
(1.4855e-10 2.42258 -49.3413)
(1.5096e-10 2.50044 -47.7908)
(9.03251e-11 2.5326 -46.1389)
(2.64864e-11 2.72667 -44.0974)
(-7.09573e-11 2.96459 -41.8775)
(2.22268e-10 3.08156 -39.8533)
(-3.01891e-11 3.27964 -37.7527)
(1.9785e-10 3.54836 -35.6712)
(-2.68285e-11 3.62438 -33.7781)
(9.39429e-11 3.98359 -31.5737)
(1.56135e-10 4.07383 -29.6535)
(9.70201e-11 4.36067 -27.3389)
(2.58312e-10 4.57804 -25.2349)
(1.89681e-10 4.81926 -22.9243)
(1.6059e-10 5.09947 -20.7352)
(3.41508e-10 5.27968 -18.4408)
(1.86752e-10 5.59817 -16.2001)
(3.30472e-10 5.83688 -14.0488)
(2.84537e-10 6.14912 -11.8278)
(2.18307e-10 6.3963 -9.72576)
(2.7318e-10 6.71758 -7.46625)
(1.35927e-10 7.0259 -5.36052)
(2.44888e-10 7.37192 -3.18054)
(1.36265e-10 7.64405 -1.34599)
(1.74499e-10 7.96507 0.406766)
(1.07016e-10 8.23042 1.89226)
(1.41601e-10 8.55941 3.43157)
(4.19757e-11 8.84405 5.07897)
(1.56323e-10 9.29372 6.82183)
(-9.68673e-11 9.57747 8.58719)
(2.0107e-10 10.1464 10.5785)
(-2.41458e-10 10.4697 12.4411)
(1.98953e-10 11.0766 14.3473)
(-2.58541e-10 11.4301 16.012)
(2.09656e-11 12.0617 17.7785)
(-8.88394e-11 12.3779 19.0565)
(-1.99086e-10 12.9772 20.8903)
(-1.55795e-10 13.5012 22.049)
(-6.86016e-11 14.0737 23.4269)
(-1.57425e-10 14.4432 24.7811)
(-1.31345e-10 15.018 25.9229)
(-2.16176e-10 15.6144 26.9056)
(-3.11927e-10 16.1613 27.7063)
(-3.60209e-10 16.6292 28.5164)
(-2.93082e-10 16.9172 29.2458)
(-3.8708e-10 17.345 29.9437)
(-4.23556e-10 17.7805 30.5029)
(-3.73943e-10 18.3805 31.3008)
(-3.23713e-10 18.8391 31.8525)
(-3.30916e-10 19.1848 31.8423)
(-3.95309e-10 19.5647 31.7965)
(-4.04366e-10 19.8504 31.99)
(-2.51498e-10 20.0867 31.8053)
(-1.83404e-10 20.1355 31.2446)
(-2.72307e-11 20.3444 29.8131)
(2.08703e-11 20.0241 27.2114)
(1.93005e-10 20.7955 24.1134)
(2.78541e-10 22.5976 24.3691)
(-2.51912e-10 -2.45337 -97.5853)
(-5.55258e-10 -1.45776 -65.2017)
(-8.27319e-10 -0.624197 -65.7781)
(-9.38793e-10 0.113349 -58.4076)
(-1.09647e-09 1.45286 -55.8935)
(-9.97783e-10 2.19831 -50.6996)
(-1.15351e-09 4.25939 -48.4077)
(-1.14658e-09 5.43045 -44.8562)
(-1.13933e-09 6.34929 -43.1635)
(-1.08985e-09 8.65064 -43.2936)
(-1.03189e-09 5.41694 -47.8233)
(-9.05226e-10 4.19324 -51.3352)
(-7.64068e-10 3.55558 -52.1714)
(-5.40741e-10 3.27408 -51.2826)
(-4.29943e-10 3.30267 -49.913)
(-4.48965e-10 3.45887 -48.2684)
(-3.09949e-10 3.53163 -46.4684)
(-1.69779e-10 3.61031 -44.4918)
(1.26913e-10 3.85867 -42.1703)
(-1.90068e-10 4.03734 -40.069)
(1.70126e-10 4.16405 -38.0037)
(-2.80297e-11 4.42792 -35.8434)
(1.56667e-10 4.5322 -33.9503)
(3.14186e-10 4.82816 -31.7375)
(1.5428e-10 4.97335 -29.7709)
(3.51923e-10 5.21173 -27.452)
(2.30215e-10 5.44406 -25.3063)
(2.30078e-10 5.70008 -22.9976)
(3.72028e-10 5.95098 -20.7526)
(-1.22012e-11 6.16201 -18.4731)
(2.63587e-10 6.46603 -16.1852)
(2.51244e-11 6.69515 -14.0266)
(1.46419e-10 6.9988 -11.7563)
(-2.0539e-11 7.27101 -9.6528)
(8.71396e-11 7.59732 -7.35683)
(-8.9365e-12 7.92044 -5.22235)
(7.6614e-11 8.27845 -3.01075)
(-1.60765e-12 8.58203 -1.15403)
(5.21987e-11 8.9038 0.617725)
(8.14497e-12 9.17628 2.12429)
(6.08888e-11 9.5122 3.68062)
(-1.94762e-11 9.81585 5.34748)
(1.35698e-10 10.2705 7.10203)
(-1.49154e-10 10.5665 8.91629)
(2.35311e-10 11.1626 10.8458)
(-2.13557e-10 11.5087 12.7892)
(3.15079e-10 12.1575 14.5895)
(-1.93752e-10 12.4949 16.3788)
(1.43825e-10 13.3109 18.0332)
(8.46043e-11 13.4471 19.4046)
(2.8807e-11 14.2364 21.1587)
(-6.71858e-11 14.8559 22.3781)
(2.30722e-10 15.3378 23.6428)
(2.33118e-10 15.7837 25.106)
(9.42217e-11 16.4482 26.1812)
(1.00257e-10 17.1833 27.1763)
(1.39002e-10 17.778 27.8913)
(1.46683e-10 18.2471 28.6737)
(2.68392e-10 18.5918 29.4347)
(2.83253e-10 19.0877 30.1449)
(1.96677e-10 19.658 30.6907)
(1.43768e-10 20.341 31.4309)
(1.76712e-10 20.8811 32.012)
(1.96313e-10 21.3658 31.8433)
(2.23003e-10 21.9335 31.9041)
(7.1527e-11 22.3391 32.1128)
(2.1755e-11 22.943 31.9192)
(-1.05998e-10 23.306 31.2363)
(-7.82051e-11 23.803 29.6993)
(-1.97417e-10 24.2444 27.4962)
(-2.30818e-10 25.3172 26.3386)
(-2.48705e-10 27.3105 25.5324)
(9.8787e-11 0.0101306 -97.5473)
(4.3655e-10 0.961917 -65.107)
(6.08304e-10 1.45895 -65.4134)
(7.86868e-10 2.3918 -57.8907)
(9.47574e-10 3.57666 -55.1855)
(1.04662e-09 4.37326 -49.5429)
(1.20473e-09 6.18101 -47.1435)
(1.25381e-09 7.48278 -44.2312)
(1.33348e-09 8.31551 -41.7434)
(1.4539e-09 8.47822 -44.7873)
(1.40897e-09 6.06346 -50.0799)
(1.35338e-09 5.06341 -52.3395)
(1.23497e-09 4.49493 -52.6486)
(1.04723e-09 4.48024 -51.4101)
(9.15005e-10 4.49693 -49.9073)
(8.99328e-10 4.62229 -48.2665)
(8.94655e-10 4.77328 -46.3683)
(8.63936e-10 4.7998 -44.3867)
(5.60724e-10 5.00241 -42.1209)
(7.97688e-10 5.21494 -39.9205)
(5.88102e-10 5.32074 -37.9378)
(5.82282e-10 5.55698 -35.7046)
(5.40017e-10 5.68295 -33.8397)
(2.13993e-10 5.90747 -31.624)
(1.35507e-10 6.06417 -29.6362)
(1.313e-10 6.26799 -27.3321)
(-5.78212e-11 6.49844 -25.1597)
(-4.61487e-11 6.76487 -22.8644)
(-2.527e-10 6.97716 -20.5905)
(2.86423e-11 7.21251 -18.3289)
(-2.39902e-10 7.49125 -16.0256)
(-2.80783e-11 7.73009 -13.8708)
(-1.11261e-10 8.04245 -11.5915)
(-7.46824e-11 8.32145 -9.50188)
(-8.45969e-11 8.65004 -7.16944)
(-6.66873e-11 8.99485 -5.03242)
(-2.31062e-11 9.36538 -2.79839)
(-3.552e-11 9.69098 -0.937754)
(1.73739e-11 10.041 0.831655)
(2.21386e-11 10.3233 2.35864)
(4.85522e-11 10.6813 3.92545)
(7.75127e-13 11.0051 5.5996)
(1.46196e-10 11.4779 7.34303)
(-9.74341e-11 11.8196 9.19024)
(3.33833e-10 12.4267 11.0904)
(-2.13518e-10 12.8424 13.0958)
(3.90584e-10 13.4894 14.8258)
(-2.61046e-10 13.8836 16.7295)
(1.4655e-10 14.7858 18.2398)
(5.70812e-11 14.871 19.8439)
(-2.4209e-11 15.7362 21.3538)
(-5.45154e-11 16.5218 22.747)
(1.2449e-10 16.8518 23.9833)
(3.01655e-10 17.3977 25.4405)
(1.10523e-10 18.1672 26.4986)
(-4.55164e-11 19.0165 27.4789)
(7.04079e-11 19.6137 28.2486)
(1.76952e-10 20.0555 29.0294)
(2.09172e-10 20.4121 29.8034)
(1.81837e-10 20.9789 30.5175)
(1.73739e-10 21.655 31.0165)
(2.1546e-10 22.4309 31.6705)
(2.82102e-10 23.0321 32.2325)
(2.08647e-10 23.6087 32.0548)
(2.48688e-10 24.305 32.0971)
(2.2984e-10 24.905 32.1337)
(2.79696e-10 25.6842 31.9652)
(3.25739e-10 26.467 31.4949)
(3.46258e-10 27.3187 30.3172)
(2.82603e-10 28.7843 28.8723)
(2.27647e-10 29.9284 28.6019)
(1.49701e-10 31.4254 27.8388)
(5.166e-10 1.58387 -97.4732)
(3.18805e-10 2.42095 -64.946)
(2.56584e-11 3.39095 -65.1786)
(-1.08557e-10 4.05586 -57.385)
(-3.84893e-10 5.3688 -54.6818)
(-5.44241e-10 6.07856 -48.745)
(-8.76527e-10 7.67123 -45.9518)
(-1.00155e-09 8.683 -43.8322)
(-1.188e-09 10.3138 -41.9879)
(-1.42668e-09 7.59581 -46.5278)
(-1.39885e-09 6.51724 -51.7693)
(-1.35894e-09 5.82315 -53.3598)
(-1.12632e-09 5.32432 -53.097)
(-8.70327e-10 5.42578 -51.7175)
(-6.52042e-10 5.4195 -50.1235)
(-4.77746e-10 5.47001 -48.4656)
(-4.86747e-10 5.66655 -46.5125)
(-5.92075e-10 5.66717 -44.4763)
(-3.36964e-10 5.81425 -42.2624)
(-5.97354e-10 6.07379 -39.9812)
(-6.06336e-10 6.11313 -38.0051)
(-6.76494e-10 6.34002 -35.7495)
(-7.70238e-10 6.47957 -33.8511)
(-6.37101e-10 6.66923 -31.6476)
(-3.08954e-10 6.84044 -29.5984)
(-4.49136e-10 7.02577 -27.3295)
(-3.234e-10 7.26959 -25.11)
(-7.84027e-11 7.54408 -22.8361)
(3.48625e-11 7.7335 -20.518)
(-1.12177e-10 8.00318 -18.248)
(1.10888e-10 8.26498 -15.9033)
(-4.10198e-13 8.5252 -13.7545)
(5.69102e-11 8.85188 -11.449)
(2.07183e-11 9.14685 -9.33086)
(9.15746e-11 9.48671 -6.97223)
(4.01434e-11 9.87418 -4.81792)
(7.78285e-11 10.2614 -2.55503)
(5.54572e-11 10.5934 -0.656376)
(5.64057e-11 10.971 1.11014)
(3.42726e-11 11.2576 2.64232)
(4.41147e-11 11.6236 4.24408)
(8.21866e-12 11.9609 5.93895)
(7.14077e-11 12.4495 7.65906)
(-1.31066e-10 12.8297 9.55093)
(2.47235e-10 13.4477 11.4194)
(-3.86933e-10 13.9198 13.4773)
(3.18016e-10 14.5542 15.1423)
(-3.45297e-10 15.0397 17.1392)
(-4.46625e-11 15.9208 18.5154)
(1.06026e-11 16.088 20.3119)
(-2.6115e-10 16.978 21.5794)
(-1.48579e-10 17.8578 23.1362)
(-1.68156e-10 18.1751 24.3721)
(-9.01572e-11 18.7979 25.713)
(-1.99073e-10 19.6748 26.7814)
(-3.17123e-10 20.5807 27.7315)
(-3.83006e-10 21.2387 28.5848)
(-3.61924e-10 21.719 29.3707)
(-4.60064e-10 22.132 30.0976)
(-5.97711e-10 22.7986 30.7784)
(-6.63169e-10 23.6246 31.2581)
(-6.22379e-10 24.5429 31.8629)
(-5.36481e-10 25.1958 32.4428)
(-4.4167e-10 25.8753 32.4399)
(-3.83438e-10 26.7226 32.4675)
(-4.32933e-10 27.4906 32.4517)
(-4.33249e-10 28.3345 32.4957)
(-4.31733e-10 29.3738 32.3382)
(-2.97633e-10 30.375 31.898)
(-2.44892e-10 31.9045 30.891)
(-1.81082e-10 32.9717 30.6259)
(-1.54525e-10 34.1362 29.8102)
(4.30436e-11 3.24231 -97.2789)
(4.19502e-11 3.97409 -64.6518)
(5.77721e-11 4.85124 -64.7675)
(7.19376e-11 5.58115 -56.6126)
(1.3651e-10 6.98122 -53.8428)
(2.66931e-10 7.63262 -48.0973)
(5.68209e-10 9.06822 -44.8306)
(7.41112e-10 9.48177 -42.6836)
(1.1196e-09 11.8988 -43.0562)
(1.52151e-09 8.04265 -48.4098)
(1.69585e-09 7.1559 -52.6718)
(1.78638e-09 6.58888 -53.9306)
(1.67853e-09 6.25362 -53.1922)
(1.43283e-09 6.30925 -51.7358)
(1.11937e-09 6.33545 -50.0944)
(6.70467e-10 6.36794 -48.4434)
(4.2009e-10 6.5296 -46.4757)
(2.70741e-10 6.60414 -44.3812)
(1.03739e-10 6.68733 -42.2237)
(-9.03194e-11 6.93198 -39.893)
(1.37243e-10 6.9781 -37.915)
(1.34331e-10 7.18499 -35.6628)
(2.68721e-10 7.31747 -33.738)
(4.46166e-10 7.48008 -31.5358)
(3.24047e-10 7.65479 -29.4609)
(3.45473e-10 7.82674 -27.2071)
(4.47754e-10 8.07326 -24.9744)
(3.91037e-10 8.337 -22.7071)
(1.95538e-10 8.49433 -20.3636)
(2.99427e-10 8.79054 -18.0953)
(2.39666e-10 9.06846 -15.7369)
(1.62715e-10 9.35507 -13.5859)
(7.97825e-11 9.69045 -11.2637)
(1.35852e-10 10.0042 -9.11516)
(5.00063e-11 10.3668 -6.75269)
(6.86474e-11 10.7837 -4.5886)
(-1.38065e-11 11.1917 -2.31506)
(2.95269e-11 11.5415 -0.387932)
(8.54137e-12 11.9483 1.37232)
(1.59918e-11 12.2581 2.89987)
(1.35683e-11 12.6479 4.54311)
(-2.10053e-11 13.0224 6.2437)
(2.36511e-11 13.5277 7.96106)
(-8.24477e-11 13.9681 9.88548)
(2.18246e-10 14.5949 11.7548)
(-3.95776e-10 15.1529 13.8393)
(3.83126e-10 15.7509 15.4912)
(-3.31355e-10 16.3766 17.5445)
(-1.49893e-11 17.1791 18.8541)
(1.00957e-10 17.5041 20.7728)
(-7.04153e-11 18.3541 21.9188)
(3.85398e-11 19.2857 23.5781)
(3.76074e-11 19.6784 24.823)
(2.31091e-10 20.3349 26.1022)
(1.83783e-10 21.273 27.1963)
(2.2441e-10 22.1756 28.1518)
(1.98974e-10 22.8735 29.059)
(2.21765e-10 23.4186 29.8426)
(2.49037e-10 23.8876 30.5754)
(2.52967e-10 24.5867 31.2203)
(2.96538e-10 25.4699 31.6918)
(4.07446e-10 26.4915 32.2364)
(3.47897e-10 27.1804 32.8193)
(3.4869e-10 27.9355 32.9348)
(3.08556e-10 28.8333 32.8789)
(2.8475e-10 29.8369 32.7828)
(2.13993e-10 30.7356 33.0802)
(7.86184e-11 32.0296 33.0324)
(6.72604e-11 33.1255 33.0322)
(-1.67765e-11 34.5395 32.3857)
(-1.2625e-11 35.7677 32.4202)
(-4.60368e-11 37.039 32.3581)
(-3.45517e-10 4.62325 -97.1247)
(-5.20357e-10 5.33261 -64.3871)
(-6.06241e-10 6.18804 -64.4746)
(-4.45123e-10 6.79484 -55.961)
(-3.62981e-10 8.33883 -53.0269)
(-2.60064e-10 8.90057 -47.6033)
(-2.53573e-10 10.3529 -44.5134)
(-3.11853e-10 10.4456 -41.3789)
(-5.70593e-10 11.973 -44.2186)
(-1.04775e-09 8.97576 -50.5026)
(-1.43132e-09 7.8559 -53.6417)
(-1.78197e-09 7.29181 -54.5532)
(-2.07099e-09 7.03902 -53.4933)
(-2.2875e-09 7.0763 -51.9095)
(-2.1399e-09 7.13233 -50.2403)
(-2.01512e-09 7.07911 -48.5615)
(-1.59634e-09 7.2164 -46.5834)
(-1.2035e-09 7.31069 -44.425)
(-9.06293e-10 7.34834 -42.2968)
(-4.75566e-10 7.58004 -39.9231)
(-2.1855e-10 7.63922 -37.9284)
(-1.32598e-10 7.80432 -35.6935)
(1.20295e-10 7.93058 -33.7167)
(-8.32216e-11 8.09076 -31.5212)
(1.02318e-10 8.25356 -29.424)
(1.35769e-10 8.44044 -27.1847)
(6.87836e-11 8.68175 -24.9135)
(9.58301e-12 8.94658 -22.6471)
(7.9325e-11 9.10323 -20.2539)
(-5.16756e-11 9.4345 -17.9889)
(6.80557e-12 9.72298 -15.5863)
(-4.97224e-11 10.0443 -13.4325)
(4.13085e-11 10.388 -11.0717)
(1.95724e-11 10.738 -8.91203)
(-1.24522e-11 11.1306 -6.53841)
(4.94971e-11 11.5662 -4.34594)
(6.29208e-11 12.0034 -2.05286)
(8.66275e-11 12.3766 -0.0853399)
(5.31337e-11 12.8037 1.67395)
(6.74056e-11 13.1332 3.20207)
(5.05538e-11 13.5489 4.88541)
(3.55098e-11 13.9434 6.58912)
(7.47388e-11 14.4609 8.32269)
(-2.37708e-11 14.9424 10.2683)
(1.94459e-10 15.5795 12.1433)
(-3.46237e-10 16.1968 14.2369)
(4.10708e-10 16.7626 15.8804)
(-3.21569e-10 17.5304 17.9333)
(6.24059e-12 18.2355 19.2499)
(1.61032e-11 18.7294 21.1635)
(-4.49054e-11 19.5656 22.2972)
(-9.48345e-11 20.5217 23.9701)
(-2.94502e-10 21.0183 25.2258)
(-3.99039e-11 21.7287 26.456)
(7.51115e-11 22.7271 27.5859)
(-2.0298e-11 23.6537 28.5348)
(-1.80754e-10 24.4123 29.4401)
(-2.98616e-10 25.038 30.2423)
(-2.97387e-10 25.6071 30.9886)
(-2.62837e-10 26.3996 31.6166)
(-3.05509e-10 27.3198 32.1227)
(-2.9837e-10 28.3759 32.6401)
(-2.41455e-10 29.1088 33.2165)
(-1.70386e-10 29.9742 33.4138)
(-1.3709e-10 30.8825 33.3522)
(-9.44882e-11 32.1366 33.2479)
(5.49284e-11 33.1492 33.8467)
(5.76902e-11 34.5191 34.0127)
(9.25663e-11 35.8481 34.2498)
(3.75247e-11 37.1757 34.2159)
(2.77527e-11 38.5223 34.3691)
(-1.89957e-11 39.6683 34.8194)
(-1.46584e-10 5.93388 -96.9959)
(1.79556e-10 6.66917 -64.0624)
(5.19906e-10 7.43064 -64.1028)
(5.4215e-10 7.86047 -55.3365)
(6.73045e-10 9.55262 -52.1724)
(4.92588e-10 10.037 -47.0456)
(3.59864e-10 11.4422 -44.4376)
(2.45614e-10 11.7102 -40.8902)
(2.06967e-10 10.668 -45.2037)
(3.45334e-10 9.28052 -52.0066)
(5.95014e-10 8.3095 -54.3847)
(9.3878e-10 7.83307 -54.891)
(1.28952e-09 7.74932 -53.643)
(1.75035e-09 7.76055 -51.9839)
(1.83364e-09 7.80456 -50.2666)
(2.01653e-09 7.73654 -48.5383)
(1.9325e-09 7.8589 -46.5787)
(1.8305e-09 7.99694 -44.3775)
(1.5472e-09 8.0134 -42.2589)
(1.33819e-09 8.23308 -39.864)
(1.03361e-09 8.28817 -37.8849)
(9.85158e-10 8.43019 -35.6155)
(7.2039e-10 8.54857 -33.605)
(7.91843e-10 8.70515 -31.4223)
(5.70715e-10 8.87999 -29.2982)
(3.13417e-10 9.05523 -27.0679)
(3.91253e-10 9.31926 -24.7809)
(2.5522e-10 9.5694 -22.5055)
(1.81261e-10 9.72794 -20.0821)
(2.29622e-10 10.0923 -17.8262)
(1.81828e-10 10.398 -15.3982)
(1.89017e-10 10.7314 -13.2375)
(2.05006e-10 11.0922 -10.8409)
(1.79876e-10 11.4654 -8.67452)
(1.6005e-10 11.8853 -6.28787)
(9.65944e-11 12.3422 -4.07841)
(8.31665e-11 12.8142 -1.78052)
(7.89075e-11 13.2268 0.202688)
(5.33165e-11 13.6598 1.96506)
(9.94826e-11 14.0267 3.49552)
(5.23906e-11 14.4784 5.20452)
(7.42269e-11 14.8998 6.91196)
(8.88463e-11 15.4389 8.66441)
(-1.15642e-11 15.9812 10.6221)
(1.82338e-10 16.6375 12.5215)
(-2.62081e-10 17.3318 14.6033)
(3.53848e-10 17.8813 16.2941)
(-2.502e-10 18.7629 18.2978)
(1.83364e-11 19.4067 19.7068)
(5.51424e-11 20.0463 21.5562)
(-3.68049e-11 20.8534 22.7603)
(-1.17271e-10 21.8246 24.4192)
(-1.00514e-10 22.4288 25.7075)
(1.95874e-10 23.1581 26.9237)
(3.85712e-10 24.1956 28.0684)
(2.29756e-10 25.1493 29.0346)
(4.56821e-11 25.9172 29.9388)
(6.78664e-12 26.6026 30.77)
(3.83656e-11 27.2624 31.5462)
(1.37604e-10 28.1213 32.1431)
(1.78628e-10 29.0257 32.6639)
(7.67366e-11 30.0527 33.2039)
(1.22018e-10 30.8574 33.7199)
(1.11988e-10 31.8347 34.0158)
(1.15512e-10 32.8339 34.0452)
(-4.79336e-11 34.289 33.961)
(-7.40477e-11 35.5272 34.691)
(2.18516e-12 36.9081 35.1489)
(7.49689e-11 38.3447 35.4694)
(8.09728e-11 39.6885 35.7867)
(9.86163e-11 40.8583 36.0685)
(6.8501e-11 42.0957 36.6313)
(-1.56014e-11 7.1903 -96.9146)
(-2.98179e-10 8.00278 -63.7256)
(-6.65983e-10 8.8038 -63.6402)
(-7.08685e-10 8.96284 -54.8134)
(-8.99614e-10 10.637 -51.3693)
(-8.62466e-10 11.1598 -46.3381)
(-8.23755e-10 12.3224 -44.2575)
(-7.05648e-10 13.3084 -41.499)
(-6.42538e-10 10.0447 -46.526)
(-6.23162e-10 9.62312 -52.9775)
(-7.47967e-10 8.95637 -54.9881)
(-1.04031e-09 8.48417 -55.1541)
(-1.28826e-09 8.45014 -53.841)
(-1.66836e-09 8.40826 -52.1173)
(-1.80736e-09 8.45163 -50.3474)
(-1.94538e-09 8.38734 -48.6032)
(-1.82169e-09 8.45767 -46.6757)
(-1.72608e-09 8.59406 -44.4181)
(-1.5379e-09 8.61344 -42.3013)
(-1.18197e-09 8.81314 -39.9106)
(-8.37117e-10 8.85182 -37.8593)
(-9.0557e-10 8.98155 -35.5907)
(-5.52425e-10 9.10986 -33.5668)
(-6.54616e-10 9.2788 -31.4074)
(-6.31124e-10 9.42521 -29.2713)
(-3.46857e-10 9.632 -27.0448)
(-4.19596e-10 9.8671 -24.7124)
(-3.6972e-10 10.1374 -22.4031)
(-9.58546e-11 10.3122 -19.9462)
(-2.19471e-10 10.7259 -17.6843)
(-2.09956e-10 11.04 -15.2281)
(-1.42306e-10 11.4075 -13.0433)
(-7.76871e-11 11.7725 -10.6211)
(-2.19426e-10 12.1925 -8.4544)
(-8.31936e-11 12.6437 -6.03361)
(-1.41063e-10 13.1246 -3.79197)
(4.62172e-11 13.6341 -1.47304)
(8.57018e-12 14.0819 0.517518)
(7.16871e-12 14.5062 2.29369)
(2.81821e-11 14.9069 3.84716)
(7.94903e-12 15.3848 5.57998)
(3.76071e-11 15.8197 7.29423)
(2.50671e-11 16.3785 9.06435)
(-2.41496e-11 16.958 11.0423)
(1.61808e-10 17.6338 12.9559)
(-1.81326e-10 18.3633 15.0258)
(4.13678e-10 18.925 16.7505)
(-6.5079e-11 19.8758 18.6755)
(1.09472e-10 20.492 20.202)
(2.53364e-10 21.2569 21.9292)
(1.27358e-10 22.0504 23.2195)
(7.07294e-11 23.0489 24.8506)
(2.91693e-10 23.7646 26.1566)
(3.81714e-10 24.5377 27.3406)
(4.52498e-10 25.6079 28.4726)
(2.10627e-10 26.6072 29.4626)
(-6.79931e-11 27.3955 30.4115)
(-1.57968e-10 28.1439 31.232)
(-1.21199e-10 28.93 32.0007)
(-1.02485e-10 29.8785 32.6048)
(-1.06246e-10 30.7329 33.1283)
(-2.28563e-10 31.7596 33.7037)
(-2.12674e-10 32.6316 34.2066)
(-6.922e-11 33.6975 34.5738)
(1.44785e-10 34.8257 34.8117)
(1.39237e-10 36.3152 34.8407)
(-2.35491e-11 37.7288 35.6461)
(-1.18556e-10 39.1692 36.3692)
(-1.7868e-10 40.5732 36.8117)
(-1.94416e-10 42.023 37.3054)
(-1.56765e-10 43.0673 37.8478)
(-1.87381e-10 44.4016 38.3965)
(-4.50803e-10 8.42231 -96.8465)
(7.31949e-12 9.25305 -63.3038)
(6.00229e-10 10.0564 -63.0005)
(6.90694e-10 10.0599 -54.384)
(1.01374e-09 11.489 -50.8465)
(1.03538e-09 12.1148 -45.3453)
(1.00226e-09 12.727 -43.5658)
(6.88501e-10 14.7129 -42.6942)