/*--------------------------------*- C++ -*----------------------------------*\
| =========                 |                                                 |
| \\      /  F ield         | OpenFOAM: The Open Source CFD Toolbox           |
|  \\    /   O peration     | Version:  2212                                  |
|   \\  /    A nd           | Website:  www.openfoam.com                      |
|    \\/     M anipulation  |                                                 |
\*---------------------------------------------------------------------------*/
FoamFile
{
    version     2.0;
    format      ascii;
    arch        "LSB;label=32;scalar=64";
    class       surfaceScalarField;
    location    "0.00038";
    object      phi;
}
// * * * * * * * * * * * * * * * * * * * * * * * * * * * * * * * * * * * * * //

dimensions      [1 0 -1 0 0 0 0];

oriented        oriented;

internalField   nonuniform List<scalar> 
13427
(
9.14885e-09
-4.21734e-07
-2.41775e-09
1.8256e-08
-6.79542e-07
1.843e-08
-8.13271e-07
5.05942e-08
-7.38194e-07
6.71141e-08
-2.52405e-07
8.1818e-08
-7.81198e-08
8.93707e-08
1.00095e-07
9.78042e-08
2.05141e-07
1.07792e-07
2.65679e-07
1.16568e-07
3.14427e-07
1.23144e-07
3.37232e-07
1.26928e-07
3.72053e-07
1.27056e-07
4.12244e-07
1.22589e-07
4.20009e-07
1.14789e-07
3.86035e-07
1.03619e-07
2.26326e-07
8.20402e-08
3.67415e-08
5.43995e-08
-6.14469e-08
2.47126e-08
-1.135e-07
-1.16666e-07
4.83331e-09
-4.22078e-07
-1.14216e-09
1.21474e-08
-6.799e-07
7.67522e-09
-8.00046e-07
3.00972e-08
-7.44775e-07
6.71699e-08
-2.75683e-07
7.83052e-08
-7.67402e-08
8.56548e-08
1.08777e-07
9.11808e-08
2.12986e-07
9.63325e-08
2.77033e-07
1.03267e-07
3.25386e-07
1.09745e-07
3.47907e-07
1.13679e-07
3.83662e-07
1.14114e-07
4.24833e-07
1.11631e-07
4.33454e-07
1.09185e-07
3.98058e-07
1.02179e-07
2.40269e-07
7.47426e-08
6.90117e-08
4.68685e-08
-2.77457e-08
2.24497e-08
-7.94069e-08
-8.1219e-08
4.0683e-09
-4.21775e-07
-6.60128e-10
1.39237e-08
-6.81794e-07
8.77741e-09
-7.81271e-07
2.06207e-08
-7.43686e-07
6.25454e-08
-3.04568e-07
7.29086e-08
-7.21356e-08
8.61508e-08
1.10729e-07
9.59582e-08
2.16385e-07
9.56151e-08
2.93534e-07
9.38268e-08
3.43864e-07
9.39851e-08
3.63424e-07
9.57591e-08
3.95525e-07
9.7286e-08
4.34536e-07
1.00527e-07
4.39666e-07
1.01041e-07
4.04588e-07
8.9741e-08
2.56866e-07
6.44299e-08
9.77899e-08
4.177e-08
-1.63586e-09
2.08775e-08
-5.09892e-08
-4.96e-08
-2.77433e-09
-4.10068e-07
5.76997e-10
4.8493e-09
-6.81169e-07
1.1729e-08
-7.80033e-07
1.98013e-08
-7.4203e-07
5.94564e-08
-3.28647e-07
6.62244e-08
-6.18599e-08
7.80664e-08
1.14188e-07
8.90747e-08
2.19819e-07
9.26541e-08
3.05378e-07
9.4411e-08
3.57154e-07
9.57307e-08
3.7514e-07
9.70963e-08
4.04556e-07
9.79815e-08
4.41804e-07
1.00169e-07
4.44071e-07
9.93508e-08
4.10877e-07
8.51102e-08
2.75116e-07
5.87624e-08
1.27292e-07
3.50768e-08
2.58767e-08
1.62185e-08
-2.64545e-08
-2.5006e-08
-7.04526e-09
-3.99277e-07
2.08461e-09
-5.33641e-09
-6.60123e-07
1.01532e-08
-7.89058e-07
2.4202e-08
-7.44868e-07
5.80443e-08
-3.43971e-07
5.57285e-08
-3.92834e-08
6.1486e-08
1.22477e-07
6.60488e-08
2.31391e-07
7.25573e-08
3.13291e-07
8.00768e-08
3.62297e-07
8.48566e-08
3.80159e-07
8.70003e-08
4.09394e-07
8.7523e-08
4.46586e-07
8.62874e-08
4.49183e-07
8.14313e-08
4.18606e-07
6.53353e-08
2.93315e-07
4.07301e-08
1.53997e-07
2.23347e-08
4.72056e-08
1.00325e-08
-1.09229e-08
-9.92984e-09
4.11083e-09
-4.00375e-07
-9.7622e-10
2.36665e-09
-6.47808e-07
1.50624e-08
-7.82222e-07
2.65067e-08
-7.44101e-07
4.38004e-08
-3.40639e-07
3.81232e-08
-1.29099e-08
4.33231e-08
1.30481e-07
4.12524e-08
2.47889e-07
4.65129e-08
3.18931e-07
5.30296e-08
3.64036e-07
5.91661e-08
3.80128e-07
6.30224e-08
4.09824e-07
6.44821e-08
4.47773e-07
6.22133e-08
4.52564e-07
5.77096e-08
4.23537e-07
4.50956e-08
3.05527e-07
2.50167e-08
1.73933e-07
1.18906e-08
6.11788e-08
5.4397e-09
-3.80132e-09
-2.59174e-09
7.07646e-09
-4.11663e-07
-1.15755e-09
1.34665e-08
-6.57096e-07
1.52433e-08
-7.77441e-07
8.15969e-09
-7.28081e-07
1.88759e-08
-3.38448e-07
1.25101e-08
4.78601e-09
1.52476e-08
1.35618e-07
1.20946e-08
2.61001e-07
1.82838e-08
3.17625e-07
2.3742e-08
3.62605e-07
3.00329e-08
3.75218e-07
3.49477e-08
4.05383e-07
3.87125e-08
4.44019e-07
3.93318e-08
4.51068e-07
3.78077e-08
4.22834e-07
2.77754e-08
3.12702e-07
1.10357e-08
1.87975e-07
1.87973e-09
6.8556e-08
1.03477e-09
-4.63391e-09
-2.39293e-09
-4.64283e-10
-4.1077e-07
-1.58744e-10
5.50351e-09
-6.68358e-07
2.0392e-09
-7.798e-07
-1.20052e-08
-7.15111e-07
-1.51739e-08
-3.35454e-07
-2.05584e-08
1.68899e-09
-1.70902e-08
1.38533e-07
-1.39548e-08
2.55223e-07
-6.49706e-09
3.12324e-07
1.66403e-09
3.53886e-07
1.04032e-08
3.68387e-07
1.70467e-08
4.00101e-07
2.30107e-08
4.3709e-07
2.63513e-08
4.45545e-07
2.67094e-08
4.19761e-07
1.72978e-08
3.19358e-07
1.98368e-09
2.00443e-07
-4.99082e-09
7.2177e-08
-2.45572e-09
-1.11631e-08
-8.51769e-09
-7.94232e-09
-4.04596e-07
1.48869e-09
-1.62283e-08
-6.5776e-07
-2.59476e-08
-7.70056e-07
-4.72163e-08
-6.98609e-07
-5.99992e-08
-3.22748e-07
-5.58201e-08
-1.34375e-08
-5.07329e-08
1.28296e-07
-4.17802e-08
2.46208e-07
-2.9414e-08
2.97316e-07
-1.75174e-08
3.39465e-07
-6.3318e-09
3.56075e-07
2.65965e-09
3.90527e-07
1.1313e-08
4.28613e-07
1.70329e-08
4.38614e-07
1.85889e-08
4.15165e-07
9.05547e-09
3.24147e-07
-6.3163e-09
2.09283e-07
-1.23648e-08
7.18284e-08
-7.0338e-09
-2.3463e-08
-2.27023e-08
-1.22223e-08
-3.99167e-07
3.18695e-09
-3.08843e-08
-6.46455e-07
-5.22989e-08
-7.61743e-07
-8.6058e-08
-6.83605e-07
-1.05913e-07
-3.16053e-07
-9.84368e-08
-3.87158e-08
-8.99382e-08
1.09275e-07
-7.49822e-08
2.27337e-07
-5.81214e-08
2.75568e-07
-4.11171e-08
3.19268e-07
-2.63435e-08
3.34292e-07
-1.32127e-08
3.69793e-07
-7.51033e-10
4.09108e-07
8.57756e-09
4.21266e-07
1.22193e-08
4.02233e-07
1.76915e-09
3.23818e-07
-1.4525e-08
2.14745e-07
-2.00226e-08
6.67144e-08
-1.26234e-08
-4.22686e-08
-4.71615e-08
-1.59938e-08
-3.90202e-07
3.95688e-09
-3.8032e-08
-6.32493e-07
-6.94092e-08
-7.42125e-07
-1.14341e-07
-6.5479e-07
-1.3889e-07
-3.13225e-07
-1.37139e-07
-7.21454e-08
-1.27093e-07
8.15238e-08
-1.08303e-07
1.89678e-07
-8.75027e-08
2.42547e-07
-6.63913e-08
2.86892e-07
-4.78073e-08
3.06721e-07
-3.15541e-08
3.44554e-07
-1.63973e-08
3.81376e-07
-4.48958e-09
3.94972e-07
1.63502e-09
3.81896e-07
-5.1179e-09
3.18741e-07
-1.72728e-08
2.12941e-07
-2.13186e-08
5.62007e-08
-1.39757e-08
-6.32787e-08
-7.51334e-08
-1.92559e-08
-3.77552e-07
4.66375e-09
-4.52282e-08
-6.1355e-07
-8.37914e-08
-7.19964e-07
-1.35581e-07
-6.25554e-07
-1.66863e-07
-3.13312e-07
-1.68068e-07
-1.06835e-07
-1.57287e-07
4.1285e-08
-1.36829e-07
1.41408e-07
-1.12492e-07
1.97758e-07
-8.78529e-08
2.40759e-07
-6.61098e-08
2.63684e-07
-4.6913e-08
3.04982e-07
-2.84098e-08
3.44149e-07
-1.33585e-08
3.62772e-07
-2.43771e-09
3.54863e-07
-5.70424e-09
3.05226e-07
-1.46049e-08
2.06336e-07
-1.63756e-08
4.47174e-08
-1.17928e-08
-8.16981e-08
-1.02676e-07
-2.15537e-08
-3.66406e-07
5.30628e-09
-5.10948e-08
-5.90271e-07
-9.70198e-08
-6.88459e-07
-1.52938e-07
-5.90784e-07
-1.89286e-07
-3.07651e-07
-1.96292e-07
-1.32164e-07
-1.82941e-07
4.37035e-09
-1.5783e-07
9.77593e-08
-1.33616e-07
1.50819e-07
-1.0597e-07
1.91572e-07
-8.14025e-08
2.20847e-07
-5.83859e-08
2.64009e-07
-3.65066e-08
3.04406e-07
-1.74972e-08
3.27152e-07
-1.57433e-09
3.26491e-07
1.25432e-10
2.91775e-07
-5.26376e-09
1.98379e-07
-6.51261e-09
3.23858e-08
-7.9128e-09
-9.39266e-08
-1.26498e-07
-2.4524e-08
-3.53333e-07
6.1166e-09
-5.75412e-08
-5.66427e-07
-1.07189e-07
-6.51702e-07
-1.6324e-07
-5.55909e-07
-2.00948e-07
-3.01001e-07
-2.14259e-07
-1.48586e-07
-2.0003e-07
-2.54185e-08
-1.73215e-07
5.68453e-08
-1.46405e-07
1.11991e-07
-1.1645e-07
1.48429e-07
-9.18846e-08
1.82596e-07
-6.69128e-08
2.24581e-07
-4.21114e-08
2.65536e-07
-1.74429e-08
2.89811e-07
4.14972e-09
2.92121e-07
1.25981e-08
2.7091e-07
1.07742e-08
1.87002e-07
7.28792e-09
2.46362e-08
-7.62013e-10
-9.72119e-08
-1.41495e-07
-2.92364e-08
-3.35954e-07
7.14689e-09
-6.83473e-08
-5.37137e-07
-1.19613e-07
-6.13508e-07
-1.74883e-07
-5.23006e-07
-2.11075e-07
-2.96945e-07
-2.25415e-07
-1.6606e-07
-2.13821e-07
-6.05933e-08
-1.86093e-07
1.15952e-08
-1.56941e-07
7.06067e-08
-1.24797e-07
1.03806e-07
-1.00669e-07
1.43703e-07
-7.32746e-08
1.82208e-07
-4.6255e-08
2.23983e-07
-1.80162e-08
2.4673e-07
9.48617e-09
2.50244e-07
2.73335e-08
2.41174e-07
3.13617e-08
1.70539e-07
2.49596e-08
2.09637e-08
1.03398e-08
-9.34e-08
-1.43021e-07
-3.38584e-08
-3.14488e-07
8.09361e-09
-7.78148e-08
-5.02134e-07
-1.30906e-07
-5.74312e-07
-1.86547e-07
-4.88717e-07
-2.20622e-07
-2.94214e-07
-2.32329e-07
-1.84607e-07
-2.19797e-07
-9.7364e-08
-1.94736e-07
-3.60027e-08
-1.66268e-07
2.25495e-08
-1.32782e-07
5.35327e-08
-1.0681e-07
1.02831e-07
-7.77616e-08
1.38777e-07
-4.91554e-08
1.81439e-07
-1.86421e-08
2.02616e-07
1.30442e-08
2.05051e-07
3.80537e-08
2.02193e-07
4.72585e-08
1.48878e-07
4.02848e-08
1.53688e-08
1.98167e-08
-8.44796e-08
-1.35285e-07
-3.50896e-08
-2.91933e-07
8.36652e-09
-7.93545e-08
-4.6691e-07
-1.33882e-07
-5.34416e-07
-1.8715e-07
-4.54385e-07
-2.18611e-07
-2.91052e-07
-2.26637e-07
-2.02616e-07
-2.13482e-07
-1.28617e-07
-1.90285e-07
-7.5796e-08
-1.63388e-07
-1.8737e-08
-1.3403e-07
8.90379e-09
-1.08992e-07
6.43966e-08
-8.09121e-08
9.77837e-08
-5.20099e-08
1.39092e-07
-1.94427e-08
1.57995e-07
1.30212e-08
1.6073e-07
4.14594e-08
1.60047e-07
5.43643e-08
1.22045e-07
4.79617e-08
7.26362e-09
2.56275e-08
-7.57773e-08
-1.23964e-07
-3.01032e-08
-2.71649e-07
7.35798e-09
-6.81221e-08
-4.34599e-07
-1.15797e-07
-4.96424e-07
-1.61555e-07
-4.23186e-07
-1.91738e-07
-2.82263e-07
-1.99384e-07
-2.12619e-07
-1.89057e-07
-1.50373e-07
-1.72395e-07
-1.02451e-07
-1.50972e-07
-4.63682e-08
-1.27015e-07
-2.10306e-08
-1.06414e-07
3.73041e-08
-8.09783e-08
6.53611e-08
-5.38773e-08
1.04633e-07
-2.38574e-08
1.19776e-07
6.55058e-09
1.20785e-07
3.63801e-08
1.19749e-07
5.32282e-08
9.24001e-08
4.86797e-08
-2.06443e-09
2.74269e-08
-7.02995e-08
-1.12679e-07
-2.57507e-08
-2.53371e-07
6.35831e-09
-5.86552e-08
-4.05061e-07
-9.9171e-08
-4.62217e-07
-1.34581e-07
-3.98084e-07
-1.62353e-07
-2.7137e-07
-1.73276e-07
-2.15128e-07
-1.68019e-07
-1.64132e-07
-1.58601e-07
-1.1915e-07
-1.44424e-07
-6.61269e-08
-1.286e-07
-4.10593e-08
-1.08916e-07
1.46634e-08
-8.45161e-08
3.64731e-08
-5.89662e-08
7.36298e-08
-3.0767e-08
8.64173e-08
-2.04401e-09
8.67815e-08
2.74189e-08
8.32517e-08
4.637e-08
6.37965e-08
4.45541e-08
-1.27134e-08
2.59983e-08
-6.63211e-08
-1.0297e-07
-2.45923e-08
-2.36549e-07
5.9602e-09
-5.52322e-08
-3.77702e-07
-9.10487e-08
-4.31375e-07
-1.18269e-07
-3.78108e-07
-1.4075e-07
-2.61963e-07
-1.5401e-07
-2.13472e-07
-1.5425e-07
-1.70846e-07
-1.50837e-07
-1.28123e-07
-1.41103e-07
-8.02515e-08
-1.29989e-07
-5.68153e-08
-1.11675e-07
-7.29901e-09
-8.872e-08
9.53642e-09
-6.41479e-08
4.5109e-08
-3.65964e-08
5.54729e-08
-1.00942e-08
5.66103e-08
1.65611e-08
5.23997e-08
3.6592e-08
3.73963e-08
3.7281e-08
-2.18282e-08
2.20116e-08
-6.23211e-08
-9.51292e-08
-2.36895e-08
-2.1969e-07
5.66411e-09
-5.25125e-08
-3.51049e-07
-8.41608e-08
-4.03525e-07
-1.07587e-07
-3.61163e-07
-1.25699e-07
-2.5488e-07
-1.3893e-07
-2.11554e-07
-1.44309e-07
-1.71968e-07
-1.46558e-07
-1.30791e-07
-1.39742e-07
-9.10642e-08
-1.30581e-07
-7.09818e-08
-1.13648e-07
-2.95401e-08
-9.30212e-08
-1.63731e-08
-6.98843e-08
1.69801e-08
-4.29056e-08
2.43252e-08
-1.88049e-08
2.90827e-08
5.15499e-09
2.53489e-08
2.523e-08
1.38082e-08
2.83281e-08
-2.91703e-08
1.71027e-08
-5.76085e-08
-8.74439e-08
-2.1114e-08
-2.0481e-07
5.12061e-09
-4.69119e-08
-3.27495e-07
-7.57365e-08
-3.78154e-07
-9.85097e-08
-3.4377e-07
-1.14771e-07
-2.46486e-07
-1.26848e-07
-2.04143e-07
-1.35472e-07
-1.70477e-07
-1.41743e-07
-1.29827e-07
-1.38492e-07
-9.76095e-08
-1.30852e-07
-8.28245e-08
-1.14414e-07
-5.08102e-08
-9.66995e-08
-3.97233e-08
-7.54021e-08
-1.01208e-08
-5.00353e-08
-6.18326e-09
-2.81254e-08
2.67987e-09
-5.85432e-09
-3.64861e-10
1.38178e-08
-8.42329e-09
1.84236e-08
-3.64433e-08
1.14228e-08
-5.41299e-08
-8.08415e-08
-1.71268e-08
-1.9255e-07
3.87678e-09
-4.03365e-08
-3.06323e-07
-6.59526e-08
-3.5436e-07
-8.71209e-08
-3.25945e-07
-1.00275e-07
-2.38633e-07
-1.12283e-07
-1.96778e-07
-1.20715e-07
-1.64974e-07
-1.28157e-07
-1.29533e-07
-1.28004e-07
-1.02488e-07
-1.22211e-07
-9.16272e-08
-1.08936e-07
-6.73099e-08
-9.49772e-08
-5.7763e-08
-7.657e-08
-3.35847e-08
-5.43275e-08
-3.37152e-08
-3.42347e-08
-2.22742e-08
-1.3551e-08
-2.56926e-08
2.83942e-09
-2.93949e-08
8.65133e-09
-4.61161e-08
6.091e-09
-5.55885e-08
-7.93261e-08
-1.40051e-08
-1.81773e-07
2.98999e-09
-3.44432e-08
-2.87497e-07
-5.73681e-08
-3.32881e-07
-7.67207e-08
-3.0816e-07
-8.79443e-08
-2.32504e-07
-9.78794e-08
-1.91672e-07
-1.04343e-07
-1.57304e-07
-1.07519e-07
-1.24635e-07
-1.07604e-07
-1.04681e-07
-1.04622e-07
-9.81988e-08
-9.5688e-08
-7.81636e-08
-8.45111e-08
-7.09677e-08
-6.87553e-08
-5.25681e-08
-5.0952e-08
-5.58697e-08
-3.45196e-08
-4.33062e-08
-1.8136e-08
-4.71591e-08
-5.71153e-09
-4.80163e-08
5.32403e-10
-5.89449e-08
1.39534e-09
-6.25092e-08
-8.37591e-08
-1.28712e-08
-1.71641e-07
2.81239e-09
-3.01157e-08
-2.71334e-07
-4.91492e-08
-3.15277e-07
-6.67279e-08
-2.9128e-07
-7.8029e-08
-2.23999e-07
-8.59082e-08
-1.86424e-07
-9.04436e-08
-1.52438e-07
-8.98477e-08
-1.22759e-07
-8.82474e-08
-1.04197e-07
-8.60443e-08
-9.97318e-08
-7.96712e-08
-8.57833e-08
-7.09495e-08
-8.09715e-08
-5.69176e-08
-6.85843e-08
-4.45027e-08
-7.20113e-08
-3.19799e-08
-6.05689e-08
-2.03824e-08
-6.43102e-08
-1.07638e-08
-6.39255e-08
-4.95167e-09
-7.14175e-08
-1.75988e-09
-7.21347e-08
-9.22536e-08
-9.55767e-09
-1.64076e-07
2.53101e-09
-2.3943e-08
-2.57051e-07
-4.12135e-08
-2.99778e-07
-5.25996e-08
-2.78906e-07
-6.53493e-08
-2.12394e-07
-7.09463e-08
-1.83597e-07
-7.24012e-08
-1.49754e-07
-6.97436e-08
-1.23154e-07
-6.84306e-08
-1.03903e-07
-6.72911e-08
-1.0004e-07
-6.11031e-08
-9.19231e-08
-5.49178e-08
-8.79943e-08
-4.38176e-08
-8.11587e-08
-3.59679e-08
-8.25671e-08
-2.68736e-08
-7.37574e-08
-1.94578e-08
-7.67949e-08
-1.21069e-08
-7.70203e-08
-7.17548e-09
-8.20147e-08
-3.15755e-09
-8.13136e-08
-1.01633e-07
-6.24269e-09
-1.60034e-07
2.05187e-09
-1.61028e-08
-2.46852e-07
-3.03186e-08
-2.8672e-07
-3.59018e-08
-2.7252e-07
-4.58437e-08
-2.02007e-07
-5.17938e-08
-1.7845e-07
-5.05058e-08
-1.49474e-07
-4.8638e-08
-1.23147e-07
-4.79824e-08
-1.02335e-07
-4.79023e-08
-9.82566e-08
-4.26105e-08
-9.64758e-08
-3.85198e-08
-9.22073e-08
-3.14572e-08
-8.97344e-08
-2.67354e-08
-8.96841e-08
-2.04609e-08
-8.34046e-08
-1.5918e-08
-8.58328e-08
-1.06906e-08
-8.76023e-08
-7.04795e-09
-9.1154e-08
-3.52335e-09
-9.03193e-08
-1.11318e-07
-4.91807e-09
-1.56686e-07
1.83583e-09
-1.06028e-08
-2.40647e-07
-2.21616e-08
-2.76657e-07
-2.38577e-08
-2.70291e-07
-2.56366e-08
-1.99042e-07
-3.07635e-08
-1.72784e-07
-2.88528e-08
-1.49856e-07
-2.86514e-08
-1.2165e-07
-2.79215e-08
-1.01518e-07
-2.83927e-08
-9.64273e-08
-2.46282e-08
-9.9677e-08
-2.29748e-08
-9.40456e-08
-1.88645e-08
-9.48837e-08
-1.64731e-08
-9.39268e-08
-1.29892e-08
-8.97957e-08
-1.07153e-08
-9.14721e-08
-7.40253e-09
-9.50532e-08
-5.54162e-09
-9.72875e-08
-2.96807e-09
-9.68487e-08
-1.1842e-07
-4.13448e-09
-1.53923e-07
1.69302e-09
-7.37143e-09
-2.36539e-07
-1.60375e-08
-2.69609e-07
-1.6684e-08
-2.69486e-07
-1.19741e-08
-2.01125e-07
-1.29452e-08
-1.70399e-07
-1.14984e-08
-1.49948e-07
-1.21193e-08
-1.19256e-07
-1.17051e-08
-1.0033e-07
-1.19095e-08
-9.47798e-08
-9.62444e-09
-1.01083e-07
-9.31475e-09
-9.3811e-08
-7.49198e-09
-9.70581e-08
-7.00346e-09
-9.52298e-08
-5.14173e-09
-9.31505e-08
-4.46671e-09
-9.40475e-08
-3.03189e-09
-9.90356e-08
-2.46092e-09
-1.00636e-07
-1.26738e-09
-1.00043e-07
-1.22226e-07
-3.73866e-09
-1.51424e-07
1.71861e-09
-4.26977e-09
-2.34494e-07
-9.60184e-09
-2.6365e-07
-1.07831e-08
-2.69566e-07
1.53322e-10
-2.08334e-07
1.68485e-09
-1.70234e-07
2.49068e-09
-1.49296e-07
3.2901e-09
-1.18732e-07
2.13943e-09
-9.72449e-08
2.45192e-09
-9.40145e-08
2.77077e-09
-9.99647e-08
3.05932e-09
-9.38687e-08
2.87262e-09
-9.66479e-08
2.57621e-09
-9.5227e-08
2.59533e-09
-9.35932e-08
2.01673e-09
-9.45988e-08
1.64167e-09
-9.96192e-08
7.10901e-10
-1.01926e-07
5.23673e-10
-1.01406e-07
-1.23926e-07
-4.42074e-09
-1.48299e-07
2.01498e-09
-2.16273e-09
-2.35745e-07
-2.0713e-09
-2.62467e-07
-3.20766e-09
-2.71414e-07
1.01193e-08
-2.19721e-07
1.47691e-08
-1.71173e-07
1.74456e-08
-1.50228e-07
1.83769e-08
-1.17854e-07
1.70068e-08
-9.43675e-08
1.71638e-08
-9.23665e-08
1.676e-08
-9.84244e-08
1.65964e-08
-9.266e-08
1.5093e-08
-9.47329e-08
1.3148e-08
-9.28766e-08
1.15434e-08
-9.19722e-08
9.19422e-09
-9.22718e-08
7.00381e-09
-9.7899e-08
3.99116e-09
-9.95093e-08
2.07608e-09
-1.00345e-07
-1.22399e-07
-6.10093e-09
-1.44041e-07
2.57233e-09
-2.81946e-09
-2.36777e-07
5.23573e-09
-2.67814e-07
4.55352e-09
-2.75162e-07
1.8205e-08
-2.32827e-07
2.89236e-08
-1.76821e-07
3.3258e-08
-1.52131e-07
3.44012e-08
-1.17663e-07
3.27378e-08
-9.09789e-08
3.19008e-08
-8.9699e-08
2.94301e-08
-9.42579e-08
2.86735e-08
-9.03422e-08
2.59646e-08
-9.06455e-08
2.25153e-08
-8.82594e-08
1.96849e-08
-8.80482e-08
1.57351e-08
-8.73294e-08
1.22568e-08
-9.34463e-08
7.50383e-09
-9.41531e-08
3.92851e-09
-9.60534e-08
-1.17877e-07
-6.38669e-09
-1.39237e-07
2.33596e-09
-2.88539e-09
-2.3922e-07
1.22543e-08
-2.76951e-07
1.44121e-08
-2.78191e-07
2.57626e-08
-2.46167e-07
4.21473e-08
-1.87233e-07
4.77311e-08
-1.53831e-07
4.93275e-08
-1.18066e-07
4.70991e-08
-8.74532e-08
4.57068e-08
-8.68303e-08
4.14553e-08
-8.81834e-08
3.93279e-08
-8.64569e-08
3.57117e-08
-8.50656e-08
3.06676e-08
-8.14884e-08
2.65493e-08
-8.23957e-08
2.11925e-08
-8.07228e-08
1.62506e-08
-8.72355e-08
1.02392e-08
-8.70691e-08
5.18531e-09
-8.98547e-08
-1.12052e-07
-6.36464e-09
-1.34538e-07
2.21065e-09
-3.15641e-09
-2.42226e-07
1.4314e-08
-2.92007e-07
2.47366e-08
-2.86842e-07
3.72128e-08
-2.61862e-07
5.59457e-08
-2.02054e-07
6.21384e-08
-1.53819e-07
6.51074e-08
-1.18794e-07
6.17635e-08
-8.28059e-08
5.91441e-08
-8.27806e-08
5.27616e-08
-8.00656e-08
4.83896e-08
-8.01051e-08
4.35909e-08
-7.80458e-08
3.74467e-08
-7.32517e-08
3.21064e-08
-7.51725e-08
2.5791e-08
-7.2592e-08
1.96327e-08
-7.93269e-08
1.25863e-08
-7.84426e-08
6.21747e-09
-8.18854e-08
-1.05094e-07
-5.9906e-09
-1.30215e-07
2.27132e-09
-4.35941e-09
-2.44613e-07
1.39564e-08
-3.10183e-07
3.87091e-08
-3.06076e-07
5.42849e-08
-2.81308e-07
7.19112e-08
-2.187e-07
8.13378e-08
-1.54214e-07
8.47594e-08
-1.18471e-07
8.12928e-08
-7.75268e-08
7.72034e-08
-7.69889e-08
6.85094e-08
-6.98261e-08
6.08516e-08
-7.05168e-08
5.39678e-08
-6.88452e-08
4.63521e-08
-6.29723e-08
3.93535e-08
-6.55899e-08
3.18179e-08
-6.25764e-08
2.40092e-08
-6.91889e-08
1.58128e-08
-6.83473e-08
7.82084e-09
-7.20544e-08
-9.61136e-08
-3.96673e-09
-1.27171e-07
2.03027e-09
-2.48944e-09
-2.46596e-07
1.48648e-08
-3.29244e-07
5.82131e-08
-3.38982e-07
7.99495e-08
-3.00063e-07
9.64304e-08
-2.35576e-07
1.13677e-07
-1.59648e-07
1.13158e-07
-1.11114e-07
1.08588e-07
-6.96249e-08
1.00609e-07
-6.63806e-08
9.03892e-08
-5.74402e-08
7.964e-08
-5.75088e-08
6.91401e-08
-5.58106e-08
5.93982e-08
-5.02976e-08
5.00879e-08
-5.30946e-08
4.073e-08
-5.02514e-08
3.06376e-08
-5.64803e-08
2.06913e-08
-5.62188e-08
1.03303e-08
-5.96247e-08
-8.42171e-08
2.49041e-09
-1.29832e-07
8.39325e-10
9.0467e-09
-2.53104e-07
2.69284e-08
-3.49583e-07
7.80311e-08
-3.85387e-07
1.18745e-07
-3.28281e-07
1.3867e-07
-2.53144e-07
1.53474e-07
-1.65005e-07
1.49541e-07
-9.47694e-08
1.42353e-07
-5.6443e-08
1.2761e-07
-4.72156e-08
1.13993e-07
-4.02236e-08
1.00194e-07
-4.06821e-08
8.56194e-08
-3.81592e-08
7.34833e-08
-3.50253e-08
6.10294e-08
-3.74595e-08
4.96369e-08
-3.56437e-08
3.70064e-08
-4.08597e-08
2.5147e-08
-4.16331e-08
1.26769e-08
-4.47693e-08
-6.99877e-08
1.47999e-08
-1.42391e-07
-1.85849e-09
3.54954e-08
-2.72371e-07
6.67344e-08
-3.74314e-07
1.11394e-07
-4.20882e-07
1.64052e-07
-3.59522e-07
1.86674e-07
-2.59413e-07
1.93761e-07
-1.60689e-07
1.85522e-07
-6.99342e-08
1.72179e-07
-3.30262e-08
1.50754e-07
-1.89947e-08
1.30824e-07
-1.51765e-08
1.13817e-07
-1.95119e-08
9.69943e-08
-1.76577e-08
8.26735e-08
-1.743e-08
6.8151e-08
-1.97579e-08
5.47772e-08
-1.92009e-08
4.05555e-08
-2.35946e-08
2.74889e-08
-2.61788e-08
1.38287e-08
-2.90612e-08
-5.4215e-08
3.18473e-08
-1.68404e-07
-6.741e-09
6.69178e-08
-3.05719e-07
1.11186e-07
-4.08158e-07
1.45286e-07
-4.36031e-07
1.92188e-07
-3.85298e-07
2.27285e-07
-2.64188e-07
2.24867e-07
-1.35791e-07
2.11907e-07
-3.81085e-08
1.9442e-07
-2.22433e-09
1.68928e-07
1.75806e-08
1.44393e-07
1.68397e-08
1.24193e-07
6.59171e-09
1.05037e-07
5.65005e-09
8.87401e-08
2.12525e-09
7.25349e-08
-7.7464e-10
5.8185e-08
-2.23699e-09
4.34004e-08
-6.34593e-09
2.92813e-08
-1.03674e-08
1.48911e-08
-1.33243e-08
-3.79136e-08
3.07824e-08
-1.81069e-07
-1.06454e-08
5.76993e-08
-3.15973e-07
9.52434e-08
-4.18341e-07
1.48209e-07
-4.56062e-07
1.89846e-07
-3.95953e-07
2.49815e-07
-2.89452e-07
2.40505e-07
-9.45791e-08
2.26647e-07
3.03997e-09
2.05312e-07
3.82366e-08
1.76799e-07
5.87565e-08
1.50426e-07
5.16681e-08
1.2722e-07
3.59299e-08
1.07502e-07
3.02275e-08
9.11963e-08
2.24521e-08
7.48789e-08
1.83213e-08
6.04531e-08
1.37047e-08
4.47603e-08
9.93749e-09
3.04972e-08
5.01829e-09
1.57657e-08
1.38764e-09
-2.18165e-08
1.6107e-08
-1.87466e-07
-5.40037e-09
2.34921e-08
-3.13569e-07
3.15825e-08
-4.1368e-07
5.85886e-08
-4.65769e-07
1.13308e-07
-4.28374e-07
2.08689e-07
-3.53207e-07
2.26511e-07
-6.70643e-08
2.15349e-07
4.74963e-08
1.90169e-07
8.21189e-08
1.61864e-07
9.7933e-08
1.38952e-07
8.22646e-08
1.18092e-07
6.32109e-08
1.00015e-07
5.30469e-08
8.44544e-08
4.03776e-08
6.90109e-08
3.35944e-08
5.58021e-08
2.59011e-08
4.16325e-08
2.25082e-08
2.78686e-08
1.6662e-08
1.46018e-08
1.35052e-08
-8.3673e-09
1.15671e-08
-1.99283e-07
-2.46748e-09
2.38838e-08
-3.28333e-07
3.05439e-08
-4.25877e-07
2.8172e-08
-4.69307e-07
5.19672e-08
-4.44264e-07
1.03305e-07
-3.87964e-07
1.48017e-07
-8.65594e-08
1.47453e-07
5.9295e-08
1.29645e-07
1.11686e-07
1.15057e-07
1.19428e-07
1.03224e-07
1.00876e-07
9.09013e-08
8.12403e-08
7.86187e-08
6.8668e-08
6.68528e-08
5.31448e-08
5.5563e-08
4.44846e-08
4.561e-08
3.43144e-08
3.42126e-08
3.09801e-08
2.33211e-08
2.38374e-08
1.22629e-08
2.04725e-08
3.06579e-11
3.99626e-09
-2.03005e-07
-1.08456e-09
1.15032e-08
-3.36967e-07
1.65667e-08
-4.3314e-07
2.1423e-08
-4.7814e-07
2.42649e-08
-4.48341e-07
2.82433e-08
-3.87867e-07
5.83965e-08
-1.08853e-07
6.27007e-08
6.37102e-08
5.94154e-08
1.21103e-07
5.66726e-08
1.26779e-07
5.37181e-08
1.07397e-07
4.8931e-08
8.71453e-08
4.48574e-08
7.22733e-08
3.97768e-08
5.71938e-08
3.50629e-08
4.79516e-08
2.97773e-08
3.68991e-08
2.30309e-08
3.34083e-08
1.58823e-08
2.54122e-08
8.68537e-09
2.19423e-08
3.03621e-09
-8.47069e-09
-1.96076e-07
8.96451e-10
-1.93477e-08
-3.26728e-07
-2.79512e-08
-4.25442e-07
-2.90038e-08
-4.77644e-07
-3.15972e-08
-4.42101e-07
-5.26597e-08
-3.68468e-07
-4.57481e-08
-1.19452e-07
-3.30661e-08
4.84331e-08
-2.0168e-08
1.05131e-07
-1.2195e-08
1.1636e-07
-6.12173e-09
9.79752e-08
-1.52726e-09
7.93133e-08
4.86667e-09
6.28065e-08
7.4446e-09
5.16383e-08
9.90762e-09
4.23311e-08
1.00066e-08
3.23921e-08
8.73212e-09
2.92636e-08
6.51856e-09
2.20427e-08
3.96294e-09
1.86595e-08
2.46236e-10
-1.59395e-08
-1.858e-07
3.23332e-09
-3.53344e-08
-3.1126e-07
-5.78949e-08
-4.09665e-07
-8.76241e-08
-4.59246e-07
-1.10225e-07
-4.33779e-07
-1.52009e-07
-3.44876e-07
-1.59407e-07
-1.3396e-07
-1.39826e-07
7.52111e-09
-1.12531e-07
6.73031e-08
-8.70256e-08
8.31674e-08
-6.92985e-08
7.45285e-08
-5.24555e-08
5.7384e-08
-3.57024e-08
4.28541e-08
-2.50245e-08
3.84171e-08
-1.63355e-08
2.92945e-08
-1.03191e-08
2.12626e-08
-6.04496e-09
1.91459e-08
-3.41077e-09
1.37465e-08
-1.66702e-09
1.05962e-08
-8.02241e-09
-1.99554e-08
-1.74496e-07
4.97662e-09
-4.49465e-08
-2.9248e-07
-8.14369e-08
-3.83185e-07
-1.30919e-07
-4.23093e-07
-1.73025e-07
-4.10358e-07
-2.19507e-07
-3.25499e-07
-2.35323e-07
-1.55747e-07
-2.17981e-07
-4.62412e-08
-1.88712e-07
1.61794e-08
-1.57984e-07
3.77309e-08
-1.28717e-07
3.5536e-08
-9.91959e-08
2.14109e-08
-7.45075e-08
1.26281e-08
-5.75519e-08
1.56719e-08
-4.31172e-08
9.14498e-09
-3.10164e-08
4.05176e-09
-2.10895e-08
4.09164e-09
-1.33106e-08
7.9782e-10
-6.69275e-09
-1.56566e-09
-2.0556e-08
-2.30508e-08
-1.59233e-07
5.65149e-09
-5.47423e-08
-2.65934e-07
-9.96188e-08
-3.46879e-07
-1.50369e-07
-3.82582e-07
-2.03047e-07
-3.71813e-07
-2.44472e-07
-3.04142e-07
-2.59587e-07
-1.72478e-07
-2.43716e-07
-9.05204e-08
-2.15063e-07
-3.11061e-08
-1.85794e-07
-7.53842e-09
-1.55798e-07
-6.58797e-09
-1.25245e-07
-1.96751e-08
-9.99254e-08
-2.28123e-08
-8.06137e-08
-1.30294e-08
-6.28871e-08
-1.44135e-08
-4.6168e-08
-1.62794e-08
-3.23132e-08
-1.3694e-08
-2.10448e-08
-1.50134e-08
-1.06848e-08
-1.70466e-08
-3.68228e-08
-2.30483e-08
-1.4117e-07
5.03415e-09
-5.27603e-08
-2.37585e-07
-9.41203e-08
-3.11183e-07
-1.38505e-07
-3.47397e-07
-1.90224e-07
-3.33248e-07
-2.27801e-07
-2.83417e-07
-2.39808e-07
-1.84752e-07
-2.30006e-07
-1.1899e-07
-2.07112e-07
-6.18644e-08
-1.77799e-07
-4.07136e-08
-1.49107e-07
-3.68275e-08
-1.23016e-07
-4.79463e-08
-1.01917e-07
-4.65449e-08
-8.36075e-08
-3.49609e-08
-6.67153e-08
-3.449e-08
-5.17906e-08
-3.34595e-08
-3.75352e-08
-3.03786e-08
-2.51346e-08
-3.10186e-08
-1.29526e-08
-3.37241e-08
-5.63052e-08
-1.84672e-08
-1.27844e-07
4.74561e-09
-4.29946e-08
-2.15459e-07
-7.86822e-08
-2.78287e-07
-1.20193e-07
-3.09866e-07
-1.63311e-07
-2.97766e-07
-1.97682e-07
-2.64334e-07
-2.0857e-07
-1.93263e-07
-2.04832e-07
-1.38205e-07
-1.88578e-07
-8.62731e-08
-1.65714e-07
-6.76426e-08
-1.41643e-07
-6.10129e-08
-1.18807e-07
-6.93955e-08
-9.91533e-08
-6.40121e-08
-8.14772e-08
-5.13515e-08
-6.51453e-08
-5.42754e-08
-5.3297e-08
-4.99999e-08
-4.07317e-08
-4.59201e-08
-2.82963e-08
-4.45369e-08
-1.44415e-08
-4.63318e-08
-7.00057e-08
-1.27319e-08
-1.18601e-07
3.23782e-09
-3.29094e-08
-1.97429e-07
-6.49019e-08
-2.48852e-07
-1.02261e-07
-2.77191e-07
-1.39264e-07
-2.67532e-07
-1.70589e-07
-2.42498e-07
-1.83181e-07
-1.92788e-07
-1.81113e-07
-1.47681e-07
-1.6685e-07
-1.03688e-07
-1.47304e-07
-9.04804e-08
-1.29091e-07
-8.27316e-08
-1.10992e-07
-8.80508e-08
-9.55154e-08
-8.02283e-08
-8.00818e-08
-6.55289e-08
-6.31947e-08
-6.7241e-08
-5.17083e-08
-6.09954e-08
-4.04593e-08
-5.88102e-08
-2.85911e-08
-5.64075e-08
-1.49802e-08
-5.77713e-08
-8.14075e-08
-1.04275e-08
-1.14306e-07
2.29409e-09
-2.79925e-08
-1.8544e-07
-5.36587e-08
-2.28662e-07
-8.42282e-08
-2.50921e-07
-1.16991e-07
-2.39671e-07
-1.4425e-07
-2.21461e-07
-1.56637e-07
-1.87978e-07
-1.54045e-07
-1.53641e-07
-1.42208e-07
-1.1755e-07
-1.25504e-07
-1.05438e-07
-1.10788e-07
-9.6251e-08
-9.76731e-08
-1.00972e-07
-8.48964e-08
-9.07438e-08
-7.22134e-08
-7.77612e-08
-5.92781e-08
-7.874e-08
-4.77815e-08
-6.95556e-08
-3.67853e-08
-6.77725e-08
-2.58624e-08
-6.55452e-08
-1.3385e-08
-6.82726e-08
-9.29861e-08
-1.0937e-08
-1.04515e-07
2.3806e-09
-2.59873e-08
-1.68831e-07
-4.49938e-08
-2.10439e-07
-6.81666e-08
-2.32234e-07
-9.32822e-08
-2.19135e-07
-1.13844e-07
-2.05859e-07
-1.21908e-07
-1.84349e-07
-1.17595e-07
-1.58995e-07
-1.06565e-07
-1.27324e-07
-9.47869e-08
-1.16171e-07
-8.42625e-08
-1.03851e-07
-7.58202e-08
-1.08124e-07
-6.7448e-08
-9.67828e-08
-5.71396e-08
-8.53072e-08
-4.83434e-08
-8.51761e-08
-3.94309e-08
-7.52222e-08
-3.00326e-08
-7.35881e-08
-2.11105e-08
-7.12541e-08
-1.10868e-08
-7.47333e-08
-9.99926e-08
-1.0759e-08
-9.41717e-08
2.12363e-09
-2.26237e-08
-1.54617e-07
-3.81442e-08
-1.94821e-07
-5.38578e-08
-2.15623e-07
-6.73213e-08
-2.07392e-07
-7.79248e-08
-1.98449e-07
-7.97091e-08
-1.84665e-07
-7.41285e-08
-1.64092e-07
-6.54422e-08
-1.34248e-07
-5.82754e-08
-1.20848e-07
-5.27312e-08
-1.06516e-07
-4.777e-08
-1.09821e-07
-4.22381e-08
-9.8224e-08
-3.56358e-08
-8.70411e-08
-3.08025e-08
-8.46709e-08
-2.52451e-08
-7.43162e-08
-1.90037e-08
-7.25559e-08
-1.33035e-08
-6.98847e-08
-7.05307e-09
-7.38312e-08
-9.96144e-08
-8.98495e-09
-8.572e-08
1.57594e-09
-1.80474e-08
-1.44171e-07
-2.87652e-08
-1.83918e-07
-3.79468e-08
-2.06132e-07
-4.10071e-08
-2.02768e-07
-4.18853e-08
-1.98384e-07
-3.76373e-08
-1.8921e-07
-2.96591e-08
-1.70178e-07
-2.12033e-08
-1.3928e-07
-1.67591e-08
-1.20482e-07
-1.39172e-08
-1.03584e-07
-1.13277e-08
-1.05329e-07
-8.33748e-09
-9.32191e-08
-5.8686e-09
-8.07689e-08
-6.1747e-09
-7.52948e-08
-4.06979e-09
-6.60085e-08
-3.30229e-09
-6.20176e-08
-2.10554e-09
-5.96245e-08
-6.35959e-10
-6.32727e-08
-8.94501e-08
-5.89439e-09
-8.11786e-08
1.08843e-09
-1.19133e-08
-1.4026e-07
-1.72259e-08
-1.8345e-07
-1.9375e-08
-2.06972e-07
-1.24655e-08
-2.08797e-07
-1.21806e-09
-2.07983e-07
1.19724e-08
-2.01344e-07
2.14799e-08
-1.76185e-07
3.12981e-08
-1.43325e-07
3.35902e-08
-1.15556e-07
3.36348e-08
-9.52127e-08
3.2597e-08
-9.43498e-08
3.22669e-08
-8.17534e-08
3.04568e-08
-6.66289e-08
2.47925e-08
-5.68291e-08
2.17246e-08
-4.8849e-08
1.5849e-08
-4.13627e-08
1.12174e-08
-3.88298e-08
6.12468e-09
-4.17314e-08
-6.74052e-08
-1.79749e-09
-8.13966e-08
3.48112e-10
-3.0523e-09
-1.38658e-07
-1.70158e-09
-1.82589e-07
3.13923e-09
-2.12937e-07
1.69886e-08
-2.23583e-07
3.85199e-08
-2.26131e-07
6.15572e-08
-2.21447e-07
7.60915e-08
-1.87158e-07
8.70406e-08
-1.50004e-07
8.98062e-08
-1.11924e-07
8.67243e-08
-8.41998e-08
8.10774e-08
-7.84319e-08
7.57161e-08
-6.35565e-08
6.86883e-08
-4.56285e-08
5.82225e-08
-3.16905e-08
4.82277e-08
-2.27955e-08
3.64844e-08
-1.14251e-08
2.49511e-08
-8.07541e-09
1.32081e-08
-9.74542e-09
-3.26213e-08
4.36531e-09
-8.03677e-08
-6.35566e-10
1.17191e-08
-1.3827e-07
2.27386e-08
-1.84468e-07
3.67461e-08
-2.20793e-07
5.46252e-08
-2.37325e-07
8.45724e-08
-2.48028e-07
1.1693e-07
-2.44265e-07
1.37662e-07
-2.0069e-07
1.49283e-07
-1.55748e-07
1.52337e-07
-1.07738e-07
1.45015e-07
-6.92116e-08
1.32313e-07
-5.66004e-08
1.19157e-07
-3.77957e-08
1.06136e-07
-1.74784e-08
8.94996e-08
1.33129e-10
7.31413e-08
1.30784e-08
5.50068e-08
2.90317e-08
3.716e-08
3.39425e-08
1.93988e-08
3.34103e-08
1.32347e-08
1.44191e-08
-9.04447e-08
-2.42506e-09
3.68968e-08
-1.56832e-07
6.77746e-08
-2.0794e-07
1.03779e-07
-2.43804e-07
1.34274e-07
-2.54426e-07
1.73065e-07
-2.68909e-07
2.10207e-07
-2.55497e-07
2.25821e-07
-1.94814e-07
2.30309e-07
-1.46228e-07
2.29633e-07
-9.30781e-08
2.17687e-07
-4.39982e-08
1.9594e-07
-2.30515e-08
1.70859e-07
-7.35756e-10
1.49189e-07
2.21748e-08
1.25044e-07
4.42944e-08
9.92636e-08
5.92518e-08
7.36461e-08
7.81237e-08
4.87715e-08
8.40208e-08
2.48159e-08
8.48116e-08
6.91232e-08
3.07837e-08
-1.16105e-07