/*--------------------------------*- C++ -*----------------------------------*\
| =========                 |                                                 |
| \\      /  F ield         | OpenFOAM: The Open Source CFD Toolbox           |
|  \\    /   O peration     | Version:  2212                                  |
|   \\  /    A nd           | Website:  www.openfoam.com                      |
|    \\/     M anipulation  |                                                 |
\*---------------------------------------------------------------------------*/
FoamFile
{
    version     2.0;
    format      ascii;
    arch        "LSB;label=32;scalar=64";
    class       surfaceScalarField;
    location    "0.047";
    object      phi;
}
// * * * * * * * * * * * * * * * * * * * * * * * * * * * * * * * * * * * * * //

dimensions      [1 0 -1 0 0 0 0];

oriented        oriented;

internalField   nonuniform List<scalar> 
4475
(
9.42563e-06
-8.36127e-06
-3.8652e-05
3.74433e-05
-1.01788e-05
-6.62128e-05
1.1499e-05
5.82478e-05
-4.76534e-05
5.99153e-05
1.92327e-05
-2.16256e-05
-1.22884e-05
-0.000154301
2.71774e-05
0.000140719
-8.16479e-05
8.03169e-05
7.9737e-05
-7.35233e-05
4.17881e-05
-8.32443e-05
-5.86211e-05
0.000107103
1.95908e-05
-4.67321e-05
0.000143423
-0.000103109
-5.33847e-05
-2.8279e-05
8.38081e-05
5.95593e-06
5.41762e-05
-7.58153e-05
-5.74181e-05
-0.000715112
-3.87032e-05
6.64623e-05
0.00067874
-0.000132582
6.54142e-05
-0.000656964
-0.000637509
9.70289e-05
-0.000100562
0.000634525
-0.000595859
2.85318e-05
-7.30808e-05
-0.000548123
1.74019e-05
-6.45758e-05
-0.000495838
1.39008e-05
-6.24546e-05
-0.000441096
1.38234e-05
-6.24077e-05
1.54256e-05
-0.000377945
-7.07012e-05
0.000384145
-3.972e-05
-0.000335454
-1.06003e-06
0.000455147
-4.90502e-05
0.000512804
-3.91715e-05
0.000567919
-3.92154e-05
0.000622814
-3.79682e-05
0.000683386
-3.58273e-05
0.000801755
-2.981e-05
0.000747545
-8.94449e-05
0.000755921
-5.63457e-05
0.000999062
3.79126e-05
-0.000291557
0.000969235
5.71638e-05
-3.99047e-05
0.000197079
-0.000156022
-5.39739e-06
-0.000328389
-7.94967e-05
0.000968575
6.54292e-05
-7.72605e-05
0.000966026
7.44517e-05
-8.30013e-05
0.000955708
8.88893e-05
-8.14435e-05
0.000930353
0.000102031
-7.70041e-05
0.000889084
0.000107531
-6.54776e-05
0.000828031
0.000111132
-5.07331e-05
0.000750776
0.000108797
-3.53084e-05
0.00066319
0.00010103
-1.87653e-05
0.000571666
9.02716e-05
-4.24631e-06
0.000483792
8.05129e-05
3.86714e-06
0.000405861
7.30214e-05
2.71159e-06
0.000339324
7.17496e-05
-7.718e-06
0.00028317
7.53174e-05
-2.40536e-05
0.000234873
8.05316e-05
-4.09928e-05
8.81293e-05
0.000192201
-5.78392e-05
-0.000241725
0.00019956
0.000116666
-0.000289217
0.000117623
-0.000342938
0.000122389
-0.000407561
0.000132086
-0.000482448
0.000144108
-0.000564908
0.000157991
-0.000649518
0.000168367
-0.000734187
0.000178814
-0.000805155
0.000174382
-0.000859817
0.000163248
-0.000900345
0.000146909
-0.000921549
0.000120758
-0.000930242
9.27742e-05
-0.000930244
6.35009e-05
-0.000923375
4.45672e-05
-0.000931359
5.15688e-05
-0.000684836
0.000126654
-0.000383257
-0.000668988
4.21832e-05
-0.000598849
-1.23762e-05
-0.000562229
-6.8332e-05
2.56021e-05
-0.000558345
-0.00010803
-0.000522422
-0.000110001
-0.000478884
-0.000106614
-0.000431854
-0.000104975
-0.000381668
-0.000105008
-0.000336716
-0.000105235
9.54259e-05
-6.93269e-05
0.000153233
0.00011764
0.00016346
0.00041377
-0.000113904
-0.000342419
0.000470936
-9.21349e-05
0.000526643
-9.31477e-05
0.000583034
-9.49172e-05
0.00064378
-0.00010003
0.000711747
-0.000104273
0.000731218
-0.000117659
0.000773904
-0.000107427
0.000876051
-7.31693e-05
0.000909871
-8.30664e-05
0.000914544
-9.05959e-05
0.000909529
-8.61248e-05
0.000897439
-7.06379e-05
0.000869847
-4.85298e-05
0.000826063
-1.92368e-05
0.000764816
1.17871e-05
0.000690076
3.82449e-05
0.000605473
6.3148e-05
0.000519596
7.9648e-05
0.000438665
8.37872e-05
0.000369173
7.24459e-05
0.000310911
5.05554e-05
0.00026173
2.28338e-05
0.000217756
-3.14096e-06
0.000177625
-2.64826e-05
-4.36777e-05
-0.000297423
1.54285e-05
-4.23435e-05
0.000142477
-9.40623e-05
-0.000267178
-0.000293183
-0.000110942
-0.000201644
0.000171989
0.000136185
-0.000237161
0.000139704
-0.000276748
0.000146525
-0.000323509
0.000161494
-0.000377121
0.000180361
-0.000439534
0.000201941
-0.000509324
0.000222451
-0.000584214
0.000236663
-0.000652035
0.000239552
-0.000713162
0.000229559
-0.000763074
0.000209492
-0.000794549
0.000175968
-0.000811364
0.000134185
-0.000814418
9.07647e-05
-0.000811382
5.02179e-05
-0.000796306
1.76077e-05
-0.000758811
3.19472e-06
-0.000642684
1.38661e-06
-0.000571686
-3.66392e-05
-0.000518337
-7.28032e-05
-0.000478129
-0.000113133
-0.000451354
-0.000137289
-0.000418199
-0.00014281
-0.000379528
-0.000141164
-0.000340656
-0.000136583
-0.000301903
-0.000133831
-0.000265514
-0.000129471
-4.13503e-05
-9.91936e-06
5.09968e-06
7.50351e-05
-3.05439e-05
-5.63786e-05
1.6537e-05
-9.52258e-05
-3.51446e-05
0.000120184
1.70625e-05
2.72188e-05
0.000337891
-8.3763e-05
1.5782e-05
-0.000260658
0.00034732
-0.000117004
0.000389965
-0.000131149
0.000436843
-0.000138144
0.000488046
-0.000145618
0.000539979
-0.000153546
0.000591333
-0.000159338
0.00063003
-0.0001615
0.000668085
-0.00015066
0.000721508
-0.000131489
0.000754127
-0.000120452
0.000766604
-0.00010768
0.000762679
-8.65974e-05
0.000749405
-5.60635e-05
0.000721299
-1.75493e-05
0.000681177
2.54915e-05
0.000627911
6.86379e-05
0.000561641
0.000106213
0.000490709
0.000134719
0.000420858
0.000150087
0.000359079
0.000146969
0.000306194
0.000127421
0.000262662
9.58644e-05
0.000225533
5.99969e-05
0.000192129
2.81507e-05
0.000160047
1.87488e-06
0.000131769
-1.66368e-05
5.83528e-05
0.000109692
-3.57944e-05
8.39569e-05
0.000113045
0.000107973
0.00012182
0.000127151
0.000135079
-6.63992e-05
9.11167e-05
-4.4908e-05
0.000150543
0.000143036
4.26551e-05
-5.3904e-06
-7.45065e-05
7.86154e-05
-7.2584e-05
-7.41216e-05
6.74194e-05
-0.000123724
-0.000250498
-2.51499e-05
1.1218e-06
5.68135e-05
-3.28078e-05
0.00010324
7.67074e-05
-9.11896e-05
-0.000322192
-2.54806e-05
6.4571e-05
-0.000235991
-0.000126627
6.64334e-05
-4.7946e-05
9.56228e-05
8.8522e-05
9.43104e-05
0.000110259
0.000101514
0.00012846
0.000116016
0.000143641
0.000135583
-0.000165626
0.00015541
0.000155433
-0.000177937
0.000154685
-0.000198805
0.000150818
-0.000223354
0.000154868
-0.000253062
0.000166739
-0.000285482
0.00018627
-0.00032261
0.000211944
-0.000365326
0.000240219
-0.000413925
0.000266402
-0.00046607
0.00028312
-0.000516933
0.000283987
-0.000562239
0.00026886
-0.000595863
0.000238567
-0.000617432
0.000194033
-0.000628011
0.000140637
-0.000628306
8.58341e-05
-0.000622762
3.57116e-05
-0.000604543
-9.58648e-06
-0.000567326
-4.22207e-05
-0.00050462
-6.85787e-05
-0.000451325
-9.63932e-05
-0.000400083
-0.000129097
-0.0003634
-0.000152646
-0.000333174
-0.00016743
-0.000301337
-0.000171462
-0.000269491
-0.000166718
-0.000237698
-0.000159344
-0.000208991
-0.000151054
-0.000141197
-0.000184105
-6.55466e-05
3.74616e-05
-0.00017362
0.000215047
3.64927e-05
1.93191e-05
-2.36159e-05
-3.02233e-05
0.000102707
-8.5357e-05
6.88043e-05
1.46309e-05
-6.40103e-05
4.82729e-05
4.65204e-05
-6.41112e-05
4.23785e-05
7.95879e-05
-6.8545e-05
0.000112906
-7.66823e-05
5.55052e-05
0.000147124
-8.8513e-05
0.000184099
-0.000103195
7.53992e-05
0.000225943
-0.000118761
0.000253476
-0.00013965
0.000284627
-0.000158967
0.000320769
-0.000171854
0.000360892
-0.000183746
0.000400703
-0.000192145
0.000439403
-0.000197968
0.000471912
-0.000194622
0.000504015
-0.000183629
0.000536586
-0.000164832
0.000557377
-0.000141953
0.000563996
-0.000114798
0.000558523
-8.0482e-05
0.000544311
-3.83307e-05
0.000518923
1.29787e-05
0.000485444
6.56733e-05
0.000442679
0.000117066
0.000394169
0.00015899
0.000344334
0.000187912
0.000300423
0.000196979
0.000262191
0.00018832
0.000231926
0.000160999
0.00020737
0.000123332
0.000184287
8.50318e-05
0.000161135
5.23554e-05
0.00013972
2.42965e-05
0.00012067
4.07776e-06
0.000106233
-1.9065e-05
-3.62697e-05
9.7198e-05
4.73145e-07
-6.43316e-05
5.37345e-05
1.47237e-05
-2.63492e-05
4.53766e-05
-6.21918e-06
2.69865e-06
-2.00973e-05
2.07173e-05
7.9862e-05
-0.000119392
-5.51934e-05
9.53946e-05
-2.29708e-06
1.85783e-05
-6.03947e-06
1.02763e-06
6.02971e-05
1.28684e-05
-0.000127206
-0.000217781
-0.000214332
-4.35598e-06
0.000270941
-0.000177655
0.000171828
0.000159887
-0.00018303
0.000161381
-0.000192168
0.000158256
-0.000206278
0.000163645
-0.000221866
0.000175538
-0.000238773
0.000197073
-0.000256755
0.000225459
-0.000277106
0.000257328
-0.000301127
0.000287263
-0.000327297
0.000305078
-0.000354238
0.000305652
-0.000379594
0.000288613
-0.000399358
0.000253178
-0.000413324
0.000203517
-0.00041985
0.000142561
-0.000420626
8.16937e-05
-0.000414374
2.26422e-05
-0.000401146
-2.92686e-05
-0.000375737
-7.35905e-05
-0.00034
-0.000109772
-0.000301837
-0.000139186
-0.000266611
-0.00016708
-0.000237875
-0.000181497
-0.000212206
-0.000190464
-0.000186542
-0.000191621
-0.000161138
-0.000184031
-0.00013713
-0.000173143
-0.000116363
-0.000160037
-9.84918e-05
-0.000146622
-0.000131456
-0.000165284
-4.87842e-05
-1.72308e-05
6.61342e-05
3.1554e-05
0.000106434
-0.000120845
-2.02598e-05
-2.13536e-05
-5.93296e-05
2.55955e-05
-4.18987e-06
-7.0923e-05
1.78843e-05
-8.09355e-05
4.28734e-05
-9.21361e-05
6.88117e-05
-0.000105565
9.46577e-05
-0.000121912
0.000120758
-0.00013957
0.000144118
-0.000158786
0.000166422
-0.000177824
0.000192505
-0.000194393
0.000219447
-0.000206746
0.000247489
-0.000215767
0.000272952
-0.000219003
0.000296059
-0.000213702
0.000316052
-0.000200249
0.00033284
-0.000178729
0.000343016
-0.000149387
0.000343693
-0.000112371
0.000335968
-6.87408e-05
0.000319943
-1.68286e-05
0.000299892
4.03193e-05
0.000274461
9.89867e-05
0.000247653
0.000151136
0.000220893
0.000192119
0.000198532
0.000215792
0.000180799
0.000219656
0.000169255
0.000204235
0.000161789
0.000172245
0.000153614
0.000134878
0.000142657
9.91424e-05
0.000129922
6.81976e-05
0.000118115
3.91953e-05
0.000106136
1.86812e-05
9.68648e-05
-8.78792e-06
9.00696e-05
-3.07568e-05
5.99856e-05
-6.47184e-05
8.72345e-05
6.13144e-05
9.45071e-05
7.67529e-05
8.5412e-05
0.00010604
7.46269e-05
0.00013308
8.44435e-05
0.000154014
0.000102513
0.000167722
0.000124625
0.00017591
0.000144912
0.000163231
0.00017312
-8.54287e-06
1.7348e-05
-1.64258e-05
1.70579e-05
-2.23073e-05
2.99458e-05
-1.93598e-05
-1.39595e-05
4.91625e-06
-1.09676e-05
2.0616e-05
4.04842e-05
-8.57051e-06
1.26252e-05
-4.38481e-05
3.96722e-05
1.79444e-06
-8.85431e-06
8.86918e-06
-8.73507e-05
-0.000130111
-0.000119757
-0.000158928
-3.86269e-05
-3.69382e-06
-8.21379e-06
2.01192e-05
-2.36813e-05
4.15908e-05
1.1291e-05
3.38869e-05
-3.57388e-05
-1.00559e-05
9.41911e-05
0.000121028
-6.43727e-05
7.04998e-05
-5.85168e-05
-5.34708e-05
-7.36318e-05
-3.97594e-05
-8.7108e-05
-2.38957e-05
-0.000100908
-7.42285e-06
-0.00011553
8.34259e-06
-0.000132372
2.31712e-05
-0.000150404
3.72916e-05
-0.000169225
5.09487e-05
-0.00018762
6.52237e-05
-0.00020375
8.08956e-05
-0.000216013
9.61254e-05
-0.00022314
0.000109715
-0.000224107
0.000120898
-0.000216966
0.000129102
-0.000201611
0.000133959
-0.000177528
0.000134478
-0.000144247
0.000129723
-0.000101892
0.000119669
-5.26541e-05
0.000106867
2.90576e-06
9.3865e-05
6.14349e-05
8.27099e-05
0.000118564
7.43134e-05
0.000167701
7.14159e-05
0.000202928
7.38019e-05
0.000220484
8.1674e-05
0.000217918
9.29796e-05
0.00019785
0.000102497
0.000166607
0.000106149
0.000134479
0.000105745
0.000102802
0.000101829
7.55364e-05
9.65832e-05
4.74232e-05
8.96056e-05
2.68891e-05
8.20575e-05
-3.31649e-06
7.63172e-05
-3.00741e-05
6.94986e-05
-6.92619e-05
0.000113607
-0.000124861
6.59632e-05
0.000104536
8.08218e-05
9.93363e-05
8.65215e-05
0.000101114
7.75058e-05
0.00010988
6.63212e-05
0.000122826
7.36226e-05
0.000134079
8.8863e-05
0.00013942
0.00010896
0.000138892
0.0001251
0.000128009
0.000141031
-0.000174851
0.000152759
0.000110947
-0.000182315
0.000157928
-0.000186023
0.000155023
-0.000185322
0.000159125
-0.000186181
0.000159021
-0.000187839
0.000163373
-0.000190387
0.000174558
-0.000191694
0.000194741
-0.000190764
0.000222048
-0.000188778
0.000253877
-0.000187013
0.000284011
-0.000187443
0.000303022
-0.000190615
0.000305014
-0.000196362
0.000289517
-0.000202238
0.000253875
-0.000206624
0.000202837
-0.000209987
0.000141078
-0.00021061
7.73127e-05
-0.00020857
1.54343e-05
-0.00020136
-4.13185e-05
-0.000188623
-9.07628e-05
-0.00017106
-0.000131079
-0.000151277
-0.000161336
-0.000132036
-0.000186632
-0.000114764
-0.000196684
-9.67452e-05
-0.000203838
-7.90283e-05
-0.00020228
-6.14887e-05
-0.000192617
-4.44979e-05
-0.000179801
-2.90316e-05
-0.000164384
-0.000145916
-1.85198e-05
-5.44882e-05
-2.85045e-05
6.38945e-05
-0.000113656
-8.13545e-05
-0.000171609
-0.000101414
0.000129202
4.00435e-05
-3.0586e-05
9.80539e-06
-5.26905e-05
3.58566e-05
-1.00116e-05
-6.62152e-05
9.5045e-07
1.53224e-05
-7.13554e-05
8.55738e-05
4.82786e-05
-0.000110822
-4.48765e-05
4.63423e-05
-0.000102606
-3.60491e-05
9.48426e-05
-9.92145e-05
-5.71193e-05
-9.41979e-05
-7.32477e-05
-8.79395e-05
-8.82138e-05
-8.12599e-05
-0.00010295
-7.44285e-05
-0.000118151
-6.83698e-05
-0.000135015
-6.27362e-05
-0.00015295
-5.78629e-05
-0.000170627
-5.3373e-05
-0.000187497
-4.86579e-05
-0.00020186
-4.34095e-05
-0.000212199
-3.8545e-05
-0.0002171
-3.53645e-05
-0.000216011
-3.43761e-05
-0.00020754
-3.54856e-05
-0.000191074
-3.95098e-05
-0.000165044
-4.51167e-05
-0.000130835
-5.22303e-05
-8.71788e-05
-6.01257e-05
-3.70268e-05
-6.63494e-05
1.72674e-05
-6.84187e-05
7.23082e-05
-6.44934e-05
0.000123807
-5.32119e-05
0.000165751
-3.48008e-05
0.000193424
-1.04445e-05
0.000204223
1.55116e-05
0.000198758
3.91979e-05
0.000179417
5.70784e-05
0.000152513
6.86007e-05
0.000125888
7.58096e-05
9.83937e-05
7.74397e-05
7.64907e-05
7.68224e-05
4.93186e-05
7.27938e-05
2.92353e-05
6.45312e-05
-1.06811e-06
5.87794e-05
-3.29209e-05
4.72689e-05
-7.16781e-05
4.76367e-05
-0.000137267
0.000163221
3.17381e-05
-0.000165183
0.000149811
5.37341e-05
0.000122196
7.81296e-05
9.25393e-05
8.44721e-05
9.53971e-05
4.88588e-05
0.000132254
1.3097e-05
0.000151316
4.35569e-05
0.000161791
6.32153e-05
0.000168889
6.88689e-05
0.000170498
7.0976e-05
0.000155969
8.52788e-05
0.000131085
0.000103996
-0.000156479
0.000118889
9.62935e-05
-0.000178992
8.81691e-05
-0.000185691
0.000134421
-0.000187955
0.000140117
-0.00018437
0.000148286
-0.000178374
0.000151402
-0.000171025
0.000156321
-0.000161938
0.000165681
-0.000149721
0.000182651
-0.000133369
0.00020664
-0.000112601
0.000234585
-9.01639e-05
0.00026241
-6.95295e-05
0.000281588
-5.2232e-05
0.000285062
-3.8606e-05
0.000271782
-2.97313e-05
0.000240159
-2.43717e-05
0.000192423
-2.25976e-05
0.000134418
-2.21701e-05
7.22795e-05
-2.2434e-05
1.14318e-05
-2.11756e-05
-4.62883e-05
-1.90089e-05
-9.60082e-05
-1.56847e-05
-0.000136484
-1.00282e-05
-0.000167561
-6.41566e-06
-0.000188762
9.51051e-07
-0.000200515
7.09782e-06
-0.000204181
1.46483e-05
-0.000202116
2.35017e-05
-0.000192478
3.28927e-05
-0.000179354
4.1946e-05
-0.00016316
-0.00014374
4.98627e-05
-1.08328e-05
-0.000126744
-4.53543e-05
-1.48698e-05
-3.3985e-05
-5.39386e-05
5.72818e-05
4.4013e-06
2.68101e-05
-1.71014e-05
-1.17903e-05
-5.50623e-06
-0.000108401
7.41222e-05
2.38629e-05
4.78588e-06
6.61495e-05
1.9037e-05
5.45332e-05
8.65232e-06
-6.50282e-05
1.49607e-06
-9.76562e-05
6.46472e-06
-5.74497e-05
3.88932e-05
-7.10278e-05
-9.99398e-05
-1.68129e-05
1.99993e-05
4.39102e-05
-3.2296e-06
0.000262718
-0.000295079
5.21676e-05
0.000228704
7.00967e-05
0.000200908
8.55483e-05
0.00017895
8.8934e-05
0.000156662
5.82781e-05
0.000134696
3.04517e-05
0.000124321
4.9371e-05
0.000112678
5.99421e-05
8.46556e-05
6.12711e-05
5.66655e-05
3.99799e-05
2.61254e-05
4.68387e-05
-9.83216e-07
6.8411e-05
-2.2814e-05
9.66853e-05
-0.000128637
-2.71463e-05
0.000121509
-0.000149532
6.71668e-05
-0.000169397
6.50198e-05
-0.000179697
0.000106294
-0.000183977
0.000120537
-0.0001799
0.000130005
-0.000170482
0.000135999
-0.000156732
0.000142118
-0.000139297
0.000150417
-0.000117899
0.000164472
-9.1096e-05
0.000183687
-5.85289e-05
0.000205726
-2.23521e-05
0.000228934
1.46961e-05
0.000245812
4.97536e-05
0.000249464
7.94291e-05
0.000239433
0.000102396
0.000213138
0.000117974
0.000172252
0.000126752
0.000120963
0.000130035
6.47096e-05
0.000129113
8.63933e-06
0.000125135
-4.52961e-05
0.000119538
-9.24563e-05
0.000113165
-0.000130897
0.000106684
-0.000160273
0.00010105
-0.000180405
9.60196e-05
-0.000190837
9.27421e-05
-0.000194431
8.97961e-05
-0.000191314
9.05506e-05
-0.000184433
9.27782e-05
-0.000172333
9.65031e-05
-0.000157626
-0.000140542
0.00010223
-0.000121941
5.48747e-05
3.93641e-05
-6.36609e-05
-5.74781e-05
-3.64961e-05
-1.06443e-06
-7.41421e-05
-1.11456e-05
6.04286e-06
7.94092e-05
-4.77519e-06
1.53656e-05
1.05674e-05
-1.02678e-05
-0.000119254
-5.38567e-05
0.000117941
-0.000121532
-6.82697e-05
-0.000123756
-8.32243e-05
-0.00012568
-9.86973e-05
-0.000126887
-0.000114893
-0.000129
-0.000130623
-0.000131433
-0.000148132
-0.00013426
-0.000164314
-0.000137253
-0.000178973
-0.000139889
-0.000190889
-0.000142115
-0.000198736
-0.000144714
-0.000201667
-0.00014891
-0.000199101
-0.000154716
-0.000189801
-0.000161719
-0.000172603
-0.000169612
-0.000147177
-0.00017769
-0.000113371
-0.000183999
-7.21424e-05
-0.000187059
-2.53921e-05
-0.000184787
2.36004e-05
-0.000175452
7.18603e-05
-0.000157841
0.000115301
-0.000131945
0.00014887
-9.94343e-05
0.000169306
-6.3372e-05
0.000175585
-2.7434e-05
0.000169156
3.02824e-06
0.000153797
2.52534e-05
0.00013333
4.13283e-05
0.000112015
5.19331e-05
8.95688e-05
5.79095e-05
7.15291e-05
5.91586e-05
4.70605e-05
5.63241e-05
2.76079e-05
4.7119e-05
-7.7917e-07
4.04282e-05
-3.68493e-05
2.52821e-05
-7.09447e-05
2.76053e-05
-0.000148003
7.78359e-06
-0.000159046
2.81131e-05
-0.000323193
-3.28232e-05
-4.89175e-05
4.5895e-05
-4.83373e-05
-2.25013e-05
-7.31688e-05
1.26407e-05
-1.92585e-05
8.49946e-05
-3.81884e-05
-8.83551e-05
3.8533e-05
-3.75805e-06
-9.18684e-05
-0.000132133
0.000138452
-2.20735e-05
-0.000139036
5.47945e-05
-0.000154255
4.90546e-05
-0.000167253
8.0156e-05
-0.000174589
9.59288e-05
-0.000172135
0.000108512
-0.000161801
0.000115675
-0.000144943
0.000122652
-0.000122764
0.000130767
-9.501e-05
0.000141654
-6.18323e-05
0.000156476
-2.26008e-05
0.000172837
2.12629e-05
0.00019133
6.90113e-05
0.000203027
0.000114561
0.000206349
0.000155143
0.000198556
0.000188206
0.000177747
0.00021251
0.000144567
0.000227718
0.000101973
0.000234524
5.41081e-05
0.000234511
5.39335e-06
0.000228409
-4.1599e-05
0.000218549
-8.40418e-05
0.000206136
-0.000118518
0.000192589
-0.000144953
0.000178827
-0.00016309
0.000167357
-0.000174118
0.000156588
-0.000176986
0.000148253
-0.000175351
0.000140092
-0.000168071
0.000134075
-0.000158017
0.000131898
-0.000147486
0.000134538
-0.000135764
-0.000118785
0.000107397
9.36554e-05
-5.6875e-05
6.908e-06
9.8089e-06
-2.79299e-05
0.00024532
-0.000235766
-8.26247e-06
0.000251483
1.17865e-05
0.000231749
4.75334e-05
0.00016618
0.000100274
9.16888e-05
0.000108821
0.000117715
-1.24269e-05
0.000159231
-5.32492e-05
0.000105599
6.49487e-05
4.6703e-05
6.49458e-05
5.73559e-05
-2.42264e-05
6.39907e-05
-6.90354e-05
6.13687e-05
-4.89898e-05
6.44765e-05
-1.73952e-05
7.66226e-05
4.21857e-05
6.521e-05
0.000137084
4.93586e-05
0.000181087
2.14101e-05
-4.72505e-05
-3.64048e-05
-5.08687e-05
1.37156e-06
-5.89538e-05
1.21766e-05
-6.85514e-05
2.31044e-05
3.40123e-05
-0.000111015
7.78242e-05
0.00013677
-5.10422e-05
-5.7564e-05
-2.7268e-05
1.70497e-05
2.14694e-05
-1.81317e-05
-1.89431e-06
0.000112852
-0.000122746
-0.000126607
-4.28567e-05
0.000114672
-0.000137125
-5.74976e-05
-0.000146871
-7.32898e-05
-0.00015564
-8.9542e-05
-0.000164598
-0.000105504
-0.000172397
-0.000121626
-0.000181242
-0.000137135
-0.000190127
-0.000151701
-0.000198217
-0.00016454
-0.00020546
-0.000173841
-0.000211991
-0.000179627
-0.000219074
-0.000181106
-0.000227468
-0.000177537
-0.000236396
-0.000167842
-0.000245388
-0.000150921
-0.000253574
-0.000127781
-0.000259401
-9.68925e-05
-0.000262005
-6.00803e-05
-0.000258909
-1.94054e-05
-0.000249134
2.25137e-05
-0.000231167
6.26429e-05
-0.000204405
9.73839e-05
-0.000170129
0.00012324
-0.000131035
0.00013826
-9.08737e-05
0.000142458
-5.34159e-05
0.000137451
-2.16272e-05
0.000126094
3.08198e-06
0.000111262
2.09714e-05
9.56329e-05
3.38728e-05
7.75196e-05
4.22781e-05
6.27841e-05
4.42507e-05
4.22764e-05
4.24648e-05
2.30909e-05
3.25403e-05
-1.40232e-06
2.41758e-05
-3.96617e-05
5.97275e-06
-6.66233e-05
3.93593e-06
-0.000152486
-1.42801e-05
-0.000152197
-3.02958e-05
-0.000312782
-4.55286e-05
-0.00023994
-1.88056e-05
-6.50321e-05
1.55832e-05
-9.76811e-05
5.31298e-05
-8.261e-05
7.78271e-05
-2.65894e-05
-4.05931e-05
3.29845e-05
-4.073e-05
-1.03063e-05
-2.43983e-05
-4.86211e-05
8.04437e-05
1.87186e-05
-8.07594e-05
-3.90354e-05
2.00456e-06
4.2021e-05
0.000158323
-7.86505e-05
-4.88266e-06
-0.000133893
0.000156636
0.000162849
8.91285e-05
-0.000103837
1.51345e-05
-8.03944e-06
-1.57701e-05
-3.05851e-05
5.86572e-05
2.73139e-05
-5.55541e-05
9.93514e-06
5.29682e-05
-8.80155e-06
-4.76741e-05
-0.00017001
0.000225366
1.26361e-05
-0.00015455
-1.85206e-05
-0.000141055
4.2275e-05
-0.000146101
3.8848e-05
-0.000155008
5.76536e-05
-0.000163071
7.20833e-05
-0.000162516
8.46847e-05
-0.000153001
9.35049e-05
-0.000135263
0.000101157
-0.000110273
0.000108598
-7.92357e-05
0.000118011
-4.22511e-05
0.000129312
-7.73679e-07
0.000142276
4.73466e-05
0.000153198
9.77086e-05
0.000161111
0.000147256
0.000162648
0.000192904
0.000155819
0.000231776
0.000139322
0.00026177
0.000113324
0.000281779
7.96899e-05
0.000292073
4.10672e-05
0.000293967
9.7492e-07
0.00028845
-3.78888e-05
0.000277188
-7.37709e-05
0.000262037
-0.000103204
0.000245115
-0.000125888
0.000228511
-0.000142709
0.000213109
-0.000153474
0.000198387
-0.000155846
0.000185392
-0.000155324
0.00017427
-0.000149753
0.000164447
-0.000141274
0.000153759
-0.000130477
0.000140449
-0.000116994
-0.000103759
0.000114666
6.98311e-06
-4.05395e-05
2.95766e-05
-3.04592e-05
-5.64041e-06
1.78069e-05
-1.48521e-05
3.07275e-05
0.000482625
-0.000406676
-0.000130133
0.000457115
9.2114e-06
0.000393771
5.8477e-05
0.00032676
0.000102236
0.000278461
0.00013646
0.000233687
0.000141436
0.000178182
3.2588e-05
0.000102843
1.91176e-05
5.17104e-05
9.09272e-05
-2.0104e-05
7.93934e-05
-0.000130714
-2.31286e-05
-0.000144271
-0.000173609
-0.000144907
-0.000146809
-0.00014743
-7.28687e-05
-0.000172617
5.27208e-05
-0.000174353
0.000144596
-0.000176614
0.000192726
-0.000172019
0.000238085
-5.39728e-05
-4.287e-05
4.12016e-06
-4.72776e-05
1.43231e-05
-5.15105e-05
2.27735e-05
-5.35071e-05
2.85167e-05
3.87824e-05
-5.40869e-05
-1.13603e-05
1.46418e-05
4.09587e-05
7.53481e-06
-0.000116718
-2.12267e-05
0.000100965
3.15714e-05
-0.000130995
-3.20644e-05
-0.000144952
-4.57447e-05
-0.000159105
-6.10316e-05
-0.000173115
-7.68477e-05
-0.000186953
-9.25493e-05
-0.000200325
-0.00010778
-0.000213291
-0.0001223
-0.000225998
-0.00013525
-0.000237711
-0.000146165
-0.00024715
-0.000154309
-0.000255844
-0.000158452
-0.000264748
-0.000159042
-0.000273737
-0.000155159
-0.000281938
-0.000145796
-0.000289204
-0.000130718
-0.000294812
-0.00010985
-0.0002974
-8.26105e-05
-0.000295845
-5.12445e-05
-0.00028809
-1.76491e-05
-0.000272912
1.6482e-05
-0.000249717
4.83158e-05
-0.000218974
7.52566e-05
-0.000182432
9.50152e-05
-0.000142915
0.000106466
-0.000103758
0.000109982
-6.79792e-05
0.000106911
-3.75083e-05
9.9216e-05
-1.28629e-05
8.88529e-05
6.35141e-06
7.76878e-05
2.04883e-05
6.37643e-05
3.04282e-05
5.18374e-05
3.38097e-05
3.52334e-05
3.27403e-05
1.70755e-05
2.33357e-05
-2.78239e-06
1.38016e-05
-4.11853e-05
-3.99777e-06
-6.08927e-05
-1.80441e-05
-0.000144824
-3.36454e-05
-0.000148152
-7.43196e-05
-0.000276842
-9.30237e-05
-0.000235086
-0.000219117
-0.00029012
-5.93087e-06
-2.97787e-05
-1.14853e-05
-8.57916e-05
0.00010262
1.99298e-05
3.73606e-05
-5.8258e-06
-9.88778e-06
-1.05031e-05
2.47447e-05
-1.91101e-05
-1.54676e-05
2.74855e-05
-1.7216e-05
-2.94416e-05
5.1012e-05
-8.21054e-05
1.6901e-06
-4.42603e-05
-2.16762e-05
-1.46354e-05
-4.53625e-05
-2.55606e-05
3.35371e-05
7.43129e-06
-6.22782e-06
2.65146e-05
-1.96085e-05
-3.41409e-06
3.00744e-05
-2.5048e-05
2.29847e-05
0.000189805
-5.76462e-05
-0.000137699
6.48733e-05
-3.94567e-05
1.43484e-07
4.87718e-05
-7.73588e-05
8.44617e-05
-2.07189e-05
-2.14918e-05
-6.88246e-05
-0.000150267
-8.88223e-05
-0.000163011
-0.000100786
-0.000177168
-0.000111861
-0.000191791
-0.000121351
-0.000206966
-0.000128714
-0.000222781
-0.000133538
-0.000238279
-0.000134755
-0.000256106
-0.000130957
-0.000273138
-0.000122224
-0.00028943
-0.000107571
-0.000303999
-8.83465e-05
-0.000314448
-6.3936e-05
-0.000318252
-3.51923e-05
-0.000314086
-4.60206e-06
-0.00030087
2.69021e-05
-0.000277851
5.66861e-05
-0.000245547
8.26377e-05
-0.0002052
0.00010276
-0.000159176
0.00011612
-0.000110179
0.000122582
-6.08728e-05
0.000123001
-1.39739e-05
0.000118777
2.90598e-05
0.000112354
6.75665e-05
0.000103436
0.000100335
9.51349e-05
0.000125945
8.70172e-05
0.000143476
7.9452e-05
0.000152303
7.07978e-05
0.000152022
6.16043e-05
0.000146787
4.91967e-05
0.000146914
3.78862e-05
0.000155408
2.87233e-05
0.0001828
2.6947e-05
0.000201611
-1.8195e-05
0.000241186
-1.72933e-05
0.00025912
-0.000165262
-2.05603e-05
-5.85054e-05
1.9377e-05
0.000159332
-0.000141801
-0.000254544
0.000163125
-0.00016026
0.000184642
-4.50911e-05
0.000227915
7.28349e-06
0.00022953
0.000108912
8.25104e-05
0.000306264
-1.85081e-05
0.000280568
0.000105756
-4.64594e-05
0.000151007
4.29214e-05
-9.76046e-05
0.000403148
-0.000245413
0.000264623
-0.00017072
-8.66403e-05
-0.000183657
-0.00019262
-0.00022506
-0.000143637
-0.000216575
-9.87084e-05
-0.000119242
-3.88788e-05
-0.00010698
0.000141379
-0.000148966
0.000249708
-0.00017692
0.000294463
-0.000173874
0.000301475
-2.06773e-05
-2.52779e-05
-6.0021e-05
0.000136364
-3.74694e-06
-2.67292e-05
1.9247e-05
-2.66208e-05
-7.85299e-05
6.94158e-05
4.07698e-05
-2.355e-05
8.24012e-05
-2.18065e-05
8.84506e-05
-2.20254e-05
8.99369e-05
-8.06477e-05
-2.1805e-05
8.58294e-05
-7.35021e-05
-2.1945e-05
-6.59001e-05
-2.28235e-05
2.40814e-05
-2.67051e-05
-5.71213e-05
-7.90384e-05
3.21839e-06
-1.96268e-05
-4.38656e-05
5.07137e-05
1.78241e-05
-2.62645e-05
-1.22611e-05
2.9074e-05
-2.4625e-05
1.60136e-05
-1.70891e-05
2.12828e-05
6.53807e-07
5.86897e-06
2.62587e-06
-2.04305e-05
-7.39189e-06
-3.32484e-06
-6.99781e-06
-1.84053e-05
-6.87008e-05
4.71976e-05
-2.79687e-05
-1.32859e-05
1.0863e-05
-1.147e-05
6.03144e-06
-3.04501e-05
3.5696e-06
-3.07459e-05
1.24782e-05
-2.98327e-05
1.92563e-05
-2.97197e-05
2.366e-05
2.51769e-05
-2.47695e-05
5.07407e-05
-9.58639e-05
-1.95949e-05
-1.99195e-05
1.07443e-05
-1.03763e-05
1.42336e-05
-9.03873e-05
-4.57466e-06
1.44188e-05
7.16971e-05
-0.00010806
-1.10855e-05
-0.000124899
-2.08318e-05
-0.000141754
-3.32076e-05
-0.000158873
-4.73327e-05
-0.000176286
-6.20338e-05
-0.000193965
-7.6559e-05
-0.000211714
-9.06655e-05
-0.000228478
-0.00010399
-0.000244492
-0.000115807
-0.000258461
-0.000125681
-0.000269935
-0.000133018
-0.000279652
-0.000136993
-0.000288776
-0.000137475
-0.000296473
-0.00013393
-0.000302337
-0.000125443
-0.000307433
-0.000112378
-0.000310018
-9.41561e-05
-0.000308826
-7.13981e-05
-0.000302927
-4.58962e-05
-0.000291109
-1.91781e-05
-0.000272748
7.69537e-06
-0.00024791
3.24863e-05
-0.000217131
5.30816e-05
-0.000182216
6.82988e-05
-0.000145458
7.72617e-05
-0.000109546
8.05556e-05
-7.66534e-05
7.90567e-05
-4.80748e-05
7.40865e-05
-2.42614e-05
6.71305e-05
-4.40188e-06
5.86263e-05
1.04583e-05
4.97624e-05
2.17369e-05
3.94403e-05
2.63153e-05
2.68445e-05
2.59958e-05
1.01527e-05
1.7628e-05
-4.88855e-06
7.13452e-06
-4.1363e-05
-9.21727e-06
-5.62162e-05
-2.68451e-05
-0.000133071
-4.42965e-05
-0.000141863
-7.69132e-05
-0.000249468
-0.000101063
-0.000221282
-0.000146943
-0.00025279
-0.000200321
-9.63803e-05
-1.28524e-05
-1.50425e-05
6.23314e-06
-2.02976e-05
-2.14179e-05
3.08704e-05
-2.77816e-05
-2.60922e-05
4.49596e-06
-1.92393e-05
4.38127e-06
1.3753e-05
-1.41044e-05
2.95197e-05
-6.80775e-05
9.43255e-05
-1.91378e-05
-4.24616e-05
2.32179e-05
-3.58452e-05
-1.25177e-05
3.12197e-05
-2.23923e-05
-3.26428e-05
2.60891e-05
3.47969e-05
-4.53552e-05
-1.39013e-05
-2.81648e-06
-1.52897e-05
-3.62391e-05
-1.35953e-05
1.55814e-05
-2.54761e-05
-1.29498e-05
7.05854e-06
1.26577e-06
-2.57471e-05
-5.94379e-05
5.94229e-06
-1.51932e-05
-1.46167e-05
9.47131e-06
6.19831e-05
-3.30693e-05
-4.76899e-05
3.9727e-05
1.22146e-05
-2.96874e-05
3.92585e-06
3.60934e-05
-1.48129e-05
2.95228e-05
6.99048e-05
-2.33603e-05
7.5771e-05
-2.107e-05
7.96793e-05
-1.97217e-05
-0.00013831
-6.87659e-05
-0.00015726
-7.99911e-05
-0.000175682
-9.06953e-05
-0.000194049
-9.93599e-05
-0.000212201
-0.000106226
-0.000230697
-0.000110402
-0.000248497
-0.000112527
-0.000266831
-0.000108879
-0.000283647
-0.000102757
-0.000299
-9.07205e-05
-0.000311257
-7.56838e-05
-0.000319495
-5.57596e-05
-0.000320839
-3.40184e-05
-0.000314559
-1.05625e-05
-0.000299511
1.31386e-05
-0.000275615
3.56177e-05
-0.000243442
5.53726e-05
-0.000204356
7.09637e-05
-0.000160462
8.19219e-05
-0.000114067
8.81246e-05
-6.73143e-05
8.99501e-05
-2.2237e-05
8.82034e-05
2.01212e-05
8.44453e-05
5.84907e-05
7.82537e-05
9.13008e-05
7.20602e-05
0.000116858
6.51485e-05
0.000133813
5.79574e-05
0.000141523
4.90337e-05
0.000141345
3.98671e-05
0.000141164
2.87134e-05
0.00015043
2.20993e-05
0.000169743
1.92471e-05
0.000198173
1.49847e-05
0.000213622
-1.55753e-05
0.000221459
-2.07035e-05
0.000242185
-0.000158017
0.000208348
-7.74326e-05
-6.60526e-07
1.48469e-05
5.00103e-06
3.91256e-06
1.52227e-05
8.26732e-06
1.26779e-05
1.27236e-05
7.70995e-06
1.66204e-05
1.52009e-06
1.97587e-05
-4.88391e-06
-3.36561e-05
1.72016e-05
2.2261e-05
-2.58539e-05
-3.28809e-05
0.00015089
-0.000180796
9.82654e-06
-3.5532e-05
-2.06376e-05
-3.47591e-05
2.3048e-05
-5.42881e-05
-1.9825e-05
-2.24239e-05
-4.99321e-05
-1.01496e-05
1.10876e-06
1.38351e-05
2.69485e-06
-9.38479e-06
0.000287804
-0.000112065
7.23712e-05
-0.000232183
1.07479e-05
-3.22282e-05
-3.09225e-07
-1.09965e-05
-4.5861e-05
-7.73235e-06
-1.87329e-05
8.68644e-06
7.10378e-05
-5.74434e-05
6.49797e-05
-1.27078e-05
-5.49645e-05
-1.13728e-05
2.19722e-05
4.71128e-05