/*--------------------------------*- C++ -*----------------------------------*\
| =========                 |                                                 |
| \\      /  F ield         | OpenFOAM: The Open Source CFD Toolbox           |
|  \\    /   O peration     | Version:  2212                                  |
|   \\  /    A nd           | Website:  www.openfoam.com                      |
|    \\/     M anipulation  |                                                 |
\*---------------------------------------------------------------------------*/
FoamFile
{
    version     2.0;
    format      ascii;
    arch        "LSB;label=32;scalar=64";
    class       volVectorField;
    location    "0.64";
    object      U;
}
// * * * * * * * * * * * * * * * * * * * * * * * * * * * * * * * * * * * * * //

dimensions      [0 1 -1 0 0 0 0];

internalField   nonuniform List<vector> 
2308
(
(-8.84343 15.9895 -7.42317e-16)
(-1.62826 -0.599374 0)
(-3.35789 30.5025 6.18451e-17)
(-3.05409 0.146647 -2.30456e-16)
(-10.2301 7.91316 0)
(-9.97873 5.07516 -2.37249e-19)
(-11.8764 7.4701 -3.01735e-21)
(-11.6051 8.50426 -3.31983e-16)
(-10.2894 8.98513 6.16479e-16)
(-7.2126 5.61812 -6.75935e-17)
(-8.88509 6.40899 1.21596e-16)
(-9.97967 6.15438 -1.82386e-16)
(-10.6781 6.40762 9.14318e-17)
(-11.1466 6.18265 -4.68961e-17)
(-11.4338 5.98159 8.05939e-18)
(-11.6687 5.89419 6.77191e-17)
(-11.8711 5.95451 8.89647e-18)
(-11.7905 6.6763 2.14788e-17)
(-11.6952 6.46235 2.84514e-17)
(-11.3764 6.56585 2.0832e-18)
(-11.1786 6.74429 1.57665e-17)
(-10.9367 7.04615 -4.54562e-17)
(-10.5316 7.25291 5.76714e-17)
(-9.80138 7.43692 -2.62361e-17)
(-8.3756 6.55243 -1.11202e-16)
(-6.8319 5.62708 -5.21632e-17)
(-4.31587 4.95055 2.63822e-17)
(-1.03642 3.00242 -2.85933e-17)
(-11.8833 7.19375 0)
(-12.0607 6.16042 -1.98208e-16)
(2.51074 2.31071 1.50644e-18)
(6.47479 1.7279 3.80488e-19)
(10.6608 1.31761 -6.38345e-18)
(15.2217 0.756518 5.98902e-18)
(20.3944 0.0981507 -6.25752e-18)
(26.2562 -0.412871 5.80915e-18)
(32.2965 -0.162329 -2.8633e-18)
(37.0621 0.798285 2.81432e-18)
(39.5411 2.33495 -2.76343e-18)
(38.675 4.81324 1.37955e-18)
(34.808 7.24122 2.69795e-18)
(28.8149 8.78691 3.97535e-18)
(21.7368 9.40217 -7.83538e-18)
(14.2365 9.28197 5.1429e-18)
(6.49298 8.30078 2.55139e-18)
(6.0633 11.7799 -2.53509e-18)
(14.0694 13.5187 2.58961e-18)
(21.5784 14.0406 -3.92601e-18)
(28.2711 13.4206 -4.31879e-18)
(33.4992 11.753 6.72269e-18)
(36.3562 9.5058 -1.37037e-18)
(36.2779 7.27513 2.78349e-18)
(33.7649 5.33763 7.0251e-19)
(29.6018 3.72202 -4.2969e-18)
(24.6118 2.76478 -1.46546e-18)
(19.7611 2.39808 2.94961e-18)
(15.2937 2.20964 0)
(11.0366 2.11444 -3.79657e-19)
(6.91674 2.167 -1.26487e-17)
(2.802 2.47119 -4.42208e-17)
(-1.00442 3.46227 5.24855e-17)
(-3.69923 3.93336 5.47998e-17)
(-6.69778 5.35595 6.3985e-17)
(-8.26794 5.61515 -1.49178e-19)
(-9.6214 5.7689 7.35662e-17)
(-10.5 5.75828 -1.37479e-16)
(-10.9028 5.49238 -3.18506e-17)
(-11.2511 5.29678 0)
(-11.561 5.2154 0)
(-11.8331 5.27293 0)
(-12.0519 5.43401 0)
(-1.11092 7.2953 -1.25721e-18)
(-1.93111 9.89583 1.2462e-18)
(-11.2065 7.19178 -9.83564e-17)
(-11.1807 7.21454 -1.96814e-18)
(-10.983 7.4969 7.62159e-18)
(-10.7297 7.88912 0)
(-10.3011 8.12097 -1.42108e-17)
(-9.61783 8.12641 -1.38518e-17)
(-8.472 7.32187 6.79121e-18)
(-6.70974 6.13989 2.70098e-17)
(-4.37648 4.82689 0)
(-1.36831 3.25763 1.07441e-19)
(2.13577 2.27978 4.77968e-20)
(5.95068 1.44516 -6.11359e-18)
(10.2311 0.517946 9.07152e-18)
(15.1522 -0.850661 -1.31897e-20)
(20.9863 -2.53217 -5.15827e-18)
(27.7348 -4.04982 0)
(34.5763 -4.77335 -7.1849e-19)
(39.2766 -4.60498 4.22105e-18)
(40.7484 -3.18969 -5.53459e-18)
(38.823 -0.823427 3.00283e-20)
(34.1634 1.05151 5.39737e-18)
(27.919 2.10444 0)
(20.9983 2.60431 5.22961e-18)
(14.0222 2.76313 -5.10176e-21)
(6.99777 2.42259 -2.53088e-18)
(-11.7443 6.83749 -8.53411e-17)
(0.194431 2.6387 -2.5123e-18)
(-12.1922 6.38151 8.73367e-17)
(-12.207 5.60796 -5.57361e-20)
(-2.73392 10.7714 -2.49831e-18)
(4.97897 12.786 3.20789e-18)
(12.7197 15.0818 0)
(19.7648 16.1378 -9.84138e-19)
(25.7464 15.893 2.34e-18)
(30.0849 14.6685 2.70025e-18)
(32.25 12.8652 -2.75581e-18)
(32.2038 10.7525 0)
(30.3311 8.60577 -7.11285e-19)
(27.1674 6.72438 1.44573e-18)
(23.357 5.30676 2.48597e-21)
(19.4439 4.28645 -1.4787e-18)
(15.4854 3.50407 0)
(11.402 2.9486 2.30098e-18)
(7.23213 2.72622 -9.23159e-18)
(3.13228 2.85175 -6.30432e-18)
(-0.667312 3.54577 2.57932e-17)
(-3.95198 4.00069 9.68014e-17)
(-6.53373 4.71297 7.41863e-18)
(-8.45751 4.88164 7.13304e-17)
(-9.5858 4.84767 -3.26582e-17)
(-10.3579 4.71003 0)
(-10.8084 4.50577 0)
(-11.1887 4.42703 0)
(-11.5353 4.5253 1.12827e-16)
(-11.8368 4.72562 -1.33069e-16)
(-12.0631 4.93225 1.36503e-16)
(-11.112 9.1683 -2.67818e-16)
(-9.2719 3.77183 0)
(-10.8085 4.87987 0)
(-9.98739 4.27753 0)
(-11.169 7.27678 1.98469e-16)
(-11.1139 7.16464 5.5522e-17)
(-10.8914 7.64305 -7.36892e-21)
(-10.7337 8.18897 -9.21994e-19)
(-10.4912 8.64968 9.05047e-19)
(-10.0726 8.91962 7.12076e-18)
(-9.45633 8.81685 -1.38682e-17)
(-8.39546 8.01719 -1.7568e-20)
(-6.71121 6.63749 0)
(-4.573 5.02134 2.93244e-17)
(-1.86706 3.54196 1.91077e-17)
(1.45513 2.39657 -3.09292e-18)
(5.21285 1.27111 3.07667e-18)
(9.60024 -0.249671 0)
(14.8596 -2.4594 0)
(21.2208 -5.19985 -3.68809e-19)
(28.6522 -7.87571 0)
(35.9236 -9.70409 2.14812e-18)
(39.6551 -9.95969 -3.1252e-21)
(40.1435 -8.78342 -1.39563e-18)
(37.5261 -7.32739 0)
(32.3842 -6.33903 -1.34326e-18)
(26.3056 -5.69606 1.99856e-18)
(20.2213 -5.26992 -3.27958e-18)
(14.409 -4.84101 0)
(8.58483 -4.53386 -5.08103e-18)
(2.40542 -2.97792 1.25388e-18)
(-4.80464 -5.17285 1.61915e-20)
(-7.97484 0.070568 0)
(-9.26349 3.86634 -6.18673e-19)
(-9.71146 5.54138 -2.02746e-18)
(-11.4738 8.74451 2.91834e-16)
(-9.69955 5.99695 1.53907e-19)
(-11.2307 10.4866 -8.48595e-16)
(-10.2743 12.1315 -1.95713e-16)
(-12.2324 5.69378 0)
(-10.7167 11.2879 2.85633e-16)
(-10.8758 7.7353 -5.82124e-16)
(-11.9511 6.38723 3.60429e-17)
(-12.1684 5.07749 -2.09116e-16)
(-10.5227 3.18211 -1.20008e-18)
(-13.9733 6.0854 -1.19922e-18)
(-16.7143 8.96821 -1.51904e-19)
(-17.9591 10.722 2.39643e-18)
(-17.553 12.0566 1.5164e-19)
(-15.8956 13.2788 0)
(-9.38484 6.32793 1.23531e-18)
(-3.45006 10.7512 2.5085e-18)
(3.33005 12.2763 -6.6547e-19)
(10.3657 14.8366 -2.61845e-18)
(16.8776 16.4315 -2.95985e-18)
(22.2272 16.7317 4.03513e-18)
(26.0144 16.0094 1.35741e-18)
(28.1334 14.6009 -2.77184e-18)
(28.5885 12.7751 2.1104e-18)
(27.5444 10.7541 -6.23586e-19)
(25.4036 8.83572 0)
(22.5765 7.19972 0)
(19.3263 5.836 0)
(15.6629 4.71654 3.04609e-18)
(11.6481 3.88602 -1.52629e-18)
(7.39777 3.44653 -4.16043e-21)
(3.16624 3.42195 -1.27589e-17)
(-0.83364 3.75032 0)
(-4.06257 4.06535 -1.37807e-17)
(-6.55572 4.2176 1.44147e-17)
(-8.28275 4.10812 3.00865e-17)
(-9.3511 3.84202 1.55252e-17)
(-10.0556 3.60563 6.26893e-17)
(-10.5181 3.54063 -6.28544e-17)
(-10.9094 3.64474 0)
(-11.2695 3.86364 1.59329e-17)
(-11.5782 4.13746 -3.23375e-17)
(-11.7927 4.37739 -6.62588e-17)
(-11.7254 7.25719 3.29149e-17)
(-8.3672 15.4514 0)
(-10.1095 6.8912 3.91642e-19)
(-11.7588 9.21904 3.65673e-16)
(-11.7935 8.46231 -7.76172e-17)
(-11.8249 7.7838 8.74834e-17)
(-11.699 7.48709 -1.64967e-17)
(-11.5029 7.38067 3.17306e-17)
(-11.2671 7.36227 -1.54149e-17)
(-10.9873 7.4994 0)
(-10.7878 7.57652 -1.45073e-17)
(-10.6401 8.11586 -1.45715e-17)
(-10.4959 8.79191 0)
(-10.255 9.33216 0)
(-9.90871 9.66256 8.79228e-19)
(-9.33035 9.50175 -7.74615e-18)
(-8.37155 8.65102 0)
(-6.88685 7.19257 0)
(-4.97248 5.48193 -9.89512e-18)
(-2.51271 3.95305 -6.39412e-18)
(0.57989 2.66769 1.25913e-17)
(4.27216 1.23784 3.10659e-18)
(8.70214 -0.883377 7.62819e-19)
(14.1823 -3.91303 3.01727e-18)
(20.9145 -7.69499 -3.33336e-18)
(28.7632 -11.5103 0)
(35.9027 -14.1763 -1.43288e-18)
(38.7431 -14.7429 0)
(38.773 -14.3067 0)
(35.4536 -13.8175 0)
(30.0371 -13.4025 -5.42157e-18)
(24.5249 -13.0592 0)
(19.8403 -12.6848 -2.95853e-18)
(15.6254 -12.0195 4.8414e-19)
(11.2399 -10.9392 1.0016e-17)
(5.92625 -8.76634 0)
(0.52572 -9.65337 -4.9269e-18)
(-5.54397 0.349697 7.47302e-20)
(-2.99396 33.1985 0)
(-11.3064 10.9247 4.64671e-16)
(4.28291 10.3173 8.18659e-16)
(-1.44491 0.21622 0)
(-6.75981 25.7341 -2.71439e-16)
(-10.9597 11.7627 9.74288e-16)
(-12.0897 5.18593 3.69313e-19)
(-11.8333 7.13943 6.90561e-17)
(-13.4512 14.7645 -1.51795e-19)
(-8.52607 7.49066 -1.2435e-18)
(-3.62538 11.116 1.26217e-18)
(1.71314 11.6784 0)
(7.59781 13.744 0)
(13.5226 15.5346 1.66368e-19)
(18.6697 16.453 -6.77436e-19)
(22.4523 16.2889 -2.39446e-18)
(24.793 15.2863 1.74028e-19)
(25.7261 13.8369 -3.63889e-19)
(25.3635 12.132 -4.4005e-19)
(23.9845 10.3518 2.00467e-18)
(21.8452 8.64803 1.97124e-19)
(19.0175 7.10656 -1.49299e-18)
(15.5312 5.81581 0)
(11.5367 4.84854 6.20963e-18)
(7.22486 4.27171 2.40908e-20)
(2.92849 4.0412 3.22028e-17)
(-1.02034 4.00316 -2.63578e-17)
(-4.16581 3.93247 0)
(-6.49627 3.59972 2.83953e-17)
(-8.01148 3.17564 -8.80269e-17)
(-8.9463 2.72078 4.52085e-17)
(-9.57867 2.50903 6.08521e-17)
(-10.0153 2.56231 -1.7598e-19)
(-10.3698 2.82904 -6.1962e-17)
(-10.7079 3.22781 6.24425e-17)
(-10.9991 3.57243 6.33049e-17)
(-11.1841 3.76279 -6.43931e-17)
(-11.8541 4.44384 -1.32916e-16)
(-10.5555 11.2829 5.57736e-19)
(-9.22132 12.5795 1.51372e-19)
(-11.6454 8.96421 -6.47747e-17)
(-11.6663 8.45321 -8.47546e-18)
(-11.6293 7.91798 -2.49025e-17)
(-11.4605 7.61012 -8.03362e-18)
(-11.2358 7.45937 0)
(-10.9984 7.47696 1.5253e-17)
(-10.7584 7.66419 -7.43937e-18)
(-10.5717 7.98608 -7.32886e-18)
(-10.4281 8.59981 3.63341e-18)
(-10.2709 9.33272 3.60159e-18)
(-10.0376 9.96283 7.09859e-18)
(-9.72972 10.3508 0)
(-9.18756 10.1592 6.89108e-18)
(-8.34094 9.28687 -6.65345e-18)
(-7.08375 7.82039 -1.04121e-19)
(-5.43191 6.10819 -1.96637e-17)
(-3.257 4.52076 1.60298e-18)
(-0.426069 3.07478 -7.91291e-18)
(3.15544 1.36086 0)
(7.5013 -1.27384 -2.4898e-18)
(13.0434 -5.06159 1.82129e-19)
(19.9283 -9.75739 3.34779e-18)
(27.9275 -14.4924 0)
(34.7899 -17.9097 0)
(37.184 -18.876 -8.83347e-20)
(36.7325 -19.1803 -2.71619e-18)
(32.9184 -19.219 2.76562e-18)
(27.612 -18.9898 3.3921e-18)
(23.1288 -18.7816 -6.7108e-19)
(20.1089 -18.4551 1.96478e-18)
(17.5355 -17.6297 -6.52351e-19)
(14.5866 -16.1108 -5.08864e-18)
(10.4945 -13.8015 5.01622e-18)
(5.93847 -13.1369 1.1049e-17)
(0.0749187 -3.41667 4.82501e-18)
(-12.0026 -10.5763 0)
(-17.6946 -6.76205 -2.44662e-18)
(-21.4329 -3.84349 -2.54312e-20)
(-23.0221 -2.11625 2.67418e-18)
(-22.9103 -1.1697 8.94941e-19)
(-22.4132 -0.884171 -1.18664e-18)
(-21.6551 -1.15902 2.38178e-18)
(-20.3259 -0.720742 -2.38979e-18)
(-18.4294 0.734649 -1.19335e-18)
(4.21167 12.0306 -3.09271e-16)
(0.696674 27.339 -7.82996e-17)
(-9.38096 10.4236 -1.61415e-16)
(-10.6951 12.3296 -4.77088e-16)
(-8.87358 15.8694 -2.46651e-16)
(5.06323 17.053 9.71265e-17)
(-11.2168 3.73803 0)
(-11.6376 4.4804 2.69193e-16)
(-10.2869 12.295 7.06428e-16)
(-10.8069 12.8406 2.87772e-16)
(-8.50888 15.3339 -3.02372e-16)
(-10.7727 6.88572 5.91618e-16)
(-11.0182 9.36907 0)
(-11.1868 8.55837 8.33196e-18)
(-11.1827 7.95484 -2.03722e-18)
(-11.0595 7.64212 -3.76726e-17)
(-10.8766 7.50164 7.73425e-18)
(-10.676 7.56923 0)
(-10.4916 7.84106 9.10856e-21)
(-10.3426 8.32228 -1.83175e-18)
(-10.2174 9.0242 0)
(-10.0381 9.80723 -3.58242e-18)
(-9.81786 10.5254 -3.55047e-18)
(-9.50549 10.9529 0)
(-9.00061 10.7752 8.57949e-19)
(-8.28135 9.93328 -8.19604e-19)
(-7.2561 8.52729 8.33403e-19)
(-5.87673 6.86922 1.22943e-17)
(-4.01064 5.2589 0)
(-1.47569 3.6344 1.5839e-18)
(1.88323 1.69921 -7.80399e-19)
(6.07861 -1.31724 1.9263e-19)
(11.4923 -5.73915 5.71635e-19)
(18.3331 -11.187 -3.36944e-18)
(26.2313 -16.6083 0)
(32.7967 -20.5136 7.22155e-19)
(35.0519 -21.9764 1.41927e-18)
(34.3181 -22.9509 1.40311e-18)
(30.4668 -23.2335 3.80796e-21)
(25.5501 -22.9228 -6.78715e-19)
(22.3343 -22.7522 -2.01434e-18)
(20.8761 -22.4596 -1.32358e-18)
(19.7351 -21.7313 -1.30891e-18)
(18.011 -20.2027 0)
(14.9978 -17.9824 -5.00398e-18)
(10.6337 -16.008 -4.90734e-18)
(5.09666 -6.58193 -3.62284e-18)
(-3.63216 -13.629 -6.52835e-18)
(-7.75357 13.4771 2.91549e-18)
(-15.9658 11.7494 -2.3249e-18)
(-23.2067 10.1626 0)
(-28.7683 10.526 1.15064e-18)
(-33.0174 13.079 1.1958e-18)
(-34.6381 15.4435 -2.31306e-18)
(-34.4106 16.8444 2.30637e-18)
(-32.1072 17.9212 -2.70678e-20)
(-27.7995 19.0284 -1.1483e-18)
(-23.0499 20.4725 3.49276e-18)
(-18.7738 22.2136 -3.51849e-18)
(-16.0591 3.21417 6.09594e-19)
(-10.9135 16.4705 -4.5229e-19)
(-7.19658 9.57001 9.334e-19)
(-3.13755 12.3444 -3.16181e-18)
(0.833344 12.0051 1.20765e-18)
(5.37628 13.1599 0)
(10.3007 14.4144 1.68381e-19)
(15.0771 15.4592 2.37254e-18)
(19.0116 15.8353 -3.44972e-19)
(21.6681 15.4133 8.72075e-19)
(23.0904 14.464 -8.73117e-22)
(23.3687 13.0663 3.63829e-19)
(22.6364 11.3446 -1.82067e-19)
(20.9791 9.62961 1.30255e-18)
(18.403 8.08173 -4.51772e-18)
(15.0215 6.76368 -2.35869e-20)
(11.0135 5.73071 3.09395e-18)
(6.68167 5.03048 -3.15896e-18)
(2.45747 4.56038 -2.58229e-17)
(-1.28125 4.1143 2.63399e-17)
(-4.20276 3.5691 0)
(-6.26676 2.78775 -5.58858e-17)
(-7.58841 2.07176 4.27785e-17)
(-8.41877 1.52018 -4.40209e-17)
(-8.93556 1.36761 0)
(-9.31883 1.58368 0)
(-9.66126 2.0683 0)
(-9.95533 2.60252 -7.64832e-18)
(-10.1649 2.97102 7.8564e-20)
(-10.2517 3.08604 1.24788e-16)
(-9.78762 11.4805 -3.16994e-16)
(-11.1057 3.65813 1.34982e-16)
(-11.1758 4.75059 -1.28291e-16)
(-11.8293 7.1782 1.64461e-17)
(-10.0965 13.3556 3.42056e-16)
(-10.1152 13.9602 2.91028e-16)
(-10.2806 13.4746 -5.83916e-20)
(-10.211 13.0626 -2.9812e-16)
(-8.75439 13.6765 -2.05532e-16)
(-10.843 10.3064 -2.00978e-16)
(-10.3302 10.9095 7.27232e-17)
(-10.513 9.78905 -1.65754e-17)
(-10.5386 8.73935 -3.25082e-17)
(-10.5471 8.02253 0)
(-10.4807 7.67682 3.14007e-17)
(-10.3777 7.56275 0)
(-10.2593 7.68495 0)
(-10.1549 8.04247 7.43405e-18)
(-10.0581 8.61979 1.834e-18)
(-9.9496 9.37765 0)
(-9.76602 10.2086 3.57208e-18)
(-9.53077 10.9852 -3.74159e-21)
(-9.20396 11.4557 -5.93327e-21)
(-8.73372 11.3319 3.42252e-18)
(-8.14057 10.5799 3.82463e-18)
(-7.33351 9.2864 -3.74498e-18)
(-6.22903 7.71924 -6.78304e-18)
(-4.67158 6.11484 2.02302e-19)
(-2.4565 4.37116 -1.19702e-18)
(0.557613 2.26399 3.942e-19)
(4.58223 -1.00485 1.54966e-18)
(9.6871 -5.84563 -1.14317e-18)
(16.2582 -11.8428 1.50353e-18)
(23.7463 -17.5842 4.6695e-22)
(30.0803 -21.8467 -3.63226e-18)
(32.7082 -24.121 1.43726e-18)
(32.1819 -25.6681 1.41376e-18)
(28.5572 -26.032 -2.08072e-18)
(24.1575 -25.5907 2.72189e-18)
(22.3887 -25.4762 2.67797e-18)
(21.9991 -25.3602 0)
(21.938 -24.7895 7.81953e-18)
(21.3491 -23.251 1.28013e-18)
(19.3395 -21.0907 1.2527e-18)
(14.7379 -18.0474 0)
(9.10133 -9.82949 0)
(3.23038 -16.6585 3.57674e-18)
(-4.52693 11.6681 -6.79723e-21)
(-27.7674 -13.5024 -5.78148e-19)
(-31.2029 -3.79054 5.75394e-19)
(-33.1029 -0.378301 0)
(-35.6362 -0.583601 0)
(-37.1452 -1.52575 -5.73098e-19)
(-37.3951 -2.68357 1.74194e-18)
(-36.3933 -4.62971 0)
(-35.0368 -8.40664 -1.17589e-18)
(-33.1984 -12.2866 -1.17666e-18)
(-31.0477 -14.1455 2.37462e-18)
(-27.6611 -14.1293 -1.18177e-18)
(-24.062 -11.8647 3.49754e-18)
(-20.2044 -9.51955 6.09951e-19)
(-15.3071 23.9025 5.78115e-19)
(-13.3911 6.14033 1.20481e-18)
(-8.6875 18.4151 0)
(-5.73858 12.3133 -4.67299e-19)
(-2.45369 14.3511 -1.1884e-19)
(0.564058 13.3883 7.26935e-19)
(3.94703 13.4918 -1.67045e-19)
(7.83988 13.8903 -3.37571e-19)
(11.9477 14.5352 -2.71216e-18)
(15.7849 15.0549 6.86801e-19)
(18.7828 15.032 -1.74902e-18)
(20.6859 14.3824 8.89469e-19)
(21.5193 13.2325 -3.5864e-19)
(21.175 11.7377 0)
(19.7181 10.2127 0)
(17.2453 8.76989 0)
(13.9151 7.50444 -1.53295e-18)
(9.93267 6.48817 0)
(5.71394 5.6574 -1.39834e-20)
(1.74069 4.8645 1.28665e-17)
(-1.62213 3.96169 -6.60112e-18)
(-4.20013 2.92167 1.34158e-17)
(-5.95098 1.75627 4.14472e-17)
(-7.09456 0.827516 1.91828e-20)
(-7.79003 0.238843 -1.43733e-17)
(-8.21169 0.198848 -2.89991e-17)
(-8.54508 0.633787 5.83786e-17)
(-8.82647 1.31177 -2.97595e-17)
(-9.01437 1.93605 2.3314e-20)
(-9.09313 2.2946 1.51935e-17)
(-9.06736 2.34551 6.19031e-20)
(-10.2283 2.96365 -1.9247e-16)
(-9.71757 12.5337 -3.28909e-16)
(-8.95013 11.6555 6.20012e-16)
(11.6675 17.4661 0)
(-10.1388 2.75841 -1.32614e-16)
(-9.67064 13.5362 5.32191e-16)
(-9.60752 14.2763 -2.86534e-16)
(-9.72537 14.5949 -5.52194e-16)
(-11.1523 4.12393 -4.33948e-17)
(-11.8524 7.97839 -4.22791e-17)
(-11.8786 6.88517 -1.64133e-17)
(-10.9823 3.5866 2.0838e-20)
(-9.81149 14.3325 -3.37369e-16)
(-9.71172 14.7365 2.79559e-16)
(-20.8815 26.2179 -5.50346e-19)
(-26.3901 24.3343 -5.52761e-19)
(-36.7109 21.7028 0)
(-46.7274 20.6641 -5.62432e-19)
(-54.4704 22.3374 5.50963e-19)
(-57.2876 24.5032 -5.82258e-19)
(-57.0582 26.1948 5.82707e-19)
(-54.2681 27.2558 1.13164e-18)
(-47.8767 25.8801 -1.13306e-18)
(-40.9147 24.9887 2.23442e-18)
(-33.9821 26.9233 -3.33737e-18)
(-28.6716 30.6013 0)
(-25.2453 32.6163 -2.56445e-20)
(-23.0077 34.358 0)
(-16.3836 -8.26542 -3.48376e-18)
(-12.448 25.6471 1.18279e-18)
(-10.8576 9.29965 0)
(-7.00018 20.5884 0)
(-4.47952 15.4336 3.13162e-19)
(-1.86569 16.7952 -3.99181e-20)
(0.535434 15.2984 0)
(3.14809 14.5713 -1.65171e-19)
(6.15359 13.9854 1.67869e-19)
(9.52662 13.8479 6.75663e-19)
(13.0268 13.9949 3.47625e-19)
(16.1369 14.0638 6.99793e-19)
(18.3065 13.726 8.21793e-22)
(19.3275 12.9295 -1.4457e-18)
(19.1233 11.7655 3.66665e-19)
(17.7643 10.4228 1.48921e-18)
(15.3463 9.10769 3.81167e-19)
(12.0532 7.94414 -7.66494e-19)
(8.21557 6.92837 1.55978e-18)
(4.34486 5.90167 -4.73982e-18)
(0.836658 4.75358 -6.44284e-18)
(-2.03392 3.42866 3.25407e-18)
(-4.18586 1.97538 -6.68107e-18)
(-5.63315 0.539866 0)
(-6.58188 -0.532183 -2.08901e-17)
(-7.15257 -1.09218 4.27614e-17)
(-7.50213 -0.967934 0)
(-7.74976 -0.330794 0)
(-7.90596 0.50556 0)
(-7.95024 1.22151 1.10489e-17)
(-7.87037 1.61817 3.56897e-20)
(-7.72634 1.65723 4.09368e-20)
(-9.00339 2.14031 -1.23989e-16)
(-9.35509 7.09944 -3.15295e-16)
(-9.669 13.4849 4.1464e-19)
(-2.14821 1.56243 2.51466e-16)
(-3.74072 30.0311 0)
(-9.80437 10.157 -1.56848e-17)
(-9.82484 8.9213 0)
(-9.81458 8.13784 0)
(-9.77962 7.75901 7.76781e-18)
(-9.75172 7.68177 -1.52688e-17)
(-9.72893 7.8522 0)
(-9.711 8.27293 7.42969e-18)
(-9.67296 8.89027 0)
(-9.57586 9.66714 -1.8059e-18)
(-9.39592 10.5166 1.78306e-18)
(-9.13104 11.3255 -8.8085e-18)
(-8.78496 11.8448 -2.91743e-21)
(-8.34827 11.8179 -3.43173e-18)
(-7.8663 11.2055 6.7651e-18)
(-7.26522 10.0696 5.00708e-18)
(-6.43305 8.62117 -4.9281e-18)
(-5.18762 7.05592 0)
(-3.31265 5.27744 -2.4139e-21)
(-0.668993 3.00047 -2.36425e-18)
(3.04435 -0.376534 0)
(7.68786 -5.35838 0)
(13.7424 -11.6103 7.54652e-19)
(20.6316 -17.4649 2.22986e-18)
(26.9572 -22.153 -1.45872e-18)
(30.3443 -25.4314 1.43646e-18)
(30.314 -27.3951 -2.82585e-18)
(27.1375 -27.9674 -6.94505e-19)
(23.756 -27.6415 -5.44035e-18)
(22.9826 -27.7265 2.6902e-18)
(23.3354 -27.7313 0)
(24.1977 -27.143 -5.21782e-18)
(24.8169 -25.6535 -2.56158e-18)
(23.7084 -23.425 0)
(18.6318 -19.5052 2.46054e-18)
(12.3397 -12.5869 2.54813e-20)
(6.63356 -18.8043 3.57712e-18)
(-4.37347 7.02582 3.48776e-18)
(-21.0805 -21.7102 0)
(-22.2736 24.9725 -1.07083e-18)
(-7.94963 11.7454 -3.07959e-16)
(-9.01456 12.6501 -6.33757e-16)
(-1.51819 31.5125 1.20165e-16)
(-10.7604 3.34119 -1.19973e-16)
(-9.57538 14.7019 5.72885e-16)
(-9.93049 2.56717 7.07023e-20)
(-18.3835 37.11 5.46024e-19)
(-13.0896 -8.09241 2.87986e-18)
(-10.0349 27.252 -2.3627e-18)
(-8.77244 12.316 0)
(-6.04576 22.8335 0)
(-3.78108 18.4534 0)
(-1.67769 19.3808 0)
(0.278133 17.3609 6.50836e-19)
(2.35094 15.9015 -3.27871e-19)
(4.79557 14.4713 1.68687e-19)
(7.5073 13.3956 -1.02191e-18)
(10.4784 12.8508 6.97181e-19)
(13.3607 12.7002 3.50138e-19)
(15.5156 12.5401 -5.3381e-19)
(16.5718 12.0474 0)
(16.4047 11.1368 2.00329e-21)
(15.0251 10.0573 -3.72516e-19)
(12.6262 8.99124 3.77472e-19)
(9.49166 7.97292 7.667e-19)
(6.0457 6.89755 -8.76977e-19)
(2.7207 5.63636 8.902e-19)
(-0.182024 4.16348 -2.40831e-18)
(-2.49824 2.49034 -4.89663e-18)
(-4.20085 0.744889 3.31291e-18)
(-5.37049 -0.848839 0)
(-6.15139 -1.94804 7.99633e-23)
(-6.62652 -2.40443 -2.10879e-17)
(-6.88254 -2.11997 1.77804e-17)
(-7.0021 -1.32084 -3.59705e-18)
(-6.99016 -0.344533 0)
(-6.83847 0.462555 -3.64612e-18)
(-6.56739 0.921841 5.0881e-17)
(-6.25444 0.991653 -2.86009e-17)
(-7.54183 1.40054 1.1729e-16)
(-9.34704 6.12782 6.39608e-16)
(-9.58526 14.3293 5.71883e-19)
(-45.7523 -34.0479 -2.47211e-19)
(-50.6537 -18 1.66121e-18)
(-52.2687 0.260584 2.79574e-19)
(-52.3477 4.22977 0)
(-52.5797 1.78406 -5.50123e-19)
(-52.2548 -5.23896 5.50797e-19)
(-51.0351 -11.8573 -8.54911e-19)
(-48.5028 -18.7223 -1.93836e-18)
(-45.8664 -29.456 2.2114e-18)
(-43.755 -37.6924 0)
(-41.4821 -39.993 -1.18416e-18)
(-37.3286 -38.2786 3.41214e-18)
(-31.6834 -31.7938 -2.23241e-18)
(-23.6376 -27.2264 -1.18927e-18)
(-14.2737 -29.8879 1.62248e-18)
(-11.7789 -39.5727 -2.22545e-18)
(-8.19192 7.0786 6.14353e-16)
(-9.05074 15.7072 -2.61639e-16)
(-9.15236 15.5722 2.64304e-16)
(-9.10392 15.229 5.24338e-16)
(-9.01827 14.6487 2.46183e-16)
(-10.7047 6.04799 2.65777e-19)
(-8.83965 4.51073 1.82116e-16)
(-6.98232 14.7376 0)
(-2.02766 0.849451 0)
(-8.9753 10.2321 0)
(-9.00669 9.03434 3.92938e-18)
(-8.99363 8.23008 -7.8214e-18)
(-8.98892 7.86636 -8.72404e-21)
(-9.02085 7.84508 2.28748e-17)
(-9.0794 8.06791 -1.50504e-17)
(-9.13675 8.51783 -3.27231e-21)
(-9.14748 9.13257 7.3178e-18)
(-9.06522 9.88815 -1.26412e-17)
(-8.87522 10.7202 1.79656e-18)
(-8.58404 11.5373 7.05061e-18)
(-8.22144 12.1136 -1.73635e-18)
(-7.82797 12.2207 1.7162e-18)
(-7.44995 11.7898 -5.08184e-18)
(-7.03245 10.8429 1.66531e-18)
(-6.44357 9.5336 4.93889e-18)
(-5.48921 8.017 -3.24416e-18)
(-3.94659 6.23762 3.20257e-18)
(-1.67486 3.88748 1.18404e-18)
(1.54893 0.569848 2.73082e-18)
(5.62115 -4.32447 -3.44752e-18)
(10.9131 -10.5639 2.27702e-18)
(17.1108 -16.46 -4.09167e-18)
(23.3371 -21.5509 -2.92785e-18)
(27.5624 -25.9252 2.88228e-18)
(28.2387 -28.2498 1.41802e-18)
(25.9391 -29.3872 -1.39162e-18)
(23.8476 -29.5679 0)
(23.6876 -29.9997 -2.69961e-18)
(24.6081 -30.1485 1.33264e-18)
(26.452 -29.6073 -2.61395e-18)
(28.4111 -28.1768 -3.85536e-18)
(28.1804 -25.7954 -2.52761e-18)
(23.2241 -21.5584 -4.94462e-18)
(16.1096 -15.455 1.20053e-18)
(9.41333 -20.978 -1.19898e-18)
(-3.97025 2.84255 -2.33269e-18)
(-14.0222 -26.6217 0)
(-24.7166 23.5139 0)
(-46.9223 -39.6211 0)
(-1.68772 31.2215 0)
(-8.9117 1.91865 -9.86702e-20)
(-9.95159 3.74374 6.59482e-16)
(-6.77959 11.7135 3.07815e-16)
(-9.05585 13.5449 3.17683e-16)
(-8.10633 12.6509 6.23772e-16)
(-9.90829 5.78407 -3.10413e-16)
(-1.95383 31.6697 -1.03116e-16)
(-3.5953 33.6279 0)
(-10.7505 5.50173 -3.48841e-16)
(-9.39863 2.57855 -1.40036e-16)
(-5.9041 0.889218 -5.19902e-17)
(-11.4887 6.40032 -9.12596e-16)
(3.82608 13.9311 3.28062e-16)
(-2.96851 1.71467 2.51012e-16)
(-1.05723 31.8254 -5.43031e-17)
(-11.7359 -40.8801 -1.1204e-18)
(-11.6683 36.2294 -2.71216e-19)
(-10.1832 -7.81584 -8.46173e-19)
(-8.20338 28.0892 -1.1627e-21)
(-7.12214 14.7907 0)
(-5.88745 24.7842 0)
(-3.71112 20.9055 0)
(-2.04189 21.5829 -1.60159e-19)
(-0.241511 19.1196 -2.04953e-19)
(1.44974 17.0271 2.03756e-19)
(3.45904 14.7991 -1.67635e-19)
(5.6524 12.9103 4.24681e-19)
(7.98454 11.5217 -5.179e-19)
(10.3827 10.864 0)
(12.2652 10.6877 0)
(13.2463 10.4876 0)
(13.0101 9.98315 0)
(11.5854 9.21753 0)
(9.3353 8.32369 0)
(6.60331 7.34911 -1.92319e-19)
(3.76531 6.18451 7.77793e-19)
(1.11668 4.74425 0)
(-1.15063 3.04788 -2.006e-18)
(-2.94205 1.16745 3.65544e-18)
(-4.26653 -0.698146 3.30232e-18)
(-5.22436 -2.28614 0)
(-5.90125 -3.32769 1.02871e-17)
(-6.27914 -3.67349 -1.04572e-17)
(-6.4124 -3.25638 -3.51432e-18)
(-6.36472 -2.3143 7.13317e-18)
(-6.11571 -1.23812 -1.07979e-17)
(-5.71712 -0.358111 5.4442e-18)
(-5.23747 0.187531 -1.44404e-17)
(-4.74179 0.386028 3.59661e-18)
(-4.17588 0.27257 1.12287e-16)
(-8.00265 5.858 3.43028e-16)
(-8.25644 16.6256 4.98036e-16)
(-8.11323 16.7272 2.45742e-16)
(-41.042 31.584 0)
(-31.1401 39.9945 9.62363e-21)
(-29.6981 47.4246 -5.17846e-19)
(-45.3118 46.3669 -2.59985e-19)
(-70.0771 44.2356 -6.74182e-20)
(-80.4396 44.3347 6.47757e-20)
(-81.819 43.8385 0)
(-77.1426 42.7722 0)
(-70.1895 40.9901 7.54228e-19)
(-62.3103 38.0311 -2.18725e-18)
(-54.3244 38.1155 2.64551e-18)
(-45.1433 34.0469 0)
(-40.3338 31.5721 -2.15225e-18)
(-35.4032 29.1875 2.17456e-18)
(-31.6491 26.3459 4.96859e-19)
(-29.906 33.1344 5.01982e-19)
(-25.6517 45.9889 0)
(-19.3936 40.7265 0)
(-11.6553 7.74625 0)
(-8.75764 16.1459 2.54753e-16)
(-8.67719 16.1596 0)
(-8.59421 15.9453 -5.17297e-16)
(-8.53406 15.3949 2.58865e-16)
(-8.2507 14.5207 4.64432e-16)
(-5.30183 27.5855 -8.66973e-17)
(-8.16726 15.0544 3.02902e-16)
(-8.05591 11.5433 8.57408e-18)
(-8.11445 10.1791 -6.45112e-17)
(-8.09785 8.99822 2.7835e-17)
(-8.07894 8.25372 -3.1328e-17)
(-8.10262 7.96051 -1.35198e-17)
(-8.19249 8.01759 1.90506e-17)
(-8.31123 8.30167 3.76126e-18)
(-8.41967 8.75611 -1.85567e-17)
(-8.46865 9.3377 1.09867e-17)
(-8.3971 10.029 0)
(-8.18841 10.8088 -8.90682e-18)
(-7.87661 11.6199 5.29078e-18)
(-7.50425 12.2624 8.68997e-18)
(-7.15656 12.5316 1.71333e-18)
(-6.87211 12.3075 -6.76597e-18)
(-6.61121 11.5682 -3.33892e-18)
(-6.22078 10.391 0)
(-5.51414 8.93273 0)
(-4.29828 7.17406 -8.01892e-19)
(-2.42945 4.85479 -3.95262e-19)
(0.18972 1.73407 3.90449e-18)
(3.6651 -2.83953 7.86504e-19)
(7.95938 -8.80786 -2.64138e-18)
(13.2695 -14.6525 3.64942e-22)
(19.039 -19.9693 0)
(23.8104 -25.1792 0)
(25.5088 -28.5107 -2.83674e-18)
(24.7483 -30.4184 4.21178e-18)
(23.7002 -31.7206 -1.38006e-18)
(23.948 -32.7616 -5.9218e-21)
(25.3257 -33.5068 1.33032e-18)
(28.1078 -33.5452 1.30897e-18)
(31.3712 -32.6431 7.72541e-18)
(32.2815 -30.5633 0)
(29.2088 -26.5857 3.72888e-18)
(21.9441 -21.1625 -3.65181e-18)
(13.4123 -23.062 2.41443e-18)
(-2.27328 -2.50289 -2.30822e-18)
(-4.7071 -30.1921 2.30011e-18)
(-24.77 20.228 0)
(-47.9354 -48.552 0)
(-49.8535 43.5158 -9.45415e-19)
(-7.11354 7.18401 6.0509e-16)
(-7.48788 1.15901 -1.20859e-16)
(-8.61006 15.7802 -2.57228e-16)
(-5.03774 9.6501 6.05972e-16)
(-5.23485 10.6639 -2.51489e-19)
(-5.48452 11.5528 6.19455e-16)
(-8.77233 1.70908 1.34233e-16)
(-9.09199 14.2383 -6.7435e-16)
(-7.00642 12.5361 0)
(-8.22215 13.4986 0)
(-0.929821 32.2736 -5.962e-17)
(2.50949 9.10581 -3.12477e-16)
(-5.67703 26.833 2.39843e-17)
(-11.5711 5.60487 -5.4243e-16)
(-2.64575 0.365168 -6.08716e-17)
(-8.11469 4.86134 -3.7761e-16)
(-1.12004 31.7788 0)
(-1.54967 31.4241 -5.29498e-17)
(-2.9671 0.0255729 0)
(-3.35258 -0.178732 1.85145e-18)
(-3.9477 -0.559904 3.65281e-18)
(-4.61998 -1.24919 1.35594e-18)
(-5.25974 -2.2243 2.23993e-19)
(-5.76477 -3.34586 0)
(-6.03111 -4.34798 4.37622e-18)
(-6.02819 -4.84262 -4.32217e-18)
(-5.75322 -4.58153 1.699e-18)
(-5.17158 -3.64525 -3.34295e-18)
(-4.35919 -2.1765 8.25828e-19)
(-3.28133 -0.352597 0)
(-1.89046 1.56071 1.59973e-18)
(-0.153724 3.31767 -7.90965e-19)
(1.91174 4.81304 7.7838e-19)
(4.14749 5.99749 -1.34566e-18)
(6.35619 6.91127 1.53959e-18)
(8.24255 7.62805 2.32966e-21)
(9.46997 8.05666 -7.8102e-19)
(9.7128 8.14578 3.63483e-19)
(8.97659 8.13854 -4.00493e-19)
(7.55312 8.53779 0)
(5.80358 9.81407 1.72574e-19)
(4.03876 11.9273 -8.50769e-20)
(2.30919 14.5192 -3.33749e-19)
(0.652582 17.3909 2.88053e-19)
(-0.849007 19.7648 4.06597e-20)
(-2.72534 22.6926 -1.59331e-19)
(-3.93494 22.041 0)
(-6.26052 25.8326 0)
(-5.81937 16.2123 -6.04822e-19)
(-7.70189 28.3801 3.23601e-18)
(-7.08309 -6.41549 -5.86054e-19)
(-7.64587 35.585 0)
(-7.7262 -34.7948 2.34395e-18)
(-9.66925 44.4663 8.24295e-20)
(-1.72245 30.4392 2.7969e-16)
(-76.5909 -82.8965 1.21489e-18)
(-79.5058 -73.0402 0)
(-76.9949 -53.1853 -2.42236e-19)
(-76.5152 -14.6341 2.17299e-19)
(-72.8556 8.44986 6.63083e-19)
(-73.0924 5.94668 -5.24373e-19)
(-73.7206 -10.2847 1.5156e-19)
(-70.4318 -25.5885 3.04836e-19)
(-61.9015 -38.4374 1.82048e-18)
(-49.8604 -46.9731 -2.73554e-18)
(-32.6121 -51.9242 -2.09317e-18)
(-21.349 -63.0907 2.16984e-18)
(-32.2808 -79.9294 -3.20534e-19)
(-58.7679 -77.7329 6.42076e-19)
(-58.9972 -57.8157 -2.1635e-18)
(-26.7553 -47.9379 -6.06679e-19)
(-3.5272 -49.6725 2.14627e-18)
(9.47544 -67.0708 0)
(-23.0743 -68.062 1.25287e-18)
(-23.9487 -64.8018 -6.41113e-19)
(-7.07154 5.87715 3.14718e-16)
(-5.83517 0.490857 -1.05599e-16)
(-4.91497 8.49802 -2.97956e-16)
(-2.59507 32.1191 0)
(-2.09047 31.6336 0)
(-1.38969 31.462 -1.00882e-16)
(-0.672788 31.7095 -2.52612e-17)
(0.0831295 32.3798 -3.1478e-17)
(-0.698631 32.426 -7.62704e-17)
(-1.39472 31.9678 1.04712e-16)
(-1.96035 30.9712 5.60872e-17)
(-1.61823 1.32056 0)
(-1.48547 29.3942 -5.46471e-17)
(2.20496 7.86939 -7.41007e-19)
(5.69447 8.05939 2.83031e-16)
(4.00311 8.86349 -2.68445e-16)
(-3.6837 9.47119 -3.05136e-16)
(-3.83847 10.4514 0)
(-4.08823 11.3083 0)
(-8.58585 1.73423 2.83526e-16)
(-6.03967 7.21057 5.95152e-16)
(-2.05822 32.9438 -7.58426e-17)
(-8.32893 16.5542 2.55399e-16)
(-8.31865 16.476 -2.62273e-16)
(-8.25398 16.3141 0)
(-8.11418 16.0329 -5.43835e-16)
(-7.92121 15.5921 2.71293e-16)
(-8.1839 14.4192 -3.59236e-16)
(-7.5453 15.4261 -2.22277e-16)
(-7.35789 12.7329 6.88893e-17)
(-7.32927 11.404 -7.57752e-17)
(-7.21424 10.0432 3.30102e-17)
(-7.12153 8.93167 -3.21159e-17)
(-7.08497 8.27043 0)
(-7.13449 8.07666 -1.93652e-18)
(-7.26374 8.20663 -2.86482e-18)
(-7.41669 8.52183 1.13006e-17)
(-7.56276 8.97037 3.7077e-18)
(-7.63784 9.48612 -1.8316e-17)
(-7.56529 10.0732 7.2316e-18)
(-7.34178 10.7735 8.9063e-18)
(-7.01347 11.5678 -7.04616e-18)
(-6.64967 12.291 4.33908e-18)
(-6.35033 12.739 -4.291e-18)
(-6.15051 12.7307 -1.6876e-18)
(-6.00827 12.1849 5.00676e-18)
(-5.76187 11.1268 8.23393e-19)
(-5.24978 9.72087 3.25306e-18)
(-4.32363 8.0212 -3.2085e-18)
(-2.87249 5.85661 0)
(-0.868148 2.96506 -7.8064e-19)
(1.88835 -1.07242 -3.84729e-19)
(5.08399 -6.43565 -3.79933e-18)
(9.26694 -12.0491 3.35922e-18)
(14.2786 -17.4227 -3.68318e-19)
(18.9964 -22.9472 2.8932e-18)
(22.0282 -27.7491 -5.35607e-18)
(22.752 -31.0802 2.81802e-18)
(22.6157 -33.8042 1.38098e-18)
(23.1253 -35.9281 6.80904e-19)
(24.837 -37.8054 -1.33439e-18)
(28.1616 -39.2382 3.93567e-18)
(32.6002 -39.8253 -3.85478e-18)
(34.877 -38.7058 -1.26412e-18)
(34.3578 -35.6442 -3.73098e-18)
(29.5986 -31.6402 4.89008e-18)
(18.3522 -26.5634 -3.58606e-18)
(2.56288 -12.7134 2.30329e-18)
(1.51148 -32.0449 -4.61996e-18)
(-27.1409 9.59647 0)
(-41.8846 -58.3113 2.42899e-18)
(-54.8423 62.448 -1.02507e-18)
(-62.7439 -66.7638 -1.2099e-18)
(0.771669 9.39065 -7.06394e-16)
(0.69857 8.32293 3.24589e-16)