/*--------------------------------*- C++ -*----------------------------------*\
| =========                 |                                                 |
| \\      /  F ield         | OpenFOAM: The Open Source CFD Toolbox           |
|  \\    /   O peration     | Version:  2212                                  |
|   \\  /    A nd           | Website:  www.openfoam.com                      |
|    \\/     M anipulation  |                                                 |
\*---------------------------------------------------------------------------*/
FoamFile
{
    version     2.0;
    format      ascii;
    arch        "LSB;label=32;scalar=64";
    class       surfaceScalarField;
    location    "0.00772";
    object      phi;
}
// * * * * * * * * * * * * * * * * * * * * * * * * * * * * * * * * * * * * * //

dimensions      [1 0 -1 0 0 0 0];

oriented        oriented;

internalField   nonuniform List<scalar> 
5190
(
7.59088e-05
4.42194e-05
-8.66287e-05
-5.02192e-05
7.12314e-05
0.00115264
-0.000385697
-0.000804524
0.000380947
-0.000624262
-0.000235787
0.000633801
-1.67088e-06
1.01912e-06
-1.35692e-06
1.77636e-06
0.00101696
0.000345062
-0.00100753
-0.00034168
-0.000158572
0.00100749
0.000156838
-0.000990286
9.79497e-08
1.60968e-06
-1.38777e-07
-1.35767e-06
1.22525e-06
-1.38818e-06
-1.47837e-06
1.22929e-06
9.59931e-07
-1.30139e-06
1.76342e-06
-2.04758e-06
6.50437e-07
2.17364e-06
-2.54206e-06
9.62816e-07
-1.06814e-06
-1.69573e-06
1.16339e-06
-6.23333e-06
5.70155e-06
-1.55292e-06
-5.42265e-06
8.09377e-07
4.95117e-06
1.48429e-05
-1.57333e-05
1.70501e-05
-1.97863e-05
2.24009e-06
6.85705e-06
-3.49131e-06
-6.79614e-06
4.27969e-06
9.02638e-06
-5.23267e-06
-1.02343e-05
7.03561e-06
1.25537e-05
-9.6113e-06
-1.25815e-05
1.35378e-06
1.12827e-06
-1.40405e-06
-1.35388e-06
1.34087e-06
1.38375e-06
-1.7795e-06
1.59241e-06
-2.27897e-06
1.49358e-06
-5.19625e-07
2.49529e-06
-3.28092e-06
6.61415e-07
9.92286e-07
-1.25498e-06
4.67943e-06
-5.2479e-06
7.47918e-07
3.93533e-06
-4.43477e-06
3.27949e-06
-3.74853e-06
1.63878e-06
-6.67768e-06
-5.9925e-06
-1.73077e-06
1.70546e-06
9.31647e-07
2.19697e-06
-2.00062e-06
7.13638e-07
6.43974e-07
-3.31849e-07
-1.51557e-06
1.09315e-06
1.59075e-06
1.22424e-06
-6.13363e-07
2.21148e-07
2.33186e-06
1.95621e-06
-1.94212e-06
1.26898e-07
-4.62752e-07
3.57948e-06
2.95771e-06
4.27238e-06
-2.403e-06
4.17459e-06
-5.21477e-06
2.85025e-06
-2.27837e-06
5.34315e-06
-6.22033e-06
6.28133e-06
-2.67933e-06
-6.92688e-06
-1.56215e-06
1.2678e-06
5.69773e-06
-7.21044e-06
6.87899e-06
-2.44518e-06
-1.1448e-06
7.40128e-07
4.01548e-06
4.78225e-06
-1.34001e-07
-3.39516e-07
3.18014e-06
-3.28982e-06
3.56772e-06
-3.49087e-06
0.0005818
0.000879904
-0.000934271
-0.000512569
2.63989e-06
-2.9831e-06
-1.59201e-06
1.38242e-06
-1.59898e-06
6.86192e-07
-1.54998e-06
1.67112e-06
-7.0636e-07
1.75867e-06
-1.79462e-06
8.47091e-07
-9.33826e-07
1.06836e-06
-7.87697e-06
-3.42407e-06
1.1648e-05
6.03072e-06
-1.3295e-05
-1.21306e-06
-1.47201e-06
8.85268e-07
-1.3986e-06
1.03523e-06
-1.12248e-06
-5.2786e-07
2.00639e-07
4.50906e-06
-8.67195e-07
5.20441e-06
7.30103e-07
-1.8392e-06
-8.14807e-07
7.18282e-07
-7.3607e-07
-1.72472e-06
-1.93006e-06
1.96892e-06
8.58481e-07
7.74872e-07
-1.80927e-06
-8.86889e-07
6.68715e-07
-2.04115e-06
-1.62122e-06
-2.35668e-07
-6.06884e-07
-3.1848e-06
-2.53591e-06
1.19239e-06
-1.65116e-06
-4.83785e-06
-3.93236e-06
1.99839e-06
-1.7603e-06
-7.46132e-06
-5.90274e-06
4.77562e-07
1.33217e-07
-2.48843e-08
-5.10008e-07
-9.31066e-06
-5.85322e-07
-3.41371e-06
2.66386e-06
-7.50852e-06
-8.78714e-06
-1.7739e-06
-5.25303e-06
1.09284e-06
-6.24667e-06
6.39579e-06
-2.1767e-06
5.88358e-07
-5.61443e-07
4.99429e-07
-4.58453e-07
1.45657e-05
-2.0274e-05
1.6981e-05
0.000571208
-0.000915825
-0.000495686
0.000747363
-2.01479e-06
1.9262e-06
8.75308e-07
2.14243e-06
-2.10318e-06
7.47133e-07
7.3768e-07
-1.75967e-06
1.56036e-06
1.40159e-06
1.1214e-06
-1.27597e-06
8.68421e-07
2.16563e-06
1.75618e-06
-4.87669e-07
1.26436e-07
3.23591e-06
2.67391e-06
3.85709e-06
4.07649e-09
3.23715e-07
4.67424e-06
4.90432e-06
1.10384e-06
-1.67112e-07
-1.42674e-07
3.72838e-06
4.29674e-06
4.33868e-07
-6.89318e-07
2.80545e-06
3.26158e-06
1.02879e-06
-1.39069e-06
1.9027e-06
2.31746e-06
1.67363e-06
-1.89054e-06
1.25661e-06
1.52408e-06
1.01382e-06
8.00661e-07
-8.68723e-07
-1.45728e-06
1.61142e-06
-1.61258e-06
-1.28231e-06
5.85096e-06
7.58249e-06
-1.02701e-05
-7.24379e-06
8.04461e-06
7.57658e-06
-4.94315e-06
7.99316e-06
-4.18639e-06
-1.95617e-06
7.4476e-07
-2.02562e-06
2.11721e-06
9.32604e-07
-1.87955e-06
8.57529e-07
-7.7356e-06
6.05757e-06
-1.11076e-05
1.20862e-05
-9.02426e-06
-1.35517e-05
1.00933e-05
-7.51423e-06
1.02654e-05
-6.18611e-06
-1.24225e-06
3.64288e-07
5.06873e-06
-4.85859e-06
5.64691e-06
-7.47897e-06
-3.39814e-06
4.11843e-06
-1.98758e-06
5.56248e-06
-1.30611e-06
1.19609e-06
-8.96047e-07
-6.80161e-07
6.46336e-07
-1.41676e-06
-7.08014e-07
-1.29882e-06
-8.94162e-06
-2.58095e-06
2.52973e-06
7.53671e-06
-1.48082e-05
1.79161e-05
1.16388e-05
-1.80778e-05
5.0878e-06
-1.19653e-05
-0.00114087
-0.000316192
0.000800262
0.000712974
-7.15155e-06
6.63631e-06
-1.87774e-06
-3.04521e-06
-3.47218e-06
-6.88967e-07
7.19594e-07
-1.76127e-06
0.000865894
-0.000642311
0.000253884
-1.67573e-06
-4.99668e-05
-3.80179e-05
4.5118e-05
3.38366e-05
-2.64114e-05
1.91241e-05
-1.27027e-05
-1.28977e-06
9.99275e-07
-1.35741e-06
-1.06172e-06
-1.45846e-06
-6.16804e-07
1.34399e-07
-2.11034e-06
-1.65708e-06
4.26454e-07
-1.03644e-06
-3.34563e-06
-2.64161e-06
1.71872e-06
-2.42336e-06
-5.12894e-06
-4.1273e-06
3.19995e-06
-4.28354e-06
-7.94571e-06
-6.33506e-06
-9.65142e-06
-4.20375e-06
3.26167e-06
-8.33464e-06
-1.01962e-05
-2.49952e-06
-5.57645e-06
1.98046e-06
-6.70872e-06
6.10386e-06
-1.99756e-05
-3.02094e-06
0.00113063
-0.00181176
0.001778
-0.00146529
-9.52905e-07
-1.50714e-06
6.00386e-07
-1.14228e-06
-2.14251e-06
2.23082e-06
8.16374e-07
2.0153e-06
8.03277e-07
-1.84009e-06
8.39459e-07
-2.21596e-06
2.16769e-06
8.85085e-07
8.21265e-07
-2.06496e-06
1.89351e-06
1.2737e-06
1.0588e-06
-1.69257e-06
1.38968e-06
1.91563e-06
1.52543e-06
-1.06893e-06
7.34154e-07
2.84386e-06
2.33848e-06
-4.12428e-07
1.31512e-07
3.99367e-06
3.40255e-06
1.47795e-07
-4.73859e-07
5.28721e-06
4.6444e-06
1.90552e-05
-2.01406e-05
-1.75361e-05
6.00211e-06
-8.51323e-07
7.65858e-08
-2.56932e-07
4.24663e-06
4.71983e-06
3.9829e-07
-6.41054e-07
3.38707e-06
3.8396e-06
8.7924e-07
-1.18453e-06
2.52308e-06
2.91706e-06
1.51125e-06
-1.80153e-06
1.73045e-06
2.08613e-06
2.01912e-06
-2.11536e-06
1.22276e-06
1.42798e-06
1.05735e-06
6.56429e-07
-6.26466e-07
-1.5808e-06
-7.35547e-07
-1.71042e-06
8.01596e-07
-1.64717e-06
-1.5183e-06
1.60112e-06
-9.50905e-08
-1.378e-06
1.15118e-07
-7.39716e-07
6.82984e-07
1.26686e-06
-1.11829e-06
-8.69749e-07
1.1833e-06
-9.93878e-07
6.48829e-06
-1.57957e-05
-9.79935e-06
1.39902e-05
-1.6205e-05
1.61082e-05
-1.12381e-05
8.84525e-06
-5.54195e-06
-8.05783e-06
-2.60337e-06
7.51325e-06
9.12595e-06
-5.08086e-06
1.98077e-06
-2.07293e-06
1.14713e-06
6.97925e-06
-8.21443e-06
-3.51731e-06
6.40944e-06
-2.49961e-06
-1.1656e-06
1.0093e-06
-8.82452e-07
-1.17973e-06
-7.17954e-07
1.20597e-05
-8.17572e-06
1.13594e-05
-7.51895e-06
6.28923e-07
-6.25307e-07
-1.50909e-06
6.12884e-07
-1.56835e-06
0.000241702
-3.03771e-07
-0.00021371
-3.24865e-06
-3.62091e-07
0.000271694
-2.75769e-06
-0.000241647
0.000271639
-3.46118e-06
-0.000213656
-3.83588e-06
7.0783e-07
-6.68802e-07
-1.56083e-06
-1.81654e-06
1.9692e-06
8.05704e-07
-1.68143e-06
6.76501e-07
-5.37471e-07
3.89517e-07
6.65485e-06
-7.71446e-06
1.01202e-05
-1.80074e-05
-3.42896e-08
1.70377e-06
1.5039e-07
-1.25771e-06
6.54028e-07
1.41953e-06
0.000107822
0.0001097
-0.00011875
-0.000123347
0.000887558
0.000489613
-0.000892165
-0.000468858
0.0010855
0.000161959
-0.000201936
-0.00102024
-3.79648e-06
-4.27195e-06
4.11678e-05
0.00108324
-1.44308e-06
-6.30552e-07
1.82007e-05
-4.20869e-05
-3.11823e-05
4.81749e-05
-1.31139e-06
1.24343e-06
-8.73985e-07
8.50384e-07
-7.71763e-07
7.35883e-07
-1.04721e-06
6.88593e-07
-1.34308e-06
-1.07143e-06
-2.44782e-07
-3.10813e-07
-2.17409e-06
-1.701e-06
9.4686e-07
-1.67676e-06
-3.44409e-06
-2.7277e-06
2.4671e-06
-3.37013e-06
-5.34042e-06
-4.28409e-06
4.43299e-06
-5.86211e-06
-8.33339e-06
-6.67171e-06
7.51505e-06
-8.81751e-06
-1.26819e-05
-1.03344e-05
-1.55143e-05
-5.58125e-06
4.46044e-06
-9.53071e-06
-1.22511e-05
-3.45602e-06
2.61275e-06
-5.84988e-06
-7.35323e-06
-1.95747e-06
1.375e-06
-3.84582e-06
3.78399e-06
-4.71736e-06
4.58287e-06
-7.82336e-07
2.36438e-07
-2.4989e-06
2.45186e-06
-3.12405e-06
3.10515e-06
2.74541e-07
-7.20725e-07
-1.48931e-06
-1.94001e-06
1.92383e-06
-1.13879e-06
0.000303996
-4.46096e-07
-2.3712e-06
0.000338571
-5.1357e-07
-1.94174e-06
0.000375577
-5.79765e-07
-1.60183e-06
0.000415007
-5.76195e-07
-1.26888e-06
0.000456781
-1.94593e-07
-1.05713e-06
0.00050145
7.5446e-07
-1.67946e-06
0.000549833
2.2888e-06
-3.65383e-06
0.000600831
5.37984e-06
-6.29984e-06
0.000655379
1.1056e-05
-1.24198e-05
1.67641e-05
0.000716558
-2.106e-05
0.000717234
-0.00065488
1.10453e-05
0.000787237
2.41264e-05
-3.22861e-05
2.94284e-05
0.000875188
-4.72529e-05
-0.000790079
0.000877199
1.19109e-05
1.32441e-05
0.000599079
-0.000549067
5.23847e-06
8.27915e-06
0.000501614
-0.000456675
-4.25645e-07
1.75945e-06
0.000414712
-0.000375393
-2.21874e-06
-1.52004e-06
0.000338478
-0.000303918
-2.90182e-06
-2.56759e-06
-3.19991e-06
-2.11127e-06
2.24577e-06
8.87328e-07
9.50741e-07
-2.31849e-06
2.34129e-06
9.23244e-07
8.94569e-07
-2.31145e-06
2.21121e-06
1.19372e-06
1.03999e-06
-2.0407e-06
1.83769e-06
1.6636e-06
1.37579e-06
-1.58605e-06
1.30221e-06
2.43791e-06
2.00369e-06
-1.01151e-06
7.3692e-07
3.43069e-06
2.91163e-06
-4.74589e-07
2.50821e-07
4.58667e-06
4.01364e-06
8.31656e-05
-9.04065e-05
9.60772e-05
5.19673e-06
7.13464e-08
6.30681e-06
-7.96159e-06
-1.57248e-07
-1.41153e-06
7.64606e-07
6.11673e-06
7.10942e-06
-7.88781e-06
-3.07398e-06
2.57495e-06
-7.61036e-06
-2.76641e-06
6.49079e-06
7.01477e-06
-2.30375e-07
-1.28788e-07
4.77344e-06
5.30839e-06
3.52291e-07
-6.04612e-07
3.93588e-06
4.34301e-06
8.38001e-07
-1.07572e-06
3.09017e-06
3.52487e-06
1.35497e-06
-1.62773e-06
2.31394e-06
2.68288e-06
1.89955e-06
-2.1248e-06
1.65987e-06
1.95155e-06
2.26605e-06
-2.30124e-06
1.25051e-06
1.41619e-06
2.24561e-06
-2.12361e-06
9.91825e-07
1.11336e-06
8.9735e-07
6.09531e-07
-5.58146e-07
-1.40143e-06
-1.46815e-06
5.46634e-07
-5.68344e-07
-1.28787e-06
-1.35951e-06
5.89104e-07
-5.9646e-07
-1.11164e-06
-1.2061e-06
5.51859e-05
7.38888e-05
-7.84527e-05
-6.38933e-05
0.000155929
-0.000187184
6.34255e-05
-6.11794e-05
1.03972e-05
-6.09882e-06
-9.20687e-06
-3.24391e-06
8.30002e-06
-9.03728e-06
-4.0062e-06
1.02204e-05
-6.21329e-06
-1.6438e-06
4.04594e-07
1.09746e-05
-2.50131e-05
-8.27343e-06
-2.59042e-07
-3.71482e-06
-0.000187504
-4.21053e-06
-0.000187462
1.89185e-06
9.20281e-07
-1.48351e-06
0.000731405
0.000402945
-0.00034216
-0.00150595
0.000713703
-0.000653996
-2.4179e-05
0.000779496
-3.64505e-05
1.39189e-05
-8.91402e-06
-0.00124393
-0.000268011
0.000471257
0.00111657
-8.84957e-06
-3.37541e-06
-1.38377e-05
1.29314e-05
-9.34742e-06
-6.01619e-07
5.88645e-07
-9.46772e-07
-5.29758e-07
-8.20361e-07
-0.000187998
0.000214169
-7.955e-06
-4.30587e-06
-2.16209e-07
-0.000162434
-9.08211e-06
-0.000162946
5.61016e-07
-5.88182e-07
-1.40732e-06
5.10827e-07
-1.56345e-06
-1.97893e-06
2.09932e-06
7.62059e-07
-1.84565e-06
6.02137e-07
-4.61616e-05
0.000999143
2.28906e-06
0.000993131
-8.56915e-05
-7.97718e-06
1.94392e-07
7.04659e-06
-8.86025e-06
-9.93406e-07
7.03698e-07
1.80433e-05
-1.37684e-05
-1.17464e-05
-7.88533e-06
-1.66035e-06
7.39055e-06
1.0345e-06
-8.82972e-06
-3.16907e-06
0.00120698
0.000159581
-0.000274671
-2.69221e-05
-2.6044e-05
2.81442e-05
3.62601e-05
-4.60362e-05
2.13381e-05
6.35754e-07
-7.84641e-08
8.34423e-08
-4.66752e-07
-1.02839e-06
1.07844e-06
-5.9511e-07
-5.19517e-07
5.1027e-07
-9.85233e-07
-5.17015e-07
-9.18027e-07
-4.46447e-06
-5.05872e-06
-5.47816e-07
-1.40783e-06
4.78617e-07
5.70305e-07
-5.69259e-07
-1.25863e-06
-1.32461e-06
5.70023e-07
-5.67274e-07
-1.1263e-06
1.34938e-06
-1.19011e-06
-1.04299e-06
-1.1347e-06
1.01683e-06
-8.90011e-07
-7.48839e-07
-7.70362e-07
3.86865e-07
-1.36327e-06
-1.08482e-06
1.36228e-07
-7.92954e-07
-2.18844e-06
-1.72949e-06
1.50419e-06
-2.35602e-06
-3.46376e-06
-2.78914e-06
3.30773e-06
-4.43791e-06
-5.45572e-06
-4.35033e-06
5.82559e-06
-7.52909e-06
-8.73293e-06
-6.89617e-06
9.32608e-06
-1.08218e-05
-1.45981e-05
-1.12692e-05
-1.93508e-05
1.55982e-05
-1.35227e-05
-3.22648e-05
-3.09733e-05
3.05462e-05
-1.02797e-05
9.27215e-06
-1.91582e-05
-2.36689e-05
-1.16817e-05
-7.85953e-06
6.17758e-06
-1.07715e-05
-1.45601e-05
-4.69253e-06
3.54054e-06
-6.10189e-06
-7.95508e-06
-2.67356e-06
1.94837e-06
-3.86383e-06
-4.81257e-06
-1.27626e-06
6.20704e-07
-2.51922e-06
-3.13963e-06
-2.97261e-08
-4.75061e-07
-1.50078e-06
-1.98227e-06
8.17323e-07
-1.01257e-06
-8.79207e-07
-1.15814e-06
-7.03888e-07
-0.000242117
0.000272057
-6.0236e-06
-7.01614e-06
-0.000304307
0.000338924
-4.42317e-06
-5.21706e-06
-0.000375872
0.000415254
-3.15443e-06
-3.7446e-06
-0.000457228
0.000501731
-2.72656e-06
-2.72256e-06
-0.000548715
0.000600092
-7.78113e-06
-3.93471e-06
-1.33654e-05
-0.000187921
0.000214056
-8.39247e-06
4.72646e-06
-9.47371e-06
-0.000162891
-0.000162404
-3.70922e-05
-0.000117304
-0.000981404
-0.00011373
0.000187428
1.11293e-05
-0.00028121
3.77707e-05
0.000872489
-0.000789662
-1.16787e-06
-3.04983e-05
0.000718458
-0.000657076
5.41094e-06
3.65751e-06
0.000600723
-0.000548732
2.34459e-06
3.66805e-06
0.000500717
-0.000457032
-5.16704e-07
1.40749e-07
0.000414997
-0.000375545
-3.88662e-06
-2.90164e-06
0.000338564
-0.000304043
-5.11784e-06
-4.46619e-06
0.000271852
-0.000241973
-6.60341e-06
-5.87408e-06
-7.53357e-06
-2.12289e-06
2.28957e-06
9.20736e-07
9.27345e-07
-2.40595e-06
2.46829e-06
9.76601e-07
9.48874e-07
-2.47976e-06
2.46158e-06
1.14763e-06
1.06607e-06
-2.36587e-06
2.23474e-06
1.47547e-06
1.28702e-06
-2.02381e-06
1.79688e-06
2.08066e-06
1.75645e-06
-1.55063e-06
1.29157e-06
2.88585e-06
2.45427e-06
-1.06653e-06
8.61463e-07
3.85573e-06
3.35618e-06
-7.30343e-07
6.68962e-07
4.83694e-06
-5.81229e-06
4.34376e-06
-5.60146e-07
4.37739e-07
5.66571e-06
5.3155e-06
7.4112e-06
-8.40498e-06
-1.3841e-07
-4.39621e-07
3.69581e-07
6.26467e-06
5.92121e-06
8.12392e-06
-2.69618e-06
-8.63282e-06
4.29733e-07
-2.46264e-07
6.50035e-06
7.81787e-06
-8.9119e-07
-8.9997e-06
7.38302e-07
-2.46197e-07
6.49908e-10
6.77196e-06
6.62433e-06
-7.82836e-06
2.69784e-07
-3.48192e-07
5.97412e-06
-7.03873e-06
6.31585e-06
1.32518e-07
-1.63382e-07
5.24804e-06
5.64502e-06
4.01834e-07
-6.58956e-07
4.37522e-06
4.78302e-06
8.75304e-07
-1.06042e-06
3.57171e-06
3.96646e-06
1.25679e-06
-1.50224e-06
2.84213e-06
3.20433e-06
1.7543e-06
-1.99933e-06
2.15383e-06
2.47577e-06
2.22171e-06
-2.38674e-06
1.60271e-06
1.84919e-06
2.47065e-06
-2.46304e-06
1.23938e-06
1.39397e-06
2.37978e-06
-2.24945e-06
9.64487e-07
1.09973e-06
8.46939e-07
5.5829e-07
-5.20842e-07
-1.21598e-06
-1.30542e-06
4.91537e-07
-4.94638e-07
-1.11616e-06
-1.17628e-06
-1.05622e-06
0.000953454
0.000825791
-0.000103764
-1.21272e-05
6.40551e-06
9.27186e-05
0.000856776
-5.69258e-05
1.20822e-05
-6.82644e-06
-1.04638e-05
-3.48475e-06
-1.01508e-05
-4.57359e-06
1.15491e-05
-7.33876e-06
-8.0485e-07
-4.63058e-07
8.38508e-07
-0.00096476
-0.0011123
0.000792766
0.00119193
2.77047e-05
-2.37883e-05
-2.60291e-06
-9.33767e-06
7.67448e-06
-0.00018906
0.000215148
-1.25494e-05
-0.000164037
-1.42208e-05
4.28912e-07
-4.91928e-07
-1.21375e-06
0.000124271
-2.61861e-05
3.84241e-05
-1.7502e-06
2.15235e-07
2.07344e-06
-1.52348e-06
3.56045e-07
3.2265e-07
-1.32682e-06
4.73238e-07
-1.74638e-06
-9.59419e-07
9.78133e-07
-5.97125e-07
-8.59596e-07
-5.19858e-07
0.00109143
-0.000133387
-3.04859e-05
3.29621e-05
3.08968e-05
-4.11999e-05
3.62457e-05
-4.7486e-05
-2.59861e-05
-0.00102937
0.000994966
1.6227e-06
-1.37164e-06
0.000707184
-0.00065178
-2.40896e-05
0.000769079
-3.89509e-05
-4.50528e-05
-4.66105e-05
4.15668e-05
-5.13014e-05
3.77117e-05
-4.19894e-05
-5.62694e-05
4.46384e-05
-4.51836e-05
-1.03921e-05
-2.55874e-06
1.63285e-05
-1.04936e-05
1.44977e-05
-1.12005e-05
-9.98995e-06
-3.92774e-06
-3.33523e-05
2.7334e-05
-0.000188922
0.000214977
-1.29198e-05
-0.000163928
-1.45632e-05
0.000107741
-0.000119444
7.33178e-05
-7.95435e-05
-0.00116451
-6.6101e-05
0.00133411
-0.00106642
3.54497e-05
-4.43611e-05
3.21207e-05
2.09944e-05
-1.73387e-05
-2.12543e-05
-9.88706e-06
-1.00562e-06
-7.8259e-06
3.01565e-07
6.55327e-06
-1.87188e-07
-9.2575e-06
-8.13701e-06
-2.77025e-07
6.91664e-06
-7.79546e-07
-9.8915e-06
-1.00156e-05
-3.40912e-06
1.8021e-05
-1.58084e-05
3.23519e-05
2.79523e-05
-3.91977e-05
-2.81234e-05
0.000931784
-8.76601e-05
6.06152e-07
3.44967e-07
-3.69999e-07
-4.26224e-07
-3.77106e-05
1.5766e-05
3.76221e-05
-9.80064e-05
5.98207e-05
6.72078e-05
-4.027e-05
-5.02007e-06
-5.86834e-06
5.22371e-07
-5.28438e-07
-1.03148e-06
-1.11596e-06
5.19782e-07
-5.08555e-07
-8.94544e-07
-9.54584e-07
4.99419e-07
-4.90098e-07
-7.59771e-07
-8.30382e-07
4.47988e-07
-4.25891e-07
-6.74231e-07
-6.91264e-07
7.80166e-07
-6.36636e-07
-4.34377e-07
-8.47003e-07
1.18275e-06
-4.50329e-07
1.30961e-07
-4.4961e-07
-1.01913e-06
8.05093e-07
-8.60752e-07
-6.45926e-07
-4.94301e-07
3.23323e-08
-1.35819e-06
-1.08736e-06
5.70361e-07
-1.29105e-06
-2.17533e-06
-1.72266e-06
2.14595e-06
-3.08063e-06
-3.44685e-06
-2.74323e-06
4.23572e-06
-5.64833e-06
-5.44994e-06
-4.29678e-06
7.43227e-06
-9.58743e-06
-9.0438e-06
-6.97753e-06
1.21488e-05
-1.49858e-05
-1.5779e-05
-1.19393e-05
1.81861e-05
-2.22783e-05
-2.67941e-05
-2.0964e-05
-3.30695e-05
-2.17204e-05
-2.72083e-05
2.29651e-05
-3.11418e-05
2.84889e-05
-3.50032e-05
-1.92031e-05
1.50658e-05
-1.99524e-05
-2.55447e-05
-1.13894e-05
8.4187e-06
-1.1192e-05
-1.51066e-05
-6.1897e-06
4.57197e-06
-6.16448e-06
-8.21327e-06
-3.4297e-06
2.53909e-06
-3.77441e-06
-4.79181e-06
-1.76341e-06
1.04957e-06
-2.48797e-06
-3.06293e-06
-3.7614e-07
-1.78951e-07
-1.54155e-06
-1.98698e-06
6.20738e-07
-8.83798e-07
-8.94363e-07
-1.17512e-06
-7.20883e-07
-0.000243031
0.000272904
-9.59686e-06
-1.11207e-05
-0.000305144
0.000339715
-7.08233e-06
-8.34487e-06
-0.00037668
0.00041588
-5.12768e-06
-6.07225e-06
-0.000457519
0.000501935
-4.25984e-06
-4.47297e-06
-0.000549153
0.000599076
-8.2805e-06
-5.04699e-06
-1.36995e-05
-1.74631e-07
-4.86503e-06
-0.000138382
5.205e-06
-1.04315e-05
-0.00013884
-0.00013836
-2.51527e-06
-1.06798e-05
1.01035e-05
-0.000139911
-1.5679e-05
-0.000138886
0.000915354
-0.000907671
-8.79153e-05
0.000102332
2.15775e-05
-0.000171329
0.00101761
-0.000958688
-0.000107593
-0.000165942
0.000867236
-0.000786423
-1.78035e-05
-5.27982e-05
0.000718275
-0.000657599
-1.85162e-06
-6.16598e-06
0.000602966
-0.000550703
-1.56409e-06
-5.63562e-07
0.000502609
-0.000457203
-2.60641e-06
-1.97202e-06
0.000415319
-0.000376288
-5.33575e-06
-4.43317e-06
0.000339282
-0.000304774
-7.52172e-06
-6.5627e-06
0.000272614
-0.000242799
-1.00337e-05
-8.80998e-06
-1.15299e-05
-1.73964e-06
1.63605e-06
3.82077e-07
1.5996e-06
-1.42463e-06
2.2365e-07
2.83428e-07
-1.76436e-06
2.01099e-06
7.87096e-07
6.02154e-07
-6.49879e-07
-2.20803e-06
2.36197e-06
9.2775e-07
8.78299e-07
-2.4865e-06
2.58195e-06
1.00321e-06
9.76418e-07
-2.64052e-06
2.64704e-06
1.15087e-06
1.08274e-06
-2.59427e-06
2.49946e-06
1.39563e-06
1.26618e-06
-2.36387e-06
2.19035e-06
1.83537e-06
1.60153e-06
-1.98246e-06
1.75604e-06
2.43179e-06
2.11009e-06
-1.53295e-06
1.31849e-06
3.20073e-06
2.79447e-06
-1.11996e-06
9.41324e-07
4.02932e-06
3.60899e-06
-8.25707e-07
7.14234e-07
4.75528e-06
4.42038e-06
-6.19603e-07
5.5336e-07
5.25947e-06
4.98629e-06
6.77937e-06
2.77728e-07
-8.22533e-06
-5.07717e-07
4.40219e-07
5.61358e-06
5.45376e-06
3.85638e-07
-7.03616e-06
5.74734e-06
2.81657e-07
-7.11449e-06
5.80235e-06
7.12237e-06
-3.02485e-07
-8.72597e-06
-2.35379e-07
1.11118e-07
5.84577e-06
-7.2768e-06
5.88014e-06
6.00351e-08
-1.3823e-07
5.61114e-06
5.75047e-06
3.09065e-07
-5.00644e-07
5.48782e-06
5.56353e-06
4.59275e-07
-5.7581e-07
5.04503e-06
5.18951e-06
7.21425e-07
-8.10707e-07
4.48294e-06
4.813e-06
9.49825e-07
-1.10845e-06
3.872e-06
4.1776e-06
1.2734e-06
-1.46103e-06
3.20712e-06
3.53321e-06
1.65968e-06
-1.87814e-06
2.57034e-06
2.88456e-06
2.10331e-06
-2.31299e-06
1.95893e-06
2.24794e-06
2.49143e-06
-2.61075e-06
1.46456e-06
1.68857e-06
2.65665e-06
-2.62443e-06
1.12095e-06
1.2722e-06
2.52825e-06
-2.39191e-06
8.48029e-07
9.83419e-07
2.23947e-06
-2.07481e-06
6.48978e-07
7.32109e-07
1.96741e-06
-2.02165e-06
6.6131e-07
5.68853e-07
2.027e-07
-3.28808e-07
-1.53011e-06
-2.32624e-08
4.19679e-07
-4.73683e-07
-1.27342e-06
-1.41649e-06
4.89623e-07
-4.69108e-07
-1.05908e-06
-1.1566e-06
4.52337e-07
-4.46163e-07
-9.34333e-07
-9.94866e-07
4.53855e-07
-4.6316e-07
-8.2684e-07
-8.84565e-07
4.68211e-07
-7.20588e-07
-4.69055e-07
-7.69508e-07
0.000649805
-0.00102708
-0.000234004
0.0011298
4.50537e-06
1.42494e-06
5.70913e-05
-7.54147e-05
-4.40468e-05
0.000834861
-5.8323e-05
-9.24475e-05
-0.000231002
9.31275e-05
-5.18082e-05
5.2926e-05
-6.76922e-05
2.42294e-05
-5.54565e-06
9.28079e-05
7.02354e-05
4.38794e-05
-0.000101648
5.76123e-05
5.14334e-05
-4.84826e-05
-1.20261e-05
-3.84925e-06
1.41739e-05
-7.62936e-06
-2.49162e-07
-9.0428e-06
2.60598e-07
-8.62618e-06
1.3037e-05
-8.58867e-06
-1.14883e-05
-5.14892e-06
-3.42751e-05
3.11409e-05
3.77986e-05
-3.99373e-05
2.79483e-05
-9.65483e-06
3.76788e-07
-5.28157e-07
9.47872e-07
6.34542e-05
-6.6093e-05
6.05564e-05
-7.12921e-05
3.26705e-05
-5.54889e-05
-3.19649e-05
2.7719e-05
-3.41057e-05
-1.59748e-05
-0.000139824
-0.00107793
0.00133411
-0.000400096
-0.00109353
-3.29833e-06
1.62786e-07
-2.54728e-07
-1.23988e-06
1.4887e-06
7.28908e-08
-1.2898e-06
1.64566e-06
1.54391e-07
0.000752507
-4.67413e-05
3.88269e-05
1.84855e-05
-1.16484e-05
-1.17222e-05
-2.51859e-06
-1.43006e-07
-9.91976e-06
-6.17057e-07
-1.07415e-05
-1.15131e-05
-4.35347e-06
1.64606e-05
-1.28566e-05
-3.16202e-05
2.04931e-05
3.31477e-05
-4.09557e-07
4.05156e-07
-4.86916e-07
-4.21719e-07
-4.58692e-07
0.00101886
-0.000145706
9.07361e-06
-0.000128897
-0.00413165
0.00409019
0.00132061
-0.00102566
0.00124357
0.000230119
-0.000270702
-3.49933e-06
-1.10393e-05
6.12502e-05
4.99411e-05
-7.92239e-05
-0.00109966
-8.008e-05
0.000477799
0.000974609
-3.95399e-05
2.75818e-05
0.000996513
0.00033234
-2.6035e-05
2.40287e-05
-1.97764e-05
-1.0917e-05
-1.03166e-06
-2.01613e-06
-1.22421e-05
1.93633e-05
-2.01766e-05
-1.85648e-05
-4.31313e-07
4.24502e-07
-5.64359e-07
-6.76478e-07
8.09274e-07
-4.79978e-07
-4.41324e-07
-5.22436e-07
-1.71171e-05
1.11256e-05
-0.000116366
-0.000141191
0.000165482
-2.16021e-05
-2.34424e-05
-0.000117336
0.000905061
-9.0724e-05
-2.08092e-07
-1.32621e-06
-2.87485e-05
1.38843e-05
3.30573e-05
-3.00845e-05
-3.74211e-05
2.69935e-05
5.65696e-05
-3.58411e-06
-2.44399e-07
2.67927e-07
6.28807e-07
4.41261e-06
-5.36885e-06
-8.78467e-06
-6.74975e-06
2.8132e-05
-4.23479e-05
-2.58599e-05
3.428e-07
-4.09374e-07
-1.03811e-06
-1.14676e-06
4.50339e-07
-4.65668e-07
-8.37926e-07
-9.34787e-07
4.62108e-07
-4.50542e-07
-6.84605e-07
-7.50658e-07
4.39923e-07
-4.2395e-07
-5.65701e-07
-6.18898e-07
-5.15043e-07
7.33588e-07
-5.991e-07
-4.52046e-07
-8.19965e-07
8.94373e-07
-5.3941e-07
-4.7555e-07
-8.26503e-07
5.93634e-07
-8.58983e-07
-6.90687e-07
-2.20237e-07
-2.95485e-07
-1.33636e-06
-1.07402e-06
9.72729e-07
-1.79271e-06
-2.08373e-06
-1.6633e-06
2.75092e-06
-3.9057e-06
-3.26892e-06
-2.62239e-06
5.26104e-06
-6.98643e-06
-5.33441e-06
-4.15337e-06
9.20484e-06
-1.20067e-05
-9.08587e-06
-6.92485e-06
1.54259e-05
-1.94588e-05
-1.61728e-05
-1.21732e-05
2.43172e-05
-3.01675e-05
-2.71604e-05
-2.13366e-05
-3.33583e-05
6.31074e-05
-7.79193e-05
-5.20963e-05
5.40032e-05
-4.29864e-05
-2.287e-05
1.82757e-05
-2.0479e-05
-2.67071e-05
-1.41102e-05
1.05479e-05
-1.12883e-05
-1.53641e-05
-7.7583e-06
5.6816e-06
-6.0375e-06
-8.21442e-06
-4.20172e-06
3.13155e-06
-3.5747e-06
-4.59626e-06
-2.23306e-06
1.45312e-06
-2.34416e-06
-2.84925e-06
-7.22437e-07
8.76398e-08
-1.51381e-06
-1.89701e-06
4.06651e-07
-7.1683e-07
-9.33541e-07
-1.18427e-06
8.74293e-07
-8.86248e-07
-6.21901e-07
-7.45615e-07
-5.32041e-07
-0.000190522
0.00021657
-1.75698e-05
-1.97491e-05
-0.00024437
0.000274122
-1.35897e-05
-1.56387e-05
-0.000306224
0.000340636
-1.01629e-05
-1.18777e-05
-0.000377424
0.000416466
-7.58506e-06
-8.83478e-06
-0.000458035
0.000502043
-6.1948e-06
-6.84448e-06
-0.000548943
0.000597684
-8.52195e-06
-6.73286e-06
-0.000650141
0.000703116
-2.29845e-05
-1.46731e-05
-0.000759029
0.000816932
-5.73825e-05
-3.85135e-05
-1.13999e-05
5.69306e-06
-0.000115457
-0.000141058
0.000165324
-2.18496e-05
1.73913e-05
-2.3671e-05
-0.000117229
-0.000116276
-1.49216e-07
-5.41477e-06
-0.000115018
-0.000115014
-0.0001155
0.00101265
-0.000963081
-0.000131951
-8.57531e-05
0.000956983
-0.0009118
-9.9606e-05
-0.000138018
0.000845226
-0.000775078
-2.85988e-05
-5.78806e-05
0.000712355
-0.000655174
-8.24536e-06
-1.47164e-05
0.0006012
-0.000550821
-4.25111e-06
-5.34554e-06
0.000502418
-0.000457469
-4.78225e-06
-4.85854e-06
0.000415726
-0.000376611
-7.46144e-06
-6.32913e-06
0.000340136
-0.000305827
-1.03486e-05
-8.7982e-06
0.000273816
-0.000244116
-1.39037e-05
-1.21727e-05
0.000216357
-0.000190338
-1.78699e-05
-1.59534e-05
-2.00319e-05
-1.76897e-06
1.85501e-06
3.49976e-07
2.29439e-07
-1.99301e-06
2.1515e-06
6.90636e-07
5.1428e-07
-2.30674e-06
2.44879e-06
8.88214e-07
8.0902e-07
-2.56961e-06
2.67143e-06
9.93997e-07
9.61855e-07
-2.72963e-06
2.75306e-06
1.15547e-06
1.09228e-06
-2.74492e-06
2.67899e-06
1.37332e-06
1.25106e-06
-2.59271e-06
2.48111e-06
1.68168e-06
1.51945e-06
-2.31961e-06
2.13088e-06
2.12808e-06
1.89632e-06
-1.92001e-06
1.70317e-06
2.7106e-06
2.40166e-06
-1.47685e-06
1.26781e-06
3.38075e-06
3.04184e-06
-1.08232e-06
9.18354e-07
4.02315e-06
3.71887e-06
-7.67992e-07
6.65133e-07
4.47811e-06
4.25173e-06
-5.84815e-07
4.92125e-07
4.76679e-06
4.63525e-06
-4.00015e-07
2.78956e-07
4.88902e-06
4.84853e-06
-1.70435e-07
3.36132e-08
4.90985e-06
4.92122e-06
1.12864e-07
-2.75938e-07
4.74742e-06
4.84139e-06
4.26108e-07
-5.66054e-07
4.60792e-06
4.68589e-06
7.22787e-07
-8.62735e-07
4.25469e-06
4.37498e-06
9.92396e-07
-1.14292e-06
3.84595e-06
4.07685e-06
1.2948e-06
-1.45362e-06
3.3761e-06
3.61649e-06
1.62566e-06
-1.80786e-06
2.80229e-06
3.0913e-06
2.00578e-06
-2.21133e-06
2.23031e-06
2.51538e-06
2.41371e-06
-2.59486e-06
1.67475e-06
1.93846e-06
2.7381e-06
-2.82118e-06
1.23521e-06
1.43385e-06
2.83661e-06
-2.78434e-06
9.37749e-07
1.06835e-06
2.6781e-06
-2.53897e-06
7.11872e-07
8.24046e-07
2.38212e-06
-2.19933e-06
5.41307e-07
6.16321e-07
2.00309e-06
5.09442e-07
-1.68486e-06
4.89114e-07
2.94306e-07
-3.62997e-07
-1.14012e-06
-1.25188e-06
4.02877e-07
-4.11467e-07
-9.22453e-07
-1.0278e-06
4.07151e-07
-4.01555e-07
-7.73496e-07
-8.42721e-07
4.0457e-07
-4.16147e-07
-6.61667e-07
-7.20059e-07
-6.11218e-07
1.78542e-06
-0.00290431
0.000527982
0.00327987
-0.000943225
-0.000203222
-0.00141297
0.000180596
0.00171222
1.53979e-06
-1.33346e-06
-6.41257e-09
5.04259e-05
5.20393e-05
-4.7704e-05
4.51559e-05
4.77696e-05
5.95235e-05
1.60678e-05
-8.47104e-06
-1.38983e-05
-3.92347e-06
-6.25865e-08
-1.04872e-05
-2.15821e-07
-1.13938e-05
-1.31313e-05
-5.85439e-06
1.48841e-05
-9.97926e-06
-3.26684e-05
2.64218e-05
-3.8118e-06
3.27275e-07
-4.32549e-07
-4.39117e-07
4.71769e-05
-3.95782e-05
0.000126201
6.60885e-05
-0.000151648
0.00110776
0.00033656
-0.00096407
4.28135e-05
-6.69236e-05
0.00107685
-0.000224925
1.73008e-06
6.66569e-08
-0.00012993
1.5614e-05
-6.92465e-05
6.30161e-05
3.34022e-05
-3.69652e-05
-0.000142386
0.000166973
-2.81133e-05
-0.00011814
-3.03875e-05
0.00134329
0.000405284
-0.00116901
0.000954955
-3.93095e-06
-1.22185e-05
0.00119863
0.000633385
5.18393e-05
5.00204e-05
-4.23392e-05
3.44839e-05
0.0012313
0.000229516
-0.000259328
2.10564e-05
-1.30988e-05
-1.30712e-05
-2.39466e-06
-9.76235e-07
-1.18517e-05
-1.03018e-06
-1.40132e-05
-1.28779e-05
-4.66171e-06
1.82471e-05
-1.52927e-05
-2.50938e-05
2.10795e-05
9.88516e-08
-1.77332e-07
-1.04664e-06
2.99491e-08
-1.09154e-06
-6.24021e-07
7.38255e-07
-4.93664e-07
-4.79471e-07
-4.54587e-07
-3.91816e-07
3.82422e-07
-4.17682e-07
-4.01128e-07
-3.77048e-07
-0.000142544
0.000167146
-2.79192e-05
-0.000118276
-3.02166e-05
-1.80586e-05
1.19066e-05
-9.35187e-05
-2.44617e-05
-9.41147e-05
-8.60071e-05
-1.30774e-05
0.000961852
-0.000137927
1.01506e-07
-1.35007e-07
-1.11207e-06
9.98005e-08
-1.12225e-06
0.00087082
-8.59898e-05
5.09937e-07
-4.1529e-07
5.44481e-07
-3.25253e-05
2.61564e-05
3.782e-08
1.14284e-06
-6.51696e-07
5.00968e-05
8.6151e-07
-5.98167e-06
-1.09678e-05
-7.67926e-06
2.83361e-05
-3.9258e-05
2.5282e-07
-3.15819e-07
-8.72112e-07
-9.68376e-07
3.61896e-07
-3.89642e-07
-6.71074e-07
-7.73175e-07
3.96706e-07
-3.96846e-07
-5.04173e-07
-5.81178e-07
3.89303e-07
-3.86394e-07
-3.79349e-07
-4.37386e-07
3.80959e-07
-3.90188e-07
-3.01406e-07
-3.36721e-07
4.02744e-07
-4.18131e-07
-2.64949e-07
-2.80512e-07
4.09699e-07
-2.47253e-07
-4.41613e-07
-5.61761e-07
6.8282e-07
-4.77898e-07
-4.59521e-07
-7.52468e-07
7.49283e-07
-5.83484e-07
-5.11143e-07
-6.17781e-07
3.51902e-07
-8.51577e-07
-7.02642e-07
7.1447e-08
-6.46964e-07
-1.27021e-06
-1.0352e-06
1.37709e-06
-2.27401e-06
-1.93823e-06
-1.56862e-06
3.37394e-06
-4.66568e-06
-3.0333e-06
-2.39974e-06
6.31644e-06
-8.46337e-06
-4.99656e-06
-3.84287e-06
1.12191e-05
-1.46155e-05
-8.84958e-06
-6.5979e-06
1.8858e-05
-2.38781e-05
-1.5821e-05
-1.18953e-05
2.99974e-05
-3.76099e-05
-2.6123e-05
-2.07233e-05
-3.17925e-05
-7.55992e-05
5.64399e-05
0.00010993
-3.89191e-05
3.4267e-05
-3.77302e-05
-4.94821e-05
-2.82981e-05
2.25514e-05
-2.00972e-05
-2.72509e-05
-1.73712e-05
1.29781e-05
-1.07346e-05
-1.47723e-05
-9.46588e-06
6.88674e-06
-5.63856e-06
-7.7134e-06
-5.03758e-06
3.70957e-06
-3.23234e-06
-4.21667e-06
-2.68115e-06
1.81404e-06
-2.09247e-06
-2.54722e-06
-1.04052e-06
3.63579e-07
-1.39177e-06
-1.70727e-06
1.6691e-07
-5.32868e-07
-9.356e-07
-1.14435e-06
7.40218e-07
-7.9705e-07
-6.3966e-07
-7.52163e-07
-5.57208e-07
-0.000192317
0.000218412
-2.30807e-05
-2.5705e-05
-0.000246151
0.000275807
-1.81884e-05
-2.06776e-05
-0.000307777
0.000342048
-1.39235e-05
-1.60595e-05
-0.000378607
0.000417361
-1.05422e-05
-1.21785e-05
-0.000458312
0.000501917
-8.44731e-06
-9.2749e-06
-0.000547963
0.000596372
-9.6881e-06
-8.51451e-06