/*--------------------------------*- C++ -*----------------------------------*\
| =========                 |                                                 |
| \\      /  F ield         | OpenFOAM: The Open Source CFD Toolbox           |
|  \\    /   O peration     | Version:  2212                                  |
|   \\  /    A nd           | Website:  www.openfoam.com                      |
|    \\/     M anipulation  |                                                 |
\*---------------------------------------------------------------------------*/
FoamFile
{
    version     2.0;
    format      ascii;
    arch        "LSB;label=32;scalar=64";
    class       surfaceScalarField;
    location    "0.000156";
    object      phi;
}
// * * * * * * * * * * * * * * * * * * * * * * * * * * * * * * * * * * * * * //

dimensions      [1 0 -1 0 0 0 0];

oriented        oriented;

internalField   nonuniform List<scalar> 
68983
(
-1.1786e-08
9.88672e-09
1.88881e-09
-1.39376e-08
2.13038e-09
-1.50405e-08
1.05993e-09
-1.59953e-08
8.75791e-10
-1.67608e-08
6.33166e-10
-1.73187e-08
3.93834e-10
-1.78207e-08
2.60938e-10
-1.83467e-08
1.78148e-10
-1.89486e-08
1.21118e-10
-1.9741e-08
8.74162e-11
-2.07794e-08
6.09674e-11
-2.21152e-08
3.60233e-11
-2.38234e-08
6.90789e-12
-2.58714e-08
-1.7514e-11
-2.82199e-08
-3.34932e-11
-3.09098e-08
-1.09928e-10
-3.39141e-08
-1.63986e-10
-3.71673e-08
-2.30106e-10
-4.05613e-08
-2.3143e-10
-4.40473e-08
-2.25566e-10
-4.76246e-08
-3.26426e-10
-5.11413e-08
-3.39031e-10
-5.44848e-08
-3.48447e-10
-5.7581e-08
-3.88395e-10
-6.04123e-08
-4.51355e-10
-6.30404e-08
-5.09362e-10
-6.56706e-08
-4.63794e-10
-6.95158e-08
-5.63233e-10
-7.24812e-08
-1.17233e-09
-7.1373e-08
3.87504e-11
-7.12384e-08
-4.35391e-10
-7.19631e-08
-5.40555e-10
-7.20496e-08
-5.64705e-10
-7.13977e-08
-3.9159e-10
-7.12457e-08
-5.09098e-10
-7.08558e-08
-3.94922e-10
-7.02409e-08
-3.78633e-10
-6.95379e-08
-3.38459e-10
-6.86002e-08
-3.28699e-10
-6.76082e-08
-3.22185e-10
-6.65826e-08
-3.22475e-10
-6.55679e-08
-3.09487e-10
-6.44191e-08
-3.27987e-10
-6.3124e-08
-3.29551e-10
-6.16805e-08
-2.93279e-10
-6.0157e-08
-2.73273e-10
-5.85296e-08
-2.2251e-10
-5.63793e-08
-1.63966e-10
-5.38687e-08
4.81227e-10
-5.40417e-08
-4.82599e-10
-5.37285e-08
-2.34866e-10
-5.3025e-08
-2.27349e-10
-5.21271e-08
-9.38357e-11
-5.12355e-08
-3.25619e-11
-5.13239e-08
-2.97508e-10
-5.11043e-08
-1.31592e-10
-5.0861e-08
-5.58421e-11
-5.08975e-08
-7.88406e-11
-5.10398e-08
-6.90865e-11
-5.10922e-08
-9.95452e-11
-5.11989e-08
-6.63508e-11
-5.14263e-08
-8.10889e-11
-5.17487e-08
-4.275e-11
-5.21194e-08
-6.69468e-11
-5.25669e-08
-2.98851e-11
-5.30287e-08
-6.67384e-11
-5.35333e-08
-6.03347e-11
-5.39925e-08
-6.92802e-11
-5.44231e-08
-5.36697e-11
-5.48395e-08
-3.25999e-11
-5.5183e-08
-9.47322e-11
-5.55379e-08
-3.99024e-11
-5.58047e-08
-7.18764e-11
-5.61539e-08
8.78263e-11
-5.68822e-08
5.51468e-10
-6.05034e-08
3.49524e-09
-6.93748e-08
8.79889e-09
7.49079e-09
-1.17332e-08
1.6666e-08
-4.93858e-09
-1.85377e-09
-1.34104e-07
1.53689e-07
-1.96298e-08
-2.39241e-07
1.04729e-07
-2.21173e-07
-1.83789e-08
-2.11264e-07
-1.0137e-08
-2.00049e-07
-1.12863e-08
-1.84269e-07
-1.56546e-08
-1.67884e-07
-1.65287e-08
-1.5535e-07
-1.27926e-08
-1.42412e-07
-1.31208e-08
-1.32329e-07
-1.03268e-08
-1.21897e-07
-1.05493e-08
-1.1351e-07
-8.26539e-09
-1.05511e-07
-7.98271e-09
-9.86611e-08
-6.88989e-09
-9.21278e-08
-6.47917e-09
-8.59167e-08
-6.13724e-09
-7.99797e-08
-5.88546e-09
-7.45435e-08
-5.47821e-09
-6.95003e-08
-5.1021e-09
-6.49695e-08
-4.54433e-09
-6.08481e-08
-4.12427e-09
-5.70996e-08
-3.74658e-09
-5.42489e-08
-2.84217e-09
-5.11032e-08
-3.11928e-09
-4.85021e-08
-2.56626e-09
-4.58177e-08
-2.66705e-09
-4.36425e-08
-2.17958e-09
-4.14149e-08
-2.24118e-09
-3.95023e-08
-1.93925e-09
-3.76756e-08
-1.85652e-09
-3.59908e-08
-1.70383e-09
-3.44502e-08
-1.53928e-09
-3.29758e-08
-1.45971e-09
-3.17148e-08
-1.24887e-09
-3.04457e-08
-1.26175e-09
-2.93631e-08
-1.08135e-09
-2.82568e-08
-1.10929e-09
-2.72877e-08
-9.78369e-10
-2.64351e-08
-8.67734e-10
-2.56191e-08
-8.31575e-10
-2.48242e-08
-8.02583e-10
-2.41685e-08
-6.59302e-10
-2.35058e-08
-6.69279e-10
-2.29116e-08
-6.02734e-10
-2.23606e-08
-5.59193e-10
-2.17984e-08
-5.73379e-10
-2.1306e-08
-5.07439e-10
-2.10096e-08
-3.14157e-10
-2.02726e-08
-7.4904e-10
-3.61218e-09
5.41996e-08
9.94523e-08
6.58872e-08
-1.16753e-08
1.46648e-07
-8.09399e-08
1.28785e-07
1.74473e-08
1.06651e-07
2.2064e-08
8.8974e-08
1.7665e-08
7.23429e-08
1.66393e-08
5.80875e-08
1.42648e-08
4.54485e-08
1.26398e-08
3.52614e-08
1.01859e-08
2.78656e-08
7.41822e-09
2.26311e-08
5.19383e-09
1.86578e-08
4.02768e-09
1.57279e-08
2.86108e-09
1.37032e-08
2.09703e-09
1.18152e-08
1.90065e-09
1.03227e-08
1.35555e-09
9.16504e-09
1.30135e-09
8.06128e-09
9.56468e-10
7.06672e-09
1.19096e-09
6.4524e-09
6.03552e-10
5.49396e-09
9.84121e-10
4.92799e-09
6.43203e-10
4.0951e-09
8.70058e-10
3.36987e-09
8.70624e-10
3.17337e-09
1.06942e-09
1.94092e-09
5.83045e-09
1.95306e-09
3.87528e-09
2.12172e-09
2.70134e-09
2.17056e-09
9.69782e-10
1.95313e-09
-8.44984e-10
1.62975e-09
5.00327e-10
1.55943e-09
1.43584e-09
1.71395e-09
2.3992e-09
2.42889e-09
2.3627e-09
3.22501e-09
1.20344e-09
3.7005e-09
1.00186e-09
2.29033e-09
-8.13754e-10
1.3894e-09
7.94743e-10
7.53392e-10
-1.72877e-10
3.23558e-10
1.46185e-09
2.94385e-10
1.84149e-09
7.36514e-10
2.60216e-09
9.5906e-10
1.86683e-09
9.0137e-10
7.90336e-10
5.74403e-10
4.68176e-10
5.30999e-10
5.59792e-10
6.31005e-10
7.22e-10
1.06809e-09
1.46824e-09
1.42435e-09
8.23128e-10
1.65561e-09
9.33136e-10
1.78634e-09
1.12533e-09
1.82822e-09
1.51185e-09
1.86957e-09
1.62504e-09
1.94377e-09
1.48739e-09
2.07088e-09
1.37982e-09
2.17274e-09
1.34567e-09
2.22157e-09
1.22488e-09
2.26836e-09
1.2484e-09
1.89504e-09
8.4873e-10
1.65682e-09
1.06499e-09
1.53578e-09
1.22806e-09
1.51821e-09
1.50168e-09
1.58027e-09
1.68127e-09
1.65973e-09
1.66985e-09
1.72246e-09
1.69142e-09
1.85246e-09
2.18046e-09
1.98717e-09
1.87676e-09
2.00267e-09
1.6721e-09
2.05613e-09
1.72958e-09
2.15012e-09
1.53805e-09
2.17998e-09
1.36288e-09
2.2994e-09
1.57541e-09
2.39085e-09
1.5648e-09
2.42153e-09
1.53268e-09
2.41452e-09
1.56109e-09
2.38207e-09
1.53943e-09
2.32068e-09
1.52338e-09
2.33795e-09
1.47133e-09
2.38833e-09
1.44638e-09
2.41033e-09
1.48734e-09
2.39525e-09
1.54197e-09
2.3979e-09
1.8058e-09
2.44444e-09
2.15365e-09
2.58314e-09
2.40162e-09
2.54805e-09
1.79401e-09
2.61944e-09
1.98102e-09
2.65073e-09
2.09729e-09
2.65924e-09
2.06348e-09
2.67601e-09
2.00842e-09
2.68398e-09
2.03888e-09
2.57708e-09
1.86959e-09
2.27929e-09
1.97363e-09
2.68483e-09
4.30126e-09
2.99076e-09
3.50175e-09
3.35183e-09
3.41124e-09
3.90174e-09
3.24618e-09
4.38837e-09
2.8572e-09
4.6756e-09
2.49476e-09
4.82203e-09
2.40161e-09
4.92298e-09
2.44311e-09
5.0278e-09
2.45521e-09
5.11947e-09
2.43186e-09
5.25395e-09
2.47856e-09
5.41429e-09
2.43213e-09
5.51049e-09
2.25695e-09
5.78961e-09
2.48252e-09
5.58801e-09
1.5811e-09
5.62065e-09
2.1252e-09
5.87487e-09
2.37594e-09
6.13501e-09
2.31244e-09
6.51832e-09
2.09985e-09
7.06109e-09
2.35646e-09
7.71582e-09
1.97301e-09
8.20346e-09
1.97178e-09
9.16201e-09
2.07324e-09
1.06443e-08
2.46658e-09
1.38114e-08
1.12737e-09
2.59218e-08
-8.16434e-09
-2.64071e-08
6.03725e-08
1.07767e-07
-1.895e-07
1.81165e-07
1.11803e-07
-1.5713e-08
2.06308e-07
-1.75523e-07
1.94015e-07
2.98475e-08
1.83972e-07
3.21145e-08
1.66425e-07
3.52444e-08
1.40227e-07
4.28532e-08
1.15689e-07
3.88318e-08
9.76492e-08
3.06831e-08
8.10746e-08
2.67869e-08
6.68755e-08
2.16058e-08
5.68721e-08
1.51032e-08
4.86381e-08
1.23725e-08
4.2306e-08
9.1225e-09
3.72848e-08
7.17175e-09
3.2754e-08
6.44764e-09
2.88404e-08
5.07907e-09
2.59242e-08
4.37344e-09
2.28131e-08
3.93139e-09
2.0469e-08
3.72954e-09
1.84995e-08
2.64062e-09
1.63086e-08
3.14369e-09
1.46936e-08
2.33325e-09
1.2878e-08
2.72792e-09
1.10144e-08
2.91514e-09
1.04189e-08
2.25871e-09
7.36467e-09
1.24467e-08
6.0922e-09
8.92007e-09
5.89195e-09
6.03168e-09
5.82416e-09
2.69695e-09
5.45573e-09
-7.21729e-10
4.96291e-09
1.20993e-09
4.92396e-09
2.94915e-09
5.34201e-09
4.31209e-09
6.80083e-09
4.24938e-09
8.03201e-09
2.01785e-09
8.22837e-09
2.05184e-09
4.89078e-09
5.08947e-10
3.01087e-09
2.80311e-09
1.90776e-09
3.36534e-10
1.38255e-09
2.95475e-09
1.47426e-09
3.58594e-09
2.26848e-09
4.87132e-09
2.50855e-09
3.71451e-09
2.39254e-09
1.85474e-09
1.92954e-09
1.025e-09
2.08691e-09
9.5003e-10
2.4831e-09
1.3238e-09
3.53291e-09
2.22569e-09
4.326e-09
1.28057e-09
4.87377e-09
1.62287e-09
5.17218e-09
2.1457e-09
5.34336e-09
2.90369e-09
5.56099e-09
3.12411e-09
5.81592e-09
2.86161e-09
6.08121e-09
2.69824e-09
6.22068e-09
2.71618e-09
6.1956e-09
2.61187e-09
6.11641e-09
2.6521e-09
5.27652e-09
2.20779e-09
4.86438e-09
2.33613e-09
4.7104e-09
2.54272e-09
4.7836e-09
2.96571e-09
5.03422e-09
3.23298e-09
5.35992e-09
3.18133e-09
5.64482e-09
3.26318e-09
6.07912e-09
4.05276e-09
6.33933e-09
3.73117e-09
6.34486e-09
3.45918e-09
6.43787e-09
3.41848e-09
6.64737e-09
3.09552e-09
6.73256e-09
2.72609e-09
7.06458e-09
3.01231e-09
7.35757e-09
2.99852e-09
7.50012e-09
3.02407e-09
7.5174e-09
3.16553e-09
7.43951e-09
3.19776e-09
7.34892e-09
3.14427e-09
7.41756e-09
2.96135e-09
7.54824e-09
2.89152e-09
7.62847e-09
3.0012e-09
7.65339e-09
3.14182e-09
7.71321e-09
3.61007e-09
7.86653e-09
4.2927e-09
8.1477e-09
4.54185e-09
8.20737e-09
3.75948e-09
8.46788e-09
3.85008e-09
8.62987e-09
4.13737e-09
8.79525e-09
4.04627e-09
9.01179e-09
3.93427e-09
9.28139e-09
3.86467e-09
9.19995e-09
3.76591e-09
8.82032e-09
4.42901e-09
1.0181e-08
7.5064e-09
1.10391e-08
6.62591e-09
1.20418e-08
6.34898e-09
1.33006e-08
5.94388e-09
1.43322e-08
5.32379e-09
1.49879e-08
4.75418e-09
1.54039e-08
4.64996e-09
1.57276e-08
4.77405e-09
1.60484e-08
4.8082e-09
1.63264e-08
4.78805e-09
1.66656e-08
4.85068e-09
1.70145e-08
4.80243e-09
1.72311e-08
4.57707e-09
1.78181e-08
4.50353e-09
1.74441e-08
3.57402e-09
1.76882e-08
4.14562e-09
1.83619e-08
4.42689e-09
1.90816e-08
4.30129e-09
2.01274e-08
3.6679e-09
2.14235e-08
4.06675e-09
2.31626e-08
2.97038e-09
2.46412e-08
3.10167e-09
2.70891e-08
2.68721e-09
3.03267e-08
3.27292e-09
3.6617e-08
-6.9054e-10
5.05383e-08
-1.7325e-08
-5.31265e-08
8.36453e-08
-1.70023e-07
-3.90963e-08
-2.51961e-07
1.86201e-07
-2.23064e-07
-4.74735e-08
-2.20581e-07
-1.27245e-08
-2.11594e-07
-2.03225e-08
-1.99892e-07
-2.72305e-08
-1.8696e-07
-2.96103e-08
-1.76856e-07
-2.31375e-08
-1.66739e-07
-2.3445e-08
-1.58317e-07
-1.90323e-08
-1.49905e-07
-1.90411e-08
-1.42657e-07
-1.54322e-08
-1.359e-07
-1.46616e-08
-1.29458e-07
-1.33483e-08
-1.23703e-07
-1.22147e-08
-1.17988e-07
-1.17519e-08
-1.13296e-07
-1.05392e-08
-1.08338e-07
-1.04763e-08
-1.03928e-07
-9.57018e-09
-9.90266e-08
-9.46141e-09
-9.60896e-08
-7.06403e-09
-9.25459e-08
-7.28995e-09
-8.95769e-08
-5.80249e-09
-8.60763e-08
-6.59211e-09
-8.29718e-08
-5.63414e-09
-7.99707e-08
-5.64923e-09
-7.74547e-08
-4.69991e-09
-7.47116e-08
-4.99801e-09
-7.25079e-08
-4.17114e-09
-7.01165e-08
-4.27758e-09
-6.80638e-08
-3.77515e-09
-6.60455e-08
-3.55662e-09
-6.42237e-08
-3.26609e-09
-6.26008e-08
-2.85872e-09
-6.07838e-08
-3.06992e-09
-5.91833e-08
-2.68055e-09
-5.7525e-08
-2.77068e-09
-5.60633e-08
-2.44875e-09
-5.47466e-08
-2.20006e-09
-5.34299e-08
-2.16407e-09
-5.2139e-08
-2.10122e-09
-5.10074e-08
-1.79427e-09
-4.97706e-08
-1.91293e-09
-4.85728e-08
-1.80839e-09
-4.73513e-08
-1.78969e-09
-4.59608e-08
-1.97522e-09
-4.44143e-08
-2.0694e-09
-4.26928e-08
-2.05403e-09
-4.01791e-08
-3.27517e-09
-3.5522e-08
-8.27494e-09
-3.12754e-08
-9.191e-09
-3.07774e-08
-2.35932e-09
-3.38186e-08
4.91902e-09
-3.69829e-08
5.27282e-09
-3.86716e-08
2.70435e-09
-4.01142e-08
2.23508e-09
-4.12357e-08
1.61781e-09
-4.20314e-08
1.01963e-09
-4.2686e-08
6.65138e-10
-4.33309e-08
4.61436e-10
-4.40291e-08
3.19137e-10
-4.49235e-08
2.50372e-10
-4.60835e-08
2.03545e-10
-4.75711e-08
1.77286e-10
-4.94725e-08
1.48323e-10
-5.17488e-08
1.17244e-10
-5.43469e-08
9.54971e-11
-5.73227e-08
-3.88798e-11
-6.06711e-08
-1.07432e-10
-6.43272e-08
-1.97183e-10
-6.81731e-08
-1.39689e-10
-7.21593e-08
-1.08475e-10
-7.62978e-08
-2.30409e-10
-8.04242e-08
-2.19635e-10
-8.43977e-08
-2.12335e-10
-8.81305e-08
-2.74689e-10
-9.161e-08
-3.83864e-10
-9.4917e-08
-4.62716e-10
-9.82401e-08
-3.60531e-10
-1.02996e-07
-4.37984e-10
-1.07174e-07
-1.19915e-09
-1.06329e-07
3.23839e-10
-1.0672e-07
-3.53228e-10
-1.08127e-07
-4.67863e-10
-1.088e-07
-5.71939e-10
-1.08605e-07
-3.2557e-10
-1.09025e-07
-4.56651e-10
-1.09143e-07
-2.89032e-10
-1.08993e-07
-2.89272e-10
-1.08744e-07
-2.12988e-10
-1.08241e-07
-2.06788e-10
-1.07665e-07
-2.06035e-10
-1.07014e-07
-2.43003e-10
-1.06331e-07
-2.60586e-10
-1.05484e-07
-3.25442e-10
-1.04467e-07
-3.41894e-10
-1.03288e-07
-2.78246e-10
-1.02009e-07
-2.52264e-10
-1.00601e-07
-1.71047e-10
-9.85991e-08
-8.36356e-11
-9.57188e-08
6.64297e-10
-9.63351e-08
-5.27683e-10
-9.62499e-08
-2.44348e-10
-9.57095e-08
-2.7016e-10
-9.49232e-08
-3.72265e-11
-9.40289e-08
-4.93456e-11
-9.4375e-08
-3.35134e-10
-9.43107e-08
-1.02127e-10
-9.42163e-08
4.64888e-11
-9.44365e-08
2.28645e-11
-9.47173e-08
-5.00631e-12
-9.48644e-08
-1.07798e-10
-9.50675e-08
-4.28146e-11
-9.53873e-08
-7.90056e-11
-9.58073e-08
-1.1643e-12
-9.62782e-08
-4.74728e-11
-9.68339e-08
3.17187e-11
-9.74131e-08
-3.38868e-11
-9.80413e-08
-1.64411e-11
-9.86184e-08
-3.85821e-11
-9.91491e-08
-2.35602e-11
-9.96356e-08
-9.65329e-12
-1.00034e-07
-1.48537e-10
-1.00442e-07
-3.95281e-11
-1.00764e-07
-9.5846e-11
-1.01113e-07
1.68863e-10
-1.01457e-07
7.1549e-10
-1.02399e-07
4.31111e-09
-1.03773e-07
1.00996e-08
9.04729e-09
-4.61086e-08
4.33834e-08
7.63282e-09
-4.86539e-08
7.79532e-09
-5.02635e-08
4.26804e-09
-5.1683e-08
3.56795e-09
-5.27418e-08
2.53634e-09
-5.35073e-08
1.60819e-09
-5.41408e-08
1.03541e-09
-5.47608e-08
7.08313e-10
-5.54343e-08
4.75936e-10
-5.6313e-08
3.6318e-10
-5.74668e-08
3.08948e-10
-5.89615e-08
2.69779e-10
-6.0883e-08
2.32115e-10
-6.31846e-08
2.11626e-10
-6.58236e-08
1.57439e-10
-6.88609e-08
-2.16782e-11
-7.22909e-08
-8.7067e-11
-7.60425e-08
-1.71906e-10
-7.99908e-08
-8.50871e-11
-8.40888e-08
-2.86088e-11
-8.83427e-08
-1.81022e-10
-9.25917e-08
-1.29653e-10
-9.66735e-08
-1.13619e-10
-1.00496e-07
-2.14121e-10
-1.04066e-07
-3.51888e-10
-1.07469e-07
-4.4049e-10
-1.10907e-07
-2.65485e-10
-1.15873e-07
-3.20491e-10
-1.20257e-07
-1.13686e-09
-1.19294e-07
4.64796e-10
-1.19638e-07
-3.07196e-10
-1.2108e-07
-4.37838e-10
-1.21744e-07
-5.90706e-10
-1.21498e-07
-3.13315e-10
-1.21903e-07
-4.25374e-10
-1.21989e-07
-2.21915e-10
-1.21793e-07
-2.40305e-10
-1.21503e-07
-1.16341e-10
-1.20957e-07
-1.14552e-10
-1.20346e-07
-1.0227e-10
-1.19649e-07
-1.79507e-10
-1.18907e-07
-2.46054e-10
-1.17996e-07
-3.60942e-10
-1.16919e-07
-3.76873e-10
-1.15684e-07
-2.85527e-10
-1.14351e-07
-2.34543e-10
-1.12897e-07
-1.20266e-10
-1.10814e-07
-3.80675e-12
-1.07746e-07
7.36104e-10
-1.08417e-07
-5.1681e-10
-1.08342e-07
-2.56331e-10
-1.07776e-07
-3.17278e-10
-1.06973e-07
2.35962e-11
-1.06034e-07
-9.19777e-11
-1.06412e-07
-3.44618e-10
-1.06354e-07
-6.70824e-11
-1.06264e-07
1.55899e-10
-1.0652e-07
1.5073e-10
-1.06826e-07
7.61412e-11
-1.06981e-07
-1.16817e-10
-1.07175e-07
-3.98862e-11
-1.0748e-07
-1.062e-10
-1.07903e-07
2.66808e-11
-1.08354e-07
-6.62937e-11
-1.08887e-07
4.86963e-11
-1.09471e-07
-1.8154e-11
-1.10135e-07
3.93678e-11
-1.10743e-07
1.10959e-12
-1.11274e-07
-1.49173e-11
-1.11747e-07
-2.02062e-11
-1.12156e-07
-2.1154e-10
-1.12631e-07
1.33102e-11
-1.1304e-07
-4.86722e-11
-1.13427e-07
2.7816e-10
-1.13636e-07
7.36546e-10
-1.13689e-07
4.23204e-09
-1.13288e-07
9.6222e-09
8.74647e-09
-4.22955e-08
4.43124e-08
-1.12138e-08
-1.27925e-09
-1.91993e-07
1.95706e-07
-4.28518e-08
-2.44199e-07
2.38734e-07
-2.2554e-07
-6.53132e-08
-2.20326e-07
-1.78766e-08
-2.13544e-07
-2.69292e-08
-2.01666e-07
-3.89873e-08
-1.90345e-07
-4.0779e-08
-1.80606e-07
-3.30582e-08
-1.71371e-07
-3.2838e-08
-1.63511e-07
-2.71279e-08
-1.55833e-07
-2.67838e-08
-1.49079e-07
-2.20648e-08
-1.42963e-07
-2.06897e-08
-1.37124e-07
-1.92119e-08
-1.31965e-07
-1.73164e-08
-1.26879e-07
-1.68244e-08
-1.22575e-07
-1.48445e-08
-1.17965e-07
-1.51331e-08
-1.13978e-07
-1.36089e-08
-1.09789e-07
-1.36681e-08
-1.06395e-07
-1.04608e-08
-1.02948e-07
-1.07369e-08
-1.00314e-07
-8.4286e-09
-9.7011e-08
-9.86651e-09
-9.43143e-08
-8.29299e-09
-9.12453e-08
-8.70174e-09
-8.89917e-08
-6.95668e-09
-8.62715e-08
-7.73275e-09
-8.43649e-08
-6.10137e-09
-8.17253e-08
-6.94649e-09
-7.98355e-08
-5.68304e-09
-7.7625e-08
-5.76626e-09
-7.59699e-08
-4.90526e-09
-7.44228e-08
-4.3918e-09
-7.24757e-08
-5.00777e-09
-7.07582e-08
-4.39517e-09
-6.89641e-08
-4.56745e-09
-6.7418e-08
-4.0018e-09
-6.60194e-08
-3.61223e-09
-6.45658e-08
-3.63384e-09
-6.31441e-08
-3.53074e-09
-6.18549e-08
-3.08675e-09
-6.0347e-08
-3.42689e-09
-5.88164e-08
-3.34706e-09
-5.72021e-08
-3.41373e-09
-5.53831e-08
-3.80641e-09
-5.33619e-08
-4.10685e-09
-5.10392e-08
-4.3956e-09
-4.80619e-08
-6.26525e-09
-1.20303e-08
1.48133e-07
2.28641e-07
1.41014e-07
-8.65504e-09
2.16917e-07
-2.51374e-07
2.10946e-07
3.60546e-08
2.08758e-07
3.43713e-08
2.00927e-07
4.31333e-08
1.83662e-07
6.01078e-08
1.66121e-07
5.64173e-08
1.45982e-07
5.08187e-08
1.26042e-07
4.67444e-08
1.07819e-07
3.9911e-08
9.19709e-08
3.07127e-08
7.82532e-08
2.63902e-08
6.75548e-08
1.9627e-08
5.86091e-08
1.62256e-08
5.15895e-08
1.34021e-08
4.5509e-08
1.10121e-08
4.12591e-08
8.80446e-09
3.64708e-08
8.52167e-09
3.30968e-08
7.31881e-09
3.0033e-08
5.82075e-09
2.67871e-08
6.34929e-09
2.4427e-08
4.74811e-09
2.20022e-08
5.2157e-09
1.91819e-08
5.99984e-09
1.77016e-08
3.96091e-09
1.55359e-08
1.67424e-08
1.17274e-08
1.58834e-08
1.00182e-08
1.1006e-08
9.39065e-09
5.87087e-09
8.87988e-09
8.60656e-10
8.1705e-09
2.34298e-09
8.07445e-09
4.73533e-09
8.72786e-09
5.90052e-09
1.04276e-08
5.96971e-09
1.17683e-08
2.67137e-09
1.13315e-08
3.51833e-09
6.73192e-09
3.44129e-09
4.31586e-09
5.35442e-09
3.08756e-09
1.25516e-09
2.65448e-09
4.19943e-09
2.85261e-09
5.1711e-09
3.89478e-09
6.81462e-09
4.19079e-09
5.39102e-09
4.15678e-09
3.10469e-09
3.70776e-09
1.57703e-09
4.05916e-09
1.21978e-09
4.68014e-09
1.83662e-09
6.16504e-09
2.40525e-09
7.29331e-09
1.50035e-09
8.09841e-09
2.15305e-09
8.55781e-09
3.0832e-09
8.85675e-09
4.17056e-09
9.25683e-09
4.47363e-09
9.68691e-09
4.13322e-09
1.00587e-08
3.98965e-09
1.02189e-08
4.13521e-09
1.01295e-08
4.17596e-09
9.92958e-09
4.18429e-09
8.84021e-09
3.76767e-09
8.35268e-09
3.72388e-09
8.21805e-09
3.91121e-09
8.40265e-09
4.37496e-09
8.86462e-09
4.63565e-09
9.48095e-09
4.49148e-09
1.00547e-08
4.6821e-09
1.0824e-08
5.59412e-09
1.11777e-08
5.56747e-09
1.12079e-08
5.30455e-09
1.13339e-08
5.11833e-09
1.16202e-08
4.6833e-09
1.17715e-08
4.11402e-09
1.2313e-08
4.31273e-09
1.28156e-08
4.2947e-09
1.30973e-08
4.45597e-09
1.31878e-08
4.77036e-09
1.31366e-08
4.89327e-09
1.30923e-08
4.79589e-09
1.32621e-08
4.4287e-09
1.35249e-08
4.29657e-09
1.37276e-08
4.49171e-09
1.38517e-08
4.7904e-09
1.40166e-08
5.31836e-09
1.4267e-08
6.37801e-09
1.45852e-08
6.53432e-09
1.50369e-08
5.6012e-09
1.55215e-08
5.55954e-09
1.59119e-08
5.99368e-09
1.63303e-08
5.84537e-09
1.68455e-08
5.64993e-09
1.73473e-08
5.53892e-09
1.74264e-08
5.60858e-09
1.72934e-08
7.064e-09
1.9422e-08
9.75208e-09
2.07938e-08
9.40957e-09
2.23634e-08
8.8912e-09
2.41865e-08
8.23142e-09
2.56869e-08
7.47117e-09
2.67036e-08
6.78985e-09
2.74209e-08
6.71212e-09
2.80016e-08
6.95577e-09
2.85598e-08
7.02786e-09
2.91069e-08
7.00774e-09
2.96573e-08
7.07401e-09
3.02099e-08
7.03165e-09
3.06561e-08
6.91132e-09
3.12463e-08
6.48535e-09
3.11001e-08
5.44269e-09
3.15902e-08
6.01217e-09
3.26735e-08
6.13519e-09
3.3812e-08
6.00207e-09
3.54293e-08
4.80794e-09
3.72734e-08
5.26591e-09
3.98251e-08
3.25195e-09
4.20712e-08
3.61928e-09
4.55067e-08
2.27329e-09
4.96871e-08
3.10959e-09
5.79325e-08
-4.2293e-09
7.10295e-08
-2.4468e-08
-6.66872e-08
9.13159e-08
1.86715e-07
-2.2541e-07
2.67208e-07
1.71568e-07
6.39747e-09
2.18061e-07
-2.9776e-07
2.18163e-07
3.61442e-08
2.1388e-07
3.87135e-08
2.10601e-07
4.64146e-08
1.99969e-07
7.07439e-08
1.88726e-07
6.76799e-08
1.75668e-07
6.38719e-08
1.61829e-07
6.05688e-08
1.46764e-07
5.50257e-08
1.2988e-07
4.74811e-08
1.1417e-07
4.21607e-08
1.00496e-07
3.33185e-08
8.85189e-08
2.81772e-08
7.70597e-08
2.47633e-08
6.70586e-08
2.08213e-08
5.91961e-08
1.67805e-08
5.174e-08
1.58705e-08
4.64662e-08
1.28519e-08
4.17099e-08
1.06934e-08
3.75368e-08
1.05247e-08
3.41594e-08
8.08316e-09
3.12189e-08
8.30505e-09
2.76153e-08
9.9833e-09
2.44458e-08
7.05964e-09
2.48346e-08
1.76511e-08
1.96678e-08
2.34367e-08
1.56519e-08
1.78405e-08
1.35807e-08
1.11412e-08
1.22715e-08
4.88567e-09
1.12696e-08
4.48946e-09
1.10049e-08
6.93546e-09
1.17639e-08
7.42374e-09
1.34347e-08
7.59438e-09
1.47973e-08
3.32042e-09
1.36561e-08
5.63851e-09
8.23285e-09
7.46774e-09
5.55235e-09
8.38024e-09
4.35292e-09
2.4952e-09
4.04489e-09
5.09445e-09
4.32074e-09
6.63062e-09
5.64982e-09
8.27756e-09
6.14328e-09
6.74153e-09
6.10568e-09
4.41428e-09
5.76333e-09
2.23547e-09
6.23334e-09
1.47596e-09
7.11987e-09
2.13305e-09
8.91834e-09
2.19819e-09
1.03417e-08
1.52934e-09
1.13689e-08
2.56939e-09
1.19715e-08
3.96509e-09
1.23944e-08
5.33795e-09
1.29605e-08
5.66437e-09
1.35698e-08
5.3016e-09
1.40769e-08
5.23253e-09
1.43081e-08
5.56682e-09
1.41988e-08
5.90291e-09
1.39179e-08
5.90663e-09
1.27173e-08
5.39136e-09
1.21967e-08
5.2075e-09
1.20985e-08
5.33664e-09
1.23859e-08
5.74171e-09
1.30481e-08
5.90864e-09
1.39557e-08
5.59166e-09
1.49048e-08
5.85754e-09
1.59712e-08
6.85276e-09
1.64682e-08
7.3341e-09
1.6613e-08
7.10502e-09
1.67855e-08
6.86446e-09
1.71267e-08
6.30699e-09
1.7395e-08
5.47399e-09
1.81498e-08
5.47394e-09
1.88708e-08
5.44048e-09
1.93211e-08
5.7972e-09
1.95264e-08
6.32866e-09
1.95762e-08
6.56195e-09
1.96472e-08
6.4154e-09
1.99647e-08
5.83197e-09
2.0422e-08
5.59722e-09
2.08099e-08
5.89246e-09
2.11076e-08
6.42491e-09
2.14662e-08
6.90504e-09
2.19157e-08
8.18685e-09
2.24596e-08
8.24278e-09
2.31135e-08
7.42034e-09
2.38458e-08
7.15407e-09
2.44801e-08
7.62383e-09
2.51724e-08
7.44223e-09
2.59541e-08
7.15903e-09
2.66762e-08
7.0932e-09
2.69279e-08
7.48762e-09
2.74946e-08
9.28736e-09
3.00418e-08
1.16438e-08
3.19385e-08
1.18656e-08
3.40696e-08
1.10426e-08
3.64362e-08
1.01214e-08
3.84095e-08
9.28745e-09
3.98031e-08
8.57975e-09
4.08494e-08
8.55153e-09
4.17373e-08
8.93113e-09
4.25711e-08
9.07165e-09
4.34694e-08
8.98509e-09
4.43228e-08
9.09614e-09
4.51618e-08
8.99851e-09
4.58938e-08
8.97823e-09
4.64509e-08
8.72627e-09
4.65487e-08
7.15742e-09
4.72471e-08
7.73592e-09
4.86917e-08
7.54336e-09
5.01693e-08
7.49553e-09
5.2266e-08
5.64295e-09
5.4475e-08
6.12974e-09
5.74888e-08
3.22911e-09
6.02653e-08
3.81239e-09
6.42698e-08
1.24918e-09
6.87764e-08
2.57189e-09
7.87773e-08
-9.09747e-09
8.74925e-08
-2.58257e-08
-8.09481e-08
1.0997e-07
-2.14474e-07
-5.37419e-08
-2.39951e-07
2.64594e-07
-2.24217e-07
-8.01519e-08
-2.18662e-07
-2.31296e-08
-2.12762e-07
-3.26692e-08
-2.01541e-07
-5.01241e-08
-1.9095e-07
-5.1293e-08
-1.81755e-07
-4.23218e-08
-1.72977e-07
-4.18566e-08
-1.65481e-07
-3.45093e-08
-1.5816e-07
-3.40878e-08
-1.517e-07
-2.83628e-08
-1.45953e-07
-2.65e-08
-1.40335e-07
-2.4866e-08
-1.35427e-07
-2.23031e-08
-1.30498e-07
-2.17345e-08
-1.26343e-07
-1.90291e-08
-1.2185e-07
-1.96616e-08
-1.17889e-07
-1.76027e-08
-1.13736e-07
-1.78428e-08
-1.10431e-07
-1.37714e-08
-1.0711e-07
-1.4059e-08
-1.04541e-07
-1.09926e-08
-1.01316e-07
-1.30696e-08
-9.86607e-08
-1.09094e-08
-9.56081e-08
-1.17369e-08
-9.34326e-08
-9.13635e-09
-9.07959e-08
-1.03829e-08
-8.88636e-08
-8.06061e-09
-8.62516e-08
-9.58696e-09
-8.43581e-08
-7.59394e-09
-8.20986e-08
-8.02293e-09
-8.05339e-08
-6.45385e-09
-7.90432e-08
-5.86668e-09
-7.70407e-08
-7.00133e-09
-7.52798e-08
-6.15302e-09
-7.34316e-08
-6.41772e-09
-7.18624e-08
-5.57681e-09
-7.04541e-08
-5.03489e-09
-6.89558e-08
-5.14826e-09
-6.74929e-08
-5.00195e-09
-6.61588e-08
-4.42383e-09
-6.45316e-08
-5.0594e-09
-6.2857e-08
-5.02934e-09
-6.10935e-08
-5.18756e-09
-5.91164e-08
-5.79643e-09
-5.69563e-08
-6.2842e-09
-5.4547e-08
-6.82421e-09
-5.17044e-08
-9.12088e-09
-4.87007e-08
-1.50403e-08
-4.7592e-08
-1.23283e-08
-4.92691e-08
3.89306e-10
-5.18719e-08
1.02236e-08
-5.373e-08
9.62938e-09
-5.5197e-08
5.68711e-09
-5.6604e-08
4.88522e-09
-5.74865e-08
3.27273e-09
-5.81607e-08
2.10097e-09
-5.87504e-08
1.34698e-09
-5.93481e-08
9.2033e-10
-6.00081e-08
5.99157e-10
-6.08828e-08
4.42434e-10
-6.20445e-08
3.81734e-10
-6.35623e-08
3.36565e-10
-6.55261e-08
2.89829e-10
-6.78852e-08
2.77443e-10
-7.05891e-08
1.93498e-10
-7.36956e-08
-3.06792e-11
-7.72204e-08
-9.85464e-11
-8.10772e-08
-1.89075e-10
-8.51433e-08
-5.95222e-11
-8.93664e-08
-6.92409e-12
-9.37561e-08
-1.43584e-10
-9.81322e-08
-6.90074e-11
-1.02329e-07
-4.83662e-11
-1.06263e-07
-1.78423e-10
-1.0993e-07
-3.52477e-10
-1.1342e-07
-4.44921e-10
-1.16936e-07
-2.24746e-10
-1.22062e-07
-2.46646e-10
-1.26582e-07
-9.76797e-10
-1.25599e-07
5.41144e-10
-1.25913e-07
-2.81959e-10
-1.27378e-07
-4.59795e-10
-1.28019e-07
-6.18894e-10
-1.27736e-07
-3.36995e-10
-1.28121e-07
-4.15283e-10
-1.28178e-07
-1.85899e-10
-1.27952e-07
-2.18491e-10
-1.27612e-07
-6.40344e-11
-1.27006e-07
-8.50895e-11
-1.26342e-07
-3.55212e-11
-1.25588e-07
-1.45975e-10
-1.248e-07
-2.48551e-10
-1.23843e-07
-4.16109e-10
-1.22706e-07
-4.27182e-10
-1.21405e-07
-3.14119e-10
-1.19997e-07
-2.42181e-10
-1.18452e-07
-1.05437e-10
-1.16253e-07
5.0146e-11
-1.13048e-07
7.55384e-10
-1.137e-07
-4.81259e-10
-1.13601e-07
-3.07839e-10
-1.12986e-07
-3.83636e-10
-1.12137e-07
5.93461e-11
-1.1115e-07
-1.59261e-10
-1.1153e-07
-3.55941e-10
-1.11462e-07
-4.41122e-11
-1.11344e-07
2.41525e-10
-1.11598e-07
2.65914e-10
-1.11905e-07
1.54423e-10
-1.12043e-07
-1.50498e-10
-1.1221e-07
-7.67724e-11
-1.12496e-07
-1.65848e-10
-1.12929e-07
4.84058e-11
-1.13396e-07
-8.89826e-11
-1.13942e-07
5.98047e-11
-1.14521e-07
-3.06329e-11
-1.15186e-07
7.24433e-11
-1.15824e-07
4.98509e-11
-1.16396e-07
1.43698e-11
-1.16895e-07
-2.39483e-11
-1.17309e-07
-2.90028e-10
-1.17792e-07
5.62634e-11
-1.18229e-07
8.00406e-12
-1.18635e-07
3.96593e-10
-1.18832e-07
7.38222e-10
-1.18734e-07
3.99579e-09
-1.18118e-07
8.92593e-09
8.21758e-09
-5.50435e-08
5.28229e-08
1.24311e-08
-5.64568e-08
1.10173e-08
-5.78701e-08
7.05044e-09
-5.92199e-08
6.14238e-09
-6.01418e-08
4.04554e-09
-6.08265e-08
2.59756e-09
-6.13914e-08
1.6246e-09
-6.1976e-08
1.10325e-09
-6.26363e-08
7.02228e-10
-6.35277e-08
5.09164e-10
-6.47191e-08
4.44679e-10
-6.62803e-08
3.92179e-10
-6.83065e-08
3.52389e-10
-7.074e-08
3.43305e-10
-7.35289e-08
2.02098e-10
-7.67407e-08
-6.74291e-11
-8.03836e-08
-1.22739e-10
-8.43812e-08
-1.43958e-10
-8.8585e-08
-2.04581e-11
-9.29491e-08
5.71102e-12
-9.74758e-08
-1.26378e-10
-1.0201e-07
-1.23523e-11
-1.06359e-07
2.02362e-11
-1.10407e-07
-1.72634e-10
-1.14194e-07
-3.65223e-10
-1.17808e-07
-4.47711e-10
-1.21487e-07
-1.41724e-10
-1.26835e-07
-1.5337e-10
-1.31432e-07
-8.03674e-10
-1.30443e-07
5.43706e-10
-1.30738e-07
-3.18996e-10
-1.32256e-07
-5.13247e-10
-1.32904e-07
-6.11877e-10
-1.3262e-07
-3.65165e-10
-1.33008e-07
-4.01777e-10
-1.33048e-07
-1.62825e-10
-1.32782e-07
-2.33294e-10
-1.32429e-07
1.02075e-11
-1.31807e-07
-5.29148e-11
-1.31139e-07
5.14907e-11
-1.30366e-07
-9.92959e-11
-1.29527e-07
-2.68779e-10
-1.2851e-07
-5.06762e-10
-1.27309e-07
-5.00671e-10
-1.25951e-07
-3.62759e-10
-1.24485e-07
-2.47688e-10
-1.22883e-07
-9.05455e-11
-1.20586e-07
9.77007e-11
-1.17289e-07
7.50379e-10
-1.17923e-07
-4.38314e-10
-1.17833e-07
-3.65282e-10
-1.17188e-07
-4.47667e-10
-1.16308e-07
8.43988e-11
-1.15292e-07
-2.26726e-10
-1.15664e-07
-3.68432e-10
-1.15586e-07
-3.51788e-11
-1.15464e-07
3.29132e-10
-1.1573e-07
3.82981e-10
-1.16035e-07
2.29791e-10
-1.16177e-07
-1.88782e-10
-1.16371e-07
-1.01185e-10
-1.16669e-07
-2.24471e-10
-1.17118e-07
6.37381e-11
-1.17579e-07
-1.33852e-10
-1.18124e-07
4.9394e-11
-1.18737e-07
-2.71948e-11
-1.19452e-07
1.32991e-10
-1.20109e-07
9.67647e-11
-1.20661e-07
6.11502e-12
-1.2114e-07
-6.61441e-11
-1.21565e-07
-3.76508e-10
-1.22113e-07
1.51531e-10
-1.22581e-07
9.14995e-11
-1.23022e-07
5.42847e-10
-1.23263e-07
7.77667e-10
-1.23106e-07
3.694e-09
-1.22459e-07
8.19479e-09
7.68342e-09
-5.10958e-08
5.18172e-08
-1.30559e-08
2.10743e-09
-2.35846e-07
2.51218e-07
-6.8996e-08
-2.32395e-07
2.61229e-07
-2.25422e-07
-8.73756e-08
-2.14353e-07
-3.37109e-08
-2.1039e-07
-3.67138e-08
-1.99443e-07
-6.1318e-08
-1.90257e-07
-6.06538e-08
-1.81491e-07
-5.08627e-08
-1.7354e-07
-4.99003e-08
-1.66343e-07
-4.15604e-08
-1.59529e-07
-4.07645e-08
-1.53162e-07
-3.46622e-08
-1.4773e-07
-3.19273e-08
-1.42216e-07
-3.04345e-08
-1.37492e-07
-2.70595e-08
-1.32736e-07
-2.65541e-08
-1.28731e-07
-2.30871e-08
-1.24432e-07
-2.40253e-08
-1.20492e-07
-2.15415e-08
-1.16226e-07
-2.21283e-08
-1.12978e-07
-1.70254e-08
-1.09888e-07
-1.71499e-08
-1.07359e-07
-1.35189e-08
-1.04195e-07
-1.62122e-08
-1.01486e-07
-1.35955e-08
-9.84621e-08
-1.47476e-08
-9.62735e-08
-1.13244e-08
-9.36737e-08
-1.29967e-08
-9.17473e-08
-1.00079e-08
-8.91606e-08
-1.21953e-08
-8.7194e-08
-9.57751e-09
-8.49419e-08
-1.02713e-08
-8.33763e-08
-8.00303e-09
-8.19205e-08
-7.30587e-09
-7.98802e-08
-9.03191e-09
-7.80834e-08
-7.94603e-09
-7.61982e-08
-8.30286e-09
-7.45965e-08
-7.18339e-09
-7.31926e-08
-6.45363e-09
-7.16644e-08
-6.69086e-09
-7.0168e-08
-6.50429e-09
-6.88184e-08
-5.77475e-09
-6.71438e-08
-6.73883e-09
-6.54005e-08
-6.78067e-09
-6.35797e-08
-7.01906e-09
-6.15242e-08
-7.86525e-09
-5.93009e-08
-8.52548e-09
-5.69219e-08
-9.22269e-09
-5.4313e-08
-1.17429e-08
-1.75427e-08
2.25907e-07
2.92348e-07
2.04165e-07
2.80378e-08
2.19861e-07
-3.13464e-07
2.18424e-07
3.76378e-08
2.1469e-07
4.24768e-08
2.11763e-07
4.93592e-08
2.02684e-07
7.98e-08
1.93991e-07
7.6387e-08
1.85019e-07
7.28547e-08
1.75323e-07
7.02527e-08
1.6504e-07
6.53724e-08
1.53163e-07
5.92534e-08
1.41862e-07
5.34964e-08
1.29045e-07
4.62046e-08
1.16822e-07
4.03948e-08
1.05555e-07
3.60952e-08
9.44675e-08
3.15255e-08
8.36671e-08
2.78547e-08
7.32701e-08
2.62768e-08
6.5224e-08
2.1155e-08
5.68416e-08
1.90357e-08
5.12071e-08
1.61515e-08
4.60678e-08
1.32207e-08
4.16182e-08
1.26397e-08
3.70943e-08
1.49443e-08
3.21117e-08
1.15373e-08
3.35096e-08
1.73767e-08
2.96173e-08
2.87278e-08
2.4051e-08
2.5291e-08
1.95954e-08
1.85986e-08
1.65719e-08
1.16127e-08
1.48306e-08
8.2635e-09
1.37348e-08
1.00974e-08
1.42781e-08
9.27171e-09
1.59588e-08
9.19725e-09
1.74334e-08
4.24105e-09
1.56128e-08
8.6701e-09
9.63533e-09
1.22999e-08
6.82474e-09
1.17355e-08
5.72127e-09
3.91164e-09
5.50527e-09
5.64649e-09
5.8501e-09
7.9857e-09
7.44157e-09
9.04531e-09