/*--------------------------------*- C++ -*----------------------------------*\
| =========                 |                                                 |
| \\      /  F ield         | OpenFOAM: The Open Source CFD Toolbox           |
|  \\    /   O peration     | Version:  2212                                  |
|   \\  /    A nd           | Website:  www.openfoam.com                      |
|    \\/     M anipulation  |                                                 |
\*---------------------------------------------------------------------------*/
FoamFile
{
    version     2.0;
    format      ascii;
    arch        "LSB;label=32;scalar=64";
    class       volVectorField;
    location    "0.0684";
    object      U;
}
// * * * * * * * * * * * * * * * * * * * * * * * * * * * * * * * * * * * * * //

dimensions      [0 1 -1 0 0 0 0];

internalField   nonuniform List<vector> 
31661
(
(-79.4478 111.719 4.57133e-16)
(102.748 726.216 -1.34172e-17)
(97.6965 717.39 1.81613e-17)
(101.278 722.217 0)
(106.665 725.874 2.67994e-17)
(103.301 717.843 -3.64778e-17)
(105.984 722.232 -2.25104e-17)
(110.262 725.339 0)
(108.447 717.962 2.69525e-17)
(110.304 722.041 -3.94712e-20)
(-157.924 150.088 0)
(-181.262 670.765 -1.44479e-16)
(29.4214 24.7036 -1.17484e-16)
(0.318721 286.074 0)
(30.3524 141.264 1.99458e-16)
(70.4589 151.859 1.31015e-18)
(31.6475 131.403 0)
(-74.2162 135.285 -1.17573e-16)
(236.808 644.579 0)
(71.3619 159.602 0)
(210.045 565.154 5.83593e-17)
(205.304 565.936 -1.49129e-16)
(4.29509 399.345 -1.0778e-18)
(-103.218 201.725 3.59255e-17)
(-130.366 710.742 -1.214e-16)
(211.965 561.628 0)
(1.52281 383.941 -3.1884e-18)
(31.6607 442.488 -6.2596e-17)
(-175.515 670.918 1.57961e-16)
(111.962 674.336 -7.94625e-17)
(-98.0491 207.525 -4.00059e-16)
(-69.7522 175.552 1.42724e-16)
(-84.1542 214.619 -7.43494e-17)
(245.642 627.195 8.14666e-17)
(-67.3904 619.268 -2.74346e-17)
(-84.6389 223.181 7.50772e-17)
(274.332 597.393 -2.39569e-16)
(-80.2128 223.322 -1.53678e-17)
(-16.07 430.082 -1.51724e-16)
(-114.947 290.965 -3.82762e-19)
(119.516 376.239 -2.22971e-16)
(90.8369 730.167 9.36382e-20)
(45.7715 237.717 1.54174e-16)
(18.9614 596.508 -2.03616e-16)
(17.4498 590.59 -2.13279e-16)
(173.244 660.216 -9.70867e-17)
(23.3568 593.622 -1.024e-16)
(215.496 599.882 -1.04288e-16)
(277.971 599.049 0)
(1.4152 371.761 0)
(139.489 461.927 0)
(-3.68091 399.313 -2.88848e-17)
(-169.904 653.012 -4.78482e-17)
(230.505 601.373 9.45871e-17)
(48.8813 468.472 -1.18323e-16)
(-214.026 659.013 7.94315e-17)
(-183.038 646.667 -9.53834e-17)
(-155.92 641.674 -5.04981e-17)
(13.0374 629.517 -1.46167e-16)
(-213.011 652.622 -2.08703e-16)
(-186.15 661.213 1.70747e-16)
(-197.681 660.233 0)
(-94.3398 603.166 -2.25518e-16)
(-60.7987 747.479 0)
(-264.789 594.557 0)
(129.847 239.41 0)
(-83.3942 51.503 2.69314e-16)
(12.4216 641.41 4.63553e-17)
(11.9628 654.545 9.53487e-18)
(13.6269 666.961 6.96631e-17)
(-185.377 675.98 -6.85866e-17)
(12.2273 682.743 -1.80844e-17)
(10.242 694.455 0)
(8.68401 705.304 4.41801e-18)
(7.63002 714.909 3.46446e-17)
(6.77691 723.805 -3.32559e-17)
(5.99993 731.672 0)
(5.2883 738.69 0)
(4.62611 744.759 0)
(4.03086 750.005 0)
(3.51679 754.418 -1.94769e-18)
(3.07761 758.099 -1.92447e-17)
(2.72796 761.098 1.54819e-17)
(2.46465 763.515 -3.84797e-18)
(4.12315 762.915 1.92595e-17)
(5.63507 760.412 1.64201e-19)
(7.40108 757.315 -1.53966e-17)
(9.46105 753.533 3.90254e-18)
(11.7811 749.025 0)
(14.4036 743.722 1.00894e-18)
(17.2396 737.616 0)
(20.3348 730.657 -3.39255e-17)
(23.5356 722.884 3.26353e-17)
(26.9775 714.224 -1.0795e-18)
(30.2058 704.901 3.89376e-17)
(33.8471 694.899 -3.57994e-17)
(37.6631 684.635 -5.01444e-19)
(42.3668 674.636 1.99092e-17)
(42.6135 664.405 0)
(41.8578 653.914 -5.19173e-18)
(42.0695 643.004 4.99828e-18)
(41.9749 633.124 3.96913e-17)
(42.3337 624.238 -5.67004e-18)
(11.5904 615.549 7.69539e-17)
(38.0545 615.489 -4.74327e-17)
(8.66033 605.908 2.17224e-17)
(33.3448 607.135 3.21737e-17)
(6.99301 597.628 3.39192e-17)
(29.1703 599.411 -5.63959e-18)
(5.8457 590.531 -2.48155e-17)
(25.2675 592.578 2.60881e-17)
(4.92288 584.545 0)
(21.5575 586.653 -4.72116e-17)
(4.13157 579.568 0)
(18.1078 581.588 2.34411e-17)
(3.44705 575.475 0)
(15.0157 577.325 0)
(2.87088 572.135 -9.13269e-20)
(12.3397 573.771 9.23635e-20)
(2.39003 569.417 -1.84442e-19)
(10.081 570.828 -5.97531e-18)
(1.9911 567.202 1.85156e-19)
(8.21761 568.399 1.1709e-17)
(1.66645 565.388 5.91895e-18)
(6.71521 566.394 -1.1952e-17)
(1.40307 563.885 -5.96387e-18)
(5.51869 564.728 5.9608e-18)
(1.18837 562.623 -6.18512e-18)
(4.57688 563.331 -2.95449e-18)
(1.01446 561.544 -4.44683e-20)
(3.84172 562.143 -2.74178e-20)
(0.870263 560.602 6.02972e-18)
(3.26923 561.113 3.0618e-18)
(0.748171 559.759 1.89618e-19)
(2.82439 560.202 3.04141e-18)
(0.643167 558.987 0)
(2.47866 559.375 -2.9852e-18)
(0.550306 558.26 3.05283e-18)
(2.21076 558.605 3.149e-18)
(0.466067 557.555 1.08666e-19)
(2.00318 557.866 1.39786e-20)
(0.387353 556.854 1.29884e-20)
(1.84365 557.137 -3.02338e-18)
(0.311937 556.14 -6.21307e-18)
(1.72345 556.398 9.56384e-20)
(0.238209 555.393 6.03232e-18)
(1.63643 555.632 0)
(0.164839 554.598 -3.06143e-18)
(1.57803 554.818 4.79441e-20)
(0.090037 553.733 -6.06107e-18)
(1.54636 553.936 0)
(0.01277 552.778 5.84892e-18)
(1.5397 552.964 9.61328e-20)
(-0.0683932 551.709 3.09034e-18)
(1.55821 551.88 9.63111e-20)
(-0.154449 550.5 -9.36847e-18)
(1.60307 550.656 -3.09718e-18)
(-0.247053 549.119 3.05982e-18)
(1.6746 549.261 -3.12637e-18)
(-0.348163 547.531 -2.44624e-20)
(1.77487 547.657 3.06215e-18)
(-0.45795 545.691 -2.79696e-20)
(1.90734 545.799 -2.81997e-20)
(-0.579141 543.546 9.54152e-18)
(2.07402 543.638 3.09552e-18)
(-0.714058 541.035 -6.20141e-18)
(2.27782 541.11 -1.17939e-18)
(-0.866262 538.083 -3.90966e-19)
(2.52192 538.141 1.55344e-18)
(2.80727 534.635 -3.92077e-19)
(-1.03783 534.592 1.97319e-18)
(-4.88274 534.285 -1.21524e-18)
(-4.25568 537.82 -1.18463e-18)
(-3.7092 540.813 0)
(-3.23426 543.36 1.35353e-18)
(-2.82422 545.538 -3.29835e-18)
(-2.47171 547.408 -1.53102e-18)
(-2.17062 549.023 2.90983e-18)
(-1.91357 550.427 -3.07783e-18)
(-1.69605 551.656 3.09167e-18)
(-1.51414 552.742 6.33141e-18)
(-1.36432 553.714 -9.22639e-18)
(-1.24455 554.594 -2.95142e-18)
(-1.153 555.405 1.23517e-17)
(-1.08949 556.165 -2.63084e-20)
(-1.05453 556.895 -3.07395e-18)
(-1.05027 557.611 -1.36775e-20)
(-1.08086 558.332 -1.44256e-20)
(-1.15214 559.079 -3.04636e-18)
(-1.27299 559.874 -6.23609e-18)
(-1.45595 560.743 3.05347e-18)
(-1.71733 561.719 6.02867e-18)
(-2.07846 562.841 6.67095e-20)
(-2.56449 564.156 -5.98852e-18)
(-3.20624 565.725 -2.82735e-18)
(-4.03794 567.622 5.60603e-18)
(-5.0901 569.936 5.50051e-19)
(-6.39197 572.771 0)
(-7.94591 576.242 0)
(-9.73563 580.474 1.41818e-18)
(-11.6951 585.593 -1.10802e-17)
(-13.6723 591.716 1.14304e-17)
(-15.3826 598.95 -2.67317e-17)
(-16.312 607.436 -1.9872e-17)
(-15.652 617.402 2.98575e-17)
(-15.225 627.984 8.60882e-18)
(-18.6595 640.949 -3.49167e-18)
(-17.7064 654.319 -9.14383e-18)
(-15.3413 667.646 0)
(-13.6091 679.759 -6.47203e-17)
(-15.4746 692.088 3.84072e-17)
(-14.0588 703.069 -2.31794e-18)
(-12.5511 713.084 6.83193e-17)
(-10.6437 722.187 -1.78961e-17)
(-8.83828 730.304 -3.29235e-17)
(-7.04061 737.494 -1.53883e-17)
(-5.44095 743.735 6.17389e-17)
(2.85248 764.896 1.14372e-17)
(2.27831 765.416 7.63098e-18)
(-3.93687 749.104 -4.938e-17)
(-2.61426 753.621 3.12114e-17)
(-1.4063 757.382 -1.1744e-17)
(-0.309068 760.466 -1.53544e-17)
(0.704388 762.965 1.54105e-17)
(2.17648 766.842 0)
(1.79105 766.4 -2.67329e-17)
(1.64972 765.063 1.53448e-17)
(3.70464 763.345 3.82345e-18)
(6.10716 761.132 0)
(8.89815 758.378 -7.80122e-18)
(12.0962 755.02 9.7369e-18)
(15.7533 750.979 -1.94983e-18)
(19.8518 746.204 -1.71598e-17)
(24.3971 740.668 -1.46212e-18)
(29.3078 734.356 1.61937e-17)
(34.573 727.278 1.74237e-17)
(39.9833 719.48 -1.6759e-17)
(45.5984 710.962 -1.11508e-18)
(51.0558 701.887 -4.5329e-18)
(56.4759 692.385 0)
(61.8696 682.495 -9.90813e-18)
(66.3497 672.747 9.7018e-18)
(68.4781 663.27 0)
(69.2643 653.768 3.89138e-18)
(69.4618 644.46 -6.5092e-18)
(68.9144 635.64 -1.91013e-17)
(66.8275 627.394 2.01745e-18)
(62.3076 619.389 0)
(56.7883 611.616 1.12994e-17)
(50.891 604.393 -2.29938e-17)
(44.8698 597.77 2.21484e-17)
(38.8857 591.782 2.15412e-18)
(33.1685 586.444 -2.69613e-20)
(27.8711 581.75 1.18363e-17)
(23.1541 577.687 -1.15411e-17)
(19.0671 574.214 0)
(15.6195 571.281 -2.2858e-20)
(12.7763 568.817 2.30099e-20)
(10.4758 566.754 0)
(8.64404 565.025 -2.3613e-20)
(7.2017 563.563 -3.02337e-18)
(6.07878 562.313 -7.28654e-20)
(5.21221 561.226 3.03147e-18)
(4.54972 560.259 3.00081e-18)
(4.04721 559.375 -3.13449e-18)
(3.67223 558.545 1.52858e-18)
(3.39951 557.74 -1.54741e-18)
(3.21077 556.936 4.77666e-20)
(3.09335 556.111 4.78309e-20)
(3.03955 555.244 -2.5548e-23)
(3.0437 554.312 -4.80116e-20)
(3.10414 553.292 1.54307e-18)
(3.22099 552.158 -1.72878e-18)
(3.39562 550.882 1.64607e-18)
(3.63274 549.433 -1.54211e-18)
(3.9364 547.772 1.75111e-18)
(4.31316 545.855 -1.54654e-18)
(4.76972 543.629 1.56609e-18)
(5.31458 541.032 -3.70706e-19)
(5.95449 537.99 -1.94684e-18)
(6.69532 534.409 0)
(7.54042 530.174 -1.58662e-18)
(3.13514 530.47 -3.93128e-19)
(-1.23125 530.438 -1.57557e-18)
(-5.59615 530.085 -8.4714e-19)
(-10.0012 529.408 0)
(-8.77664 533.71 -3.91717e-19)
(-7.69584 537.346 1.55493e-18)
(-6.75406 540.437 -1.76681e-18)
(-5.9396 543.074 0)
(-5.23856 545.335 1.93951e-19)
(-4.64106 547.279 -1.54394e-18)
(-4.13477 548.962 1.64956e-18)
(-3.71067 550.428 1.93153e-19)
(-3.36005 551.714 0)
(-3.07668 552.853 0)
(-2.85553 553.874 -1.44164e-19)
(-2.69365 554.802 1.43519e-18)
(-2.58953 555.661 -1.02841e-19)
(-2.54436 556.472 -1.34243e-18)
(-2.56208 557.256 -1.52376e-18)
(-2.6504 558.032 1.43343e-18)
(-2.82094 558.824 1.51796e-18)
(-3.09057 559.655 -1.14405e-18)
(-3.48283 560.554 0)
(-4.02943 561.551 0)
(-4.77079 562.688 0)
(-5.75749 564.009 0)
(-7.04939 565.572 -1.4835e-18)
(-8.71337 567.442 1.4967e-18)
(-10.8188 569.696 3.71425e-19)
(-13.4256 572.417 -3.26682e-18)
(-16.5806 575.694 2.2279e-18)
(-20.2841 579.616 1.41237e-18)
(-24.4892 584.266 -4.42729e-20)
(-29.0584 589.711 5.48112e-18)
(-33.7651 596.005 -5.6427e-18)
(-38.2479 603.186 -5.17162e-18)
(-42.0141 611.28 -4.58553e-18)
(-44.695 620.243 -1.50416e-17)
(-46.2204 630.423 3.02559e-19)
(-48.5726 641.474 4.75367e-18)
(-48.2436 653.262 -1.7915e-17)
(-46.2226 665.061 3.6249e-17)
(-43.1991 676.963 -1.38865e-17)
(-40.9691 688.163 0)
(-37.3937 698.942 3.8246e-17)
(-33.2776 708.964 -3.51497e-17)
(-28.8016 718.223 -1.64311e-17)
(-24.4126 726.592 1.63284e-17)
(-20.1551 734.081 -1.59978e-17)
(-16.265 740.632 3.60684e-17)
(-12.6863 746.288 -2.97189e-17)
(-9.47951 751.09 3.07498e-19)
(1.62289 764.935 -7.6397e-18)
(-6.56609 755.135 1.96193e-17)
(-3.95306 758.493 0)
(-1.60692 761.236 0)
(-0.0738281 766.341 -1.5322e-17)
(0.938209 767.484 -3.79247e-18)
(2.47817 766.421 0)
(2.13772 767.864 3.82021e-18)
(-1.5091 767.257 -1.52896e-17)
(-2.85473 765.554 7.68267e-18)
(-0.584478 764.379 -7.67975e-18)
(2.09007 762.772 -1.1564e-17)
(5.21329 760.71 -6.41411e-20)
(8.80984 758.129 -8.72417e-20)
(12.9293 754.976 7.77391e-18)
(17.5959 751.193 -1.9557e-18)
(22.8336 746.734 -1.01354e-18)
(28.6514 741.548 9.9661e-19)
(35.0003 735.641 0)
(41.8088 729.021 -5.33419e-19)
(48.9757 721.723 -8.95932e-18)
(56.3079 713.839 7.98331e-18)
(63.6463 705.468 1.09268e-18)
(70.7432 696.754 1.07401e-18)
(77.43 687.821 0)
(83.5731 678.811 4.93454e-18)
(88.4229 670.113 -4.97778e-18)
(91.2689 661.822 -7.71095e-18)
(92.6406 653.77 -1.33895e-18)
(92.7937 646.025 0)
(91.7607 638.672 5.43928e-18)
(89.0418 631.673 -1.96836e-18)
(84.2626 624.796 0)
(78.3265 618.007 -5.86804e-18)
(71.6446 611.453 1.95108e-17)
(64.4748 605.172 -9.61027e-18)
(57.095 599.218 -3.45634e-20)
(49.7312 593.622 -7.31742e-19)
(42.6696 588.458 -1.14128e-17)
(36.1167 583.772 1.73501e-17)
(30.2259 579.604 -5.7825e-18)
(25.0688 575.956 2.0435e-19)
(20.671 572.808 5.97813e-18)
(17.011 570.126 -2.90238e-18)
(14.0201 567.855 -2.97294e-18)
(11.6185 565.932 0)
(9.72431 564.302 -3.03767e-18)
(8.25053 562.906 2.95544e-18)
(7.11773 561.688 0)
(6.26189 560.602 3.05523e-18)
(5.62715 559.605 -3.0419e-18)
(5.17303 558.663 0)
(4.86604 557.743 -9.55872e-20)
(4.68342 556.817 -4.79093e-20)
(4.60916 555.857 -1.58772e-18)
(4.63327 554.839 3.9659e-20)
(4.75026 553.736 1.5362e-18)
(4.95933 552.518 1.92698e-19)
(5.26319 551.154 1.55127e-18)
(5.66525 549.614 -1.54337e-18)
(6.17414 547.855 1.36549e-18)
(6.7979 545.833 -1.54875e-18)
(7.54795 543.495 1.37384e-18)
(8.43554 540.779 -1.55468e-18)
(9.47201 537.609 -1.78139e-21)
(10.6663 533.9 -7.9456e-19)
(12.0205 529.539 7.75278e-19)
(13.5268 524.371 1.18291e-18)
(8.48507 525.112 -8.71722e-21)
(3.50386 525.468 3.96253e-19)
(-1.44636 525.444 1.56531e-18)
(-6.39345 525.045 3.93918e-18)
(-11.3696 524.277 7.90068e-19)
(-16.4007 523.148 -2.3811e-18)
(-14.4879 528.408 1.59867e-18)
(-12.7633 532.858 -3.85542e-19)
(-11.2359 536.65 7.90576e-19)
(-9.89863 539.891 -9.80812e-22)
(-8.73897 542.67 0)
(-7.74285 545.061 1.35319e-18)
(-6.8941 547.125 -1.65682e-18)
(-6.17971 548.916 1.93653e-19)
(-5.58506 550.482 -1.92966e-19)
(-5.09988 551.861 -9.65652e-20)
(-4.71669 553.088 0)
(-4.42911 554.193 1.53473e-18)
(-4.23456 555.205 -7.96659e-21)
(-4.13311 556.15 -1.44132e-18)
(-4.12958 557.051 -1.9142e-19)
(-4.23448 557.935 -1.52373e-18)
(-4.46344 558.826 3.05008e-18)
(-4.83946 559.754 -2.66401e-18)
(-5.39406 560.748 -5.58538e-19)
(-6.17076 561.848 1.51954e-18)
(-7.22287 563.094 -3.74814e-19)
(-8.61737 564.538 0)
(-10.4323 566.235 3.70241e-19)
(-12.7535 568.251 7.37599e-19)
(-15.6677 570.655 -1.84191e-18)
(-19.2536 573.515 1.71237e-20)
(-23.5625 576.894 1.98286e-20)
(-28.6175 580.846 2.17153e-18)
(-34.3587 585.404 -7.76635e-19)
(-40.6641 590.574 -4.23678e-18)
(-47.318 596.345 -1.35347e-18)
(-54.0227 602.69 1.38927e-18)
(-60.3735 609.574 -5.73606e-18)
(-65.9187 616.966 1.34128e-17)
(-70.2361 624.873 -2.60882e-18)
(-73.2234 633.504 -3.10035e-19)
(-75.4745 642.721 0)
(-75.3449 652.491 1.95175e-17)
(-73.3059 662.57 -1.79919e-17)
(-69.7843 672.94 -5.63472e-18)
(-65.577 683.151 0)
(-60.1769 693.233 1.2818e-17)
(-54.0441 702.93 -3.46687e-17)
(-47.4427 712.147 1.74528e-17)
(-40.7418 720.721 -5.55864e-19)
(-34.2624 728.523 1.61361e-17)
(-28.2126 735.451 -1.84611e-17)
(-22.6093 741.528 0)
(-17.4669 746.8 1.16407e-17)
(-12.7858 751.311 -3.53323e-17)
(0.483837 763.43 -7.65274e-18)
(-8.58625 755.106 2.7285e-17)
(-4.82519 758.252 -1.95282e-17)
(0.238686 768.266 -2.88812e-21)
(-4.79702 766.373 0)
(-2.76438 767.908 7.62731e-18)
(2.35881 765.124 7.67798e-18)
(3.25943 767.489 -7.65389e-18)
(2.1454 768.614 -7.45858e-18)
(-6.50556 766.961 -3.85672e-18)
(-8.60012 765.008 -1.15854e-17)
(-6.23935 764.194 3.83574e-18)
(-3.4823 763.045 2.27999e-20)
(-0.252584 761.482 -9.68964e-18)
(3.47467 759.45 -1.96844e-18)
(7.75961 756.92 1.98245e-18)
(12.6359 753.835 -7.93811e-18)
(18.1502 750.147 6.86897e-18)
(24.3221 745.81 -5.11363e-19)
(31.1596 740.795 9.97888e-19)
(38.6223 735.095 0)
(46.6344 728.736 -8.53297e-18)
(55.0556 721.786 8.6092e-18)
(63.75 714.314 2.78932e-19)
(72.436 706.479 -1.42566e-19)
(80.9028 698.412 0)
(88.8506 690.282 1.13151e-18)
(96.0426 682.244 1.21017e-18)
(102.274 674.445 0)
(107.013 667.109 1.52999e-19)
(110.023 660.282 7.57479e-18)
(111.519 653.808 -1.23053e-18)
(111.621 647.685 0)
(110.367 641.867 5.33713e-18)
(107.637 636.254 -5.34668e-18)
(103.214 630.654 2.64311e-18)
(97.5672 624.998 -5.53415e-18)
(90.9796 619.32 2.80104e-18)
(83.6513 613.629 -1.4178e-18)
(75.7983 607.954 -1.39786e-18)
(67.6568 602.356 -3.43326e-19)
(59.4888 596.919 5.44595e-18)
(51.5515 591.734 -1.15143e-17)
(44.0835 586.898 1.16306e-17)
(37.2568 582.487 -8.93226e-18)
(31.1793 578.535 2.90703e-18)
(25.9107 575.059 0)
(21.4541 572.048 3.02454e-18)
(17.7677 569.467 -2.96695e-18)
(14.7844 567.267 4.64898e-20)
(12.4168 565.39 1.54571e-18)
(10.5728 563.775 -1.48452e-18)
(9.16236 562.361 1.52695e-18)
(8.11041 561.097 -1.51848e-18)
(7.35126 559.933 0)
(6.83395 558.828 1.58331e-18)
(6.51802 557.743 -2.29699e-18)
(6.37539 556.642 7.65903e-19)
(6.38564 555.494 -4.8081e-20)
(6.53769 554.266 0)
(6.82647 552.925 -8.71457e-19)
(7.2518 551.438 7.70903e-19)
(7.8178 549.766 6.81978e-19)
(8.53208 547.869 -7.74203e-19)
(9.40672 545.699 0)
(10.453 543.203 3.90962e-19)
(11.6857 540.318 0)
(13.1175 536.973 7.88809e-19)
(14.7573 533.085 7.08317e-21)
(16.6049 528.556 -4.39935e-19)
(18.6459 523.25 -1.51118e-19)
(20.8392 516.944 -3.00873e-19)
(15.1597 518.138 5.9975e-19)
(9.51376 518.935 -7.97971e-19)
(3.90366 519.321 3.98412e-19)
(-1.68539 519.296 0)
(-7.26692 518.866 -7.52942e-19)
(-12.8586 518.038 2.41304e-18)
(-18.4689 516.828 1.5766e-18)
(-24.0988 515.261 0)
(-21.4993 521.666 -1.19378e-18)
(-19.0779 527.083 1.17204e-18)
(-16.876 531.722 -2.38568e-18)
(-14.91 535.713 -7.80511e-19)
(-13.1807 539.151 1.76411e-18)
(-11.6758 542.117 -7.86918e-19)
(-10.3795 544.683 1.94375e-19)
(-9.27639 546.91 -3.89669e-22)
(-8.34834 548.851 3.16416e-22)
(-7.58111 550.556 0)
(-6.9637 552.066 9.65179e-20)
(-6.48603 553.418 9.64613e-20)
(-6.14425 554.646 8.15761e-19)
(-5.93905 555.782 -7.71309e-19)
(-5.87344 556.856 1.9162e-19)
(-5.96038 557.899 -7.63437e-19)
(-6.21985 558.942 1.95501e-19)
(-6.68075 560.02 1.33463e-18)
(-7.38341 561.17 -1.90194e-18)
(-8.37968 562.435 9.51871e-19)
(-9.73572 563.864 -8.36625e-22)
(-11.5288 565.512 7.57188e-19)
(-13.8474 567.439 1.85739e-19)
(-16.785 569.71 -5.64211e-19)
(-20.4311 572.388 -1.14316e-20)
(-24.8564 575.526 3.84688e-19)
(-30.1047 579.169 -7.10893e-19)
(-36.1719 583.339 0)
(-42.9928 588.019 1.38654e-18)
(-50.4104 593.176 -1.37882e-18)
(-58.223 598.736 4.18609e-18)
(-66.1338 604.618 0)
(-73.8327 610.745 -5.25167e-18)
(-80.9539 617.052 5.3889e-18)
(-87.1246 623.5 5.09844e-18)
(-92.0408 630.13 0)
(-95.5621 637.084 1.23639e-18)
(-97.767 644.4 0)
(-97.8808 652.099 1.63293e-20)
(-96.0977 660.196 1.72112e-17)
(-92.5729 668.735 -1.76145e-17)
(-87.6635 677.538 1.77407e-17)
(-81.4014 686.523 -1.72904e-17)
(-74.1066 695.53 0)
(-66.0557 704.429 0)
(-57.6799 712.984 2.1282e-18)
(-49.4154 720.975 0)
(-41.4686 728.277 1.61869e-17)
(-33.9055 734.882 -5.03456e-19)
(-26.8523 740.752 -8.22941e-18)
(-20.3929 745.866 -1.57938e-17)
(-14.5628 750.234 3.95642e-17)
(-1.47237 760.818 0)
(-9.2893 753.939 3.64955e-18)
(-0.364903 768.8 1.52454e-17)
(-3.86693 768.301 1.52941e-17)
(1.50968 762.846 0)
(-10.6963 765.568 2.70167e-17)
(-7.97682 767.282 7.68085e-18)
(4.02737 766.359 7.65702e-18)
(3.97945 768.259 0)
(2.18603 769.093 1.6723e-17)
(-12.5073 765.862 -1.54036e-17)
(-15.16 763.816 0)
(-12.7215 763.24 5.80667e-18)
(-9.94859 762.417 -7.76168e-18)
(-6.74353 761.231 3.85907e-18)
(-3.02712 759.618 -7.82755e-18)
(1.26161 757.559 9.74219e-18)
(6.15747 754.993 1.94548e-18)
(11.7116 751.879 -1.95584e-18)
(17.962 748.171 -5.10154e-19)
(24.9277 743.839 1.51104e-18)
(32.6036 738.86 -3.9069e-18)
(40.9518 733.241 1.4298e-19)
(49.8814 727.022 4.28142e-18)
(59.2584 720.273 -6.89575e-20)
(68.8938 713.102 -4.11632e-18)
(78.5422 705.653 4.08222e-18)
(87.9164 698.103 -8.15064e-21)
(96.7388 690.629 -5.02012e-18)
(104.747 683.377 4.60786e-18)
(111.741 676.483 -3.6197e-18)
(117.495 670.064 1.14973e-18)
(121.756 664.205 1.26127e-18)
(124.533 658.856 6.35777e-19)
(125.926 653.887 -3.23678e-19)
(126.015 649.244 6.44476e-19)
(124.849 644.824 1.00183e-18)
(122.479 640.497 -1.46382e-18)
(118.767 636.117 0)
(113.932 631.593 0)
(108.114 626.902 0)
(101.423 622.016 2.77146e-18)
(93.9844 616.934 -2.33547e-18)
(85.9546 611.689 1.9061e-20)
(77.5301 606.344 -2.86076e-18)
(68.9411 600.994 2.87289e-18)
(60.4549 595.757 2.9212e-18)
(52.2898 590.736 -2.75712e-18)
(44.6611 586.028 2.96426e-18)
(37.7409 581.717 -2.89893e-18)
(31.636 577.854 -2.98988e-18)
(26.3759 574.443 2.94162e-18)
(21.9675 571.479 -9.34179e-20)
(18.36 568.924 2.37955e-20)
(15.4729 566.722 -1.54762e-18)
(13.2184 564.815 -1.90537e-20)
(11.5012 563.138 1.51394e-18)
(10.2382 561.632 1.18627e-20)
(9.35238 560.241 0)
(8.78361 558.914 0)
(8.48326 557.602 8.19343e-19)
(8.41654 556.266 -7.19538e-19)
(8.5596 554.863 -7.26821e-19)
(8.89676 553.353 6.74036e-19)
(9.42567 551.697 2.92356e-19)
(10.1458 549.853 -2.8986e-19)
(11.0626 547.774 -9.7645e-20)
(12.186 545.413 0)
(13.5296 542.713 -3.93625e-19)
(15.1058 539.616 -2.0306e-19)
(16.9267 536.051 3.91684e-19)
(18.9972 531.947 5.00551e-20)
(21.3115 527.218 -4.46069e-19)
(23.8439 521.753 1.01174e-18)
(26.5387 515.372 -6.96063e-19)
(29.2887 507.705 -6.31544e-21)
(23.0976 509.188 6.34991e-21)
(16.8535 510.317 0)
(10.5875 511.066 2.00466e-19)
(4.32058 511.42 -2.00637e-19)
(-1.94017 511.376 4.08272e-19)
(-8.18779 510.944 -2.37932e-18)
(-14.4173 510.131 -7.78965e-19)
(-20.619 508.958 -8.07226e-19)
(-26.7728 507.455 8.03052e-19)
(-29.7294 513.368 1.5895e-18)
(-26.6719 519.845 -4.3338e-19)
(-23.7876 525.432 -8.10006e-19)
(-21.1394 530.286 3.94561e-19)
(-18.7546 534.51 0)
(-16.6396 538.185 0)
(-14.7905 541.382 0)
(-13.1931 544.165 0)
(-11.8316 546.596 9.7199e-20)
(-10.6901 548.729 3.79968e-22)
(-9.75387 550.614 2.89273e-19)
(-9.01207 552.295 -3.88481e-19)
(-8.45832 553.814 2.88373e-19)
(-8.09395 555.211 -2.905e-19)
(-7.92111 556.522 -4.79679e-19)
(-7.95596 557.785 1.9312e-19)
(-8.22199 559.039 1.9094e-19)
(-8.75542 560.326 -1.91501e-19)
(-9.60423 561.691 5.70316e-19)
(-10.8315 563.186 -4.86788e-21)
(-12.5111 564.866 0)
(-14.7303 566.793 -3.74166e-19)
(-17.5821 569.03 -5.9032e-21)
(-21.1581 571.638 0)
(-25.531 574.671 0)
(-30.7614 578.173 0)
(-36.8505 582.157 -1.43381e-18)
(-43.7577 586.614 2.20089e-18)
(-51.376 591.505 0)
(-59.5313 596.743 -2.81202e-18)
(-67.9689 602.225 -1.37343e-18)
(-76.4454 607.842 1.38211e-18)
(-84.6596 613.488 0)
(-92.3376 619.073 -2.60194e-18)
(-99.2232 624.555 0)
(-105.099 629.934 -5.24321e-18)
(-109.784 635.263 -9.96874e-18)
(-113.162 640.662 2.97626e-17)
(-115.177 646.221 -1.97803e-18)
(-115.452 652.032 -4.00365e-17)
(-114.036 658.219 8.14866e-19)
(-110.928 664.895 1.90104e-17)
(-106.251 672.028 -1.81816e-17)
(-100.044 679.609 -2.30792e-19)
(-92.5314 687.559 1.1688e-18)
(-83.9513 695.742 1.81016e-17)
(-74.7415 703.926 -2.17456e-18)
(-65.3047 711.872 0)
(-55.8652 719.444 0)
(-46.6284 726.535 0)
(-37.8428 733.01 -8.20972e-18)
(-29.7198 738.75 -1.60349e-17)
(-22.2193 743.803 2.81295e-17)
(-4.58044 757.014 -1.56767e-17)
(-15.3772 748.201 -1.60857e-17)
(-32.8436 505.665 8.15582e-19)
(-9.20331 751.931 0)
(-0.878149 769.066 3.83441e-18)
(-0.385555 759.527 7.75625e-18)
(-4.76066 768.438 -1.91582e-17)
(4.14951 764.414 -7.7608e-18)
(-9.22805 767.347 0)
(5.49971 767.247 0)
(-17.2813 764.125 0)
(-14.0612 765.905 -7.75854e-18)
(4.66963 768.787 -3.81902e-18)
(2.22976 769.28 2.52096e-20)
(-19.1103 764.185 -3.90974e-18)
(-22.1744 762.122 -1.17323e-17)
(-19.7556 761.772 1.56389e-17)
(-16.9771 761.164 -9.79001e-18)
(-13.8272 760.268 1.95675e-17)
(-10.1879 759.004 -5.84407e-18)
(-5.97702 757.32 7.89313e-18)
(-1.17223 755.168 -7.86743e-18)
(4.29702 752.51 1.01085e-18)
(10.4701 749.301 0)
(17.3847 745.504 -4.07981e-18)
(25.0536 741.095 4.53645e-18)
(33.4554 736.065 -5.05356e-19)
(42.5319 730.446 2.38229e-18)
(52.1925 724.276 -2.35088e-18)
(62.2708 717.651 -1.31298e-19)
(72.5592 710.697 3.11923e-20)
(82.8087 703.568 -6.78279e-20)
(92.7263 696.452 -2.40129e-18)
(102.044 689.518 4.53137e-20)
(110.511 682.925 2.59917e-18)
(117.92 676.79 1.22086e-18)
(124.173 671.182 -2.43471e-18)
(129.128 666.146 2.31095e-18)
(132.746 661.671 -2.46804e-18)
(135.114 657.651 1.06584e-20)
(136.339 653.971 0)
(136.48 650.553 8.11221e-20)
(135.626 647.284 5.74251e-19)
(133.798 644.035 -4.81671e-19)
(130.941 640.707 -6.64601e-19)
(127.136 637.208 6.54655e-19)
(122.431 633.491 0)
(116.853 629.506 0)
(110.441 625.224 6.79791e-19)
(103.255 620.639 1.8415e-19)
(95.3995 615.774 0)
(87.0236 610.684 -8.99586e-20)
(78.3272 605.455 0)
(69.5314 600.19 1.35954e-18)
(60.8818 595.009 -1.41418e-18)
(52.6254 590.035 0)
(44.9604 585.366 -2.34876e-20)
(38.0518 581.083 -2.24684e-20)
(31.9931 577.228 5.02098e-20)
(26.8265 573.816 0)
(22.5415 570.83 0)
(19.0797 568.225 0)
(16.3647 565.947 -7.65176e-19)
(14.3023 563.929 7.33497e-19)
(12.8037 562.107 2.374e-20)
(11.7839 560.415 0)
(11.173 558.792 3.38259e-19)
(10.9133 557.181 -7.71115e-19)
(10.9634 555.532 1.11341e-18)
(11.2919 553.791 -2.85618e-19)
(11.8821 551.91 -6.80368e-19)
(12.7298 549.843 -3.97715e-21)
(13.8331 547.537 4.86207e-19)
(15.1969 544.939 -1.97266e-19)
(16.8297 541.993 -3.97006e-19)
(18.7391 538.642 3.89582e-19)
(20.9333 534.823 1.96622e-19)
(23.4093 530.473 2.0036e-19)
(26.1498 525.525 4.05401e-19)
(29.1168 519.895 -4.99711e-19)
(32.2374 513.449 0)
(35.3874 505.902 8.31685e-19)
(38.3429 496.585 3.30768e-20)
(31.8845 497.918 7.87419e-19)
(25.24 498.986 5.11525e-20)
(18.4661 499.771 8.3343e-19)
(11.6113 500.259 -8.31633e-19)
(4.71374 500.45 -4.15179e-19)
(-2.19426 500.356 8.23118e-21)
(-9.0835 499.982 1.18044e-20)
(-15.9235 499.348 8.10649e-19)
(-22.6828 498.459 8.55762e-19)
(-29.3204 497.331 0)
(-35.79 495.982 1.67145e-18)
(-38.79 503.629 7.95508e-19)
(-35.3374 511.189 -4.66068e-20)
(-31.9039 517.718 -1.63266e-18)
(-28.6232 523.464 3.98064e-19)
(-25.5703 528.543 0)
(-22.7937 533.024 1.99403e-19)
(-20.3122 536.965 -9.92661e-20)
(-18.1271 540.427 -1.95416e-19)
(-16.2336 543.468 1.97441e-19)
(-14.6192 546.145 0)
(-13.2715 548.512 -9.72494e-20)
(-12.1808 550.622 4.84222e-19)
(-11.3406 552.524 -1.96574e-19)
(-10.7537 554.267 -1.94286e-19)
(-10.4229 555.894 -1.33342e-22)
(-10.3672 557.449 3.19268e-22)
(-10.6171 558.985 1.9118e-19)
(-11.2144 560.551 -7.65551e-19)
(-12.2166 562.204 1.94078e-19)
(-13.6947 564.001 2.45107e-21)
(-15.7323 566.007 -5.09424e-20)
(-18.4202 568.289 -3.24018e-19)
(-21.8489 570.909 2.62988e-21)
(-26.0984 573.927 -7.41422e-19)
(-31.2273 577.384 -7.2961e-19)
(-37.2373 581.295 1.45924e-18)
(-44.1024 585.657 0)
(-51.7268 590.423 0)
(-59.9349 595.511 2.10163e-18)
(-68.537 600.829 -2.85763e-18)
(-77.2806 606.251 7.99556e-20)
(-85.8869 611.648 -1.40727e-18)
(-94.1227 616.916 6.62685e-18)
(-101.755 621.971 -1.59229e-17)
(-108.634 626.775 1.59647e-17)
(-114.626 631.318 -7.6879e-18)
(-119.628 635.626 2.05477e-17)
(-123.582 639.773 -1.02765e-17)
(-126.422 643.852 -1.25862e-18)
(-128.084 647.956 1.18904e-22)
(-128.4 652.207 -2.05386e-17)
(-127.34 656.758 3.8766e-17)
(-124.818 661.738 -9.65851e-19)
(-120.83 667.212 -1.9263e-17)
(-115.326 673.249 1.82918e-17)
(-108.394 679.849 -3.69524e-17)
(-100.19 686.938 1.90721e-17)
(-91.0139 694.357 1.85024e-17)
(-81.1749 701.918 -1.79085e-17)
(-70.8997 709.469 0)
(-60.5327 716.814 0)
(-50.4747 723.696 4.07557e-18)
(-40.8565 730.041 0)
(-31.732 735.841 1.61127e-17)
(-23.3249 740.969 -1.63822e-17)
(-15.636 745.436 7.96285e-18)
(-42.0336 494.443 0)
(-8.64769 749.29 -1.19574e-17)
(-3.67445 755.043 -3.82992e-18)
(-1.28255 769.105 -7.63387e-18)
(3.3392 761.539 -8.34967e-20)
(-5.54953 768.362 9.57236e-18)
(6.47737 765.557 -1.54628e-17)
(-10.315 767.215 0)
(6.85614 767.891 0)
(-15.4041 765.759 -4.08462e-20)
(5.2927 769.046 -3.84252e-18)
(-24.2851 762.225 -3.9005e-18)
(-20.6998 764.047 3.91941e-18)
(2.30724 769.312 -1.53054e-17)
(40.6884 483.961 -7.07582e-19)
(33.9244 484.175 4.76696e-20)
(26.9056 484.211 0)
(19.7025 484.116 5.34729e-20)
(12.3774 483.945 7.95044e-19)
(4.99433 483.743 1.0425e-18)
(-2.41129 483.537 -4.4186e-19)
(-9.79921 483.353 -1.91869e-19)
(-17.1213 483.206 -4.0695e-19)
(-24.3239 483.075 -7.14298e-19)
(-31.3537 482.899 2.51546e-18)
(-38.1541 482.641 -1.60893e-18)
(-44.6542 482.262 0)
(-48.0014 492.748 0)
(-44.5663 501.399 3.95266e-19)
(-40.8796 508.776 -8.27082e-19)
(-37.1649 515.32 0)
(-33.5679 521.203 0)
(-30.1747 526.497 2.01735e-19)
(-27.0491 531.242 -9.78909e-20)
(-24.2295 535.471 9.87195e-20)
(-21.7324 539.228 0)
(-19.5607 542.563 9.88377e-20)
(-17.7133 545.529 -4.87761e-20)
(-16.1869 548.18 4.91952e-20)
(-14.9798 550.572 0)
(-14.1016 552.762 0)
(-13.5577 554.8 9.68157e-20)
(-13.3689 556.74 -9.64956e-20)
(-13.5777 558.646 2.41412e-19)
(-14.2325 560.579 -1.43758e-19)
(-15.3984 562.605 1.20065e-19)
(-17.1552 564.793 -2.40024e-20)
(-19.5903 567.212 1.87063e-19)
(-22.7936 569.933 -1.91068e-19)
(-26.8428 573.016 3.77855e-19)
(-31.7963 576.51 7.60005e-19)
(-37.6694 580.436 3.62637e-19)
(-44.43 584.79 0)
(-51.9779 589.527 -2.52258e-18)
(-60.1631 594.573 2.15555e-18)
(-68.7902 599.834 2.78285e-18)
(-77.6072 605.177 1.30305e-18)
(-86.3574 610.479 -3.4902e-18)
(-94.815 615.633 7.27505e-20)
(-102.759 620.54 0)
(-110.037 625.138 -2.67509e-18)
(-116.545 629.401 -1.04286e-17)
(-122.208 633.318 7.92249e-18)
(-127.002 636.924 -1.28492e-17)
(-130.91 640.265 1.03468e-17)
(-133.937 643.411 0)
(-136.062 646.443 1.9882e-17)
(-137.244 649.434 -3.84925e-17)
(-137.453 652.485 2.11557e-17)
(-136.622 655.752 0)
(-134.655 659.344 -1.8842e-17)
(-131.471 663.354 1.9442e-17)
(-126.958 667.906 -1.88276e-17)
(-121.097 673.056 3.74121e-17)
(-113.891 678.825 -1.57199e-18)
(-105.494 685.149 -1.86324e-17)
(-96.0506 691.932 0)
(-85.7784 699.036 -1.73284e-17)
(-75.101 706.197 -1.55264e-18)
(-64.2975 713.228 3.43969e-17)
(-53.5411 720.03 -1.72675e-17)
(-43.155 726.396 1.42874e-17)
(-33.2894 732.249 -3.31572e-17)
(-24.056 737.528 1.235e-17)
(-15.5482 742.185 -8.02416e-18)
(-2.35778 752.542 0)
(-7.82774 746.193 8.13704e-18)
(-50.7991 481.73 0)
(-26.1001 762.121 0)
(-29.4898 760.054 3.91769e-18)
(-27.1018 759.885 -1.57842e-17)
(-24.3717 759.468 -1.9867e-18)
(-21.2734 758.798 -1.98889e-18)
(-17.7216 757.82 1.95474e-18)
(-13.6423 756.448 4.58371e-20)
(-8.96579 754.634 -9.53783e-19)
(-3.63957 752.358 4.01027e-18)
(2.38273 749.567 -8.03166e-18)
(9.14551 746.22 3.02082e-18)
(16.6772 742.288 -2.0636e-18)
(24.9786 737.756 4.13188e-18)
(34.017 732.635 -1.929e-18)
(43.7144 726.959 1.07669e-18)
(53.9473 720.8 -1.05795e-18)
(64.5369 714.263 0)
(75.2561 707.488 0)
(85.8467 700.643 1.18702e-18)
(96.0284 693.908 -1.12681e-18)
(105.535 687.456 7.08317e-20)
(114.141 681.436 0)
(121.687 675.945 -3.85264e-20)
(128.088 671.031 0)
(133.329 666.695 3.0856e-18)
(137.398 662.909 -7.62803e-19)
(140.371 659.607 0)
(142.353 656.667 -6.2855e-19)
(143.453 654.007 0)
(143.717 651.511 -3.01034e-19)
(143.226 649.119 -2.50569e-20)
(142.011 646.75 0)
(140.01 644.273 0)
(137.241 641.639 -6.51738e-19)
(133.713 638.79 0)
(129.406 635.675 0)