/*--------------------------------*- C++ -*----------------------------------*\
| =========                 |                                                 |
| \\      /  F ield         | OpenFOAM: The Open Source CFD Toolbox           |
|  \\    /   O peration     | Version:  2212                                  |
|   \\  /    A nd           | Website:  www.openfoam.com                      |
|    \\/     M anipulation  |                                                 |
\*---------------------------------------------------------------------------*/
FoamFile
{
    version     2.0;
    format      ascii;
    arch        "LSB;label=32;scalar=64";
    class       volScalarField;
    location    "0.0162";
    object      T;
}
// * * * * * * * * * * * * * * * * * * * * * * * * * * * * * * * * * * * * * //

dimensions      [0 0 0 1 0 0 0];

internalField   nonuniform List<scalar> 
2308
(
271.015
270.703
271.996
270.31
270.588
270.463
270.409
270.528
270.633
269.709
269.763
269.839
269.894
269.948
270.002
270.055
270.106
270.15
270.102
270.051
269.997
269.942
269.886
269.828
269.769
269.711
269.654
269.597
270.418
270.156
269.537
269.479
269.421
269.364
269.307
269.251
269.194
269.138
269.081
269.024
268.967
268.91
268.853
268.796
268.738
268.736
268.794
268.851
268.908
268.965
269.022
269.079
269.136
269.193
269.249
269.306
269.363
269.42
269.477
269.535
269.594
269.649
269.703
269.755
269.804
269.853
269.903
269.956
270.009
270.061
270.113
268.681
268.678
270.108
270.052
269.996
269.94
269.883
269.825
269.768
269.71
269.652
269.595
269.538
269.48
269.423
269.366
269.309
269.253
269.196
269.139
269.083
269.026
268.97
268.913
268.856
268.799
268.741
270.198
268.684
270.204
270.164
268.676
268.734
268.791
268.849
268.906
268.963
269.02
269.078
269.134
269.191
269.248
269.305
269.361
269.418
269.475
269.532
269.588
269.644
269.699
269.753
269.806
269.859
269.911
269.963
270.016
270.069
270.121
270.568
270.443
270.396
270.424
270.174
270.114
270.054
269.996
269.938
269.881
269.824
269.767
269.709
269.651
269.594
269.537
269.48
269.424
269.367
269.31
269.254
269.198
269.141
269.085
269.028
268.972
268.915
268.858
268.801
268.744
268.687
268.629
268.626
268.623
268.62
270.559
268.618
270.608
270.629
270.215
270.693
270.548
270.249
270.174
268.571
268.567
268.564
268.561
268.559
268.557
268.616
268.674
268.732
268.79
268.847
268.905
268.962
269.019
269.076
269.133
269.19
269.247
269.303
269.36
269.417
269.473
269.53
269.586
269.641
269.697
269.752
269.807
269.862
269.916
269.97
270.023
270.077
270.13
270.293
271.103
270.545
270.518
270.46
270.404
270.347
270.289
270.23
270.171
270.113
270.054
269.996
269.938
269.88
269.823
269.766
269.708
269.651
269.594
269.537
269.481
269.424
269.368
269.312
269.255
269.199
269.143
269.086
269.03
268.974
268.917
268.861
268.804
268.747
268.69
268.633
268.575
272.458
270.657
271.187
270.254
271.747
270.658
270.227
270.298
268.556
268.615
268.673
268.731
268.788
268.846
268.903
268.961
269.018
269.075
269.132
269.189
269.246
269.303
269.359
269.416
269.472
269.529
269.584
269.64
269.696
269.751
269.807
269.863
269.919
269.975
270.029
270.083
270.137
270.183
270.728
270.632
270.52
270.458
270.4
270.343
270.285
270.227
270.169
270.111
270.053
269.995
269.937
269.88
269.822
269.765
269.708
269.65
269.594
269.537
269.481
269.425
269.369
269.313
269.257
269.2
269.144
269.088
269.032
268.976
268.92
268.863
268.807
268.751
268.694
268.637
268.58
268.522
268.517
268.512
268.508
268.505
268.502
268.5
268.499
268.498
271.277
271.921
273.102
270.706
270.965
273.127
270.191
270.236
270.774
270.76
270.996
270.505
270.514
270.455
270.397
270.339
270.281
270.224
270.166
270.109
270.051
269.993
269.936
269.879
269.822
269.764
269.707
269.65
269.594
269.538
269.482
269.426
269.37
269.314
269.258
269.202
269.146
269.09
269.034
268.978
268.922
268.866
268.81
268.754
268.698
268.641
268.585
268.528
268.47
268.464
268.458
268.453
268.449
268.445
268.443
268.441
268.439
268.439
268.438
268.497
268.556
268.614
268.672
268.73
268.787
268.845
268.902
268.96
269.017
269.074
269.131
269.188
269.245
269.302
269.358
269.415
269.471
269.528
269.583
269.639
269.695
269.751
269.807
269.863
269.92
269.977
270.033
270.089
270.143
270.769
270.243
270.289
270.352
270.816
270.806
270.754
270.707
270.658
270.573
270.568
270.511
270.452
270.394
270.336
270.278
270.221
270.163
270.106
270.049
269.992
269.935
269.878
269.821
269.764
269.707
269.651
269.594
269.538
269.482
269.426
269.37
269.314
269.259
269.203
269.147
269.091
269.035
268.98
268.924
268.869
268.813
268.757
268.702
268.646
268.59
268.534
268.477
268.42
268.412
268.405
268.399
268.393
268.389
268.385
268.382
268.38
268.379
268.379
268.379
268.38
268.439
268.497
268.555
268.613
268.671
268.729
268.787
268.844
268.901
268.959
269.016
269.073
269.13
269.187
269.244
269.301
269.358
269.414
269.471
269.527
269.583
269.638
269.694
269.75
269.806
269.863
269.92
269.977
270.035
270.092
270.148
270.198
270.818
270.813
272.948
270.251
270.689
270.746
270.799
270.338
270.463
270.356
270.295
270.857
270.855
268.362
268.353
268.345
268.338
268.332
268.327
268.324
268.321
268.319
268.319
268.319
268.32
268.321
268.323
268.381
268.44
268.498
268.556
268.613
268.671
268.729
268.786
268.843
268.901
268.958
269.015
269.072
269.129
269.186
269.243
269.3
269.357
269.413
269.47
269.526
269.582
269.638
269.694
269.75
269.806
269.863
269.92
269.977
270.035
270.093
270.151
270.203
270.584
270.864
270.404
271.953
270.509
270.449
270.39
270.332
270.274
270.217
270.161
270.104
270.047
269.99
269.934
269.877
269.82
269.763
269.707
269.651
269.594
269.538
269.483
269.427
269.371
269.315
269.259
269.204
269.148
269.093
269.037
268.982
268.926
268.871
268.816
268.761
268.706
268.65
268.595
268.54
268.484
268.429
268.372
270.857
270.864
272.37
270.345
270.911
270.303
268.325
268.383
268.441
268.498
268.556
268.613
268.671
268.728
268.786
268.843
268.9
268.958
269.015
269.072
269.129
269.186
269.242
269.299
269.356
269.412
269.469
269.525
269.581
269.637
269.693
269.749
269.806
269.862
269.919
269.977
270.035
270.093
270.152
270.209
270.543
270.907
268.315
268.304
268.294
268.284
268.277
268.27
268.265
268.261
268.259
268.258
268.257
268.258
268.26
268.262
268.264
268.267
270.623
270.901
270.84
270.78
270.72
270.466
270.484
270.677
270.33
270.503
270.443
270.385
270.327
270.27
270.214
270.158
270.101
270.045
269.989
269.932
269.876
269.819
269.763
269.707
269.65
269.594
269.539
269.483
269.427
269.371
269.316
269.26
269.205
269.149
269.094
269.039
268.984
268.929
268.874
268.819
268.764
268.71
268.655
268.601
268.546
268.492
268.438
268.383
268.328
272.274
270.257
270.387
270.902
270.914
270.911
270.504
272.355
272.449
270.429
270.355
270.213
270.425
271.368
270.48
272.19
268.27
268.327
268.384
268.442
268.499
268.556
268.614
268.671
268.728
268.786
268.843
268.9
268.957
269.014
269.071
269.128
269.185
269.242
269.298
269.355
269.412
269.468
269.524
269.581
269.637
269.693
269.749
269.805
269.862
269.919
269.976
270.034
270.092
270.15
270.209
270.582
271.055
271.132
268.272
268.258
268.244
268.233
268.222
268.214
268.207
268.202
268.198
268.196
268.195
268.195
268.196
268.199
268.202
268.205
268.209
268.213
270.477
270.945
270.878
270.815
270.755
270.698
271.84
271.059
270.547
270.491
270.435
270.378
270.322
270.266
270.211
270.155
270.099
270.043
269.987
269.931
269.875
269.818
269.762
269.706
269.65
269.594
269.539
269.483
269.427
269.372
269.316
269.261
269.205
269.15
269.095
269.04
268.985
268.931
268.876
268.822
268.768
268.714
268.66
268.606
268.553
268.5
268.447
268.394
268.341
268.287
270.658
270.264
271.086
270.832
270.888
270.945
270.311
270.96
270.958
270.964
272.187
271.071
271.777
270.357
270.257
270.542
272.367
272.268
270.201
270.146
270.089
270.032
269.975
269.918
269.862
269.805
269.749
269.692
269.636
269.58
269.524
269.467
269.411
269.354
269.298
269.241
269.184
269.127
269.071
269.014
268.957
268.9
268.843
268.785
268.728
268.671
268.614
268.557
268.5
268.443
268.386
268.329
268.273
268.217
272.18
268.234
268.216
268.199
268.184
268.17
268.159
268.149
268.142
268.136
268.133
268.131
268.131
268.132
268.134
268.137
268.142
268.146
268.151
268.156
268.161
270.612
270.273
270.777
272.474
272.469
272.471
272.47
272.467
272.362
272.259
272.161
270.351
272.098
271.003
271.123
271.104
270.869
270.927
270.987
270.363
270.691
272.331
270.981
270.913
270.85
270.793
270.741
270.656
270.702
270.583
270.532
270.48
270.426
270.372
270.317
270.262
270.207
270.152
270.096
270.041
269.985
269.929
269.873
269.817
269.762
269.706
269.65
269.594
269.538
269.483
269.427
269.372
269.317
269.261
269.206
269.151
269.096
269.041
268.987
268.933
268.878
268.824
268.771
268.717
268.664
268.612
268.559
268.507
268.456
268.405
268.354
268.303
268.253
271.032
270.971
270.911
271.803
270.94
270.319
271.883
270.883
272.027
271.014
271.014
271.004
270.938
270.964
270.904
272.171
270.999
272.054
272.136
271.167
270.956
271.027
272.244
272.353
272.463
270.198
270.143
270.087
270.031
269.974
269.917
269.861
269.804
269.748
269.692
269.636
269.579
269.523
269.467
269.41
269.354
269.297
269.24
269.184
269.127
269.07
269.013
268.956
268.899
268.842
268.785
268.728
268.671
268.614
268.557
268.501
268.444
268.387
268.331
268.275
268.22
268.165
270.776
270.825
270.881
270.943
271.011
271.083
271.672
270.565
270.29
270.812
270.879
272.067
272.082
271.094
271.027
270.31
271.925
271.781
270.607
270.64
272.59
272.207
272.347
271.159
268.202
268.18
268.158
268.138
268.121
268.106
268.093
268.083
268.075
268.07
268.066
268.065
268.065
268.067
268.071
268.075
268.081
268.087
268.093
268.1
268.106
268.111
272.587
272.582
272.58
272.578
272.576
272.574
272.11
270.331
270.724
270.854
270.831
270.466
271.987
271.993
271.069
271.876
271.177
271.05
271.906
270.374
273.141
272.582
271.064
270.649
270.611
270.567
270.519
270.47
270.418
270.365
270.312
270.258
270.204
270.149
270.094
270.039
269.983
269.928
269.872
269.817
269.761
269.705
269.65
269.594
269.538
269.483
269.427
269.372
269.317
269.262
269.207
269.152
269.097
269.043
268.988
268.934
268.88
268.827
268.774
268.721
268.669
268.617
268.565
268.514
268.464
268.415
268.366
268.319
268.272
268.226
273.001
271.479
273.134
270.846
272.073
271.063
272.32
270.689
270.507
272.054
270.587
270.571
270.755
270.799
270.849
270.905
270.966
271.033
271.106
271.183
271.24
271.265
270.516
270.869
270.415
270.672
270.301
270.248
270.195
270.14
270.084
270.029
269.973
269.916
269.86
269.804
269.748
269.691
269.635
269.579
269.522
269.466
269.41
269.353
269.297
269.24
269.183
269.126
269.07
269.013
268.956
268.899
268.842
268.785
268.728
268.671
268.615
268.558
268.501
268.445
268.389
268.333
268.277
268.222
268.168
268.114
272.227
272.343
272.458
272.572
271.981
273.125
270.902
270.968
271.043
271.389
271.208
271.298
270.263
270.716
270.382
270.346
270.757
270.823
270.782
270.677
271.972
271.979
271.214
271.12
270.325
271.794
270.499
271.672
271.565
271.162
271.092
271.787
270.427
270.534
270.549
270.818
271.602
271.686
271.783
270.702
270.736
272.695
272.696
272.694
272.691
272.689
272.687
272.686
272.685
272.684
270.67
270.386
271.114
271.124
271.884
271.716
270.582
270.637
270.598
270.555
270.509
270.461
270.411
270.36
270.308
270.254
270.201
270.147
270.092
270.037
269.982
269.927
269.871
269.816
269.76
269.705
269.649
269.594
269.538
269.483
269.428
269.372
269.317
269.262
269.207
269.153
269.098
269.044
268.99
268.936
268.882
268.829
268.776
268.724
268.672
268.621
268.571
268.521
268.472
268.425
268.378
268.333
268.29
268.249
268.209
268.181
268.152
268.124
268.099
268.076
268.056
268.039
268.025
268.015
268.006
268.001
267.998
267.997
267.998
268.001
268.006
268.012
268.019
268.027
268.036
268.044
268.052
268.058
268.062
270.801
271.887
271.351
271.327
271.259
270.721
272.698
272.441
270.383
270.415
270.765
270.813
270.865
270.921
270.983
271.05
271.124
271.204
271.289
271.378
271.546
271.436
271.466
270.364
270.791
270.731
271.973
271.203
270.28
271.684
271.518
271.462
271.13
271.674
270.479
271.689
270.598
271.322
271.226
271.137
271.057
270.984
270.918
270.854
270.743
272.579
270.604
272.095
272.213
272.333
272.452
272.57
272.683
270.615
270.441
273.155
271.18
272.814
272.808
272.805
272.803
272.801
272.799
272.797
272.795
272.794
272.793
272.793
272.793
271.588
271.784
270.52
271.031
270.391
273.139
270.644
270.676
270.633
270.59
270.547
270.502
270.455
270.406
270.356
270.304
270.252
270.198
270.145
270.09
270.036
269.981
269.926
269.87
269.815
269.76
269.704
269.649
269.594
269.538
269.483
269.428
269.372
269.317
269.262
269.208
269.153
269.099
269.044
268.991
268.937
268.884
268.831
268.778
268.727
268.675
268.625
268.575
268.526
268.479
268.433
268.389
268.346
268.306
268.269
268.236
268.206
268.172
268.135
268.1
268.066
268.037
268.011
267.988
267.97
267.955
267.943
267.935
267.93
267.927
267.927
267.929
267.934
267.94
267.948
267.957
267.967
267.978
267.989
268
268.008
268.012
268.013
268.064
268.116
268.17
268.224
268.279
268.334
268.39
268.446
268.502
268.558
268.615
268.672
268.728
268.785
268.842
268.899
268.956
269.012
269.069
269.126
269.183
269.24
269.296
269.353
269.409
269.466
269.522
269.578
269.635
269.691
269.747
269.803
269.859
269.915
269.971
270.027
270.083
270.138
270.192
270.247
270.304
270.357
270.409
270.458
271.423
270.567
270.631
270.642
270.692
270.517
270.754
271.183
271.599
270.402
270.438
270.77
270.703
270.649
270.75
271.874
271.874
271.306
271.594
271.414
271.345
271.529
271.161
271.236
271.778
271.573
271.46
270.493
271.674
271.203
271.435
271.502
271.272
271.292
271.87
270.7
270.738
270.42
271.509
271.411
271.312
271.22
271.136
271.06
270.992
270.931
270.875
270.823
270.776
271.235
270.62
270.455
270.808
270.865
270.927
270.993
271.066
271.147
271.239
271.342
270.636
270.565
271.911
272.049
272.186
272.315
270.463
271.471
270.651
271.485
270.571
271.682
270.532
272.075
272.2
272.323
272.446
272.568
272.686
272.8
270.602
270.565
270.633
270.587
270.541
270.494
270.448
270.401
270.351
270.299
270.245
270.191
270.136
270.081
270.026
269.97
269.914
269.859
269.803
269.746
269.69
269.634
269.578
269.522
269.465
269.409
269.352
269.296
269.239
269.182
269.126
269.069
269.012
268.955
268.899
268.842
268.785
268.728
268.672
268.615
268.559
268.502
268.446
268.39
268.335
268.28
268.225
268.171
268.117
268.065
268.012
271.316
271.234
268.183
268.137
268.09
268.045
268.006
267.971
267.942
267.917
267.897
267.881
267.869
267.861
267.856
267.854
267.855
267.859
267.865
267.873
267.883
267.893
267.905
267.919
267.934
267.951
267.962
267.966
267.964
267.96
271.605
272.919
272.914
272.911
272.909
272.906
272.904
272.902
272.901
272.899
272.899
272.898
272.9
272.911
272.567
272.687
272.808
272.922
270.713
270.67
270.628
270.585
270.542
270.498
270.451
270.403
270.353
270.302
270.25
270.197
270.143
270.089
270.034
269.98
269.925
269.87
269.815
269.759
269.704
269.649
269.593
269.538
269.483
269.428
269.372
269.317
269.263
269.208
269.153
269.099
269.045
268.991
268.938
268.885
268.832
268.78
268.729
268.678
268.628
268.579
268.531
268.484
268.44
268.397
268.357
268.319
268.286
268.258
268.235
268.221
271.581
271.396
271.767
271.771
270.622
270.72
270.458
270.493
271.354
271.247
270.744
271.311
270.596
270.768
270.818
270.873
270.933
270.999
271.072
271.153
271.245
271.35
272.328
270.186
271.748
271.896
272.047
272.189
270.784
271.567
271.445
271.33
271.23
271.143
271.066
270.998
270.936
270.88
270.829
270.475
270.687
270.671
271.764
271.378
271.487
271.4
271.28
270.703
270.662
270.621
270.579
270.536
270.491
270.445
270.397
270.347
270.296
270.243
270.189
270.135
270.08
270.025
269.969
269.914
269.858
269.802
269.746
269.69
269.634
269.578
269.521
269.465
269.409
269.352
269.295
269.239
269.182
269.126
269.069
269.012
268.955
268.898
268.842
268.785
268.728
268.672
268.615
268.559
268.502
268.446
268.391
268.335
268.28
268.226
268.172
268.118
268.065
268.011
267.958
271.918
272.054
272.186
272.314
272.442
272.569
272.696
272.818
272.926
270.546
271.666
271.311
271.562
271.655
270.595
270.514
272.525
272.659
272.791
272.912
270.68
271.664
273.024
273.017
273.014
273.013
273.011
273.009
273.008
273.006
273.005
273.004
273.003
273.003
273.004
273.014
273.027
273.099
268.218
268.167
268.104
268.041
267.986
267.94
267.901
267.869
267.842
267.82
267.803
267.792
267.783
267.778
267.778
267.78
267.785
267.794
267.804
267.816
267.828
267.842
267.858
267.879
267.906
267.925
267.926
267.914
267.906
267.902
270.704
270.664
270.623
270.582
270.539
270.495
270.449
270.401
270.352
270.301
270.248
270.196
270.142
270.088
270.034
269.979
269.924
269.869
269.814
269.759
269.704
269.648
269.593
269.538
269.483
269.428
269.372
269.317
269.263
269.208
269.154
269.099
269.045
268.992
268.938
268.886
268.833
268.781
268.73
268.679
268.63
268.581
268.534
268.488
268.444
268.403
268.364
268.329
268.298
268.273
268.256
268.249
268.256
271.363
271.467
271.652
270.641
270.53
267.955
268.01
270.796
270.767
267.897
267.863
267.845
267.847
267.91
267.905
267.811
267.876
267.749
267.774
267.719
267.733
267.7
267.708
267.695
267.697
267.697
267.695
267.712
267.703
267.74
267.722
267.795
267.764
267.857
267.825
267.976
267.906
268.167
268.072
268.262
268.271
268.297
268.235
268.281
268.267
268.334
268.304
268.406
268.368
268.49
268.447
268.582
268.535
268.68
268.631
268.782
268.73
268.886
268.833
268.992
268.939
269.099
269.045
269.208
269.154
269.317
269.263
269.428
269.372
269.538
269.483
269.648
269.593
269.759
269.703
269.869
269.814
269.979
269.924
270.088
270.033
270.195
270.141
270.3
270.248
270.401
270.351
270.495
270.449
270.58
270.538
270.661
270.62
270.744
270.702
270.832
270.786
270.938
270.882
271.069
271
271.233
271.146
271.458
271.335
271.736
271.594
272.038
271.889
272.304
272.178
272.579
272.441
272.846
272.718
273.057
273.111
273.114
273.107
273.107
273.108
273.108
273.109
273.109
273.11
273.11
273.111
273.111
273.113
273.112
273.087
273.116
273.035
273.053
273.13
273.15
272.989
273.058
272.77
272.893
272.483
272.631
272.198
272.337
271.897
272.048
271.609
271.751
271.354
271.475
271.156
271.248
271.001
271.074
270.876
270.935
270.777
270.824
270.695
270.736
270.615
270.655
270.533
270.574
270.444
270.49
270.345
270.395
270.241
270.294
270.134
270.188
270.024
270.079
269.913
269.969
269.802
269.858
269.69
269.746
269.577
269.634
269.465
269.521
269.352
269.408
269.239
269.295
269.125
269.182
269.012
269.069
268.898
268.955
268.785
268.842
268.672
268.728
268.559
268.615
268.447
268.503
268.336
268.391
268.226
268.281
268.118
268.172
268.064
273.129
273.149
271.545
270.466
267.84
271.389
268.294
272.203
273.154
273.159
273.159
273.16
273.16
273.16
273.16
270.406
271.579
271.541
271.443
271.449
270.235
270.304
270.242
270.72
270.628
270.673
270.762
270.668
270.714
270.805
270.706
270.755
270.847
270.742
270.794
271.554
270.574
273.147
270.612
272.993
270.536
271.116
271.493
270.613
270.672
270.514
270.359
270.147
271.603
270.496
270.352
270.666
272.431
270.6
272.491
270.445
270.57
271.811
270.423
273.085
270.353
271.209
270.407
270.373
270.503
270.737
273.147
272.278
271.136
270.743
270.735
271.595
272.723
272.063
270.905
273.054
270.369
270.251
270.294
270.852
270.244
272.112
270.676
270.942
270.52
269.802
269.665
270.731
)
;

boundaryField
{
    wall
    {
        type            zeroGradient;
    }
    outlet
    {
        type            inletOutlet;
        inletValue      uniform 85;
        value           nonuniform List<scalar> 
33
(
267.76
267.752
267.75
267.792
267.795
267.671
267.748
267.59
267.624
267.551
267.567
267.544
267.543
267.561
267.551
267.586
267.573
267.619
267.601
267.658
267.635
267.718
267.686
267.782
267.749
267.902
267.832
268.092
267.996
268.232
268.167
267.749
268.233
)
;
    }
    inlet
    {
        type            fixedValue;
        value           uniform 273.16;
    }
    frontAndBackPlanes
    {
        type            empty;
    }
}


// ************************************************************************* //
