/*--------------------------------*- C++ -*----------------------------------*\
| =========                 |                                                 |
| \\      /  F ield         | OpenFOAM: The Open Source CFD Toolbox           |
|  \\    /   O peration     | Version:  2212                                  |
|   \\  /    A nd           | Website:  www.openfoam.com                      |
|    \\/     M anipulation  |                                                 |
\*---------------------------------------------------------------------------*/
FoamFile
{
    version     2.0;
    format      ascii;
    arch        "LSB;label=32;scalar=64";
    class       surfaceScalarField;
    location    "0.0155";
    object      phi;
}
// * * * * * * * * * * * * * * * * * * * * * * * * * * * * * * * * * * * * * //

dimensions      [1 0 -1 0 0 0 0];

oriented        oriented;

internalField   nonuniform List<scalar> 
4475
(
0.000729354
-0.00066775
0.000538441
-0.000605717
-4.58387e-05
0.000487811
-2.51575e-05
-0.000405178
0.00109522
-0.0012166
6.86704e-05
1.09858e-05
0.000264297
0.000165301
-0.000214074
-0.000210565
-0.000629567
0.000529654
0.000611698
-0.000509511
0.000541402
-0.000318299
-0.000614968
0.000393142
-0.000158662
0.000169864
0.000703921
-0.000709748
-0.000455525
-0.000650569
0.000546005
0.000561481
0.000571317
-0.000657329
-0.00054206
-0.000317471
1.7699e-05
2.94103e-05
0.000262635
-3.34738e-05
4.27138e-05
-0.000325555
-0.000374419
7.02197e-05
-2.24001e-05
0.000333962
-0.000399798
2.57151e-05
5.37487e-06
-0.000427991
6.4226e-06
2.3478e-05
-0.000456847
-7.75359e-06
3.51711e-05
-0.000483396
-1.82111e-05
4.14792e-05
-2.25424e-05
-0.000493729
2.94605e-05
0.000480609
-6.0735e-06
-0.000491717
1.712e-05
0.000485493
-2.8207e-05
0.000462627
3.19368e-06
0.000434501
1.97143e-05
0.00040802
3.35308e-05
0.000388464
4.76721e-05
0.000405211
5.57865e-05
0.00033521
3.33739e-05
0.000288031
5.23209e-05
0.00031686
7.74441e-05
-0.000132535
0.000245307
-8.1976e-06
4.22284e-05
0.000739129
-0.000762144
-0.000129997
-0.000507034
4.40897e-06
0.000199782
-6.07219e-06
2.87639e-05
0.00018971
-5.95711e-06
2.61518e-05
0.000193199
-7.75044e-06
2.38888e-05
0.000206371
-9.18068e-06
1.92153e-05
0.000204779
-8.59646e-06
9.4583e-06
0.00018213
-1.67091e-06
-5.2414e-06
0.000140707
1.04677e-05
-2.43113e-05
9.208e-05
2.64187e-05
-4.16599e-05
4.83257e-05
4.10377e-05
-5.28095e-05
1.83797e-05
4.94722e-05
-5.45017e-05
6.73051e-06
4.87072e-05
-4.62499e-05
9.83924e-06
3.89762e-05
-3.49907e-05
1.05155e-05
2.66939e-05
-2.51239e-05
7.87306e-06
1.42182e-05
-1.48472e-05
1.6218e-05
-1.21306e-05
-2.54272e-05
-1.5835e-06
-1.77892e-05
8.49924e-06
4.72338e-07
1.76203e-05
8.86265e-07
2.96512e-05
1.35108e-06
4.20133e-05
-1.68716e-05
4.6813e-05
-5.61352e-05
3.91098e-05
-0.000105363
2.4657e-05
-0.000156734
1.03241e-05
-0.000193948
-2.0511e-06
-0.000210258
-7.08808e-06
-0.000207197
-4.71478e-06
-0.000190163
1.87157e-06
-0.000185585
9.6584e-06
-0.000196168
1.48874e-05
-0.000244363
1.83097e-05
-0.000314543
2.676e-05
-0.000280015
6.74475e-05
-0.000122361
-0.000315498
5.98238e-05
-0.00031767
4.90979e-05
-0.000335142
3.68303e-05
-1.07222e-05
-0.000373329
2.57024e-05
-0.000397557
3.71755e-05
-0.000425265
5.31487e-05
-0.000456243
6.22336e-05
-0.000482779
6.15174e-05
-0.000512374
5.26167e-05
-1.01606e-05
-3.57673e-06
-6.53786e-05
-1.4771e-05
-6.7563e-05
0.000495196
-2.35017e-05
-0.000498187
0.000470236
2.91181e-05
0.000442863
4.61866e-05
0.000417011
5.82514e-05
0.000399564
6.39806e-05
0.000386146
6.64956e-05
0.000349855
6.16439e-05
0.000317072
6.73569e-05
0.00029289
7.226e-05
0.000241788
5.81162e-05
0.000199455
4.85829e-05
0.000188187
4.36888e-05
0.000188428
3.7571e-05
0.000196684
2.59871e-05
0.000189498
8.26853e-06
0.000163142
-1.34959e-05
0.000123719
-3.65342e-05
8.22541e-05
-5.20945e-05
4.81904e-05
-5.74761e-05
2.71574e-05
-5.2995e-05
1.92866e-05
-4.12686e-05
1.99387e-05
-3.17956e-05
1.87029e-05
-2.73852e-05
1.09362e-05
-2.18259e-05
-8.65817e-06
-3.6451e-05
-2.45929e-05
-0.000516926
5.01407e-05
-3.03483e-05
-5.95667e-05
-5.14778e-05
-0.000481605
-0.000532389
1.79834e-05
2.72457e-05
-6.93549e-05
-1.45909e-05
1.27712e-05
4.88883e-06
9.89915e-06
2.19173e-05
9.91688e-06
3.26238e-05
3.81155e-06
4.33159e-05
-2.34703e-05
3.99377e-05
-7.01078e-05
2.53957e-05
-0.000120909
8.71391e-06
-0.000167769
-4.83791e-06
-0.000197558
-1.1676e-05
-0.000208339
-9.41209e-06
-0.000199069
-1.63926e-07
-0.000181146
1.29685e-05
-0.000176641
2.53867e-05
-0.000192248
3.50177e-05
-0.000240269
3.96986e-05
-0.000290837
4.66104e-05
-0.000302924
6.29248e-05
-0.000313578
6.83105e-05
-0.000325511
6.95526e-05
-0.000339102
6.40035e-05
-0.000362268
6.25016e-05
-0.000388
7.16037e-05
-0.000418229
8.44611e-05
-0.00045409
9.37021e-05
-0.000489893
8.851e-05
-0.000520126
7.2284e-05
-0.000531499
0.000871168
-0.000794009
0.000239597
-0.000647699
-0.000101684
0.00050904
-0.000328615
-0.000401668
0.000367713
0.000362601
0.000452449
0.000591149
0.000101132
-0.000117002
-0.00056986
0.000511287
6.03735e-05
0.000478979
6.26468e-05
0.00044879
7.48487e-05
0.000423828
7.99654e-05
0.000402467
8.13093e-05
0.000382839
8.02911e-05
0.000355145
7.79357e-05
0.000322743
7.82985e-05
0.000285668
7.76897e-05
0.000237254
7.05699e-05
0.000196842
6.43848e-05
0.000181648
5.771e-05
0.000177672
4.73246e-05
0.00017841
3.04381e-05
0.000166749
5.55326e-06
0.000140887
-2.0659e-05
0.000108127
-4.35088e-05
7.77174e-05
-5.53679e-05
5.41537e-05
-5.54223e-05
3.85091e-05
-4.81098e-05
3.07533e-05
-3.75844e-05
2.67735e-05
-3.24886e-05
2.13528e-05
-3.42513e-05
7.95632e-06
-3.67979e-05
-1.05652e-05
-5.11249e-05
-5.46395e-05
-6.50363e-05
3.75729e-05
-8.64454e-05
-5.53238e-05
2.38405e-05
-9.10106e-05
1.11425e-05
-9.87623e-05
-1.8323e-06
-0.000103197
-0.000549056
0.000525109
-0.000624131
-0.000107185
-1.46744e-05
-0.000762808
-0.000616043
0.000837392
-0.000573018
0.000751538
0.00043497
-0.000629365
-5.0961e-05
-0.000537116
0.000725198
-0.000549928
0.000728552
-0.000906699
0.000581388
0.000533713
-0.000580611
-0.000678329
-1.23632e-05
0.000175102
-0.000558553
4.6433e-05
1.5335e-05
-5.65605e-05
-0.0001018
-1.44767e-05
-0.000118255
-2.3252e-05
-0.000147607
-2.50652e-05
-0.000160044
-2.99745e-05
-0.000160286
0.00011211
-3.59092e-05
-0.000162898
7.55453e-05
-2.60209e-05
4.03085e-05
-1.35964e-05
2.53136e-05
3.13938e-06
2.01732e-05
2.39247e-05
1.6298e-05
3.16932e-05
2.65399e-07
3.81267e-05
-3.74421e-05
2.74491e-05
-8.63381e-05
9.52305e-06
-0.000134208
-5.50551e-06
-0.00017302
-1.6005e-05
-0.000194699
-1.77411e-05
-0.000197991
-1.02209e-05
-0.000183833
4.30834e-06
-0.000167504
2.33026e-05
-0.000163785
3.89387e-05
-0.000187054
5.18405e-05
-0.000236778
5.70995e-05
-0.000283508
6.29963e-05
-0.000307775
7.27939e-05
-0.000321202
8.30124e-05
-0.000325666
8.61713e-05
-0.000335628
9.09862e-05
-0.000352277
9.54438e-05
-0.000375558
0.000104715
-0.000408607
0.000117863
-0.000447829
0.000125541
-0.000492513
0.00012066
9.98391e-05
-0.000533696
0.00010839
-6.57595e-05
-0.00063864
0.000602073
0.000844256
-0.000823159
0.000769488
-0.000794686
0.000512253
-0.00049406
0.000596659
0.000695505
0.000134373
4.46781e-05
0.00069794
0.000201614
-0.000201343
0.000677198
0.000196707
0.000642772
0.000176778
-0.000134381
0.000604858
0.000154729
0.000577218
0.000141447
-0.000105153
0.000556628
0.000128342
0.000511299
0.000109929
0.000476379
9.89172e-05
0.000449027
0.000100172
0.000424035
0.000100067
0.000401293
9.7949e-05
0.000380741
9.29721e-05
0.000354694
9.09606e-05
0.000322036
8.85323e-05
0.000281044
8.5977e-05
0.000233198
8.19888e-05
0.000191858
7.77152e-05
0.00016951
6.94474e-05
0.000160207
5.3567e-05
0.00015325
3.31056e-05
0.000139602
3.27201e-06
0.00011805
-2.3743e-05
9.687e-05
-4.38266e-05
7.88368e-05
-5.23364e-05
6.35379e-05
-5.06222e-05
4.92669e-05
-4.42102e-05
3.85537e-05
-3.86898e-05
2.86964e-05
-3.96371e-05
1.75704e-05
-4.75496e-05
8.27257e-07
-6.21808e-05
-1.64528e-05
-6.84744e-05
-5.10136e-05
-9.58711e-05
-8.06057e-05
-7.57817e-05
-8.95556e-05
-9.2402e-05
-2.15004e-05
0.00106764
-0.000851557
-0.000209509
-0.000685078
0.000640089
-0.000529289
0.000358831
0.000606784
-0.000449203
-0.000294519
3.63412e-05
0.000207327
6.02361e-05
-0.00113488
-6.2479e-05
0.000180438
0.000951028
-0.000727359
-0.000479066
-1.07688e-05
-0.000605337
-0.000627022
-5.35273e-05
0.000619056
0.000118079
-0.000165372
-3.55847e-05
8.69857e-05
-3.52093e-05
5.56908e-05
-1.44816e-05
3.88204e-05
-3.0764e-06
2.92652e-05
1.87052e-05
1.80645e-05
2.06253e-05
-1.13633e-05
2.04366e-05
-5.55296e-05
6.40919e-06
-0.000102277
-8.27029e-06
-0.000144705
-1.9087e-05
-0.00017348
-2.4161e-05
-0.000186222
-2.06173e-05
-0.000181833
-8.60211e-06
-0.000163457
9.95336e-06
-0.000150288
3.16934e-05
-0.000149568
5.0424e-05
-0.000181638
6.43375e-05
-0.000233603
7.07376e-05
-0.000279197
7.69448e-05
-0.000305706
8.59975e-05
-0.00031751
9.79898e-05
-0.000321769
0.000104235
-0.000328838
0.000116279
-0.000341347
0.000125593
-0.000363064
0.000135625
-0.000395785
0.00014889
-0.000436791
0.000156336
-0.000481588
0.000150999
-0.00053828
0.000141863
7.94388e-05
-0.000578334
-0.000651465
-0.000592002
0.000692755
-1.52719e-05
-0.000579484
0.000464496
0.000114711
0.000697532
0.00020034
-0.000760961
0.000679171
0.000222109
0.000652939
0.000230293
0.000618671
0.000220661
0.000585288
0.000198271
0.000556607
0.000180083
0.000528538
0.000163532
0.000494644
0.000146961
0.000462262
0.000132569
0.000438284
0.00012252
0.000414784
0.000117342
0.000394921
0.000110644
0.000374324
0.00010488
0.000350084
0.000101978
0.00031805
9.87357e-05
0.000276131
9.61872e-05
0.00022797
9.31653e-05
0.000184532
8.85363e-05
0.000154388
7.84818e-05
0.000136587
5.98077e-05
0.000124299
3.44114e-05
0.00011169
4.53406e-06
9.85272e-05
-2.11287e-05
9.00553e-05
-3.86469e-05
8.2639e-05
-4.61177e-05
7.08268e-05
-4.61533e-05
5.60228e-05
-4.50525e-05
4.02717e-05
-4.71465e-05
2.38374e-05
-5.51856e-05
6.17905e-06
-6.56334e-05
-1.3631e-05
-8.94459e-05
-2.56949e-05
-8.42972e-05
-4.9987e-05
-0.000112519
-7.39418e-05
-8.40125e-05
-8.80962e-05
-9.24005e-05
6.35103e-05
-5.97474e-05
-9.89855e-05
4.6109e-05
-0.000106929
2.04945e-05
-0.000124523
1.31523e-06
-0.000145496
-6.2534e-06
-0.000179307
-1.31153e-05
-0.000189478
-2.37436e-05
-0.000186898
-3.44045e-05
-0.000193083
-0.000196441
-4.00386e-05
-0.000683304
-0.000556013
0.000701277
-0.000290721
0.000311035
-0.00103966
0.00103791
-0.000448757
0.000273885
-0.000407143
0.000578239
-0.000902717
-0.000522277
0.000863299
0.000661136
-0.000790753
-0.000124706
0.000140869
0.000541421
-0.000584171
0.000113959
3.73215e-05
-0.000633968
-0.000606388
-0.000649932
0.000602402
-0.000719593
-0.000497811
0.000306311
-0.000847445
0.000610674
-0.000784979
0.00102705
0.000547597
0.000550764
0.000627988
-0.000640774
0.000215862
0.000603451
0.000248926
0.000584182
0.000257497
0.000562767
0.000253424
0.000539036
0.0002337
0.000515894
0.00021443
0.000491133
0.00019584
0.000464807
0.000176543
0.000441181
0.000157938
0.000420743
0.000141778
0.000401662
0.00012999
0.000384183
0.000121608
0.000365545
0.000114997
0.000343335
0.000111451
0.000312293
0.000109065
0.000270863
0.000106971
0.000221942
0.000103932
0.000173524
9.81593e-05
0.000134393
8.63343e-05
0.000108667
6.55777e-05
9.40863e-05
3.79814e-05
8.54683e-05
1.01687e-05
8.24927e-05
-1.29135e-05
8.45745e-05
-2.94697e-05
8.24322e-05
-3.81471e-05
7.23294e-05
-4.42964e-05
5.53728e-05
-5.19431e-05
3.47048e-05
-6.19597e-05
1.34776e-05
-7.43782e-05
-5.90622e-06
-8.41783e-05
-2.28414e-05
-0.000104321
-2.88249e-05
-8.92182e-05
-4.41575e-05
-0.000100709
-5.84005e-05
-7.24427e-05
-7.58723e-05
-6.43476e-05
-8.21991e-05
-4.03419e-05
6.15356e-05
-3.35078e-05
-9.75777e-05
5.90687e-05
-9.71639e-05
1.42094e-05
-7.3677e-05
-3.91685e-05
-8.0577e-05
-6.51265e-05
-0.000124152
-4.13564e-05
-0.000206027
-2.04986e-05
-0.000219024
-2.28256e-05
-0.000205251
-3e-05
-0.000217868
-3.19158e-05
-0.00022559
0.000216008
-0.000265719
4.02823e-06
0.000178036
-2.43847e-05
0.000129336
-1.87189e-05
0.000101706
-3.70002e-05
7.32522e-05
-1.84126e-05
5.15135e-05
-1.84038e-05
3.41869e-05
-2.32971e-06
1.31664e-05
-7.6091e-06
-2.58452e-05
-1.33708e-05
-7.22049e-05
-2.36867e-05
-0.000114644
-3.10416e-05
-0.000149415
-3.4094e-05
-0.00016912
-3.08538e-05
-0.000173713
-2.06764e-05
-0.000162817
-4.63321e-06
-0.000140881
1.60275e-05
-0.00012947
3.80699e-05
-0.000134638
5.85275e-05
-0.000174954
7.24239e-05
-0.000228619
8.02105e-05
-0.000273014
8.77296e-05
-0.000298794
9.8218e-05
-0.000311145
0.000112614
-0.000315324
0.000121605
-0.000319219
0.000137827
-0.000326883
0.000149438
-0.000346498
0.000162196
-0.000377269
0.000176084
-0.000416527
0.000185561
-0.000466565
0.000188135
0.000178139
-0.000514813
-0.000673687
-0.000612301
0.000692595
7.97043e-05
-0.00063379
-0.000732331
2.54919e-05
6.81726e-05
-6.24155e-05
-0.000621234
-0.00070913
0.00077859
-0.000730569
-0.000556436
0.000707379
-0.000465969
-0.000356819
0.000567182
-0.00031702
1.5584e-05
0.000271861
0.00017754
-7.4014e-05
0.000538449
0.000178461
-0.000544614
0.000515455
0.000242157
0.00049849
0.000269672
0.000487597
0.000277553
0.000480682
0.000273005
0.000468545
0.000259056
0.000455573
0.000239389
0.000439733
0.000219777
0.000423694
0.000196696
0.00040985
0.000174697
0.000397092
0.000154418
0.000384153
0.000138678
0.000370964
0.000129521
0.000355414
0.000122658
0.000335231
0.000119465
0.000305638
0.000118403
0.000264521
0.000116662
0.000212977
0.000113538
0.000159008
0.000105638
0.000112175
9.20377e-05
8.04541e-05
7.09562e-05
6.51669e-05
4.53504e-05
6.15111e-05
2.09807e-05
6.78664e-05
2.61864e-07
7.52041e-05
-1.69903e-05
7.56248e-05
-3.10171e-05
6.56817e-05
-4.56013e-05
4.62982e-05
-6.09413e-05
2.34593e-05
-7.57196e-05
2.75601e-06
-8.89404e-05
-1.28202e-05
-9.03791e-05
-2.17764e-05
-9.55164e-05
-2.15395e-05
-7.34021e-05
-3.14517e-05
-6.46741e-05
-3.79801e-05
-4.58167e-05
-5.78871e-05
-1.47509e-05
-6.65611e-05
-7.48612e-06
-7.93394e-05
-5.75269e-06
3.63395e-05
-9.52465e-05
-1.6145e-05
4.4412e-05
-0.000100906
5.36618e-05
-0.000104461
2.30021e-05
-4.40022e-05
-2.98745e-05
-2.7693e-05
-3.94838e-05
-0.000106099
-2.70782e-05
-0.00020668
-1.19015e-05
-0.000231716
-1.73938e-05
-0.000214997
-2.43501e-05
-0.000239155
-3.01337e-05
-0.000249515
-4.05675e-06
-0.000307797
0.000248551
-0.000279373
2.88061e-05
0.000202309
5.4358e-05
0.000168612
1.89404e-07
0.000126395
4.98242e-06
0.000106388
-3.55481e-05
8.43639e-05
-2.54837e-05
5.80996e-05
-4.4042e-05
3.3064e-05
-3.9611e-05
1.32429e-06
-5.37156e-05
-3.89103e-05
-6.00786e-05
-8.0763e-05
-6.46049e-05
-0.000118751
-6.14005e-05
-0.000146406
-5.26383e-05
-0.00015948
-3.84908e-05
-0.000157417
-2.06453e-05
-0.00014178
-3.98923e-07
-0.000118732
2.1862e-05
-0.000108274
4.3269e-05
-0.000120004
6.23851e-05
-0.000166097
7.53372e-05
-0.000220528
8.45397e-05
-0.000263563
9.44344e-05
-0.000288292
0.000107435
-0.000298738
0.000123121
-0.000303171
0.000136694
-0.000304214
0.000153689
-0.000309408
0.000167678
-0.000324932
0.000181853
-0.000350308
0.000197297
-0.000382965
0.00020989
-0.000423734
0.000219481
0.000219695
-0.000474065
-0.000565676
0.000155689
-0.000654811
-0.0006691
-0.00063442
-0.000703432
0.000723943
0.000295355
0.000827618
-0.000758932
-0.000363184
-0.000615134
0.000122847
-0.000539892
-0.00013157
7.0117e-05
-0.00063747
-0.000279434
-0.000688663
-0.000435056
8.71913e-05
-0.000308045
-0.000513408
-0.000301006
-0.000607025
5.45519e-05
-0.000678506
6.55364e-05
-0.000651278
-0.000704351
-0.000658468
-0.000599527
2.43248e-05
-6.11001e-05
-7.67215e-05
5.05505e-05
-0.000114234
3.35931e-05
-5.93148e-05
-4.01381e-05
5.83322e-05
-0.000115807
8.11937e-05
-0.0001779
-9.75598e-06
-8.94641e-05
-0.000276638
-1.11284e-05
-0.000304592
-7.00775e-06
-0.000241522
-1.09593e-05
-0.000268163
-8.15764e-06
-0.000282997
3.84768e-05
-0.000364996
0.000104854
-0.000327036
0.000157075
0.000153541
-0.000151591
0.000163631
3.01644e-05
0.000151813
9.14882e-05
0.000136001
1.77355e-05
0.000107235
2.48892e-05
9.46314e-05
-3.11964e-05
7.92607e-05
-3.23403e-05
5.11404e-05
-6.89998e-05
2.3582e-05
-8.19539e-05
-6.78669e-06
-0.000103125
-4.36945e-05
-0.000110026
-7.95208e-05
-0.000109948
-0.000111228
-9.66102e-05
-0.000133222
-7.6124e-05
-0.000142422
-5.11502e-05
-0.000137576
-2.48506e-05
-0.000119696
1.52289e-06
-9.79565e-05
2.58486e-05
-8.8192e-05
4.61168e-05
-0.000106242
6.24125e-05
-0.000155336
7.29662e-05
-0.000209432
8.30018e-05
-0.00025068
9.56375e-05
-0.000274603
0.000111786
-0.000283554
0.000128725
-0.000285706
0.000145006
-0.000285359
0.000163962
-0.000287265
0.000177667
-0.000298535
0.000193465
-0.000315658
0.000209418
-0.000338169
0.000225814
-0.000367811
0.000243335
0.000257607
-0.000410671
0.000202797
-0.000528435
0.00064305
-0.000459279
-0.000678037
-0.000637054
-0.000726342
-4.62738e-06
0.000278944
-0.000242704
-3.36105e-05
0.00111065
7.79271e-05
-0.00110035
-0.000132925
0.000376835
0.000267309
-0.000396471
0.00037466
0.00027874
0.000377906
0.00028577
0.000381393
0.000283324
0.000381638
0.000273016
0.000380984
0.000252728
0.000378825
0.000231306
0.000375728
0.000205816
0.000372987
0.000181717
0.000369572
0.000159894
0.000364223
0.000142819
0.000356722
0.00013279
0.000345131
0.000127093
0.000327335
0.00012481
0.000299005
0.0001248
0.000256782
0.000123656
0.000202486
0.000119102
0.000142402
0.000109958
8.94679e-05
9.51878e-05
5.4096e-05
7.63225e-05
3.93034e-05
5.6024e-05
3.94065e-05
3.77521e-05
5.01498e-05
1.75287e-05
5.97135e-05
-2.44352e-06
6.08534e-05
-2.40768e-05
5.00919e-05
-4.60577e-05
3.1174e-05
-6.60698e-05
1.12738e-05
-8.07869e-05
-2.61935e-06
-8.64291e-05
-1.01524e-05
-7.86833e-05
-9.09423e-06
-6.74981e-05
-6.90136e-06
-4.4587e-05
-1.0701e-05
-1.73494e-05
-1.65066e-05
-7.2544e-06
-4.92725e-05
4.12092e-05
-7.01559e-05
3.50599e-05
-0.000120587
4.49752e-05
-0.000161722
1.97734e-05
-0.000248648
-2.10528e-05
-0.000657723
-0.000727804
0.000749203
-0.000691572
-0.000680108
0.000904553
-8.64613e-05
0.000112058
-0.000946045
-0.000632388
3.88329e-05
-0.00044566
-0.000646208
9.25317e-05
9.19969e-05
-2.78714e-05
0.000165829
9.26529e-05
3.50861e-05
0.000107051
0.000117127
9.70492e-05
3.56944e-05
7.79686e-05
4.53378e-05
6.83667e-05
-2.29667e-05
5.45023e-05
-3.13064e-05
2.97393e-05
-8.24714e-05
7.13651e-06
-0.000109341
-1.66603e-05
-0.000134811
-4.2719e-05
-0.000146656
-6.82988e-05
-0.000146719
-9.22292e-05
-0.00012915
-0.000109543
-0.000102889
-0.000116916
-7.00584e-05
-0.00011258
-3.54724e-05
-9.56316e-05
-2.8544e-06
-7.74688e-05
2.50409e-05
-7.16378e-05
4.5351e-05
-9.43332e-05
5.81818e-05
-0.000143453
6.63362e-05
-0.000195573
7.60535e-05
-0.000234641
9.0588e-05
-0.000256966
0.000108505
-0.000265477
0.000127708
-0.000267321
0.000146735
-0.000264553
0.000165405
-0.000265041
0.000179733
-0.000271286
0.000195382
-0.000277534
0.000209612
-0.000283531
0.000226997
-0.000294587
0.000251965
-0.000316843
0.000280393
0.000254744
-0.000466341
0.000484628
-0.000411741
0.000569771
-0.000752782
-0.000584319
9.53387e-05
-2.31921e-05
-0.000332371
0.000108604
-9.8283e-05
0.000103646
-0.000107238
0.000178781
-0.000110442
6.90335e-05
0.000215127
-0.000117736
0.00031849
-0.000111477
2.1334e-05
-9.91668e-05
-0.000274407
-7.58604e-05
-0.000330662
-5.40361e-05
-0.000284923
-5.07607e-05
-0.000299467
-4.15107e-05
-0.000319831
-4.45738e-05
-0.000386114
-3.80166e-05
-0.000351648
-6.52561e-05
-0.000144445
-6.64415e-05
-3.92994e-05
0.000787119
-0.000472198
-0.000779096
0.000586576
-0.000541776
0.000488202
-0.000363687
0.000389468
-0.000206343
-8.34353e-05
-0.000469177
0.000527005
0.000493651
-0.000139527
-0.000826921
0.000414058
-0.000376171
-2.34638e-06
-2.41489e-05
0.000236701
-0.000104591
0.000136598
0.000203622
0.000238756
-0.000166209
0.00022853
0.000264322
0.000249801
0.000278345
0.000267872
0.000280148
0.000285491
0.000270327
0.000300169
0.000251593
0.000314434
0.000227958
0.00032558
0.000202758
0.00033494
0.000178847
0.000341398
0.000157986
0.000344593
0.0001411
0.000342517
0.00013139
0.000335514
0.000126985
0.000320062
0.000125978
0.000292361
0.000126399
0.000248307
0.000125618
0.000189361
0.000120128
0.000124889
0.000109058
6.85993e-05
9.51699e-05
3.23435e-05
8.16134e-05
1.78832e-05
6.99499e-05
1.76895e-05
5.92896e-05
2.78327e-05
3.91621e-05
3.65437e-05
1.38482e-05
3.77438e-05
-1.40677e-05
2.94344e-05
-4.16835e-05
1.64573e-05
-6.20007e-05
6.14388e-06
-7.0938e-05
2.91773e-06
-6.73701e-05
7.21448e-07
-5.40166e-05
1.25283e-05
-3.49537e-05
1.86018e-05
-9.30807e-06
1.45552e-05
1.74239e-05
1.22022e-05
4.29043e-05
-3.39853e-05
7.14034e-05
-7.47092e-05
7.2031e-05
-0.00015012
9.85727e-05
-0.000207477
5.33336e-05
-0.000377264
0.000100281
-0.00044958
4.26752e-05
0.000118766
0.00088831
-0.000118275
0.000157393
-0.000568121
-0.000331633
0.000151021
-0.000684028
-0.000755908
0.000778837
-0.000662115
-0.000753293
-0.000682164
-0.000725562
-0.000954112
-0.000209247
0.00105915
0.000994255
-0.000102706
-0.000923847
0.000520397
8.20317e-05
-0.000692226
0.000338078
-0.000397084
0.000511394
0.000438416
-0.000452744
-0.00062815
-0.000796081
0.000735673
4.18464e-05
-5.82165e-05
0.000231162
-0.000225791
-0.000203532
-0.00103129
0.00011913
0.00113125
-3.68373e-05
-2.94162e-05
1.07598e-05
7.63995e-05
0.000108153
3.69241e-05
7.2183e-05
7.75274e-05
0.000123434
5.77885e-05
5.64363e-05
4.38589e-05
5.99183e-05
3.13915e-05
-8.94642e-06
1.62976e-05
-2.49111e-05
-3.02118e-06
-7.62361e-05
-1.64925e-05
-0.000110216
-2.94961e-05
-0.000135751
-4.07003e-05
-0.0001546
-5.29489e-05
-0.000160935
-6.63371e-05
-0.000148204
-7.744e-05
-0.000124067
-8.32161e-05
-9.01317e-05
-8.04395e-05
-5.18306e-05
-6.80411e-05
-1.43468e-05
-5.64116e-05
1.70812e-05
-5.7491e-05
3.83297e-05
-8.43952e-05
4.95538e-05
-0.000131097
5.60463e-05
-0.000179405
6.54886e-05
-0.000215236
8.09264e-05
-0.000236141
9.96784e-05
-0.000244314
0.000120147
-0.000245567
0.000140215
-0.000243461
0.000159257
-0.00024256
0.00017278
-0.000242406
0.000186822
-0.000241297
0.000200931
-0.000237232
0.000219646
-0.000226105
0.000240921
-0.000200738
0.00025984
0.000267897
-0.000123774
0.000744508
-0.000373636
-0.000669999
0.000409407
-0.000415974
0.00085444
-0.000579197
-0.00096335
9.57871e-05
-7.67715e-06
-0.000495671
2.50523e-05
-0.000273196
6.27414e-05
-0.000158399
0.000215731
-0.000265767
5.67823e-05
5.43278e-05
-4.03556e-05
0.000322932
-0.000150884
0.000448795
-0.000326783
0.00020267
-0.00020713
-0.000383096
-4.22467e-05
-0.000493661
-3.1e-05
-0.000322683
6.36009e-05
-0.000394583
0.000214251
-0.000470753
3.35389e-05
-0.000207183
-0.000232842
-7.14543e-05
-7.3727e-05
-0.000266633
0.000179608
-0.000246733
0.000132959
4.63819e-05
-0.000512689
0.000414254
-0.000439896
0.000280238
-0.000259159
0.000169147
-0.000122248
8.9429e-05
-2.57474e-05
5.89736e-05
3.41723e-05
-0.000139259
5.60747e-05
0.000784506
-0.000785257
1.72236e-06
0.000163625
3.53612e-05
-0.00019142
4.79985e-05
0.00020551
8.85409e-05
0.000238129
0.000126007
0.000256079
0.000161862
0.000260074
0.000195263
0.000252116
0.000226097
0.000234747
0.000253863
0.000212418
0.000278277
0.000188588
0.000298516
0.000167054
0.000314889
0.000148454
0.000326048
0.000133241
0.000329763
0.000124477
0.000326759
0.000121739
0.000313006
0.00012204
0.000284396
0.000122693
0.000237305
0.000121171
0.000174363
0.000113987
0.000107508
0.000102391
5.21444e-05
9.15291e-05
1.77289e-05
8.67811e-05
1.32928e-06
8.69379e-05
-2.99379e-06
8.20202e-05
6.29526e-07
6.3104e-05
6.45134e-06
3.29093e-05
9.72772e-06
-5.57911e-07
8.79076e-06
-2.98148e-05
7.19061e-06
-4.72185e-05
8.20881e-06
-5.10312e-05
1.45225e-05
-4.38755e-05
2.27087e-05
-2.87647e-05
3.65515e-05
-9.19266e-06
5.32748e-05
2.04093e-05
4.27229e-05
3.39978e-05
3.87682e-05
7.04938e-05
-4.75241e-06
6.85336e-05
-6.56918e-05
8.21595e-05
-0.000126475
0.000120716
-0.00016502
5.93257e-05
-0.000265318
0.000162002
-0.000301495
7.23912e-05
-0.000382553
0.000133091
0.000819536
-0.000479201
-0.000822661
0.000201098
-0.000511929
0.00080612
-0.000570903
-0.000802044
0.000801581
-0.000627652
0.000616654
-0.000785607
-0.000678797
0.000654136
-0.000708509
-0.000767249
-0.000610634
0.000131805
-0.000800922
-0.000742446
-0.000697274
-0.000734306
-0.000743063
0.00109583
-0.00105166
-0.00023214
0.000258888
-0.000563204
0.000529209
-0.000237224
-0.00117963
0.00107877
-1.73055e-05
0.000440283
-0.000381556
0.0001177
-0.000239343
-0.000244143
0.000726855
0.000257664
0.000936335
-0.000934607
9.37508e-05
0.000113136
0.00092357
0.000139528
0.000254489
0.000169185
0.000236533
0.000192698
0.000217394
0.000208851
0.000199756
0.000218423
0.000182387
0.00022202
0.00016976
0.000222218
0.000158749
0.000223737
0.000144562
0.000221672
0.000126664
0.000212765
0.000106434
0.00019335
8.54954e-05
0.000161094
6.63329e-05
0.000117819
5.17612e-05
7.34414e-05
4.29356e-05
4.2372e-05
3.6439e-05
3.16286e-05
2.4755e-05
3.49606e-05
1.57821e-06
4.18066e-05
-3.18963e-05
4.41875e-05
-6.91579e-05
4.2442e-05
-0.000102897
4.10068e-05
-0.000128587
4.16627e-05
-0.000139315
4.33775e-05
-0.000138241
4.56345e-05
-0.000128242
4.43669e-05
-0.000107924
3.78376e-05
-8.90755e-05
2.3846e-05
-5.20747e-05
1.06104e-05
-2.03761e-05
-7.35362e-06
1.26604e-05
-1.40487e-05
5.89084e-05
-4.74111e-05
7.30155e-05
-1.73462e-05
0.000130507
-6.25334e-05
9.50242e-05
-5.63593e-05
0.000136677
-0.000138392
8.74936e-05
-0.000220294
0.000206875
0.000155501
0.000903559
-0.000180131
9.97916e-06
4.72241e-05
-0.000422189
6.19537e-05
-0.000523264
0.000248654
-0.000453814
0.000298892
-0.000212558
0.000301082
-0.000265024
0.000491027
-0.000116214
0.000213115
0.000629317
-0.000194852
0.000884685
-0.000327964
0.000352046
-0.000276632
-0.000426137
-0.000268788
-0.000495305
-0.000194732
-0.000402031
-0.000210735
-0.000395459
-0.000241368
-0.00045797
-0.000185235
-0.000287926
-0.000119107
-0.000146262
-0.000225907
-0.000168575
-0.000258651
-0.000213782
-0.000135362
-6.98755e-05
4.58792e-05
-0.000401193
0.000801174
-0.00036489
0.000227285
-0.000420616
-0.000554332
0.000784248
0.000557201
0.000292058
0.00102891
-0.000798846
-0.00053836
0.000191674
-0.000869243
0.000129871
-0.000899048
0.000101282
-0.000921541
0.000936457
7.52611e-05
-0.000926187
0.000929495
8.35845e-05
0.000929539
9.3203e-05
-0.000163157
0.000175702
0.000894102
-3.84652e-05
0.000274088
0.000172157
0.000871234
-0.000861005
-0.000178975
0.000428994
0.000175966
-0.000358451
0.000346692
-0.000105235
-3.05975e-05
-0.0002214
0.000129653
-0.000780553
-0.000624131
0.000764952
-0.000776927
-0.000691395
-0.000729055
-0.000764897
0.000107425
-0.000638777
0.000789815
-0.000473663
-0.000809656
0.000168816
-0.000141205
0.00019292
-0.000251599
3.57765e-05
-0.000134929
-6.77988e-05
-4.57099e-05
-0.000136342
2.36147e-05
9.31023e-05
-0.000179654
0.000164463
-0.000104613
-2.39907e-05
-0.000215875
0.000138861
0.00036258
-0.000279136
-0.000187659
5.12021e-05
-9.67376e-05
0.000245061
-0.000132857
0.000122695
-7.91737e-05
0.000167819
-2.62522e-05
0.000201608
2.4679e-05
0.000220997
7.31287e-05
0.000227755
0.000119658
0.000220607
0.000162978
0.000205666
0.000202392
0.000186322
0.000237157
0.000165819
0.000266729
0.000147442
0.000291351
0.000131908
0.000309066
0.000119432
0.000318253
0.000112282
0.000318552
0.00011107
0.000305921
0.000112084
0.000274928
0.000112674
0.000223408
0.000109547
0.000157137
0.000100861
9.15231e-05
8.99537e-05
4.17124e-05
8.47335e-05
1.06649e-05
9.09597e-05
-7.94877e-06
0.000102338
-2.56652e-05
0.000104979
-2.88014e-05
8.73662e-05
-2.68138e-05
5.26661e-05
-1.97815e-05
1.53662e-05
-9.6838e-06
-1.30666e-05
1.25598e-06
-2.91234e-05
1.39774e-05
-3.22041e-05
2.89383e-05
-2.53976e-05
4.57795e-05
-1.18045e-05
6.27613e-05
5.41857e-06
7.98098e-05
3.03514e-05
6.76228e-05
3.24299e-05
5.52693e-05
6.68984e-05
1.4398e-05
5.03207e-05
-5.40214e-05
6.57067e-05
-0.000107551
0.000108587
-0.000116684
3.49909e-05
-0.000159788
0.000196527
-0.000147307
6.4145e-05
-0.000322588
0.000360884
-0.000355434
7.44104e-05
0.000455604
0.000633199
-0.000571222
0.000352618
0.000519511
-0.000322145
0.00040522
0.000256235
-0.000995505
0.000333037
0.00099669
-0.000318471
7.09597e-05
-0.00022919
0.000170307
-0.000552057
-8.09183e-05
0.00112674
6.65405e-06
0.000231357
-2.07068e-05
-0.000151065
0.000269653
0.000945967
-0.000396327
-0.000806801
-0.000761706
-0.000715722
-0.000756298
-0.00072154
-0.000749922
0.000592166
-0.000625271
0.000540181
0.000723075
-0.000675325
-0.000748947
0.000678892
0.000897155
-0.0006781
0.00107885
0.000288388
-0.000253141
-0.000986659
0.000200714
0.000933784
0.000873273
-0.000669207
-0.00103472
-1.43651e-05
-0.000205247
-1.94017e-05
-0.000254893
-0.000981873
6.74752e-05
-0.000976475
6.10686e-05
-0.000956687
3.98454e-05
8.68698e-05
0.000213284
0.000128877
0.000200441
0.000159944
0.000186085
0.000182012
0.000171114
0.000196142
0.000157402
0.000201685
0.000145968
0.000200827
0.000136973
0.000198721
0.000123744
0.000194274
0.000107529
0.000184601
8.76767e-05
0.000166529
6.78876e-05
0.0001382
4.99236e-05
9.96295e-05
3.70601e-05
5.66931e-05
2.85921e-05
2.05332e-05
2.06543e-05
-1.25106e-06
7.05755e-06
-5.83474e-06
-1.90175e-05
-1.84864e-06
-5.02178e-05
5.18795e-06
-7.82341e-05
1.39196e-05
-9.70674e-05
2.48966e-05
-0.000103152
3.70747e-05
-0.000101589
4.83418e-05
-9.43362e-05
5.77035e-05
-8.64829e-05
6.56493e-05
-6.93491e-05
6.53286e-05
-6.13479e-05
6.07651e-05
-2.88203e-05
4.56561e-05
-1.51766e-05
2.95156e-05
2.51185e-05
2.25418e-05
5.29841e-05
-1.92988e-05
8.24523e-05
3.87347e-06
0.00012073
-4.824e-05
0.000119624
-5.67701e-05
0.000165357
-0.000146735
0.000167254
-0.000184671
0.000215632
-0.000372124
0.000230424
0.000357588
0.000111631
-0.000382552
0.000307823
5.67281e-05
0.000232447
3.46412e-06
0.000118143
-5.3119e-05
-5.1434e-05
-0.000116961
-0.000290686
-0.000202777
-0.000532242
0.000513282
0.00010872
-0.000202565
0.000749629
-0.0003428
0.000360528
-0.000531529
0.000726858
0.000483568
0.000447796
-0.000136478
0.000927675
8.51512e-05
0.000166685
0.000907739
0.000695728
-0.000685888
-0.000592238
-0.000728998
-0.000759266
0.00068305
-0.000180723
0.000108092
-0.000609981
-0.000188399
-0.000658064
-9.31063e-05
-0.000701343
0.000789803
-0.000379515
0.000207732
-0.000150502
-0.000824673
0.000754567
-0.000971352
0.000110208
0.000982564
-0.000337861
-0.000574419
0.000416506
0.000246361
-0.00101448
0.000489528
-0.000565648
-0.000184981
0.000172007
-0.000628389
3.22482e-05
3.47041e-05
-0.000824845
0.000479456