/*--------------------------------*- C++ -*----------------------------------*\
| =========                 |                                                 |
| \\      /  F ield         | OpenFOAM: The Open Source CFD Toolbox           |
|  \\    /   O peration     | Version:  2212                                  |
|   \\  /    A nd           | Website:  www.openfoam.com                      |
|    \\/     M anipulation  |                                                 |
\*---------------------------------------------------------------------------*/
FoamFile
{
    version     2.0;
    format      ascii;
    arch        "LSB;label=32;scalar=64";
    class       volVectorField;
    location    "0.0595";
    object      U;
}
// * * * * * * * * * * * * * * * * * * * * * * * * * * * * * * * * * * * * * //

dimensions      [0 1 -1 0 0 0 0];

internalField   nonuniform List<vector> 
2308
(
(-132.614 574.529 -4.29347e-16)
(56.5207 132.379 0)
(4.50404 382.48 3.35241e-17)
(133.352 610.234 -1.3883e-16)
(10.2016 635.054 0)
(64.9788 655.373 -4.33226e-18)
(-65.6488 664.21 1.50031e-18)
(-63.6012 645.188 -2.07966e-16)
(-6.60973 627.054 3.73878e-16)
(11.7783 736.909 -4.53658e-17)
(14.2119 734.326 7.75671e-17)
(15.9488 729.518 -1.17426e-16)
(16.3649 725.806 5.9272e-17)
(15.9512 721.201 -2.90246e-17)
(16.0583 716.217 5.08551e-18)
(15.8652 710.969 4.33279e-17)
(15.4876 705.394 7.60861e-18)
(-7.06802 699.976 1.32325e-17)
(-6.6025 705.576 1.77548e-17)
(-5.83117 711.128 1.30869e-18)
(-5.0097 716.458 9.55377e-18)
(-3.50618 721.599 -2.92779e-17)
(-2.85719 726.28 3.63348e-17)
(0.193086 730.783 -1.75521e-17)
(0.215648 734.634 -7.28516e-17)
(-1.27939 737.582 -3.42383e-17)
(3.32521 738.05 1.64343e-17)
(3.32938 737.646 -1.85159e-17)
(-38.8061 662.963 0)
(14.2608 699.587 -1.21265e-16)
(3.21739 736.559 1.0443e-18)
(3.05708 734.407 2.69326e-19)
(3.13591 730.4 -4.65631e-18)
(3.19529 722.416 4.27035e-18)
(3.89097 707.664 -5.0138e-18)
(4.44601 675.961 4.245e-18)
(6.22083 640.524 -2.63595e-18)
(4.53381 592.988 2.16549e-18)
(3.61763 540.245 -2.56144e-18)
(-0.480234 539.41 1.00939e-18)
(-1.97911 541.855 2.42358e-18)
(-1.70331 546.283 3.69658e-18)
(-1.52239 555.363 -7.53381e-18)
(-1.32091 563.833 5.12012e-18)
(-1.04534 569.189 2.47414e-18)
(14.3575 562.41 -2.50975e-18)
(20.4258 558.148 2.33971e-18)
(24.1845 556.072 -3.4187e-18)
(24.1755 553.972 -3.82647e-18)
(-7.01772 555.771 6.1763e-18)
(-32.5357 574.401 -1.38661e-18)
(-74.7615 594.935 2.3099e-18)
(-99.1728 602.623 2.98337e-19)
(-105.876 627.059 -3.70443e-18)
(-91.1035 652.303 -8.65818e-19)
(-56.4833 687.58 2.48925e-18)
(-26.7267 712.727 0)
(-10.8382 724.274 -3.07389e-19)
(-0.729297 730.481 -8.80285e-18)
(5.63071 733.61 -3.04035e-17)
(10.5946 734.993 3.57778e-17)
(14.7099 735.703 3.36462e-17)
(22.371 734.677 4.17965e-17)
(25.8738 732.68 -7.273e-19)
(30.6373 729.814 4.77108e-17)
(32.1518 727.242 -8.76896e-17)
(33.4614 723.678 -2.02829e-17)
(34.97 719.383 0)
(36.1926 714.67 0)
(37.012 709.543 0)
(37.1947 704.049 0)
(-1.0402 571.531 -1.24648e-18)
(5.98576 568.292 1.23292e-18)
(-28.2007 704.191 -6.05282e-17)
(-27.2032 710.02 -1.2348e-18)
(-25.557 715.602 4.81303e-18)
(-23.3706 720.809 0)
(-21.2027 725.743 -9.20267e-18)
(-18.4518 729.987 -8.84093e-18)
(-15.9405 733.595 4.50587e-18)
(-13.2354 736.051 1.77402e-17)
(-7.49235 736.491 0)
(-3.19344 735.626 -4.82488e-19)
(1.64595 734.274 3.33686e-20)
(7.67813 730.94 -4.42001e-18)
(18.1848 724.487 6.60874e-18)
(33.6871 712.539 3.97223e-19)
(64.4535 686.302 -3.64365e-18)
(98.6415 651.033 0)
(112.89 628.678 -5.82208e-19)
(105.188 605.858 3.55098e-18)
(80.3858 598.979 -4.80627e-18)
(34.6264 580.577 -3.19642e-19)
(8.86828 557.881 4.49994e-18)
(-27.1303 553.351 0)
(-28.2115 555.598 4.50534e-18)
(-23.8035 557.927 1.85015e-20)
(-17.8999 561.87 -2.49284e-18)
(-10.7286 694.44 -5.41542e-17)
(-9.04494 567.907 -2.45589e-18)
(11.4608 693.591 5.41015e-17)
(36.0324 698.186 -3.24442e-19)
(24.1519 564.23 -2.4047e-18)
(26.6153 562.061 2.84089e-18)
(25.884 559.473 0)
(-4.25293 562.797 -7.66572e-19)
(-26.8669 588.582 2.46664e-18)
(-64.972 607.934 2.06571e-18)
(-93.8603 615.988 -2.46638e-18)
(-115.08 622.394 0)
(-126.606 626.063 -6.02655e-19)
(-133.382 629.045 1.12106e-18)
(-132.738 638.137 2.98515e-20)
(-114.475 646.595 -1.19508e-18)
(-82.6601 675 0)
(-42.6647 704.961 1.4047e-18)
(-16.6512 716.89 -7.06525e-18)
(-0.694343 725.42 -4.40179e-18)
(9.71891 727.684 1.76536e-17)
(18.356 729.464 6.37674e-17)
(27.1023 729.575 4.94212e-18)
(34.9141 728.444 4.63024e-17)
(41.6327 726.257 -2.12947e-17)
(46.4982 723.773 0)
(50.3546 720.277 0)
(53.3753 716.253 0)
(56.1905 711.543 7.27233e-17)
(58.3727 706.49 -8.16908e-17)
(59.652 701.057 8.7091e-17)
(-88.7848 638.674 -1.58395e-16)
(97.9593 657.261 0)
(63.7545 665.375 0)
(78.244 660.876 0)
(-52.1578 694.475 1.24515e-16)
(-50.0931 701.629 3.40848e-17)
(-47.8508 708.101 -1.70578e-19)
(-45.2239 713.952 -5.7453e-19)
(-42.073 719.156 5.90732e-19)
(-38.5183 723.949 4.5937e-18)
(-34.4146 727.663 -8.82146e-18)
(-28.9874 730.357 9.42171e-20)
(-21.8185 731.112 0)
(-13.4092 731.047 2.05e-17)
(-4.27437 728.937 1.26655e-17)
(7.13627 726.646 -2.45056e-18)
(23.2598 717.742 2.11303e-18)
(51.1211 705.624 0)
(90.6183 675.07 0)
(122.075 646.996 -2.55434e-19)
(138.627 638.08 0)
(138.495 630.232 1.67125e-18)
(132.076 627.361 -4.46018e-20)
(120.59 625.289 -1.15866e-18)
(100.003 619.648 0)
(72.2867 612.659 -1.84018e-18)
(30.7333 593.904 1.83266e-18)
(6.87996 564.003 -3.1565e-18)
(-27.2897 558.035 0)
(-28.8584 560.662 -4.40767e-18)
(-26.2477 562.728 1.17278e-18)
(-20.513 568.162 -4.21217e-20)
(-2.46885 572.205 0)
(-1.00318 572.354 -6.29921e-19)
(-0.0196319 572.894 -2.01794e-18)
(-43.257 640.621 1.74233e-16)
(18.7488 569.896 1.52651e-19)
(-111.802 631.882 -5.14072e-16)
(-152.151 629.071 -1.21255e-16)
(32.7577 692.006 0)
(-64.0884 618.135 1.73354e-16)
(-12.052 642.35 -3.54213e-16)
(-12.6899 687.922 2.07879e-17)
(59.7041 695.213 -1.30124e-16)
(-13.6402 575.3 -1.2744e-18)
(0.275108 574.822 -1.24056e-18)
(-0.842337 572.897 -1.56522e-19)
(-2.28463 575.671 2.51738e-18)
(12.0379 576.999 1.54953e-19)
(33.4549 570.984 0)
(36.2658 568.741 1.11926e-18)
(36.0702 566.22 2.35774e-18)
(4.44475 569.387 -9.0745e-19)
(-20.0826 596.655 -2.6968e-18)
(-60.0398 616.369 -2.70366e-18)
(-90.8213 624.838 3.70591e-18)
(-108.393 630.642 1.0566e-18)
(-121.315 632.461 -2.36151e-18)
(-130.292 633.662 1.77682e-18)
(-136.369 634.16 -5.03601e-19)
(-139.37 634.245 0)
(-140.299 635.193 0)
(-134.657 637.328 0)
(-125.06 643.851 2.20706e-18)
(-96.5173 657.875 -1.41172e-18)
(-58.9838 686.968 -1.06161e-18)
(-22.6533 707.047 -1.01398e-17)
(-2.94756 714.84 0)
(13.4564 719.221 -9.34672e-18)
(25.4105 719.973 9.70569e-18)
(37.5401 720.353 2.08228e-17)
(47.7589 719.741 9.94752e-18)
(57.0123 718.106 4.09713e-17)
(64.2023 715.539 -3.99253e-17)
(69.5203 711.996 0)
(74.1519 707.457 9.96534e-18)
(77.6974 702.518 -2.05436e-17)
(80.157 697.244 -4.1786e-17)
(-60.162 680.046 1.93281e-17)
(-58.1999 544.274 0)
(27.5136 641.996 -6.85256e-19)
(-98.5748 646.845 2.28818e-16)
(-96.9794 655.67 -4.75316e-17)
(-92.3701 663.677 5.37113e-17)
(-88.5496 671.324 -9.36836e-18)
(-84.1264 678.557 2.05506e-17)
(-80.6425 685.599 -9.09941e-18)
(-75.9209 692.376 0)
(-72.5612 699.074 -9.10498e-18)
(-68.8747 705.299 -9.16355e-18)
(-64.8424 711.117 0)
(-59.7078 715.964 0)
(-54.099 720.118 5.63075e-19)
(-46.0961 722.384 -5.24199e-18)
(-37.2335 722.789 0)
(-25.7463 722.261 0)
(-13.7069 721.043 -5.55449e-18)
(3.66817 715.948 -4.47504e-18)
(25.1337 708.101 9.08006e-18)
(63.3891 686.552 2.16602e-18)
(102.011 657.802 6.23749e-19)
(130.143 644.174 2.35331e-18)
(140.389 638.041 -2.56804e-18)
(144.549 635.859 0)
(143.52 635.756 -1.08092e-18)
(140.227 635.874 0)
(133.8 636.209 0)
(125.048 635.152 0)
(113.405 633.748 -4.79837e-18)
(96.177 627.392 0)
(67.2175 620.268 -2.5848e-18)
(24.2964 600.184 4.57967e-19)
(-2.11021 569.548 9.38575e-18)
(-36.0852 564.898 0)
(-36.9214 567.478 -4.43413e-18)
(-34.3437 569.779 7.28141e-20)
(-32.1735 307.013 0)
(-87.3 625.465 2.85816e-16)
(150.189 552.375 4.8839e-16)
(66.0847 561.404 0)
(-35.2461 455.231 -1.40217e-16)
(-127.687 625.117 5.82938e-16)
(57.4934 689.015 -4.06128e-18)
(-36.6941 680.005 4.28101e-17)
(40.2605 571.211 -1.36589e-19)
(13.1556 573.467 -1.29834e-18)
(-13.9534 602.557 1.12886e-18)
(-52.7854 623.136 0)
(-83.5049 630.911 0)
(-100.436 638.35 1.44622e-19)
(-112.115 640.285 -6.08812e-19)
(-119.689 641.943 -2.09346e-18)
(-125.834 641.956 1.48737e-19)
(-130.254 642.01 -3.039e-19)
(-133.559 640.359 -3.64272e-19)
(-136.029 638.399 1.57467e-18)
(-136.872 637 1.48863e-19)
(-135.572 635.881 -1.17774e-18)
(-130.644 636.322 0)
(-120.847 638.622 4.60538e-18)
(-102.706 645.797 -6.81234e-19)
(-68.6607 667.514 2.27439e-17)
(-31.7239 691.644 -2.07021e-17)
(-0.796139 701.091 0)
(17.8756 707.067 1.92664e-17)
(34.8941 708.284 -5.83956e-17)
(48.6764 709.032 3.04755e-17)
(61.2977 708.516 3.98535e-17)
(72.1994 708.108 3.27222e-19)
(81.7412 705.798 -3.9223e-17)
(89.1261 701.989 4.02727e-17)
(94.7271 697.542 4.13764e-17)
(98.8813 692.533 -3.92489e-17)
(81.1225 691.748 -8.4446e-17)
(-38.0396 610.883 1.20338e-18)
(-195.754 623.205 -5.68926e-18)
(-122.901 646.357 -3.9187e-17)
(-119.667 654.657 -5.1619e-18)
(-114.934 662.041 -1.53886e-17)
(-110.179 669.172 -5.04659e-18)
(-105.346 676.19 0)
(-101.057 683.061 9.46394e-18)
(-96.307 689.662 -4.68622e-18)
(-91.8532 695.806 -4.52821e-18)
(-86.6178 701.651 2.43591e-18)
(-80.9496 706.626 2.34269e-18)
(-72.8451 710.604 4.7327e-18)
(-63.6229 712.464 0)
(-51.4437 713.074 4.40186e-18)
(-39.0312 712.074 -4.71843e-18)
(-21.6877 710.137 -7.05069e-20)
(-2.22203 703.258 -1.36657e-17)
(31.5026 692.156 1.21187e-18)
(71.2703 665.852 -5.26299e-18)
(105.736 644.768 0)
(123.68 638.185 -1.85711e-18)
(133.893 636.47 1.40007e-19)
(138.943 636.856 2.61904e-18)
(139.062 638.181 0)
(137.576 640.569 0)
(134.824 642.977 -7.34764e-20)
(131.446 644.509 -2.27102e-18)
(127.928 644.713 2.33458e-18)
(122.813 644.776 2.98625e-18)
(115.875 643.128 -5.82654e-19)
(105.183 641.508 1.88298e-18)
(88.2526 633.899 -6.38448e-19)
(59.4913 627.051 -5.78248e-18)
(17.2244 604.646 4.26793e-18)
(-11.1721 574.001 1.06204e-17)
(-40.6462 571.632 4.29006e-18)
(-40.5051 573.932 0)
(-28.8625 575.145 -2.49757e-18)
(-8.17303 580.256 7.04231e-20)
(-0.069994 577.135 2.80423e-18)
(-0.62557 573.821 9.34771e-19)
(-1.40926 577.969 -1.248e-18)
(6.80221 581.85 2.55359e-18)
(27.4377 576.582 -2.43552e-18)
(39.7938 573.587 -1.1293e-18)
(112.498 538.389 -1.67682e-16)
(3.96211 398.953 -4.84127e-17)
(-199.922 211.212 -8.51369e-17)
(-106.16 617.689 -2.73353e-16)
(-113.154 576.799 -1.5375e-16)
(100.237 529.69 4.83002e-17)
(101.484 687.472 0)
(80.348 685.846 1.66749e-16)
(-52.8582 603.146 4.28476e-16)
(-86.7848 608.293 1.7223e-16)
(-66.9796 562.708 -1.911e-16)
(8.77345 648.481 3.59493e-16)
(-148.739 644.454 0)
(-143.722 651.84 5.07306e-18)
(-137.945 659.194 -1.21895e-18)
(-132.002 666.312 -2.31187e-17)
(-126.252 673.218 4.89365e-18)
(-120.643 679.7 0)
(-114.663 685.958 -8.97472e-20)
(-108.171 691.281 -1.18119e-18)
(-100.581 696.326 0)
(-91.0127 699.48 -2.30176e-18)
(-79.2141 701.226 -2.16201e-18)
(-65.6864 701.093 0)
(-48.8711 700.745 5.80607e-19)
(-28.559 695.493 -1.25704e-18)
(1.241 689.235 6.05015e-19)
(40.7944 668.906 9.10778e-18)
(77.3331 645.242 0)
(103.673 636.411 1.22833e-18)
(116.243 633.396 -6.08657e-19)
(123.786 633.873 1.43637e-19)
(127.138 634.774 4.51974e-19)
(127.842 637.448 -2.67223e-18)
(127.329 641.664 0)
(126.022 645.192 5.95685e-19)
(125.245 647.405 1.17612e-18)
(124.095 648.796 1.18376e-18)
(122.562 649.406 -1.20223e-20)
(120.348 650.341 -5.88819e-19)
(117.85 650.192 -1.74826e-18)
(113.167 650.501 -1.16833e-18)
(106.856 648.609 -1.1436e-18)
(96.188 646.77 0)
(79.5208 638.57 -5.20793e-18)
(48.4165 629.149 -5.67314e-18)
(8.17569 604.04 -4.17542e-18)
(-21.0826 576.318 -6.12501e-18)
(-44.8851 575.141 2.97967e-18)
(-37.9037 575.963 -2.3623e-18)
(-21.4726 582.168 0)
(-6.17261 583.573 1.25871e-18)
(-1.50341 578.619 1.26145e-18)
(-0.403694 575.469 -2.49279e-18)
(0.429638 579.514 2.47857e-18)
(4.78919 584.979 -1.28281e-20)
(19.5334 583.492 -1.23348e-18)
(36.8307 575.865 3.57235e-18)
(43.6979 573.488 -3.63029e-18)
(22.7937 574.571 7.71874e-19)
(-6.79627 600.29 -5.0298e-19)
(-43.4601 624.267 8.7218e-19)
(-75.3884 634.936 -3.10619e-18)
(-91.3681 642.976 1.13322e-18)
(-103.003 645.048 0)
(-109.668 647.163 1.40603e-19)
(-115.135 647.085 2.06966e-18)
(-118.129 647.529 -2.96318e-19)
(-120.694 646.775 7.42657e-19)
(-122.731 646.046 1.82075e-21)
(-124.494 644.441 3.00502e-19)
(-125.755 642.036 -1.48765e-19)
(-127.298 638.307 1.05495e-18)
(-127.226 635.299 -3.58962e-18)
(-125.524 633.849 -1.12529e-20)
(-121.392 633.678 2.39924e-18)
(-113.39 634.009 -2.46183e-18)
(-100.562 637.442 -1.8656e-17)
(-73.7264 647.464 1.85843e-17)
(-38.3878 669.689 0)
(-2.96491 686.362 -4.11742e-17)
(23.418 692.271 2.85781e-17)
(43.5637 696.575 -2.93723e-17)
(59.2828 697.012 0)
(73.6986 696.958 0)
(86.7829 695.878 0)
(97.9365 694.272 -5.0882e-18)
(107.28 690.927 -9.15752e-19)
(113.866 686.523 7.95072e-17)
(-20.3181 602.324 -1.85742e-16)
(102.31 682.076 8.49881e-17)
(76.8045 679.573 -7.66611e-17)
(-64.0193 672.263 1.01611e-17)
(-71.81 597.37 2.11205e-16)
(-105.069 602.51 1.75518e-16)
(-128.006 610.73 3.30501e-18)
(-146.542 618.592 -1.74508e-16)
(-209.549 616.321 -1.19178e-16)
(-151.841 636.793 -1.23163e-16)
(-172.313 633.978 4.22006e-17)
(-168.142 640.73 -1.12178e-17)
(-162.52 648.069 -2.02277e-17)
(-156.33 655.477 0)
(-149.605 662.457 1.92905e-17)
(-142.865 669.077 0)
(-135.467 675.029 0)
(-127.658 680.461 4.62456e-18)
(-117.93 684.555 1.14308e-18)
(-106.243 687.056 0)
(-92.1932 687.781 2.33447e-18)
(-75.3874 688.059 2.70328e-20)
(-54.9553 685.103 2.45007e-19)
(-27.2222 680.009 2.68266e-18)
(10.9462 665.677 1.92435e-18)
(47.9899 643.964 -2.91187e-18)
(79.0214 632.649 -4.40486e-18)
(95.1893 629.35 1.48715e-19)
(105.342 629.869 -8.4018e-19)
(110.208 630.423 2.91309e-19)
(112.467 632.703 1.20199e-18)
(113.324 636.681 -9.05041e-19)
(113.038 640.522 1.19134e-18)
(113.645 643.877 -2.47891e-20)
(114.783 646.59 -2.97203e-18)
(116.148 648.706 1.19809e-18)
(116.951 650.414 1.19703e-18)
(116.937 651.664 -1.76953e-18)
(116.014 652.544 2.36534e-18)
(114.483 653.47 2.3761e-18)
(112.08 653.881 0)
(109.23 653.252 7.03216e-18)
(104.185 652.701 1.15094e-18)
(98.2681 650.108 1.16251e-18)
(86.69 646.765 0)
(69.963 637.743 0)
(35.6876 624.739 4.68707e-18)
(-0.665634 597.436 1.89551e-19)
(-30.6814 572.545 -5.23e-19)
(-43.8129 576.711 5.75645e-19)
(-32.1368 581.177 0)
(-15.0138 586.997 0)
(-6.08588 585.791 -6.24781e-19)
(-3.34159 580.631 1.87372e-18)
(-0.20712 578.142 0)
(2.62158 581.315 -1.25737e-18)
(4.86648 586.887 -1.25499e-18)
(13.0912 588.135 2.50151e-18)
(30.7953 581.399 -1.2661e-18)
(42.3878 574.873 3.52172e-18)
(32.5288 568.65 3.78654e-19)
(1.90776 590.695 6.77255e-19)
(-31.4471 618.25 1.4307e-18)
(-66.3525 632.769 0)
(-82.8224 641.728 -4.62216e-19)
(-94.5219 645.67 -1.13126e-19)
(-100.436 648.394 6.68218e-19)
(-105.966 649.373 -1.48501e-19)
(-108.948 650.135 -2.97692e-19)
(-111.742 650.038 -2.38625e-18)
(-113.406 649.202 5.96479e-19)
(-114.696 648.524 -1.48936e-18)
(-114.96 647.496 7.43217e-19)
(-114.822 645.906 -2.97009e-19)
(-114.153 643.671 0)
(-113.841 640.84 0)
(-114.184 637.439 0)
(-114.006 633.656 -1.21572e-18)
(-112.522 630.873 0)
(-108.992 629.833 -1.50952e-20)
(-103.005 629.929 9.53979e-18)
(-92.107 630.099 -4.59716e-18)
(-75.2927 633.969 1.0034e-17)
(-44.8804 647.534 2.72616e-17)
(-10.4742 666.247 -1.29881e-18)
(23.7676 677.353 -1.10713e-17)
(48.1542 682.122 -1.94413e-17)
(68.343 684.27 3.8832e-17)
(84.2645 684.144 -1.94949e-17)
(98.9776 683.25 -4.28405e-19)
(111.978 681.719 8.63849e-18)
(123.152 678.971 -1.13909e-18)
(118.966 681.707 -1.19294e-16)
(-34.2495 593.91 -1.9171e-16)
(-1.84298 593.193 3.82645e-16)
(144.884 160.954 0)
(121.874 676.878 -8.33332e-17)
(-181.788 619.84 3.13409e-16)
(-172.045 612.702 -1.69987e-16)
(-148.148 605.61 -3.34227e-16)
(74.1812 673.011 -2.55628e-17)
(-72.0316 655.864 -2.49964e-17)
(-40.8485 671.756 -1.01317e-17)
(100.778 676.559 2.03284e-18)
(-86.5477 591.431 -2.03634e-16)
(-126.725 596.016 1.64082e-16)
(-45.8199 570.406 -5.90341e-19)
(-39.738 578.446 -6.08288e-19)
(-24.5928 587.523 0)
(-11.7505 589.907 -6.19738e-19)
(-6.86392 587.487 6.22804e-19)
(-4.84494 582.954 -6.30121e-19)
(-0.204669 581.225 6.26642e-19)
(4.21396 583.396 1.24322e-18)
(5.71845 588.209 -1.25312e-18)
(9.85696 590.723 2.51111e-18)
(22.8234 587.716 -3.70736e-18)
(37.9177 576.818 0)
(42.9038 567.405 1.40325e-20)
(9.76803 569.826 0)
(-22.1722 601.51 -4.04641e-18)
(-56.8913 622.512 1.18914e-18)
(-74.3081 632.774 0)
(-86.615 640.086 0)
(-92.6301 643.769 3.05399e-19)
(-97.1316 646.255 -3.77826e-20)
(-99.5793 647.74 0)
(-102.066 648.882 -1.48418e-19)
(-104.312 649.323 1.49667e-19)
(-106.125 649 5.99419e-19)
(-107.058 648.167 3.00449e-19)
(-107.536 647.065 6.03399e-19)
(-106.901 645.498 1.19293e-20)
(-105.612 643.789 -1.20111e-18)
(-103.814 641.863 2.94033e-19)
(-101.902 639.833 1.20635e-18)
(-100.187 637.439 3.16988e-19)
(-98.884 634.588 -6.08623e-19)
(-98.0841 631.31 1.23089e-18)
(-96.5598 627.627 -3.60412e-18)
(-93.5699 625.174 -4.92584e-18)
(-88.4494 624.421 2.6455e-18)
(-80.9608 624.605 -5.09655e-18)
(-68.5416 624.837 0)
(-47.115 629.296 -1.49072e-17)
(-16.1293 643.107 3.07855e-17)
(16.9417 657.659 0)
(49.1894 666.205 0)
(72.9908 669.493 0)
(92.8533 670.532 7.16602e-18)
(109.141 669.457 -9.5977e-19)
(124.324 667.749 -1.41379e-18)
(131.712 674.855 -7.87891e-17)
(45.1715 635.223 -1.84664e-16)
(-48.6222 586.483 1.00227e-17)
(101.135 561.268 1.7145e-16)
(-3.65244 428.078 0)
(-188.025 635.395 -9.48049e-18)
(-180.617 643.074 0)
(-172.754 650.158 0)
(-163.972 657.306 4.73709e-18)
(-155.1 662.674 -9.70236e-18)
(-144.024 666.951 0)
(-131.118 670.202 4.97323e-18)
(-116.675 671.624 0)
(-99.2128 673.04 -1.26622e-18)
(-78.8617 671.814 1.09964e-18)
(-50.7902 668.009 -6.15814e-18)
(-14.9904 657.876 1.23442e-19)
(20.7115 639.279 -2.16091e-18)
(52.2987 626.598 4.71917e-18)
(72.0109 623.841 3.47801e-18)
(83.6701 624.397 -3.72487e-18)
(89.8524 624.889 0)
(93.535 626.967 -5.77601e-21)
(95.6883 630.79 -1.84495e-18)
(96.5642 634.526 0)
(97.9646 637.819 0)
(99.9201 640.56 6.11501e-19)
(102.374 642.886 1.7986e-18)
(104.844 645.016 -1.18925e-18)
(107.083 647.103 1.20489e-18)
(108.666 649.13 -2.38446e-18)
(109.597 650.966 -5.9175e-19)
(109.434 652.482 -4.73752e-18)
(108.644 653.467 2.38557e-18)
(106.995 654.167 0)
(104.967 653.976 -4.77135e-18)
(102.404 653.302 -2.38633e-18)
(100.224 651.714 0)
(95.7209 649.915 2.32447e-18)
(90.1498 645.95 -4.43743e-20)
(77.8649 640.23 3.65928e-18)
(61.6355 629.482 3.49426e-18)
(26.154 611.447 0)
(-5.4664 580.606 -1.36597e-18)
(16.278 584.447 -1.91599e-16)
(-17.4 583.456 -3.80431e-16)
(-3.73495 280.101 6.72955e-17)
(98.7413 670.759 -7.70837e-17)
(-102.008 584.294 3.44446e-16)
(122.799 671.944 -1.00028e-18)
(-47.3369 595.011 6.02355e-19)
(-70.2004 608.084 3.08184e-18)
(-80.2694 621.223 -2.46063e-18)
(-86.5583 627.477 0)
(-89.2285 632.723 0)
(-91.2068 635.829 0)
(-92.6214 638.709 0)
(-94.0414 640.846 6.05256e-19)
(-95.5431 642.837 -2.98914e-19)
(-96.9956 643.696 1.48583e-19)
(-97.8073 643.74 -9.0009e-19)
(-98.1635 642.776 6.0192e-19)
(-97.7482 641.657 3.04793e-19)
(-96.9486 640.079 -4.49246e-19)
(-95.5813 638.435 0)
(-93.7953 636.663 6.47155e-21)
(-91.546 634.936 -3.00942e-19)
(-88.9259 633.143 3.00765e-19)
(-86.1688 631.231 6.03407e-19)
(-83.5229 628.993 -6.97337e-19)
(-81.1963 626.335 6.96107e-19)
(-79.394 623.397 -1.85544e-18)
(-76.5998 620.151 -3.70496e-18)
(-72.519 618.057 2.32593e-18)
(-66.5099 617.47 0)
(-58.4815 617.594 -3.81594e-19)
(-45.3452 617.446 -1.40097e-17)
(-23.1283 623.339 1.30216e-17)
(6.15115 635.532 -2.77445e-18)
(38.0316 647.334 0)
(69.8271 653.482 -2.29074e-18)
(95.764 655.156 3.3353e-17)
(117.105 654.875 -1.86769e-17)
(136.984 665.834 7.57642e-17)
(63.9696 642.134 3.92042e-16)
(-64.7986 580.715 1.13021e-17)
(-35.4715 551.844 -3.92892e-19)
(-42.0789 571.102 1.80216e-18)
(-31.8517 583.338 3.07667e-19)
(-17.8757 591.513 0)
(-10.2181 591.742 -6.20216e-19)
(-7.57938 588.857 6.20762e-19)
(-5.46809 585.409 -9.38743e-19)
(-0.210644 584.385 -2.17296e-18)
(4.82777 585.713 2.4959e-18)
(6.54732 589.288 0)
(8.59 592.153 -1.25067e-18)
(16.1587 591.364 3.81357e-18)
(29.5858 582.002 -2.45749e-18)
(38.7476 568.206 -1.21026e-18)
(35.3063 546.405 1.59489e-18)
(-21.7574 562.637 -2.88918e-18)
(66.6077 628.407 3.73676e-16)
(-141.983 591.745 -1.53583e-16)
(-168.38 601.475 1.50499e-16)
(-187.546 609.924 3.02934e-16)
(-204.536 612.637 1.43326e-16)
(26.0107 655.148 -7.71179e-18)
(85.4481 651.474 1.03461e-16)
(-129.986 396.318 0)
(91.659 579.694 0)
(-195.651 630.01 0)
(-187.145 636.165 2.46328e-18)
(-177.265 641.919 -4.75433e-18)
(-165.346 647.136 9.4817e-20)
(-151.947 652.021 1.42264e-17)
(-137.07 654.655 -9.55216e-18)
(-118.802 656.86 2.27129e-19)
(-97.3246 656.492 4.86649e-18)
(-69.1377 654.075 -8.58994e-18)
(-34.7601 645.229 7.12861e-19)
(-2.3721 630.118 4.4353e-18)
(27.5747 619.496 -1.29726e-18)
(48.8913 617.142 1.20081e-18)
(60.5358 617.749 -3.56945e-18)
(67.4234 618.284 1.25801e-18)
(72.1343 620.277 3.62792e-18)
(75.4355 623.954 -2.46203e-18)
(77.4845 627.34 2.47053e-18)
(79.9214 630.35 9.16204e-19)
(82.8669 632.897 2.10802e-18)
(86.1246 635.061 -2.76841e-18)
(89.3896 637.013 1.80905e-18)
(92.3329 638.974 -3.35238e-18)
(94.7965 640.932 -2.39522e-18)
(96.7502 642.98 2.43668e-18)
(98.2384 644.888 1.1902e-18)
(99.2973 646.74 -1.2099e-18)
(99.8075 648.141 0)
(99.9426 649.326 -2.40096e-18)
(99.1685 649.733 1.17407e-18)
(98.1035 649.144 -2.36144e-18)
(96.5573 647.47 -3.58021e-18)
(95.2522 645.427 -2.39273e-18)
(93.763 642.999 -4.80302e-18)
(91.969 639.934 1.20128e-18)
(89.1573 635.529 -1.18776e-18)
(83.519 629.276 -2.45315e-18)
(73.3065 618.507 0)
(54.429 604.884 0)
(25.6525 575.024 0)
(-2.98716 301.342 0)
(137.226 670.52 -2.07282e-18)
(95.2629 665.299 3.84449e-16)
(32.4417 575.945 1.78262e-16)
(-33.2451 574.305 1.93864e-16)
(0.80448 573.835 3.63713e-16)
(46.2818 648.796 -1.93587e-16)
(-15.6813 290.404 -5.58429e-17)
(-43.3768 339.256 0)
(49.5957 660.42 -2.15618e-16)
(122.299 666.419 -8.50071e-17)
(136.132 652.832 -3.17785e-17)
(11.2196 660.763 -5.55535e-16)
(84.0218 517.77 1.9139e-16)
(139.953 562.757 1.75894e-16)
(-8.65671 354.119 -3.13691e-17)
(-72.4443 554.744 -1.25558e-18)
(-80.8007 576.617 -3.0802e-19)
(-83.6151 591.311 -9.66855e-19)
(-86.1791 601.477 6.19397e-21)
(-86.2027 609.256 0)
(-86.81 614.881 0)
(-86.5125 619.725 0)
(-86.7665 623.612 -1.53197e-19)
(-86.8036 627.295 -1.90122e-19)
(-87.2262 630.176 1.83552e-19)
(-87.449 631.438 -1.41041e-19)
(-87.4194 631.742 3.61401e-19)
(-86.8537 631.443 -4.56591e-19)
(-86.204 630.706 0)
(-85.2092 629.699 0)
(-84.0349 628.448 0)
(-82.4938 627.062 0)
(-80.5962 625.579 0)
(-78.2004 624.059 0)
(-75.3276 622.516 -1.55886e-19)
(-72.0356 620.957 6.0849e-19)
(-68.5297 619.305 0)
(-65.0804 617.468 -1.57102e-18)
(-61.72 615.35 2.76974e-18)
(-58.7112 613.167 2.4657e-18)
(-54.676 610.873 0)
(-49.3685 609.001 7.48272e-18)
(-42.2182 608.436 -7.47215e-18)
(-33.172 608.663 -2.40059e-18)
(-17.3253 608.83 4.83491e-18)
(5.47572 611.618 -7.47445e-18)
(33.8056 619.328 3.79728e-18)
(64.7469 628.506 -9.5884e-18)
(94.5801 632.833 2.43857e-18)
(118.197 632.402 7.20875e-17)
(82.4992 635.661 2.01682e-16)
(-143.991 574.152 2.90731e-16)
(-115.506 555.32 1.53349e-16)
(-12.7066 532.701 0)
(-33.9285 550.51 -4.20651e-21)
(-32.9182 572.554 -6.26056e-19)
(-22.5152 586.731 -3.14663e-19)
(-13.8667 592.445 -7.70585e-20)
(-9.4748 592.187 7.76138e-20)
(-7.77598 590.09 0)
(-5.51241 587.676 0)
(-0.360867 587.058 9.3783e-19)
(4.68284 587.878 -2.49135e-18)
(6.51599 590.334 3.08615e-18)
(7.81899 592.223 0)
(12.0641 591.715 -2.53496e-18)
(20.2431 585.033 2.46784e-18)
(28.8156 569.584 6.29088e-19)
(32.4719 545.776 5.97202e-19)
(16.4843 520.271 0)
(-46.2399 513.531 0)
(-48.5027 653.382 0)
(-161.685 588.738 1.57568e-16)
(-186.195 598.187 0)
(-207.591 604.061 -3.04927e-16)
(-219.913 604.58 1.47414e-16)
(-219.01 605.854 2.67317e-16)
(-24.5597 436.963 -4.52286e-17)
(-42.5356 548.142 1.77099e-16)
(-203.843 611.005 4.48575e-18)
(-193.193 618.147 -3.97606e-17)
(-181.098 624.581 1.70666e-17)
(-167.525 629.925 -1.95702e-17)
(-151.434 633.164 -8.47153e-18)
(-131.768 636.288 1.24665e-17)
(-107.748 637.514 2.20335e-18)
(-79.5757 635.715 -1.27124e-17)
(-49.2039 628.17 7.58117e-18)
(-21.2781 616.531 0)
(5.05684 610.205 -6.34418e-18)
(24.2069 609.604 3.64227e-18)
(35.1323 610.151 6.19523e-18)
(42.2837 610.518 1.19545e-18)
(47.9658 612.187 -4.9984e-18)
(52.5064 615.27 -2.49012e-18)
(55.8358 617.974 0)
(59.7181 620.452 0)
(63.8717 622.565 -6.09752e-19)
(68.0664 624.367 -3.03861e-19)
(72.1128 626.052 3.05408e-18)
(75.7231 627.731 5.64704e-19)
(78.7749 629.434 -2.16833e-18)
(81.2429 631.149 -7.17662e-21)
(83.2257 632.786 0)
(84.812 634.348 0)
(86.1375 635.671 -2.40693e-18)
(87.232 636.873 3.65825e-18)
(88.1448 637.624 -1.22117e-18)
(88.8194 638.291 6.47977e-21)
(89.2107 638.055 1.20199e-18)
(89.2546 637.019 1.17198e-18)
(88.8172 634.72 7.20334e-18)
(88.8534 631.091 0)
(88.5235 627.496 3.6333e-18)
(88.9728 622.64 -3.64859e-18)
(88.2705 617.776 2.45123e-18)
(88.5518 609.952 -2.42506e-18)
(86.0069 601.384 2.45722e-18)
(83.9547 586.851 0)
(75.1782 567.528 0)
(54.6338 528.309 -1.45529e-18)
(89.7441 622.688 3.71108e-16)
(147.02 662.317 -7.83334e-17)
(-102.008 558.235 -1.60052e-16)
(92.1552 593.406 3.54939e-16)
(69.5903 581.464 -9.7707e-18)
(49.9132 568.812 3.69474e-16)
(141.084 665.824 8.14873e-17)
(-48.2197 566.734 -3.92088e-16)
(16.1518 564.035 0)
(-14.6197 563.526 0)
(-13.6675 380.159 -3.27326e-17)
(165.195 569.122 -1.9212e-16)
(-24.0527 442.688 1.35194e-17)
(54.4468 671.138 -3.2991e-16)
(95.1223 608.145 -3.74298e-17)
(102.106 641.24 -2.35096e-16)
(2.88847 280.899 0)
(1.75763 301.562 -2.96725e-17)
(72.2243 605.23 0)
(49.8388 597.446 1.34882e-18)
(28.0698 591.822 2.30537e-18)
(9.84679 590.764 8.56067e-19)
(-2.91836 591.365 1.63488e-19)
(-12.6847 591.655 0)
(-21.521 592.522 3.24146e-18)
(-29.1606 594.516 -3.24997e-18)
(-35.2728 596.712 1.25648e-18)
(-40.4964 598.712 -2.52715e-18)
(-45.4489 600.488 6.32239e-19)
(-49.9804 601.992 0)
(-54.2117 603.36 1.23508e-18)
(-58.0414 604.664 -6.33377e-19)
(-61.3832 605.954 6.1746e-19)
(-64.2094 607.204 -1.09317e-18)
(-66.5656 608.399 1.26507e-18)
(-68.5167 609.482 -1.43761e-20)
(-70.1509 610.435 -6.6763e-19)
(-71.5264 611.178 3.06804e-19)
(-72.7323 611.721 -3.5256e-19)
(-73.7933 611.968 0)
(-74.7827 611.923 1.53725e-19)
(-75.6539 611.504 -7.69008e-20)
(-76.523 610.481 -3.0707e-19)
(-77.641 608.019 2.70322e-19)
(-78.6729 603.673 3.86662e-20)
(-79.9832 598.348 -1.57196e-19)
(-81.1697 592.918 0)
(-82.797 586.024 0)
(-83.8631 579.019 -6.35403e-19)
(-85.8905 568.573 3.50244e-18)
(-86.2384 556.867 -6.18841e-19)
(-89.6412 535.78 0)
(-86.748 517.127 2.67597e-18)
(-81.9874 475.123 3.24216e-20)
(-1.29379 322.543 1.52731e-16)
(22.9749 481.176 1.18974e-18)
(-11.5729 511.649 0)
(-26.4427 551.088 -2.87149e-19)
(-20.9102 574.462 3.36007e-19)
(-14.4664 587.637 7.69836e-19)
(-9.6969 592.353 -6.30179e-19)
(-7.84469 592.217 1.54558e-19)
(-6.84799 590.658 3.08737e-19)
(-4.76579 589.221 2.17357e-18)
(-0.41661 589.042 -3.11578e-18)
(3.72712 589.358 -2.49622e-18)
(5.47529 590.834 2.46159e-18)
(6.14145 592.246 -3.10035e-19)
(7.97884 591.72 6.23244e-19)
(12.3231 585.766 -2.57284e-18)
(17.3295 571.502 -7.86757e-19)
(23.4491 546.339 2.43774e-18)
(9.45356 505.803 0)
(-20.7581 467.959 1.35021e-18)
(-47.8422 439.109 -6.91838e-19)
(109.761 630.099 1.90118e-16)
(152.821 650.313 -7.43341e-17)
(116.435 604.427 -1.85056e-16)
(-35.81 276.665 0)
(-25.5121 265.999 0)
(-6.11263 257.71 -5.30796e-17)
(5.64437 258.95 -1.4065e-17)
(22.2917 261.727 -1.67416e-17)
(15.9389 284.571 -4.06069e-17)
(11.8712 306.142 5.77735e-17)
(6.36654 326.013 3.11943e-17)
(84.1572 531.764 0)
(-2.48868 342.931 -3.19693e-17)
(191.414 580.388 -5.25844e-18)
(208.036 557.028 1.58349e-16)
(180.251 565.603 -1.65582e-16)
(112.868 589.532 -1.79961e-16)
(88.81 576.47 0)
(66.1909 562.533 0)
(143.061 660.93 1.75837e-16)
(115.68 617.697 3.58282e-16)
(-29.4187 337.463 -4.09873e-17)
(-175.2 587.182 1.41418e-16)
(-204.206 592.994 -1.60564e-16)
(-224.585 594.603 0)
(-231.368 591.141 -3.1952e-16)
(-231.837 587.686 1.60558e-16)
(-221.844 592.006 -2.14701e-16)
(-195.089 509.501 -1.48038e-16)
(-199.474 581.784 4.20348e-17)
(-187.908 591.372 -4.70288e-17)
(-172.891 598.968 2.06527e-17)
(-153.921 605.612 -2.03035e-17)
(-132.048 610.666 0)
(-108.926 612.146 -1.17158e-18)
(-84.5779 609.092 -1.61851e-18)
(-60.3461 603.091 7.48583e-18)
(-37.4485 598.81 2.43449e-18)
(-16.473 598.48 -1.24232e-17)
(-1.02686 599.169 5.07592e-18)
(7.97268 599.274 6.28247e-18)
(15.5767 599.533 -5.07612e-18)
(22.2748 600.648 3.14991e-18)
(28.3564 602.321 -3.18716e-18)
(33.3043 603.923 -1.25178e-18)
(38.6003 605.584 3.77714e-18)
(43.8405 607.074 6.37996e-19)
(48.8883 608.444 2.47982e-18)
(53.576 609.79 -2.52565e-18)
(57.7172 611.128 0)
(61.2501 612.487 -6.22163e-19)
(64.1811 613.778 -3.07015e-19)
(66.6171 615.017 -3.0763e-18)
(68.6364 616.083 2.81728e-18)
(70.3595 617.018 -3.12269e-19)
(71.8448 617.698 2.44572e-18)
(73.17 618.188 -4.63023e-18)
(74.3847 618.354 2.49449e-18)
(75.4973 618.318 1.22201e-18)
(76.6164 617.866 6.19733e-19)
(77.5379 616.959 -1.20007e-18)
(78.821 614.849 3.707e-18)
(79.905 610.987 -3.67999e-18)
(81.3352 605.737 -1.25182e-18)
(82.5267 600.4 -3.72297e-18)
(84.352 593.753 4.94828e-18)
(85.3622 587.063 -3.73126e-18)
(87.6959 577.05 2.52354e-18)
(87.8793 566.58 -5.00039e-18)
(91.4374 546.603 0)
(89.7319 528.528 2.67469e-18)
(86.3247 490.753 -1.08297e-18)
(57.3404 451.666 -1.23657e-18)
(142.008 572.712 -4.12358e-16)
(168.484 584.428 1.98596e-16)
(195.426 591.619 -1.87103e-16)
(18.3015 442.971 8.96028e-17)
(217.736 582.613 -2.03262e-16)
(153.555 658.03 0)
(-2.69517 402.734 -5.18143e-17)
(229.98 585.685 -2.03074e-16)
(-4.75916 366.173 1.46819e-16)
(0.543289 552.265 5.63837e-16)
(-29.3029 554.632 -3.79744e-16)
(33.0787 555.66 -1.78857e-16)
(147.209 586.388 0)
(108.203 573.758 -1.9702e-16)
(130.713 587.559 1.75385e-16)
(0.394921 322.641 -9.05323e-17)
(123.587 573.192 -2.04133e-16)