/*--------------------------------*- C++ -*----------------------------------*\
| =========                 |                                                 |
| \\      /  F ield         | OpenFOAM: The Open Source CFD Toolbox           |
|  \\    /   O peration     | Version:  2212                                  |
|   \\  /    A nd           | Website:  www.openfoam.com                      |
|    \\/     M anipulation  |                                                 |
\*---------------------------------------------------------------------------*/
FoamFile
{
    version     2.0;
    format      ascii;
    arch        "LSB;label=32;scalar=64";
    class       volScalarField;
    location    "0.000153";
    object      T;
}
// * * * * * * * * * * * * * * * * * * * * * * * * * * * * * * * * * * * * * //

dimensions      [0 0 0 1 0 0 0];

internalField   nonuniform List<scalar> 
34861
(
396.288
396.288
396.289
396.29
396.291
396.291
396.293
396.295
396.298
396.302
396.309
396.321
396.338
396.362
396.394
396.439
396.5
396.58
396.68
396.804
396.955
397.134
397.339
397.565
397.812
398.074
398.342
398.599
398.844
399.08
399.306
399.523
399.724
399.911
400.1
400.372
400.543
400.504
400.526
400.597
400.602
400.596
400.601
400.602
400.595
400.575
400.542
400.5
400.448
400.385
400.31
400.226
400.139
400.051
399.956
399.803
399.747
399.765
399.738
399.695
399.648
399.631
399.625
399.618
399.613
399.616
399.624
399.638
399.659
399.683
399.712
399.744
399.778
399.814
399.848
399.884
399.939
399.991
396.286
396.288
327.708
371.818
374.391
383.073
386.475
389.663
391.141
392.691
393.404
394.206
394.62
395.063
395.256
395.482
395.591
395.739
395.812
395.914
395.965
396.029
396.055
396.094
396.11
396.137
396.149
396.17
396.183
396.198
396.209
396.218
396.226
396.234
396.239
396.243
396.248
396.253
396.258
396.261
396.264
396.266
396.269
396.272
396.274
396.277
396.279
396.28
396.282
396.284
396.286
396.288
317.73
315.358
271.945
260.854
249.421
248.382
249.276
248.354
246.955
243.99
237.188
227.381
218.116
213.04
207.646
205.346
200.121
199.335
194.363
193.999
188.057
187.011
182.677
185.156
183.422
117.754
76.99
64.7369
59.7772
57.4095
55.7893
55.0776
54.775
54.7771
54.6947
54.4515
52.908
52.41
52.2107
51.3103
50.8504
50.715
50.8542
51.1598
51.5127
51.9547
52.1026
52.1477
52.1594
52.0762
51.9266
51.914
51.9126
51.7773
51.5392
51.3012
51.07
50.9445
50.9238
50.9593
51.0153
51.0682
51.1287
50.9737
51.0168
51.0947
51.1796
51.2405
51.2952
51.3426
51.3756
51.3699
51.4146
51.4482
51.4524
51.4355
51.479
51.541
51.6483
51.4959
51.5361
51.6169
51.6996
51.777
51.8779
51.9792
52.1119
52.3841
52.983
53.5339
54.011
54.3788
54.6852
55.011
55.2928
55.452
55.5588
55.6638
55.7579
55.8527
55.9164
55.9804
56.0676
56.1563
56.2819
56.3677
56.4195
56.4997
56.6316
56.5301
56.4987
57.7049
58.7876
59.3323
59.7127
59.9301
60.5125
59.7796
65.3003
42.2642
303.363
284.344
232.033
215.679
201.655
191.903
189.273
189.405
194.765
199.654
205.15
210.423
210.03
208.857
205.263
203.719
199.13
197.508
193.381
192.474
187.447
186.787
182.891
184.528
189.923
138.61
88.4749
69.9905
62.2804
58.6638
56.4765
55.4103
54.9669
54.8432
54.7221
54.4335
52.9859
52.4005
52.1828
51.3293
50.8602
50.7386
50.8645
51.1527
51.5049
51.9445
52.1024
52.1462
52.1485
52.0823
51.9285
51.8962
51.8818
51.763
51.5325
51.2899
51.0599
50.9322
50.9077
50.9394
50.9931
51.0481
51.0949
50.9621
50.9931
51.0714
51.155
51.2179
51.2734
51.3204
51.355
51.3495
51.3901
51.4215
51.4257
51.4124
51.4548
51.5245
51.6052
51.4922
51.5156
51.5979
51.6814
51.7635
51.8562
51.964
52.1072
52.373
52.9652
53.5165
53.993
54.3624
54.6674
54.9937
55.2729
55.4361
55.5445
55.6515
55.7465
55.8382
55.9066
55.9711
56.0612
56.1518
56.2685
56.3495
56.4086
56.4962
56.6066
56.533
56.6172
57.6165
58.7715
59.3136
59.705
59.8958
60.4157
59.6883
62.9229
50.6462
326.396
368.158
371.022
382.698
385.373
388.973
390.32
392.057
392.704
393.696
394.098
394.667
394.869
395.189
395.315
395.531
395.619
395.756
395.819
395.908
395.953
395.997
396.034
396.067
396.093
396.118
396.138
396.159
396.177
396.188
396.201
396.21
396.218
396.226
396.232
396.239
396.245
396.249
396.253
396.257
396.26
396.264
396.267
396.27
396.273
396.275
396.277
396.279
396.282
396.284
396.284
396.287
396.288
396.287
396.287
396.287
396.288
396.289
396.29
396.292
396.294
396.299
396.306
396.318
396.335
396.358
396.391
396.435
396.496
396.576
396.677
396.801
396.951
397.13
397.335
397.562
397.808
398.069
398.337
398.594
398.839
399.074
399.3
399.516
399.716
399.902
400.091
400.363
400.531
400.492
400.513
400.583
400.587
400.58
400.585
400.585
400.578
400.556
400.523
400.48
400.427
400.364
400.289
400.204
400.117
400.028
399.932
399.779
399.723
399.741
399.714
399.67
399.624
399.606
399.6
399.593
399.588
399.59
399.597
399.611
399.631
399.655
399.683
399.714
399.748
399.783
399.817
399.859
399.926
399.987
396.283
396.281
396.281
396.281
396.282
396.282
396.284
396.285
396.288
396.292
396.299
396.311
396.328
396.352
396.384
396.429
396.489
396.569
396.67
396.794
396.944
397.123
397.328
397.555
397.801
398.062
398.33
398.587
398.832
399.067
399.292
399.508
399.708
399.895
400.083
400.356
400.521
400.483
400.504
400.574
400.578
400.571
400.576
400.575
400.567
400.546
400.512
400.469
400.416
400.352
400.277
400.191
400.104
400.015
399.919
399.765
399.71
399.727
399.7
399.656
399.609
399.591
399.585
399.577
399.572
399.574
399.581
399.594
399.614
399.637
399.666
399.696
399.73
399.765
399.799
399.843
399.915
399.985
396.281
396.283
328.215
367.256
372.833
382.315
385.404
388.862
390.142
391.894
392.554
393.548
393.939
394.514
394.724
395.06
395.196
395.421
395.51
395.66
395.725
395.827
395.869
395.938
395.967
396.017
396.039
396.074
396.092
396.123
396.14
396.156
396.171
396.183
396.194
396.203
396.212
396.22
396.227
396.233
396.238
396.243
396.248
396.252
396.256
396.26
396.263
396.266
396.269
396.272
396.276
396.279
296.517
264.569
226.354
205.747
188.468
173.534
163.13
156.935
152.81
152.923
153.906
158.048
164.667
171.3
177.22
183.431
184.745
186.395
185.685
185.944
183.53
184.066
182.713
183.551
196.004
167.486
113.139
82.6728
68.5372
61.7918
58.1657
56.2584
55.4123
54.9815
54.7475
54.4104
53.0018
52.3715
52.1437
51.342
50.8671
50.7877
50.8964
51.1557
51.504
51.937
52.1073
52.1448
52.1375
52.0778
51.9381
51.8622
51.8279
51.7186
51.5169
51.2643
51.0369
50.9068
50.8763
50.9031
50.9535
51.0106
51.041
50.9347
50.951
51.0275
51.1084
51.1754
51.2367
51.2844
51.3225
51.3175
51.3527
51.379
51.3816
51.3762
51.4199
51.4995
51.5581
51.4881
51.4945
51.5802
51.6681
51.757
51.8452
51.9559
52.1153
52.3807
52.9539
53.5093
53.9854
54.3592
54.6623
54.9927
55.2686
55.4394
55.5517
55.6644
55.7627
55.8515
55.9272
55.9958
56.0955
56.1941
56.3018
56.3791
56.4468
56.5403
56.6401
56.5891
56.7976
57.5862
58.8044
59.3307
59.7335
59.8807
60.224
59.5656
60.6012
54.2481
293.053
256.684
223.256
202.534
184.592
169.167
156.184
146.331
137.927
132.571
128.991
127.312
127.876
129.614
134.496
140.153
146.144
154.271
159.037
166.031
167.747
171.259
175.749
177.672
195.433
181.33
145.083
105.517
81.1663
68.307
61.5994
58.0707
56.3357
55.292
54.8193
54.4028
52.9966
52.3282
52.0978
51.3632
50.8961
50.8739
50.9684
51.1867
51.5222
51.942
52.1214
52.148
52.1314
52.0701
51.95
51.815
51.7557
51.6518
51.4935
51.2276
51.0028
50.8715
50.8347
50.858
50.9046
50.9588
50.9754
50.8922
50.8919
50.9596
51.0365
51.1081
51.1856
51.2407
51.2873
51.2826
51.3124
51.3315
51.3322
51.3378
51.386
51.473
51.5256
51.4922
51.4856
51.5751
51.67
51.7662
51.8605
51.9678
52.1429
52.4135
52.9618
53.5214
53.9966
54.3756
54.678
55.0181
55.2925
55.4725
55.5911
55.7115
55.8158
55.9016
55.9817
56.0554
56.1708
56.277
56.3828
56.4607
56.5288
56.6138
56.7134
56.6891
56.9611
57.5763
58.7944
59.2886
59.6989
59.7993
59.9269
59.5318
59.1294
55.7713
331.94
366.43
373.112
382.182
385.251
388.802
390.068
391.849
392.501
393.515
393.898
394.473
394.68
395.023
395.16
395.388
395.478
395.63
395.695
395.801
395.845
395.915
395.945
395.997
396.019
396.056
396.075
396.108
396.124
396.142
396.158
396.171
396.182
396.193
396.201
396.21
396.218
396.225
396.231
396.236
396.241
396.246
396.251
396.255
396.259
396.262
396.266
396.269
396.273
396.276
396.278
396.279
396.279
396.277
396.277
396.277
396.278
396.278
396.28
396.281
396.284
396.288
396.295
396.307
396.324
396.348
396.381
396.425
396.486
396.566
396.667
396.791
396.941
397.121
397.325
397.552
397.798
398.06
398.327
398.584
398.829
399.064
399.29
399.505
399.705
399.892
400.08
400.354
400.517
400.481
400.501
400.57
400.575
400.567
400.572
400.572
400.564
400.542
400.508
400.465
400.412
400.349
400.273
400.188
400.1
400.011
399.915
399.761
399.707
399.724
399.697
399.653
399.605
399.588
399.581
399.574
399.568
399.571
399.577
399.59
399.611
399.634
399.662
399.692
399.725
399.761
399.795
399.839
399.913
399.985
396.277
396.275
396.275
396.276
396.276
396.277
396.278
396.28
396.282
396.287
396.294
396.306
396.323
396.347
396.379
396.424
396.485
396.565
396.666
396.79
396.94
397.12
397.324
397.551
397.797
398.059
398.327
398.583
398.828
399.063
399.289
399.504
399.705
399.891
400.079
400.354
400.515
400.48
400.5
400.569
400.574
400.567
400.572
400.571
400.564
400.542
400.508
400.465
400.412
400.348
400.273
400.187
400.1
400.01
399.915
399.761
399.707
399.723
399.697
399.652
399.605
399.588
399.581
399.573
399.568
399.57
399.577
399.59
399.61
399.633
399.661
399.692
399.725
399.76
399.794
399.838
399.913
399.985
396.277
396.277
336.254
366.443
373.001
382.27
385.167
388.777
390.07
391.857
392.524
393.512
393.88
394.451
394.66
395.004
395.155
395.383
395.473
395.623
395.692
395.795
395.841
395.91
395.94
395.991
396.014
396.052
396.072
396.103
396.119
396.14
396.154
396.168
396.179
396.19
396.199
396.207
396.216
396.223
396.229
396.234
396.239
396.245
396.249
396.254
396.258
396.261
396.265
396.268
396.272
396.275
292.707
254.433
219.815
198.629
181.368
166.272
153.994
143.22
134.332
126.296
120.309
115.188
112.265
110.298
110.494
111.573
114.416
119.19
123.258
131.154
138.825
143.755
154.07
161.368
184.089
190.187
166.295
134.937
102.801
80.6779
68.3726
61.8153
58.3086
56.0588
55.0243
54.4392
52.9867
52.2691
52.0573
51.4234
50.987
51.0053
51.0913
51.2705
51.572
51.9764
52.1548
52.17
52.142
52.0803
51.9579
51.7621
51.6735
51.5712
51.4578
51.1911
50.9621
50.8313
50.7882
50.8103
50.8553
50.901
50.9024
50.8366
50.8205
50.8676
50.9372
51.0126
51.1135
51.187
51.2519
51.2486
51.2708
51.2795
51.2748
51.2878
51.3459
51.4411
51.4912
51.4852
51.4707
51.5613
51.6608
51.7644
51.8694
51.979
52.159
52.4328
52.9661
53.5258
54.0018
54.3839
54.6857
55.037
55.3124
55.4985
55.6242
55.7476
55.8569
55.9341
56.0088
56.0788
56.2083
56.3075
56.421
56.4985
56.5664
56.6229
56.7015
56.7469
56.9959
57.4594
58.6453
59.1057
59.5157
59.5509
59.5455
59.3394
58.1374
56.8093
293.215
253.147
218.812
196.126
178.963
163.86
151.778
140.692
131.611
123.242
116.501
110.452
105.61
101.9
99.4315
97.2664
96.9194
97.5984
99.127
103.316
107.647
113.216
121.587
132.847
151.692
178.93
178.305
160.955
130.507
101.326
80.7199
69.05
62.4986
57.9232
55.5756
54.5414
52.9977
52.2022
52.0471
51.6411
51.2245
51.2677
51.3037
51.4223
51.6712
52.0543
52.2234
52.228
52.1859
52.1157
51.9734
51.7182
51.5934
51.4868
51.3961
51.1685
50.9165
50.7862
50.7368
50.7575
50.8047
50.8439
50.8285
50.7656
50.7379
50.7557
50.8001
50.8819
51.0002
51.102
51.1943
51.2001
51.2132
51.2026
51.184
51.1968
51.2668
51.3684
51.4159
51.4242
51.408
51.4975
51.5969
51.7039
51.8191
51.9375
52.1232
52.39
52.9153
53.4668
53.9462
54.3261
54.6259
54.9809
55.2557
55.4412
55.5728
55.6947
55.8054
55.8701
55.9282
55.9828
56.1161
56.1951
56.3211
56.4003
56.4773
56.5106
56.5681
56.627
56.8409
57.2073
58.2678
58.7168
59.0761
59.119
59.0239
58.9443
57.5419
56.6935
341.125
365.802
373.298
382.096
385.11
388.725
390.051
391.872
392.526
393.498
393.868
394.43
394.651
394.995
395.15
395.379
395.475
395.617
395.692
395.793
395.84
395.907
395.938
395.99
396.013
396.052
396.071
396.102
396.117
396.14
396.153
396.167
396.178
396.189
396.198
396.207
396.215
396.222
396.228
396.234
396.239
396.244
396.249
396.253
396.257
396.261
396.264
396.268
396.271
396.275
396.276
396.276
396.276
396.275
396.275
396.275
396.276
396.276
396.278
396.28
396.282
396.287
396.294
396.306
396.323
396.347
396.379
396.424
396.485
396.565
396.666
396.79
396.941
397.12
397.325
397.552
397.798
398.059
398.327
398.584
398.829
399.064
399.289
399.505
399.705
399.891
400.08
400.355
400.514
400.482
400.5
400.569
400.574
400.567
400.572
400.571
400.563
400.541
400.507
400.464
400.412
400.348
400.272
400.187
400.099
400.01
399.914
399.76
399.707
399.723
399.697
399.653
399.605
399.588
399.58
399.573
399.568
399.57
399.577
399.59
399.61
399.633
399.661
399.692
399.725
399.76
399.794
399.838
399.912
399.985
396.275
396.274
396.275
396.275
396.276
396.276
396.278
396.28
396.282
396.287
396.294
396.306
396.323
396.347
396.379
396.424
396.485
396.565
396.666
396.79
396.941
397.12
397.325
397.552
397.798
398.06
398.327
398.584
398.83
399.064
399.29
399.505
399.705
399.892
400.08
400.357
400.512
400.482
400.499
400.568
400.575
400.567
400.573
400.571
400.563
400.541
400.507
400.464
400.412
400.348
400.272
400.187
400.099
400.01
399.914
399.76
399.708
399.723
399.697
399.653
399.605
399.588
399.58
399.573
399.568
399.57
399.577
399.59
399.61
399.633
399.661
399.692
399.725
399.76
399.794
399.838
399.913
399.985
396.275
396.275
345.303
365.573
373.082
382.037
384.983
388.69
390.075
391.855
392.547
393.456
393.883
394.375
394.652
394.97
395.172
395.356
395.485
395.606
395.697
395.79
395.839
395.905
395.938
395.989
396.013
396.052
396.071
396.101
396.117
396.14
396.152
396.168
396.178
396.189
396.198
396.207
396.215
396.222
396.228
396.234
396.239
396.244
396.249
396.253
396.257
396.261
396.264
396.267
396.271
396.274
294.928
252.397
219.314
194.926
177.572
162.701
150.621
139.382
130.035
121.64
114.647
108.196
102.981
98.3492
94.5805
91.2972
88.8812
87.0746
86.3218
86.879
88.7231
91.1843
96.6119
103.894
116.003
142.932
169.36
171.618
156.059
126.878
100.475
82.3062
70.9753
62.0246
56.8727
54.8254
53.0089
52.1456
52.1293
52.1392
51.8998
51.73
51.6338
51.6854
51.8894
52.2204
52.3697
52.344
52.2735
52.18
52.0064
51.6959
51.5265
51.4064
51.3182
51.152
50.8683
50.7349
50.6744
50.6905
50.744
50.7822
50.7513
50.6692
50.6337
50.6217
50.6284
50.6934
50.8204
50.9437
51.0717
51.1033
51.0995
51.0684
51.0222
51.0269
51.1014
51.2022
51.2344
51.2532
51.2353
51.3217
51.4152
51.5193
51.638
51.7629
51.968
52.2261
52.7283
53.261
53.7466
54.1226
54.418
54.7693
55.0388
55.2167
55.3526
55.4735
55.5821
55.6349
55.6641
55.693
55.8081
55.866
55.9944
56.0804
56.1639
56.1802
56.2429
56.2693
56.4288
56.7302
57.646
58.1019
58.3883
58.437
58.2711
58.2593
56.7821
56.2649
298.344
253.768
220.381
194.209
176.447
161.75
149.729
138.306
128.948
120.181
113.548
106.937
101.715
96.6331
92.3784
88.2291
85.2765
82.3238
80.3065
78.926
78.8892
79.2954
80.6606
84.3687
91.1349
104.917
133.435
164.314
165.754
153.101
124.65
101.615
86.2779
71.1468
60.1518
55.4241
53.0605
52.2087
52.4696
53.1944
53.3045
52.9126
52.3052
52.1226
52.2883
52.5235
52.6325
52.5423
52.4221
52.2809
52.0634
51.7099
51.4902
51.3381
51.2465
51.1197
50.829
50.6763
50.5997
50.5996
50.6649
50.6998
50.6557
50.5478
50.4943
50.4552
50.4269
50.4542
50.5614
50.69
50.8455
50.8991
50.8898
50.8418
50.7615
50.7518
50.8122
50.8934
50.9067
50.9233
50.9009
50.9796
51.0594
51.1535
51.2651
51.3898
51.6073
51.8689
52.3468
52.8432
53.3308
53.7057
53.9927
54.339
54.597
54.7622
54.9014
55.0267
55.1339
55.1793
55.1854
55.1861
55.2519
55.2956
55.4067
55.4941
55.5771
55.5952
55.648
55.6427
55.7462
56.0091
56.7857
57.27
57.523
57.5097
57.3324
57.3111
55.9628
55.374
348.133
365.448
373.613
382.105
385.043
388.576
390.206
391.801
392.735
393.379
393.954
394.319
394.68
394.949
395.182
395.351
395.481
395.606
395.694
395.792
395.835
395.906
395.937
395.99
396.013
396.052
396.071
396.101
396.117
396.141
396.151
396.168
396.178
396.189
396.198
396.207
396.215
396.222
396.228
396.234
396.239
396.244
396.249
396.253
396.257
396.261
396.264
396.267
396.271
396.273
396.275
396.275
396.275
396.274
396.275
396.275
396.276
396.276
396.278
396.28
396.282
396.286
396.294
396.306
396.323
396.347
396.379
396.424
396.485
396.565
396.667
396.791
396.942
397.121
397.326
397.553
397.799
398.061
398.328
398.586
398.83
399.065
399.29
399.506
399.706
399.892
400.081
400.358
400.511
400.484
400.499
400.568
400.576
400.568
400.573
400.571
400.563
400.541
400.507
400.464
400.412
400.348
400.272
400.187
400.099
400.009
399.914
399.759
399.709
399.722
399.697
399.653
399.605
399.588
399.58
399.572
399.568
399.57
399.577
399.59
399.61
399.633
399.661
399.691
399.725
399.76
399.793
399.838
399.912
399.985
396.274
396.274
396.274
396.275
396.275
396.276
396.278
396.28
396.282
396.286
396.294
396.306
396.323
396.347
396.379
396.424
396.485
396.565
396.667
396.791
396.942
397.121
397.326
397.553
397.799
398.061
398.327
398.586
398.831
399.065
399.291
399.506
399.707
399.892
400.081
400.358
400.511
400.484
400.499
400.567
400.577
400.568
400.574
400.571
400.563
400.541
400.506
400.463
400.412
400.348
400.272
400.187
400.099
400.009
399.913
399.759
399.709
399.722
399.698
399.654
399.605
399.589
399.579
399.572
399.568
399.57
399.577
399.59
399.61
399.633
399.661
399.692
399.725
399.76
399.793
399.838
399.912
399.985
396.274
396.274
349.757
364.666
374.281
381.703
385.502
388.361
390.422
391.615
392.771
393.384
393.915
394.377
394.637
394.999
395.139
395.368
395.458
395.615
395.684
395.792
395.835
395.904
395.936
395.991
396.014
396.051
396.072
396.101
396.117
396.141
396.152
396.168
396.178
396.189
396.199
396.207
396.215
396.222
396.228
396.233
396.239
396.244
396.249
396.253
396.257
396.26
396.264
396.267
396.27
396.273
300.857
255.851
220.726
194.032
175.908
161.444
149.432
137.956
128.254
119.689
112.501
106.077
100.521
95.7048
90.9177
86.5129
82.9306
79.9136
77.0838
74.9518
73.7925
72.3493
72.5922
74.1681
76.3007
84.7617
95.7202
128.648
158.059
158.605
145.559
124.251
108.932
87.9698
68.5387
56.9993
53.0235
52.5473
53.5354
55.4574
56.2771
55.4976
53.7077
52.9763
53.0239
53.1557
53.1273
52.8805
52.6572
52.4064
52.127
51.7399
51.4857
51.3111
51.2177
51.1002
50.8214
50.6324
50.5365
50.513
50.5697
50.5967
50.5563
50.4081
50.3256
50.2688
50.1984
50.1953
50.2496
50.3558
50.515
50.5859
50.5759
50.5224
50.4058
50.3756
50.4123
50.4517
50.4462
50.4435
50.4179
50.4813
50.5376
50.6178
50.7104
50.8311
51.054
51.3293
51.7809
52.2404
52.7229
53.1006
53.3716
53.7109
53.9574
54.106
54.2558
54.3946
54.5066
54.5504
54.5373
54.5077
54.5298
54.5548
54.6379
54.7119
54.7763
54.8192
54.8496
54.8245
54.8703
55.0666
55.7603
56.2709
56.5455
56.4858
56.3323
56.1016
54.8628
55.3434
303.361
255.95
220.686
192.409
174.091
159.778
148.26
137.066
127.81
119.543
112.407
106.142
100.261
95.3436
90.2477
85.6897
82.0505
78.6441
76.0531
73.0276
71.5403
69.2375
68.0365
68.3031
68.8359
72.6421
78.4384
90.5254
115.241
149.879
160.586
155.167
142.328
118.026
95.1895
63.4414
55.0028
55.8562
57.4756
60.4293
61.4975
60.8472
57.3806
55.0352
54.4314
54.2827
53.9512
53.5459
53.0941
52.6439
52.2025
51.789
51.5168
51.324
51.2286
51.1261
50.9027
50.6725
50.5525
50.4961
50.521
50.5196
50.4644
50.2718
50.1481
50.091
49.9906
49.9466
49.9594
50.0092
50.1487
50.2198
50.2081
50.1488
49.9909
49.9432
49.9558
49.9468
49.911
49.8719
49.856
49.9033
49.9255
49.9784
50.0559
50.1736
50.3952
50.6864
51.0898
51.5291
52.0162
52.3953
52.6222
52.9404
53.1865
53.3202
53.4915
53.662
53.7902
53.838
53.8103
53.7454
53.743
53.757
53.8359
53.8893
53.9312
53.9906
54.0166
53.9773
53.9806
54.1142
54.6917
55.3094
55.5807
55.5566
55.3032
54.5843
54.6765
349.122
363.463
374.953
381.344
385.655
388.395
390.296
391.82
392.647
393.502
393.831
394.4
394.656
395.016
395.157
395.361
395.463
395.61
395.683
395.791
395.838
395.904
395.935
395.99
396.019
396.049
396.073
396.102
396.117
396.139
396.154
396.168
396.178
396.189
396.198
396.207
396.215
396.222
396.228
396.233
396.239
396.244
396.249
396.253
396.257
396.26
396.264
396.266
396.27
396.272
396.273
396.274
396.274
396.274
396.274
396.275
396.275
396.276
396.278
396.28
396.282
396.286
396.294
396.306
396.323
396.347
396.379
396.424
396.485
396.566
396.667
396.791
396.943
397.122
397.327
397.554
397.801
398.062
398.329
398.588
398.832
399.066
399.291
399.507
399.707
399.893
400.082
400.36
400.51
400.485
400.5
400.566
400.578
400.569
400.574
400.571
400.563
400.541
400.506
400.463
400.412
400.348
400.272
400.187
400.098
400.009
399.913
399.759
399.709
399.722
399.698
399.654
399.605
399.589
399.579
399.572
399.569
399.57
399.577
399.59
399.61
399.633
399.661
399.691
399.725
399.759
399.793
399.837
399.912
399.985
51.9019
19.3848
22.9446
22.1546
22.6962
22.9012
23.074
23.2225
23.3193
23.4055
23.4741
23.5124
23.5243
23.5116
23.4899
23.4519
23.4072
23.3445
23.2752
23.191
23.0735
22.9174
22.7337
22.5537
22.3803
22.2046
22.0157
21.8179
21.6246
21.4397
21.2619
21.1042
20.9643
20.8274
20.692
20.5449
20.4008
20.2648
20.1414
20.0185
19.8936
19.7707
19.6459
19.5249
19.4059
19.2895
19.17
19.0523
18.9308
18.8173
18.7125
18.611
18.5094
18.4071
18.3047
18.2023
18.1019
18.0045
17.9071
17.81
17.7136
17.6265
17.5508
17.4821
17.4164
17.3542
17.2982
17.2493
17.2028
17.1567
17.1131
17.0747
17.0358
16.9937
16.9545
16.9221
16.8942
16.8749
16.8582
16.8445
16.832
16.8204
16.8071
16.7967
16.7828
16.7694
16.7685
16.7677
16.771
16.784
16.7925
16.7949
16.8024
16.8143
16.8362
16.8827
16.9587
17.0575
17.1502
17.5944
19.9506
28.2546
18.51
23.9698
21.8467
22.9593
23.3018
23.8538
24.3735
24.6833
24.4615
24.4994
24.6575
24.5923
25.0485
25.5903
25.7575
25.9837
26.8163
28.2456
26.2659
23.5362
22.3103
21.8642
21.6249
21.4024
21.2889
21.0338
20.8322
20.8497
20.4787
20.3608
20.2402
20.1652
20.0755
19.9712
20.0412
20.0705
20.0923
19.9686
19.6513
19.3883
19.2712
19.3723
19.3665
19.0325
18.7193
18.5883
18.4848
18.4042
18.414
18.5377
18.7191
18.7789
18.7034
18.5733
18.0565
18.1865
18.3446
18.2886
18.1603
18.0512
17.9818
17.7737
17.638
17.6083
17.6706
17.8108
17.9107
17.8415
17.6922
17.7048
17.7457
17.9316
18.1467
17.993
17.7591
17.5454
17.6683
18.1304
18.3899
23.1877
30.5081
26.327
26.1194
24.3699
24.1459
23.8518
23.8788
23.853
23.8634
23.9519
23.8425
23.6016
23.4896
23.3153
23.2578
23.4012
23.5193
23.5163
23.8102
24.0969
24.0133
23.8642
23.6868
23.5254
23.1751
23.2111
23.359
23.4299
23.3371
23.2123
23.1458
23.328
23.2056
23.2451
23.2305
23.3072
23.3247
23.5478
23.642
23.8213
24.0151
24.2387
24.2687
24.0471
23.7423
23.496
23.8301
24.0935
24.0578
24.1516
24.3257
24.669
24.865
24.7216
24.6401
24.5557
24.6376
24.3029
24.26
24.5465
24.8355
24.7186
24.5654
24.7369
24.5844
24.4539
24.5405
24.6732
24.8765
25.018
24.9777
25.2066
25.1502
25.2068
25.1963
25.3268
25.4186
25.6637
25.6338
25.6535
25.6949
25.7893
25.8801
25.9943
26.0616
26.0946
25.708
25.5492
25.644
25.6144
25.5858
25.5786
25.6715
25.9495
26.4819
27.1158
28.475
31.3646
33.2645
34.2679
35.0218
35.709
36.0501
36.5802
36.8554
37.0131
36.974
36.7935
36.8917
37.4039
37.5563
38.012
37.8419
37.8212
37.7633
37.9253
38.2827
38.8966
39.518
39.748
39.6876
38.9754
38.6194
38.7644
38.8942
39.4798
39.9202
39.8786
40.0295
40.3703
40.7024
40.8492
41.0299
40.8049
41.106
40.8211
40.3387
39.9044
40.1224
40.7007
40.9721
41.2463
41.3292
41.8575
42.3074
42.0385
41.7274
41.3408
40.9629
40.3471
40.2286
40.16
40.3946
40.6391
40.5831
40.0542
39.5251
39.2738
38.5735
38.1967
38.1119
38.0603
38.4064
39.493
40.0948
40.1523
39.6598
38.6725
37.7991
37.4854
36.7609
35.5294
35.1139
35.564
35.8949
36.1477
36.6956
37.843
39.7302
41.2051
42.3388
43.3445
43.8484
44.4517
44.9105
45.1744
45.6168
47.2358
48.4339
49.2983
48.7433
48.3071
46.8966
45.2524
45.4212
46.9623
47.4742
48.3908
47.9913
47.2201
46.9227
46.1759
45.4528
44.9238
44.06
43.0137
42.0905
41.7375
41.4388
41.0261
40.3299
39.6144
38.7522
37.5164
36.6454
35.4612
34.3445
33.1471
31.9636
30.8655
30.0013
29.31
28.7606
28.1584
27.4559
26.8845
26.3449
25.818
24.9727
24.5612
24.6002
24.6497
24.666
24.6369
24.536
24.2275
23.7481
23.4237
23.2891
23.1514
22.9961
22.6819
22.4051
22.26
21.7893
21.8169
21.661
21.1928
20.4334
19.7093
19.0878
18.352
17.9254
17.781
17.4374
17.1574
16.79
16.381
16.0163
16.18
16.5568
16.3931
16.1054
16.0277
16.0588
16.0894
15.9671
15.8687
15.5061
15.2174
14.9422
14.7118
14.4912
14.3609
14.3614
14.4189
14.6446
14.7364
15.3675
15.8574
15.7065
15.5449
15.554
15.6711
15.9303
16.174
16.275
16.64
16.9177
17.6566
18.1853
20.1609
20.6798
24.5274
24.0173
23.5665
22.3643
22.5769
22.4919
22.0827
21.8801
21.9272
22.1031
22.1191
22.012
22.022
21.9792
21.9907
22.1271
22.4894
22.6476
22.4164
22.1254
21.8791
22.2258
22.453
22.4242
22.3253
22.0716
21.9276
21.8479
21.941
21.9759
22.288
22.4487
22.233
22.1288
22.0351
22.1792
22.2414
21.9835
22.0058
22.1693
22.0082
21.8958
22.0673
22.1354
22.0178
22.026
22.0128
22.0644
22.3292
22.6682
22.4697
22.1545
22.1878
22.475
22.7497
22.4729
22.313
22.5199
22.8816
23.1236
23.0219
22.6575
22.391
22.4145
22.4945
22.5826
22.844
23.1468
23.0864
22.8985
22.7164
22.688
22.5561
22.545
22.6527
22.6753
22.7467
22.9016
23.5279
25.5927
27.4991
30.749
30.1873
29.3726
27.3527
29.5323
385.138
388.527
390.221
391.87
392.675
393.506
393.954
394.452
394.742
394.996
395.195
395.358
395.492
395.608
395.696
395.773
395.838
395.905
395.945
395.987
396.025
396.047
396.075
396.102
396.118
396.138
396.155
396.167
396.179
396.19
396.199
396.206
396.214
396.222
396.228
396.233
396.239
396.244
396.249
396.253
396.256
396.26
396.263
396.266
396.268
396.27
396.274
396.274
396.274
396.274
396.274
396.275
396.275
396.276
396.278
396.28
396.282
396.286
396.294
396.306
396.322
396.346
396.379
396.423
396.484
396.565
396.666
396.791
396.942
397.122
397.327
397.555
397.8
398.061
398.327
398.587
398.833
399.068
399.294
399.508
399.708
399.894
400.082
400.361
400.511
400.486
400.502
400.559
400.583
400.571
400.576
400.573
400.563
400.54
400.504
400.461
400.412
400.348
400.272
400.185
400.097
400.008
399.912
399.76
399.709
399.722
399.701
399.658
399.605
399.59
399.579
399.571
399.569
399.57
399.578
399.59
399.609
399.633
399.66
399.69
399.724
399.757
399.792
399.834
399.903
399.984
399.984
399.983
399.984
399.985
399.985
399.985
399.985
250.788
221.237
171.46
145.877
131.587
124.389
116.94
110.725
104.714
99.2227
94.4291
91.0712
86.1718
87.0817
82.4307
78.6438
75.6079
72.7373
69.6923
67.5154
65.051
63.6068
61.4017
60.7144
61.7701
62.6183
64.7587
66.4309
80.3054
92.4529
103.052
113.22
123.522
143.061
139.791
128
127.607
112.114
107.265
98.7267
90.3867
87.9412
78.0011
65.8542
61.8243
58.0971
57.1984
55.7058
53.8824
52.0374
51.4817
51.4373
51.7057
51.7801
51.8614
51.7186
51.2535
50.9651
50.7415
50.568
50.3618
50.2058
49.8112
49.5855
49.5093
49.1802
49.0125
48.9749
48.8653
48.785
48.7389
48.6896
48.605
48.273
48.1348
48.1112
48.0415
47.8381
47.6831
47.7048
47.8495
47.7521
47.5781
47.6431
47.8612
47.9452
48.1102
48.4045
48.7294
49.1871
49.5108
49.4267
49.4788
49.8576
49.9792
50.0618
50.3195
50.5583
50.6222
50.5702
50.4409
50.3135
50.294
50.4369
50.4661
50.3307
50.2352
50.2541
50.3906
50.4737
50.7367
51.0888
51.6564
52.0861
52.117
52.1969
51.6724
52.0143
51.4424
52.9551
53.6221
54.6341
54.91
54.7538
55.1523
54.0858
57.0949
47.9117
81.5105
79.7903
22.8014
31.6955
38.8697
29.4833
393.867
394.664
394.879
399.906
399.92
51.1347
50.8453
42.6217
74.9825
22.4619
21.5668
22.6771
22.8718
22.6483
23.1556
23.0116
23.357
23.2886
23.3738
23.3756
23.3178
23.3403
23.2325
23.2757
23.1012
23.1671
22.8936
23.0106
22.5631
22.7424
22.196
22.3746
21.7982
22.0043
21.3942
21.5953
21.0476
21.2049
20.7872
20.9148
20.5362
20.6647
20.2691
20.4005
20.0217
20.1419
19.7853
19.9025
19.5396
19.6631
19.2992
19.418
19.0716
19.1853
18.8513
18.9628
18.6466
18.7475
18.4492
18.5494
18.2415
18.3461
18.0358
18.1384
17.8361
17.9347
17.6445
17.7404
17.4769
17.5554
17.3442
17.4074
17.2267
17.2827
17.1301
17.178
17.0369
17.0848
16.9446
16.9914
16.855
16.899
16.7845
16.8174
16.7377
16.7586
16.7115
16.7234
16.6989
16.703
16.6987
16.6974
16.7109
16.7036
16.7277
16.7203
16.7539
16.742
16.7712
16.7612
16.8103
16.7874
16.941
16.8602
17.1611
17.089
19.3341
17.4125
30.7107
29.3931
27.8097
31.0622
30.8647
32.0029
31.3466
33.0018
32.3811
33.7863
33.5531
33.8353
34.088
35.3879
34.2656
38.401
37.1764
32.7606
36.3081
29.2811
30.4881
28.4
28.6161
28.1717
28.2463
28.1232
28.0967
27.7925
28.0903
27.5779
27.6378
27.4163
27.5618
26.4705
26.8847
26.3268
26.303
26.3734
26.3737
25.8897
26.074
25.6855
25.8049
25.5781
25.5903
25.3627
25.4533
24.7392
25.1954
23.8828
24.2449
23.8085
23.7977
23.5049
23.9238
23.4146
23.4046
23.5438
23.4465
24.0158
23.7439
24.3131
24.2903
24.1068
24.1793
23.9053
23.9521
24.0966
24.063
23.267
23.7953
22.7068
22.8507
22.7311
22.6994
22.9105
35.8561
35.59
36.7316
32.9019
33.3575
31.8156
32.1109
31.6375
31.6562
31.6499
31.5924
32.3683
31.9497
32.6503
32.6055
32.4877
32.602
31.8877
32.1322
31.8029
31.7579
31.5341
31.7263
31.2852
31.3794
31.4248
31.2166
32.2146
31.902
32.2019
32.2822
32.3891
32.1919
32.4806
32.5628
32.2518
32.3661
32.4179
32.269
31.8789
32.1016
32.2406
32.0214
32.5462
32.4067
32.7006
32.6262
32.541
32.6931
32.3919
32.4532
32.2358
32.3594
32.5843
32.3917
32.976
32.8436
32.7646
32.9016
32.7248
32.705
32.8802
32.8755
33.4182
33.0749
34.0925
33.8176
34.1371
34.1531
34.2955
34.2564
34.8979
34.6435
35.0598
35.0784
34.7965
34.9219
34.7001
34.7277
34.8001
34.6935
34.4391
34.7236
34.4071
34.3504
35.0846
34.7025
35.3723
35.2922
35.6114
35.5648
35.7953
35.8015
36.2011
35.864
39.0629
36.9693
46.2919
42.917
48.573
47.9806
49.3905
49.0158
50.41
49.8764
51.9273
51.1634
52.6268
52.2711
52.8232
53.017
52.3929
52.6594
52.484
52.4621
51.8739
52.2799
51.7282
51.7758
53.5097
52.2255
55.2073
54.5967
55.6626
55.5201
56.1735
55.967
55.7057
55.9476
55.0921
55.5066
54.4094
54.725
54.5502
54.326
55.8649
55.0848
55.8963
56.0815
55.5306
55.6767
54.9204
55.2094
54.8435
54.7803
55.7979
55.0822
57.0147
56.5038
56.3228
56.7001
55.6645
56.0686
55.3115
55.3605
54.6653
54.8834
54.593
54.9484
53.657
54.0212
51.9993
53.1657
51.911
52.2041
50.9364
51.1515
49.8018
50.5913
50.7014
49.6767
51.5657
50.922
54.9689
53.1474
59.788
57.4912
62.9656
61.9105
65.7906