/*--------------------------------*- C++ -*----------------------------------*\
| =========                 |                                                 |
| \\      /  F ield         | OpenFOAM: The Open Source CFD Toolbox           |
|  \\    /   O peration     | Version:  2212                                  |
|   \\  /    A nd           | Website:  www.openfoam.com                      |
|    \\/     M anipulation  |                                                 |
\*---------------------------------------------------------------------------*/
FoamFile
{
    version     2.0;
    format      ascii;
    arch        "LSB;label=32;scalar=64";
    class       volVectorField;
    location    "0.08";
    object      U;
}
// * * * * * * * * * * * * * * * * * * * * * * * * * * * * * * * * * * * * * //

dimensions      [0 1 -1 0 0 0 0];

internalField   nonuniform List<vector> 
2308
(
(-3.14561 61.5871 -5.1079e-16)
(20.8952 27.5737 0)
(42.49 104.338 3.63223e-17)
(-4.70574 38.8646 -1.81329e-16)
(3.40481 97.5675 0)
(1.95676 92.1494 -7.26388e-20)
(3.51881 93.383 -1.0727e-20)
(3.11566 95.0939 -2.51533e-16)
(3.56337 98.3774 4.53186e-16)
(-0.117655 104.468 -6.0828e-17)
(0.119071 103.958 1.07852e-16)
(0.800254 103.146 -1.59606e-16)
(1.1219 102.529 7.87487e-17)
(1.51309 102.01 -3.98568e-17)
(1.82808 101.43 6.78851e-18)
(2.05177 100.855 5.64497e-17)
(2.19604 100.309 7.57689e-18)
(2.83846 100.329 1.75187e-17)
(2.80621 100.734 2.3513e-17)
(2.72772 101.227 1.73824e-18)
(2.59788 101.767 1.32491e-17)
(2.39783 102.362 -3.87419e-17)
(2.19696 102.921 4.9716e-17)
(1.71341 103.588 -2.2921e-17)
(1.37925 104.191 -9.84797e-17)
(1.23291 104.905 -4.68877e-17)
(0.428494 105.702 2.39002e-17)
(0.0323941 106.575 -2.63765e-17)
(3.244 97.4794 0)
(2.33731 99.8322 -1.61391e-16)
(-0.398409 107.211 1.40622e-18)
(-0.578203 107.711 3.60068e-19)
(-0.765269 108.316 -6.14885e-18)
(-0.977556 109.118 5.81704e-18)
(-1.20249 110.152 -6.17739e-18)
(-1.42493 111.401 5.82462e-18)
(-1.65962 112.845 -2.90511e-18)
(-1.90507 114.463 2.90854e-18)
(-2.1581 116.313 -2.89957e-18)
(-2.40535 118.382 1.45671e-18)
(-2.65108 120.738 2.90663e-18)
(-2.8853 123.293 4.35571e-18)
(-3.11108 126.144 -8.73683e-18)
(-3.29723 129.11 5.84355e-18)
(-3.44669 132.332 2.91365e-18)
(-6.35732 131.349 -2.93286e-18)
(-6.14261 128.147 2.91438e-18)
(-5.84294 125.242 -4.3748e-18)
(-5.45072 122.482 -4.745e-18)
(-5.02931 120.056 7.26619e-18)
(-4.57806 117.855 -1.45462e-18)
(-4.12662 115.949 2.91806e-18)
(-3.66569 114.248 7.34213e-19)
(-3.2229 112.727 -4.36967e-18)
(-2.75856 111.371 -1.46375e-18)
(-2.3137 110.123 2.91727e-18)
(-1.86589 108.933 0)
(-1.40337 107.814 -3.62634e-19)
(-0.956767 106.672 -1.19434e-17)
(-0.621954 105.564 -4.11605e-17)
(-0.356732 104.722 4.84224e-17)
(-0.0154776 104.162 4.99041e-17)
(0.164912 103.203 5.73916e-17)
(0.457527 102.556 -2.1593e-21)
(0.790587 101.499 6.46225e-17)
(1.09834 100.926 -1.19607e-16)
(1.25119 100.476 -2.7419e-17)
(1.30248 99.9423 0)
(1.30685 99.524 0)
(1.35319 99.0954 0)
(1.49012 98.6588 0)
(-3.52183 135.506 -1.46419e-18)
(-6.4669 134.495 1.46713e-18)
(3.18541 99.2597 -8.03756e-17)
(3.13248 99.4952 -1.63527e-18)
(2.98476 99.9212 6.42109e-18)
(2.72577 100.455 0)
(2.32392 101.036 -1.23001e-17)
(1.85027 101.756 -1.20451e-17)
(1.22682 102.345 6.03543e-18)
(0.671815 102.806 2.42186e-17)
(0.134621 103.536 0)
(-0.217592 104.021 1.63947e-20)
(-0.437547 104.625 4.48323e-20)
(-0.552778 105.541 -5.8049e-18)
(-0.685561 106.628 8.71687e-18)
(-0.818727 107.776 -7.62898e-21)
(-0.902374 109.015 -5.10119e-18)
(-0.973647 110.358 0)
(-1.03566 111.829 -7.27631e-19)
(-1.01276 113.425 4.3604e-18)
(-0.915034 115.203 -5.81433e-18)
(-0.791309 117.207 6.07203e-21)
(-0.681248 119.507 5.823e-18)
(-0.611984 122.046 0)
(-0.596385 124.898 5.82373e-18)
(-0.618704 127.876 -3.97046e-21)
(-0.659414 131.107 -2.92551e-18)
(3.01533 99.8637 -6.92688e-17)
(-0.676628 134.289 -2.92143e-18)
(2.5551 99.4171 7.0575e-17)
(1.68865 98.2816 -2.25445e-20)
(-9.43285 131.515 -2.9451e-18)
(-9.27164 128.353 3.6672e-18)
(-8.99601 125.051 0)
(-8.52057 122.091 -1.1029e-18)
(-7.92686 119.272 2.55625e-18)
(-7.26302 116.851 2.92975e-18)
(-6.60122 114.641 -2.92307e-18)
(-5.96687 112.725 0)
(-5.40009 111.008 -7.31029e-19)
(-4.92583 109.477 1.4662e-18)
(-4.49767 108.157 3.97277e-22)
(-4.13975 107.011 -1.46548e-18)
(-3.84347 106.011 0)
(-3.60493 105.197 2.20041e-18)
(-3.41886 104.638 -8.76306e-18)
(-3.25625 104.265 -5.85769e-18)
(-2.88601 103.539 2.37818e-17)
(-2.54147 102.329 8.81428e-17)
(-2.60103 100.736 6.65501e-18)
(-2.53103 99.764 6.33462e-17)
(-2.37005 98.9612 -2.86764e-17)
(-1.7671 98.6005 0)
(-0.97134 98.173 0)
(-0.289463 97.7801 0)
(0.186789 97.1963 9.48783e-17)
(0.485654 96.54 -1.10163e-16)
(0.727035 95.8863 1.123e-16)
(2.74795 88.4157 -2.01824e-16)
(1.19105 88.7608 0)
(1.70908 92.8074 0)
(1.50558 90.9319 0)
(3.88793 94.6852 1.61335e-16)
(3.90661 94.718 4.56072e-17)
(3.84353 94.7838 -6.89056e-22)
(3.74431 95.1931 -7.7743e-19)
(3.61197 95.8367 7.73551e-19)
(3.45931 96.5542 6.13626e-18)
(3.26009 97.3437 -1.21161e-17)
(3.05688 98.0985 -5.86666e-22)
(2.94342 98.7214 0)
(2.76219 99.6081 2.67928e-17)
(2.52785 100.419 1.76036e-17)
(2.32204 101.015 -2.91967e-18)
(2.10638 101.512 2.91615e-18)
(1.91215 102.085 0)
(1.77249 102.91 0)
(1.64249 103.976 -3.65359e-19)
(1.52557 105.206 0)
(1.46859 106.617 2.18968e-18)
(1.47601 108.278 -1.38109e-21)
(1.58004 110.16 -1.46023e-18)
(1.75721 112.318 0)
(1.97154 114.815 -1.45564e-18)
(2.15745 117.589 2.19043e-18)
(2.27418 120.663 -3.65293e-18)
(2.31606 123.836 0)
(2.29083 127.217 -5.84521e-18)
(2.2652 130.507 1.46042e-18)
(2.26668 133.997 -5.27752e-21)
(-0.66049 137.727 0)
(-3.5397 138.952 -7.31984e-19)
(-6.49371 137.938 -2.37812e-18)
(3.2278 97.7867 2.17539e-16)
(-9.44527 134.988 1.83914e-19)
(2.58406 77.4658 -6.34204e-16)
(2.80726 55.9742 -1.45299e-16)
(1.93529 98.0965 0)
(2.88774 96.7083 2.08375e-16)
(3.38423 98.4608 -4.31176e-16)
(3.14198 99.527 2.88286e-17)
(0.926121 95.4726 -1.69825e-16)
(2.36567 137.271 -1.47018e-18)
(-0.572726 140.989 -1.46321e-18)
(-3.4739 142.221 -1.83359e-19)
(-6.43406 141.182 2.93998e-18)
(-9.39232 138.174 1.84084e-19)
(-12.3303 133.605 0)
(-12.4235 130.582 1.47729e-18)
(-12.4621 127.167 2.95748e-18)
(-12.3048 123.984 -7.27659e-19)
(-11.9267 120.603 -2.94395e-18)
(-11.2338 117.539 -3.316e-18)
(-10.2899 114.717 4.41201e-18)
(-9.21061 112.448 1.47511e-18)
(-8.11365 110.509 -2.94804e-18)
(-7.00674 108.915 2.20964e-18)
(-5.95033 107.52 -6.43774e-19)
(-4.93825 106.276 0)
(-3.94128 105.184 0)
(-3.01702 104.279 0)
(-2.20377 103.458 2.95635e-18)
(-1.46249 102.646 -1.47923e-18)
(-0.800894 101.726 4.08044e-21)
(-0.247007 100.602 -1.19102e-17)
(0.207285 99.577 0)
(0.433037 98.6064 -1.25423e-17)
(0.715372 97.6679 1.29663e-17)
(1.04502 96.6498 2.66623e-17)
(1.32942 95.2278 1.36235e-17)
(1.36311 93.8684 5.4419e-17)
(1.22525 93.1993 -5.38319e-17)
(1.07648 92.8993 0)
(0.588318 92.712 1.33372e-17)
(0.0872516 92.6436 -2.68197e-17)
(-0.120806 92.4784 -5.43813e-17)
(4.00361 93.844 2.58181e-17)
(1.106 101.232 0)
(3.05166 95.7218 -6.56317e-21)
(2.82925 84.0614 2.80137e-16)
(2.40585 83.5666 -5.95913e-17)
(2.23017 83.9086 6.75697e-17)
(2.2057 84.4463 -1.28823e-17)
(2.33472 85.101 2.52414e-17)
(2.58448 85.491 -1.23261e-17)
(2.73458 86.1947 0)
(2.93817 86.3889 -1.19566e-17)
(3.17924 86.4078 -1.21331e-17)
(3.31633 86.7872 0)
(3.28136 87.3989 0)
(3.05719 88.171 7.60601e-19)
(2.54105 88.9232 -6.80069e-18)
(1.76122 89.6091 0)
(0.873353 90.2801 0)
(-0.00518013 91.0724 -8.93912e-18)
(-0.440665 91.9457 -5.90708e-18)
(-0.360902 92.9722 1.17448e-17)
(-0.0909782 94.1567 2.93792e-18)
(0.217194 95.2585 7.32597e-19)
(0.486663 96.4841 2.93213e-18)
(0.762557 97.7611 -3.30385e-18)
(1.05603 99.164 0)
(1.48333 100.649 -1.4656e-18)
(2.00478 102.298 0)
(2.63979 104.119 0)
(3.38033 106.141 0)
(4.10423 108.593 -5.86249e-18)
(4.69782 111.439 0)
(5.08768 114.64 -3.29365e-18)
(5.27657 117.973 5.49081e-19)
(5.29831 121.471 1.15275e-17)
(5.24501 124.822 0)
(5.20319 128.302 -5.85643e-18)
(5.28283 131.524 9.1227e-20)
(-10.9214 70.665 0)
(2.49109 90.3362 3.43708e-16)
(8.08197 78.208 5.48682e-16)
(1.97753 25.672 0)
(37.9429 57.1875 -1.67363e-16)
(2.67972 67.4613 7.21233e-16)
(1.2315 95.3344 -2.68088e-20)
(3.17027 97.842 5.45028e-17)
(-15.1212 127.581 -1.85651e-19)
(-15.356 124.835 -1.48308e-18)
(-15.6021 121.621 1.48349e-18)
(-15.6042 118.491 0)
(-15.2678 114.955 0)
(-14.4089 111.543 1.8517e-19)
(-13.1435 108.359 -7.3938e-19)
(-11.7696 105.862 -2.58724e-18)
(-10.5503 103.832 1.84395e-19)
(-9.56818 102.214 -3.81526e-19)
(-8.87649 100.878 -4.54169e-19)
(-8.32207 99.7115 2.03708e-18)
(-7.74036 98.6165 1.86907e-19)
(-7.20314 97.6745 -1.48234e-18)
(-6.86054 97.0077 0)
(-6.51807 96.4837 5.94985e-18)
(-6.22513 96.0768 1.36475e-20)
(-6.17062 95.7463 3.01657e-17)
(-6.2366 95.4033 -2.44192e-17)
(-6.17209 94.5913 0)
(-6.17054 93.4618 2.55445e-17)
(-5.998 92.4681 -7.83574e-17)
(-5.58754 91.7195 3.97663e-17)
(-5.05194 91.4318 5.28845e-17)
(-4.03725 91.3741 4.59582e-20)
(-2.92551 91.319 -5.23102e-17)
(-1.88198 90.9649 5.23527e-17)
(-1.50023 90.1898 5.26823e-17)
(-1.35491 89.4897 -5.25635e-17)
(-0.0370925 92.2942 -1.0792e-16)
(3.27188 98.8552 -8.14169e-20)
(4.61308 35.1788 1.31604e-19)
(3.14764 70.9064 -4.93223e-17)
(3.43933 70.8507 -6.54231e-18)
(3.76928 71.3861 -1.93784e-17)
(4.12648 72.1446 -6.32226e-18)
(4.40219 72.8101 0)
(4.60932 73.322 1.22742e-17)
(4.78136 73.9338 -6.06756e-18)
(5.01773 74.4964 -6.03584e-18)
(5.27807 75.129 3.03514e-18)
(5.38846 76.1826 3.04244e-18)
(5.37692 77.5592 6.08645e-18)
(5.29045 79.1983 0)
(5.02837 80.7252 6.03707e-18)
(4.72934 82.0783 -5.93065e-18)
(4.58976 83.159 -9.37662e-20)
(4.57879 83.7287 -1.7949e-17)
(4.85594 83.841 1.48429e-18)
(5.19983 84.0996 -7.39367e-18)
(5.29028 84.6366 0)
(5.39745 85.5469 -2.39363e-18)
(5.46127 86.7947 1.85506e-19)
(5.44827 88.1542 3.31752e-18)
(5.37285 89.6056 0)
(5.40512 91.0331 0)
(5.5885 92.509 -9.19582e-20)
(5.9643 94.2829 -2.85174e-18)
(6.57038 96.6029 2.94542e-18)
(7.34986 99.5899 3.67661e-18)
(8.09152 103.069 -7.35058e-19)
(8.56192 106.859 2.20277e-18)
(8.71121 110.644 -7.31433e-19)
(8.60948 114.377 -5.87022e-18)
(8.40184 117.804 5.87456e-18)
(8.2422 121.238 1.32012e-17)
(8.27775 124.35 5.85979e-18)
(8.54456 127.814 0)
(5.51718 135.095 -3.01795e-18)
(2.57846 140.898 4.27521e-21)
(-0.384386 144.625 3.30858e-18)
(-3.35325 145.899 1.1006e-18)
(-6.35504 144.848 -1.46977e-18)
(-9.30891 141.802 2.94728e-18)
(-12.214 137.072 -2.95095e-18)
(-14.9483 130.731 -1.48221e-18)
(4.05095 85.7762 -2.0319e-16)
(-12.4412 84.7116 -4.81208e-17)
(-55.1128 73.2861 -8.02106e-17)
(2.09585 80.8872 -3.49748e-16)
(-1.2348 71.9947 -1.72467e-16)
(20.7526 22.1212 5.21385e-17)
(-0.928902 88.7875 0)
(0.306894 92.142 2.1597e-16)
(2.99624 98.5733 5.06533e-16)
(2.29698 91.0611 2.09289e-16)
(1.25967 98.1419 -2.09645e-16)
(3.20288 97.8401 4.45785e-16)
(1.71519 55.2743 0)
(1.34694 55.3904 6.40414e-18)
(1.25069 56.3192 -1.58174e-18)
(1.34269 58.1288 -2.95648e-17)
(1.60657 59.9733 6.16127e-18)
(1.94764 61.3416 0)
(2.32477 62.3747 3.96835e-21)
(2.86774 63.2624 -1.50886e-18)
(3.57096 64.14 0)
(4.21419 65.2502 -3.02613e-18)
(4.5452 66.7184 -3.01948e-18)
(4.33101 68.2439 0)
(3.34494 69.6533 7.52199e-19)
(1.97783 70.8348 -7.46708e-19)
(0.460199 71.5702 7.49511e-19)
(-1.01896 72.1985 1.11578e-17)
(-1.59499 73.1781 0)
(-1.28038 74.8086 1.47689e-18)
(-0.661362 76.5609 -7.37438e-19)
(0.178767 78.0476 1.84651e-19)
(0.945376 79.5417 5.54309e-19)
(1.53021 81.1051 -3.32507e-18)
(2.02752 82.7231 0)
(2.74306 84.1985 7.38006e-19)
(3.89846 85.403 1.47614e-18)
(5.73853 86.7595 1.47587e-18)
(8.06329 88.7263 1.83125e-21)
(10.0617 91.7851 -7.36897e-19)
(11.5012 95.5946 -2.21191e-18)
(12.2135 99.7434 -1.47378e-18)
(12.299 103.618 -1.47286e-18)
(11.9161 107.211 0)
(11.4148 110.373 -5.88897e-18)
(11.0549 113.516 -5.88091e-18)
(11.0388 116.39 -4.40361e-18)
(11.3529 119.715 -8.06794e-18)
(12.0717 122.786 3.66562e-18)
(9.08437 130.989 -2.93174e-18)
(5.95217 138.356 0)
(2.92102 144.225 1.47306e-18)
(-0.143901 147.985 1.47426e-18)
(-3.18557 149.258 -2.93865e-18)
(-6.2408 148.177 2.94245e-18)
(-9.246 145.022 -3.48838e-21)
(-12.2016 140.068 -1.4738e-18)
(-14.9968 133.443 4.43725e-18)
(-17.604 125.535 -4.45769e-18)
(-17.3971 123.074 7.44754e-19)
(-17.5802 120.313 -5.56156e-19)
(-17.9518 117.993 1.11707e-18)
(-18.4986 115.222 -3.71218e-18)
(-18.7851 112.434 1.39085e-18)
(-18.597 109.02 0)
(-17.5283 105.423 1.86172e-19)
(-15.6118 101.944 2.60541e-18)
(-13.2992 99.3023 -3.714e-19)
(-11.0185 97.4624 9.28717e-19)
(-8.83656 96.3699 1.02749e-22)
(-6.98118 95.7663 3.74126e-19)
(-5.47045 95.0892 -1.85636e-19)
(-3.96612 94.3403 1.30266e-18)
(-2.44988 93.6819 -4.45565e-18)
(-1.09849 92.8136 -4.10639e-21)
(-0.216898 92.2796 2.96476e-18)
(0.36729 91.7765 -2.97877e-18)
(0.697501 91.1116 -2.41186e-17)
(0.873114 90.3329 2.43191e-17)
(1.23756 89.3849 0)
(1.72471 88.2715 -5.02117e-17)
(2.23735 86.9311 3.81563e-17)
(2.71206 85.4661 -3.86209e-17)
(2.91582 83.5301 0)
(2.91692 82.6955 0)
(2.79612 82.2183 0)
(1.85073 81.7581 -6.38655e-18)
(0.00204973 82.3609 2.77264e-20)
(-1.01045 82.7373 1.01909e-16)
(3.53162 99.2829 -2.26477e-16)
(-0.525092 88.6671 1.08188e-16)
(0.789935 92.2645 -1.01713e-16)
(3.88558 93.6136 1.29146e-17)
(2.41457 96.7328 2.44346e-16)
(1.47681 80.5443 2.09617e-16)
(1.81964 69.0388 2.03115e-20)
(2.52646 58.348 -2.18768e-16)
(7.01872 31.241 -1.51365e-16)
(2.40031 55.8563 -1.50011e-16)
(4.16267 46.2335 5.44292e-17)
(5.65177 46.7663 -1.26918e-17)
(6.58217 46.9064 -2.50408e-17)
(7.27155 47.3076 0)
(7.71281 48.3374 2.47679e-17)
(7.94885 49.6624 0)
(8.2183 50.8753 0)
(8.53144 52.0153 6.065e-18)
(8.92906 53.1784 1.51287e-18)
(9.39637 54.475 0)
(9.79824 56.2499 3.01827e-18)
(9.93153 58.8401 -3.02126e-21)
(9.70602 61.4489 5.29709e-21)
(9.04565 64.27 3.01688e-18)
(8.15901 66.9922 3.38405e-18)
(8.01852 68.3638 -3.37341e-18)
(8.40856 68.2535 -6.13509e-18)
(9.05074 67.444 1.85848e-19)
(10.1375 67.0291 -1.11439e-18)
(10.674 67.3654 3.73037e-19)
(11.0749 68.4461 1.48446e-18)
(11.3043 70.2296 -1.1172e-18)
(11.1905 71.9449 1.49149e-18)
(10.8802 73.292 -7.57021e-21)
(10.3846 74.1433 -3.71243e-18)
(10.2731 74.7873 1.48286e-18)
(10.9632 75.6866 1.48287e-18)
(12.4153 78.1999 -2.21796e-18)
(14.7397 83.0985 2.96387e-18)
(16.2569 88.1899 2.9658e-18)
(16.5335 92.7928 0)
(16.0662 96.593 8.8869e-18)
(15.1715 99.8759 1.48248e-18)
(14.3992 102.653 1.47684e-18)
(13.9733 105.471 0)
(14.0489 108.14 0)
(14.5264 111.341 4.39939e-18)
(15.5029 114.408 -6.41512e-21)
(16.6538 118.459 -7.38e-19)
(13.0097 126.775 7.3094e-19)
(9.82846 134.939 0)
(6.53394 142.33 0)
(3.3734 148.223 -7.33954e-19)
(0.177569 152.013 2.20536e-18)
(-2.98959 153.321 0)
(-6.15508 152.219 -1.47766e-18)
(-9.25348 148.988 -1.47823e-18)
(-12.2937 143.887 2.95495e-18)
(-15.2127 137.054 -1.48415e-18)
(-18.0163 128.994 4.46182e-18)
(-20.8277 120.597 7.4186e-19)
(-20.1354 117.19 7.43818e-19)
(-19.62 114.756 1.49114e-18)
(-19.6285 112.168 0)
(-19.9877 110.082 -5.59265e-19)
(-20.7955 107.722 -1.39628e-19)
(-21.6136 105.346 8.41401e-19)
(-22.0585 102.383 -1.84413e-19)
(-21.4963 98.7769 -3.71282e-19)
(-19.5924 94.8427 -2.98328e-18)
(-17.0366 91.2673 7.46939e-19)
(-14.9369 88.9634 -1.86577e-18)
(-13.1508 88.0134 9.30989e-19)
(-12.3888 87.0103 -3.72628e-19)
(-12.325 85.6051 0)
(-12.0444 84.5525 0)
(-11.7138 83.9386 0)
(-11.3386 83.5865 -1.50044e-18)
(-10.3764 83.5038 0)
(-9.71788 83.584 2.84603e-20)
(-9.27649 83.4189 1.20916e-17)
(-9.08393 82.7002 -6.04319e-18)
(-9.40496 81.5697 1.22637e-17)
(-9.73686 80.7211 3.73971e-17)
(-9.82276 80.1368 7.08269e-20)
(-9.90764 79.9705 -1.27047e-17)
(-9.05116 79.8596 -2.525e-17)
(-8.10816 80.474 5.00839e-17)
(-6.6582 81.2795 -2.51234e-17)
(-5.17485 81.0922 -1.3965e-20)
(-4.43824 79.8388 1.25117e-17)
(-3.56297 78.4437 -8.25121e-20)
(-1.44519 83.1282 -1.55323e-16)
(3.4167 99.669 -2.31816e-16)
(3.6825 98.081 4.4467e-16)
(307.293 277.607 0)
(-1.33903 83.81 -1.06133e-16)
(3.78414 41.4505 3.9175e-16)
(3.13461 48.1443 -2.08899e-16)
(2.25769 58.59 -3.99422e-16)
(1.24735 92.1369 -3.40426e-17)
(3.215 92.3766 -3.23638e-17)
(3.25605 97.5486 -1.27783e-17)
(-0.0333787 88.7865 4.50723e-20)
(1.51711 91.6525 -2.4055e-16)
(1.21244 69.3744 2.00829e-16)
(18.1655 122.05 -7.35119e-19)
(14.2528 130.255 -7.34398e-19)
(10.7953 138.41 0)
(7.28405 145.839 -7.33771e-19)
(3.93122 151.765 7.35046e-19)
(0.572841 155.568 -7.35687e-19)
(-2.75609 156.872 7.36973e-19)
(-6.07983 155.731 1.47248e-18)
(-9.32116 152.388 -1.47463e-18)
(-12.5314 147.09 2.9473e-18)
(-15.668 140.097 -4.43944e-18)
(-18.7579 131.99 0)
(-21.9331 123.629 -8.0503e-21)
(-25.0153 115.563 0)
(-23.5413 112.57 -4.47362e-18)
(-22.6032 109.359 1.49412e-18)
(-21.7845 106.899 0)
(-21.5054 104.289 0)
(-21.714 102.126 3.7355e-19)
(-22.6395 99.8662 -4.67334e-20)
(-23.8416 97.8333 0)
(-24.8083 95.6595 -1.8732e-19)
(-24.7075 92.8732 1.87283e-19)
(-22.6267 89.3699 7.48312e-19)
(-18.199 85.6008 3.7325e-19)
(-12.3455 84.1453 7.47975e-19)
(-7.85997 84.3477 1.46141e-21)
(-5.73723 83.7242 -1.49389e-18)
(-4.07355 82.6848 3.69917e-19)
(-1.72593 81.5012 1.49267e-18)
(0.704776 80.0383 3.76901e-19)
(2.30045 78.7802 -7.41644e-19)
(3.45759 78.013 1.48325e-18)
(3.83397 77.4783 -4.46278e-18)
(2.98188 77.0477 -5.98632e-18)
(2.27337 76.8136 3.01998e-18)
(2.26023 75.9344 -6.05098e-18)
(3.38595 74.8775 0)
(4.59641 73.4824 -1.85563e-17)
(5.60042 71.2765 3.73121e-17)
(6.48464 68.8582 0)
(7.07085 67.7423 0)
(6.7705 66.3416 0)
(4.30904 64.7094 9.18103e-18)
(1.07312 64.4498 2.58835e-20)
(-0.569023 64.8059 -1.08385e-19)
(-2.89414 77.718 -1.00184e-16)
(2.75843 92.9698 -2.35716e-16)
(3.00056 99.7674 2.61223e-20)
(-2.81658 27.8022 1.92826e-16)
(79.8347 87.8572 0)
(-0.246986 36.3355 -1.18772e-17)
(-0.90715 38.0187 0)
(-0.230867 39.7585 0)
(0.508224 41.5734 6.10261e-18)
(0.881529 43.7271 -1.2143e-17)
(1.07575 45.2065 0)
(1.31691 46.583 6.02282e-18)
(2.18356 47.893 0)
(3.48043 49.1263 -1.49876e-18)
(5.19113 50.5734 1.51227e-18)
(6.15696 52.2222 -7.5313e-18)
(6.14041 53.8544 8.68636e-21)
(4.76588 55.2044 -2.99689e-18)
(1.94264 56.2909 5.98142e-18)
(-2.20236 56.2991 4.48509e-18)
(-5.74275 57.1874 -4.44599e-18)
(-6.17369 58.4135 0)
(-5.3354 59.8204 1.31578e-20)
(-3.81732 61.9875 -2.22959e-18)
(-1.69653 64.3985 0)
(-0.477299 66.2831 0)
(-0.260547 68.0604 7.40009e-19)
(-0.262853 70.112 2.22498e-18)
(0.52157 71.1656 -1.48096e-18)
(2.33029 71.5536 1.47816e-18)
(7.82242 71.8179 -2.96399e-18)
(14.2244 74.6825 -7.43539e-19)
(18.6678 79.0999 -5.95109e-18)
(20.5801 83.3929 2.97848e-18)
(20.1561 87.0114 0)
(18.673 89.7994 -5.94055e-18)
(16.9604 92.3689 -2.96069e-18)
(15.8923 94.789 0)
(15.581 97.3832 2.96296e-18)
(15.9874 99.9939 1.05201e-20)
(16.8974 103.138 4.4239e-18)
(18.3143 106.321 4.41306e-18)
(19.8248 110.42 0)
(21.7359 114.212 -1.46336e-18)
(3.74263 95.171 -2.1915e-16)
(3.56373 99.8058 -4.46433e-16)
(5.80329 61.8516 6.76726e-17)
(0.351486 88.8801 -9.43602e-17)
(0.79674 82.1749 4.0727e-16)
(-0.721453 84.3956 1.40609e-20)
(-28.5252 107.622 7.47937e-19)
(-26.6017 104.544 3.73598e-18)
(-25.4425 101.791 -2.98962e-18)
(-24.5256 99.7781 0)
(-24.2063 97.3799 0)
(-24.2404 95.0937 0)
(-24.9647 92.5358 0)
(-25.9181 90.0736 7.49972e-19)
(-26.7201 88.0042 -3.73749e-19)
(-27.3648 85.9208 1.8758e-19)
(-26.533 82.5542 -1.12586e-18)
(-22.9909 76.5266 7.44203e-19)
(-19.9461 73.5245 3.69437e-19)
(-18.3255 72.3661 -5.57232e-19)
(-18.9791 71.919 0)
(-19.9814 71.1425 -2.01823e-21)
(-20.5502 69.9287 -3.70145e-19)
(-20.3974 69.0958 3.75536e-19)
(-19.249 69.177 7.56492e-19)
(-16.8938 70.8949 -8.52254e-19)
(-15.0222 72.5024 8.43239e-19)
(-13.7989 71.8748 -2.25866e-18)
(-13.8264 68.5787 -4.5769e-18)
(-14.9365 65.4401 3.02822e-18)
(-15.7373 64.0609 0)
(-16.4103 63.2374 -2.94349e-20)
(-16.8076 62.9672 -1.85314e-17)
(-16.1522 63.289 1.54468e-17)
(-15.0248 65.3815 -3.12474e-18)
(-12.8823 67.3251 0)
(-10.5308 67.8516 -3.05974e-18)
(-9.56527 65.9863 4.19223e-17)
(-8.8953 63.3384 -2.32197e-17)
(-1.73145 65.3842 9.47278e-17)
(2.15062 91.4232 4.84065e-16)
(2.33094 98.5064 -2.76198e-20)
(23.6367 119.319 -3.60926e-19)
(19.7025 127.062 2.20048e-18)
(15.56 135.133 3.65137e-19)
(11.8534 143.152 0)
(8.13248 150.508 -7.33627e-19)
(4.55566 156.427 7.34014e-19)
(0.980973 160.245 -1.10411e-18)
(-2.53182 161.567 -2.56684e-18)
(-6.03548 160.417 2.94273e-18)
(-9.46439 157.033 0)
(-12.8644 151.686 -1.48127e-18)
(-16.2283 144.641 4.44423e-18)
(-19.6049 136.504 -2.96404e-18)
(-23.0996 128.115 -1.48889e-18)
(-26.5574 119.976 2.2321e-18)
(-30.6267 112.351 -2.9764e-18)
(2.48058 90.6084 4.57124e-16)
(-0.137354 57.203 -1.85121e-16)
(1.52199 47.3663 1.88963e-16)
(2.91425 39.1609 3.79627e-16)
(5.06851 33.4503 1.79572e-16)
(2.80455 96.3882 -4.80806e-20)
(1.66869 89.9044 1.39132e-16)
(33.2139 26.1476 0)
(-7.46273 20.9139 0)
(12.4287 38.6118 0)
(13.4028 38.3001 3.04572e-18)
(14.9739 38.153 -6.07236e-18)
(15.4156 38.6269 3.73135e-21)
(15.3518 39.8778 1.82848e-17)
(15.4216 40.7138 -1.21551e-17)
(15.9538 41.1615 -3.60865e-20)
(16.5841 41.3378 6.00788e-18)
(17.3195 41.9076 -1.05053e-17)
(17.9801 43.3513 1.51248e-18)
(17.7504 46.0546 6.02396e-18)
(16.8113 49.1446 -1.51687e-18)
(15.4279 52.6352 1.49072e-18)
(13.3745 57.5269 -4.5241e-18)
(12.8243 61.4452 1.51208e-18)
(14.5843 61.042 4.49315e-18)
(16.3232 58.3704 -2.98925e-18)
(18.6817 55.0946 3.02221e-18)
(20.0022 55.0463 1.13526e-18)
(21.0689 56.3711 2.60758e-18)
(21.4123 58.4997 -3.37992e-18)
(20.9499 58.9186 2.23128e-18)
(19.401 58.3844 -4.09311e-18)
(16.452 55.9687 -2.98486e-18)
(15.3524 55.2375 2.97493e-18)
(17.4603 57.968 1.48593e-18)
(21.6834 65.855 -1.4938e-18)
(24.323 73.3363 0)
(24.5515 77.6506 -2.98567e-18)
(23.6485 80.1778 1.4878e-18)
(22.5784 82.4749 -2.96829e-18)
(21.301 85.3718 -4.45299e-18)
(20.4128 88.1534 -2.96057e-18)
(20.0004 90.5954 -5.90845e-18)
(20.2948 92.8435 1.47211e-18)
(21.2071 95.4497 -1.47754e-18)
(22.6341 98.3764 -2.94712e-18)
(24.228 102.358 0)
(26.343 106.431 0)
(28.5483 111.86 0)
(6.57181 65.0237 0)
(-2.25756 77.5828 -8.8416e-20)
(0.868527 89.345 5.14725e-16)
(3.67345 91.9034 2.17385e-16)
(3.31866 100.607 2.20611e-16)
(3.89955 97.9772 4.39969e-16)
(2.50488 93.6898 -2.36474e-16)
(-0.394928 65.6969 -5.7701e-17)
(-1.0892 68.0144 0)
(2.21378 94.2575 -2.69558e-16)
(-0.178625 85.0137 -1.09776e-16)
(-6.81338 60.3584 -4.19361e-17)
(2.97884 97.9901 -7.0085e-16)
(0.888531 88.2351 2.11503e-16)
(7.73567 24.8489 1.90934e-16)
(-12.5716 78.7117 -3.10828e-17)
(-34.834 106.058 -1.49056e-18)
(-31.8044 100.109 -3.73656e-19)
(-28.7016 95.6402 -1.1191e-18)
(-26.3522 92.144 -1.33572e-21)
(-24.6934 90.636 0)
(-23.8229 89.1408 0)
(-23.8694 87.4948 0)
(-25.0637 85.3031 -1.86945e-19)
(-26.5228 82.5634 -2.33616e-19)
(-27.0139 80.7849 2.31712e-19)
(-27.7556 80.0334 -1.86913e-19)
(-27.6832 79.1719 4.68086e-19)
(-24.0912 76.4371 -5.61486e-19)
(-13.5545 73.6849 0)
(-2.17143 74.1381 0)
(1.19125 73.7849 0)
(2.46185 72.5889 0)
(4.71699 70.0012 0)
(8.28469 66.98 0)
(10.9454 65.0589 -1.81438e-19)
(12.6996 63.8064 7.35943e-19)
(11.0731 63.0398 0)
(4.91684 63.324 -1.84552e-18)
(2.54433 63.0389 3.33698e-18)
(2.71112 62.6031 2.98074e-18)
(7.40753 61.7742 0)
(9.9026 59.6352 9.0793e-18)
(11.7819 55.8832 -9.0933e-18)
(13.4974 53.2195 -2.99883e-18)
(15.5596 50.8986 6.074e-18)
(14.1853 47.3174 -9.15778e-18)
(9.12982 45.4482 4.58009e-18)
(2.57985 44.5338 -1.18197e-17)
(-0.643745 43.0088 2.92566e-18)
(-1.04946 40.3196 9.0011e-17)
(2.11582 89.6657 2.57082e-16)
(2.00716 62.61 3.45099e-16)
(1.4368 76.6348 1.67359e-16)
(31.2065 116.961 0)
(25.9786 123.729 2.47589e-21)
(21.5831 131.133 -7.36059e-19)
(17.121 139.064 -3.67743e-19)
(13.0893 147.016 -9.1706e-20)
(9.08399 154.38 9.17339e-20)
(5.23086 160.322 0)
(1.42419 164.149 0)
(-2.29782 165.454 1.10319e-18)
(-6.01534 164.267 -2.94041e-18)
(-9.67286 160.804 3.67955e-18)
(-13.3433 155.317 0)
(-17.0305 148.182 -2.95519e-18)
(-20.7783 140.056 2.95876e-18)
(-24.6959 131.766 7.38303e-19)
(-28.7278 123.94 7.44043e-19)
(-33.4562 117.121 0)
(-38.3902 111.854 0)
(3.1931 97.0159 0)
(-3.29832 45.6036 1.77426e-16)
(-2.35027 35.344 0)
(-1.54473 27.3073 -3.7097e-16)
(0.819547 23.2729 1.86168e-16)
(7.7774 20.9319 3.39492e-16)
(54.8265 70.0282 -5.45066e-17)
(2.35523 102.276 2.06022e-16)
(0.438881 29.5862 6.39039e-18)
(-7.24507 31.4365 -4.92442e-17)
(-7.5507 34.1086 2.1447e-17)
(-6.09928 35.1618 -2.43713e-17)
(-4.44764 36.3527 -1.06748e-17)
(-3.84453 37.7579 1.51711e-17)
(-4.50993 38.1629 3.07301e-18)
(-5.26798 38.3493 -1.50155e-17)
(-4.40104 38.8759 8.96947e-18)
(-1.95539 39.769 0)
(1.75502 41.0619 -7.49663e-18)
(3.58244 42.2591 4.51868e-18)
(4.66904 42.7783 7.49572e-18)
(5.55171 42.9447 1.48207e-18)
(3.4411 43.8659 -5.95063e-18)
(-4.7572 43.7682 -2.96234e-18)
(-14.6572 43.8665 0)
(-16.3602 46.0796 0)
(-14.3918 48.4444 -7.34418e-19)
(-10.8804 50.9384 -3.68176e-19)
(-8.10024 53.619 3.73426e-18)
(-8.06961 56.5831 7.27637e-19)
(-9.54245 58.5798 -2.61909e-18)
(-11.4111 60.6216 2.84738e-21)
(-9.58056 62.0807 0)
(-0.330552 61.6953 0)
(16.4688 63.7224 -2.98833e-18)
(25.602 68.4664 4.49944e-18)
(26.4507 71.8433 -1.48625e-18)
(24.3364 72.6124 1.85459e-21)
(21.9199 73.4171 1.49013e-18)
(20.6657 75.252 1.48405e-18)
(18.636 77.9393 8.87415e-18)
(17.1569 80.3981 0)
(17.1873 82.717 4.42683e-18)
(18.4742 84.7414 -4.42537e-18)
(21.0791 86.4603 2.94174e-18)
(24.4395 89.6014 -2.95474e-18)
(27.2588 94.3565 2.95135e-18)
(30.1951 99.4505 0)
(33.0396 105.684 0)
(36.0615 111.453 -1.46613e-18)
(2.322 88.694 4.47585e-16)
(-2.64519 66.8617 -9.65698e-17)
(-2.7062 79.6432 -1.76719e-16)
(3.00479 87.8523 4.33698e-16)
(3.29185 88.5819 -1.24779e-20)
(3.61907 89.5566 4.33957e-16)
(-1.31133 78.1438 1.06197e-16)
(2.9631 100.835 -4.65914e-16)
(4.01668 94.4756 0)
(3.74813 100.602 0)
(4.1706 73.8538 -3.37315e-17)
(5.48009 74.0228 -2.13288e-16)
(10.8204 118.357 1.45386e-17)
(1.64268 94.187 -4.26952e-16)
(-10.562 40.284 -4.87545e-17)
(1.73039 88.1285 -2.86378e-16)
(5.93768 61.6282 0)
(7.60847 65.4707 -3.00873e-17)
(-17.4814 45.7103 0)
(-19.8251 49.9722 1.53848e-18)
(-19.0958 55.685 3.0651e-18)
(-19.802 60.3471 1.15186e-18)
(-23.4044 60.0754 1.94839e-19)
(-27.0365 57.2024 0)
(-30.1482 51.8587 3.91181e-18)
(-30.7251 47.4626 -3.91376e-18)
(-29.3068 44.7621 1.51219e-18)
(-26.7644 43.8163 -3.0024e-18)
(-23.9182 46.2439 7.29436e-19)
(-21.8346 52.6256 0)
(-19.4817 64.1448 1.52661e-18)
(-21.9563 71.6667 -7.69962e-19)
(-28.2978 70.2745 7.48263e-19)
(-34.2225 63.9111 -1.30919e-18)
(-36.506 58.6616 1.52812e-18)
(-36.7984 56.7653 3.61783e-22)
(-35.2797 55.8521 -7.9226e-19)
(-30.9005 52.868 3.74451e-19)
(-26.8813 51.774 -4.20439e-19)
(-29.7164 56.0706 0)
(-33.8447 65.9401 1.87629e-19)
(-33.9554 71.9166 -9.36797e-20)
(-33.3826 74.2496 -3.73134e-19)
(-34.5994 75.2681 3.2314e-19)
(-35.4852 77.454 4.65393e-20)
(-34.0855 80.0619 -1.87491e-19)
(-32.0524 81.1004 0)
(-30.3674 81.1664 0)
(-29.8176 82.3349 -7.4449e-19)
(-30.9463 84.6864 4.09946e-18)
(-33.7254 89.3296 -7.47917e-19)
(-37.5058 95.2857 0)
(-40.9195 101.549 2.98177e-18)
(-44.5328 107.157 -5.15042e-21)
(7.49397 68.0555 1.60961e-16)
(38.7689 118.253 1.47642e-18)
(33.6744 123.788 0)
(28.1787 130.226 -3.65709e-19)
(23.3742 137.366 3.68634e-19)
(18.632 145.063 9.16025e-19)
(14.3154 152.841 -7.3369e-19)
(10.0611 160.072 1.82714e-19)
(5.96229 165.941 3.65548e-19)
(1.90196 169.753 2.57111e-18)
(-2.08135 171.081 -3.66994e-18)
(-6.04338 169.902 -2.93978e-18)
(-9.95123 166.445 2.93768e-18)
(-13.89 160.992 -3.66994e-19)
(-17.8657 153.905 7.34969e-19)
(-21.9372 145.862 -2.95668e-18)
(-26.2421 137.693 -7.4398e-19)
(-30.8147 130.154 2.96148e-18)
(-36.1083 123.886 0)
(-41.4276 118.816 1.47997e-18)
(-47.1465 112.865 -7.41514e-19)
(1.99627 87.4663 2.34962e-16)
(-3.69668 58.7262 -8.44035e-17)
(2.80339 86.7121 -2.15503e-16)
(-1.4704 62.6278 0)
(-0.399682 61.3321 0)
(4.47579 58.8572 -5.55264e-17)
(4.18895 57.5947 -1.39476e-17)
(13.2442 54.9246 -1.73862e-17)
(14.1087 60.4072 -4.29226e-17)
(16.4132 66.6245 5.97136e-17)
(16.4085 71.9276 3.26074e-17)
(-0.731546 33.1068 0)
(1.28164 72.3772 -3.18114e-17)
(5.27922 66.7458 -3.83973e-19)
(-2.27097 71.7659 1.99412e-16)
(9.01776 67.3705 -1.81504e-16)
(3.25901 86.6913 -2.17026e-16)
(3.42876 87.7384 0)
(3.6719 88.4651 0)
(-0.494395 79.3685 2.22006e-16)
(2.35803 86.9326 4.37426e-16)
(-12.9648 73.2388 -4.31997e-17)
(5.75966 49.2665 1.78263e-16)
(10.605 38.1749 -1.84489e-16)
(12.2426 28.4066 0)
(13.9215 22.1468 -3.92981e-16)
(17.6435 19.2401 1.96683e-16)
(7.60347 22.2672 -2.64941e-16)
(11.0215 21.2094 -1.63275e-16)
(25.8915 41.2348 5.13949e-17)
(23.3801 47.056 -5.75355e-17)
(24.5297 45.893 2.50544e-17)
(26.1158 41.3368 -2.48154e-17)
(27.1219 34.5157 0)
(26.5209 32.4905 -1.55524e-18)
(25.1227 33.6085 -2.31797e-18)
(24.43 36.1982 9.15629e-18)
(25.5918 36.1536 3.06516e-18)
(28.0459 34.3299 -1.51855e-17)
(30.8743 32.2018 6.0385e-18)
(31.8894 31.9013 7.53895e-18)
(30.7323 31.7633 -6.00189e-18)
(27.1078 31.5549 3.7659e-18)
(25.1057 34.4813 -3.75388e-18)
(22.5682 43.41 -1.47607e-18)
(19.33 55.9392 4.54479e-18)
(22.3418 61.8376 7.71435e-19)
(26.1875 59.1423 3.00222e-18)
(32.8563 54.6892 -3.01525e-18)
(37.3539 52.6778 0)
(39.0511 50.3777 -7.78824e-19)
(38.8133 47.3133 -3.86176e-19)
(36.8417 42.8293 -3.78168e-18)
(31.8569 35.2419 3.38779e-18)
(23.9374 29.9977 -3.84556e-19)
(24.8324 36.115 3.00251e-18)
(32.0575 50.1116 -5.60802e-18)
(35.0842 60.2448 2.99544e-18)
(33.3539 66.8136 1.49771e-18)
(32.7336 68.3855 7.48853e-19)
(33.6994 68.5138 -1.4481e-18)
(34.1653 69.8964 4.42266e-18)
(32.7246 71.5582 -4.41936e-18)
(30.6404 72.3124 -1.49595e-18)
(28.4272 72.2993 -4.44879e-18)
(27.4033 73.9213 5.90899e-18)
(28.0754 76.9462 -4.42896e-18)
(30.3514 81.9976 2.95171e-18)
(33.2661 88.0626 -5.92253e-18)
(36.2316 94.2262 0)
(38.9404 100.37 2.94303e-18)
(41.8026 105.72 -1.49107e-18)
(44.3441 111.532 -1.48046e-18)
(3.95124 82.3017 -4.87915e-16)
(3.75238 76.1538 2.26767e-16)
(2.39725 68.6113 -2.26961e-16)
(15.9141 92.9742 1.01345e-16)
(2.72006 59.8591 -2.35635e-16)
(-1.97851 69.8088 0)
(36.368 109.402 -5.39587e-17)
(2.5025 57.7396 -2.50497e-16)
(3.96941 74.9558 1.488e-16)
(4.26529 97.8177 6.36124e-16)
(3.19456 101.899 -4.26828e-16)
(3.96506 90.9165 -2.15517e-16)
(3.77968 81.6645 0)
(3.58549 86.9526 -2.22652e-16)
(3.56718 84.9306 2.20095e-16)
(8.20876 69.4732 -9.44549e-17)