/*--------------------------------*- C++ -*----------------------------------*\
| =========                 |                                                 |
| \\      /  F ield         | OpenFOAM: The Open Source CFD Toolbox           |
|  \\    /   O peration     | Version:  2212                                  |
|   \\  /    A nd           | Website:  www.openfoam.com                      |
|    \\/     M anipulation  |                                                 |
\*---------------------------------------------------------------------------*/
FoamFile
{
    version     2.0;
    format      ascii;
    arch        "LSB;label=32;scalar=64";
    class       volScalarField;
    location    "0.0275";
    object      epsilon;
}
// * * * * * * * * * * * * * * * * * * * * * * * * * * * * * * * * * * * * * //

dimensions      [0 2 -3 0 0 0 0];

internalField   nonuniform List<scalar> 
7700
(
3.8308e+11
1.59512e+11
7.36861e+10
3.63381e+10
1.89796e+10
1.04316e+10
5.99336e+09
3.5787e+09
2.21026e+09
1.40637e+09
9.18858e+08
6.14728e+08
4.2013e+08
2.92753e+08
2.07651e+08
1.49734e+08
1.09658e+08
8.15121e+07
6.14841e+07
4.70743e+07
3.66179e+07
2.89921e+07
2.34334e+07
1.94199e+07
1.6597e+07
1.4728e+07
1.36632e+07
1.33199e+07
1.36722e+07
1.4747e+07
1.66271e+07
1.94627e+07
2.34911e+07
2.90675e+07
3.67147e+07
4.71975e+07
6.16402e+07
8.17098e+07
1.09909e+08
1.50054e+08
2.08059e+08
2.93279e+08
4.2081e+08
6.1561e+08
9.19998e+08
1.40781e+09
2.21203e+09
3.5807e+09
5.9951e+09
1.04316e+10
1.89737e+10
3.63178e+10
7.36245e+10
1.59325e+11
3.82559e+11
3.86994e+11
1.60477e+11
7.38876e+10
3.63583e+10
1.89717e+10
1.0424e+10
5.98828e+09
3.57549e+09
2.20819e+09
1.40502e+09
9.17957e+08
6.14109e+08
4.19696e+08
2.92443e+08
2.07427e+08
1.4957e+08
1.09536e+08
8.14199e+07
6.14135e+07
4.70193e+07
3.6574e+07
2.89564e+07
2.34033e+07
1.93936e+07
1.65728e+07
1.47047e+07
1.36393e+07
1.32942e+07
1.36431e+07
1.47133e+07
1.65872e+07
1.94145e+07
2.34317e+07
2.89934e+07
3.66208e+07
4.70771e+07
6.1484e+07
8.15046e+07
1.09637e+08
1.49687e+08
2.07561e+08
2.92592e+08
4.19852e+08
6.14256e+08
9.18061e+08
1.40501e+09
2.20794e+09
3.5747e+09
5.98637e+09
1.04198e+10
1.89626e+10
3.63349e+10
7.38197e+10
1.60302e+11
3.86639e+11
3.8844e+11
1.6059e+11
7.38267e+10
3.6306e+10
1.89278e+10
1.03911e+10
5.96565e+09
3.56041e+09
2.19822e+09
1.39837e+09
9.13474e+08
6.11041e+08
4.17564e+08
2.90938e+08
2.06349e+08
1.48786e+08
1.08958e+08
8.09878e+07
6.10858e+07
4.67669e+07
3.63765e+07
2.87987e+07
2.32745e+07
1.92853e+07
1.64785e+07
1.46188e+07
1.35572e+07
1.32114e+07
1.35551e+07
1.46157e+07
1.64748e+07
1.9281e+07
2.3269e+07
2.8791e+07
3.63645e+07
4.67476e+07
6.10544e+07
8.09371e+07
1.08877e+08
1.48657e+08
2.06146e+08
2.9062e+08
4.17065e+08
6.10258e+08
9.12238e+08
1.39641e+09
2.19507e+09
3.5553e+09
5.95723e+09
1.03771e+10
1.89039e+10
3.62645e+10
7.3746e+10
1.60404e+11
3.88265e+11
3.91253e+11
1.61031e+11
7.38419e+10
3.62547e+10
1.88711e+10
1.03469e+10
5.93414e+09
3.5387e+09
2.18338e+09
1.3882e+09
9.06452e+08
6.06141e+08
4.14104e+08
2.88465e+08
2.04559e+08
1.47474e+08
1.07984e+08
8.02553e+07
6.05277e+07
4.63358e+07
3.60382e+07
2.85284e+07
2.30538e+07
1.91001e+07
1.63178e+07
1.44736e+07
1.34196e+07
1.3074e+07
1.34108e+07
1.44573e+07
1.6294e+07
1.90678e+07
2.30107e+07
2.84712e+07
3.59614e+07
4.62315e+07
6.03844e+07
8.00562e+07
1.07705e+08
1.47077e+08
2.03991e+08
2.87644e+08
4.12904e+08
6.04369e+08
9.03805e+08
1.3842e+09
2.17727e+09
3.52926e+09
5.91946e+09
1.03241e+10
1.88364e+10
3.61895e+10
7.37192e+10
1.60915e+11
3.914e+11
3.97934e+11
1.62783e+11
7.4297e+10
3.6351e+10
1.8867e+10
1.03169e+10
5.90456e+09
3.51505e+09
2.16577e+09
1.37545e+09
8.97293e+08
5.99567e+08
4.09362e+08
2.85019e+08
2.02031e+08
1.45602e+08
1.06583e+08
7.9195e+07
5.97157e+07
4.57058e+07
3.55422e+07
2.81313e+07
2.2729e+07
1.88276e+07
1.60817e+07
1.42608e+07
1.32188e+07
1.28749e+07
1.3203e+07
1.42307e+07
1.60368e+07
1.87659e+07
2.26468e+07
2.80227e+07
3.53985e+07
4.55142e+07
5.9458e+07
7.88451e+07
1.06103e+08
1.44936e+08
2.01098e+08
2.83696e+08
4.07466e+08
5.96815e+08
8.93248e+08
1.36942e+09
2.15667e+09
3.50113e+09
5.88305e+09
1.02835e+10
1.8809e+10
3.62652e+10
7.42024e+10
1.62762e+11
3.98393e+11
4.08561e+11
1.65931e+11
7.52743e+10
3.6638e+10
1.89328e+10
1.03177e+10
5.88739e+09
3.4962e+09
2.14977e+09
1.36298e+09
8.87918e+08
5.92609e+08
4.04217e+08
2.81206e+08
1.99191e+08
1.43471e+08
1.04971e+08
7.79633e+07
5.87648e+07
4.4963e+07
3.49541e+07
2.76579e+07
2.23403e+07
1.85005e+07
1.57977e+07
1.40047e+07
1.29774e+07
1.2636e+07
1.29548e+07
1.39611e+07
1.57323e+07
1.84105e+07
2.22206e+07
2.75003e+07
3.47468e+07
4.4689e+07
5.83996e+07
7.74721e+07
1.04303e+08
1.42555e+08
1.97919e+08
2.79419e+08
4.01675e+08
5.88946e+08
8.82563e+08
1.35504e+09
2.13779e+09
3.47783e+09
5.85877e+09
1.02724e+10
1.88607e+10
3.65301e+10
7.51271e+10
1.65798e+11
4.08776e+11
4.19754e+11
1.69358e+11
7.63855e+10
3.69887e+10
1.90302e+10
1.03319e+10
5.87723e+09
3.48104e+09
2.13569e+09
1.35149e+09
8.79008e+08
5.85854e+08
3.99138e+08
2.77392e+08
1.96319e+08
1.41296e+08
1.03312e+08
7.66881e+07
5.77747e+07
4.41857e+07
3.43357e+07
2.71582e+07
2.19288e+07
1.81532e+07
1.54956e+07
1.3732e+07
1.27205e+07
1.2382e+07
1.26913e+07
1.36757e+07
1.54109e+07
1.80365e+07
2.17736e+07
2.69543e+07
3.40681e+07
4.38332e+07
5.73069e+07
7.60618e+07
1.02465e+08
1.40139e+08
1.94718e+08
2.75153e+08
3.95964e+08
5.81295e+08
8.72363e+08
1.34165e+09
2.1209e+09
3.45843e+09
5.84218e+09
1.02758e+10
1.89409e+10
3.68491e+10
7.61825e+10
1.69135e+11
4.1986e+11
4.30939e+11
1.72792e+11
7.75062e+10
3.73481e+10
1.91344e+10
1.03513e+10
5.87026e+09
3.46789e+09
2.12288e+09
1.3408e+09
8.70611e+08
5.79424e+08
3.94265e+08
2.73709e+08
1.93529e+08
1.39173e+08
1.01685e+08
7.54315e+07
5.67952e+07
4.34138e+07
3.37198e+07
2.66591e+07
2.15165e+07
1.78045e+07
1.51918e+07
1.34575e+07
1.24617e+07
1.21264e+07
1.24265e+07
1.33893e+07
1.50891e+07
1.76629e+07
2.13281e+07
2.64117e+07
3.33957e+07
4.29877e+07
5.62309e+07
7.46777e+07
1.00668e+08
1.37786e+08
1.91615e+08
2.71037e+08
3.90485e+08
5.74e+08
8.6271e+08
1.32911e+09
2.10529e+09
3.44098e+09
5.82843e+09
1.02845e+10
1.90268e+10
3.71761e+10
7.72489e+10
1.72488e+11
4.30966e+11
4.42167e+11
1.76218e+11
7.86182e+10
3.77034e+10
1.92375e+10
1.03708e+10
5.86397e+09
3.45537e+09
2.11057e+09
1.3305e+09
8.62489e+08
5.7319e+08
3.8953e+08
2.70121e+08
1.90805e+08
1.37095e+08
1.0009e+08
7.41972e+07
5.58311e+07
4.26528e+07
3.31114e+07
2.61654e+07
2.11082e+07
1.74587e+07
1.48902e+07
1.31849e+07
1.22046e+07
1.18726e+07
1.21638e+07
1.31055e+07
1.47706e+07
1.72937e+07
2.08886e+07
2.58772e+07
3.27342e+07
4.21572e+07
5.51755e+07
7.33222e+07
9.8911e+07
1.35489e+08
1.8859e+08
2.6703e+08
3.85159e+08
5.66919e+08
8.53352e+08
1.31696e+09
2.09018e+09
3.4241e+09
5.8152e+09
1.02929e+10
1.9111e+10
3.74984e+10
7.83056e+10
1.7583e+11
4.42111e+11
4.53463e+11
1.79641e+11
7.97214e+10
3.80534e+10
1.93385e+10
1.03898e+10
5.85773e+09
3.4431e+09
2.09856e+09
1.32046e+09
8.54588e+08
5.67129e+08
3.84928e+08
2.66634e+08
1.88157e+08
1.35075e+08
9.85383e+07
7.29954e+07
5.48919e+07
4.19108e+07
3.25178e+07
2.56831e+07
2.0709e+07
1.71205e+07
1.45951e+07
1.29181e+07
1.19531e+07
1.16243e+07
1.19069e+07
1.28282e+07
1.44596e+07
1.69334e+07
2.04601e+07
2.53564e+07
3.20901e+07
4.13492e+07
5.41493e+07
7.20049e+07
9.72038e+07
1.33257e+08
1.85652e+08
2.63137e+08
3.7998e+08
5.60026e+08
8.44229e+08
1.30509e+09
2.07537e+09
3.40745e+09
5.80192e+09
1.03005e+10
1.91927e+10
3.78154e+10
7.93529e+10
1.79169e+11
4.53324e+11
4.64838e+11
1.83064e+11
8.08166e+10
3.8398e+10
1.94367e+10
1.04077e+10
5.85112e+09
3.43082e+09
2.08666e+09
1.31056e+09
8.46828e+08
5.6119e+08
3.80426e+08
2.63227e+08
1.85572e+08
1.33103e+08
9.70238e+07
7.18227e+07
5.39753e+07
4.11866e+07
3.19383e+07
2.52124e+07
2.03194e+07
1.67904e+07
1.43071e+07
1.26577e+07
1.17076e+07
1.13821e+07
1.16564e+07
1.25579e+07
1.41565e+07
1.65825e+07
2.00427e+07
2.48493e+07
3.14631e+07
4.05625e+07
5.31501e+07
7.07221e+07
9.55407e+07
1.31082e+08
1.82785e+08
2.59334e+08
3.74912e+08
5.53266e+08
8.35255e+08
1.29337e+09
2.06066e+09
3.39073e+09
5.78814e+09
1.03065e+10
1.92709e+10
3.81256e+10
8.0391e+10
1.82508e+11
4.64626e+11
4.76297e+11
1.8649e+11
8.19047e+10
3.87374e+10
1.95324e+10
1.04245e+10
5.84414e+09
3.41849e+09
2.07485e+09
1.3008e+09
8.39196e+08
5.55365e+08
3.76019e+08
2.59897e+08
1.83048e+08
1.31179e+08
9.55477e+07
7.06804e+07
5.30829e+07
4.04818e+07
3.13745e+07
2.47545e+07
1.99405e+07
1.64694e+07
1.40271e+07
1.24046e+07
1.14692e+07
1.11468e+07
1.14132e+07
1.22955e+07
1.38624e+07
1.62419e+07
1.96376e+07
2.4357e+07
3.08542e+07
3.97984e+07
5.21793e+07
6.94749e+07
9.39228e+07
1.28964e+08
1.79991e+08
2.55623e+08
3.69958e+08
5.46639e+08
8.26428e+08
1.28179e+09
2.04602e+09
3.37391e+09
5.77387e+09
1.03112e+10
1.93459e+10
3.84299e+10
8.14204e+10
1.85846e+11
4.76009e+11
4.87848e+11
1.8992e+11
8.29861e+10
3.90718e+10
1.96253e+10
1.044e+10
5.83671e+09
3.40605e+09
2.06308e+09
1.29113e+09
8.31668e+08
5.49635e+08
3.71693e+08
2.56633e+08
1.80578e+08
1.293e+08
9.41063e+07
6.95659e+07
5.22127e+07
3.97949e+07
3.08254e+07
2.43087e+07
1.95718e+07
1.61572e+07
1.3755e+07
1.21588e+07
1.12377e+07
1.09185e+07
1.11772e+07
1.20409e+07
1.3577e+07
1.59112e+07
1.92442e+07
2.38787e+07
3.02624e+07
3.90553e+07
5.12345e+07
6.82605e+07
9.23463e+07
1.26899e+08
1.77263e+08
2.51995e+08
3.65108e+08
5.40141e+08
8.17748e+08
1.27035e+09
2.03149e+09
3.35706e+09
5.7592e+09
1.03146e+10
1.9418e+10
3.87282e+10
8.24407e+10
1.89181e+11
4.87465e+11
4.99482e+11
1.93351e+11
8.40603e+10
3.94008e+10
1.97154e+10
1.04544e+10
5.8288e+09
3.39351e+09
2.05135e+09
1.28155e+09
8.24239e+08
5.43998e+08
3.67446e+08
2.53435e+08
1.78161e+08
1.27462e+08
9.26989e+07
6.84785e+07
5.13643e+07
3.91257e+07
3.02908e+07
2.3875e+07
1.92133e+07
1.58539e+07
1.34907e+07
1.19202e+07
1.1013e+07
1.06971e+07
1.09484e+07
1.1794e+07
1.33001e+07
1.55904e+07
1.88624e+07
2.34141e+07
2.96872e+07
3.83327e+07
5.03152e+07
6.7078e+07
9.08097e+07
1.24884e+08
1.74599e+08
2.48447e+08
3.60358e+08
5.33766e+08
8.09218e+08
1.25909e+09
2.01712e+09
3.34027e+09
5.74429e+09
1.03172e+10
1.94879e+10
3.9022e+10
8.34513e+10
1.9251e+11
4.98985e+11
5.11198e+11
1.96783e+11
8.51269e+10
3.97242e+10
1.98022e+10
1.04673e+10
5.82036e+09
3.38083e+09
2.03964e+09
1.27204e+09
8.16902e+08
5.38445e+08
3.63273e+08
2.50298e+08
1.75793e+08
1.25664e+08
9.13229e+07
6.74163e+07
5.05363e+07
3.84731e+07
2.97697e+07
2.34526e+07
1.88645e+07
1.55589e+07
1.3234e+07
1.16885e+07
1.07951e+07
1.04823e+07
1.07264e+07
1.15545e+07
1.30314e+07
1.52789e+07
1.84913e+07
2.29625e+07
2.91277e+07
3.76292e+07
4.94196e+07
6.5925e+07
8.93103e+07
1.22916e+08
1.71994e+08
2.44974e+08
3.55701e+08
5.27504e+08
8.00818e+08
1.24796e+09
2.00286e+09
3.32348e+09
5.72908e+09
1.03186e+10
1.95547e+10
3.93088e+10
8.44524e+10
1.95835e+11
5.1057e+11
5.22994e+11
2.00216e+11
8.6186e+10
4.00428e+10
1.9887e+10
1.04793e+10
5.81159e+09
3.36808e+09
2.02799e+09
1.26263e+09
8.09659e+08
5.32978e+08
3.59171e+08
2.47219e+08
1.73473e+08
1.23904e+08
8.9977e+07
6.63782e+07
4.97277e+07
3.78362e+07
2.92616e+07
2.30411e+07
1.85248e+07
1.5272e+07
1.29844e+07
1.14636e+07
1.05836e+07
1.0274e+07
1.05112e+07
1.13222e+07
1.27706e+07
1.49763e+07
1.81307e+07
2.25232e+07
2.8583e+07
3.69439e+07
4.85464e+07
6.48e+07
8.78461e+07
1.20993e+08
1.69446e+08
2.41571e+08
3.51131e+08
5.21348e+08
7.92543e+08
1.23697e+09
1.98872e+09
3.30673e+09
5.71359e+09
1.03191e+10
1.96195e+10
3.9591e+10
8.54452e+10
1.99155e+11
5.22217e+11
5.34866e+11
2.03649e+11
8.72374e+10
4.03564e+10
1.99694e+10
1.04903e+10
5.80246e+09
3.35526e+09
2.01637e+09
1.2533e+09
8.02504e+08
5.2759e+08
3.55136e+08
2.44195e+08
1.71196e+08
1.22178e+08
8.86591e+07
6.53625e+07
4.89371e+07
3.7214e+07
2.87657e+07
2.26398e+07
1.8194e+07
1.49929e+07
1.27419e+07
1.12451e+07
1.03783e+07
1.00718e+07
1.03023e+07
1.10967e+07
1.25174e+07
1.46823e+07
1.77799e+07
2.20955e+07
2.80522e+07
3.62756e+07
4.76941e+07
6.3701e+07
8.64145e+07
1.1911e+08
1.66948e+08
2.38233e+08
3.46641e+08
5.15287e+08
7.84374e+08
1.22608e+09
1.97464e+09
3.2899e+09
5.69765e+09
1.03182e+10
1.96807e+10
3.98659e+10
8.64263e+10
2.02467e+11
5.3392e+11
5.46806e+11
2.07079e+11
8.82804e+10
4.06646e+10
2.00492e+10
1.05001e+10
5.79291e+09
3.3423e+09
2.00479e+09
1.24405e+09
7.95432e+08
5.22277e+08
3.51165e+08
2.41223e+08
1.68961e+08
1.20486e+08
8.73675e+07
6.43678e+07
4.81636e+07
3.66057e+07
2.82813e+07
2.22481e+07
1.78715e+07
1.4721e+07
1.2506e+07
1.10329e+07
1.01791e+07
9.87575e+06
1.00997e+07
1.08778e+07
1.22714e+07
1.43964e+07
1.74385e+07
2.16788e+07
2.75346e+07
3.56232e+07
4.68615e+07
6.26264e+07
8.50134e+07
1.17266e+08
1.64499e+08
2.34955e+08
3.42225e+08
5.09315e+08
7.76304e+08
1.21528e+09
1.9606e+09
3.27296e+09
5.6813e+09
1.03161e+10
1.97392e+10
4.0135e+10
8.73981e+10
2.0577e+11
5.45676e+11
5.58801e+11
2.10503e+11
8.93138e+10
4.09669e+10
2.01262e+10
1.05088e+10
5.78297e+09
3.32931e+09
1.99325e+09
1.23488e+09
7.8844e+08
5.17036e+08
3.47254e+08
2.38299e+08
1.66764e+08
1.18824e+08
8.61003e+07
6.33927e+07
4.74058e+07
3.60103e+07
2.78076e+07
2.18657e+07
1.75569e+07
1.44563e+07
1.22766e+07
1.08268e+07
9.98584e+06
9.68562e+06
9.90326e+06
1.06655e+07
1.20325e+07
1.41184e+07
1.71061e+07
2.12726e+07
2.70295e+07
3.49858e+07
4.60473e+07
6.15747e+07
8.3641e+07
1.15458e+08
1.62096e+08
2.31734e+08
3.3788e+08
5.03429e+08
7.68331e+08
1.20458e+09
1.94663e+09
3.25597e+09
5.66461e+09
1.03131e+10
1.9795e+10
4.03984e+10
8.83597e+10
2.09064e+11
5.57478e+11
5.70835e+11
2.13916e+11
9.03355e+10
4.12618e+10
2.02e+10
1.05162e+10
5.77255e+09
3.31619e+09
1.98173e+09
1.22577e+09
7.81522e+08
5.11862e+08
3.43399e+08
2.35422e+08
1.64604e+08
1.17192e+08
8.48562e+07
6.24361e+07
4.6663e+07
3.54273e+07
2.73443e+07
2.1492e+07
1.72501e+07
1.41985e+07
1.20536e+07
1.06268e+07
9.79851e+06
9.50145e+06
9.71295e+06
1.04597e+07
1.18006e+07
1.38482e+07
1.67825e+07
2.08765e+07
2.65363e+07
3.43628e+07
4.52506e+07
6.05446e+07
8.22957e+07
1.13684e+08
1.59736e+08
2.28568e+08
3.33604e+08
4.97626e+08
7.60455e+08
1.19397e+09
1.93272e+09
3.23894e+09
5.64758e+09
1.0309e+10
1.98484e+10
4.06559e+10
8.93091e+10
2.12346e+11
5.69311e+11
5.82879e+11
2.1731e+11
9.13438e+10
4.15509e+10
2.02711e+10
1.05225e+10
5.76171e+09
3.30298e+09
1.97024e+09
1.21673e+09
7.74679e+08
5.06755e+08
3.396e+08
2.32588e+08
1.6248e+08
1.15587e+08
8.36339e+07
6.14969e+07
4.59344e+07
3.4856e+07
2.68909e+07
2.1127e+07
1.6951e+07
1.39477e+07
1.18372e+07
1.04331e+07
9.61729e+06
9.32341e+06
9.52894e+06
1.02604e+07
1.15758e+07
1.35857e+07
1.64675e+07
2.04903e+07
2.60546e+07
3.37535e+07
4.44705e+07
5.95351e+07
8.09761e+07
1.11943e+08
1.57417e+08
2.25455e+08
3.29394e+08
4.91904e+08
7.52673e+08
1.18347e+09
1.91888e+09
3.22185e+09
5.63014e+09
1.03037e+10
1.98985e+10
4.09062e+10
9.02438e+10
2.15605e+11
5.8113e+11
5.949e+11
2.20678e+11
9.23374e+10
4.18332e+10
2.03393e+10
1.05277e+10
5.75058e+09
3.28974e+09
1.95882e+09
1.20778e+09
7.67922e+08
5.0172e+08
3.35858e+08
2.29799e+08
1.60389e+08
1.14009e+08
8.24329e+07
6.05747e+07
4.52196e+07
3.42963e+07
2.64474e+07
2.07707e+07
1.66596e+07
1.37042e+07
1.16275e+07
1.02459e+07
9.44255e+06
9.1519e+06
9.3516e+06
1.00681e+07
1.13583e+07
1.33311e+07
1.61612e+07
2.0114e+07
2.55843e+07
3.31576e+07
4.37066e+07
5.85454e+07
7.96812e+07
1.10233e+08
1.55138e+08
2.22393e+08
3.25249e+08
4.86263e+08
7.44985e+08
1.17306e+09
1.9051e+09
3.20468e+09
5.61224e+09
1.02968e+10
1.99444e+10
4.11459e+10
9.11554e+10
2.18821e+11
5.92876e+11
6.06868e+11
2.24009e+11
9.33105e+10
4.21069e+10
2.04042e+10
1.05317e+10
5.7391e+09
3.27649e+09
1.94748e+09
1.19893e+09
7.61254e+08
4.96758e+08
3.32173e+08
2.27055e+08
1.58333e+08
1.12457e+08
8.12526e+07
5.96693e+07
4.45186e+07
3.37482e+07
2.6014e+07
2.04234e+07
1.63766e+07
1.34684e+07
1.14253e+07
1.0066e+07
9.27499e+06
8.98759e+06
9.18162e+06
9.88341e+06
1.11488e+07
1.30851e+07
1.58642e+07
1.97479e+07
2.51256e+07
3.25752e+07
4.29588e+07
5.75753e+07
7.84108e+07
1.08553e+08
1.52899e+08
2.19382e+08
3.21169e+08
4.80705e+08
7.37398e+08
1.16276e+09
1.89141e+09
3.1875e+09
5.594e+09
1.02887e+10
1.9987e+10
4.13772e+10
9.20469e+10
2.21992e+11
6.04557e+11
6.18739e+11
2.27287e+11
9.42588e+10
4.23705e+10
2.04653e+10
1.05344e+10
5.72729e+09
3.26322e+09
1.93623e+09
1.19019e+09
7.54678e+08
4.9187e+08
3.28546e+08
2.24354e+08
1.56311e+08
1.10932e+08
8.00935e+07
5.8781e+07
4.38319e+07
3.32124e+07
2.55915e+07
2.0086e+07
1.61027e+07
1.32413e+07
1.12316e+07
9.89436e+06
9.11572e+06
8.83162e+06
9.02011e+06
9.70741e+06
1.09484e+07
1.28485e+07
1.55774e+07
1.93929e+07
2.46793e+07
3.2007e+07
4.22277e+07
5.66255e+07
7.71654e+07
1.06906e+08
1.50701e+08
2.16424e+08
3.17158e+08
4.75235e+08
7.29921e+08
1.15258e+09
1.87783e+09
3.17035e+09
5.57549e+09
1.02795e+10
2.00263e+10
4.15995e+10
9.29157e+10
2.25111e+11
6.16124e+11
6.30325e+11
2.30465e+11
9.51747e+10
4.26224e+10
2.05222e+10
1.05358e+10
5.71509e+09
3.24993e+09
1.92506e+09
1.18155e+09
7.48197e+08
4.87059e+08
3.24979e+08
2.21701e+08
1.54325e+08
1.09435e+08
7.8957e+07
5.79113e+07
4.31611e+07
3.26904e+07
2.51815e+07
1.976e+07
1.58397e+07
1.30247e+07
1.10481e+07
9.73281e+06
8.96647e+06
8.68572e+06
8.8688e+06
9.5418e+06
1.07586e+07
1.2623e+07
1.53022e+07
1.90505e+07
2.42468e+07
3.14545e+07
4.15148e+07
5.56973e+07
7.59466e+07
1.05292e+08
1.48545e+08
2.13522e+08
3.13221e+08
4.69862e+08
7.22567e+08
1.14256e+09
1.86441e+09
3.15327e+09
5.55672e+09
1.02692e+10
2.00617e+10
4.18108e+10
9.37549e+10
2.28153e+11
6.27477e+11
6.41636e+11
2.33555e+11
9.6057e+10
4.28617e+10
2.05747e+10
1.05358e+10
5.70259e+09
3.23665e+09
1.91398e+09
1.17302e+09
7.41822e+08
4.82335e+08
3.2148e+08
2.19099e+08
1.52379e+08
1.07971e+08
7.78464e+07
5.70633e+07
4.25088e+07
3.2185e+07
2.47864e+07
1.94481e+07
1.55901e+07
1.2821e+07
1.08773e+07
9.58392e+06
8.82986e+06
8.5525e+06
8.7303e+06
9.38919e+06
1.05821e+07
1.24112e+07
1.50414e+07
1.87232e+07
2.38309e+07
3.09204e+07
4.08229e+07
5.47939e+07
7.4758e+07
1.03716e+08
1.46439e+08
2.10683e+08
3.09368e+08
4.646e+08
7.15359e+08
1.13272e+09
1.8512e+09
3.1363e+09
5.53774e+09
1.02575e+10
2.00929e+10
4.20095e+10
9.45581e+10
2.31093e+11
6.38522e+11
6.52523e+11
2.36514e+11
9.68938e+10
4.30853e+10
2.06219e+10
1.05341e+10
5.68968e+09
3.22343e+09
1.90307e+09
1.16467e+09
7.35584e+08
4.77718e+08
3.18063e+08
2.1656e+08
1.50483e+08
1.06545e+08
7.67679e+07
5.62423e+07
4.18801e+07
3.17006e+07
2.44108e+07
1.91545e+07
1.53579e+07
1.26343e+07
1.07232e+07
9.45157e+06
8.70975e+06
8.43583e+06
8.60847e+06
9.25343e+06
1.04227e+07
1.2217e+07
1.47988e+07
1.84152e+07
2.34356e+07
3.04089e+07
4.01567e+07
5.39205e+07
7.36054e+07
1.02184e+08
1.44389e+08
2.07919e+08
3.05613e+08
4.59467e+08
7.08319e+08
1.12308e+09
1.83821e+09
3.11948e+09
5.51852e+09
1.02444e+10
2.01188e+10
4.2192e+10
9.53135e+10
2.33892e+11
6.49113e+11
6.62807e+11
2.39293e+11
9.76713e+10
4.32891e+10
2.06628e+10
1.05306e+10
5.67646e+09
3.21033e+09
1.8924e+09
1.15653e+09
7.29522e+08
4.73237e+08
3.1475e+08
2.14102e+08
1.4865e+08
1.0517e+08
7.57316e+07
5.54572e+07
4.12829e+07
3.12445e+07
2.40613e+07
1.88854e+07
1.51494e+07
1.24706e+07
1.05916e+07
9.34147e+06
8.61179e+06
8.34133e+06
8.50894e+06
9.14021e+06
1.02863e+07
1.20463e+07
1.45805e+07
1.81327e+07
2.30675e+07
2.99272e+07
3.95237e+07
5.30856e+07
7.24987e+07
1.00709e+08
1.4241e+08
2.05247e+08
3.0198e+08
4.54496e+08
7.01491e+08
1.11371e+09
1.82551e+09
3.1029e+09
5.49911e+09
1.02296e+10
2.01386e+10
4.23545e+10
9.60071e+10
2.36499e+11
6.59045e+11
6.72224e+11
2.41822e+11
9.83699e+10
4.3468e+10
2.0696e+10
1.0525e+10
5.66293e+09
3.19742e+09
1.88202e+09
1.14865e+09
7.23681e+08
4.6893e+08
3.11574e+08
2.11752e+08
1.46903e+08
1.03866e+08
7.47539e+07
5.47225e+07
4.07299e+07
3.08284e+07
2.37485e+07
1.86508e+07
1.49737e+07
1.23386e+07
1.04909e+07
9.26191e+06
8.54416e+06
8.2771e+06
8.43982e+06
9.05777e+06
1.01812e+07
1.19077e+07
1.43955e+07
1.78852e+07
2.27368e+07
2.94862e+07
3.89363e+07
5.23027e+07
7.14534e+07
9.93086e+07
1.40525e+08
2.02696e+08
2.98506e+08
4.49739e+08
6.94946e+08
1.10471e+09
1.81324e+09
3.08668e+09
5.47959e+09
1.02129e+10
2.01508e+10
4.24921e+10
9.66207e+10
2.3885e+11
6.68068e+11
6.80467e+11
2.44023e+11
9.89681e+10
4.36165e+10
2.07205e+10
1.05172e+10
5.64915e+09
3.18481e+09
1.87203e+09
1.14112e+09
7.18139e+08
4.6487e+08
3.08596e+08
2.09559e+08
1.45283e+08
1.02665e+08
7.3863e+07
5.40617e+07
4.02417e+07
3.04703e+07
2.34888e+07
1.84656e+07
1.48448e+07
1.22515e+07
1.04334e+07
9.22485e+06
8.51848e+06
8.25459e+06
8.41256e+06
9.0178e+06
1.012e+07
1.18141e+07
1.42576e+07
1.76875e+07
2.24595e+07
2.91035e+07
3.84138e+07
5.15941e+07
7.04954e+07
9.80142e+07
1.38773e+08
2.00316e+08
2.95259e+08
4.45285e+08
6.88815e+08
1.09627e+09
1.80161e+09
3.07107e+09
5.46015e+09
1.01941e+10
2.01534e+10
4.25983e+10
9.71323e+10
2.40863e+11
6.75871e+11
6.87083e+11
2.45787e+11
9.94407e+10
4.37298e+10
2.07362e+10
1.05076e+10
5.63565e+09
3.17296e+09
1.8628e+09
1.13421e+09
7.131e+08
4.6122e+08
3.05938e+08
2.07617e+08
1.43861e+08
1.01625e+08
7.31034e+07
5.35115e+07
3.98491e+07
3.01976e+07
2.33065e+07
1.83499e+07
1.47831e+07
1.22288e+07
1.0439e+07
9.24738e+06
8.55047e+06
8.28888e+06
8.44196e+06
9.03475e+06
1.01157e+07
1.17818e+07
1.41859e+07
1.75607e+07
2.22586e+07
2.88053e+07
3.7986e+07
5.09939e+07
6.96652e+07
9.68748e+07
1.37215e+08
1.98187e+08
2.92344e+08
4.41284e+08
6.83307e+08
1.08864e+09
1.79102e+09
3.05665e+09
5.44162e+09
1.01744e+10
2.01481e+10
4.26719e+10
9.75313e+10
2.42491e+11
6.82252e+11
6.91561e+11
2.47041e+11
9.97897e+10
4.38193e+10
2.07532e+10
1.05051e+10
5.62839e+09
3.16548e+09
1.85643e+09
1.1292e+09
7.0922e+08
4.583e+08
3.03796e+08
2.06064e+08
1.42741e+08
1.00823e+08
7.25364e+07
5.31197e+07
3.95919e+07
3.005e+07
2.32422e+07
1.83494e+07
1.48203e+07
1.2295e+07
1.05259e+07
9.34869e+06
8.65954e+06
8.39961e+06
8.54848e+06
9.13102e+06
1.0195e+07
1.1834e+07
1.41998e+07
1.75273e+07
2.21647e+07
2.86299e+07
3.76946e+07
5.05488e+07
6.90175e+07
9.59556e+07
1.35932e+08
1.96414e+08
2.89909e+08
4.37954e+08
6.78711e+08
1.08222e+09
1.78214e+09
3.04459e+09
5.42599e+09
1.01568e+10
2.0139e+10
4.27152e+10
9.78037e+10
2.43629e+11
6.86639e+11
6.94271e+11
2.47936e+11
1.00089e+11
4.39194e+10
2.07883e+10
1.05175e+10
5.63254e+09
3.16637e+09
1.85588e+09
1.12801e+09
7.07868e+08
4.57016e+08
3.02688e+08
2.05182e+08
1.42093e+08
1.00393e+08
7.22936e+07
5.30239e+07
3.95983e+07
3.01141e+07
2.33488e+07
1.84893e+07
1.49897e+07
1.24847e+07
1.07288e+07
9.55964e+06
8.87425e+06
8.61442e+06
8.75996e+06
9.33561e+06
1.03882e+07
1.201e+07
1.43508e+07
1.76399e+07
2.22206e+07
2.86081e+07
3.75865e+07
5.0331e+07
6.86433e+07
9.5357e+07
1.35035e+08
1.95124e+08
2.88088e+08
4.35372e+08
6.75078e+08
1.07719e+09
1.77526e+09
3.03541e+09
5.41434e+09
1.01438e+10
2.01304e+10
4.27374e+10
9.79698e+10
2.44306e+11
6.88978e+11
6.96412e+11
2.48983e+11
1.00539e+11
4.41038e+10
2.08679e+10
1.05534e+10
5.64921e+09
3.1742e+09
1.85961e+09
1.12982e+09
7.08776e+08
4.57508e+08
3.03007e+08
2.05437e+08
1.42327e+08
1.00626e+08
7.2538e+07
5.32905e+07
3.98956e+07
3.04442e+07
2.37008e+07
1.88521e+07
1.53565e+07
1.2851e+07
1.10922e+07
9.91924e+06
9.23018e+06
8.96747e+06
9.11122e+06
9.68616e+06
1.07382e+07
1.23582e+07
1.4694e+07
1.79724e+07
2.25335e+07
2.88867e+07
3.77978e+07
5.04287e+07
6.85915e+07
9.51336e+07
1.34588e+08
1.94398e+08
2.8699e+08
4.33784e+08
6.72836e+08
1.07409e+09
1.77113e+09
3.03021e+09
5.40876e+09
1.01412e+10
2.01446e+10
4.28148e+10
9.82702e+10
2.45235e+11
6.9148e+11
7.01792e+11
2.51331e+11
1.01481e+11
4.44646e+10
2.10193e+10
1.06218e+10
5.68168e+09
3.19031e+09
1.868e+09
1.13448e+09
7.11569e+08
4.59347e+08
3.04348e+08
2.06529e+08
1.43306e+08
1.01543e+08
7.34095e+07
5.41176e+07
4.06764e+07
3.11798e+07
2.43923e+07
1.95014e+07
1.59668e+07
1.34266e+07
1.16385e+07
1.04427e+07
9.73808e+06
9.4676e+06
9.61173e+06
1.01955e+07
1.1264e+07
1.29072e+07
1.52714e+07
1.85816e+07
2.31762e+07
2.95622e+07
3.85041e+07
5.11663e+07
6.93484e+07
9.58759e+07
1.35268e+08
1.94909e+08
2.87272e+08
4.33876e+08
6.7298e+08
1.07496e+09
1.77433e+09
3.03953e+09
5.43307e+09
1.02013e+10
2.02901e+10
4.31826e+10
9.92759e+10
2.47781e+11
6.97419e+11
7.09517e+11
2.54587e+11
1.02742e+11
4.49213e+10
2.12035e+10
1.07038e+10
5.7209e+09
3.21059e+09
1.87949e+09
1.14167e+09
7.16544e+08
4.63086e+08
3.07339e+08
2.09016e+08
1.4542e+08
1.03371e+08
7.50071e+07
5.55236e+07
4.19194e+07
3.22827e+07
2.53746e+07
2.03802e+07
1.6758e+07
1.41452e+07
1.22994e+07
1.10606e+07
1.03278e+07
1.00442e+07
1.01904e+07
1.0792e+07
1.18936e+07
1.35846e+07
1.60112e+07
1.9398e+07
2.40838e+07
3.05765e+07
3.96422e+07
5.24486e+07
7.08004e+07
9.75343e+07
1.37198e+08
1.9725e+08
2.90235e+08
4.37817e+08
6.78563e+08
1.08352e+09
1.78863e+09
3.06544e+09
5.48349e+09
1.0306e+10
2.05224e+10
4.37462e+10
1.00802e+11
2.51731e+11
7.06137e+11
7.17614e+11
2.58411e+11
1.04172e+11
4.54308e+10
2.14116e+10
1.07995e+10
5.76966e+09
3.23819e+09
1.89675e+09
1.15339e+09
7.2502e+08
4.69504e+08
3.12361e+08
2.1304e+08
1.487e+08
1.06082e+08
7.72715e+07
5.74323e+07
4.35403e+07
3.36682e+07
2.65663e+07
2.14126e+07
1.766e+07
1.49426e+07
1.30156e+07
1.17176e+07
1.09467e+07
1.06458e+07
1.07954e+07
1.14219e+07
1.25697e+07
1.43285e+07
1.68451e+07
2.03459e+07
2.5172e+07
3.18355e+07
4.11089e+07
5.41694e+07
7.28361e+07
9.99688e+07
1.40152e+08
2.00903e+08
2.94851e+08
4.4381e+08
6.86617e+08
1.09484e+09
1.80548e+09
3.09247e+09
5.53095e+09
1.03981e+10
2.07201e+10
4.4227e+10
1.02166e+11
2.5554e+11
7.14137e+11
7.23158e+11
2.6171e+11
1.05311e+11
4.58363e+10
2.15928e+10
1.08937e+10
5.82435e+09
3.27292e+09
1.92026e+09
1.17001e+09
7.37147e+08
4.78576e+08
3.19289e+08
2.18425e+08
1.52953e+08
1.09486e+08
8.00309e+07
5.96922e+07
4.5408e+07
3.52242e+07
2.78726e+07
2.25182e+07
1.86051e+07
1.57612e+07
1.37375e+07
1.23698e+07
1.15547e+07
1.12341e+07
1.13882e+07
1.20444e+07
1.32472e+07
1.50871e+07
1.77131e+07
2.13543e+07
2.63568e+07
3.32399e+07
4.27869e+07
5.61907e+07
7.52941e+07
1.02992e+08
1.4392e+08
2.05672e+08
3.00993e+08
4.51872e+08
6.97428e+08
1.1097e+09
1.82653e+09
3.12351e+09
5.57955e+09
1.0481e+10
2.08771e+10
4.45718e+10
1.03129e+11
2.58442e+11
7.18969e+11
7.22845e+11
2.63261e+11
1.05938e+11
4.61269e+10
2.17588e+10
1.0994e+10
5.88885e+09
3.31633e+09
1.95021e+09
1.19112e+09
7.52298e+08
4.89657e+08
3.27544e+08
2.24686e+08
1.57781e+08
1.13267e+08
8.30317e+07
6.21023e+07
4.73634e+07
3.68251e+07
2.91942e+07
2.36188e+07
1.95314e+07
1.65516e+07
1.44251e+07
1.29841e+07
1.21229e+07
1.17821e+07
1.19417e+07
1.26299e+07
1.38919e+07
1.58197e+07
1.85648e+07
2.2361e+07
2.75607e+07
3.46931e+07
4.45558e+07
5.83633e+07
7.79895e+07
1.06376e+08
1.48229e+08
2.11247e+08
3.08332e+08
4.61714e+08
7.10881e+08
1.12844e+09
1.85311e+09
3.16194e+09
5.63648e+09
1.05691e+10
2.1022e+10
4.48205e+10
1.03644e+11
2.59645e+11
7.18191e+11
7.19534e+11
2.6344e+11
1.06118e+11
4.62719e+10
2.18681e+10
1.10827e+10
5.95694e+09
3.36646e+09
1.98597e+09
1.21657e+09
7.70521e+08
5.02881e+08
3.37299e+08
2.32004e+08
1.63362e+08
1.17588e+08
8.6423e+07
6.47956e+07
4.95243e+07
3.85743e+07
3.0622e+07
2.47943e+07
2.05094e+07
1.73769e+07
1.51355e+07
1.36131e+07
1.2701e+07
1.23384e+07
1.25046e+07
1.32291e+07
1.4558e+07
1.65855e+07
1.94666e+07
2.34408e+07
2.88691e+07
3.62931e+07
4.65287e+07
6.08171e+07
8.1072e+07
1.10294e+08
1.53277e+08
2.17852e+08
3.17122e+08
4.73616e+08
7.27272e+08
1.15133e+09
1.88532e+09
3.20697e+09
5.69745e+09
1.06481e+10
2.11198e+10
4.49535e+10
1.03806e+11
2.59738e+11
7.14652e+11
7.12891e+11
2.62556e+11
1.06204e+11
4.64639e+10
2.20232e+10
1.11888e+10
6.0282e+09
3.41691e+09
2.02479e+09
1.24531e+09
7.91479e+08
5.18248e+08
3.48704e+08
2.40589e+08
1.69915e+08
1.22657e+08
9.03907e+07
6.79341e+07
5.20294e+07
4.05896e+07
3.22554e+07
2.61289e+07
2.16106e+07
1.82982e+07
1.59221e+07
1.43046e+07
1.33334e+07
1.29456e+07
1.312e+07
1.38875e+07
1.52954e+07
1.74409e+07
2.04835e+07
2.46697e+07
3.03713e+07
3.81449e+07
4.88285e+07
6.36952e+07
8.47051e+07
1.14927e+08
1.59256e+08
2.25673e+08
3.275e+08
4.8759e+08
7.46334e+08
1.17753e+09
1.92106e+09
3.25338e+09
5.76216e+09
1.07439e+10
2.12589e+10
4.51249e+10
1.03887e+11
2.58971e+11
7.087e+11
7.04202e+11
2.60694e+11
1.06252e+11
4.67337e+10
2.22476e+10
1.13432e+10
6.13071e+09
3.48488e+09
2.07038e+09
1.27891e+09
8.15963e+08
5.36216e+08
3.62068e+08
2.50663e+08
1.77609e+08
1.28604e+08
9.50372e+07
7.15977e+07
5.49408e+07
4.29195e+07
3.41322e+07
2.76517e+07
2.2858e+07
1.9334e+07
1.68e+07
1.50714e+07
1.40314e+07
1.36148e+07
1.37992e+07
1.46176e+07
1.6119e+07
1.84039e+07
2.16379e+07
2.60765e+07
3.21041e+07
4.0296e+07
5.15166e+07
6.70766e+07
8.89908e+07
1.20407e+08
1.66338e+08
2.34934e+08
3.39773e+08
5.04081e+08
7.68801e+08
1.20839e+09
1.96284e+09
3.31489e+09
5.85442e+09
1.08817e+10
2.14571e+10
4.5359e+10
1.0392e+11
2.57445e+11
7.01189e+11
6.96593e+11
2.59775e+11
1.06613e+11
4.71728e+10
2.25686e+10
1.15559e+10
6.26933e+09
3.57593e+09
2.13126e+09
1.32089e+09
8.45949e+08
5.57982e+08
3.78123e+08
2.62695e+08
1.86751e+08
1.35635e+08
1.00501e+08
7.58808e+07
5.83235e+07
4.56082e+07
3.62826e+07
2.93834e+07
2.42652e+07
2.04931e+07
1.77749e+07
1.5917e+07
1.47975e+07
1.43478e+07
1.45445e+07
1.54227e+07
1.70335e+07
1.94823e+07
2.29421e+07
2.76795e+07
3.4095e+07
4.2787e+07
5.46523e+07
7.1048e+07
9.40557e+07
1.26921e+08
1.74799e+08
2.46057e+08
3.54598e+08
5.24152e+08
7.96453e+08
1.24716e+09
2.01824e+09
3.39732e+09
5.97915e+09
1.10714e+10
2.17389e+10
4.57283e+10
1.04143e+11
2.56022e+11
6.92902e+11
6.90922e+11
2.59998e+11
1.07417e+11
4.78299e+10
2.30076e+10
1.18367e+10
6.44907e+09
3.6928e+09
2.20885e+09
1.37326e+09
8.82934e+08
5.84543e+08
3.97536e+08
2.77125e+08
1.97637e+08
1.4395e+08
1.06919e+08
8.08776e+07
6.22418e+07
4.86998e+07
3.87361e+07
3.13434e+07
2.58449e+07
2.17836e+07
1.88514e+07
1.68445e+07
1.56335e+07
1.5146e+07
1.53572e+07
1.63049e+07
1.80431e+07
2.0683e+07
2.4407e+07
2.94958e+07
3.63702e+07
4.5657e+07
5.82936e+07
7.56946e+07
1.00025e+08
1.34651e+08
1.8491e+08
2.59441e+08
3.72572e+08
5.48706e+08
8.30638e+08
1.29579e+09
2.08917e+09
3.5036e+09
6.14174e+09
1.13235e+10
2.21282e+10
4.62965e+10
1.04786e+11
2.56016e+11
6.86666e+11
6.86762e+11
2.60852e+11
1.08666e+11
4.87304e+10
2.35802e+10
1.21946e+10
6.67526e+09
3.83871e+09
2.30522e+09
1.43839e+09
9.28327e+08
6.16844e+08
4.20962e+08
2.94412e+08
2.10585e+08
1.53771e+08
1.14445e+08
8.66953e+07
6.677e+07
5.22452e+07
4.15276e+07
3.35553e+07
2.7613e+07
2.32159e+07
2.00369e+07
1.78585e+07
1.65429e+07
1.60123e+07