/*--------------------------------*- C++ -*----------------------------------*\
| =========                 |                                                 |
| \\      /  F ield         | OpenFOAM: The Open Source CFD Toolbox           |
|  \\    /   O peration     | Version:  2212                                  |
|   \\  /    A nd           | Website:  www.openfoam.com                      |
|    \\/     M anipulation  |                                                 |
\*---------------------------------------------------------------------------*/
FoamFile
{
    version     2.0;
    format      ascii;
    arch        "LSB;label=32;scalar=64";
    class       volScalarField;
    location    "0.0962";
    object      epsilon;
}
// * * * * * * * * * * * * * * * * * * * * * * * * * * * * * * * * * * * * * //

dimensions      [0 2 -3 0 0 0 0];

internalField   nonuniform List<scalar> 
31661
(
1.08257e+06
91108
105810
96991.8
90235.3
102610
95186.9
89708.9
100239
93900.2
1.05257e+07
126473
3.31534e+07
260121
534655
652921
626973
804746
176496
617315
667175
663843
2.13262e+06
895767
99967.3
703204
3.34648e+06
1.41695e+06
124813
110051
816674
1.66432e+06
1.81304e+06
204543
322358
648436
387638
598422
726434
2.16776e+06
1.35303e+06
90040.6
340233
119254
121105
133875
121224
261702
371845
280217
1.05476e+06
479160
140481
270111
526728
151188
151572
145435
518097
153032
136625
140582
149409
77664
354834
1.52671e+06
5.70527e+06
459250
394894
335823
123263
259650
219430
185282
157568
135240
117736
104142
93793.7
85973.3
80170.7
75914.7
72847.4
70660.4
71640
74161.1
77669.6
82479.8
88931.7
97456.4
108519
122642
140443
162490
189177
221078
256215
293126
337621
387271
439301
489381
537614
608259
590963
660680
641749
705568
686675
742202
724788
770873
755952
792396
780378
807864
798686
818431
811772
825147
820568
828902
825955
830417
828701
830253
829436
828834
828654
826486
826741
823452
823994
819923
820642
816042
816862
811920
812789
807650
808529
803311
804175
798970
799805
794692
795488
790537
791290
786563
787273
782839
783504
779433
780057
776424
777008
773898
774451
771959
772490
770736
771249
770384
770885
771111
771607
773221
773717
777744
777246
777606
773490
771296
770498
770791
771968
773871
776370
779361
782752
786467
790431
794582
798856
803191
807522
811774
815866
819701
823156
826076
828256
829426
829233
827211
822753
815090
803283
786273
762930
732245
693522
646454
591087
529290
462262
393933
330352
275613
230283
193752
164208
140503
121819
107283
96182.6
69862
69138.3
87807.3
81604.8
77054.1
73744.5
71366.9
68123.4
68650
70228
71969.3
74438.7
77851
82473.1
88651.3
96730.9
107078
120079
136010
155192
177797
203792
232933
264747
298285
334633
373832
414619
456374
499677
546662
594040
639366
680873
717421
748280
773194
792401
806439
816081
822135
825344
826361
825720
823849
821076
817661
813807
809660
805348
800974
796622
792375
788304
784482
780986
777901
775323
773358
772135
771815
772604
774805
778931
786072
784820
784330
784768
786058
778756
774458
772097
771160
771348
772449
774302
776775
779760
783159
786892
790880
795056
799351
803693
808004
812194
816160
819774
822870
825235
826591
826574
824709
820398
812906
801386
784906
762616
733888
698518
656848
609819
558618
504799
446830
390345
337966
290282
247860
211926
181457
156005
135149
118306
105087
94893.7
87171.4
69695.2
81380.6
77083.2
73935.6
69039.6
67866.3
68559.5
67483.3
68265.8
69907.4
71215.9
73130.3
75807.5
79471.8
84393
90871.2
99245.4
109849
122912
138656
157065
177976
201035
225772
251635
278005
304391
331478
359625
389033
420100
454137
492233
533079
575347
617577
658111
695542
728412
756016
778014
794687
806584
814419
818972
820944
820968
819518
817008
813751
809990
805909
801660
797365
793133
789054
785217
781706
778620
776059
774138
772993
772786
773728
776115
780439
787716
800513
799025
797875
797433
797864
799084
800795
787898
780401
775838
773224
772076
772098
773079
774850
777276
780241
783640
787385
791388
795571
799853
804139
808329
812298
815895
818924
821137
822209
821719
819136
813807
804967
791788
773486
749457
719506
683960
643727
600220
555159
510130
465830
421445
379439
340064
303251
268300
236118
206753
180409
157173
137453
121203
108119
97727.2
89625.5
71664.6
83477
78867.2
67381.3
69043.4
67782.8
70062.6
67826
67096.7
68477.4
70061.6
71096.9
72625.3
74813
77857.3
81981.8
87461.7
94605.5
103726
115110
128948
145258
163876
184406
206141
228396
250380
271499
291354
309999
328240
346682
366048
387137
411162
439203
471144
506601
544899
584911
625120
663794
699294
730261
755975
776274
791394
801921
808592
812163
813344
812733
810819
807987
804544
800721
796707
792656
788699
784951
781519
778512
776048
774252
773269
773268
774461
777136
781749
789215
801793
825803
826038
825697
825245
824996
825093
825503
825998
826142
802490
789787
782056
777153
774204
772763
772544
773336
774965
777286
780174
783516
787205
791144
795228
799351
803384
807177
810541
813235
814954
815301
813776
809765
802542
791316
775320
753919
726858
694391
657353
617192
575610
534394
495129
458767
425324
394158
365653
338907
313389
287613
261792
236036
210709
186519
164427
144963
128200
114195
102834
93906.5
75446.4
86975.4
67105.2
67515.2
72952.8
69375.4
68157.1
68975.7
67371.3
66893.6
68961.9
70452.7
71303.1
72547.8
74358.9
76926.6
80443.9
85167.6
91386.9
99409.5
109526
121981
136872
154108
173345
193973
215137
235899
255402
273064
288601
302010
313842
324867
335817
347418
360463
375866
394583
417051
443542
474127
508505
545908
585083
624385
661975
696295
726065
750523
769572
783567
793093
798933
801864
802574
801654
799581
796740
793425
789874
786284
782820
779626
776839
774595
773040
772329
772643
774194
777253
782230
789910
802201
824424
871950
879478
885088
888908
891020
891457
890243
887552
883450
877928
825339
803505
791071
783097
777801
774438
772615
772064
772572
773964
776082
778784
781943
785431
789122
792874
796530
799901
802749
804771
805588
804714
801555
795402
785491
771036
751397
726261
695737
660571
622157
582168
542479
504771
470273
439667
413081
390089
369974
352257
335869
319717
302756
284421
264323
242570
219871
197202
175390
155198
137273
122139
109594
81716.5
99420.3
870833
91446.8
67003.7
77766.9
67425.6
71166
68029.6
68262.3
69914.4
68764.6
67112.2
66848.9
69618.7
71011.5
71708.3
72758.1
74279.4
76444.7
79450.6
83538.2
88976
96065.9
105115
116394
130059
146136
164396
184319
205123
225841
245445
263122
278320
290874
300946
308934
315503
321322
327015
333138
340307
349184
360458
374668
392333
413921
439741
469822
503787
540764
579409
618055
654895
688264
717003
740443
758533
771654
780473
785787
788363
788899
787976
786072
783564
780754
777891
775190
772832
770984
769820
769519
770268
772279
775802
781185
789069
800988
821229
862260
958636
986877
1.01229e+06
1.03372e+06
1.04988e+06
1.05963e+06
1.06212e+06
1.05705e+06
1.04489e+06
1.02696e+06
1.00457e+06
979058
861862
822876
803041
790987
782806
777093
773259
770968
769981
770092
771115
772882
775231
778002
781037
784160
787164
789810
791800
792752
792195
789543
784106
775109
761759
743421
719705
690644
656963
619808
580840
541987
504945
471082
441190
415594
394232
376668
362289
350419
340385
331301
322307
312469
301062
287397
271140
252379
231695
209793
187783
167021
148172
131494
117451
105936
951479
96711.4
85321.5
67038.7
74841.8
67465
69934
68036.2
67805.9
68721.4
67019.7
70594.1
69503.1
66925
1.19122e+06
1.26458e+06
1.33335e+06
1.39292e+06
1.43857e+06
1.46639e+06
1.47358e+06
1.45916e+06
1.42455e+06
1.37297e+06
1.30951e+06
1.23889e+06
1.16552e+06
922470
850530
817941
800227
788704
780411
774312
769975
767148
765619
765196
765687
766902
768640
770712
772901
774935
776511
777253
776686
774234
769208
760840
748332
730998
708407
680570
648064
611999
573978
535882
499373
465877
436295
411017
390099
373213
359859
349463
341448
335275
330372
326102
321901
317185
311218
303331
292904
279545
263129
243963
223080
201495
180031
160030
141954
126322
113220
89533.2
102630
1.09304e+06
70386.7
71709.3
72276.5
73162.6
74458.2
76306.2
78892.2
82434.2
87184.7
93443
101518
111704
124227
139181
156453
175664
196142
216973
237121
255588
271625
284815
295131
302846
308400
312341
315234
317587
319818
322365
325558
329841
335742
343693
354173
367710
384831
405985
431448
461207
494834
531408
569559
607566
643620
676151
703969
726527
743817
756276
764624
769657
772163
772831
772250
770893
769144
767317
765692
764495
763922
764188
765499
768061
772096
777884
785909
797333
815458
850004
928387
1.11698e+06
80665.2
67168.8
94356.6
84057.7
72727.5
67602.8
69106.4
68155.2
67552.5
68798.5
67058.3
69523.2
67083.5
71392.7
70339.8
1.02401e+06
892326
836270
809701
794207
783391
775132
768730
763907
760490
758317
757204
756949
757314
758085
758998
759706
759827
758887
756310
751409
743407
731502
714966
693332
666532
635089
600033
562968
525630
489682
456617
427391
402390
381731
365134
352148
342266
334937
329683
326061
323612
321966
320779
319641
318196
315959
312387
306900
298878
287817
273555
256340
236523
215317
193500
172516
153173
135943
121300
109351
72993.3
73735.8
74854.6
76442.4
78681.3
81776.3
85937.2
91448.3
98641
107813
119229
133057
149288
167669
187662
208451
229030
248356
265520
279914
291300
299782
305714
309572
311851
313034
313523
313657
313704
313957
314645
315946
318205
321800
327110
334533
344543
357662
374407
395215
420335
449723
482936
519009
556567
593856
629115
660770
687726
709484
726105
738096
746195
751226
753977
755151
755333
755004
754556
754351
754657
755692
757699
760888
765450
771589
779637
790409
806321
834679
896532
1.04468e+06
1.37347e+06
1.5233e+06
1.67823e+06
1.83071e+06
1.97198e+06
2.093e+06
2.18473e+06
2.23974e+06
2.25313e+06
2.22336e+06
2.15318e+06
2.04805e+06
1.91657e+06
1.76885e+06
1.61388e+06
1.46022e+06
72538.4
1.31513e+06
87946.6
99831.6
71261.1
77177.9
67374.8
1.81243e+06
2.04631e+06
2.28372e+06
2.51378e+06
2.72549e+06
2.90763e+06
3.05064e+06
3.14584e+06
3.18743e+06
3.17219e+06
3.10149e+06
2.98011e+06
2.81568e+06
2.61708e+06
2.39529e+06
2.16119e+06
1.92491e+06
79918.9
71233.6
67813.7
72300.7
73857.9
74480.8
75441.2
76818.2
78775.9
81497.9
85168
90050.5
96435.8
104672
115044
127762
142908
160348
179676
200198
220981
240976
259192
274864
287566
297235
304105
308588
311166
312304
312407
311813
310784
309526
308218
307015
306104
305603
305619
306390
308215
311417
316351
323414
333074
345847
362234
382652
407349
436269
468929
504382
541195
577682
612064
642828
668949
689998
706118
717855
725990
731358
734766
736917
738398
739687
741235
743343
746223
750120
755201
761601
769515
779461
793122
815808
863196
976051
1.23391e+06
1.69681e+06
92442.4
83075.1
68554.3
68350.7
67469.1
68963.6
67189.8
69648.6
67310.3
70413.3
71263.8
73494.6
72232.8
75832.3
74556.2
1.59184e+06
1.1834e+06
959631
861011
818554
797429
784192
774269
766232
759650
754393
750359
747423
745416
744090
743218
742497
741491
739732
736639
731526
723608
712065
696145
675316
649464
619001
584946
548775
512281
477047
444580
415733
391114
370746
354419
341693
332116
325103
320215
317063
315270
314509
314318
314704
315416
316170
316745
316860
316154
314198
310446
304358
295404
283242
267706
249185
228683
207145
185459
164853
146441
130405
116913
106159
2.3491e+06
86735.3
97564.4
236921
2.08132e+06
74620.8
67635.2
2.61735e+06
2.87649e+06
3.11736e+06
3.33233e+06
3.51392e+06
3.6554e+06
3.74995e+06
3.79277e+06
3.78078e+06
3.71482e+06
3.59845e+06
3.43718e+06
3.23818e+06
3.00939e+06
2.75844e+06
2.49406e+06
2.22538e+06
76851.2
70201.8
68079.8
76342.3
75381.4
76207.9
77426.4
79148.4
81541.6
84807.8
89170.9
94886.4
102261
111639
123302
137365
153794
172311
192350
213080
233491
252552
269383
283399
294371
302399
307816
311071
312630
312917
312282
311004
309295
307319
305202
303049
300956
299013
297340
296037
295158
294841
295330
296891
299834
304496
311272
320619
333040
349027
368995
393176
421494
453470
488141
524104
559664
593108
622980
648333
668831
684673
696463
705004
711161
715736
719419
722767
726319
730386
735130
740741
747312
754942
763925
775382
793066
828343
911817
1.10822e+06
1.48511e+06
1.9615e+06
79419.4
68235.7
68605.1
90921.2
82385.5
67509.2
69196.5
67395.9
69852.9
67586.4
70579.2
71387.4
72291.8
74412.5
2.67087e+06
2.41309e+06
78256.3
77828.4
1.82332e+06
1.39206e+06
1.06726e+06
900165
828294
796998
780633
769606
760740
753096
746471
740825
736122
732253
729014
726212
723514
720396
716303
710553
702361
690889
675352
655173
630155
600650
567582
532376
496709
462311
430494
402284
378096
358177
342160
329729
320369
313614
308946
306041
304531
304044
304354
305258
306554
308221
310063
311953
313759
315293
316355
316665
315855
313478
308994
301823
291529
277903
261189
241676
220305
198635
177512
157817
140302
125443
113233
103466
76427.3
75450.8
85840.1
95783.8
150304
72788.3
67938.7
2.92123e+06
3.15783e+06
3.37472e+06
3.5673e+06
3.72955e+06
3.85601e+06
3.94103e+06
3.98025e+06
3.97109e+06
3.91391e+06
3.81167e+06
3.669e+06
3.49169e+06
3.28575e+06
3.05722e+06
2.81182e+06
2.55591e+06
2.29647e+06
74617.3
69505.8
68387.2
90458.9
77104.6
78205.8
79736.5
81878.3
84821.9
88746.2
93904.1
100571
109053
119670
132687
148088
165702
185089
205533
226095
245747
263536
278746
290994
300240
306718
310827
313024
313746
313368
312192
310447
308307
305904
303335
300677
297998
295354
292800
290392
288200
286326
284817
283741
283263
283593
284983
287735
292178
298697
307736
319788
335338
354783
378337
405935
437085
470850
505839
540414
572907
601959
626711
646895
662787
675030
684446
691886
698109
703733
709337
715249
721537
728288
735573
743554
752972
766435
792026
852213
997867
1.29567e+06
1.7115e+06
2.04046e+06
76723.4
68103.7
68904.8
79158.5
67646.7
69481.7
89833.4
82012.6
67656.1
70117.7
67901.5
70818.3
71592.4
72449.3
2.76136e+06
2.52514e+06
73396.9
74378.3
284805
75327.8
2.15434e+06
1.9017e+06
1.58391e+06
1.21752e+06
966895
845234
794035
771519
759160
750196
742444
735320
728713
722657
717107
711958
707096
702154
696558
689682
680769
668985
653523
633758
609428
580793
548700
514492
479802
446250
415235
387686
364126
344655
329070
316921
307813
301279
296836
294081
292715
292367
292902
294017
295562
297498
299737
302168
304695
307283
309823
312199
314321
316001
317029
317092
315797
312634
307111
298684
286982
271957
253890
233676
212135
190506
169829
151183
134909
121222
110138
101368
375927
85326
94509.8
802324
138668
71513.3
68273.5
2.98926e+06
3.20375e+06
3.39845e+06
3.57152e+06
3.71816e+06
3.83282e+06
3.91011e+06
3.94597e+06
3.93783e+06
3.88615e+06
3.79365e+06
3.66456e+06
3.50422e+06
3.31822e+06
3.11139e+06
2.88695e+06
2.65112e+06
2.40998e+06
2.16915e+06
73027.6
69079.2
68726.6
137987
93631
78923.1
80419.3
82412.5
85100.4
88688.7
93403.4
99492.6
107240
116943
128883
143272
159941
178561
198531
219004
238989
257500
273723
287141
297574
305146
310190
313136
314424
314449
313538
311943
309858
307424
304746
301904
298957
295956
292941
289951
287022
284187
281487
278965
276689
274739
273148
271995
271449
271699
272977
275583
279838
286117
294859
306525
321589
340436
363286
390062
420291
453058
487029
520623
552263
580675
605088
625306
641644
654749
665409
674384
682307
689723
697025
704246
711347
718492
726208
736325
754552
797119
902867
1.132e+06
1.48325e+06
1.79498e+06
1.93402e+06
74783.3
68109
69239.8
76817.9
67856
69807.4
79186.8
67959.6
70430
89209
81952.8
68244.8
71112.7
71861.7
2.73502e+06
2.51391e+06
72682.4
73568.3
74480.8
75443.3
2.28532e+06
2.04698e+06
1.66237e+06
1.36998e+06
1.06958e+06
881134
794180
758371
742481
733313
726116
719390
712715
706022
699281
692538
685733
678440
670097
660052
647536
631761
612086
588197
560276
529076
495854
462163
429576
399429
372659
349751
330807
315657
303899
295062
288711
284433
281809
280535
280300
280876
282059
283706
285748
288083
290663
293455
296321
299308
302324
305284
308175
310917
313424
315542
317100
317834
317411
315416
311320
304589
294793
281727
265448
246412
225531
203820
182707
162955
145147
130236
117853
107849
99948.4
77783
85194.4
93777.7
76556.5
1.81516e+06
70627
68633.5
2.94796e+06
3.14833e+06
3.33097e+06
3.4927e+06
3.62925e+06
3.73564e+06
3.80723e+06
3.84046e+06
3.83271e+06
3.78463e+06
3.69853e+06
3.57819e+06
3.42825e+06
3.25365e+06
3.05881e+06
2.84765e+06
2.62564e+06
2.39807e+06
2.17002e+06
1.94634e+06
71926.7
68868.4
69090.4
80087.4
80853.4
81584
83050.2
85513
88868.2
93267
98912.2
106072
115026
126047
139354
155074
172861
192219
212404
232482
251471
268497
282929
294461
303101
309101
312849
314776
315289
314734
313390
311466
309122
306474
303608
300589
297465
294277
291054
287826
284616
281453
278361
275365
272495
269783
267264
264999
263059
261484
260343
259798
260030
261252
263746
267844
273900
282338
293617
308177
326403
348502
374410
403685
435453
468452
501189
532176
560220
584608
605174
622206
636272
648023
658061
666863
674858
682262
689108
695737
703503
716479
746315
822216
995175
1.28294e+06
1.56719e+06
1.71019e+06
1.73185e+06
73422.9
68221.6
69601.9
75158.9
68121.2
70164.1
79622.4
77150.6
68294.3
70778.9
79479.7
68611.1
71450.1
2.66898e+06
2.45827e+06
89015.6
82198.1
72182.4
72976.7
73825.2
74722.6
75698.5
2.28889e+06
2.06426e+06
1.8445e+06
1.59589e+06
1.44377e+06
1.18619e+06
947531
808381
746754
721848
710673
703813
697899
691812
685178
677958
670233
661819
652266
641074
627619
611227
591305
567542
540079
509598
477262
444538
412921
383690
357737
335537
317180
302477
291080
282535
276384
272230
269714
268490
268269
268849
270020
271644
273663
276011
278614
281392
284389
287444
290628
293874
297123
300351
303548
306684
309669
312446
314885
316846
318120
318419
317357
314487
309328
301383
290225
275792
258320
238475
217387
195988
175493
156739
140298
126606
115406
106359
99171.8
85407.4
76808.8
93535.6
77871
1.63459e+06
70063
69012.1
2.87149e+06
3.06177e+06
3.23538e+06
3.38855e+06
3.51743e+06
3.61758e+06
3.68482e+06
3.71578e+06
3.70829e+06
3.66288e+06
3.5816e+06
3.46783e+06
3.32568e+06
3.15957e+06
2.9737e+06
2.77213e+06
2.56027e+06
2.34277e+06
2.12447e+06
1.91016e+06
1.70451e+06
71193.7
68815.7
69473.5
83458.9
84899.9
86740.3
89486.7
93401.8
98655.3
105376
113762
124045
136449
151117
168044
186701
206440
226404
245641
263244
278505
291006
300643
307577
312141
314745
315797
315658
314624
312927
310741
308196
305387
302386
299246
296007
292701
289358
285997
282635
279294
275992
272748
269583
266516
263565
260753
258112
255677
253500
251645
250163
249113
248638
248914
250139
252571
256540
262414
270584
281499
295592
313209
334572
359639
388008
418871
451046
483123
513686
541579
566082
586964
604398
618801
630682
640522
648734
655748
662095
668705
678422
699753
754525
884127
1.1146e+06
1.36422e+06
1.50406e+06
1.53131e+06
1.51252e+06
72494.7
68414
69985.1
82406.9
79411.2
73984.5
68428.5
70545.6
75706.6
68654.5
71156.6
2.5941e+06
2.39188e+06
77701
68994.4
80018.5
71821.9
72544
89205.5
82732.7
73323.5
74158.2
75053.3
76033.6
2.24349e+06
2.02893e+06
1.8189e+06
1.61824e+06
1.4397e+06
1.39556e+06
1.25236e+06
1.03461e+06
849248
746954
702922
685243
677020
671436
666009
659900
652887
644730
635056
623473
609501
592615
572363
548523
521269
491270
459635
427753
397036
368683
343536
322034
304258
290005
278937
270642
264673
260631
258165
256937
256676
257182
258281
259814
261734
264001
266519
269250
272142
275217
278382
281623
284998
288351
291739
295144
298554
301914
305210
308366
311318
314017
316293
317985
318852
318593
316808
313016
306692
297443
284951
269325
251025
230834
209633
188581
169044
151575
136704
124166
113862
105504
98840
85923.1
78055.4
93629
77120.5
1.43176e+06
69749.1
69405.9
2.78833e+06
2.97047e+06
3.13652e+06
3.28266e+06
3.40532e+06
3.50036e+06
3.5639e+06
3.59297e+06
3.58562e+06
3.54232e+06
3.465e+06
3.35661e+06
3.22087e+06
3.0618e+06
2.88357e+06
2.69027e+06
2.48681e+06
2.27786e+06
2.06816e+06
1.8624e+06
1.66514e+06
1.48109e+06
70752.8
68886.3
69871.6
86617.9
88583.2
91192.8
94603.4
99176.7
105226
113012
122684
134386
148200
164150
182061
201240
220916
240189
258149
274036
287344
297867
305675
311037
314327
315945
316257
315575
314148
312165
309770
307067
304135
301034
297807
294492
291114
287692
284254
280810
277370
273956
270583
267264
264014
260850
257776
254808
251974
249298
246802
244518
242496
240797
239487
238613
238281
238683
240004
242479
246407
252152
260126
270736
284401
301490
322207
346527
374103
404193
435680
467210
497381
525003
549269
569829
586743
600341
611116
619631
626515
632806
640886
657111
697890
796175
979276
1.19212e+06
1.3226e+06
1.35302e+06
1.34086e+06
1.31598e+06
79370.7
71896.4
68667.9
70385.4
81705.3
85166
73202.7
68768.3
70946.3
2.51887e+06
2.32507e+06
74706
69033.4
69391.7
76438.8
71557.2
72220.9
78453.7
72939.3
80801.1
73715.3
89673
83518.4
74545.7
75444.5
76426
2.18578e+06
1.97997e+06
1.77866e+06
1.58614e+06
1.40733e+06
1.26461e+06
1.2664e+06
1.22031e+06
1.09261e+06
914575
771691
695221
662525
649075
642235
637001
631466
624716
616204
605471
592042
575448
555349
531642
504610
474987
443900
412705
382753
355179
330760
309888
292610
278760
267992
259883
254038
250049
247544
246225
245850
246222
247144
248519
250289
252388
254765
257350
260124
263046
266123
269298
272557
275932
279341
282763
286252
289777
293288
296810
300272
303645
306926
310050
312931
315455
317483
318825
319220
318320
315689
310903
303423
292977
279387
262851
243772
223373
202522
182551
164196
148107
134235
122488
112820
105018
98899.3
86725
77504.9
78337.5
94080.7
1.24654e+06
69620.5
69811.6
2.70481e+06
2.87898e+06
3.03748e+06
3.1769e+06
3.29348e+06
3.38352e+06
3.44362e+06
3.47096e+06
3.46378e+06
3.42244e+06
3.34879e+06
3.24551e+06
3.11596e+06
2.96391e+06
2.7933e+06
2.60819e+06
2.41315e+06
2.21272e+06
2.0114e+06
1.81369e+06
1.62426e+06
1.44778e+06
1.28905e+06
79476.7
70530.2
69048.7
78695
79702.1
70282
81284.7
84144.7
88448.9
90371.6
92942.7
96338.9
100723
106277
113338
122213
133095
146094
161230
178314
196880
216142
235264
253371
269682
283619
294888
303477
309586
313546
315733
316516
316215
315088
313341
311128
308566
305738
302713
299535
296249
292880
289452
285996
282506
279003
275511
272042
268603
265208
261864
258585
255380
252264
249248
246337
243543
240893
238416
236129
234068
232274
230817
229762
229175
229135
229780
231327
233989
238031
243791
251658
262061
275408
292040
312194
335843
362671
391977
422690
453469
482887
509684
532973
552343
567848
579904
589205
596818
604809
618314
650368
727504
874578
1.05337e+06
1.17033e+06
1.20201e+06
1.1939e+06
1.1737e+06
1.15151e+06
71559.3
68968.2
70798.8
2.44271e+06
2.25685e+06
72727.8
69132.8
69427.7
74060.1
71362.8
71976.2
75591
69799.8
72642.1
77363.2
73361.9
79410.5
74138.6
81787.5
74975
90396.5
84524.3
75879.7
76863.3
2.12741e+06
1.92991e+06
1.73681e+06
1.55211e+06
1.3801e+06
1.22492e+06
1.08922e+06
1.10637e+06
1.11947e+06
1.11732e+06
1.07387e+06
965555
822708
711070
651500
625527
614208
607710
601835
594790
585635
573671
558332
539249
516357
490011
461027
430593
400089
370855
343979
320200
299853
283004
269464
258889
250895
245055
240977
238312
236787
236181
236283
236941
238066
239604
241485
243634
246018
248591
251330
254221
257251
260374
263585
266908
270285
273701
277179
280723
284280
287868
291448
294994
298521
302012
305402
308628
311637
314355
316652
318373
319301
319145
317563
314091
308327
299816
288233
273722
256424
237325
217042
197039
178140
160835
145490
132320
121328
112229
104840
99052.6
87679.9
94533
91237.7
77936.3
99372.9
69635
97102.9
94260.3
79116.2
80023.2
81096.4
83486.1
87056.8
81107.1
83120.4
86109.9
81250.4
82982.2
85514
83023.9
81510.4
85187.7
80415.1
85076
83196.5
81858.2
70227.4
2.62082e+06
2.78743e+06
2.9389e+06
3.07183e+06
3.18268e+06
3.26807e+06
3.3249e+06
3.35069e+06
3.34359e+06
3.3041e+06
3.23383e+06
3.1353e+06
3.01161e+06
2.86625e+06
2.703e+06
2.5258e+06
2.33888e+06
2.1466e+06
1.9533e+06
1.7634e+06
1.58145e+06
1.41198e+06
1.25921e+06
1.12636e+06
104227
111391
120137
130815
143454
157980
174509
192938
212551
232194
251239
268583
283757
296045
305495
312142
316415
318682
319397
318915
317544
315512
313003
310143
307024
303710
300291
296769
293169
289540
285926
282325
278721
275137
271610
268119
264703
261344
258049
254822
251704
248687
245768
242972
240317
237828
235523
233428
231578
230026
228832
228064
227800
228126
229148
231042
234055
238428
244457
252503
262971
276278
292733
312538
335646
361698
389999
419488
448844
476670
501734
523197
540719
554453
564971
573248
581025
592048
614639
664034
754311
868957
957416
994885
998403
988510
974512
70474.9
69282.2
70702.5
2.0671e+06
1.87744e+06
1.69205e+06
1.5148e+06
1.34952e+06
1.19991e+06
1.06867e+06
957315
87796.7
88370.6
89274.1
90593.4
92411.5
94889.5
98197.4
102461
107882
114648
122963
133079
145213
159394
175499
193316
212128
230977
249052
265578
279955
291819
301075
307855
312441
315185
316442
316533
315728
314241
312237
309841
307144
304222
301121
297891
294561
291158
287712
284216
280692
277168
273651
270152
266683
263251
259865
256533
253265
250069
246955
243936
241028
238228
235528
232970
230585
228383
226389
224641
223190
222091
221419
221243
221661
222767
224717
227758
232132
238118
246062
256359
269432
285621
305157
328017
353889
382120
411679
441244
469383
494801
516598
534410
548447
559527
569493
582773
610318
674238
796001
946607
1.04844e+06
1.07852e+06
1.07262e+06
1.05561e+06
1.03671e+06
1.01501e+06
71418.6
69304.2
69516.8
72482.6
71223.7
71792.1
73690.2
69834
2.36787e+06
2.18934e+06
72410.2
75068.2
70217.2
73081
76645.4
73808
78458.3
74588.8
80545.7
75432.9
82961.2
76346.9
85758.4
77336.1
89284.6
78412
79583.2
87483.9
85133
80864.7
90289.7
87385.8
69757.9
97164.7
92391.3
83475.6
82274
70651.1
104068
109175
117212
128108
140917
155507
171752
189390
208092
227564
246725
264309
279648
292545
302581
309999
314947
317864
319117
319093
318095
316362
314087
311408
308432
305239
301887
298405
294849
291277
287634
283974
280311
276689
273113
269562
266048
262601
259208
255891
252642
249468
246377
243399
240534
237768
235113
232608
230276
228129
226192
224495
223075
221985
221283
221035
221331
222261
223940
226478
230043
234908
241324
249574
260012
273037
288978
308038
330164
355033
382012
410102
438015
464366
487935
507920
524115
537017
548152
560996
583073
627377
704392
798591
869553
899291
901881
893514
881413
866484
2.53884e+06
2.69861e+06
2.84365e+06
2.97065e+06
3.07625e+06
3.1573e+06
3.21107e+06
3.23526e+06
3.22834e+06
3.19056e+06
3.12355e+06
3.02942e+06
2.91113e+06
2.77197e+06
2.61554e+06
2.44563e+06
2.26624e+06
2.08157e+06
1.89581e+06
1.71321e+06
1.53812e+06
1.37484e+06
1.22732e+06
1.09865e+06
990395
70547.3
69568.7
90080.5
124752
69667.7
71429
71131.4
71657.8
90880.5
91782.4
93082.1
94863.4
97259.4
100432
104539
109773
116329
124381
134085
145569
158907
174089
190903
208935
227359
245257
261849
276487
288774
298562
305917
311069
314334
316052
316538
316065
314854
313078
310868
308325
305528
302527
299376
296104
292746
289335
285860
282342
278811
275276
271750
268243
264764
261319
257918
254567
251274
248047
244894
241822
238842
235970
233215
230559
228008
225609
223388
221355
219535
217958
216662
215696
215121
214996
215415
216469
218261
220912
224564
229446
235829
243972
254208
266929
282497
301157
322886
347420
374183
402227
430276
456924
480900
501377
518271
532727
548494
575219
632236
738118
868106
956038
982530
977271
962133
945216
925574
902885
72416.9
69916
2.00692e+06
1.82448e+06
1.64593e+06
1.47534e+06
1.31627e+06
1.17198e+06
1.045e+06
936897
848330
2.29643e+06
2.12488e+06
87462.8
87553.6
85313.6
72231.9
73530.1
70250
72856.8
74788.9
70641.9
73534.4
76220.8
74268.1
77851
75059.2
79726.9
75915.3
81897.6
76838.8
84477.6
77836.8
87788
78919.3
102543
80090.4
81359.9
69963.2
93850.1
93969.6
69896.4
70716.9
71567.5
2.46054e+06
2.61371e+06
2.75254e+06
2.87382e+06
2.97438e+06
3.05132e+06
3.10213e+06
3.1248e+06
3.11795e+06
3.08198e+06
3.01806e+06
2.92816e+06
2.81513e+06
2.68204e+06
2.53223e+06
2.36931e+06
2.19712e+06
2.0197e+06
1.84106e+06
1.66529e+06
1.49652e+06
1.33886e+06
1.19601e+06
1.07084e+06
965023
879084
155080
94362.7
95758.3
97570.3
99969.5
103109
107141
112207
118521
126285
135648
146714
159508
173962
189873
206930
224716
242235
258661
273359
285891
296057
303865
309497
313230
315379
316249
316109
315182
313646
311640
309268
306612
303730
300678
297485
294190
290826
287392
283902
280384
276853
273321
269799
266296
262820
259380
255981
252630
249336
246104
242941
239856
236855
233948
231147
228468
225893
223418
221079
218913
216937
215164
213618
212329
211332
210668
210385
210539
211197
212426
214314
216963
220466
224920
230422
237177
245421
255430
267581
282257
299736
320061
343048
368240
394794
421509
447044
470300
491174
512166
541627
597079
695119
812650
890347
912805
907115
892654
876421
857416
835428
812425
71553.7
70052.5
106649
112056
118820
127381
138466
152259
168407
186227
205063
224245
242829
260075
275836
289249
299849
307755
313291
316743
318505
318912
318277
316856
314835
312372
309571
306516
303269
299882
296391
292839
289241
285612
281958
278303
274675
271051
267499
264003
260548
257146
253819
250557
247379
244279
241267
238355
235567
232888
230298
227847
225567
223466
221562
219882
218451
217305
216487
216044
216035
216527
217590
219329
221841
225229
229596
235073
241909
250331
260627
273179
288344
306350
327191
350611
376077
402682
429196
454270
476748
496075
512876
530042
554496
597889
668188
749322
806964
829241
829312
820998
809595
795829
778957
1.94942e+06
1.77372e+06
1.60161e+06
1.43694e+06
1.28322e+06
1.14353e+06
1.02023e+06
914860
828146
759791
91075
89144
87635
85587.4
85925.6
72099.8
72486
70327.4
72680.6
73528.2
70674.1
73312.9
74702.5
71081.8
71073.3
74000.1
76023.5
74743.2
77525.6
75547
79246.9
76414.9
81237.7
77350.8
83618.6
78364.2
141648
79454.6
2.06348e+06
110016
80627
83835.4
82743.3
81890
2.22848e+06
2.06371e+06
94157.9
70231
71518.6
2.38585e+06
2.53251e+06
2.66522e+06
2.78089e+06
2.87656e+06
2.94954e+06
2.99755e+06
3.01874e+06
3.01198e+06
2.97757e+06
2.91665e+06
2.83106e+06
2.72328e+06
2.59619e+06
2.45289e+06
2.29683e+06
2.13168e+06
1.96128e+06
1.78947e+06
1.62017e+06
1.45733e+06
1.30486e+06
1.16623e+06
1.04417e+06
940473
855843
789788
70960.5
70255.9
708432
727372
744175
758147
769878
779369
781940
765435
716086
641304
572123
525685
495950
472392
449075