/*--------------------------------*- C++ -*----------------------------------*\
| =========                 |                                                 |
| \\      /  F ield         | OpenFOAM: The Open Source CFD Toolbox           |
|  \\    /   O peration     | Version:  2212                                  |
|   \\  /    A nd           | Website:  www.openfoam.com                      |
|    \\/     M anipulation  |                                                 |
\*---------------------------------------------------------------------------*/
FoamFile
{
    version     2.0;
    format      ascii;
    arch        "LSB;label=32;scalar=64";
    class       surfaceScalarField;
    location    "0.182";
    object      phi_0;
}
// * * * * * * * * * * * * * * * * * * * * * * * * * * * * * * * * * * * * * //

dimensions      [0 3 -1 0 0 0 0];

oriented        oriented;

internalField   nonuniform List<scalar> 
69808
(
4.79915e-08
-0.0169996
-1.85418
-5.89931e-08
-0.0169995
-1.85421
-7.509e-08
-0.0169996
-1.85421
-1.21654e-07
-0.0169996
-1.85421
-1.47103e-07
-0.0169997
-1.85421
-1.79286e-07
-0.0169997
-1.85421
-2.05452e-07
-0.0169998
-1.85421
-2.32374e-07
-0.017
-1.85421
-2.54842e-07
-0.0170001
-1.85421
-2.72864e-07
-0.0170002
-1.85421
-2.83821e-07
-0.0170003
-1.85421
-2.87773e-07
-0.0170005
-1.85421
-2.84175e-07
-0.0170006
-1.85421
-2.72308e-07
-0.0170007
-1.85422
-2.55255e-07
-0.0170009
-1.85422
-2.25255e-07
-0.017001
-1.85422
-2.05005e-07
-0.0170011
-1.85422
-1.45229e-07
-0.0170012
-1.85422
-1.74379e-07
-0.0170011
-1.85422
-0.0170014
-1.85419
-2.58734e-07
-0.0202405
-1.8539
-4.60477e-07
-0.0202405
-1.85393
-6.65891e-07
-0.0202409
-1.85393
-8.48731e-07
-0.0202414
-1.85393
-9.94733e-07
-0.020242
-1.85393
-1.1086e-06
-0.0202427
-1.85393
-1.18468e-06
-0.0202435
-1.85393
-1.22509e-06
-0.0202444
-1.85393
-1.2297e-06
-0.0202453
-1.85393
-1.20303e-06
-0.0202462
-1.85393
-1.14764e-06
-0.020247
-1.85393
-1.06836e-06
-0.0202478
-1.85393
-9.69263e-07
-0.0202486
-1.85393
-8.55545e-07
-0.0202493
-1.85393
-7.34347e-07
-0.0202499
-1.85393
-6.07395e-07
-0.0202504
-1.85393
-4.78622e-07
-0.0202508
-1.85393
-3.35128e-07
-0.0202511
-1.85393
-1.52483e-07
-0.0202513
-1.85393
-0.0202516
-1.85391
1.04778e-07
-0.0233023
-1.86143
2.8344e-07
-0.0233023
-1.86146
4.2537e-07
-0.0233024
-1.86146
5.4082e-07
-0.0233025
-1.86146
6.31803e-07
-0.0233026
-1.86146
6.94145e-07
-0.0233028
-1.86146
7.29378e-07
-0.023303
-1.86146
7.38802e-07
-0.0233033
-1.86146
7.24434e-07
-0.0233035
-1.86146
6.90219e-07
-0.0233038
-1.86146
6.38905e-07
-0.023304
-1.86146
5.75325e-07
-0.0233042
-1.86146
5.02635e-07
-0.0233045
-1.86146
4.26486e-07
-0.0233047
-1.86146
3.48927e-07
-0.0233048
-1.86146
2.77915e-07
-0.023305
-1.86146
2.10258e-07
-0.0233051
-1.86146
1.50697e-07
-0.0233053
-1.86146
1.03957e-07
-0.0233053
-1.86146
-0.0233055
-1.86143
-1.51237e-07
-0.0155149
-1.84737
-2.68555e-07
-0.0155148
-1.84739
-3.82039e-07
-0.0155151
-1.84739
-4.8334e-07
-0.0155154
-1.84739
-5.66655e-07
-0.0155158
-1.84739
-6.28928e-07
-0.0155163
-1.84739
-6.70168e-07
-0.0155168
-1.84739
-6.90474e-07
-0.0155174
-1.84739
-6.90713e-07
-0.015518
-1.84739
-6.72504e-07
-0.0155186
-1.84739
-6.37462e-07
-0.0155192
-1.84739
-5.88467e-07
-0.0155197
-1.84739
-5.2755e-07
-0.0155202
-1.84739
-4.59006e-07
-0.0155207
-1.84739
-3.84742e-07
-0.0155211
-1.84739
-3.10213e-07
-0.0155214
-1.84739
-2.3362e-07
-0.0155217
-1.84739
-1.50403e-07
-0.0155219
-1.84739
-6.13025e-08
-0.015522
-1.84739
-0.0155223
-1.84736
8.94297e-08
-0.00780859
-1.85224
2.18871e-07
-0.00780846
-1.85227
3.31056e-07
-0.00780857
-1.85227
4.2014e-07
-0.00780872
-1.85227
4.90257e-07
-0.00780892
-1.85227
5.39467e-07
-0.00780915
-1.85227
5.67975e-07
-0.00780941
-1.85226
5.76203e-07
-0.00780968
-1.85226
5.6613e-07
-0.00780997
-1.85226
5.40624e-07
-0.00781026
-1.85226
5.02661e-07
-0.00781054
-1.85226
4.55664e-07
-0.00781082
-1.85226
4.02618e-07
-0.00781107
-1.85226
3.46911e-07
-0.0078113
-1.85226
2.90771e-07
-0.00781151
-1.85226
2.36386e-07
-0.00781169
-1.85226
1.84092e-07
-0.00781184
-1.85226
1.3639e-07
-0.00781196
-1.85226
8.5964e-08
-0.00781205
-1.85226
-0.00781228
-1.85224
-7.86388e-08
0.0061506
-1.83948
-1.35003e-07
0.00615082
-1.8395
-1.8893e-07
0.00615065
-1.8395
-2.36619e-07
0.00615042
-1.8395
-2.75463e-07
0.00615011
-1.8395
-3.05446e-07
0.00614976
-1.8395
-3.25335e-07
0.00614936
-1.8395
-3.3487e-07
0.00614894
-1.8395
-3.34007e-07
0.00614851
-1.8395
-3.23748e-07
0.00614807
-1.8395
-3.04573e-07
0.00614765
-1.8395
-2.77783e-07
0.00614725
-1.8395
-2.44529e-07
0.00614687
-1.8395
-2.06528e-07
0.00614654
-1.8395
-1.65672e-07
0.00614624
-1.8395
-1.23631e-07
0.00614599
-1.8395
-8.2326e-08
0.00614578
-1.8395
-4.20932e-08
0.00614562
-1.8395
-6.78766e-09
0.0061455
-1.8395
0.00614514
-1.83947
1.96744e-08
0.0196635
-1.84225
6.96809e-08
0.0196639
-1.84228
1.11676e-07
0.0196638
-1.84228
1.42956e-07
0.0196637
-1.84228
1.66925e-07
0.0196635
-1.84228
1.82597e-07
0.0196633
-1.84228
1.90231e-07
0.0196631
-1.84228
1.90005e-07
0.0196628
-1.84228
1.82727e-07
0.0196626
-1.84228
1.71256e-07
0.0196623
-1.84228
1.55246e-07
0.0196621
-1.84228
1.36841e-07
0.0196619
-1.84228
1.1754e-07
0.0196616
-1.84228
9.90322e-08
0.0196614
-1.84228
8.21521e-08
0.0196612
-1.84228
6.75788e-08
0.0196611
-1.84228
5.50627e-08
0.019661
-1.84228
4.61886e-08
0.0196609
-1.84227
3.69138e-08
0.0196608
-1.84227
0.0196603
-1.84225
-8.25365e-08
0.0363126
-1.83564
-1.51179e-07
0.0363131
-1.83566
-2.15141e-07
0.036313
-1.83566
-2.71734e-07
0.0363127
-1.83566
-3.18152e-07
0.0363125
-1.83566
-3.54307e-07
0.0363121
-1.83566
-3.7892e-07
0.0363117
-1.83566
-3.92273e-07
0.0363113
-1.83566
-3.94035e-07
0.0363109
-1.83566
-3.85065e-07
0.0363105
-1.83566
-3.65549e-07
0.03631
-1.83566
-3.36666e-07
0.0363096
-1.83566
-2.99836e-07
0.0363093
-1.83566
-2.56789e-07
0.0363089
-1.83566
-2.10328e-07
0.0363087
-1.83566
-1.62751e-07
0.0363084
-1.83566
-1.1623e-07
0.0363082
-1.83566
-7.03643e-08
0.0363081
-1.83566
-2.48866e-08
0.036308
-1.83566
0.0363074
-1.83564
-2.45311e-08
0.0457018
-1.83065
-2.57283e-08
0.0457024
-1.83067
-3.0388e-08
0.0457022
-1.83067
-3.75899e-08
0.045702
-1.83067
-4.49038e-08
0.0457018
-1.83067
-5.27482e-08
0.0457014
-1.83067
-6.08184e-08
0.0457011
-1.83067
-6.94807e-08
0.0457007
-1.83067
-7.83876e-08
0.0457003
-1.83067
-8.73003e-08
0.0456999
-1.83067
-9.5472e-08
0.0456995
-1.83067
-1.02061e-07
0.0456991
-1.83067
-1.05982e-07
0.0456988
-1.83067
-1.06005e-07
0.0456985
-1.83067
-1.01358e-07
0.0456982
-1.83067
-9.14288e-08
0.045698
-1.83067
-7.65067e-08
0.0456978
-1.83067
-5.43252e-08
0.0456977
-1.83067
-1.836e-08
0.0456976
-1.83067
0.045697
-1.83064
-1.03961e-07
0.0559987
-1.8312
-1.88206e-07
0.0559993
-1.83123
-2.67589e-07
0.0559991
-1.83123
-3.38369e-07
0.0559989
-1.83123
-3.97844e-07
0.0559985
-1.83123
-4.44582e-07
0.0559981
-1.83123
-4.77997e-07
0.0559977
-1.83123
-4.97769e-07
0.0559972
-1.83123
-5.04104e-07
0.0559967
-1.83123
-4.97158e-07
0.0559962
-1.83123
-4.77495e-07
0.0559957
-1.83123
-4.45642e-07
0.0559953
-1.83123
-4.03101e-07
0.0559948
-1.83123
-3.51793e-07
0.0559945
-1.83123
-2.94887e-07
0.0559942
-1.83123
-2.34817e-07
0.0559939
-1.83123
-1.73453e-07
0.0559937
-1.83123
-1.07961e-07
0.0559936
-1.83123
-4.02914e-08
0.0559936
-1.83123
0.0559929
-1.8312
-1.49411e-07
0.0659934
-1.83204
-2.81436e-07
0.065994
-1.83206
-4.04012e-07
0.0659937
-1.83206
-5.10976e-07
0.0659934
-1.83206
-5.99767e-07
0.0659929
-1.83206
-6.68133e-07
0.0659924
-1.83206
-7.15818e-07
0.0659918
-1.83206
-7.42866e-07
0.0659911
-1.83206
-7.50373e-07
0.0659905
-1.83206
-7.39565e-07
0.0659898
-1.83206
-7.11921e-07
0.0659892
-1.83206
-6.69051e-07
0.0659886
-1.83206
-6.1275e-07
0.065988
-1.83206
-5.45113e-07
0.0659875
-1.83206
-4.68765e-07
0.0659872
-1.83206
-3.85635e-07
0.0659869
-1.83206
-2.96865e-07
0.0659867
-1.83206
-1.99089e-07
0.0659866
-1.83206
-8.97205e-08
0.0659865
-1.83206
0.0659858
-1.83203
-4.69302e-08
0.0746096
-1.84067
-6.34665e-08
0.0746103
-1.84069
-8.35927e-08
0.0746101
-1.84069
-1.05219e-07
0.0746099
-1.84069
-1.26462e-07
0.0746096
-1.84069
-1.46248e-07
0.0746093
-1.84069
-1.64877e-07
0.074609
-1.84069
-1.81532e-07
0.0746086
-1.84069
-1.96243e-07
0.0746082
-1.84069
-2.07586e-07
0.0746077
-1.84069
-2.14984e-07
0.0746073
-1.84069
-2.16394e-07
0.074607
-1.84069
-2.11183e-07
0.0746066
-1.84069
-1.97867e-07
0.0746063
-1.84069
-1.7712e-07
0.0746061
-1.84069
-1.48996e-07
0.074606
-1.84069
-1.14697e-07
0.0746059
-1.84069
-7.20098e-08
0.0746059
-1.84069
-2.16718e-08
0.0746059
-1.84069
0.0746052
-1.84066
-2.20189e-07
0.0831639
-1.83985
-4.23922e-07
0.0831646
-1.83987
-6.12147e-07
0.0831643
-1.83987
-7.75563e-07
0.0831639
-1.83987
-9.12425e-07
0.0831635
-1.83987
-1.0189e-06
0.083163
-1.83987
-1.09385e-06
0.0831624
-1.83987
-1.1365e-06
0.0831618
-1.83987
-1.14796e-06
0.0831611
-1.83987
-1.12966e-06
0.0831605
-1.83987
-1.08381e-06
0.0831599
-1.83987
-1.01309e-06
0.0831593
-1.83987
-9.20721e-07
0.0831588
-1.83987
-8.10824e-07
0.0831584
-1.83987
-6.87932e-07
0.0831581
-1.83987
-5.56165e-07
0.0831578
-1.83987
-4.18466e-07
0.0831577
-1.83987
-2.73575e-07
0.0831577
-1.83987
-1.21431e-07
0.0831577
-1.83987
0.083157
-1.83984
-2.97733e-08
0.0873727
-1.85645
-1.45508e-08
0.0873734
-1.85648
-8.24473e-09
0.0873733
-1.85648
-1.13275e-08
0.0873732
-1.85648
-1.97094e-08
0.0873731
-1.85648
-3.16821e-08
0.0873729
-1.85648
-4.8134e-08
0.0873727
-1.85648
-6.7528e-08
0.0873724
-1.85648
-8.95922e-08
0.0873722
-1.85648
-1.11981e-07
0.087372
-1.85648
-1.33133e-07
0.0873717
-1.85648
-1.49658e-07
0.0873715
-1.85648
-1.59659e-07
0.0873714
-1.85648
-1.60357e-07
0.0873712
-1.85648
-1.50792e-07
0.0873712
-1.85648
-1.30671e-07
0.0873711
-1.85648
-1.00596e-07
0.0873712
-1.85647
-5.87885e-08
0.0873712
-1.85647
-8.65569e-09
0.0873713
-1.85647
0.0873706
-1.85645
-2.61049e-07
0.0914781
-1.85319
-5.00884e-07
0.0914788
-1.85321
-7.24688e-07
0.0914786
-1.85321
-9.17691e-07
0.0914784
-1.85321
-1.08119e-06
0.091478
-1.85321
-1.20938e-06
0.0914776
-1.85321
-1.30101e-06
0.0914772
-1.85321
-1.35294e-06
0.0914768
-1.85321
-1.36744e-06
0.0914763
-1.85321
-1.34477e-06
0.0914758
-1.85321
-1.28859e-06
0.0914754
-1.85321
-1.20147e-06
0.091475
-1.85321
-1.0885e-06
0.0914747
-1.85321
-9.54657e-07
0.0914744
-1.85321
-8.05646e-07
0.0914742
-1.85321
-6.46188e-07
0.0914741
-1.85321
-4.80038e-07
0.0914741
-1.85321
-3.09321e-07
0.0914741
-1.85321
-1.33291e-07
0.0914742
-1.85321
0.0914736
-1.85319
4.14312e-09
0.0867196
-1.8756
6.85236e-08
0.0867202
-1.87563
1.13988e-07
0.0867203
-1.87563
1.35827e-07
0.0867203
-1.87563
1.45852e-07
0.0867204
-1.87563
1.45051e-07
0.0867205
-1.87563
1.34651e-07
0.0867206
-1.87563
1.11461e-07
0.0867206
-1.87563
8.03237e-08
0.0867207
-1.87563
4.20317e-08
0.0867208
-1.87563
7.09565e-10
0.0867209
-1.87563
-4.07842e-08
0.086721
-1.87563
-7.69485e-08
0.0867211
-1.87563
-1.04755e-07
0.0867212
-1.87563
-1.20341e-07
0.0867214
-1.87563
-1.23433e-07
0.0867215
-1.87563
-1.09333e-07
0.0867216
-1.87563
-7.20293e-08
0.0867218
-1.87562
-1.42926e-08
0.0867219
-1.87562
0.0867214
-1.8756
-2.58744e-07
0.0813694
-1.86874
-4.89224e-07
0.0813698
-1.86876
-7.10993e-07
0.0813699
-1.86876
-9.15313e-07
0.0813699
-1.86876
-1.08966e-06
0.0813699
-1.86876
-1.22519e-06
0.0813699
-1.86876
-1.32292e-06
0.0813699
-1.86876
-1.38038e-06
0.0813699
-1.86876
-1.39917e-06
0.0813699
-1.86876
-1.38005e-06
0.08137
-1.86876
-1.32683e-06
0.08137
-1.86876
-1.24256e-06
0.0813701
-1.86876
-1.13271e-06
0.0813702
-1.86876
-1.0029e-06
0.0813703
-1.86876
-8.58412e-07
0.0813704
-1.86876
-7.06561e-07
0.0813705
-1.86876
-5.43288e-07
0.0813706
-1.86876
-3.57947e-07
0.0813708
-1.86876
-1.5685e-07
0.0813709
-1.86876
0.0813706
-1.86874
-6.34182e-09
0.0609396
-1.8897
7.20796e-08
0.06094
-1.88973
1.02367e-07
0.0609403
-1.88973
1.15156e-07
0.0609406
-1.88973
1.21078e-07
0.0609411
-1.88973
1.11902e-07
0.0609415
-1.88973
9.19625e-08
0.0609421
-1.88973
6.1479e-08
0.0609427
-1.88973
2.04253e-08
0.0609433
-1.88973
-2.89131e-08
0.0609439
-1.88973
-8.27772e-08
0.0609445
-1.88973
-1.36885e-07
0.0609451
-1.88973
-1.873e-07
0.0609456
-1.88973
-2.25529e-07
0.0609461
-1.88973
-2.49022e-07
0.0609465
-1.88973
-2.4763e-07
0.0609469
-1.88973
-2.26463e-07
0.0609472
-1.88973
-1.78301e-07
0.0609474
-1.88973
-6.72992e-08
0.0609475
-1.88973
0.0609474
-1.8897
-2.39573e-07
0.039363
-1.87769
-4.85544e-07
0.0393633
-1.87771
-7.60785e-07
0.0393635
-1.87771
-9.99747e-07
0.0393636
-1.87771
-1.19455e-06
0.0393638
-1.87771
-1.35267e-06
0.039364
-1.87771
-1.46711e-06
0.0393642
-1.87771
-1.53986e-06
0.0393644
-1.87771
-1.56925e-06
0.0393647
-1.87771
-1.55763e-06
0.0393649
-1.87771
-1.50777e-06
0.0393652
-1.87771
-1.42282e-06
0.0393654
-1.87771
-1.31135e-06
0.0393657
-1.87772
-1.17311e-06
0.0393659
-1.87772
-1.02348e-06
0.0393661
-1.87772
-8.58381e-07
0.0393663
-1.87772
-6.89057e-07
0.0393664
-1.87772
-5.04534e-07
0.0393666
-1.87772
-2.48022e-07
0.0393665
-1.87772
0.0393665
-1.87769
-2.2958e-09
-1.87687
-1.93339e-07
-1.8769
-3.75755e-07
-1.8769
-5.58499e-07
-1.8769
-6.84489e-07
-1.8769
-7.99535e-07
-1.8769
-8.89467e-07
-1.8769
-9.61288e-07
-1.8769
-1.01183e-06
-1.8769
-1.04033e-06
-1.8769
-1.04751e-06
-1.8769
-1.03372e-06
-1.8769
-9.97773e-07
-1.8769
-9.40817e-07
-1.8769
-8.68227e-07
-1.8769
-7.68432e-07
-1.8769
-6.86518e-07
-1.87691
-5.63929e-07
-1.87691
-3.965e-07
-1.87691
-1.87688
-1.26108e-07
0.00640586
-1.86059
-3.89681e-07
0.00640595
-1.86061
-5.91739e-07
0.00640561
-1.86061
-7.72856e-07
0.00640525
-1.86061
-9.12379e-07
0.00640475
-1.86061
-1.0281e-06
0.0064042
-1.86061
-1.10949e-06
0.00640357
-1.86061
-1.16206e-06
0.00640292
-1.86061
-1.18283e-06
0.00640224
-1.86061
-1.17497e-06
0.00640158
-1.86061
-1.13913e-06
0.00640093
-1.86061
-1.0789e-06
0.00640033
-1.86061
-9.97541e-07
0.00639977
-1.86061
-8.98066e-07
0.00639928
-1.86061
-7.87701e-07
0.00639886
-1.86062
-6.62624e-07
0.0063985
-1.86062
-5.42213e-07
0.00639822
-1.86062
-4.05876e-07
0.00639798
-1.86062
-2.97144e-07
0.00639788
-1.86062
0.00639757
-1.86059
-2.83206e-07
0.0063844
-1.85388
-5.20759e-07
0.00638452
-1.85391
-7.57223e-07
0.00638417
-1.85391
-9.65554e-07
0.00638373
-1.85391
-1.13792e-06
0.00638314
-1.85391
-1.27658e-06
0.00638247
-1.85391
-1.3741e-06
0.00638172
-1.85391
-1.43317e-06
0.00638092
-1.85391
-1.45252e-06
0.0063801
-1.85391
-1.43483e-06
0.00637928
-1.85391
-1.3824e-06
0.00637848
-1.85391
-1.29953e-06
0.00637773
-1.85391
-1.19139e-06
0.00637704
-1.85391
-1.06291e-06
0.00637642
-1.85391
-9.20592e-07
0.00637589
-1.85391
-7.6546e-07
0.00637544
-1.85391
-5.98341e-07
0.00637508
-1.85391
-4.16809e-07
0.00637478
-1.85391
-2.03374e-07
0.00637461
-1.85391
0.00637422
-1.85388
1.24083e-07
0.00609442
-1.86114
2.95463e-07
0.00609455
-1.86117
4.36421e-07
0.00609418
-1.86117
5.66518e-07
0.00609369
-1.86117
6.71598e-07
0.00609303
-1.86117
7.5035e-07
0.00609228
-1.86117
8.01231e-07
0.00609145
-1.86117
8.26369e-07
0.00609056
-1.86117
8.26303e-07
0.00608964
-1.86117
8.04281e-07
0.00608874
-1.86117
7.62408e-07
0.00608786
-1.86117
7.04303e-07
0.00608702
-1.86117
6.34345e-07
0.00608626
-1.86117
5.55674e-07
0.00608558
-1.86117
4.73827e-07
0.00608499
-1.86117
3.91183e-07
0.00608448
-1.86117
3.10281e-07
0.00608408
-1.86117
2.16897e-07
0.00608375
-1.86117
1.2689e-07
0.00608354
-1.86117
0.00608312
-1.86114
-1.00209e-07
0.00988121
-1.85116
-1.67596e-07
0.00988143
-1.85118
-2.344e-07
0.00988118
-1.85118
-2.95716e-07
0.00988086
-1.85118
-3.48542e-07
0.00988043
-1.85118
-3.86982e-07
0.00987993
-1.85118
-4.13709e-07
0.00987938
-1.85118
-4.27116e-07
0.00987879
-1.85118
-4.2802e-07
0.00987818
-1.85118
-4.16708e-07
0.00987758
-1.85118
-3.93932e-07
0.00987699
-1.85118
-3.62035e-07
0.00987644
-1.85118
-3.21735e-07
0.00987593
-1.85118
-2.77221e-07
0.00987548
-1.85118
-2.27457e-07
0.00987509
-1.85118
-1.79088e-07
0.00987475
-1.85118
-1.27071e-07
0.00987449
-1.85118
-7.13993e-08
0.00987427
-1.85118
-2.11565e-08
0.00987412
-1.85118
0.00987372
-1.85116
1.82181e-07
0.0135054
-1.85586
3.946e-07
0.0135057
-1.85589
5.87949e-07
0.0135056
-1.85589
7.51979e-07
0.0135055
-1.85589
8.86414e-07
0.0135053
-1.85589
9.89066e-07
0.0135051
-1.85589
1.05798e-06
0.0135049
-1.85589
1.09327e-06
0.0135047
-1.85589
1.09729e-06
0.0135044
-1.85589
1.07311e-06
0.0135042
-1.85589
1.02427e-06
0.013504
-1.85589
9.55282e-07
0.0135037
-1.85589
8.70162e-07
0.0135035
-1.85589
7.7374e-07
0.0135033
-1.85589
6.69312e-07
0.0135032
-1.85589
5.58676e-07
0.013503
-1.85589
4.42823e-07
0.0135029
-1.85589
3.19864e-07
0.0135028
-1.85589
1.77358e-07
0.0135027
-1.85589
0.0135023
-1.85586
-4.72858e-08
0.0213678
-1.84734
-7.94234e-08
0.0213682
-1.84737
-1.09574e-07
0.0213681
-1.84737
-1.30266e-07
0.0213679
-1.84737
-1.45836e-07
0.0213677
-1.84737
-1.56563e-07
0.0213675
-1.84737
-1.61078e-07
0.0213673
-1.84737
-1.59707e-07
0.021367
-1.84736
-1.52204e-07
0.0213667
-1.84736
-1.39346e-07
0.0213665
-1.84736
-1.21566e-07
0.0213662
-1.84736
-1.00125e-07
0.0213659
-1.84736
-7.60098e-08
0.0213657
-1.84736
-5.06891e-08
0.0213655
-1.84736
-2.53833e-08
0.0213653
-1.84736
-1.26609e-09
0.0213651
-1.84736
2.00587e-08
0.021365
-1.84736
3.0255e-08
0.0213649
-1.84736
2.88586e-08
0.0213648
-1.84736
0.0213643
-1.84734
6.22997e-08
0.0289076
-1.84979
1.53331e-07
0.028908
-1.84982
2.36044e-07
0.0289079
-1.84982
3.06967e-07
0.0289078
-1.84982
3.66119e-07
0.0289076
-1.84982
4.12403e-07
0.0289073
-1.84982
4.44952e-07
0.0289071
-1.84982
4.63704e-07
0.0289068
-1.84982
4.69785e-07
0.0289066
-1.84982
4.64135e-07
0.0289063
-1.84982
4.48448e-07
0.028906
-1.84982
4.24734e-07
0.0289058
-1.84982
3.94447e-07
0.0289055
-1.84982
3.59136e-07
0.0289053
-1.84982
3.19701e-07
0.0289051
-1.84982
2.75776e-07
0.0289049
-1.84981
2.2693e-07
0.0289048
-1.84981
1.7159e-07
0.0289047
-1.84981
1.04764e-07
0.0289046
-1.84981
0.0289041
-1.84979
-7.66467e-08
0.0391613
-1.84589
-1.45189e-07
0.0391617
-1.84592
-2.0703e-07
0.0391616
-1.84592
-2.56857e-07
0.0391614
-1.84592
-2.96613e-07
0.0391611
-1.84592
-3.26063e-07
0.0391608
-1.84592
-3.43946e-07
0.0391604
-1.84592
-3.50583e-07
0.0391601
-1.84592
-3.45724e-07
0.0391597
-1.84592
-3.3024e-07
0.0391593
-1.84592
-3.04771e-07
0.0391589
-1.84592
-2.70939e-07
0.0391585
-1.84592
-2.30449e-07
0.0391582
-1.84592
-1.86104e-07
0.0391579
-1.84592
-1.41129e-07
0.0391576
-1.84592
-9.73361e-08
0.0391574
-1.84591
-5.76273e-08
0.0391572
-1.84591
-2.5784e-08
0.0391571
-1.84591
1.22602e-10
0.039157
-1.84591
0.0391564
-1.84589
1.13053e-08
0.0423985
-1.83388
4.34161e-08
0.042399
-1.83391
7.36317e-08
0.0423989
-1.83391
1.02928e-07
0.0423988
-1.83391
1.29507e-07
0.0423986
-1.83391
1.52361e-07
0.0423984
-1.83391
1.70589e-07
0.0423982
-1.83391
1.83077e-07
0.042398
-1.83391
1.89471e-07
0.0423977
-1.83391
1.89608e-07
0.0423975
-1.83391
1.8369e-07
0.0423973
-1.83391
1.72726e-07
0.0423971
-1.83391
1.57894e-07
0.0423969
-1.83391
1.40915e-07
0.0423967
-1.83391
1.22832e-07
0.0423966
-1.83391
1.04725e-07
0.0423965
-1.83391
8.47603e-08
0.0423964
-1.83391
6.23409e-08
0.0423963
-1.83391
4.48592e-08
0.0423963
-1.83391
0.0423957
-1.83388
-8.09218e-08
0.0464095
-1.83522
-1.44355e-07
0.04641
-1.83524
-2.02266e-07
0.0464099
-1.83524
-2.50898e-07
0.0464098
-1.83524
-2.9126e-07
0.0464096
-1.83524
-3.21775e-07
0.0464094
-1.83524
-3.42293e-07
0.0464092
-1.83524
-3.52336e-07
0.0464089
-1.83524
-3.51748e-07
0.0464087
-1.83524
-3.40594e-07
0.0464084
-1.83524
-3.18939e-07
0.0464082
-1.83524
-2.87454e-07
0.0464079
-1.83524
-2.47546e-07
0.0464077
-1.83524
-2.01961e-07
0.0464075
-1.83524
-1.54224e-07
0.0464074
-1.83524
-1.07032e-07
0.0464072
-1.83524
-6.31297e-08
0.0464072
-1.83524
-2.27077e-08
0.0464071
-1.83524
9.34668e-09
0.0464071
-1.83524
0.0464066
-1.83521
-1.0458e-07
0.0499743
-1.8356
-1.98645e-07
0.0499749
-1.83563
-2.82489e-07
0.0499748
-1.83563
-3.50759e-07
0.0499748
-1.83563
-4.05733e-07
0.0499747
-1.83563
-4.45539e-07
0.0499746
-1.83563
-4.71111e-07
0.0499746
-1.83563
-4.82324e-07
0.0499745
-1.83563
-4.80964e-07
0.0499744
-1.83563
-4.67937e-07
0.0499743
-1.83563
-4.44522e-07
0.0499742
-1.83562
-4.11948e-07
0.0499742
-1.83562
-3.71225e-07
0.0499741
-1.83562
-3.23626e-07
0.0499741
-1.83562
-2.70654e-07
0.049974
-1.83562
-2.13693e-07
0.049974
-1.83562
-1.54963e-07
0.049974
-1.83562
-9.55573e-08
0.049974
-1.83562
-3.40654e-08
0.0499741
-1.83562
0.0499736
-1.8356
-1.73203e-08
0.0520118
-1.8427
-4.11839e-09
0.0520124
-1.84273
7.7402e-09
0.0520124
-1.84273
1.92098e-08
0.0520124
-1.84273
2.84642e-08
0.0520125
-1.84273
3.65897e-08
0.0520125
-1.84273
4.19146e-08
0.0520126
-1.84273
4.49013e-08
0.0520126
-1.84273
4.51e-08
0.0520127
-1.84273
4.36638e-08
0.0520127
-1.84273
4.13963e-08
0.0520128
-1.84273
4.00877e-08
0.0520129
-1.84273
4.08485e-08
0.0520129
-1.84273
4.4458e-08
0.052013
-1.84273
5.04305e-08
0.052013
-1.84273
5.73124e-08
0.0520131
-1.84273
6.22673e-08
0.0520132
-1.84273
6.26782e-08
0.0520132
-1.84273
5.52965e-08
0.0520133
-1.84273
0.0520129
-1.8427
-2.05628e-07
0.0537032
-1.84154
-4.02557e-07
0.0537037
-1.84156
-5.83842e-07
0.0537037
-1.84156
-7.33286e-07
0.0537038
-1.84156
-8.58822e-07
0.0537039
-1.84156
-9.55293e-07
0.053704
-1.84156
-1.02265e-06
0.0537041
-1.84156
-1.05931e-06
0.0537042
-1.84156
-1.06687e-06
0.0537043
-1.84156
-1.04682e-06
0.0537045
-1.84156
-1.0013e-06
0.0537046
-1.84156
-9.32772e-07
0.0537047
-1.84156
-8.44037e-07
0.0537048
-1.84156
-7.38995e-07
0.0537049
-1.84156
-6.20572e-07
0.0537051
-1.84156
-4.93045e-07
0.0537052
-1.84156
-3.58869e-07
0.0537053
-1.84156
-2.27834e-07
0.0537054
-1.84156
-9.81405e-08
0.0537055
-1.84156
0.0537051
-1.84153
3.09516e-09
0.0514574
-1.85421
4.93059e-08
0.0514579
-1.85423
9.12621e-08
0.051458
-1.85423
1.22407e-07
0.0514582
-1.85423
1.47283e-07
0.0514585
-1.85423
1.66665e-07
0.0514588
-1.85423
1.77691e-07
0.0514591
-1.85423
1.79428e-07
0.0514595
-1.85423
1.71886e-07
0.0514599
-1.85423
1.61136e-07
0.0514603
-1.85423
1.46101e-07
0.0514606
-1.85423
1.29536e-07
0.051461
-1.85423
1.14384e-07
0.0514613
-1.85423
1.03725e-07
0.0514616
-1.85423
9.8511e-08
0.0514619
-1.85423
9.69064e-08
0.0514621
-1.85423
9.63262e-08
0.0514623
-1.85423
9.40235e-08
0.0514625
-1.85423
7.91858e-08
0.0514626
-1.85423
0.0514623
-1.85421
-2.85205e-07
0.0488777
-1.85061
-5.59008e-07
0.0488781
-1.85063
-8.15832e-07
0.0488782
-1.85063
-1.02365e-06
0.0488784
-1.85063
-1.2021e-06
0.0488787
-1.85063
-1.34345e-06
0.048879
-1.85063
-1.44591e-06
0.0488793
-1.85063
-1.50482e-06
0.0488797
-1.85063
-1.52308e-06
0.04888
-1.85063
-1.50068e-06
0.0488804
-1.85063
-1.44179e-06
0.0488808
-1.85063
-1.34887e-06
0.0488811
-1.85063
-1.22667e-06
0.0488815
-1.85063
-1.08002e-06
0.0488818
-1.85063
-9.12544e-07
0.048882
-1.85063
-7.28495e-07
0.0488823
-1.85063
-5.29532e-07
0.0488825
-1.85063
-3.38295e-07
0.0488827
-1.85063
-1.47241e-07
0.0488828
-1.85063
0.0488826
-1.85061
3.99516e-08
0.0402945
-1.86702
1.39003e-07
0.0402949
-1.86705
2.20855e-07
0.0402951
-1.86705
2.72642e-07
0.0402955
-1.86705
3.12134e-07
0.0402959
-1.86705
3.41976e-07
0.0402965
-1.86705
3.55027e-07
0.0402971
-1.86705
3.53488e-07
0.0402977
-1.86705
3.36643e-07
0.0402984
-1.86705
3.07e-07
0.0402991
-1.86705
2.67425e-07
0.0402997
-1.86705
2.23811e-07
0.0403003
-1.86705
1.8069e-07
0.0403009
-1.86705
1.42515e-07
0.0403014
-1.86705
1.12599e-07
0.0403018
-1.86705
8.88342e-08
0.0403022
-1.86705
7.35881e-08
0.0403024
-1.86705
7.1914e-08
0.0403027
-1.86704
6.35721e-08
0.0403028
-1.86704
0.0403027
-1.86702
-3.42873e-07
0.0314914
-1.85993
-6.61389e-07
0.0314916
-1.85996
-9.6077e-07
0.0314918
-1.85996
-1.24262e-06
0.031492
-1.85996
-1.4842e-06
0.0314924
-1.85996
-1.67225e-06
0.0314927
-1.85996
-1.81007e-06
0.0314931
-1.85996
-1.8943e-06
0.0314936
-1.85996
-1.92568e-06
0.031494
-1.85996
-1.90583e-06
0.0314945
-1.85996
-1.83941e-06
0.0314949
-1.85996
-1.73049e-06
0.0314954
-1.85996
-1.58511e-06
0.0314957
-1.85996
-1.41069e-06
0.0314961
-1.85996
-1.21311e-06
0.0314964
-1.85996
-1.00367e-06
0.0314967
-1.85996
-7.74061e-07
0.0314969
-1.85996
-5.08496e-07
0.031497
-1.85996
-2.32024e-07
0.0314971
-1.85996
0.0314972
-1.85993
3.91788e-08
0.0170506
-1.87526
1.18892e-07
0.0170507
-1.87529
1.52528e-07
0.0170511
-1.87529
1.89924e-07
0.0170514
-1.87529
2.19133e-07
0.0170519
-1.87529
2.30103e-07
0.0170525
-1.87529
2.27889e-07
0.0170531
-1.87529
2.08283e-07
0.0170538
-1.87529
1.73801e-07
0.0170545
-1.87529
1.26561e-07
0.0170552
-1.87529
6.94369e-08
0.0170559
-1.87529
9.11705e-09
0.0170565
-1.87529
-4.98488e-08
0.0170571
-1.87529
-9.7491e-08
0.0170575
-1.87529
-1.3009e-07
0.0170579
-1.87529
-1.3653e-07
0.0170583
-1.87529
-1.24516e-07
0.0170585
-1.87529
-1.14388e-07
0.0170587
-1.87529
-5.60702e-08
0.0170587
-1.87529
0.0170588
-1.87526
-3.67548e-07
0.00318519
-1.86382
-7.57083e-07
0.00318546
-1.86385
-1.15782e-06
0.00318599
-1.86385
-1.50947e-06
0.00318645
-1.86385
-1.8038e-06
0.00318707
-1.86385
-2.04445e-06
0.00318777
-1.86385
-2.22213e-06
0.00318856
-1.86385
-2.33846e-06
0.0031894
-1.86385
-2.39043e-06
0.00319028
-1.86385
-2.3813e-06
0.00319116
-1.86385
-2.31587e-06
0.00319201
-1.86385
-2.19966e-06
0.00319281
-1.86385
-2.041e-06
0.00319353
-1.86385
-1.84729e-06
0.00319417
-1.86385
-1.62725e-06
0.0031947
-1.86385
-1.37977e-06
0.00319514
-1.86385
-1.10676e-06
0.00319546
-1.86385
-8.07256e-07
0.00319572
-1.86385
-4.2903e-07
0.00319569
-1.86385
0.00319569
-1.86383
-9.56402e-08
-1.87369
-5.63322e-07
-1.87371
-9.94536e-07
-1.87371
-1.35165e-06
-1.87371
-1.62701e-06
-1.87371
-1.85675e-06
-1.87371
-2.02889e-06
-1.87371
-2.14863e-06
-1.87371
-2.21153e-06
-1.87371
-2.21887e-06
-1.87371
-2.17278e-06
-1.87371
-2.07711e-06
-1.87371
-1.939e-06
-1.87371
-1.76288e-06
-1.87371
-1.56464e-06
-1.87371
-1.33655e-06
-1.87371
-1.11928e-06
-1.87371
-9.07303e-07
-1.87371
-6.61812e-07
-1.87371
-1.87369
-3.11204e-07
-0.00200815
-1.85858
-6.60906e-07
-0.00200803
-1.8586
-8.74395e-07
-0.00200818
-1.8586
-1.11148e-06
-0.00200832
-1.8586
-1.30171e-06
-0.00200856
-1.8586
-1.46311e-06
-0.00200882
-1.8586
-1.57767e-06
-0.00200911
-1.8586
-1.65099e-06
-0.00200942
-1.8586
-1.67958e-06
-0.00200975
-1.8586
-1.66751e-06
-0.00201007
-1.8586
-1.61644e-06
-0.00201038
-1.8586
-1.53117e-06
-0.00201067
-1.8586
-1.41633e-06
-0.00201095
-1.8586
-1.27516e-06
-0.00201119
-1.8586
-1.11708e-06
-0.0020114
-1.8586
-9.31819e-07
-0.00201159
-1.8586
-7.36849e-07
-0.00201172
-1.8586
-4.63917e-07
-0.00201187
-1.8586
-2.79128e-07
-0.00201194
-1.8586
-0.00201218
-1.85858
-3.58172e-07
-0.000758897
-1.85513
-5.62489e-07
-0.000758889
-1.85516
-7.71292e-07
-0.00075906
-1.85516
-9.68285e-07
-0.000759241
-1.85516
-1.13852e-06
-0.000759518
-1.85516
-1.27854e-06
-0.000759824
-1.85516
-1.38025e-06
-0.000760177
-1.85516
-1.44501e-06
-0.00076055
-1.85516
-1.47084e-06
-0.000760937
-1.85516
-1.46018e-06
-0.000761325
-1.85516
-1.41591e-06
-0.000761702
-1.85516
-1.33935e-06
-0.000762065
-1.85516
-1.2377e-06
-0.000762395
-1.85516
-1.11357e-06
-0.000762693
-1.85516
-9.72433e-07
-0.000762944
-1.85516
-8.10894e-07
-0.000763166
-1.85516
-6.26551e-07
-0.000763333
-1.85516
-4.07133e-07
-0.000763505
-1.85516
-1.45498e-07
-0.000763588
-1.85516
-0.000763731
-1.85513
5.58029e-08
-0.000345502
-1.86155
2.22655e-07
-0.000345514
-1.86158
3.48491e-07
-0.000345662
-1.86158
4.70075e-07
-0.000345863
-1.86158
5.67068e-07
-0.000346129
-1.86158
6.39572e-07
-0.000346428
-1.86158
6.87827e-07
-0.000346773
-1.86158
7.14062e-07
-0.000347141
-1.86158
7.19669e-07
-0.000347525
-1.86158
7.06499e-07
-0.00034791
-1.86158
6.77885e-07
-0.000348287
-1.86158
6.33555e-07
-0.000348647
-1.86158
5.79935e-07
-0.000348979
-1.86158
5.17922e-07
-0.000349278
-1.86158
4.542e-07
-0.000349536
-1.86158
3.89753e-07
-0.000349762
-1.86158
3.28102e-07
-0.000349936
-1.86158
2.45365e-07
-0.000350078
-1.86158
1.79132e-07
-0.000350177
-1.86158
-0.000350291
-1.86155
-1.10877e-07
0.00488305
-1.85638
-1.61015e-07
0.00488309
-1.85641
-2.1562e-07
0.00488291
-1.85641
-2.70064e-07
0.00488267
-1.85641
-3.17795e-07
0.00488235
-1.85641
-3.51917e-07
0.00488197
-1.85641
-3.75386e-07
0.00488154
-1.85641
-3.86715e-07
0.00488109
-1.85641
-3.86419e-07
0.00488062
-1.85641
-3.75082e-07
0.00488015
-1.85641
-3.53102e-07
0.00487969
-1.85641
-3.2352e-07
0.00487925
-1.85641
-2.86516e-07
0.00487885
-1.85641
-2.46506e-07
0.00487849
-1.85641
-2.02556e-07
0.00487817
-1.85641
-1.597e-07
0.0048779
-1.85641
-1.11562e-07
0.00487768
-1.85641
-5.53345e-08
0.00487748
-1.85641
1.0521e-09
0.00487735
-1.85641
0.00487716
-1.85638
1.66907e-07
0.00965826
-1.86064
3.89877e-07
0.00965837
-1.86067
5.8892e-07
0.0096582
-1.86067
7.5961e-07
0.00965797
-1.86067
9.00543e-07
0.00965765
-1.86067
1.01101e-06
0.00965728
-1.86067
1.08794e-06
0.00965686
-1.86067
1.13261e-06
0.00965642
-1.86067
1.14596e-06
0.00965595
-1.86067
1.13165e-06
0.00965549
-1.86067
1.09214e-06
0.00965503
-1.86067
1.03145e-06
0.00965459
-1.86067
9.52879e-07
0.00965419
-1.86067
8.60502e-07
0.00965382
-1.86067
7.57376e-07
0.00965349
-1.86067
6.43172e-07
0.00965322
-1.86067
5.19843e-07
0.00965299
-1.86067
3.83381e-07
0.00965278
-1.86066
2.28858e-07
0.00965264
-1.86066
0.00965238
-1.86064
-8.36292e-09
0.0182685
-1.85595
9.50185e-09
0.0182687
-1.85598
2.35214e-08
0.0182685
-1.85598
4.37699e-08
0.0182683
-1.85598
6.25041e-08
0.0182681
-1.85598
7.84695e-08
0.0182677
-1.85598
9.33837e-08
0.0182674
-1.85598
1.06903e-07
0.018267
-1.85598
1.19629e-07
0.0182666
-1.85598
1.31032e-07
0.0182662
-1.85598
1.41221e-07
0.0182658
-1.85597
1.49314e-07
0.0182655
-1.85597
1.55215e-07
0.0182651
-1.85597
1.57849e-07
0.0182648
-1.85597
1.57109e-07
0.0182645
-1.85597
1.53645e-07
0.0182643
-1.85597
1.46427e-07
0.0182641
-1.85597
1.21652e-07
0.0182639
-1.85597
8.1225e-08
0.0182638
-1.85597
0.0182634
-1.85595
7.91077e-08
0.0266767
-1.8582
1.99677e-07
0.026677
-1.85823
3.08667e-07
0.0266769
-1.85823
4.04125e-07
0.0266768
-1.85823
4.84913e-07
0.0266765
-1.85823
5.50447e-07
0.0266763
-1.85823
5.99311e-07
0.026676
-1.85823
6.31395e-07
0.0266757
-1.85823
6.47627e-07
0.0266754
-1.85823
6.48703e-07
0.0266751
-1.85823
6.36538e-07
0.0266748
-1.85822
6.12165e-07
0.0266745
-1.85822
5.77321e-07
0.0266743
-1.85822
5.32704e-07
0.026674
-1.85822
4.79432e-07
0.0266738
-1.85822
4.16381e-07
0.0266736
-1.85822
3.43146e-07
0.0266734
-1.85822
2.57211e-07
0.0266733
-1.85822
1.57539e-07
0.0266732
-1.85822
0.0266728
-1.8582
-5.04455e-08
0.0369446
-1.85616
-8.27246e-08
0.0369451
-1.85619
-1.12837e-07
0.0369449
-1.85619