/*--------------------------------*- C++ -*----------------------------------*\
| =========                 |                                                 |
| \\      /  F ield         | OpenFOAM: The Open Source CFD Toolbox           |
|  \\    /   O peration     | Version:  2212                                  |
|   \\  /    A nd           | Website:  www.openfoam.com                      |
|    \\/     M anipulation  |                                                 |
\*---------------------------------------------------------------------------*/
FoamFile
{
    version     2.0;
    format      ascii;
    arch        "LSB;label=32;scalar=64";
    class       volVectorField;
    location    "0.182";
    object      U;
}
// * * * * * * * * * * * * * * * * * * * * * * * * * * * * * * * * * * * * * //

dimensions      [0 1 -1 0 0 0 0];

internalField   nonuniform List<vector> 
24240
(
(9.14988 0.70619 9.80549e-07)
(9.15 0.7062 -4.04807e-07)
(9.15 0.706199 -4.32901e-08)
(9.15 0.706197 -4.50475e-07)
(9.15 0.706195 -4.5475e-07)
(9.15 0.706192 -6.40639e-07)
(9.15001 0.706189 -7.36307e-07)
(9.15001 0.706186 -8.7434e-07)
(9.15001 0.706183 -9.84041e-07)
(9.15001 0.70618 -1.08974e-06)
(9.15002 0.706177 -1.16388e-06)
(9.15002 0.706174 -1.21344e-06)
(9.15002 0.706172 -1.22117e-06)
(9.15002 0.70617 -1.2094e-06)
(9.15003 0.706168 -1.12798e-06)
(9.15003 0.706167 -1.08853e-06)
(9.15003 0.706165 -8.46714e-07)
(9.15003 0.706164 -9.55646e-07)
(9.15003 0.706164 -2.86612e-07)
(9.14991 0.706153 -1.28694e-06)
(9.0813 0.708998 -7.40204e-07)
(9.08143 0.70901 -1.76788e-06)
(9.08143 0.70901 -2.71473e-06)
(9.08143 0.709012 -3.74924e-06)
(9.08143 0.709014 -4.49795e-06)
(9.08144 0.709016 -5.16744e-06)
(9.08144 0.709018 -5.61168e-06)
(9.08144 0.709021 -5.90593e-06)
(9.08145 0.709024 -6.00787e-06)
(9.08145 0.709026 -5.95466e-06)
(9.08145 0.709029 -5.74886e-06)
(9.08145 0.709032 -5.41773e-06)
(9.08146 0.709034 -4.97324e-06)
(9.08146 0.709036 -4.45681e-06)
(9.08146 0.709038 -3.86466e-06)
(9.08146 0.70904 -3.2847e-06)
(9.08147 0.709041 -2.60877e-06)
(9.08147 0.709042 -2.02687e-06)
(9.08147 0.709043 -1.18942e-06)
(9.08134 0.709032 -3.01121e-07)
(9.11721 0.43012 9.31469e-08)
(9.11733 0.430128 9.37675e-07)
(9.11733 0.430129 1.78896e-06)
(9.11733 0.430129 2.32992e-06)
(9.11733 0.43013 2.88548e-06)
(9.11733 0.430132 3.22662e-06)
(9.11733 0.430133 3.47732e-06)
(9.11732 0.430134 3.57432e-06)
(9.11732 0.430136 3.5618e-06)
(9.11732 0.430137 3.43722e-06)
(9.11732 0.430139 3.2258e-06)
(9.11731 0.43014 2.9421e-06)
(9.11731 0.430141 2.61055e-06)
(9.11731 0.430143 2.24143e-06)
(9.11731 0.430144 1.88206e-06)
(9.11731 0.430145 1.49469e-06)
(9.1173 0.430145 1.20418e-06)
(9.1173 0.430146 8.25738e-07)
(9.1173 0.430147 6.1428e-07)
(9.11718 0.430139 3.61622e-07)
(8.99549 0.425043 -4.19238e-07)
(8.99561 0.425051 -1.08074e-06)
(8.99561 0.425051 -1.62323e-06)
(8.99561 0.42505 -2.19981e-06)
(8.99561 0.42505 -2.65046e-06)
(8.99561 0.425049 -3.02929e-06)
(8.99561 0.425049 -3.28299e-06)
(8.99562 0.425048 -3.44303e-06)
(8.99562 0.425048 -3.4924e-06)
(8.99562 0.425047 -3.44849e-06)
(8.99562 0.425047 -3.31336e-06)
(8.99562 0.425046 -3.10198e-06)
(8.99562 0.425046 -2.82317e-06)
(8.99562 0.425045 -2.49866e-06)
(8.99562 0.425045 -2.13177e-06)
(8.99562 0.425045 -1.7665e-06)
(8.99562 0.425045 -1.36858e-06)
(8.99562 0.425045 -1.00206e-06)
(8.99562 0.425045 -5.22897e-07)
(8.9955 0.425037 -1.36688e-07)
(9.01971 0.242316 1.26203e-07)
(9.01984 0.24232 7.26663e-07)
(9.01984 0.242321 1.34551e-06)
(9.01983 0.242321 1.79298e-06)
(9.01983 0.242322 2.18559e-06)
(9.01983 0.242323 2.45889e-06)
(9.01983 0.242324 2.64742e-06)
(9.01983 0.242325 2.72674e-06)
(9.01982 0.242326 2.71818e-06)
(9.01982 0.242327 2.62612e-06)
(9.01982 0.242328 2.46879e-06)
(9.01982 0.242329 2.26041e-06)
(9.01981 0.242329 2.01868e-06)
(9.01981 0.24233 1.75405e-06)
(9.01981 0.242331 1.49148e-06)
(9.01981 0.242331 1.22281e-06)
(9.01981 0.242332 9.80431e-07)
(9.01981 0.242332 7.22746e-07)
(9.01981 0.242333 5.28326e-07)
(9.01968 0.242328 2.55968e-07)
(8.92678 0.235365 -2.29821e-07)
(8.9269 0.235369 -5.64533e-07)
(8.9269 0.235369 -8.31861e-07)
(8.9269 0.235368 -1.11683e-06)
(8.9269 0.235367 -1.33071e-06)
(8.9269 0.235366 -1.51987e-06)
(8.9269 0.235365 -1.64639e-06)
(8.92691 0.235364 -1.72835e-06)
(8.92691 0.235363 -1.75158e-06)
(8.92691 0.235362 -1.72685e-06)
(8.92691 0.235361 -1.65282e-06)
(8.92691 0.23536 -1.53792e-06)
(8.92691 0.235359 -1.38361e-06)
(8.92691 0.235358 -1.20517e-06)
(8.92691 0.235357 -9.96823e-07)
(8.92691 0.235357 -7.92849e-07)
(8.92691 0.235356 -5.60385e-07)
(8.92691 0.235356 -3.67055e-07)
(8.92691 0.235355 -1.30614e-07)
(8.92678 0.235351 -6.16267e-10)
(8.94253 0.108335 -2.06375e-08)
(8.94265 0.108337 1.90447e-07)
(8.94265 0.108337 4.2622e-07)
(8.94265 0.108337 5.74588e-07)
(8.94265 0.108337 7.0385e-07)
(8.94265 0.108337 7.86785e-07)
(8.94265 0.108337 8.37442e-07)
(8.94265 0.108336 8.46786e-07)
(8.94265 0.108336 8.26129e-07)
(8.94265 0.108336 7.74458e-07)
(8.94265 0.108336 7.01752e-07)
(8.94265 0.108336 6.15429e-07)
(8.94264 0.108335 5.25297e-07)
(8.94264 0.108335 4.33537e-07)
(8.94264 0.108335 3.55807e-07)
(8.94264 0.108335 2.82397e-07)
(8.94264 0.108335 2.32965e-07)
(8.94264 0.108335 1.7843e-07)
(8.94264 0.108334 1.79437e-07)
(8.94251 0.108332 1.27139e-07)
(8.89488 0.097431 -2.217e-07)
(8.895 0.0974327 -6.09484e-07)
(8.895 0.0974325 -9.35801e-07)
(8.895 0.0974321 -1.26091e-06)
(8.895 0.0974315 -1.51904e-06)
(8.895 0.0974309 -1.73882e-06)
(8.89501 0.0974302 -1.89442e-06)
(8.89501 0.0974295 -1.99682e-06)
(8.89501 0.0974288 -2.03789e-06)
(8.89501 0.097428 -2.02413e-06)
(8.89501 0.0974273 -1.95463e-06)
(8.89501 0.0974266 -1.83641e-06)
(8.89501 0.0974259 -1.66968e-06)
(8.89501 0.0974252 -1.47239e-06)
(8.89501 0.0974246 -1.23992e-06)
(8.89501 0.0974241 -1.00918e-06)
(8.89501 0.0974236 -7.53242e-07)
(8.89501 0.0974232 -5.31572e-07)
(8.89501 0.0974229 -2.55629e-07)
(8.89489 0.0974209 -5.60379e-08)
(8.90596 -0.000300726 -1.12966e-07)
(8.90609 -0.000300779 -1.46007e-07)
(8.90609 -0.000300898 -1.60558e-07)
(8.90609 -0.000301039 -2.12578e-07)
(8.90609 -0.000301235 -2.55511e-07)
(8.90609 -0.000301459 -3.04912e-07)
(8.90609 -0.000301718 -3.51028e-07)
(8.90609 -0.000301997 -4.00184e-07)
(8.90609 -0.000302295 -4.4864e-07)
(8.90609 -0.000302604 -4.97825e-07)
(8.90609 -0.000302919 -5.43008e-07)
(8.90609 -0.000303232 -5.83339e-07)
(8.90609 -0.000303538 -6.09236e-07)
(8.90609 -0.000303827 -6.22939e-07)
(8.90608 -0.000304094 -6.05531e-07)
(8.90608 -0.000304329 -5.73654e-07)
(8.90608 -0.000304533 -4.93171e-07)
(8.90608 -0.000304694 -4.06128e-07)
(8.90608 -0.000304814 -2.27488e-07)
(8.90596 -0.000304835 -1.84543e-08)
(8.90427 -0.0182565 -2.85494e-07)
(8.9044 -0.0182574 -7.52043e-07)
(8.9044 -0.0182582 -1.15675e-06)
(8.9044 -0.0182593 -1.54919e-06)
(8.9044 -0.0182607 -1.87861e-06)
(8.9044 -0.0182623 -2.15347e-06)
(8.9044 -0.0182641 -2.35829e-06)
(8.9044 -0.0182661 -2.49743e-06)
(8.9044 -0.0182681 -2.56688e-06)
(8.9044 -0.01827 -2.57024e-06)
(8.9044 -0.018272 -2.50706e-06)
(8.9044 -0.0182738 -2.38312e-06)
(8.9044 -0.0182754 -2.19685e-06)
(8.9044 -0.0182769 -1.96679e-06)
(8.9044 -0.0182782 -1.68849e-06)
(8.9044 -0.0182793 -1.40334e-06)
(8.90439 -0.0182802 -1.08204e-06)
(8.90439 -0.0182808 -7.85756e-07)
(8.90439 -0.0182813 -3.92011e-07)
(8.90427 -0.018281 -6.20363e-08)
(8.90981 -0.109034 -3.82457e-07)
(8.90993 -0.109036 -1.10085e-06)
(8.90993 -0.109036 -1.73127e-06)
(8.90993 -0.109035 -2.32128e-06)
(8.90993 -0.109034 -2.81324e-06)
(8.90993 -0.109034 -3.21433e-06)
(8.90993 -0.109033 -3.50758e-06)
(8.90993 -0.109032 -3.69893e-06)
(8.90993 -0.109031 -3.78881e-06)
(8.90993 -0.10903 -3.7842e-06)
(8.90993 -0.109029 -3.69127e-06)
(8.90993 -0.109028 -3.51999e-06)
(8.90993 -0.109027 -3.2735e-06)
(8.90993 -0.109027 -2.96999e-06)
(8.90992 -0.109026 -2.60513e-06)
(8.90992 -0.109026 -2.2166e-06)
(8.90992 -0.109026 -1.76846e-06)
(8.90992 -0.109026 -1.32769e-06)
(8.90992 -0.109025 -7.5514e-07)
(8.9098 -0.109023 -2.08728e-07)
(8.95875 -0.126682 -1.79442e-07)
(8.95888 -0.126685 -2.96602e-07)
(8.95888 -0.126685 -3.86013e-07)
(8.95887 -0.126686 -5.08413e-07)
(8.95887 -0.126686 -6.23612e-07)
(8.95887 -0.126687 -7.35764e-07)
(8.95887 -0.126688 -8.37822e-07)
(8.95887 -0.126689 -9.32721e-07)
(8.95887 -0.126691 -1.01609e-06)
(8.95886 -0.126692 -1.08685e-06)
(8.95886 -0.126693 -1.1375e-06)
(8.95886 -0.126694 -1.16542e-06)
(8.95886 -0.126695 -1.15674e-06)
(8.95886 -0.126696 -1.1172e-06)
(8.95885 -0.126697 -1.02534e-06)
(8.95885 -0.126697 -9.10796e-07)
(8.95885 -0.126698 -7.35249e-07)
(8.95885 -0.126698 -5.57871e-07)
(8.95885 -0.126698 -2.71818e-07)
(8.95872 -0.126696 1.21659e-08)
(8.95503 -0.237681 -5.34898e-07)
(8.95516 -0.237685 -1.63764e-06)
(8.95516 -0.237685 -2.59851e-06)
(8.95516 -0.237685 -3.49359e-06)
(8.95516 -0.237685 -4.23946e-06)
(8.95516 -0.237684 -4.85497e-06)
(8.95516 -0.237684 -5.30863e-06)
(8.95516 -0.237683 -5.60572e-06)
(8.95516 -0.237683 -5.74279e-06)
(8.95516 -0.237683 -5.72893e-06)
(8.95516 -0.237682 -5.57198e-06)
(8.95516 -0.237682 -5.28592e-06)
(8.95516 -0.237682 -4.88157e-06)
(8.95516 -0.237682 -4.3842e-06)
(8.95515 -0.237682 -3.79848e-06)
(8.95515 -0.237681 -3.17764e-06)
(8.95515 -0.237681 -2.48127e-06)
(8.95515 -0.237681 -1.81212e-06)
(8.95515 -0.237681 -9.95268e-07)
(8.95503 -0.237677 -2.90105e-07)
(9.05746 -0.249745 -1.719e-07)
(9.05759 -0.24975 -1.27484e-07)
(9.05759 -0.249751 -5.93816e-08)
(9.05759 -0.249751 -7.41249e-08)
(9.05758 -0.249751 -1.10732e-07)
(9.05758 -0.249752 -1.7059e-07)
(9.05758 -0.249752 -2.46037e-07)
(9.05758 -0.249753 -3.4252e-07)
(9.05757 -0.249754 -4.50275e-07)
(9.05757 -0.249754 -5.67411e-07)
(9.05757 -0.249755 -6.79735e-07)
(9.05756 -0.249755 -7.81072e-07)
(9.05756 -0.249756 -8.48912e-07)
(9.05756 -0.249756 -8.83233e-07)
(9.05755 -0.249757 -8.53969e-07)
(9.05755 -0.249757 -7.8703e-07)
(9.05755 -0.249757 -6.45836e-07)
(9.05755 -0.249758 -4.79866e-07)
(9.05755 -0.249758 -2.00285e-07)
(9.05742 -0.249753 7.11162e-08)
(9.04199 -0.409645 -6.3066e-07)
(9.04212 -0.409653 -1.93082e-06)
(9.04212 -0.409652 -3.05784e-06)
(9.04212 -0.409652 -4.12291e-06)
(9.04212 -0.409651 -4.99469e-06)
(9.04212 -0.409651 -5.73468e-06)
(9.04212 -0.40965 -6.2792e-06)
(9.04212 -0.40965 -6.63982e-06)
(9.04212 -0.409649 -6.80463e-06)
(9.04212 -0.409649 -6.78576e-06)
(9.04212 -0.409648 -6.59011e-06)
(9.04212 -0.409648 -6.23582e-06)
(9.04212 -0.409647 -5.73804e-06)
(9.04212 -0.409647 -5.12823e-06)
(9.04212 -0.409647 -4.41605e-06)
(9.04212 -0.409647 -3.66724e-06)
(9.04212 -0.409647 -2.8219e-06)
(9.04212 -0.409647 -2.03465e-06)
(9.04213 -0.409647 -1.08613e-06)
(9.042 -0.409639 -3.10845e-07)
(9.19487 -0.414757 -1.3263e-07)
(9.195 -0.414765 1.69566e-07)
(9.195 -0.414765 4.85097e-07)
(9.195 -0.414765 6.09222e-07)
(9.19499 -0.414765 6.85589e-07)
(9.19499 -0.414765 7.02719e-07)
(9.19499 -0.414765 6.77963e-07)
(9.19498 -0.414765 5.87239e-07)
(9.19498 -0.414765 4.55723e-07)
(9.19498 -0.414765 2.77143e-07)
(9.19497 -0.414765 7.80515e-08)
(9.19497 -0.414765 -1.3571e-07)
(9.19496 -0.414765 -3.29767e-07)
(9.19496 -0.414765 -5.01608e-07)
(9.19496 -0.414765 -6.00927e-07)
(9.19495 -0.414765 -6.54355e-07)
(9.19495 -0.414766 -6.15897e-07)
(9.19495 -0.414766 -5.20287e-07)
(9.19495 -0.414766 -2.46892e-07)
(9.19482 -0.414758 7.37933e-08)
(9.16416 -0.663531 -6.3483e-07)
(9.16429 -0.663543 -1.89721e-06)
(9.16429 -0.663543 -2.96529e-06)
(9.16429 -0.663543 -4.07161e-06)
(9.16429 -0.663543 -5.00694e-06)
(9.16429 -0.663543 -5.78714e-06)
(9.16429 -0.663543 -6.35875e-06)
(9.16429 -0.663543 -6.74753e-06)
(9.16429 -0.663543 -6.93128e-06)
(9.16429 -0.663544 -6.92846e-06)
(9.16429 -0.663544 -6.74209e-06)
(9.16429 -0.663544 -6.39693e-06)
(9.16429 -0.663544 -5.90458e-06)
(9.1643 -0.663545 -5.30807e-06)
(9.1643 -0.663545 -4.61004e-06)
(9.1643 -0.663545 -3.8855e-06)
(9.1643 -0.663546 -3.07896e-06)
(9.1643 -0.663546 -2.29056e-06)
(9.1643 -0.663546 -1.24449e-06)
(9.16417 -0.663535 -3.6507e-07)
(9.34027 -0.661372 -2.38909e-07)
(9.3404 -0.661384 1.74977e-07)
(9.3404 -0.661384 4.90819e-07)
(9.34039 -0.661384 4.8005e-07)
(9.34039 -0.661384 5.91529e-07)
(9.34039 -0.661384 5.36759e-07)
(9.34039 -0.661385 4.92928e-07)
(9.34038 -0.661385 3.53012e-07)
(9.34038 -0.661385 1.81608e-07)
(9.34037 -0.661386 -4.38752e-08)
(9.34037 -0.661386 -2.89901e-07)
(9.34037 -0.661386 -5.59002e-07)
(9.34036 -0.661387 -8.01575e-07)
(9.34036 -0.661387 -1.03089e-06)
(9.34036 -0.661388 -1.15228e-06)
(9.34036 -0.661388 -1.25268e-06)
(9.34036 -0.661388 -1.12373e-06)
(9.34035 -0.661389 -1.06021e-06)
(9.34035 -0.661389 -6.61872e-07)
(9.34023 -0.661378 2.6629e-09)
(9.28713 -1.0511 -6.09274e-07)
(9.28726 -1.05111 -1.73587e-06)
(9.28726 -1.05111 -3.04367e-06)
(9.28726 -1.05112 -4.42111e-06)
(9.28726 -1.05112 -5.40804e-06)
(9.28726 -1.05112 -6.31902e-06)
(9.28726 -1.05112 -6.96007e-06)
(9.28726 -1.05113 -7.43028e-06)
(9.28727 -1.05113 -7.6654e-06)
(9.28727 -1.05113 -7.70385e-06)
(9.28727 -1.05113 -7.53383e-06)
(9.28727 -1.05114 -7.19412e-06)
(9.28727 -1.05114 -6.67938e-06)
(9.28727 -1.05114 -6.0673e-06)
(9.28727 -1.05114 -5.32272e-06)
(9.28728 -1.05114 -4.59717e-06)
(9.28728 -1.05115 -3.67502e-06)
(9.28728 -1.05115 -2.94203e-06)
(9.28728 -1.05115 -1.8691e-06)
(9.28715 -1.05113 -5.49339e-07)
(9.37 -1.03101 7.62183e-07)
(9.37012 -1.03103 -6.79529e-07)
(9.37011 -1.03102 -1.10899e-06)
(9.37011 -1.03102 -2.35235e-06)
(9.37011 -1.03102 -2.85654e-06)
(9.37011 -1.03102 -3.51223e-06)
(9.37012 -1.03102 -3.94165e-06)
(9.37012 -1.03102 -4.34569e-06)
(9.37012 -1.03102 -4.61571e-06)
(9.37012 -1.03101 -4.80825e-06)
(9.37012 -1.03101 -4.88816e-06)
(9.37013 -1.03101 -4.87237e-06)
(9.37013 -1.03101 -4.73595e-06)
(9.37013 -1.03101 -4.53792e-06)
(9.37013 -1.03101 -4.17242e-06)
(9.37013 -1.03101 -3.85842e-06)
(9.37014 -1.03101 -3.18786e-06)
(9.37014 -1.03101 -3.09923e-06)
(9.37015 -1.03101 -2.03204e-06)
(9.37003 -1.03099 -1.72534e-06)
(8.72921 0.769092 3.60982e-07)
(8.72933 0.769102 -1.10083e-06)
(8.72933 0.769101 -1.67343e-06)
(8.72933 0.769101 -2.56376e-06)
(8.72934 0.7691 -3.03029e-06)
(8.72934 0.769099 -3.56334e-06)
(8.72934 0.769098 -3.89021e-06)
(8.72934 0.769097 -4.16334e-06)
(8.72935 0.769095 -4.29573e-06)
(8.72935 0.769094 -4.33627e-06)
(8.72935 0.769093 -4.26044e-06)
(8.72935 0.769092 -4.09695e-06)
(8.72936 0.769091 -3.83249e-06)
(8.72936 0.76909 -3.51988e-06)
(8.72936 0.769089 -3.10082e-06)
(8.72936 0.769088 -2.73399e-06)
(8.72936 0.769088 -2.1664e-06)
(8.72936 0.769087 -1.86555e-06)
(8.72937 0.769088 -1.14719e-06)
(8.72925 0.769077 -1.19723e-06)
(8.78073 0.775935 -7.25685e-07)
(8.78085 0.775948 -1.80336e-06)
(8.78085 0.775949 -2.82185e-06)
(8.78085 0.775952 -3.88804e-06)
(8.78085 0.775955 -4.67588e-06)
(8.78085 0.775959 -5.40831e-06)
(8.78085 0.775963 -5.9055e-06)
(8.78084 0.775968 -6.27011e-06)
(8.78084 0.775973 -6.43239e-06)
(8.78084 0.775978 -6.43825e-06)
(8.78084 0.775983 -6.27426e-06)
(8.78084 0.775988 -5.97415e-06)
(8.78084 0.775992 -5.53499e-06)
(8.78084 0.775996 -5.01433e-06)
(8.78084 0.776 -4.3811e-06)
(8.78084 0.776003 -3.75532e-06)
(8.78084 0.776005 -2.98104e-06)
(8.78084 0.776007 -2.2715e-06)
(8.78084 0.776009 -1.36763e-06)
(8.78072 0.775998 -4.04548e-07)
(8.81716 0.534395 1.95104e-07)
(8.81729 0.534404 1.02362e-06)
(8.81729 0.534405 1.82763e-06)
(8.81729 0.534406 2.41901e-06)
(8.81729 0.534407 3.05545e-06)
(8.81729 0.534409 3.46414e-06)
(8.81729 0.534411 3.79932e-06)
(8.81729 0.534413 3.97238e-06)
(8.81729 0.534416 4.03558e-06)
(8.81729 0.534418 3.9759e-06)
(8.81729 0.53442 3.81933e-06)
(8.81729 0.534422 3.57379e-06)
(8.81729 0.534425 3.26285e-06)
(8.81729 0.534427 2.89346e-06)
(8.81729 0.534428 2.52165e-06)
(8.81729 0.53443 2.08561e-06)
(8.81729 0.534431 1.74914e-06)
(8.81729 0.534432 1.26381e-06)
(8.81729 0.534433 8.43553e-07)
(8.81717 0.534425 3.69231e-07)
(8.79087 0.530853 -3.33545e-07)
(8.79099 0.530861 -7.99172e-07)
(8.79099 0.530861 -1.16644e-06)
(8.79099 0.530861 -1.58257e-06)
(8.79099 0.530862 -1.90893e-06)
(8.79099 0.530862 -2.19386e-06)
(8.79099 0.530862 -2.37848e-06)
(8.79099 0.530863 -2.50644e-06)
(8.79099 0.530863 -2.54749e-06)
(8.79099 0.530863 -2.52245e-06)
(8.79099 0.530864 -2.42445e-06)
(8.79098 0.530864 -2.27e-06)
(8.79098 0.530865 -2.05919e-06)
(8.79098 0.530865 -1.82066e-06)
(8.79098 0.530865 -1.53623e-06)
(8.79098 0.530866 -1.26688e-06)
(8.79098 0.530866 -9.53907e-07)
(8.79098 0.530866 -6.67819e-07)
(8.79098 0.530866 -3.07063e-07)
(8.79086 0.530858 -6.24038e-08)
(8.81395 0.323563 3.24513e-07)
(8.81407 0.323568 1.22736e-06)
(8.81407 0.323569 2.15122e-06)
(8.81407 0.323569 2.89883e-06)
(8.81407 0.323569 3.55368e-06)
(8.81407 0.32357 4.05319e-06)
(8.81407 0.32357 4.42746e-06)
(8.81407 0.323571 4.6392e-06)
(8.81407 0.323572 4.71741e-06)
(8.81407 0.323572 4.66087e-06)
(8.81407 0.323573 4.49394e-06)
(8.81407 0.323574 4.22908e-06)
(8.81407 0.323574 3.89192e-06)
(8.81407 0.323575 3.49181e-06)
(8.81406 0.323575 3.06657e-06)
(8.81406 0.323576 2.59821e-06)
(8.81406 0.323576 2.12845e-06)
(8.81406 0.323576 1.6009e-06)
(8.81406 0.323577 1.08246e-06)
(8.81394 0.323572 4.14661e-07)
(8.77584 0.315545 -1.94061e-07)
(8.77597 0.31555 -4.7407e-07)
(8.77597 0.315549 -7.23009e-07)
(8.77597 0.315548 -9.5786e-07)
(8.77597 0.315547 -1.10803e-06)
(8.77596 0.315545 -1.25526e-06)
(8.77596 0.315544 -1.33733e-06)
(8.77596 0.315542 -1.38765e-06)
(8.77596 0.31554 -1.38374e-06)
(8.77596 0.315538 -1.34184e-06)
(8.77596 0.315537 -1.25569e-06)
(8.77596 0.315535 -1.14011e-06)
(8.77596 0.315534 -9.90024e-07)
(8.77596 0.315532 -8.31754e-07)
(8.77596 0.315531 -6.42729e-07)
(8.77596 0.31553 -4.77869e-07)
(8.77596 0.315529 -2.68033e-07)
(8.77596 0.315529 -1.31307e-07)
(8.77596 0.315528 6.22584e-10)
(8.77583 0.315523 3.70709e-08)
(8.78797 0.146712 3.49739e-08)
(8.78809 0.146714 3.65409e-07)
(8.78809 0.146714 7.04576e-07)
(8.78809 0.146714 9.74411e-07)
(8.78809 0.146714 1.21495e-06)
(8.78809 0.146713 1.3988e-06)
(8.78809 0.146713 1.53981e-06)
(8.78809 0.146712 1.62265e-06)
(8.78809 0.146712 1.66052e-06)
(8.78809 0.146711 1.64974e-06)
(8.78809 0.14671 1.60426e-06)
(8.78809 0.14671 1.52459e-06)
(8.78809 0.146709 1.42627e-06)
(8.78809 0.146709 1.30352e-06)
(8.78808 0.146708 1.18027e-06)
(8.78808 0.146708 1.0312e-06)
(8.78808 0.146708 8.87356e-07)
(8.78808 0.146708 7.0048e-07)
(8.78808 0.146707 5.25044e-07)
(8.78796 0.146705 2.55724e-07)
(8.76845 0.13191 -2.39447e-07)
(8.76857 0.131911 -6.91465e-07)
(8.76857 0.131911 -1.09739e-06)
(8.76857 0.131911 -1.46615e-06)
(8.76857 0.13191 -1.74773e-06)
(8.76857 0.13191 -1.99029e-06)
(8.76857 0.131909 -2.15219e-06)
(8.76857 0.131908 -2.25315e-06)
(8.76857 0.131907 -2.27898e-06)
(8.76857 0.131907 -2.24123e-06)
(8.76857 0.131906 -2.13589e-06)
(8.76857 0.131905 -1.97796e-06)
(8.76857 0.131905 -1.76448e-06)
(8.76857 0.131904 -1.52693e-06)
(8.76857 0.131903 -1.24805e-06)
(8.76857 0.131903 -9.91777e-07)
(8.76857 0.131902 -6.99178e-07)
(8.76857 0.131902 -4.70259e-07)
(8.76857 0.131902 -2.08584e-07)
(8.76845 0.1319 -3.59665e-08)
(8.77464 -0.00937656 -6.35118e-08)
(8.77477 -0.00937671 -3.28024e-10)
(8.77477 -0.00937671 6.85055e-08)
(8.77477 -0.00937665 1.28233e-07)
(8.77477 -0.0093766 1.98475e-07)
(8.77477 -0.00937654 2.54615e-07)
(8.77477 -0.00937648 3.08258e-07)
(8.77477 -0.00937642 3.4455e-07)
(8.77477 -0.00937638 3.67847e-07)
(8.77477 -0.00937634 3.70494e-07)
(8.77477 -0.00937631 3.58353e-07)
(8.77477 -0.0093763 3.26005e-07)
(8.77477 -0.0093763 2.87976e-07)
(8.77477 -0.0093763 2.34458e-07)
(8.77476 -0.00937631 1.99208e-07)
(8.77476 -0.00937631 1.48684e-07)
(8.77476 -0.00937631 1.40019e-07)
(8.77476 -0.00937631 9.05001e-08)
(8.77476 -0.0093763 9.47595e-08)
(8.77464 -0.00937607 1.04774e-07)
(8.78088 -0.0306052 -2.63966e-07)
(8.781 -0.0306062 -6.81031e-07)
(8.781 -0.0306069 -1.05299e-06)
(8.781 -0.0306079 -1.39475e-06)
(8.781 -0.0306092 -1.67385e-06)
(8.781 -0.0306107 -1.90858e-06)
(8.781 -0.0306124 -2.07814e-06)
(8.781 -0.0306141 -2.19073e-06)
(8.781 -0.030616 -2.23679e-06)
(8.78099 -0.0306179 -2.22204e-06)
(8.78099 -0.0306197 -2.14108e-06)
(8.78099 -0.0306215 -2.0041e-06)
(8.78099 -0.0306231 -1.80352e-06)
(8.78099 -0.0306246 -1.57021e-06)
(8.78099 -0.0306259 -1.28814e-06)
(8.78099 -0.030627 -1.02355e-06)
(8.78099 -0.0306279 -7.20983e-07)
(8.78099 -0.0306285 -4.8002e-07)
(8.78099 -0.030629 -1.68309e-07)
(8.78086 -0.0306284 3.90927e-08)
(8.78311 -0.167741 -2.94066e-07)
(8.78323 -0.167743 -8.68071e-07)
(8.78323 -0.167743 -1.37112e-06)
(8.78323 -0.167742 -1.82085e-06)
(8.78323 -0.167741 -2.1776e-06)
(8.78322 -0.16774 -2.46805e-06)
(8.78322 -0.167739 -2.66862e-06)
(8.78322 -0.167738 -2.79324e-06)
(8.78322 -0.167737 -2.83981e-06)
(8.78322 -0.167736 -2.81677e-06)
(8.78322 -0.167735 -2.72825e-06)
(8.78321 -0.167734 -2.58606e-06)
(8.78321 -0.167733 -2.38566e-06)
(8.78321 -0.167732 -2.15098e-06)
(8.78321 -0.167731 -1.85927e-06)
(8.78321 -0.16773 -1.56469e-06)
(8.78321 -0.16773 -1.19887e-06)
(8.78321 -0.167729 -8.83348e-07)
(8.78321 -0.167729 -4.67187e-07)
(8.78308 -0.167726 -1.03442e-07)
(8.8191 -0.186359 -1.40795e-07)
(8.81922 -0.186363 -1.58963e-07)
(8.81922 -0.186363 -1.60207e-07)
(8.81922 -0.186364 -1.71194e-07)
(8.81922 -0.186365 -1.7624e-07)
(8.81922 -0.186367 -1.85705e-07)
(8.81922 -0.186368 -1.92569e-07)
(8.81922 -0.186369 -2.05474e-07)
(8.81922 -0.186371 -2.19289e-07)
(8.81922 -0.186373 -2.37148e-07)
(8.81922 -0.186374 -2.48589e-07)
(8.81922 -0.186376 -2.56157e-07)
(8.81921 -0.186377 -2.39234e-07)
(8.81921 -0.186379 -2.14367e-07)
(8.81921 -0.18638 -1.47843e-07)
(8.81921 -0.186381 -9.20096e-08)
(8.81921 -0.186381 1.05443e-08)
(8.81921 -0.186382 6.13518e-08)
(8.81921 -0.186382 1.51978e-07)
(8.81908 -0.186379 1.81337e-07)
(8.81357 -0.347251 -5.08588e-07)
(8.8137 -0.347257 -1.5959e-06)
(8.81369 -0.347257 -2.56995e-06)
(8.81369 -0.347257 -3.44575e-06)
(8.81369 -0.347256 -4.15206e-06)
(8.81369 -0.347256 -4.74616e-06)
(8.81369 -0.347255 -5.17768e-06)
(8.81369 -0.347255 -5.46026e-06)
(8.81369 -0.347254 -5.58503e-06)
(8.81369 -0.347254 -5.56492e-06)
(8.81368 -0.347254 -5.40565e-06)
(8.81368 -0.347253 -5.12356e-06)
(8.81368 -0.347253 -4.72441e-06)
(8.81368 -0.347253 -4.23879e-06)
(8.81368 -0.347252 -3.65545e-06)
(8.81368 -0.347252 -3.04525e-06)
(8.81368 -0.347252 -2.32488e-06)
(8.81368 -0.347252 -1.66929e-06)
(8.81368 -0.347252 -9.14978e-07)
(8.81355 -0.347246 -2.66404e-07)
(8.87692 -0.358237 -1.08793e-07)
(8.87704 -0.358243 5.81193e-08)
(8.87704 -0.358244 2.50526e-07)
(8.87704 -0.358244 3.79611e-07)
(8.87704 -0.358245 4.78985e-07)
(8.87704 -0.358246 5.49988e-07)
(8.87704 -0.358247 5.93599e-07)
(8.87704 -0.358248 5.97509e-07)
(8.87704 -0.358249 5.75264e-07)
(8.87704 -0.35825 5.18172e-07)
(8.87704 -0.358252 4.44409e-07)
(8.87704 -0.358253 3.57142e-07)
(8.87704 -0.358254 2.89046e-07)
(8.87704 -0.358255 2.28378e-07)
(8.87703 -0.358256 2.19326e-07)
(8.87703 -0.358257 2.14806e-07)
(8.87703 -0.358257 2.60316e-07)
(8.87703 -0.358258 2.78202e-07)
(8.87703 -0.358258 3.21284e-07)
(8.87691 -0.358252 2.63067e-07)
(8.85983 -0.565572 -6.87139e-07)
(8.85996 -0.565581 -2.13027e-06)
(8.85996 -0.565581 -3.4564e-06)
(8.85996 -0.56558 -4.6469e-06)
(8.85996 -0.56558 -5.58053e-06)
(8.85995 -0.565579 -6.40863e-06)
(8.85995 -0.565579 -7.01606e-06)
(8.85995 -0.565578 -7.42846e-06)
(8.85995 -0.565578 -7.62282e-06)
(8.85995 -0.565577 -7.6177e-06)
(8.85995 -0.565576 -7.417e-06)
(8.85995 -0.565576 -7.04361e-06)
(8.85995 -0.565575 -6.50793e-06)
(8.85995 -0.565575 -5.84694e-06)
(8.85995 -0.565575 -5.05441e-06)
(8.85994 -0.565575 -4.21311e-06)
(8.85994 -0.565575 -3.19754e-06)
(8.85994 -0.565575 -2.27511e-06)
(8.85994 -0.565575 -1.24835e-06)
(8.85982 -0.565565 -3.64924e-07)
(8.93453 -0.566744 -2.99848e-08)
(8.93465 -0.566754 4.04856e-07)
(8.93465 -0.566754 8.94743e-07)
(8.93465 -0.566755 1.18043e-06)
(8.93465 -0.566755 1.38009e-06)
(8.93465 -0.566756 1.53761e-06)
(8.93465 -0.566757 1.64646e-06)
(8.93465 -0.566757 1.66195e-06)
(8.93465 -0.566758 1.61573e-06)
(8.93465 -0.566759 1.49261e-06)
(8.93465 -0.56676 1.32933e-06)
(8.93465 -0.566761 1.12017e-06)
(8.93465 -0.566762 9.16421e-07)
(8.93465 -0.566763 7.05728e-07)
(8.93465 -0.566764 5.60495e-07)
(8.93465 -0.566764 4.22611e-07)
(8.93465 -0.566765 3.2013e-07)
(8.93465 -0.566765 2.60192e-07)
(8.93465 -0.566766 2.95653e-07)
(8.93452 -0.566757 2.37752e-07)
(8.90011 -0.836437 -8.21658e-07)
(8.90024 -0.83645 -2.47762e-06)
(8.90024 -0.83645 -3.89937e-06)
(8.90023 -0.83645 -5.35109e-06)
(8.90023 -0.83645 -6.62276e-06)
(8.90023 -0.83645 -7.66749e-06)
(8.90023 -0.836451 -8.4421e-06)
(8.90023 -0.836451 -8.98212e-06)
(8.90023 -0.836451 -9.24987e-06)
(8.90023 -0.836451 -9.27369e-06)
(8.90023 -0.836451 -9.05212e-06)
(8.90023 -0.836452 -8.62345e-06)
(8.90023 -0.836452 -7.99317e-06)
(8.90023 -0.836453 -7.22232e-06)
(8.90023 -0.836453 -6.3047e-06)
(8.90023 -0.836454 -5.33613e-06)
(8.90023 -0.836454 -4.26982e-06)
(8.90023 -0.836455 -3.15533e-06)
(8.90023 -0.836455 -1.7544e-06)
(8.90011 -0.836443 -5.50806e-07)
(8.94196 -0.824232 -3.60461e-08)
(8.94209 -0.824245 5.13019e-07)
(8.94209 -0.824245 8.29628e-07)
(8.94209 -0.824245 9.60978e-07)
(8.94209 -0.824245 1.26271e-06)
(8.94209 -0.824246 1.33921e-06)
(8.94209 -0.824247 1.43107e-06)
(8.94209 -0.824248 1.38091e-06)
(8.94209 -0.824248 1.28347e-06)
(8.94209 -0.824249 1.0815e-06)
(8.94209 -0.82425 8.41482e-07)
(8.94209 -0.824251 5.40062e-07)
(8.94209 -0.824252 2.55861e-07)
(8.94209 -0.824253 -4.83821e-08)
(8.94209 -0.824254 -2.24519e-07)
(8.94209 -0.824255 -4.22805e-07)
(8.94209 -0.824256 -3.5002e-07)
(8.94209 -0.824256 -4.27269e-07)
(8.94209 -0.824257 -3.99079e-07)
(8.94197 -0.824245 -1.27455e-08)
(8.88068 -1.14613 -8.3365e-07)
(8.8808 -1.14614 -2.52054e-06)
(8.8808 -1.14615 -4.35732e-06)
(8.8808 -1.14615 -6.1705e-06)
(8.8808 -1.14615 -7.5559e-06)
(8.8808 -1.14616 -8.82263e-06)
(8.88081 -1.14616 -9.73104e-06)
(8.88081 -1.14617 -1.04114e-05)
(8.88081 -1.14617 -1.07669e-05)
(8.88081 -1.14618 -1.0859e-05)
(8.88081 -1.14619 -1.06615e-05)
(8.88081 -1.14619 -1.02378e-05)
(8.88081 -1.1462 -9.57404e-06)
(8.88081 -1.1462 -8.77612e-06)
(8.88082 -1.14621 -7.77831e-06)
(8.88082 -1.14621 -6.7748e-06)
(8.88082 -1.14621 -5.4878e-06)
(8.88082 -1.14622 -4.3185e-06)
(8.88082 -1.14622 -2.83512e-06)
(8.8807 -1.1462 -9.67649e-07)
(8.80777 -1.10744 8.63772e-07)
(8.80788 -1.10745 -1.24831e-06)
(8.80788 -1.10745 -2.99161e-06)
(8.80788 -1.10745 -4.84926e-06)
(8.80788 -1.10745 -5.93281e-06)
(8.80788 -1.10745 -7.04372e-06)
(8.80788 -1.10745 -7.79758e-06)
(8.80788 -1.10745 -8.42179e-06)
(8.80789 -1.10745 -8.77608e-06)
(8.80789 -1.10744 -8.93745e-06)
(8.80789 -1.10744 -8.85212e-06)
(8.80789 -1.10744 -8.58378e-06)
(8.80789 -1.10744 -8.08633e-06)
(8.80789 -1.10744 -7.48287e-06)
(8.8079 -1.10744 -6.65348e-06)
(8.8079 -1.10744 -5.88935e-06)
(8.8079 -1.10744 -4.77326e-06)
(8.8079 -1.10744 -4.16828e-06)
(8.80791 -1.10744 -3.18928e-06)
(8.8078 -1.10743 -2.37159e-06)
(8.85036 0.740935 8.11875e-08)
(8.85048 0.740946 -2.29645e-06)
(8.85048 0.740946 -2.5136e-06)
(8.85048 0.740946 -3.58859e-06)
(8.85048 0.740946 -4.16628e-06)
(8.85048 0.740946 -4.86789e-06)
(8.85048 0.740946 -5.30923e-06)
(8.85048 0.740946 -5.67196e-06)
(8.85048 0.740946 -5.84864e-06)
(8.85049 0.740946 -5.89677e-06)
(8.85049 0.740946 -5.78716e-06)
(8.85049 0.740946 -5.5617e-06)
(8.85049 0.740946 -5.20036e-06)
(8.85049 0.740946 -4.77339e-06)
(8.85049 0.740946 -4.19864e-06)
(8.85049 0.740946 -3.67677e-06)
(8.85049 0.740946 -2.83234e-06)
(8.85049 0.740946 -2.30126e-06)
(8.85049 0.740946 -7.25423e-07)
(8.85037 0.740935 -1.15648e-06)
(8.74471 0.742045 -1.06922e-06)
(8.74483 0.742057 -1.95994e-06)
(8.74483 0.742058 -2.6821e-06)
(8.74483 0.742061 -3.59798e-06)
(8.74483 0.742065 -4.2787e-06)
(8.74483 0.742069 -4.96156e-06)
(8.74483 0.742074 -5.43074e-06)
(8.74483 0.742079 -5.79539e-06)
(8.74483 0.742085 -5.97636e-06)
(8.74483 0.742091 -6.02048e-06)
(8.74483 0.742096 -5.90708e-06)
(8.74483 0.742102 -5.67191e-06)
(8.74483 0.742107 -5.29542e-06)
(8.74483 0.742111 -4.84478e-06)
(8.74483 0.742116 -4.26592e-06)
(8.74483 0.742119 -3.68999e-06)
(8.74483 0.742122 -2.91027e-06)
(8.74483 0.742125 -2.16626e-06)
(8.74483 0.742127 -1.05673e-06)
(8.74471 0.742117 5.41272e-09)
(8.77661 0.503671 -1.12461e-07)
(8.77673 0.503679 7.53005e-07)
(8.77673 0.503679 1.53459e-06)
(8.77673 0.50368 2.08283e-06)
(8.77673 0.503681 2.7266e-06)
(8.77673 0.503683 3.11421e-06)
(8.77673 0.503684 3.45148e-06)
(8.77673 0.503686 3.63598e-06)
(8.77673 0.503688 3.72732e-06)
(8.77673 0.50369 3.70691e-06)
(8.77673 0.503692 3.60508e-06)
(8.77673 0.503693 3.41921e-06)
(8.77673 0.503695 3.17198e-06)
(8.77673 0.503697 2.8633e-06)
(8.77673 0.503698 2.56228e-06)
(8.77673 0.5037 2.1754e-06)
(8.77673 0.503701 1.92979e-06)
(8.77673 0.503702 1.46727e-06)
(8.77673 0.503703 1.09558e-06)
(8.7766 0.503696 6.90212e-07)
(8.71887 0.501956 -4.70948e-07)
(8.71899 0.501964 -9.44094e-07)
(8.71899 0.501964 -1.32942e-06)
(8.71899 0.501964 -1.78495e-06)
(8.71899 0.501964 -2.15643e-06)
(8.71899 0.501965 -2.47393e-06)
(8.71899 0.501965 -2.68083e-06)
(8.71899 0.501965 -2.82203e-06)
(8.71899 0.501966 -2.86567e-06)
(8.71899 0.501966 -2.83579e-06)
(8.71899 0.501967 -2.72432e-06)
(8.71899 0.501967 -2.55426e-06)
(8.719 0.501968 -2.32055e-06)
(8.719 0.501968 -2.06376e-06)
(8.719 0.501969 -1.75479e-06)
(8.719 0.501969 -1.46395e-06)
(8.719 0.501969 -1.1252e-06)
(8.719 0.50197 -7.89406e-07)
(8.719 0.50197 -3.39703e-07)
(8.71887 0.501963 1.55223e-08)
(8.74015 0.304605 1.82578e-07)
(8.74027 0.30461 1.07997e-06)
(8.74027 0.304611 1.95989e-06)
(8.74027 0.304612 2.67182e-06)
(8.74027 0.304612 3.29967e-06)
(8.74027 0.304614 3.78571e-06)
(8.74027 0.304615 4.16196e-06)
(8.74027 0.304616 4.39031e-06)
(8.74027 0.304618 4.50141e-06)
(8.74027 0.304619 4.48914e-06)
(8.74027 0.30462 4.37699e-06)
(8.74027 0.304622 4.1707e-06)
(8.74027 0.304623 3.89467e-06)
(8.74027 0.304624 3.55078e-06)
(8.74027 0.304625 3.17713e-06)
(8.74026 0.304626 2.74152e-06)
(8.74026 0.304627 2.29864e-06)
(8.74026 0.304628 1.76911e-06)
(8.74026 0.304628 1.24646e-06)
(8.74014 0.304624 5.8043e-07)
(8.70291 0.297543 -1.50273e-07)
(8.70303 0.297547 -2.42111e-07)
(8.70303 0.297546 -3.13403e-07)
(8.70303 0.297545 -3.94285e-07)
(8.70303 0.297544 -4.0074e-07)
(8.70303 0.297543 -4.40656e-07)
(8.70303 0.297542 -4.39553e-07)
(8.70303 0.297541 -4.35861e-07)
(8.70303 0.297539 -4.03501e-07)