/*--------------------------------*- C++ -*----------------------------------*\
| =========                 |                                                 |
| \\      /  F ield         | OpenFOAM: The Open Source CFD Toolbox           |
|  \\    /   O peration     | Version:  2212                                  |
|   \\  /    A nd           | Website:  www.openfoam.com                      |
|    \\/     M anipulation  |                                                 |
\*---------------------------------------------------------------------------*/
FoamFile
{
    version     2.0;
    format      ascii;
    arch        "LSB;label=32;scalar=64";
    class       volScalarField;
    location    "0.0582";
    object      epsilon;
}
// * * * * * * * * * * * * * * * * * * * * * * * * * * * * * * * * * * * * * //

dimensions      [0 2 -3 0 0 0 0];

internalField   nonuniform List<scalar> 
31661
(
1.08257e+06
90987.7
105514
96801.8
90139.4
102369
95032.7
89633.1
100042
93775.3
1.05257e+07
126472
3.31534e+07
260121
534655
652921
626973
804746
176414
617315
666345
663024
2.13262e+06
895767
99869.9
702342
3.34648e+06
1.41695e+06
124813
110051
816674
1.6662e+06
1.81486e+06
204523
322057
648436
387221
598422
726434
2.16934e+06
1.35282e+06
89890.1
340233
119254
121105
133876
121224
261698
371509
280217
1.05408e+06
479160
140482
270105
526728
151110
151572
145435
504626
153024
136624
140579
149409
77601.1
354794
1.52671e+06
5.70527e+06
447153
384553
327204
123257
253435
214567
181516
154679
133067
116122
102955
92927.2
85345.3
79717.6
75588.8
72613.2
70492.4
71451.6
73898.7
77305.2
81975.6
88238.8
96512
107245
120942
138202
159575
185426
216366
250561
286364
329518
377733
428341
477119
524154
592899
576248
644479
625959
688779
670087
725015
707627
753406
738383
774703
762508
789955
780567
800284
793412
806725
801947
810157
807034
811298
809430
810705
809760
808802
808513
805908
806073
802266
802731
798059
798711
793424
794186
788465
789283
783262
784096
777882
778706
772381
773180
766808
767567
761199
761916
755589
756259
750013
750635
744506
745080
739099
739629
733823
734312
728715
729165
723809
724224
719147
719531
714780
715135
710762
711090
707463
707153
707177
710749
714745
719092
723739
728636
733740
739015
744422
749931
755508
761119
766732
772308
777806
783178
788365
793298
797887
802021
805550
808275
809930
810167
808521
804391
797017
785468
768709
745642
715307
677063
630662
576205
515630
450187
383716
321908
268876
225023
189675
161083
138141
120055
105981
95229.4
69727.2
69018.1
87114.8
81102.9
76690.9
73482
71177.4
68038.4
68554.8
70097.5
71786.8
74185.6
77501.4
81993.5
87997.8
95849.6
105905
118540
134026
152676
174664
199962
228348
259374
292074
327484
365613
405281
445876
487938
533580
579653
623822
664371
700167
730461
754951
773825
787568
796916
802646
805484
806072
804936
802496
799078
794936
790264
785200
779859
774329
768679
762971
757247
751552
745921
740398
735016
729810
724820
720088
715666
711608
707984
704876
704333
704036
704107
704506
707497
711016
714977
719311
723959
728870
734000
739307
744756
750310
755933
761589
767243
772850
778361
783715
788839
793641
798003
801766
804727
806611
807058
805604
801655
794487
783274
767109
745184
716916
682144
641241
595154
545049
492444
435852
380736
329702
283532
242366
207488
177923
153236
133014
116686
103873
93992.4
86508.4
69558.7
80894.9
76729
73677.6
68947.9
67799.1
68462.2
67423.2
68200.8
69807.7
71076.2
72935.7
75538.2
79101.7
83888.5
90190.6
98338.1
108657
121375
136711
154658
175065
197597
221799
247133
272986
298841
325331
352787
381397
411533
444466
481280
520750
561632
602550
641917
678370
710468
737481
759025
775327
786881
794363
798524
800049
799532
797475
794267
790215
785553
780452
775049
769451
763743
757990
752247
746556
740970
735529
730273
725243
720489
716061
712020
708440
705406
703023
702380
701793
701507
701636
702145
702854
705043
707907
711341
715250
719558
724206
729135
734295
739649
745153
750762
756443
762147
767831
773439
778902
784137
789034
793456
797216
800075
801714
801723
799577
794636
786156
773336
755432
731888
702557
667802
628543
586168
542340
498573
455516
412368
371515
333270
297015
262837
231418
202779
177116
154505
135337
119554
106853
96770
88912.2
71476.6
82950.7
78480.4
67332
68972.4
67735
69926.7
67756.5
67051.9
68425.6
69980.5
70984.9
72468.6
74595.1
77557.6
81572.4
86907.4
93863.7
102747
113840
127332
143249
161441
181533
202843
224708
246347
267167
286751
305116
323023
341048
359882
380295
403465
430449
461157
495247
532101
570668
609514
646979
681470
711639
736734
756544
771245
781371
787614
790698
791314
790045
787369
783662
779215
774245
768921
763378
757717
752017
746342
740752
735302
730040
725014
720280
715895
711925
708452
705568
703385
702035
701414
700613
699956
699677
699883
700540
701477
702414
703468
705405
708080
711373
715187
719436
724049
728969
734138
739509
745035
750665
756350
762033
767646
773112
778329
783165
787446
790946
793369
794330
793340
789798
783000
772186
756626
735738
709318
677664
641627
602641
562356
522485
484530
449372
416995
386749
358959
332743
307751
282416
257039
231752
206931
183271
161707
142740
126427
112811
101773
93104.3
75163.1
86378.8
67070
67481.2
72745.9
69317.3
68120
68878.2
67319.6
66861.7
68920.6
70385
71211.1
72418.8
74179.3
76679.1
80104.8
84707
90767.6
98587.4
108452
120603
135144
151995
170831
191067
211879
232347
251626
269125
284542
297847
309554
320407
331115
342383
354979
369790
387741
409260
434620
463904
496845
532737
570404
608290
644630
677906
706840
730640
749149
762661
771702
777009
779320
779326
777566
774516
770542
765918
760859
755530
750060
744548
739076
733716
728536
723593
718956
714690
710872
707592
704952
703074
702100
702197
701675
700726
699718
698963
698685
698989
699839
701072
702417
702991
703613
705200
707600
710678
714324
718447
722967
727812
732923
738238
743696
749239
754794
760279
765591
770608
775165
779046
781965
783558
783355
780779
775143
765716
751752
732665
708198
678509
644370
607162
568517
530236
493914
460711
431253
405641
383446
363962
346711
330661
314765
297995
279846
259970
238500
216157
193906
172550
152824
135343
120605
108399
81274.8
98507.2
703520
90762.2
66979.4
77441.3
67402.1
71015.4
68003.2
68191.3
69865.1
68735.4
67074.8
66826.8
69583.4
70953.1
71628.2
72650.4
74130.8
76238.5
79166.9
83152.2
88455.2
95371
104201
115211
128562
144285
162168
181715
202172
222599
241983
259518
274638
287157
297214
305181
311702
317434
322989
328913
335804
344301
355071
368635
385488
406083
430721
459445
491915
527321
564406
601588
637134
669417
697276
720002
737482
750027
758242
762880
764665
764266
762240
759042
755017
750438
745514
740410
735252
730144
725180
720441
716010
711969
708408
705427
703143
701686
701212
701896
703938
703564
702494
701139
699866
698981
698702
699130
700228
701835
703682
705411
703974
702805
702880
704007
706023
708786
712171
716072
720400
725072
730009
735137
740375
745636
750815
755783
760378
764395
767564
769527
769837
767928
763139
754731
741954
724227
701223
673027
640394
604471
566880
529476
493874
461365
432687
408135
387634
370759
356914
345445
335706
326836
317998
308190
296824
283211
267044
248444
228006
206435
184823
164490
146068
129796
116111
104899
706598
95927.9
84811.4
67021.7
74602.6
67448.8
69824.2
68020.4
67752.9
68700.7
66993.5
70552.4
69477.5
66909.6
707559
706427
704720
702875
701272
700220
699937
700521
701931
703998
706448
708902
710895
706767
703340
701432
700850
701401
702918
705246
708251
711812
715818
720169
724767
729511
734282
738950
743352
747277
750463
752571
753162
751691
747505
739877
728059
711426
689611
662684
631258
596449
559827
523205
488167
456062
427734
403542
383527
367372
354595
344644
336960
331013
326285
322130
317966
313327
307360
299452
289006
275662
259322
240316
219684
198430
177354
157762
140090
124829
112053
88946.3
101741
711892
70356.7
71659.1
72207.6
73068.2
74330.7
76131.6
78653.4
82109.3
86744.7
92853.7
100739
110688
122930
137560
154479
173328
193461
213992
233907
252219
268173
281340
291670
299412
304989
308938
311813
314119
316269
318694
321719
325773
331369
338915
348868
361735
378018
398146
422390
450751
482839
517799
554347
590849
625569
656966
683847
705613
722192
733943
741520
745661
747108
746512
744424
741281
737424
733121
728581
723967
719416
715047
710969
707285
704105
701547
699739
698828
698976
700362
703178
707619
80287.3
67157.4
93685.5
83620.3
72552.9
67592.1
69024.7
68143.4
67514.3
68783.9
67039.7
69506.7
67073.1
71355.7
70318.2
711284
705389
701151
698446
697112
696982
697878
699644
702132
705200
708718
712552
716576
720641
724571
728159
731138
733176
733846
732617
728849
721816
710778
695076
674314
648491
618172
584400
548752
512901
478439
446780
418825
394928
375193
359348
346961
337547
330575
325587
322161
319868
318341
317217
316123
314698
312452
308845
303308
295235
284143
269896
252771
233130
212189
190710
170106
151155
134303
120000
108347
72932.7
73653.9
74744.8
76291.9
78476.1
81498.9
85562.9
90946.3
97974.5
106940
118105
131640
147543
165581
185235
205718
226048
245198
262261
276622
288021
296543
302520
306418
308724
309915
310394
310497
310491
310666
311247
312409
314490
317846
322836
329841
339312
351746
367636
387401
411283
439252
470903
505339
541267
577020
610903
641368
667307
688164
703922
715007
722072
725877
727152
726547
724596
721730
718287
714535
710684
706917
703385
700224
697573
695572
694370
694122
694998
697168
700803
706052
713022
713864
712988
711050
708622
706204
704204
702947
702656
703430
705219
707840
710985
714243
717079
718863
72494.6
718902
87443.8
99070
71234
76899.7
67367.1
728220
727780
725332
721691
717601
713682
710429
708196
707198
707499
708999
711457
714517
717706
720446
722056
721743
79594.2
71106.2
67806.4
72269
73804.8
74408.5
75343.3
76687.7
78599.2
81257.7
84845.3
89619.3
95863.8
103918
114067
126522
141368
158485
177486
197702
218226
238026
256121
271742
284446
294152
301074
305609
308230
309398
309516
308923
307882
306599
305253
303994
303010
302414
302310
302931
304571
307532
312137
318775
327891
339975
355505
374881
398344
425847
456948
490760
525931
560855
593810
623305
648286
668258
683272
693775
700456
704070
705353
704943
703368
701056
698348
695513
692793
690377
688435
687145
686677
687198
688876
691865
696295
702249
709735
718677
91865.9
82700.2
68494.7
68342.3
67442.2
68953.7
67177.1
69636.4
67303.3
70398.1
71247
73455.3
72209.6
75789.9
74519.9
725796
716430
708423
701906
696915
693406
691269
690361
690528
691595
693409
695800
698600
701649
704757
707696
710199
711930
712470
711297
707779
701199
690807
675932
656127
631353
602082
569350
534613
499610
465858
434791
407213
383696
364253
348685
336566
327465
320823
316221
313280
311653
311015
310912
311407
312156
312942
313533
313645
312916
310918
307109
300957
291946
279761
264258
245848
225544
204285
182939
162706
144663
128973
115794
105296
739124
86302.7
96907.3
236921
736300
74416.7
67630.3
738647
735799
731500
726611
721904
717974
715250
713999
714311
716082
719038
722760
726690
730133
732264
732162
728905
76612.2
70107.5
68075.1
76285.3
75315.9
76120.5
77310.9
78992.9
81331.2
84525.8
88796.1
94390.8
101610
110787
122216
136007
152137
170344
190084
210549
230751
249672
266432
280436
291437
299515
304988
308293
309891
310205
309584
308309
306593
304601
302460
300275
298139
296138
294394
292996
292005
291561
291890
293259
295958
300291
306638
315442
327183
342329
361276
384247
411176
441614
474656
508969
542927
574863
603326
627324
646439
660765
670792
677225
680838
682358
682419
681550
680179
678651
677276
676292
675895
676294
677672
680189
683971
689090
695549
703259
712039
721623
79141.2
68193.3
68599.6
90424.4
82063.4
67490.2
69189.8
67387.2
69844.5
67582
70568.9
71374.3
72274.9
74385.6
751422
747650
78198.6
77785.5
729362
719701
710689
702617
695716
690118
685863
682912
681171
680494
680723
681670
683128
684909
686781
688440
689552
689697
688355
684904
678627
668768
654632
635739
611984
583786
552104
518358
484186
451252
420812
393843
370735
351723
336453
324625
315745
309367
304993
302299
300957
300586
301071
302047
303414
305143
307026
308946
310771
312313
313367
313655
312808
310378
305827
298588
288243
274607
257947
238568
217417
196034
175246
155905
138733
124196
112264
102720
76402
75421.6
85466.7
95215.3
150304
72639.4
67935.7
751386
748544
743866
738371
732968
728374
725148
723626
723945
725989
729430
733760
738303
742209
744503
744154
740169
731714
74442.9
69437
68384.3
90407
77027.2
78100.9
79597.9
81692.8
84573
88415.5
93468.8
100002
108313
118717
131488
146613
163937
183036
203216
223562
243059
260760
275942
288208
297500
304033
308196
310438
311193
310835
309668
307924
305776
303359
300769
298085
295373
292689
290084
287612
285344
283384
281765
280555
279933
280096
281290
283793
287904
293996
302504
313896
328630
347088
369473
395722
425366
457511
490819
523701
554515
581887
604901
623194
636927
646633
653036
656918
659007
659940
660243
660346
660637
661392
662818
665131
668491
672982
678615
685311
692897
701114
709658
718232
76518.9
68073.1
68901.3
78919.5
67633.6
69477.3
89402.9
81733.4
67650.4
70112
67898.7
70811
71582.9
72437
764845
759560
73381.4
74361.8
284789
75307.5
739365
726073
717707
709257
700989
693218
686226
680229
675355
671633
669014
667398
666604
666408
666608
666928
666983
666358
664534
660891
654712
645235
631741
613707
590971
563871
533306
500629
467449
435347
405674
379325
356804
338209
323347
311787
303151
296996
292850
290309
289123
288905
289583
290819
292474
294481
296787
299268
301834
304454
307016
309408
311536
313212
314222
314264
312916
309691
304099
295608
283867
268849
250859
230802
209494
188158
167810
149496
133540
120145
109299
100721
375927
85001.3
94013.7
801529
138669
71403.8
68271.8
765889
763610
759045
753312
747418
742290
738623
736851
737161
739425
743246
748003
752855
756791
758713
757520
752203
742026
726618
72900
69029.6
68724.9
137988
93544.6
78834.6
80298
82247.7
84878.5
88394
93016.7
98988.5
106588
116109
127822
141959
158358
176705
196418
216672
236492
254901
271082
284505
294977
302603
307702
310695
312019
312069
311171
309581
307492
305048
302354
299490
296518
293483
290431
287398
284416
281519
278745
276142
273779
271722
269996
268686
267973
268036
269113
271464
275387
281245
289461
300486
314765
332664
354383
379840
408569
439673
471847
503537
533167
559434
581504
599093
612420
622059
628761
633313
636444
638777
640832
643073
645780
649140
653334
658421
664357
671001
678127
685453
692685
699586
706042
74633.5
68087.5
69237.8
76640.8
67846.9
69804.6
78979.6
67956
70426.2
88831.6
81709.5
68243.4
71107.7
71855.1
779200
771819
72673.9
73558.1
74468.8
75428.5
749438
734172
707706
701069
694051
686829
679683
672907
666758
661427
657001
653482
650779
648687
647010
645455
643555
640806
636595
630207
620871
607846
590567
568806
542827
513438
481924
449834
418725
389905
364300
342389
324281
309824
298635
290264
284288
280307
277907
276820
276726
277466
278796
280571
282709
285131
287788
290642
293558
296587
299639
302627
305542
308300
310817
312935
314482
315195
314734
312687
308527
301728
291873
278780
262528
243589
222883
201417
180596
161161
143671
129046
116913
107114
99379.1
77750.3
84908
93339.6
76537
713885
70545.9
68632.7
782015
781043
777282
771892
765987
760659
756741
754783
755037
757378
761315
766089
770707
774024
774860
772090
764792
752395
734726
712080
71831.9
68832.5
69089.7
80016.9
80762.5
81471.7
82905.4
85316.5
88605.1
92921.1
98461.5
105491
114284
125111
138184
153651
171182
190296
210264
230172
249048
266020
280447
292009
300699
306753
310549
312515
313056
312518
311180
309256
306904
304242
301358
298315
295164
291942
288680
285410
282152
278929
275767
272691
269736
266931
264311
261937
259857
258104
256775
256031
256044
257040
259272
263030
268669
276587
287224
301008
318291
339257
363819
391521
421479
452429
482873
511320
536551
557819
574927
588156
598116
605572
611301
615997
620236
624555
629213
634299
639901
645960
652321
658755
665004
670836
676123
680861
685194
73311.1
68206.4
69600.8
75027.6
68115.3
70162.5
79567.9
76996.9
68292.3
70776.5
79297.8
68610.6
71446.9
794408
784359
88681.1
81983.1
72178
72971
73818.3
74714
75687.4
759432
741940
719660
689141
684620
679610
674052
668032
661732
655417
649338
643698
638617
634104
630038
626306
622613
618415
613146
606117
596559
583719
566986
546073
521159
492960
462669
431764
401744
373895
349122
327913
310379
296356
285520
277435
271656
267804
265520
264501
264455
265228
266580
268370
270509
272958
275657
278525
281603
284726
287968
291264
294556
297820
301047
304208
307213
310003
312448
314404
315664
315935
314832
311905
306679
298668
287460
273014
255587
235856
214956
193802
173587
155137
138994
125560
114575
105707
98664
85152.8
76794.5
93143.4
77846.3
693318
70004.1
69012.1
799751
800983
798996
794887
789791
784870
781086
779099
779247
781365
784886
788948
792462
794216
793019
787816
777866
762803
742642
717873
689360
71124
68790.3
69473.5
83345.5
84755.1
86555.8
89248.3
93090.9
98250.2
104854
113096
123206
135408
149839
166524
184950
204479
224273
243390
260929
276175
288699
298380
305366
309980
312625
313707
313586
312561
310865
308672
306116
303289
300268
297100
293831
290496
287110
283702
280294
276896
273526
270207
266955
263795
260743
257810
255035
252466
250149
248108
246387
245092
244367
244371
245317
247458
251071
256495
264116
274352
287614
304236
324394
348000
374609
403374
433088
462325
489690
514067
534806
551787
565336
576071
584727
592006
598483
604709
610957
617177
623341
629352
635039
640221
644774
648699
652107
655232
658341
72412.4
68403.5
69984.8
82318.6
79369
73887.4
68424.6
70544.8
75590.8
68653.5
71155.3
810635
797294
77563.8
68994.5
79857.4
71819.9
72541.2
88905.8
82540.5
73319.8
74153.5
75047.2
76025.5
769342
749445
725141
697278
664013
660943
657677
653996
649737
644883
639494
633728
627805
621884
616032
610250
604534
598576
591823
583686
573455
560395
543880
523566
499551
472457
443374
413682
384815
358007
334135
313683
296769
283236
272761
264952
259378
255648
253435
252456
252432
253169
254497
256249
258333
260736
263379
266226
269228
272403
275654
278973
282415
285831
289270
292715
296165
299557
302879
306060
309029
311737
314016
315701
316551
316261
314431
310580
304190
294879
282347
266722
248485
228424
207416
186610
167343
150162
135546
123232
113118
104918
98383.3
85695
78037.2
93275.4
77109.8
666996
69706.8
69406.4
819385
823952
825045
823591
820597
817170
814299
812644
812602
813920
816068
818199
819255
818090
813624
804997
791678
773467
750570
723603
693503
661509
70702.5
68868.2
69871.9
86475.6
88403.7
90963.3
94309.9
98803.2
104751
112409
121926
133447
147055
162775
180465
199444
218952
238103
255991
271855
285178
295741
303599
309011
312343
313992
314325
313654
312229
310241
307835
305116
302165
299037
295785
292436
289019
285569
282083
278577
275077
271599
268154
264753
261408
258133
254944
251849
248877
246047
243370
240885
238652
236711
235085
233869
233205
233240
234166
236237
239729
244960
252301
262150
274893
290855
310201
332848
358379
385993
414556
442743
469260
493092
513670
530907
545121
556858
566726
575253
582895
590016
596617
602515
607671
612051
615666
618646
621201
623657
626290
629058
79341.4
71836.6
68660.7
70385.5
81637.6
85056
73130.9
68766
70946.2
828435
810945
74619.6
69033.1
69392.2
76336.4
71556.6
72219.8
78331.3
72937.7
80656
73713
89401.1
83343.9
74542.6
75440.2
76420.2
779252
756744
730343
700926
669670
635708
633154
630652
628152
625385
622091
618145
613488
608146
602196
595693
588792
581474
573365
563981
552772
539109
522416
502344
478942
452742
424730
396187
368453
342694
319745
300066
283778
270737
260632
253076
247680
244066
241910
240937
240890
241562
242799
244467
246460
248742
251295
254050
256974
260027
263229
266516
269866
273328
276815
280311
283856
287429
290993
294554
298045
301453
304763
307905
310801
313332
315361
316694
317069
316135
313455
308609
301064
290562
276944
260425
241422
221163
200507
180768
162679
146837
133192
121646
112149
104489
98485.5
86517
77497.2
78323.7
93759.7
637906
69590.1
69812.4
841770
851218
857252
860485
861664
861586
860968
860312
859837
859405
858612
856870
853375
847298
837866
824468
806780
784768
758745
729342
697494
664390
631365
79453.1
70493.7
69036.1
78684.5
79683.7
70282.7
81233.6
84060.6
88315.7
90196.3
92718.8
96057.2
100367
105831
112779
121518
132240
145056
159991
176859
195234
214334
233335
251367
267649
281594
292897
301533
307691
311693
313914
314720
314429
313307
311555
309333
306755
303911
300859
297657
294339
290937
287485
283976
280431
276876
273325
269788
266276
262797
259361
255977
252654
249402
246232
243158
240191
237353
234660
232121
229777
227687
225889
224407
223315
222755
222871
223838
225881
229286
234370
241473
250984
263271
278628
297224
318994
343555
370175
397801
425205
451183
474780
495434
513015
527729
539968
550181
558747
566006
572241
577455
581613
584862
587450
589708
592056
594761
597623
599766
71515.3
68963.5
70799.4
848948
825942
72674.9
69131.6
69428
73996.6
71363.1
71976.2
75514.7
69800.7
72641.7
77271.1
73361.1
79299
74137.3
81653.3
74973
90148
84364.9
75876.8
76859.3
789301
763797
735016
703834
671346
638801
607491
607037
604898
602281
599819
597550
595194
592374
588833
584394
578964
572577
565276
556832
546875
535008
520763
503710
483591
460472
434862
407670
380085
353352
328553
306469
287522
271819
259221
249439
242110
236852
233319
231191
230176
230043
230611
231731
233248
235096
237243
239648
242267
245045
247966
251022
254199
257464
260803
264234
267708
271211
274765
278377
282001
285654
289277
292853
296424
299952
303369
306619
309645
312377
314681
316401
317318
317138
315518
311995
306170
297597
285964
271434
254165
235152
215012
195196
176529
159459
144342
131376
120565
111620
104361
98678.1
87488.2
94242.4
91011.7
77930.7
99136.6
69613.3
96813.1
94023.1
79108.5
80009.2
81057.1
83420.5
86951.6
81074.9
83068.8
86025.5
81226.2
82942.4
85447.2
82991.1
81491.6
85135.4
80404.6
85035.3
83171.7
81844.1
70228.4
868674
885295
899010
910008
918484
924563
928304
929633
928538
924904
918819
910236
899075
885125
868145
847908
824291
797352
767378
734935
700853
666186
632114
599825
103799
110846
119449
129959
142409
156733
173047
191254
210677
230179
249135
266443
281628
293959
303470
310179
314507
316814
317556
317087
315719
313682
311160
308282
305140
301802
298354
294791
291157
287486
283814
280153
276486
272831
269224
265645
262132
258664
255246
251881
248601
245399
242286
239287
236408
233666
231072
228644
226427
224468
222803
221481
220563
220168
220449
221576
223765
227290
232469
239650
249183
261429
276665
295010
316389
340416
366375
393251
419873
445093
467997
488029
505012
519076
530545
539797
547194
553088
557838
561635
564644
567246
569878
572817
575934
578340
578567
70448.7
69273.5
70703.4
799684
770431
738693
705240
671050
637243
604980
575289
87728.7
88284.8
89166.2
90456.8
92249.7
94681.7
97920.1
102117
107454
114120
122313
132288
144259
158262
174180
191806
210464
229195
247195
263688
278069
289963
299263
306089
310718
313495
314775
314880
314079
312589
310575
308164
305452
302504
299383
296121
292759
289334
285839
282292
278720
275139
271561
267995
264450
260933
257454
254018
250632
247305
244042
240853
237745
234729
231818
229023
226367
223859
221503
219348
217448
215834
214556
213668
213283
213553
214642
216758
220161
225166
232124
241388
253309
268194
286198
307263
331061
356918
383853
410695
436269
459601
480061
497406
511719
523294
532523
539779
545443
549898
553440
556329
558972
561830
565115
568487
570773
570358
71386.7
69301.3
69516.4
72443.9
71224.5
71792.7
73643
69834.6
874255
843505
72410.6
75011.2
70218.2
73081.1
76576.3
73807.8
78373.6
74588.2
80443.5
75431.7
82837.6
76345.1
85610.8
77333.3
89102.1
78408
79577.6
87429.6
85099.3
80856.9
90218.6
87343
69742.4
97079.4
92241.2
83456.4
82263.3
70652.2
103698
108718
116630
127359
139981
154372
170418
187864
206380
225717
244788
262331
277674
290606
300696
308173
313174
316135
317417
317407
316413
314675
312389
309691
306694
303474
300093
296581
292995
289382
285682
281963
278242
274554
270906
267274
263670
260123
256619
253180
249792
246462
243194
240010
236908
233896
230993
228202
225551
223042
220666
218472
216499
214785
213373
212330
211709
211592
212128
213493
215884
219550
224786
231935
241368
253410
268327
286266
307136
330583
355924
382183
408205
432825
455074
474321
490324
503180
513232
520937
526774
531238
534858
538241
541830
545807
549857
552790
552908
548964
903186
930403
955732
978682
998549
1.0144e+06
1.02516e+06
1.02988e+06
1.02792e+06
1.01943e+06
1.00503e+06
985872
962868
936880
908530
878247
846121
812238
776795
740170
702964
665999
630243
596693
566218
70528.4
69562.9
90022.2
124615
69666.1
71405.9
71132.5
71658.7
90792.7
91673.2
92945.5
94694.9
97047.7
100169
104213
109366
115826
123766
133341
144679
157858
172875
189525
207401
225714
243539
260098
274736
287050
296878
304278
309472
312770
314511
315011
314544
313330
311545
309322
306762
303940
300919
297738
294439
291059
287601
284077
280513
276930
273339
269751
266175
262618
259088
255592
252136
248725
245366
242065
238826
235657
232564
229554
226636
223820
221116
218551
216128
213833
211711
209808
208157
206801
205804
205225
205140
205680
207027
209368
212938
218029
224973
234136
245867
260434
278023
298583
321786
346988
373244
399400
424258
446784
466281
482450
495363
505361
512931
518606
522930
526487
529975
533888
538297
542581
545227
544476
539553
72388.6
69916.2
810922
776650
741003
704549
668089
632576
598986
568297
541375
907598
865825
87429.5
87526.7
85288.1
72232.7
73495
70250.9
72857.4
74746.9
70643.1
73534.8
76169
74268.3
77787.5
75059.1
79649.2
75914.8
81802.7
76837.7
84361.2
77835
87639.5
78916.6
102249
80086.5
81354.2
69952.4
93774.2
93903.5
69892.6
70703.5
71568.7
949710
991914
1.03334e+06
1.07249e+06
1.1074e+06
1.13583e+06
1.15558e+06
1.16473e+06
1.16203e+06
1.14756e+06
1.12297e+06
1.09026e+06
1.05145e+06
1.00884e+06
964444
919665
875187
831238
787915
745315
703692
663526
625481
590312
558736
531506
155080
94251.1
95621.7
97401.9
99758.6
102847
106819
111811
118039
125700
134946
145880
158531
172836
188600
205526
223197
240648
257042
271739
284294
294498
302349
308021
311787
313960
314844
314709
313780
312236
310217
307828
305151
302246
299164
295946
292629
289228
285746
282208
278642
275058
271469
267883
264309
260755
257228
253732
250275
246862
243497
240186
236933
233744
230624
227577
224611
221731
218946
216265
213699
211276
208983
206808
204795
202988
201420
200119
199139
198545
198402
198798
199823
201621
204406
208393
213826
221001
230249
241922
256301
273542
293575
316070
340406
365652
390662
414235
435321
453235
467731
479002
487530
493997
499226
504029
509156
514929
520409
523586
522650
517305
509140
71537.1
70051.8
106286
111607
118266
126702
137634
151248
167199
184826
203491
222536
241038
258245
274008
287455
298105
306067
311653
315147
316940
317363
316735
315308
313277
310794
307976
304890
301616
298197
294671
291093
287447
283759
280050
276331
272634
268936
265300
261713
258157
254642
251190
247788
244454
241178
237965
234826
231767
228798
225921
223153
220497
217986
215604
213347
211252
209365
207720
206344
205296
204638
204437
204774
205752
207538
210342
214380
219913
227256
236747
248737
263480
281109
301528
324364
348952
374330
399344
422817
443755
461526
475931
487177
495717
502191
507342
511900
516617
521946
527297
530977
531074
526707
519088
824362
783157
742246
701881
662591
625094
590186
558758
531722
509641
91026.9
89113.3
87614.7
85567.8
85910.5
72100.8
72465.4
70328
72681.5
73504
70675.2
73313.7
74671.1
71083
71074.5
74000.7
75985.2
74743.6
77477.2
75547.3
79187.5
76414.9
81164.5
77350.4
83525.9
78363.2
141649
79452.9
2.06348e+06
109652
80624.3
83820.8
82735.3
81886
952941
896273
94101
70223.5
71519.9
1.01224e+06
1.07293e+06
1.13293e+06
1.1894e+06
1.23916e+06
1.27913e+06
1.30666e+06
1.31964e+06
1.31662e+06
1.29776e+06
1.2645e+06
1.21902e+06
1.1641e+06
1.10314e+06
1.03961e+06
976301
915193
857263
802820
751787
704045
659611
618717
581744
549203
521676
499401
70951.1
70253.6
492280
501531
509014
513499
513204
508671
502042
495103
488405
481493
473441
463279
450279
434064
414697
392742
369145
345051
321586
299673
279937
262741
248213
236228
226516
218758
212667
208001
204533
202026
200329
199335
198934
199041
199575
200470
201673
203137
204829
206741
208833
211045
213374
215843
218439
221146
223954
226854
229841
232907
236045
239247
242521
245852
249248
252697
256190
259743
263338
266985
270653
274343
278038
281723
285401
289044
292624
296127
299567
302876
306009
308928
311559
313817
315577
316698
316969
316141
313927
309973
303880
295454
284572
271262
255585
238023
219208
199911
181652
165274
151059
139120
129218
121165
114825
133058
86309.1
72011.1
97454.7
97871.9
98363.4
100050
102569
105764
109786
114775
120898
128322
137240
147775
159948
173694
188809
204963
221690
238555
254630
269208
281826
292241
300406
306451
310611
313168
314409
314597
313952
312656
310850
308644
306127
303356
300389
297265
294022
290698
287277
283780
280246
276685
273109
269531
265957
262396
258855
255341
251859
248414
245013
241658
238356
235109
231924
228803
225753
222776
219880
217070
214352
211737
209230
206855
204617
202491
200489
198670
197070
195700
194592
193792
193354
193338
193828
194909
196679
199256
202769
207412
213432
221041
230507
242139
256232
272947
292182
313623
336703
360546
384046
406044
425542
441924
455088
465422
473714
481009
488249
495689
502349
506179
505275
499819
491719
481983
71754.8
70454.4
72549.7
72644.9
70749.7
73138.3
73634.4
71106.5
73779.2
74738.4
71511.6
74476.1
75975.6
75230.6
77377
76048.1
78969.4
76930.1
80806.1
77884.2
82965
78909.7
1.41623e+06
1.11236e+07
80009
81186.8
1.01248e+06
938342
842631
791926
743916
698471
655705
615991
579854
547909
520888
498731
481011
91347.2
89459.6
276479
95274.2
87996.3
84248.1
84728.1
91741.7
83249.1
83801.8
89919.1
82447.1
92262.4
70541.7
152920
85256
71962.2
1.09012e+06
1.16837e+06
1.2436e+06
1.31202e+06
1.37018e+06
1.41538e+06
1.44578e+06
1.46005e+06
1.45717e+06
1.43721e+06
1.4008e+06
1.34923e+06