/*--------------------------------*- C++ -*----------------------------------*\
| =========                 |                                                 |
| \\      /  F ield         | OpenFOAM: The Open Source CFD Toolbox           |
|  \\    /   O peration     | Version:  2212                                  |
|   \\  /    A nd           | Website:  www.openfoam.com                      |
|    \\/     M anipulation  |                                                 |
\*---------------------------------------------------------------------------*/
FoamFile
{
    version     2.0;
    format      ascii;
    arch        "LSB;label=32;scalar=64";
    class       surfaceScalarField;
    location    "0.472";
    object      phi;
}
// * * * * * * * * * * * * * * * * * * * * * * * * * * * * * * * * * * * * * //

dimensions      [0 3 -1 0 0 0 0];

oriented        oriented;

internalField   nonuniform List<scalar> 
69808
(
-1.04545e-07
0.000294374
-1.84273
-2.13275e-07
0.00029486
-1.84279
-1.9206e-07
0.000294816
-1.84279
-2.25479e-07
0.000294963
-1.84279
-2.23651e-07
0.00029509
-1.84279
-2.37895e-07
0.000295283
-1.84279
-2.39929e-07
0.000295479
-1.84279
-2.43524e-07
0.000295704
-1.84279
-2.39669e-07
0.000295931
-1.84279
-2.3189e-07
0.000296168
-1.84279
-2.19558e-07
0.0002964
-1.84279
-2.01073e-07
0.000296625
-1.84279
-1.81211e-07
0.000296839
-1.8428
-1.50125e-07
0.000297031
-1.8428
-1.24764e-07
0.000297211
-1.8428
-7.31928e-08
0.000297351
-1.8428
-4.95483e-08
0.000297499
-1.8428
3.66945e-08
0.000297572
-1.8428
2.66456e-09
0.000297766
-1.8428
0.000297364
-1.84274
-4.90651e-07
0.0039481
-1.84736
-7.14695e-07
0.00394864
-1.84742
-9.52089e-07
0.00394853
-1.84742
-1.17206e-06
0.00394851
-1.84742
-1.35364e-06
0.00394843
-1.84742
-1.49866e-06
0.00394839
-1.84742
-1.59708e-06
0.00394832
-1.84742
-1.64975e-06
0.00394827
-1.84742
-1.65808e-06
0.00394822
-1.84742
-1.62202e-06
0.00394818
-1.84742
-1.54974e-06
0.00394815
-1.84742
-1.4411e-06
0.00394813
-1.84742
-1.30689e-06
0.00394813
-1.84742
-1.14683e-06
0.00394813
-1.84742
-9.73861e-07
0.00394815
-1.84742
-7.80331e-07
0.00394816
-1.84742
-5.76895e-07
0.0039482
-1.84742
-3.39108e-07
0.00394819
-1.84742
-5.33291e-08
0.00394828
-1.84742
0.00394773
-1.84736
-3.27843e-08
0.00702974
-1.85136
1.58959e-07
0.00703033
-1.85142
3.04272e-07
0.00703018
-1.85142
4.61858e-07
0.00703
-1.85142
5.93575e-07
0.00702978
-1.85142
6.81059e-07
0.00702958
-1.85142
7.39734e-07
0.00702931
-1.85142
7.70951e-07
0.00702904
-1.85142
7.76318e-07
0.00702875
-1.85142
7.62512e-07
0.00702847
-1.85142
7.28935e-07
0.00702819
-1.85142
6.83388e-07
0.00702794
-1.85142
6.25634e-07
0.0070277
-1.85142
5.65315e-07
0.00702749
-1.85142
4.98791e-07
0.00702731
-1.85142
4.50102e-07
0.00702714
-1.85142
3.99534e-07
0.00702703
-1.85142
3.17387e-07
0.00702696
-1.85142
2.74955e-07
0.00702692
-1.85142
0.00702623
-1.85136
-3.79608e-07
0.0123199
-1.8494
-5.58681e-07
0.0123206
-1.84946
-7.3736e-07
0.0123205
-1.84946
-9.35993e-07
0.0123204
-1.84946
-1.10766e-06
0.0123202
-1.84946
-1.22772e-06
0.01232
-1.84946
-1.31197e-06
0.0123198
-1.84946
-1.35245e-06
0.0123196
-1.84946
-1.35829e-06
0.0123194
-1.84946
-1.32627e-06
0.0123193
-1.84946
-1.26512e-06
0.0123191
-1.84946
-1.17463e-06
0.0123189
-1.84946
-1.06311e-06
0.0123188
-1.84946
-9.34212e-07
0.0123187
-1.84946
-7.92474e-07
0.0123186
-1.84946
-6.51157e-07
0.0123185
-1.84946
-4.95557e-07
0.0123185
-1.84946
-2.78351e-07
0.0123184
-1.84946
-4.30147e-08
0.0123184
-1.84946
0.0123176
-1.8494
1.06692e-07
0.0174584
-1.85348
4.07412e-07
0.0174592
-1.85354
6.72466e-07
0.0174592
-1.85354
8.76781e-07
0.0174591
-1.85354
1.04011e-06
0.017459
-1.85354
1.17259e-06
0.0174588
-1.85354
1.26175e-06
0.0174586
-1.85354
1.3122e-06
0.0174585
-1.85354
1.32252e-06
0.0174583
-1.85354
1.29967e-06
0.0174581
-1.85354
1.2446e-06
0.0174579
-1.85354
1.16562e-06
0.0174577
-1.85354
1.06449e-06
0.0174576
-1.85354
9.49201e-07
0.0174575
-1.85354
8.2223e-07
0.0174574
-1.85354
6.82027e-07
0.0174573
-1.85354
5.38415e-07
0.0174572
-1.85354
4.23772e-07
0.0174571
-1.85354
3.19774e-07
0.0174571
-1.85354
0.0174562
-1.85348
-2.42194e-07
0.0242559
-1.85219
-3.33909e-07
0.0242569
-1.85225
-4.25268e-07
0.0242568
-1.85225
-5.044e-07
0.0242567
-1.85225
-5.68677e-07
0.0242566
-1.85225
-6.19325e-07
0.0242565
-1.85225
-6.51404e-07
0.0242564
-1.85225
-6.63819e-07
0.0242562
-1.85225
-6.59032e-07
0.0242561
-1.85225
-6.35757e-07
0.024256
-1.85225
-5.98924e-07
0.0242559
-1.85225
-5.46899e-07
0.0242558
-1.85225
-4.8608e-07
0.0242557
-1.85225
-4.13673e-07
0.0242556
-1.85225
-3.3694e-07
0.0242556
-1.85225
-2.47557e-07
0.0242555
-1.85225
-1.5499e-07
0.0242555
-1.85225
-5.295e-08
0.0242555
-1.85225
5.11261e-08
0.0242555
-1.85225
0.0242545
-1.85218
2.01874e-08
0.0308945
-1.85418
2.16604e-07
0.0308956
-1.85424
3.92778e-07
0.0308956
-1.85424
5.24375e-07
0.0308957
-1.85424
6.32505e-07
0.0308957
-1.85424
7.20212e-07
0.0308957
-1.85424
7.81841e-07
0.0308958
-1.85424
8.20014e-07
0.0308958
-1.85424
8.33108e-07
0.0308959
-1.85424
8.25691e-07
0.0308959
-1.85424
7.97117e-07
0.030896
-1.85424
7.53859e-07
0.030896
-1.85424
6.95262e-07
0.0308961
-1.85424
6.28062e-07
0.0308961
-1.85424
5.51792e-07
0.0308962
-1.85424
4.69434e-07
0.0308962
-1.85424
3.8254e-07
0.0308963
-1.85424
3.18866e-07
0.0308963
-1.85424
2.57894e-07
0.0308963
-1.85424
0.0308953
-1.85417
-3.32149e-08
0.0384685
-1.85456
6.72138e-08
0.0384698
-1.85462
1.62171e-07
0.0384699
-1.85462
2.47155e-07
0.0384701
-1.85462
3.23473e-07
0.0384704
-1.85462
3.80744e-07
0.0384707
-1.85462
4.26248e-07
0.038471
-1.85462
4.57701e-07
0.0384714
-1.85462
4.74751e-07
0.0384718
-1.85462
4.80533e-07
0.0384722
-1.85462
4.74009e-07
0.0384726
-1.85462
4.58617e-07
0.038473
-1.85462
4.34115e-07
0.0384734
-1.85462
4.07071e-07
0.0384737
-1.85462
3.71952e-07
0.038474
-1.85462
3.41068e-07
0.0384742
-1.85462
3.039e-07
0.0384744
-1.85462
2.59352e-07
0.0384745
-1.85462
2.06651e-07
0.0384747
-1.85462
0.0384735
-1.85455
-1.65895e-07
0.0391704
-1.84802
-1.71225e-07
0.0391716
-1.84809
-1.79755e-07
0.0391718
-1.84809
-1.94088e-07
0.0391721
-1.84809
-2.04023e-07
0.0391724
-1.84809
-2.11426e-07
0.0391728
-1.84809
-2.13593e-07
0.0391733
-1.84809
-2.10715e-07
0.0391738
-1.84809
-2.02759e-07
0.0391744
-1.84809
-1.89494e-07
0.0391749
-1.84809
-1.72928e-07
0.0391755
-1.84809
-1.51291e-07
0.039176
-1.84809
-1.27929e-07
0.0391765
-1.84809
-9.89099e-08
0.0391769
-1.84809
-6.89552e-08
0.0391773
-1.84809
-3.15557e-08
0.0391776
-1.84809
6.11801e-09
0.0391779
-1.84809
5.89736e-08
0.0391781
-1.84809
1.11858e-07
0.0391783
-1.84809
0.0391773
-1.84803
6.98485e-08
0.0397763
-1.85024
2.93067e-07
0.0397774
-1.8503
4.95875e-07
0.0397776
-1.8503
6.65826e-07
0.039778
-1.8503
8.0828e-07
0.0397785
-1.8503
9.20181e-07
0.0397791
-1.8503
9.99718e-07
0.0397798
-1.8503
1.04884e-06
0.0397804
-1.8503
1.06662e-06
0.0397811
-1.8503
1.05815e-06
0.0397818
-1.8503
1.02386e-06
0.0397825
-1.8503
9.70641e-07
0.0397831
-1.8503
8.99439e-07
0.0397837
-1.8503
8.17237e-07
0.0397842
-1.8503
7.23708e-07
0.0397847
-1.8503
6.24015e-07
0.039785
-1.8503
5.14772e-07
0.0397854
-1.8503
4.02908e-07
0.0397856
-1.8503
2.83134e-07
0.0397858
-1.8503
0.039785
-1.85024
-4.72281e-07
0.0404885
-1.84888
-7.94814e-07
0.0404894
-1.84894
-1.09861e-06
0.0404896
-1.84894
-1.35119e-06
0.0404899
-1.84894
-1.56211e-06
0.0404902
-1.84894
-1.72449e-06
0.0404907
-1.84894
-1.83529e-06
0.0404912
-1.84894
-1.8893e-06
0.0404918
-1.84894
-1.89222e-06
0.0404924
-1.84894
-1.84221e-06
0.0404929
-1.84894
-1.74983e-06
0.0404935
-1.84894
-1.61566e-06
0.0404941
-1.84894
-1.45192e-06
0.0404946
-1.84894
-1.25936e-06
0.0404951
-1.84894
-1.04934e-06
0.0404955
-1.84894
-8.18487e-07
0.0404959
-1.84894
-5.77056e-07
0.0404962
-1.84894
-3.37236e-07
0.0404965
-1.84894
-9.47485e-08
0.0404967
-1.84894
0.040496
-1.84888
2.00645e-07
0.0400749
-1.8531
5.69404e-07
0.0400758
-1.85317
9.06831e-07
0.0400761
-1.85317
1.18213e-06
0.0400765
-1.85317
1.41193e-06
0.0400772
-1.85317
1.5983e-06
0.0400779
-1.85317
1.73097e-06
0.0400786
-1.85317
1.81388e-06
0.0400795
-1.85317
1.84305e-06
0.0400803
-1.85317
1.82569e-06
0.0400811
-1.85317
1.76267e-06
0.0400819
-1.85317
1.6633e-06
0.0400827
-1.85317
1.53144e-06
0.0400833
-1.85317
1.37574e-06
0.0400839
-1.85317
1.20029e-06
0.0400844
-1.85317
1.00742e-06
0.0400849
-1.85317
7.9868e-07
0.0400852
-1.85317
5.98382e-07
0.0400855
-1.85317
3.86546e-07
0.0400857
-1.85317
0.0400852
-1.8531
-6.91721e-07
0.0398473
-1.84991
-1.23207e-06
0.0398479
-1.84997
-1.74139e-06
0.0398482
-1.84997
-2.15764e-06
0.0398484
-1.84997
-2.5075e-06
0.0398489
-1.84997
-2.7848e-06
0.0398494
-1.84997
-2.97806e-06
0.0398499
-1.84997
-3.08056e-06
0.0398505
-1.84997
-3.09761e-06
0.0398512
-1.84997
-3.02872e-06
0.0398518
-1.84997
-2.88694e-06
0.0398525
-1.84997
-2.67697e-06
0.0398531
-1.84997
-2.41458e-06
0.0398536
-1.84997
-2.10529e-06
0.0398541
-1.84997
-1.76399e-06
0.0398546
-1.84997
-1.38632e-06
0.039855
-1.84997
-9.89615e-07
0.0398553
-1.84997
-6.09745e-07
0.0398557
-1.84997
-2.26175e-07
0.0398559
-1.84997
0.0398555
-1.84991
2.74848e-07
0.0375996
-1.85564
7.35057e-07
0.0376001
-1.8557
1.1573e-06
0.0376005
-1.8557
1.48397e-06
0.037601
-1.8557
1.75628e-06
0.0376016
-1.8557
1.98373e-06
0.0376023
-1.8557
2.14614e-06
0.0376032
-1.8557
2.24798e-06
0.037604
-1.8557
2.2832e-06
0.0376049
-1.8557
2.25917e-06
0.0376058
-1.8557
2.17803e-06
0.0376066
-1.8557
2.04971e-06
0.0376074
-1.8557
1.88149e-06
0.037608
-1.8557
1.68161e-06
0.0376087
-1.8557
1.45829e-06
0.0376092
-1.8557
1.20582e-06
0.0376096
-1.8557
9.34416e-07
0.0376099
-1.8557
6.94612e-07
0.0376102
-1.8557
4.42998e-07
0.0376104
-1.8557
0.0376101
-1.85564
-8.24605e-07
0.0355647
-1.85043
-1.49184e-06
0.0355651
-1.85049
-2.12406e-06
0.0355654
-1.85049
-2.64852e-06
0.0355656
-1.85049
-3.09126e-06
0.0355661
-1.85049
-3.44938e-06
0.0355667
-1.85049
-3.70175e-06
0.0355673
-1.85049
-3.84026e-06
0.0355679
-1.85049
-3.86986e-06
0.0355686
-1.85049
-3.79128e-06
0.0355693
-1.85049
-3.61891e-06
0.0355699
-1.8505
-3.36112e-06
0.0355706
-1.8505
-3.0358e-06
0.0355712
-1.8505
-2.65398e-06
0.0355717
-1.8505
-2.23225e-06
0.0355722
-1.8505
-1.76379e-06
0.0355726
-1.8505
-1.27051e-06
0.0355729
-1.8505
-7.9107e-07
0.0355733
-1.8505
-3.05218e-07
0.0355735
-1.8505
0.0355734
-1.85043
2.38307e-07
0.0308837
-1.85652
6.82996e-07
0.0308841
-1.85658
1.08062e-06
0.0308844
-1.85658
1.36517e-06
0.0308848
-1.85658
1.59796e-06
0.0308854
-1.85658
1.80771e-06
0.030886
-1.85658
1.95672e-06
0.0308867
-1.85658
2.05128e-06
0.0308875
-1.85658
2.08278e-06
0.0308882
-1.85658
2.05915e-06
0.030889
-1.85658
1.98155e-06
0.0308897
-1.85658
1.86079e-06
0.0308904
-1.85659
1.70362e-06
0.0308909
-1.85659
1.51741e-06
0.0308914
-1.85659
1.31103e-06
0.0308918
-1.85659
1.06282e-06
0.0308922
-1.85659
8.00125e-07
0.0308924
-1.85659
5.97064e-07
0.0308926
-1.85659
3.99376e-07
0.0308927
-1.85659
0.0308926
-1.85652
-7.97361e-07
0.0264334
-1.84918
-1.38367e-06
0.0264335
-1.84924
-1.94627e-06
0.0264339
-1.84924
-2.55514e-06
0.0264343
-1.84924
-3.07826e-06
0.0264348
-1.84924
-3.46058e-06
0.0264353
-1.84924
-3.73168e-06
0.0264359
-1.84924
-3.87913e-06
0.0264365
-1.84924
-3.91379e-06
0.0264371
-1.84924
-3.8369e-06
0.0264378
-1.84924
-3.66317e-06
0.0264384
-1.84924
-3.40276e-06
0.026439
-1.84924
-3.07485e-06
0.0264396
-1.84924
-2.69896e-06
0.0264401
-1.84924
-2.28996e-06
0.0264405
-1.84924
-1.89231e-06
0.0264409
-1.84924
-1.47235e-06
0.0264412
-1.84924
-9.12614e-07
0.0264413
-1.84924
-3.41258e-07
0.0264415
-1.84924
0.0264416
-1.84918
1.47423e-08
0.0187956
-1.85382
1.87713e-07
0.0187957
-1.85388
2.86917e-07
0.0187961
-1.85388
4.6495e-07
0.0187964
-1.85389
6.26068e-07
0.0187968
-1.85389
7.27745e-07
0.0187972
-1.85389
8.06636e-07
0.0187976
-1.85389
8.51627e-07
0.0187981
-1.85389
8.69312e-07
0.0187986
-1.85389
8.60807e-07
0.0187991
-1.85389
8.27339e-07
0.0187996
-1.85389
7.7759e-07
0.0188
-1.85389
7.09905e-07
0.0188004
-1.85389
6.41196e-07
0.0188007
-1.85389
5.61678e-07
0.0188009
-1.85389
5.15919e-07
0.0188011
-1.85389
4.60248e-07
0.0188012
-1.85389
3.01766e-07
0.0188013
-1.85389
2.14353e-07
0.0188012
-1.85389
0.0188012
-1.85383
-6.40348e-07
0.0114022
-1.84429
-1.13037e-06
0.0114023
-1.84435
-1.66591e-06
0.0114027
-1.84435
-2.13334e-06
0.0114029
-1.84435
-2.52048e-06
0.0114032
-1.84435
-2.82737e-06
0.0114035
-1.84435
-3.03937e-06
0.0114039
-1.84435
-3.15714e-06
0.0114042
-1.84435
-3.18079e-06
0.0114046
-1.84435
-3.11405e-06
0.011405
-1.84435
-2.96721e-06
0.0114053
-1.84435
-2.74779e-06
0.0114057
-1.84435
-2.47575e-06
0.011406
-1.84435
-2.16135e-06
0.0114062
-1.84435
-1.82774e-06
0.0114065
-1.84435
-1.47354e-06
0.0114067
-1.84435
-1.11211e-06
0.0114068
-1.84435
-7.47806e-07
0.0114069
-1.84435
-3.11053e-07
0.0114067
-1.84435
0.0114068
-1.84429
1.07541e-08
-1.84389
-4.29056e-07
-1.84394
-7.22712e-07
-1.84394
-9.76754e-07
-1.84394
-1.13788e-06
-1.84394
-1.27506e-06
-1.84394
-1.35858e-06
-1.84394
-1.4085e-06
-1.84394
-1.41442e-06
-1.84394
-1.38276e-06
-1.84394
-1.31589e-06
-1.84395
-1.21872e-06
-1.84395
-1.0989e-06
-1.84395
-9.56595e-07
-1.84395
-8.17851e-07
-1.84395
-6.58683e-07
-1.84395
-5.51874e-07
-1.84395
-4.58031e-07
-1.84395
-4.80427e-07
-1.84395
-1.8439
-1.60473e-07
0.00324904
-1.84598
-2.80143e-07
0.00324958
-1.84604
-2.82774e-07
0.00324942
-1.84604
-3.1664e-07
0.00324937
-1.84604
-3.20415e-07
0.00324924
-1.84604
-3.38973e-07
0.00324913
-1.84604
-3.45076e-07
0.00324899
-1.84604
-3.51369e-07
0.00324885
-1.84604
-3.49499e-07
0.00324869
-1.84604
-3.41246e-07
0.00324854
-1.84604
-3.27212e-07
0.00324839
-1.84604
-3.03459e-07
0.00324825
-1.84604
-2.77555e-07
0.00324812
-1.84604
-2.36455e-07
0.003248
-1.84604
-1.99426e-07
0.00324791
-1.84604
-1.32532e-07
0.00324782
-1.84604
-8.5367e-08
0.00324778
-1.84604
1.20955e-08
0.00324771
-1.84604
1.18172e-08
0.00324778
-1.84604
0.00324719
-1.84598
-4.55199e-07
0.00719785
-1.85131
-6.53415e-07
0.00719841
-1.85137
-8.6508e-07
0.00719829
-1.85137
-1.04328e-06
0.00719822
-1.85137
-1.19553e-06
0.0071981
-1.85137
-1.31439e-06
0.007198
-1.85137
-1.39745e-06
0.00719787
-1.85137
-1.43888e-06
0.00719775
-1.85137
-1.44538e-06
0.00719762
-1.85137
-1.41211e-06
0.00719751
-1.85137
-1.35052e-06
0.0071974
-1.85137
-1.25591e-06
0.00719731
-1.85137
-1.14206e-06
0.00719724
-1.85137
-1.00294e-06
0.00719718
-1.85137
-8.52389e-07
0.00719715
-1.85137
-6.79091e-07
0.00719711
-1.85137
-4.88627e-07
0.00719712
-1.85137
-2.7876e-07
0.00719709
-1.85137
-2.40744e-08
0.00719715
-1.85137
0.00719657
-1.85131
1.30601e-08
0.0108199
-1.85498
2.35829e-07
0.0108205
-1.85505
4.10401e-07
0.0108204
-1.85505
6.33627e-07
0.0108203
-1.85505
8.16338e-07
0.0108202
-1.85505
9.44085e-07
0.0108201
-1.85505
1.02715e-06
0.01082
-1.85505
1.0772e-06
0.0108199
-1.85505
1.08682e-06
0.0108198
-1.85505
1.07346e-06
0.0108197
-1.85505
1.02905e-06
0.0108196
-1.85505
9.69665e-07
0.0108195
-1.85505
8.91053e-07
0.0108194
-1.85505
8.07691e-07
0.0108194
-1.85505
7.16781e-07
0.0108193
-1.85505
6.4788e-07
0.0108192
-1.85505
5.79233e-07
0.0108192
-1.85505
4.37341e-07
0.0108193
-1.85505
3.30404e-07
0.0108193
-1.85505
0.0108186
-1.85498
-3.25001e-07
0.0152315
-1.85381
-4.64451e-07
0.0152321
-1.85388
-6.01274e-07
0.0152321
-1.85388
-7.66161e-07
0.015232
-1.85388
-9.13701e-07
0.0152318
-1.85388
-1.00455e-06
0.0152317
-1.85388
-1.07253e-06
0.0152316
-1.85388
-1.09745e-06
0.0152314
-1.85388
-1.1006e-06
0.0152313
-1.85387
-1.06751e-06
0.0152312
-1.85387
-1.01672e-06
0.0152311
-1.85387
-9.38622e-07
0.015231
-1.85387
-8.47916e-07
0.0152309
-1.85387
-7.42682e-07
0.0152308
-1.85387
-6.2895e-07
0.0152308
-1.85387
-5.22629e-07
0.0152308
-1.85387
-4.02712e-07
0.0152308
-1.85387
-2.13169e-07
0.0152308
-1.85387
-1.54191e-08
0.0152308
-1.85387
0.0152301
-1.85381
1.57475e-07
0.0197053
-1.85795
4.89656e-07
0.019706
-1.85802
7.88827e-07
0.0197059
-1.85802
1.03399e-06
0.0197059
-1.85802
1.23105e-06
0.0197058
-1.85802
1.39682e-06
0.0197058
-1.85802
1.50974e-06
0.0197057
-1.85802
1.58015e-06
0.0197056
-1.85802
1.6007e-06
0.0197056
-1.85802
1.58441e-06
0.0197055
-1.85802
1.52744e-06
0.0197055
-1.85802
1.44338e-06
0.0197054
-1.85802
1.32952e-06
0.0197054
-1.85802
1.19824e-06
0.0197053
-1.85802
1.04827e-06
0.0197053
-1.85802
8.78451e-07
0.0197053
-1.85802
6.97572e-07
0.0197053
-1.85802
5.35351e-07
0.0197053
-1.85802
3.74295e-07
0.0197053
-1.85802
0.0197046
-1.85795
-1.67915e-07
0.0248951
-1.85738
-2.10285e-07
0.0248959
-1.85744
-2.50727e-07
0.0248958
-1.85744
-2.7012e-07
0.0248958
-1.85744
-2.83382e-07
0.0248957
-1.85744
-2.89817e-07
0.0248956
-1.85744
-2.89368e-07
0.0248955
-1.85744
-2.8088e-07
0.0248954
-1.85744
-2.62987e-07
0.0248953
-1.85744
-2.37338e-07
0.0248953
-1.85744
-2.08382e-07
0.0248952
-1.85744
-1.72504e-07
0.0248951
-1.85744
-1.35816e-07
0.0248951
-1.85744
-9.35213e-08
0.0248951
-1.85744
-5.37708e-08
0.0248951
-1.85744
-3.74825e-09
0.0248951
-1.85744
4.3226e-08
0.0248951
-1.85744
8.09065e-08
0.0248951
-1.85744
1.1146e-07
0.0248951
-1.85744
0.0248943
-1.85737
7.07669e-08
0.0300977
-1.85938
2.92908e-07
0.0300986
-1.85944
4.98633e-07
0.0300986
-1.85944
6.69968e-07
0.0300986
-1.85944
8.14308e-07
0.0300986
-1.85944
9.33844e-07
0.0300986
-1.85944
1.02212e-06
0.0300986
-1.85944
1.08196e-06
0.0300986
-1.85944
1.10932e-06
0.0300986
-1.85944
1.11112e-06
0.0300986
-1.85944
1.08437e-06
0.0300986
-1.85944
1.03789e-06
0.0300986
-1.85944
9.68786e-07
0.0300987
-1.85944
8.86685e-07
0.0300987
-1.85944
7.86613e-07
0.0300988
-1.85944
6.73687e-07
0.0300988
-1.85944
5.48681e-07
0.0300989
-1.85944
4.30885e-07
0.0300989
-1.85944
3.05315e-07
0.0300989
-1.85944
0.030098
-1.85938
4.43988e-08
0.0356943
-1.86015
1.98218e-07
0.0356954
-1.86022
3.46546e-07
0.0356954
-1.86022
5.02273e-07
0.0356955
-1.86022
6.4186e-07
0.0356957
-1.86022
7.53606e-07
0.0356958
-1.86022
8.42313e-07
0.035696
-1.86022
9.07525e-07
0.0356961
-1.86022
9.4763e-07
0.0356963
-1.86022
9.65938e-07
0.0356965
-1.86022
9.60321e-07
0.0356967
-1.86022
9.37534e-07
0.0356969
-1.86022
8.94641e-07
0.0356971
-1.86022
8.41942e-07
0.0356973
-1.86022
7.70059e-07
0.0356975
-1.86022
6.94257e-07
0.0356976
-1.86022
5.99541e-07
0.0356977
-1.86022
4.65673e-07
0.0356978
-1.86022
3.05608e-07
0.0356979
-1.86022
0.0356969
-1.86015
-1.6753e-07
0.0347146
-1.84704
-2.01889e-07
0.0347155
-1.84711
-2.33176e-07
0.0347156
-1.84711
-2.47488e-07
0.0347156
-1.84711
-2.55606e-07
0.0347157
-1.84711
-2.59889e-07
0.0347158
-1.84711
-2.54333e-07
0.0347159
-1.84711
-2.41834e-07
0.0347161
-1.84711
-2.2447e-07
0.0347162
-1.84711
-2.00088e-07
0.0347163
-1.84711
-1.72607e-07
0.0347165
-1.84711
-1.39125e-07
0.0347166
-1.84711
-1.06089e-07
0.0347168
-1.84711
-6.7712e-08
0.0347169
-1.84711
-3.1719e-08
0.034717
-1.84711
1.06099e-08
0.0347171
-1.84711
4.99462e-08
0.0347172
-1.84711
8.09264e-08
0.0347173
-1.84711
1.05146e-07
0.0347174
-1.84711
0.0347165
-1.84705
9.3023e-08
0.0336197
-1.84914
3.07674e-07
0.0336205
-1.8492
5.13814e-07
0.0336206
-1.8492
7.08125e-07
0.0336207
-1.8492
8.76661e-07
0.0336209
-1.8492
1.01935e-06
0.0336211
-1.8492
1.12848e-06
0.0336213
-1.8492
1.20999e-06
0.0336216
-1.8492
1.2572e-06
0.0336218
-1.8492
1.27943e-06
0.0336221
-1.84921
1.27094e-06
0.0336223
-1.84921
1.24203e-06
0.0336226
-1.84921
1.1878e-06
0.0336228
-1.84921
1.11699e-06
0.033623
-1.84921
1.02286e-06
0.0336232
-1.84921
9.09678e-07
0.0336233
-1.84921
7.67172e-07
0.0336235
-1.84921
5.87249e-07
0.0336236
-1.8492
3.68656e-07
0.0336237
-1.8492
0.033623
-1.84914
-4.76748e-07
0.0325454
-1.8478
-8.34117e-07
0.0325462
-1.84787
-1.168e-06
0.0325462
-1.84787
-1.41978e-06
0.0325462
-1.84787
-1.63081e-06
0.0325463
-1.84787
-1.79233e-06
0.0325464
-1.84787
-1.90412e-06
0.0325465
-1.84787
-1.95645e-06
0.0325467
-1.84787
-1.95957e-06
0.0325468
-1.84787
-1.90692e-06
0.032547
-1.84787
-1.81397e-06
0.0325471
-1.84787
-1.67627e-06
0.0325472
-1.84787
-1.50988e-06
0.0325474
-1.84787
-1.3102e-06
0.0325475
-1.84787
-1.09153e-06
0.0325476
-1.84787
-8.45213e-07
0.0325477
-1.84787
-5.85385e-07
0.0325478
-1.84787
-3.52927e-07
0.0325479
-1.84787
-1.24153e-07
0.032548
-1.84787
0.0325474
-1.84781
2.06225e-07
0.0307976
-1.85136
5.43282e-07
0.0307982
-1.85142
8.6899e-07
0.0307983
-1.85142
1.1499e-06
0.0307985
-1.85142
1.39118e-06
0.0307988
-1.85142
1.60183e-06
0.0307991
-1.85142
1.76146e-06
0.0307994
-1.85142
1.88084e-06
0.0307997
-1.85142
1.94703e-06
0.0308001
-1.85142
1.97317e-06
0.0308004
-1.85142
1.95164e-06
0.0308007
-1.85142
1.896e-06
0.0308011
-1.85142
1.80132e-06
0.0308013
-1.85142
1.67729e-06
0.0308016
-1.85142
1.51866e-06
0.0308018
-1.85142
1.3233e-06
0.030802
-1.85142
1.08415e-06
0.0308022
-1.85142
8.17747e-07
0.0308023
-1.85142
4.94902e-07
0.0308024
-1.85142
0.030802
-1.85136
-7.38923e-07
0.029109
-1.84822
-1.35853e-06
0.0291095
-1.84828
-1.94169e-06
0.0291096
-1.84828
-2.38852e-06
0.0291096
-1.84828
-2.76859e-06
0.0291097
-1.84828
-3.06997e-06
0.0291098
-1.84828
-3.28536e-06
0.02911
-1.84828
-3.39988e-06
0.0291102
-1.84828
-3.4261e-06
0.0291103
-1.84828
-3.35627e-06
0.0291105
-1.84828
-3.21094e-06
0.0291107
-1.84828
-2.98797e-06
0.0291108
-1.84828
-2.70858e-06
0.029111
-1.84828
-2.3719e-06
0.0291111
-1.84828
-1.99522e-06
0.0291112
-1.84828
-1.5695e-06
0.0291113
-1.84828
-1.11408e-06
0.0291114
-1.84828
-7.05778e-07
0.0291116
-1.84828
-2.96415e-07
0.0291117
-1.84828
0.0291113
-1.84822
2.69519e-07
0.0262774
-1.85281
6.84141e-07
0.0262778
-1.85287
1.08729e-06
0.026278
-1.85287
1.40605e-06
0.0262782
-1.85287
1.67904e-06
0.0262785
-1.85287
1.92595e-06
0.0262789
-1.85287
2.11152e-06
0.0262793
-1.85287
2.25091e-06
0.0262797
-1.85287
2.32569e-06
0.0262801
-1.85287
2.35204e-06
0.0262805
-1.85287
2.32107e-06
0.0262809
-1.85287
2.24858e-06
0.0262813
-1.85287
2.13101e-06
0.0262816
-1.85287
1.97699e-06
0.0262819
-1.85287
1.78421e-06
0.0262821
-1.85287
1.53933e-06
0.0262823
-1.85287
1.24086e-06
0.0262825
-1.85287
9.40133e-07
0.0262827
-1.85287
5.72288e-07
0.0262828
-1.85287
0.0262825
-1.85281
-9.0906e-07
0.0235529
-1.8477
-1.68913e-06
0.0235532
-1.84777
-2.42611e-06
0.0235533
-1.84777
-3.017e-06
0.0235533
-1.84777
-3.52184e-06
0.0235535
-1.84777
-3.92924e-06
0.0235537
-1.84777
-4.22337e-06
0.023554
-1.84777
-4.38626e-06
0.0235542
-1.84777
-4.43147e-06
0.0235544
-1.84777
-4.35212e-06
0.0235547
-1.84777
-4.17087e-06
0.0235549
-1.84777
-3.88988e-06
0.0235551
-1.84777
-3.53287e-06
0.0235553
-1.84777
-3.10572e-06
0.0235555
-1.84777
-2.62645e-06
0.0235556
-1.84777
-2.08608e-06
0.0235557
-1.84777
-1.5049e-06
0.0235558
-1.84777
-9.57658e-07
0.023556
-1.84777
-4.0703e-07
0.023556
-1.84777
0.0235558
-1.84771
2.09739e-07
0.0194279
-1.85239
5.96469e-07
0.0194281
-1.85246
9.64108e-07
0.0194283
-1.85246
1.2321e-06
0.0194286
-1.85246
1.45602e-06
0.0194289
-1.85246
1.67943e-06
0.0194293
-1.85246
1.84537e-06
0.0194297
-1.85246
1.97374e-06
0.0194302
-1.85246
2.04127e-06
0.0194306
-1.85246
2.06788e-06
0.019431
-1.85246
2.04116e-06
0.0194315
-1.85246
1.98022e-06
0.0194318
-1.85246
1.8797e-06
0.0194321
-1.85246
1.74871e-06
0.0194324
-1.85246
1.58597e-06
0.0194326
-1.85246
1.35866e-06
0.0194328
-1.85246
1.0859e-06
0.0194329
-1.85246
8.38339e-07
0.019433
-1.85246
5.37633e-07
0.019433
-1.85246
0.019433
-1.8524
-9.01775e-07
0.0154361
-1.84518
-1.58575e-06
0.015436
-1.84525
-2.22678e-06
0.0154362
-1.84525
-2.93863e-06
0.0154366
-1.84525
-3.55376e-06
0.0154369
-1.84525
-3.99751e-06
0.0154371
-1.84525
-4.31904e-06
0.0154374
-1.84525
-4.49452e-06
0.0154377
-1.84525
-4.54613e-06
0.015438
-1.84525
-4.46655e-06
0.0154383
-1.84525
-4.28045e-06
0.0154386
-1.84525
-3.99141e-06
0.0154389
-1.84525
-3.62589e-06
0.0154392
-1.84525
-3.19995e-06
0.0154394
-1.84525
-2.7309e-06
0.0154396
-1.84525
-2.27036e-06
0.0154398
-1.84525
-1.77889e-06
0.0154399
-1.84525
-1.10808e-06
0.0154397
-1.84525
-4.39046e-07
0.0154397
-1.84525
0.0154399
-1.84519
-8.07445e-08
0.010115
-1.8485
-1.10188e-08
0.0101148
-1.84856
1.08074e-08
0.0101151
-1.84856
1.92396e-07
0.0101153
-1.84856
3.66964e-07
0.0101156
-1.84856
4.69247e-07
0.0101159
-1.84856
5.60038e-07
0.0101162
-1.84857
6.22994e-07
0.0101165
-1.84857
6.69435e-07
0.0101169
-1.84857
6.99292e-07
0.0101172
-1.84857
7.12413e-07
0.0101175
-1.84857
7.17425e-07
0.0101177
-1.84857
7.07804e-07
0.010118
-1.84857
7.03571e-07
0.0101182
-1.84857
6.83619e-07
0.0101183
-1.84857
7.10537e-07
0.0101184
-1.84857
7.12683e-07
0.0101185
-1.84857
5.15924e-07
0.0101185
-1.84857
3.40371e-07
0.0101184
-1.84857
0.0101186
-1.84851
-8.09645e-07
0.00486955
-1.83904
-1.41562e-06
0.00486928
-1.8391
-2.02717e-06
0.00486959
-1.8391
-2.56175e-06
0.00486971
-1.8391
-3.01137e-06
0.00486988
-1.8391
-3.36876e-06
0.00487002
-1.83911
-3.61965e-06
0.0048702
-1.83911
-3.75848e-06
0.00487038
-1.83911
-3.78937e-06
0.00487057
-1.83911
-3.71227e-06
0.00487076
-1.83911
-3.54325e-06
0.00487094
-1.83911
-3.28745e-06
0.00487111
-1.83911
-2.96967e-06
0.00487126
-1.83911
-2.59691e-06
0.0048714
-1.83911
-2.19465e-06
0.0048715
-1.83911
-1.75641e-06
0.00487161
-1.83911
-1.29846e-06
0.00487164
-1.83911
-8.29962e-07
0.00487167
-1.83911
-3.22317e-07
0.00487148
-1.83911
0.00487182
-1.83905
-1.97383e-07
-1.83902
-6.38042e-07
-1.83907
-9.58547e-07
-1.83907
-1.21492e-06
-1.83907
-1.3845e-06
-1.83907
-1.52839e-06
-1.83907
-1.61637e-06
-1.83907
-1.66031e-06
-1.83907
-1.65648e-06
-1.83907
-1.60719e-06
-1.83907
-1.51887e-06
-1.83907
-1.39095e-06
-1.83907
-1.24014e-06
-1.83908
-1.05612e-06
-1.83908
-8.73498e-07
-1.83908
-6.59664e-07
-1.83908
-4.93845e-07
-1.83908
-3.56016e-07
-1.83908
-3.26585e-07
-1.83908
-1.83902
-1.71551e-07
0.00401794
-1.85
-2.62726e-07
0.00401835
-1.85006
-2.1633e-07
0.00401826
-1.85006
-2.17311e-07
0.00401825
-1.85006
-1.99095e-07
0.00401818
-1.85006
-2.02288e-07
0.00401815
-1.85006
-1.99427e-07
0.00401808
-1.85006
-2.00451e-07
0.00401803
-1.85006
-1.99433e-07
0.00401796
-1.85006
-1.95207e-07
0.0040179
-1.85006
-1.91364e-07
0.00401784
-1.85006
-1.80556e-07
0.00401778
-1.85006
-1.71988e-07
0.00401773
-1.85006
-1.50067e-07
0.00401769
-1.85006
-1.32496e-07
0.00401766
-1.85006
-8.28876e-08
0.00401763
-1.85006
-4.52231e-08
0.00401763
-1.85006
6.32891e-08
0.0040176
-1.85006
5.25513e-08
0.00401766
-1.85006
0.00401722
-1.85
-3.99185e-07
0.00720581
-1.85449
-5.22132e-07
0.00720621
-1.85456
-6.64734e-07
0.00720612
-1.85456
-7.80779e-07
0.00720609
-1.85456
-8.87622e-07
0.00720601
-1.85456
-9.69504e-07
0.00720597
-1.85456
-1.03069e-06
0.00720589
-1.85456
-1.05934e-06
0.00720583
-1.85456
-1.06735e-06
0.00720576
-1.85456
-1.04361e-06
0.0072057
-1.85456
-1.00375e-06
0.00720565
-1.85456
-9.36785e-07
0.00720561
-1.85456
-8.5953e-07
0.00720558
-1.85456
-7.6086e-07
0.00720556
-1.85456
-6.5461e-07
0.00720556
-1.85456
-5.25273e-07
0.00720554
-1.85456
-3.73039e-07
0.00720556
-1.85456
-1.98777e-07
0.00720555
-1.85456
2.0755e-08
0.0072056
-1.85456
0.00720519
-1.85449
-1.14479e-08
0.0103953
-1.85817
2.33823e-07
0.0103958
-1.85824
4.22653e-07
0.0103958
-1.85824
6.61433e-07
0.0103957
-1.85824
8.53558e-07
0.0103957
-1.85824
9.91051e-07
0.0103957
-1.85824
1.07877e-06
0.0103957
-1.85824
1.13541e-06
0.0103958
-1.85824
1.1467e-06
0.0103958
-1.85824
1.13697e-06
0.0103958
-1.85824
1.09068e-06
0.0103959
-1.85824
1.03077e-06
0.0103959
-1.85824
9.46613e-07
0.0103959
-1.85824
8.57843e-07
0.010396
-1.85824
7.60267e-07
0.010396
-1.85824
6.85433e-07
0.0103961
-1.85824
6.15289e-07
0.0103961
-1.85824
4.70042e-07
0.0103962
-1.85824
3.68704e-07
0.0103963
-1.85824
0.0103958
-1.85817
-2.91855e-07
0.0145949
-1.85801
-3.50996e-07
0.0145954
-1.85808
-4.19245e-07
0.0145954
-1.85808
-5.3204e-07
0.0145953
-1.85808
-6.40611e-07
0.0145952
-1.85808
-6.9877e-07
0.0145952
-1.85808
-7.47615e-07
0.0145951
-1.85807
-7.59791e-07
0.014595
-1.85807
-7.63265e-07
0.0145949
-1.85807
-7.35611e-07
0.0145949
-1.85807
-7.02066e-07
0.0145948
-1.85807
-6.44678e-07
0.0145948
-1.85807
-5.84472e-07
0.0145948
-1.85807
-5.11573e-07
0.0145947
-1.85807
-4.36617e-07
0.0145948
-1.85807
-3.69921e-07
0.0145948
-1.85807
-2.90157e-07
0.0145948
-1.85807
-1.2754e-07
0.0145948
-1.85807
5.28056e-08
0.0145948
-1.85807
0.0145943
-1.85801
1.15792e-07
0.0188084
-1.86217
4.56293e-07
0.018809
-1.86223
7.56716e-07
0.018809
-1.86223
1.00412e-06
0.018809
-1.86223
1.20044e-06
0.0188089
-1.86223
1.36931e-06
0.0188089
-1.86223
1.48413e-06
0.0188088
-1.86223
1.56066e-06
0.0188088
-1.86223
1.58637e-06
0.0188087
-1.86223
1.57831e-06
0.0188087
-1.86223
1.52753e-06
0.0188087
-1.86223
1.45094e-06
0.0188087
-1.86223
1.3419e-06
0.0188087
-1.86223
1.21494e-06
0.0188087
-1.86223
1.06695e-06
0.0188087
-1.86223
8.99489e-07
0.0188087
-1.86223
7.22081e-07
0.0188087
-1.86223
5.64181e-07
0.0188087
-1.86223
4.13932e-07
0.0188088
-1.86223
0.0188081
-1.86217
-1.5508e-07
0.0239428
-1.86251
-1.35209e-07
0.0239436
-1.86257
-1.17276e-07
0.0239435
-1.86257
-9.17331e-08
0.0239435
-1.86257
-6.79027e-08
0.0239434
-1.86257
-4.74139e-08
0.0239433
-1.86257
-2.83265e-08
0.0239432
-1.86257
-4.05987e-09
0.0239431
-1.86257
1.80193e-08
0.0239431
-1.86257
4.31338e-08
0.023943
-1.86257
6.44134e-08
0.023943
-1.86257
8.76088e-08
0.0239429
-1.86257
1.04963e-07
0.0239429
-1.86257
1.23905e-07
0.0239429
-1.86257
1.35941e-07
0.0239429
-1.86257
1.56317e-07
0.0239429
-1.86257
1.71269e-07
0.0239429
-1.86257
1.83841e-07
0.0239429
-1.86257
1.92715e-07
0.023943
-1.86257
0.0239422
-1.86251
3.66483e-08
0.0291092
-1.86454
2.75343e-07
0.02911
-1.86461
4.92165e-07
0.02911
-1.86461
6.71216e-07
0.02911
-1.86461
8.21005e-07
0.0291099
-1.86461
9.48583e-07
0.0291098
-1.86461
1.04336e-06
0.0291098
-1.86461
1.10983e-06
0.0291097
-1.86461
1.14353e-06
0.0291097
-1.86461
1.15165e-06
0.0291096
-1.86461
1.12998e-06
0.0291096
-1.86461
1.08832e-06
0.0291096
-1.86461
1.02193e-06
0.0291095
-1.86461
9.37928e-07
0.0291096
-1.86461
8.36699e-07
0.0291096
-1.86461
7.22983e-07
0.0291096
-1.86461
5.94547e-07
0.0291096
-1.86461
4.76892e-07
0.0291096
-1.86461
3.53395e-07
0.0291097
-1.86461
0.0291088
-1.86454
9.74849e-09
0.0347569
-1.8658
1.84634e-07
0.0347579
-1.86587
3.50124e-07
0.0347579
-1.86587
5.18113e-07
0.0347579
-1.86587
6.68112e-07
0.0347578
-1.86587
7.92358e-07
0.0347578
-1.86587
8.91838e-07
0.0347577
-1.86587
9.6973e-07
0.0347576
-1.86587
1.02047e-06
0.0347576
-1.86586
1.05153e-06
0.0347575
-1.86586
1.05677e-06
0.0347575
-1.86586
1.04491e-06
0.0347575
-1.86586
1.00952e-06
0.0347575
-1.86586
9.61329e-07
0.0347575
-1.86586
8.91489e-07
0.0347575
-1.86586
8.12042e-07
0.0347575
-1.86586