/*--------------------------------*- C++ -*----------------------------------*\
| =========                 |                                                 |
| \\      /  F ield         | OpenFOAM: The Open Source CFD Toolbox           |
|  \\    /   O peration     | Version:  2212                                  |
|   \\  /    A nd           | Website:  www.openfoam.com                      |
|    \\/     M anipulation  |                                                 |
\*---------------------------------------------------------------------------*/
FoamFile
{
    version     2.0;
    format      ascii;
    arch        "LSB;label=32;scalar=64";
    class       volScalarField;
    location    "0.472";
    object      pPrime2Mean;
}
// * * * * * * * * * * * * * * * * * * * * * * * * * * * * * * * * * * * * * //

dimensions      [0 4 -4 0 0 0 0];

internalField   nonuniform List<scalar> 
24240
(
152976
152976
152975
152973
152971
152968
152964
152961
152957
152953
152948
152944
152940
152935
152931
152928
152924
152921
152919
152918
139522
139522
139522
139521
139521
139520
139519
139518
139517
139517
139515
139514
139513
139512
139511
139511
139510
139509
139509
139508
131469
131469
131469
131469
131469
131469
131469
131470
131470
131470
131470
131471
131471
131471
131471
131471
131472
131472
131472
131472
126614
126614
126615
126615
126616
126616
126617
126618
126619
126619
126620
126621
126622
126623
126624
126625
126625
126626
126627
126627
123364
123365
123365
123366
123366
123367
123368
123369
123371
123372
123373
123375
123376
123377
123378
123380
123381
123381
123382
123383
121145
121145
121146
121146
121147
121148
121149
121151
121152
121154
121155
121157
121158
121160
121161
121163
121164
121165
121166
121166
119693
119693
119694
119695
119695
119697
119698
119699
119701
119702
119704
119706
119708
119709
119711
119712
119713
119715
119715
119716
118851
118851
118852
118852
118853
118854
118856
118857
118859
118860
118862
118864
118865
118867
118869
118870
118871
118872
118873
118874
118412
118412
118412
118413
118414
118415
118416
118417
118419
118420
118422
118424
118425
118427
118428
118430
118431
118432
118433
118433
118560
118561
118561
118561
118562
118563
118564
118565
118567
118568
118570
118571
118573
118574
118575
118577
118578
118579
118580
118580
119166
119166
119167
119167
119168
119169
119170
119171
119172
119173
119175
119176
119177
119179
119180
119181
119182
119183
119184
119184
120245
120245
120245
120246
120246
120247
120248
120249
120250
120251
120252
120253
120255
120256
120257
120258
120259
120260
120260
120261
121838
121838
121838
121838
121839
121840
121840
121841
121842
121843
121844
121845
121846
121847
121848
121849
121850
121850
121851
121851
124019
124019
124019
124019
124019
124020
124020
124021
124022
124022
124023
124024
124025
124025
124026
124027
124028
124028
124029
124029
126915
126915
126915
126915
126915
126915
126916
126916
126916
126917
126917
126918
126918
126919
126919
126920
126920
126920
126921
126921
130743
130743
130743
130743
130743
130743
130743
130743
130743
130743
130743
130743
130743
130743
130743
130743
130744
130744
130744
130744
135905
135905
135904
135904
135904
135903
135903
135902
135902
135901
135900
135900
135899
135899
135898
135898
135898
135898
135898
135898
143255
143255
143255
143254
143253
143252
143251
143250
143248
143247
143245
143244
143243
143241
143240
143239
143238
143237
143236
143236
155219
155219
155218
155217
155215
155214
155211
155209
155206
155203
155200
155197
155194
155191
155188
155186
155184
155182
155181
155180
172504
172504
172502
172500
172497
172493
172488
172483
172477
172471
172464
172457
172450
172443
172437
172431
172425
172421
172417
172415
1.29326e+06
1.29326e+06
1.29325e+06
1.29324e+06
1.29323e+06
1.29321e+06
1.29319e+06
1.29317e+06
1.29315e+06
1.29312e+06
1.2931e+06
1.29307e+06
1.29305e+06
1.29302e+06
1.293e+06
1.29298e+06
1.29296e+06
1.29294e+06
1.29293e+06
1.29292e+06
1.22898e+06
1.22898e+06
1.22898e+06
1.22897e+06
1.22897e+06
1.22896e+06
1.22896e+06
1.22895e+06
1.22894e+06
1.22893e+06
1.22892e+06
1.22891e+06
1.2289e+06
1.2289e+06
1.22889e+06
1.22888e+06
1.22887e+06
1.22887e+06
1.22886e+06
1.22886e+06
1.17087e+06
1.17087e+06
1.17087e+06
1.17087e+06
1.17087e+06
1.17087e+06
1.17087e+06
1.17087e+06
1.17087e+06
1.17087e+06
1.17087e+06
1.17087e+06
1.17087e+06
1.17087e+06
1.17087e+06
1.17087e+06
1.17087e+06
1.17087e+06
1.17087e+06
1.17087e+06
1.13153e+06
1.13153e+06
1.13154e+06
1.13154e+06
1.13154e+06
1.13154e+06
1.13155e+06
1.13155e+06
1.13156e+06
1.13156e+06
1.13157e+06
1.13157e+06
1.13158e+06
1.13158e+06
1.13159e+06
1.13159e+06
1.1316e+06
1.1316e+06
1.1316e+06
1.13161e+06
1.1041e+06
1.1041e+06
1.1041e+06
1.10411e+06
1.10411e+06
1.10412e+06
1.10412e+06
1.10413e+06
1.10414e+06
1.10415e+06
1.10416e+06
1.10417e+06
1.10417e+06
1.10418e+06
1.10419e+06
1.1042e+06
1.1042e+06
1.10421e+06
1.10421e+06
1.10422e+06
1.08504e+06
1.08504e+06
1.08505e+06
1.08505e+06
1.08506e+06
1.08506e+06
1.08507e+06
1.08508e+06
1.08509e+06
1.0851e+06
1.08511e+06
1.08512e+06
1.08514e+06
1.08515e+06
1.08516e+06
1.08516e+06
1.08517e+06
1.08518e+06
1.08518e+06
1.08519e+06
1.07238e+06
1.07238e+06
1.07238e+06
1.07239e+06
1.0724e+06
1.0724e+06
1.07241e+06
1.07242e+06
1.07243e+06
1.07245e+06
1.07246e+06
1.07247e+06
1.07248e+06
1.07249e+06
1.0725e+06
1.07251e+06
1.07252e+06
1.07253e+06
1.07254e+06
1.07254e+06
1.06512e+06
1.06512e+06
1.06513e+06
1.06513e+06
1.06514e+06
1.06514e+06
1.06515e+06
1.06516e+06
1.06517e+06
1.06519e+06
1.0652e+06
1.06521e+06
1.06522e+06
1.06523e+06
1.06525e+06
1.06526e+06
1.06527e+06
1.06527e+06
1.06528e+06
1.06528e+06
1.06194e+06
1.06194e+06
1.06195e+06
1.06195e+06
1.06196e+06
1.06196e+06
1.06197e+06
1.06198e+06
1.06199e+06
1.062e+06
1.06202e+06
1.06203e+06
1.06204e+06
1.06205e+06
1.06206e+06
1.06207e+06
1.06208e+06
1.06209e+06
1.06209e+06
1.0621e+06
1.06316e+06
1.06317e+06
1.06317e+06
1.06317e+06
1.06318e+06
1.06319e+06
1.06319e+06
1.0632e+06
1.06321e+06
1.06322e+06
1.06323e+06
1.06324e+06
1.06326e+06
1.06327e+06
1.06328e+06
1.06329e+06
1.06329e+06
1.0633e+06
1.06331e+06
1.06331e+06
1.06842e+06
1.06842e+06
1.06843e+06
1.06843e+06
1.06844e+06
1.06844e+06
1.06845e+06
1.06846e+06
1.06847e+06
1.06848e+06
1.06849e+06
1.0685e+06
1.06851e+06
1.06852e+06
1.06853e+06
1.06853e+06
1.06854e+06
1.06855e+06
1.06855e+06
1.06856e+06
1.07783e+06
1.07783e+06
1.07783e+06
1.07783e+06
1.07784e+06
1.07784e+06
1.07785e+06
1.07785e+06
1.07786e+06
1.07787e+06
1.07788e+06
1.07789e+06
1.0779e+06
1.07791e+06
1.07791e+06
1.07792e+06
1.07793e+06
1.07793e+06
1.07794e+06
1.07794e+06
1.0917e+06
1.0917e+06
1.0917e+06
1.09171e+06
1.09171e+06
1.09171e+06
1.09172e+06
1.09173e+06
1.09173e+06
1.09174e+06
1.09175e+06
1.09175e+06
1.09176e+06
1.09177e+06
1.09177e+06
1.09178e+06
1.09179e+06
1.09179e+06
1.0918e+06
1.0918e+06
1.11066e+06
1.11066e+06
1.11066e+06
1.11066e+06
1.11067e+06
1.11067e+06
1.11067e+06
1.11068e+06
1.11068e+06
1.11068e+06
1.11069e+06
1.1107e+06
1.1107e+06
1.11071e+06
1.11071e+06
1.11072e+06
1.11072e+06
1.11072e+06
1.11073e+06
1.11073e+06
1.13572e+06
1.13572e+06
1.13572e+06
1.13572e+06
1.13572e+06
1.13572e+06
1.13573e+06
1.13573e+06
1.13573e+06
1.13573e+06
1.13573e+06
1.13574e+06
1.13574e+06
1.13574e+06
1.13575e+06
1.13575e+06
1.13575e+06
1.13575e+06
1.13576e+06
1.13576e+06
1.16856e+06
1.16855e+06
1.16855e+06
1.16855e+06
1.16855e+06
1.16855e+06
1.16855e+06
1.16855e+06
1.16855e+06
1.16855e+06
1.16855e+06
1.16854e+06
1.16854e+06
1.16854e+06
1.16854e+06
1.16854e+06
1.16854e+06
1.16854e+06
1.16855e+06
1.16855e+06
1.21199e+06
1.21199e+06
1.21198e+06
1.21198e+06
1.21198e+06
1.21197e+06
1.21197e+06
1.21196e+06
1.21196e+06
1.21195e+06
1.21194e+06
1.21194e+06
1.21193e+06
1.21193e+06
1.21192e+06
1.21192e+06
1.21192e+06
1.21191e+06
1.21191e+06
1.21191e+06
1.27106e+06
1.27105e+06
1.27105e+06
1.27104e+06
1.27104e+06
1.27103e+06
1.27102e+06
1.27101e+06
1.27099e+06
1.27098e+06
1.27097e+06
1.27095e+06
1.27094e+06
1.27093e+06
1.27092e+06
1.27091e+06
1.2709e+06
1.27089e+06
1.27088e+06
1.27088e+06
1.35556e+06
1.35556e+06
1.35555e+06
1.35554e+06
1.35553e+06
1.35552e+06
1.3555e+06
1.35548e+06
1.35545e+06
1.35543e+06
1.35541e+06
1.35538e+06
1.35536e+06
1.35533e+06
1.35531e+06
1.35529e+06
1.35527e+06
1.35525e+06
1.35524e+06
1.35524e+06
1.43952e+06
1.43952e+06
1.43951e+06
1.43949e+06
1.43947e+06
1.43945e+06
1.43942e+06
1.43938e+06
1.43934e+06
1.4393e+06
1.43926e+06
1.43922e+06
1.43917e+06
1.43913e+06
1.43909e+06
1.43905e+06
1.43901e+06
1.43898e+06
1.43896e+06
1.43894e+06
3.44927e+06
3.44926e+06
3.44925e+06
3.44923e+06
3.4492e+06
3.44917e+06
3.44913e+06
3.44909e+06
3.44904e+06
3.44899e+06
3.44894e+06
3.44889e+06
3.44884e+06
3.4488e+06
3.44875e+06
3.44871e+06
3.44867e+06
3.44864e+06
3.44861e+06
3.4486e+06
3.32588e+06
3.32588e+06
3.32587e+06
3.32586e+06
3.32585e+06
3.32584e+06
3.32582e+06
3.32581e+06
3.32579e+06
3.32577e+06
3.32575e+06
3.32573e+06
3.32571e+06
3.32569e+06
3.32567e+06
3.32565e+06
3.32564e+06
3.32562e+06
3.32561e+06
3.32561e+06
3.20234e+06
3.20234e+06
3.20234e+06
3.20234e+06
3.20234e+06
3.20234e+06
3.20234e+06
3.20234e+06
3.20233e+06
3.20233e+06
3.20233e+06
3.20233e+06
3.20233e+06
3.20232e+06
3.20232e+06
3.20232e+06
3.20232e+06
3.20232e+06
3.20232e+06
3.20232e+06
3.1114e+06
3.1114e+06
3.1114e+06
3.11141e+06
3.11141e+06
3.11142e+06
3.11143e+06
3.11144e+06
3.11145e+06
3.11146e+06
3.11147e+06
3.11148e+06
3.11149e+06
3.1115e+06
3.11151e+06
3.11152e+06
3.11153e+06
3.11153e+06
3.11154e+06
3.11154e+06
3.04485e+06
3.04485e+06
3.04485e+06
3.04486e+06
3.04487e+06
3.04489e+06
3.0449e+06
3.04492e+06
3.04493e+06
3.04495e+06
3.04497e+06
3.04499e+06
3.04501e+06
3.04503e+06
3.04504e+06
3.04506e+06
3.04507e+06
3.04509e+06
3.04509e+06
3.0451e+06
2.99739e+06
2.99739e+06
2.9974e+06
2.99741e+06
2.99742e+06
2.99743e+06
2.99745e+06
2.99747e+06
2.9975e+06
2.99752e+06
2.99754e+06
2.99757e+06
2.99759e+06
2.99761e+06
2.99764e+06
2.99766e+06
2.99767e+06
2.99769e+06
2.9977e+06
2.99771e+06
2.96501e+06
2.96501e+06
2.96502e+06
2.96503e+06
2.96505e+06
2.96506e+06
2.96509e+06
2.96511e+06
2.96513e+06
2.96516e+06
2.96519e+06
2.96522e+06
2.96524e+06
2.96527e+06
2.96529e+06
2.96532e+06
2.96534e+06
2.96535e+06
2.96537e+06
2.96537e+06
2.94658e+06
2.94659e+06
2.94659e+06
2.9466e+06
2.94662e+06
2.94664e+06
2.94666e+06
2.94668e+06
2.94671e+06
2.94674e+06
2.94676e+06
2.94679e+06
2.94682e+06
2.94685e+06
2.94687e+06
2.94689e+06
2.94691e+06
2.94693e+06
2.94694e+06
2.94695e+06
2.93886e+06
2.93887e+06
2.93887e+06
2.93888e+06
2.9389e+06
2.93892e+06
2.93894e+06
2.93896e+06
2.93898e+06
2.93901e+06
2.93904e+06
2.93906e+06
2.93909e+06
2.93912e+06
2.93914e+06
2.93916e+06
2.93918e+06
2.9392e+06
2.93921e+06
2.93922e+06
2.94218e+06
2.94219e+06
2.94219e+06
2.9422e+06
2.94222e+06
2.94223e+06
2.94225e+06
2.94227e+06
2.94229e+06
2.94232e+06
2.94234e+06
2.94237e+06
2.94239e+06
2.94242e+06
2.94244e+06
2.94246e+06
2.94248e+06
2.9425e+06
2.94251e+06
2.94252e+06
2.95609e+06
2.9561e+06
2.9561e+06
2.95611e+06
2.95612e+06
2.95614e+06
2.95615e+06
2.95617e+06
2.95619e+06
2.95622e+06
2.95624e+06
2.95626e+06
2.95629e+06
2.95631e+06
2.95633e+06
2.95635e+06
2.95637e+06
2.95638e+06
2.95639e+06
2.9564e+06
2.98083e+06
2.98083e+06
2.98084e+06
2.98085e+06
2.98086e+06
2.98087e+06
2.98088e+06
2.9809e+06
2.98092e+06
2.98094e+06
2.98096e+06
2.98098e+06
2.981e+06
2.98102e+06
2.98104e+06
2.98106e+06
2.98107e+06
2.98108e+06
2.98109e+06
2.9811e+06
3.01715e+06
3.01715e+06
3.01716e+06
3.01716e+06
3.01717e+06
3.01718e+06
3.01719e+06
3.01721e+06
3.01722e+06
3.01724e+06
3.01725e+06
3.01727e+06
3.01728e+06
3.0173e+06
3.01732e+06
3.01733e+06
3.01734e+06
3.01736e+06
3.01736e+06
3.01737e+06
3.06638e+06
3.06638e+06
3.06639e+06
3.06639e+06
3.06639e+06
3.0664e+06
3.06641e+06
3.06642e+06
3.06643e+06
3.06644e+06
3.06645e+06
3.06646e+06
3.06647e+06
3.06648e+06
3.0665e+06
3.06651e+06
3.06652e+06
3.06652e+06
3.06653e+06
3.06654e+06
3.13069e+06
3.13069e+06
3.1307e+06
3.1307e+06
3.1307e+06
3.1307e+06
3.1307e+06
3.13071e+06
3.13071e+06
3.13071e+06
3.13072e+06
3.13072e+06
3.13073e+06
3.13074e+06
3.13074e+06
3.13075e+06
3.13075e+06
3.13076e+06
3.13076e+06
3.13076e+06
3.21336e+06
3.21336e+06
3.21336e+06
3.21336e+06
3.21336e+06
3.21335e+06
3.21335e+06
3.21335e+06
3.21334e+06
3.21334e+06
3.21333e+06
3.21333e+06
3.21333e+06
3.21332e+06
3.21332e+06
3.21332e+06
3.21332e+06
3.21332e+06
3.21332e+06
3.21332e+06
3.31942e+06
3.31942e+06
3.31941e+06
3.3194e+06
3.31939e+06
3.31938e+06
3.31937e+06
3.31936e+06
3.31934e+06
3.31933e+06
3.31931e+06
3.31929e+06
3.31928e+06
3.31926e+06
3.31925e+06
3.31924e+06
3.31923e+06
3.31922e+06
3.31922e+06
3.31922e+06
3.4564e+06
3.45639e+06
3.45638e+06
3.45637e+06
3.45635e+06
3.45633e+06
3.4563e+06
3.45628e+06
3.45625e+06
3.45621e+06
3.45618e+06
3.45615e+06
3.45611e+06
3.45608e+06
3.45605e+06
3.45603e+06
3.456e+06
3.45599e+06
3.45597e+06
3.45597e+06
3.63562e+06
3.63561e+06
3.63559e+06
3.63557e+06
3.63554e+06
3.6355e+06
3.63546e+06
3.63541e+06
3.63536e+06
3.63531e+06
3.63525e+06
3.63519e+06
3.63513e+06
3.63508e+06
3.63502e+06
3.63497e+06
3.63493e+06
3.6349e+06
3.63487e+06
3.63485e+06
3.80116e+06
3.80115e+06
3.80113e+06
3.80109e+06
3.80105e+06
3.80099e+06
3.80092e+06
3.80085e+06
3.80077e+06
3.80068e+06
3.80059e+06
3.80049e+06
3.8004e+06
3.80031e+06
3.80022e+06
3.80013e+06
3.80006e+06
3.8e+06
3.79995e+06
3.79992e+06
6.54965e+06
6.54964e+06
6.54961e+06
6.54958e+06
6.54954e+06
6.54949e+06
6.54944e+06
6.54937e+06
6.54931e+06
6.54923e+06
6.54916e+06
6.54909e+06
6.54901e+06
6.54894e+06
6.54888e+06
6.54882e+06
6.54876e+06
6.54871e+06
6.54868e+06
6.54865e+06
6.36644e+06
6.36644e+06
6.36643e+06
6.36641e+06
6.3664e+06
6.36638e+06
6.36635e+06
6.36632e+06
6.3663e+06
6.36626e+06
6.36623e+06
6.3662e+06
6.36617e+06
6.36614e+06
6.36611e+06
6.36608e+06
6.36606e+06
6.36604e+06
6.36603e+06
6.36602e+06
6.17476e+06
6.17476e+06
6.17476e+06
6.17476e+06
6.17475e+06
6.17475e+06
6.17475e+06
6.17475e+06
6.17474e+06
6.17474e+06
6.17473e+06
6.17473e+06
6.17473e+06
6.17472e+06
6.17472e+06
6.17471e+06
6.17471e+06
6.17471e+06
6.17471e+06
6.1747e+06
6.02661e+06
6.02662e+06
6.02662e+06
6.02663e+06
6.02664e+06
6.02665e+06
6.02666e+06
6.02667e+06
6.02669e+06
6.0267e+06
6.02672e+06
6.02673e+06
6.02675e+06
6.02676e+06
6.02678e+06
6.02679e+06
6.0268e+06
6.02681e+06
6.02682e+06
6.02682e+06
5.91437e+06
5.91437e+06
5.91438e+06
5.91439e+06
5.91441e+06
5.91443e+06
5.91445e+06
5.91448e+06
5.91451e+06
5.91454e+06
5.91457e+06
5.9146e+06
5.91462e+06
5.91465e+06
5.91468e+06
5.9147e+06
5.91472e+06
5.91474e+06
5.91476e+06
5.91476e+06
5.83222e+06
5.83223e+06
5.83224e+06
5.83226e+06
5.83228e+06
5.83231e+06
5.83234e+06
5.83237e+06
5.83241e+06
5.83244e+06
5.83248e+06
5.83252e+06
5.83256e+06
5.8326e+06
5.83263e+06
5.83266e+06
5.83269e+06
5.83272e+06
5.83273e+06
5.83274e+06
5.7764e+06
5.77641e+06
5.77642e+06
5.77644e+06
5.77646e+06
5.77649e+06
5.77653e+06
5.77656e+06
5.7766e+06
5.77665e+06
5.77669e+06
5.77673e+06
5.77678e+06
5.77682e+06
5.77686e+06
5.77689e+06
5.77692e+06
5.77695e+06
5.77697e+06
5.77698e+06
5.74392e+06
5.74393e+06
5.74394e+06
5.74396e+06
5.74399e+06
5.74402e+06
5.74405e+06
5.74409e+06
5.74413e+06
5.74417e+06
5.74422e+06
5.74426e+06
5.74431e+06
5.74435e+06
5.74439e+06
5.74443e+06
5.74446e+06
5.74449e+06
5.74451e+06
5.74452e+06
5.73088e+06
5.73089e+06
5.7309e+06
5.73092e+06
5.73094e+06
5.73097e+06
5.73101e+06
5.73104e+06
5.73108e+06
5.73112e+06
5.73117e+06
5.73121e+06
5.73125e+06
5.7313e+06
5.73134e+06
5.73137e+06
5.7314e+06
5.73143e+06
5.73145e+06
5.73146e+06
5.73746e+06
5.73746e+06
5.73747e+06
5.73749e+06
5.73751e+06
5.73754e+06
5.73757e+06
5.73761e+06
5.73764e+06
5.73768e+06
5.73773e+06
5.73777e+06
5.73781e+06
5.73785e+06
5.73788e+06
5.73792e+06
5.73795e+06
5.73797e+06
5.73799e+06
5.738e+06
5.76327e+06
5.76328e+06
5.76329e+06
5.76331e+06
5.76333e+06
5.76335e+06
5.76338e+06
5.76341e+06
5.76344e+06
5.76348e+06
5.76352e+06
5.76356e+06
5.76359e+06
5.76363e+06
5.76366e+06
5.76369e+06
5.76372e+06
5.76374e+06
5.76376e+06
5.76377e+06
5.80871e+06
5.80871e+06
5.80872e+06
5.80873e+06
5.80875e+06
5.80877e+06
5.80879e+06
5.80882e+06
5.80885e+06
5.80888e+06
5.80892e+06
5.80895e+06
5.80898e+06
5.80901e+06
5.80904e+06
5.80907e+06
5.80909e+06
5.80911e+06
5.80913e+06
5.80914e+06
5.87488e+06
5.87488e+06
5.87489e+06
5.8749e+06
5.87491e+06
5.87493e+06
5.87495e+06
5.87497e+06
5.875e+06
5.87502e+06
5.87505e+06
5.87507e+06
5.8751e+06
5.87513e+06
5.87515e+06
5.87517e+06
5.87519e+06
5.87521e+06
5.87522e+06
5.87523e+06
5.96375e+06
5.96375e+06
5.96375e+06
5.96376e+06
5.96377e+06
5.96378e+06
5.96379e+06
5.96381e+06
5.96382e+06
5.96384e+06
5.96386e+06
5.96388e+06
5.96389e+06
5.96391e+06
5.96393e+06
5.96394e+06
5.96396e+06
5.96397e+06
5.96398e+06
5.96398e+06
6.07835e+06
6.07835e+06
6.07835e+06
6.07835e+06
6.07836e+06
6.07836e+06
6.07836e+06
6.07837e+06
6.07837e+06
6.07838e+06
6.07839e+06
6.07839e+06
6.0784e+06
6.07841e+06
6.07842e+06
6.07842e+06
6.07843e+06
6.07844e+06
6.07844e+06
6.07844e+06
6.22298e+06
6.22297e+06
6.22297e+06
6.22297e+06
6.22296e+06
6.22296e+06
6.22295e+06
6.22294e+06
6.22293e+06
6.22293e+06
6.22292e+06
6.22291e+06
6.2229e+06
6.2229e+06
6.22289e+06
6.22288e+06
6.22288e+06
6.22288e+06
6.22288e+06
6.22288e+06
6.40369e+06
6.40368e+06
6.40368e+06
6.40366e+06
6.40365e+06
6.40363e+06
6.40361e+06
6.40358e+06
6.40356e+06
6.40353e+06
6.4035e+06
6.40347e+06
6.40345e+06
6.40342e+06
6.4034e+06
6.40337e+06
6.40336e+06
6.40334e+06
6.40333e+06
6.40333e+06
6.62848e+06
6.62847e+06
6.62846e+06
6.62844e+06
6.62841e+06
6.62837e+06
6.62833e+06
6.62828e+06
6.62823e+06
6.62818e+06
6.62812e+06
6.62807e+06
6.62801e+06
6.62796e+06
6.62791e+06
6.62787e+06
6.62783e+06
6.62779e+06
6.62777e+06
6.62776e+06
6.90772e+06
6.90771e+06
6.90768e+06
6.90765e+06
6.9076e+06
6.90754e+06
6.90747e+06
6.90739e+06
6.9073e+06
6.90722e+06
6.90712e+06
6.90703e+06
6.90694e+06
6.90685e+06
6.90676e+06
6.90668e+06
6.90662e+06
6.90656e+06
6.90652e+06
6.90649e+06
7.15843e+06
7.15841e+06
7.15837e+06
7.15831e+06
7.15824e+06
7.15815e+06
7.15804e+06
7.15792e+06
7.15779e+06
7.15765e+06
7.15751e+06
7.15737e+06
7.15722e+06
7.15708e+06
7.15694e+06
7.15682e+06
7.15671e+06
7.15661e+06
7.15654e+06
7.1565e+06
1.05441e+07
1.05441e+07
1.05441e+07
1.05441e+07
1.0544e+07
1.05439e+07
1.05439e+07
1.05438e+07
1.05437e+07
1.05436e+07
1.05435e+07
1.05434e+07
1.05433e+07
1.05432e+07
1.05432e+07
1.05431e+07
1.0543e+07
1.05429e+07
1.05429e+07
1.05429e+07
1.03024e+07
1.03024e+07
1.03024e+07
1.03024e+07
1.03024e+07
1.03023e+07
1.03023e+07
1.03023e+07
1.03022e+07
1.03022e+07
1.03022e+07
1.03021e+07
1.03021e+07
1.0302e+07
1.0302e+07
1.0302e+07
1.03019e+07
1.03019e+07
1.03019e+07
1.03019e+07
1.00436e+07
1.00436e+07
1.00436e+07
1.00436e+07
1.00436e+07
1.00436e+07
1.00436e+07
1.00436e+07
1.00436e+07
1.00436e+07
1.00436e+07
1.00436e+07
1.00436e+07
1.00436e+07
1.00436e+07
1.00435e+07
1.00435e+07
1.00435e+07
1.00435e+07
1.00435e+07
9.8378e+06
9.8378e+06
9.83781e+06
9.83782e+06
9.83783e+06
9.83784e+06
9.83786e+06
9.83787e+06
9.83789e+06
9.83791e+06
9.83793e+06
9.83795e+06
9.83797e+06
9.83799e+06
9.838e+06
9.83802e+06
9.83803e+06
9.83805e+06
9.83806e+06
9.83806e+06
9.67786e+06
9.67787e+06
9.67788e+06
9.6779e+06
9.67792e+06
9.67795e+06
9.67799e+06
9.67802e+06
9.67806e+06
9.6781e+06
9.67814e+06
9.67818e+06
9.67822e+06
9.67826e+06
9.67829e+06
9.67833e+06
9.67836e+06
9.67838e+06
9.6784e+06
9.67841e+06
9.55974e+06
9.55974e+06
9.55976e+06
9.55978e+06
9.55981e+06
9.55985e+06
9.55989e+06
9.55993e+06
9.55998e+06
9.56003e+06
9.56009e+06
9.56014e+06
9.56019e+06
9.56024e+06
9.56028e+06
9.56032e+06
9.56036e+06
9.56039e+06
9.56042e+06
9.56043e+06
9.47868e+06
9.47868e+06
9.4787e+06
9.47873e+06
9.47876e+06
9.4788e+06
9.47885e+06
9.4789e+06
9.47895e+06
9.47901e+06
9.47907e+06
9.47912e+06
9.47918e+06
9.47923e+06
9.47929e+06
9.47933e+06
9.47937e+06
9.47941e+06
9.47943e+06
9.47945e+06
9.4315e+06
9.43151e+06
9.43153e+06
9.43155e+06
9.43159e+06
9.43163e+06
9.43167e+06
9.43173e+06
9.43178e+06
9.43184e+06
9.4319e+06
9.43196e+06
9.43202e+06
9.43208e+06
9.43213e+06
9.43218e+06
9.43222e+06
9.43226e+06
9.43228e+06
9.43229e+06
9.41345e+06
9.41346e+06
9.41348e+06
9.4135e+06
9.41354e+06
9.41358e+06
9.41362e+06
9.41367e+06
9.41373e+06
9.41379e+06
9.41384e+06
9.4139e+06
9.41396e+06
9.41402e+06
9.41407e+06
9.41412e+06
9.41416e+06
9.41419e+06
9.41421e+06
9.41423e+06
9.42462e+06
9.42463e+06
9.42465e+06
9.42467e+06
9.4247e+06
9.42474e+06
9.42478e+06
9.42483e+06
9.42488e+06
9.42493e+06
9.42499e+06
9.42505e+06
9.4251e+06
9.42516e+06
9.4252e+06
9.42525e+06
9.42529e+06
9.42532e+06
9.42534e+06
9.42535e+06
9.46492e+06
9.46493e+06
9.46494e+06
9.46497e+06
9.46499e+06
9.46503e+06
9.46507e+06
9.46511e+06
9.46516e+06
9.46521e+06
9.46526e+06
9.46531e+06
9.46536e+06
9.46541e+06
9.46546e+06
9.4655e+06
9.46553e+06
9.46556e+06
9.46558e+06
9.46559e+06
9.53485e+06
9.53485e+06
9.53486e+06
9.53488e+06
9.53491e+06
9.53494e+06
9.53497e+06
9.53501e+06
9.53505e+06
9.53509e+06
9.53514e+06
9.53518e+06
9.53522e+06
9.53527e+06
9.53531e+06
9.53534e+06
9.53537e+06
9.5354e+06
9.53541e+06
9.53542e+06
9.63578e+06
9.63579e+06
9.6358e+06
9.63581e+06
9.63583e+06
9.63585e+06
9.63588e+06
9.63591e+06
9.63594e+06
9.63598e+06
9.63601e+06
9.63605e+06
9.63608e+06
9.63612e+06
9.63615e+06
9.63618e+06
9.6362e+06
9.63622e+06
9.63623e+06
9.63624e+06
9.77005e+06
9.77005e+06
9.77006e+06
9.77007e+06
9.77008e+06
9.7701e+06
9.77012e+06
9.77014e+06
9.77016e+06
9.77018e+06
9.7702e+06
9.77023e+06
9.77025e+06
9.77027e+06
9.77029e+06
9.77031e+06
9.77033e+06
9.77034e+06
9.77035e+06
9.77035e+06
9.94115e+06
9.94115e+06
9.94115e+06
9.94116e+06
9.94116e+06
9.94117e+06
9.94117e+06
9.94118e+06
9.94118e+06
9.94119e+06
9.9412e+06
9.94121e+06
9.94122e+06
9.94122e+06
9.94123e+06
9.94124e+06
9.94124e+06
9.94125e+06
9.94125e+06
9.94125e+06
1.01537e+07
1.01537e+07
1.01537e+07
1.01537e+07
1.01537e+07
1.01537e+07
1.01537e+07
1.01537e+07
1.01537e+07
1.01537e+07
1.01536e+07
1.01536e+07
1.01536e+07
1.01536e+07
1.01536e+07
1.01536e+07
1.01536e+07
1.01536e+07
1.01536e+07
1.01536e+07
1.0414e+07
1.0414e+07
1.0414e+07
1.0414e+07
1.04139e+07
1.04139e+07
1.04139e+07
1.04138e+07
1.04138e+07
1.04138e+07
1.04137e+07
1.04137e+07
1.04137e+07
1.04136e+07
1.04136e+07
1.04136e+07
1.04135e+07
1.04135e+07
1.04135e+07
1.04135e+07
1.07294e+07
1.07294e+07
1.07293e+07
1.07293e+07
1.07293e+07
1.07292e+07
1.07292e+07
1.07291e+07
1.0729e+07
1.07289e+07
1.07289e+07
1.07288e+07
1.07287e+07
1.07286e+07
1.07286e+07
1.07285e+07
1.07285e+07
1.07284e+07
1.07284e+07
1.07284e+07
1.11088e+07
1.11088e+07
1.11088e+07
1.11087e+07
1.11086e+07
1.11086e+07
1.11085e+07
1.11084e+07
1.11082e+07
1.11081e+07
1.1108e+07
1.11079e+07
1.11078e+07
1.11076e+07
1.11075e+07
1.11074e+07
1.11073e+07
1.11073e+07
1.11072e+07
1.11072e+07
1.14444e+07
1.14444e+07
1.14443e+07
1.14442e+07
1.14441e+07
1.1444e+07
1.14439e+07
1.14437e+07
1.14435e+07
1.14434e+07
1.14432e+07
1.1443e+07
1.14428e+07
1.14426e+07
1.14424e+07
1.14423e+07
1.14421e+07
1.1442e+07
1.14419e+07
1.14419e+07
1.5392e+07
1.5392e+07
1.53919e+07
1.53919e+07
1.53918e+07
1.53918e+07
1.53917e+07
1.53916e+07
1.53915e+07
1.53914e+07
1.53913e+07
1.53912e+07
1.53911e+07
1.5391e+07
1.53909e+07
1.53908e+07
1.53907e+07
1.53906e+07
1.53906e+07
1.53905e+07
1.50937e+07
1.50937e+07
1.50936e+07
1.50936e+07
1.50936e+07
1.50936e+07
1.50935e+07
1.50935e+07
1.50934e+07
1.50934e+07
1.50933e+07
1.50933e+07
1.50932e+07
1.50932e+07
1.50931e+07
1.50931e+07
1.50931e+07
1.5093e+07
1.5093e+07
1.5093e+07
1.47697e+07
1.47697e+07
1.47697e+07
1.47697e+07
1.47697e+07
1.47697e+07
1.47697e+07
1.47697e+07
1.47697e+07
1.47697e+07
1.47697e+07
1.47696e+07
1.47696e+07
1.47696e+07
1.47696e+07
1.47696e+07
1.47696e+07
1.47696e+07
1.47696e+07
1.47696e+07
1.45074e+07
1.45074e+07
1.45074e+07
1.45074e+07
1.45074e+07
1.45074e+07
1.45075e+07
1.45075e+07
1.45075e+07
1.45075e+07
1.45076e+07
1.45076e+07
1.45076e+07
1.45076e+07
1.45076e+07
1.45077e+07
1.45077e+07
1.45077e+07
1.45077e+07
1.45077e+07
1.43015e+07
1.43015e+07
1.43015e+07
1.43015e+07
1.43016e+07
1.43016e+07
1.43016e+07
1.43017e+07
1.43017e+07
1.43018e+07
1.43018e+07
1.43019e+07
1.43019e+07
1.43019e+07
1.4302e+07
1.4302e+07
1.43021e+07
1.43021e+07
1.43021e+07
1.43021e+07
1.41475e+07
1.41475e+07
1.41476e+07
1.41476e+07
1.41476e+07
1.41477e+07
1.41477e+07
1.41478e+07
1.41478e+07
1.41479e+07
1.41479e+07
1.4148e+07
1.41481e+07
1.41481e+07
1.41482e+07
1.41482e+07
1.41483e+07
1.41483e+07
1.41483e+07
1.41484e+07
1.40415e+07
1.40415e+07
1.40415e+07
1.40415e+07
1.40416e+07
1.40416e+07
1.40417e+07
1.40418e+07
1.40418e+07
1.40419e+07
1.4042e+07
1.4042e+07
1.40421e+07
1.40422e+07
1.40422e+07
1.40423e+07
1.40423e+07
1.40424e+07
1.40424e+07
1.40424e+07
1.39803e+07
1.39803e+07
1.39803e+07
1.39803e+07
1.39804e+07
1.39804e+07
1.39805e+07
1.39805e+07
1.39806e+07
1.39807e+07
1.39808e+07
1.39808e+07
1.39809e+07
1.3981e+07
1.3981e+07
1.39811e+07
1.39811e+07
1.39812e+07
1.39812e+07
1.39812e+07
1.39583e+07
1.39583e+07
1.39583e+07
1.39583e+07
1.39584e+07
1.39584e+07
1.39585e+07
1.39585e+07
1.39586e+07
1.39587e+07
1.39587e+07
1.39588e+07
1.39589e+07
1.3959e+07
1.3959e+07
1.39591e+07
1.39591e+07
1.39592e+07
1.39592e+07
1.39592e+07
1.39755e+07
1.39755e+07
1.39755e+07
1.39755e+07
1.39756e+07
1.39756e+07
1.39757e+07
1.39757e+07
1.39758e+07
1.39759e+07
1.39759e+07
1.3976e+07
1.39761e+07
1.39761e+07
1.39762e+07
1.39762e+07
1.39763e+07
1.39763e+07
1.39763e+07
1.39763e+07
1.40323e+07
1.40323e+07
1.40323e+07
1.40323e+07
1.40324e+07
1.40324e+07
1.40324e+07
1.40325e+07
1.40326e+07
1.40326e+07
1.40327e+07
1.40327e+07
1.40328e+07
1.40329e+07
1.40329e+07
1.4033e+07
1.4033e+07
1.4033e+07
1.4033e+07
1.40331e+07
1.41292e+07
1.41292e+07
1.41293e+07
1.41293e+07
1.41293e+07
1.41293e+07
1.41294e+07
1.41294e+07
1.41295e+07
1.41295e+07
1.41296e+07
1.41296e+07
1.41297e+07
1.41298e+07
1.41298e+07
1.41298e+07
1.41299e+07
1.41299e+07
1.41299e+07
1.41299e+07
1.42679e+07
1.42679e+07
1.42679e+07
1.42679e+07
1.4268e+07
1.4268e+07
1.4268e+07
1.42681e+07
1.42681e+07
1.42681e+07
1.42682e+07
1.42682e+07
1.42683e+07
1.42683e+07
1.42683e+07
1.42684e+07
1.42684e+07
1.42684e+07
1.42684e+07
1.42684e+07
1.44507e+07
1.44507e+07
1.44507e+07
1.44508e+07
1.44508e+07
1.44508e+07
1.44508e+07
1.44508e+07
1.44509e+07
1.44509e+07
1.44509e+07
1.44509e+07
1.4451e+07
1.4451e+07
1.4451e+07
1.4451e+07
1.4451e+07
1.44511e+07
1.44511e+07
1.44511e+07
1.46813e+07
1.46813e+07
1.46813e+07
1.46813e+07
1.46813e+07
1.46813e+07
1.46813e+07
1.46813e+07
1.46813e+07
1.46813e+07
1.46814e+07
1.46814e+07
1.46814e+07
1.46814e+07
1.46814e+07
1.46814e+07
1.46814e+07
1.46814e+07
1.46814e+07
1.46814e+07
1.49642e+07
1.49642e+07
1.49642e+07
1.49642e+07
1.49642e+07
1.49641e+07
1.49641e+07
1.49641e+07
1.49641e+07
1.49641e+07
1.49641e+07
1.49641e+07
1.4964e+07
1.4964e+07
1.4964e+07
1.4964e+07
1.4964e+07
1.4964e+07
1.49639e+07
1.49639e+07
1.53052e+07
1.53052e+07
1.53052e+07
1.53052e+07
1.53051e+07
1.53051e+07
1.53051e+07
1.5305e+07
1.5305e+07
1.53049e+07
1.53049e+07
1.53048e+07
1.53048e+07
1.53047e+07
1.53047e+07
1.53047e+07
1.53046e+07
1.53046e+07
1.53046e+07
1.53045e+07
1.57109e+07
1.57109e+07
1.57109e+07
1.57109e+07
1.57108e+07
1.57107e+07
1.57107e+07
1.57106e+07
1.57105e+07
1.57104e+07
1.57103e+07
1.57102e+07
1.57101e+07
1.57101e+07
1.571e+07
1.57099e+07
1.57098e+07
1.57098e+07
1.57097e+07
1.57097e+07
1.6189e+07
1.6189e+07
1.61889e+07
1.61889e+07
1.61888e+07
1.61887e+07
1.61886e+07
1.61884e+07
1.61883e+07
1.61882e+07
1.6188e+07
1.61879e+07
1.61877e+07
1.61876e+07
1.61874e+07
1.61873e+07
1.61872e+07
1.61871e+07
1.61871e+07
1.6187e+07
1.66079e+07
1.66079e+07
1.66078e+07
1.66077e+07
1.66076e+07
1.66074e+07
1.66073e+07
1.66071e+07
1.66069e+07
1.66067e+07
1.66064e+07
1.66062e+07
1.6606e+07
1.66058e+07
1.66056e+07
1.66054e+07
1.66053e+07
1.66051e+07
1.66051e+07
1.6605e+07
2.10574e+07
2.10574e+07
2.10573e+07
2.10573e+07
2.10572e+07
2.10571e+07
2.10571e+07
2.1057e+07
2.10568e+07
2.10567e+07
2.10566e+07
2.10565e+07
2.10564e+07
2.10563e+07
2.10562e+07
2.10561e+07
2.1056e+07
2.1056e+07
2.10559e+07
2.10559e+07
2.07043e+07
2.07043e+07
2.07043e+07
2.07043e+07
2.07042e+07
2.07042e+07
2.07041e+07
2.07041e+07
2.07041e+07
2.0704e+07
2.0704e+07
2.07039e+07
2.07039e+07
2.07038e+07
2.07038e+07
2.07037e+07
2.07037e+07
2.07037e+07
2.07036e+07
2.07036e+07
2.03176e+07
2.03176e+07
2.03176e+07
2.03176e+07
2.03176e+07
2.03176e+07
2.03176e+07
2.03176e+07
2.03175e+07
2.03175e+07
2.03175e+07
2.03175e+07
2.03175e+07
2.03175e+07
2.03175e+07
2.03175e+07
2.03175e+07
2.03175e+07
2.03175e+07
2.03175e+07
2.00014e+07
2.00014e+07
2.00014e+07
2.00014e+07
2.00014e+07
2.00014e+07
2.00014e+07
2.00015e+07
2.00015e+07
2.00015e+07
2.00015e+07
2.00016e+07
2.00016e+07
2.00016e+07
2.00016e+07
2.00017e+07
2.00017e+07
2.00017e+07
2.00017e+07
2.00017e+07
1.97511e+07
1.97511e+07
1.97511e+07
1.97511e+07
1.97512e+07
1.97512e+07
1.97513e+07
1.97513e+07
1.97513e+07
1.97514e+07
1.97515e+07
1.97515e+07
1.97516e+07
1.97516e+07
1.97516e+07
1.97517e+07
1.97517e+07
1.97518e+07
1.97518e+07
1.97518e+07
1.9563e+07
1.9563e+07
1.9563e+07
1.9563e+07
1.95631e+07
1.95631e+07
1.95632e+07
1.95632e+07
1.95633e+07
1.95634e+07
1.95634e+07
1.95635e+07
1.95636e+07
1.95636e+07
1.95637e+07
1.95637e+07
1.95638e+07
1.95638e+07
1.95638e+07
1.95639e+07
1.94334e+07
1.94334e+07
1.94334e+07
1.94335e+07
1.94335e+07
1.94336e+07
1.94336e+07
1.94337e+07
1.94338e+07
1.94338e+07
1.94339e+07
1.9434e+07
1.94341e+07
1.94341e+07
1.94342e+07
1.94343e+07
1.94343e+07
1.94344e+07
1.94344e+07
1.94344e+07
1.93596e+07
1.93596e+07
1.93596e+07
1.93597e+07
1.93597e+07
1.93598e+07
1.93598e+07
1.93599e+07
1.936e+07
1.93601e+07
1.93601e+07
1.93602e+07
1.93603e+07
1.93604e+07
1.93604e+07
1.93605e+07
1.93606e+07
1.93606e+07
1.93606e+07
1.93606e+07
1.93352e+07
1.93352e+07
1.93352e+07
1.93352e+07
1.93353e+07
1.93353e+07
1.93354e+07
1.93355e+07
1.93355e+07
1.93356e+07
1.93357e+07
1.93358e+07
1.93358e+07
1.93359e+07
1.9336e+07
1.9336e+07
1.93361e+07
1.93361e+07
1.93362e+07
1.93362e+07
1.93598e+07
1.93598e+07
1.93599e+07
1.93599e+07
1.93599e+07
1.936e+07
1.936e+07
1.93601e+07
1.93602e+07
1.93603e+07
1.93603e+07
1.93604e+07
1.93605e+07
1.93606e+07
1.93606e+07
1.93607e+07
1.93607e+07
1.93607e+07
1.93608e+07
1.93608e+07
1.94347e+07
1.94347e+07
1.94347e+07
1.94348e+07
1.94348e+07
1.94348e+07
1.94349e+07
1.9435e+07