/*--------------------------------*- C++ -*----------------------------------*\
| =========                 |                                                 |
| \\      /  F ield         | OpenFOAM: The Open Source CFD Toolbox           |
|  \\    /   O peration     | Version:  2212                                  |
|   \\  /    A nd           | Website:  www.openfoam.com                      |
|    \\/     M anipulation  |                                                 |
\*---------------------------------------------------------------------------*/
FoamFile
{
    version     2.0;
    format      ascii;
    arch        "LSB;label=32;scalar=64";
    class       volVectorField;
    location    "7.75e-05";
    object      U;
}
// * * * * * * * * * * * * * * * * * * * * * * * * * * * * * * * * * * * * * //

dimensions      [0 1 -1 0 0 0 0];

internalField   nonuniform List<vector> 
22212
(
(-2.68e-11 243 229)
(-8.9e-11 249 164)
(-1.6e-10 246 174)
(-3.55e-10 246 177)
(-4.53e-10 246 181)
(3.62e-11 246 182)
(-1.67e-10 246 183)
(-3.09e-10 246 183)
(2.22e-10 247 182)
(-9.2e-11 247 182)
(2.05e-10 247 182)
(-2.03e-10 247 181)
(2.51e-10 248 180)
(-2.63e-10 248 180)
(2.06e-10 248 179)
(-1.53e-10 248 179)
(8.89e-11 248 178)
(2.86e-11 248 177)
(-2.1e-10 249 176)
(1.87e-10 249 175)
(-2.84e-10 249 174)
(5.84e-11 249 172)
(-3.09e-10 249 171)
(-3.05e-10 249 169)
(3.68e-10 250 167)
(-4.29e-10 250 166)
(3.36e-10 250 164)
(-7.32e-11 250 162)
(-8.29e-11 250 160)
(9.35e-11 250 158)
(-2.44e-10 250 156)
(6.82e-11 250 153)
(7.73e-11 250 152)
(-2.35e-10 250 149)
(2.15e-10 250 147)
(-6.59e-11 250 145)
(-3.5e-11 250 143)
(7.12e-11 250 141)
(1.3e-10 250 139)
(-3.47e-11 250 136)
(-3.98e-10 250 133)
(4.76e-10 250 130)
(-4.73e-10 250 128)
(3.08e-10 250 125)
(-7.69e-11 250 123)
(2.22e-11 250 120)
(2.06e-10 250 117)
(-3.64e-10 251 114)
(2.2e-10 250 112)
(1.89e-10 251 109)
(-2.56e-10 250 107)
(2.05e-10 251 103)
(-8.41e-11 250 101)
(6.6e-12 251 97.6)
(2.47e-10 250 95.5)
(-2.14e-10 251 92.1)
(5.16e-11 250 90.1)
(-3.45e-11 251 86.7)
(-2.91e-11 251 84.9)
(2.47e-11 251 81.2)
(6.02e-11 251 79.3)
(-1.74e-11 251 75.5)
(-2.13e-10 251 73.7)
(2.71e-10 251 70)
(-1.77e-10 251 68.3)
(-3.27e-11 251 64.8)
(7.79e-12 251 63)
(-6.04e-11 251 59.6)
(3.69e-11 251 57.9)
(7.69e-11 251 54.5)
(-2.48e-10 251 52.7)
(3.25e-10 251 49)
(-2.05e-10 251 47.3)
(9.75e-11 251 43.6)
(5.12e-12 251 41.7)
(-1.19e-10 251 38)
(7.85e-11 251 35.7)
(-4.88e-11 251 32.2)
(-2.2e-11 251 29.8)
(-1.36e-12 251 26.6)
(7.22e-11 251 24)
(-2.5e-11 251 20.9)
(-4.65e-11 251 18.2)
(-2.7e-12 251 14.9)
(5.19e-12 251 12.3)
(-2.74e-11 251 8.99)
(-3.84e-11 251 6.28)
(-2.94e-11 251 3.1)
(-1.59e-11 251 0.324)
(2.24e-11 251 -2.85)
(-1.04e-11 251 -5.62)
(-6.92e-12 251 -8.82)
(-1e-11 251 -11.6)
(3.57e-13 251 -14.8)
(5.19e-11 251 -17.4)
(-4.83e-11 251 -20.7)
(-8.98e-12 251 -23.2)
(-3.53e-11 251 -26.4)
(4.39e-11 251 -28.7)
(2.83e-11 251 -32)
(-3.59e-11 251 -34.3)
(4.21e-12 251 -38)
(-6.85e-11 251 -40.1)
(1.14e-11 251 -44)
(5.12e-11 251 -45.9)
(-1.12e-10 251 -49.9)
(-5.37e-11 251 -51.8)
(-6.13e-10 251 -55.6)
(1.39e-10 251 -57.6)
(-2.66e-10 251 -61.5)
(2.5e-10 251 -63.4)
(-1.84e-10 251 -67.3)
(1.49e-11 251 -69.2)
(5.24e-11 251 -73.2)
(-8.84e-11 251 -75.1)
(1.35e-10 251 -78.9)
(-6.76e-11 251 -80.9)
(1.06e-10 251 -84.7)
(-6.61e-11 251 -86.8)
(-1.05e-10 251 -90.5)
(3.7e-11 252 -92.7)
(5.59e-11 251 -96.1)
(-9.09e-11 251 -98.1)
(-8.87e-11 251 -101)
(2.21e-10 251 -103)
(-3.62e-10 251 -105)
(3.93e-10 252 -107)
(-3.81e-10 251 -110)
(3.76e-10 252 -112)
(-4.48e-10 251 -115)
(4.6e-10 252 -117)
(-3.62e-10 251 -120)
(2.45e-10 252 -122)
(-3.36e-10 252 -125)
(4.34e-10 252 -128)
(-3.57e-10 252 -131)
(5.8e-11 252 -133)
(1.31e-10 252 -136)
(-2.77e-10 252 -138)
(5.39e-10 252 -141)
(-5.43e-10 252 -143)
(1.92e-10 252 -145)
(5.56e-11 252 -148)
(-4.33e-11 252 -150)
(1.13e-10 252 -153)
(-2.37e-11 252 -155)
(-2.86e-10 252 -157)
(3.11e-10 252 -159)
(-1.53e-11 252 -162)
(-5.74e-11 252 -163)
(-1.28e-10 252 -165)
(1.36e-10 252 -167)
(-2.05e-11 252 -169)
(-1.41e-10 252 -170)
(2.66e-10 252 -171)
(-3.42e-10 252 -173)
(2.14e-10 252 -174)
(-2.04e-11 252 -174)
(-5.06e-11 252 -175)
(2.92e-10 252 -175)
(-3.42e-10 252 -176)
(2.58e-10 252 -177)
(-4.53e-11 252 -177)
(-4.83e-11 252 -178)
(-4.99e-11 252 -179)
(5.95e-11 252 -179)
(7.43e-11 251 -180)
(-1.28e-10 251 -180)
(5.25e-11 251 -180)
(9.27e-11 251 -180)
(2.41e-11 251 -180)
(3.89e-11 251 -178)
(4.99e-11 252 -173)
(1.65e-11 251 -170)
(2.89e-12 254 -162)
(-7.97e-12 248 -227)
(2.52e-11 185 236)
(7.12e-13 183 163)
(-4.02e-11 184 173)
(-1.38e-10 184 176)
(-2.46e-11 184 181)
(3.35e-10 185 183)
(1.11e-11 185 183)
(1.41e-10 185 183)
(3.26e-10 186 183)
(-1.24e-10 186 182)
(2.8e-10 186 182)
(-2.29e-10 187 181)
(2.98e-10 187 181)
(-2.56e-10 187 180)
(1.68e-10 188 180)
(-9.88e-11 188 179)
(-1.98e-11 188 178)
(2.4e-10 188 178)
(-2.94e-10 188 177)
(2.38e-10 188 175)
(-2.25e-10 188 174)
(9.44e-11 188 173)
(-6.38e-11 188 171)
(1.91e-10 188 169)
(6e-10 188 168)
(-3.83e-10 189 166)
(1.65e-10 188 164)
(1.69e-10 188 162)
(-1.84e-10 188 160)
(1.8e-10 188 158)
(-2.37e-10 188 156)
(-1.15e-10 188 154)
(2.47e-10 188 152)
(-3.05e-10 188 149)
(1.23e-10 188 147)
(6.16e-11 188 145)
(-1.06e-10 188 143)
(-7.74e-12 188 141)
(1.75e-10 188 138)
(2.09e-10 188 136)
(-6.19e-10 188 133)
(5.04e-10 187 130)
(-4.03e-10 187 128)
(1.52e-10 188 125)
(3.07e-11 187 123)
(-8.8e-11 188 120)
(3.57e-10 187 117)
(-3.57e-10 188 114)
(6.74e-12 187 112)
(3.76e-10 188 109)
(-2.89e-10 187 107)
(1.61e-10 188 103)
(-3.63e-11 187 101)
(-8.63e-11 188 97.6)
(3.12e-10 187 95.5)
(-1.82e-10 188 92.1)
(2.1e-11 187 90.1)
(-8.49e-12 188 86.7)
(-2.47e-11 188 84.9)
(-1.48e-11 188 81.2)
(5.32e-11 188 79.2)
(4.69e-11 188 75.5)
(-2.79e-10 188 73.6)
(2.79e-10 188 70)
(-1.12e-10 188 68.3)
(-7.6e-11 188 64.8)
(1.87e-11 188 63)
(-5.5e-11 188 59.6)
(6.64e-12 188 57.9)
(1.39e-10 188 54.5)
(-3.02e-10 188 52.7)
(3.26e-10 188 49)
(-1.86e-10 188 47.2)
(6.02e-11 188 43.5)
(4.78e-11 188 41.7)
(-1.35e-10 188 37.9)
(8.03e-11 188 35.6)
(-4.27e-11 188 32.1)
(-2.3e-11 188 29.8)
(-8.42e-13 188 26.5)
(5.99e-11 188 24)
(-3.59e-12 188 20.8)
(-4.8e-11 188 18.2)
(7.18e-12 188 14.9)
(7.97e-12 188 12.2)
(-4.53e-11 188 8.95)
(-4.51e-11 188 6.25)
(-3.99e-11 188 3.06)
(-1.75e-11 188 0.277)
(2.2e-11 188 -2.9)
(-1.16e-11 188 -5.66)
(-7.47e-12 188 -8.85)
(-6.85e-12 188 -11.6)
(8.95e-13 188 -14.8)
(4.84e-11 188 -17.4)
(-4.57e-11 188 -20.6)
(-1.36e-11 188 -23.1)
(-2.95e-11 188 -26.3)
(3.77e-11 188 -28.6)
(1.95e-11 188 -32)
(-3.13e-11 188 -34.2)
(4.51e-12 188 -37.9)
(-7.64e-11 188 -40.1)
(4.15e-11 188 -44)
(4.47e-11 188 -45.9)
(-1.29e-10 188 -49.9)
(3.03e-10 188 -51.8)
(4.97e-11 188 -55.6)
(2.05e-10 188 -57.5)
(-2.39e-10 188 -61.4)
(2.85e-10 189 -63.3)
(-2.42e-10 188 -67.2)
(5.86e-11 189 -69.2)
(1.33e-11 188 -73.1)
(-7.62e-11 189 -75.1)
(1.52e-10 188 -78.9)
(-9.55e-11 189 -80.8)
(1.46e-10 188 -84.7)
(-1.43e-10 189 -86.7)
(-5.87e-11 188 -90.5)
(8.65e-11 189 -92.6)
(2.8e-12 189 -96.1)
(-1.42e-10 189 -98)
(3.01e-11 189 -101)
(1.24e-10 189 -103)
(-3.19e-10 189 -105)
(4.24e-10 189 -107)
(-4.43e-10 189 -110)
(3.91e-10 189 -112)
(-4.36e-10 189 -115)
(4.95e-10 189 -117)
(-4.58e-10 189 -120)
(2.65e-10 190 -122)
(-2.65e-10 189 -125)
(4.33e-10 190 -128)
(-5.01e-10 190 -131)
(2.84e-10 190 -133)
(-5.32e-11 190 -136)
(-6.97e-11 190 -138)
(4.34e-10 190 -140)
(-7.35e-10 190 -143)
(4.84e-10 191 -145)
(-5.63e-11 191 -148)
(-1.6e-11 191 -150)
(1.27e-10 191 -152)
(-2.08e-10 191 -155)
(-1.1e-10 192 -157)
(4.43e-10 192 -159)
(-2.04e-10 192 -162)
(-1.19e-10 192 -163)
(-7.89e-12 192 -165)
(1.89e-10 193 -167)
(-1.8e-10 193 -169)
(3.08e-11 193 -170)
(1.15e-10 193 -171)
(-3.4e-10 193 -173)
(4.59e-10 193 -174)
(-2.37e-10 193 -174)
(1.96e-10 193 -175)
(1.58e-10 193 -175)
(-4.48e-10 194 -176)
(4.52e-10 193 -177)
(-2.19e-10 193 -177)
(-5.28e-11 193 -178)
(3.12e-11 193 -179)
(1.25e-10 193 -179)
(-2.85e-11 193 -180)
(-1.3e-10 192 -180)
(1.6e-10 192 -180)
(1.43e-10 192 -180)
(-4.96e-11 192 -180)
(5.53e-11 192 -178)
(3.79e-11 191 -172)
(-5.81e-12 191 -170)
(-1.43e-11 190 -162)
(-1.63e-11 192 -234)
(4.27e-11 198 231)
(4.89e-11 196 164)
(1.32e-11 198 174)
(-1.9e-10 197 177)
(-3.99e-10 197 182)
(6.1e-11 198 183)
(-1.43e-10 198 184)
(-8.85e-11 198 184)
(2.33e-10 199 183)
(2.12e-10 199 183)
(5.51e-10 199 182)
(-3.47e-10 200 182)
(3.58e-10 200 181)
(-2.4e-10 200 180)
(9.56e-11 201 180)
(8.37e-12 201 179)
(-2.37e-10 201 179)
(4.22e-10 201 178)
(-2.62e-10 201 177)
(2.09e-10 201 175)
(-1.54e-10 202 174)
(1.02e-11 202 172)
(-1.3e-10 202 171)
(-2.4e-10 202 169)
(3.49e-10 202 167)
(-1.11e-10 202 166)
(-1.22e-10 202 163)
(3.72e-10 202 161)
(-2.1e-10 202 160)
(1.91e-10 202 157)
(-8.51e-11 202 156)
(-4e-10 202 153)
(3.51e-10 202 151)
(-2.26e-10 201 149)
(-7.52e-11 202 147)
(1.91e-10 201 145)
(-6.39e-11 201 143)
(-1.44e-10 201 140)
(5.63e-11 201 138)
(5.72e-10 201 136)
(-7.46e-10 201 133)
(4.04e-10 201 130)
(-2.51e-10 201 128)
(-1.94e-11 201 125)
(1.27e-10 201 122)
(2.88e-10 202 119)
(6e-10 201 117)
(-2.12e-10 202 114)
(-2.9e-10 201 112)
(5.05e-10 202 109)
(2.29e-10 201 107)
(2.41e-10 202 103)
(3.22e-11 201 101)
(-1.99e-10 202 97.6)
(3.51e-10 201 95.5)
(-1.19e-10 202 92)
(-1.33e-11 201 90.1)
(7.51e-12 202 86.7)
(-3.06e-12 201 84.8)
(-4.75e-11 202 81.1)
(5.26e-12 202 79.2)
(1.38e-10 202 75.4)
(-3.27e-10 202 73.6)
(2.62e-10 202 69.9)
(-2.82e-11 202 68.2)
(-1.06e-10 202 64.7)
(2.16e-11 202 63)
(-3.67e-11 202 59.5)
(-4.47e-11 202 57.9)
(2.09e-10 202 54.4)
(-3.47e-10 202 52.7)
(2.98e-10 202 48.9)
(-1.58e-10 202 47.2)
(2.01e-11 202 43.5)
(9.94e-11 202 41.6)
(-1.46e-10 202 37.8)
(8.38e-11 202 35.6)
(-3.61e-11 202 32.1)
(-1.91e-11 202 29.7)
(5.72e-12 202 26.5)
(4.08e-10 202 24)
(3.27e-10 202 20.8)
(-3.77e-11 202 18.1)
(2.03e-11 202 14.8)
(7.34e-12 202 12.2)
(-6.87e-11 202 8.91)
(-5.12e-11 202 6.22)
(-5.14e-11 202 3.02)
(-1.79e-11 202 0.241)
(2.11e-11 202 -2.94)
(-1.57e-11 202 -5.69)
(-1.2e-11 202 -8.88)
(-4.56e-12 202 -11.6)
(-2.05e-12 202 -14.8)
(4.23e-11 202 -17.4)
(-4.04e-11 202 -20.6)
(-1.3e-11 202 -23.1)
(-2.12e-11 202 -26.3)
(3.03e-11 202 -28.6)
(1.09e-11 202 -31.9)
(-2.12e-11 202 -34.2)
(7.91e-12 202 -37.9)
(-7.69e-11 202 -40)
(7.41e-11 202 -44)
(3.04e-11 202 -45.9)
(-8.32e-11 202 -49.8)
(-7.2e-11 202 -51.7)
(-2.22e-10 202 -55.6)
(1.48e-10 202 -57.5)
(-2.13e-10 202 -61.4)
(3.11e-10 203 -63.3)
(-3e-10 202 -67.2)
(1.13e-10 203 -69.1)
(-3.31e-11 202 -73.1)
(-5.04e-11 203 -75)
(1.48e-10 202 -78.8)
(-1.25e-10 203 -80.8)
(1.7e-10 202 -84.6)
(-2.33e-10 203 -86.6)
(2.91e-11 202 -90.4)
(9.47e-11 203 -92.5)
(-7.53e-11 203 -95.9)
(-1.34e-10 203 -97.9)
(1.47e-10 203 -101)
(-1.7e-11 203 -102)
(-2.05e-10 203 -105)
(4.01e-10 203 -107)
(-5.2e-10 203 -110)
(4.49e-10 203 -112)
(-4.27e-10 203 -115)
(4.93e-10 204 -117)
(-5.7e-10 203 -120)
(3.56e-10 204 -122)
(-2.04e-10 203 -125)
(3.37e-10 204 -127)
(-5.41e-10 204 -131)
(4.76e-10 204 -133)
(-2.5e-10 204 -136)
(1.92e-10 204 -138)
(1.08e-10 204 -140)
(-7.45e-10 204 -142)
(8.19e-10 205 -145)
(-3.17e-10 205 -147)
(7.48e-11 205 -150)
(3.98e-11 205 -152)
(-3.16e-10 205 -154)
(2.17e-10 205 -157)
(3.72e-10 205 -159)
(-4.81e-10 206 -161)
(-8.2e-12 206 -163)
(1.73e-10 206 -165)
(9.26e-11 206 -167)
(-2.68e-10 206 -168)
(1.93e-10 206 -170)
(-1.17e-10 206 -171)
(-5.96e-11 207 -173)
(4.97e-10 207 -173)
(-4.57e-10 207 -174)
(4.86e-10 207 -175)
(3.55e-10 207 -175)
(-3.57e-10 207 -176)
(6.25e-10 206 -177)
(-5.07e-10 206 -178)
(7.63e-11 206 -178)
(1.42e-10 206 -179)
(6.92e-11 206 -179)
(-1.64e-10 206 -180)
(-9.47e-11 206 -180)
(4.46e-10 205 -181)
(6.89e-10 205 -181)
(3.75e-10 205 -180)
(1.27e-10 205 -178)
(-2.39e-12 204 -173)
(-3.02e-11 205 -171)
(-2.45e-11 204 -163)
(-1.61e-11 205 -229)
(2.59e-11 203 232)
(1.01e-10 201 164)
(1.84e-10 202 173)
(3.7e-10 201 176)
(3.4e-10 202 182)
(2.89e-10 202 183)
(2.32e-11 203 184)
(-3.11e-10 203 184)
(-1.32e-11 203 184)
(-3.44e-10 204 183)
(-1.61e-10 204 183)
(-1.18e-11 204 182)
(1.97e-10 205 182)
(-1.93e-12 205 181)
(-9e-11 205 180)
(2.99e-10 206 179)
(-5.74e-10 206 179)
(3.07e-10 206 178)
(4.6e-13 206 177)
(1.4e-10 206 176)
(-1.28e-11 206 174)
(6.78e-11 206 173)
(1.78e-10 206 171)
(-4.43e-10 206 169)
(3.78e-10 206 167)
(1.49e-10 207 166)
(-3.76e-10 206 164)
(3e-10 207 162)
(-7.77e-11 207 160)
(2.16e-11 207 157)
(3.17e-10 207 156)
(3.98e-10 207 153)
(2.13e-10 207 151)
(1.18e-10 207 149)
(-2.79e-10 207 147)
(1.12e-10 207 145)
(2.02e-10 207 143)
(-1.15e-10 207 140)
(-4.38e-10 207 138)
(8.37e-10 207 136)
(-5.1e-10 207 133)
(1.36e-10 207 130)
(-7.8e-11 207 128)
(-1.03e-10 207 125)
(-1.43e-10 207 122)
(-5.33e-10 207 119)
(-1.49e-10 207 117)
(2.31e-10 207 114)
(-5.22e-10 207 112)
(1.42e-10 207 109)
(-3.79e-10 207 107)
(-5.83e-10 207 103)
(2e-10 207 101)
(-3e-10 207 97.6)
(3.15e-10 207 95.5)
(-2.42e-11 207 92)
(-2.81e-11 207 90.1)
(4.78e-12 207 86.7)
(2.59e-11 207 84.8)
(-2.9e-11 207 81.1)
(-9.87e-11 207 79.2)
(2.27e-10 207 75.4)
(-3.11e-10 207 73.5)
(2.05e-10 207 69.9)
(4.47e-11 207 68.2)
(-9.05e-11 207 64.7)
(1.16e-11 207 63)
(-2.85e-13 207 59.5)
(-1.09e-10 207 57.9)
(2.58e-10 207 54.4)
(-3.48e-10 207 52.6)
(2.44e-10 207 48.9)
(-1.27e-10 207 47.2)
(-2.1e-12 207 43.4)
(1.41e-10 208 41.5)
(-1.52e-10 207 37.7)
(8.41e-11 208 35.5)
(5.86e-10 207 32)
(4.78e-10 208 29.7)
(-1.56e-11 207 26.5)
(-3.94e-10 208 24)
(-4.25e-10 207 20.7)
(1.42e-11 208 18.1)
(3.48e-11 208 14.8)
(4.71e-12 208 12.2)
(-8.37e-11 208 8.89)
(-4.45e-11 208 6.2)
(-5.34e-11 208 2.99)
(-1.51e-11 208 0.214)
(2.04e-11 208 -2.97)
(-2.13e-11 208 -5.71)
(-2.05e-11 208 -8.9)
(-4.42e-12 208 -11.6)
(-8.66e-12 208 -14.8)
(3.48e-11 208 -17.3)
(-3.51e-11 208 -20.6)
(3.61e-13 208 -23)
(-1.04e-11 208 -26.2)
(3.24e-11 208 -28.5)
(1.39e-11 208 -31.9)
(-7.72e-12 208 -34.2)
(2.07e-11 208 -37.9)
(-5.91e-11 208 -40)
(9.13e-11 208 -44)
(1.48e-11 208 -45.9)
(-1.39e-10 208 -49.8)
(1.92e-10 208 -51.7)
(3.84e-11 208 -55.5)
(1.74e-10 208 -57.4)
(-1.72e-10 208 -61.3)
(2.98e-10 208 -63.2)
(-3.39e-10 208 -67.1)
(1.68e-10 208 -69.1)
(-5.95e-11 208 -73)
(-1.59e-11 208 -74.9)
(1.16e-10 208 -78.7)
(-1.24e-10 208 -80.7)
(1.5e-10 208 -84.5)
(-2.74e-10 209 -86.5)
(1.32e-10 208 -90.3)
(3.67e-12 209 -92.4)
(-9.88e-11 208 -95.8)
(-2.42e-11 209 -97.7)
(1.56e-10 208 -101)
(-1.49e-10 209 -102)
(-1.61e-11 208 -105)
(2.28e-10 209 -107)
(-5.22e-10 208 -110)
(5.68e-10 209 -112)
(-4.74e-10 209 -115)
(4.39e-10 209 -117)
(-6.07e-10 209 -120)
(5.4e-10 209 -122)
(-2.99e-10 209 -125)
(1.93e-10 209 -127)
(-3.79e-10 209 -130)
(4.66e-10 209 -133)
(-3.18e-10 209 -135)
(2.98e-10 209 -138)
(-3.98e-10 210 -140)
(-2.49e-10 210 -142)
(8.92e-10 210 -145)
(-7.44e-10 210 -147)
(2.9e-10 210 -150)
(-1.86e-10 210 -152)
(-1.05e-10 210 -154)
(4.93e-10 210 -157)
(-1.9e-10 210 -159)
(-5.52e-10 211 -161)
(4.67e-10 211 -163)
(1.5e-10 211 -165)
(-2.33e-10 211 -166)
(-1.23e-10 211 -168)
(2.02e-10 211 -170)
(-1.76e-10 211 -171)
(4.76e-10 211 -172)
(-1.05e-10 211 -173)
(-3.78e-10 211 -174)
(2.24e-10 211 -175)
(-7.11e-10 211 -175)
(-2.51e-10 211 -176)
(6.24e-10 211 -177)
(1.02e-10 211 -178)
(5.41e-10 211 -178)
(7.46e-11 211 -179)
(-2.44e-10 210 -180)
(-1.94e-10 210 -180)
(3.97e-10 210 -181)
(-2.07e-10 210 -181)
(-4.14e-10 210 -181)
(-5.81e-10 210 -180)
(-2.79e-10 209 -178)
(-1.7e-10 209 -173)
(-3.79e-11 209 -170)
(-7.27e-12 208 -162)
(-2.3e-12 210 -229)
(-2.03e-11 214 230)
(-2.86e-11 214 165)
(-4.46e-11 214 174)
(-1.02e-10 214 177)
(-1.4e-10 215 182)
(-2.65e-10 215 184)
(2.44e-10 215 184)
(-1.22e-10 216 184)
(1.96e-10 216 184)
(1.5e-10 216 183)
(1.3e-10 217 183)
(-4.5e-10 217 182)
(3.15e-10 217 182)
(-2.36e-11 218 181)
(-1.45e-10 218 181)
(4.25e-10 218 180)
(-3.8e-10 219 179)
(-4.01e-11 219 178)
(-6.52e-11 219 177)
(1.91e-10 219 176)
(-7.03e-11 219 174)
(-8.97e-11 220 173)
(3.03e-10 220 171)
(-4.35e-10 220 169)
(-4.72e-11 220 168)
(3.48e-10 220 166)
(-3.29e-10 220 164)
(1.57e-10 221 162)
(-3.92e-11 221 160)
(-8.59e-11 221 158)
(-1.65e-10 221 156)
(-1.32e-10 221 153)
(-1.35e-10 221 151)
(1.5e-10 221 149)
(-1.26e-10 221 147)
(-6.41e-11 221 145)
(1.32e-10 221 143)
(1.9e-10 221 140)
(-5.33e-10 221 138)
(6.29e-10 222 136)
(-3.59e-10 222 133)
(1.55e-10 222 130)
(-1.04e-10 222 128)
(-2.53e-12 222 125)
(1.89e-10 222 122)
(2.44e-11 222 119)
(6.74e-11 222 117)
(8.02e-11 222 114)
(-3.49e-10 222 112)
(3.38e-10 222 109)
(2.49e-10 222 107)
(-2.35e-10 222 103)
(3.24e-11 222 101)
(-2.94e-10 222 97.6)
(2.93e-10 222 95.5)
(1.31e-11 222 92)
(-2.43e-11 222 90.1)
(1.78e-11 222 86.7)
(1.3e-11 222 84.8)
(4.78e-12 222 81.1)
(-1.19e-10 222 79.2)
(2.39e-10 222 75.4)
(-3.05e-10 222 73.5)
(1.84e-10 222 69.9)
(5.65e-11 222 68.1)
(-7.95e-11 222 64.7)
(1.38e-11 222 63)
(1.61e-11 222 59.5)
(-1.26e-10 222 57.9)
(2.68e-10 222 54.4)
(-3.4e-10 222 52.6)
(2.44e-10 222 48.9)
(-1.11e-10 222 47.2)
(-9.2e-12 222 43.4)
(1.47e-10 222 41.5)
(-1.62e-10 222 37.7)
(2.34e-11 223 35.5)
(-1.58e-10 222 32)
(-1.57e-10 223 29.7)
(4.32e-10 222 26.5)
(4.64e-10 223 24)
(9.4e-11 222 20.7)
(-2.49e-11 223 18.1)
(3.88e-11 223 14.8)
(1.3e-11 223 12.2)
(-7.82e-11 223 8.88)
(-3.18e-11 223 6.19)
(-4.61e-11 223 2.99)
(-1.46e-11 223 0.217)
(2.11e-11 223 -2.97)
(-1.7e-11 223 -5.71)
(-1.66e-11 223 -8.89)
(6.69e-13 223 -11.6)
(-7.79e-12 223 -14.8)
(3.65e-11 223 -17.3)
(-3.68e-11 223 -20.6)
(9.72e-14 223 -23)
(-1.39e-11 223 -26.2)
(3.64e-11 223 -28.5)
(1.48e-11 223 -31.9)
(-1.46e-11 223 -34.1)
(2.23e-11 223 -37.9)
(-5e-11 223 -40)
(9.23e-11 223 -44)
(-8.42e-12 223 -45.8)
(-7.81e-11 223 -49.8)
(5.41e-11 223 -51.7)
(-1.26e-10 223 -55.5)
(1.13e-10 223 -57.4)
(-1.78e-10 223 -61.3)
(2.75e-10 223 -63.2)
(-3.6e-10 223 -67.1)
(1.95e-10 223 -69)
(-6.2e-11 223 -73)
(-1.5e-12 223 -74.9)
(1.25e-10 223 -78.7)
(-9.65e-11 223 -80.6)
(1.54e-10 223 -84.5)
(-2.57e-10 223 -86.5)
(1.46e-10 223 -90.3)
(-1.61e-11 223 -92.3)
(-4.98e-11 223 -95.8)
(-1.47e-11 223 -97.7)
(1.31e-10 223 -101)
(-1.57e-10 223 -102)
(1.6e-11 223 -105)
(1.32e-10 223 -107)
(-4.28e-10 223 -110)
(5.62e-10 223 -112)
(-5.17e-10 223 -115)
(4.71e-10 223 -117)
(-5.74e-10 223 -120)
(5.52e-10 223 -122)
(-3.98e-10 223 -125)
(2.64e-10 223 -127)
(-3.76e-10 223 -130)
(4.53e-10 223 -133)
(-3.01e-10 223 -135)
(1.98e-10 223 -138)
(-3.32e-10 223 -140)
(-4.46e-12 223 -142)
(6.13e-10 223 -145)
(-7.43e-10 223 -147)
(4.21e-10 223 -150)
(-2.1e-10 223 -152)
(4.95e-11 223 -154)
(2.21e-10 223 -157)
(-3.07e-10 223 -159)
(-1.42e-10 223 -161)
(4.63e-10 223 -163)
(-2.09e-10 223 -165)
(-1.74e-10 223 -167)
(8.87e-12 223 -168)
(1.67e-10 223 -170)
(6.36e-11 223 -171)
(1.34e-10 223 -172)
(-3.64e-10 223 -173)
(-2.06e-10 223 -174)
(1.39e-10 223 -175)
(3.08e-10 223 -175)
(4.32e-10 223 -176)
(1.9e-10 222 -177)
(-4.59e-10 222 -178)
(2.48e-10 222 -178)
(-2.92e-10 222 -179)
(-2.17e-10 222 -180)
(2.07e-10 222 -180)
(4.3e-12 222 -181)
(-9.67e-11 222 -181)
(8.68e-11 221 -181)
(1.27e-12 221 -180)
(2.57e-10 221 -179)
(1.07e-10 221 -173)
(3.88e-11 221 -171)
(1.34e-11 220 -163)
(-1.03e-11 221 -228)
(1.02e-11 217 230)
(4.54e-11 217 165)
(8.98e-11 218 174)
(1.76e-10 218 177)
(1.94e-10 218 182)
(3.14e-10 219 184)
(3.21e-10 219 185)
(-2.2e-10 220 185)
(-8.69e-11 220 184)
(2e-11 220 184)
(4.53e-10 221 184)
(-3.79e-10 221 183)
(-3.61e-12 221 182)
(2.47e-10 222 182)
(-4.41e-10 222 181)
(5.61e-10 222 180)
(-1.19e-10 222 179)
(-1.67e-10 223 178)
(-2.26e-10 223 177)
(1.64e-10 223 176)
(1.25e-10 223 174)
(-3.36e-10 224 173)
(5.22e-10 224 171)
(-1.74e-10 224 170)
(-4.45e-10 224 168)
(4e-10 224 166)
(-2.65e-10 224 164)
(4.6e-11 225 162)
(9.57e-11 225 160)
(5.42e-11 225 158)
(6.08e-11 225 156)
(4.64e-11 225 153)
(-1.79e-10 225 152)
(1.13e-10 226 149)
(-6.01e-11 226 147)
(-1.44e-10 226 145)
(-1.75e-12 226 143)
(4.49e-10 226 140)
(2.01e-11 226 138)
(7.43e-10 226 136)
(-1.84e-10 226 133)
(5.34e-11 226 130)
(-3.55e-11 226 128)
(-1.53e-10 226 125)
(6.64e-11 226 122)
(-1.06e-10 227 119)
(-4.06e-11 226 117)
(3.29e-10 227 114)
(-5.22e-10 226 112)
(5.38e-11 227 109)
(2.46e-10 226 107)
(-3.15e-10 227 103)
(7.54e-10 226 101)
(4.55e-10 227 97.6)
(4.97e-10 226 95.5)
(1.14e-10 227 92)
(-3.14e-11 227 90.1)
(2.67e-11 227 86.6)
(7.31e-12 227 84.8)
(5.54e-11 227 81)
(-2.03e-10 227 79.1)
(3.06e-10 227 75.3)
(-2.94e-10 227 73.5)
(1.18e-10 227 69.9)
(1.05e-10 227 68.1)
(-6.39e-11 227 64.7)
(3.33e-12 227 63)
(6.19e-11 227 59.5)
(-1.85e-10 227 57.8)
(3.06e-10 227 54.3)
(-3.29e-10 227 52.5)
(2.06e-10 227 48.8)
(-7.75e-11 227 47.1)
(-3.81e-11 227 43.4)
(1.8e-10 227 41.5)
(-1.6e-10 227 37.7)
(5.74e-11 227 35.4)
(1.08e-10 227 32)
(2.53e-11 227 29.7)
(-1.55e-10 227 26.4)
(-2.93e-10 227 23.9)
(-3.95e-11 227 20.7)
(-4.59e-12 227 18.1)
(4.29e-11 227 14.8)
(2.38e-11 227 12.2)
(-8.4e-11 227 8.86)
(-1.94e-11 227 6.18)
(-4.14e-11 227 2.97)
(-1.38e-11 227 0.203)
(2.1e-11 227 -2.99)
(-1.42e-11 227 -5.72)
(-1.44e-11 227 -8.9)
(9.07e-12 227 -11.6)
(-1.11e-11 227 -14.8)
(4.01e-11 227 -17.3)
(-3.52e-11 227 -20.6)
(-5.83e-12 227 -22.9)
(-2.51e-11 227 -26.2)
(3.15e-11 227 -28.4)
(2.48e-12 227 -31.8)
(-2.34e-11 227 -34.1)
(1.85e-11 227 -37.8)
(-3.72e-11 227 -40)
(9.91e-11 227 -43.9)
(3.34e-10 227 -45.8)
(4.34e-10 227 -49.7)
(1.08e-10 227 -51.6)
(-4.04e-11 227 -55.5)
(1.18e-10 227 -57.4)
(-1.4e-10 227 -61.2)
(2.47e-10 228 -63.1)
(-3.99e-10 227 -67)
(2.58e-10 228 -69)
(-8.95e-11 227 -72.9)
(4.01e-11 228 -74.8)
(1.07e-10 227 -78.6)
(-7.48e-11 228 -80.6)
(1.41e-10 227 -84.4)
(-2.62e-10 228 -86.4)
(2.26e-10 227 -90.2)
(1.97e-10 228 -92.3)
(5.82e-10 227 -95.7)
(5.26e-11 228 -97.6)
(1.18e-10 227 -101)
(-2.34e-10 228 -102)
(1.48e-10 227 -105)
(-5.66e-11 228 -107)
(-3.01e-10 227 -110)
(5.69e-10 228 -112)
(-5.64e-10 227 -115)
(4.91e-10 228 -117)
(-5.93e-10 227 -120)
(6.53e-10 228 -122)
(-5.13e-10 228 -125)
(2.63e-10 228 -127)
(-2.83e-10 228 -130)
(4.83e-10 228 -133)
(-3.78e-10 228 -135)
(2.24e-10 228 -137)
(-4.68e-10 228 -140)
(3.94e-10 228 -142)
(3.34e-10 228 -145)
(-8.25e-10 227 -147)
(6.91e-10 227 -150)
(-3.95e-10 227 -152)
(2.13e-10 227 -154)
(1.07e-10 227 -157)
(-4.1e-10 227 -159)
(1.76e-10 227 -161)
(3.69e-10 227 -163)
(-4.79e-10 227 -165)
(-7.07e-11 227 -167)
(1.84e-10 227 -168)
(2.44e-10 227 -170)
(-6.96e-11 227 -171)
(-9.79e-11 227 -173)
(-5.78e-10 226 -173)
(2.02e-10 226 -174)
(-3.97e-10 226 -175)
(4.25e-11 226 -176)
(7.71e-11 226 -176)
(-2.2e-10 226 -177)
(-1.45e-10 226 -178)
(5.19e-10 226 -179)
(-4.11e-10 226 -179)
(1.29e-10 226 -180)
(2.01e-10 225 -181)
(-9.94e-11 225 -181)
(-1.74e-10 225 -181)
(1.03e-10 225 -181)
(-2.7e-10 225 -181)
(1.99e-10 225 -179)
(-2.36e-10 225 -174)
(-5.61e-11 224 -171)
(-4.23e-11 224 -163)
(-3.91e-11 224 -228)
(-3.41e-11 218 230)
(-3.68e-11 219 166)
(-5.58e-11 219 175)
(-8.68e-11 220 177)
(-1.39e-10 220 183)
(-2.22e-10 220 184)
(-1.78e-10 221 185)
(6.53e-11 221 185)
(-1.05e-10 221 185)
(-2.69e-10 222 184)
(4.99e-10 222 184)
(-1.14e-10 222 183)
(-1.42e-10 223 183)
(2.96e-10 223 182)
(3.54e-10 223 181)
(3.48e-10 224 180)
(2.42e-10 224 179)
(1.67e-11 224 178)
(-3.61e-10 224 177)
(-7.01e-11 225 176)
(3.28e-10 225 175)
(-5.23e-10 225 173)
(2.67e-10 225 171)
(3.53e-10 226 170)
(-5.3e-10 226 168)
(2.32e-10 226 166)
(-1.14e-10 226 164)
(-4.28e-11 226 162)
(4.34e-11 226 160)
(2.84e-11 227 158)
(-2.36e-11 227 156)
(8.94e-11 227 154)
(-1.94e-10 227 152)
(4.32e-11 227 149)
(1.76e-11 227 147)
(5.63e-10 227 145)
(-9.13e-11 227 143)
(2.93e-10 227 140)
(-5.53e-10 227 138)
(7.84e-11 228 136)
(9.47e-12 228 133)
(6.38e-11 228 130)
(-6.07e-12 228 128)
(-1.1e-10 228 125)
(1.18e-10 228 122)
(2.13e-11 228 119)
(-1.51e-10 228 117)
(4.01e-10 228 114)
(-3.38e-10 228 112)
(-6.67e-11 228 109)
(4.06e-10 228 107)
(-4.48e-10 228 103)
(-6.54e-11 228 101)
(-7e-10 228 97.6)
(-7.53e-11 228 95.5)
(2.27e-10 228 92)
(-1.6e-11 228 90.1)
(2.75e-11 228 86.6)
(-2.9e-11 228 84.8)
(1.07e-10 228 81)
(-2.5e-10 228 79.1)
(3.13e-10 228 75.3)
(-2.66e-10 228 73.5)
(7.78e-11 228 69.8)
(1.02e-10 228 68.1)
(-5.46e-11 228 64.6)
(-1.9e-11 228 62.9)
(9.29e-11 228 59.5)
(-2.06e-10 228 57.8)
(3.13e-10 228 54.3)
(-3.07e-10 228 52.5)
(1.84e-10 228 48.8)
(-6.55e-11 229 47.1)
(-5.31e-11 228 43.4)
(1.87e-10 229 41.4)
(-1.53e-10 228 37.6)
(3.73e-11 229 35.4)
(-4.74e-11 228 31.9)
(-4.84e-11 229 29.7)
(1.77e-10 229 26.4)
(7.25e-11 229 23.9)
(1.37e-11 229 20.6)
(-3.3e-11 229 18.1)
(3.4e-11 229 14.7)
(3.58e-11 229 12.2)
(-8.13e-11 229 8.85)
(-1.35e-11 229 6.17)
(-3.58e-11 229 2.97)
(-1.34e-11 229 0.198)
(2.08e-11 229 -3)
(-1.13e-11 229 -5.72)
(-1.19e-11 229 -8.9)
(1.28e-11 229 -11.6)
(-1.32e-11 229 -14.8)
(5.08e-11 229 -17.3)
(-3.43e-11 229 -20.6)
(-1.95e-11 229 -22.9)
(-4.16e-11 229 -26.2)
(2.48e-11 229 -28.4)
(-1.47e-11 229 -31.8)
(-3.37e-11 229 -34.1)
(5.77e-12 229 -37.8)
(-4.08e-11 229 -39.9)
(1.37e-10 229 -43.9)
(-3.02e-10 229 -45.8)
(-2.16e-10 229 -49.7)
(1.66e-11 229 -51.6)
(-7.3e-11 229 -55.5)
(8.94e-11 229 -57.4)
(-1.2e-10 229 -61.2)
(2.21e-10 229 -63.1)
(-4e-10 229 -67)
(2.92e-10 229 -69)
(-1.07e-10 229 -72.9)
(5.39e-11 229 -74.8)
(7.51e-11 229 -78.6)
(-6.83e-11 229 -80.6)
(1.12e-10 229 -84.4)
(-2.3e-10 229 -86.4)
(3.09e-10 229 -90.2)
(-4.23e-10 229 -92.2)
(-7.53e-11 229 -95.7)
(-1.25e-10 229 -97.6)
(4.91e-11 229 -100)
(-2.07e-10 229 -102)
(1.76e-10 229 -105)
(-1.85e-10 229 -107)
(-1.1e-10 229 -110)
(4.81e-10 229 -112)
(-5.81e-10 229 -115)
(5.21e-10 229 -117)
(-5.72e-10 229 -120)
(6.66e-10 229 -122)
(-6.37e-10 229 -125)
(3.73e-10 229 -127)
(-2.25e-10 229 -130)
(4.38e-10 229 -133)
(-3.93e-10 229 -135)
(1.5e-10 229 -137)
(-3.19e-10 229 -140)
(5.35e-10 229 -142)
(-8.02e-11 229 -145)
(-5.67e-10 229 -147)
(7.73e-10 229 -150)
(-5.42e-10 229 -152)
(3.64e-10 229 -154)
(-1.24e-10 229 -157)
(-2.24e-10 229 -159)
(4.2e-10 229 -161)
(1.56e-10 229 -163)
(2.82e-10 229 -165)
(3.03e-10 228 -167)
(2.75e-10 228 -168)
(2.23e-11 228 -170)
(-2.37e-10 228 -171)
(-4.25e-10 228 -173)
(-3.11e-11 228 -173)
(7.02e-11 228 -174)
(-1.56e-10 228 -175)
(7.92e-10 228 -176)
(1.89e-10 228 -176)
(-2.9e-11 228 -177)
(9.91e-11 228 -178)
(8.87e-11 227 -179)
(-5.46e-10 227 -179)
(3.59e-10 227 -180)
(-1.83e-11 227 -181)
(-2.92e-10 227 -181)
(-1.14e-10 227 -181)
(6.31e-10 227 -181)
(6.35e-10 227 -181)
(7.93e-10 226 -179)
(6.95e-10 226 -174)
(1.53e-10 226 -171)
(1.67e-11 226 -163)
(-1.93e-11 226 -228)
(-6.39e-12 219 230)
(1.05e-11 219 166)
(7.29e-11 220 175)
(1.86e-10 220 178)
(2.02e-10 221 183)
(1.92e-10 221 185)
(2.67e-11 221 185)
(-2.12e-10 222 185)
(8.94e-11 222 185)
(4.29e-10 222 185)
(4.57e-10 223 184)
(6.56e-11 223 184)
(-2.13e-10 223 183)
(-6.81e-11 224 182)
(-3.92e-10 224 181)
(-2.97e-10 224 181)
(2.05e-10 224 180)
(3.41e-10 225 179)
(-1.88e-10 225 178)
(-3.33e-10 225 176)
(4.85e-10 225 175)
(-4.07e-10 226 173)
(-1.34e-10 226 172)
(5.13e-10 226 170)
(-3.26e-10 226 168)
(1.39e-10 227 166)
(-6.57e-11 227 164)
(-2.57e-11 227 162)
(6.69e-11 227 160)
(8.36e-11 227 158)
(3.55e-12 227 156)
(1.56e-10 227 154)
(-1.62e-10 227 152)
(-1.61e-11 228 149)
(-2.13e-10 228 147)
(1.72e-10 228 145)
(-5.12e-10 228 143)
(5.17e-10 228 140)
(-2.26e-10 228 138)
(1.53e-10 228 136)
(-5.52e-11 228 133)
(7.21e-11 228 130)
(2.27e-11 228 128)
(-1.55e-10 228 125)
(5.63e-11 228 122)
(5.97e-11 229 119)
(-2.2e-10 228 117)
(4.32e-10 229 114)
(-2.92e-10 228 112)
(-2.16e-10 229 109)
(4.66e-10 228 107)
(-3.31e-10 229 103)
(3.53e-10 228 101)
(-2.91e-10 229 97.6)
(-4.21e-11 229 95.5)
(1.86e-10 229 92)
(1.28e-11 229 90.1)
(2.94e-11 229 86.6)
(-5.95e-11 229 84.8)
(1.36e-10 229 81)
(-3e-10 229 79.1)
(3.24e-10 229 75.3)
(-2.44e-10 229 73.5)
(5.19e-11 229 69.8)
(1.11e-10 229 68.1)
(3.47e-10 229 64.6)
(1.96e-10 229 62.9)
(1.2e-10 229 59.5)
(-2.26e-10 229 57.8)
(7.21e-10 229 54.3)
(-3e-11 229 52.5)
(1.59e-10 229 48.8)
(-5.24e-11 229 47.1)
(-7.09e-11 229 43.3)
(1.98e-10 229 41.4)
(-1.45e-10 229 37.6)
(5.44e-11 229 35.4)
(1.07e-11 229 31.9)
(-2.89e-11 229 29.6)
(4.24e-11 229 26.4)
(-8.98e-11 229 23.9)
(-2e-11 229 20.6)
(-4.51e-11 229 18.1)
(2.49e-11 229 14.7)
(4.4e-11 229 12.1)
(-8.43e-11 229 8.84)
(-1.41e-11 229 6.16)
(-3.5e-11 229 2.95)
(-1.27e-11 229 0.186)
(1.98e-11 229 -3.01)
(-1.15e-11 229 -5.73)
(-1.4e-11 229 -8.91)
(1.22e-11 229 -11.6)
(-1.65e-11 229 -14.8)
(5.86e-11 229 -17.3)
(-3.14e-11 229 -20.6)
(-2.74e-11 229 -22.9)
(-4.77e-11 229 -26.2)
(1.99e-11 229 -28.4)
(-2.78e-11 230 -31.8)
(-3.19e-11 229 -34.1)
(-2.58e-12 230 -37.8)
(-4.4e-11 229 -39.9)
(9.21e-11 230 -43.9)
(-7.79e-11 229 -45.8)
(7.8e-11 230 -49.7)
(6.27e-11 230 -51.6)
(-5.75e-11 230 -55.4)
(8.27e-11 230 -57.3)
(-8.47e-11 229 -61.2)
(2.08e-10 230 -63.1)
(-4.01e-10 230 -67)
(3.28e-10 230 -68.9)
(-1.42e-10 230 -72.9)
(6.47e-11 230 -74.8)
(2.94e-11 230 -78.6)
(1.56e-10 230 -80.5)
(5.51e-10 230 -84.3)
(-2.07e-10 230 -86.4)
(2.32e-10 229 -90.1)
(-2.76e-10 230 -92.2)
(2.91e-10 230 -95.7)
(-3.24e-11 230 -97.6)
(6.25e-11 230 -100)
(-1.91e-10 230 -102)
(1.95e-10 230 -105)
(-2.62e-10 230 -107)
(4.89e-11 230 -110)
(3.77e-10 230 -112)
(-5.56e-10 230 -114)
(5.36e-10 230 -117)
(-5.83e-10 230 -120)
(6.69e-10 230 -122)
(-7.15e-10 230 -125)
(4.73e-10 230 -127)
(-2.14e-10 230 -130)
(4.16e-10 230 -133)
(-4.66e-10 230 -135)
(1.8e-10 230 -137)
(-2.55e-10 230 -140)
(5.23e-10 230 -142)
(-2.75e-10 230 -145)
(-3.54e-10 230 -147)
(7.41e-10 230 -150)
(-6.72e-10 230 -152)
(4.66e-10 230 -154)
(-1.97e-10 230 -157)
(-5.39e-11 229 -159)
(4.25e-10 229 -161)
(-5.67e-10 229 -163)
(-2.71e-10 229 -165)
(8.24e-11 229 -167)
(-2.03e-11 229 -169)
(-1.66e-10 229 -170)
(-4.14e-10 229 -171)
(4.32e-11 229 -173)
(5.48e-11 229 -173)
(1.03e-10 229 -174)
(3.25e-10 229 -175)
(4.56e-10 229 -176)
(-6.56e-10 229 -177)
(-2.39e-10 228 -177)
(-7.69e-11 229 -178)
(3.89e-11 228 -179)
(-1.61e-10 228 -180)
(5.52e-10 228 -180)
(-3.48e-10 228 -181)
(-8.56e-11 228 -181)
(2.7e-10 228 -182)
(-6.03e-11 228 -181)
(-3.34e-10 228 -181)
(-6.76e-10 227 -179)
(-9.64e-10 227 -174)
(-5.09e-10 227 -172)
(-2.59e-10 227 -163)
(-7.79e-11 227 -228)
(-1.58e-11 219 230)
(-3.24e-11 220 166)
(-1.23e-10 220 175)
(-1.98e-10 221 178)
(-1.22e-10 221 183)
(-6.34e-12 221 185)
(1.16e-10 221 186)
(9.64e-12 222 186)
(-6.2e-10 222 185)
(-6.23e-10 223 185)
(-2.5e-10 223 184)
(3.56e-10 223 184)
(2.16e-11 223 183)
(3.49e-10 224 182)
(4.63e-10 224 182)
(-1.95e-10 224 181)
(-2.65e-10 225 180)
(3.97e-10 225 179)
(1.79e-10 225 178)
(-5.65e-10 225 177)
(4.76e-10 226 175)
(-7.82e-11 226 174)
(-4.73e-10 226 172)
(5.26e-10 226 170)
(-1.73e-10 226 168)
(9.34e-11 227 166)
(-1.86e-11 227 164)
(-6.8e-11 227 162)
(2.6e-11 227 160)
(9e-11 227 158)
(-3.24e-11 227 156)
(2.08e-10 227 154)
(-1e-10 228 152)