/*--------------------------------*- C++ -*----------------------------------*\
| =========                 |                                                 |
| \\      /  F ield         | OpenFOAM: The Open Source CFD Toolbox           |
|  \\    /   O peration     | Version:  2212                                  |
|   \\  /    A nd           | Website:  www.openfoam.com                      |
|    \\/     M anipulation  |                                                 |
\*---------------------------------------------------------------------------*/
FoamFile
{
    version     2.0;
    format      ascii;
    arch        "LSB;label=32;scalar=64";
    class       volVectorField;
    location    "0.178";
    object      UMean;
}
// * * * * * * * * * * * * * * * * * * * * * * * * * * * * * * * * * * * * * //

dimensions      [0 1 -1 0 0 0 0];

internalField   nonuniform List<vector> 
24240
(
(9.48912 0.587502 7.16963e-07)
(9.48918 0.587507 -5.82338e-07)
(9.48918 0.587506 -4.48088e-07)
(9.48918 0.587506 -8.43464e-07)
(9.48918 0.587506 -9.84356e-07)
(9.48918 0.587505 -1.20422e-06)
(9.48918 0.587505 -1.36075e-06)
(9.48918 0.587504 -1.51016e-06)
(9.48918 0.587504 -1.622e-06)
(9.48918 0.587504 -1.70203e-06)
(9.48918 0.587503 -1.74127e-06)
(9.48918 0.587503 -1.73827e-06)
(9.48918 0.587503 -1.68974e-06)
(9.48918 0.587502 -1.60162e-06)
(9.48918 0.587502 -1.46586e-06)
(9.48918 0.587502 -1.32825e-06)
(9.48917 0.587502 -1.08443e-06)
(9.48917 0.587502 -1.03338e-06)
(9.48918 0.587502 -3.84388e-07)
(9.48911 0.587498 -1.08396e-06)
(9.12905 0.59307 -3.00065e-07)
(9.12911 0.593075 -6.82213e-07)
(9.12911 0.593075 -9.92755e-07)
(9.12911 0.593076 -1.38e-06)
(9.12911 0.593077 -1.65596e-06)
(9.12911 0.593077 -1.91952e-06)
(9.12911 0.593078 -2.10709e-06)
(9.12911 0.593079 -2.24555e-06)
(9.12912 0.59308 -2.31891e-06)
(9.12912 0.593081 -2.33455e-06)
(9.12912 0.593082 -2.29194e-06)
(9.12912 0.593082 -2.19539e-06)
(9.12912 0.593083 -2.04929e-06)
(9.12912 0.593084 -1.86248e-06)
(9.12912 0.593084 -1.63875e-06)
(9.12912 0.593084 -1.40469e-06)
(9.12912 0.593085 -1.12424e-06)
(9.12912 0.593085 -8.84961e-07)
(9.12912 0.593085 -5.14918e-07)
(9.12905 0.59308 -1.37963e-07)
(9.15502 0.289427 -1.21491e-07)
(9.15509 0.28943 2.60721e-08)
(9.15508 0.289431 1.64632e-07)
(9.15508 0.289431 1.6737e-07)
(9.15508 0.289431 1.9321e-07)
(9.15508 0.289431 1.47569e-07)
(9.15508 0.289432 8.52751e-08)
(9.15508 0.289432 -1.22889e-08)
(9.15508 0.289433 -1.24925e-07)
(9.15508 0.289433 -2.46896e-07)
(9.15508 0.289433 -3.6537e-07)
(9.15508 0.289434 -4.69787e-07)
(9.15508 0.289434 -5.5135e-07)
(9.15508 0.289435 -6.03175e-07)
(9.15507 0.289435 -6.17974e-07)
(9.15507 0.289436 -6.05455e-07)
(9.15507 0.289436 -5.36967e-07)
(9.15507 0.289436 -4.71651e-07)
(9.15507 0.289436 -2.75894e-07)
(9.15501 0.289434 -1.18925e-08)
(8.93369 0.287787 -1.59017e-07)
(8.93375 0.28779 -4.51803e-07)
(8.93375 0.28779 -6.74731e-07)
(8.93375 0.28779 -9.11094e-07)
(8.93375 0.28779 -1.09439e-06)
(8.93375 0.28779 -1.25703e-06)
(8.93375 0.287791 -1.37403e-06)
(8.93375 0.287791 -1.4553e-06)
(8.93375 0.287791 -1.49237e-06)
(8.93375 0.287791 -1.48836e-06)
(8.93375 0.287792 -1.44299e-06)
(8.93375 0.287792 -1.35952e-06)
(8.93375 0.287792 -1.24194e-06)
(8.93375 0.287793 -1.0959e-06)
(8.93375 0.287793 -9.25716e-07)
(8.93375 0.287793 -7.43946e-07)
(8.93375 0.287793 -5.42639e-07)
(8.93375 0.287794 -3.55068e-07)
(8.93375 0.287794 -1.66499e-07)
(8.93369 0.287791 -6.4689e-08)
(8.94201 0.14773 -2.312e-09)
(8.94207 0.147732 1.61496e-07)
(8.94207 0.147732 3.19908e-07)
(8.94207 0.147733 4.18074e-07)
(8.94207 0.147733 4.92743e-07)
(8.94207 0.147733 5.17779e-07)
(8.94207 0.147734 5.08547e-07)
(8.94207 0.147734 4.62837e-07)
(8.94206 0.147735 3.917e-07)
(8.94206 0.147735 3.02554e-07)
(8.94206 0.147736 2.06012e-07)
(8.94206 0.147736 1.12295e-07)
(8.94206 0.147737 2.92403e-08)
(8.94206 0.147737 -3.51234e-08)
(8.94206 0.147738 -7.52746e-08)
(8.94206 0.147738 -8.77938e-08)
(8.94206 0.147738 -7.13704e-08)
(8.94206 0.147738 -3.85429e-08)
(8.94206 0.147739 9.28914e-09)
(8.94199 0.147737 3.65737e-08)
(8.81746 0.141658 -6.45104e-08)
(8.81752 0.141659 -1.74563e-07)
(8.81752 0.141659 -2.50807e-07)
(8.81752 0.141659 -3.38238e-07)
(8.81752 0.141659 -4.02141e-07)
(8.81752 0.141658 -4.63486e-07)
(8.81752 0.141658 -5.08704e-07)
(8.81752 0.141658 -5.42787e-07)
(8.81752 0.141657 -5.60387e-07)
(8.81752 0.141657 -5.62105e-07)
(8.81752 0.141657 -5.46366e-07)
(8.81752 0.141656 -5.13687e-07)
(8.81752 0.141656 -4.64576e-07)
(8.81752 0.141656 -4.00882e-07)
(8.81752 0.141656 -3.21319e-07)
(8.81752 0.141655 -2.33166e-07)
(8.81752 0.141655 -1.29731e-07)
(8.81752 0.141655 -4.07524e-08)
(8.81752 0.141655 2.65678e-08)
(8.81746 0.141653 1.10933e-08)
(8.82114 0.0645136 -2.68796e-08)
(8.82121 0.0645143 4.69787e-10)
(8.82121 0.0645144 2.96956e-08)
(8.8212 0.0645144 3.06339e-08)
(8.8212 0.0645144 2.47555e-08)
(8.8212 0.0645144 2.11277e-09)
(8.8212 0.0645145 -3.21666e-08)
(8.8212 0.0645145 -7.82841e-08)
(8.8212 0.0645146 -1.32027e-07)
(8.8212 0.0645146 -1.89513e-07)
(8.8212 0.0645147 -2.459e-07)
(8.8212 0.0645147 -2.95789e-07)
(8.8212 0.0645147 -3.33835e-07)
(8.8212 0.0645147 -3.55357e-07)
(8.8212 0.0645147 -3.54959e-07)
(8.8212 0.0645146 -3.31811e-07)
(8.8212 0.0645146 -2.82804e-07)
(8.8212 0.0645145 -2.16819e-07)
(8.8212 0.0645144 -1.30494e-07)
(8.82114 0.0645135 -3.45606e-08)
(8.76483 0.0564002 -4.435e-08)
(8.76489 0.0564008 -1.32307e-07)
(8.76489 0.0564007 -2.01461e-07)
(8.76489 0.0564006 -2.76596e-07)
(8.76489 0.0564004 -3.31128e-07)
(8.76489 0.0564002 -3.78247e-07)
(8.76489 0.0563999 -4.11303e-07)
(8.76489 0.0563997 -4.3512e-07)
(8.76489 0.0563995 -4.48888e-07)
(8.76489 0.0563992 -4.54151e-07)
(8.76489 0.056399 -4.51501e-07)
(8.76489 0.0563987 -4.40801e-07)
(8.76489 0.0563984 -4.20582e-07)
(8.76489 0.0563982 -3.92019e-07)
(8.76489 0.0563979 -3.50575e-07)
(8.76489 0.0563976 -3.0424e-07)
(8.76489 0.0563974 -2.44134e-07)
(8.76489 0.0563971 -1.93901e-07)
(8.76489 0.0563969 -1.23506e-07)
(8.76483 0.0563961 -4.97665e-08)
(8.77152 0.00344315 -5.55023e-08)
(8.77158 0.00344309 -1.07503e-07)
(8.77158 0.00344289 -1.65644e-07)
(8.77158 0.0034426 -2.35975e-07)
(8.77158 0.00344223 -3.00609e-07)
(8.77158 0.00344179 -3.63371e-07)
(8.77158 0.0034413 -4.23256e-07)
(8.77158 0.00344077 -4.82382e-07)
(8.77158 0.00344021 -5.41991e-07)
(8.77158 0.00343963 -6.01797e-07)
(8.77158 0.00343905 -6.60635e-07)
(8.77158 0.00343847 -7.15588e-07)
(8.77158 0.0034379 -7.6002e-07)
(8.77158 0.00343737 -7.89826e-07)
(8.77158 0.00343687 -7.93677e-07)
(8.77158 0.00343642 -7.72948e-07)
(8.77158 0.00343602 -7.08915e-07)
(8.77158 0.00343569 -6.12162e-07)
(8.77158 0.00343543 -4.34578e-07)
(8.77151 0.00343529 -1.4635e-07)
(8.76626 -0.0114917 -1.31086e-07)
(8.76632 -0.0114921 -3.8135e-07)
(8.76632 -0.0114927 -6.10221e-07)
(8.76632 -0.0114934 -8.26887e-07)
(8.76632 -0.0114944 -1.00932e-06)
(8.76632 -0.0114955 -1.16002e-06)
(8.76632 -0.0114967 -1.27559e-06)
(8.76632 -0.011498 -1.35908e-06)
(8.76632 -0.0114994 -1.41277e-06)
(8.76632 -0.0115007 -1.43844e-06)
(8.76632 -0.011502 -1.43804e-06)
(8.76632 -0.0115033 -1.41158e-06)
(8.76632 -0.0115044 -1.35606e-06)
(8.76632 -0.0115055 -1.27421e-06)
(8.76632 -0.0115064 -1.16125e-06)
(8.76632 -0.0115071 -1.03092e-06)
(8.76632 -0.0115077 -8.68719e-07)
(8.76632 -0.0115082 -6.98737e-07)
(8.76632 -0.0115085 -4.39609e-07)
(8.76626 -0.0115085 -1.36541e-07)
(8.78036 -0.0562174 -2.53675e-07)
(8.78042 -0.0562181 -7.56486e-07)
(8.78042 -0.0562182 -1.22281e-06)
(8.78043 -0.0562183 -1.65222e-06)
(8.78043 -0.0562185 -2.01623e-06)
(8.78043 -0.0562187 -2.313e-06)
(8.78043 -0.0562189 -2.53736e-06)
(8.78043 -0.0562191 -2.69246e-06)
(8.78043 -0.0562194 -2.78196e-06)
(8.78043 -0.0562197 -2.81102e-06)
(8.78043 -0.0562201 -2.78436e-06)
(8.78043 -0.0562205 -2.70614e-06)
(8.78043 -0.0562208 -2.57681e-06)
(8.78043 -0.0562212 -2.40188e-06)
(8.78043 -0.0562216 -2.17877e-06)
(8.78044 -0.0562219 -1.92408e-06)
(8.78044 -0.0562222 -1.6178e-06)
(8.78044 -0.0562225 -1.28333e-06)
(8.78044 -0.0562227 -8.17085e-07)
(8.78037 -0.0562221 -2.66919e-07)
(8.8219 -0.0728521 -1.86965e-07)
(8.82196 -0.0728531 -4.90294e-07)
(8.82196 -0.0728534 -7.79163e-07)
(8.82196 -0.0728538 -1.05695e-06)
(8.82196 -0.0728542 -1.30406e-06)
(8.82196 -0.0728548 -1.51822e-06)
(8.82196 -0.0728554 -1.69671e-06)
(8.82196 -0.072856 -1.84056e-06)
(8.82196 -0.0728567 -1.9504e-06)
(8.82196 -0.0728574 -2.02625e-06)
(8.82196 -0.072858 -2.06641e-06)
(8.82196 -0.0728587 -2.06766e-06)
(8.82196 -0.0728593 -2.02332e-06)
(8.82196 -0.0728598 -1.93253e-06)
(8.82196 -0.0728602 -1.78566e-06)
(8.82196 -0.0728605 -1.59955e-06)
(8.82196 -0.0728608 -1.35501e-06)
(8.82196 -0.072861 -1.07898e-06)
(8.82196 -0.072861 -6.66165e-07)
(8.8219 -0.0728601 -1.8328e-07)
(8.84343 -0.130779 -3.48057e-07)
(8.84349 -0.130781 -1.08218e-06)
(8.84349 -0.130781 -1.73956e-06)
(8.84349 -0.130781 -2.34476e-06)
(8.84349 -0.130782 -2.85793e-06)
(8.84349 -0.130782 -3.27855e-06)
(8.8435 -0.130782 -3.59711e-06)
(8.8435 -0.130783 -3.81473e-06)
(8.8435 -0.130783 -3.93326e-06)
(8.8435 -0.130784 -3.95792e-06)
(8.8435 -0.130784 -3.89372e-06)
(8.8435 -0.130785 -3.74583e-06)
(8.8435 -0.130785 -3.51811e-06)
(8.84351 -0.130786 -3.21948e-06)
(8.84351 -0.130786 -2.85138e-06)
(8.84351 -0.130787 -2.44298e-06)
(8.84351 -0.130787 -1.97717e-06)
(8.84351 -0.130787 -1.50289e-06)
(8.84351 -0.130787 -8.83625e-07)
(8.84345 -0.130786 -2.73217e-07)
(8.94272 -0.143512 -2.74594e-07)
(8.94278 -0.143514 -6.8304e-07)
(8.94278 -0.143514 -1.07938e-06)
(8.94279 -0.143514 -1.46769e-06)
(8.94279 -0.143514 -1.82456e-06)
(8.94279 -0.143515 -2.1411e-06)
(8.94279 -0.143515 -2.41095e-06)
(8.94279 -0.143515 -2.63239e-06)
(8.94279 -0.143516 -2.80179e-06)
(8.94279 -0.143516 -2.9162e-06)
(8.94279 -0.143517 -2.96925e-06)
(8.94279 -0.143517 -2.95621e-06)
(8.94279 -0.143517 -2.86766e-06)
(8.94279 -0.143518 -2.70313e-06)
(8.94279 -0.143518 -2.45478e-06)
(8.94279 -0.143518 -2.14684e-06)
(8.94279 -0.143518 -1.76639e-06)
(8.94279 -0.143518 -1.34128e-06)
(8.94279 -0.143518 -7.83175e-07)
(8.94273 -0.143516 -1.91582e-07)
(8.96432 -0.242215 -3.96462e-07)
(8.96439 -0.242218 -1.27739e-06)
(8.96439 -0.242218 -2.05821e-06)
(8.96439 -0.242218 -2.78536e-06)
(8.96439 -0.242218 -3.39966e-06)
(8.96439 -0.242218 -3.91004e-06)
(8.96439 -0.242218 -4.29563e-06)
(8.9644 -0.242218 -4.5569e-06)
(8.9644 -0.242218 -4.69223e-06)
(8.9644 -0.242219 -4.70524e-06)
(8.9644 -0.242219 -4.60031e-06)
(8.9644 -0.242219 -4.38468e-06)
(8.9644 -0.24222 -4.06506e-06)
(8.96441 -0.24222 -3.65585e-06)
(8.96441 -0.242221 -3.16822e-06)
(8.96441 -0.242221 -2.64569e-06)
(8.96441 -0.242221 -2.07618e-06)
(8.96441 -0.242221 -1.54635e-06)
(8.96441 -0.242222 -9.08118e-07)
(8.96435 -0.242219 -3.0275e-07)
(9.14774 -0.247561 -3.20763e-07)
(9.1478 -0.247564 -7.12606e-07)
(9.1478 -0.247564 -1.13194e-06)
(9.1478 -0.247564 -1.58747e-06)
(9.1478 -0.247565 -2.01883e-06)
(9.1478 -0.247565 -2.42071e-06)
(9.1478 -0.247565 -2.77619e-06)
(9.1478 -0.247565 -3.08484e-06)
(9.1478 -0.247566 -3.33463e-06)
(9.1478 -0.247566 -3.51905e-06)
(9.1478 -0.247566 -3.62581e-06)
(9.1478 -0.247567 -3.64672e-06)
(9.14781 -0.247567 -3.56865e-06)
(9.14781 -0.247567 -3.39101e-06)
(9.14781 -0.247568 -3.1074e-06)
(9.14781 -0.247568 -2.74457e-06)
(9.14781 -0.247568 -2.30118e-06)
(9.14781 -0.247568 -1.83e-06)
(9.14781 -0.247568 -1.18327e-06)
(9.14774 -0.247565 -3.31644e-07)
(9.15514 -0.448678 -4.11638e-07)
(9.1552 -0.448682 -1.36118e-06)
(9.1552 -0.448682 -2.22608e-06)
(9.1552 -0.448683 -3.0732e-06)
(9.1552 -0.448683 -3.79505e-06)
(9.15521 -0.448683 -4.39932e-06)
(9.15521 -0.448683 -4.85911e-06)
(9.15521 -0.448684 -5.17701e-06)
(9.15521 -0.448684 -5.346e-06)
(9.15521 -0.448685 -5.36853e-06)
(9.15522 -0.448685 -5.24739e-06)
(9.15522 -0.448686 -4.99151e-06)
(9.15522 -0.448686 -4.61157e-06)
(9.15522 -0.448687 -4.13094e-06)
(9.15522 -0.448687 -3.56477e-06)
(9.15523 -0.448688 -2.97158e-06)
(9.15523 -0.448688 -2.35797e-06)
(9.15523 -0.448688 -1.83689e-06)
(9.15523 -0.448689 -1.11804e-06)
(9.15516 -0.448684 -3.7477e-07)
(9.46846 -0.442345 -4.81298e-07)
(9.46852 -0.44235 -9.04826e-07)
(9.46852 -0.44235 -1.37664e-06)
(9.46852 -0.44235 -1.98698e-06)
(9.46852 -0.442349 -2.50124e-06)
(9.46852 -0.442349 -3.02261e-06)
(9.46853 -0.442349 -3.4693e-06)
(9.46853 -0.442349 -3.86555e-06)
(9.46853 -0.442349 -4.18051e-06)
(9.46853 -0.442349 -4.41142e-06)
(9.46853 -0.442349 -4.54148e-06)
(9.46853 -0.442349 -4.56394e-06)
(9.46853 -0.442349 -4.46573e-06)
(9.46853 -0.442348 -4.25232e-06)
(9.46853 -0.442348 -3.90568e-06)
(9.46853 -0.442348 -3.46858e-06)
(9.46853 -0.442348 -2.88344e-06)
(9.46853 -0.442348 -2.29027e-06)
(9.46853 -0.442348 -1.42596e-06)
(9.46847 -0.442344 -3.33794e-07)
(9.43492 -0.889389 -4.70278e-07)
(9.43499 -0.889397 -1.32959e-06)
(9.43499 -0.889397 -2.12665e-06)
(9.43499 -0.889397 -2.98473e-06)
(9.43499 -0.889397 -3.65286e-06)
(9.43499 -0.889398 -4.26032e-06)
(9.43499 -0.889398 -4.71481e-06)
(9.435 -0.889399 -5.04569e-06)
(9.435 -0.8894 -5.22736e-06)
(9.435 -0.8894 -5.26769e-06)
(9.435 -0.8894 -5.16325e-06)
(9.435 -0.889401 -4.92573e-06)
(9.43501 -0.889401 -4.56199e-06)
(9.43501 -0.889401 -4.10287e-06)
(9.43501 -0.889401 -3.54565e-06)
(9.43501 -0.889401 -2.96662e-06)
(9.43501 -0.889401 -2.28919e-06)
(9.43501 -0.889401 -1.73895e-06)
(9.43501 -0.889401 -9.56787e-07)
(9.43495 -0.889394 -2.34691e-07)
(9.93751 -0.870074 5.79102e-07)
(9.93757 -0.87008 -1.30967e-06)
(9.93757 -0.870079 -1.7031e-06)
(9.93757 -0.870079 -2.74218e-06)
(9.93757 -0.870079 -3.34808e-06)
(9.93757 -0.870079 -4.0007e-06)
(9.93757 -0.870079 -4.4953e-06)
(9.93757 -0.870078 -4.90601e-06)
(9.93758 -0.870078 -5.18412e-06)
(9.93758 -0.870078 -5.34065e-06)
(9.93758 -0.870079 -5.35976e-06)
(9.93758 -0.870079 -5.247e-06)
(9.93758 -0.870079 -4.99706e-06)
(9.93758 -0.870079 -4.63749e-06)
(9.93758 -0.87008 -4.14537e-06)
(9.93758 -0.87008 -3.62783e-06)
(9.93758 -0.870081 -2.90238e-06)
(9.93758 -0.870081 -2.49996e-06)
(9.93759 -0.870082 -1.28977e-06)
(9.93753 -0.870076 -1.45175e-06)
(8.78603 0.666788 3.75015e-07)
(8.78609 0.666793 -1.32308e-07)
(8.78609 0.666792 -6.53806e-08)
(8.78609 0.666792 -2.56113e-07)
(8.78609 0.666791 -2.84797e-07)
(8.78609 0.66679 -4.04319e-07)
(8.78609 0.666789 -4.93217e-07)
(8.78609 0.666788 -6.10351e-07)
(8.78609 0.666787 -7.15689e-07)
(8.78609 0.666786 -8.19087e-07)
(8.78609 0.666785 -9.03923e-07)
(8.78609 0.666785 -9.66552e-07)
(8.78609 0.666784 -1.00037e-06)
(8.78608 0.666784 -1.00484e-06)
(8.78608 0.666783 -9.7072e-07)
(8.78608 0.666783 -9.33313e-07)
(8.78608 0.666783 -8.26819e-07)
(8.78608 0.666783 -8.20534e-07)
(8.78608 0.666784 -5.17523e-07)
(8.78602 0.666779 -6.7943e-07)
(8.83109 0.681032 -2.37097e-07)
(8.83115 0.681037 -7.03723e-07)
(8.83115 0.681038 -1.06653e-06)
(8.83115 0.681038 -1.46815e-06)
(8.83115 0.681039 -1.73554e-06)
(8.83115 0.68104 -1.98709e-06)
(8.83115 0.681041 -2.14717e-06)
(8.83115 0.681042 -2.25345e-06)
(8.83115 0.681043 -2.28271e-06)
(8.83115 0.681044 -2.25015e-06)
(8.83115 0.681045 -2.15338e-06)
(8.83114 0.681045 -2.00294e-06)
(8.83114 0.681046 -1.80624e-06)
(8.83114 0.681047 -1.57725e-06)
(8.83114 0.681048 -1.32191e-06)
(8.83114 0.681048 -1.07011e-06)
(8.83114 0.681049 -7.89453e-07)
(8.83114 0.681049 -5.78437e-07)
(8.83114 0.68105 -3.19197e-07)
(8.83108 0.681044 -1.50645e-07)
(8.86406 0.422782 7.37048e-08)
(8.86412 0.422786 3.33925e-07)
(8.86412 0.422786 6.44772e-07)
(8.86412 0.422786 8.22573e-07)
(8.86412 0.422787 1.00568e-06)
(8.86412 0.422787 1.0776e-06)
(8.86412 0.422787 1.10258e-06)
(8.86412 0.422788 1.05437e-06)
(8.86412 0.422788 9.60115e-07)
(8.86412 0.422789 8.2735e-07)
(8.86412 0.422789 6.75192e-07)
(8.86412 0.422789 5.18239e-07)
(8.86412 0.42279 3.66874e-07)
(8.86412 0.42279 2.34191e-07)
(8.86412 0.42279 1.27827e-07)
(8.86412 0.422791 4.27253e-08)
(8.86412 0.422791 2.18782e-09)
(8.86411 0.422791 -4.94549e-08)
(8.86411 0.422791 -3.43805e-08)
(8.86405 0.422788 -4.673e-08)
(8.77873 0.420736 -1.65338e-07)
(8.77879 0.42074 -4.84152e-07)
(8.77879 0.42074 -7.22893e-07)
(8.77879 0.42074 -9.72853e-07)
(8.77879 0.42074 -1.15943e-06)
(8.77879 0.42074 -1.32075e-06)
(8.77879 0.42074 -1.42593e-06)
(8.77879 0.42074 -1.49123e-06)
(8.77879 0.42074 -1.50482e-06)
(8.77879 0.42074 -1.47317e-06)
(8.77879 0.42074 -1.39665e-06)
(8.77879 0.42074 -1.28174e-06)
(8.77879 0.420741 -1.13438e-06)
(8.77879 0.420741 -9.63116e-07)
(8.77879 0.420741 -7.72306e-07)
(8.77879 0.420741 -5.78966e-07)
(8.77879 0.420741 -3.73652e-07)
(8.77879 0.420742 -2.05295e-07)
(8.77879 0.420742 -6.20779e-08)
(8.77873 0.420738 -4.02717e-08)
(8.79467 0.24473 7.58763e-08)
(8.79473 0.244733 3.3467e-07)
(8.79473 0.244733 6.14015e-07)
(8.79473 0.244733 8.21093e-07)
(8.79473 0.244733 9.95215e-07)
(8.79473 0.244734 1.10127e-06)
(8.79473 0.244734 1.15671e-06)
(8.79473 0.244735 1.15473e-06)
(8.79472 0.244736 1.10953e-06)
(8.79472 0.244736 1.02918e-06)
(8.79472 0.244737 9.26917e-07)
(8.79472 0.244737 8.15192e-07)
(8.79472 0.244738 7.02255e-07)
(8.79472 0.244738 5.98823e-07)
(8.79472 0.244739 5.0961e-07)
(8.79472 0.244739 4.41229e-07)
(8.79472 0.244739 3.85451e-07)
(8.79472 0.24474 3.28515e-07)
(8.79472 0.24474 2.50929e-07)
(8.79466 0.244737 8.51728e-08)
(8.7182 0.236257 -6.67788e-08)
(8.71826 0.236259 -1.71144e-07)
(8.71826 0.236259 -2.48616e-07)
(8.71826 0.236259 -3.2725e-07)
(8.71826 0.236258 -3.7198e-07)
(8.71826 0.236258 -4.16132e-07)
(8.71826 0.236257 -4.3826e-07)
(8.71826 0.236257 -4.48973e-07)
(8.71826 0.236256 -4.40624e-07)
(8.71826 0.236256 -4.16396e-07)
(8.71826 0.236255 -3.75453e-07)
(8.71826 0.236255 -3.20411e-07)
(8.71826 0.236255 -2.52568e-07)
(8.71826 0.236254 -1.76398e-07)
(8.71825 0.236254 -8.8845e-08)
(8.71825 0.236254 -4.56539e-09)
(8.71825 0.236253 9.0076e-08)
(8.71825 0.236253 1.41175e-07)
(8.71825 0.236253 1.42077e-07)
(8.71819 0.236251 5.01669e-08)
(8.72475 0.109895 -2.75744e-09)
(8.72481 0.109896 9.95763e-08)
(8.72481 0.109896 2.03031e-07)
(8.72481 0.109896 2.76243e-07)
(8.72481 0.109896 3.35392e-07)
(8.72481 0.109896 3.66968e-07)
(8.72481 0.109896 3.76293e-07)
(8.72481 0.109896 3.61037e-07)
(8.72481 0.109896 3.26261e-07)
(8.72481 0.109896 2.76611e-07)
(8.72481 0.109897 2.17807e-07)
(8.72481 0.109897 1.56129e-07)
(8.72481 0.109897 9.86758e-08)
(8.72481 0.109897 5.08747e-08)
(8.72481 0.109897 2.04237e-08)
(8.72481 0.109897 7.83218e-09)
(8.72481 0.109897 1.6257e-08)
(8.72481 0.109897 2.97258e-08)
(8.7248 0.109897 4.31023e-08)
(8.72474 0.109896 3.17571e-08)
(8.68836 0.0959016 -4.09506e-08)
(8.68842 0.0959024 -1.2482e-07)
(8.68842 0.0959022 -1.84053e-07)
(8.68842 0.0959019 -2.39312e-07)
(8.68842 0.0959015 -2.65805e-07)
(8.68842 0.095901 -2.85512e-07)
(8.68842 0.0959006 -2.87307e-07)
(8.68842 0.0959 -2.80388e-07)
(8.68842 0.0958995 -2.63537e-07)
(8.68842 0.095899 -2.40223e-07)
(8.68842 0.0958984 -2.12118e-07)
(8.68842 0.0958979 -1.80356e-07)
(8.68842 0.0958974 -1.43647e-07)
(8.68842 0.0958969 -1.05964e-07)
(8.68842 0.0958964 -5.90045e-08)
(8.68842 0.095896 -1.86655e-08)
(8.68842 0.0958956 3.37777e-08)
(8.68841 0.0958952 5.21753e-08)
(8.68841 0.0958949 6.98467e-08)
(8.68835 0.0958939 2.91375e-08)
(8.69371 0.00110069 -8.27833e-08)
(8.69377 0.00110052 -1.58464e-07)
(8.69377 0.00110016 -2.37548e-07)
(8.69377 0.00109965 -3.15985e-07)
(8.69377 0.00109899 -3.81695e-07)
(8.69377 0.00109821 -4.407e-07)
(8.69377 0.00109733 -4.91317e-07)
(8.69377 0.00109638 -5.38629e-07)
(8.69377 0.00109537 -5.85003e-07)
(8.69377 0.00109435 -6.30885e-07)
(8.69377 0.00109332 -6.76429e-07)
(8.69377 0.00109231 -7.19293e-07)
(8.69377 0.00109134 -7.52058e-07)
(8.69377 0.00109043 -7.71547e-07)
(8.69377 0.00108961 -7.61876e-07)
(8.69377 0.00108888 -7.29657e-07)
(8.69377 0.00108825 -6.45579e-07)
(8.69377 0.00108775 -5.41369e-07)
(8.69377 0.00108738 -3.51641e-07)
(8.69371 0.00108725 -9.03968e-08)
(8.69386 -0.0239615 -2.02885e-07)
(8.69392 -0.0239621 -5.79466e-07)
(8.69392 -0.0239627 -9.22501e-07)
(8.69392 -0.0239635 -1.23327e-06)
(8.69392 -0.0239646 -1.49036e-06)
(8.69392 -0.0239658 -1.69758e-06)
(8.69392 -0.0239672 -1.84765e-06)
(8.69392 -0.0239687 -1.94628e-06)
(8.69392 -0.0239703 -1.99553e-06)
(8.69392 -0.0239718 -1.99856e-06)
(8.69392 -0.0239733 -1.95861e-06)
(8.69392 -0.0239748 -1.87785e-06)
(8.69392 -0.0239761 -1.75493e-06)
(8.69392 -0.0239774 -1.59801e-06)
(8.69392 -0.0239785 -1.40122e-06)
(8.69392 -0.0239794 -1.19116e-06)
(8.69392 -0.0239801 -9.42106e-07)
(8.69392 -0.0239807 -7.03892e-07)
(8.69392 -0.0239811 -3.73944e-07)
(8.69386 -0.0239809 -7.79201e-08)
(8.70521 -0.107178 -2.9823e-07)
(8.70527 -0.10718 -8.84867e-07)
(8.70527 -0.10718 -1.42937e-06)
(8.70527 -0.10718 -1.9226e-06)
(8.70527 -0.10718 -2.33699e-06)
(8.70527 -0.107181 -2.6748e-06)
(8.70527 -0.107181 -2.92736e-06)
(8.70527 -0.107181 -3.10064e-06)
(8.70527 -0.107182 -3.19878e-06)
(8.70527 -0.107182 -3.22661e-06)
(8.70527 -0.107183 -3.18983e-06)
(8.70527 -0.107183 -3.09285e-06)
(8.70527 -0.107184 -2.93552e-06)
(8.70527 -0.107184 -2.72466e-06)
(8.70527 -0.107185 -2.45247e-06)
(8.70527 -0.107185 -2.14231e-06)
(8.70527 -0.107186 -1.75857e-06)
(8.70527 -0.107186 -1.35646e-06)
(8.70527 -0.107186 -8.11221e-07)
(8.70521 -0.107185 -2.36618e-07)
(8.74121 -0.134423 -2.979e-07)
(8.74127 -0.134424 -7.76357e-07)
(8.74127 -0.134425 -1.22737e-06)
(8.74127 -0.134425 -1.64167e-06)
(8.74127 -0.134426 -2.00045e-06)
(8.74127 -0.134427 -2.29957e-06)
(8.74127 -0.134428 -2.53425e-06)
(8.74127 -0.134429 -2.70625e-06)
(8.74127 -0.13443 -2.81747e-06)
(8.74127 -0.134431 -2.86863e-06)
(8.74127 -0.134432 -2.85984e-06)
(8.74127 -0.134433 -2.79064e-06)
(8.74127 -0.134434 -2.65533e-06)
(8.74127 -0.134434 -2.46025e-06)
(8.74127 -0.134435 -2.19418e-06)
(8.74127 -0.134436 -1.88723e-06)
(8.74127 -0.134436 -1.51004e-06)
(8.74127 -0.134436 -1.12546e-06)
(8.74127 -0.134436 -6.20877e-07)
(8.74121 -0.134435 -1.22602e-07)
(8.75587 -0.238224 -4.39845e-07)
(8.75593 -0.238226 -1.37009e-06)
(8.75593 -0.238226 -2.21725e-06)
(8.75593 -0.238227 -2.98549e-06)
(8.75593 -0.238227 -3.63156e-06)
(8.75593 -0.238227 -4.16432e-06)
(8.75593 -0.238227 -4.5641e-06)
(8.75593 -0.238227 -4.83578e-06)
(8.75593 -0.238228 -4.979e-06)
(8.75593 -0.238228 -5.00015e-06)
(8.75593 -0.238229 -4.90592e-06)
(8.75593 -0.238229 -4.70348e-06)
(8.75593 -0.238229 -4.39843e-06)
(8.75593 -0.23823 -4.00319e-06)
(8.75593 -0.23823 -3.51916e-06)
(8.75593 -0.23823 -2.98059e-06)
(8.75593 -0.238231 -2.35857e-06)
(8.75593 -0.238231 -1.74201e-06)
(8.75593 -0.238231 -9.90099e-07)
(8.75587 -0.238229 -2.94011e-07)
(8.83263 -0.25752 -3.66255e-07)
(8.83269 -0.257523 -9.0502e-07)
(8.83269 -0.257523 -1.41519e-06)
(8.83269 -0.257523 -1.9024e-06)
(8.83269 -0.257524 -2.34012e-06)
(8.83269 -0.257524 -2.71943e-06)
(8.83269 -0.257525 -3.03188e-06)
(8.83269 -0.257525 -3.27685e-06)
(8.83269 -0.257526 -3.4501e-06)
(8.83269 -0.257526 -3.5491e-06)
(8.83269 -0.257526 -3.56848e-06)
(8.83269 -0.257527 -3.50568e-06)
(8.83269 -0.257527 -3.35025e-06)
(8.83269 -0.257528 -3.10666e-06)
(8.83269 -0.257528 -2.7649e-06)
(8.83269 -0.257528 -2.35738e-06)
(8.83269 -0.257528 -1.86361e-06)
(8.83269 -0.257528 -1.35341e-06)
(8.83269 -0.257528 -7.41043e-07)
(8.83263 -0.257526 -1.44797e-07)
(8.84244 -0.412932 -5.05034e-07)
(8.84251 -0.412936 -1.60334e-06)
(8.84251 -0.412936 -2.58848e-06)
(8.84251 -0.412936 -3.48882e-06)
(8.84251 -0.412936 -4.23559e-06)
(8.84251 -0.412937 -4.86681e-06)
(8.84251 -0.412937 -5.3402e-06)
(8.84251 -0.412937 -5.66116e-06)
(8.84251 -0.412937 -5.8232e-06)
(8.84251 -0.412938 -5.83297e-06)
(8.84251 -0.412938 -5.69657e-06)
(8.84251 -0.412939 -5.42455e-06)
(8.84251 -0.412939 -5.02746e-06)
(8.84251 -0.41294 -4.52193e-06)
(8.84251 -0.41294 -3.91987e-06)
(8.84251 -0.412941 -3.26229e-06)
(8.84251 -0.412941 -2.51848e-06)
(8.84251 -0.412941 -1.81822e-06)
(8.84251 -0.412941 -1.02082e-06)
(8.84245 -0.412938 -3.21605e-07)
(8.96017 -0.418784 -4.03486e-07)
(8.96023 -0.418788 -9.80186e-07)
(8.96023 -0.418788 -1.51456e-06)
(8.96023 -0.418788 -2.08544e-06)
(8.96023 -0.418788 -2.61732e-06)
(8.96023 -0.418788 -3.09896e-06)
(8.96023 -0.418789 -3.51017e-06)
(8.96023 -0.418789 -3.85595e-06)
(8.96024 -0.418789 -4.11864e-06)
(8.96024 -0.41879 -4.29544e-06)
(8.96024 -0.41879 -4.37187e-06)
(8.96024 -0.41879 -4.34405e-06)
(8.96024 -0.418791 -4.19648e-06)
(8.96024 -0.418791 -3.93527e-06)
(8.96024 -0.418791 -3.55057e-06)
(8.96023 -0.418791 -3.07778e-06)
(8.96023 -0.418791 -2.51021e-06)
(8.96023 -0.418791 -1.89917e-06)
(8.96023 -0.418791 -1.12275e-06)
(8.96017 -0.418787 -2.96208e-07)
(8.95206 -0.658141 -5.56579e-07)
(8.95212 -0.658147 -1.77742e-06)
(8.95212 -0.658147 -2.80984e-06)
(8.95212 -0.658147 -3.81441e-06)
(8.95212 -0.658147 -4.6697e-06)
(8.95212 -0.658148 -5.38272e-06)
(8.95212 -0.658148 -5.91136e-06)
(8.95212 -0.658148 -6.26713e-06)
(8.95212 -0.658149 -6.43565e-06)
(8.95212 -0.658149 -6.42735e-06)
(8.95212 -0.658149 -6.24832e-06)
(8.95212 -0.65815 -5.91502e-06)
(8.95212 -0.65815 -5.44283e-06)
(8.95212 -0.658151 -4.86173e-06)
(8.95212 -0.658152 -4.1862e-06)
(8.95212 -0.658152 -3.47484e-06)
(8.95212 -0.658153 -2.70521e-06)
(8.95212 -0.658153 -1.95502e-06)
(8.95212 -0.658153 -1.06605e-06)
(8.95206 -0.658148 -3.53442e-07)
(9.06799 -0.644699 -4.20465e-07)
(9.06805 -0.644705 -1.04171e-06)
(9.06805 -0.644705 -1.62606e-06)
(9.06805 -0.644705 -2.32349e-06)
(9.06805 -0.644705 -2.89955e-06)
(9.06805 -0.644705 -3.49199e-06)
(9.06805 -0.644705 -3.99362e-06)
(9.06805 -0.644705 -4.44504e-06)
(9.06805 -0.644705 -4.80153e-06)
(9.06805 -0.644705 -5.06587e-06)
(9.06805 -0.644705 -5.2122e-06)
(9.06805 -0.644704 -5.2401e-06)
(9.06805 -0.644704 -5.12435e-06)
(9.06805 -0.644704 -4.87862e-06)
(9.06805 -0.644704 -4.46789e-06)
(9.06805 -0.644703 -3.9594e-06)
(9.06805 -0.644703 -3.27061e-06)
(9.06805 -0.644703 -2.5687e-06)
(9.06805 -0.644703 -1.62167e-06)
(9.06799 -0.644697 -5.18639e-07)
(9.02153 -1.01079 -5.47639e-07)
(9.02159 -1.0108 -1.77703e-06)
(9.02159 -1.0108 -2.83889e-06)
(9.02159 -1.0108 -3.91413e-06)
(9.02159 -1.0108 -4.73033e-06)
(9.02159 -1.0108 -5.44463e-06)
(9.02159 -1.0108 -5.9401e-06)
(9.02159 -1.0108 -6.26389e-06)
(9.02159 -1.0108 -6.38089e-06)
(9.02159 -1.01081 -6.31229e-06)
(9.02159 -1.01081 -6.06079e-06)
(9.02159 -1.01081 -5.65386e-06)
(9.02159 -1.01081 -5.10377e-06)
(9.02159 -1.01081 -4.46333e-06)
(9.02159 -1.01081 -3.72917e-06)
(9.02159 -1.01081 -3.0071e-06)
(9.02159 -1.01081 -2.19929e-06)
(9.02159 -1.01081 -1.56876e-06)
(9.02159 -1.01081 -7.10343e-07)
(9.02153 -1.0108 -1.63978e-07)
(8.92935 -0.958117 -5.23864e-07)
(8.92941 -0.958124 -1.3868e-06)
(8.9294 -0.958122 -2.19453e-06)
(8.9294 -0.958122 -3.274e-06)
(8.9294 -0.958122 -4.03427e-06)
(8.9294 -0.958121 -4.81798e-06)
(8.9294 -0.958121 -5.43725e-06)
(8.92941 -0.958121 -5.9708e-06)
(8.92941 -0.958121 -6.35232e-06)
(8.92941 -0.958121 -6.59383e-06)
(8.92941 -0.958121 -6.67274e-06)
(8.92941 -0.958122 -6.60238e-06)
(8.92941 -0.958122 -6.36186e-06)
(8.92941 -0.958123 -5.98451e-06)
(8.92941 -0.958124 -5.43144e-06)
(8.92941 -0.958125 -4.81613e-06)
(8.92941 -0.958126 -3.97081e-06)
(8.92941 -0.958127 -3.26015e-06)
(8.92941 -0.958129 -2.07693e-06)
(8.92936 -0.958123 -6.90841e-07)
(8.88665 0.726307 2.45278e-07)
(8.88671 0.726312 -4.76289e-07)
(8.88671 0.726312 -1.39009e-07)
(8.88671 0.726312 -2.72972e-07)
(8.8867 0.726311 -2.31683e-07)
(8.8867 0.726311 -3.20704e-07)
(8.8867 0.72631 -3.68149e-07)
(8.8867 0.726309 -4.495e-07)
(8.8867 0.726309 -5.16054e-07)
(8.8867 0.726308 -5.79703e-07)
(8.8867 0.726307 -6.25928e-07)
(8.8867 0.726307 -6.54934e-07)
(8.8867 0.726306 -6.58739e-07)
(8.8867 0.726306 -6.46213e-07)
(8.8867 0.726305 -5.98586e-07)
(8.8867 0.726305 -5.69996e-07)
(8.8867 0.726305 -4.49183e-07)
(8.8867 0.726305 -4.61745e-07)
(8.8867 0.726305 2.16197e-08)
(8.88664 0.726299 -4.80285e-07)
(8.75165 0.739008 -4.43505e-07)
(8.75171 0.739014 -6.70345e-07)
(8.75171 0.739014 -7.95992e-07)
(8.75171 0.739015 -1.03648e-06)
(8.75171 0.739015 -1.19304e-06)
(8.75171 0.739016 -1.3785e-06)
(8.75171 0.739017 -1.5032e-06)
(8.75171 0.739018 -1.6063e-06)
(8.75171 0.739019 -1.65613e-06)
(8.75171 0.73902 -1.66492e-06)
(8.7517 0.739021 -1.62828e-06)
(8.7517 0.739021 -1.55199e-06)
(8.7517 0.739022 -1.43592e-06)
(8.7517 0.739023 -1.2929e-06)
(8.7517 0.739023 -1.11615e-06)
(8.7517 0.739024 -9.42955e-07)
(8.7517 0.739025 -7.17127e-07)
(8.7517 0.739025 -5.24414e-07)
(8.7517 0.739025 -2.19772e-07)
(8.75164 0.73902 7.01658e-08)
(8.78645 0.460614 -1.46332e-07)
(8.78651 0.460617 2.1328e-07)
(8.78651 0.460617 5.34197e-07)
(8.78651 0.460617 7.26515e-07)
(8.78651 0.460618 9.37363e-07)
(8.78651 0.460618 1.02865e-06)
(8.78651 0.460618 1.0843e-06)
(8.78651 0.460618 1.07142e-06)
(8.78651 0.460618 1.01857e-06)
(8.78651 0.460619 9.30647e-07)
(8.78651 0.460619 8.27399e-07)
(8.78651 0.460619 7.19025e-07)
(8.78651 0.46062 6.11803e-07)
(8.78651 0.46062 5.14032e-07)
(8.78651 0.46062 4.34526e-07)
(8.78651 0.46062 3.61202e-07)
(8.78651 0.460621 3.35191e-07)
(8.78651 0.460621 2.61507e-07)
(8.78651 0.460621 2.19878e-07)
(8.78645 0.460618 2.14944e-07)
(8.69017 0.461497 -2.08561e-07)
(8.69023 0.4615 -4.11611e-07)
(8.69023 0.4615 -5.60959e-07)
(8.69023 0.4615 -7.3546e-07)
(8.69023 0.461501 -8.71917e-07)
(8.69023 0.461501 -9.98991e-07)
(8.69023 0.461501 -1.0869e-06)
(8.69023 0.461501 -1.14944e-06)
(8.69023 0.461501 -1.17233e-06)
(8.69023 0.461502 -1.15882e-06)
(8.69023 0.461502 -1.1072e-06)
(8.69023 0.461502 -1.02274e-06)
(8.69023 0.461503 -9.08227e-07)
(8.69023 0.461503 -7.72504e-07)
(8.69023 0.461503 -6.12268e-07)
(8.69023 0.461504 -4.45529e-07)
(8.69023 0.461504 -2.53638e-07)
(8.69023 0.461504 -7.84837e-08)
(8.69023 0.461504 4.97748e-08)
(8.69017 0.461501 5.91569e-08)
(8.70734 0.267262 4.80198e-08)
(8.7074 0.267264 4.04316e-07)
(8.7074 0.267265 7.53048e-07)
(8.7074 0.267265 1.03126e-06)
(8.7074 0.267265 1.26472e-06)
(8.7074 0.267266 1.42309e-06)
(8.7074 0.267266 1.52249e-06)
(8.7074 0.267267 1.55544e-06)
(8.7074 0.267267 1.53754e-06)
(8.7074 0.267268 1.47813e-06)
(8.7074 0.267268 1.38935e-06)
(8.7074 0.267269 1.28292e-06)
(8.7074 0.267269 1.16705e-06)
(8.70739 0.26727 1.05214e-06)
(8.70739 0.26727 9.4341e-07)
(8.70739 0.26727 8.49553e-07)
(8.70739 0.267271 7.62531e-07)
(8.70739 0.267271 6.56322e-07)
(8.70739 0.267271 4.90893e-07)
(8.70733 0.267269 2.20132e-07)
(8.64589 0.259736 -6.7996e-08)
(8.64595 0.259738 -1.20786e-07)
(8.64595 0.259738 -1.57816e-07)