/*--------------------------------*- C++ -*----------------------------------*\
| =========                 |                                                 |
| \\      /  F ield         | OpenFOAM: The Open Source CFD Toolbox           |
|  \\    /   O peration     | Version:  2212                                  |
|   \\  /    A nd           | Website:  www.openfoam.com                      |
|    \\/     M anipulation  |                                                 |
\*---------------------------------------------------------------------------*/
FoamFile
{
    version     2.0;
    format      ascii;
    arch        "LSB;label=32;scalar=64";
    class       volScalarField;
    location    "0.00527";
    object      p;
}
// * * * * * * * * * * * * * * * * * * * * * * * * * * * * * * * * * * * * * //

dimensions      [1 -1 -2 0 0 0 0];

internalField   nonuniform List<scalar> 
2681
(
191.13
272.665
275.767
190.168
284.508
280.008
190.068
190.154
190.173
190.185
190.152
190.302
190.285
190.611
190.334
190.377
190.487
190.176
190.192
190.21
190.232
190.284
190.267
190.25
190.317
190.301
190.162
190.141
190.151
190.19
190.176
190.221
190.204
190.253
190.237
190.269
190.251
190.271
190.292
190.271
190.29
190.238
190.253
190.21
190.223
282.035
190.198
190.162
190.126
190.143
190.152
190.315
190.454
190.159
190.148
190.266
190.281
190.128
190.134
190.139
190.129
190.208
190.189
190.242
190.225
190.279
190.261
190.316
190.298
190.1
190.334
190.317
190.345
190.27
190.293
190.318
190.1
190.572
285.589
190.149
190.129
190.139
190.174
190.161
190.204
190.188
190.235
190.219
190.25
190.255
190.271
190.228
190.241
190.205
190.216
190.181
190.193
190.159
190.17
190.149
190.139
190.136
190.298
190.364
190.353
190.343
190.119
190.132
190.121
190.379
190.418
190.393
190.411
190.268
190.299
190.286
190.143
190.131
190.134
190.347
190.549
190.416
285.559
190.316
190.337
190.315
190.11
276.648
190.117
191
190.663
190.182
190.163
190.221
190.201
190.255
190.238
190.29
190.272
190.329
190.309
190.351
190.345
190.378
190.297
190.318
190.513
190.145
206.004
190.169
190.154
190.119
190.102
190.11
190.137
190.128
190.158
190.147
190.186
190.171
190.215
190.2
190.243
190.229
190.273
190.257
190.599
190.289
190.245
190.256
190.223
190.234
190.2
190.211
190.176
190.188
190.154
190.165
190.143
190.124
190.11
190.119
190.128
190.063
190.129
190.135
190.46
190.459
190.5
190.375
190.335
190.375
190.094
190.326
190.307
190.149
190.138
190.424
190.444
190.102
190.095
221.204
223.507
223.505
221.203
190.101
190.1
190.092
190.299
190.503
190.064
190.122
191.811
280.698
285.323
190.357
190.347
254.974
190.108
190.803
190.157
190.142
190.193
190.174
190.231
190.213
190.264
190.248
190.299
190.28
190.343
190.32
190.41
190.372
190.456
190.369
190.411
190.312
190.336
190.276
190.294
190.231
190.255
190.183
190.206
190.164
226.085
228.961
232.16
235.747
239.761
244.246
249.216
254.635
260.421
266.431
266.468
272.372
277.783
278.023
272.451
254.646
260.445
244.248
249.212
235.746
239.763
228.958
232.158
226.082
190.11
190.102
190.125
190.117
190.143
190.133
190.167
190.154
190.193
190.18
190.219
190.206
190.244
190.231
191.609
190.258
190.29
190.282
190.331
190.327
190.3
190.252
190.265
190.233
190.242
190.213
190.224
190.19
190.202
190.165
190.177
190.142
190.154
190.121
190.131
190.11
190.115
190.109
190.123
190.119
190.129
190.126
191.318
191.945
190.399
190.355
190.355
190.407
190.088
190.569
219.129
219.128
190.088
193.642
266.614
272.473
190.458
285.759
190.361
190.478
190.118
190.122
219.113
217.359
217.351
190.093
190.085
190.09
190.083
282.698
282.398
190.304
190.342
190.542
190.528
190.323
190.361
284.037
190.647
190.777
190.059
190.132
190.121
190.124
190.377
190.379
190.084
190.095
190.089
190.106
190.101
190.112
190.166
190.149
190.203
190.184
190.24
190.222
190.271
190.255
190.309
190.289
190.364
190.334
190.45
190.402
190.507
190.563
190.711
190.517
190.578
190.394
190.451
190.32
190.35
190.283
190.299
190.245
190.266
190.197
190.221
190.157
190.175
190.143
223.451
221.173
228.852
226
235.633
232.038
244.214
239.679
254.743
249.246
260.594
219.113
217.351
217.358
285.384
285.356
192.035
278.089
282.646
266.579
272.552
254.744
260.57
244.219
249.254
235.627
239.675
228.846
232.033
223.448
225.995
221.171
190.101
190.094
190.114
190.107
190.129
190.121
190.149
190.138
190.172
190.161
190.195
190.184
190.216
190.205
190.238
190.227
190.258
190.249
190.316
190.275
190.266
190.34
190.292
190.347
190.295
190.296
190.273
190.276
190.25
190.266
190.23
190.24
190.214
190.222
190.195
190.206
190.172
190.184
190.148
190.16
190.127
190.137
190.107
190.117
190.098
190.106
190.1
190.115
190.111
190.118
276.837
191.187
277.741
190.427
190.378
190.386
190.44
190.125
228.415
190.706
190.365
219.039
217.284
190.08
191.69
190.082
190.079
190.076
190.078
190.136
190.126
284.841
190.832
190.894
251.105
190.065
266.881
272.74
190.889
190.971
191.006
190.374
190.495
190.512
190.392
190.766
219.043
217.288
191.538
281.591
284.026
190.866
190.585
190.356
190.284
190.328
190.302
190.356
190.385
190.596
190.834
282.321
190.061
190.735
191.293
190.401
190.41
190.09
190.085
190.099
190.094
190.108
190.104
190.116
190.112
190.119
190.142
190.13
190.174
190.156
190.211
190.193
190.245
190.229
190.277
190.261
190.323
190.298
190.39
190.353
190.496
190.438
190.629
190.564
190.695
190.705
190.763
190.567
190.641
190.424
190.493
190.328
190.368
190.282
190.301
190.249
190.266
190.206
190.229
190.165
190.184
190.149
223.336
221.086
228.672
225.849
235.47
231.85
244.169
239.564
254.876
249.287
260.814
215.719
215.707
215.718
190.395
215.634
215.706
285.204
284.854
285.049
285.32
277.89
282.295
266.857
272.73
254.895
260.809
244.183
249.309
235.469
239.565
228.672
231.85
223.338
225.849
221.089
190.076
190.072
190.074
190.082
190.079
190.092
190.087
190.104
190.098
190.117
190.111
190.133
190.124
190.153
190.143
190.173
190.164
190.19
190.182
190.208
190.199
190.224
190.216
190.237
190.23
190.292
190.25
190.244
190.254
190.257
190.307
190.256
190.258
190.248
190.253
190.241
190.245
190.23
190.234
190.218
190.225
190.204
190.21
190.189
190.197
190.171
190.181
190.149
190.16
190.129
190.139
190.111
190.12
190.095
190.102
190.081
190.087
190.072
190.076
190.074
190.07
190.086
190.08
190.098
190.092
190.107
190.103
190.114
190.111
190.118
190.116
246.534
285.063
190.277
191.042
277.959
192.243
191.089
191.489
191.421
191.288
190.402
190.458
190.307
190.299
190.471
190.417
190.828
190.845
190.989
190.061
191.335
190.903
190.758
215.638
278.254
283.572
190.07
190.067
190.069
272.942
190.936
190.534
190.392
190.339
190.363
190.419
190.546
190.726
190.107
190.11
284.609
191.439
200.643
259.806
190.412
191.314
286.623
282.511
190.806
286.157
190.63
190.372
190.408
190.631
190.111
190.12
190.113
214.295
215.497
214.167
282.432
190.071
190.688
190.823
191.183
190.212
190.252
190.428
190.304
190.441
190.888
190.077
190.074
190.085
190.081
190.093
190.089
190.101
190.097
190.104
190.123
190.148
190.135
190.181
190.164
190.218
190.2
190.25
190.234
190.285
190.266
190.339
190.309
190.419
190.375
190.538
190.473
190.686
190.61
190.767
191.337
190.83
190.608
190.685
190.457
190.53
190.345
190.394
190.284
190.309
190.249
190.265
190.211
190.231
190.172
190.191
190.14
190.155
190.129
218.9
217.152
223.192
220.947
228.54
225.703
235.403
231.748
244.238
239.551
255.14
249.455
267.277
261.16
278.369
273.151
214.362
215.505
214.174
214.299
214.374
214.373
214.361
285.749
285.244
285.148
285.764
278.074
282.412
267.182
272.976
255.162
261.13
244.261
249.486
235.41
239.563
228.547
231.755
223.2
225.71
218.909
220.956
217.16
190.073
190.071
190.078
190.075
190.085
190.081
190.096
190.09
190.107
190.102
190.12
190.113
190.137
190.128
190.154
190.146
190.169
190.162
190.183
190.176
190.195
190.19
190.206
190.201
190.215
190.211
190.219
190.218
190.217
190.219
190.21
190.214
190.204
190.207
190.196
190.199
190.187
190.192
190.176
190.182
190.163
190.17
190.146
190.155
190.128
190.137
190.111
190.119
190.097
190.104
190.084
190.09
190.074
190.079
190.069
190.071
190.081
190.076
190.091
190.086
190.1
190.096
190.107
190.104
190.109
190.066
204.899
219.753
190.065
191.197
191.021
191.206
190.49
190.425
190.349
190.364
190.444
190.501
190.778
190.233
190.113
190.924
191.805
274.385
191.007
284.699
190.067
191.396
191.074
215.311
213.985
231.03
284.115
190.436
245.934
191.212
190.875
284.348
286.912
190.576
190.412
190.387
190.425
190.445
190.579
190.675
190.068
190.066
190.122
190.115
190.105
190.107
215.301
213.977
212.987
212.876
191.172
284.607
190.069
190.066
282.771
190.099
190.757
190.061
191.101
190.257
190.456
190.357
190.469
190.835
190.075
190.071
190.082
190.078
190.089
190.085
190.095
190.092
190.1
190.098
190.105
190.103
190.108
190.127
190.116
190.154
190.139
190.187
190.17
190.222
190.205
190.254
190.238
190.294
190.272
190.355
190.322
190.444
190.395
190.574
190.504
190.734
190.652
190.823
191.354
190.82
190.906
190.653
190.737
190.489
190.568
190.368
190.422
190.296
190.327
190.252
190.272
190.215
190.233
190.177
190.196
190.144
190.16
190.132
218.7
216.955
223.034
220.766
228.44
225.574
235.386
231.678
244.348
239.603
255.372
249.618
267.678
261.478
278.836
273.601
213.044
212.88
212.989
213.056
213.055
213.045
286.343
286.017
285.635
286.322
278.66
282.984
267.639
273.499
255.388
261.481
244.375
249.644
235.403
239.625
228.452
231.692
223.048
225.587
218.713
220.78
216.967
285.632
190.07
190.068
190.074
190.072
190.08
190.077
190.089
190.084
190.099
190.094
190.11
190.105
190.124
190.116
190.139
190.131
190.152
190.146
190.164
190.158
190.174
190.17
190.183
190.179
190.189
190.186
190.192
190.191
190.188
190.191
190.182
190.185
190.176
190.179
190.169
190.172
190.161
190.165
190.151
190.156
190.139
190.145
190.125
190.132
190.111
190.118
190.098
190.104
190.087
190.092
190.077
190.082
190.07
190.073
190.067
190.068
190.065
190.077
190.073
190.086
190.081
190.094
190.09
190.1
190.097
190.103
191.688
191.708
212.704
220.081
222.097
235.244
191.639
191.184
190.455
227.157
191.108
190.944
191.103
285.404
192.357
284.956
190.523
190.449
190.401
190.426
190.47
190.532
190.721
190.235
190.064
190.099
190.101
190.979
267.727
191.275
191.112
190.109
212.698
191.385
191.092
284.693
190.064
191.852
285.304
283.175
190.469
239.983
191.108
190.81
192.022
190.606
190.432
190.616
211.956
211.797
215.194
190.694
192.431
190.099
190.468
213.804
218.356
191.019
190.195
192.166
207.219
190.485
190.412
190.497
190.772
190.063
190.067
190.064
190.072
190.069
190.079
190.076
190.085
190.082
190.09
190.088
190.095
190.093
190.097
190.11
190.104
190.13
190.119
190.158
190.143
190.192
190.174
190.227
190.21
190.258
190.242
190.303
190.278
190.37
190.334
190.465
190.412
190.606
190.53
190.781
190.691
190.879
191.484
190.868
190.974
190.685
190.775
190.513
190.595
190.388
190.443
190.313
190.346
190.261
190.285
190.219
190.239
190.181
190.2
190.148
190.164
190.125
190.135
190.111
190.117
215.121
212.506
213.795
218.534
216.78
222.92
220.629
228.4
225.492
235.482
231.697
244.636
239.787
255.847
250.01
268.233
262.007
279.353
274.169
191.617
212.109
212.055
212.124
212.123
212.055
212.11
211.794
211.953
286.535
285.884
286.014
286.543
279.217
283.534
268.222
274.078
255.914
262.051
244.678
250.069
235.504
239.817
228.415
231.715
222.935
225.506
218.549
220.645
215.132
216.793
212.511
213.803
190.065
190.062
190.063
192.031
190.062
190.063
190.061
190.228
190.068
190.066
190.072
190.07
190.077
190.074
190.084
190.08
190.093
190.088
190.103
190.098
190.114
190.108
190.127
190.12
190.139
190.133
190.149
190.144
190.159
190.154
190.166
190.163
190.171
190.169
190.173
190.172
190.169
190.172
190.163
190.167
190.157
190.16
190.15
190.154
190.142
190.146
190.133
190.137
190.123
190.128
190.111
190.117
190.1
190.105
190.09
190.095
190.081
190.085
190.073
190.076
190.068
190.07
190.065
190.067
190.063
190.064
190.061
190.062
190.067
190.065
190.074
190.071
190.082
190.078
190.089
190.085
190.095
190.092
190.1
190.098
190.104
190.102
273.21
239.256
216.833
224.181
267.531
281.734
191.332
285.768
283.71
190.489
221.271
191.016
190.869
191.007
192.243
190.059
192.656
192.296
285.942
190.553
190.472
190.45
190.476
190.496
190.564
190.657
190.755
190.062
191.958
190.106
211.614
211.617
202.612
212.444
211.003
282
190.736
190.631
190.097
190.061
190.525
191.481
191.094
196.321
197.77
198.04
196.672
210.461
286.217
190.91
190.506
214.107
190.936
190.91
192.439
192.591
234.303
222.827
190.059
215.693
286.695
286.384
221.64
190.511
190.466
190.525
190.703
190.066
190.064
190.071
190.068
190.076
190.074
190.082
190.079
190.087
190.084
190.091
190.089
190.095
190.093
190.097
190.112
190.105
190.132
190.121
190.161
190.146
190.196
190.178
190.23
190.214
190.263
190.246
190.311
190.284
190.381
190.344
190.482
190.425
190.636
190.552
190.832
190.731
191.064
190.95
191.212
191.195
191.406
191.7
190.908
191.029
190.711
190.808
190.529
190.617
190.396
190.454
190.321
190.353
190.27
190.294
190.225
190.247
190.185
190.205
190.151
190.167
190.127
190.137
190.113
190.119
190.108
211.393
212.288
213.605
214.934
216.6
218.372
220.509
222.833
225.437
228.371
231.7
235.531
239.912
244.839
250.24
256.077
262.282
268.588
274.535
279.771
284.2
286.802
287.291
287.266
286.905
285.069
242.435
191.567
216.545
210.593
210.793
210.957
211.055
211.102
211.112
211.114
211.105
211.056
210.957
210.791
210.591
210.366
192.962
287.554
287.822
287.643
286.852
284.243
279.814
274.592
268.63
262.32
256.108
250.277
244.877
239.942
235.552
231.717
228.386
225.453
222.851
220.527
218.389
216.615
214.944
213.612
212.292
211.395
210.366
211.098
209.098
227.216
190.654
190.737
194.186
193.953
190.919
190.784
190.665
193.585
190.179
199.67
190.307
204.137
193.001
192.562
239.382
192.611
199.227
195.913
286.015
284.754
286.672
214.002
208.16
195.577
200.046
198.389
197.002
191.462
190.578
190.524
190.493
190.52
190.678
190.599
244.961
227.634
218.722
213.955
210.637
207.933
190.325
191.026
284.557
190.115
192.506
193.119
190.103
190.102
190.1
190.098
190.096
190.093
190.091
190.088
190.085
190.082
190.079
190.075
190.072
190.069
190.066
190.064
190.062
190.061
190.06
190.059
190.06
190.061
190.061
190.062
190.064
190.065
190.066
190.068
190.069
190.071
190.074
190.078
190.081
190.085
190.089
190.093
190.098
190.103
190.108
190.113
190.117
190.122
190.126
190.13
190.134
190.138
190.142
190.145
190.148
190.151
190.154
190.157
190.158
190.159
190.159
190.157
190.155
190.153
190.15
190.147
190.142
190.138
190.134
190.129
190.124
190.118
190.112
190.107
190.102
190.097
190.093
190.088
190.084
190.08
190.077
190.075
190.073
190.07
190.068
190.066
190.065
190.063
210.284
210.062
211.227
210.186
190.061
208.031
192.221
190.062
190.062
191.597
190.967
190.059
190.06
190.061
190.063
190.065
190.068
190.071
190.074
190.077
190.08
190.082
190.085
190.087
190.09
190.092
190.098
190.096
190.094
190.105
190.109
190.114
190.121
190.129
190.139
190.153
190.17
190.189
190.209
190.23
190.251
190.272
190.293
190.316
190.347
190.391
190.451
190.528
190.615
190.711
190.811
190.923
191.061
191.256
191.839
191.512
191.215
192.334
191.396
191.164
191.02
190.879
190.765
190.661
190.571
190.495
190.435
190.389
190.35
190.315
190.287
190.266
190.249
190.234
190.217
190.199
190.18
190.163
190.147
190.134
190.123
190.107
190.114
212.048
190.095
190.093
190.092
190.09
190.088
190.087
190.084
190.082
190.079
190.077
190.075
190.072
190.07
190.067
190.065
190.063
190.061
190.062
190.138
190.06
190.06
190.061
190.062
190.063
190.065
190.066
190.068
190.069
190.071
190.074
190.077
190.08
190.083
190.086
190.09
190.094
190.098
190.103
190.108
190.112
190.117
190.12
190.124
190.128
190.132
190.135
190.138
190.141
190.144
190.146
190.148
190.149
190.149
190.148
190.147
190.146
190.144
190.141
190.138
190.134
190.13
190.126
190.122
190.117
190.112
190.106
190.102
190.097
190.093
190.089
190.085
190.082
190.079
190.076
190.074
190.071
190.069
190.067
190.065
190.064
190.063
190.062
190.061
190.992
192.931
190.061
190.06
205.559
204.999
207.198
209.741
212.419
215.828
221.002
229.636
249.782
284.376
287.431
287.83
287.852
287.411
284.927
280.519
275.323
269.382
263.108
256.788
250.706
245.099
240.078
235.661
231.793
228.424
225.453
222.815
220.475
218.304
216.504
214.807
211.228
212.11
213.465
190.638
190.554
190.51
190.535
193.336
191.818
195.907
200.001
198.328
197.038
195.875
194.88
206.505
192.002
286.374
286.405
210.284
210.49
210.656
210.753
210.797
210.801
210.8
210.793
210.751
210.656
210.491
191.632
284.915
197.218
198.764
192.988
191.127
190.635
190.147
204.658
206.929
209.536
194.36
215.605
219.647
274.64
285.701
287.668
287.98
287.992
287.524
284.967
280.535
275.321
269.354
263.039
256.708
250.646
245.057
240.045
235.636
231.772
228.404
225.432
222.794
220.454
218.285
216.488
214.796
213.457
212.107
231.079
225.315
192.948
192.782
193.395
201.251
190.824
190.842
190.165
190.273
190.1
210.063
210.185
190.697
203.754
193.447
275.884
209.876
209.877
190.059
210.246
201.569
194.204
190.905
190.606
190.544
194.839
190.06
190.193
192.456
190.174
202.895
190.747
193.803
193.198
248.295
211.983
210.054
211.135
214.716
213.376
218.256
216.436
222.803
220.439
228.452
225.47
235.725
231.834
245.206
240.162
256.801
250.842
269.606
263.016
280.895
275.866
287.956
284.977
288.761
288.745
285.914
288.514
235.566
267.583
217.681
223.58
211.551
214.039
206.503
208.953
202.232
204.257
198.548
200.514
195.74
197.016
194.553
209.667
209.297
209.474
209.889
209.822
209.885
209.899
209.903
209.887
209.823
209.891
209.475
209.666
209.165
209.734
209.169
209.299
286.164
191.288
190.102
194.953
193.839
190.556
190.587
209.732
211.136
210.054
213.384
211.987
216.452
214.728
220.463
218.277
225.498
222.83
231.861
228.479
240.194
235.754
250.881
245.243
263.049
256.847
275.888
269.597
285.014
280.964
288.552
287.918
288.175
288.559
276.653
284.862
223.196
191.469
214.267
217.845
209.068
211.48
204.49
206.686
200.459
202.142
197.137
198.565
195.939
190.06
190.06
190.061
190.061
190.063
190.062
190.065
190.064
190.068
190.066
190.073
190.07
190.078
190.076
190.083
190.081
190.09
190.086
190.098
190.094
190.107
190.102
190.117
190.112
190.126
190.122
190.132
190.129
190.137
190.135
190.14
190.139
190.142
190.141
190.142
190.142
190.139
190.141
190.135
190.137
190.129
190.132
190.122
190.126
190.114
190.119
190.104
190.11
190.095
190.1
190.088
190.091
190.082
190.085
190.077
190.079
190.072
190.074
190.068
190.07
190.065
190.066
190.062
190.063
190.06
190.061
190.134
190.06
191.758
190.061
190.061
190.064
190.063
190.069
190.067
190.074
190.072
190.078
190.076
190.083
190.081
190.087
190.085
190.09
190.088
190.093
190.091
194.491
190.095
194.872
190.115
190.108
190.135
190.124
190.164
190.148
190.2
190.182
190.235
190.219
190.267
190.251
190.317
190.289
190.394
190.353
190.505
190.443
190.68
190.584
190.921
190.793
191.287
191.082
192.012
191.586
192.466
191.604
192.004
191.091
191.312
190.824
190.943
190.625
190.721
190.457
190.536
190.349
190.395
190.291
190.315
190.25
190.27
190.21
190.23
190.171
190.19
190.141
190.154
190.122
190.13
190.11
190.115
190.106
190.189
190.103
190.096
190.098
190.091
190.094
190.087
190.089
190.083
190.085
190.078
190.08
190.072
190.075
190.067
190.069
190.062
190.064
190.06
190.061
213.747
190.059
193.524
190.059
209.04
209.044
190.213
202.151
190.059
190.059
190.059
190.06
190.06
190.062
190.064
190.066
190.069
190.071
190.074
190.077
190.079
190.081
190.084
190.086
190.088
190.09
190.092
190.095
190.097
190.099
190.212
209.969
190.107
190.111
190.116
190.123
190.131
190.141
190.155
190.171
190.189
190.208
190.227
190.246
190.267
190.29
190.318
190.352
190.397
190.454
190.524
190.606
190.697
190.795
190.913
191.072
191.314
191.686
192.183
192.871
192.965
192.197
191.658
191.317
191.091
190.921
190.789
190.675
190.581
190.506
190.448
190.399
190.355
190.317
190.288
190.267
190.251
190.236
190.22
190.201
190.182
190.165
190.148
190.135
190.124
190.116
190.11
190.105
202.611
190.096
190.094
190.092
190.09
190.089
190.087
190.086
190.085
190.083
190.08
190.078
190.076
190.073
190.071
190.069
190.066
190.064
190.062
190.061
190.061
192.032
190.059
190.06
190.061
190.062
190.062
190.064
190.065
190.067
190.069
190.071
190.073
190.075
190.077
190.079
190.082
190.084
190.087
190.089
190.093
190.098
190.103
190.108
190.113
190.118
190.122
190.126
190.129
190.132
190.134
190.136
190.137
190.138
190.139
190.139
190.139
190.138
190.137
190.136
190.134
190.132
190.13
190.127
190.123
190.119
190.115
190.11
190.105
190.1
190.096
190.092
190.089
190.085
190.083
190.08
190.078
190.075
190.072
190.07
190.068
190.066
190.065
190.064
190.063
190.062
190.061
190.061
190.06
190.06
190.06
190.06
193.964
195.282
196.715
197.907
199.901
202.292
204.92
207.281
209.627
211.844
214.286
217.196
222.136
231.625
256.185
285.298
290.2
290.181
289.829
288.424
285.794
281.955
276.865
270.769
264.033
257.259
250.968
245.3
240.225
235.76
231.878
228.497
225.514
222.849
220.482
218.268
216.437
214.706
213.369
211.931
211.12
210.016
209.714
209.171
190.616
190.575
205.642
194.65
190.102
203.542
284.845
209.275
209.433
209.623
209.845
210.067
210.238
210.301
210.304
210.283
210.281
210.3
210.299
210.237
210.067
209.844
209.621
209.43
209.272
209.248
192.038
195.157
196.977
197.96
200.089
202.237
204.707
207.079
209.38
211.696
214.024
217.056
221.575
230.707
253.176
285.449
290.1
290.109
289.816
288.496
285.881
282.032
276.914
270.809
264.046
257.244
250.944
245.272
240.194
235.731
231.848
228.467
225.484
222.82
220.455
218.245
216.419
214.692
213.361
211.925
211.118
210.016
209.716
209.174
209.251
194
193.422
190.57
190.624
282.081
195.278
193.715
207.703
190.101
190.662
191.442
193.786
190.061
190.666
190.059
190.105
192.924
232.149
190.06
190.062
194.668
190.103
191.197
191.059
283.177
190.328
191.816
191.191
274.53
190.742
190.061
190.682
190.655
190.6
282.11
190.098
190.234
190.346
285.406
190.067
191.668
254.446
284.317
191.21
190.102
280.86
190.163
190.534
190.099
193.633
190.097
195.47
190.485
212.631
201.432
272.363
193.19
190.062
201.128
286.32
191.357
279.632
190.935
190.334
190.059
190.305
190.083
190.681
190.136
190.217
190.282
)
;

boundaryField
{
    wall
    {
        type            zeroGradient;
    }
    outlet
    {
        type            inletOutlet;
        inletValue      uniform 1e-05;
        value           nonuniform List<scalar> 
20
(
209.275
209.433
209.623
209.845
210.067
210.238
210.301
210.304
210.283
210.281
210.3
210.299
210.237
210.067
209.844
209.621
209.43
209.272
209.248
209.251
)
;
    }
    frontAndBackPlanes
    {
        type            empty;
    }
}


// ************************************************************************* //
