/*--------------------------------*- C++ -*----------------------------------*\
| =========                 |                                                 |
| \\      /  F ield         | OpenFOAM: The Open Source CFD Toolbox           |
|  \\    /   O peration     | Version:  2212                                  |
|   \\  /    A nd           | Website:  www.openfoam.com                      |
|    \\/     M anipulation  |                                                 |
\*---------------------------------------------------------------------------*/
FoamFile
{
    version     2.0;
    format      ascii;
    arch        "LSB;label=32;scalar=64";
    class       volScalarField;
    location    "0.014";
    object      p;
}
// * * * * * * * * * * * * * * * * * * * * * * * * * * * * * * * * * * * * * //

dimensions      [1 -1 -2 0 0 0 0];

internalField   nonuniform List<scalar> 
2308
(
610.028
608.959
610.099
609.246
610.433
610.392
610.363
610.381
610.42
609.369
609.538
609.754
609.886
610
610.096
610.175
610.239
610.286
610.235
610.171
610.092
609.994
609.873
609.73
609.569
609.383
609.184
608.978
610.411
610.291
608.753
608.53
608.309
608.094
607.89
607.701
607.531
607.384
607.262
607.168
607.103
607.065
607.053
607.059
607.079
607.093
607.075
607.069
607.082
607.12
607.185
607.278
607.399
607.545
607.713
607.899
608.1
608.311
608.527
608.746
608.963
609.154
609.331
609.49
609.63
609.759
609.88
609.986
610.079
610.157
610.224
607.103
607.116
610.22
610.15
610.066
609.965
609.844
609.704
609.541
609.361
609.166
608.961
608.747
608.528
608.311
608.098
607.896
607.709
607.541
607.394
607.273
607.18
607.115
607.077
607.064
607.07
607.089
610.327
607.112
610.334
610.279
607.151
607.132
607.116
607.113
607.127
607.165
607.229
607.32
607.438
607.58
607.743
607.924
608.117
608.319
608.526
608.732
608.93
609.116
609.288
609.447
609.591
609.722
609.84
609.944
610.036
610.115
610.185
610.334
610.315
610.374
610.355
610.242
610.182
610.104
610.015
609.912
609.793
609.655
609.498
609.325
609.138
608.94
608.735
608.526
608.317
608.112
607.917
607.736
607.572
607.429
607.311
607.219
607.155
607.117
607.103
607.107
607.123
607.144
607.157
607.128
607.12
607.132
610.407
607.163
610.266
610.114
610.326
610.348
610.438
610.367
610.246
607.151
607.126
607.119
607.129
607.156
607.199
607.212
607.206
607.192
607.181
607.181
607.197
607.235
607.298
607.387
607.501
607.637
607.792
607.963
608.145
608.335
608.527
608.719
608.904
609.08
609.243
609.393
609.531
609.657
609.772
609.875
609.966
610.048
610.12
610.324
610.147
610.433
610.305
610.301
610.296
610.282
610.254
610.215
610.165
610.102
610.025
609.937
609.835
609.718
609.585
609.436
609.273
609.098
608.912
608.72
608.524
608.328
608.136
607.952
607.78
607.624
607.487
607.373
607.284
607.221
607.183
607.167
607.168
607.181
607.196
607.204
607.192
610.241
610.312
609.922
608.93
609.94
610.194
610.299
610.37
607.254
607.276
607.279
607.272
607.266
607.27
607.289
607.329
607.39
607.476
607.583
607.711
607.856
608.014
608.183
608.356
608.532
608.706
608.875
609.036
609.185
609.324
609.453
609.571
609.681
609.781
609.871
609.953
610.029
610.188
610.36
609.903
610.223
610.218
610.209
610.19
610.16
610.118
610.065
609.999
609.922
609.833
609.733
609.62
609.495
609.357
609.207
609.046
608.877
608.702
608.523
608.344
608.168
607.999
607.839
607.694
607.565
607.458
607.372
607.31
607.272
607.253
607.251
607.258
607.266
607.267
607.247
607.199
607.152
607.116
607.095
607.088
607.097
607.12
607.156
607.204
609.963
610.083
611.224
610.248
610.103
611.374
610.101
610.248
610.321
610.265
610.191
610.444
610.12
610.111
610.097
610.075
610.041
609.995
609.939
609.872
609.794
609.706
609.609
609.503
609.388
609.263
609.128
608.986
608.836
608.682
608.524
608.365
608.209
608.057
607.912
607.78
607.662
607.561
607.48
607.42
607.381
607.359
607.351
607.351
607.352
607.343
607.314
607.256
607.164
607.115
607.075
607.045
607.027
607.021
607.028
607.048
607.078
607.118
607.165
607.261
607.321
607.353
607.365
607.367
607.369
607.378
607.401
607.441
607.502
607.583
607.683
607.802
607.934
608.078
608.229
608.384
608.539
608.692
608.841
608.982
609.115
609.24
609.356
609.464
609.567
609.663
609.751
609.834
609.913
610.361
610.167
610.301
610.35
610.277
610.2
610.17
610.118
609.765
610.13
610.001
609.993
609.982
609.964
609.937
609.899
609.849
609.789
609.721
609.644
609.558
609.466
609.369
609.266
609.157
609.041
608.919
608.792
608.661
608.528
608.392
608.257
608.125
607.998
607.88
607.773
607.68
607.604
607.546
607.506
607.48
607.467
607.459
607.45
607.43
607.39
607.322
607.219
607.077
607.031
606.991
606.958
606.933
606.917
606.912
606.918
606.934
606.959
606.992
607.03
607.074
607.219
607.325
607.397
607.44
607.463
607.475
607.485
607.501
607.528
607.57
607.629
607.706
607.798
607.906
608.024
608.151
608.282
608.415
608.547
608.677
608.802
608.921
609.034
609.14
609.241
609.337
609.431
609.521
609.607
609.691
609.771
609.987
610.325
610.348
610.743
610.061
609.969
610.033
610.088
610.331
610.364
610.396
610.222
610.223
610.129
606.897
606.858
606.826
606.798
606.777
606.765
606.76
606.765
606.778
606.798
606.824
606.855
606.89
606.93
607.122
607.278
607.396
607.48
607.536
607.571
607.594
607.613
607.636
607.668
607.711
607.769
607.841
607.926
608.021
608.124
608.232
608.341
608.451
608.557
608.66
608.759
608.854
608.944
609.03
609.113
609.195
609.278
609.361
609.443
609.525
609.606
609.85
610.411
610.282
609.075
609.987
609.847
609.833
609.81
609.778
609.735
609.681
609.619
609.55
609.474
609.393
609.309
609.222
609.134
609.042
608.948
608.849
608.748
608.643
608.535
608.425
608.314
608.203
608.095
607.992
607.897
607.813
607.742
607.686
607.644
607.614
607.594
607.577
607.558
607.526
607.474
607.394
607.28
607.128
606.94
610.325
610.316
610.269
610.265
610.16
610.128
606.975
607.176
607.342
607.472
607.569
607.638
607.686
607.72
607.749
607.78
607.817
607.863
607.92
607.986
608.062
608.145
608.231
608.319
608.406
608.489
608.569
608.644
608.716
608.783
608.848
608.912
608.976
609.042
609.112
609.186
609.262
609.341
609.42
609.689
610.392
610.234
606.717
606.68
606.648
606.621
606.598
606.581
606.571
606.567
606.571
606.581
606.597
606.618
606.643
606.671
606.704
606.742
610.377
610.056
610.001
609.934
609.857
610.434
610.354
609.087
609.084
609.692
609.668
609.638
609.599
609.552
609.495
609.431
609.363
609.29
609.215
609.14
609.066
608.994
608.923
608.851
608.778
608.704
608.627
608.546
608.463
608.377
608.288
608.2
608.113
608.031
607.956
607.89
607.836
607.792
607.758
607.73
607.704
607.673
607.629
607.564
607.471
607.346
607.184
606.988
606.759
610.237
609.931
610.308
610.295
610.278
610.301
610.42
610.251
610.222
610.411
610.183
609.498
610.436
609.994
609.14
610.151
606.786
607.024
607.234
607.411
607.553
607.664
607.746
607.807
607.853
607.892
607.931
607.973
608.021
608.076
608.137
608.204
608.273
608.343
608.41
608.473
608.531
608.583
608.629
608.671
608.711
608.75
608.79
608.834
608.882
608.938
609
609.068
609.141
609.216
609.284
610.354
609.956
610.005
606.506
606.467
606.435
606.407
606.384
606.365
606.351
606.342
606.339
606.341
606.349
606.362
606.379
606.4
606.424
606.452
606.486
606.525
610.408
609.976
609.911
609.835
609.749
609.65
609.937
610.195
609.531
609.512
609.485
609.45
609.406
609.354
609.295
609.231
609.163
609.095
609.027
608.963
608.904
608.85
608.8
608.753
608.707
608.661
608.613
608.561
608.505
608.444
608.379
608.31
608.24
608.17
608.105
608.045
607.992
607.947
607.908
607.873
607.837
607.794
607.737
607.66
607.554
607.417
607.245
607.041
606.807
606.551
610.327
609.777
610.064
610.249
610.258
610.257
610.008
610.236
610.278
610.27
610.114
609.939
609.999
610.377
609.141
610.324
610.267
610.235
609.068
609.002
608.935
608.868
608.809
608.76
608.72
608.689
608.668
608.652
608.639
608.628
608.615
608.597
608.573
608.542
608.502
608.456
608.403
608.347
608.289
608.233
608.18
608.13
608.083
608.037
607.988
607.93
607.857
607.762
607.638
607.484
607.297
607.079
606.835
606.571
610.21
606.282
606.238
606.201
606.17
606.145
606.124
606.107
606.095
606.087
606.085
606.086
606.093
606.104
606.118
606.136
606.157
606.183
606.215
606.253
606.298
610.297
609.593
610.229
610.272
610.293
610.307
610.303
610.295
610.255
610.221
610.194
608.924
610.179
609.887
609.785
609.875
610.188
610.205
610.212
610.074
610.265
610.195
609.892
609.817
609.736
609.648
609.553
609.515
609.252
609.348
609.348
609.323
609.292
609.252
609.205
609.15
609.088
609.024
608.958
608.895
608.836
608.785
608.741
608.706
608.679
608.657
608.638
608.62
608.601
608.578
608.549
608.514
608.472
608.423
608.369
608.312
608.255
608.201
608.15
608.103
608.059
608.017
607.972
607.918
607.849
607.758
607.64
607.492
607.311
607.099
606.861
606.602
606.333
610.014
609.968
609.911
610.012
609.824
609.868
610.072
609.751
610.136
610.255
610.235
610.247
610.046
610.146
610.119
610.208
610.082
610.07
610.168
610.165
609.728
609.804
610.197
610.233
610.278
608.86
608.793
608.729
608.671
608.622
608.585
608.561
608.549
608.548
608.556
608.57
608.587
608.602
608.612
608.615
608.609
608.592
608.565
608.529
608.486
608.437
608.387
608.335
608.284
608.232
608.18
608.121
608.053
607.967
607.86
607.725
607.559
607.363
607.137
606.888
606.621
606.348
609.448
609.543
609.633
609.718
609.795
609.862
609.863
610.258
609.423
610.158
609.997
610.174
610.187
610.047
610.163
610.4
610.033
609.856
610.367
610.224
610.316
610.187
610.223
609.915
606.064
606.011
605.966
605.928
605.898
605.873
605.853
605.837
605.826
605.819
605.817
605.818
605.824
605.834
605.847
605.864
605.884
605.91
605.941
605.98
606.026
606.078
610.324
610.333
610.347
610.344
610.338
610.328
610.126
609.709
610.193
609.84
609.654
608.952
610.128
610.158
610.228
610.014
610.001
610.211
610.115
609.949
611.561
610.303
610.232
609.179
609.182
609.176
609.161
609.134
609.099
609.055
609.004
608.946
608.884
608.819
608.756
608.699
608.649
608.611
608.584
608.568
608.563
608.565
608.573
608.583
608.592
608.597
608.594
608.584
608.564
608.534
608.495
608.451
608.403
608.353
608.304
608.255
608.207
608.158
608.104
608.04
607.959
607.857
607.728
607.569
607.38
607.161
606.918
606.658
606.389
606.123
610.852
609.96
611.395
610.08
610.185
610.106
610.164
609.15
610.43
610.116
610.171
609.859
609.239
609.338
609.435
609.529
609.617
609.698
609.767
609.825
609.95
609.87
608.974
609.583
608.919
609.312
608.803
608.725
608.661
608.596
608.536
608.483
608.445
608.42
608.411
608.417
608.437
608.468
608.507
608.549
608.59
608.627
608.655
608.671
608.676
608.668
608.647
608.615
608.576
608.53
608.48
608.428
608.373
608.314
608.247
608.168
608.072
607.953
607.807
607.632
607.427
607.195
606.941
606.673
606.4
606.133
610.161
610.204
610.256
610.314
610.045
611.245
609.527
609.626
609.711
609.933
609.844
609.892
610.37
609.152
609.219
609.549
610.113
609.934
609.533
609.287
610.155
610.168
610.026
610.198
610.388
610.062
610.29
610.046
610.037
610.065
610.168
610.101
610.018
610.125
609.194
609.453
609.984
609.991
610.055
609.441
609.349
610.371
610.375
610.375
610.377
610.39
610.392
610.39
610.387
610.385
610.142
609.807
610.204
610.214
610.109
609.919
608.947
609.053
609.033
609.012
608.988
608.955
608.916
608.869
608.814
608.753
608.69
608.626
608.567
608.515
608.475
608.449
608.437
608.44
608.456
608.481
608.514
608.55
608.585
608.615
608.638
608.65
608.65
608.638
608.614
608.581
608.541
608.495
608.448
608.398
608.346
608.29
608.228
608.154
608.063
607.95
607.811
607.644
607.447
607.223
606.976
606.715
606.447
606.183
605.933
605.869
605.807
605.75
605.702
605.663
605.631
605.605
605.585
605.569
605.558
605.551
605.549
605.551
605.557
605.567
605.58
605.597
605.618
605.644
605.677
605.718
605.768
605.823
605.881
609.749
610.14
609.907
609.977
610.029
609.052
610.371
610.199
610.431
610.128
609.131
609.236
609.336
609.431
609.521
609.605
609.678
609.74
609.791
609.835
609.915
609.94
609.876
609.382
610.026
609.401
610.167
610.097
610.348
609.993
609.969
610.017
610.12
610.094
610.078
610.042
609.302
609.82
609.768
609.702
609.623
609.534
609.434
609.34
609.119
610.289
609.531
610.079
610.12
610.17
610.229
610.301
610.388
610.072
609.89
611.871
610.192
610.494
610.472
610.457
610.449
610.443
610.44
610.444
610.451
610.453
610.463
610.479
610.502
609.871
610.095
609.304
610.129
610.418
611.559
610.389
608.986
608.938
608.902
608.869
608.835
608.797
608.753
608.703
608.645
608.582
608.518
608.455
608.399
608.354
608.323
608.307
608.309
608.329
608.363
608.409
608.464
608.522
608.581
608.634
608.678
608.71
608.728
608.731
608.72
608.696
608.663
608.621
608.575
608.524
608.469
608.407
608.338
608.255
608.155
608.033
607.886
607.711
607.507
607.279
607.03
606.768
606.501
606.24
605.994
605.774
605.709
605.64
605.572
605.512
605.46
605.417
605.382
605.355
605.334
605.317
605.306
605.299
605.296
605.299
605.305
605.315
605.329
605.347
605.37
605.398
605.435
605.48
605.533
605.593
605.655
605.713
605.935
606.184
606.449
606.722
606.991
607.249
607.486
607.698
607.881
608.036
608.165
608.27
608.358
608.433
608.498
608.556
608.609
608.657
608.698
608.73
608.751
608.759
608.751
608.728
608.69
608.641
608.581
608.517
608.452
608.391
608.34
608.301
608.279
608.275
608.289
608.319
608.364
608.422
608.487
608.557
608.634
608.698
608.748
608.793
609.865
609.059
609.342
608.95
609.016
610.218
609.031
610.19
609.875
609.658
609.329
609.853
610.052
609.409
609.641
610.152
610.138
610.043
610.033
610.002
610.051
610.074
610.17
610.086
610.127
610.12
609.824
609.963
610.121
610.131
610.065
610.021
610.136
610.099
610.152
609.522
609.956
609.499
609.824
609.774
609.723
609.665
609.598
609.522
609.437
609.346
609.253
609.16
609.07
610.164
609.177
610.254
609.143
609.251
609.352
609.452
609.544
609.627
609.699
609.764
609.061
609.965
609.983
610.029
610.081
610.135
610.442
609.77
609.975
610.121
609.424
610.084
608.871
610.032
610.078
610.132
610.2
610.288
610.398
610.536
609.873
609.695
608.832
608.801
608.747
608.7
608.659
608.611
608.553
608.486
608.414
608.345
608.281
608.226
608.186
608.162
608.157
608.172
608.208
608.261
608.33
608.408
608.492
608.576
608.654
608.721
608.775
608.813
608.833
608.837
608.824
608.797
608.76
608.714
608.66
608.599
608.53
608.449
608.354
608.24
608.104
607.941
607.751
607.533
607.291
607.032
606.761
606.489
606.226
605.981
605.763
610.098
610.166
605.587
605.517
605.443
605.371
605.305
605.249
605.202
605.165
605.135
605.112
605.094
605.082
605.075
605.072
605.075
605.082
605.093
605.109
605.128
605.153
605.185
605.225
605.273
605.331
605.396
605.463
605.526
605.58
609.832
610.606
610.558
610.527
610.505
610.49
610.482
610.484
610.49
610.501
610.521
610.551
610.593
610.654
610.268
610.368
610.501
610.663
608.944
608.889
608.838
608.794
608.754
608.714
608.671
608.622
608.567
608.507
608.442
608.377
608.315
608.262
608.222
608.198
608.192
608.206
608.24
608.29
608.353
608.425
608.502
608.579
608.65
608.712
608.76
608.792
608.808
608.807
608.791
608.762
608.724
608.678
608.626
608.568
608.503
608.427
608.337
608.23
608.1
607.946
607.764
607.556
607.324
607.073
606.811
606.545
606.286
606.044
605.828
605.645
610.078
610.058
610.142
610.124
609.534
609.756
609.754
609.433
610.141
610.175
608.935
610.156
610.42
609.003
609.091
609.19
609.289
609.386
609.478
609.562
609.637
609.705
610.109
610.295
609.885
609.944
609.988
610.049
609.011
609.784
609.723
609.668
609.604
609.533
609.454
609.369
609.279
609.188
609.098
609.605
609.87
609.647
610.141
610.105
610.07
610.11
610.136
608.864
608.808
608.759
608.712
608.663
608.617
608.569
608.514
608.451
608.382
608.311
608.242
608.179
608.127
608.09
608.071
608.072
608.097
608.143
608.208
608.289
608.38
608.478
608.575
608.666
608.746
608.811
608.859
608.888
608.899
608.892
608.869
608.834
608.789
608.735
608.672
608.599
608.514
608.413
608.293
608.15
607.981
607.786
607.563
607.318
607.057
606.786
606.514
606.253
606.011
605.796
605.617
609.928
609.992
610.047
610.093
610.169
610.275
610.412
610.594
610.713
609.552
610.116
610.156
610.113
610.137
609.658
609.844
610.206
610.344
610.499
610.675
610.395
609.938
610.637
610.541
610.463
610.403
610.364
610.341
610.33
610.327
610.34
610.365
610.404
610.462
610.545
610.669
610.845
611.294
605.502
605.439
605.364
605.286
605.209
605.139
605.078
605.027
604.987
604.954
604.929
604.91
604.897
604.89
604.887
604.89
604.898
604.91
604.927
604.949
604.976
605.011
605.055
605.108
605.17
605.239
605.311
605.379
605.436
605.476
608.875
608.816
608.763
608.716
608.674
608.631
608.584
608.532
608.472
608.408
608.341
608.275
608.214
608.163
608.128
608.109
608.11
608.134
608.178
608.24
608.315
608.4
608.491
608.581
608.665
608.739
608.798
608.84
608.864
608.87
608.859
608.834
608.798
608.753
608.7
608.639
608.57
608.49
608.395
608.281
608.146
607.986
607.8
607.588
607.353
607.101
606.838
606.573
606.317
606.078
605.865
605.686
605.546
610.143
610.113
610.136
609.767
609.707
605.634
605.811
609.233
609.318
605.496
605.276
605.38
605.336
605.128
605.204
604.988
605.055
604.883
604.93
604.814
604.844
604.772
604.79
604.751
604.759
604.75
604.748
604.772
604.758
604.819
604.792
604.898
604.854
605.018
604.953
605.174
605.093
605.335
605.257
605.705
605.567
605.448
605.401
606.091
605.881
606.583
606.328
607.109
606.847
607.599
607.362
608.003
607.813
608.306
608.167
608.522
608.423
608.676
608.605
608.792
608.738
608.873
608.837
608.904
608.896
608.867
608.895
608.755
608.82
608.584
608.675
608.39
608.487
608.216
608.298
608.098
608.148
608.062
608.069
608.111
608.078
608.221
608.16
608.357
608.288
608.486
608.424
608.591
608.542
608.676
608.633
608.774
608.722
608.897
608.833
609.048
608.968
609.219
609.132
609.392
609.307
609.55
609.474
609.694
609.625
609.835
609.742
609.962
609.873
610.043
610.043
610.271
610.143
610.737
610.457
611.396
611.103
611.184
610.943
610.999
610.863
610.887
610.835
610.844
610.845
610.835
610.896
610.865
611.001
610.939
611.021
611.093
610.997
610.834
611.41
611.727
610.959
611.315
610.463
610.673
610.172
610.274
610.076
610.043
609.911
609.982
609.773
609.841
609.639
609.704
609.496
609.572
609.323
609.413
609.142
609.231
608.97
609.055
608.825
608.892
608.713
608.764
608.619
608.665
608.524
608.575
608.399
608.465
608.256
608.328
608.125
608.187
608.039
608.074
608.029
608.023
608.11
608.058
608.269
608.181
608.473
608.368
608.675
608.577
608.832
608.761
608.919
608.885
608.928
608.933
608.874
608.908
608.774
608.828
608.635
608.71
608.443
608.547
608.172
608.319
607.799
607.998
607.327
607.574
606.793
607.064
606.263
606.523
606.023
611.466
611.735
610.138
610.175
605.401
610.144
605.472
610.201
611.88
611.936
611.93
611.975
611.976
611.993
611.992
610.22
609.977
610.137
610.145
610.149
610.287
610.398
610.336
610.389
610.416
610.408
610.371
610.386
610.384
610.341
610.345
610.349
610.304
610.291
610.303
609.908
609.761
611.745
609.68
610.823
610.023
610
609.91
610.006
610.063
609.098
610.413
610.268
609.946
608.797
610.413
608.873
610.169
608.894
610.27
609.182
610.215
609.963
610.429
611.116
610.418
610.133
610.277
610.339
610.352
610.31
611.776
610.227
610.108
608.994
608.928
610.098
610.401
610.156
609.685
611.034
608.838
609.306
608.959
609.426
610.362
610.166
609.173
610.193
610.366
609.647
609.216
609.209
)
;

boundaryField
{
    wall
    {
        type            zeroGradient;
    }
    outlet
    {
        type            inletOutlet;
        inletValue      uniform 1e-05;
        value           nonuniform List<scalar> 
33
(
605.276
605.38
605.336
605.128
605.204
604.988
605.055
604.883
604.93
604.814
604.844
604.772
604.79
604.751
604.759
604.75
604.748
604.772
604.758
604.819
604.792
604.898
604.854
605.018
604.953
605.174
605.093
605.335
605.257
605.448
605.401
605.401
605.472
)
;
    }
    inlet
    {
        type            fixedValue;
        value           uniform 612;
    }
    frontAndBackPlanes
    {
        type            empty;
    }
}


// ************************************************************************* //
