/*--------------------------------*- C++ -*----------------------------------*\
| =========                 |                                                 |
| \\      /  F ield         | OpenFOAM: The Open Source CFD Toolbox           |
|  \\    /   O peration     | Version:  2212                                  |
|   \\  /    A nd           | Website:  www.openfoam.com                      |
|    \\/     M anipulation  |                                                 |
\*---------------------------------------------------------------------------*/
FoamFile
{
    version     2.0;
    format      ascii;
    arch        "LSB;label=32;scalar=64";
    class       volScalarField;
    location    "0.0425";
    object      nut;
}
// * * * * * * * * * * * * * * * * * * * * * * * * * * * * * * * * * * * * * //

dimensions      [0 2 -1 0 0 0 0];

internalField   nonuniform List<scalar> 
44662
(
0.0571457
0.28681
0.286452
0.287154
0.286877
0.0316042
0.124988
0.0288857
0.269047
0.310077
0.0382919
0.0433644
0.118513
0.154947
0.00847138
0.0555032
0.00680998
0.00674737
0.174218
0.205854
0.318767
0.0066525
0.305224
0.316088
0.0137933
0.172247
0.105361
0.0432427
0.107737
0.0577271
0.0115734
0.16866
0.01406
0.026579
0.0350316
0.318764
0.110042
0.0816929
0.173772
0.243
0.229634
0.138869
0.0146936
0.228039
0.265099
0.0175372
0.0398212
0.310708
0.269841
0.256083
0.28521
0.0270782
0.171253
0.00614676
0.314302
0.0231417
0.164264
0.0165209
0.0726059
0.0702361
0.0363225
0.00553367
0.299966
0.128629
0.333776
0.0416574
0.0118682
0.00970958
0.12898
0.127222
0.00567547
0.0142716
0.0713997
0.0406706
0.108806
0.177468
0.00531866
0.0756648
0.0645955
0.0115896
0.0206789
0.094339
0.278343
0.0732912
0.0244731
0.27005
0.0818182
0.294856
0.211515
0.141302
0.0581194
0.0704671
0.310154
0.00683833
0.24566
0.194919
0.0199249
0.226898
0.319778
0.291896
0.171691
0.293882
0.068239
0.0108511
0.109487
0.0437866
0.10196
0.0228097
0.286724
0.132923
0.0950452
0.255798
0.293529
0.307107
0.0176737
0.0882635
0.0584329
0.27554
0.00507384
0.0818543
0.240131
0.0847491
0.0538574
0.0765479
0.0805546
0.306188
0.0716882
0.0763232
0.287524
0.0668715
0.0722132
0.048446
0.0371971
0.0630724
0.0613334
0.068414
0.0510032
0.0501407
0.0554227
0.0650293
0.0560264
0.0496037
0.0322992
0.0240925
0.0439251
0.287143
0.279676
0.278772
0.304843
0.287502
0.248761
0.286714
0.0434279
0.0117184
0.299601
0.303379
0.247419
0.173103
0.172758
0.172425
0.172102
0.171792
0.17149
0.171195
0.170907
0.170625
0.170349
0.17008
0.169817
0.169559
0.169308
0.169062
0.168822
0.168588
0.168361
0.168139
0.167922
0.167712
0.167508
0.167309
0.167116
0.166929
0.166747
0.166572
0.166403
0.166242
0.166087
0.165939
0.165796
0.165661
0.165531
0.165409
0.165293
0.165183
0.16508
0.164983
0.164894
0.164811
0.164735
0.164667
0.164605
0.16455
0.164503
0.164462
0.16443
0.164405
0.164121
0.164101
0.164146
0.00596202
0.173455
0.172638
0.172963
0.164387
0.164375
0.164063
0.164081
0.164219
0.164179
0.164324
0.164267
0.164462
0.164389
0.16463
0.164542
0.164826
0.164724
0.165046
0.164933
0.165284
0.165163
0.165545
0.165411
0.165838
0.165686
0.166169
0.165999
0.16653
0.166346
0.166911
0.166718
0.167309
0.167107
0.167729
0.167516
0.168173
0.167948
0.16864
0.168403
0.16913
0.168882
0.16964
0.169383
0.170166
0.169901
0.170713
0.170437
0.171296
0.170999
0.171945
0.171611
0.172295
0.172006
0.172319
0.171396
0.171699
0.170803
0.171097
0.170233
0.170515
0.169688
0.169957
0.169171
0.169426
0.168681
0.168923
0.168214
0.168444
0.167772
0.16799
0.167353
0.16756
0.166959
0.167153
0.16659
0.166771
0.166248
0.166416
0.165928
0.166085
0.165628
0.165775
0.165349
0.165486
0.165097
0.16522
0.164874
0.164982
0.164678
0.164773
0.16451
0.164591
0.164368
0.164435
0.164251
0.164306
0.164159
0.164201
0.1641
0.164125
0.164079
0.164085
0.163215
0.163203
0.163228
0.00542349
0.0058805
0.171284
0.171578
0.16405
0.163165
0.163143
0.163194
0.164082
0.1632
0.173293
0.173814
0.163182
0.163274
0.163247
0.163361
0.163312
0.163484
0.163418
0.163638
0.163557
0.16382
0.163726
0.164024
0.16392
0.16424
0.164131
0.164469
0.16435
0.16474
0.164599
0.165061
0.164896
0.165415
0.165235
0.165784
0.165598
0.166164
0.165972
0.166564
0.166361
0.166986
0.166772
0.167432
0.167206
0.167899
0.167663
0.168385
0.16814
0.168876
0.168631
0.16938
0.169125
0.169932
0.169647
0.17058
0.170243
0.170938
0.108601
0.16437
0.170703
0.170993
0.170123
0.170412
0.169554
0.169836
0.169005
0.169276
0.168483
0.168741
0.167986
0.168231
0.167517
0.167748
0.167073
0.167292
0.166653
0.16686
0.166255
0.166451
0.165882
0.166066
0.165534
0.165704
0.165214
0.165371
0.164914
0.165061
0.164633
0.164771
0.16437
0.164499
0.164132
0.164247
0.163921
0.164023
0.163739
0.163827
0.163582
0.163657
0.163451
0.163514
0.163343
0.163394
0.163258
0.163298
0.163206
0.163228
0.163195
0.171876
0.161707
0.161731
0.161762
0.16176
0.161757
0.164091
0.163213
0.173414
0.172181
0.173628
0.174174
0.161688
0.159817
0.159798
0.173969
0.172497
0.161747
0.161773
0.16176
0.161834
0.161799
0.161933
0.161879
0.162064
0.161995
0.162222
0.16214
0.162399
0.162309
0.16258
0.16249
0.162768
0.16267
0.163007
0.162884
0.163305
0.163149
0.16364
0.163471
0.163983
0.163811
0.164331
0.164155
0.164697
0.164511
0.165083
0.164887
0.165492
0.165285
0.165922
0.165704
0.166366
0.166142
0.166808
0.166588
0.167248
0.167025
0.167755
0.167488
0.168384
0.168055
0.329196
0.168733
0.164044
0.164372
0.163131
0.170166
0.169616
0.169887
0.169089
0.169352
0.168562
0.168827
0.168027
0.168293
0.167502
0.167762
0.166997
0.167246
0.166515
0.166753
0.166059
0.166284
0.165627
0.16584
0.16522
0.165421
0.164836
0.165025
0.164474
0.164652
0.164136
0.164302
0.16382
0.163975
0.163531
0.163673
0.163263
0.163394
0.163012
0.163135
0.162778
0.162893
0.162566
0.162669
0.16238
0.16247
0.162221
0.162298
0.162086
0.16215
0.161974
0.162027
0.161884
0.161927
0.161816
0.161847
0.161778
0.161793
0.161777
0.161774
0.161804
0.161787
0.172814
0.170451
0.172065
0.159839
0.173772
0.161682
0.159789
0.157566
0.15755
0.159946
0.161826
0.159972
0.174536
0.174322
0.173148
0.159815
0.159838
0.159851
0.170742
0.166757
0.169818
0.159851
0.159799
0.159802
0.159826
0.159807
0.159893
0.159855
0.159992
0.159939
0.160116
0.160051
0.160255
0.160185
0.16039
0.160323
0.16053
0.160456
0.160724
0.160615
0.160986
0.160847
0.16129
0.161136
0.161591
0.161442
0.161892
0.16174
0.16221
0.162048
0.162547
0.162375
0.162903
0.162723
0.16328
0.163089
0.163667
0.163473
0.164043
0.163858
0.164408
0.164224
0.164862
0.164619
0.165439
0.165136
0.274141
0.165764
0.302325
0.164106
0.163231
0.164048
0.164383
0.163128
0.167566
0.167065
0.167312
0.16659
0.166826
0.166134
0.166362
0.16567
0.165904
0.1652
0.165435
0.164739
0.164969
0.164294
0.164514
0.163872
0.164081
0.163472
0.163668
0.163095
0.16328
0.16274
0.162914
0.162406
0.16257
0.162093
0.162247
0.161801
0.161944
0.161532
0.161664
0.161286
0.161406
0.161058
0.161169
0.16085
0.160952
0.160657
0.16075
0.160483
0.160567
0.160333
0.160405
0.160206
0.160266
0.160102
0.160151
0.160018
0.160057
0.159955
0.159985
0.15991
0.159929
0.159894
0.1599
0.159908
0.159898
0.159924
0.171044
0.167833
0.172428
0.157582
0.157546
0.157568
0.157501
0.157543
0.161852
0.160003
0.163008
0.167072
0.163276
0.174147
0.174905
0.17468
0.173484
0.171356
0.1681
0.170172
0.157582
0.157444
0.157468
0.157431
0.157433
0.157462
0.157443
0.157519
0.157488
0.1576
0.157557
0.157692
0.157646
0.157773
0.157735
0.157851
0.157809
0.157988
0.157912
0.158207
0.158088
0.158465
0.158335
0.15871
0.158589
0.158952
0.158829
0.159207
0.159078
0.159481
0.159342
0.159772
0.159624
0.160081
0.159925
0.160396
0.160239
0.160693
0.160547
0.160979
0.160833
0.161352
0.161162
0.161863
0.161597
0.162437
0.162151
0.162727
0.164127
0.163255
0.164063
0.164402
0.161688
0.163139
0.157549
0.159795
0.164178
0.163732
0.163954
0.163317
0.163522
0.162922
0.163116
0.16254
0.162731
0.162159
0.16235
0.161769
0.161965
0.161385
0.161575
0.161016
0.161197
0.160667
0.160838
0.160335
0.160498
0.160027
0.160179
0.159737
0.159879
0.159467
0.1596
0.159216
0.159339
0.158984
0.159097
0.158771
0.158875
0.15858
0.158673
0.158404
0.15849
0.158248
0.158324
0.158106
0.158174
0.157981
0.158041
0.157876
0.157926
0.157791
0.157831
0.157725
0.157756
0.157678
0.157699
0.157647
0.157661
0.157635
0.15764
0.157644
0.157637
0.157676
0.157657
0.157729
0.1577
0.157798
0.157762
0.168375
0.164409
0.16353
0.167391
0.172799
0.155036
0.155028
0.155043
0.174518
0.15757
0.155034
0.155056
0.155318
0.157838
0.155362
0.159142
0.163751
0.159282
0.175273
0.17504
0.173821
0.171673
0.168658
0.155001
0.154971
0.154916
0.16464
0.170511
0.155025
0.155031
0.154807
0.154853
0.154752
0.154773
0.154737
0.154741
0.154747
0.15474
0.154778
0.154761
0.154816
0.154797
0.154836
0.154829
0.154846
0.154838
0.154913
0.154871
0.155079
0.154986
0.155277
0.155178
0.155455
0.155368
0.155626
0.15554
0.155807
0.155715
0.156005
0.155904
0.15622
0.15611
0.156449
0.156333
0.156681
0.156565
0.15689
0.15679
0.157084
0.156985
0.15737
0.157208
0.157794
0.157568
0.158269
0.158034
0.158739
0.158507
0.158953
0.161885
0.160039
0.164155
0.163285
0.164088
0.164429
0.161708
0.163161
0.159814
0.160085
0.159725
0.1599
0.159385
0.159555
0.159064
0.159225
0.158761
0.158912
0.158466
0.158615
0.158169
0.158317
0.15787
0.158021
0.157572
0.157719
0.157288
0.157429
0.157023
0.157154
0.156776
0.156898
0.156545
0.156657
0.156332
0.156436
0.156137
0.156232
0.155958
0.156045
0.155795
0.155874
0.155651
0.155721
0.155523
0.155585
0.15541
0.155465
0.155314
0.15536
0.155231
0.155271
0.155163
0.155195
0.15511
0.155135
0.155074
0.15509
0.155053
0.155062
0.155048
0.155049
0.155056
0.15505
0.155078
0.155065
0.155115
0.155093
0.155169
0.155139
0.155238
0.155201
0.155277
0.164886
0.160278
0.167683
0.173159
0.152297
0.152295
0.152295
0.152182
0.152227
0.152124
0.152308
0.152331
0.157882
0.155408
0.159334
0.163925
0.174887
0.175653
0.175406
0.17417
0.171998
0.168947
0.165141
0.160479
0.170862
0.152297
0.152271
0.151971
0.152041
0.151867
0.151914
0.151805
0.151831
0.151766
0.151782
0.151743
0.151753
0.151722
0.151734
0.151677
0.151704
0.151617
0.151644
0.151611
0.1516
0.151711
0.151652
0.151839
0.151777
0.151941
0.151893
0.152031
0.151985
0.15213
0.152079
0.152242
0.152184
0.152369
0.152304
0.152508
0.152438
0.152646
0.152579
0.152762
0.15271
0.15285
0.152805
0.153039
0.152928
0.153366
0.15319
0.153742
0.153552
0.154114
0.153931
0.154435
0.154284
0.15458
0.154547
0.159266
0.154461
0.161924
0.16008
0.16419
0.163322
0.164122
0.164464
0.161741
0.163194
0.157603
0.159847
0.152364
0.15509
0.155445
0.155156
0.155298
0.154907
0.155028
0.154675
0.15479
0.154456
0.154568
0.154251
0.154353
0.154047
0.154149
0.153844
0.153944
0.15364
0.153741
0.153436
0.153537
0.153248
0.153341
0.153074
0.153158
0.152916
0.152993
0.152773
0.152842
0.152645
0.152707
0.152532
0.152587
0.152433
0.152481
0.152349
0.152389
0.152279
0.152312
0.152223
0.152249
0.152179
0.1522
0.152149
0.152162
0.15213
0.152138
0.152123
0.152125
0.152127
0.152123
0.152143
0.152134
0.15217
0.152155
0.152208
0.152188
0.152255
0.152231
0.152311
0.152282
0.152376
0.152342
0.15245
0.152412
0.152534
0.152491
0.152622
0.152578
0.152715
0.152668
0.160699
0.155616
0.167954
0.173524
0.149388
0.149388
0.149378
0.149236
0.149291
0.149168
0.164095
0.175269
0.152405
0.149445
0.149479
0.149821
0.152763
0.149862
0.154526
0.159334
0.176036
0.175778
0.174528
0.172323
0.16925
0.165409
0.155839
0.160949
0.171192
0.1494
0.149418
0.149391
0.149343
0.14898
0.149071
0.148837
0.148903
0.148727
0.148778
0.148642
0.148683
0.148567
0.148604
0.148487
0.148529
0.148378
0.148437
0.148244
0.148311
0.148171
0.148196
0.148195
0.148176
0.148248
0.148222
0.148267
0.148261
0.148272
0.14827
0.148283
0.148276
0.148304
0.148292
0.148337
0.148319
0.14838
0.148358
0.14842
0.1484
0.148432
0.14843
0.148414
0.148421
0.148485
0.148431
0.148702
0.148587
0.148968
0.14884
0.149229
0.1491
0.149452
0.149349
0.149536
0.149526
0.14922
0.149437
0.155184
0.149764
0.149341
0.15793
0.155458
0.161968
0.160126
0.164233
0.163366
0.164165
0.164507
0.161782
0.163235
0.157646
0.159889
0.155133
0.151173
0.150492
0.156103
0.150763
0.150203
0.150318
0.150021
0.150109
0.149874
0.149945
0.149745
0.149809
0.149629
0.149691
0.149521
0.149576
0.149416
0.14947
0.149309
0.149362
0.149205
0.149258
0.149105
0.149155
0.149014
0.149056
0.148936
0.148973
0.148873
0.148903
0.148822
0.148846
0.148784
0.148801
0.148758
0.148769
0.148744
0.148749
0.148741
0.148741
0.148749
0.148743
0.148768
0.148757
0.148797
0.148781
0.148834
0.148814
0.14888
0.148856
0.148934
0.148906
0.148995
0.148963
0.149062
0.149028
0.149136
0.149099
0.149215
0.149175
0.149297
0.149255
0.149382
0.149339
0.149469
0.149425
0.149558
0.149513
0.149648
0.149603
0.149736
0.149693
0.149779
0.168224
0.173891
0.146306
0.146305
0.146292
0.146321
0.146338
0.152812
0.149902
0.164322
0.17565
0.160133
0.176418
0.150097
0.155595
0.176154
0.174888
0.172662
0.169554
0.1657
0.161258
0.156445
0.145834
0.151294
0.14621
0.146151
0.146061
0.171516
0.1463
0.146307
0.146301
0.146261
0.145856
0.145958
0.145679
0.145765
0.145538
0.145606
0.145413
0.145475
0.145291
0.145352
0.145155
0.145225
0.144989
0.145077
0.144791
0.144889
0.144647
0.14471
0.144599
0.144618
0.144575
0.144587
0.144513
0.144548
0.144432
0.144473
0.144353
0.144392
0.144282
0.144316
0.144219
0.14425
0.144162
0.144191
0.144099
0.144132
0.144007
0.144059
0.143878
0.143942
0.143824
0.143838
0.143924
0.143853
0.144063
0.143994
0.144188
0.144129
0.144267
0.144237
0.144229
0.144271
0.143955
0.144098
0.144196
0.144007
0.150349
0.144588
0.144412
0.157983
0.155511
0.16202
0.160178
0.164285
0.163417
0.164215
0.164559
0.161831
0.163285
0.157696
0.159938
0.15245
0.155182
0.146357
0.149516
0.145138
0.145441
0.144907
0.144986
0.14481
0.144852
0.144751
0.144778
0.144718
0.144734
0.144703
0.144714
0.144693
0.144699
0.144685
0.144688
0.144677
0.144682
0.144676
0.144675
0.144677
0.144676
0.144686
0.14468
0.144708
0.144695
0.144739
0.144722
0.144782
0.144759
0.144833
0.144806
0.144895
0.144863
0.144965
0.144929
0.145043
0.145003
0.145129
0.145085
0.145221
0.145174
0.14532
0.14527
0.145423
0.145371
0.14553
0.145476
0.14564
0.145585
0.145752
0.145696
0.145865
0.145808
0.145978
0.145922
0.146089
0.146034
0.146198
0.146144
0.146301
0.14625
0.1464
0.146351
0.146491
0.146446
0.146575
0.146534
0.146649
0.146613
0.14671
0.146681
0.146758
0.146736
0.168519
0.174261
0.143016
0.143003
0.143019
0.142891
0.142953
0.142791
0.164831
0.176039
0.146374
0.142917
0.142903
0.143323
0.146777
0.143311
0.160685
0.176806
0.155895
0.176537
0.14472
0.15054
0.175253
0.173
0.169881
0.166027
0.161607
0.156647
0.145513
0.151179
0.171852
0.142938
0.142929
0.142963
0.142948
0.142982
0.142993
0.14258
0.142686
0.142391
0.142483
0.14223
0.142309
0.142076
0.142153
0.141918
0.141998
0.14174
0.141833
0.141524
0.141638
0.141271
0.141398
0.141064
0.141157
0.140956
0.141006
0.14086
0.140911
0.14072
0.140794
0.140559
0.140641
0.140396
0.140477
0.140236
0.140315
0.140081
0.140158
0.139928
0.140005
0.139765
0.139848
0.139565
0.139671
0.139329
0.139448
0.13915
0.139223
0.139133
0.139124
0.139141
0.139142
0.139124
0.139137
0.139048
0.139095
0.138868
0.138974
0.138634
0.138731
0.138666
0.138623
0.138807
0.138742
0.144836
0.138906
0.138862
0.152862
0.149941
0.15804
0.155566
0.162078
0.160236
0.164343
0.163475
0.164274
0.164618
0.161888
0.163342
0.157751
0.159994
0.152499
0.155236
0.149553
0.145407
0.139671
0.140323
0.139889
0.139879
0.140142
0.13963
0.139717
0.139587
0.139596
0.139614
0.139597
0.139678
0.139645
0.13976
0.13972
0.139847
0.139802
0.139938
0.139892
0.14003
0.139984
0.140126
0.140077
0.140229
0.140177
0.140336
0.140281
0.140452
0.140393
0.140576
0.140513
0.140708
0.140641
0.140846
0.140777
0.140991
0.140918
0.14114
0.141065
0.141294
0.141217
0.141452
0.141373
0.141611
0.141531
0.141772
0.141692
0.141933
0.141852
0.142092
0.142013
0.142249
0.142171
0.142401
0.142326
0.142548
0.142475
0.142687
0.142619
0.142818
0.142754
0.142938
0.142879
0.143045
0.142993
0.143137
0.143093
0.143214
0.143178
0.143273
0.143246
0.143313
0.143296
0.14333
0.143324
0.14333
0.168931
0.174638
0.139454
0.139416
0.139482
0.139393
0.139451
0.139305
0.139115
0.139056
0.146792
0.143292
0.165354
0.17644
0.161094
0.177205
0.156162
0.176924
0.150717
0.175621
0.138948
0.144949
0.173356
0.170233
0.166374
0.161841
0.156749
0.139682
0.151154
0.145474
0.134
0.139838
0.134213
0.172243
0.139218
0.139168
0.139316
0.139268
0.139366
0.139475
0.139109
0.139207
0.138927
0.139017
0.138761
0.138843
0.138595
0.138678
0.138418
0.138508
0.138215
0.13832
0.137963
0.138096
0.137667
0.137816
0.137415
0.137533
0.137255
0.137328
0.137101
0.137183
0.136897
0.137002
0.136666
0.136783
0.136428
0.136547
0.136189
0.136309
0.135951
0.13607
0.13571
0.135831
0.135454
0.135585
0.135159
0.135311
0.134822
0.134991
0.134541
0.134668
0.134407
0.134458
0.134293
0.134352
0.134149
0.134228
0.133947
0.134055
0.133677
0.13382
0.133403
0.133524
0.133259
0.133316
0.133171
0.133216
0.133089
0.133131
0.138999
0.133018
0.133048
0.152913
0.149978
0.158102
0.155624
0.162143
0.1603
0.16441
0.163541
0.164342
0.164685
0.161952
0.163409
0.157812
0.160057
0.15255
0.155295
0.146389
0.149591
0.138987
0.142884
0.133952
0.133918
0.134262
0.134078
0.134294
0.134288
0.134286
0.134291
0.134364
0.134314
0.134504
0.134433
0.134669
0.134585
0.13485
0.134759
0.135033
0.134942
0.13522
0.135128
0.13541
0.135315
0.1356
0.135505
0.135796
0.135698
0.135995
0.135895
0.1362
0.136097
0.136409
0.136304
0.136622
0.136515
0.136839
0.13673
0.137057
0.136948
0.137277
0.137167
0.137496
0.137387
0.137715
0.137606
0.13793
0.137823
0.138141
0.138036
0.138347
0.138245
0.138544
0.138446
0.138733
0.13864
0.13891
0.138823
0.139074
0.138993
0.139222
0.13915
0.139353
0.13929
0.139465
0.139412
0.139554
0.139512
0.13962
0.13959
0.13966
0.139643
0.139671
0.139669
0.139653
0.139666
0.139601
0.139631
0.139515
0.139562
0.139391
0.139458
0.169406
0.175042
0.135453
0.135534
0.165801
0.176849
0.138913
0.1346
0.13446
0.13499
0.139315
0.13485
0.161438
0.177611
0.15641
0.177319
0.150896
0.176003
0.145063
0.173732
0.133011
0.139063
0.170594
0.166646
0.162035
0.156846
0.276342
0.294561
0.151304
0.145714
0.140114
0.119794
0.0712912
0.135631
0.1344
0.135588
0.172664
0.134847
0.134728
0.135061
0.134957
0.135262
0.135161
0.135361
0.135599
0.135636
0.13536
0.135519
0.13544
0.135206
0.135282
0.135057
0.135131
0.134903
0.134981
0.134728
0.134819
0.13452
0.13463
0.134253
0.134394
0.133933
0.134095
0.133653
0.133784
0.133456
0.133549
0.133261
0.133364
0.133011
0.133141
0.132727
0.132871
0.13243
0.132579
0.132126
0.132278
0.131818
0.131973
0.131504
0.131663
0.131169
0.131339
0.130791
0.130984
0.130369
0.130581
0.129999
0.130168
0.129762
0.129866
0.129549
0.129657
0.129301
0.129432
0.128999
0.129156
0.128652
0.12883
0.128305
0.128473
0.128021
0.128155
0.127771
0.127897
0.127508
0.127644
0.127261
0.127382
0.133027
0.127091
0.127163
0.146803
0.143266
0.152965
0.150014
0.158169
0.155686
0.162214
0.160369
0.164485
0.163615
0.164417
0.164761
0.162024
0.163483
0.157879
0.160127
0.152603
0.155357
0.146401
0.149628
0.142859
0.128368
0.128313
0.128597
0.128478
0.128814
0.1287
0.128993
0.128909
0.129204
0.129089
0.129451
0.129328
0.129717
0.129585
0.129993
0.129856
0.130268
0.130132
0.130546
0.130407
0.130823
0.130684
0.131101
0.130962
0.131381
0.13124
0.131661
0.13152
0.131943
0.131801
0.132225
0.132084
0.132509
0.132367
0.132791
0.13265
0.13307
0.132931
0.133346
0.133209
0.133617
0.133482
0.133881
0.13375
0.134137
0.13401
0.134382
0.134261
0.134614
0.1345
0.134832
0.134725
0.135033
0.134935
0.135215
0.135127
0.135375
0.135298
0.135511
0.135447
0.135621
0.13557
0.135701
0.135665
0.135749
0.135729
0.135763
0.13576
0.13574
0.135756
0.135678
0.135714
0.135575
0.135632
0.135427
0.135507
0.135233
0.135336
0.135117
0.169854
0.175465
0.129619
0.1294
0.0546171
0.139229
0.134697
0.16619
0.177266
0.161745
0.178021
0.156651
0.17772
0.151076
0.176401
0.145185
0.174114
0.139142
0.17091
0.127092
0.133092
0.166916
0.16223
0.157045
0.151592
0.146055
0.140357
0.134319
0.128305
0.105899
0.126986
0.203845
0.17311
0.130015
0.129822
0.130369
0.130197
0.130702
0.130536
0.131015
0.130865
0.131271
0.131159
0.131372
0.131347
0.131331
0.131367
0.131234
0.131284
0.131133
0.131182
0.131029
0.13108
0.130912
0.130973
0.130766
0.130844
0.130574
0.130678
0.130313
0.130455
0.12999
0.130154
0.129707
0.129836
0.129495
0.129593
0.12928
0.129395
0.129003
0.129149
0.128685
0.128847
0.128347
0.128517
0.127997
0.128173
0.127638
0.127819
0.127268
0.127455
0.126871
0.127074
0.126424
0.126655
0.125934
0.126181
0.125494
0.125697
0.125175
0.125319
0.124885
0.125032
0.124555
0.124728
0.124173
0.124369
0.123758
0.123969
0.12334
0.123547
0.122955
0.123143
0.122588
0.122771
0.122217
0.122406
0.121845
0.122031
0.121553
0.121679
0.114826
0.113434
0.121594
0.100416
0.117991
0.094909
0.14681
0.143233
0.153018
0.150049
0.158239
0.15575
0.162292
0.160444
0.164568
0.163695
0.1645
0.164845
0.162103
0.163564
0.157951
0.160203
0.152657
0.155421
0.14641
0.149664
0.138829
0.142829
0.129169
0.134309
0.122913
0.122865
0.123208
0.123055
0.123504
0.12335
0.123802
0.123657
0.124121
0.123958
0.124465
0.124293
0.124817
0.124642
0.125176
0.124998
0.125533
0.125356
0.12589
0.125712
0.126244
0.126067
0.126596
0.12642
0.126946
0.126771
0.127294
0.12712
0.127639
0.127467
0.127981
0.12781
0.128318
0.12815
0.12865
0.128485
0.128975
0.128813
0.12929
0.129134
0.129594
0.129444
0.129886
0.129742
0.130163
0.130027
0.130422
0.130295
0.130662
0.130545
0.130879
0.130773
0.13107
0.130978
0.131234
0.131156
0.131367
0.131305
0.131467
0.131421
0.131529
0.131503
0.131552
0.131546
0.131533
0.131548
0.131469
0.131507
0.131356
0.131419
0.131194
0.131281
0.130978
0.131093
0.130706
0.130849
0.130377
0.130549
0.129987
0.13019
0.129536
0.12977
0.123052
0.170271
0.175895
0.166544
0.177687
0.128922
0.123322
0.12298
0.123663
0.129287
0.123319
0.162037
0.178434
0.156889
0.178134
0.151261
0.176803
0.145317
0.174473
0.13923
0.171238
0.133186
0.167197
0.162503
0.275409
0.157346
0.0997776
0.151951
0.146371
0.13384
0.127393
0.121944
0.126088
0.120709
0.140481
0.119776
0.115334
0.114404
0.173539
0.123954
0.123648
0.124528
0.124247
0.125048
0.124792
0.125537
0.125293
0.126003
0.125775
0.126378
0.126211
0.126586
0.126506
0.126642
0.126628
0.126629
0.126638
0.126606
0.126617
0.12658
0.126594
0.126528
0.126558
0.126434
0.126487
0.126286
0.126368
0.126051
0.126181
0.12575
0.125903
0.125482
0.125605
0.125285
0.125376
0.125073
0.125188
0.124791
0.124941
0.124459
0.12463
0.124102
0.124283
0.123727
0.123916
0.123336
0.123533
0.12293
0.123136
0.122492
0.122717
0.121994
0.12225
0.121452
0.121725
0.120957
0.121189
0.120581
0.120755
0.120235
0.120411
0.119845
0.120049
0.119401
0.119628
0.118929
0.119168
0.118453
0.11869
0.117994
0.118221
0.11755
0.117771
0.117114
0.11733
0.11671
0.116905
0.11643
0.116543
0.116059
0.116395
0.0955412
0.139134
0.134531
0.146812
0.143193
0.153071
0.150082
0.158314
0.155816
0.162377
0.160525
0.164659
0.163784
0.164592
0.164938
0.162189
0.163654
0.158027
0.160285
0.152712
0.155489
0.146415
0.149699
0.138736
0.142792
0.134146
0.117623
0.116574
0.117564
0.11765
0.117582
0.117523
0.117912
0.117737
0.118285
0.118107
0.118676
0.118485
0.11908
0.118875
0.119501
0.11929
0.119926
0.119714
0.120355
0.120141
0.120779
0.120567
0.121201
0.12099
0.121616
0.121409
0.122027
0.121822
0.122432
0.12223
0.12283
0.122632
0.123222
0.123027
0.123606
0.123415
0.12398
0.123794
0.124344
0.124164
0.124695
0.124521
0.12503
0.124864
0.125349
0.125192
0.125648
0.125501
0.125924
0.125789
0.126176
0.126054
0.1264
0.126292
0.126593
0.1265
0.126752
0.126677
0.126873
0.126817
0.126954
0.126919
0.126992
0.126979
0.126982
0.126993
0.126922
0.126959
0.126809
0.126873
0.12664
0.126732
0.126412
0.126533
0.126122
0.126275
0.125768
0.125953
0.125347
0.125566
0.124857
0.125111
0.124296
0.124585
0.123988
0.170657
0.176317
0.127211
0.116712
0.116266
0.129022
0.122956
0.166881
0.178106
0.162326
0.178855
0.157127
0.178552
0.15145
0.177197
0.14545
0.174849
0.11371
0.119067
0.139298
0.171589
0.133088
0.167523
0.126977
0.162832
0.125142
0.122762
0.157697
0.131263
0.292911
0.152281
0.0039918
0.146567
0.140485
0.113176
0.108378
0.107837
0.173951
0.117546
0.117138
0.118311
0.117937
0.11902
0.118671
0.119691
0.119357
0.120325
0.120015
0.120844
0.12061
0.121178
0.121033
0.121357
0.121282
0.121458
0.121411
0.121544
0.121499
0.121617
0.121582
0.121654
0.121641
0.121639
0.121653
0.121556
0.121608
0.121376
0.121479
0.121118
0.121251
0.12089
0.120996
0.120733
0.120805
0.120548
0.12065
0.120283
0.120426
0.11996
0.120127
0.119605
0.119786
0.119226
0.119418
0.118825
0.119028
0.118401
0.118617
0.117942
0.118179
0.117412
0.117687
0.116835
0.117127
0.116306
0.116554
0.115895
0.116086
0.115514
0.115708
0.115082
0.115308
0.114594
0.114843
0.114079
0.114339
0.113557
0.113817
0.113042
0.113298
0.112535
0.112788
0.112034
0.112283
0.111556
0.111789
0.111149
0.111336
0.110533
0.110916
0.109654
0.139028
0.134353
0.14681
0.143146
0.153125
0.150113
0.158393
0.155885
0.162469
0.160611
0.164758
0.163879
0.164693
0.165038
0.162282
0.163751
0.158107
0.160372
0.152767
0.155559
0.146416
0.149732
0.138634
0.142748
0.12866
0.133971
0.115801
0.122621
0.109886
0.109046
0.11155
0.110828
0.111961
0.111792
0.112167
0.112016
0.112606
0.112387
0.113074
0.112842
0.113533
0.113296
0.114009
0.113768
0.114493
0.114251
0.114977
0.114734
0.115459
0.115219
0.115935
0.115697
0.116404
0.11617
0.116865
0.116636
0.117317
0.117092
0.117759
0.117539
0.118191
0.117977
0.118611
0.118403
0.119018
0.118816
0.119411
0.119216
0.119786
0.119601
0.120143
0.119967
0.120479
0.120314
0.12079
0.120638
0.121075
0.120936
0.12133
0.121206
0.121552
0.121445
0.121737
0.121649
0.121883
0.121815
0.121985
0.121939
0.12204
0.122018
0.122045
0.122049
0.121995
0.122027
0.121889
0.12195
0.121721
0.121813
0.12149
0.121614
0.121192
0.12135
0.120824
0.121017
0.120383
0.120613
0.119868
0.120135
0.119276
0.119582
0.118605
0.11895
0.117853
0.118239
0.11702
0.117447
0.116105
0.116573
0.171033
0.176731
0.167214
0.178524
0.115316
0.10819
0.107595
0.108458
0.115616
0.107859
0.162613
0.179281
0.157368
0.17897
0.107398
0.112761
0.151636
0.177604
0.118568
0.145555
0.175242
0.139324
0.171957
0.133034
0.167888
0.124505
0.127957
0.163188
0.130537
0.122437
0.158034
0.136321
0.155512
0.327259
0.152526
0.146661
0.140576
0.107032
0.102061
0.101666
0.174351
0.109318
0.108765
0.110363
0.109851
0.111335
0.110856
0.112244
0.111797
0.113109
0.11268
0.113927
0.113526
0.114606
0.114293
0.115093
0.114872
0.115417
0.115271
0.115653
0.11554
0.115868
0.11576
0.116063
0.115969
0.116211
0.116145
0.116297
0.116262
0.116304
0.116312
0.116201
0.116267
0.116014
0.116114
0.115849
0.115918
0.115752
0.115795
0.115615
0.115694
0.115389
0.115514
0.115097
0.11525
0.114765
0.114936
0.114403
0.114588
0.114013
0.114211
0.113594
0.113808
0.113131
0.11337
0.112589
0.112871
0.111996
0.112297
0.111446
0.111706
0.111023
0.111222
0.110626
0.110829
0.110173
0.110409
0.109658
0.109921
0.109114
0.109389
0.108557
0.108835
0.108
0.108278
0.107442
0.107722
0.106881
0.107162
0.106324
0.1066
0.105798
0.106056
0.105083
0.105482
0.10362
0.104412
0.10226
0.102894
0.101071
0.101691
0.128741
0.122575
0.138912
0.134161
0.146804
0.143092
0.153179
0.150142
0.158477
0.155957
0.162567
0.160703
0.164865
0.163983
0.164801
0.165148
0.162383
0.163857
0.158193
0.160466
0.152823
0.155633
0.146413
0.149764
0.138521
0.142697
0.128383
0.133782
0.122243
0.103054
0.102515
0.104374
0.103677
0.105652
0.105091
0.106297
0.106011
0.106697
0.106481
0.107235
0.106954
0.107774
0.107508
0.1083
0.108036
0.108832
0.108564
0.109364
0.109097
0.109891
0.109627
0.110411
0.110152
0.11092
0.110666
0.11142
0.111171
0.111908
0.111666
0.112383
0.112147
0.112845
0.112615
0.113291
0.11307
0.113721
0.113508
0.114132
0.113929
0.114523
0.11433
0.114892
0.11471
0.115235
0.115067
0.11555
0.115396
0.115834
0.115696
0.116083
0.115963
0.116295
0.116194
0.116465
0.116385
0.116589
0.116533
0.116665
0.116634
0.116688
0.116683
0.116654
0.116679
0.11656
0.116615
0.116402
0.11649
0.116177
0.116298
0.11588
0.116038
0.11551
0.115704
0.115062
0.115296
0.114535
0.114809
0.113926
0.114241
0.113233
0.11359
0.112454
0.112854
0.111587
0.112031
0.110633
0.111121
0.10959
0.110123
0.109035
0.171398
0.177143
0.0998279
0.0991242
0.0961837
0.0880583
0.115107
0.107239
0.167546
0.178953
0.101331
0.106742
0.162901
0.179713
0.112446
0.157607
0.179397
0.118213
0.151801
0.178025
0.145654
0.175645
0.139386
0.172351
0.124076
0.133565
0.168269
0.130082
0.12793
0.163551
0.136058
0.122064
0.158332
0.00387485
0.152688
0.146722
0.141677
0.105272
0.0886827
0.174745
0.10117
0.100509
0.102425
0.101808
0.103606
0.103024
0.10472
0.10417
0.105783
0.105257
0.106795
0.1063
0.10765
0.107246
0.10831
0.108003
0.108785
0.108561
0.10917
0.108985
0.109531
0.109354
0.109867
0.109705
0.110144
0.110014
0.110349
0.110256
0.110466
0.11042
0.110465
0.11048
0.110365
0.110425
0.110287
0.110315
0.110269
0.110277
0.110201
0.110246
0.110033
0.110128
0.109792
0.10992
0.109504
0.109653
0.109178
0.109346
0.108819
0.109003
0.108424
0.108626
0.107974
0.108207
0.107441
0.10772
0.106848
0.107149
0.106295
0.106554
0.105879
0.106074
0.105482
0.105684
0.105027
0.105264
0.104503
0.104771
0.103944
0.104226
0.103367
0.103656
0.102784
0.103076
0.102191
0.102489
0.101586
0.10189
0.100969
0.101278
0.10035
0.100665
0.0995996
0.100004
0.0984578
0.0990644
0.0972937
0.0978492
0.096783
0.128444
0.122176
0.138785
0.133955
0.146793
0.14303
0.153234
0.150169
0.158564
0.156031
0.162672
0.160801
0.164981
0.164095
0.164918
0.165265
0.16249
0.16397
0.158282
0.160565
0.15288
0.155709
0.146404
0.149793
0.138398
0.142638
0.12809
0.133581
0.114811
0.121848
0.0983985
0.106978
0.0835097
0.0828822
0.0956183
0.0956044
0.101085
0.0959474
0.0957125
0.0967023
0.0962993
0.0976601
0.0971625
0.0988087
0.0982202
0.0998368
0.0993676
0.100589
0.100227
0.101163
0.100867
0.101738
0.101426
0.102335
0.102042
0.102906
0.102621
0.103475
0.10319
0.104037
0.103757
0.10459
0.104315
0.105129
0.104861
0.105656
0.105395
0.106169
0.105914
0.106667
0.10642
0.107147
0.106909
0.107609
0.107381
0.108052
0.107833
0.108474
0.108266
0.108871
0.108675
0.109242
0.10906
0.109584
0.109417
0.109895
0.109744
0.11017