/*--------------------------------*- C++ -*----------------------------------*\
| =========                 |                                                 |
| \\      /  F ield         | OpenFOAM: The Open Source CFD Toolbox           |
|  \\    /   O peration     | Version:  2212                                  |
|   \\  /    A nd           | Website:  www.openfoam.com                      |
|    \\/     M anipulation  |                                                 |
\*---------------------------------------------------------------------------*/
FoamFile
{
    version     2.0;
    format      ascii;
    arch        "LSB;label=32;scalar=64";
    class       volScalarField;
    location    "0.044";
    object      epsilon;
}
// * * * * * * * * * * * * * * * * * * * * * * * * * * * * * * * * * * * * * //

dimensions      [0 2 -3 0 0 0 0];

internalField   nonuniform List<scalar> 
2308
(
832986
9.97473e+06
762615
1.43098e+06
185604
185847
171459
199855
191304
94496.4
95769
99317.4
102247
106171
110588
115371
120532
125500
120157
114968
110110
105589
101492
97989.1
95684.4
94227.8
93145
92797.5
166314
125959
94620.3
101853
121420
165682
241529
351413
455813
472635
448651
425643
406673
389626
375464
364794
361903
370511
375779
386186
398126
414555
431359
427842
383416
321411
268900
237891
192007
146457
116502
102183
97376.8
96664.4
97729.1
98859.9
100669
102847
105660
109339
113652
118494
123809
373406
377246
122736
117137
111973
107281
103150
100080
98215.3
96845.3
96040.8
97261.5
103384
121148
155707
199649
234285
259097
307368
368534
419409
433868
418824
402175
390354
379999
373748
130653
378873
131473
129476
424332
415227
411370
420214
431663
411599
348404
290344
250835
227904
217591
212629
208387
197421
165478
131962
113645
107456
106318
106946
108105
109821
112088
115182
119296
124214
129690
231301
203736
173210
186178
135048
128107
121856
116358
111681
108162
106016
104912
104834
107437
116808
140238
177323
205535
211115
212972
215590
223195
242876
279185
336372
407680
442687
430480
416767
417800
423289
439472
408551
414747
408216
192856
442043
280870
400447
135314
224786
178820
136507
135668
480368
486424
484814
479718
473388
505052
506320
497138
492378
489096
433827
346091
283518
241597
220229
210827
207262
207105
208824
211689
214387
212033
189990
156631
134343
124991
121878
121285
121988
123261
125268
128502
133142
138617
152127
360233
183887
218194
200716
186134
173790
162956
152986
143984
136514
129977
124569
120745
118565
117708
118965
124504
139965
170117
204377
219742
218939
214457
210343
207372
205970
208091
215729
234358
272526
335455
426752
489652
496540
497580
505323
506576
1.25062e+06
254503
2.38505e+06
1.9695e+06
1.82303e+06
351986
141901
147214
605016
629923
644297
592796
437771
335089
279993
245654
226482
217351
213668
212656
213499
216080
220003
224774
229190
230453
221123
193895
166008
151067
144065
141818
141966
143578
145933
149681
155091
144664
216556
708274
252676
231452
212943
196836
182872
170635
160201
151717
145077
140626
138284
137850
141002
151392
175163
210386
235274
238480
234615
228343
222201
217144
213383
211248
211539
214605
222164
238074
268292
322013
425482
595352
654770
637205
618577
588995
507533
515223
506974
493069
500735
500845
497059
568464
2.00287e+06
802420
7.26883e+06
315708
560352
1.46165e+06
161086
151051
238689
293429
344908
173701
324479
290323
261097
236876
217171
201024
188303
179091
173206
170249
170581
177320
195227
227793
258749
268231
264639
257596
250473
243954
238525
234766
232528
232100
234060
239458
250509
269290
298965
340900
401064
513404
747261
854187
834911
775193
698092
553390
498344
503871
475164
460033
474020
491800
483260
528975
645691
717552
780848
827426
748343
526669
411087
350580
309296
276506
255019
242649
236231
233559
233560
235277
238450
242867
248118
253960
258792
257907
242394
214340
190495
178550
174318
174037
176755
180614
185482
215290
167721
157196
161413
273013
373740
414190
456837
1.13171e+06
363926
451362
405311
362024
324468
293089
268180
248878
235450
227150
223149
225973
239162
265543
299551
314668
311607
303276
294472
285984
277960
272072
269181
268430
269615
273304
280211
292050
311159
341300
387078
445565
508348
591116
740755
1.01035e+06
1.08685e+06
996691
884911
778665
624310
517568
479726
475456
440624
425888
441613
467620
465709
493964
579805
705690
796791
891961
970230
958487
762929
597903
510942
450126
395606
348396
314860
294099
281647
274396
270733
269568
270271
273265
278882
285749
292584
299603
305086
301794
281217
253916
236200
228427
228125
233078
239897
191784
231092
222670
2.0092e+07
198843
662130
619065
560218
164270
183422
156616
173785
332126
498820
685603
565548
486378
456227
438676
402406
389345
404604
434524
443667
464632
526459
624532
737541
835714
946899
1.05571e+06
1.1378e+06
1.09722e+06
925103
786792
691656
612576
539599
473949
421439
384787
360673
344642
334162
327884
324832
324607
327854
334867
344580
355161
365782
377002
385220
381217
358254
335923
324184
322875
330347
247015
199618
254723
2.90276e+06
2.22319e+06
554883
486462
431594
389280
358077
336664
323236
318558
325939
346689
375397
392010
387794
376137
364054
352216
340825
331602
325713
323453
324505
328281
335220
346070
362130
385277
420409
471975
540752
617715
700233
794996
920188
1.13034e+06
1.2576e+06
1.18749e+06
1.0632e+06
932357
817163
236714
234017
962332
180116
432482
205176
847739
952038
1.07629e+06
1.20253e+06
1.30531e+06
1.30022e+06
1.18603e+06
1.05991e+06
951665
855539
765495
678482
598992
536565
492666
462040
440222
424919
414901
409268
408116
411965
420613
433351
449207
466627
484919
504788
522700
527994
517594
505872
504858
341335
203610
289645
718913
608185
514049
452907
421681
395047
363254
353267
365810
393106
411845
433310
480025
556710
653123
759310
223800
675763
780412
883628
986567
172094
206277
9.08221e+06
2.11488e+06
819032
715021
636474
579945
540179
515648
507147
515078
530171
535538
521321
499807
480319
461631
444272
430021
419521
412811
410534
413079
420148
431445
447810
470385
501281
544216
606249
689699
784573
880403
978999
1.08542e+06
1.21406e+06
1.36752e+06
1.43179e+06
1.34476e+06
1.20501e+06
1.06108e+06
937639
833316
880434
254534
185852
260178
252935
242669
184961
973874
1.38347e+06
171970
211028
516820
163556
1.5193e+06
3.07696e+06
968503
856224
933135
1.0373e+06
1.17042e+06
1.32099e+06
1.46445e+06
1.53525e+06
1.49604e+06
1.40197e+06
1.29756e+06
1.19446e+06
1.09414e+06
990267
883284
786236
712523
658758
618279
587691
565093
549444
540428
538530
543727
555171
571973
593795
621173
653513
686742
724865
764921
797542
814340
832274
230204
1.28274e+06
995277
745207
636347
540770
462838
409870
378917
352573
327868
319891
329568
351451
370729
393113
433461
497050
581291
683307
790689
179568
1.00372e+06
1.17077e+06
1.34941e+06
1.5459e+06
1.85503e+06
2.16285e+06
308992
1.68784e+06
1.41994e+06
1.22526e+06
1.08609e+06
988481
925982
889596
862111
824612
776877
731154
691653
656667
626154
601023
581304
566796
557507
553661
556166
566198
583431
607449
639351
680746
734985
808094
908201
1.02537e+06
1.13986e+06
1.24574e+06
1.35064e+06
1.4579e+06
1.56312e+06
1.63796e+06
1.6086e+06
1.46718e+06
1.29759e+06
1.144e+06
1.02137e+06
931274
856084
259953
352573
652836
333126
311974
296624
259850
285249
259866
254941
1.25721e+06
1.69755e+06
765053
162297
1.42055e+06
236345
959095
868478
1.31565e+06
1.21693e+06
1.12507e+06
1.04828e+06
980521
922303
872518
830954
797110
772112
755660
747875
750004
763438
787763
821697
865577
920128
987887
1.07337e+06
1.18447e+06
1.31134e+06
1.42967e+06
1.53267e+06
1.62401e+06
1.70404e+06
1.76237e+06
1.778e+06
1.71799e+06
1.56696e+06
1.37834e+06
1.20563e+06
1.06707e+06
972015
914739
878137
800770
792003
670293
565354
480037
412586
365654
337037
315831
296668
289894
297508
313975
330127
351371
387417
442927
518836
617183
733816
847135
271691
530570
357979
1.14575e+06
1.09014e+06
1.06488e+06
1.06843e+06
1.11629e+06
997551
896876
812574
2.97606e+06
769230
1.9544e+06
5.63244e+06
2.80542e+06
418077
381660
352448
264528
311746
1.11064e+06
1.57654e+06
1.88056e+06
2.21345e+06
2.59353e+06
3.06158e+06
2.51374e+06
6.88432e+06
3.06546e+06
2.6331e+06
2.29063e+06
2.02945e+06
1.83527e+06
1.67516e+06
1.53023e+06
1.39597e+06
1.27627e+06
1.17621e+06
1.09342e+06
1.02143e+06
961596
912297
871950
840001
815995
799841
791697
792687
804535
828547
863425
908131
963655
1.03203e+06
1.11779e+06
1.22957e+06
1.36523e+06
1.49736e+06
1.6104e+06
1.70622e+06
1.78955e+06
1.85517e+06
1.88653e+06
1.85623e+06
1.72185e+06
1.51995e+06
1.32257e+06
1.16262e+06
1.05212e+06
985023
944233
910673
1.02486e+06
1.20431e+06
1.33938e+06
1.15735e+06
2.11305e+06
354513
694874
2.30539e+06
773350
265542
275996
288649
790592
492164
555867
788985
681882
1.1977e+06
834419
330369
3.63804e+06
3.28563e+06
935692
1.04664e+06
1.1744e+06
1.79652e+06
1.65284e+06
1.53772e+06
1.44227e+06
1.35862e+06
1.28686e+06
1.22213e+06
1.16997e+06
1.12982e+06
1.10498e+06
1.0942e+06
1.09861e+06
1.11834e+06
1.15529e+06
1.20684e+06
1.2702e+06
1.34446e+06
1.42945e+06
1.52708e+06
1.64335e+06
1.77898e+06
1.90424e+06
1.99437e+06
2.05234e+06
2.08169e+06
2.07939e+06
2.03481e+06
1.93233e+06
1.76129e+06
1.5398e+06
1.31914e+06
1.13967e+06
1.01176e+06
937506
909750
908439
912756
5.25137e+06
4.54239e+06
3.96667e+06
3.37431e+06
2.87356e+06
2.3928e+06
8.42484e+06
281708
849932
458948
890705
740812
727293
811208
438676
146480
1.09336e+06
1.31571e+07
217509
334371
1.3789e+06
894274
1.01395e+06
1.92143e+06
878894
736681
606416
504441
426760
367819
327235
302433
284874
269295
263266
269550
282478
295620
314440
346172
395256
464685
560345
684068
817713
915424
1.2767e+06
1.21239e+06
1.19029e+06
1.20069e+06
1.25878e+06
1.32151e+06
847723
502936
388729
1.51904e+06
3.01513e+06
4.13187e+06
716224
701918
278384
830646
1.24965e+06
333606
700833
355483
2.51501e+06
1.42368e+06
287110
6.00177e+06
5.09766e+06
4.37472e+06
3.84536e+06
3.40795e+06
3.03442e+06
2.70676e+06
2.41916e+06
2.17713e+06
1.98074e+06
1.82152e+06
1.69025e+06
1.58032e+06
1.48366e+06
1.40195e+06
1.33293e+06
1.27711e+06
1.23505e+06
1.20647e+06
1.19106e+06
1.18929e+06
1.20287e+06
1.23397e+06
1.28235e+06
1.3443e+06
1.41754e+06
1.50185e+06
1.59932e+06
1.7153e+06
1.85579e+06
1.99428e+06
2.0969e+06
2.16178e+06
2.19499e+06
2.19748e+06
2.1613e+06
2.07105e+06
1.9132e+06
1.68852e+06
1.4451e+06
1.23855e+06
1.09102e+06
1.00458e+06
972070
972391
980517
986016
4.83323e+06
2.32221e+06
1.53012e+06
622109
715662
578562
1.33465e+06
8.31078e+06
177381
878446
360524
634973
9.93708e+06
9.18076e+06
8.31395e+06
7.54634e+06
6.73393e+06
5.85579e+06
4.99381e+06
4.14555e+06
1.50227e+06
3.35655e+06
5.05164e+06
4.80638e+06
3.83356e+06
4.86595e+06
2.90146e+06
2.68312e+06
2.49009e+06
2.32888e+06
2.19604e+06
2.08543e+06
1.98567e+06
1.88433e+06
1.79578e+06
1.73422e+06
1.69868e+06
1.68767e+06
1.69951e+06
1.73455e+06
1.79244e+06
1.87196e+06
1.96594e+06
2.06769e+06
2.17222e+06
2.27756e+06
2.38394e+06
2.49668e+06
2.59572e+06
2.63651e+06
2.61618e+06
2.54783e+06
2.43713e+06
2.28513e+06
2.08903e+06
1.85331e+06
1.59266e+06
1.3347e+06
1.11468e+06
954788
858006
817940
823194
854929
894701
933375
959850
1.0699e+06
1.19344e+06
1.32727e+06
895787
978664
7.67499e+06
6.97302e+06
6.35358e+06
3.41712e+06
4.94906e+06
4.27445e+06
140935
9.80287e+06
1.95849e+06
729131
509578
1.01561e+06
3.74139e+06
5.06776e+06
673778
658889
782521
299555
153967
757595
234974
770356
785544
744723
404379
637167
356720
347815
3.77712e+06
5.74388e+06
725295
710491
634097
3.79677e+06
6.12261e+06
1.5763e+06
1.51715e+06
1.42475e+06
1.36517e+06
1.34484e+06
1.36172e+06
1.42965e+06
1.49449e+06
1.49076e+06
427432
499190
322055
293246
649886
6.25594e+06
7.23347e+06
7.75769e+06
6.6771e+06
5.81733e+06
5.11709e+06
4.54015e+06
4.0593e+06
3.65391e+06
3.31438e+06
3.03371e+06
2.80374e+06
2.61559e+06
2.45918e+06
2.32131e+06
2.19365e+06
2.07607e+06
1.98314e+06
1.91606e+06
1.87247e+06
1.85111e+06
1.85052e+06
1.87217e+06
1.91691e+06
1.98508e+06
2.07199e+06
2.16981e+06
2.2715e+06
2.37538e+06
2.48135e+06
2.59585e+06
2.70643e+06
2.76252e+06
2.7516e+06
2.68738e+06
2.57818e+06
2.42802e+06
2.23459e+06
1.99959e+06
1.73402e+06
1.45914e+06
1.21362e+06
1.03024e+06
918107
870647
875865
913272
961528
1.0088e+06
1.0481e+06
988111
848488
688863
552879
453185
381439
329675
294841
273512
258355
245067
239659
245014
255697
266927
283296
310893
354416
418779
512054
640111
789143
915463
966254
1.90929e+06
634742
2.58313e+06
1.17178e+06
1.06516e+06
1.21774e+07
1.66357e+06
2.04917e+06
155872
269984
1.41559e+07
1.53213e+07
1.53941e+07
1.50028e+07
1.43937e+07
1.33141e+07
1.17508e+07
1.01009e+07
8.36678e+06
6.50134e+06
2.48772e+06
1.81485e+06
4.47287e+06
1.19448e+06
703300
4.7605e+06
648011
478624
148003
1.85324e+06
1.13508e+06
1.03378e+06
522475
573316
355279
580632
3.43514e+06
9.83955e+06
1.10752e+07
1.2407e+07
1.37562e+07
1.44892e+07
1.47063e+07
1.42488e+07
1.277e+07
1.5138e+06
2.07133e+06
981922
1.09399e+06
1.2137e+06
1.35218e+06
1.48967e+06
1.67688e+06
479890
504162
3.68818e+06
319024
2.10673e+06
1.81691e+06
1.70065e+06
1.65915e+06
1.59828e+06
1.55012e+06
1.53048e+06
1.54806e+06
1.61309e+06
1.67104e+06
1.66308e+06
1.8846e+06
1.08538e+07
589216
2.55188e+06
455283
161749
3.62236e+06
203942
1.02031e+07
8.63077e+06
7.49594e+06
6.62149e+06
5.93195e+06
5.37742e+06
4.92026e+06
4.53593e+06
4.21258e+06
3.94647e+06
3.72983e+06
3.54849e+06
3.3859e+06
3.23399e+06
3.10742e+06
3.01784e+06
2.9588e+06
2.93907e+06
2.95345e+06
2.99848e+06
3.07136e+06
3.17021e+06
3.29105e+06
3.42631e+06
3.56135e+06
3.68011e+06
3.77e+06
3.82779e+06
3.85561e+06
3.85187e+06
3.77447e+06
3.59319e+06
3.33346e+06
3.02423e+06
2.68558e+06
2.33388e+06
1.98235e+06
1.64679e+06
1.34303e+06
1.08523e+06
887967
758175
694878
686521
721289
785650
864961
946966
1.02406e+06
1.09546e+06
1.07958e+06
989115
824191
648672
508969
411718
344253
298141
267876
249217
235690
224130
219298
223906
233022
243015
257479
281767
320893
381529
472085
603420
766009
913391
993441
1.01171e+06
946436
877464
805345
736110
679124
647301
652832
706717
820142
996345
1.23332e+06
1.52017e+06
1.84216e+06
2.1829e+06
2.52592e+06
2.85743e+06
3.16321e+06
3.42575e+06
3.6188e+06
3.71378e+06
3.7288e+06
3.70665e+06
3.65294e+06
3.56509e+06
3.44475e+06
3.30369e+06
3.15522e+06
3.0168e+06
2.89974e+06
2.81018e+06
2.7534e+06
2.73008e+06
2.75025e+06
2.81553e+06
2.91409e+06
3.03345e+06
3.16451e+06
3.31193e+06
3.48901e+06
3.71073e+06
3.99428e+06
4.24886e+06
4.7686e+06
5.18009e+06
8.2263e+06
5.4551e+06
3.68568e+06
9.29527e+06
1.07641e+07
278334
1.39053e+07
308675
4.67997e+06
682783
1.67816e+06
1.2305e+06
576701
3.0734e+06
2.3438e+06
594594
610160
649495
553410
868489
829275
568790
377602
655206
572293
477927
1.74466e+07
511440
517186
471221
647430
642230
374633
456133
585566
2.81846e+06
822005
1.03754e+06
1.14617e+07
1.79911e+07
2.36539e+07
2.81204e+07
3.15657e+07
3.28918e+07
3.19707e+07
2.98967e+07
2.62182e+07
2.12726e+07
1.59014e+07
334041
5.31724e+06
230618
1.96485e+07
2.49546e+07
2.90109e+07
3.1813e+07
3.32577e+07
3.20453e+07
2.84838e+07
2.37303e+07
7.74646e+06
582308
2.70769e+06
2.84191e+06
2.82457e+06
2.75291e+06
167359
6.03169e+07
667340
466627
2.15425e+06
534716
6.54805e+06
2.0631e+06
2.17015e+06
2.31827e+06
2.5016e+06
2.47464e+06
2.62431e+06
2.93092e+06
784743
954449
7.07166e+06
6.49792e+06
5.81895e+06
5.42369e+06
5.10601e+06
4.85695e+06
4.71661e+06
4.60448e+06
4.56926e+06
4.55942e+06
4.57097e+06
4.5918e+06
4.62489e+06
4.69896e+06
4.81971e+06
4.98004e+06
5.18837e+06
5.45209e+06
5.74421e+06
6.04442e+06
6.33297e+06
6.58198e+06
6.75958e+06
6.83278e+06
6.78214e+06
6.61412e+06
6.34061e+06
5.97181e+06
5.49005e+06
4.87593e+06
4.19167e+06
3.50686e+06
2.86437e+06
2.28891e+06
1.79424e+06
1.38634e+06
1.06561e+06
828166
663338
558058
500327
483328
499031
543528
615505
712425
826787
952962
1.08819e+06
549290
359271
1.15846e+06
1.10134e+06
984973
802899
614936
470899
376645
313778
271917
245033
228298
216042
205922
201633
205605
213495
222604
235727
257555
293327
349923
437350
572394
744479
907306
1.01319e+06
1.07034e+06
1.22976e+06
3.84073e+07
2.35208e+06
2.03941e+06
1.97334e+06
1.94335e+06
1.87831e+06
1.82543e+06
1.8102e+06
1.8342e+06
1.90287e+06
1.97397e+06
1.93089e+06
2.10216e+06
3.2314e+06
2.04679e+06
2.31197e+06
2.85407e+06
3.28129e+06
9.56692e+06
7.65806e+06
6.64126e+06
6.0343e+06
5.62721e+06
5.33325e+06
5.10941e+06
4.94025e+06
4.81801e+06
4.74095e+06
4.70749e+06
4.70653e+06
4.7199e+06
4.74142e+06
4.79576e+06
4.90023e+06
5.04345e+06
5.21192e+06
5.43502e+06
5.69099e+06
5.96304e+06
6.23613e+06
6.49687e+06
6.72367e+06
6.89201e+06
6.97054e+06
6.93389e+06
6.78365e+06
6.52752e+06
6.17542e+06
5.71372e+06
5.11075e+06
4.42047e+06
3.71777e+06
3.05128e+06
2.44987e+06
1.92985e+06
1.49831e+06
1.15608e+06
899843
719235
601871
536299
515277
531028
578200
654904
759188
882426
1.01746e+06
1.16078e+06
1.30965e+06
492962
543001
534925
551366
1.9335e+06
1.48743e+06
668164
1.62641e+06
374290
327205
7.5322e+06
345366
188592
1.04829e+07
1.8686e+07
3.18765e+07
5.01011e+07
7.12045e+07
9.01466e+07
1.02509e+08
1.00136e+08
8.38799e+07
1.13894e+07
132621
2.30281e+07
1.51838e+07
1.35544e+07
1.24491e+07
1.19387e+07
3.24729e+07
5.84974e+07
8.16732e+07
9.74194e+07
9.93679e+07
8.82239e+07
7.13348e+07
5.17105e+07
3.36642e+07
2.03378e+07
1.00982e+06
976016
1.7491e+06
527747
426219
487858
484150
423042
5.33403e+06
4.37024e+06
3.86408e+06
3.76639e+06
3.60526e+06
3.84077e+06
4.37405e+06
4.92564e+06
5.62807e+06
6.40104e+06
7.29394e+06
8.23043e+06
9.17346e+06
1.012e+07
1.10912e+07
1.20903e+07
1.31017e+07
1.41084e+07
1.51141e+07
1.60544e+07
1.68551e+07
1.74503e+07
1.7774e+07
1.77509e+07
1.73476e+07
1.6545e+07
1.53928e+07
1.40034e+07
1.24301e+07
1.06881e+07
8.82271e+06
6.98674e+06
5.34574e+06
3.97463e+06
2.88243e+06
2.04644e+06
1.43074e+06
998959
719367
563207
486772
453414
442271
443838
457602
494728
582552
753367
998266
1.31414e+06
1.70112e+06
2.16496e+06
1.33829e+07
1.18124e+07
1.12721e+07
1.12966e+07
1.06218e+07
8.34654e+06
6.7696e+06
6.06913e+06
6.83815e+06
1.40891e+06
498249
357369
453034
480026
1.2831e+06
639225
6.90701e+06
6.86132e+06
6.79474e+06
6.05919e+06
201422
1.49068e+06
2.67132e+06
2.19961e+06
2.03901e+06
2.05617e+06
2.01955e+06
1.9347e+06
1.86891e+06
1.86404e+06
1.88858e+06
1.96204e+06
2.06574e+06
1.96887e+06
1.89546e+06
2.52249e+06
4.04567e+06
8.88875e+06
1.47085e+06
1.2217e+06
1.12268e+06
982180
788030
592669
442613
348473
289346
250985
226418
211035
199814
190906
187097
190536
197458
205887
218120
238231
271230
324549
411766
551454
728845
903066
1.03289e+06
1.12982e+06
1.3835e+06
2.70979e+06
5.2228e+06
4.14236e+06
3.67909e+06
3.57634e+06
3.74758e+06
4.11302e+06
4.63571e+06
5.28473e+06
6.03113e+06
6.84739e+06
7.70738e+06
8.59804e+06
9.51914e+06
1.04883e+07
1.15176e+07
1.25748e+07
1.36283e+07
1.46548e+07
1.56323e+07
1.65054e+07
1.7226e+07
1.7747e+07
1.80217e+07
1.79832e+07
1.7607e+07
1.68573e+07
1.57604e+07
1.44131e+07
1.287e+07
1.11458e+07
9.27575e+06
7.39513e+06
5.68871e+06
4.24871e+06
3.0936e+06
2.2049e+06
1.54719e+06
1.08304e+06
779534
608373
525747
491287
481398
484608
498555
532384
610982
779816
1.03159e+06
1.35882e+06
1.75973e+06
2.23969e+06
2.80314e+06
402725
426628
473552
1.14556e+06
944787
6.7479e+06
4.69616e+06
1.39864e+07
7.86616e+06
9.32002e+06
1.15284e+06
3.29662e+06
1.49857e+06
877032
1.02333e+06
523730
698194
303734
388512
223252
253462
193939
204931
180488
186519
180893
177505
198745
188722
234792
212532
325367
269767
563472
416978
955388
756599
1.24583e+06
1.11227e+06
6.90247e+06
9.54342e+06
3.40959e+06
1.59173e+06
3.19532e+06
4.78908e+06
1.24483e+06
2.03218e+06
764552
815275
805632
792600
728055
780891
644927
668230
1.16486e+06
767714
3.06182e+06
1.89527e+06
7.33242e+06
4.80798e+06
1.55517e+07
1.08456e+07
2.8487e+07
2.1508e+07
4.27196e+07
3.57432e+07
5.58963e+07
4.94684e+07
6.59233e+07
6.15306e+07
7.03667e+07
6.8881e+07
6.91777e+07
7.04418e+07
6.34194e+07
6.68197e+07
5.39487e+07
5.90185e+07
4.28716e+07
4.84869e+07
3.18526e+07
3.726e+07
2.18598e+07
2.67522e+07
1.2653e+07
1.70816e+07
5.74773e+06
8.77142e+06
2.68063e+06
3.75054e+06
2.91555e+06
2.6158e+06
4.877e+06
3.55481e+06
1.63938e+07
7.61029e+06
7.52959e+07
3.58117e+07
2.59912e+08
1.47695e+08
4.51575e+08
3.82362e+08
2.46792e+08
3.89011e+08
1.06285e+08
1.36987e+08
1.03724e+08
1.10928e+08
8.93069e+07
9.36551e+07
5.52685e+07
7.63077e+07
1.75707e+07
3.40502e+07
2.09168e+07
452446
1.00075e+06
268677
289550
259464
265239
253007
255016
254401
252209
261453
258037
313568
269254
4.7795e+06
496152
8.29503e+06
3.38381e+06
1.27008e+07
2.39461e+06
2.41396e+07
1.52685e+07
4.64821e+07
3.18442e+07
5.68279e+07
5.97784e+07
7.91e+07
6.26568e+07
1.12157e+08
9.66232e+07
2.14246e+08
1.43448e+08
4.59914e+08
3.31694e+08
3.98854e+08
4.90545e+08
1.49175e+08
2.66233e+08
3.44243e+07
7.42517e+07
7.54701e+06
1.56148e+07
4.15559e+06
5.35319e+06
2.73891e+06
3.29656e+06
3.30313e+06
2.66383e+06
7.34311e+06
4.7396e+06
1.50737e+07
1.081e+07
2.49147e+07
1.9837e+07
3.55144e+07
3.01193e+07
4.63473e+07
4.09824e+07
5.66546e+07
5.15895e+07
6.51575e+07
6.13073e+07
6.94985e+07
6.79125e+07
6.8134e+07
6.96299e+07
6.04036e+07
6.50291e+07
4.79806e+07
5.45425e+07
3.41814e+07
4.11783e+07
2.02274e+07
2.69947e+07
1.00953e+07
1.45451e+07
4.43514e+06
6.79485e+06
1.73023e+06
2.80941e+06
705292
1.06171e+06
614448
599077
693745
657894
689416
704897
791370
680466
2.02548e+06
1.25315e+06
3.15317e+06
1.43798e+07
2.51287e+06
434477
275409
1.31087e+07
370272
1.33987e+07
838795
3.75641e+06
4.81135e+06
5.04806e+06
1.13719e+07
1.0835e+07
1.70435e+07
1.77711e+07
218742
1.74402e+06
425560
392552
409768
143637
142920
139493
205387
197960
199787
217073
218447
215753
236303
249062
240489
266271
293273
277884
6.40439e+06
931137
2.75053e+07
1.13061e+06
7.53409e+07
525769
1.18025e+06
5.70555e+06
499430
479211
3.78272e+06
157545
128422
1.41399e+06
6.17096e+06
151227
7.8224e+06
6.13993e+06
8.22731e+06
1.26893e+06
2.89516e+06
274419
2.58597e+06
162794
5.84172e+06
152701
368368
199856
174811
197552
249233
3.15414e+07
921137
456764
1.21159e+07
6.76439e+06
544376
1.93587e+06
787174
3.44776e+06
6.17198e+06
3.6873e+06
883697
2.15735e+06
7.71463e+06
136859
842726
7.0564e+06
336214
210740
97983.1
94120
9.01198e+06
)
;

boundaryField
{
    wall
    {
        type            epsilonWallFunction;
        blending        stepwise;
        value           nonuniform List<scalar> 
166
(
6.7479e+06
4.69616e+06
9.32002e+06
6.90247e+06
9.54342e+06
3.19532e+06
4.78908e+06
1.24483e+06
2.03218e+06
764552
815275
805632
792600
728055
780891
644927
668230
1.16486e+06
767714
3.06182e+06
1.89527e+06
7.33242e+06
4.80798e+06
1.55517e+07
1.08456e+07
2.8487e+07
2.1508e+07
4.27196e+07
3.57432e+07
5.58963e+07
4.94684e+07
6.59233e+07
6.15306e+07
7.03667e+07
6.8881e+07
6.91777e+07
7.04418e+07
6.34194e+07
6.68197e+07
5.39487e+07
5.90185e+07
4.28716e+07
4.84869e+07
3.18526e+07
3.726e+07
2.18598e+07
2.67522e+07
1.2653e+07
1.70816e+07
5.74773e+06
8.77142e+06
2.68063e+06
3.75054e+06
2.91555e+06
2.6158e+06
4.877e+06
3.55481e+06
1.63938e+07
7.61029e+06
7.52959e+07
3.58117e+07
2.59912e+08
1.47695e+08
4.51575e+08
3.82362e+08
2.46792e+08
3.89011e+08
1.06285e+08
1.36987e+08
1.03724e+08
1.10928e+08
8.93069e+07
9.36551e+07
5.52685e+07
7.63077e+07
1.75707e+07
3.40502e+07
2.09168e+07
1.27008e+07
2.41396e+07
1.52685e+07
4.64821e+07
3.18442e+07
5.68279e+07
5.97784e+07
7.91e+07
6.26568e+07
1.12157e+08
9.66232e+07
2.14246e+08
1.43448e+08
4.59914e+08
3.31694e+08
3.98854e+08
4.90545e+08
1.49175e+08
2.66233e+08
3.44243e+07
7.42517e+07
7.54701e+06
1.56148e+07
4.15559e+06
5.35319e+06
2.73891e+06
3.29656e+06
3.30313e+06
2.66383e+06
7.34311e+06
4.7396e+06
1.50737e+07
1.081e+07
2.49147e+07
1.9837e+07
3.55144e+07
3.01193e+07
4.63473e+07
4.09824e+07
5.66546e+07
5.15895e+07
6.51575e+07
6.13073e+07
6.94985e+07
6.79125e+07
6.8134e+07
6.96299e+07
6.04036e+07
6.50291e+07
4.79806e+07
5.45425e+07
3.41814e+07
4.11783e+07
2.02274e+07
2.69947e+07
1.00953e+07
1.45451e+07
4.43514e+06
6.79485e+06
1.73023e+06
2.80941e+06
705292
1.06171e+06
614448
599077
693745
657894
689416
704897
791370
680466
2.02548e+06
1.25315e+06
3.15317e+06
1.43798e+07
1.31087e+07
1.33987e+07
4.81135e+06
5.04806e+06
1.13719e+07
1.0835e+07
1.70435e+07
1.70435e+07
1.77711e+07
1.77711e+07
2.75053e+07
7.53409e+07
3.15414e+07
)
;
    }
    outlet
    {
        type            inletOutlet;
        inletValue      uniform 266000;
        value           nonuniform List<scalar> 
33
(
1.15284e+06
3.29662e+06
1.49857e+06
877032
1.02333e+06
523730
698194
303734
388512
223252
253462
193939
204931
180488
186519
180893
177505
198745
188722
234792
212532
325367
269767
563472
416978
955388
756599
1.24583e+06
1.11227e+06
3.40959e+06
1.59173e+06
1.31087e+07
1.33987e+07
)
;
    }
    inlet
    {
        type            fixedValue;
        value           uniform 266000;
    }
    frontAndBackPlanes
    {
        type            empty;
    }
}


// ************************************************************************* //
