/*--------------------------------*- C++ -*----------------------------------*\
| =========                 |                                                 |
| \\      /  F ield         | OpenFOAM: The Open Source CFD Toolbox           |
|  \\    /   O peration     | Version:  2212                                  |
|   \\  /    A nd           | Website:  www.openfoam.com                      |
|    \\/     M anipulation  |                                                 |
\*---------------------------------------------------------------------------*/
FoamFile
{
    version     2.0;
    format      ascii;
    arch        "LSB;label=32;scalar=64";
    class       volScalarField;
    location    "0.000198";
    object      T;
}
// * * * * * * * * * * * * * * * * * * * * * * * * * * * * * * * * * * * * * //

dimensions      [0 0 0 1 0 0 0];

internalField   nonuniform List<scalar> 
34861
(
402.967
402.965
402.966
402.968
402.97
402.959
402.931
402.92
402.936
402.975
403.004
403.029
403.083
403.166
403.247
403.33
403.423
403.525
403.64
403.786
403.932
404.069
404.202
404.289
404.347
404.381
404.395
404.397
404.379
404.344
404.291
404.222
404.139
404.046
403.942
403.826
403.704
403.573
403.437
403.302
403.17
403.037
402.904
402.77
402.632
402.489
402.344
402.198
402.053
401.911
401.774
401.64
401.506
401.373
401.245
401.119
400.994
400.873
400.76
400.658
400.567
400.481
400.406
400.34
400.281
400.231
400.186
400.148
400.117
400.09
400.065
400.044
400.026
400.015
400.019
400.037
400.036
400.004
402.981
402.973
334.803
379.742
382.341
391.147
394.616
397.876
399.391
400.899
401.596
402.42
402.822
403.24
403.412
403.588
403.668
403.743
403.757
403.788
403.801
403.817
403.82
403.819
403.799
403.791
403.76
403.742
403.708
403.687
403.665
403.65
403.627
403.602
403.57
403.536
403.499
403.463
403.429
403.398
403.369
403.34
403.311
403.278
403.242
403.203
403.162
403.12
403.083
403.05
403.022
402.997
323.934
321.807
277.218
265.191
253.365
251.489
252.884
252.164
251.026
248.479
242.444
232.348
223.181
216.066
212.711
207.991
205.595
201.155
198.724
195.25
191.294
190.045
186.904
185.459
183.224
181.802
180.228
178.018
177.031
175.932
175.504
173.005
171.571
171.55
170.709
170.101
168.387
168.923
168.815
166.355
163.059
162.59
159.037
123.288
80.6846
59.7242
48.91
43.0448
39.6364
37.3768
35.3443
34.4666
34.0892
33.8597
33.5287
33.1614
33.0534
32.9011
32.7463
31.9688
31.2739
31.1896
31.2895
31.421
31.0701
30.7795
30.6912
30.6585
30.8384
31.2142
31.2728
31.279
31.2002
30.9597
30.9812
31.0145
31.0737
31.3239
31.4957
31.605
31.7292
31.8809
32.0366
32.1115
31.9135
31.7162
31.5051
31.3107
31.1523
30.9862
30.7942
30.5917
30.4481
30.3749
30.3476
30.3431
30.3577
30.3782
30.3661
30.2862
30.1131
29.9456
29.7791
29.6313
29.4845
29.3248
29.1512
28.9611
28.7703
28.5952
28.4395
28.3045
28.1775
28.0036
27.8731
27.6326
27.4291
26.9063
26.6593
23.2148
309.562
289.441
236.695
219.333
205.21
194.892
191.403
191.373
196.232
201.311
207.306
212.863
213.346
211.706
209.902
206.203
204.248
199.817
197.523
194.054
190.312
189.315
186.321
185.039
182.753
181.483
179.862
177.925
176.724
175.788
175.278
172.978
171.538
171.368
170.625
170.056
168.397
168.828
168.686
166.504
163.284
162.841
160.889
129.904
86.9176
63.7832
51.5183
44.7672
40.7482
38.0218
35.7363
34.677
34.2014
33.9333
33.594
33.2388
33.1275
32.9666
32.792
32.0454
31.3431
31.2499
31.3189
31.4225
31.1009
30.7914
30.7021
30.6699
30.8515
31.222
31.2807
31.2859
31.2106
30.9675
30.9863
31.0216
31.085
31.3189
31.4984
31.6083
31.7322
31.8816
32.0347
32.0776
31.9212
31.7077
31.5003
31.3089
31.1504
30.9849
30.7938
30.5929
30.4481
30.3737
30.3449
30.3394
30.3527
30.3722
30.3613
30.2803
30.1087
29.9416
29.7752
29.6274
29.4804
29.3208
29.147
28.957
28.766
28.591
28.4352
28.2996
28.1731
27.9981
27.8687
27.6249
27.4224
26.8916
26.6486
23.6636
333.697
376.067
378.974
390.825
393.543
397.182
398.588
400.275
400.905
401.897
402.286
402.826
403.006
403.289
403.392
403.541
403.571
403.63
403.656
403.701
403.719
403.725
403.73
403.722
403.704
403.693
403.664
403.651
403.634
403.622
403.602
403.58
403.55
403.518
403.484
403.449
403.416
403.387
403.358
403.33
403.302
403.27
403.234
403.196
403.155
403.114
403.077
403.044
403.016
402.994
402.981
402.973
402.966
402.963
402.963
402.965
402.966
402.955
402.926
402.915
402.931
402.97
402.999
403.023
403.077
403.161
403.241
403.324
403.416
403.519
403.634
403.78
403.925
404.063
404.195
404.283
404.34
404.374
404.388
404.39
404.372
404.337
404.284
404.215
404.132
404.039
403.935
403.82
403.698
403.568
403.431
403.296
403.164
403.032
402.899
402.765
402.626
402.483
402.339
402.193
402.047
401.905
401.769
401.634
401.5
401.367
401.239
401.112
400.987
400.867
400.754
400.652
400.56
400.474
400.399
400.333
400.274
400.223
400.178
400.141
400.109
400.082
400.057
400.036
400.021
400.017
400.032
400.041
400.028
400.004
402.963
402.958
402.958
402.958
402.959
402.948
402.918
402.907
402.922
402.961
402.989
403.013
403.067
403.15
403.231
403.313
403.405
403.507
403.622
403.767
403.912
404.05
404.182
404.27
404.326
404.36
404.374
404.375
404.358
404.322
404.269
404.2
404.117
404.023
403.919
403.804
403.681
403.551
403.414
403.279
403.147
403.014
402.881
402.747
402.608
402.465
402.32
402.174
402.028
401.886
401.749
401.614
401.48
401.347
401.218
401.092
400.967
400.846
400.733
400.631
400.539
400.453
400.378
400.311
400.252
400.2
400.156
400.119
400.086
400.058
400.033
400.013
400.001
400.005
400.027
400.033
400.02
400.005
402.981
402.97
335.253
375.034
380.662
390.383
393.631
397.037
398.356
400.112
400.741
401.73
402.117
402.668
402.857
403.157
403.266
403.424
403.458
403.536
403.562
403.614
403.633
403.661
403.661
403.664
403.649
403.644
403.62
403.614
403.598
403.588
403.572
403.551
403.525
403.496
403.464
403.43
403.399
403.371
403.343
403.316
403.289
403.257
403.222
403.185
403.145
403.105
403.068
403.036
403.01
402.991
303.122
270.069
231.071
209.953
191.984
176.928
165.733
159.358
154.676
154.401
155.389
159.003
165.97
171.689
178.645
184.122
188.167
188.658
188.678
188.025
185.955
185.486
183.798
182.827
180.919
179.975
178.571
177.104
175.813
175.131
174.513
172.586
171.28
170.879
170.269
169.777
168.295
168.546
168.368
166.624
163.708
163.25
163.375
140.148
98.4553
71.8916
56.9581
48.4599
43.1398
39.4401
36.5848
35.1468
34.452
34.0864
33.7327
33.4021
33.2869
33.105
32.8912
32.1894
31.4899
31.3818
31.3928
31.4395
31.1522
30.8198
30.7282
30.6981
30.8843
31.2415
31.2971
31.3
31.2294
30.9834
30.9989
31.0377
31.1074
31.3136
31.5037
31.613
31.7345
31.8776
32.0139
32.0304
31.9138
31.6854
31.4864
31.3001
31.1418
30.9793
30.791
30.5926
30.4475
30.3707
30.339
30.3306
30.3409
30.3575
30.3469
30.2663
30.0961
29.9304
29.7648
29.6172
29.47
29.3105
29.1363
28.9464
28.7548
28.5797
28.4233
28.2858
28.1597
27.9821
27.8531
27.601
27.3962
26.8458
26.5676
24.072
299.448
262.181
227.965
206.715
188.404
172.453
159.294
148.783
140.445
134.655
131.014
128.717
129.083
130.64
134.207
140.051
147.836
154.64
160.127
167.176
169.415
172.196
173.535
174.562
174.306
174.517
174.206
173.648
172.85
172.728
172.264
171.016
170.051
169.496
169.142
168.834
167.669
167.754
167.585
166.377
164.118
163.64
165.649
150.865
114.149
84.043
65.6483
54.5886
47.1988
41.9118
38.0761
35.9915
34.907
34.3494
33.9625
33.6696
33.5566
33.3392
33.068
32.4108
31.7361
31.6129
31.5415
31.5038
31.2296
30.8742
30.7767
30.7516
30.9387
31.2724
31.3204
31.3202
31.2543
31.0058
31.0172
31.0594
31.133
31.3084
31.5067
31.6138
31.7312
31.8675
31.9698
31.9756
31.8875
31.6487
31.4613
31.2826
31.1252
30.9678
30.7843
30.5903
30.4446
30.3644
30.3286
30.3149
30.3204
30.3324
30.3213
30.2421
30.0745
29.9113
29.7473
29.6005
29.4535
29.2941
29.1193
28.9292
28.7359
28.5602
28.4016
28.2608
28.1333
27.9511
27.8208
27.5545
27.3441
26.7661
26.4179
24.3522
339.062
374.227
380.925
390.221
393.462
396.966
398.28
400.059
400.704
401.689
402.075
402.618
402.81
403.114
403.224
403.387
403.424
403.503
403.529
403.583
403.602
403.631
403.634
403.638
403.625
403.621
403.598
403.594
403.577
403.571
403.554
403.535
403.51
403.482
403.451
403.418
403.387
403.36
403.333
403.306
403.279
403.249
403.215
403.178
403.139
403.1
403.063
403.032
403.006
402.988
402.978
402.964
402.958
402.952
402.952
402.951
402.952
402.941
402.911
402.9
402.915
402.953
402.982
403.006
403.059
403.142
403.223
403.304
403.397
403.499
403.614
403.758
403.903
404.04
404.172
404.259
404.316
404.349
404.363
404.365
404.347
404.311
404.258
404.189
404.105
404.011
403.907
403.791
403.668
403.538
403.401
403.266
403.133
403.001
402.867
402.733
402.594
402.451
402.306
402.16
402.013
401.871
401.734
401.599
401.465
401.332
401.203
401.077
400.951
400.831
400.718
400.616
400.523
400.437
400.362
400.295
400.235
400.184
400.139
400.102
400.07
400.041
400.016
399.997
399.986
399.993
400.02
400.028
400.017
400.006
402.954
402.948
402.949
402.948
402.948
402.937
402.907
402.896
402.911
402.949
402.978
403.002
403.056
403.139
403.218
403.3
403.393
403.495
403.61
403.754
403.898
404.036
404.168
404.255
404.311
404.344
404.358
404.36
404.342
404.306
404.253
404.184
404.1
404.006
403.902
403.786
403.663
403.533
403.396
403.261
403.128
402.995
402.862
402.727
402.589
402.445
402.3
402.154
402.008
401.866
401.729
401.593
401.459
401.326
401.197
401.071
400.945
400.825
400.712
400.609
400.517
400.431
400.356
400.289
400.229
400.178
400.133
400.096
400.063
400.035
400.01
399.991
399.98
399.989
400.017
400.026
400.016
400.006
402.975
402.96
343.458
374.228
380.984
390.274
393.278
396.97
398.243
400.049
400.718
401.694
402.061
402.59
402.788
403.094
403.21
403.374
403.417
403.495
403.52
403.572
403.596
403.619
403.627
403.628
403.617
403.612
403.591
403.586
403.57
403.564
403.547
403.529
403.504
403.477
403.445
403.414
403.383
403.356
403.329
403.302
403.276
403.246
403.212
403.176
403.137
403.098
403.062
403.031
403.004
402.985
299.091
259.867
224.47
202.772
185.122
169.635
156.972
146.105
136.558
128.512
122.274
116.894
113.812
111.572
111.479
112.326
114.606
119.967
124.071
132.965
137.324
144.717
150.155
155.506
158.318
161.648
163.423
164.705
165.572
166.592
166.796
166.794
166.647
166.248
166.341
166.461
165.83
165.927
165.857
165.18
163.993
163.658
166.945
159.823
132.125
99.9187
78.0473
63.8195
53.5348
45.9218
40.5273
37.4168
35.6912
34.793
34.3278
34.0866
33.9888
33.719
33.3665
32.7429
32.1258
32.001
31.8194
31.6576
31.347
30.9685
30.8575
30.8363
31.022
31.3177
31.3507
31.3454
31.2821
31.034
31.0383
31.0826
31.1554
31.3044
31.5057
31.6101
31.7229
31.8493
31.9118
31.9145
31.8405
31.5983
31.424
31.2544
31.098
30.9485
30.7717
30.5833
30.4377
30.3536
30.3127
30.2918
30.2912
30.2979
30.2855
30.2083
30.0445
29.8845
29.723
29.5778
29.4312
29.2721
29.0963
28.9059
28.7095
28.5321
28.3689
28.2236
28.0916
27.9035
27.769
27.4843
27.2662
26.6604
26.2533
24.4698
299.602
258.542
223.455
200.223
182.677
167.197
154.718
143.515
133.933
125.627
118.42
112.291
107.287
103.469
100.567
98.7272
97.8641
98.4373
99.7704
104.301
107.516
114.176
118.865
126.388
132.143
138.986
143.9
147.694
151.561
154.316
155.962
158
159.309
159.679
160.564
161.579
161.673
162.138
162.439
162.335
162.497
162.77
166.652
165.914
149.184
118.585
94.2519
76.7942
62.9817
52.1277
44.401
39.7485
37.0177
35.539
34.9243
34.7485
34.686
34.3408
33.8504
33.2564
32.732
32.6364
32.3171
31.9592
31.5471
31.125
30.9852
30.9671
31.1484
31.3889
31.3933
31.3764
31.3116
31.0695
31.062
31.1064
31.1751
31.3028
31.5019
31.6043
31.7129
31.8174
31.8517
31.8481
31.7747
31.533
31.3733
31.2139
31.058
30.9192
30.7505
30.5694
30.4251
30.3374
30.2914
30.262
30.2544
30.2558
30.2413
30.165
30.006
29.8502
29.6919
29.549
29.403
29.2445
29.0675
28.8767
28.6756
28.4959
28.3251
28.1748
28.034
27.8401
27.6975
27.3934
27.1663
26.5377
26.1049
24.1773
348.373
373.616
381.244
390.227
393.208
396.899
398.204
400.029
400.727
401.694
402.052
402.561
402.761
403.079
403.206
403.363
403.418
403.491
403.521
403.568
403.597
403.617
403.624
403.625
403.617
403.608
403.59
403.584
403.569
403.562
403.545
403.528
403.503
403.476
403.443
403.413
403.381
403.355
403.328
403.301
403.274
403.245
403.212
403.176
403.137
403.098
403.062
403.03
403.004
402.984
402.973
402.958
402.952
402.947
402.947
402.946
402.946
402.935
402.906
402.895
402.91
402.948
402.976
403.001
403.055
403.138
403.217
403.299
403.392
403.494
403.61
403.753
403.897
404.035
404.166
404.253
404.309
404.343
404.356
404.358
404.34
404.304
404.251
404.183
404.099
404.005
403.9
403.785
403.661
403.531
403.394
403.259
403.126
402.993
402.86
402.726
402.587
402.444
402.299
402.152
402.006
401.864
401.727
401.591
401.457
401.324
401.196
401.069
400.944
400.823
400.71
400.608
400.515
400.43
400.354
400.287
400.227
400.176
400.131
400.094
400.061
400.033
400.008
399.989
399.979
399.987
400.016
400.026
400.016
400.006
402.952
402.947
402.947
402.946
402.946
402.934
402.905
402.895
402.91
402.948
402.976
403.001
403.055
403.138
403.217
403.299
403.392
403.494
403.611
403.753
403.896
404.034
404.165
404.253
404.309
404.342
404.356
404.358
404.34
404.304
404.251
404.182
404.098
404.004
403.9
403.784
403.661
403.531
403.394
403.258
403.125
402.992
402.86
402.725
402.587
402.443
402.298
402.152
402.006
401.864
401.727
401.591
401.457
401.324
401.195
401.069
400.943
400.823
400.71
400.608
400.515
400.429
400.354
400.287
400.227
400.176
400.131
400.093
400.061
400.033
400.008
399.989
399.978
399.987
400.016
400.026
400.017
400.006
402.973
402.958
352.657
373.323
381.003
390.188
393.104
396.854
398.218
400.01
400.741
401.654
402.065
402.509
402.737
403.054
403.22
403.327
403.428
403.482
403.527
403.563
403.596
403.614
403.621
403.622
403.614
403.607
403.589
403.584
403.567
403.561
403.544
403.528
403.502
403.476
403.443
403.414
403.381
403.355
403.328
403.301
403.274
403.244
403.211
403.175
403.137
403.098
403.062
403.031
403.004
402.984
301.284
257.745
223.999
198.949
181.241
166.004
153.517
142.191
132.39
124.054
116.615
110.297
104.622
100.033
95.9801
92.6522
90.0977
88.3485
87.4459
87.8456
89.0008
91.9374
95.0912
99.7154
104.112
111.465
118.001
123.431
130.268
135.074
138.669
143.11
146.479
148.36
150.465
152.71
154.058
155.18
156.418
157.073
158.643
160.295
164.09
168.854
161.039
138.45
113.487
93.7712
76.3188
61.3476
50.3323
43.4585
39.2288
36.8179
35.9485
35.8514
35.8567
35.4024
34.654
34.0642
33.6703
33.6657
33.1919
32.5153
31.9047
31.3865
31.1884
31.1712
31.3459
31.5092
31.4638
31.4177
31.3474
31.1138
31.0919
31.135
31.196
31.3052
31.4975
31.5978
31.7019
31.7718
31.7922
31.7758
31.694
31.4548
31.3079
31.1603
31.0036
30.879
30.7189
30.5468
30.4058
30.3158
30.2648
30.2267
30.2107
30.2064
30.1888
30.1118
29.9588
29.8074
29.6533
29.5136
29.3681
29.2107
29.0323
28.8412
28.634
28.452
28.2705
28.1158
27.961
27.7638
27.6076
27.2888
27.0509
26.4079
25.9621
23.5952
304.772
259.174
225.089
198.245
179.994
165.017
152.572
141.105
131.14
122.798
115.279
109.036
103.209
98.2949
93.8045
89.666
86.4908
83.5846
81.6328
80.1794
79.4846
79.7105
80.6116
82.5361
84.5163
89.1917
92.9279
98.8272
105.396
111.213
116.177
122.381
127.793
131.568
135.211
138.846
142.079
144.076
146.77
148.873
151.483
155.895
159.225
167.126
166.374
155.688
133.453
113.777
93.8918
74.3512
59.0459
49.2011
42.8694
39.0705
37.8368
37.8262
37.9256
37.3271
36.0669
35.3947
35.1572
35.3248
34.6803
33.5273
32.5591
31.8421
31.5285
31.5036
31.6664
31.7359
31.5857
31.4783
31.4004
31.1716
31.1373
31.1786
31.2263
31.3168
31.4938
31.5899
31.683
31.7193
31.7294
31.7013
31.6037
31.3599
31.2282
31.0945
30.9357
30.8275
30.6769
30.5147
30.3791
30.2886
30.2331
30.1863
30.1612
30.1491
30.1269
30.0472
29.9014
29.7547
29.6059
29.4703
29.3257
29.17
28.9901
28.7988
28.5847
28.401
28.2062
28.0486
27.8744
27.6792
27.5003
27.1817
26.9239
26.2888
25.8035
23.2033
355.579
373.201
381.496
390.108
393.087
396.699
398.347
399.893
400.898
401.591
402.108
402.49
402.749
403.021
403.208
403.328
403.42
403.487
403.518
403.568
403.59
403.614
403.616
403.622
403.611
403.609
403.588
403.584
403.566
403.561
403.544
403.527
403.502
403.476
403.443
403.414
403.381
403.355
403.328
403.301
403.273
403.244
403.211
403.175
403.137
403.098
403.062
403.031
403.004
402.984
402.972
402.958
402.952
402.947
402.947
402.946
402.946
402.934
402.905
402.895
402.91
402.948
402.976
403.002
403.056
403.139
403.218
403.299
403.393
403.495
403.612
403.754
403.896
404.034
404.164
404.253
404.308
404.342
404.355
404.358
404.34
404.304
404.251
404.183
404.098
404.004
403.9
403.784
403.661
403.531
403.393
403.258
403.125
402.992
402.859
402.725
402.587
402.443
402.298
402.152
402.006
401.863
401.727
401.591
401.457
401.324
401.195
401.068
400.943
400.822
400.709
400.607
400.515
400.429
400.353
400.287
400.227
400.175
400.131
400.093
400.061
400.033
400.008
399.988
399.978
399.987
400.016
400.026
400.017
400.006
402.952
402.948
402.947
402.946
402.946
402.934
402.905
402.895
402.911
402.948
402.976
403.003
403.057
403.139
403.218
403.299
403.394
403.496
403.613
403.754
403.896
404.033
404.164
404.252
404.308
404.341
404.355
404.358
404.34
404.304
404.251
404.183
404.098
404.004
403.9
403.784
403.661
403.531
403.393
403.258
403.124
402.992
402.859
402.725
402.586
402.443
402.298
402.152
402.006
401.864
401.727
401.591
401.457
401.324
401.195
401.068
400.943
400.822
400.709
400.607
400.515
400.429
400.353
400.287
400.227
400.176
400.131
400.093
400.061
400.033
400.008
399.988
399.978
399.987
400.016
400.026
400.017
400.006
402.972
402.958
357.29
372.504
382.216
389.692
393.573
396.468
398.575
399.717
400.944
401.595
402.112
402.507
402.729
403.039
403.156
403.332
403.392
403.484
403.512
403.565
403.585
403.61
403.613
403.619
403.609
403.608
403.589
403.582
403.564
403.559
403.544
403.526
403.502
403.475
403.443
403.414
403.381
403.354
403.328
403.3
403.273
403.244
403.211
403.175
403.137
403.098
403.063
403.032
403.005
402.984
307.372
261.403
225.556
198.096
179.516
164.674
152.297
140.686
130.602
122.097
114.547
108.263
102.264
97.2606
92.4312
87.8383
84.293
81.0073
78.398
76.2929
74.5647
73.4032
72.8126
72.6712
73.2391
74.8012
76.7992
79.7334
84.5213
88.4292
93.5165
98.6932
105.532
110.383
115.475
120.391
125.562
129.095
133.335
137.77
141.149
148.564
152.791
160.389
166.589
164.595
151.423
133.409
114.229
91.0617
70.9346
57.6778
48.745
43.1924
41.5998
41.7067
41.8579
41.0891
38.8396
37.7606
37.6275
38.0167
37.1893
35.3697
33.7665
32.6701
32.1245
32.0691
32.1958
32.1623
31.8119
31.5879
31.4818
31.2524
31.2155
31.2545
31.2825
31.3472
31.4928
31.5816
31.6482
31.6628
31.6586
31.6141
31.4922
31.2694
31.1473
31.0211
30.8617
30.7667
30.6259
30.4736
30.3448
30.2559
30.1962
30.1415
30.1061
30.0822
30.0545
29.9704
29.8318
29.6907
29.5488
29.4181
29.2754
29.1215
28.9407
28.7496
28.5283
28.3439
28.1337
27.9749
27.7778
27.5907
27.3802
27.0819
26.7809
26.2298
25.5602
23.1716
309.98
261.442
225.429
196.444
177.577
163.025
151.081
139.714
130.149
121.916
114.508
108.111
102.241
96.7423
91.7983
86.9749
83.3981
79.9102
77.0563
74.3572
72.4546
70.1431
68.9915
67.3036
66.7188
66.8003
67.1028
67.8369
69.7746
71.4288
75.0165
79.0076
84.2216
89.2647
95.1025
101.346
108.07
113.603
119.108
125.4
129.566
138.18
144.679
149.968
160.003
164.825
160.023
145.436
131.328
108.019
85.0243
69.8814
58.7912
51.926
50.0978
50.2096
49.9076
48.579
44.8859
42.5549
42.2088
42.4813
41.2724
38.6738
36.0462
34.2691
33.2493
33.0797
33.0983
32.9595
32.2429
31.7739
31.5912
31.3799
31.353
31.391
31.3919
31.4132
31.5061
31.5654
31.5978
31.6003
31.5673
31.514
31.3877
31.1613
31.0498
30.9411
30.7877
30.701
30.5702
30.4267
30.3047
30.2185
30.1549
30.0937
30.0452
30.0052
29.9704
29.8817
29.7492
29.615
29.4829
29.3586
29.2186
29.0666
28.8855
28.6946
28.4668
28.2824
28.0565
27.8969
27.6777
27.5004
27.262
26.9833
26.6389
26.2538
25.0892
356.674
371.285
382.897
389.336
393.741
396.53
398.467
399.978
400.835
401.741
402.079
402.532
402.741
403.027
403.159
403.315
403.389
403.475
403.512
403.559
403.581
403.602
403.609
403.615
403.61
403.608
403.589
403.58
403.562
403.558
403.543
403.526
403.501
403.476
403.443
403.413
403.381
403.354
403.329
403.3
403.272
403.244
403.211
403.175
403.136
403.097
403.062
403.032
403.006
402.985
402.971
402.958
402.953
402.948
402.947
402.946
402.946
402.934
402.906
402.895
402.911
402.948
402.976
403.004
403.059
403.14
403.219
403.3
403.395
403.497
403.614
403.754
403.895
404.033
404.163
404.251
404.307
404.341
404.354
404.358
404.34
404.304
404.252
404.183
404.099
404.004
403.899
403.784
403.661
403.531
403.393
403.257
403.124
402.991
402.859
402.725
402.586
402.442
402.298
402.152
402.006
401.863
401.727
401.59
401.457
401.323
401.195
401.068
400.943
400.822
400.709
400.607
400.514
400.429
400.353
400.286
400.227
400.175
400.131
400.093
400.061
400.033
400.007
399.988
399.978
399.986
400.015
400.026
400.017
400.006
24.5161
11.4338
12.5725
12.5931
12.7191
12.8425
12.9274
13.0074
13.067
13.1204
13.1649
13.2021
13.2317
13.2539
13.2702
13.2786
13.2762
13.2632
13.2444
13.2225
13.1948
13.1609
13.1226
13.081
13.0371
12.9898
12.9364
12.8755
12.8076
12.7328
12.6528
12.5718
12.4922
12.4117
12.3301
12.2491
12.1742
12.1063
12.0432
11.9806
11.9148
11.8481
11.783
11.7187
11.6559
11.5924
11.5263
11.4573
11.3889
11.3256
11.2677
11.2133
11.1601
11.1071
11.054
11.0019
10.9523
10.9052
10.8588
10.8119
10.7647
10.7211
10.6809
10.6436
10.6084
10.575
10.5421
10.5102
10.4796
10.4506
10.4259
10.4029
10.38
10.357
10.3346
10.314
10.2956
10.2791
10.263
10.2472
10.2305
10.2124
10.1909
10.1688
10.1438
10.1186
10.0932
10.0681
10.041
10.0094
9.97389
9.93693
9.89873
9.86057
9.82593
9.80127
9.79951
9.85112
10.0368
10.5108
11.5465
13.5562
12.1469
15.0732
14.1763
14.2847
14.2132
14.2882
14.3858
14.2048
13.9864
13.7363
13.5083
13.2136
13.0702
13.1162
12.9827
12.753
12.557
12.4666
12.4096
12.3684
12.3645
12.4332
12.4964
12.437
12.4228
12.3035
12.2508
12.2808
12.2262
12.1945
12.2441
12.3233
12.36
12.2839
12.4299
12.5984
12.9274
13.3745
13.5309
13.0723
11.1178
10.4215
10.0871
9.82674
9.66342
9.5913
9.56396
9.54157
9.55738
9.64321
9.77612
9.86602
9.9096
9.87747
9.71129
9.84066
9.9311
9.93459
9.90797
9.86968
9.82099
9.71172
9.60794
9.55292
9.55263
9.5906
9.63266
9.59805
9.51088
9.53066
9.60728
9.77442
9.93371
9.99402
9.98013
10.0041
10.1736
10.4488
10.7833
14.9153
19.6791
16.6605
16.2883
15.2422
15.0341
14.7779
14.7273
14.6932
14.7266
14.8241
14.7955
14.6892
14.5211
14.3332
14.3333
14.3971
14.5164
14.6437
14.7645
14.8733
14.9867
15.0302
14.9734
14.8882
14.7936
14.8472
14.9135
14.968
14.8876
14.8556
14.8787
15.1125
15.5506
16.607
18.6668
21.058
22.0008
22.937
23.5653
23.5603
24.1068
24.2611
24.1291
23.9161
23.619
23.3787
23.7337
23.9774
24.0411
24.1576
24.2119
24.2857
24.2293
23.9855
23.8845
23.7863
24.0011
23.7508
23.7965
24.1046
24.3424
24.277
24.1964
24.2007
24.0032
23.7334
23.7464
23.797
23.9064
23.9753
23.9713
24.1105
23.9539
23.9243
23.8777
23.9788
24.1079
24.2175
24.201
24.1992
24.2605
24.3488
24.4042
24.5428
24.4618
24.3594
23.9921
23.7775
23.8431
23.7495
23.7457
23.7294
23.727
23.8962
24.0023
24.0077
23.9404
24.0552
23.9309
23.912
23.8893
24.0808
24.201
24.3131
24.23
24.0742
23.6561
23.4366
23.4169
23.5388
23.6463
23.8856
23.852
23.8154
23.7053
23.7895
24.0926
24.3993
24.6928
25.0363
24.9353
24.6256
24.4716
24.647
24.9651
25.3926
26.1098
26.7523
27.5585
28.5824
29.7174
31.0389
32.2762
33.2343
35.5426
36.7434
37.0508
36.955
37.1436
37.4224
38.1438
39.149
39.7701
40.8653
41.4949
40.9925
40.5482
40.2047
40.1148
40.3345
40.7159
40.9033
40.9081
40.2684
39.5942
39.1677
38.9319
38.9148
39.2865
39.978
40.5987
40.6214
41.1715
42.3872
42.8944
42.8906
42.1417
41.1595
40.1518
38.5058
35.5344
29.8556
24.4623
21.399
19.3049
17.1267
15.4304
13.9532
12.8712
12.0594
11.5329
11.1991
10.9119
10.7279
10.6452
10.6499
10.7323
10.8542
10.9401
10.9653
10.9857
11.0156
10.9862
11.0481
11.2202
11.3901
11.4075
11.3325
11.1781
11.1014
11.1011
11.1567
11.3117
11.5638
11.7646
11.9001
12.1482
12.309
12.3847
12.4237
12.3433
12.32
12.1984
11.9952
11.9444
11.8688
11.7765
11.6594
11.5295
11.3406
11.1694
11.0227
10.9466
10.8543
10.7656
10.6698
10.529
10.433
10.405
10.4313
10.437
10.3243
10.1372
9.98836
9.88977
9.80522
9.72496
9.7125
9.75046
9.69974
9.60767
9.42911
9.31421
9.2233
9.13797
9.10377
9.09225
9.00733
8.92954
8.86012
8.79452
8.7278
8.75168
8.79727
8.80177
8.77245
8.71313
8.71437
8.76298
8.8259
8.92124
8.98361
9.08405
9.23072
9.38595
9.58868
9.85783
10.2006
10.7081
11.1976
11.6466
11.9224
12.1772
12.3846
12.5715
12.8137
13.0892
13.489
14.0402
15.19
16.2463
15.9204
15.5174
15.2374
14.9377
14.5138
14.1512
13.872
13.924
14.4118
15.1669
16.8876
15.4401
15.8315
15.3871
15.3466
15.2548
15.2755
15.4667
15.0395
14.3932
14.3404
14.5584
14.5444
14.4019
14.3526
14.2858
14.4022
14.9614
15.33
15.4211
15.2526
15.0481
14.8851
15.1171
15.2652
15.2132
15.2079
15.07
14.9402
14.8277
14.5343
14.5663
14.9586
15.3108
15.3924
15.303
15.2953
15.3957
15.4259
15.3237
15.2559
15.1133
14.6244
14.4319
14.5236
14.657
14.5942
14.6148
14.5974
14.6518
14.8939
15.1553
15.1155
15.0074
15.2685
15.6132
15.7841
15.6765
15.4185
15.5605
15.7598
15.9323
15.8526
15.6307
15.4802
15.461
15.5055
15.5396
15.6994
15.8504
15.9434
16.0359
16.4333
18.0382
20.7146
19.9106
19.7726
18.9604
18.8822
18.2468
18.273
18.7555
18.5524
18.5825
18.5093
18.0918
17.2052
19.2009
393.27
396.658
398.407
400.133
401.015
401.801
402.161
402.533
402.8
403.017
403.149
403.31
403.394
403.454
403.514
403.551
403.573
403.593
403.601
403.607
403.604
403.599
403.589
403.575
403.559
403.55
403.536
403.521
403.497
403.472
403.441
403.41
403.379
403.351
403.327
403.298
403.269
403.24
403.208
403.172
403.133
403.095
403.061
403.032
403.007
402.988
402.973
402.961
402.954
402.949
402.948
402.947
402.945
402.932
402.905
402.897
402.914
402.949
402.976
403.008
403.065
403.142
403.221
403.301
403.396
403.501
403.617
403.755
403.893
404.029
404.157
404.247
404.305
404.338
404.353
404.357
404.34
404.305
404.253
404.184
404.101
404.006
403.9
403.784
403.659
403.531
403.392
403.257
403.123
402.99
402.858
402.724
402.585
402.442
402.298
402.152
402.006
401.864
401.729
401.592
401.458
401.324
401.195
401.068
400.943
400.823
400.71
400.608
400.515
400.429
400.354
400.286
400.227
400.175
400.131
400.093
400.06
400.032
400.007
399.987
399.976
399.982
400.01
400.027
400.019
400.006
400.006
400.005
400.005
400.005
400.005
400.005
400.005
256.438
225.79
175.226
149.054
134.396
126.526
119.254
112.639
106.651
100.76
96.419
92.4946
88.1815
87.9839
84.1317
80.3109
77.2816
74.4971
71.4587
68.9968
66.6692
64.6059
62.1917
60.9007
59.5577
57.911
56.7261
56.0159
54.7874
54.079
53.7867
54.1747
54.0163
53.775
53.9074
54.3005
55.5655
56.414
59.6485
61.986
66.0141
71.5144
76.7102
83.2989
96.0331
106.667
116.96
126.54
134.799
133.447
130.501
127.665
124.847
120.358
116.741
106.281
99.7698
92.0408
79.1775
74.3621
68.2951
64.1049
59.0911
50.9871
45.1912
40.6823
38.501
37.5038
37.0549
35.0239
33.0463
32.2213
32.0603
32.2926
32.3744
32.1908
32.039
31.7746
31.5919
31.4454
31.2874
31.0033
30.9031
30.9053
30.8722
30.8245
30.7251
30.6009
30.5008
30.4051
30.2774
30.161
30.0844
30.0093
29.9393
29.8306
29.7277
29.6523
29.5615
29.449
29.3404
29.2508
29.1522
29.0223
28.8798
28.6969
28.5059
28.2592
28.078
27.801
27.6436
27.372
27.2093
26.9592
26.6217
26.39
26.0052
25.5661
23.9089
23.6174
23.2902
22.5883
22.2393
22.6392
23.074
22.7456
21.9951
20.157
83.083
79.7901
12.5076
19.4229
25.4372
19.3437
401.936
402.634
402.849
400.018
400.014
24.5077
23.7374
16.72
76.6568
12.554
12.378
12.4274
12.8046
12.7143
12.9796
12.9061
13.0981
13.047
13.1732
13.1405
13.2187
13.1994
13.2286
13.2305
13.197
13.2155
13.1499
13.1765
13.0813
13.1179
12.9967
13.0407
12.8923
12.9479
12.7645
12.8322
12.6138
12.6909
12.4565
12.5347
12.2993
12.378
12.1473
12.2211
12.0139
12.0787
11.8875
11.951
11.7568
11.8224
11.6258
11.6905
11.4985
11.5622
11.3726
11.4348
11.2567
11.3131
11.1482
11.2019
11.0411
11.0943
10.9394
10.9894
10.8444
10.8911
10.7547
10.799
10.6736
10.7128
10.6017
10.6366
10.5359
10.5684
10.4756
10.5047
10.4224
10.4481
10.3733
10.3973
10.329
10.3504
10.2922
10.3097
10.2614
10.2764
10.2285
10.2457
10.1894
10.2105
10.1442
10.1681
10.0926
10.1188
10.0399
10.0666
9.97458
10.0089
9.89902
9.93763
9.82535
9.86072
9.78156
9.79622
9.88334
9.79879
10.7763
10.1381
18.5027
18.4161
19.087
18.3114
18.2681
18.409
18.3065
18.4596
18.4867
17.9379
18.304
17.3155
17.5941
16.9608
17.0976
16.8288
16.8557
16.6885
16.7856
16.5002
16.5835
16.4769
16.4877
16.3726
16.4677
16.3035
16.2567
16.5032
16.481
16.5726
16.5449
16.6568
16.6197
16.6794
16.5817
17.6495
17.0144
17.6692
18.0701
13.5963
14.9192
12.8502
13.0649
12.7127
12.7513
12.6382
12.6658
12.3861
12.5607
12.0865
12.1784
12.1237
12.0905
12.1663
12.2413
12.206
12.1639
12.3705
12.2862
12.5615
12.451
12.6271
12.6371
12.4891
12.5509
12.404
12.4327
12.4533
12.4473
12.1507
12.3488
12.0424
12.0078
12.264
12.1269
12.387
22.206
21.9622
23.3604
20.3123
20.6832
19.6787
19.8963
19.494
19.5598
19.6009
19.4841
19.7742
19.6831
19.811
19.8555
19.7488
19.8012
19.5384
19.6336
19.4879
19.4556
19.6664
19.5426
19.9059
19.7965
20.0035
19.9704
20.2758
20.1658
20.4394
20.3609
21.4996
20.7043
26.1787
23.2268
31.4902
29.8384
32.3133
32.153
31.8991
32.2256
31.7643
31.6943
32.3431
32.008
32.5166
32.5459
32.2931
32.4522
31.6415
32.0067
31.4134
31.4604
31.7434
31.5564
32.1952
31.9347
32.1368
32.1995
32.1415
32.0636
32.4453
32.3853
32.9894
32.7527
33.1199
33.1521
33.044
33.0777
32.9833
33.0599
33.042
33.0626
32.9251
33.0836
32.7242
32.8483
32.6386
32.6618
32.6124
32.6107
32.264
32.5082
32.3451
32.3179
32.8664
32.6576
32.9653
32.9277
33.0624
33.1061
32.8873
33.0766
32.7714
32.8331
32.8306
32.8199
33.0046
32.9772
32.8305
32.9533
32.6906
32.7862
32.7266
32.7087
33.0527
32.9573
33.1701
33.1031
33.0404
33.1601
32.9792
33.0453
32.7791
32.926
32.4765
32.5761
32.6913
32.6056
33.8499
33.0748
35.3734
34.6847
36.709
35.8072
38.8559
37.6401
40.4773
39.7424
41.6671
40.9383
43.8936
42.639
49.786
46.1016
52.6171
52.0379
51.6557
52.3598
52.1917
51.3274
53.4043
53.1346
53.963
53.5979
54.8895
54.1702
57.7429
55.9949
58.4284
58.6371
57.1842
58.0796
55.5313
55.9961
55.487
55.3455
56.5564
55.9174
56.802
56.8527
55.3932
56.2107
55.0497
55.5424
52.8247
54.0998
49.3889
51.9383
37.0745
44.5896
23.2952