/*--------------------------------*- C++ -*----------------------------------*\
| =========                 |                                                 |
| \\      /  F ield         | OpenFOAM: The Open Source CFD Toolbox           |
|  \\    /   O peration     | Version:  2212                                  |
|   \\  /    A nd           | Website:  www.openfoam.com                      |
|    \\/     M anipulation  |                                                 |
\*---------------------------------------------------------------------------*/
FoamFile
{
    version     2.0;
    format      ascii;
    arch        "LSB;label=32;scalar=64";
    class       volScalarField;
    location    "0.0263";
    object      p;
}
// * * * * * * * * * * * * * * * * * * * * * * * * * * * * * * * * * * * * * //

dimensions      [1 -1 -2 0 0 0 0];

internalField   nonuniform List<scalar> 
2308
(
612.944
637.809
606.36
601.543
608.051
605.108
592.725
599.417
606.887
600.259
597.19
594.758
593.929
593.052
592.359
591.848
591.032
591.571
592.51
594.512
595.949
596.813
597.595
598.504
600.103
602.737
605.754
609.715
597.383
590.873
616.204
623.453
631.589
639.872
647.18
652.264
655.339
657.019
657.848
658.454
659.364
660.529
661.651
662.22
661.979
663.669
664.275
663.208
661.264
659.392
657.968
657.241
656.588
655.194
652.479
647.706
640.501
631.833
623.195
615.235
608.252
602.987
598.459
595.323
592.73
591.246
590.048
588.733
588.274
588.381
588.489
660.94
661.457
592.508
595.608
598.625
600.179
601.095
602.173
603.795
605.88
608.38
612.027
616.853
623.007
630.21
637.861
644.897
650.16
653.606
655.711
656.941
657.754
658.587
659.447
659.92
659.773
659.238
591.339
658.641
591.24
589.062
659.2
662.827
664.509
663.719
661.168
658.453
656.343
655.279
654.683
653.615
651.313
646.886
639.995
631.318
622.328
614.124
607.159
601.502
596.994
593.568
590.776
588.607
586.7
585.096
584.357
584.223
584.757
599.208
599.847
600.064
600.712
588.373
590.507
595.469
600.152
602.708
604.266
605.676
607.171
608.722
610.484
612.968
616.644
621.621
627.755
634.618
641.161
646.386
650.144
652.738
654.581
655.884
656.992
657.859
658.028
657.458
656.625
656.119
655.57
657.6
658.965
658.283
602.427
654.949
600.385
603.2
590.593
604.1
605.735
592.709
586.299
655.283
656.696
656.85
654.547
649.431
642.116
649.107
654.006
659.104
662.215
662.432
659.899
656.571
653.89
652.375
651.696
650.881
648.941
644.973
638.576
630.085
621.117
612.849
605.839
600.128
595.744
592.282
589.351
586.78
584.394
582.405
581.285
580.972
581.464
588.105
610.949
608.723
596.477
592.845
589.392
586.519
584.926
585.112
586.29
589.552
595.898
601.577
604.903
607.097
608.883
610.163
611.001
611.806
613.186
615.673
619.473
624.509
630.328
636.269
641.323
645.242
648.195
650.571
652.488
654.155
655.434
655.792
655.293
654.514
654.203
654.005
654.164
598.185
602.772
610.237
606.903
610.891
603.17
588.824
591.679
634.918
642.501
647.068
652.899
657.32
659.001
657.296
653.899
650.955
649.129
648.37
647.735
646.099
642.526
636.558
628.509
619.78
611.671
604.772
599.157
594.967
591.647
588.718
586.001
583.395
581.168
579.616
579.056
579.226
583.109
606.064
607.514
595.838
591.787
587.923
584.925
583.528
584.004
585.754
590.071
596.826
602.862
607.004
609.876
611.797
612.586
612.56
612.438
612.89
614.389
617.171
621.152
626.005
631.099
635.787
639.658
642.823
645.532
647.962
650.207
652.084
653.16
653.311
652.948
653.032
653.262
653.956
655.67
655.546
656.246
657.064
657.25
656.129
653.695
649.68
645.225
607.013
597.982
607.207
604.222
610.984
609.161
580.64
585.861
605.99
605.56
609.512
606.58
595.893
591.981
588.234
585.566
584.428
585.059
587.47
592.37
599.114
605.153
609.802
612.81
614.193
614.218
613.374
612.597
612.468
613.315
615.307
618.399
622.316
626.612
630.766
634.379
637.487
640.301
643.007
645.678
648.138
649.945
650.995
651.358
652.087
652.94
654.313
656.296
656.351
655.222
655.005
655.672
656.221
654.403
648.975
642.807
637.832
635.107
632.886
641.503
629.651
636.459
640.024
645.864
650.889
653.85
653.423
650.626
647.821
645.899
645.062
644.485
643.098
639.845
634.263
626.829
618.562
610.809
604.235
599.112
595.081
591.835
589.003
586.34
583.731
581.423
579.763
578.808
578.669
607.453
583.111
589.713
589.999
606.314
607.164
606.377
605.997
612.385
599.332
601.946
598.172
594.482
591.059
588.947
588.196
589.31
592.438
597.518
603.671
609.294
613.467
615.6
615.839
615.182
613.974
612.817
612.362
612.777
614.212
616.577
619.658
623.131
626.591
629.751
632.615
635.32
638.033
640.891
643.741
646.193
648.072
649.365
650.861
652.396
654.361
656.685
656.651
661.974
661.413
660.208
659.569
660.277
660.311
660.293
660.552
660.812
659.079
655.821
652.369
649.662
630.681
639.898
626.815
631.99
633.91
639.164
644.09
647.788
648.625
647.007
644.701
642.919
641.993
641.336
640.073
637.06
631.937
625.073
617.546
610.357
604.317
599.462
595.788
592.856
590.373
587.912
585.501
583.265
581.47
580.393
580.109
579.668
607.045
608.919
605.973
581.841
608.458
608.987
608.986
593.441
595.226
594.423
586.589
607.533
609.168
652.626
653.873
654.316
656.267
658.064
661.025
657.232
647.547
638.584
634.497
635.203
637.888
638.003
636.618
648.876
629.493
640.006
625.706
629.312
629.384
633.315
637.672
641.615
643.472
643.26
641.808
640.318
639.293
638.469
637.089
634.298
629.585
623.474
616.763
610.391
604.863
600.634
597.482
595.072
593.174
591.362
589.49
587.551
585.756
584.628
584.12
580.853
610.683
607.241
610.298
608.495
602.221
598.798
596.023
594.662
594.488
596.258
599.686
604.286
609.33
613.683
616.672
617.545
617.157
616.089
614.652
613.337
612.707
612.827
613.862
615.655
618.019
620.707
623.419
625.996
628.44
630.862
633.421
636.269
639.246
642.153
644.744
646.971
649.225
651.435
653.76
656.534
656.073
661.646
651.989
610.506
608.372
600.93
590.721
609.356
585.14
636.17
649.662
629.151
640.835
625.542
627.945
626.169
628.574
632.054
635.893
638.532
639.656
639.311
638.178
637.065
635.934
634.292
631.547
627.294
621.957
616.269
610.914
606.359
602.817
600.271
598.417
597.054
595.776
594.376
592.813
591.304
590.277
589.569
584.486
609.672
608.205
669.492
671.668
671.97
667.727
668.245
668.41
668.344
666.284
675.776
685.785
687.814
684.675
678.849
671.757
667.251
669.305
612.483
611.356
611.682
612.173
612.425
605.914
604.824
631.391
606.312
607.36
604.379
602.453
601.662
601.902
603.82
606.846
610.52
614.31
617.522
619.178
619.222
618.454
617.105
615.556
614.149
613.44
613.351
614.038
615.37
617.124
619.11
621.149
623.145
625.122
627.181
629.458
632.171
635.131
638.24
641.468
644.492
647.405
650.265
652.549
655.928
654.644
660.365
652.148
665.045
600.998
582.511
595.102
612.214
608.298
609.679
607.791
599.94
597.493
604.081
589.408
590.002
603.349
604.326
613.099
597.74
671.059
639.274
651.966
629.305
643.109
625.638
627.551
623.834
624.774
627.234
630.873
634.143
636.494
637.268
636.643
635.371
633.834
631.855
629.015
625.226
620.778
616.174
611.92
608.354
605.611
603.667
602.329
601.381
600.494
599.502
598.31
597.089
596.063
595.582
595.711
611.287
614.733
613.723
640.639
636.771
637.597
640.336
649.162
655.038
656.449
658.399
652.78
634.761
622.437
618.419
620.411
623.418
636.036
638.309
630.531
645.905
599.074
613.505
614.283
615.304
615.983
616.82
609.777
609.8
615.17
612.789
610.73
609.35
608.855
609.261
610.78
613.073
615.723
618.36
620.397
620.96
620.718
619.733
618.279
616.685
615.295
614.487
614.258
614.583
615.422
616.646
618.058
619.557
621.087
622.675
624.417
626.457
628.953
631.822
634.941
638.718
642.224
645.742
649.376
650.958
655.432
652.619
659.024
651.282
661.609
641.299
614.535
585.256
612.518
617.727
615.691
613.703
585.291
608.812
610.867
609.279
596.626
616.125
609.682
597.63
601.808
608.266
601.767
601.896
601.382
601.426
601.8
602.665
603.678
604.598
605.317
605.884
606.471
607.361
608.719
610.66
613.234
616.374
619.921
623.534
626.927
629.879
632.311
634.316
635.702
635.734
633.889
630.518
626.714
623.314
621.94
622.565
628.184
626.403
646.826
629.053
655.226
636.176
679.208
637.546
601.134
676.421
681.481
688.237
691.169
691.651
677.01
681.706
673.804
683.3
669.404
709.263
716.252
724.806
717.379
709.761
700.832
694.489
713.363
719.252
719.013
612.59
590.297
619.282
599.346
600.181
600.998
601.759
602.513
602.585
602.837
603.244
610.839
600.209
621.092
613.42
614.544
619.648
617.015
614.598
589.088
616.787
597.88
615.549
616.633
617.896
619.016
620.479
619.697
627.575
622.229
620.776
619.16
617.425
616.048
615.551
615.616
616.449
618.012
619.751
621.513
622.429
622.675
622.191
621.01
619.522
617.932
616.531
615.528
615.093
615.047
615.483
616.268
617.256
618.362
619.575
620.923
622.494
624.406
626.743
629.547
632.745
636.748
640.654
644.564
649.092
649.255
655.58
649.935
658.443
647.836
660.7
636.644
674.753
617.5
621.754
626.353
597.19
626.756
587.278
607.497
629.093
599.127
610.035
609.293
611.893
621.705
617.624
621.057
602.184
617.878
596.548
604.288
610.206
626.572
620.263
603.746
603.359
603.204
606.75
606.805
607.201
607.915
608.713
609.441
609.89
610.194
610.563
611.091
611.881
613.109
614.786
616.931
619.497
622.35
625.393
628.474
631.41
633.943
635.343
634.686
631.913
627.739
623.555
620.545
620.113
622.344
629.863
629.725
647.062
633.027
652.473
641.048
678.785
644.119
707.61
623.379
621.61
620.129
618.705
617.384
616.32
612.507
608.429
595.644
621.779
625.433
603.729
601.395
614.448
614.958
596.502
596.75
611.074
602.188
614.167
599.439
598.864
598.831
615.335
601.022
599.04
594.648
588.958
587.643
586.984
618.158
624.58
622.946
583.529
625.401
551.926
593.591
573.8
583.873
593.189
618.642
616.837
563.761
587.689
596.161
616.989
600.014
600.639
601.31
601.973
602.607
603.187
605.422
591.262
619.182
627.294
628.169
616.177
605.465
600.488
609.651
608.578
610.899
612.371
599.324
590.598
609.56
598.864
610.46
628.974
628.367
627.655
626.794
625.491
623.655
622.038
621.249
620.856
621.018
621.817
622.86
623.953
624.436
624.407
623.617
622.324
620.662
618.944
617.358
616.066
615.318
615.031
615.162
615.61
616.311
617.223
618.319
619.631
621.217
623.139
625.477
628.298
631.709
635.719
640.041
643.888
649.366
647.901
656.463
647.303
658.667
643.246
664.037
628.023
679.317
592.49
604.063
600.89
608.584
623.831
602.591
614.86
596.939
630.898
602.88
597.823
608.74
606.338
627.743
625.631
623.659
621.957
620.416
618.931
617.703
616.628
614.702
615.735
618.613
631.517
614.074
625.668
611.682
611.669
611.685
611.82
612.153
612.709
613.35
613.826
614.045
614.18
614.307
614.556
614.945
615.537
616.46
617.757
619.5
621.713
624.452
627.674
631.088
634.168
635.466
634.166
630.599
625.822
621.388
618.919
619.508
623.331
631.885
633.376
647.104
636.77
650.837
648.942
683.055
653.816
705.263
629.061
604.654
604.08
603.793
603.724
607.462
607.565
632.606
626.366
619.442
602.852
608.566
605.459
593.276
629.691
606.022
596.062
621.331
625.455
628.025
626.692
604.39
601.813
613.44
609.643
596.629
598.483
603.694
599.526
600.843
611.658
612.507
599.938
594.646
604.569
617.01
631.457
611.36
610.545
608.583
622.758
625.436
599.839
600.298
600.763
601.271
601.823
602.386
602.936
603.459
603.926
615.993
593.646
610.605
609.719
606.428
596.194
623.966
632.423
632.916
633.181
632.756
631.226
629.025
627.433
626.163
625.273
624.733
624.742
625.308
625.984
626.331
626.104
625.123
623.527
621.55
619.462
617.51
615.848
614.646
614.058
613.919
614.213
614.846
615.763
616.948
618.426
620.225
622.377
624.934
627.999
631.594
635.663
640.361
643.976
650.151
647.515
657.834
646.927
659.229
644.659
666.373
631.478
680.749
589.288
712.804
736.275
742.966
746.775
747.303
742.894
728.82
724.583
712.639
737.422
716.024
773.432
770.508
772.615
760.572
770.868
763.741
763.836
777.25
777.922
772.074
767.728
773.091
770.484
728.132
625.069
600.881
614.734
613.824
608.089
631.384
599.463
596.923
600.021
593.589
629.403
627.116
625.01
623.261
621.666
620.126
618.769
617.57
616.519
615.414
612.942
613.648
614.244
601.428
623.447
628.01
603.151
611.985
592.428
597.86
612.441
602.364
612.239
600.986
599.07
609.54
619.267
603.636
607.129
612.154
618.418
625.695
633.437
635.777
636.029
598.304
616.984
606.374
605.444
604.706
604.275
604.145
604.31
610.845
597.036
611.292
609.446
600.99
601.068
601.208
601.477
601.798
602.179
602.612
603.081
603.57
604.061
604.52
604.901
597.287
607.407
612.832
610.841
601.845
610.096
604.21
633.577
635.428
637.081
638.397
638.033
636.157
633.906
632.12
630.388
628.912
627.68
627.271
627.363
627.778
628.025
627.684
626.542
624.66
622.268
619.646
617.137
614.957
613.248
612.312
612.003
612.191
612.841
613.866
615.261
617.033
619.206
621.8
624.818
628.249
632.079
636.367
641.236
644.69
650.989
648.433
658.186
647.686
659.603
647.677
663.998
638.051
673.422
603.152
701.263
570.539
498.585
498.22
496.345
497.707
483.359
478.94
476.263
486.206
521.656
532.79
506.513
453.416
441.347
477.106
480.419
482.245
491.281
488.282
461.601
460.521
484.429
506.527
528.032
526.789
540.693
588.726
708.203
637.969
697.584
659.645
693.174
657.218
650.704
639.156
647.218
635.775
634.319
625.529
620.261
618.624
620.306
624.739
629.899
634.056
635.883
634.732
631.193
627.365
624.028
621.536
619.802
618.739
618.136
617.805
617.635
617.568
617.587
617.638
617.672
617.597
617.379
616.96
616.576
616.332
616.178
616.123
615.923
616.366
616.964
618.844
600.671
620.791
624.041
630.701
634.348
603.6
640.449
609.388
612.886
597.595
607.04
622.863
618.198
621.99
624.31
602.418
605.23
612.635
610.489
612.758
605.688
602.641
610.421
609.077
601.588
603.688
599.09
601.334
602.58
609.903
603.872
611.571
610.339
611.374
603.878
623.802
620.624
602.137
614.447
615.875
617.128
618.233
619.564
620.943
622.445
624.007
625.652
627.543
629.55
609.594
623.739
598.553
640.325
639.387
632.802
624.606
617.239
610.84
605.999
602.058
627.582
607.542
595.548
595.48
595.688
596.181
603.531
598.141
614.15
604.573
614.59
608.386
622.055
607.193
606.089
605.196
604.609
604.4
604.561
605.173
611.034
610.341
632.102
627.138
624.252
622.267
620.634
619.77
619.484
619.468
619.723
619.963
620.129
620.274
620.468
620.635
620.681
620.578
620.375
620.196
620.027
619.864
619.714
619.612
619.719
620.333
621.699
623.955
627.365
631.486
635.399
636.414
634.221
629.762
624.428
620.298
619.397
621.963
628.417
636.496
637.512
645.798
640.74
650.883
663.894
706.907
657.117
689.064
650.51
696.054
632.291
606.957
608.85
795.777
801.778
811.326
820.247
827.243
835.326
839.889
843.565
853.877
879.94
905.995
923.522
921.566
925.949
918.831
903.26
897.144
912.835
927.008
925.43
916.616
913.277
901.999
880.522
876.662
826.274
828.43
785.189
596.231
602.272
602.166
602.166
602.272
602.476
602.759
603.108
603.51
603.953
604.426
604.883
605.279
605.62
597.826
598.978
600.749
602.468
632.902
635.374
637.901
640.424
642.7
642.572
640.488
638.161
636.053
633.798
631.682
629.958
629.144
629.094
629.321
629.476
629.079
627.793
625.623
622.805
619.677
616.593
613.843
611.654
610.361
609.883
609.947
610.624
611.776
613.386
615.483
618.107
621.242
624.802
628.701
632.884
637.445
642.246
646.05
652.033
649.877
657.951
648.398
660.896
649.954
666.538
641.657
675.803
613.148
703.105
603.045
759.202
609.386
611.623
603.226
606.147
617.682
620.994
600.338
608.272
609.244
608.875
631.516
608.722
604.723
645.617
645.165
640.222
632.168
623.925
616.401
610.31
605.343
601.214
595.605
590.205
595.269
594.753
594.648
595.056
629.448
613.974
615.827
617.434
618.777
620.07
621.432
622.849
624.317
625.832
627.505
604.137
617.609
619.867
604.753
610.397
610.442
605.472
608.017
641.573
636.676
631.544
627.327
624.406
622.927
622.028
621.752
621.715
621.992
622.31
622.684
622.942
622.992
623.057
623.087
622.954
622.663
622.301
622.02
621.757
621.459
621.111
620.735
620.497
620.789
621.951
624.05
627.441
631.741
635.93
636.909
634.553
629.988
624.595
620.966
620.691
624.053
631.136
638.521
639.204
641.655
641.844
650.19
666.96
716.041
654.527
678.553
661.922
704.704
597.804
742.481
609.383
607.811
606.557
605.502
604.771
604.478
604.658
605.421
605.9
610.602
607.114
607.992
608.132
604.263
613.716
604.621
596.984
598.45
600.266
602.299
606.242
611.569
603.056
602.562
602.19
601.991
601.968
602.091
602.307
602.6
602.957
603.361
603.795
604.31
604.889
605.551
606.388
608.697
10.3383
11.3797
10.5923
11.3718
10.9492
11.8009
11.0842
11.3958
10.7463
11.05
11.319
11.7222
12.0912
13.063
13.892
13.2251
11.7082
11.2511
10.8384
10.8051
11.4341
12.2547
11.5873
10.9419
10.3607
11.0575
10.7437
11.5427
11.5305
15.7618
633.8
636.601
639.537
642.521
645.519
646.327
644.346
641.279
638.527
636.03
633.462
631.395
630.452
630.306
630.469
630.569
630.148
628.747
626.325
623.174
619.657
616.121
612.878
610.257
608.652
607.975
607.925
608.602
609.861
611.674
614.072
617.089
620.696
624.758
629.107
633.632
638.422
643.244
647.388
652.427
650.467
658.785
649.013
661.389
652.779
668.346
641.342
676.949
603.395
694.675
562.699
729.628
12.565
606.818
609.152
605.766
615.993
607.411
811.717
577.43
635.759
631.551
19.0357
2947.06
2863.26
2614.05
2910.31
2694.51
2777.16
2722.34
2737.72
2684.95
2785.77
2715.74
2760.63
2757.92
2674.46
2711.05
2637.3
2655.02
2656.37
2642.76
2726.65
2650.62
2852.65
2708.19
2842.48
2633.59
2837.72
2594.64
2933.5
2622.45
800.54
14.6898
2856.92
2510.57
704.73
531.779
689.512
599.838
670.147
641.785
661.2
656.692
659.771
650.031
652.588
650.863
643.844
648.223
634.046
639.018
624.664
629.285
616.463
620.317
610.645
613.23
607.373
608.696
606.852
606.726
609.422
607.671
615.87
612.325
623.352
619.643
629.16
626.65
631.078
630.608
630.808
630.979
631.973
630.944
637.111
634.259
642.886
639.589
648.396
646.923
643.324
646.37
637.022
640.157
631.442
633.963
627.376
629.262
624.264
625.745
621.693
622.93
619.087
620.401
616.03
617.693
612.099
613.983
608.202
609.99
605.675
606.864
604.492
604.856
605.935
604.776
608.999
607.599
608.084
606.731
607.115
606.275
606.511
605.913
606.086
605.688
605.78
605.668
605.633
606.036
605.774
605.966
606.578
607.184
604.486
608.643
610.53
604.577
607.356
599.659
601.85
596.296
597.648
594.892
595.226
594.247
594.296
595.892
594.7
601.112
597.97
610.291
605.303
623.692
616.231
640.347
631.916
649.722
647.472
641.511
647.056
630.768
635.593
624.346
627.252
622.649
622.759
622.762
622.586
623.598
623.207
624.45
624.106
624.497
624.459
624.181
624.43
623.294
623.735
622.647
622.965
621.843
622.282
620.914
621.352
622.039
620.972
627.311
624.065
635.96
631.597
634.849
637.273
625.124
630.355
621.925
621.852
632.934
625.704
639.293
638.968
642.232
641.205
672.565
645.971
656.911
707.838
674.372
673.71
721.104
609.551
610.855
605.413
598.224
2474.14
607.654
2387.08
599.936
611.462
611.71
611.623
611.872
611.897
611.968
611.96
593.945
599.212
606.883
607.942
606.087
587.604
595.068
590.197
607.983
610.165
608.951
609.847
612.279
611.095
611.849
614.575
613.342
613.858
616.933
615.586
598.459
610.445
610.561
613.183
606.393
604.708
613.947
599.685
604.528
605.437
616.128
599.761
591.234
611.951
620.989
597.016
635.702
596.366
626.798
598.898
610.158
598.807
596.132
600.475
607.811
599.529
610.836
595.727
595.706
597.066
604.845
610.992
600.041
611.935
631.423
644.836
602.251
599.587
604.593
630.255
605.703
613.755
596.974
607.709
633.62
592.539
599.233
629.351
609.295
607.872
595.098
603.291
632.499
)
;

boundaryField
{
    wall
    {
        type            zeroGradient;
    }
    outlet
    {
        type            fixedValue;
        value           uniform 1e-05;
    }
    inlet
    {
        type            fixedValue;
        value           uniform 612;
    }
    frontAndBackPlanes
    {
        type            empty;
    }
}


// ************************************************************************* //
