/*--------------------------------*- C++ -*----------------------------------*\
| =========                 |                                                 |
| \\      /  F ield         | OpenFOAM: The Open Source CFD Toolbox           |
|  \\    /   O peration     | Version:  2212                                  |
|   \\  /    A nd           | Website:  www.openfoam.com                      |
|    \\/     M anipulation  |                                                 |
\*---------------------------------------------------------------------------*/
FoamFile
{
    version     2.0;
    format      ascii;
    arch        "LSB;label=32;scalar=64";
    class       volScalarField;
    location    "4.2e-05";
    object      T;
}
// * * * * * * * * * * * * * * * * * * * * * * * * * * * * * * * * * * * * * //

dimensions      [0 0 0 1 0 0 0];

internalField   nonuniform List<scalar> 
37920
(
149.735
149.715
149.61
149.51
149.455
149.43
149.468
149.522
149.53
149.486
149.409
149.36
149.344
149.365
149.43
149.469
149.485
149.466
149.412
149.317
149.193
149.066
148.902
148.694
148.449
148.121
148.089
147.936
148.134
149.274
149.508
149.374
149.264
148.966
148.907
148.723
148.718
148.584
148.58
148.505
148.567
148.539
148.755
148.904
149.715
150.246
160.068
163.108
163.063
162.956
162.852
162.777
162.723
162.704
162.691
162.652
162.583
162.502
162.443
162.407
162.39
162.394
162.383
162.365
162.322
162.248
162.137
161.992
161.851
161.69
161.488
161.283
161.003
160.934
160.771
160.839
161.537
161.652
161.515
161.378
161.114
161.011
160.823
160.781
160.641
160.617
160.499
160.521
160.436
160.586
160.616
161.206
162.439
173.786
156.136
156.108
156.047
155.995
155.951
155.91
155.871
155.837
155.805
155.769
155.736
155.709
155.694
155.676
155.658
155.639
155.638
155.622
155.587
155.519
155.432
155.347
155.276
155.171
155.067
154.917
154.861
154.704
154.665
154.877
154.851
154.723
154.634
154.485
154.411
154.292
154.285
154.191
154.206
154.089
154.114
154.007
154.076
154.029
154.465
157.055
169.111
155.962
155.933
155.879
155.838
155.796
155.755
155.704
155.661
155.629
155.602
155.58
155.559
155.546
155.522
155.494
155.474
155.473
155.46
155.434
155.377
155.307
155.235
155.189
155.121
155.049
154.953
154.886
154.74
154.645
154.654
154.589
154.47
154.387
154.276
154.203
154.108
154.1
154.023
154.035
153.924
153.938
153.824
153.857
153.77
154.077
156.433
169.023
155.224
155.199
155.161
155.128
155.087
155.039
154.975
154.925
154.894
154.877
154.866
154.847
154.83
154.798
154.757
154.731
154.73
154.714
154.683
154.626
154.561
154.506
154.461
154.407
154.355
154.308
154.237
154.12
153.986
153.853
153.746
153.63
153.556
153.458
153.391
153.305
153.312
153.223
153.249
153.129
153.153
153.019
153.039
152.933
153.25
155.038
167.225
155.089
155.068
155.038
155.008
154.967
154.915
154.846
154.793
154.765
154.753
154.747
154.73
154.712
154.676
154.63
154.604
154.602
154.588
154.555
154.5
154.439
154.393
154.35
154.305
154.263
154.227
154.157
154.056
153.904
153.704
153.587
153.475
153.401
153.316
153.246
153.171
153.174
153.089
153.109
153
153.015
152.879
152.89
152.775
153.044
154.597
166.681
154.953
154.937
154.916
154.889
154.844
154.787
154.716
154.665
154.639
154.633
154.63
154.614
154.592
154.554
154.504
154.478
154.477
154.463
154.428
154.372
154.314
154.275
154.231
154.19
154.154
154.128
154.055
153.966
153.812
153.576
153.45
153.346
153.267
153.193
153.121
153.051
153.051
152.973
152.991
152.883
152.893
152.76
152.77
152.646
152.818
154.286
166.091
154.911
154.897
154.88
154.854
154.807
154.748
154.676
154.626
154.601
154.598
154.596
154.58
154.557
154.517
154.466
154.441
154.44
154.426
154.391
154.334
154.279
154.242
154.198
154.158
154.125
154.102
154.027
153.945
153.789
153.538
153.407
153.308
153.228
153.16
153.087
153.018
153.016
152.942
152.961
152.852
152.86
152.728
152.736
152.608
152.741
154.165
165.88
154.892
154.878
154.862
154.836
154.786
154.727
154.656
154.606
154.583
154.581
154.579
154.564
154.539
154.498
154.447
154.422
154.421
154.407
154.371
154.313
154.262
154.224
154.181
154.139
154.111
154.089
154.012
153.932
153.777
153.515
153.382
153.29
153.209
153.144
153.069
153.002
152.997
152.928
152.948
152.837
152.845
152.714
152.72
152.592
152.696
154.098
165.696
154.885
154.872
154.856
154.829
154.779
154.721
154.649
154.6
154.577
154.575
154.574
154.559
154.533
154.491
154.44
154.415
154.415
154.4
154.364
154.307
154.256
154.219
154.178
154.133
154.108
154.085
154.012
153.908
153.747
153.484
153.346
153.256
153.179
153.115
153.045
152.976
152.972
152.902
152.926
152.811
152.823
152.689
152.697
152.571
152.667
154.053
165.622
154.881
154.868
154.852
154.826
154.776
154.717
154.644
154.595
154.573
154.571
154.569
154.554
154.53
154.488
154.436
154.412
154.411
154.397
154.36
154.302
154.252
154.212
154.173
154.126
154.118
154.073
154.004
153.998
153.839
153.596
153.463
153.411
153.352
153.294
153.221
153.145
153.134
153.059
153.052
152.979
152.966
152.857
152.855
152.707
152.759
154.133
165.572
155.041
155.036
155.028
155.006
154.945
154.867
154.783
154.732
154.718
154.735
154.743
154.734
154.706
154.656
154.597
154.572
154.573
154.566
154.527
154.465
154.409
154.37
154.329
154.293
154.227
154.24
154.147
154.096
153.959
153.796
153.746
153.685
153.63
153.519
153.455
153.363
153.37
153.278
153.325
153.206
153.234
153.083
153.067
152.918
153.052
154.248
165.658
155.272
155.273
155.271
155.257
155.195
155.108
155.01
154.948
154.932
154.961
154.978
154.979
154.959
154.904
154.838
154.805
154.809
154.811
154.782
154.718
154.646
154.606
154.56
154.523
154.521
154.424
154.352
154.287
154.148
154.141
154.035
153.969
153.897
153.822
153.741
153.664
153.66
153.578
153.607
153.511
153.517
153.386
153.357
153.197
153.29
154.525
165.753
155.568
155.58
155.588
155.575
155.515
155.418
155.317
155.246
155.225
155.258
155.281
155.288
155.276
155.22
155.152
155.109
155.119
155.133
155.111
155.036
154.955
154.895
154.839
154.836
154.786
154.736
154.634
154.558
154.466
154.398
154.354
154.333
154.266
154.173
154.102
154.007
153.995
153.918
153.939
153.85
153.858
153.732
153.705
153.542
153.638
154.756
165.981
155.922
155.945
155.958
155.948
155.885
155.785
155.68
155.606
155.586
155.621
155.641
155.651
155.644
155.595
155.528
155.477
155.483
155.492
155.475
155.387
155.302
155.222
155.182
155.171
155.121
154.986
154.912
154.876
154.779
154.82
154.718
154.683
154.598
154.552
154.449
154.395
154.385
154.311
154.322
154.239
154.24
154.121
154.061
153.918
153.953
155.105
166.15
156.29
156.332
156.365
156.364
156.308
156.205
156.091
156.011
155.989
156.029
156.048
156.057
156.053
156.013
155.941
155.882
155.87
155.881
155.85
155.748
155.646
155.602
155.537
155.517
155.448
155.376
155.286
155.242
155.192
155.137
155.09
155.079
154.999
154.933
154.853
154.772
154.751
154.689
154.688
154.618
154.61
154.5
154.461
154.303
154.336
155.376
166.426
156.674
156.727
156.781
156.791
156.741
156.636
156.515
156.43
156.405
156.444
156.463
156.473
156.469
156.433
156.351
156.278
156.245
156.256
156.209
156.088
156.011
155.955
155.938
155.875
155.8
155.688
155.62
155.618
155.531
155.558
155.455
155.415
155.341
155.291
155.183
155.136
155.111
155.048
155.053
154.969
154.954
154.843
154.777
154.641
154.647
155.736
166.627
157.086
157.151
157.205
157.225
157.173
157.069
156.942
156.852
156.822
156.855
156.871
156.883
156.878
156.843
156.752
156.661
156.615
156.622
156.555
156.436
156.365
156.321
156.27
156.247
156.161
156.109
156.013
155.94
155.914
155.858
155.793
155.775
155.698
155.623
155.549
155.457
155.445
155.359
155.374
155.279
155.28
155.155
155.121
154.964
154.985
156.009
166.904
157.537
157.59
157.646
157.654
157.605
157.503
157.371
157.271
157.233
157.263
157.279
157.287
157.286
157.243
157.142
157.04
156.991
156.995
156.934
156.828
156.74
156.705
156.663
156.623
156.553
156.437
156.366
156.365
156.253
156.269
156.155
156.105
156.033
155.974
155.869
155.811
155.77
155.702
155.709
155.61
155.596
155.475
155.42
155.284
155.296
156.392
167.131
157.971
158.042
158.097
158.121
158.074
157.967
157.829
157.72
157.671
157.697
157.713
157.722
157.721
157.679
157.564
157.459
157.414
157.423
157.368
157.272
157.189
157.117
157.081
157.101
157.002
156.924
156.831
156.735
156.685
156.621
156.539
156.519
156.441
156.362
156.293
156.198
156.171
156.076
156.092
155.985
155.995
155.852
155.824
155.653
155.696
156.724
167.478
158.426
158.498
158.568
158.589
158.558
158.449
158.305
158.19
158.139
158.16
158.171
158.182
158.181
158.138
158.017
157.916
157.884
157.898
157.85
157.741
157.669
157.609
157.564
157.536
157.465
157.332
157.254
157.223
157.116
157.109
156.998
156.938
156.865
156.805
156.702
156.645
156.577
156.517
156.504
156.42
156.398
156.275
156.222
156.062
156.098
157.18
167.78
158.891
158.964
159.033
159.063
159.045
158.936
158.792
158.667
158.615
158.637
158.651
158.661
158.66
158.624
158.506
158.41
158.378
158.393
158.344
158.238
158.144
158.096
158.048
158.065
157.973
157.873
157.771
157.679
157.605
157.533
157.445
157.419
157.337
157.263
157.194
157.106
157.067
156.972
156.989
156.881
156.883
156.744
156.694
156.503
156.565
157.575
168.19
159.302
159.378
159.456
159.484
159.478
159.376
159.231
159.108
159.054
159.079
159.098
159.108
159.106
159.081
158.972
158.88
158.84
158.846
158.796
158.697
158.634
158.572
158.525
158.492
158.418
158.287
158.196
158.145
158.065
158.053
157.935
157.872
157.794
157.736
157.651
157.592
157.521
157.463
157.445
157.37
157.346
157.229
157.159
156.983
157.027
158.087
168.55
159.684
159.771
159.856
159.894
159.89
159.797
159.657
159.529
159.482
159.51
159.535
159.55
159.552
159.53
159.429
159.338
159.293
159.288
159.241
159.152
159.078
159.05
158.996
159.007
158.922
158.81
158.709
158.639
158.558
158.479
158.391
158.365
158.275
158.221
158.151
158.077
158.034
157.949
157.967
157.866
157.872
157.747
157.674
157.482
157.521
158.503
168.978
160.053
160.149
160.246
160.292
160.289
160.205
160.062
159.943
159.895
159.93
159.967
159.975
159.982
159.956
159.859
159.77
159.725
159.73
159.685
159.609
159.535
159.485
159.436
159.403
159.337
159.225
159.133
159.09
159.018
159.004
158.888
158.83
158.75
158.699
158.624
158.569
158.511
158.454
158.435
158.367
158.355
158.253
158.177
158.009
158.007
159.008
169.346
160.46
160.56
160.666
160.722
160.72
160.636
160.503
160.383
160.34
160.377
160.409
160.427
160.426
160.388
160.292
160.213
160.162
160.158
160.117
160.02
159.966
159.96
159.913
159.906
159.832
159.723
159.633
159.571
159.483
159.4
159.315
159.283
159.193
159.149
159.083
159.018
158.975
158.896
158.905
158.807
158.819
158.706
158.64
158.469
158.462
159.379
169.727
160.892
160.997
161.113
161.166
161.165
161.083
160.94
160.829
160.785
160.822
160.851
160.862
160.863
160.812
160.713
160.639
160.595
160.593
160.538
160.454
160.403
160.367
160.31
160.269
160.208
160.099
160.015
159.956
159.89
159.86
159.744
159.673
159.59
159.539
159.474
159.414
159.36
159.29
159.274
159.187
159.19
159.083
159.021
158.863
158.844
159.767
170.015
161.38
161.485
161.6
161.651
161.647
161.561
161.413
161.295
161.257
161.288
161.32
161.32
161.313
161.256
161.155
161.076
161.022
161.012
160.952
160.856
160.811
160.807
160.749
160.726
160.656
160.548
160.461
160.377
160.278
160.182
160.094
160.042
159.946
159.894
159.833
159.761
159.709
159.625
159.616
159.507
159.522
159.4
159.345
159.185
159.174
160.061
170.315
161.859
161.963
162.073
162.123
162.115
162.023
161.871
161.757
161.711
161.736
161.767
161.776
161.758
161.691
161.585
161.512
161.465
161.45
161.376
161.267
161.217
161.19
161.124
161.081
160.994
160.884
160.8
160.716
160.662
160.6
160.475
160.382
160.294
160.227
160.165
160.09
160.033
159.947
159.92
159.817
159.824
159.691
159.654
159.482
159.489
160.43
170.559
162.358
162.455
162.552
162.591
162.589
162.488
162.341
162.231
162.192
162.214
162.233
162.235
162.22
162.142
162.037
161.955
161.896
161.894
161.798
161.701
161.636
161.636
161.565
161.529
161.446
161.342
161.247
161.141
161.022
160.916
160.824
160.753
160.656
160.578
160.52
160.44
160.379
160.289
160.259
160.144
160.157
159.993
159.956
159.787
159.8
160.73
170.869
162.837
162.929
163.014
163.04
163.039
162.937
162.795
162.696
162.66
162.688
162.708
162.712
162.679
162.595
162.493
162.41
162.352
162.33
162.242
162.116
162.063
162.043
161.976
161.932
161.83
161.717
161.624
161.533
161.466
161.391
161.267
161.159
161.062
160.978
160.912
160.834
160.773
160.678
160.625
160.527
160.515
160.371
160.344
160.156
160.185
161.166
171.156
163.328
163.412
163.489
163.509
163.504
163.403
163.275
163.191
163.162
163.18
163.182
163.178
163.136
163.048
162.947
162.878
162.821
162.804
162.697
162.604
162.542
162.539
162.46
162.415
162.332
162.235
162.128
161.99
161.873
161.779
161.678
161.597
161.5
161.417
161.353
161.276
161.204
161.118
161.055
160.949
160.931
160.788
160.745
160.568
160.589
161.52
171.524
163.809
163.883
163.949
163.962
163.95
163.847
163.73
163.659
163.641
163.669
163.682
163.677
163.621
163.522
163.425
163.342
163.287
163.274
163.171
163.039
162.99
162.982
162.908
162.869
162.77
162.658
162.556
162.479
162.399
162.311
162.186
162.072
161.971
161.887
161.816
161.744
161.674
161.579
161.516
161.41
161.39
161.261
161.217
161.037
161.071
162.012
171.873
164.321
164.383
164.435
164.444
164.424
164.322
164.217
164.157
164.137
164.151
164.151
164.145
164.087
163.995
163.894
163.838
163.782
163.769
163.656
163.558
163.506
163.497
163.423
163.389
163.306
163.204
163.089
162.939
162.822
162.739
162.63
162.547
162.445
162.372
162.295
162.226
162.153
162.066
161.993
161.892
161.857
161.737
161.675
161.507
161.522
162.414
172.283
164.822
164.869
164.904
164.906
164.873
164.778
164.69
164.651
164.646
164.67
164.682
164.668
164.597
164.493
164.397
164.317
164.271
164.265
164.159
164.034
163.972
163.966
163.896
163.856
163.765
163.651
163.547
163.473
163.387
163.288
163.168
163.059
162.951
162.872
162.79
162.726
162.651
162.56
162.496
162.39
162.366
162.241
162.179
162.019
162.04
162.931
172.665
165.382
165.411
165.421
165.414
165.369
165.282
165.209
165.174
165.161
165.178
165.184
165.169
165.096
165.002
164.91
164.857
164.786
164.773
164.671
164.581
164.527
164.506
164.436
164.401
164.316
164.211
164.102
163.957
163.829
163.745
163.634
163.544
163.438
163.374
163.283
163.22
163.148
163.06
162.989
162.886
162.847
162.73
162.657
162.504
162.504
163.359
173.085
165.925
165.939
165.929
165.917
165.861
165.784
165.733
165.713
165.708
165.721
165.721
165.69
165.606
165.503
165.413
165.342
165.293
165.269
165.177
165.07
165.001
164.987
164.912
164.849
164.776
164.669
164.564
164.473
164.385
164.273
164.167
164.048
163.943
163.856
163.775
163.705
163.634
163.536
163.471
163.364
163.329
163.207
163.149
162.988
163.004
163.859
173.462
166.474
166.468
166.435
166.403
166.335
166.269
166.224
166.206
166.195
166.213
166.211
166.179
166.098
166.009
165.925
165.865
165.782
165.746
165.663
165.584
165.528
165.497
165.425
165.356
165.277
165.183
165.085
164.93
164.802
164.694
164.596
164.488
164.399
164.311
164.228
164.155
164.085
163.989
163.926
163.812
163.769
163.646
163.581
163.413
163.421
164.264
173.851
166.932
166.913
166.868
166.819
166.749
166.688
166.662
166.658
166.663
166.666
166.651
166.597
166.515
166.421
166.339
166.272
166.215
166.153
166.082
165.997
165.929
165.9
165.828
165.751
165.688
165.586
165.483
165.384
165.295
165.16
165.065
164.945
164.855
164.743
164.673
164.585
164.516
164.417
164.354
164.245
164.207
164.075
164.029
163.844
163.872
164.728
174.21
167.348
167.316
167.256
167.188
167.114
167.067
167.049
167.053
167.059
167.07
167.051
166.997
166.928
166.848
166.776
166.718
166.632
166.559
166.499
166.445
166.389
166.345
166.275
166.193
166.119
166.038
165.944
165.774
165.65
165.536
165.455
165.347
165.272
165.171
165.091
165.01
164.936
164.847
164.779
164.672
164.632
164.492
164.431
164.254
164.273
165.115
174.592
167.724
167.679
167.61
167.53
167.458
167.416
167.417
167.439
167.462
167.456
167.413
167.343
167.274
167.195
167.131
167.074
167.011
166.914
166.859
166.814
166.748
166.705
166.642
166.573
166.512
166.416
166.318
166.227
166.151
166.004
165.915
165.804
165.718
165.606
165.531
165.448
165.371
165.283
165.219
165.114
165.079
164.931
164.886
164.71
164.742
165.588
174.967
168.134
168.074
167.992
167.903
167.83
167.802
167.815
167.849
167.867
167.875
167.829
167.765
167.705
167.642
167.582
167.528
167.443
167.354
167.303
167.283
167.222
167.179
167.106
167.022
166.952
166.884
166.795
166.62
166.506
166.4
166.324
166.227
166.142
166.053
165.961
165.894
165.815
165.733
165.661
165.56
165.513
165.378
165.309
165.154
165.172
165.992
175.36
168.584
168.504
168.407
168.307
168.232
168.21
168.242
168.291
168.315
168.3
168.232
168.163
168.102
168.047
167.996
167.944
167.856
167.755
167.702
167.694
167.619
167.583
167.521
167.453
167.381
167.3
167.204
167.123
167.053
166.91
166.816
166.718
166.622
166.522
166.431
166.358
166.282
166.195
166.134
166.026
165.978
165.848
165.785
165.635
165.656
166.478
175.745
169.09
168.994
168.874
168.766
168.691
168.684
168.734
168.789
168.807
168.79
168.722
168.662
168.611
168.568
168.511
168.462
168.36
168.268
168.206
168.217
168.15
168.115
168.033
167.947
167.874
167.815
167.727
167.578
167.455
167.349
167.248
167.161
167.067
166.989
166.888
166.822
166.742
166.662
166.589
166.489
166.433
166.306
166.232
166.088
166.101
166.906
176.143
169.611
169.493
169.354
169.228
169.145
169.155
169.22
169.278
169.294
169.255
169.169
169.107
169.058
169.02
168.976
168.928
168.815
168.708
168.651
168.658
168.585
168.552
168.483
168.402
168.333
168.247
168.154
168.069
167.972
167.861
167.753
167.668
167.567
167.468
167.369
167.292
167.216
167.129
167.064
166.958
166.905
166.775
166.706
166.563
166.575
167.386
176.533
170.166
170.028
169.868
169.731
169.645
169.672
169.75
169.817
169.828
169.779
169.693
169.637
169.591
169.556
169.506
169.463
169.345
169.246
169.174
169.182
169.117
169.099
169.003
168.911
168.842
168.769
168.685
168.565
168.425
168.304
168.181
168.101
168.002
167.92
167.816
167.748
167.66
167.581
167.504
167.4
167.342
167.213
167.142
166.996
167.004
167.812
176.927
170.71
170.551
170.373
170.224
170.132
170.167
170.253
170.326
170.327
170.258
170.16
170.104
170.057
170.032
169.988
169.946
169.817
169.709
169.644
169.638
169.572
169.539
169.467
169.37
169.301
169.206
169.114
169.021
168.911
168.795
168.694
168.606
168.505
168.402
168.297
168.213
168.134
168.044
167.969
167.862
167.81
167.678
167.603
167.463
167.463
168.268
177.313
171.266
171.094
170.902
170.748
170.659
170.701
170.802
170.872
170.873
170.799
170.703
170.647
170.596
170.576
170.524
170.486
170.36
170.262
170.178
170.179
170.109
170.086
169.989
169.903
169.827
169.748
169.661
169.536
169.408
169.257
169.141
169.051
168.953
168.856
168.755
168.684
168.593
168.512
168.425
168.318
168.254
168.129
168.058
167.907
167.91
168.702
177.709
171.797
171.615
171.406
171.244
171.157
171.206
171.311
171.375
171.366
171.281
171.183
171.131
171.081
171.059
171.007
170.968
170.842
170.736
170.668
170.646
170.578
170.529
170.459
170.367
170.294
170.186
170.103
169.99
169.896
169.764
169.666
169.568
169.476
169.352
169.256
169.161
169.081
168.988
168.908
168.795
168.739
168.607
168.535
168.396
168.385
169.16
178.095
172.317
172.13
171.912
171.746
171.667
171.728
171.833
171.887
171.876
171.782
171.698
171.648
171.599
171.575
171.518
171.471
171.358
171.257
171.173
171.158
171.082
171.039
170.948
170.878
170.796
170.703
170.617
170.485
170.358
170.219
170.113
169.992
169.905
169.782
169.693
169.604
169.519
169.429
169.349
169.228
169.167
169.031
168.972
168.816
168.818
169.582
178.469
172.792
172.603
172.381
172.21
172.143
172.208
172.306
172.339
172.327
172.222
172.143
172.096
172.051
172.02
171.963
171.905
171.797
171.693
171.623
171.589
171.518
171.445
171.382
171.294
171.218
171.105
171.015
170.901
170.817
170.671
170.584
170.449
170.381
170.231
170.15
170.037
169.961
169.853
169.785
169.65
169.609
169.449
169.398
169.245
169.237
170.004
178.823
173.247
173.059
172.837
172.674
172.622
172.689
172.773
172.799
172.785
172.68
172.609
172.561
172.516
172.481
172.426
172.364
172.263
172.164
172.08
172.059
171.982
171.905
171.833
171.762
171.677
171.579
171.487
171.359
171.227
171.094
170.996
170.843
170.768
170.626
170.545
170.44
170.361
170.252
170.184
170.048
170.006
169.829
169.793
169.62
169.634
170.404
179.178
173.657
173.475
173.26
173.11
173.071
173.141
173.215
173.222
173.194
173.093
173.032
172.986
172.942
172.897
172.84
172.776
172.682
172.584
172.511
172.479
172.405
172.31
172.255
172.167
172.097
171.98
171.882
171.767
171.688
171.533
171.451
171.303
171.247
171.088
171.011
170.885
170.81
170.686
170.628
170.484
170.456
170.262
170.223
170.062
170.058
170.836
179.545
174.072
173.904
173.7
173.566
173.546
173.615
173.677
173.681
173.64
173.548
173.494
173.45
173.406
173.36
173.302
173.235
173.147
173.063
172.988
172.963
172.878
172.794
172.727
172.65
172.567
172.475
172.384
172.26
172.118
171.99
171.892
171.733
171.658
171.522
171.437
171.323
171.238
171.123
171.057
170.924
170.887
170.701
170.66
170.486
170.508
171.271
179.932
174.473
174.324
174.139
174.028
174.026
174.083
174.133
174.131
174.074
173.991
173.943
173.901
173.855
173.811
173.75
173.678
173.599
173.524
173.447
173.415
173.33
173.24
173.18
173.089
173.023
172.915
172.816
172.701
172.615
172.47
172.39
172.241
172.182
172.041
171.947
171.826
171.735
171.618
171.547
171.419
171.378
171.202
171.135
170.989
170.979
171.733
180.326
174.902
174.782
174.623
174.543
174.56
174.604
174.631
174.626
174.558
174.489
174.446
174.403
174.358
174.319
174.254
174.18
174.104
174.044
173.972
173.936
173.84
173.757
173.687
173.611
173.529
173.449
173.355
173.237
173.098
172.97
172.863
172.718
172.627
172.517
172.412
172.307
172.2
172.1
172.01
171.903
171.838
171.689
171.617
171.463
171.472
172.207
180.74
175.324
175.228
175.116
175.075
175.099
175.128
175.139
175.122
175.039
174.979
174.937
174.899
174.858
174.816
174.75
174.672
174.597
174.55
174.471
174.425
174.328
174.238
174.164
174.096
174.021
173.917
173.814
173.7
173.61
173.485
173.39
173.258
173.174
173.055
172.947
172.831
172.723
172.62
172.519
172.418
172.346
172.207
172.113
171.982
171.954
172.679
181.147
175.809
175.742
175.672
175.667
175.693
175.711
175.707
175.677
175.584
175.522
175.486
175.452
175.412
175.373
175.3
175.213
175.143
175.101
175.032
174.981
174.877
174.784
174.695
174.649
174.558
174.469
174.376
174.247
174.122
173.989
173.865
173.745
173.632
173.526
173.421
173.304
173.2
173.094
172.99
172.895
172.812
172.679
172.599
172.448
172.442
173.161
181.559
176.297
176.263
176.239
176.273
176.291
176.297
176.279
176.228
176.127
176.063
176.031
176.001
175.964
175.93
175.85
175.755
175.677
175.638
175.563
175.517
175.407
175.3
175.21
175.161
175.068
174.961
174.855
174.738
174.654
174.516
174.43
174.28
174.191
174.056
173.961
173.825
173.732
173.606
173.508
173.393
173.323
173.176
173.085
172.953
172.917
173.624
181.96
176.815
176.812
176.824
176.874
176.891
176.888
176.861
176.794
176.686
176.62
176.588
176.56
176.521
176.489
176.405
176.302
176.228
176.177
176.112
176.067
175.954
175.837
175.742
175.704
175.61
175.507
175.401
175.266
175.15
175.001
174.894
174.743
174.64
174.505
174.419
174.284
174.196
174.059
173.976
173.825
173.77
173.613
173.547
173.389
173.38
174.089
182.366
177.252
177.27
177.315
177.387
177.406
177.392
177.349
177.269
177.158
177.091
177.063
177.037
177.001
176.969
176.886
176.779
176.699
176.641
176.575
176.54
176.424
176.295
176.198
176.159
176.062
175.947
175.838
175.713
175.627
175.48
175.407
175.226
175.146
174.984
174.906
174.762
174.682
174.529
174.457
174.269
174.233
174.062
173.985
173.844
173.816
174.524
182.747
177.638
177.678
177.751
177.841
177.865
177.847
177.793
177.699
177.584
177.518
177.495
177.474
177.441
177.413
177.331
177.221
177.145
177.078
177.017
176.988
176.879
176.744
176.654
176.616
176.53
176.41
176.302
176.168
176.059
175.911
175.809
175.649
175.552
175.393
175.315
175.189
175.107
174.949
174.886
174.675
174.646
174.473
174.421
174.254
174.254
174.955
183.143
177.963
178.022
178.114
178.218
178.253
178.233
178.173
178.072
177.952
177.889
177.869
177.854
177.826
177.809
177.729
177.62
177.537
177.474
177.41
177.389
177.281
177.155
177.068
177.006
176.923
176.813
176.711
176.585
176.494
176.366
176.303
176.121
176.044
175.868
175.788
175.669
175.587
175.422
175.36
175.141
175.118
174.947
174.867
174.726
174.704
175.399
183.534
178.29
178.376
178.487
178.599
178.646
178.628
178.562
178.455
178.33
178.269
178.254
178.242
178.223
178.218
178.142
178.028
177.947
177.884
177.82
177.798
177.709
177.58
177.509
177.44
177.367
177.257
177.151
177.033
176.922
176.789
176.698
176.552
176.455
176.29
176.202
176.099
176.01
175.85
175.78
175.577
175.545
175.388
175.328
175.164
175.166
175.844
183.944
178.634
178.737
178.869
178.988
179.033
179.026
178.959
178.849
178.719
178.659
178.641
178.638
178.624
178.628
178.56
178.452
178.364
178.3
178.224
178.208
178.125
178.003
177.923
177.865
177.784
177.684
177.571
177.466
177.362
177.261
177.201
177.047
176.955
176.796
176.69
176.588
176.492
176.342
176.253
176.078
176.03
175.888
175.795
175.654
175.623
176.298
184.335
179.047
179.17
179.328
179.453
179.494
179.489
179.414
179.295
179.176
179.115
179.094
179.093
179.081
179.089
179.029
178.923
178.837
178.762
178.686
178.663
178.591
178.472
178.394
178.336
178.263
178.153
178.044
177.937
177.83
177.701
177.598
177.509
177.374
177.244
177.123
177.016
176.915
176.777
176.674
176.529
176.464
176.331
176.258
176.101
176.088
176.749
184.746
179.497
179.628
179.794
179.936
179.974
179.965
179.883
179.763
179.639
179.584
179.559
179.565
179.547
179.556
179.499
179.408
179.317
179.239
179.149
179.126
179.048
178.943
178.861
178.792
178.716
178.613
178.507
178.386
178.296
178.198
178.112
178.024
177.887
177.751
177.624
177.505
177.395
177.27
177.156
177.026
176.949
176.823
176.726
176.589
176.543
177.199
185.133
179.998
180.129
180.308
180.452
180.491
180.477
180.39
180.265
180.143
180.089
180.065
180.071
180.049
180.051
179.998
179.912
179.826
179.742
179.652
179.611
179.539
179.434
179.36
179.273
179.202
179.094
178.999
178.867
178.778
178.641
178.519
178.47
178.323
178.181
178.062
177.933
177.823
177.692
177.583
177.456
177.379
177.247
177.174
177.026
177.005
177.649
185.544
180.522
180.652
180.828
180.974
181.004
180.989
180.892
180.766
180.647
180.593
180.569
180.572
180.546
180.55
180.49
180.421
180.328
180.244
180.144
180.094
180.014
179.923
179.841
179.752
179.668
179.565
179.463
179.335
179.247
179.148
179.042
178.96
178.836
178.668
178.559
178.41
178.307
178.163
178.063
177.929
177.857
177.713
177.638
177.495
177.451
178.085
185.924
181.1
181.221
181.392
181.527
181.555
181.526
181.432
181.302
181.191
181.131
181.106
181.103
181.078
181.071
181.009
180.948
180.856
180.758
180.664
180.595
180.518
180.42
180.343
180.242
180.161
180.051
179.956
179.817
179.722
179.572
179.457
179.38
179.265
179.091
178.997
178.82
178.733
178.56
178.484
178.32
178.269
178.104
178.061
177.896
177.887
178.528
186.328
181.673
181.786
181.938
182.06
182.082
182.041
181.935
181.814
181.709
181.646
181.62
181.611
181.585
181.567
181.499
181.456
181.361
181.261
181.158
181.075
180.985
180.899
180.814
180.715
180.621
180.516
180.41
180.287
180.181
180.066
179.977
179.847
179.754
179.572
179.485
179.279
179.206
179.004
178.95
178.765
178.724
178.542
178.497
178.328
178.306
178.948
186.696
182.194
182.297
182.449
182.55
182.568
182.513
182.413
182.291
182.194
182.133
182.109
182.094
182.074
182.039
181.977
181.931
181.845
181.737
181.639
181.541
181.455
181.357
181.276
181.178
181.094
180.977
180.878
180.742
180.638
180.472
180.387
180.265
180.173
180.008
179.919
179.699
179.629
179.41
179.369
179.161
179.139
178.933
178.911
178.738
178.746
179.389
187.11
182.634
182.737
182.875
182.976
182.987
182.923
182.811
182.702
182.617
182.571
182.542
182.519
182.504
182.463
182.407
182.366
182.285
182.183
182.078
181.983
181.888
181.795
181.712
181.628
181.536
181.43
181.324
181.206
181.101
180.992
180.906
180.763
180.684
180.518
180.434
180.203
180.14
179.911
179.875
179.679
179.657
179.445
179.393
179.24
179.221
179.85
187.509
183.035
183.142
183.28
183.374
183.38
183.307
183.199
183.087
183.016
182.989
182.968
182.939
182.924
182.877
182.833
182.779
182.714
182.613
182.518
182.415
182.329
182.226
182.155
182.072
181.992
181.874
181.779
181.653
181.557
181.408
181.322
181.225
181.138
180.978
180.892
180.66
180.599
180.368
180.323
180.147
180.116
179.927
179.873
179.72
179.717
180.332
187.959
183.423
183.534
183.659
183.758
183.767
183.696
183.574
183.47
183.401
183.393
183.37
183.343
183.323
183.286
183.244
183.203
183.135
183.041
182.943
182.848
182.757
182.665
182.589
182.515
182.432
182.334
182.231
182.125
182.023
181.934
181.841
181.75
181.666
181.499
181.408
181.185
181.118
180.904
180.839
180.715
180.65
180.499
180.394
180.255
180.217
180.819
188.37
183.871
183.974
184.108
184.176
184.179
184.109
184.002
183.888
183.834
183.841
183.822
183.791
183.765
183.73
183.697
183.653
183.6
183.5
183.407
183.299
183.222
183.127
183.059
182.973
182.899
182.785
182.697
182.586
182.498
182.361
182.279
182.222
182.125
181.959
181.858
181.646
181.57
181.374
181.296
181.198
181.117
180.994
180.89
180.741
180.715
181.29
188.823
184.349
184.456
184.578
184.643
184.636
184.569
184.458
184.358
184.3
184.305
184.288
184.258
184.227
184.196
184.166
184.136
184.079
183.982
183.877
183.775
183.689
183.62
183.535
183.455
183.372
183.276
183.178
183.086
182.99
182.901
182.819
182.744
182.662
182.482
182.373
182.163
182.072
181.903
181.811
181.742
181.648
181.538
181.403
181.261
181.21
181.765
189.229
184.892
184.983
185.107
185.155
185.134
185.052
184.954
184.856
184.818
184.822
184.805
184.775
184.737
184.698
184.673
184.64
184.59
184.499
184.389
184.258
184.178
184.122
184.037
183.938
183.856
183.746
183.668
183.564
183.479
183.341
183.267
183.197
183.107
182.925
182.822
182.603
182.517
182.344
182.263
182.186
182.102
181.986
181.875
181.708
181.679
182.227
189.669
185.437
185.539
185.642
185.679
185.644
185.567
185.458
185.371
185.333
185.333
185.31
185.282
185.239
185.207
185.173
185.136
185.074