/*--------------------------------*- C++ -*----------------------------------*\
| =========                 |                                                 |
| \\      /  F ield         | OpenFOAM: The Open Source CFD Toolbox           |
|  \\    /   O peration     | Version:  2212                                  |
|   \\  /    A nd           | Website:  www.openfoam.com                      |
|    \\/     M anipulation  |                                                 |
\*---------------------------------------------------------------------------*/
FoamFile
{
    version     2.0;
    format      ascii;
    arch        "LSB;label=32;scalar=64";
    class       volScalarField;
    location    "8.4e-05";
    object      p;
}
// * * * * * * * * * * * * * * * * * * * * * * * * * * * * * * * * * * * * * //

dimensions      [1 -1 -2 0 0 0 0];

internalField   nonuniform List<scalar> 
34861
(
1.03377e+06
1.03381e+06
1.03386e+06
1.0339e+06
1.03393e+06
1.03396e+06
1.03398e+06
1.03399e+06
1.03399e+06
1.034e+06
1.034e+06
1.034e+06
1.034e+06
1.034e+06
1.034e+06
1.034e+06
1.034e+06
1.034e+06
1.034e+06
1.034e+06
1.034e+06
1.034e+06
1.034e+06
1.034e+06
1.034e+06
1.034e+06
1.034e+06
1.034e+06
1.034e+06
1.034e+06
1.034e+06
1.034e+06
1.034e+06
1.034e+06
1.034e+06
1.034e+06
1.034e+06
1.034e+06
1.034e+06
1.034e+06
1.034e+06
1.034e+06
1.034e+06
1.034e+06
1.034e+06
1.034e+06
1.034e+06
1.034e+06
1.034e+06
1.034e+06
1.034e+06
1.034e+06
1.034e+06
1.034e+06
1.034e+06
1.034e+06
1.034e+06
1.034e+06
1.034e+06
1.034e+06
1.034e+06
1.034e+06
1.034e+06
1.034e+06
1.034e+06
1.034e+06
1.034e+06
1.034e+06
1.034e+06
1.034e+06
1.034e+06
1.034e+06
1.034e+06
1.034e+06
1.034e+06
1.034e+06
1.034e+06
1.034e+06
1.03367e+06
1.03372e+06
788900
837415
875535
897121
915312
928302
939685
948390
956045
962482
968415
973519
978100
982279
986091
989626
992889
995931
998784
1.00147e+06
1.004e+06
1.00638e+06
1.00862e+06
1.01075e+06
1.01276e+06
1.01466e+06
1.01646e+06
1.01815e+06
1.01975e+06
1.02124e+06
1.02264e+06
1.02395e+06
1.02516e+06
1.02627e+06
1.0273e+06
1.02822e+06
1.02905e+06
1.02979e+06
1.03045e+06
1.03102e+06
1.03151e+06
1.03194e+06
1.0323e+06
1.03261e+06
1.03287e+06
1.03308e+06
1.03326e+06
1.0334e+06
1.03352e+06
1.03361e+06
620342
626434
629871
623830
609876
590172
574534
560534
548027
535981
525271
515861
507010
499299
492003
485303
479079
473479
468251
463243
458459
453864
449471
445099
440811
436596
432372
428083
423847
419555
415286
411043
406748
402462
398171
393915
389618
385370
381164
376968
372761
368572
364375
360219
356068
351913
347760
343636
339521
335442
331360
327335
323294
319312
315327
311382
307443
303545
299643
295789
291920
288103
284316
280574
276849
273145
269448
265797
262158
258563
254989
251444
247916
244413
240939
237489
234072
230669
227301
223940
220613
217307
214027
210774
207569
204369
201209
198045
194915
191781
188697
185612
182562
179523
176494
173500
170511
167573
164583
161657
158701
155782
152855
149966
147070
144185
141297
138373
135476
132480
129545
126409
123347
119859
116403
112078
107290
100926
90264.6
81891.9
630324
626717
629942
624206
610602
590853
575098
561055
548485
536394
525610
516118
507302
499536
492221
485503
479257
473663
468421
463405
458611
454008
449613
445235
440941
436724
432498
428205
423967
419678
415408
411163
406870
402583
398283
394024
389731
385483
381274
377077
372861
368672
364480
360322
356167
352011
347850
343726
339610
335532
331450
327417
323381
319395
315408
311462
307518
303619
299719
295856
291989
288170
284383
280640
276912
273207
269509
265855
262214
258619
255043
251497
247967
244462
240987
237536
234117
230712
227343
223981
220652
217345
214064
210810
207603
204402
201241
198076
194945
191809
188724
185638
182587
179547
176516
173521
170532
167592
164602
161674
158718
155798
152871
149979
147086
144197
141310
138384
135488
132490
129557
126417
123361
119870
116420
112102
107353
101105
90473.2
81229.3
787163
835036
873756
895821
914338
927487
939032
947857
955642
962167
968109
973246
977859
982063
985894
989449
992727
995784
998651
1.00135e+06
1.00388e+06
1.00627e+06
1.00853e+06
1.01066e+06
1.01268e+06
1.01459e+06
1.01639e+06
1.01809e+06
1.01969e+06
1.02119e+06
1.0226e+06
1.02391e+06
1.02512e+06
1.02624e+06
1.02727e+06
1.0282e+06
1.02903e+06
1.02978e+06
1.03043e+06
1.03101e+06
1.03151e+06
1.03193e+06
1.0323e+06
1.03261e+06
1.03286e+06
1.03308e+06
1.03326e+06
1.0334e+06
1.03351e+06
1.03361e+06
1.03367e+06
1.03372e+06
1.03377e+06
1.03381e+06
1.03386e+06
1.0339e+06
1.03393e+06
1.03396e+06
1.03398e+06
1.03399e+06
1.03399e+06
1.034e+06
1.034e+06
1.034e+06
1.034e+06
1.034e+06
1.034e+06
1.034e+06
1.034e+06
1.034e+06
1.034e+06
1.034e+06
1.034e+06
1.034e+06
1.034e+06
1.034e+06
1.034e+06
1.034e+06
1.034e+06
1.034e+06
1.034e+06
1.034e+06
1.034e+06
1.034e+06
1.034e+06
1.034e+06
1.034e+06
1.034e+06
1.034e+06
1.034e+06
1.034e+06
1.034e+06
1.034e+06
1.034e+06
1.034e+06
1.034e+06
1.034e+06
1.034e+06
1.034e+06
1.034e+06
1.034e+06
1.034e+06
1.034e+06
1.034e+06
1.034e+06
1.034e+06
1.034e+06
1.034e+06
1.034e+06
1.034e+06
1.034e+06
1.034e+06
1.034e+06
1.034e+06
1.034e+06
1.034e+06
1.034e+06
1.034e+06
1.034e+06
1.034e+06
1.034e+06
1.034e+06
1.034e+06
1.034e+06
1.034e+06
1.034e+06
1.034e+06
1.034e+06
1.034e+06
1.034e+06
1.03377e+06
1.03381e+06
1.03386e+06
1.0339e+06
1.03393e+06
1.03396e+06
1.03398e+06
1.03399e+06
1.03399e+06
1.034e+06
1.034e+06
1.034e+06
1.034e+06
1.034e+06
1.034e+06
1.034e+06
1.034e+06
1.034e+06
1.034e+06
1.034e+06
1.034e+06
1.034e+06
1.034e+06
1.034e+06
1.034e+06
1.034e+06
1.034e+06
1.034e+06
1.034e+06
1.034e+06
1.034e+06
1.034e+06
1.034e+06
1.034e+06
1.034e+06
1.034e+06
1.034e+06
1.034e+06
1.034e+06
1.034e+06
1.034e+06
1.034e+06
1.034e+06
1.034e+06
1.034e+06
1.034e+06
1.034e+06
1.034e+06
1.034e+06
1.034e+06
1.034e+06
1.034e+06
1.034e+06
1.034e+06
1.034e+06
1.034e+06
1.034e+06
1.034e+06
1.034e+06
1.034e+06
1.034e+06
1.034e+06
1.034e+06
1.034e+06
1.034e+06
1.034e+06
1.034e+06
1.034e+06
1.034e+06
1.034e+06
1.034e+06
1.034e+06
1.034e+06
1.034e+06
1.034e+06
1.034e+06
1.034e+06
1.034e+06
1.03367e+06
1.03372e+06
786149
834571
872656
895463
913954
927369
938927
947810
955710
962202
968142
973264
977848
982048
985885
989438
992721
995784
998643
1.00134e+06
1.00388e+06
1.00627e+06
1.00853e+06
1.01066e+06
1.01268e+06
1.01459e+06
1.01639e+06
1.01809e+06
1.01969e+06
1.02119e+06
1.0226e+06
1.02391e+06
1.02512e+06
1.02624e+06
1.02727e+06
1.0282e+06
1.02903e+06
1.02978e+06
1.03043e+06
1.03101e+06
1.0315e+06
1.03193e+06
1.0323e+06
1.03261e+06
1.03286e+06
1.03308e+06
1.03326e+06
1.0334e+06
1.03351e+06
1.0336e+06
635922
626673
629917
624188
610632
591155
575430
561167
548588
536530
525806
516049
507289
499511
492186
485463
479319
473662
468420
463403
458609
454005
449612
445233
440940
436722
432491
428199
423960
419673
415404
411158
406874
402582
398304
394021
389728
385480
381273
377072
372854
368667
364480
360332
356165
352009
347841
343720
339607
335529
331449
327414
323384
319402
315407
311462
307515
303613
299720
295853
291987
288168
284382
280640
276912
273207
269509
265854
262212
258617
255041
251495
247965
244460
240984
237533
234114
230710
227340
223978
220649
217343
214061
210807
207600
204399
201238
198073
194941
191806
188721
185635
182584
179544
176513
173519
170529
167590
164600
161672
158715
155795
152868
149978
147083
144197
141308
138383
135487
132491
129556
126421
123364
119886
116435
112168
107414
101428
91204
83094.2
644833
627948
629987
624597
611326
591879
576195
561762
549089
536947
526124
516244
507502
499691
492331
485645
479506
473860
468607
463580
458772
454160
449764
445382
441082
436861
432620
428327
424084
419805
415534
411280
407005
402710
398420
394136
389851
385592
381384
377187
372958
368771
364595
360441
356272
352111
347938
343811
339701
335617
331541
327501
323478
319487
315490
311541
307588
303676
299793
295919
292058
288236
284450
280709
276976
273272
269571
265916
262269
258674
255095
251548
248017
244509
241032
237579
234159
230753
227382
224018
220689
217379
214098
210841
207633
204431
201269
198102
194969
191833
188747
185660
182608
179566
176534
173539
170549
167608
164617
161688
158730
155809
152881
149990
147097
144210
141319
138393
135497
132502
129567
126434
123376
119913
116457
112250
107517
101712
92242.8
84652.3
785095
833835
871074
894434
913103
926672
938333
947193
955407
962036
967896
973028
977633
981848
985702
989273
992571
995649
998517
1.00123e+06
1.00377e+06
1.00618e+06
1.00844e+06
1.01058e+06
1.01261e+06
1.01452e+06
1.01633e+06
1.01804e+06
1.01964e+06
1.02115e+06
1.02256e+06
1.02387e+06
1.02509e+06
1.02621e+06
1.02724e+06
1.02818e+06
1.02901e+06
1.02976e+06
1.03042e+06
1.03099e+06
1.0315e+06
1.03193e+06
1.03229e+06
1.0326e+06
1.03286e+06
1.03308e+06
1.03325e+06
1.0334e+06
1.03351e+06
1.0336e+06
1.03367e+06
1.03372e+06
1.03377e+06
1.03381e+06
1.03386e+06
1.0339e+06
1.03394e+06
1.03396e+06
1.03398e+06
1.03399e+06
1.03399e+06
1.034e+06
1.034e+06
1.034e+06
1.034e+06
1.034e+06
1.034e+06
1.034e+06
1.034e+06
1.034e+06
1.034e+06
1.034e+06
1.034e+06
1.034e+06
1.034e+06
1.034e+06
1.034e+06
1.034e+06
1.034e+06
1.034e+06
1.034e+06
1.034e+06
1.034e+06
1.034e+06
1.034e+06
1.034e+06
1.034e+06
1.034e+06
1.034e+06
1.034e+06
1.034e+06
1.034e+06
1.034e+06
1.034e+06
1.034e+06
1.034e+06
1.034e+06
1.034e+06
1.034e+06
1.034e+06
1.034e+06
1.034e+06
1.034e+06
1.034e+06
1.034e+06
1.034e+06
1.034e+06
1.034e+06
1.034e+06
1.034e+06
1.034e+06
1.034e+06
1.034e+06
1.034e+06
1.034e+06
1.034e+06
1.034e+06
1.034e+06
1.034e+06
1.034e+06
1.034e+06
1.034e+06
1.034e+06
1.034e+06
1.034e+06
1.034e+06
1.034e+06
1.034e+06
1.034e+06
1.034e+06
1.03377e+06
1.03381e+06
1.03386e+06
1.0339e+06
1.03394e+06
1.03396e+06
1.03398e+06
1.03399e+06
1.03399e+06
1.034e+06
1.034e+06
1.034e+06
1.034e+06
1.034e+06
1.034e+06
1.034e+06
1.034e+06
1.034e+06
1.034e+06
1.034e+06
1.034e+06
1.034e+06
1.034e+06
1.034e+06
1.034e+06
1.034e+06
1.034e+06
1.034e+06
1.034e+06
1.034e+06
1.034e+06
1.034e+06
1.034e+06
1.034e+06
1.034e+06
1.034e+06
1.034e+06
1.034e+06
1.034e+06
1.034e+06
1.034e+06
1.034e+06
1.034e+06
1.034e+06
1.034e+06
1.034e+06
1.034e+06
1.034e+06
1.034e+06
1.034e+06
1.034e+06
1.034e+06
1.034e+06
1.034e+06
1.034e+06
1.034e+06
1.034e+06
1.034e+06
1.034e+06
1.034e+06
1.034e+06
1.034e+06
1.034e+06
1.034e+06
1.034e+06
1.034e+06
1.034e+06
1.034e+06
1.034e+06
1.034e+06
1.034e+06
1.034e+06
1.034e+06
1.034e+06
1.034e+06
1.034e+06
1.034e+06
1.034e+06
1.03367e+06
1.03372e+06
783553
833352
869776
894180
913057
926633
937926
947071
955436
962060
967876
973023
977634
981832
985689
989272
992571
995646
998514
1.00123e+06
1.00378e+06
1.00618e+06
1.00844e+06
1.01058e+06
1.0126e+06
1.01452e+06
1.01633e+06
1.01803e+06
1.01964e+06
1.02114e+06
1.02255e+06
1.02387e+06
1.02509e+06
1.02621e+06
1.02724e+06
1.02818e+06
1.02901e+06
1.02976e+06
1.03042e+06
1.03099e+06
1.0315e+06
1.03193e+06
1.03229e+06
1.0326e+06
1.03286e+06
1.03308e+06
1.03325e+06
1.0334e+06
1.03351e+06
1.0336e+06
653107
628785
630076
624636
611309
592431
576901
562257
549150
537223
526310
516352
507436
499612
492273
485613
479488
473863
468621
463579
458771
454161
449773
445382
441080
436858
432614
428321
424077
419801
415532
411277
407002
402707
398417
394133
389853
385635
381374
377184
372951
368767
364598
360458
356271
352106
347936
343808
339701
335614
331539
327498
323484
319510
315493
311537
307585
303670
299784
295913
292056
288235
284451
280713
276978
273273
269578
265915
262271
258676
255100
251548
248017
244509
241031
237578
234158
230752
227381
224018
220687
217378
214096
210840
207631
204430
201267
198101
194966
191832
188744
185658
182605
179563
176531
173536
170548
167606
164615
161685
158728
155806
152878
149987
147095
144209
141317
138392
135495
132502
129567
126443
123381
119937
116476
112329
107643
101949
93402.2
85761.2
660670
630707
630570
625040
611785
593203
577820
562783
549642
537559
526553
516562
507509
499593
492260
485749
479667
474053
468803
463759
458933
454319
449932
445537
441226
437000
432744
428449
424198
419928
415659
411396
407122
402828
398535
394258
389970
385730
381479
377293
373056
368871
364700
360545
356370
352200
348039
343902
339793
335699
331630
327578
323567
319590
315573
311616
307661
303729
299854
295983
292130
288304
284519
280781
277046
273339
269641
265977
262329
258733
255155
251603
248069
244559
241080
237625
234203
230797
227422
224059
220726
217415
214133
210874
207665
204461
201298
198129
194992
191858
188769
185681
182627
179584
176551
173555
170567
167624
164630
161701
158741
155819
152888
150000
147105
144222
141327
138404
135504
132514
129575
126459
123389
119968
116502
112415
107789
102202
94408.1
86801
783092
833148
868472
893582
912474
926146
937659
946737
955142
961797
967623
972815
977439
981647
985516
989118
992435
995519
998394
1.00112e+06
1.00368e+06
1.00609e+06
1.00836e+06
1.0105e+06
1.01253e+06
1.01445e+06
1.01627e+06
1.01798e+06
1.01959e+06
1.0211e+06
1.02252e+06
1.02383e+06
1.02506e+06
1.02619e+06
1.02722e+06
1.02816e+06
1.029e+06
1.02975e+06
1.03041e+06
1.03098e+06
1.03149e+06
1.03192e+06
1.03229e+06
1.0326e+06
1.03286e+06
1.03307e+06
1.03325e+06
1.03339e+06
1.03351e+06
1.0336e+06
1.03367e+06
1.03372e+06
1.03377e+06
1.03381e+06
1.03386e+06
1.0339e+06
1.03394e+06
1.03396e+06
1.03398e+06
1.03399e+06
1.03399e+06
1.034e+06
1.034e+06
1.034e+06
1.034e+06
1.034e+06
1.034e+06
1.034e+06
1.034e+06
1.034e+06
1.034e+06
1.034e+06
1.034e+06
1.034e+06
1.034e+06
1.034e+06
1.034e+06
1.034e+06
1.034e+06
1.034e+06
1.034e+06
1.034e+06
1.034e+06
1.034e+06
1.034e+06
1.034e+06
1.034e+06
1.034e+06
1.034e+06
1.034e+06
1.034e+06
1.034e+06
1.034e+06
1.034e+06
1.034e+06
1.034e+06
1.034e+06
1.034e+06
1.034e+06
1.034e+06
1.034e+06
1.034e+06
1.034e+06
1.034e+06
1.034e+06
1.034e+06
1.034e+06
1.034e+06
1.034e+06
1.034e+06
1.034e+06
1.034e+06
1.034e+06
1.034e+06
1.034e+06
1.034e+06
1.034e+06
1.034e+06
1.034e+06
1.034e+06
1.034e+06
1.034e+06
1.034e+06
1.034e+06
1.034e+06
1.034e+06
1.034e+06
1.034e+06
1.034e+06
1.034e+06
1.03377e+06
1.03381e+06
1.03386e+06
1.0339e+06
1.03393e+06
1.03396e+06
1.03398e+06
1.03399e+06
1.03399e+06
1.034e+06
1.034e+06
1.034e+06
1.034e+06
1.034e+06
1.034e+06
1.034e+06
1.034e+06
1.034e+06
1.034e+06
1.034e+06
1.034e+06
1.034e+06
1.034e+06
1.034e+06
1.034e+06
1.034e+06
1.034e+06
1.034e+06
1.034e+06
1.034e+06
1.034e+06
1.034e+06
1.034e+06
1.034e+06
1.034e+06
1.034e+06
1.034e+06
1.034e+06
1.034e+06
1.034e+06
1.034e+06
1.034e+06
1.034e+06
1.034e+06
1.034e+06
1.034e+06
1.034e+06
1.034e+06
1.034e+06
1.034e+06
1.034e+06
1.034e+06
1.034e+06
1.034e+06
1.034e+06
1.034e+06
1.034e+06
1.034e+06
1.034e+06
1.034e+06
1.034e+06
1.034e+06
1.034e+06
1.034e+06
1.034e+06
1.034e+06
1.034e+06
1.034e+06
1.034e+06
1.034e+06
1.034e+06
1.034e+06
1.034e+06
1.034e+06
1.034e+06
1.034e+06
1.034e+06
1.034e+06
1.03367e+06
1.03372e+06
785515
833152
868499
893649
912131
926178
937728
946905
954994
961683
967612
972833
977456
981659
985525
989131
992445
995526
998399
1.00113e+06
1.00368e+06
1.00609e+06
1.00836e+06
1.0105e+06
1.01253e+06
1.01446e+06
1.01627e+06
1.01798e+06
1.01959e+06
1.0211e+06
1.02252e+06
1.02384e+06
1.02506e+06
1.02619e+06
1.02722e+06
1.02816e+06
1.029e+06
1.02975e+06
1.03041e+06
1.03099e+06
1.03149e+06
1.03192e+06
1.03229e+06
1.0326e+06
1.03286e+06
1.03307e+06
1.03325e+06
1.03339e+06
1.03351e+06
1.0336e+06
667568
632653
631416
625202
611616
593854
578589
563254
549670
537498
526478
516528
507485
499507
492166
485711
479652
474129
468897
463780
458932
454318
449938
445537
441224
436999
432740
428447
424203
419924
415657
411390
407115
402828
398530
394256
389996
385725
381509
377287
373058
368876
364722
360537
356359
352197
348039
343934
339806
335714
331640
327608
323566
319587
315576
311615
307672
303777
299855
295988
292139
288330
284544
280794
277053
273348
269644
265981
262334
258741
255158
251605
248070
244561
241079
237625
234203
230796
227421
224058
220726
217414
214132
210873
207663
204460
201297
198128
194991
191856
188768
185680
182625
179582
176549
173553
170567
167622
164629
161698
158740
155817
152886
149997
147105
144221
141325
138403
135502
132522
129574
126471
123396
119995
116530
112494
107927
102443
95286.6
88032
674395
634577
632594
625798
611546
594568
579244
563674
550043
537764
526797
516784
507655
499593
492172
485855
479865
474361
469115
463979
459106
454491
450118
445705
441383
437153
432876
428580
424333
420051
415787
411518
407236
402955
398651
394384
390118
385814
381622
377396
373171
368984
364816
360615
356452
352291
348138
344028
339887
335811
331732
327688
323641
319657
315661
311691
307749
303850
299923
296055
292208
288394
284608
280859
277118
273412
269703
266042
262392
258797
255213
251659
248124
244612
241129
237673
234249
230841
227463
224101
220766
217451
214169
210909
207696
204492
201327
198156
195016
191882
188791
185702
182646
179600
176567
173570
170585
167638
164643
161712
158752
155825
152890
150009
147110
144232
141328
138413
135506
132533
129577
126487
123403
120026
116558
112578
108108
102666
96161.5
88946.5
788659
833197
868228
893707
912057
926010
937809
946785
954693
961328
967298
972599
977268
981487
985358
988983
992318
995406
998283
1.00103e+06
1.00359e+06
1.00601e+06
1.00828e+06
1.01043e+06
1.01247e+06
1.0144e+06
1.01622e+06
1.01793e+06
1.01955e+06
1.02107e+06
1.02248e+06
1.0238e+06
1.02503e+06
1.02617e+06
1.0272e+06
1.02814e+06
1.02899e+06
1.02974e+06
1.0304e+06
1.03098e+06
1.03148e+06
1.03192e+06
1.03228e+06
1.0326e+06
1.03286e+06
1.03307e+06
1.03325e+06
1.03339e+06
1.03351e+06
1.0336e+06
1.03367e+06
1.03372e+06
1.03377e+06
1.03381e+06
1.03386e+06
1.0339e+06
1.03393e+06
1.03396e+06
1.03398e+06
1.03399e+06
1.03399e+06
1.034e+06
1.034e+06
1.034e+06
1.034e+06
1.034e+06
1.034e+06
1.034e+06
1.034e+06
1.034e+06
1.034e+06
1.034e+06
1.034e+06
1.034e+06
1.034e+06
1.034e+06
1.034e+06
1.034e+06
1.034e+06
1.034e+06
1.034e+06
1.034e+06
1.034e+06
1.034e+06
1.034e+06
1.034e+06
1.034e+06
1.034e+06
1.034e+06
1.034e+06
1.034e+06
1.034e+06
1.034e+06
1.034e+06
1.034e+06
1.034e+06
1.034e+06
1.034e+06
1.034e+06
1.034e+06
1.034e+06
1.034e+06
1.034e+06
1.034e+06
1.034e+06
1.034e+06
1.034e+06
1.034e+06
1.034e+06
1.034e+06
1.034e+06
1.034e+06
1.034e+06
1.034e+06
1.034e+06
1.034e+06
1.034e+06
1.034e+06
1.034e+06
1.034e+06
1.034e+06
1.034e+06
1.034e+06
1.034e+06
1.034e+06
1.034e+06
1.034e+06
1.034e+06
1.034e+06
1.034e+06
1.03377e+06
1.03381e+06
1.03386e+06
1.0339e+06
1.03393e+06
1.03396e+06
1.03398e+06
1.03399e+06
1.03399e+06
1.034e+06
1.034e+06
1.034e+06
1.034e+06
1.034e+06
1.034e+06
1.034e+06
1.034e+06
1.034e+06
1.034e+06
1.034e+06
1.034e+06
1.034e+06
1.034e+06
1.034e+06
1.034e+06
1.034e+06
1.034e+06
1.034e+06
1.034e+06
1.034e+06
1.034e+06
1.034e+06
1.034e+06
1.034e+06
1.034e+06
1.034e+06
1.034e+06
1.034e+06
1.034e+06
1.034e+06
1.034e+06
1.034e+06
1.034e+06
1.034e+06
1.034e+06
1.034e+06
1.034e+06
1.034e+06
1.034e+06
1.034e+06
1.034e+06
1.034e+06
1.034e+06
1.034e+06
1.034e+06
1.034e+06
1.034e+06
1.034e+06
1.034e+06
1.034e+06
1.034e+06
1.034e+06
1.034e+06
1.034e+06
1.034e+06
1.034e+06
1.034e+06
1.034e+06
1.034e+06
1.034e+06
1.034e+06
1.034e+06
1.034e+06
1.034e+06
1.034e+06
1.034e+06
1.034e+06
1.034e+06
1.03366e+06
1.03372e+06
792052
834357
868591
894084
911908
925953
937838
946817
954804
961426
967374
972667
977325
981534
985404
989039
992357
995438
998308
1.00105e+06
1.00361e+06
1.00603e+06
1.0083e+06
1.01044e+06
1.01248e+06
1.01441e+06
1.01623e+06
1.01794e+06
1.01956e+06
1.02107e+06
1.02249e+06
1.02381e+06
1.02504e+06
1.02617e+06
1.02721e+06
1.02815e+06
1.02899e+06
1.02974e+06
1.0304e+06
1.03098e+06
1.03148e+06
1.03192e+06
1.03229e+06
1.0326e+06
1.03286e+06
1.03307e+06
1.03325e+06
1.03339e+06
1.0335e+06
1.03359e+06
681151
636451
633235
625762
611293
595074
579560
563653
549917
537745
526836
516860
507851
499658
492114
485811
479843
474338
469116
463975
459096
454481
450114
445701
441380
437148
432872
428573
424328
420041
415777
411512
407228
402956
398645
394383
390124
385899
381609
377388
373177
369003
364814
360640
356447
352288
348141
344022
339881
335817
331739
327714
323690
319683
315666
311718
307763
303861
299969
296089
292211
288387
284609
280874
277131
273411
269702
266043
262398
258806
255222
251664
248128
244615
241129
237673
234249
230840
227462
224100
220765
217450
214168
210907
207695
204490
201326
198154
195014
191881
188790
185700
182644
179598
176565
173568
170584
167636
164641
161709
158750
155821
152888
150006
147108
144231
141326
138412
135506
132543
129576
126503
123408
120058
116584
112666
108247
102931
97081.2
89443.1
687369
640108
635197
626494
611080
595342
579378
563786
550222
538122
527158
517168
508129
499912
492315
486106
480186
474665
469386
464206
459301
454690
450326
445879
441556
437324
433016
428715
424469
420181
415919
411656
407364
403100
398781
394519
390256
386025
381719
377496
373285
369118
364913
360750
356546
352391
348241
344117
339967
335911
331830
327806
323780
319766
315751
311798
307839
303934
300041
296163
292280
288454
284677
280946
277200
273477
269762
266104
262460
258866
255281
251722
248185
244667
241181
237722
234296
230886
227505
224144
220807
217489
214206
210942
207728
204520
201355
198181
195039
191906
188813
185721
182661
179613
176582
173585
170602
167652
164656
161724
158758
155833
152897
150015
147118
144242
141334
138424
135509
132556
129583
126524
123415
120095
116618
112760
108403
103112
97916.9
795048
835396
869524
893131
911971
925428
937289
946331
954361
961175
967109
972474
977112
981346
985197
988843
992208
995306
998176
1.00094e+06
1.00352e+06
1.00595e+06
1.00822e+06
1.01036e+06
1.01241e+06
1.01434e+06
1.01617e+06
1.01789e+06
1.01951e+06
1.02104e+06
1.02246e+06
1.02378e+06
1.02501e+06
1.02615e+06
1.02719e+06
1.02813e+06
1.02898e+06
1.02973e+06
1.03039e+06
1.03097e+06
1.03148e+06
1.03191e+06
1.03228e+06
1.03259e+06
1.03285e+06
1.03307e+06
1.03325e+06
1.03339e+06
1.0335e+06
1.03359e+06
1.03366e+06
1.03372e+06
1.03377e+06
1.03381e+06
1.03386e+06
1.0339e+06
1.03393e+06
1.03396e+06
1.03398e+06
1.03399e+06
1.03399e+06
1.034e+06
1.034e+06
1.034e+06
1.034e+06
1.034e+06
1.034e+06
1.034e+06
1.034e+06
1.034e+06
1.034e+06
1.034e+06
1.034e+06
1.034e+06
1.034e+06
1.034e+06
1.034e+06
1.034e+06
1.034e+06
1.034e+06
1.034e+06
1.034e+06
1.034e+06
1.034e+06
1.034e+06
1.034e+06
1.034e+06
1.034e+06
1.034e+06
1.034e+06
1.034e+06
1.034e+06
1.034e+06
1.034e+06
1.034e+06
1.034e+06
1.034e+06
1.034e+06
1.034e+06
1.034e+06
1.034e+06
1.034e+06
1.034e+06
1.034e+06
1.034e+06
1.034e+06
1.034e+06
1.034e+06
1.034e+06
1.034e+06
1.034e+06
1.034e+06
1.034e+06
1.034e+06
1.034e+06
1.034e+06
1.034e+06
1.034e+06
1.034e+06
1.034e+06
1.034e+06
1.034e+06
1.034e+06
1.034e+06
1.034e+06
1.034e+06
1.034e+06
1.034e+06
1.034e+06
1.034e+06
90517.5
14077.3
13421
13482.5
13386.8
13183.5
12976.7
12821.4
12661.7
12510.3
12384.2
12270.1
12186.3
12111.3
12031.6
11945.5
11838.1
11722.6
11601.8
11490.6
11404.7
11329.4
11274.2
11224.8
11178.2
11105.7
11026.3
10949.5
10881.1
10788.9
10711.5
10633.7
10568.5
10493.1
10424.2
10351.3
10291.9
10244
10202
10147.7
10082.8
10030.1
9990.09
9934.75
9885.97
9837.09
9780.34
9724.82
9659.46
9603.36
9547.85
9496.12
9438.05
9380.44
9314.49
9245.41
9172.44
9099.86
9027.75
8939.23
8854.83
8770.14
8696.36
8621.94
8552.62
8479.1
8405.33
8326.91
8238.41
8148.39
8059.67
7962.41
7844.89
7699
7561.69
7397.14
7249.32
7110.02
6949.06
6816.31
6683.22
6537.25
6384.9
6238.59
6106.75
5993.57
5892.82
5814.45
5746.67
5691.47
5658.6
5654.79
5655.95
5663.81
5691.63
5767.02
5925.07
6247.81
6373.15
6599.65
6211.7
7295.35
25900.1
24050.8
24604.1
20507.6
17869.8
16784.2
16311.8
16051.2
15937.2
15852.3
15786.6
15709.7
15592.2
15513
15485.8
15490.7
15549.5
15595.8
15586.1
15558.2
15517.8
15364.4
15316.9
15330.8
15350.1
15353.9
15361.8
15385.1
15372.8
15369.6
15368.7
15353.6
15338.7
15314.6
15093.2
15008.3
14982.2
14992.9
15171.9
15346.6
15412.2
15380.5
15372.2
15505.2
15600.2
15617.1
15630.4
15642.8
15654.2
15381.7
14953.7
14798.3
14806.1
14854.9
15045.8
14946.3
14928.1
14926.3
15003
15101.7
15238.2
15507.9
15810.3
15903.3
15900.2
15874.7
15846.5
15837.1
15866
15865.3
15813.3
15436
15142.3
15131.8
15183.1
15223.4
15215.3
14844.8
14655.8
26620.3
23974.7
24226.8
23295.2
22772
22425.7
22009.6
21573.5
21149.4
20797.6
20605.5
20564.4
20546.9
20557.3
20725.3
20829.1
21134.8
21253.5
21277.1
21263.7
21194.6
21097.2
21126.1
21348.9
21609.4
21849.1
21993.1
21999.1
22163.6
22516.7
22874.4
23085.5
23162.7
23275.6
23476.3
23773.7
24098
24554.4
24798.3
24891
25005.4
25079.6
25121.8
25177.3
25255.6
25526.6
25969.1
26268.6
26579.4
26612.3
26741.7
26947.2
27130.9
27141.2
27180.9
27235.4
27532.1
27888.8
28306.6
28550.7
28665.5
28639.9
28731.1
28983.1
29208
29639.1
30409
30766
31260
31401.7
31494.9
31704.4
32007.5
32525.2
33038
33520.4
33856.9
34263.1
34754.1
35097.3
35436.8
35842.4
36283.1
36606.3
36789.8
36912.6
37004.9
37148.7
37278.5
37257.1
37403.8
37697
38110
38377.1
38519.6
38689.8
38855.3
39342.1
39770.5
40212.9
40504.8
40660.9
40664.3
40174.4
39861.2
39815.7
39811.1
40338
41176.9
41767.2
42485.5
43170.3
43646.6
44622.5
45980
47043.4
47794.1
48015.3
48073.7
47514.9
46902.2
46426.1
46888.6
47657.8
47827.3
48293.9
48461.5
48880.6
49755.7
50549.9
51238.5
51910.1
52366.4
52625.6
52733.8
51950.9
51217.4
51487.1
51944.8
51890.5
51690.2
51946.7
52126.3
52387.1
52476.2
52418.4
52635.3
52813.4
53032.4
53391.1
53394.1
53059.6
52690.3
52334.7
51689.6
51557.7
51582.7
51718.2
51945.5
52378.9
52705.5
53046.9
53081.5
52850.9
52327.2
52267.1
52338.4
52209.6
51437.9
50602.1
50021.2
49457.7
49222.7
48842.5
48391.3
48221.5
48238.1
48236
48216.3
47580
47376.8
47596.1
47682.2
47806.4
47694.7
47471.2
47156.7
46998
46124.2
45580.4
45352
45281.3
45098.9
44840.6
44559.4
43765.4
42331.9
41693.1
41434
41451.4
41767.3
41818.6
41817.7
41784.7
41678.7
41680.5
41570.8
41513.9
41466.3
41384.7
41023.2
40649.9
40256.6
39906.9
39440.2
38920.6
38344.5
37708.8
37235.1
36923.7
36670.6
36189
35633.8
34924.6
34385.2
33886
33580.7
33423.6
33128.2
32912.9
32297.1
31495.7
31497.1
31513.5
31353.3
31092.8
30565.7
30098.9
29466.9
28895.7
28356.6
28005.1
27772.3
27537.7
27399.9
27231.1
27004.9
26818.5
26411
26101
25984
25865.9
25636.9
25273.4
24848.2
24348.4
24200.1
23991.8
23757.3
23504.5
22927
22275.5
21875.8
21484.5
21183.7
20987.3
20782
20772.6
20813.1
20796.3
20804.9
20608.1
20282.3
20171.9
19923.7
19835.7
19791.9
19782
19855.6
20004.8
20206.4
20483.6
20603.5
20597.6
20561.3
20550.4
20589.8
20648.8
20705.6
20779.4
20945
21318.1
21832.2
22958.9
22851.2
14324.6
14402.4
14514.4
14496.5
14460.2
14685.4
14709.5
14701.5
14643.4
14662.4
14698.5
14751
14795.3
14813.3
14740.3
14628
14637.1
14689.4
14783.5
14798.6
14708.9
14646.7
14632.7
14689.8
14862.3
14925.5
14926.6
14897.2
14829.4
14665.9
14661.2
14692.2
14721.3
14789.8
14783.4
14819.8
14852.5
14865.3
14906.3
14904
14917.3
14944
14963.4
14978.3
14973.3
14981
14939.3
14864.7
14805
14816.1
14841
14833.6
14815.6
14806.2
14772.5
14754.7
14720.5
14685.1
14698.9
14719.3
14799.3
14845.7
14937.8
14934.5
14926
14894
14886.1
14907.4
14951.9
15229.1
15354.6
15422.3
15540.3
15663.9
15919.3
16195.3
16398.2
16541.9
16750.7
16979.7
17386.3
18301.1
20131.3
24208.1
24093.1
912524
926339
938160
947699
956406
962428
968416
973189
977618
981642
985520
989275
992516
995545
998360
1.00116e+06
1.00369e+06
1.00609e+06
1.00835e+06
1.01047e+06
1.0125e+06
1.01444e+06
1.01625e+06
1.01796e+06
1.01957e+06
1.02109e+06
1.02248e+06
1.02382e+06
1.02507e+06
1.0262e+06
1.02724e+06
1.0282e+06
1.02903e+06
1.02975e+06
1.03041e+06
1.03099e+06
1.0315e+06
1.03193e+06
1.03229e+06
1.0326e+06
1.03286e+06
1.03307e+06
1.03325e+06
1.03339e+06
1.0335e+06
1.03359e+06
1.03366e+06
1.03372e+06
1.03377e+06
1.03381e+06
1.03386e+06
1.0339e+06
1.03393e+06
1.03396e+06
1.03398e+06
1.03399e+06
1.03399e+06
1.034e+06
1.034e+06
1.034e+06
1.034e+06
1.034e+06
1.034e+06
1.034e+06
1.034e+06
1.034e+06
1.034e+06
1.034e+06
1.034e+06
1.034e+06
1.034e+06
1.034e+06
1.034e+06
1.034e+06
1.034e+06
1.034e+06
1.034e+06
1.034e+06
1.034e+06
1.034e+06
1.034e+06
1.034e+06
1.034e+06
1.034e+06
1.034e+06
1.034e+06
1.034e+06
1.034e+06
1.034e+06
1.034e+06
1.034e+06
1.034e+06
1.034e+06
1.034e+06
1.034e+06
1.034e+06
1.034e+06
1.034e+06
1.034e+06
1.034e+06
1.034e+06
1.034e+06
1.034e+06
1.034e+06
1.034e+06
1.034e+06
1.034e+06
1.034e+06
1.034e+06
1.034e+06
1.034e+06
1.034e+06
1.034e+06
1.034e+06
1.034e+06
1.034e+06
1.034e+06
1.034e+06
1.034e+06
1.034e+06
1.034e+06
1.034e+06
1.034e+06
1.034e+06
1.034e+06
1.034e+06
1.034e+06
1.034e+06
1.034e+06
1.034e+06
1.034e+06
1.034e+06
1.034e+06
639577
636257
610126
579041
562329
550049
538394
527370
517390
508709
500721
495165
491983
487127
485781
479360
474321
469365
464038
458953
454393
450222
445824
441496
437245
432968
428601
424338
420013
415757
411515
407248
403043
398702
394429
390211
385988
381762
377523
373325
369150
364977
360791
356616
352437
348285
344156
340009
335937
331855
327851
323840
319847
315805
311854
307885
303985
300089
296216
292312
288479
284691
280967
277225
273507
269790
266112
262462
258871
255286
251727
248189
244674
241179
237720
234290
230881
227496
224131
220790
217478
214200
210937
207723
204513
201349
198172
195031
191899
188805
185711
182648
179600
176569
173570
170589
167629
164632
161702
158729
155809
152869
150007
147094
144244
141309
138426
135470
132570
129559
126572
123398
120201
116708
113124
108965
104597
99650.6
82849.7
80789
79547.9
78219.1
76770.5
75284.4
71620.5
60233.9
33274.6
3474.69
480951
474369
13650.6
21324.5
21966.9
12695.9
968847
976477
980819
1.034e+06
1.034e+06
95922.3
87840.6
4843.42
469624
13491.1
13698.7
13713
12983.8
13261.5
12649.8
12800
12368.4
12497.2
12149
12246.4
12009.2
12069.4
11845.1
11940.5
11584
11714.7
11385.8
11467.2
11269.5
11320.8
11156.8
11212.8
11012.8
11089.7
10847.5
10930.6
10697.6
10765.9
10558.6
10623.2
10425.8
10493
10296.1
10360.5
10198.8
10238.9
10081
10151.2
9989.29
10037.8
9858.4
9927.36
9767.46
9807.13
9663.75
9712.01
9553.9
9607.9
9436.3
9495.31
9304.24
9370.3
9163.59
9232.41
9026.95
9093.97
8881.2
8953.1
8732.86
8807.09
8581.91
8659.4
8418.15
8502.92
8245.19
8331.91
8051.08
8147.6
7807.54
7934.97
7525.71
7671.54
7211.9
7366.36
6915.14
7077.37
6625.19
6768.55
6337.29
6477.28
6083.93
6207.43
5872.31
5971.09
5714.63
5784.85
5627.45
5659.14