/*--------------------------------*- C++ -*----------------------------------*\
| =========                 |                                                 |
| \\      /  F ield         | OpenFOAM: The Open Source CFD Toolbox           |
|  \\    /   O peration     | Version:  2212                                  |
|   \\  /    A nd           | Website:  www.openfoam.com                      |
|    \\/     M anipulation  |                                                 |
\*---------------------------------------------------------------------------*/
FoamFile
{
    version     2.0;
    format      ascii;
    arch        "LSB;label=32;scalar=64";
    class       surfaceScalarField;
    location    "9.9e-05";
    object      phi;
}
// * * * * * * * * * * * * * * * * * * * * * * * * * * * * * * * * * * * * * //

dimensions      [1 0 -1 0 0 0 0];

oriented        oriented;

internalField   nonuniform List<scalar> 
112622
(
-8.50223e-20
-1.12228e-20
4.62682e-20
-2.22451e-19
1.9217e-19
3.01762e-20
-2.4871e-19
-8.47545e-20
-3.55118e-19
-3.65807e-20
-1.89419e-19
1.01536e-19
-2.29865e-19
8.30604e-20
-6.23651e-20
6.66502e-20
7.82432e-20
7.18402e-20
-2.86403e-19
-1.09636e-19
-1.14985e-19
5.73875e-20
1.00691e-19
1.44896e-19
1.7703e-19
1.03867e-19
6.9877e-21
8.88852e-20
1.10008e-19
1.22978e-19
1.07203e-19
7.55974e-20
1.75755e-20
-3.01227e-20
-7.80858e-20
-4.41514e-20
2.86456e-19
2.16046e-19
1.19325e-19
4.84926e-20
2.88519e-20
5.09811e-20
2.25522e-20
-1.10008e-19
-1.36637e-19
-1.27425e-19
-1.28961e-19
-3.07025e-21
-2.50403e-20
8.428e-20
1.75971e-19
5.05837e-20
9.52913e-20
-2.55167e-20
-1.29171e-20
-1.50613e-20
4.53163e-20
2.10698e-20
8.51269e-20
6.19381e-21
8.83032e-20
-2.52258e-20
5.77571e-20
-3.38946e-20
5.00298e-21
-6.25479e-20
-1.50719e-19
-9.94205e-20
-5.63807e-20
-1.81055e-20
-4.49725e-20
4.49935e-21
1.25462e-20
2.05536e-20
2.05139e-20
-4.08927e-21
-4.48663e-20
-8.61575e-21
-1.60407e-20
2.05538e-20
1.01644e-20
1.44922e-20
9.807e-21
1.37638e-21
1.03364e-20
2.64034e-21
1.96406e-20
-3.12349e-21
-5.32049e-21
-5.16206e-22
8.19236e-21
2.75289e-21
5.45943e-22
3.14307e-22
6.65958e-20
-7.80854e-20
-7.75035e-20
-6.55383e-20
-3.68484e-20
-1.54569e-20
-1.19646e-19
2.04894e-20
-1.30553e-19
-3.98112e-20
-1.0027e-19
6.342e-20
-1.55008e-19
1.36902e-19
8.04711e-21
-8.21622e-20
1.0693e-20
8.20568e-20
-1.56596e-19
5.22543e-20
-1.80842e-19
7.68711e-20
-4.22359e-22
-4.47336e-20
7.43277e-20
1.69923e-20
6.05634e-20
9.7673e-20
8.3327e-20
9.55551e-20
8.11036e-20
6.53804e-20
2.59409e-20
2.59934e-20
-2.0858e-20
5.02905e-21
1.32031e-19
6.02981e-20
1.59242e-19
1.88991e-20
1.28695e-19
6.85567e-20
2.74219e-20
-1.02708e-20
-5.65938e-20
-3.32995e-20
-5.72821e-20
1.77368e-21
-1.23887e-20
3.10498e-20
2.23402e-20
2.04615e-20
2.32405e-20
-2.57545e-20
9.89975e-21
-5.79673e-21
3.40402e-20
-6.43251e-21
4.84924e-20
-1.0403e-20
4.46805e-20
-2.24997e-20
4.36752e-20
-2.88381e-20
1.73383e-20
-3.66864e-20
-3.58136e-20
-4.54226e-20
-4.24312e-20
-9.66227e-21
-4.26167e-20
3.44031e-21
-2.56233e-20
3.1626e-21
-1.92969e-20
-5.9288e-21
-2.26317e-20
-3.98302e-21
6.88274e-22
1.97216e-21
1.54185e-20
1.97172e-21
1.38304e-20
2.68659e-21
1.06011e-20
5.36682e-21
4.19548e-21
3.63295e-21
2.18387e-22
3.08699e-21
3.04409e-22
2.80583e-21
4.38387e-22
1.38954e-22
-1.15197e-19
3.41462e-20
-1.90901e-19
1.48234e-20
-2.31348e-19
3.61049e-20
-2.04774e-19
-1.0112e-20
-1.56917e-19
-9.96856e-20
4.22263e-22
-9.41253e-20
1.28855e-19
1.20711e-20
2.06473e-20
4.2379e-22
-7.62223e-21
1.0678e-19
-7.87747e-20
1.11756e-19
-3.64233e-20
2.5624e-20
-4.40448e-20
-4.91795e-20
-3.27149e-20
3.01777e-21
2.33067e-21
5.43683e-20
3.0917e-20
6.01382e-20
6.90337e-20
2.49874e-20
7.48045e-20
1.48235e-20
2.91176e-20
4.40985e-20
3.79582e-20
4.89689e-20
5.81808e-20
-5.92958e-21
6.55394e-20
5.62748e-20
4.81747e-20
9.39627e-21
1.63576e-20
-8.49754e-21
5.12976e-20
-2.80844e-20
8.20023e-20
1.02703e-20
9.46024e-20
9.55604e-21
5.51098e-20
1.25735e-20
3.2187e-20
1.5379e-20
3.08637e-20
-5.5852e-21
4.43104e-20
-2.35847e-20
4.16638e-20
-2.22612e-20
2.60464e-20
-1.26655e-20
-6.03517e-21
2.34287e-21
-3.47284e-20
-1.37248e-20
-3.69784e-20
-1.12237e-20
-3.75869e-20
5.82089e-22
-2.10959e-20
-1.54452e-20
-1.28908e-20
-1.50876e-20
-9.74072e-21
-4.89664e-21
-3.70474e-22
-3.66601e-21
-6.29987e-21
6.27312e-21
-6.69699e-21
4.94977e-21
-5.98225e-21
5.16827e-21
-4.75787e-21
3.1963e-21
5.62641e-22
-8.96611e-22
1.70741e-21
1.85953e-21
6.08791e-22
9.39734e-22
1.4209e-19
-1.26419e-19
1.46854e-19
-4.87011e-21
1.9937e-19
-2.02751e-20
1.7216e-19
1.91112e-20
9.39149e-20
-2.62052e-20
4.19281e-20
-6.27865e-20
1.18055e-19
-4.93397e-20
8.22679e-20
4.48397e-20
6.86096e-20
9.47081e-20
1.56277e-19
4.81747e-20
1.20914e-19
5.70154e-20
2.467e-20
5.57441e-20
-4.73278e-20
7.39563e-20
-2.71051e-20
5.85519e-20
-8.36444e-21
1.95355e-20
1.6623e-20
5.92912e-21
4.28811e-20
-7.94137e-21
2.7158e-20
4.11339e-20
2.8005e-20
4.3252e-20
3.52577e-20
-2.22876e-20
5.00278e-20
4.46541e-20
8.83031e-20
-3.09422e-20
7.10449e-20
8.73636e-21
2.05935e-20
2.21817e-20
1.07468e-20
2.42464e-20
-5.55851e-21
1.40814e-20
-2.48806e-21
1.35515e-20
1.46113e-20
5.25806e-23
2.44581e-20
-1.53525e-20
2.41934e-20
-2.23274e-20
1.97994e-20
-1.93096e-20
1.55112e-20
-8.88041e-21
1.98521e-20
-3.67921e-21
4.84391e-21
-3.66621e-21
-1.72049e-21
-1.15276e-20
4.60576e-21
-6.84216e-21
-4.23523e-22
-9.76715e-21
-1.64112e-21
-9.71463e-21
-6.93508e-21
1.29684e-21
-8.84089e-21
9.26479e-22
-5.47924e-21
3.79865e-21
-6.80273e-21
5.56538e-21
-6.88214e-22
9.92563e-22
3.96384e-21
1.93216e-21
1.60142e-21
3.60973e-21
3.24255e-21
1.62113e-22
3.66274e-21
-2.87862e-22
-1.4876e-19
-3.75843e-21
-4.00225e-20
-1.15037e-19
5.78099e-20
-9.79906e-20
6.78686e-20
2.67874e-20
5.49512e-20
-3.1773e-22
-2.21291e-20
-1.05914e-21
-1.94924e-19
1.0339e-19
-2.52204e-19
1.00003e-19
-1.73007e-19
1.59869e-20
-1.24832e-19
-9.95308e-21
-3.99166e-20
3.44107e-21
-1.04818e-20
2.36096e-20
-2.15984e-20
8.87271e-20
-5.2887e-22
3.19762e-20
6.03453e-21
8.25835e-21
-2.23414e-20
2.09107e-20
1.42927e-20
-2.32942e-20
8.09898e-21
2.31347e-20
4.21398e-20
2.6484e-21
-1.74159e-20
4.64821e-20
-1.65155e-20
5.19867e-20
-3.49351e-21
-3.55222e-20
7.30549e-21
-2.18365e-20
2.9113e-21
2.3796e-20
-1.07477e-20
3.80099e-20
-6.35275e-21
1.93233e-20
1.73646e-20
-6.24753e-21
3.22407e-20
-1.39765e-20
3.14994e-20
-1.97464e-20
3.29815e-20
-1.83838e-20
3.6952e-20
-2.25785e-20
3.40402e-20
-6.93508e-21
3.56283e-20
-2.02493e-21
1.68347e-20
1.09053e-20
-4.28823e-21
3.90426e-21
-8.17928e-21
-6.51122e-21
-7.27921e-21
-1.63712e-20
-4.26142e-21
-1.01645e-20
-4.65845e-21
3.99669e-21
8.73714e-22
4.22195e-21
-1.05856e-21
5.9693e-21
2.69991e-21
1.33009e-21
1.36308e-21
2.35553e-21
1.46894e-21
2.31611e-21
-5.82445e-22
5.63129e-21
-2.50805e-21
1.0158e-21
1.41943e-21
-5.29592e-23
1.55645e-20
-1.76815e-20
-7.73974e-20
-2.88514e-20
-7.39039e-20
-8.95737e-20
-6.32096e-20
4.18279e-21
-1.28008e-19
5.82863e-20
-1.33831e-19
1.06401e-20
-1.24726e-19
9.28022e-20
-3.13412e-20
1.19637e-20
1.42924e-20
-2.70003e-20
-2.16008e-20
1.82107e-20
-2.90125e-20
1.27048e-20
9.84625e-21
-1.19647e-20
1.06514e-19
1.41884e-20
2.66805e-20
8.77739e-20
-4.21409e-20
8.57088e-20
-7.9423e-21
-7.72972e-21
1.88456e-20
-4.36226e-20
-1.74707e-20
3.37759e-20
-1.99057e-20
-6.98663e-21
-2.55685e-20
2.37725e-20
1.08017e-20
1.49828e-20
-3.01755e-21
-1.76031e-20
-4.23514e-20
2.60728e-20
-2.86932e-20
8.2051e-21
8.62915e-21
-8.78842e-21
4.29872e-20
-1.21756e-20
3.08646e-20
7.72927e-21
2.26061e-20
-7.67899e-22
2.54645e-20
-1.70997e-20
1.92175e-20
-7.49146e-21
-3.86445e-21
5.32038e-21
-1.72054e-20
3.16314e-21
-1.46644e-20
-8.27194e-21
-1.13831e-21
-5.02935e-21
5.87649e-21
-1.15009e-20
4.20899e-21
-8.93307e-21
-1.56168e-21
-1.41215e-20
-6.64386e-21
-7.62339e-21
-9.71437e-21
3.37469e-21
-1.05616e-20
6.84235e-21
-1.20438e-20
5.53255e-21
-1.20833e-20
-1.58145e-21
-7.49086e-21
-6.61996e-22
-7.29241e-21
3.38126e-21
-1.83967e-21
8.91683e-23
-2.98444e-21
1.09194e-21
-1.81642e-21
-3.14253e-22
-8.09984e-20
6.15691e-20
-7.17871e-20
-2.42455e-20
-1.74701e-19
-9.52888e-21
-1.9196e-19
3.72698e-20
-2.18324e-19
8.40149e-20
-2.37593e-19
2.36633e-20
-1.39549e-19
-1.85371e-21
-1.41561e-19
5.9815e-21
-5.71748e-20
-9.93159e-20
3.84339e-20
-6.14637e-20
2.17045e-20
3.20266e-20
2.0857e-20
-6.3633e-22
4.60574e-20
-2.57284e-20
6.75494e-20
6.24157e-20
9.8678e-20
4.13989e-20
7.54904e-20
1.23342e-20
4.96569e-20
-3.65808e-20
3.77457e-20
2.97529e-20
2.69449e-20
8.8946e-21
2.05391e-20
1.64671e-20
-2.5465e-20
5.51115e-20
-1.93235e-20
-1.96143e-20
2.80567e-21
9.34455e-21
2.46704e-20
-1.24142e-20
5.70166e-20
-3.43846e-20
4.83873e-20
6.88347e-22
2.21817e-20
3.9837e-20
5.61191e-21
2.81102e-20
-1.83701e-20
8.20482e-21
-1.31293e-20
-6.08885e-21
-1.05916e-21
-5.34714e-21
2.28696e-20
-1.82377e-20
6.40549e-21
7.25272e-21
1.56171e-20
-1.0085e-20
3.30343e-20
-2.36106e-20
3.28758e-20
-1.3578e-20
1.58557e-20
7.00146e-21
1.61489e-21
8.12596e-21
-4.28798e-21
1.6305e-20
-4.04998e-21
9.38354e-21
5.75683e-21
-2.01154e-21
4.38037e-21
-1.6874e-21
5.99525e-21
-3.50732e-21
5.12197e-21
4.60562e-21
1.99862e-21
2.7859e-21
2.8787e-21
-8.2376e-22
-1.38835e-22
1.35763e-22
-2.96467e-20
6.93522e-20
-9.11619e-20
4.79108e-20
-1.12655e-19
2.8799e-20
-7.87762e-20
-1.21773e-21
4.26664e-20
-3.56824e-20
7.8137e-20
-4.71209e-21
6.85041e-20
1.15423e-20
-1.17507e-20
8.52337e-20
-1.08736e-19
2.963e-21
-7.36897e-20
-1.01911e-19
-2.4138e-20
-2.47794e-20
-3.16385e-22
-1.06448e-20
-2.27639e-20
1.9216e-20
-6.35331e-21
1.35522e-20
9.10547e-20
-6.54068e-20
6.99859e-20
3.26636e-20
2.9117e-20
2.48833e-20
5.32054e-20
5.98495e-21
1.14888e-20
4.44175e-20
-1.63076e-20
3.13947e-20
8.09975e-21
1.47986e-20
3.38682e-21
-1.37113e-20
-3.44137e-21
6.96406e-21
-8.84069e-21
-3.46649e-21
-4.14516e-20
-9.27325e-22
-3.28761e-20
-1.74441e-20
1.51402e-20
-2.43469e-21
2.80578e-20
2.02222e-20
2.86931e-20
7.2776e-21
4.33044e-20
-2.35861e-20
6.36332e-20
-2.41673e-20
3.854e-20
9.87316e-21
1.90582e-20
2.9474e-20
1.08261e-20
-1.86629e-21
3.94348e-21
-1.91108e-20
-5.50644e-21
-2.98943e-21
-6.8297e-21
8.60346e-21
-8.78809e-21
1.031e-20
1.37663e-21
8.8935e-21
1.28248e-20
1.5477e-21
1.29964e-20
-2.77954e-21
1.30622e-20
-4.35491e-21
4.28762e-21
2.66012e-21
3.0438e-21
3.93078e-21
1.70716e-21
2.66349e-21
1.28364e-21
4.03794e-22
-6.4334e-22
7.57592e-22
6.81853e-20
2.075e-20
1.15934e-19
-1.04319e-20
2.17893e-19
-6.34769e-20
2.94126e-19
-5.04517e-20
1.62096e-19
7.85087e-20
1.10748e-19
5.40016e-20
1.71206e-19
-5.7541e-20
2.62475e-19
-6.24458e-21
2.19489e-19
4.17677e-20
8.88337e-20
2.48287e-20
3.60019e-20
3.1919e-20
-1.36556e-20
3.62574e-20
-1.57745e-20
3.16537e-20
2.54124e-20
-1.38699e-20
-4.15023e-20
-1.82907e-20
-6.40536e-20
6.17279e-20
-3.10212e-20
-1.15928e-20
6.10416e-20
-9.44971e-20
4.01322e-20
5.58545e-20
1.5672e-20
8.49682e-20
2.15994e-20
-3.99607e-21
4.93394e-20
-3.57848e-20
8.97847e-20
-4.23222e-20
8.14734e-20
2.14613e-21
4.56868e-20
2.49347e-20
1.86338e-20
6.35275e-21
2.35568e-20
-1.35058e-21
2.22346e-20
1.80532e-20
1.42405e-20
1.10357e-20
-1.32285e-21
-3.94466e-21
-2.90621e-20
-5.47907e-21
-3.88031e-20
1.63447e-20
-1.79991e-20
8.85273e-21
-1.24502e-21
-2.15611e-20
2.85718e-21
-2.43264e-20
3.96812e-21
-6.72178e-21
7.91243e-21
2.79221e-22
5.63693e-21
1.7246e-20
1.82567e-21
1.48361e-20
6.66957e-21
2.43397e-21
3.81096e-21
-1.68104e-21
1.72001e-21
-1.78755e-21
-1.24492e-21
4.69775e-21
-5.16969e-22
2.4018e-21
5.55216e-22
6.38494e-22
7.4066e-22
-6.94714e-22
-3.88639e-22
-2.71706e-22
4.28794e-20
-3.12911e-20
6.69134e-20
-2.96492e-20
2.40324e-20
-1.40844e-20
-7.44659e-22
-2.63134e-20
5.35723e-20
3.13397e-20
1.2197e-19
-8.94299e-21
5.99243e-20
-1.76261e-20
5.71747e-21
5.0823e-20
2.21252e-20
1.25985e-20
-1.13286e-20
5.80216e-20
-2.80524e-20
3.97061e-20
-2.34993e-20
3.24989e-20
-2.06446e-20
2.84744e-20
-8.57539e-21
-3.63173e-20
4.23655e-21
-3.72697e-20
-5.61081e-21
7.06745e-20
-4.60584e-20
2.56754e-20
-8.6927e-20
-7.14632e-20
-1.19093e-20
-1.84763e-21
6.35283e-20
2.01077e-21
2.51983e-20
3.83546e-20
6.44266e-20
-6.31545e-20
6.58549e-20
-3.5521e-20
3.66844e-20
2.70529e-20
2.21794e-20
3.20026e-20
1.29157e-20
1.01889e-20
1.33916e-20
-4.77123e-22
2.2764e-20
6.77775e-21
3.44654e-20
-8.33752e-21
3.42542e-20
-7.47801e-21
1.01647e-20
1.44244e-20
9.73937e-21
1.09829e-20
7.62188e-21
1.01896e-20
1.40541e-20
-2.37054e-20
1.00299e-20
-1.1701e-20
4.15284e-21
-4.88806e-22
-3.15263e-21
1.48503e-20
-7.33379e-21
2.59951e-20
-2.17201e-21
8.907e-21
-3.36407e-21
3.00214e-21
-2.31816e-21
-5.49479e-22
-9.14627e-21
4.75782e-21
-6.69801e-21
1.84337e-22
-4.60689e-21
-9.13827e-22
-1.26431e-22
-2.9976e-21
3.76603e-22
-2.03818e-21
-8.04143e-22
9.98771e-22
-9.45531e-20
7.92505e-20
-1.60302e-19
5.00796e-20
-1.78196e-19
9.95046e-21
-2.04135e-19
5.02813e-21
-8.30099e-20
-8.29039e-20
3.2183e-20
-1.1742e-19
-6.04022e-21
2.34531e-20
-1.06832e-19
1.33513e-19
-1.6899e-19
6.80254e-20
-1.26636e-19
2.3454e-20
-7.22113e-20
7.89204e-21
-3.81152e-21
-1.795e-20
1.51411e-20
3.70518e-20
-1.37653e-20
1.29551e-21
-4.55417e-21
-4.30139e-20
2.53058e-20
2.81388e-20
7.308e-21
4.96591e-20
-5.70142e-20
-6.71932e-21
-2.38231e-21
-5.26715e-20
8.01485e-20
-7.18419e-20
1.04078e-19
2.51468e-20
6.10916e-20
-1.24915e-20
1.03748e-20
1.52205e-20
3.12873e-20
6.14071e-21
4.43594e-20
2.17043e-20
3.54166e-20
1.96672e-20
7.8887e-21
1.60158e-20
-2.43505e-21
9.82102e-21
-4.43627e-20
2.51077e-20
-5.6433e-20
1.44899e-22
-2.10714e-20
-2.55462e-20
1.54037e-20
-2.46454e-20
4.36214e-20
-1.55247e-20
2.18631e-20
-1.60303e-21
-6.8947e-22
5.67616e-21
-2.29239e-20
2.05016e-20
-2.21562e-20
9.7548e-21
1.98436e-21
2.36905e-21
6.77549e-21
8.47036e-21
-3.73305e-21
7.48901e-21
-4.19653e-21
2.9977e-21
-5.22908e-21
1.46201e-21
-3.45563e-21
-3.19063e-21
1.07074e-21
-2.34988e-21
-5.36013e-22
-2.43206e-21
1.84352e-22
-1.86965e-21
4.01876e-22
-8.60732e-22
8.41713e-20
-7.35628e-21
1.2409e-19
1.20702e-20
3.49392e-20
8.85656e-20
-2.09649e-20
6.54854e-20
-5.54797e-20
-3.84331e-20
-1.70148e-19
8.20535e-21
-2.32299e-19
8.14729e-20
-1.57551e-19
3.9755e-20
-7.66597e-20
1.79835e-21
-1.5144e-20
-3.02273e-20
-3.67436e-20
2.06495e-20
-1.89539e-20
-2.13882e-20
3.97047e-20
-1.18625e-20
2.63632e-20
2.56208e-20
-3.73757e-20
9.00001e-21
5.23042e-20
-4.82004e-20
9.9421e-20
2.0675e-20
3.3881e-20
2.35081e-20
-1.64122e-20
5.84866e-22
-3.55216e-20
-2.5121e-20
-6.87715e-22
1.82642e-20
-5.77581e-20
4.55286e-20
-2.2871e-20
-2.07517e-20
1.92158e-20
-2.84292e-20
1.05742e-21
4.14766e-20
-1.52473e-20
3.20298e-20
-7.95333e-22
9.27322e-22
8.67998e-21
-2.14409e-21
1.90031e-20
1.38311e-20
9.36813e-21
9.56838e-21
-9.95389e-21
-4.42265e-21
-1.30226e-20
-2.2685e-20
-2.58872e-20
-9.59551e-21
-2.13879e-20
-3.59157e-22
-1.45848e-20
2.11647e-21
-1.18323e-20
1.82775e-20
-1.18593e-20
9.80727e-21
-2.06624e-21
-8.12568e-21
7.17138e-21
-2.79314e-21
1.14602e-20
3.55905e-21
8.32367e-21
5.64423e-21
1.33128e-20
-3.27663e-21
8.07217e-21
2.54021e-21
3.69155e-21
2.16326e-21
1.27617e-21
1.3164e-21
-1.38375e-21
3.15961e-21
9.92357e-23
-7.44733e-22
-5.97156e-20
7.67137e-20
-1.47699e-19
1.0927e-19
-1.17733e-19
7.28969e-20
-1.46216e-19
8.25843e-20
-1.38488e-19
-4.25095e-20
-1.76603e-19
4.10292e-20
-1.13182e-19
1.23865e-20
5.8661e-20
-1.30922e-19
1.37011e-19
-7.11001e-20
6.77615e-21
8.9942e-20
-4.43648e-20
8.17939e-20
1.47169e-20
-6.73386e-20
1.44005e-20
-1.69443e-20
4.57398e-20
6.85426e-21
4.48942e-20
7.25276e-21
-4.12967e-21
2.51462e-20
-9.54645e-22
5.13558e-21
1.04796e-20
1.47723e-20
2.5039e-20
-2.00598e-20
-3.00173e-20
3.9546e-20
-1.15415e-20
6.80217e-21
6.268e-20
-2.31868e-20
-1.77363e-20
5.56654e-20
-9.4976e-20
6.37903e-20
-1.55126e-20
-3.45433e-20
5.37848e-20
-4.12124e-20
6.46894e-20
-1.18321e-20
8.04135e-20
-1.07724e-20
7.68144e-20
2.36653e-20
3.75862e-20
4.67318e-20
8.62839e-21
2.05781e-20
-4.3951e-21
-1.87545e-20
3.33382e-21
-1.99593e-20
-8.94757e-21
1.71638e-20
-3.22667e-20
2.62709e-20
-2.33199e-20
1.0191e-20
-1.27055e-20
1.25677e-21
-7.94093e-23
-1.44004e-20
5.52975e-21
-5.78523e-21
6.06828e-22
7.87373e-21
-2.92756e-22
4.26122e-21
-9.14678e-21
4.13472e-21
-7.91582e-21
3.5589e-21
-5.89068e-21
9.83205e-23
-2.05901e-21
3.5651e-23
1.77952e-21
-9.43212e-22
1.11681e-21
1.40271e-21
1.23878e-19
-2.53037e-20
1.92065e-19
3.74307e-20
1.70148e-19
1.0371e-19
1.80632e-19
6.41117e-20
2.47545e-19
-9.2165e-20
1.73961e-19
1.15248e-19
7.05167e-20
9.67717e-20
-6.24679e-21
-4.93445e-20
-5.12462e-20
-1.28163e-20
2.87985e-20
7.3027e-21
6.44779e-20
2.38243e-20
4.01279e-20
-5.27243e-20
3.11321e-20
-1.41359e-20
1.46156e-20
2.8957e-20
-4.07612e-20
6.0454e-20
-7.40079e-20
7.19434e-20
-1.03735e-20
-6.23074e-20
2.09115e-20
-1.33929e-20
9.47459e-21
-9.57963e-21
1.11055e-21
4.66401e-20
-7.04096e-20
9.12678e-20
-1.12764e-20
-7.43263e-20
3.0756e-20
2.37931e-20
5.20925e-20
5.34674e-20
4.72222e-20
-2.31592e-20
1.12219e-20
-6.98845e-21
-1.71012e-20
1.54046e-20
-5.07154e-20
1.32119e-20
-2.83755e-20
3.04514e-21
8.46928e-21
8.94437e-21
1.71518e-20
1.60913e-20
-1.16573e-21
6.60502e-22
-2.29238e-20
7.6606e-22
-1.47704e-20
1.23196e-20
-3.5205e-21
1.04689e-20
-1.33927e-20
1.3804e-20
-1.96401e-20
6.00748e-21
-2.23945e-20
-6.11729e-21
-1.47712e-20
-1.16093e-20
-3.73296e-21
-4.23516e-22
-3.85204e-21
3.06992e-21
-1.32391e-21
-6.76324e-23
1.57901e-22
4.09388e-21
2.20906e-21
-7.75985e-22
3.46012e-21
9.02375e-24
2.56058e-21
-4.20382e-22
3.03759e-21
2.64466e-22
3.08075e-20
-3.90687e-20
7.5595e-20
3.33893e-21
8.74524e-20
6.07749e-20
6.75468e-20
9.20637e-20
-6.75553e-20
6.95135e-20
9.41727e-21
4.90178e-20
5.88629e-20
7.78188e-20
3.01708e-20
-1.14924e-20
-4.43698e-20
5.61601e-20
-6.74477e-20
2.82695e-20
-2.26562e-20
-2.34988e-20
-8.57322e-21
-4.99153e-20
-3.58879e-20
1.90065e-20
-5.42036e-20
4.47344e-20
-2.96402e-20
2.93758e-20
1.96967e-20
2.51954e-20
2.39841e-20
-6.18302e-20
-3.32428e-20
3.46774e-20
-3.79559e-20
5.98407e-21
9.79639e-21
8.78769e-21
1.62019e-20
9.02644e-20
-3.18689e-20
-2.28962e-20
-2.03794e-20
1.81548e-20
1.26568e-20
2.24471e-20
2.14976e-20
-2.96705e-20
-2.91687e-20
4.03356e-20
-7.10995e-20
6.74938e-20
-8.78813e-20
2.66076e-20
-7.90933e-20
-1.08443e-21
-4.91826e-20
-1.72359e-20
-2.13886e-20
-3.66839e-21
-1.40287e-20
-1.8133e-21
-7.93958e-21
4.23014e-22
-1.45412e-21
1.06117e-20
5.56934e-22
7.94039e-21
1.13944e-21
7.98292e-21
-6.53627e-21
1.53517e-20
-2.96351e-21
-1.68503e-21
-2.4606e-21
-8.01009e-21
-4.63167e-21
-3.72752e-22
-5.18863e-21
3.14801e-21
-7.01553e-21
-1.64391e-21
-3.07107e-21
2.0242e-22
3.96744e-23
-4.32967e-21
2.32303e-21
-2.19451e-21
-8.73459e-22
3.13635e-21
2.7524e-21
-3.87591e-22
-8.01473e-20
3.71642e-20
-7.16802e-20
-5.82335e-21
4.37266e-20
-2.65778e-20
1.00047e-19
1.93158e-20
1.25561e-19
5.58515e-20
1.26098e-19
4.61667e-20
1.06831e-19
9.80455e-20
3.82258e-20
5.95554e-20
5.86623e-20
4.00118e-20
7.9094e-20
5.76842e-21
2.2554e-20
3.26732e-20
2.97509e-20
-6.61693e-20
5.36793e-20
-8.78771e-21
1.65149e-20
7.77681e-20
2.76342e-20
6.45609e-21
1.14457e-19
-5.43723e-20
3.08638e-20
2.64696e-20
-2.42428e-20
9.12678e-20
-4.77952e-20
2.54738e-20
-3.68459e-20
-1.2281e-20
1.10166e-20
4.29314e-20
-1.18575e-20
-2.65105e-21
-4.97086e-20
4.90456e-20
-5.88115e-20
3.22177e-20
-7.24734e-20
-6.67095e-21
-4.33074e-20
-1.38753e-21
1.31256e-20
2.47228e-20
1.71463e-20
1.64141e-20
1.25417e-20
7.33505e-21
-8.5013e-22
5.39686e-21
3.12164e-21
-1.8698e-22
4.24324e-22
5.89166e-21
-1.29676e-20
1.24158e-20
-3.11792e-20
2.29985e-20
-3.06502e-20
4.71162e-21
-8.65497e-21
-1.19626e-20
4.5805e-21
1.04553e-21
5.72076e-21
-8.10326e-22
-1.4923e-21
2.77599e-21
-2.50424e-22
4.3495e-21
-8.34296e-22
3.17204e-21
-1.09864e-21
5.06471e-22
3.04416e-21
-3.1133e-21
-5.61939e-22
8.98163e-22
-3.01706e-21
5.31826e-22
-2.09443e-21
2.36148e-21
9.37001e-22
-5.0319e-22
3.54697e-20
8.14384e-21
-5.19863e-20
7.14151e-20
-1.19112e-19
2.58358e-20
-6.56485e-20
-1.66372e-20
-7.73288e-21
1.79917e-21
1.47172e-20
2.52073e-20
1.11254e-20
1.03771e-19
-6.76428e-21
8.41761e-20
2.998e-20
1.7306e-20
6.6932e-20
-2.82732e-20
3.34643e-20
6.32642e-20
-3.57831e-20
3.97402e-21
2.65324e-21
-5.2302e-20
7.45413e-20
6.0833e-21
4.20334e-20
4.25037e-20
-2.90101e-20
1.85798e-20
-1.62498e-20
1.48241e-20
2.7899e-20
3.81761e-20
2.95735e-21
4.81796e-20
-3.15606e-20
1.85815e-20
-3.04992e-20
4.31977e-20
1.10088e-20
-3.85422e-20
-6.03414e-21
6.72333e-20
-1.67815e-20
5.05089e-20
-3.18194e-20
4.76138e-21
-1.51397e-20
-1.89348e-20
9.26994e-21
-6.22166e-21
1.52477e-20
8.31004e-21
7.30567e-21
1.61482e-20
-6.45748e-21
2.10151e-20
-1.72036e-20
1.5073e-20
-1.97431e-20
3.41908e-21
-4.65578e-21
3.17781e-21
-5.00756e-22
1.71474e-20
-1.162e-20
1.62767e-20
-1.30518e-20
-1.04171e-20
-2.59519e-21
-7.09346e-21
3.28479e-21
1.39023e-21
5.79793e-21
1.94067e-21
8.46925e-21
1.79203e-21
5.92898e-21
3.13293e-21
4.79198e-21
2.55245e-21
2.93978e-21
1.64506e-21
-1.84511e-21
7.42264e-21
-4.73752e-21
5.04458e-21
-2.94432e-21
6.04636e-22
-4.02541e-22
-2.51059e-21
-3.48422e-20
4.091e-20
2.91043e-20
2.85837e-20
8.03522e-20
-4.6796e-20
4.88058e-20
7.93483e-21
3.44159e-20
1.29173e-20
1.76939e-20
3.77601e-20
-2.68868e-20
1.39236e-19
2.08613e-20
5.66311e-21
5.43246e-20
-2.76871e-20
3.23017e-20
-1.0378e-20
4.88249e-20
5.60673e-20
-1.39648e-20
7.61279e-20
-3.3984e-20
-3.48904e-20
-1.55589e-20
-1.05911e-20
-1.99015e-20
5.20319e-20
-5.80707e-20
5.3255e-20
-3.55731e-20
-1.35518e-20
1.31784e-20
-1.78399e-20
3.64172e-21
5.08699e-20
-2.62748e-20
5.45754e-20
2.13207e-20
-4.97497e-21
-3.034e-20
1.13346e-20
-3.94391e-20
6.96752e-20
-1.27033e-20
1.684e-20
-6.93065e-21
3.57329e-21
-6.23631e-21
-2.67365e-20
6.98801e-22
-9.4773e-21
-1.37036e-21
8.73011e-21
-2.43141e-21
2.24199e-20
-3.64859e-21
2.64945e-20
-4.70924e-21
2.56992e-20
-1.44001e-20
1.61614e-20
-1.39243e-20
5.13585e-21
-9.00015e-21
1.21457e-20
-7.70286e-21
1.16707e-20
-8.20563e-21
-1.01788e-20
-1.10122e-20
-5.08221e-21
-1.68624e-20
6.57819e-21
-1.18861e-20
6.30758e-22
-7.95038e-22
-4.15008e-21
4.39265e-21
-3.52464e-21
4.61863e-21
4.4457e-21
-5.10098e-23
4.73144e-21
2.8479e-21
6.09382e-21
2.8939e-21
5.64373e-21
3.40283e-21
4.75866e-22
7.62198e-22
1.7643e-21
-2.09735e-20
5.40987e-20
-7.0424e-20
6.64863e-20
-5.47543e-20
-6.91392e-20
-1.39829e-20
-2.81105e-20
-5.08938e-21
1.14941e-20
5.92649e-21
2.68012e-20
6.85036e-20
6.15749e-20
1.30188e-20
5.83367e-20
3.58912e-20
-5.98728e-20
-1.10078e-20
3.59486e-20
-6.31009e-20
9.11656e-20
-4.78568e-20
5.34145e-20
-6.16225e-20
-2.91199e-20
-5.34685e-20
-1.49306e-20
-1.65641e-20
1.27559e-20
3.53707e-20
-2.11718e-21
-6.30094e-22
2.71044e-20
-3.13355e-20
4.28828e-21
-1.37053e-20
3.13366e-20
-1.00006e-20
5.65354e-20
1.18081e-20
-3.90165e-20
-6.19045e-21
2.54146e-20
4.62197e-20
1.87468e-20
4.14541e-20
1.35296e-20
1.73666e-20
2.98309e-20
-3.33112e-21
-6.3256e-21
-1.05342e-20
-4.74122e-21
-3.36716e-20
2.43191e-20
-3.20836e-20
1.73107e-20
-3.82231e-20
3.2108e-20
-2.23931e-20
1.01633e-20
-1.14896e-20
5.8226e-21
-1.62541e-20
9.42324e-21
-1.23085e-20
5.29207e-21
-8.60212e-21
9.29004e-21
-1.04548e-20
-6.33983e-21
-5.47893e-21
-8.92107e-21
-9.23799e-21
7.49083e-21
1.45771e-21
-4.5415e-21
3.12614e-21
-4.14681e-21
-1.13584e-21
1.58476e-21
2.62305e-21
3.44726e-21
7.17338e-22
6.8033e-21
2.96708e-21
5.11486e-21
3.5085e-21
5.29615e-21
6.88839e-22
2.8281e-21
-2.03892e-22
1.63145e-21
-7.73347e-21
5.01872e-20
-4.23516e-20
9.28021e-20
-7.60252e-20
-4.35719e-20
-3.95988e-20
-7.08341e-20
-4.96693e-20
1.99568e-20
6.75764e-21
-1.90549e-20
1.19208e-19
-5.44124e-20
1.01638e-19
5.78656e-20
2.4557e-20
-5.28242e-22
-3.21941e-20
8.89397e-20
1.31213e-20
4.79651e-20
6.72282e-20
9.00033e-21
1.35525e-20
2.80054e-20
-8.015e-20
8.06283e-20
-6.55354e-20
-2.11614e-21
5.92432e-20
-1.25202e-19
6.52226e-20
2.05902e-20
-3.07569e-20
9.93676e-20
-4.06533e-20
4.48936e-20
1.98073e-20
7.41085e-22
-3.93813e-20
1.37626e-20
1.60943e-20
-3.11826e-20
3.10758e-20
-1.53149e-21
1.79995e-20
1.65206e-20
1.21757e-20
2.80555e-20
1.87386e-20
-2.06204e-20
-1.0066e-21
1.21477e-20
-8.73455e-21
2.83986e-20
-2.68933e-20
3.12331e-20
-2.85351e-20
2.7158e-20
-3.91223e-20
1.47704e-20
-3.43041e-20
-2.38223e-21
-1.70725e-20
-7.38536e-21
1.10128e-20
-2.30295e-20
1.43743e-20
4.86996e-21
2.35554e-21
6.61632e-21
-1.23875e-20
6.59084e-21
-9.26317e-21
3.24345e-21
3.46937e-21
-1.10917e-20
-4.07553e-22
-3.73416e-21
-1.78319e-21
5.55715e-21
-1.66439e-21
4.18209e-21
2.31806e-21
2.39537e-21
-1.00491e-21
7.37092e-21
-1.38286e-21
5.09413e-21
-1.29037e-21
2.86789e-21
1.84936e-21
-3.11013e-21
-3.94929e-20
1.05881e-19
4.13278e-21
5.05062e-20
4.79678e-20
-7.85621e-20
1.38738e-20
-4.50537e-20
1.89545e-20
1.22794e-20
8.69266e-20
-9.81481e-20
2.4879e-20
6.67575e-21
-9.00213e-21
9.01055e-20
-3.96007e-20
1.78936e-20
-3.34591e-20
7.6023e-20
2.85727e-21
1.64315e-21
-1.67345e-20
2.28139e-20
-2.43572e-20
2.28696e-20
9.63513e-21
4.05571e-20
1.84242e-20
-1.25959e-20
-3.43057e-20
-6.54345e-20
-5.64342e-20
4.72713e-20
1.82647e-20
2.56233e-20
1.84776e-20
3.97073e-20
4.60858e-21
1.3606e-20
5.71717e-21
1.95305e-20
2.62555e-20
-6.12008e-20
1.21746e-20
-2.51096e-21
2.48586e-21
2.50427e-20
2.53035e-20
-2.25134e-21
1.34979e-20
6.61481e-22
-1.67297e-20
3.81417e-20
-1.66751e-20
1.92157e-20
6.89047e-22
5.68989e-21
1.74173e-20
6.27255e-21
1.99582e-20
9.52951e-21
1.86885e-20
-3.85064e-21
9.4757e-21
1.13715e-21
4.65755e-21
-1.74182e-20
9.1315e-21
-1.0065e-21
-4.31464e-21
1.85682e-20
-5.92865e-21
9.02619e-21
-7.67279e-22
7.02119e-22
-5.15047e-22
-8.74841e-21
-1.09957e-20
2.77668e-22
-8.18002e-22
-2.99207e-21
1.0343e-21
4.12242e-21
-2.05029e-21
3.46012e-21
-2.12356e-21
7.40393e-21
-2.42795e-21
5.8521e-21
-5.82041e-22
2.06058e-21
1.8656e-22
2.19039e-21
6.29914e-20
2.78452e-20
1.20269e-19
2.01324e-21
8.29033e-20
-5.20351e-20
1.18583e-19
-7.73427e-20
1.7269e-19
-4.14526e-20
-7.74986e-20
1.53107e-19
-1.61995e-19
7.57627e-20
-1.04712e-19
2.21299e-20
-8.61856e-20
-1.68844e-20
6.71316e-20
-7.71827e-20
9.30689e-20
-1.14895e-20
9.07375e-20
2.10635e-20
7.17828e-20
4.5208e-20
2.66771e-20
8.29627e-20
-5.17775e-20
6.17337e-20
-1.21338e-19
5.8147e-22
-1.70095e-19
9.94701e-20
-3.58415e-20
-1.10009e-19
1.33909e-20
-1.8369e-20
4.02125e-21
1.71547e-20
2.73693e-20
-1.20741e-20
2.41941e-20
-6.79503e-20
3.54142e-20
-2.04863e-20
5.72212e-20
-5.69263e-21
6.34702e-20
-1.13811e-20
4.23516e-20
5.98399e-21
2.26567e-20
5.34413e-20
1.64109e-20
1.62784e-20
2.03282e-20
1.79823e-21
1.03223e-20
1.13546e-20
1.84232e-20
5.70739e-22
2.1175e-22
7.0282e-21
-2.1709e-21
2.27404e-21
-1.64129e-20
-7.77145e-21
-7.33547e-21
-9.38628e-21
6.03235e-21
4.52635e-21
5.01446e-22
1.40705e-20
-5.5851e-21
8.48575e-21
-1.60662e-20
1.81421e-21
-1.45706e-20
-2.11708e-22
-8.50908e-21
-7.50418e-21
-2.14359e-21
-3.97776e-22
-4.68457e-21
6.83498e-21
-4.31363e-21
6.98733e-21
-1.68672e-21
3.74762e-21
5.42899e-22
1.23963e-21
2.15664e-21
-8.96618e-22
1.66222e-19
-1.56125e-19
1.88878e-19
-3.77454e-20
2.41316e-20
1.07261e-19
-1.89524e-19
1.22875e-19
-2.95826e-19
6.00877e-20
-1.17427e-19
-3.49869e-20
2.18036e-20
-6.56388e-20
1.24721e-19
-8.90408e-20
1.59029e-19
-5.28799e-20
3.27663e-21
6.77089e-20
-1.77923e-20
-5.61245e-21
-1.56649e-20
1.68906e-20
-2.53008e-20
4.12358e-20
-2.01202e-20
4.81733e-20
8.56784e-21
2.73724e-20
5.31429e-20
-5.99284e-20
1.33721e-19
-7.40004e-22
5.11858e-20
-4.11891e-20
4.50985e-20
-1.5616e-20
8.98445e-22
6.18936e-20
7.67669e-21
-2.74251e-20
4.83336e-20
-1.10541e-19
1.07948e-20
-6.56833e-21
-2.29803e-20
2.51971e-20
-4.84431e-20
5.32194e-21
-5.82906e-20
1.26268e-20
-5.92423e-20
4.91816e-20
-3.86985e-20
-9.50005e-21
-1.38687e-20
-2.98587e-20
1.24943e-20
-1.52088e-20
1.22286e-20
-8.06658e-22
6.77457e-21
1.60532e-20
-1.27079e-21
9.62132e-21
-3.91623e-21
-1.98698e-21
-1.11165e-20
-6.23723e-21
-1.0112e-20
5.10709e-21
-1.05366e-20
9.79462e-21
-8.73618e-21
1.697e-21
-9.0801e-21
3.83947e-21
-1.2547e-20
7.29284e-21
-1.58016e-20
7.94227e-22
-1.07195e-20
-4.36823e-21
-1.07001e-21
-4.36212e-22
3.1919e-21
2.36915e-21
4.89169e-21
2.06644e-21
1.88043e-21
4.8329e-21
2.29404e-21
1.69137e-21
-1.01643e-19
-6.48595e-20
-9.15844e-20
-4.90765e-20
-6.3209e-20
7.17894e-20
1.38624e-20
5.67453e-20
9.29499e-20
-2.66313e-20
1.33501e-19
-7.15175e-20
4.57292e-20
3.0553e-20
-3.71683e-20
-3.274e-21
-7.75073e-20
-3.0542e-20
-3.56836e-20
2.09643e-20
-1.11178e-20
-2.26039e-20
-9.21151e-21
9.74354e-21
2.36119e-20
1.19621e-20
6.34201e-20
6.8255e-21
7.66522e-20
2.03284e-20
7.43271e-20
-3.74824e-20
1.15352e-19
-5.05024e-20
9.85731e-20
-2.65756e-20
7.73448e-20
3.97189e-21
1.47148e-20
1.04824e-19
-2.39307e-20
1.38699e-20
-4.08681e-20
-9.85206e-20
-4.13425e-20
-1.53539e-20
-2.84773e-20
2.04605e-20
-3.00675e-20
-5.37388e-21
3.60007e-21
-1.79741e-20
-7.03983e-21
5.13791e-20
-3.28756e-20
8.207e-21
-3.6422e-20
-2.89049e-20
-8.20453e-21
-4.82556e-20
2.02756e-20
-2.48956e-20
2.59404e-20
1.04955e-20
1.96957e-20
1.4427e-20
-4.44384e-21
2.26577e-20
-8.6255e-21
-3.61485e-21
-1.29429e-21
-1.54205e-23
-2.85874e-21
8.21865e-21
-6.35197e-21
4.51469e-21
-6.8024e-21
6.43309e-21
-1.13547e-20
9.55627e-21
-7.05188e-21
-2.72486e-21
-5.0822e-21
-4.26768e-21
-2.34017e-21
-4.6317e-21
-1.54669e-21
-3.57471e-22
-1.16939e-21
2.24593e-21
-5.73945e-22
3.41756e-21
1.29342e-21
-4.02714e-22
-6.77647e-20
4.81481e-21
-1.47917e-19
4.15022e-20
-1.15415e-19
6.03514e-20
-4.36278e-20
-2.77436e-20
4.62642e-20
-1.19857e-19
7.69724e-20
-9.82509e-20
9.03142e-20
3.33984e-21
-7.73072e-21
8.48665e-20
-5.44201e-20
1.01697e-20
-4.21367e-20
-6.66897e-21
-2.64694e-20
-2.92241e-20
8.46728e-21
-4.16115e-20
3.31378e-20
-1.58291e-20
-1.10108e-20
3.65279e-20
-5.66443e-20
6.04036e-20
-8.99445e-20
-4.50107e-21
-4.02902e-20
-1.03603e-19
1.5881e-20
-8.7243e-20
1.13826e-20
-1.21604e-21
8.13656e-20
2.50403e-20
4.01264e-20
5.42103e-20
-4.76459e-20
-1.59336e-20
-5.37312e-20
-1.29955e-20
-3.97005e-20
1.32349e-21
-5.77528e-20
2.85894e-21
-5.87047e-20
-1.46116e-20
-6.50951e-21
-7.86316e-21
4.18117e-21
8.72115e-22
-1.21237e-20
-1.72576e-20
-4.40986e-20
-2.1335e-20
-4.84926e-20
-2.47626e-20
-1.43456e-20
-2.74222e-20
-9.15768e-21
5.42912e-22
2.14463e-21
7.10671e-21
-3.75771e-21
2.3023e-21
5.10998e-21
-4.71265e-21
-7.56858e-21
1.51674e-20
-1.07453e-20
8.92125e-21
-8.09854e-21
8.98695e-21
1.07279e-21
8.86907e-22
5.94266e-21
-1.10241e-20
8.97378e-21
-6.93451e-21
2.62121e-21
-3.33469e-21
3.78561e-21
-1.46257e-21
2.83269e-21
5.22366e-22
1.42973e-21
2.21013e-21
1.74032e-21
-9.65828e-22
-4.53168e-20
4.33049e-20
-6.22562e-20
4.23515e-20