/*--------------------------------*- C++ -*----------------------------------*\
| =========                 |                                                 |
| \\      /  F ield         | OpenFOAM: The Open Source CFD Toolbox           |
|  \\    /   O peration     | Version:  2212                                  |
|   \\  /    A nd           | Website:  www.openfoam.com                      |
|    \\/     M anipulation  |                                                 |
\*---------------------------------------------------------------------------*/
FoamFile
{
    version     2.0;
    format      ascii;
    arch        "LSB;label=32;scalar=64";
    class       volSymmTensorField;
    location    "0.288";
    object      UPrime2Mean;
}
// * * * * * * * * * * * * * * * * * * * * * * * * * * * * * * * * * * * * * //

dimensions      [0 2 -2 0 0 0 0];

internalField   nonuniform List<symmTensor> 
24240
(
(0.0774512 -0.026071 -7.16591e-08 0.00911956 2.5404e-08 2.03007e-13)
(0.0774227 -0.0260673 -2.10138e-08 0.00912048 1.11805e-08 1.13707e-12)
(0.0774229 -0.0260671 -7.59785e-08 0.00912036 3.19132e-08 3.12629e-12)
(0.077423 -0.026067 -6.91e-08 0.00912025 3.19532e-08 5.67746e-12)
(0.0774231 -0.0260668 -1.02264e-07 0.0091201 4.54771e-08 8.60946e-12)
(0.0774232 -0.0260666 -1.12924e-07 0.00911992 5.08933e-08 1.13936e-11)
(0.0774233 -0.0260664 -1.32559e-07 0.00911973 5.91734e-08 1.38182e-11)
(0.0774235 -0.0260661 -1.42752e-07 0.00911952 6.37737e-08 1.55651e-11)
(0.0774237 -0.0260659 -1.53452e-07 0.0091193 6.82641e-08 1.65445e-11)
(0.0774238 -0.0260656 -1.58901e-07 0.00911908 7.05429e-08 1.66779e-11)
(0.077424 -0.0260654 -1.62784e-07 0.00911886 7.19668e-08 1.60343e-11)
(0.0774243 -0.0260652 -1.62154e-07 0.00911865 7.14375e-08 1.47107e-11)
(0.0774245 -0.026065 -1.60053e-07 0.00911846 7.01361e-08 1.29057e-11)
(0.0774247 -0.0260648 -1.5207e-07 0.00911828 6.64219e-08 1.07896e-11)
(0.0774249 -0.0260646 -1.47311e-07 0.00911812 6.3679e-08 8.62171e-12)
(0.077425 -0.0260645 -1.28525e-07 0.00911798 5.58047e-08 6.4895e-12)
(0.0774252 -0.0260644 -1.28192e-07 0.00911786 5.42105e-08 4.64302e-12)
(0.0774253 -0.0260643 -8.27122e-08 0.00911776 3.68472e-08 2.85493e-12)
(0.0774252 -0.0260642 -8.49298e-08 0.00911773 3.4502e-08 1.39815e-12)
(0.0774538 -0.0260679 3.73526e-08 0.00911674 -1.0335e-08 1.97631e-13)
(0.00220391 -0.00411668 9.88342e-09 0.00836491 -1.97511e-08 6.87523e-14)
(0.00219892 -0.00411192 1.84718e-08 0.00836592 -3.72771e-08 3.61907e-13)
(0.00219892 -0.00411193 2.66117e-08 0.00836595 -5.39832e-08 8.7331e-13)
(0.00219892 -0.00411195 3.71619e-08 0.00836604 -7.54878e-08 1.63526e-12)
(0.00219892 -0.00411198 4.3399e-08 0.00836613 -8.8273e-08 2.36169e-12)
(0.00219891 -0.00411201 4.96692e-08 0.00836625 -1.01086e-07 3.1042e-12)
(0.00219891 -0.00411205 5.28534e-08 0.00836638 -1.0768e-07 3.64894e-12)
(0.0021989 -0.00411208 5.49194e-08 0.00836653 -1.11977e-07 4.02472e-12)
(0.00219889 -0.00411212 5.47474e-08 0.00836668 -1.1175e-07 4.14483e-12)
(0.00219889 -0.00411216 5.32759e-08 0.00836683 -1.08855e-07 4.04964e-12)
(0.00219888 -0.00411219 5.01823e-08 0.00836698 -1.0266e-07 3.74145e-12)
(0.00219886 -0.00411223 4.61346e-08 0.00836712 -9.4486e-08 3.28766e-12)
(0.00219885 -0.00411225 4.09651e-08 0.00836725 -8.40293e-08 2.73198e-12)
(0.00219884 -0.00411228 3.561e-08 0.00836738 -7.31392e-08 2.15975e-12)
(0.00219882 -0.00411229 2.92494e-08 0.00836749 -6.02327e-08 1.59364e-12)
(0.00219881 -0.00411231 2.39341e-08 0.00836758 -4.94007e-08 1.12126e-12)
(0.00219879 -0.00411232 1.66437e-08 0.00836766 -3.46232e-08 6.93501e-13)
(0.00219878 -0.00411232 1.21379e-08 0.00836772 -2.54488e-08 3.8798e-13)
(0.00219876 -0.00411232 3.55003e-09 0.00836778 -7.97238e-09 1.30833e-13)
(0.00220375 -0.0041171 -2.9025e-09 0.00836682 5.39852e-09 2.04714e-14)
(0.00160174 -0.00404689 -1.56191e-09 0.0129684 6.84618e-09 1.31785e-14)
(0.0015977 -0.00404074 -1.41611e-08 0.0129693 5.06093e-08 2.84506e-13)
(0.00159771 -0.00404075 -2.73784e-08 0.0129693 9.65165e-08 9.63125e-13)
(0.0015977 -0.00404076 -3.62424e-08 0.0129692 1.28544e-07 1.74563e-12)
(0.00159769 -0.00404077 -4.61342e-08 0.0129692 1.63406e-07 2.7934e-12)
(0.00159768 -0.00404079 -5.25887e-08 0.0129691 1.87379e-07 3.71717e-12)
(0.00159768 -0.00404081 -5.82332e-08 0.0129691 2.08275e-07 4.61404e-12)
(0.00159767 -0.00404084 -6.14795e-08 0.012969 2.21316e-07 5.27018e-12)
(0.00159766 -0.00404087 -6.32785e-08 0.0129689 2.29259e-07 5.71849e-12)
(0.00159765 -0.0040409 -6.31869e-08 0.0129689 2.30814e-07 5.88395e-12)
(0.00159764 -0.00404094 -6.16971e-08 0.0129688 2.27356e-07 5.80205e-12)
(0.00159764 -0.00404097 -5.8663e-08 0.0129687 2.18503e-07 5.46581e-12)
(0.00159763 -0.00404101 -5.46128e-08 0.0129687 2.05698e-07 4.94628e-12)
(0.00159762 -0.00404104 -4.93612e-08 0.0129686 1.88494e-07 4.26534e-12)
(0.00159761 -0.00404108 -4.39718e-08 0.0129685 1.69935e-07 3.54936e-12)
(0.00159761 -0.00404111 -3.70616e-08 0.0129685 1.46169e-07 2.75029e-12)
(0.0015976 -0.00404113 -3.17514e-08 0.0129684 1.26336e-07 2.10003e-12)
(0.00159759 -0.00404115 -2.33594e-08 0.0129684 9.61127e-08 1.33602e-12)
(0.00159758 -0.00404116 -1.73014e-08 0.0129683 7.15871e-08 7.39538e-13)
(0.0016016 -0.00404731 -8.83305e-09 0.0129674 3.46017e-08 1.4881e-13)
(0.00206844 0.00484843 -9.87955e-09 0.0124736 -2.60161e-08 6.47064e-14)
(0.00207323 0.00485483 -2.32391e-08 0.0124745 -6.03962e-08 3.7218e-13)
(0.00207324 0.00485484 -3.44677e-08 0.0124745 -8.91517e-08 8.50505e-13)
(0.00207327 0.00485487 -4.68755e-08 0.0124745 -1.21305e-07 1.57228e-12)
(0.00207331 0.00485491 -5.68783e-08 0.0124744 -1.47368e-07 2.33119e-12)
(0.00207336 0.00485496 -6.50762e-08 0.0124744 -1.68788e-07 3.06288e-12)
(0.00207341 0.00485501 -7.0421e-08 0.0124743 -1.82842e-07 3.61704e-12)
(0.00207347 0.00485507 -7.37392e-08 0.0124742 -1.91721e-07 3.99608e-12)
(0.00207353 0.00485514 -7.45915e-08 0.0124742 -1.94221e-07 4.13125e-12)
(0.00207359 0.0048552 -7.35284e-08 0.0124741 -1.91785e-07 4.05812e-12)
(0.00207365 0.00485527 -7.05796e-08 0.012474 -1.8443e-07 3.78703e-12)
(0.00207372 0.00485534 -6.61713e-08 0.0124739 -1.73273e-07 3.37536e-12)
(0.00207378 0.00485541 -6.04169e-08 0.0124739 -1.58535e-07 2.86113e-12)
(0.00207384 0.00485547 -5.39955e-08 0.0124738 -1.42034e-07 2.32529e-12)
(0.00207389 0.00485553 -4.66804e-08 0.0124737 -1.23075e-07 1.78102e-12)
(0.00207394 0.00485559 -3.96307e-08 0.0124737 -1.04761e-07 1.31342e-12)
(0.00207399 0.00485564 -3.18646e-08 0.0124736 -8.44984e-08 8.88046e-13)
(0.00207403 0.00485569 -2.46105e-08 0.0124736 -6.53865e-08 5.49413e-13)
(0.00207407 0.00485573 -1.27894e-08 0.0124735 -3.40417e-08 1.98633e-13)
(0.00206931 0.00484936 -2.00473e-09 0.0124726 -5.24439e-09 2.05897e-14)
(0.00389828 0.00444699 3.23615e-09 0.00600541 4.01224e-09 2.23863e-14)
(0.00390466 0.00445148 1.95208e-08 0.00600581 2.61194e-08 2.84423e-13)
(0.00390465 0.00445148 3.72666e-08 0.00600583 5.08784e-08 8.91246e-13)
(0.00390463 0.00445148 4.99748e-08 0.00600585 6.84285e-08 1.63028e-12)
(0.00390462 0.00445149 6.15382e-08 0.00600588 8.44201e-08 2.4708e-12)
(0.00390461 0.0044515 7.04675e-08 0.00600592 9.68637e-08 3.26763e-12)
(0.00390459 0.00445151 7.76322e-08 0.00600595 1.06952e-07 3.9711e-12)
(0.00390457 0.00445153 8.20502e-08 0.00600599 1.13257e-07 4.46824e-12)
(0.00390455 0.00445154 8.43342e-08 0.00600603 1.16682e-07 4.74812e-12)
(0.00390452 0.00445154 8.41587e-08 0.00600607 1.16699e-07 4.77449e-12)
(0.0039045 0.00445155 8.1965e-08 0.00600611 1.13962e-07 4.57821e-12)
(0.00390447 0.00445156 7.77884e-08 0.00600614 1.08416e-07 4.18132e-12)
(0.00390445 0.00445156 7.20933e-08 0.00600617 1.00789e-07 3.6482e-12)
(0.00390443 0.00445157 6.48754e-08 0.0060062 9.09566e-08 3.02138e-12)
(0.00390442 0.00445157 5.69106e-08 0.00600623 8.01284e-08 2.3846e-12)
(0.00390441 0.00445158 4.75376e-08 0.00600625 6.7212e-08 1.75059e-12)
(0.0039044 0.00445159 3.80882e-08 0.00600626 5.41927e-08 1.19555e-12)
(0.00390441 0.00445159 2.73036e-08 0.00600627 3.91353e-08 6.93867e-13)
(0.00390442 0.00445161 1.99382e-08 0.00600628 2.89091e-08 3.38392e-13)
(0.00389805 0.00444714 9.60017e-09 0.00600589 1.39722e-08 5.94303e-14)
(0.007319 0.00652445 -1.40303e-08 0.00596161 -1.30227e-08 4.7578e-14)
(0.00732846 0.00652899 -3.33707e-08 0.00596198 -3.07441e-08 3.19156e-13)
(0.0073285 0.00652899 -4.99499e-08 0.00596195 -4.58847e-08 7.82552e-13)
(0.00732857 0.006529 -6.71997e-08 0.0059619 -6.1675e-08 1.43271e-12)
(0.00732866 0.00652901 -8.06107e-08 0.00596184 -7.39194e-08 2.12139e-12)
(0.00732877 0.00652902 -9.24553e-08 0.00596177 -8.47625e-08 2.81944e-12)
(0.0073289 0.00652903 -1.00439e-07 0.00596169 -9.20508e-08 3.39599e-12)
(0.00732904 0.00652904 -1.05814e-07 0.0059616 -9.69613e-08 3.83081e-12)
(0.00732918 0.00652905 -1.07771e-07 0.00596151 -9.87243e-08 4.06124e-12)
(0.00732933 0.00652907 -1.07084e-07 0.00596142 -9.80668e-08 4.09715e-12)
(0.00732949 0.00652908 -1.03604e-07 0.00596133 -9.48326e-08 3.93576e-12)
(0.00732964 0.0065291 -9.80179e-08 0.00596125 -8.96709e-08 3.61857e-12)
(0.00732978 0.00652912 -9.02151e-08 0.00596117 -8.24581e-08 3.17063e-12)
(0.00732992 0.00652914 -8.13646e-08 0.00596109 -7.42976e-08 2.66199e-12)
(0.00733006 0.00652916 -7.0768e-08 0.00596103 -6.45113e-08 2.11139e-12)
(0.00733017 0.00652918 -6.05289e-08 0.00596097 -5.50791e-08 1.59784e-12)
(0.00733028 0.0065292 -4.81576e-08 0.00596092 -4.36566e-08 1.09725e-12)
(0.00733037 0.00652922 -3.69855e-08 0.00596089 -3.34136e-08 6.73296e-13)
(0.00733046 0.00652925 -2.01476e-08 0.00596087 -1.7979e-08 2.75825e-13)
(0.00732106 0.00652472 -3.77245e-09 0.00596047 -3.14631e-09 3.22938e-14)
(0.00941751 0.00338551 -2.96564e-09 0.00129262 -1.21633e-09 2.27536e-14)
(0.0094281 0.00338765 6.68913e-09 0.00129271 2.63992e-09 1.89345e-13)
(0.0094281 0.00338766 1.88275e-08 0.00129272 7.5577e-09 5.37201e-13)
(0.00942811 0.00338768 2.59294e-08 0.00129273 1.04687e-08 1.00151e-12)
(0.00942813 0.0033877 3.25201e-08 0.00129274 1.31943e-08 1.53533e-12)
(0.00942815 0.00338772 3.72431e-08 0.00129275 1.51959e-08 2.06779e-12)
(0.00942818 0.00338774 4.1067e-08 0.00129277 1.68591e-08 2.54897e-12)
(0.00942821 0.00338777 4.31041e-08 0.00129279 1.78184e-08 2.92463e-12)
(0.00942824 0.0033878 4.40165e-08 0.0012928 1.83403e-08 3.16839e-12)
(0.00942827 0.00338782 4.34546e-08 0.00129282 1.82704e-08 3.26029e-12)
(0.0094283 0.00338785 4.19152e-08 0.00129283 1.78067e-08 3.20361e-12)
(0.00942833 0.00338787 3.92262e-08 0.00129285 1.68591e-08 3.00893e-12)
(0.00942836 0.00338789 3.60109e-08 0.00129286 1.56811e-08 2.70498e-12)
(0.00942839 0.00338791 3.19226e-08 0.00129287 1.41092e-08 2.31978e-12)
(0.00942842 0.00338793 2.79274e-08 0.00129288 1.25407e-08 1.89633e-12)
(0.00942845 0.00338795 2.29947e-08 0.00129289 1.05372e-08 1.45817e-12)
(0.00942848 0.00338796 1.88273e-08 0.0012929 8.78761e-09 1.04003e-12)
(0.00942851 0.00338797 1.37392e-08 0.0012929 6.57788e-09 6.41697e-13)
(0.00942854 0.00338798 1.3431e-08 0.00129291 6.18791e-09 3.0311e-13)
(0.00941798 0.00338586 9.48858e-09 0.00129282 4.14218e-09 5.01885e-14)
(0.0108142 0.00349793 -1.14848e-08 0.00115268 -3.84207e-09 3.7749e-14)
(0.0108258 0.00349994 -2.7611e-08 0.00115274 -9.14148e-09 2.85239e-13)
(0.0108258 0.00349993 -4.05564e-08 0.00115274 -1.33573e-08 7.22199e-13)
(0.0108259 0.00349993 -5.45906e-08 0.00115272 -1.79414e-08 1.3287e-12)
(0.010826 0.00349991 -6.55812e-08 0.00115271 -2.1506e-08 1.99853e-12)
(0.0108261 0.0034999 -7.58407e-08 0.00115269 -2.48391e-08 2.68641e-12)
(0.0108262 0.00349989 -8.32576e-08 0.00115266 -2.72251e-08 3.29083e-12)
(0.0108263 0.00349988 -8.88574e-08 0.00115264 -2.90158e-08 3.76966e-12)
(0.0108265 0.00349987 -9.17432e-08 0.00115262 -2.99054e-08 4.06371e-12)
(0.0108266 0.00349985 -9.251e-08 0.00115259 -3.00999e-08 4.16281e-12)
(0.0108268 0.00349984 -9.0731e-08 0.00115257 -2.94526e-08 4.05613e-12)
(0.0108269 0.00349983 -8.70507e-08 0.00115255 -2.81868e-08 3.77407e-12)
(0.0108271 0.00349983 -8.10372e-08 0.00115253 -2.61541e-08 3.34183e-12)
(0.0108272 0.00349982 -7.38719e-08 0.00115251 -2.37584e-08 2.82374e-12)
(0.0108273 0.00349982 -6.45611e-08 0.00115249 -2.06616e-08 2.25239e-12)
(0.0108275 0.00349982 -5.52446e-08 0.00115248 -1.75902e-08 1.69822e-12)
(0.0108276 0.00349982 -4.31544e-08 0.00115246 -1.36116e-08 1.16179e-12)
(0.0108277 0.00349982 -3.20335e-08 0.00115246 -1.00055e-08 6.96036e-13)
(0.0108277 0.00349982 -1.64219e-08 0.00115245 -4.94191e-09 2.93604e-13)
(0.0108162 0.00349781 -2.97059e-09 0.00115238 -7.43244e-10 3.78359e-14)
(0.0116553 -0.000418857 -7.44418e-09 1.9109e-05 4.33642e-10 3.57614e-14)
(0.0116672 -0.000419097 -8.49845e-09 1.91093e-05 6.83916e-10 2.59265e-13)
(0.0116673 -0.000419087 -6.77501e-09 1.91081e-05 7.82679e-10 6.62733e-13)
(0.0116673 -0.000419072 -7.89175e-09 1.91061e-05 9.89683e-10 1.21528e-12)
(0.0116673 -0.000419054 -8.17989e-09 1.91036e-05 1.13053e-09 1.83694e-12)
(0.0116674 -0.000419032 -9.17545e-09 1.91007e-05 1.27446e-09 2.46368e-12)
(0.0116675 -0.000419007 -9.65192e-09 1.90975e-05 1.35901e-09 3.01722e-12)
(0.0116675 -0.000418981 -1.03349e-08 1.90941e-05 1.42011e-09 3.44591e-12)
(0.0116676 -0.000418955 -1.05991e-08 1.90905e-05 1.42573e-09 3.70203e-12)
(0.0116677 -0.000418928 -1.08472e-08 1.90869e-05 1.39868e-09 3.76994e-12)
(0.0116677 -0.000418901 -1.06424e-08 1.90834e-05 1.31964e-09 3.64724e-12)
(0.0116678 -0.000418876 -1.03755e-08 1.908e-05 1.21316e-09 3.36071e-12)
(0.0116679 -0.000418852 -9.52863e-09 1.90769e-05 1.05888e-09 2.9454e-12)
(0.0116679 -0.00041883 -8.75629e-09 1.9074e-05 8.9663e-10 2.45579e-12)
(0.011668 -0.00041881 -6.85831e-09 1.90715e-05 6.81769e-10 1.93892e-12)
(0.011668 -0.000418792 -5.20126e-09 1.90693e-05 4.88036e-10 1.44119e-12)
(0.0116681 -0.000418777 -1.57984e-09 1.90675e-05 2.22705e-10 9.84073e-13)
(0.0116681 -0.000418765 7.20746e-10 1.90662e-05 3.70948e-11 5.84854e-13)
(0.0116681 -0.000418755 6.42911e-09 1.90651e-05 -2.98502e-10 2.59644e-13)
(0.0116562 -0.000418506 7.43391e-09 1.90637e-05 -3.56475e-10 4.04056e-14)
(0.0122208 -0.000667003 -8.84647e-09 3.86633e-05 4.88467e-10 2.7717e-14)
(0.0122331 -0.000667403 -1.54155e-08 3.8669e-05 7.5821e-10 2.10468e-13)
(0.0122331 -0.000667436 -1.921e-08 3.86724e-05 8.60658e-10 5.46567e-13)
(0.0122331 -0.000667485 -2.53821e-08 3.86774e-05 1.11928e-09 1.00438e-12)
(0.012233 -0.000667547 -3.024e-08 3.86838e-05 1.30843e-09 1.5239e-12)
(0.012233 -0.00066762 -3.53917e-08 3.86914e-05 1.53136e-09 2.04872e-12)
(0.012233 -0.000667703 -3.93725e-08 3.86999e-05 1.69843e-09 2.51746e-12)
(0.012233 -0.000667791 -4.28465e-08 3.8709e-05 1.85391e-09 2.88192e-12)
(0.0122329 -0.000667884 -4.50156e-08 3.87186e-05 1.94817e-09 3.10346e-12)
(0.0122329 -0.000667977 -4.62731e-08 3.87282e-05 2.00793e-09 3.16433e-12)
(0.0122329 -0.000668068 -4.6039e-08 3.87376e-05 1.99612e-09 3.06258e-12)
(0.0122329 -0.000668155 -4.48171e-08 3.87465e-05 1.94536e-09 2.8179e-12)
(0.0122329 -0.000668235 -4.20339e-08 3.87548e-05 1.81769e-09 2.46301e-12)
(0.0122329 -0.000668307 -3.86682e-08 3.87622e-05 1.67156e-09 2.04498e-12)
(0.0122329 -0.000668369 -3.35103e-08 3.87687e-05 1.43119e-09 1.60445e-12)
(0.0122329 -0.000668421 -2.8358e-08 3.8774e-05 1.20161e-09 1.18439e-12)
(0.0122329 -0.000668463 -2.07135e-08 3.87782e-05 8.32653e-10 7.98624e-13)
(0.0122329 -0.000668492 -1.39227e-08 3.87812e-05 5.24829e-10 4.68523e-13)
(0.0122329 -0.000668513 -4.69428e-09 3.87832e-05 7.73921e-11 2.01542e-13)
(0.0122206 -0.000668138 2.00867e-09 3.87801e-05 -2.02809e-10 2.85783e-14)
(0.0107934 -0.00463431 -1.80109e-08 0.00209488 8.10199e-09 4.55885e-14)
(0.0108049 -0.00463703 -4.82258e-08 0.00209501 2.13523e-08 3.45159e-13)
(0.0108049 -0.00463701 -7.35176e-08 0.00209499 3.22716e-08 8.42938e-13)
(0.010805 -0.00463698 -9.83497e-08 0.00209496 4.30738e-08 1.52684e-12)
(0.010805 -0.00463694 -1.18797e-07 0.00209493 5.19024e-08 2.26589e-12)
(0.010805 -0.0046369 -1.36271e-07 0.00209489 5.94733e-08 3.01046e-12)
(0.010805 -0.00463685 -1.48987e-07 0.00209485 6.49328e-08 3.64446e-12)
(0.010805 -0.0046368 -1.5745e-07 0.0020948 6.85409e-08 4.12014e-12)
(0.0108051 -0.00463675 -1.61034e-07 0.00209475 6.99859e-08 4.37561e-12)
(0.0108051 -0.0046367 -1.60109e-07 0.0020947 6.94509e-08 4.40113e-12)
(0.0108052 -0.00463665 -1.54624e-07 0.00209466 6.68914e-08 4.19677e-12)
(0.0108052 -0.0046366 -1.45336e-07 0.00209461 6.26606e-08 3.80705e-12)
(0.0108052 -0.00463656 -1.3236e-07 0.00209457 5.67907e-08 3.27279e-12)
(0.0108053 -0.00463652 -1.17027e-07 0.00209453 4.99051e-08 2.67377e-12)
(0.0108053 -0.00463648 -9.89484e-08 0.00209449 4.18085e-08 2.04739e-12)
(0.0108053 -0.00463645 -8.02712e-08 0.00209446 3.35211e-08 1.47227e-12)
(0.0108053 -0.00463642 -5.89983e-08 0.00209444 2.40979e-08 9.46477e-13)
(0.0108053 -0.0046364 -3.9436e-08 0.00209442 1.56175e-08 5.35533e-13)
(0.0108053 -0.00463639 -1.79455e-08 0.0020944 6.27686e-09 2.2014e-13)
(0.0107938 -0.00463365 -2.9687e-09 0.00209427 4.62868e-10 3.0494e-14)
(0.0117325 -0.00487285 -2.5051e-09 0.00213119 1.10524e-09 1.37021e-14)
(0.0117444 -0.00487563 9.73741e-09 0.00213135 -4.67413e-09 1.2766e-13)
(0.0117443 -0.00487563 2.34814e-08 0.00213136 -1.12543e-08 3.77916e-13)
(0.0117442 -0.00487563 3.25684e-08 0.00213138 -1.56705e-08 7.02945e-13)
(0.0117441 -0.00487563 4.03591e-08 0.00213141 -1.95246e-08 1.07529e-12)
(0.011744 -0.00487563 4.58066e-08 0.00213144 -2.23055e-08 1.44144e-12)
(0.0117438 -0.00487564 4.96708e-08 0.00213148 -2.43696e-08 1.76894e-12)
(0.0117437 -0.00487564 5.13957e-08 0.00213151 -2.54358e-08 2.01595e-12)
(0.0117435 -0.00487565 5.1601e-08 0.00213155 -2.57922e-08 2.16739e-12)
(0.0117433 -0.00487565 5.00484e-08 0.00213159 -2.53006e-08 2.20526e-12)
(0.0117432 -0.00487566 4.74267e-08 0.00213163 -2.42815e-08 2.13901e-12)
(0.011743 -0.00487566 4.34113e-08 0.00213166 -2.25619e-08 1.97397e-12)
(0.0117429 -0.00487566 3.89552e-08 0.0021317 -2.05825e-08 1.74194e-12)
(0.0117427 -0.00487566 3.35239e-08 0.00213173 -1.8081e-08 1.46205e-12)
(0.0117426 -0.00487566 2.87461e-08 0.00213175 -1.57898e-08 1.17438e-12)
(0.0117425 -0.00487566 2.37218e-08 0.00213178 -1.32877e-08 8.89519e-13)
(0.0117424 -0.00487566 2.05396e-08 0.00213179 -1.14893e-08 6.30193e-13)
(0.0117424 -0.00487566 1.71073e-08 0.00213181 -9.46306e-09 3.94365e-13)
(0.0117423 -0.00487566 1.34266e-08 0.00213182 -7.40765e-09 1.94882e-13)
(0.0117303 -0.00487288 8.66133e-09 0.00213167 -4.51258e-09 3.52143e-14)
(0.00775235 -0.00782786 -1.9503e-08 0.00824133 2.10623e-08 6.69565e-14)
(0.00776208 -0.00783322 -5.60449e-08 0.00824185 5.9688e-08 5.37017e-13)
(0.00776208 -0.0078332 -8.77168e-08 0.00824181 9.3014e-08 1.32341e-12)
(0.00776208 -0.00783318 -1.17988e-07 0.00824176 1.24927e-07 2.39345e-12)
(0.00776209 -0.00783315 -1.42511e-07 0.0082417 1.50648e-07 3.50646e-12)
(0.00776209 -0.00783311 -1.63649e-07 0.00824162 1.72872e-07 4.62992e-12)
(0.0077621 -0.00783307 -1.78946e-07 0.00824153 1.8888e-07 5.55311e-12)
(0.00776211 -0.00783303 -1.88973e-07 0.00824144 1.99321e-07 6.21344e-12)
(0.00776212 -0.00783299 -1.9309e-07 0.00824134 2.03473e-07 6.51746e-12)
(0.00776213 -0.00783295 -1.91721e-07 0.00824124 2.01805e-07 6.46308e-12)
(0.00776215 -0.0078329 -1.84992e-07 0.00824114 1.94423e-07 6.06358e-12)
(0.00776216 -0.00783286 -1.73736e-07 0.00824105 1.82232e-07 5.3985e-12)
(0.00776217 -0.00783282 -1.58362e-07 0.00824096 1.65647e-07 4.54237e-12)
(0.00776219 -0.00783279 -1.4024e-07 0.00824088 1.4617e-07 3.62015e-12)
(0.0077622 -0.00783276 -1.19334e-07 0.00824081 1.23737e-07 2.68882e-12)
(0.00776221 -0.00783273 -9.76864e-08 0.00824076 1.0065e-07 1.86663e-12)
(0.00776221 -0.00783271 -7.28585e-08 0.00824071 7.42276e-08 1.12474e-12)
(0.00776221 -0.00783269 -4.99368e-08 0.00824068 5.01514e-08 5.95766e-13)
(0.00776224 -0.00783269 -2.63761e-08 0.00824066 2.53488e-08 2.23235e-13)
(0.00775248 -0.0078273 -7.60965e-09 0.00824011 6.59933e-09 2.96986e-14)
(0.00804474 -0.00759708 2.45058e-09 0.00803532 -2.52522e-09 1.23655e-14)
(0.00805432 -0.00760238 2.605e-08 0.00803587 -2.83723e-08 2.05295e-13)
(0.00805422 -0.00760234 5.11832e-08 0.00803589 -5.6435e-08 6.82597e-13)
(0.00805408 -0.00760229 6.98191e-08 0.00803593 -7.70845e-08 1.26226e-12)
(0.00805391 -0.00760223 8.57202e-08 0.00803597 -9.47898e-08 1.90706e-12)
(0.0080537 -0.00760215 9.83457e-08 0.00803602 -1.09046e-07 2.53438e-12)
(0.00805347 -0.00760206 1.07853e-07 0.00803607 -1.19991e-07 3.08182e-12)
(0.00805322 -0.00760197 1.13583e-07 0.00803613 -1.26817e-07 3.47125e-12)
(0.00805296 -0.00760187 1.16013e-07 0.00803619 -1.3009e-07 3.68475e-12)
(0.00805269 -0.00760177 1.14831e-07 0.00803624 -1.29351e-07 3.68758e-12)
(0.00805242 -0.00760167 1.10673e-07 0.0080363 -1.25367e-07 3.50983e-12)
(0.00805216 -0.00760157 1.03331e-07 0.00803636 -1.17808e-07 3.15839e-12)
(0.00805192 -0.00760147 9.39125e-08 0.00803641 -1.07932e-07 2.70682e-12)
(0.00805169 -0.00760138 8.22828e-08 0.00803646 -9.54606e-08 2.18345e-12)
(0.00805149 -0.00760131 7.01976e-08 0.0080365 -8.22929e-08 1.67509e-12)
(0.00805132 -0.00760124 5.76074e-08 0.00803653 -6.82262e-08 1.2002e-12)
(0.00805118 -0.00760119 4.60113e-08 0.00803656 -5.46957e-08 7.95378e-13)
(0.00805108 -0.00760115 3.47837e-08 0.00803658 -4.12641e-08 4.65566e-13)
(0.00805102 -0.00760112 2.34417e-08 0.00803659 -2.82906e-08 2.21707e-13)
(0.00804137 -0.0075958 1.1723e-08 0.00803605 -1.40097e-08 4.3377e-14)
(0.00331272 -0.00775733 -1.59771e-08 0.0194327 4.1221e-08 1.08258e-13)
(0.00331894 -0.00776543 -4.48148e-08 0.0194339 1.13896e-07 8.20632e-13)
(0.00331894 -0.00776542 -7.01926e-08 0.0194339 1.78003e-07 2.02125e-12)
(0.00331895 -0.00776541 -9.42955e-08 0.0194339 2.3896e-07 3.63896e-12)
(0.00331896 -0.0077654 -1.1317e-07 0.0194338 2.86425e-07 5.25427e-12)
(0.00331896 -0.00776538 -1.30014e-07 0.0194337 3.29046e-07 6.92299e-12)
(0.00331897 -0.00776537 -1.42101e-07 0.0194336 3.59544e-07 8.26354e-12)
(0.00331899 -0.00776535 -1.50085e-07 0.0194335 3.79671e-07 9.20429e-12)
(0.003319 -0.00776533 -1.53328e-07 0.0194334 3.877e-07 9.5925e-12)
(0.00331902 -0.00776532 -1.5228e-07 0.0194333 3.84802e-07 9.4422e-12)
(0.00331903 -0.0077653 -1.47051e-07 0.0194332 3.71186e-07 8.77876e-12)
(0.00331905 -0.00776528 -1.38314e-07 0.0194331 3.48615e-07 7.7308e-12)
(0.00331907 -0.00776527 -1.26483e-07 0.0194329 3.18097e-07 6.41992e-12)
(0.00331908 -0.00776525 -1.12572e-07 0.0194328 2.82327e-07 5.03291e-12)
(0.0033191 -0.00776524 -9.65592e-08 0.0194327 2.41219e-07 3.65745e-12)
(0.00331912 -0.00776523 -7.98318e-08 0.0194326 1.98594e-07 2.46505e-12)
(0.00331914 -0.00776522 -5.977e-08 0.0194325 1.475e-07 1.381e-12)
(0.00331915 -0.00776521 -4.09033e-08 0.0194324 1.00268e-07 6.55792e-13)
(0.00331918 -0.00776523 -2.05794e-08 0.0194324 4.93958e-08 1.84445e-13)
(0.00331294 -0.00775709 -4.96854e-09 0.0194311 1.0848e-08 1.78832e-14)
(0.00177326 -0.00384132 1.01686e-09 0.019079 -5.36928e-09 1.46999e-14)
(0.00177633 -0.00384916 1.10279e-08 0.0190802 -5.75102e-08 3.01289e-13)
(0.00177628 -0.00384908 2.25019e-08 0.0190802 -1.18442e-07 1.09035e-12)
(0.0017762 -0.00384895 3.15713e-08 0.0190802 -1.618e-07 2.01853e-12)
(0.0017761 -0.0038488 3.98253e-08 0.0190803 -1.99348e-07 3.04934e-12)
(0.00177597 -0.00384861 4.67885e-08 0.0190803 -2.31841e-07 4.10607e-12)
(0.00177583 -0.0038484 5.26672e-08 0.0190803 -2.59102e-07 5.09134e-12)
(0.00177567 -0.00384817 5.69131e-08 0.0190803 -2.77813e-07 5.83208e-12)
(0.0017755 -0.00384792 5.97868e-08 0.0190803 -2.89826e-07 6.31756e-12)
(0.00177532 -0.00384766 6.10169e-08 0.0190802 -2.93152e-07 6.44677e-12)
(0.00177514 -0.0038474 6.07845e-08 0.0190802 -2.89522e-07 6.26751e-12)
(0.00177496 -0.00384714 5.8972e-08 0.0190802 -2.77834e-07 5.761e-12)
(0.00177479 -0.0038469 5.58929e-08 0.0190802 -2.6059e-07 5.04702e-12)
(0.00177463 -0.00384666 5.15145e-08 0.0190802 -2.36721e-07 4.15148e-12)
(0.00177448 -0.00384645 4.65299e-08 0.0190802 -2.10374e-07 3.25e-12)
(0.00177434 -0.00384627 4.09382e-08 0.0190802 -1.80144e-07 2.36854e-12)
(0.00177423 -0.00384612 3.56373e-08 0.0190802 -1.48358e-07 1.60577e-12)
(0.00177414 -0.00384601 3.1029e-08 0.0190801 -1.18973e-07 1.04698e-12)
(0.00177407 -0.00384593 2.49689e-08 0.0190801 -9.16107e-08 6.17103e-13)
(0.00177093 -0.00383801 1.15301e-08 0.0190788 -4.29824e-08 1.28467e-13)
(0.000309143 0.000772197 1.32013e-09 0.0307452 5.8107e-08 1.51906e-13)
(0.00030857 0.000762452 2.65617e-09 0.0307474 1.4925e-07 1.07002e-12)
(0.000308581 0.000762469 3.31382e-09 0.0307474 2.18598e-07 2.46951e-12)
(0.0003086 0.000762507 4.53207e-09 0.0307474 2.94886e-07 4.51983e-12)
(0.000308622 0.000762538 5.74046e-09 0.0307473 3.61198e-07 6.81616e-12)
(0.000308648 0.000762571 6.54834e-09 0.0307473 4.14074e-07 9.01833e-12)
(0.000308678 0.000762607 7.03432e-09 0.0307473 4.50553e-07 1.07969e-11)
(0.00030871 0.000762643 7.26687e-09 0.0307473 4.73311e-07 1.20373e-11)
(0.000308744 0.000762681 7.16639e-09 0.0307472 4.79765e-07 1.25356e-11)
(0.000308778 0.000762716 6.83814e-09 0.0307472 4.72692e-07 1.23335e-11)
(0.000308813 0.00076275 6.24149e-09 0.0307471 4.51912e-07 1.14457e-11)
(0.000308846 0.00076278 5.50194e-09 0.0307471 4.20747e-07 1.00587e-11)
(0.000308878 0.000762804 4.60497e-09 0.030747 3.8002e-07 8.31901e-12)
(0.000308907 0.000762824 3.72149e-09 0.0307469 3.34286e-07 6.49122e-12)
(0.000308933 0.000762835 2.81794e-09 0.0307468 2.83561e-07 4.70943e-12)
(0.000308955 0.00076284 2.0423e-09 0.0307467 2.32315e-07 3.17335e-12)
(0.000308974 0.000762838 1.41247e-09 0.0307467 1.75878e-07 1.88665e-12)
(0.000308986 0.000762819 7.14542e-10 0.0307466 1.11448e-07 8.86584e-13)
(0.000308994 0.000762791 -4.68965e-10 0.0307466 3.91029e-08 2.06093e-13)
(0.000309583 0.000772593 -6.40482e-10 0.0307444 2.60736e-09 1.44789e-14)
(0.0132189 0.0199866 -3.65183e-09 0.0314771 -7.31193e-09 5.54454e-14)
(0.0132063 0.0199775 -4.77964e-08 0.0314792 -8.11018e-08 7.64252e-13)
(0.0132064 0.0199775 -8.59997e-08 0.0314791 -1.47895e-07 2.30604e-12)
(0.0132066 0.0199777 -1.12427e-07 0.031479 -1.96039e-07 4.38859e-12)
(0.0132068 0.0199778 -1.47421e-07 0.0314789 -2.57146e-07 7.19687e-12)
(0.013207 0.019978 -1.70991e-07 0.0314788 -3.0046e-07 1.00683e-11)
(0.0132073 0.0199783 -1.95019e-07 0.0314786 -3.43824e-07 1.30744e-11)
(0.0132076 0.0199786 -2.10948e-07 0.0314785 -3.74166e-07 1.57095e-11)
(0.0132079 0.0199789 -2.23403e-07 0.0314784 -3.98268e-07 1.79121e-11)
(0.0132083 0.0199792 -2.28759e-07 0.0314782 -4.10559e-07 1.93606e-11)
(0.0132086 0.0199795 -2.29525e-07 0.0314781 -4.14607e-07 2.00203e-11)
(0.013209 0.0199798 -2.23583e-07 0.0314779 -4.07177e-07 1.97486e-11)
(0.0132093 0.0199801 -2.14061e-07 0.0314778 -3.92793e-07 1.8676e-11)
(0.0132096 0.0199804 -1.9801e-07 0.0314777 -3.67032e-07 1.67858e-11)
(0.0132099 0.0199807 -1.81469e-07 0.0314776 -3.38796e-07 1.44254e-11)
(0.0132102 0.019981 -1.56694e-07 0.0314775 -2.96371e-07 1.1538e-11)
(0.0132104 0.0199812 -1.37054e-07 0.0314774 -2.60057e-07 8.72046e-12)
(0.0132105 0.0199814 -1.03297e-07 0.0314774 -2.00312e-07 5.67537e-12)
(0.0132106 0.0199815 -7.03842e-08 0.0314774 -1.40305e-07 2.98683e-12)
(0.0132233 0.0199907 -3.50868e-08 0.0314753 -6.74391e-08 5.31549e-13)
(0.017449 0.0165062 2.1789e-08 0.0159523 2.10798e-08 1.31009e-13)
(0.0174345 0.0165004 5.53126e-08 0.0159543 5.47861e-08 1.08261e-12)
(0.0174346 0.0165004 1.11075e-07 0.0159543 1.1004e-07 3.12685e-12)
(0.0174348 0.0165005 1.6645e-07 0.0159544 1.64712e-07 6.03253e-12)
(0.0174349 0.0165007 2.01164e-07 0.0159546 1.9928e-07 9.03206e-12)
(0.0174351 0.0165009 2.33468e-07 0.0159549 2.31314e-07 1.20793e-11)
(0.0174353 0.0165011 2.51936e-07 0.0159551 2.49931e-07 1.45358e-11)
(0.0174356 0.0165014 2.64435e-07 0.0159554 2.62564e-07 1.63242e-11)
(0.0174358 0.0165017 2.6621e-07 0.0159557 2.64722e-07 1.71134e-11)
(0.0174361 0.0165019 2.6111e-07 0.015956 2.60004e-07 1.69406e-11)
(0.0174363 0.0165022 2.47558e-07 0.0159563 2.4697e-07 1.58015e-11)
(0.0174365 0.0165024 2.28949e-07 0.0159566 2.28802e-07 1.39403e-11)
(0.0174367 0.0165027 2.04042e-07 0.0159569 2.04388e-07 1.15582e-11)
(0.0174369 0.0165029 1.7818e-07 0.0159571 1.78811e-07 9.0589e-12)
(0.0174371 0.0165031 1.48289e-07 0.0159574 1.49256e-07 6.62767e-12)
(0.0174372 0.0165032 1.24426e-07 0.0159576 1.25326e-07 4.60267e-12)
(0.0174373 0.0165033 9.51016e-08 0.0159578 9.61268e-08 2.87198e-12)
(0.0174373 0.0165034 7.97518e-08 0.0159579 8.03818e-08 1.62256e-12)
(0.0174373 0.0165035 6.3712e-08 0.0159581 6.3811e-08 7.11704e-13)
(0.0174519 0.0165095 2.06732e-08 0.0159562 2.10309e-08 1.02155e-13)
(0.217837 0.0590619 -1.61387e-07 0.0166195 -5.38509e-08 7.20118e-13)
(0.217792 0.0590581 -1.62492e-07 0.016621 -5.59184e-08 2.69246e-12)
(0.217794 0.0590579 -1.19703e-07 0.0166206 -4.70946e-08 6.72953e-12)
(0.217795 0.0590577 -2.07553e-08 0.0166204 -2.46761e-08 1.23169e-11)
(0.217796 0.0590574 -4.94383e-08 0.0166202 -3.72475e-08 1.89e-11)
(0.217797 0.059057 -4.74659e-08 0.0166199 -4.10556e-08 2.55902e-11)
(0.217798 0.0590566 -8.24691e-08 0.0166195 -5.4791e-08 3.17445e-11)
(0.217799 0.0590562 -1.06469e-07 0.0166191 -6.47118e-08 3.66522e-11)
(0.217801 0.0590558 -1.42332e-07 0.0166187 -7.72732e-08 3.98723e-11)
(0.217802 0.0590554 -1.72308e-07 0.0166183 -8.72603e-08 4.10892e-11)
(0.217804 0.059055 -2.05381e-07 0.0166179 -9.72781e-08 4.03042e-11)
(0.217806 0.0590546 -2.29908e-07 0.0166174 -1.03889e-07 3.76813e-11)
(0.217807 0.0590542 -2.55443e-07 0.016617 -1.09913e-07 3.36525e-11)
(0.217809 0.0590538 -2.6329e-07 0.0166167 -1.09931e-07 2.86658e-11)
(0.21781 0.0590535 -2.7622e-07 0.0166163 -1.10661e-07 2.32917e-11)
(0.217811 0.0590533 -2.44096e-07 0.016616 -9.79306e-08 1.77788e-11)
(0.217812 0.0590531 -2.38277e-07 0.0166158 -9.15217e-08 1.26258e-11)
(0.217813 0.0590529 -9.51998e-08 0.0166156 -4.61895e-08 7.76746e-12)
(0.217812 0.0590528 1.12428e-08 0.0166156 -8.20596e-09 4.09907e-12)
(0.217857 0.0590564 1.06685e-07 0.016614 3.05042e-08 8.03448e-13)
(0.00769322 -0.00546444 -1.64048e-08 0.00613296 2.12445e-08 3.17897e-13)
(0.00768809 -0.00546085 -2.57651e-08 0.00613362 1.79951e-08 2.06777e-12)
(0.00768815 -0.00546082 -4.5065e-08 0.00613351 3.57556e-08 5.76042e-12)
(0.00768815 -0.00546074 -5.68389e-08 0.00613339 4.13462e-08 1.0614e-11)
(0.00768814 -0.00546063 -7.48513e-08 0.00613323 5.72802e-08 1.62935e-11)
(0.00768814 -0.00546049 -8.75496e-08 0.00613304 6.61389e-08 2.18589e-11)
(0.00768813 -0.00546034 -1.00795e-07 0.00613282 7.7487e-08 2.68868e-11)
(0.00768813 -0.00546017 -1.10736e-07 0.00613258 8.50468e-08 3.07687e-11)