/*--------------------------------*- C++ -*----------------------------------*\
| =========                 |                                                 |
| \\      /  F ield         | OpenFOAM: The Open Source CFD Toolbox           |
|  \\    /   O peration     | Version:  2212                                  |
|   \\  /    A nd           | Website:  www.openfoam.com                      |
|    \\/     M anipulation  |                                                 |
\*---------------------------------------------------------------------------*/
FoamFile
{
    version     2.0;
    format      ascii;
    arch        "LSB;label=32;scalar=64";
    class       volScalarField;
    location    "6e-06";
    object      T;
}
// * * * * * * * * * * * * * * * * * * * * * * * * * * * * * * * * * * * * * //

dimensions      [0 0 0 1 0 0 0];

internalField   nonuniform List<scalar> 
37872
(
224.804
224.793
224.791
224.798
224.792
224.787
224.787
224.783
224.776
224.766
224.763
224.769
224.753
224.739
224.731
224.728
224.695
224.678
224.678
224.687
224.67
224.656
224.596
224.494
224.192
223.636
222.73
221.585
220.414
219.366
218.453
217.634
216.828
215.997
215.124
214.247
213.338
212.464
211.607
210.902
210.046
209.739
208.525
207.899
207.028
206.975
207.363
242.835
242.814
242.8
242.798
242.777
242.761
242.747
242.733
242.713
242.684
242.671
242.667
242.628
242.604
242.605
242.594
242.524
242.478
242.458
242.444
242.423
242.396
242.313
242.183
241.822
241.183
240.182
238.944
237.696
236.581
235.631
234.78
233.938
233.069
232.147
231.221
230.25
229.34
228.422
227.739
226.748
226.589
225.112
224.595
223.469
223.581
223.683
240.844
240.825
240.817
240.815
240.799
240.787
240.778
240.767
240.752
240.724
240.716
240.718
240.688
240.663
240.649
240.634
240.591
240.566
240.568
240.566
240.536
240.525
240.46
240.359
240.024
239.381
238.384
237.128
235.843
234.702
233.711
232.815
231.932
231.019
230.055
229.079
228.082
227.112
226.175
225.36
224.454
224.061
222.779
221.982
221.119
221.003
221.118
245.712
245.695
245.683
245.672
245.653
245.635
245.624
245.607
245.59
245.579
245.56
245.541
245.522
245.506
245.488
245.47
245.45
245.431
245.413
245.401
245.361
245.319
245.235
245.144
244.85
244.301
243.295
241.991
240.687
239.508
238.46
237.506
236.584
235.635
234.624
233.592
232.55
231.526
230.54
229.661
228.706
228.294
227.009
226.033
225.169
225.103
225.114
247.181
247.167
247.155
247.141
247.123
247.106
247.095
247.077
247.061
247.06
247.045
247.017
246.999
246.992
246.982
246.962
246.945
246.937
246.92
246.911
246.868
246.812
246.718
246.635
246.362
245.887
244.876
243.55
242.243
241.048
239.978
238.994
238.051
237.088
236.059
235.013
233.955
232.911
231.909
231.006
230.027
229.61
228.334
227.291
226.418
226.456
226.514
251.169
251.159
251.144
251.127
251.109
251.091
251.076
251.062
251.041
251.034
251.02
250.996
250.982
250.968
250.958
250.94
250.922
250.919
250.911
250.889
250.844
250.8
250.703
250.629
250.357
249.968
249.038
247.759
246.451
245.227
244.119
243.106
242.14
241.144
240.087
239.025
237.943
236.859
235.824
234.885
233.858
233.402
232.119
231.064
230.165
230.148
229.849
253.033
253.028
253.012
252.995
252.98
252.962
252.947
252.936
252.915
252.904
252.892
252.875
252.865
252.847
252.835
252.816
252.801
252.802
252.808
252.781
252.732
252.697
252.605
252.54
252.272
251.932
251.052
249.785
248.482
247.254
246.124
245.1
244.131
243.123
242.053
240.989
239.899
238.804
237.758
236.805
235.757
235.289
234
232.933
232.003
232.013
231.585
256.96
256.954
256.942
256.925
256.912
256.903
256.891
256.877
256.862
256.849
256.835
256.828
256.825
256.805
256.797
256.777
256.766
256.764
256.76
256.729
256.689
256.665
256.586
256.524
256.276
256.003
255.216
254.06
252.811
251.58
250.442
249.423
248.446
247.413
246.341
245.281
244.187
243.078
242.022
241.046
239.965
239.452
238.154
237.158
236.157
236.122
235.391
258.925
258.92
258.91
258.89
258.877
258.875
258.864
258.844
258.83
258.824
258.808
258.805
258.805
258.785
258.774
258.762
258.753
258.746
258.72
258.699
258.672
258.653
258.576
258.511
258.275
258.042
257.308
256.207
254.985
253.746
252.606
251.589
250.61
249.57
248.498
247.442
246.347
245.23
244.167
243.179
242.081
241.558
240.256
239.292
238.231
238.203
237.598
263.04
263.041
263.036
263.018
263.005
263.007
262.997
262.981
262.97
262.966
262.951
262.944
262.939
262.921
262.911
262.907
262.896
262.884
262.862
262.85
262.83
262.816
262.744
262.693
262.473
262.273
261.616
260.626
259.462
258.245
257.111
256.109
255.123
254.069
252.992
251.934
250.841
249.71
248.633
247.626
246.52
245.953
244.667
243.693
242.615
242.584
241.841
265.072
265.076
265.073
265.06
265.045
265.045
265.035
265.027
265.012
265.004
264.989
264.98
264.971
264.954
264.943
264.942
264.93
264.915
264.895
264.888
264.866
264.852
264.786
264.748
264.551
264.38
263.769
262.827
261.687
260.464
259.333
258.335
257.352
256.288
255.217
254.166
253.075
251.957
250.882
249.877
248.758
248.224
246.895
245.997
244.79
244.762
243.932
269.47
269.47
269.463
269.454
269.432
269.423
269.409
269.397
269.379
269.366
269.346
269.331
269.316
269.299
269.286
269.273
269.25
269.237
269.22
269.209
269.177
269.158
269.095
269.054
268.866
268.715
268.164
267.351
266.274
265.079
263.965
262.97
261.977
260.906
259.836
258.78
257.688
256.566
255.475
254.432
253.294
252.716
251.416
250.486
249.257
249.264
248.277
271.692
271.681
271.667
271.654
271.623
271.607
271.586
271.566
271.541
271.523
271.497
271.476
271.456
271.435
271.415
271.394
271.368
271.351
271.328
271.311
271.274
271.25
271.185
271.144
270.964
270.823
270.306
269.569
268.52
267.327
266.215
265.217
264.212
263.13
262.059
260.998
259.903
258.778
257.676
256.62
255.472
254.894
253.586
252.672
251.394
251.416
250.396
276.123
276.104
276.078
276.058
276.018
275.992
275.964
275.935
275.902
275.876
275.841
275.81
275.781
275.751
275.721
275.692
275.656
275.629
275.596
275.569
275.523
275.49
275.419
275.372
275.196
275.063
274.577
273.939
272.938
271.772
270.692
269.706
268.692
267.605
266.532
265.463
264.368
263.245
262.141
261.079
259.927
259.351
258.022
257.164
255.83
255.8
254.648
278.325
278.301
278.271
278.247
278.206
278.177
278.145
278.113
278.077
278.049
278.011
277.978
277.947
277.912
277.879
277.849
277.812
277.783
277.745
277.716
277.67
277.637
277.567
277.52
277.351
277.228
276.766
276.217
275.243
274.036
272.953
271.965
270.932
269.835
268.78
267.725
266.65
265.548
264.455
263.381
262.23
261.645
260.317
259.477
258.146
258.032
256.769
282.98
282.946
282.903
282.868
282.817
282.778
282.737
282.695
282.648
282.61
282.563
282.518
282.476
282.433
282.39
282.349
282.3
282.262
282.216
282.176
282.119
282.075
282
281.946
281.78
281.66
281.226
280.782
279.877
278.742
277.695
276.718
275.659
274.545
273.492
272.43
271.349
270.24
269.121
268.004
266.827
266.151
264.805
264.082
262.67
262.604
261.258
285.172
285.136
285.088
285.051
284.995
284.953
284.91
284.865
284.813
284.771
284.72
284.67
284.624
284.578
284.531
284.486
284.432
284.389
284.343
284.298
284.235
284.186
284.11
284.055
283.893
283.777
283.364
282.989
282.127
281.04
280.041
279.076
278.011
276.915
275.864
274.793
273.7
272.585
271.448
270.301
269.115
268.389
267.042
266.433
264.944
264.934
263.545
289.613
289.579
289.53
289.491
289.437
289.395
289.351
289.306
289.256
289.213
289.163
289.114
289.067
289.021
288.974
288.929
288.877
288.834
288.786
288.741
288.683
288.636
288.561
288.507
288.36
288.256
287.88
287.582
286.791
285.757
284.785
283.831
282.749
281.619
280.554
279.472
278.395
277.306
276.189
275.058
273.903
273.159
271.793
271.15
269.784
269.661
268.237
291.83
291.799
291.753
291.716
291.666
291.626
291.585
291.543
291.495
291.455
291.408
291.363
291.318
291.276
291.232
291.189
291.14
291.1
291.056
291.014
290.959
290.914
290.846
290.797
290.662
290.569
290.223
289.977
289.234
288.295
287.361
286.376
285.28
284.205
283.171
282.112
281.082
280.021
278.914
277.77
276.635
275.81
274.502
274.022
272.571
272.118
270.784
296.525
296.495
296.451
296.414
296.366
296.326
296.285
296.245
296.198
296.158
296.112
296.067
296.023
295.98
295.937
295.895
295.847
295.806
295.763
295.721
295.667
295.621
295.557
295.509
295.387
295.302
294.998
294.797
294.126
293.363
292.489
291.519
290.441
289.381
288.319
287.243
286.22
285.16
284.041
282.872
281.723
280.82
279.493
279.033
277.62
277.287
275.928
298.57
298.54
298.496
298.458
298.411
298.371
298.33
298.289
298.243
298.203
298.157
298.112
298.067
298.026
297.982
297.94
297.892
297.852
297.809
297.767
297.713
297.667
297.606
297.559
297.445
297.366
297.087
296.913
296.277
295.637
294.79
293.799
292.722
291.675
290.596
289.524
288.531
287.492
286.383
285.228
284.09
283.155
281.83
281.408
279.985
279.782
278.273
302.556
302.535
302.502
302.474
302.439
302.408
302.376
302.346
302.311
302.28
302.245
302.211
302.177
302.145
302.112
302.081
302.045
302.013
301.98
301.948
301.908
301.873
301.825
301.79
301.697
301.635
301.397
301.255
300.678
300.184
299.405
298.45
297.443
296.427
295.362
294.32
293.379
292.371
291.316
290.191
289.092
288.119
286.844
286.537
285.086
284.339
282.988
305.197
305.172
305.142
305.114
305.081
305.052
305.021
304.993
304.96
304.931
304.898
304.865
304.832
304.802
304.77
304.74
304.705
304.675
304.642
304.61
304.573
304.541
304.496
304.461
304.377
304.319
304.109
303.98
303.448
303.058
302.324
301.401
300.443
299.409
298.316
297.272
296.324
295.306
294.247
293.128
291.991
290.956
289.637
289.356
287.961
287.425
286.117
308.372
308.352
308.331
308.309
308.284
308.261
308.235
308.215
308.19
308.168
308.142
308.117
308.091
308.067
308.043
308.019
307.99
307.965
307.941
307.917
307.886
307.859
307.823
307.794
307.727
307.68
307.502
307.396
306.915
306.616
305.929
305.085
304.2
303.162
302.079
301.072
300.152
299.154
298.153
297.085
295.979
294.921
293.645
293.426
292.067
291.249
289.848
311.095
311.082
311.071
311.058
311.042
311.029
311.013
311.002
310.986
310.974
310.957
310.942
310.926
310.912
310.897
310.883
310.864
310.846
310.83
310.816
310.795
310.774
310.745
310.727
310.678
310.643
310.499
310.417
309.995
309.771
309.111
308.392
307.572
306.516
305.447
304.466
303.54
302.545
301.581
300.553
299.432
298.341
297.054
296.864
295.522
294.741
293.474
313.688
313.687
313.69
313.691
313.69
313.691
313.69
313.691
313.689
313.689
313.687
313.687
313.685
313.685
313.683
313.682
313.681
313.679
313.674
313.669
313.664
313.661
313.648
313.642
313.612
313.593
313.482
313.423
313.067
312.898
312.263
311.704
310.939
309.887
308.857
307.911
306.983
306.005
305.097
304.13
303.024
301.93
300.673
300.484
299.188
298.341
297.032
316.301
316.312
316.327
316.34
316.353
316.367
316.38
316.394
316.406
316.419
316.432
316.445
316.458
316.471
316.482
316.496
316.509
316.523
316.533
316.54
316.55
316.564
316.573
316.578
316.565
316.561
316.478
316.437
316.14
316.009
315.424
314.997
314.29
313.266
312.291
311.362
310.423
309.466
308.604
307.687
306.601
305.505
304.269
304.038
302.744
301.985
300.734
319.184
319.201
319.219
319.239
319.258
319.278
319.296
319.315
319.334
319.353
319.372
319.392
319.411
319.43
319.448
319.466
319.485
319.505
319.522
319.54
319.556
319.574
319.593
319.605
319.608
319.61
319.544
319.518
319.261
319.148
318.634
318.293
317.624
316.669
315.748
314.814
313.856
312.923
312.091
311.2
310.149
309.056
307.842
307.536
306.241
305.573
304.299
322.494
322.507
322.52
322.535
322.55
322.566
322.58
322.595
322.609
322.625
322.639
322.654
322.669
322.683
322.697
322.711
322.725
322.739
322.753
322.767
322.781
322.794
322.807
322.818
322.823
322.824
322.766
322.745
322.512
322.406
321.954
321.672
321.019
320.162
319.285
318.323
317.348
316.436
315.61
314.715
313.697
312.613
311.411
310.995
309.668
309.135
307.831
326.013
326.018
326.022
326.028
326.033
326.04
326.045
326.051
326.056
326.061
326.066
326.071
326.075
326.08
326.084
326.089
326.094
326.098
326.102
326.106
326.11
326.115
326.117
326.119
326.117
326.11
326.059
326.034
325.821
325.719
325.312
325.078
324.43
323.683
322.846
321.847
320.867
319.97
319.131
318.215
317.227
316.164
314.978
314.43
313.073
312.668
311.319
329.543
329.543
329.537
329.536
329.531
329.53
329.525
329.522
329.516
329.513
329.507
329.503
329.498
329.493
329.488
329.484
329.478
329.474
329.469
329.465
329.459
329.454
329.447
329.44
329.429
329.415
329.368
329.339
329.146
329.053
328.68
328.487
327.845
327.225
326.415
325.397
324.429
323.543
322.681
321.746
320.789
319.751
318.591
317.906
316.525
316.239
314.861
332.977
332.972
332.958
332.95
332.936
332.928
332.915
332.905
332.89
332.879
332.865
332.853
332.84
332.827
332.815
332.802
332.788
332.775
332.764
332.752
332.738
332.724
332.71
332.697
332.677
332.657
332.611
332.58
332.407
332.326
331.981
331.82
331.198
330.693
329.906
328.893
327.957
327.069
326.178
325.235
324.303
323.3
322.165
321.359
319.972
319.775
318.375
336.366
336.356
336.334
336.321
336.297
336.282
336.261
336.244
336.221
336.204
336.182
336.162
336.141
336.121
336.101
336.08
336.058
336.038
336.019
336
335.978
335.957
335.935
335.915
335.888
335.862
335.814
335.78
335.627
335.555
335.238
335.096
334.515
334.103
333.33
332.358
331.461
330.559
329.638
328.7
327.773
326.824
325.699
324.806
323.43
323.262
321.834
339.794
339.779
339.749
339.729
339.697
339.675
339.646
339.623
339.592
339.567
339.537
339.51
339.481
339.454
339.426
339.398
339.369
339.341
339.315
339.287
339.258
339.229
339.2
339.172
339.138
339.108
339.055
339.018
338.882
338.817
338.528
338.399
337.871
337.535
336.762
335.879
335.02
334.091
333.146
332.226
331.286
330.396
329.264
328.332
326.972
326.783
325.34
343.302
343.282
343.242
343.215
343.173
343.144
343.107
343.077
343.037
343.004
342.965
342.929
342.892
342.857
342.821
342.785
342.747
342.711
342.677
342.641
342.603
342.565
342.528
342.492
342.45
342.412
342.354
342.313
342.188
342.127
341.867
341.747
341.273
341.003
340.214
339.463
338.633
337.672
336.718
335.821
334.857
334.012
332.858
331.945
330.589
330.353
328.916
346.849
346.821
346.77
346.736
346.683
346.646
346.599
346.561
346.511
346.469
346.42
346.375
346.328
346.283
346.238
346.192
346.145
346.1
346.057
346.012
345.963
345.915
345.869
345.824
345.772
345.725
345.659
345.613
345.493
345.434
345.199
345.089
344.66
344.442
343.651
343.028
342.225
341.243
340.3
339.416
338.42
337.615
336.426
335.566
334.198
333.916
332.476
350.359
350.325
350.265
350.222
350.16
350.114
350.058
350.012
349.953
349.901
349.844
349.789
349.733
349.68
349.626
349.571
349.514
349.461
349.409
349.356
349.298
349.24
349.184
349.13
349.069
349.013
348.94
348.887
348.769
348.711
348.499
348.399
348.008
347.829
347.063
346.551
345.762
344.798
343.883
342.992
341.966
341.198
339.974
339.181
337.787
337.474
336.019
353.832
353.792
353.722
353.672
353.6
353.546
353.482
353.428
353.359
353.3
353.233
353.169
353.104
353.043
352.981
352.917
352.852
352.79
352.73
352.668
352.601
352.534
352.469
352.406
352.336
352.271
352.191
352.131
352.013
351.953
351.76
351.67
351.313
351.153
350.443
350.025
349.223
348.335
347.451
346.537
345.492
344.751
343.504
342.77
341.346
341.02
339.557
357.293
357.247
357.166
357.108
357.025
356.963
356.889
356.825
356.748
356.678
356.602
356.528
356.453
356.382
356.311
356.238
356.162
356.091
356.023
355.951
355.874
355.797
355.722
355.649
355.569
355.494
355.405
355.336
355.216
355.152
354.971
354.888
354.56
354.412
353.766
353.427
352.598
351.821
350.962
350.027
348.976
348.246
346.986
346.298
344.845
344.517
343.051
360.751
360.699
360.606
360.539
360.445
360.373
360.289
360.217
360.128
360.048
359.962
359.878
359.793
359.712
359.63
359.547
359.462
359.38
359.303
359.221
359.133
359.045
358.96
358.876
358.786
358.699
358.6
358.521
358.397
358.327
358.154
358.076
357.775
357.636
357.048
356.776
355.931
355.268
354.421
353.497
352.444
351.714
350.444
349.798
348.317
347.992
346.518
364.237
364.178
364.076
363.999
363.895
363.813
363.72
363.638
363.54
363.45
363.354
363.259
363.165
363.074
362.983
362.89
362.794
362.704
362.617
362.526
362.427
362.329
362.234
362.14
362.039
361.942
361.833
361.743
361.614
361.538
361.37
361.293
361.017
360.891
360.353
360.132
359.301
358.749
357.895
357.025
355.969
355.236
353.958
353.35
351.849
351.527
350.038
367.747
367.682
367.57
367.485
367.371
367.281
367.179
367.088
366.981
366.881
366.776
366.672
366.568
366.468
366.369
366.267
366.162
366.062
365.967
365.866
365.758
365.65
365.546
365.442
365.332
365.224
365.106
365.007
364.872
364.788
364.624
364.548
364.293
364.179
363.688
363.5
362.717
362.266
361.398
360.607
359.555
358.824
357.539
356.965
355.453
355.136
353.634
371.203
371.132
371.012
370.921
370.798
370.7
370.592
370.493
370.378
370.271
370.158
370.045
369.934
369.827
369.72
369.61
369.497
369.39
369.287
369.18
369.063
368.947
368.835
368.723
368.605
368.488
368.363
368.254
368.114
368.024
367.863
367.784
367.548
367.445
366.999
366.835
366.117
365.757
364.878
364.184
363.145
362.426
361.137
360.591
359.078
358.773
357.27
374.498
374.425
374.302
374.207
374.081
373.98
373.869
373.766
373.649
373.538
373.422
373.306
373.191
373.081
372.971
372.858
372.742
372.632
372.526
372.415
372.295
372.176
372.06
371.945
371.823
371.702
371.574
371.46
371.321
371.226
371.071
370.993
370.775
370.683
370.285
370.146
369.497
369.222
368.35
367.768
366.751
366.064
364.784
364.26
362.762
362.478
360.975
377.62
377.548
377.428
377.337
377.214
377.115
377.007
376.907
376.793
376.684
376.571
376.459
376.347
376.239
376.132
376.022
375.909
375.802
375.699
375.591
375.474
375.357
375.244
375.132
375.013
374.895
374.771
374.659
374.525
374.432
374.287
374.213
374.016
373.937
373.589
373.481
372.905
372.701
371.879
371.415
370.43
369.803
368.546
368.046
366.577
366.325
364.83
380.694
380.627
380.514
380.428
380.311
380.218
380.116
380.021
379.914
379.811
379.704
379.597
379.492
379.39
379.289
379.185
379.078
378.977
378.879
378.777
378.666
378.556
378.449
378.342
378.23
378.118
378
377.894
377.769
377.679
377.547
377.478
377.302
377.236
376.936
376.858
376.355
376.211
375.467
375.121
374.175
373.634
372.419
371.945
370.516
370.296
368.818
383.742
383.679
383.572
383.492
383.383
383.295
383.2
383.11
383.009
382.912
382.812
382.712
382.613
382.517
382.422
382.324
382.224
382.128
382.037
381.94
381.836
381.732
381.631
381.53
381.424
381.318
381.208
381.106
380.99
380.904
380.784
380.718
380.561
380.504
380.245
380.192
379.758
379.665
379.001
378.766
377.873
377.433
376.275
375.836
374.449
374.252
372.817
386.681
386.622
386.521
386.445
386.343
386.259
386.169
386.083
385.988
385.896
385.802
385.707
385.613
385.523
385.433
385.34
385.245
385.154
385.067
384.975
384.876
384.776
384.68
384.584
384.484
384.382
384.278
384.18
384.071
383.986
383.876
383.812
383.67
383.616
383.39
383.353
382.981
382.928
382.339
382.196
381.367
381.032
379.943
379.556
378.207
378.022
376.652
389.531
389.473
389.376
389.3
389.201
389.118
389.031
388.947
388.855
388.764
388.672
388.579
388.487
388.399
388.31
388.219
388.126
388.036
387.951
387.86
387.762
387.664
387.57
387.475
387.375
387.274
387.171
387.073
386.967
386.881
386.775
386.708
386.576
386.52
386.318
386.284
385.962
385.933
385.41
385.336
384.573
384.337
383.322
382.999
381.693
381.517
380.198
392.228
392.17
392.077
392.001
391.906
391.823
391.739
391.656
391.565
391.476
391.385
391.294
391.203
391.115
391.028
390.937
390.844
390.755
390.67
390.579
390.482
390.384
390.289
390.193
390.093
389.991
389.888
389.788
389.682
389.593
389.49
389.418
389.293
389.229
389.045
389.007
388.726
388.707
388.25
388.219
387.523
387.378
386.441
386.187
384.947
384.786
383.495
394.583
394.53
394.447
394.377
394.292
394.216
394.14
394.063
393.981
393.899
393.815
393.73
393.646
393.565
393.483
393.398
393.311
393.227
393.147
393.061
392.969
392.875
392.784
392.693
392.597
392.499
392.4
392.303
392.201
392.113
392.015
391.942
391.827
391.759
391.594
391.551
391.311
391.296
390.91
390.902
390.29
390.221
389.374
389.201
388.062
387.928
386.679
396.439
396.395
396.328
396.27
396.2
396.137
396.074
396.011
395.942
395.873
395.803
395.731
395.66
395.59
395.521
395.448
395.372
395.3
395.23
395.155
395.074
394.991
394.911
394.83
394.744
394.656
394.567
394.479
394.387
394.306
394.219
394.149
394.047
393.98
393.838
393.793
393.592
393.576
393.264
393.266
392.755
392.734
391.992
391.896
390.889
390.788
389.642
397.771
397.737
397.685
397.64
397.587
397.538
397.489
397.439
397.385
397.331
397.275
397.218
397.161
397.105
397.049
396.99
396.928
396.869
396.811
396.75
396.683
396.614
396.547
396.479
396.407
396.332
396.256
396.181
396.102
396.031
395.957
395.894
395.808
395.746
395.628
395.582
395.419
395.4
395.154
395.156
394.75
394.749
394.128
394.085
393.227
393.157
392.161
398.667
398.642
398.605
398.572
398.533
398.497
398.461
398.424
398.384
398.344
398.302
398.259
398.216
398.173
398.13
398.085
398.038
397.992
397.947
397.899
397.847
397.793
397.74
397.685
397.628
397.568
397.507
397.445
397.382
397.323
397.262
397.209
397.14
397.085
396.991
396.949
396.821
396.8
396.611
396.612
396.301
396.307
395.814
395.799
395.102
395.059
394.234
399.241
399.224
399.199
399.176
399.15
399.125
399.101
399.075
399.047
399.019
398.99
398.96
398.93
398.9
398.869
398.837
398.803
398.77
398.737
398.702
398.664
398.624
398.585
398.545
398.502
398.456
398.41
398.364
398.315
398.27
398.224
398.182
398.129
398.086
398.014
397.978
397.882
397.863
397.724
397.723
397.497
397.505
397.134
397.133
396.596
396.574
395.926
399.588
399.577
399.562
399.548
399.531
399.516
399.5
399.484
399.466
399.449
399.43
399.411
399.391
399.371
399.351
399.33
399.308
399.286
399.265
399.241
399.215
399.189
399.162
399.135
399.105
399.074
399.043
399.01
398.977
398.945
398.913
398.883
398.846
398.814
398.764
398.737
398.67
398.655
398.559
398.558
398.403
398.412
398.153
398.159
397.773
397.765
397.287
399.786
399.78
399.771
399.763
399.753
399.744
399.735
399.726
399.716
399.705
399.694
399.682
399.671
399.659
399.647
399.634
399.621
399.607
399.594
399.58
399.564
399.547
399.53
399.513
399.495
399.475
399.455
399.435
399.413
399.393
399.372
399.353
399.329
399.308
399.275
399.257
399.214
399.204
399.141
399.142
399.043
399.051
398.883
398.89
398.633
398.633
398.305
399.894
399.891
399.886
399.881
399.876
399.871
399.866
399.861
399.855
399.849
399.843
399.836
399.829
399.823
399.816
399.809
399.801
399.793
399.785
399.777
399.768
399.758
399.748
399.738
399.727
399.715
399.703
399.691
399.678
399.665
399.653
399.641
399.626
399.613
399.593
399.581
399.555
399.548
399.51
399.51
399.45
399.456
399.352
399.359
399.197
399.199
398.986
399.949
399.947
399.944
399.942
399.939
399.936
399.934
399.931
399.928
399.925
399.921
399.918
399.914
399.91
399.907
399.902
399.898
399.894
399.889
399.885
399.879
399.874
399.868
399.862
399.856
399.849
399.842
399.835
399.827
399.82
399.812
399.805
399.797
399.789
399.777
399.77
399.754
399.749
399.727
399.727
399.691
399.695
399.633
399.639
399.539
399.542
399.408
399.976
399.975
399.973
399.972
399.971
399.969
399.968
399.966
399.965
399.963
399.961
399.959
399.957
399.955
399.953
399.951
399.949
399.946
399.944
399.941
399.938
399.935
399.932
399.929
399.925
399.922
399.918
399.913
399.909
399.905
399.9
399.896
399.891
399.887
399.88
399.875
399.866
399.863
399.85
399.85
399.829
399.832
399.796
399.799
399.74
399.742
399.661
399.989
399.988
399.988
399.987
399.986
399.986
399.985
399.984
399.983
399.982
399.981
399.98
399.979
399.978
399.977
399.976
399.975
399.974
399.972
399.971
399.97
399.968
399.966
399.964
399.963
399.96
399.958
399.956
399.954
399.951
399.949
399.947
399.944
399.941
399.937
399.935
399.93
399.928
399.921
399.921
399.909
399.91
399.89
399.893
399.859
399.86
399.813
399.995
399.995
399.994
399.994
399.994
399.993
399.993
399.993
399.992
399.992
399.991
399.991
399.99
399.99
399.989
399.989
399.988
399.988
399.987
399.986
399.986
399.985
399.984
399.983
399.982
399.981
399.98
399.979
399.977
399.976
399.975
399.974
399.972
399.971
399.969
399.967
399.965
399.964
399.96
399.96
399.954
399.955
399.944
399.945
399.927
399.928
399.902
399.998
399.998
399.998
399.997
399.997
399.997
399.997
399.997
399.997
399.996
399.996
399.996
399.996
399.995
399.995
399.995
399.995
399.994
399.994
399.994
399.993
399.993
399.993
399.992
399.992
399.991
399.991
399.99
399.989
399.989
399.988
399.988
399.987
399.986
399.985
399.984
399.983
399.983
399.981
399.981
399.978
399.978
399.973
399.974
399.964
399.965
399.951
399.999
399.999
399.999
399.999
399.999
399.999
399.999
399.999
399.999
399.998
399.998
399.998
399.998
399.998
399.998
399.998
399.998
399.998
399.997
399.997
399.997
399.997
399.997
399.996
399.996
399.996
399.996
399.996
399.995
399.995
399.995
399.994
399.994
399.994
399.993
399.993
399.992
399.992
399.991
399.991
399.99
399.99
399.987
399.988
399.983
399.984
399.977
400
400
400
400
399.999
399.999
399.999
399.999
399.999
399.999
399.999
399.999
399.999
399.999
399.999
399.999
399.999
399.999
399.999
399.999
399.999
399.999
399.999
399.998
399.998
399.998
399.998
399.998
399.998
399.998
399.998
399.998
399.997
399.997
399.997
399.997
399.997
399.997
399.996
399.996
399.995
399.996
399.994
399.995
399.993
399.993
399.99
400
400
400
400
400
400
400
400
400
400
400
400
400
400
400
400
400
400
400
399.999
399.999
399.999
399.999
399.999
399.999
399.999
399.999
399.999
399.999
399.999
399.999
399.999
399.999
399.999
399.999
399.999
399.999
399.999
399.998
399.998
399.998
399.998
399.998
399.998
399.997
399.997
399.996
400
400
400
400
400
400
400
400
400
400
400
400
400
400
400
400
400
400
400
400
400
400
400
400
400
400
400
400
400
400
400
400
400
400
399.999
399.999
399.999
399.999
399.999
399.999
399.999
399.999
399.999
399.999
399.999
399.999
399.998
400
400
400
400
400
400
400
400
400
400
400
400
400
400
400
400
400
400
400
400
400
400
400
400
400
400
400
400
400
400
400
400
400
400
400
400
400
400
400
400
400
400
400
400
399.999
400
399.999
400
400
400
400
400
400
400
400
400
400
400
400
400
400
400
400
400
400
400
400
400
400
400
400
400
400
400
400
400
400
400
400
400
400
400
400
400
400
400
400
400
400
400
400
400
400
400
400
400
400
400
400
400
400
400
400
400
400
400
400
400
400
400
400
400
400
400
400
400
400
400
400
400
400
400
400
400
400
400
400
400
400
400
400
400
400
400
400
400
400
400
400
400
400
400
400
400
400
400
400
400
400
400
400
400
400
400
400
400
400
400
400
400
400
400
400
400
400
400
400
400
400
400
400
400
400
400
400
400
400
400
400
400
400
400
400
400
400
400
400
400
400
400
400
400
400
400
400
400
400
400
400
400
400
400
400
400
400
400
400
400
400
400
400
400
400
400
400
400
400
400
400
400
400
400
400
400
400
400
400
400
400
400
400
400
400
400
400
400
400
400
400
400
400
400
400
400
400
400
400
400
400
400
400
400
400
400
400
400
400
400
400
400
400
400
400
400
400
400
400
400
400
400
400
400
400
400
400
400
400
400
400
400
400
400
400
400
400
400
400
400
400
400
400
400
400
400
400
400
400
400
400
400
400
400
400
400
400
400
400
400
400
400
400
400
400
400
400
400
400
400
400
400
400
400
400
400
400
400
400
400
400
400
400
400
400
400
400
400
400
400
400
400
400
400
400
400
400
400
400
400
400
400
400
400
400
400
400
400
400
400
400
400
400
400
400
400
400
400
400
400
400
400
400
400
400
400
400
400
400
400
400
400
400
400
400
400
400
400
400
400
400
400
400
400
400
400
400
400
400
400
400
400
400
400
400
400
400
400
400
400
400
400
400
400
400
400
400
400
400
400
400
400
400
400
400
400
400
400
400
400
400
400
400
400
400
400
400
400
400
400
400
400
400
400
400
400
400
400
400
400
400
400
400
400
400
400
400
400
400
400
400
400
400
400
400
400
400
400
400
400
400
400
400
400
400
400
400
400
400
400
400
400
400
400
400
400
400
400
400
400
400
400
400
400
400
400
400
400
400
400
400
400
400
400
400
400
400
400
400
400
400
400
400
400
400
400
400
400
400
400
400
400
400
400
400
400
400
400
400
400
400
400
400
400
400
400
400
400
400
400
400
400
400
400
400
400
400
400
400
400
400
400
400
400
400
400
400
400
400
400
400
400
400
400
400
400
400
400
400
400
400
400
400
400
400
400
400
400
400
400
400
400
400
400
400
400
400
400
400
400
400
400
400
400
400
400
400
400
400
400
400
400
400
400
400
400
400
400
400
400
400
400
400
400
400
400
400
400
400
400
400
400
400
400
400
400
400
400
400
400
400
400
400
400
400
400
400
400
400
400
400
400
400
400
400
400
400
400
400
400
400
400
400
400
400
400
400
400
400
400
400
400
400
400
400
400
400
400
400
400
400
400
400
400
400
400
400
400
400
400
400
400
400
400
400
400
400
400
400
400
400
400
400
400
400
400
400
400
400
400
400
400
400
400
400
400
400
400
400
400
400
400
400
400
400
400
400
400
400
400
400
400
400
400
400
400
400
400
400
400
400
400
400
400
400
400
400
400
400
400
400
400
400
400
400
400
400
400
400
400
400
400
400
400
400
400
400
400
400
400
400
400
400
400
400
400
400
400
400
400
400
400
400
400
400
400
400
400
400
400
400
400
400
400
400
400
400
400
400
400
400
400
400
400
400
400
400
400
400
400
400
400
400
400
400
400
400
400
400
400
400
400
400
400
400
400
400
400
400
400
400
400
400
400
400
400
400
400
400
400
400
400
400
400
400
400
400
400
400
400
400
400
400
400
400
400
400
400
400
400
400
400
400
400
400
400
400
400
400
400
400
400
400
400
400
400
400
400
400
400
400
400
400
400
400
400
400
400
400
400
400
400
400
400
400
400
400
400
400
400
400
400
400
400
400
400
400
400
400
400
400
400
400
400
400
400
400
400
400
400
400
400
400
400
400
400
400
400
400
400
400
400
400
400
400
400
400
400
400
400
400
400
400
400
400
400
400
400
400
400
400
400
400
400
400
400
400
400
400
400
400
400
400
400
400
400
400
400
400
400
400
400
400
400
400
400
400
400
400
400
400
400
400
400
400
400
400
400
400
400
400
400
400
400
400
400
400
400
400
400
400
400
400
400
400
400
400
400
400
400
400
400
400
400
400
400
400
400
400
400
400
400
400
400
400
400
400
400
400
400
400
400
400
400
400
400
400
400
400
400
400
400
400
400
400
400
400
400
400
400
400
400
400
400
400
400
400
400
400
400
400
400
400
400
400
400
400
400
400
400
400
400
400
400
400
400
400
400
400
400
400
400
400
400
400
400
400
400
400
400
400
400
400
400
400
400
400
400
400
400
400
400
400
400
400
400
400
400
400
400
400
400
400
400
400
400
400
400
400
400
400
400
400
400
400
400
400
400
400
400
400