/*--------------------------------*- C++ -*----------------------------------*\
| =========                 |                                                 |
| \\      /  F ield         | OpenFOAM: The Open Source CFD Toolbox           |
|  \\    /   O peration     | Version:  2212                                  |
|   \\  /    A nd           | Website:  www.openfoam.com                      |
|    \\/     M anipulation  |                                                 |
\*---------------------------------------------------------------------------*/
FoamFile
{
    version     2.0;
    format      ascii;
    arch        "LSB;label=32;scalar=64";
    class       surfaceScalarField;
    location    "0.423";
    object      phi_0;
}
// * * * * * * * * * * * * * * * * * * * * * * * * * * * * * * * * * * * * * //

dimensions      [0 3 -1 0 0 0 0];

oriented        oriented;

internalField   nonuniform List<scalar> 
69808
(
6.80098e-08
2.96268e-05
-1.84201
5.65806e-08
2.99816e-05
-1.84207
1.8016e-07
2.98794e-05
-1.84207
2.35188e-07
2.99523e-05
-1.84207
3.13609e-07
2.99829e-05
-1.84207
3.59241e-07
3.00594e-05
-1.84207
4.02384e-07
3.01251e-05
-1.84207
4.24838e-07
3.02093e-05
-1.84207
4.38625e-07
3.02885e-05
-1.84207
4.37845e-07
3.03741e-05
-1.84207
4.26281e-07
3.04563e-05
-1.84207
4.06061e-07
3.05356e-05
-1.84207
3.74227e-07
3.06106e-05
-1.84206
3.42749e-07
3.06732e-05
-1.84206
2.97675e-07
3.0735e-05
-1.84206
2.72663e-07
3.07698e-05
-1.84206
2.05078e-07
3.08318e-05
-1.84206
1.94557e-07
3.08304e-05
-1.84206
5.37298e-08
3.09746e-05
-1.84206
3.06533e-05
-1.84201
-2.63842e-07
0.00323574
-1.84469
-2.98109e-07
0.00323625
-1.84475
-3.6674e-07
0.00323629
-1.84475
-4.38441e-07
0.00323651
-1.84475
-4.94431e-07
0.00323673
-1.84475
-5.41616e-07
0.00323703
-1.84475
-5.73196e-07
0.00323734
-1.84475
-5.87477e-07
0.0032377
-1.84475
-5.89922e-07
0.00323806
-1.84475
-5.77391e-07
0.00323844
-1.84475
-5.53432e-07
0.00323881
-1.84475
-5.17352e-07
0.00323918
-1.84475
-4.74014e-07
0.00323952
-1.84475
-4.19638e-07
0.00323983
-1.84475
-3.60115e-07
0.00324011
-1.84475
-2.87733e-07
0.00324033
-1.84475
-2.07373e-07
0.00324055
-1.84475
-1.00923e-07
0.00324067
-1.84475
5.48336e-08
0.00324086
-1.84475
0.00324048
-1.84469
1.14158e-07
0.00591347
-1.84933
4.197e-07
0.00591411
-1.84939
6.67132e-07
0.00591428
-1.84939
9.08926e-07
0.00591459
-1.84939
1.11244e-06
0.00591497
-1.84939
1.2619e-06
0.00591546
-1.84939
1.36643e-06
0.00591599
-1.84939
1.42568e-06
0.00591657
-1.84939
1.44061e-06
0.00591716
-1.84939
1.41633e-06
0.00591776
-1.84939
1.35455e-06
0.00591836
-1.84939
1.26318e-06
0.00591892
-1.84939
1.14694e-06
0.00591945
-1.84939
1.01626e-06
0.00591992
-1.84939
8.74512e-07
0.00592034
-1.84939
7.42935e-07
0.00592066
-1.84938
6.11607e-07
0.00592096
-1.84938
4.53441e-07
0.00592119
-1.84938
3.24548e-07
0.00592138
-1.84938
0.00592093
-1.84933
-3.80455e-07
0.0112744
-1.84675
-6.00431e-07
0.0112752
-1.8468
-8.2072e-07
0.0112754
-1.8468
-1.0474e-06
0.0112757
-1.8468
-1.24312e-06
0.0112761
-1.8468
-1.38758e-06
0.0112766
-1.8468
-1.49075e-06
0.0112772
-1.8468
-1.54856e-06
0.0112778
-1.8468
-1.5653e-06
0.0112784
-1.8468
-1.54196e-06
0.011279
-1.84681
-1.48328e-06
0.0112796
-1.84681
-1.39267e-06
0.0112802
-1.84681
-1.27497e-06
0.0112808
-1.84681
-1.13696e-06
0.0112813
-1.84681
-9.8054e-07
0.0112817
-1.84681
-8.18976e-07
0.0112821
-1.84681
-6.38401e-07
0.0112824
-1.84681
-4.03892e-07
0.0112827
-1.84681
-1.35026e-07
0.0112829
-1.84681
0.0112823
-1.84675
9.20488e-08
0.0164129
-1.8509
3.40584e-07
0.0164138
-1.85096
5.5816e-07
0.0164141
-1.85096
7.24647e-07
0.0164146
-1.85096
8.5753e-07
0.0164151
-1.85096
9.64847e-07
0.0164158
-1.85096
1.03621e-06
0.0164166
-1.85096
1.07472e-06
0.0164174
-1.85096
1.07913e-06
0.0164182
-1.85096
1.05465e-06
0.0164191
-1.85096
1.00258e-06
0.0164199
-1.85096
9.29683e-07
0.0164207
-1.85096
8.38799e-07
0.0164214
-1.85096
7.36888e-07
0.0164221
-1.85096
6.27989e-07
0.0164227
-1.85096
5.11131e-07
0.0164231
-1.85097
3.96524e-07
0.0164235
-1.85097
3.09958e-07
0.0164238
-1.85097
2.36802e-07
0.0164241
-1.85097
0.0164234
-1.85091
-3.85683e-07
0.0236755
-1.84897
-6.50896e-07
0.0236765
-1.84902
-9.06123e-07
0.0236766
-1.84902
-1.13037e-06
0.0236769
-1.84903
-1.31935e-06
0.0236771
-1.84903
-1.47029e-06
0.0236774
-1.84903
-1.57722e-06
0.0236778
-1.84903
-1.6387e-06
0.0236782
-1.84903
-1.65598e-06
0.0236786
-1.84903
-1.62998e-06
0.023679
-1.84903
-1.56543e-06
0.0236793
-1.84903
-1.46487e-06
0.0236797
-1.84903
-1.33531e-06
0.0236801
-1.84903
-1.18001e-06
0.0236804
-1.84903
-1.00662e-06
0.0236807
-1.84903
-8.1383e-07
0.0236809
-1.84903
-6.07941e-07
0.0236811
-1.84903
-3.86659e-07
0.0236813
-1.84903
-1.40696e-07
0.0236814
-1.84903
0.0236805
-1.84897
-1.56163e-07
0.0307347
-1.85105
-1.64794e-07
0.0307357
-1.85111
-1.77646e-07
0.0307357
-1.85111
-2.12251e-07
0.0307357
-1.85111
-2.4363e-07
0.0307357
-1.85111
-2.68808e-07
0.0307358
-1.85111
-2.88351e-07
0.0307358
-1.85111
-3.01239e-07
0.0307358
-1.85111
-3.06776e-07
0.0307358
-1.85111
-3.04148e-07
0.0307358
-1.85111
-2.93543e-07
0.0307359
-1.85111
-2.7406e-07
0.0307359
-1.85111
-2.47436e-07
0.0307359
-1.85111
-2.13122e-07
0.0307359
-1.85111
-1.7463e-07
0.030736
-1.85111
-1.32975e-07
0.030736
-1.85111
-8.90244e-08
0.0307361
-1.85111
-1.50369e-08
0.0307361
-1.85111
6.88486e-08
0.0307361
-1.85111
0.0307351
-1.85106
-2.66276e-07
0.039012
-1.85103
-4.21547e-07
0.039013
-1.85109
-5.68755e-07
0.0390129
-1.85109
-6.99112e-07
0.0390127
-1.85109
-8.0819e-07
0.0390124
-1.85109
-8.98675e-07
0.039012
-1.85109
-9.62678e-07
0.0390116
-1.85109
-1.00062e-06
0.0390112
-1.85109
-1.01064e-06
0.0390108
-1.85109
-9.93288e-07
0.0390104
-1.85109
-9.49995e-07
0.03901
-1.85109
-8.81871e-07
0.0390096
-1.85109
-7.93618e-07
0.0390093
-1.85109
-6.86558e-07
0.039009
-1.85109
-5.6867e-07
0.0390087
-1.85109
-4.37515e-07
0.0390085
-1.85109
-3.03193e-07
0.0390084
-1.85109
-1.63844e-07
0.0390083
-1.85109
-2.36749e-08
0.0390082
-1.85109
0.0390071
-1.85103
-3.10263e-07
0.0403958
-1.84462
-4.86598e-07
0.0403966
-1.84468
-6.54733e-07
0.0403963
-1.84468
-8.12283e-07
0.0403957
-1.84468
-9.46583e-07
0.040395
-1.84468
-1.05529e-06
0.0403942
-1.84468
-1.13296e-06
0.0403933
-1.84468
-1.17881e-06
0.0403923
-1.84468
-1.19157e-06
0.0403913
-1.84468
-1.1715e-06
0.0403902
-1.84468
-1.12079e-06
0.0403892
-1.84468
-1.04141e-06
0.0403883
-1.84468
-9.38543e-07
0.0403875
-1.84468
-8.15048e-07
0.0403867
-1.84468
-6.78809e-07
0.0403861
-1.84468
-5.30258e-07
0.0403856
-1.84468
-3.76379e-07
0.0403852
-1.84468
-2.06477e-07
0.040385
-1.84468
-3.1638e-08
0.0403848
-1.84468
0.0403838
-1.84463
-3.26105e-08
0.0417565
-1.84688
6.22904e-08
0.0417572
-1.84694
1.48405e-07
0.0417568
-1.84694
2.11403e-07
0.0417562
-1.84694
2.6375e-07
0.0417555
-1.84694
3.02338e-07
0.0417546
-1.84694
3.28422e-07
0.0417536
-1.84694
3.43157e-07
0.0417526
-1.84694
3.47154e-07
0.0417514
-1.84694
3.43328e-07
0.0417503
-1.84694
3.32238e-07
0.0417492
-1.84694
3.17482e-07
0.0417482
-1.84694
2.99007e-07
0.0417473
-1.84694
2.80338e-07
0.0417464
-1.84694
2.59675e-07
0.0417457
-1.84694
2.39742e-07
0.0417452
-1.84694
2.17183e-07
0.0417448
-1.84694
1.97003e-07
0.0417445
-1.84694
1.69515e-07
0.0417444
-1.84694
0.0417434
-1.84689
-5.10198e-07
0.0432146
-1.84565
-8.98561e-07
0.043215
-1.84571
-1.2661e-06
0.0432144
-1.84571
-1.58419e-06
0.0432133
-1.84571
-1.85619e-06
0.0432121
-1.84571
-2.07291e-06
0.0432106
-1.84571
-2.22845e-06
0.0432089
-1.84571
-2.3172e-06
0.0432071
-1.84571
-2.34015e-06
0.0432053
-1.84571
-2.29676e-06
0.0432034
-1.84571
-2.1936e-06
0.0432016
-1.84571
-2.03533e-06
0.0431999
-1.84571
-1.83298e-06
0.0431983
-1.84571
-1.5943e-06
0.043197
-1.84571
-1.33191e-06
0.0431959
-1.84571
-1.05e-06
0.043195
-1.84571
-7.57307e-07
0.0431943
-1.84572
-4.63635e-07
0.0431938
-1.84572
-1.67722e-07
0.0431936
-1.84572
0.0431927
-1.84566
1.79435e-07
0.0433694
-1.85046
5.03434e-07
0.0433698
-1.85052
7.9623e-07
0.0433692
-1.85052
1.03491e-06
0.0433684
-1.85052
1.23259e-06
0.0433673
-1.85052
1.39011e-06
0.0433661
-1.85052
1.50078e-06
0.0433647
-1.85052
1.56738e-06
0.0433631
-1.85052
1.58806e-06
0.0433615
-1.85052
1.56836e-06
0.0433599
-1.85052
1.51009e-06
0.0433584
-1.85052
1.42072e-06
0.0433569
-1.85052
1.30424e-06
0.0433555
-1.85052
1.16784e-06
0.0433544
-1.85052
1.01546e-06
0.0433534
-1.85052
8.50505e-07
0.0433526
-1.85052
6.75603e-07
0.043352
-1.85052
5.10048e-07
0.0433517
-1.85052
3.34678e-07
0.0433514
-1.85052
0.0433507
-1.85046
-6.34086e-07
0.0437075
-1.84735
-1.14823e-06
0.0437077
-1.8474
-1.63501e-06
0.0437068
-1.8474
-2.04375e-06
0.0437055
-1.8474
-2.3926e-06
0.0437039
-1.8474
-2.67423e-06
0.043702
-1.8474
-2.87602e-06
0.0436999
-1.8474
-2.99157e-06
0.0436977
-1.8474
-3.02098e-06
0.0436953
-1.8474
-2.96471e-06
0.0436929
-1.8474
-2.83077e-06
0.0436906
-1.8474
-2.62705e-06
0.0436885
-1.8474
-2.36715e-06
0.0436865
-1.8474
-2.0626e-06
0.0436848
-1.8474
-1.72837e-06
0.0436834
-1.8474
-1.36635e-06
0.0436822
-1.8474
-9.89133e-07
0.0436814
-1.8474
-6.24421e-07
0.0436809
-1.8474
-2.50523e-07
0.0436806
-1.8474
0.0436799
-1.84735
3.47231e-07
0.041608
-1.85412
8.5635e-07
0.0416081
-1.85417
1.31907e-06
0.0416074
-1.85417
1.688e-06
0.0416065
-1.85417
1.99609e-06
0.0416052
-1.85417
2.2474e-06
0.0416038
-1.85417
2.42622e-06
0.0416021
-1.85417
2.53478e-06
0.0416003
-1.85417
2.56916e-06
0.0415985
-1.85417
2.5355e-06
0.0415966
-1.85417
2.43718e-06
0.0415948
-1.85417
2.28409e-06
0.041593
-1.85417
2.0842e-06
0.0415915
-1.85417
1.84721e-06
0.0415901
-1.85417
1.58347e-06
0.041589
-1.85417
1.29421e-06
0.0415881
-1.85417
9.91134e-07
0.0415874
-1.85417
7.19684e-07
0.041587
-1.85417
4.45523e-07
0.0415867
-1.85417
0.0415863
-1.85411
-6.78402e-07
0.0397116
-1.84889
-1.23562e-06
0.0397115
-1.84895
-1.76738e-06
0.0397106
-1.84895
-2.21061e-06
0.0397092
-1.84895
-2.58854e-06
0.0397075
-1.84895
-2.89884e-06
0.0397055
-1.84895
-3.12113e-06
0.0397033
-1.84895
-3.24813e-06
0.0397009
-1.84895
-3.28076e-06
0.0396983
-1.84895
-3.2198e-06
0.0396958
-1.84895
-3.0752e-06
0.0396933
-1.84895
-2.85669e-06
0.039691
-1.84895
-2.58e-06
0.0396889
-1.84895
-2.25889e-06
0.0396871
-1.84895
-1.90799e-06
0.0396856
-1.84895
-1.52188e-06
0.0396844
-1.84895
-1.11525e-06
0.0396835
-1.84895
-7.17797e-07
0.039683
-1.84895
-2.95541e-07
0.0396827
-1.84895
0.0396823
-1.84889
4.48984e-07
0.034577
-1.85619
1.07636e-06
0.0345769
-1.85625
1.63853e-06
0.0345763
-1.85625
2.07522e-06
0.0345754
-1.85625
2.43835e-06
0.0345742
-1.85625
2.74571e-06
0.0345727
-1.85625
2.96482e-06
0.0345711
-1.85624
3.09741e-06
0.0345693
-1.85624
3.13696e-06
0.0345675
-1.85624
3.09025e-06
0.0345656
-1.85624
2.96066e-06
0.0345638
-1.85624
2.76078e-06
0.0345621
-1.85624
2.50085e-06
0.0345605
-1.85624
2.19515e-06
0.0345591
-1.85624
1.85883e-06
0.034558
-1.85624
1.48465e-06
0.0345571
-1.85624
1.10442e-06
0.0345564
-1.85624
7.87543e-07
0.0345559
-1.85624
4.80957e-07
0.0345556
-1.85624
0.0345553
-1.85618
-5.66534e-07
0.0296791
-1.84869
-9.74711e-07
0.0296789
-1.84875
-1.3731e-06
0.0296782
-1.84875
-1.81346e-06
0.0296771
-1.84875
-2.19397e-06
0.0296756
-1.84875
-2.47168e-06
0.0296738
-1.84875
-2.66945e-06
0.0296718
-1.84875
-2.77756e-06
0.0296697
-1.84875
-2.80386e-06
0.0296675
-1.84875
-2.74936e-06
0.0296653
-1.84874
-2.62556e-06
0.0296631
-1.84874
-2.4414e-06
0.0296611
-1.84874
-2.21291e-06
0.0296592
-1.84874
-1.95604e-06
0.0296576
-1.84874
-1.68049e-06
0.0296563
-1.84874
-1.41572e-06
0.0296553
-1.84874
-1.12939e-06
0.0296545
-1.84874
-7.24046e-07
0.0296539
-1.84874
-2.88193e-07
0.0296535
-1.84874
0.0296533
-1.84868
4.32577e-07
0.0210624
-1.8544
9.90246e-07
0.0210623
-1.85445
1.43922e-06
0.0210621
-1.85445
1.90506e-06
0.0210614
-1.85445
2.30683e-06
0.0210605
-1.85445
2.60668e-06
0.0210595
-1.85445
2.82351e-06
0.0210583
-1.85445
2.94703e-06
0.021057
-1.85445
2.97874e-06
0.0210557
-1.85445
2.92321e-06
0.0210544
-1.85445
2.78296e-06
0.0210531
-1.85445
2.57403e-06
0.0210518
-1.85445
2.30402e-06
0.0210507
-1.85444
2.00155e-06
0.0210497
-1.85444
1.67283e-06
0.0210488
-1.85444
1.36558e-06
0.0210481
-1.85444
1.05869e-06
0.0210475
-1.85444
6.86342e-07
0.0210472
-1.85444
3.84884e-07
0.0210468
-1.85444
0.0210465
-1.85438
-2.2991e-07
0.0128424
-1.84464
-3.85959e-07
0.0128424
-1.84469
-6.09975e-07
0.0128422
-1.84469
-7.96571e-07
0.0128416
-1.84469
-9.43509e-07
0.0128408
-1.84469
-1.05821e-06
0.0128398
-1.84469
-1.13297e-06
0.0128386
-1.84469
-1.17183e-06
0.0128374
-1.84469
-1.17613e-06
0.0128361
-1.84469
-1.14833e-06
0.0128349
-1.84469
-1.09591e-06
0.0128336
-1.84468
-1.02077e-06
0.0128324
-1.84468
-9.34578e-07
0.0128314
-1.84468
-8.36371e-07
0.0128304
-1.84468
-7.38142e-07
0.0128297
-1.84468
-6.28308e-07
0.0128291
-1.84468
-5.08872e-07
0.0128285
-1.84468
-3.79697e-07
0.0128282
-1.84468
-1.60524e-07
0.0128277
-1.84468
0.0128274
-1.84462
6.64314e-07
-1.8452
7.60046e-07
-1.84525
9.55855e-07
-1.84525
1.14627e-06
-1.84525
1.36427e-06
-1.84525
1.53072e-06
-1.84525
1.66342e-06
-1.84525
1.7377e-06
-1.84525
1.75928e-06
-1.84525
1.72391e-06
-1.84525
1.63389e-06
-1.84525
1.49854e-06
-1.84525
1.32094e-06
-1.84525
1.12548e-06
-1.84524
9.04954e-07
-1.84524
6.98524e-07
-1.84524
4.3883e-07
-1.84524
1.58467e-07
-1.84524
-2.37643e-07
-1.84524
-1.84519
8.80408e-08
0.00215056
-1.84416
1.92e-07
0.00215105
-1.84422
3.8475e-07
0.00215102
-1.84422
5.2569e-07
0.00215116
-1.84422
6.71932e-07
0.00215128
-1.84422
7.73617e-07
0.00215146
-1.84422
8.56269e-07
0.00215164
-1.84422
9.05153e-07
0.00215185
-1.84422
9.28943e-07
0.00215205
-1.84422
9.26726e-07
0.00215225
-1.84422
8.99786e-07
0.00215245
-1.84422
8.55177e-07
0.00215263
-1.84422
7.90247e-07
0.0021528
-1.84422
7.20372e-07
0.00215293
-1.84422
6.33691e-07
0.00215306
-1.84422
5.59572e-07
0.00215315
-1.84422
4.55416e-07
0.00215325
-1.84422
3.79439e-07
0.00215329
-1.84422
1.9386e-07
0.00215344
-1.84422
0.00215303
-1.84416
-2.66504e-07
0.00630371
-1.84884
-3.14276e-07
0.00630427
-1.8489
-3.80646e-07
0.00630434
-1.8489
-4.40174e-07
0.00630456
-1.8489
-4.87574e-07
0.0063048
-1.8489
-5.2599e-07
0.00630512
-1.8489
-5.49313e-07
0.00630546
-1.8489
-5.58826e-07
0.00630583
-1.8489
-5.55498e-07
0.00630622
-1.8489
-5.39112e-07
0.00630662
-1.8489
-5.13295e-07
0.00630701
-1.8489
-4.7668e-07
0.00630738
-1.8489
-4.34942e-07
0.00630773
-1.8489
-3.80588e-07
0.00630803
-1.8489
-3.23119e-07
0.00630832
-1.8489
-2.48633e-07
0.00630853
-1.8489
-1.67692e-07
0.00630874
-1.8489
-6.78384e-08
0.00630887
-1.8489
6.40887e-08
0.00630905
-1.8489
0.00630861
-1.84884
1.91605e-07
0.0100668
-1.85309
5.54834e-07
0.0100674
-1.85315
8.59851e-07
0.0100677
-1.85315
1.18933e-06
0.010068
-1.85315
1.46282e-06
0.0100685
-1.85315
1.66741e-06
0.0100692
-1.85315
1.80853e-06
0.0100698
-1.85315
1.89225e-06
0.0100706
-1.85315
1.91526e-06
0.0100713
-1.85315
1.88869e-06
0.0100721
-1.85315
1.81211e-06
0.0100728
-1.85315
1.69735e-06
0.0100735
-1.85315
1.54998e-06
0.0100741
-1.85315
1.3831e-06
0.0100747
-1.85315
1.2032e-06
0.0100752
-1.85315
1.03409e-06
0.0100756
-1.85315
8.64197e-07
0.0100759
-1.85315
6.2367e-07
0.0100762
-1.85315
4.04909e-07
0.0100764
-1.85315
0.010076
-1.85309
-4.35899e-07
0.0147381
-1.85142
-7.22597e-07
0.0147388
-1.85147
-1.00092e-06
0.0147389
-1.85147
-1.28262e-06
0.0147392
-1.85147
-1.52833e-06
0.0147396
-1.85147
-1.7041e-06
0.0147401
-1.85147
-1.83417e-06
0.0147406
-1.85147
-1.90506e-06
0.0147411
-1.85147
-1.93012e-06
0.0147417
-1.85148
-1.90415e-06
0.0147422
-1.85148
-1.83788e-06
0.0147428
-1.85148
-1.731e-06
0.0147433
-1.85148
-1.59186e-06
0.0147438
-1.85148
-1.42683e-06
0.0147443
-1.85148
-1.23705e-06
0.0147447
-1.85148
-1.04242e-06
0.014745
-1.85148
-8.21357e-07
0.0147453
-1.85148
-5.32855e-07
0.0147455
-1.85148
-2.08322e-07
0.0147456
-1.85148
0.0147451
-1.85142
6.2916e-08
0.0194373
-1.8556
2.65153e-07
0.0194381
-1.85566
4.45359e-07
0.0194383
-1.85566
5.85182e-07
0.0194387
-1.85566
6.96229e-07
0.0194391
-1.85566
7.86832e-07
0.0194396
-1.85566
8.4741e-07
0.0194402
-1.85566
8.78579e-07
0.0194408
-1.85566
8.82009e-07
0.0194414
-1.85566
8.60722e-07
0.0194421
-1.85566
8.16696e-07
0.0194427
-1.85566
7.57147e-07
0.0194433
-1.85566
6.83157e-07
0.0194438
-1.85566
6.02904e-07
0.0194443
-1.85566
5.15662e-07
0.0194447
-1.85566
4.22269e-07
0.0194451
-1.85567
3.30322e-07
0.0194454
-1.85567
2.63818e-07
0.0194456
-1.85567
2.10315e-07
0.0194458
-1.85567
0.0194452
-1.85561
-4.54703e-07
0.0249497
-1.85448
-8.09381e-07
0.0249505
-1.85454
-1.14438e-06
0.0249506
-1.85454
-1.42841e-06
0.0249507
-1.85454
-1.66849e-06
0.0249509
-1.85454
-1.86191e-06
0.0249511
-1.85454
-2.00242e-06
0.0249514
-1.85454
-2.08565e-06
0.0249516
-1.85454
-2.11536e-06
0.0249519
-1.85454
-2.08975e-06
0.0249521
-1.85454
-2.01688e-06
0.0249524
-1.85454
-1.89774e-06
0.0249527
-1.85454
-1.74125e-06
0.0249529
-1.85454
-1.54952e-06
0.0249531
-1.85454
-1.33259e-06
0.0249533
-1.85454
-1.0853e-06
0.0249535
-1.85454
-8.17216e-07
0.0249537
-1.85454
-5.37015e-07
0.0249538
-1.85454
-2.279e-07
0.0249538
-1.85454
0.0249531
-1.85448
-2.43549e-07
0.0304483
-1.85655
-3.5935e-07
0.0304492
-1.85661
-4.69146e-07
0.0304492
-1.85661
-5.81292e-07
0.0304492
-1.85661
-6.79187e-07
0.0304492
-1.85661
-7.55255e-07
0.0304491
-1.85661
-8.12577e-07
0.0304491
-1.85661
-8.47408e-07
0.030449
-1.85661
-8.61233e-07
0.030449
-1.85661
-8.5157e-07
0.030449
-1.85661
-8.21971e-07
0.0304489
-1.85661
-7.70579e-07
0.0304489
-1.85661
-7.03056e-07
0.0304489
-1.85661
-6.18461e-07
0.0304489
-1.85661
-5.24649e-07
0.0304489
-1.85661
-4.22298e-07
0.0304489
-1.85661
-3.12212e-07
0.030449
-1.85661
-1.74757e-07
0.0304489
-1.85661
-2.15089e-08
0.030449
-1.85661
0.0304481
-1.85655
-3.34215e-07
0.0364339
-1.85701
-5.78869e-07
0.0364348
-1.85707
-8.0633e-07
0.0364347
-1.85707
-9.92356e-07
0.0364346
-1.85707
-1.15018e-06
0.0364343
-1.85707
-1.28014e-06
0.0364341
-1.85707
-1.37453e-06
0.0364338
-1.85707
-1.43061e-06
0.0364334
-1.85707
-1.44863e-06
0.0364331
-1.85707
-1.42699e-06
0.0364328
-1.85707
-1.36942e-06
0.0364325
-1.85707
-1.27603e-06
0.0364322
-1.85707
-1.15494e-06
0.0364319
-1.85707
-1.00652e-06
0.0364317
-1.85707
-8.42419e-07
0.0364315
-1.85707
-6.57088e-07
0.0364313
-1.85707
-4.64761e-07
0.0364313
-1.85707
-2.78551e-07
0.0364312
-1.85707
-9.17072e-08
0.0364312
-1.85707
0.0364302
-1.85702
-4.13413e-07
0.0358327
-1.84402
-7.15232e-07
0.0358335
-1.84407
-9.98904e-07
0.0358332
-1.84407
-1.24537e-06
0.0358328
-1.84408
-1.45749e-06
0.0358323
-1.84408
-1.62821e-06
0.0358317
-1.84408
-1.75329e-06
0.035831
-1.84408
-1.82809e-06
0.0358302
-1.84408
-1.85407e-06
0.0358295
-1.84408
-1.82896e-06
0.0358287
-1.84408
-1.75912e-06
0.035828
-1.84408
-1.64546e-06
0.0358273
-1.84408
-1.49782e-06
0.0358267
-1.84408
-1.31834e-06
0.0358262
-1.84408
-1.11809e-06
0.0358258
-1.84408
-8.9658e-07
0.0358254
-1.84408
-6.60446e-07
0.0358252
-1.84408
-4.1523e-07
0.035825
-1.84408
-1.57221e-07
0.0358249
-1.84408
0.035824
-1.84402
-6.50779e-08
0.0351218
-1.84617
-2.7899e-08
0.0351225
-1.84623
8.95871e-09
0.0351221
-1.84623
4.38072e-08
0.0351216
-1.84623
7.38591e-08
0.035121
-1.84623
9.43049e-08
0.0351203
-1.84623
1.09558e-07
0.0351195
-1.84623
1.20626e-07
0.0351186
-1.84623
1.29117e-07
0.0351177
-1.84623
1.38011e-07
0.0351168
-1.84623
1.46912e-07
0.0351159
-1.84623
1.59555e-07
0.0351151
-1.84623
1.71984e-07
0.0351143
-1.84623
1.86311e-07
0.0351136
-1.84623
1.97795e-07
0.0351131
-1.84623
2.08547e-07
0.0351126
-1.84623
2.10071e-07
0.0351123
-1.84623
1.94881e-07
0.0351121
-1.84623
1.56937e-07
0.0351119
-1.84623
0.0351111
-1.84617
-5.46637e-07
0.0344057
-1.84494
-9.9972e-07
0.0344061
-1.84499
-1.42753e-06
0.0344056
-1.84499
-1.77925e-06
0.0344049
-1.84499
-2.08397e-06
0.034404
-1.84499
-2.32897e-06
0.0344029
-1.84499
-2.51033e-06
0.0344017
-1.84499
-2.61721e-06
0.0344004
-1.84499
-2.6544e-06
0.0343991
-1.84499
-2.61705e-06
0.0343977
-1.84499
-2.51653e-06
0.0343964
-1.84499
-2.35383e-06
0.0343952
-1.84499
-2.1438e-06
0.0343941
-1.84499
-1.88964e-06
0.0343931
-1.84499
-1.60521e-06
0.0343923
-1.84499
-1.28808e-06
0.0343916
-1.84499
-9.46992e-07
0.0343911
-1.84499
-6.1557e-07
0.0343908
-1.84499
-2.71255e-07
0.0343906
-1.84499
0.0343898
-1.84494
2.08419e-07
0.0329245
-1.84898
5.28245e-07
0.0329248
-1.84904
8.28498e-07
0.0329244
-1.84904
1.08383e-06
0.0329237
-1.84904
1.29776e-06
0.0329229
-1.84904
1.47544e-06
0.0329219
-1.84904
1.60406e-06
0.0329208
-1.84904
1.69166e-06
0.0329196
-1.84904
1.73177e-06
0.0329184
-1.84904
1.73444e-06
0.0329172
-1.84904
1.69689e-06
0.032916
-1.84904
1.62893e-06
0.0329148
-1.84904
1.52952e-06
0.0329138
-1.84904
1.40522e-06
0.0329129
-1.84904
1.25483e-06
0.0329121
-1.84904
1.07838e-06
0.0329115
-1.84904
8.74579e-07
0.032911
-1.84904
6.57213e-07
0.0329107
-1.84904
4.00376e-07
0.0329105
-1.84904
0.0329099
-1.84898
-6.37893e-07
0.0314703
-1.84589
-1.1891e-06
0.0314705
-1.84595
-1.71332e-06
0.0314699
-1.84595
-2.12655e-06
0.0314689
-1.84595
-2.48598e-06
0.0314678
-1.84595
-2.78075e-06
0.0314665
-1.84595
-2.9994e-06
0.0314651
-1.84595
-3.12951e-06
0.0314635
-1.84595
-3.17508e-06
0.0314619
-1.84595
-3.1322e-06
0.0314603
-1.84595
-3.01312e-06
0.0314587
-1.84595
-2.82192e-06
0.0314572
-1.84595
-2.57432e-06
0.0314558
-1.84595
-2.27659e-06
0.0314546
-1.84595
-1.94148e-06
0.0314536
-1.84595
-1.56301e-06
0.0314528
-1.84595
-1.15021e-06
0.0314522
-1.84595
-7.64365e-07
0.0314519
-1.84595
-3.51651e-07
0.0314516
-1.84595
0.031451
-1.84589
4.50673e-07
0.028711
-1.85136
1.02369e-06
0.0287112
-1.85141
1.56367e-06
0.0287107
-1.85141
2.0049e-06
0.02871
-1.85141
2.38e-06
0.0287092
-1.85141
2.69673e-06
0.0287081
-1.85141
2.92917e-06
0.028707
-1.85141
3.08472e-06
0.0287057
-1.85141
3.1538e-06
0.0287044
-1.85141
3.14708e-06
0.0287031
-1.85141
3.06414e-06
0.0287018
-1.85141
2.91698e-06
0.0287006
-1.85141
2.71003e-06
0.0286995
-1.85141
2.45197e-06
0.0286985
-1.85141
2.1494e-06
0.0286976
-1.85141
1.79739e-06
0.028697
-1.85141
1.40376e-06
0.0286965
-1.85141
1.01994e-06
0.0286961
-1.85141
5.92265e-07
0.0286959
-1.85141
0.0286955
-1.85135
-6.47579e-07
0.0260429
-1.84622
-1.20809e-06
0.026043
-1.84628
-1.74497e-06
0.0260424
-1.84628
-2.16612e-06
0.0260415
-1.84628
-2.53157e-06
0.0260404
-1.84628
-2.83619e-06
0.0260391
-1.84628
-3.06149e-06
0.0260377
-1.84628
-3.19421e-06
0.0260362
-1.84628
-3.23997e-06
0.0260346
-1.84628
-3.19511e-06
0.026033
-1.84628
-3.07388e-06
0.0260314
-1.84628
-2.88227e-06
0.0260299
-1.84628
-2.63663e-06
0.0260286
-1.84628
-2.34563e-06
0.0260274
-1.84628
-2.01862e-06
0.0260264
-1.84628
-1.64183e-06
0.0260256
-1.84628
-1.2227e-06
0.026025
-1.84628
-8.22181e-07
0.0260247
-1.84628
-3.78273e-07
0.0260244
-1.84628
0.026024
-1.84622
6.09168e-07
0.0218563
-1.852
1.35992e-06
0.0218562
-1.85206
2.05986e-06
0.0218559
-1.85206
2.62331e-06
0.0218553
-1.85206
3.10033e-06
0.0218546
-1.85206
3.51645e-06
0.0218537
-1.85206
3.82139e-06
0.0218527
-1.85206
4.02411e-06
0.0218516
-1.85206
4.10964e-06
0.0218505
-1.85206
4.09092e-06
0.0218494
-1.85206
3.96715e-06
0.0218482
-1.85206
3.7554e-06
0.0218472
-1.85206
3.46359e-06
0.0218462
-1.85206
3.10609e-06
0.0218454
-1.85206
2.69687e-06
0.0218446
-1.85206
2.21845e-06
0.021844
-1.85206
1.70008e-06
0.0218435
-1.85206
1.2214e-06
0.0218432
-1.85206
7.01481e-07
0.0218429
-1.85206
0.0218427
-1.852
-4.90431e-07
0.0178201
-1.84466
-8.27298e-07
0.0178199
-1.84471
-1.14765e-06
0.0178196
-1.84471
-1.54986e-06
0.0178191
-1.84471
-1.90144e-06
0.0178184
-1.84471
-2.14646e-06
0.0178173
-1.84471
-2.32552e-06
0.0178163
-1.84471
-2.42243e-06
0.0178151
-1.84471
-2.45276e-06
0.0178139
-1.84471
-2.41254e-06
0.0178127
-1.84471
-2.31781e-06
0.0178115
-1.84471
-2.17256e-06
0.0178104
-1.84471
-1.99371e-06
0.0178094
-1.84471
-1.79218e-06
0.0178086
-1.84471
-1.57318e-06
0.0178078
-1.84471
-1.37083e-06
0.0178073
-1.84471
-1.137e-06
0.0178068
-1.84471
-7.40146e-07
0.0178063
-1.8447
-3.12641e-07
0.017806
-1.84471
0.017806
-1.84465
5.8307e-07
0.0123274
-1.8489
1.26055e-06
0.0123272
-1.84896
1.84777e-06
0.0123271
-1.84896
2.51321e-06
0.0123268
-1.84896
3.0929e-06
0.0123264
-1.84896
3.53256e-06
0.0123258
-1.84896
3.86043e-06
0.0123252
-1.84896
4.06666e-06
0.0123246
-1.84896
4.1506e-06
0.0123239
-1.84896
4.12217e-06
0.0123232
-1.84896
3.9807e-06
0.0123225
-1.84896
3.74859e-06
0.0123218
-1.84896
3.43175e-06
0.0123212
-1.84896
3.06609e-06
0.0123207
-1.84896
2.6537e-06
0.0123202
-1.84895
2.25883e-06
0.0123198
-1.84895
1.84114e-06
0.0123195
-1.84895
1.25256e-06
0.0123192
-1.84895
6.79442e-07
0.0123189
-1.84895
0.0123189
-1.8489
-1.58393e-07
0.00689487
-1.8392
-1.88061e-07
0.00689465
-1.83926
-2.67796e-07
0.00689473
-1.83926
-3.24638e-07
0.0068945
-1.83926
-3.59712e-07
0.00689422
-1.83926
-3.87683e-07
0.00689383
-1.83926
-3.97784e-07
0.00689342
-1.83926
-3.95712e-07
0.00689295
-1.83926
-3.82372e-07
0.00689247
-1.83926
-3.59201e-07
0.00689198
-1.83925
-3.33327e-07
0.00689152
-1.83925
-3.03891e-07
0.00689107
-1.83925
-2.79125e-07
0.00689066
-1.83925
-2.53197e-07
0.00689031
-1.83925
-2.3335e-07
0.00689
-1.83925
-1.97817e-07
0.00688977
-1.83925
-1.5184e-07
0.00688953
-1.83925
-1.01227e-07
0.00688935
-1.83925
-2.8716e-09
0.00688902
-1.83925
0.00688909
-1.83919
6.44063e-07
-1.83831
9.14716e-07
-1.83836
1.26648e-06
-1.83836
1.61842e-06
-1.83836
1.9712e-06
-1.83836
2.24889e-06
-1.83836
2.46892e-06
-1.83836
2.60877e-06
-1.83836
2.67113e-06
-1.83836
2.6547e-06
-1.83836
2.56423e-06
-1.83836
2.41204e-06
-1.83835
2.20075e-06
-1.83835
1.95923e-06
-1.83835
1.67973e-06
-1.83835
1.40586e-06
-1.83835
1.06893e-06
-1.83835
6.72934e-07
-1.83835
1.52195e-07
-1.83836
-1.83831
7.68466e-08
0.00343194
-1.8476
2.38796e-07
0.00343255
-1.84765
4.98802e-07
0.00343259
-1.84765
6.94734e-07
0.00343277
-1.84765
8.78092e-07
0.00343294
-1.84765
1.01188e-06
0.00343318
-1.84765
1.11506e-06
0.00343343
-1.84765
1.17908e-06
0.00343371
-1.84765
1.20967e-06
0.00343399
-1.84765
1.20818e-06
0.00343427
-1.84765
1.17593e-06
0.00343454
-1.84765
1.1216e-06
0.0034348
-1.84765
1.04282e-06
0.00343503
-1.84765
9.55042e-07
0.00343524
-1.84765
8.4894e-07
0.00343543
-1.84765
7.52486e-07
0.00343557
-1.84765
6.30976e-07
0.00343572
-1.84765
5.37472e-07
0.00343581
-1.84765
3.16085e-07
0.00343594
-1.84765
0.00343544
-1.8476
-2.81496e-07
0.00671568
-1.85213
-3.16724e-07
0.00671627
-1.85219
-3.7254e-07
0.00671631
-1.85219
-4.19659e-07
0.00671647
-1.85219
-4.60294e-07
0.00671662
-1.85219
-4.93409e-07
0.00671685
-1.85219
-5.13407e-07
0.00671708
-1.85219
-5.20186e-07
0.00671735
-1.85218
-5.16112e-07
0.00671761
-1.85218
-4.98672e-07
0.00671788
-1.85218
-4.73914e-07
0.00671815
-1.85218
-4.37735e-07
0.0067184
-1.85218
-3.96313e-07
0.00671864
-1.85218
-3.43342e-07
0.00671885
-1.85218
-2.87245e-07
0.00671904
-1.85218
-2.1275e-07
0.00671918
-1.85218
-1.28434e-07
0.00671933
-1.85218
-2.83544e-08
0.00671942
-1.85218
9.74057e-08
0.00671956
-1.85218
0.00671908
-1.85213
1.32253e-07
0.00976902
-1.85615
4.88299e-07
0.00976968
-1.85621
7.81337e-07
0.00976986
-1.85621
1.1032e-06
0.00977009
-1.85621
1.36596e-06
0.00977046
-1.85621
1.56319e-06
0.00977094
-1.85621
1.69678e-06
0.00977143
-1.85621
1.77865e-06
0.00977197
-1.85621
1.80052e-06
0.00977251
-1.85621
1.7789e-06
0.00977305
-1.85621
1.71007e-06
0.00977358
-1.85621
1.60922e-06
0.00977407
-1.85621
1.47844e-06
0.00977453
-1.85621
1.33167e-06
0.00977492
-1.85621
1.17416e-06
0.00977528
-1.85621
1.02788e-06
0.00977554
-1.85621
8.82049e-07
0.00977579
-1.85621
6.57752e-07
0.00977606
-1.85621
4.54394e-07
0.00977623
-1.85621
0.00977576
-1.85615
-4.62097e-07
0.0140302
-1.85568
-7.2266e-07
0.0140309
-1.85574
-9.82703e-07
0.014031
-1.85574
-1.25633e-06
0.0140312
-1.85574
-1.50019e-06
0.0140314
-1.85574
-1.67341e-06
0.0140317
-1.85574
-1.80667e-06
0.014032
-1.85574
-1.87915e-06
0.0140323
-1.85574
-1.9103e-06
0.0140327
-1.85574
-1.8882e-06
0.0140331
-1.85574
-1.83019e-06
0.0140334
-1.85574
-1.72921e-06
0.0140337
-1.85574
-1.59841e-06
0.0140341
-1.85574
-1.43838e-06
0.0140343
-1.85574
-1.25312e-06
0.0140346
-1.85574
-1.05981e-06
0.0140348
-1.85574
-8.36276e-07
0.014035
-1.85574
-5.31133e-07
0.0140351
-1.85574
-1.80107e-07
0.0140352
-1.85574
0.0140347
-1.85568
-4.73607e-08
0.0183636
-1.85994
1.00036e-07
0.0183643
-1.85999
2.24422e-07
0.0183644
-1.85999
3.08976e-07
0.0183646
-1.85999
3.71766e-07
0.0183648
-1.85999
4.24832e-07
0.0183651
-1.86
4.5649e-07
0.0183654
-1.86
4.7151e-07
0.0183657
-1.86
4.67163e-07
0.018366
-1.86
4.51222e-07
0.0183663
-1.86
4.2195e-07
0.0183666
-1.86
3.87878e-07
0.0183669
-1.86
3.47238e-07
0.0183671
-1.86
3.08279e-07
0.0183674
-1.86
2.66841e-07
0.0183676
-1.86
2.26594e-07
0.0183677
-1.86
1.87039e-07
0.0183679
-1.86
1.84246e-07
0.018368
-1.86
2.01202e-07
0.0183681
-1.86
0.0183675
-1.85994
-4.96039e-07
0.0238051
-1.85992
-8.36405e-07
0.0238059
-1.85998
-1.1666e-06
0.023806
-1.85998
-1.45249e-06
0.0238061
-1.85998
-1.69997e-06
0.0238061
-1.85998
-1.90063e-06
0.0238062
-1.85998
-2.05082e-06
0.0238064
-1.85998
-2.14257e-06
0.0238065
-1.85998
-2.18231e-06
0.0238066
-1.85998
-2.16512e-06
0.0238067
-1.85998
-2.10153e-06
0.0238068
-1.85998
-1.98868e-06
0.0238069
-1.85998
-1.83854e-06
0.0238071
-1.85998
-1.64913e-06
0.0238072
-1.85998
-1.43028e-06
0.0238072
-1.85998
-1.17421e-06
0.0238073
-1.85998
-8.89086e-07
0.0238074
-1.85998
-5.75849e-07
0.0238074
-1.85998
-2.20775e-07
0.0238075
-1.85998
0.0238067
-1.85992
-3.32542e-07
0.0292759
-1.86202
-4.85381e-07
0.0292768
-1.86208
-6.37568e-07
0.0292767
-1.86208
-7.92405e-07
0.0292767
-1.86208
-9.30239e-07
0.0292767
-1.86208
-1.04089e-06
0.0292766
-1.86208
-1.12605e-06
0.0292765
-1.86208
-1.18011e-06
0.0292764
-1.86208
-1.20728e-06
0.0292764
-1.86208
-1.20192e-06
0.0292763
-1.86208
-1.17096e-06
0.0292762
-1.86208
-1.11029e-06
0.0292761
-1.86208
-1.02811e-06
0.0292761
-1.86208
-9.22456e-07
0.029276
-1.86208
-7.99656e-07
0.029276
-1.86208
-6.59131e-07
0.029276
-1.86208
-5.01014e-07
0.029276
-1.86208
-2.98746e-07
0.0292759
-1.86208
-6.39276e-08
0.0292759
-1.86208
0.0292751
-1.86202
-4.12818e-07
0.03535
-1.86309
-6.81812e-07
0.0353509
-1.86314
-9.39863e-07
0.0353508
-1.86314
-1.16105e-06
0.0353506
-1.86314
-1.34871e-06
0.0353503
-1.86314
-1.50498e-06
0.0353501
-1.86314
-1.62213e-06
0.0353497
-1.86314
-1.69331e-06
0.0353494
-1.86314
-1.722e-06
0.035349
-1.86314
-1.70385e-06
0.0353487
-1.86314
-1.64573e-06
0.0353483
-1.86314
-1.54591e-06
0.035348
-1.86314
-1.4146e-06
0.0353477
-1.86314
-1.24977e-06
0.0353474
-1.86315
-1.06485e-06
0.0353472
-1.86315