/*--------------------------------*- C++ -*----------------------------------*\
| =========                 |                                                 |
| \\      /  F ield         | OpenFOAM: The Open Source CFD Toolbox           |
|  \\    /   O peration     | Version:  2212                                  |
|   \\  /    A nd           | Website:  www.openfoam.com                      |
|    \\/     M anipulation  |                                                 |
\*---------------------------------------------------------------------------*/
FoamFile
{
    version     2.0;
    format      ascii;
    arch        "LSB;label=32;scalar=64";
    class       volVectorField;
    location    "0.003";
    object      UMean;
}
// * * * * * * * * * * * * * * * * * * * * * * * * * * * * * * * * * * * * * //

dimensions      [0 1 -1 0 0 0 0];

internalField   nonuniform List<vector> 
24240
(
(9.95215 0.365719 -4.14047e-07)
(9.95216 0.36572 -1.37364e-06)
(9.95216 0.365721 -2.3585e-06)
(9.95216 0.365723 -3.36016e-06)
(9.95217 0.365725 -4.32837e-06)
(9.95217 0.365728 -5.22953e-06)
(9.95218 0.365732 -6.0476e-06)
(9.95219 0.365736 -6.76841e-06)
(9.9522 0.36574 -7.37923e-06)
(9.95221 0.365745 -7.86313e-06)
(9.95222 0.36575 -8.20534e-06)
(9.95223 0.365755 -8.38554e-06)
(9.95225 0.36576 -8.38796e-06)
(9.95226 0.365765 -8.20223e-06)
(9.95227 0.36577 -7.82537e-06)
(9.95228 0.365775 -7.27271e-06)
(9.95229 0.365779 -6.54129e-06)
(9.9523 0.365783 -5.55644e-06)
(9.9523 0.365786 -4.06598e-06)
(9.95231 0.365788 -1.6077e-06)
(9.22495 0.433657 2.0201e-08)
(9.22495 0.433657 6.4265e-08)
(9.22495 0.433657 1.32262e-07)
(9.22494 0.433656 1.91639e-07)
(9.22494 0.433655 2.29475e-07)
(9.22493 0.433654 2.4366e-07)
(9.22493 0.433652 2.35331e-07)
(9.22492 0.433651 2.11853e-07)
(9.22491 0.433649 1.78552e-07)
(9.2249 0.433647 1.44276e-07)
(9.2249 0.433645 1.14203e-07)
(9.22489 0.433643 9.42808e-08)
(9.22488 0.433641 8.63538e-08)
(9.22487 0.43364 9.04466e-08)
(9.22486 0.433638 1.06918e-07)
(9.22486 0.433636 1.26076e-07)
(9.22485 0.433635 1.3714e-07)
(9.22484 0.433633 8.86713e-08)
(9.22484 0.433632 -4.22278e-08)
(9.22483 0.433631 -6.69388e-08)
(9.10445 0.15057 -6.09108e-07)
(9.10446 0.15057 -1.89366e-06)
(9.10446 0.15057 -3.28915e-06)
(9.10446 0.150571 -4.69109e-06)
(9.10447 0.150572 -6.03178e-06)
(9.10448 0.150573 -7.2699e-06)
(9.10448 0.150574 -8.38715e-06)
(9.10449 0.150576 -9.36033e-06)
(9.1045 0.150577 -1.01743e-05)
(9.10451 0.150579 -1.0806e-05)
(9.10452 0.150581 -1.12344e-05)
(9.10454 0.150583 -1.14349e-05)
(9.10455 0.150585 -1.13858e-05)
(9.10456 0.150587 -1.10782e-05)
(9.10457 0.150589 -1.05183e-05)
(9.10458 0.150591 -9.73689e-06)
(9.10459 0.150593 -8.74331e-06)
(9.1046 0.150594 -7.42286e-06)
(9.1046 0.150596 -5.52462e-06)
(9.10461 0.150597 -2.19561e-06)
(8.89263 0.125805 1.52597e-07)
(8.89263 0.125806 5.41589e-07)
(8.89263 0.125808 1.03285e-06)
(8.89263 0.125811 1.52339e-06)
(8.89262 0.125815 1.97108e-06)
(8.89262 0.12582 2.35685e-06)
(8.89261 0.125825 2.67832e-06)
(8.89261 0.125832 2.93891e-06)
(8.8926 0.125839 3.14372e-06)
(8.8926 0.125847 3.29764e-06)
(8.89259 0.125855 3.40275e-06)
(8.89258 0.125864 3.45823e-06)
(8.89258 0.125872 3.46082e-06)
(8.89257 0.12588 3.41099e-06)
(8.89256 0.125888 3.31722e-06)
(8.89256 0.125896 3.19481e-06)
(8.89255 0.125903 3.03684e-06)
(8.89254 0.125909 2.75159e-06)
(8.89254 0.125914 2.12847e-06)
(8.89254 0.125917 8.48609e-07)
(8.78254 0.0736281 1.30522e-07)
(8.78254 0.0736282 4.31123e-07)
(8.78254 0.0736285 7.77602e-07)
(8.78254 0.0736288 1.12315e-06)
(8.78254 0.0736292 1.4397e-06)
(8.78254 0.0736297 1.71215e-06)
(8.78253 0.0736303 1.93598e-06)
(8.78253 0.073631 2.11359e-06)
(8.78252 0.0736317 2.24796e-06)
(8.78252 0.0736325 2.34352e-06)
(8.78252 0.0736334 2.40289e-06)
(8.78251 0.0736343 2.42731e-06)
(8.78251 0.0736352 2.41693e-06)
(8.7825 0.0736361 2.37276e-06)
(8.7825 0.0736369 2.29959e-06)
(8.7825 0.0736377 2.19986e-06)
(8.78249 0.0736383 2.05664e-06)
(8.78249 0.0736388 1.80342e-06)
(8.78249 0.073639 1.31843e-06)
(8.78248 0.0736391 4.9995e-07)
(8.69758 0.0491231 2.68352e-07)
(8.69758 0.0491233 8.52637e-07)
(8.69757 0.0491237 1.49539e-06)
(8.69757 0.0491243 2.13871e-06)
(8.69757 0.0491251 2.7457e-06)
(8.69756 0.0491262 3.29353e-06)
(8.69756 0.0491274 3.77151e-06)
(8.69755 0.0491288 4.17525e-06)
(8.69754 0.0491304 4.50192e-06)
(8.69753 0.0491321 4.74925e-06)
(8.69753 0.049134 4.91366e-06)
(8.69752 0.0491359 4.98958e-06)
(8.69751 0.0491378 4.97178e-06)
(8.6975 0.0491397 4.85901e-06)
(8.69749 0.0491415 4.65589e-06)
(8.69749 0.0491431 4.36801e-06)
(8.69748 0.0491446 3.97539e-06)
(8.69747 0.0491459 3.39864e-06)
(8.69747 0.0491468 2.46582e-06)
(8.69746 0.0491474 9.40857e-07)
(8.643 0.0298989 3.01102e-07)
(8.643 0.029899 9.39856e-07)
(8.643 0.0298991 1.6277e-06)
(8.643 0.0298993 2.32094e-06)
(8.64299 0.0298996 2.9861e-06)
(8.64299 0.0299 3.60006e-06)
(8.64298 0.0299005 4.14848e-06)
(8.64298 0.029901 4.62241e-06)
(8.64297 0.0299017 5.01365e-06)
(8.64296 0.0299025 5.3144e-06)
(8.64295 0.0299033 5.51648e-06)
(8.64294 0.0299042 5.61148e-06)
(8.64294 0.0299051 5.59222e-06)
(8.64293 0.029906 5.45511e-06)
(8.64292 0.0299068 5.20162e-06)
(8.64291 0.0299076 4.83225e-06)
(8.64291 0.0299082 4.32889e-06)
(8.6429 0.0299088 3.62042e-06)
(8.6429 0.0299091 2.57157e-06)
(8.64289 0.0299093 9.71002e-07)
(8.60996 0.0173064 3.25339e-07)
(8.60996 0.0173064 1.0249e-06)
(8.60996 0.0173062 1.788e-06)
(8.60995 0.0173059 2.56198e-06)
(8.60995 0.0173055 3.3144e-06)
(8.60994 0.017305 4.02105e-06)
(8.60994 0.0173045 4.66541e-06)
(8.60993 0.017304 5.23306e-06)
(8.60992 0.0173035 5.71055e-06)
(8.60991 0.017303 6.08432e-06)
(8.6099 0.0173025 6.34136e-06)
(8.60989 0.017302 6.46945e-06)
(8.60988 0.0173016 6.45905e-06)
(8.60987 0.0173011 6.30515e-06)
(8.60986 0.0173007 6.00795e-06)
(8.60985 0.0173003 5.56804e-06)
(8.60984 0.0172999 4.96354e-06)
(8.60983 0.0172995 4.12725e-06)
(8.60983 0.0172992 2.9483e-06)
(8.60982 0.017299 1.12866e-06)
(8.59581 0.00560239 2.21335e-07)
(8.59581 0.00560217 6.95455e-07)
(8.59581 0.00560171 1.21703e-06)
(8.59581 0.00560103 1.76071e-06)
(8.5958 0.00560014 2.30621e-06)
(8.5958 0.00559907 2.83629e-06)
(8.5958 0.00559786 3.33532e-06)
(8.59579 0.00559654 3.78822e-06)
(8.59578 0.00559514 4.17966e-06)
(8.59578 0.00559368 4.49481e-06)
(8.59577 0.00559219 4.71989e-06)
(8.59576 0.0055907 4.84365e-06)
(8.59575 0.00558923 4.85791e-06)
(8.59574 0.00558781 4.7569e-06)
(8.59574 0.00558646 4.53714e-06)
(8.59573 0.00558521 4.19218e-06)
(8.59572 0.00558406 3.70846e-06)
(8.59572 0.00558303 3.04594e-06)
(8.59571 0.0055822 2.15283e-06)
(8.59571 0.00558174 8.21725e-07)
(8.59796 -0.00616027 1.41845e-07)
(8.59797 -0.00616046 4.65213e-07)
(8.59796 -0.00616081 8.47993e-07)
(8.59796 -0.0061613 1.26459e-06)
(8.59796 -0.00616192 1.70123e-06)
(8.59796 -0.00616265 2.14392e-06)
(8.59795 -0.00616346 2.57732e-06)
(8.59795 -0.00616432 2.98507e-06)
(8.59794 -0.00616521 3.34965e-06)
(8.59794 -0.00616612 3.65415e-06)
(8.59793 -0.00616702 3.88353e-06)
(8.59792 -0.00616791 4.02581e-06)
(8.59792 -0.00616875 4.07321e-06)
(8.59791 -0.00616954 4.01934e-06)
(8.5979 -0.00617027 3.85836e-06)
(8.5979 -0.00617091 3.58146e-06)
(8.59789 -0.00617145 3.17106e-06)
(8.59789 -0.0061719 2.59957e-06)
(8.59788 -0.00617221 1.87794e-06)
(8.59788 -0.00617227 7.43037e-07)
(8.61603 -0.0167212 6.32153e-08)
(8.61603 -0.0167214 2.49941e-07)
(8.61603 -0.0167218 5.20117e-07)
(8.61603 -0.0167223 8.36296e-07)
(8.61603 -0.016723 1.18992e-06)
(8.61603 -0.0167237 1.56789e-06)
(8.61602 -0.0167246 1.95521e-06)
(8.61602 -0.0167255 2.33433e-06)
(8.61602 -0.0167264 2.68637e-06)
(8.61601 -0.0167274 2.99272e-06)
(8.61601 -0.0167284 3.2375e-06)
(8.616 -0.0167293 3.40827e-06)
(8.61599 -0.0167302 3.49737e-06)
(8.61599 -0.016731 3.49837e-06)
(8.61598 -0.0167317 3.40501e-06)
(8.61598 -0.0167324 3.20411e-06)
(8.61597 -0.0167329 2.88264e-06)
(8.61597 -0.0167332 2.41879e-06)
(8.61597 -0.0167335 1.84221e-06)
(8.61596 -0.0167334 7.68706e-07)
(8.65084 -0.0282915 -2.94181e-08)
(8.65084 -0.0282918 -1.11591e-08)
(8.65084 -0.0282922 1.10901e-07)
(8.65084 -0.0282928 2.92561e-07)
(8.65084 -0.0282936 5.29999e-07)
(8.65084 -0.0282945 8.10319e-07)
(8.65084 -0.0282956 1.11959e-06)
(8.65084 -0.0282967 1.44143e-06)
(8.65083 -0.0282979 1.75706e-06)
(8.65083 -0.0282992 2.04809e-06)
(8.65083 -0.0283004 2.29938e-06)
(8.65082 -0.0283016 2.49942e-06)
(8.65082 -0.0283028 2.64133e-06)
(8.65081 -0.0283039 2.71906e-06)
(8.65081 -0.0283049 2.72511e-06)
(8.6508 -0.0283057 2.63968e-06)
(8.6508 -0.0283063 2.43975e-06)
(8.6508 -0.0283068 2.10916e-06)
(8.65079 -0.0283071 1.71141e-06)
(8.65079 -0.0283071 7.56264e-07)
(8.70393 -0.041713 -1.3741e-07)
(8.70393 -0.0417133 -3.06913e-07)
(8.70393 -0.0417138 -3.44261e-07)
(8.70393 -0.0417145 -3.17017e-07)
(8.70393 -0.0417154 -2.20733e-07)
(8.70393 -0.0417165 -6.17103e-08)
(8.70393 -0.0417178 1.45522e-07)
(8.70393 -0.0417192 3.88507e-07)
(8.70393 -0.0417207 6.50712e-07)
(8.70393 -0.0417223 9.14986e-07)
(8.70393 -0.0417239 1.1686e-06)
(8.70393 -0.0417255 1.40186e-06)
(8.70393 -0.041727 1.6086e-06)
(8.70392 -0.0417284 1.78194e-06)
(8.70392 -0.0417297 1.91385e-06)
(8.70392 -0.0417308 1.9712e-06)
(8.70391 -0.0417317 1.93061e-06)
(8.70391 -0.0417324 1.771e-06)
(8.70391 -0.0417329 1.5729e-06)
(8.70391 -0.041733 7.44064e-07)
(8.77834 -0.0587102 -2.30882e-07)
(8.77834 -0.0587104 -6.09022e-07)
(8.77834 -0.058711 -8.70689e-07)
(8.77834 -0.0587119 -1.05186e-06)
(8.77834 -0.0587131 -1.15365e-06)
(8.77834 -0.0587145 -1.17207e-06)
(8.77835 -0.0587162 -1.11486e-06)
(8.77835 -0.0587182 -9.93925e-07)
(8.77835 -0.0587203 -8.20629e-07)
(8.77835 -0.0587225 -6.09795e-07)
(8.77835 -0.0587248 -3.68967e-07)
(8.77835 -0.0587271 -1.06713e-07)
(8.77835 -0.0587293 1.72643e-07)
(8.77835 -0.0587314 4.60042e-07)
(8.77835 -0.0587334 7.40773e-07)
(8.77835 -0.0587351 9.7102e-07)
(8.77835 -0.0587365 1.11126e-06)
(8.77835 -0.0587378 1.14656e-06)
(8.77835 -0.0587388 1.15352e-06)
(8.77834 -0.0587394 5.83531e-07)
(8.87913 -0.0823378 -3.51431e-07)
(8.87914 -0.0823381 -9.87742e-07)
(8.87914 -0.082339 -1.54179e-06)
(8.87914 -0.0823404 -2.02979e-06)
(8.87914 -0.0823423 -2.42383e-06)
(8.87915 -0.0823448 -2.71043e-06)
(8.87915 -0.0823477 -2.89123e-06)
(8.87916 -0.082351 -2.96765e-06)
(8.87916 -0.0823547 -2.94741e-06)
(8.87917 -0.0823586 -2.83588e-06)
(8.87917 -0.0823627 -2.63817e-06)
(8.87918 -0.0823669 -2.35973e-06)
(8.87918 -0.0823711 -2.00333e-06)
(8.87918 -0.0823752 -1.58223e-06)
(8.87918 -0.082379 -1.11974e-06)
(8.87919 -0.0823825 -6.80172e-07)
(8.87919 -0.0823857 -3.17464e-07)
(8.87919 -0.0823885 -1.00479e-07)
(8.87919 -0.0823909 1.55452e-07)
(8.87919 -0.0823924 1.74077e-07)
(9.01533 -0.117045 -5.37353e-07)
(9.01534 -0.117045 -1.62619e-06)
(9.01534 -0.117046 -2.73363e-06)
(9.01534 -0.117048 -3.80403e-06)
(9.01535 -0.11705 -4.7771e-06)
(9.01536 -0.117053 -5.60797e-06)
(9.01537 -0.117056 -6.28615e-06)
(9.01538 -0.11706 -6.79788e-06)
(9.01539 -0.117065 -7.13885e-06)
(9.0154 -0.11707 -7.30026e-06)
(9.01541 -0.117075 -7.27561e-06)
(9.01542 -0.11708 -7.06124e-06)
(9.01543 -0.117085 -6.65763e-06)
(9.01544 -0.11709 -6.0815e-06)
(9.01545 -0.117095 -5.36648e-06)
(9.01546 -0.117099 -4.58272e-06)
(9.01547 -0.117103 -3.8252e-06)
(9.01547 -0.117106 -3.17598e-06)
(9.01548 -0.117109 -2.12023e-06)
(9.01548 -0.11711 -6.81256e-07)
(9.19387 -0.187511 -6.82913e-07)
(9.19387 -0.187512 -2.14367e-06)
(9.19387 -0.187515 -3.72312e-06)
(9.19388 -0.18752 -5.29547e-06)
(9.19389 -0.187526 -6.75613e-06)
(9.1939 -0.187535 -8.03983e-06)
(9.19391 -0.187545 -9.12647e-06)
(9.19392 -0.187557 -9.98952e-06)
(9.19393 -0.18757 -1.06141e-05)
(9.19395 -0.187584 -1.09784e-05)
(9.19396 -0.1876 -1.10689e-05)
(9.19397 -0.187616 -1.08774e-05)
(9.19399 -0.187632 -1.04049e-05)
(9.194 -0.187648 -9.66869e-06)
(9.19401 -0.187664 -8.69528e-06)
(9.19402 -0.187679 -7.55495e-06)
(9.19403 -0.187692 -6.37595e-06)
(9.19404 -0.187704 -5.23308e-06)
(9.19404 -0.187713 -3.28845e-06)
(9.19404 -0.187719 -9.5968e-07)
(9.49313 -0.222908 -1.57157e-06)
(9.49314 -0.222908 -5.1124e-06)
(9.49315 -0.222908 -9.15436e-06)
(9.49316 -0.222907 -1.3258e-05)
(9.49318 -0.222906 -1.72483e-05)
(9.4932 -0.222905 -2.09928e-05)
(9.49323 -0.222904 -2.44161e-05)
(9.49326 -0.222902 -2.74268e-05)
(9.4933 -0.2229 -2.99491e-05)
(9.49334 -0.222899 -3.18926e-05)
(9.49338 -0.222897 -3.3185e-05)
(9.49342 -0.222895 -3.37581e-05)
(9.49346 -0.222893 -3.35619e-05)
(9.4935 -0.222891 -3.25644e-05)
(9.49354 -0.222889 -3.07404e-05)
(9.49357 -0.222887 -2.80853e-05)
(9.4936 -0.222885 -2.46182e-05)
(9.49363 -0.222883 -2.02723e-05)
(9.49365 -0.222881 -1.47611e-05)
(9.49367 -0.222878 -5.83075e-06)
(9.6653 -0.662001 -6.62954e-07)
(9.6653 -0.662001 -1.89438e-06)
(9.6653 -0.662 -2.98929e-06)
(9.66531 -0.661999 -4.07202e-06)
(9.66531 -0.661997 -5.10851e-06)
(9.66531 -0.661995 -6.0366e-06)
(9.66532 -0.661992 -6.8202e-06)
(9.66532 -0.661989 -7.42428e-06)
(9.66532 -0.661986 -7.82953e-06)
(9.66533 -0.661982 -8.01551e-06)
(9.66533 -0.661978 -7.97568e-06)
(9.66533 -0.661975 -7.70966e-06)
(9.66533 -0.661971 -7.23045e-06)
(9.66533 -0.661967 -6.5502e-06)
(9.66533 -0.661964 -5.6596e-06)
(9.66533 -0.661961 -4.54543e-06)
(9.66533 -0.661958 -3.21173e-06)
(9.66532 -0.661955 -1.69038e-06)
(9.66532 -0.661952 6.86788e-07)
(9.66531 -0.661951 1.11968e-06)
(10.7553 -0.558411 -1.29033e-06)
(10.7554 -0.558412 -4.30088e-06)
(10.7554 -0.558414 -7.53201e-06)
(10.7554 -0.558417 -1.07801e-05)
(10.7554 -0.558422 -1.39662e-05)
(10.7554 -0.558428 -1.6994e-05)
(10.7554 -0.558436 -1.97867e-05)
(10.7555 -0.558444 -2.2269e-05)
(10.7555 -0.558454 -2.43727e-05)
(10.7555 -0.558464 -2.60275e-05)
(10.7556 -0.558475 -2.71722e-05)
(10.7556 -0.558487 -2.77473e-05)
(10.7557 -0.5585 -2.76959e-05)
(10.7557 -0.558512 -2.69571e-05)
(10.7557 -0.558525 -2.54664e-05)
(10.7558 -0.558536 -2.31772e-05)
(10.7558 -0.558547 -2.00606e-05)
(10.7558 -0.558557 -1.60489e-05)
(10.7558 -0.558565 -1.1469e-05)
(10.7559 -0.558571 -4.62471e-06)
(9.12653 0.509303 -9.34146e-07)
(9.12653 0.509305 -3.07368e-06)
(9.12653 0.50931 -5.35154e-06)
(9.12653 0.509317 -7.61469e-06)
(9.12653 0.509327 -9.75478e-06)
(9.12653 0.509339 -1.17114e-05)
(9.12652 0.509353 -1.34591e-05)
(9.12652 0.509369 -1.49725e-05)
(9.12652 0.509386 -1.62302e-05)
(9.12652 0.509404 -1.72044e-05)
(9.12652 0.509423 -1.78679e-05)
(9.12652 0.509443 -1.81876e-05)
(9.12652 0.509462 -1.81369e-05)
(9.12652 0.509482 -1.7706e-05)
(9.12652 0.5095 -1.69186e-05)
(9.12652 0.509518 -1.58353e-05)
(9.12651 0.509534 -1.44998e-05)
(9.12651 0.509549 -1.2574e-05)
(9.12651 0.509561 -9.56812e-06)
(9.12651 0.509569 -3.92119e-06)
(8.92953 0.617765 8.01413e-07)
(8.92953 0.617765 2.59445e-06)
(8.92953 0.617766 4.61598e-06)
(8.92953 0.617767 6.59116e-06)
(8.92953 0.617768 8.4144e-06)
(8.92952 0.617769 1.00257e-05)
(8.92952 0.617771 1.14063e-05)
(8.92951 0.617773 1.25497e-05)
(8.92951 0.617775 1.34559e-05)
(8.9295 0.617778 1.41223e-05)
(8.92949 0.61778 1.45419e-05)
(8.92949 0.617783 1.47011e-05)
(8.92948 0.617786 1.4583e-05)
(8.92948 0.617788 1.41797e-05)
(8.92947 0.617791 1.3504e-05)
(8.92946 0.617793 1.25877e-05)
(8.92946 0.617796 1.138e-05)
(8.92945 0.617798 9.68585e-06)
(8.92945 0.6178 7.10809e-06)
(8.92945 0.617801 2.758e-06)
(8.91208 0.28611 -7.8099e-07)
(8.91208 0.286109 -2.40238e-06)
(8.91208 0.286108 -4.10235e-06)
(8.91208 0.286106 -5.78711e-06)
(8.91208 0.286104 -7.39517e-06)
(8.91208 0.286101 -8.88062e-06)
(8.91208 0.286098 -1.02157e-05)
(8.91208 0.286094 -1.13737e-05)
(8.91208 0.28609 -1.23325e-05)
(8.91208 0.286086 -1.30664e-05)
(8.91208 0.286082 -1.35509e-05)
(8.91208 0.286077 -1.37614e-05)
(8.91208 0.286072 -1.36802e-05)
(8.91208 0.286068 -1.33045e-05)
(8.91208 0.286064 -1.26489e-05)
(8.91208 0.286059 -1.17372e-05)
(8.91207 0.286056 -1.05613e-05)
(8.91207 0.286053 -8.88827e-06)
(8.91207 0.28605 -6.48078e-06)
(8.91207 0.286048 -2.54257e-06)
(8.77367 0.270422 4.29988e-07)
(8.77367 0.270424 1.34053e-06)
(8.77367 0.270426 2.32394e-06)
(8.77367 0.27043 3.29522e-06)
(8.77367 0.270436 4.19216e-06)
(8.77367 0.270442 4.97716e-06)
(8.77366 0.27045 5.63576e-06)
(8.77366 0.270458 6.16692e-06)
(8.77366 0.270468 6.5735e-06)
(8.77365 0.270478 6.86037e-06)
(8.77365 0.270488 7.02999e-06)
(8.77365 0.270499 7.08168e-06)
(8.77364 0.270509 7.01436e-06)
(8.77364 0.27052 6.83141e-06)
(8.77364 0.27053 6.54232e-06)
(8.77363 0.270539 6.1518e-06)
(8.77363 0.270548 5.61225e-06)
(8.77363 0.270556 4.77379e-06)
(8.77363 0.270562 3.38643e-06)
(8.77363 0.270565 1.25645e-06)
(8.71425 0.168139 2.82342e-07)
(8.71425 0.168139 8.60078e-07)
(8.71425 0.168139 1.45534e-06)
(8.71425 0.16814 2.04161e-06)
(8.71424 0.16814 2.57997e-06)
(8.71424 0.168141 3.04638e-06)
(8.71424 0.168142 3.42991e-06)
(8.71424 0.168143 3.73075e-06)
(8.71424 0.168144 3.94981e-06)
(8.71424 0.168146 4.09173e-06)
(8.71424 0.168147 4.16096e-06)
(8.71423 0.168148 4.16167e-06)
(8.71423 0.16815 4.09811e-06)
(8.71423 0.168151 3.97269e-06)
(8.71423 0.168153 3.78804e-06)
(8.71423 0.168154 3.53654e-06)
(8.71423 0.168155 3.17536e-06)
(8.71423 0.168156 2.63045e-06)
(8.71423 0.168157 1.754e-06)
(8.71422 0.168157 6.02942e-07)
(8.64756 0.121946 5.77952e-07)
(8.64756 0.121946 1.77235e-06)
(8.64756 0.121947 3.01725e-06)
(8.64756 0.121948 4.25112e-06)
(8.64755 0.121949 5.4128e-06)
(8.64755 0.121951 6.46166e-06)
(8.64755 0.121953 7.3744e-06)
(8.64755 0.121955 8.13894e-06)
(8.64754 0.121957 8.74701e-06)
(8.64754 0.12196 9.19325e-06)
(8.64754 0.121962 9.47243e-06)
(8.64753 0.121965 9.57437e-06)
(8.64753 0.121968 9.49227e-06)
(8.64752 0.121971 9.22864e-06)
(8.64752 0.121974 8.78931e-06)
(8.64752 0.121976 8.17122e-06)
(8.64752 0.121979 7.3186e-06)
(8.64751 0.12198 6.09157e-06)
(8.64751 0.121982 4.23278e-06)
(8.64751 0.121983 1.55152e-06)
(8.60745 0.0771392 5.38645e-07)
(8.60745 0.0771393 1.63528e-06)
(8.60745 0.0771396 2.76068e-06)
(8.60745 0.0771401 3.88134e-06)
(8.60745 0.0771408 4.95203e-06)
(8.60745 0.0771416 5.93772e-06)
(8.60745 0.0771427 6.81304e-06)
(8.60744 0.0771439 7.56083e-06)
(8.60744 0.0771454 8.16622e-06)
(8.60744 0.077147 8.61725e-06)
(8.60744 0.0771487 8.90298e-06)
(8.60743 0.0771505 9.01417e-06)
(8.60743 0.0771523 8.94436e-06)
(8.60743 0.0771542 8.69018e-06)
(8.60743 0.077156 8.24834e-06)
(8.60742 0.0771576 7.60161e-06)
(8.60742 0.0771591 6.70134e-06)
(8.60742 0.0771603 5.4445e-06)
(8.60742 0.0771613 3.67215e-06)
(8.60742 0.0771619 1.31703e-06)
(8.57948 0.044033 6.94674e-07)
(8.57948 0.0440329 2.14541e-06)
(8.57948 0.0440328 3.67641e-06)
(8.57948 0.0440326 5.21276e-06)
(8.57947 0.0440323 6.69451e-06)
(8.57947 0.0440321 8.07682e-06)
(8.57947 0.0440318 9.32606e-06)
(8.57946 0.0440317 1.04138e-05)
(8.57946 0.0440315 1.1314e-05)
(8.57945 0.0440315 1.20028e-05)
(8.57945 0.0440315 1.2459e-05)
(8.57944 0.0440316 1.26646e-05)
(8.57944 0.0440317 1.26078e-05)
(8.57944 0.0440319 1.22844e-05)
(8.57943 0.044032 1.16946e-05)
(8.57943 0.0440322 1.08285e-05)
(8.57942 0.0440324 9.62169e-06)
(8.57942 0.0440326 7.93806e-06)
(8.57942 0.0440327 5.5517e-06)
(8.57941 0.0440328 2.07342e-06)
(8.56829 0.010875 4.66512e-07)
(8.56829 0.0108746 1.4332e-06)
(8.56829 0.0108737 2.4547e-06)
(8.56829 0.0108723 3.50378e-06)
(8.56829 0.0108705 4.54582e-06)
(8.56829 0.0108684 5.54842e-06)
(8.56828 0.010866 6.48221e-06)
(8.56828 0.0108634 7.31913e-06)
(8.56828 0.0108606 8.03113e-06)
(8.56828 0.0108577 8.59353e-06)
(8.56827 0.0108547 8.98486e-06)
(8.56827 0.0108517 9.1888e-06)
(8.56827 0.0108488 9.19416e-06)
(8.56826 0.010846 8.99315e-06)
(8.56826 0.0108434 8.57673e-06)
(8.56826 0.0108409 7.92148e-06)
(8.56825 0.0108387 6.98357e-06)
(8.56825 0.0108368 5.67299e-06)
(8.56825 0.0108353 3.90316e-06)
(8.56825 0.0108344 1.44869e-06)
(8.57134 -0.0191658 3.20256e-07)
(8.57134 -0.0191662 1.00982e-06)
(8.57134 -0.019167 1.77665e-06)
(8.57134 -0.019168 2.59604e-06)
(8.57134 -0.0191693 3.44313e-06)
(8.57134 -0.0191708 4.28823e-06)
(8.57133 -0.0191726 5.105e-06)
(8.57133 -0.0191744 5.86304e-06)
(8.57133 -0.0191764 6.53154e-06)
(8.57133 -0.0191784 7.08252e-06)
(8.57132 -0.0191804 7.49198e-06)
(8.57132 -0.0191823 7.74219e-06)
(8.57132 -0.0191842 7.82126e-06)
(8.57132 -0.019186 7.72025e-06)
(8.57131 -0.0191876 7.42753e-06)
(8.57131 -0.019189 6.91894e-06)
(8.57131 -0.0191902 6.14179e-06)
(8.57131 -0.0191911 5.03279e-06)
(8.5713 -0.0191917 3.55792e-06)
(8.5713 -0.0191919 1.3634e-06)
(8.58873 -0.0486814 1.47621e-07)
(8.58873 -0.0486819 5.13087e-07)
(8.58873 -0.0486827 9.85474e-07)
(8.58873 -0.0486839 1.53623e-06)
(8.58873 -0.0486855 2.15099e-06)
(8.58873 -0.0486874 2.80351e-06)
(8.58873 -0.0486894 3.46954e-06)
(8.58873 -0.0486917 4.11908e-06)
(8.58872 -0.0486941 4.72022e-06)
(8.58872 -0.0486966 5.24384e-06)
(8.58872 -0.0486992 5.66534e-06)
(8.58872 -0.0487016 5.96701e-06)
(8.58872 -0.048704 6.1376e-06)
(8.58872 -0.0487063 6.16838e-06)
(8.58871 -0.0487083 6.04702e-06)
(8.58871 -0.0487101 5.7433e-06)
(8.58871 -0.0487115 5.21331e-06)
(8.58871 -0.0487126 4.38262e-06)
(8.58871 -0.0487133 3.24417e-06)
(8.58871 -0.0487135 1.30426e-06)
(8.62061 -0.0802261 -5.72797e-08)
(8.62061 -0.0802267 -8.03776e-08)
(8.62061 -0.0802277 3.69517e-08)
(8.62061 -0.0802291 2.57738e-07)
(8.62061 -0.080231 5.76923e-07)
(8.62061 -0.0802332 9.75876e-07)
(8.62061 -0.0802357 1.43311e-06)
(8.62061 -0.0802385 1.92245e-06)
(8.62061 -0.0802415 2.41315e-06)
(8.62061 -0.0802446 2.87885e-06)
(8.62061 -0.0802478 3.29665e-06)
(8.62061 -0.0802509 3.65075e-06)
(8.62061 -0.080254 3.93145e-06)
(8.62061 -0.0802568 4.13068e-06)
(8.62061 -0.0802594 4.23362e-06)
(8.62061 -0.0802617 4.20314e-06)
(8.62061 -0.0802636 3.9795e-06)
(8.62061 -0.080265 3.49089e-06)
(8.62061 -0.080266 2.76291e-06)
(8.6206 -0.0802663 1.17688e-06)
(8.66787 -0.115786 -2.93755e-07)
(8.66787 -0.115787 -7.61149e-07)
(8.66787 -0.115788 -1.05475e-06)
(8.66787 -0.11579 -1.22513e-06)
(8.66787 -0.115792 -1.26872e-06)
(8.66787 -0.115794 -1.19102e-06)
(8.66788 -0.115798 -1.00593e-06)
(8.66788 -0.115801 -7.35535e-07)
(8.66788 -0.115805 -4.0203e-07)
(8.66788 -0.115809 -2.82059e-08)
(8.66788 -0.115813 3.67758e-07)
(8.66788 -0.115817 7.72991e-07)
(8.66788 -0.115821 1.18006e-06)
(8.66788 -0.115825 1.58074e-06)
(8.66788 -0.115828 1.95591e-06)
(8.66788 -0.115831 2.25647e-06)
(8.66788 -0.115834 2.41843e-06)
(8.66788 -0.115836 2.35793e-06)
(8.66788 -0.115837 2.12249e-06)
(8.66788 -0.115838 9.92078e-07)
(8.73186 -0.158268 -5.50787e-07)
(8.73186 -0.158269 -1.53652e-06)
(8.73187 -0.15827 -2.3516e-06)
(8.73187 -0.158272 -3.0318e-06)
(8.73187 -0.158275 -3.55403e-06)
(8.73187 -0.158278 -3.91183e-06)
(8.73187 -0.158282 -4.1084e-06)
(8.73188 -0.158287 -4.15179e-06)
(8.73188 -0.158292 -4.05617e-06)
(8.73188 -0.158297 -3.83518e-06)
(8.73188 -0.158302 -3.5003e-06)
(8.73189 -0.158307 -3.06032e-06)
(8.73189 -0.158312 -2.52089e-06)
(8.73189 -0.158317 -1.89238e-06)
(8.73189 -0.158322 -1.20274e-06)
(8.7319 -0.158326 -5.13641e-07)
(8.7319 -0.15833 9.83468e-08)
(8.7319 -0.158333 5.55195e-07)
(8.7319 -0.158335 9.28434e-07)
(8.7319 -0.158337 5.59553e-07)
(8.81423 -0.212393 -8.3886e-07)
(8.81423 -0.212394 -2.4356e-06)
(8.81424 -0.212396 -3.88811e-06)
(8.81424 -0.212399 -5.2004e-06)
(8.81424 -0.212403 -6.34015e-06)
(8.81424 -0.212408 -7.27102e-06)
(8.81425 -0.212414 -7.97673e-06)
(8.81425 -0.212422 -8.4479e-06)
(8.81426 -0.212429 -8.68555e-06)
(8.81426 -0.212438 -8.69069e-06)
(8.81426 -0.212447 -8.46651e-06)
(8.81427 -0.212456 -8.0166e-06)
(8.81427 -0.212465 -7.34677e-06)
(8.81428 -0.212473 -6.47442e-06)
(8.81428 -0.212482 -5.44172e-06)
(8.81428 -0.21249 -4.32695e-06)
(8.81429 -0.212497 -3.21991e-06)
(8.81429 -0.212503 -2.18593e-06)
(8.81429 -0.212508 -1.00546e-06)
(8.81429 -0.212511 -1.6134e-07)
(8.91791 -0.279275 -1.29385e-06)
(8.91791 -0.279276 -3.92849e-06)
(8.91792 -0.279277 -6.58462e-06)
(8.91792 -0.27928 -9.14187e-06)
(8.91792 -0.279284 -1.15017e-05)
(8.91793 -0.279289 -1.35812e-05)
(8.91794 -0.279294 -1.53324e-05)
(8.91794 -0.279301 -1.6717e-05)
(8.91795 -0.279308 -1.77101e-05)
(8.91796 -0.279316 -1.82873e-05)
(8.91797 -0.279324 -1.84332e-05)
(8.91798 -0.279332 -1.8138e-05)
(8.91799 -0.27934 -1.74059e-05)
(8.91799 -0.279348 -1.62638e-05)
(8.918 -0.279356 -1.47687e-05)
(8.91801 -0.279363 -1.30138e-05)
(8.91801 -0.27937 -1.10889e-05)
(8.91802 -0.279376 -8.96833e-06)
(8.91802 -0.27938 -5.99095e-06)
(8.91802 -0.279383 -2.07094e-06)
(9.03091 -0.408018 -1.44076e-06)
(9.03091 -0.40802 -4.46001e-06)
(9.03092 -0.408024 -7.59875e-06)
(9.03092 -0.40803 -1.06666e-05)
(9.03092 -0.408038 -1.35239e-05)
(9.03093 -0.408048 -1.60633e-05)
(9.03093 -0.408061 -1.82217e-05)
(9.03094 -0.408075 -1.9947e-05)
(9.03094 -0.408091 -2.12017e-05)
(9.03095 -0.408108 -2.19515e-05)
(9.03096 -0.408126 -2.21763e-05)
(9.03096 -0.408144 -2.18667e-05)
(9.03097 -0.408163 -2.10337e-05)
(9.03097 -0.408182 -1.97096e-05)
(9.03098 -0.408201 -1.79545e-05)
(9.03098 -0.408218 -1.5867e-05)
(9.03099 -0.408234 -1.35591e-05)
(9.03099 -0.408248 -1.08956e-05)
(9.03099 -0.408259 -7.10366e-06)
(9.03099 -0.408266 -2.39579e-06)
(9.21492 -0.426951 -2.71846e-06)
(9.21492 -0.42695 -8.50972e-06)
(9.21492 -0.426948 -1.47347e-05)
(9.21493 -0.426943 -2.0961e-05)
(9.21494 -0.426937 -2.69385e-05)
(9.21494 -0.426929 -3.24693e-05)
(9.21495 -0.426919 -3.74174e-05)
(9.21496 -0.426908 -4.16613e-05)
(9.21497 -0.426896 -4.50968e-05)
(9.21498 -0.426883 -4.76248e-05)
(9.215 -0.426869 -4.91682e-05)
(9.21501 -0.426854 -4.96677e-05)
(9.21502 -0.426839 -4.90941e-05)
(9.21503 -0.426823 -4.74434e-05)
(9.21504 -0.426808 -4.47281e-05)
(9.21505 -0.426794 -4.09545e-05)
(9.21506 -0.42678 -3.60548e-05)
(9.21507 -0.426768 -2.96539e-05)
(9.21507 -0.426757 -2.10936e-05)
(9.21507 -0.426746 -8.09116e-06)
(9.24806 -0.92699 -4.79647e-07)
(9.24806 -0.92699 -1.20213e-06)
(9.24806 -0.92699 -1.53423e-06)
(9.24806 -0.926991 -1.70044e-06)
(9.24806 -0.926991 -1.73675e-06)
(9.24806 -0.926993 -1.59852e-06)
(9.24806 -0.926994 -1.26286e-06)
(9.24806 -0.926996 -7.22307e-07)
(9.24806 -0.926998 1.94287e-08)
(9.24806 -0.927001 9.31824e-07)
(9.24806 -0.927004 1.97637e-06)
(9.24806 -0.927007 3.10489e-06)
(9.24806 -0.927011 4.25451e-06)
(9.24806 -0.927015 5.37676e-06)
(9.24805 -0.927019 6.44874e-06)
(9.24805 -0.927023 7.44207e-06)
(9.24805 -0.927027 8.28512e-06)
(9.24805 -0.92703 8.92999e-06)
(9.24804 -0.927033 1.0575e-05)
(9.24804 -0.927036 5.96227e-06)
(9.50983 -0.751368 -2.65089e-06)
(9.50984 -0.751371 -8.75825e-06)
(9.50984 -0.751377 -1.54746e-05)
(9.50984 -0.751387 -2.21976e-05)
(9.50985 -0.751402 -2.86979e-05)
(9.50985 -0.75142 -3.4793e-05)
(9.50986 -0.751442 -4.03396e-05)
(9.50987 -0.751467 -4.52085e-05)
(9.50987 -0.751495 -4.92802e-05)
(9.50988 -0.751526 -5.24331e-05)
(9.50989 -0.751559 -5.45672e-05)
(9.5099 -0.751594 -5.56016e-05)
(9.5099 -0.75163 -5.54666e-05)
(9.50991 -0.751665 -5.40999e-05)
(9.50992 -0.751701 -5.14532e-05)
(9.50992 -0.751735 -4.75028e-05)
(9.50993 -0.751767 -4.21726e-05)
(9.50993 -0.751796 -3.50475e-05)
(9.50994 -0.75182 -2.64381e-05)
(9.50994 -0.75184 -1.10279e-05)
(8.86622 0.581977 -5.37149e-07)
(8.86622 0.581979 -1.71732e-06)
(8.86622 0.581982 -2.93618e-06)
(8.86622 0.581987 -4.14456e-06)
(8.86621 0.581993 -5.29863e-06)
(8.86621 0.582001 -6.36538e-06)
(8.8662 0.58201 -7.3325e-06)
(8.86619 0.582021 -8.18424e-06)
(8.86619 0.582032 -8.89853e-06)
(8.86618 0.582044 -9.45804e-06)
(8.86617 0.582057 -9.84496e-06)
(8.86616 0.58207 -1.00415e-05)
(8.86616 0.582083 -1.00374e-05)
(8.86615 0.582096 -9.8363e-06)
(8.86614 0.582108 -9.46099e-06)
(8.86613 0.582119 -8.94996e-06)
(8.86613 0.58213 -8.31562e-06)
(8.86612 0.58214 -7.25597e-06)
(8.86611 0.582147 -5.43667e-06)
(8.86611 0.582152 -2.18255e-06)
(8.75185 0.707243 7.35331e-07)
(8.75185 0.707243 2.28461e-06)
(8.75185 0.707243 3.94163e-06)
(8.75185 0.707243 5.57006e-06)
(8.75185 0.707243 7.07627e-06)
(8.75185 0.707243 8.40421e-06)
(8.75186 0.707243 9.52929e-06)
(8.75186 0.707243 1.04437e-05)
(8.75186 0.707244 1.11472e-05)
(8.75186 0.707244 1.16402e-05)
(8.75186 0.707244 1.19208e-05)
(8.75187 0.707244 1.19841e-05)
(8.75187 0.707245 1.18248e-05)
(8.75187 0.707245 1.14424e-05)
(8.75188 0.707245 1.08407e-05)
(8.75188 0.707246 1.00059e-05)
(8.75188 0.707246 8.85518e-06)
(8.75188 0.707247 7.22776e-06)
(8.75188 0.707247 4.88138e-06)
(8.75188 0.707248 1.74145e-06)
(8.76791 0.372282 -5.58804e-07)
(8.76791 0.372282 -1.6901e-06)
(8.76791 0.372281 -2.84305e-06)
(8.76791 0.372281 -3.97617e-06)
(8.76791 0.37228 -5.06479e-06)
(8.7679 0.372279 -6.08153e-06)
(8.7679 0.372278 -7.00547e-06)
(8.7679 0.372276 -7.81546e-06)
(8.76789 0.372275 -8.49183e-06)
(8.76789 0.372273 -9.01404e-06)
(8.76788 0.372271 -9.36371e-06)
(8.76788 0.372269 -9.52314e-06)
(8.76787 0.372268 -9.48186e-06)
(8.76787 0.372266 -9.2414e-06)
(8.76786 0.372264 -8.81147e-06)
(8.76786 0.372263 -8.19636e-06)
(8.76785 0.372261 -7.38269e-06)
(8.76785 0.37226 -6.22291e-06)
(8.76784 0.37226 -4.46511e-06)
(8.76784 0.372259 -1.70125e-06)
(8.66208 0.366866 6.0295e-07)
(8.66209 0.366868 1.82296e-06)
(8.66208 0.36687 3.07291e-06)
(8.66208 0.366873 4.30036e-06)
(8.66208 0.366878 5.43709e-06)
(8.66208 0.366883 6.43769e-06)
(8.66208 0.36689 7.27926e-06)
(8.66208 0.366897 7.95561e-06)
(8.66208 0.366905 8.46649e-06)
(8.66207 0.366913 8.81463e-06)
(8.66207 0.366922 9.00229e-06)
(8.66207 0.36693 9.02814e-06)
(8.66207 0.366939 8.89367e-06)
(8.66207 0.366948 8.60652e-06)
(8.66206 0.366956 8.1751e-06)
(8.66206 0.366964 7.59354e-06)
(8.66206 0.366971 6.79525e-06)
(8.66206 0.366977 5.61806e-06)
(8.66206 0.366982 3.80864e-06)
(8.66206 0.366984 1.35199e-06)
(8.63704 0.231914 4.01316e-07)
(8.63704 0.231914 1.20068e-06)
(8.63704 0.231914 1.99559e-06)
(8.63704 0.231915 2.77138e-06)
(8.63704 0.231916 3.48342e-06)
(8.63704 0.231917 4.103e-06)
(8.63704 0.231918 4.61432e-06)
(8.63704 0.231919 5.01287e-06)
(8.63704 0.23192 5.29801e-06)
(8.63703 0.231922 5.47121e-06)
(8.63703 0.231923 5.53323e-06)
(8.63703 0.231925 5.49504e-06)
(8.63703 0.231926 5.36914e-06)
(8.63703 0.231928 5.15825e-06)
(8.63703 0.231929 4.86423e-06)
(8.63703 0.231931 4.47663e-06)
(8.63702 0.231932 3.93645e-06)
(8.63702 0.231933 3.1694e-06)
(8.63702 0.231934 2.04226e-06)
(8.63702 0.231934 6.81648e-07)
(8.58247 0.178519 7.60353e-07)
(8.58247 0.178519 2.29814e-06)
(8.58247 0.17852 3.85823e-06)
(8.58247 0.178521 5.39003e-06)
(8.58247 0.178522 6.82508e-06)
(8.58247 0.178523 8.11602e-06)
(8.58247 0.178525 9.23272e-06)
(8.58247 0.178528 1.01583e-05)