/*--------------------------------*- C++ -*----------------------------------*\
| =========                 |                                                 |
| \\      /  F ield         | OpenFOAM: The Open Source CFD Toolbox           |
|  \\    /   O peration     | Version:  2212                                  |
|   \\  /    A nd           | Website:  www.openfoam.com                      |
|    \\/     M anipulation  |                                                 |
\*---------------------------------------------------------------------------*/
FoamFile
{
    version     2.0;
    format      ascii;
    arch        "LSB;label=32;scalar=64";
    class       volScalarField;
    location    "6e-05";
    object      T;
}
// * * * * * * * * * * * * * * * * * * * * * * * * * * * * * * * * * * * * * //

dimensions      [0 0 0 1 0 0 0];

internalField   nonuniform List<scalar> 
2681
(
189.183
138.095
137.159
199.382
134.378
137.028
200.883
199.414
199.017
198.756
199.61
196.993
197.293
193.627
196.442
195.875
194.796
199.216
198.989
198.743
198.354
197.397
197.726
198.046
196.753
197.068
199.328
199.704
199.518
198.905
199.119
198.444
198.685
197.891
198.177
197.594
197.577
197.224
196.867
197.087
196.778
197.699
197.398
198.235
197.979
137.872
198.491
199.266
200.002
199.715
199.499
196.522
195.15
199.328
199.565
197.501
197.219
199.899
199.913
199.791
199.981
198.862
199.123
198.262
198.576
197.554
197.911
196.815
197.188
200.513
196.449
196.637
196.25
197.444
197.04
196.69
200.531
194.065
135.538
199.438
199.81
199.628
199.026
199.237
198.569
198.805
198.054
198.318
197.78
197.318
197.053
197.871
197.595
198.392
198.138
198.886
198.639
199.363
199.129
199.585
199.778
199.846
196.932
195.901
196.115
196.179
199.988
199.867
200.05
195.693
195.226
195.505
195.511
197.091
196.658
196.849
199.711
199.971
199.91
196.072
194.014
195.531
132.238
196.641
196.375
196.459
200.155
137.325
200.076
190.085
193.188
199.298
199.534
198.745
199.032
198.112
198.44
197.369
197.752
196.557
196.971
196.134
196.378
195.947
197.231
196.81
194.679
199.64
150.03
199.241
199.488
199.903
200.234
200.074
199.539
199.725
199.14
199.344
198.699
198.925
198.214
198.461
197.699
197.959
197.17
197.436
193.574
196.901
197.545
197.315
198.046
197.792
198.539
198.295
199.01
198.776
199.459
199.238
199.67
200.095
200.22
200.157
200.033
200.968
200.053
200.008
195.131
194.795
194.381
195.776
196.352
195.829
200.313
196.36
196.594
199.642
199.849
195.12
195.152
200.307
200.379
103.868
105.644
105.645
103.868
200.377
200.282
200.433
196.502
194.444
200.893
200.108
185.134
137.7
135.617
196.064
196.113
138.685
200.236
191.834
199.675
199.874
199.208
199.455
198.63
198.931
197.961
198.308
197.179
197.584
196.31
196.752
195.381
195.854
194.898
196.097
195.612
197.021
196.57
197.835
197.442
198.551
198.206
199.154
198.867
199.411
107.419
109.19
110.96
112.727
114.493
116.259
118.027
119.799
121.579
123.373
123.392
125.184
127.019
127.045
125.205
119.809
121.594
116.263
118.033
112.729
114.496
109.191
110.961
107.419
199.985
200.15
199.633
199.813
199.247
199.444
198.825
199.041
198.369
198.601
197.888
198.13
197.397
197.643
186.221
197.152
196.671
196.829
196.331
196.323
196.587
197.295
197.064
197.744
197.519
198.211
197.976
198.677
198.446
199.126
198.904
199.552
199.343
199.941
199.752
200.117
200.26
200.318
200.145
200.202
200.033
200.089
187.927
184.433
195.436
196.063
196.065
195.482
200.453
193.99
102.088
102.088
200.361
177.015
123.349
125.15
194.739
132.89
196.054
194.786
200.217
200.178
102.086
100.305
100.303
200.517
200.57
200.34
200.487
128.94
128.898
196.36
196.065
193.969
194.421
196.299
196.043
137.195
193.244
192.081
201.196
199.979
200.197
200.148
195.754
195.785
200.577
200.445
200.51
200.321
200.382
200.266
199.607
199.822
199.115
199.374
198.516
198.829
197.81
198.176
196.988
197.414
196.062
196.535
195.047
195.568
194.51
194.032
192.743
194.695
194.139
195.808
195.259
196.815
196.329
197.684
197.266
198.437
198.074
199.068
198.769
199.575
199.335
199.789
105.643
103.866
109.189
107.417
112.726
110.959
116.254
114.491
119.789
118.02
121.563
102.088
100.306
100.305
130.941
130.697
183.997
127.025
128.845
123.402
125.212
119.817
121.604
116.266
118.039
112.73
114.498
109.192
110.962
105.645
107.419
103.868
200.056
200.212
199.719
199.892
199.348
199.538
198.946
199.151
198.515
198.734
198.064
198.291
197.61
197.837
197.168
197.386
196.796
196.967
196.199
196.498
196.644
196.11
196.412
195.965
196.257
196.322
196.695
196.563
197.061
196.849
197.492
197.276
197.922
197.707
198.364
198.142
198.806
198.586
199.235
199.023
199.64
199.441
200.011
199.831
200.181
200.408
200.463
200.301
200.354
200.248
138.759
188.851
126.971
195.09
195.761
195.765
195.132
200.143
141.351
192.699
195.891
102.082
100.299
200.686
185.763
200.54
200.646
200.745
200.621
199.927
200.101
130.818
191.603
191.006
140.183
200.927
123.309
125.093
191.023
190.511
190.176
195.77
194.358
194.415
195.768
192.148
102.087
100.304
186.608
137.572
136.002
191.379
193.568
195.876
196.365
196.049
196.177
195.851
195.807
193.652
191.345
128.812
201.157
192.352
188.117
195.432
195.458
200.57
200.628
200.458
200.513
200.361
200.407
200.28
200.319
200.236
199.936
200.094
199.536
199.759
199.024
199.292
198.403
198.728
197.663
198.048
196.799
197.248
195.815
196.32
194.708
195.28
193.494
194.108
192.859
193.003
192.317
194.299
193.652
195.535
194.932
196.619
196.099
197.541
197.1
198.328
197.95
198.984
198.674
199.51
199.262
199.73
105.64
103.862
109.186
107.414
112.722
110.955
116.246
114.485
119.769
118.007
121.535
98.5184
98.5187
98.5187
195.661
98.5117
98.5161
133.186
134.574
130.279
131.787
126.874
128.608
123.357
125.119
119.819
121.59
116.27
118.043
112.731
114.499
109.192
110.963
105.645
107.42
103.868
200.621
200.8
200.711
200.401
200.52
200.121
200.267
199.799
199.964
199.443
199.625
199.059
199.255
198.649
198.857
198.226
198.438
197.804
198.014
197.401
197.598
197.052
197.217
196.769
196.904
196.251
196.548
196.648
196.472
196.425
196.117
196.423
196.408
196.529
196.467
196.696
196.603
196.952
196.818
197.283
197.104
197.676
197.476
198.084
197.879
198.503
198.292
198.925
198.715
199.334
199.131
199.721
199.531
200.077
199.904
200.392
200.239
200.67
200.536
200.738
200.786
200.641
200.69
200.54
200.591
200.439
200.49
200.343
200.39
200.253
200.297
139.804
132.718
197.624
189.952
126.886
182.942
189.443
186.896
187.21
188.082
195.456
194.738
196.094
196.165
194.78
195.459
191.554
191.468
190.189
201.123
187.813
190.901
192.488
98.5165
137.743
136.18
200.88
200.923
200.848
139.013
190.695
193.977
195.537
195.918
195.763
195.492
194.043
192.494
200.403
200.363
130.686
187.101
157.653
139.308
195.569
187.845
136.491
136.353
191.745
133.427
193.15
195.702
195.494
193.268
200.385
200.212
200.346
96.7206
98.506
96.7157
128.696
200.839
192.662
191.367
188.803
198.325
197.811
195.106
196.111
195.129
190.978
200.784
200.833
200.68
200.732
200.579
200.629
200.485
200.53
200.444
200.193
199.874
200.043
199.463
199.684
198.938
199.214
198.297
198.633
197.526
197.928
196.62
197.091
195.576
196.113
194.383
195.001
193.042
193.731
192.301
187.759
191.702
193.967
193.243
195.292
194.651
196.44
195.888
197.41
196.948
198.228
197.837
198.906
198.585
199.447
199.192
199.878
199.675
200.056
102.077
100.293
105.635
103.858
109.182
107.41
112.715
110.95
116.235
114.476
119.744
117.99
123.256
121.499
126.784
125.017
96.7269
98.512
96.7211
96.7254
96.7267
96.7269
96.7245
133.167
134.694
130.061
131.634
126.743
128.428
123.291
125.026
119.79
121.544
116.268
118.031
112.732
114.5
109.192
110.963
105.644
107.419
102.084
103.866
100.3
200.672
200.764
200.452
200.568
200.183
200.323
199.873
200.032
199.531
199.707
199.161
199.35
198.77
198.968
198.37
198.57
197.974
198.17
197.601
197.783
197.274
197.43
197.006
197.132
196.805
196.896
196.694
196.737
196.686
196.677
196.774
196.72
196.936
196.846
197.174
197.046
197.481
197.318
197.843
197.657
198.229
198.034
198.628
198.427
199.031
198.83
199.423
199.229
199.794
199.612
200.135
199.969
200.437
200.291
200.696
200.572
200.75
200.795
200.656
200.704
200.561
200.609
200.47
200.515
200.427
200.842
150.805
141.747
200.96
188.669
190.039
188.656
194.392
195.178
195.816
195.727
195.155
194.425
191.965
198.154
200.324
190.911
185.1
138.372
190.097
132.576
200.89
187.395
189.563
98.5077
96.7165
140.879
136.391
195.328
139.939
188.569
191.163
134.56
135.034
193.592
195.328
195.55
195.348
195.221
193.662
192.845
200.952
200.988
200.174
200.311
200.498
200.461
98.5008
96.7104
94.9257
94.9215
188.86
130.541
200.925
200.964
128.556
200.548
192.121
201.118
189.388
197.992
194.796
195.75
194.797
191.415
200.868
200.911
200.776
200.822
200.682
200.729
200.593
200.636
200.512
200.551
200.436
200.474
200.401
200.153
200.287
199.823
199.999
199.399
199.624
198.862
199.145
198.199
198.547
197.401
197.817
196.458
196.949
195.354
195.925
194.078
194.739
192.618
193.374
191.799
187.696
191.979
191.05
193.655
192.851
195.078
194.395
196.285
195.706
197.294
196.812
198.14
197.736
198.833
198.504
199.392
199.127
199.834
199.627
200.016
102.072
100.288
105.631
103.853
109.176
107.405
112.706
110.943
116.22
114.465
119.717
117.971
123.2
121.459
126.672
124.936
94.9309
94.9262
94.9299
94.9306
94.9307
94.9289
133.151
134.828
129.948
131.549
126.645
128.314
123.231
124.948
119.759
121.501
116.254
118.009
112.728
114.492
109.191
110.961
105.642
107.418
102.081
103.863
100.296
134.66
200.718
200.809
200.502
200.616
200.241
200.377
199.941
200.095
199.61
199.779
199.252
199.434
198.877
199.066
198.495
198.686
198.121
198.306
197.77
197.941
197.461
197.61
197.209
197.328
197.023
197.107
196.92
196.961
196.909
196.903
196.985
196.937
197.138
197.053
197.362
197.242
197.65
197.499
197.988
197.814
198.355
198.17
198.737
198.545
199.123
198.93
199.501
199.314
199.859
199.683
200.187
200.027
200.476
200.337
200.715
200.603
200.811
200.843
200.885
200.756
200.8
200.666
200.711
200.579
200.622
200.538
185.801
185.679
94.9221
142.516
141.727
139.986
186.035
188.77
195.112
141.443
189.313
190.585
189.362
134.216
182.511
136.039
194.069
194.933
195.427
195.293
194.851
194.064
192.382
198.34
201.021
200.53
200.495
190.365
138.491
188.18
189.346
200.426
94.9168
187.551
189.48
132.441
201.001
184.889
130.347
128.403
194.952
140.764
189.314
191.641
183.967
193.293
195.148
193.26
93.1276
93.1242
143.569
192.546
182.227
200.54
194.92
144.292
142.892
189.981
198.619
183.412
148.145
194.512
195.341
194.463
191.888
201.073
201.012
201.044
200.939
200.977
200.856
200.898
200.769
200.812
200.683
200.725
200.603
200.642
200.566
200.37
200.464
200.12
200.255
199.781
199.962
199.346
199.577
198.796
199.086
198.113
198.471
197.293
197.722
196.315
196.825
195.156
195.759
193.796
194.503
192.204
193.035
191.305
186.953
191.539
190.475
193.388
192.512
194.901
194.181
196.155
195.557
197.196
196.7
198.063
197.651
198.77
198.435
199.345
199.072
199.797
199.585
200.142
199.982
200.396
200.28
98.4964
94.9126
96.706
102.068
100.284
105.626
103.849
109.171
107.4
112.698
110.936
116.205
114.454
119.69
117.951
123.147
121.422
126.571
124.864
186.049
93.131
93.1305
93.1305
93.1308
93.127
93.1295
93.1199
93.1236
133.106
134.789
129.874
131.485
126.575
128.238
123.182
124.888
119.729
121.462
116.238
117.987
112.721
114.482
109.188
110.957
105.64
107.415
102.078
103.86
98.5038
100.292
94.9179
96.7123
200.926
201.053
200.994
184.18
201.034
201.062
201.09
198.028
200.759
200.848
200.548
200.659
200.293
200.426
200.001
200.151
199.678
199.843
199.33
199.507
198.968
199.15
198.601
198.784
198.243
198.42
197.91
198.073
197.617
197.758
197.378
197.49
197.203
197.282
197.106
197.144
197.093
197.089
197.162
197.117
197.306
197.225
197.518
197.404
197.791
197.648
198.111
197.946
198.462
198.284
198.829
198.644
199.201
199.015
199.566
199.385
199.913
199.743
200.231
200.076
200.511
200.376
200.744
200.634
200.926
200.842
201.061
200.999
200.996
201.031
200.921
200.96
200.839
200.881
200.754
200.797
200.671
200.712
200.593
200.631
200.522
200.556
138.855
139.251
142.54
140.8
137.845
136.497
187.9
130.117
128.262
194.694
142.658
189.991
191.142
190.042
182.933
201.179
180.971
182.691
132.13
193.785
194.718
194.999
194.816
194.545
193.691
192.836
191.911
201.112
184.244
200.491
93.1164
93.1205
154.38
144.493
145.607
136.742
192.158
193.026
200.569
201.112
194.276
186.906
189.418
167.868
164.268
163.313
166.881
146.152
129.926
190.744
194.454
144.463
190.6
190.734
181.958
181.356
139.104
140.519
201.175
143.06
131.544
131.796
141.855
194.261
194.887
194.121
192.391
201.062
201.089
200.996
201.031
200.92
200.959
200.838
200.879
200.755
200.796
200.677
200.715
200.605
200.64
200.571
200.344
200.438
200.093
200.23
199.75
199.934
199.305
199.541
198.741
199.038
198.045
198.41
197.206
197.646
196.195
196.724
194.988
195.619
193.548
194.3
191.803
192.721
189.692
190.78
188.639
188.763
187.381
185.882
191.213
190.045
193.192
192.259
194.771
194.024
196.058
195.446
197.122
196.615
198.001
197.583
198.72
198.378
199.305
199.029
199.767
199.551
200.118
199.955
200.371
200.255
200.465
93.1132
94.9092
96.7024
98.4928
100.28
102.064
103.845
105.623
107.396
109.165
110.93
112.689
114.443
116.192
117.933
119.666
121.391
123.105
124.807
126.495
128.161
129.795
131.383
132.915
134.38
135.783
138.2
186.463
142.061
91.3199
91.3228
91.3254
91.3275
91.3276
91.3275
91.3274
91.3266
91.3248
91.3223
91.3197
91.317
91.3142
179.668
134.489
132.971
131.401
129.804
128.178
126.524
124.845
123.145
121.431
119.705
117.968
116.223
114.472
112.714
110.951
109.184
107.412
105.637
103.857
102.075
100.289
98.5002
96.7085
94.914
93.1167
91.3166
145.229
146.712
139.425
193.112
191.999
174.993
175.938
190.68
191.736
192.709
177.136
198.901
159.741
196.634
151.858
179.435
181.487
139.75
181.314
160.644
169.176
133.869
135.943
133.097
144.002
147.757
170.165
159.264
162.804
166.309
186.941
193.527
194.261
194.532
194.239
192.494
193.305
138.406
139.856
141.444
143.224
145.248
147.571
196.364
189.967
136.192
200.169
182.04
179.644
200.539
200.567
200.598
200.632
200.667
200.705
200.743
200.783
200.824
200.865
200.906
200.946
200.984
201.02
201.053
201.084
201.111
201.134
201.153
201.168
201.13
201.082
201.022
200.951
200.867
200.771
200.662
200.541
200.409
200.267
200.116
199.957
199.791
199.619
199.443
199.264
199.084
198.903
198.724
198.548
198.376
198.21
198.052
197.903
197.766
197.642
197.533
197.439
197.362
197.302
197.261
197.239
197.236
197.253
197.29
197.346
197.42
197.512
197.619
197.741
197.875
198.022
198.178
198.342
198.512
198.687
198.864
199.042
199.22
199.395
199.567
199.735
199.897
200.052
200.2
200.339
200.469
200.589
200.698
200.795
200.882
200.957
89.5165
89.514
93.1098
91.3112
201.123
147.498
183.163
201.021
201.075
186.216
190.309
201.183
201.168
201.148
201.124
201.096
201.065
201.03
200.994
200.956
200.916
200.876
200.837
200.797
200.759
200.723
200.624
200.655
200.688
200.517
200.445
200.352
200.238
200.1
199.937
199.746
199.526
199.277
198.997
198.686
198.34
197.958
197.538
197.073
196.562
195.998
195.377
194.688
193.925
193.072
192.109
191.005
189.737
188.305
185.002
186.723
188.581
182.006
187.465
188.916
190.269
191.441
192.457
193.348
194.142
194.861
195.514
196.106
196.647
197.142
197.589
197.995
198.365
198.7
199.002
199.274
199.515
199.728
199.914
200.076
200.213
200.419
200.326
143.946
200.598
200.629
200.662
200.696
200.733
200.77
200.81
200.85
200.89
200.93
200.968
201.005
201.04
201.072
201.1
201.124
201.156
201.143
199.817
201.141
201.097
201.039
200.969
200.886
200.791
200.683
200.564
200.434
200.295
200.146
199.99
199.828
199.66
199.487
199.312
199.136
198.959
198.784
198.613
198.445
198.284
198.131
197.987
197.855
197.735
197.629
197.539
197.465
197.407
197.368
197.347
197.346
197.363
197.398
197.452
197.524
197.612
197.715
197.833
197.963
198.105
198.256
198.416
198.581
198.752
198.925
199.099
199.273
199.446
199.615
199.78
199.94
200.094
200.24
200.377
200.505
200.623
200.731
200.827
200.911
200.983
201.042
201.089
190.133
180.076
201.15
201.181
150.227
150.997
148.156
145.72
143.659
141.874
140.3
138.885
137.582
135.744
134.322
132.863
131.329
129.748
128.132
126.485
124.811
123.117
121.407
119.685
117.953
116.211
114.462
112.706
110.945
109.179
107.408
105.633
103.854
102.072
100.286
98.4969
93.1133
94.9104
96.705
192.905
193.772
194.377
194.034
178.606
184.987
169.551
159.013
162.649
166.196
169.498
172.439
149.189
184.249
134.567
133.41
89.5145
89.5164
89.5182
89.5198
89.521
89.5217
89.5217
89.5217
89.5217
89.5203
89.5185
185.978
134.557
165.486
161.515
179.776
189.085
193.595
199.744
151.358
148.584
146.078
174.259
142.203
140.741
136.954
135.664
134.287
132.832
131.306
129.724
128.1
126.446
124.769
123.075
121.367
119.647
117.918
116.18
114.434
112.681
110.923
109.16
107.391
105.618
103.841
102.061
100.277
98.4892
96.6989
94.9057
140.107
140.99
179.874
180.399
178.053
156.979
191.359
191.254
199.167
196.909
200.594
89.5124
91.3137
192.367
152.328
177.665
138.098
89.5118
89.5102
201.2
146.084
156.071
174.985
190.804
193.259
193.934
173.24
201.178
198.783
181.963
199.067
153.694
191.937
176.631
178.648
139.346
94.902
91.308
93.1062
98.4854
96.6951
102.057
100.273
105.614
103.837
109.154
107.386
112.674
110.917
116.17
114.426
119.634
117.906
123.057
121.351
126.42
124.748
129.684
128.067
132.786
131.262
135.631
134.246
138.234
136.943
140.881
139.528
144.101
142.358
148.871
146.295
154.947
151.74
162.339
158.336
170.235
166.443
173.827
87.7121
87.7094
87.7108
87.7138
87.7131
87.7137
87.7138
87.7134
87.7137
87.7118
87.7127
87.7096
87.7108
87.708
89.5077
87.707
87.7084
134.927
188.182
200.572
172.467
175.805
193.816
193.413
89.5097
93.1103
91.311
96.7017
94.9072
100.282
98.4935
103.85
102.068
107.404
105.629
110.939
109.174
114.454
112.699
117.94
116.201
121.39
119.671
124.787
123.097
128.102
126.456
131.291
129.716
134.28
132.816
137.062
135.706
139.215
187.022
142.093
140.551
145.973
143.886
151.394
148.433
158.725
154.939
166.321
162.62
169.914
201.158
201.171
201.105
201.136
201.006
201.062
200.853
200.936
200.651
200.758
200.406
200.534
200.125
200.27
199.813
199.972
199.481
199.649
199.138
199.31
198.796
198.966
198.465
198.628
198.161
198.309
197.894
198.022
197.678
197.779
197.523
197.592
197.435
197.47
197.42
197.418
197.477
197.44
197.605
197.533
197.797
197.693
198.043
197.914
198.334
198.184
198.656
198.492
198.996
198.824
199.344
199.17
199.686
199.516
200.013
199.852
200.313
200.167
200.58
200.451
200.805
200.698
200.982
200.9
201.106
201.051
199.935
201.148
185.472
201.165
201.176
201.126
201.148
201.07
201.1
201.001
201.036
200.924
200.963
200.846
200.885
200.769
200.807
200.699
200.733
200.636
200.667
173.924
200.606
172.72
200.317
200.406
200.068
200.205
199.716
199.905
199.254
199.499
198.674
198.98
197.962
198.335
197.099
197.551
196.052
196.6
194.783
195.449
193.212
194.042
191.17
192.269
188.271
189.86
184.113
186.367
181.423
186.221
184.196
189.564
188.02
192.007
190.878
193.855
192.988
195.327
194.63
196.527
195.957
197.512
197.044
198.32
197.936
198.98
198.667
199.512
199.262
199.926
199.733
200.229
200.091
200.432
200.342
200.505
198.966
200.476
200.66
200.63
200.724
200.691
200.795
200.758
200.871
200.832
200.95
200.91
201.026
200.988
201.095
201.061
201.151
201.125
201.191
201.174
143.696
201.202
177.779
201.206
87.7067
87.7055
198.478
154.727
201.215
201.217
201.214
201.203
201.187
201.165
201.139
201.11
201.077
201.042
201.004
200.966
200.927
200.887
200.849
200.811
200.774
200.739
200.707
200.677
200.647
200.612
198.666
145.747
200.491
200.424
200.338
200.226
200.087
199.921
199.728
199.506
199.255
198.973
198.659
198.31
197.924
197.498
197.028
196.508
195.935
195.301
194.599
193.818
192.944
191.957
190.816
189.48
187.892
185.949
183.534
180.665
180.09
183.333
185.915
187.979
189.664
191.05
192.197
193.164
194.006
194.754
195.426
196.032
196.582
197.081
197.535
197.948
198.323
198.664
198.971
199.247
199.493
199.71
199.901
200.064
200.202
200.314
200.398
200.464
154.15
200.59
200.624
200.654
200.684
200.716
200.75
200.787
200.825
200.863
200.902
200.942
200.98
201.017
201.052
201.085
201.114
201.14
201.162
201.178
201.188
184.076
201.18
201.151
201.112
201.058
200.99
200.908
200.813
200.706
200.588
200.46
200.323
200.177
200.024
199.864
199.699
199.531
199.359
199.187
199.015
198.844
198.677
198.514
198.358
198.209
198.07
197.943
197.827
197.725
197.638
197.567
197.512
197.475
197.456
197.454
197.471
197.506
197.558
197.627
197.712
197.812
197.925
198.051
198.189
198.335
198.49
198.652
198.818
198.988
199.159
199.331
199.501
199.669
199.833
199.992
200.145
200.29
200.427
200.555
200.673
200.779
200.874
200.956
201.025
201.079
201.118
201.147
201.168
201.182
201.19
201.192
174.678
170.93
166.914
163.163
159.089
155.139
151.558
148.569
146.099
144.003
142.212
140.668
139.32
138.047
136.848
135.597
134.256
132.795
131.272
129.7
128.088
126.445
124.775
123.086
121.38
119.661
117.932
116.193
114.447
112.693
110.934
109.169
107.399
105.625
103.847
102.064
100.279
98.4901
96.6984
94.904
93.1073
91.3084
89.5076
87.7053
193.063
193.639
149.863
173.088
200.492
153.088
136.268
85.902
85.9025
85.9029
85.9034
85.9037
85.9041
85.9044
85.9046
85.9046
85.9047
85.9047
85.9047
85.9045
85.9042
85.9038
85.9033
85.9029
85.9024
85.902
183.915
170.528
166.715
163.006
159.013
155.224
151.899
148.995
146.466
144.325
142.494
140.952
139.572
138.252
136.941
135.619
134.231
132.763
131.238
129.663
128.05
126.405
124.737
123.049
121.344
119.627
117.9
116.163
114.419
112.668
110.911
109.149
107.381
105.609
103.833
102.053
100.269
98.4814
96.6911
94.8981
93.1025
91.3048
89.5051
87.7038
85.9015
175.57
178.102
193.676
192.994
136.999
171.267
176.653
148.076
200.571
192.598
187.237
176.565
201.145
193.271
201.197
200.533
180.119
138.209
201.196
201.131
173.511
200.552
188.777
189.803
137.19
196.235
184.933
188.793
138.843
192.429
201.164
192.835
192.864
193.702
136.964
200.558
197.846
196.236
133.237
200.781
186.076
138.149
136.031
188.645
200.508
137.236
199.394
194.463
200.604
176.85
200.581
170.74
194.723
143.563
156.434
136.766
178.679
201.087
157.067
135.572
187.68
137.679
190.643
196.074
201.207
196.46
200.472
192.943
200.017
198.584
196.913
)
;

boundaryField
{
    wall
    {
        type            zeroGradient;
    }
    outlet
    {
        type            fixedValue;
        value           uniform 85;
    }
    frontAndBackPlanes
    {
        type            empty;
    }
}


// ************************************************************************* //
