/*--------------------------------*- C++ -*----------------------------------*\
| =========                 |                                                 |
| \\      /  F ield         | OpenFOAM: The Open Source CFD Toolbox           |
|  \\    /   O peration     | Version:  2212                                  |
|   \\  /    A nd           | Website:  www.openfoam.com                      |
|    \\/     M anipulation  |                                                 |
\*---------------------------------------------------------------------------*/
FoamFile
{
    version     2.0;
    format      ascii;
    arch        "LSB;label=32;scalar=64";
    class       volVectorField;
    location    "0.085";
    object      U;
}
// * * * * * * * * * * * * * * * * * * * * * * * * * * * * * * * * * * * * * //

dimensions      [0 1 -1 0 0 0 0];

internalField   nonuniform List<vector> 
24240
(
(9.47943 0.587545 -3.33915e-07)
(9.47949 0.587551 -4.18461e-06)
(9.4795 0.587552 -6.27512e-06)
(9.4795 0.587555 -8.71826e-06)
(9.47951 0.587558 -1.05973e-05)
(9.47952 0.587562 -1.22086e-05)
(9.47954 0.587567 -1.33895e-05)
(9.47955 0.587572 -1.41813e-05)
(9.47956 0.587577 -1.45617e-05)
(9.47958 0.587582 -1.45498e-05)
(9.47959 0.587587 -1.41661e-05)
(9.4796 0.587592 -1.34452e-05)
(9.47962 0.587597 -1.24365e-05)
(9.47963 0.587601 -1.11967e-05)
(9.47964 0.587605 -9.78891e-06)
(9.47964 0.587608 -8.30197e-06)
(9.47965 0.587611 -6.6813e-06)
(9.47966 0.587613 -5.20493e-06)
(9.47966 0.587615 -2.96889e-06)
(9.4796 0.587611 -2.1333e-06)
(9.14656 0.588808 -6.54577e-07)
(9.14662 0.588814 -1.73435e-06)
(9.14663 0.588817 -2.68686e-06)
(9.14663 0.588822 -3.64781e-06)
(9.14663 0.588828 -4.41935e-06)
(9.14664 0.588835 -5.07761e-06)
(9.14664 0.588842 -5.55574e-06)
(9.14664 0.588851 -5.8729e-06)
(9.14665 0.588859 -6.01822e-06)
(9.14665 0.588868 -6.00104e-06)
(9.14666 0.588876 -5.83226e-06)
(9.14666 0.588884 -5.52684e-06)
(9.14667 0.588892 -5.10377e-06)
(9.14667 0.588899 -4.58498e-06)
(9.14667 0.588905 -3.99618e-06)
(9.14668 0.58891 -3.36729e-06)
(9.14668 0.588914 -2.68279e-06)
(9.14668 0.588917 -2.01129e-06)
(9.14668 0.58892 -1.18097e-06)
(9.14662 0.588916 -3.56354e-07)
(9.18021 0.284998 -1.41797e-07)
(9.18027 0.285001 -1.73428e-08)
(9.18027 0.285003 1.02827e-07)
(9.18027 0.285005 9.63764e-08)
(9.18027 0.285008 1.06929e-07)
(9.18027 0.285012 4.81377e-08)
(9.18026 0.285016 -2.69052e-08)
(9.18026 0.28502 -1.31345e-07)
(9.18026 0.285024 -2.4584e-07)
(9.18026 0.285029 -3.62055e-07)
(9.18026 0.285033 -4.68228e-07)
(9.18025 0.285037 -5.53911e-07)
(9.18025 0.285041 -6.12449e-07)
(9.18025 0.285045 -6.3565e-07)
(9.18025 0.285048 -6.23498e-07)
(9.18025 0.28505 -5.77405e-07)
(9.18025 0.285053 -4.81647e-07)
(9.18025 0.285054 -3.9012e-07)
(9.18025 0.285056 -1.82397e-07)
(9.18018 0.285054 3.99936e-08)
(8.95001 0.283612 1.16619e-07)
(8.95007 0.283615 3.43009e-07)
(8.95007 0.283616 6.16403e-07)
(8.95007 0.283617 8.30878e-07)
(8.95007 0.283619 1.0291e-06)
(8.95006 0.283621 1.16885e-06)
(8.95006 0.283623 1.27046e-06)
(8.95006 0.283626 1.32477e-06)
(8.95006 0.283628 1.34011e-06)
(8.95005 0.283631 1.31871e-06)
(8.95005 0.283633 1.26678e-06)
(8.95005 0.283636 1.19095e-06)
(8.95004 0.283638 1.09711e-06)
(8.95004 0.28364 9.92593e-07)
(8.95004 0.283642 8.8371e-07)
(8.95004 0.283644 7.71413e-07)
(8.95003 0.283645 6.67469e-07)
(8.95003 0.283646 5.40833e-07)
(8.95003 0.283647 3.94161e-07)
(8.94997 0.283645 1.2181e-07)
(8.96876 0.141781 3.37958e-07)
(8.96882 0.141782 1.16996e-06)
(8.96882 0.141783 1.95502e-06)
(8.96881 0.141784 2.62956e-06)
(8.96881 0.141785 3.19522e-06)
(8.9688 0.141786 3.61575e-06)
(8.9688 0.141788 3.89881e-06)
(8.96879 0.141789 4.04161e-06)
(8.96879 0.141791 4.05348e-06)
(8.96878 0.141792 3.94884e-06)
(8.96877 0.141794 3.74453e-06)
(8.96877 0.141795 3.46093e-06)
(8.96876 0.141797 3.11787e-06)
(8.96876 0.141798 2.73989e-06)
(8.96875 0.141799 2.34374e-06)
(8.96875 0.1418 1.95099e-06)
(8.96874 0.141801 1.56674e-06)
(8.96874 0.141801 1.18157e-06)
(8.96874 0.141802 7.73556e-07)
(8.96868 0.141801 3.02352e-07)
(8.833 0.137141 3.69219e-07)
(8.83306 0.137142 1.09096e-06)
(8.83306 0.137142 1.80554e-06)
(8.83306 0.137142 2.43522e-06)
(8.83305 0.137142 2.9842e-06)
(8.83305 0.137142 3.41873e-06)
(8.83304 0.137142 3.74035e-06)
(8.83304 0.137142 3.94153e-06)
(8.83303 0.137142 4.02681e-06)
(8.83303 0.137142 4.00204e-06)
(8.83302 0.137142 3.87679e-06)
(8.83302 0.137142 3.66423e-06)
(8.83301 0.137142 3.37886e-06)
(8.83301 0.137142 3.03944e-06)
(8.833 0.137142 2.66332e-06)
(8.833 0.137142 2.26427e-06)
(8.833 0.137142 1.85626e-06)
(8.83299 0.137142 1.41488e-06)
(8.83299 0.137142 9.15341e-07)
(8.83293 0.137141 3.01883e-07)
(8.84382 0.0612371 3.71735e-07)
(8.84388 0.0612377 1.15949e-06)
(8.84388 0.0612376 1.90674e-06)
(8.84387 0.0612376 2.56635e-06)
(8.84387 0.0612375 3.12819e-06)
(8.84386 0.0612375 3.56946e-06)
(8.84386 0.0612374 3.88379e-06)
(8.84385 0.0612373 4.06724e-06)
(8.84384 0.0612373 4.12158e-06)
(8.84384 0.0612372 4.05577e-06)
(8.84383 0.0612372 3.88077e-06)
(8.84382 0.0612371 3.61314e-06)
(8.84382 0.0612371 3.27165e-06)
(8.84381 0.061237 2.87903e-06)
(8.84381 0.0612369 2.45627e-06)
(8.8438 0.0612368 2.02365e-06)
(8.8438 0.0612367 1.59143e-06)
(8.8438 0.0612365 1.15337e-06)
(8.84379 0.0612364 6.98734e-07)
(8.84373 0.0612357 2.35973e-07)
(8.78038 0.0541685 3.6514e-07)
(8.78044 0.054169 1.07007e-06)
(8.78044 0.0541689 1.75046e-06)
(8.78044 0.0541689 2.35697e-06)
(8.78043 0.0541688 2.89039e-06)
(8.78043 0.0541687 3.32493e-06)
(8.78042 0.0541686 3.65408e-06)
(8.78042 0.0541685 3.86817e-06)
(8.78041 0.0541684 3.96554e-06)
(8.7804 0.0541683 3.94893e-06)
(8.7804 0.0541682 3.8239e-06)
(8.78039 0.0541681 3.60291e-06)
(8.78038 0.054168 3.30143e-06)
(8.78038 0.0541678 2.93778e-06)
(8.78037 0.0541677 2.53359e-06)
(8.78037 0.0541675 2.1006e-06)
(8.78037 0.0541672 1.65516e-06)
(8.78036 0.054167 1.18007e-06)
(8.78036 0.0541668 6.96945e-07)
(8.7803 0.0541662 2.15437e-07)
(8.79146 0.00383884 3.63079e-07)
(8.79152 0.00383877 1.11861e-06)
(8.79151 0.00383852 1.82346e-06)
(8.79151 0.00383818 2.44932e-06)
(8.79151 0.00383773 2.98741e-06)
(8.7915 0.00383721 3.42008e-06)
(8.79149 0.00383663 3.73478e-06)
(8.79149 0.00383601 3.92356e-06)
(8.79148 0.00383536 3.98161e-06)
(8.79147 0.00383471 3.91281e-06)
(8.79147 0.00383405 3.72443e-06)
(8.79146 0.00383341 3.43132e-06)
(8.79145 0.00383278 3.05556e-06)
(8.79145 0.00383219 2.62123e-06)
(8.79144 0.00383164 2.15844e-06)
(8.79144 0.00383114 1.68656e-06)
(8.79143 0.0038307 1.23315e-06)
(8.79143 0.00383035 7.93931e-07)
(8.79143 0.00383007 4.13743e-07)
(8.79137 0.00382992 1.32864e-07)
(8.78264 -0.0110173 2.62427e-07)
(8.78269 -0.0110179 7.67222e-07)
(8.78269 -0.0110188 1.25293e-06)
(8.78269 -0.01102 1.68869e-06)
(8.78269 -0.0110216 2.07455e-06)
(8.78268 -0.0110235 2.39459e-06)
(8.78268 -0.0110256 2.63866e-06)
(8.78267 -0.0110279 2.79697e-06)
(8.78267 -0.0110302 2.86229e-06)
(8.78266 -0.0110325 2.83527e-06)
(8.78266 -0.0110347 2.7181e-06)
(8.78265 -0.0110368 2.52155e-06)
(8.78264 -0.0110388 2.26273e-06)
(8.78264 -0.0110406 1.95908e-06)
(8.78264 -0.0110422 1.63542e-06)
(8.78263 -0.0110436 1.29947e-06)
(8.78263 -0.0110447 9.74698e-07)
(8.78263 -0.0110456 6.40135e-07)
(8.78263 -0.0110462 3.67354e-07)
(8.78257 -0.0110464 1.25229e-07)
(8.79907 -0.0517515 1.87903e-08)
(8.79913 -0.0517523 3.67686e-08)
(8.79913 -0.051753 5.35385e-08)
(8.79912 -0.0517539 7.07537e-08)
(8.79912 -0.0517552 1.00265e-07)
(8.79912 -0.0517566 1.34246e-07)
(8.79912 -0.0517583 1.66548e-07)
(8.79912 -0.0517601 1.87436e-07)
(8.79911 -0.051762 1.87427e-07)
(8.79911 -0.0517639 1.62076e-07)
(8.79911 -0.0517658 1.0781e-07)
(8.7991 -0.0517677 2.60501e-08)
(8.7991 -0.0517695 -7.24187e-08)
(8.7991 -0.0517712 -1.79794e-07)
(8.7991 -0.0517727 -2.78294e-07)
(8.79909 -0.051774 -3.66618e-07)
(8.79909 -0.0517751 -4.19522e-07)
(8.79909 -0.0517759 -4.5146e-07)
(8.79909 -0.0517765 -3.73427e-07)
(8.79903 -0.0517764 -1.46999e-07)
(8.84101 -0.0687065 -2.89488e-08)
(8.84106 -0.0687074 -5.82181e-08)
(8.84106 -0.0687078 -9.4998e-08)
(8.84106 -0.0687085 -1.33519e-07)
(8.84106 -0.0687093 -1.65678e-07)
(8.84106 -0.0687103 -1.94808e-07)
(8.84106 -0.0687115 -2.25858e-07)
(8.84105 -0.0687127 -2.64491e-07)
(8.84105 -0.0687139 -3.16093e-07)
(8.84105 -0.0687152 -3.8153e-07)
(8.84105 -0.0687165 -4.60033e-07)
(8.84104 -0.0687177 -5.44524e-07)
(8.84104 -0.0687188 -6.23769e-07)
(8.84104 -0.0687197 -6.86982e-07)
(8.84104 -0.0687206 -7.14848e-07)
(8.84104 -0.0687213 -7.14008e-07)
(8.84104 -0.0687218 -6.64196e-07)
(8.84103 -0.0687221 -5.91036e-07)
(8.84103 -0.0687223 -4.09801e-07)
(8.84097 -0.0687216 -1.24313e-07)
(8.8604 -0.123804 -1.61094e-07)
(8.86046 -0.123805 -5.50246e-07)
(8.86046 -0.123805 -8.88208e-07)
(8.86046 -0.123806 -1.19471e-06)
(8.86046 -0.123806 -1.44347e-06)
(8.86046 -0.123807 -1.639e-06)
(8.86045 -0.123808 -1.78145e-06)
(8.86045 -0.123808 -1.87702e-06)
(8.86045 -0.123809 -1.93234e-06)
(8.86045 -0.12381 -1.95354e-06)
(8.86045 -0.123811 -1.94499e-06)
(8.86045 -0.123812 -1.90694e-06)
(8.86045 -0.123813 -1.83524e-06)
(8.86045 -0.123814 -1.72565e-06)
(8.86045 -0.123815 -1.56771e-06)
(8.86045 -0.123815 -1.37624e-06)
(8.86045 -0.123816 -1.13662e-06)
(8.86045 -0.123816 -8.94813e-07)
(8.86045 -0.123816 -5.50141e-07)
(8.86039 -0.123815 -1.87198e-07)
(8.9681 -0.134978 -1.81031e-07)
(8.96816 -0.13498 -4.39951e-07)
(8.96816 -0.13498 -7.04154e-07)
(8.96816 -0.134981 -9.59365e-07)
(8.96816 -0.134981 -1.19286e-06)
(8.96816 -0.134982 -1.40133e-06)
(8.96816 -0.134983 -1.58466e-06)
(8.96816 -0.134984 -1.74396e-06)
(8.96815 -0.134985 -1.88064e-06)
(8.96815 -0.134986 -1.99312e-06)
(8.96815 -0.134988 -2.07674e-06)
(8.96815 -0.134989 -2.12313e-06)
(8.96815 -0.134989 -2.1186e-06)
(8.96815 -0.13499 -2.05082e-06)
(8.96815 -0.134991 -1.9029e-06)
(8.96815 -0.134992 -1.68937e-06)
(8.96815 -0.134992 -1.39949e-06)
(8.96815 -0.134992 -1.07074e-06)
(8.96815 -0.134992 -6.50375e-07)
(8.96809 -0.134991 -1.70849e-07)
(8.97964 -0.233803 -2.95041e-07)
(8.9797 -0.233805 -1.01908e-06)
(8.9797 -0.233806 -1.65298e-06)
(8.9797 -0.233806 -2.23874e-06)
(8.9797 -0.233807 -2.72897e-06)
(8.97971 -0.233808 -3.13169e-06)
(8.97971 -0.23381 -3.4359e-06)
(8.97971 -0.233811 -3.6442e-06)
(8.97971 -0.233812 -3.75932e-06)
(8.97971 -0.233814 -3.78567e-06)
(8.97971 -0.233815 -3.72737e-06)
(8.97971 -0.233816 -3.58658e-06)
(8.97972 -0.233818 -3.36254e-06)
(8.97972 -0.233819 -3.05631e-06)
(8.97972 -0.23382 -2.67015e-06)
(8.97972 -0.233821 -2.23558e-06)
(8.97972 -0.233822 -1.75108e-06)
(8.97972 -0.233822 -1.29929e-06)
(8.97972 -0.233823 -7.87688e-07)
(8.97966 -0.233821 -2.95236e-07)
(9.18058 -0.236282 -4.23361e-07)
(9.18064 -0.236284 -1.01647e-06)
(9.18064 -0.236285 -1.62565e-06)
(9.18064 -0.236286 -2.22851e-06)
(9.18065 -0.236287 -2.77514e-06)
(9.18065 -0.236289 -3.26465e-06)
(9.18065 -0.236291 -3.67864e-06)
(9.18065 -0.236292 -4.01568e-06)
(9.18065 -0.236294 -4.26821e-06)
(9.18065 -0.236296 -4.43155e-06)
(9.18065 -0.236298 -4.49868e-06)
(9.18065 -0.2363 -4.46135e-06)
(9.18066 -0.236302 -4.30881e-06)
(9.18066 -0.236303 -4.03548e-06)
(9.18066 -0.236305 -3.63846e-06)
(9.18066 -0.236306 -3.14182e-06)
(9.18066 -0.236307 -2.55353e-06)
(9.18066 -0.236307 -1.93402e-06)
(9.18066 -0.236308 -1.19173e-06)
(9.1806 -0.236306 -3.18482e-07)
(9.17124 -0.44253 -5.81713e-07)
(9.17131 -0.442535 -1.87342e-06)
(9.17131 -0.442536 -3.02852e-06)
(9.17131 -0.442537 -4.12455e-06)
(9.17132 -0.442539 -5.0571e-06)
(9.17132 -0.442541 -5.83772e-06)
(9.17132 -0.442543 -6.43201e-06)
(9.17133 -0.442546 -6.84007e-06)
(9.17134 -0.442549 -7.05586e-06)
(9.17134 -0.442552 -7.08279e-06)
(9.17135 -0.442555 -6.92688e-06)
(9.17135 -0.442557 -6.59752e-06)
(9.17136 -0.44256 -6.10796e-06)
(9.17136 -0.442562 -5.4789e-06)
(9.17136 -0.442564 -4.73254e-06)
(9.17137 -0.442565 -3.92848e-06)
(9.17137 -0.442567 -3.07208e-06)
(9.17137 -0.442568 -2.26614e-06)
(9.17137 -0.442568 -1.338e-06)
(9.17131 -0.442565 -4.64014e-07)
(9.49812 -0.435631 -9.85811e-07)
(9.49818 -0.435636 -2.33638e-06)
(9.49819 -0.435637 -3.63057e-06)
(9.49819 -0.435639 -4.97623e-06)
(9.49819 -0.435642 -6.12282e-06)
(9.4982 -0.435645 -7.15228e-06)
(9.4982 -0.435648 -7.9723e-06)
(9.49821 -0.435652 -8.5947e-06)
(9.49822 -0.435656 -8.99039e-06)
(9.49822 -0.43566 -9.15749e-06)
(9.49823 -0.435663 -9.09086e-06)
(9.49824 -0.435667 -8.79479e-06)
(9.49824 -0.43567 -8.27951e-06)
(9.49825 -0.435673 -7.56681e-06)
(9.49825 -0.435676 -6.67903e-06)
(9.49825 -0.435678 -5.67054e-06)
(9.49826 -0.43568 -4.51157e-06)
(9.49826 -0.435681 -3.35036e-06)
(9.49826 -0.435682 -1.94188e-06)
(9.4982 -0.435678 -4.55131e-07)
(9.4546 -0.881706 -1.3387e-06)
(9.45467 -0.881715 -3.75574e-06)
(9.45467 -0.881717 -5.89348e-06)
(9.45468 -0.881722 -7.98813e-06)
(9.45469 -0.881727 -9.74796e-06)
(9.4547 -0.881733 -1.12561e-05)
(9.45471 -0.88174 -1.23933e-05)
(9.45472 -0.881748 -1.31675e-05)
(9.45474 -0.881755 -1.35468e-05)
(9.45475 -0.881763 -1.35385e-05)
(9.45476 -0.881771 -1.31533e-05)
(9.45478 -0.881778 -1.24222e-05)
(9.45479 -0.881784 -1.13886e-05)
(9.4548 -0.88179 -1.01215e-05)
(9.45481 -0.881795 -8.67747e-06)
(9.45482 -0.881799 -7.15951e-06)
(9.45482 -0.881802 -5.52339e-06)
(9.45483 -0.881804 -3.97752e-06)
(9.45483 -0.881806 -2.21177e-06)
(9.45477 -0.8818 -6.24845e-07)
(9.90773 -0.869136 -1.04451e-06)
(9.90779 -0.869143 -6.23478e-06)
(9.90779 -0.869144 -9.27936e-06)
(9.9078 -0.869147 -1.28491e-05)
(9.90782 -0.86915 -1.56743e-05)
(9.90783 -0.869154 -1.81576e-05)
(9.90785 -0.869158 -2.00327e-05)
(9.90787 -0.869163 -2.13285e-05)
(9.90789 -0.869168 -2.19806e-05)
(9.90792 -0.869173 -2.19953e-05)
(9.90794 -0.869179 -2.1386e-05)
(9.90796 -0.869184 -2.02053e-05)
(9.90797 -0.869188 -1.85316e-05)
(9.90799 -0.869192 -1.64885e-05)
(9.90801 -0.869196 -1.41776e-05)
(9.90802 -0.869199 -1.17852e-05)
(9.90803 -0.869202 -9.17546e-06)
(9.90803 -0.869204 -6.85053e-06)
(9.90804 -0.869206 -3.54308e-06)
(9.90799 -0.869201 -2.19985e-06)
(8.74997 0.673292 -1.20919e-06)
(8.75002 0.673297 -4.58424e-06)
(8.75002 0.673299 -7.2878e-06)
(8.75002 0.673301 -1.00109e-05)
(8.75002 0.673304 -1.22162e-05)
(8.75002 0.673308 -1.40992e-05)
(8.75002 0.673312 -1.55077e-05)
(8.75001 0.673316 -1.64785e-05)
(8.75001 0.673321 -1.69791e-05)
(8.75001 0.673326 -1.70322e-05)
(8.75001 0.673331 -1.66548e-05)
(8.75001 0.673335 -1.58859e-05)
(8.75001 0.67334 -1.47801e-05)
(8.75001 0.673344 -1.33924e-05)
(8.75001 0.673348 -1.17922e-05)
(8.75 0.673351 -1.00536e-05)
(8.75 0.673354 -8.14879e-06)
(8.75 0.673356 -6.23244e-06)
(8.75 0.673358 -3.83101e-06)
(8.74995 0.673354 -1.71161e-06)
(8.84337 0.683046 -8.16474e-07)
(8.84343 0.683054 -2.54457e-06)
(8.84343 0.683058 -4.08134e-06)
(8.84343 0.683064 -5.53514e-06)
(8.84343 0.683071 -6.70079e-06)
(8.84343 0.68308 -7.66747e-06)
(8.84343 0.68309 -8.35177e-06)
(8.84343 0.683101 -8.78298e-06)
(8.84343 0.683112 -8.95043e-06)
(8.84343 0.683123 -8.87718e-06)
(8.84343 0.683134 -8.58188e-06)
(8.84343 0.683145 -8.0942e-06)
(8.84343 0.683154 -7.44773e-06)
(8.84343 0.683163 -6.67114e-06)
(8.84343 0.683171 -5.80601e-06)
(8.84343 0.683178 -4.88352e-06)
(8.84343 0.683184 -3.88768e-06)
(8.84343 0.683188 -2.9011e-06)
(8.84343 0.683191 -1.76223e-06)
(8.84337 0.683188 -6.69909e-07)
(8.87926 0.427486 1.88567e-07)
(8.87931 0.42749 6.00427e-07)
(8.87931 0.427493 1.09159e-06)
(8.87931 0.427497 1.4148e-06)
(8.87931 0.427501 1.70085e-06)
(8.87931 0.427507 1.83993e-06)
(8.87931 0.427513 1.89456e-06)
(8.87931 0.42752 1.84695e-06)
(8.87931 0.427527 1.7271e-06)
(8.87931 0.427534 1.55057e-06)
(8.87931 0.427541 1.3391e-06)
(8.87931 0.427547 1.1142e-06)
(8.87931 0.427553 8.88813e-07)
(8.87931 0.427559 6.85311e-07)
(8.87931 0.427564 5.06724e-07)
(8.87931 0.427568 3.63783e-07)
(8.87931 0.427572 2.71318e-07)
(8.87931 0.427575 1.76336e-07)
(8.87931 0.427577 1.58616e-07)
(8.87925 0.427574 1.17605e-08)
(8.79863 0.423084 2.53247e-07)
(8.79869 0.423088 7.15988e-07)
(8.79869 0.423089 1.22778e-06)
(8.79869 0.423091 1.65884e-06)
(8.79869 0.423093 2.05683e-06)
(8.79869 0.423095 2.3633e-06)
(8.79868 0.423098 2.60422e-06)
(8.79868 0.423101 2.761e-06)
(8.79868 0.423105 2.84478e-06)
(8.79868 0.423108 2.85565e-06)
(8.79868 0.423112 2.80003e-06)
(8.79868 0.423115 2.68603e-06)
(8.79868 0.423118 2.51916e-06)
(8.79868 0.423121 2.31031e-06)
(8.79868 0.423124 2.06825e-06)
(8.79868 0.423126 1.79787e-06)
(8.79868 0.423128 1.51694e-06)
(8.79868 0.42313 1.17616e-06)
(8.79868 0.423131 7.90406e-07)
(8.79862 0.423128 2.37594e-07)
(8.81992 0.246459 6.60177e-07)
(8.81998 0.246461 2.05239e-06)
(8.81998 0.246462 3.4137e-06)
(8.81998 0.246463 4.60558e-06)
(8.81998 0.246464 5.62769e-06)
(8.81997 0.246465 6.41904e-06)
(8.81997 0.246467 6.98495e-06)
(8.81997 0.246469 7.31572e-06)
(8.81997 0.246471 7.42606e-06)
(8.81997 0.246473 7.33413e-06)
(8.81997 0.246475 7.06301e-06)
(8.81996 0.246477 6.64358e-06)
(8.81996 0.246478 6.10106e-06)
(8.81996 0.24648 5.47298e-06)
(8.81996 0.246481 4.779e-06)
(8.81996 0.246483 4.05463e-06)
(8.81996 0.246484 3.29767e-06)
(8.81996 0.246485 2.49243e-06)
(8.81996 0.246485 1.601e-06)
(8.8199 0.246483 5.40463e-07)
(8.7375 0.239394 5.34129e-07)
(8.73756 0.239396 1.59827e-06)
(8.73755 0.239396 2.63507e-06)
(8.73755 0.239396 3.56962e-06)
(8.73755 0.239395 4.40154e-06)
(8.73755 0.239395 5.07899e-06)
(8.73755 0.239395 5.60453e-06)
(8.73755 0.239396 5.9613e-06)
(8.73755 0.239396 6.15498e-06)
(8.73755 0.239396 6.18974e-06)
(8.73755 0.239396 6.07477e-06)
(8.73754 0.239396 5.82606e-06)
(8.73754 0.239396 5.45809e-06)
(8.73754 0.239397 4.99151e-06)
(8.73754 0.239397 4.4444e-06)
(8.73754 0.239397 3.82632e-06)
(8.73754 0.239397 3.15393e-06)
(8.73754 0.239397 2.38486e-06)
(8.73754 0.239397 1.51525e-06)
(8.73748 0.239395 5.07269e-07)
(8.74927 0.10999 6.54008e-07)
(8.74933 0.109991 2.03417e-06)
(8.74933 0.109991 3.3557e-06)
(8.74933 0.109991 4.54722e-06)
(8.74933 0.109992 5.58364e-06)
(8.74932 0.109992 6.42454e-06)
(8.74932 0.109993 7.05584e-06)
(8.74932 0.109994 7.4671e-06)
(8.74932 0.109994 7.65849e-06)
(8.74931 0.109995 7.64181e-06)
(8.74931 0.109996 7.43168e-06)
(8.74931 0.109996 7.05205e-06)
(8.74931 0.109997 6.52778e-06)
(8.7493 0.109998 5.89137e-06)
(8.7493 0.109998 5.16738e-06)
(8.7493 0.109999 4.38256e-06)
(8.7493 0.109999 3.54537e-06)
(8.7493 0.109999 2.63966e-06)
(8.7493 0.109999 1.65633e-06)
(8.74924 0.109999 5.75252e-07)
(8.70733 0.0974677 6.42891e-07)
(8.70739 0.0974684 1.89481e-06)
(8.70738 0.0974683 3.10987e-06)
(8.70738 0.0974682 4.21943e-06)
(8.70738 0.097468 5.21051e-06)
(8.70738 0.0974678 6.03746e-06)
(8.70738 0.0974676 6.68744e-06)
(8.70738 0.0974674 7.1419e-06)
(8.70737 0.0974672 7.39627e-06)
(8.70737 0.097467 7.45307e-06)
(8.70737 0.0974668 7.31991e-06)
(8.70737 0.0974666 7.01466e-06)
(8.70736 0.0974664 6.55756e-06)
(8.70736 0.0974662 5.97316e-06)
(8.70736 0.097466 5.28837e-06)
(8.70736 0.0974658 4.51242e-06)
(8.70736 0.0974656 3.67063e-06)
(8.70735 0.0974654 2.72147e-06)
(8.70735 0.0974652 1.70126e-06)
(8.70729 0.0974644 5.73156e-07)
(8.71643 0.00167523 6.13529e-07)
(8.71649 0.00167503 1.90901e-06)
(8.71649 0.00167454 3.13808e-06)
(8.71648 0.00167384 4.2607e-06)
(8.71648 0.00167295 5.24835e-06)
(8.71648 0.00167191 6.06864e-06)
(8.71648 0.00167075 6.69902e-06)
(8.71648 0.00166951 7.12286e-06)
(8.71648 0.00166823 7.331e-06)
(8.71647 0.00166693 7.3289e-06)
(8.71647 0.00166565 7.12565e-06)
(8.71647 0.00166442 6.74229e-06)
(8.71646 0.00166324 6.2069e-06)
(8.71646 0.00166216 5.55251e-06)
(8.71646 0.00166118 4.81487e-06)
(8.71646 0.00166034 4.01286e-06)
(8.71646 0.00165963 3.18236e-06)
(8.71645 0.00165908 2.29348e-06)
(8.71645 0.00165869 1.41442e-06)
(8.71639 0.00165852 5.15889e-07)
(8.71378 -0.0234676 4.27394e-07)
(8.71383 -0.0234684 1.27389e-06)
(8.71383 -0.0234696 2.10154e-06)
(8.71383 -0.0234713 2.87003e-06)
(8.71383 -0.0234735 3.56743e-06)
(8.71383 -0.0234761 4.16444e-06)
(8.71383 -0.0234789 4.64543e-06)
(8.71383 -0.023482 4.9924e-06)
(8.71382 -0.0234852 5.19432e-06)
(8.71382 -0.0234884 5.25026e-06)
(8.71382 -0.0234915 5.16249e-06)
(8.71382 -0.0234945 4.94537e-06)
(8.71382 -0.0234972 4.61762e-06)
(8.71381 -0.0234998 4.19867e-06)
(8.71381 -0.023502 3.71535e-06)
(8.71381 -0.0235039 3.1648e-06)
(8.71381 -0.0235055 2.57939e-06)
(8.71381 -0.0235067 1.90234e-06)
(8.71381 -0.0235075 1.23036e-06)
(8.71375 -0.0235077 4.57474e-07)
(8.7266 -0.106105 1.45505e-07)
(8.72666 -0.106106 4.31165e-07)
(8.72665 -0.106107 7.17853e-07)
(8.72665 -0.106108 9.97618e-07)
(8.72665 -0.10611 1.27289e-06)
(8.72665 -0.106112 1.52577e-06)
(8.72665 -0.106114 1.74415e-06)
(8.72665 -0.106117 1.91229e-06)
(8.72665 -0.10612 2.017e-06)
(8.72664 -0.106122 2.05235e-06)
(8.72664 -0.106125 2.01593e-06)
(8.72664 -0.106128 1.91307e-06)
(8.72664 -0.10613 1.75631e-06)
(8.72664 -0.106132 1.55764e-06)
(8.72664 -0.106134 1.33915e-06)
(8.72663 -0.106136 1.09402e-06)
(8.72663 -0.106137 8.56961e-07)
(8.72663 -0.106139 5.77056e-07)
(8.72663 -0.106139 3.56778e-07)
(8.72657 -0.106139 1.43245e-07)
(8.76482 -0.132865 -1.57636e-09)
(8.76488 -0.132866 8.79859e-08)
(8.76488 -0.132867 1.79768e-07)
(8.76488 -0.132868 2.78052e-07)
(8.76488 -0.132869 3.83495e-07)
(8.76487 -0.132871 4.88954e-07)
(8.76487 -0.132873 5.85112e-07)
(8.76487 -0.132875 6.60463e-07)
(8.76487 -0.132877 7.06476e-07)
(8.76487 -0.132879 7.2182e-07)
(8.76487 -0.132881 7.05366e-07)
(8.76487 -0.132883 6.65376e-07)
(8.76487 -0.132885 6.14449e-07)
(8.76486 -0.132887 5.58878e-07)
(8.76486 -0.132888 5.19388e-07)
(8.76486 -0.132889 4.72492e-07)
(8.76486 -0.13289 4.43307e-07)
(8.76486 -0.132891 3.58599e-07)
(8.76486 -0.132891 2.98264e-07)
(8.7648 -0.13289 1.79244e-07)
(8.77571 -0.239362 -1.44176e-07)
(8.77577 -0.239364 -5.10438e-07)
(8.77577 -0.239364 -8.14274e-07)
(8.77577 -0.239365 -1.07537e-06)
(8.77577 -0.239366 -1.26604e-06)
(8.77577 -0.239367 -1.40268e-06)
(8.77577 -0.239368 -1.48299e-06)
(8.77577 -0.23937 -1.51921e-06)
(8.77577 -0.239371 -1.51894e-06)
(8.77577 -0.239373 -1.48946e-06)
(8.77576 -0.239374 -1.43641e-06)
(8.77576 -0.239376 -1.3584e-06)
(8.77576 -0.239377 -1.25153e-06)
(8.77576 -0.239379 -1.11226e-06)
(8.77576 -0.23938 -9.32094e-07)
(8.77576 -0.239381 -7.32547e-07)
(8.77576 -0.239382 -4.96094e-07)
(8.77576 -0.239382 -3.19372e-07)
(8.77576 -0.239383 -1.07484e-07)
(8.7757 -0.239381 -9.9457e-09)
(8.86143 -0.25546 -2.43764e-07)
(8.86149 -0.255462 -5.45483e-07)
(8.86149 -0.255463 -8.30627e-07)
(8.86149 -0.255464 -1.095e-06)
(8.86149 -0.255465 -1.32189e-06)
(8.86149 -0.255467 -1.51228e-06)
(8.86149 -0.255468 -1.66473e-06)
(8.86149 -0.25547 -1.78385e-06)
(8.86149 -0.255472 -1.87157e-06)
(8.86149 -0.255474 -1.92698e-06)
(8.86149 -0.255476 -1.94617e-06)
(8.86149 -0.255478 -1.91987e-06)
(8.86149 -0.25548 -1.8352e-06)
(8.86149 -0.255482 -1.68424e-06)
(8.86148 -0.255483 -1.45134e-06)
(8.86148 -0.255485 -1.16463e-06)
(8.86148 -0.255486 -8.16438e-07)
(8.86148 -0.255486 -4.99656e-07)
(8.86148 -0.255487 -1.82164e-07)
(8.86142 -0.255485 4.5977e-08)
(8.86228 -0.417413 -4.28322e-07)
(8.86234 -0.417416 -1.40786e-06)
(8.86234 -0.417417 -2.26267e-06)
(8.86234 -0.417418 -3.04123e-06)
(8.86234 -0.41742 -3.67868e-06)
(8.86234 -0.417421 -4.20487e-06)
(8.86235 -0.417423 -4.59156e-06)
(8.86235 -0.417426 -4.84638e-06)
(8.86235 -0.417428 -4.96847e-06)
(8.86235 -0.41743 -4.96505e-06)
(8.86235 -0.417433 -4.84221e-06)
(8.86235 -0.417435 -4.60402e-06)
(8.86235 -0.417438 -4.2555e-06)
(8.86235 -0.41744 -3.79917e-06)
(8.86235 -0.417442 -3.24316e-06)
(8.86235 -0.417443 -2.62045e-06)
(8.86235 -0.417445 -1.92375e-06)
(8.86235 -0.417446 -1.28818e-06)
(8.86235 -0.417446 -6.42436e-07)
(8.86229 -0.417443 -2.0009e-07)
(8.99161 -0.420266 -5.89066e-07)
(8.99167 -0.42027 -1.53713e-06)
(8.99167 -0.420271 -2.40291e-06)
(8.99167 -0.420273 -3.25516e-06)
(8.99167 -0.420275 -4.01107e-06)
(8.99168 -0.420277 -4.67381e-06)
(8.99168 -0.42028 -5.21274e-06)
(8.99168 -0.420283 -5.63106e-06)
(8.99168 -0.420286 -5.91552e-06)
(8.99168 -0.42029 -6.06357e-06)
(8.99168 -0.420293 -6.06686e-06)
(8.99168 -0.420296 -5.91996e-06)
(8.99168 -0.420299 -5.61267e-06)
(8.99168 -0.420302 -5.1447e-06)
(8.99168 -0.420304 -4.5165e-06)
(8.99168 -0.420306 -3.76287e-06)
(8.99168 -0.420307 -2.89557e-06)
(8.99168 -0.420309 -2.01216e-06)
(8.99168 -0.42031 -1.05386e-06)
(8.99162 -0.420306 -2.36881e-07)
(8.97348 -0.662218 -9.13007e-07)
(8.97354 -0.662224 -2.85896e-06)
(8.97355 -0.662226 -4.54718e-06)
(8.97355 -0.662228 -6.14098e-06)
(8.97355 -0.66223 -7.50061e-06)
(8.97355 -0.662234 -8.64359e-06)
(8.97355 -0.662237 -9.50702e-06)
(8.97355 -0.662242 -1.00976e-05)
(8.97355 -0.662246 -1.03995e-05)
(8.97356 -0.66225 -1.04225e-05)
(8.97356 -0.662255 -1.01778e-05)
(8.97356 -0.662259 -9.68287e-06)
(8.97356 -0.662263 -8.96009e-06)
(8.97356 -0.662267 -8.03937e-06)
(8.97357 -0.66227 -6.94354e-06)
(8.97357 -0.662273 -5.73395e-06)
(8.97357 -0.662276 -4.39588e-06)
(8.97357 -0.662278 -3.0496e-06)
(8.97357 -0.662279 -1.62199e-06)
(8.97351 -0.662275 -5.25719e-07)
(9.08405 -0.652272 -1.20361e-06)
(9.08411 -0.652279 -3.40443e-06)
(9.08411 -0.652281 -5.36768e-06)
(9.08412 -0.652284 -7.34206e-06)
(9.08412 -0.652288 -9.03935e-06)
(9.08412 -0.652293 -1.05535e-05)
(9.08412 -0.652299 -1.17615e-05)
(9.08412 -0.652305 -1.2677e-05)
(9.08413 -0.652312 -1.32577e-05)
(9.08413 -0.652318 -1.35029e-05)
(9.08413 -0.652325 -1.3406e-05)
(9.08413 -0.652331 -1.29785e-05)
(9.08414 -0.652336 -1.22293e-05)
(9.08414 -0.652342 -1.11937e-05)
(9.08414 -0.652346 -9.88309e-06)
(9.08414 -0.65235 -8.37513e-06)
(9.08414 -0.652353 -6.63478e-06)
(9.08415 -0.652356 -4.84246e-06)
(9.08415 -0.652357 -2.79514e-06)
(9.08409 -0.652353 -8.76302e-07)
(9.03203 -1.01552 -1.85713e-06)
(9.03209 -1.01553 -5.72013e-06)
(9.03209 -1.01554 -9.16816e-06)
(9.03209 -1.01554 -1.24597e-05)
(9.0321 -1.01555 -1.52367e-05)
(9.0321 -1.01556 -1.76028e-05)
(9.0321 -1.01557 -1.9392e-05)
(9.0321 -1.01558 -2.06133e-05)
(9.03211 -1.01559 -2.12225e-05)
(9.03211 -1.0156 -2.1236e-05)
(9.03211 -1.01561 -2.06781e-05)
(9.03212 -1.01562 -1.96015e-05)
(9.03212 -1.01563 -1.80746e-05)
(9.03212 -1.01564 -1.61943e-05)
(9.03213 -1.01564 -1.40231e-05)
(9.03213 -1.01565 -1.17033e-05)
(9.03213 -1.01565 -9.15525e-06)
(9.03213 -1.01566 -6.64942e-06)
(9.03213 -1.01566 -3.80779e-06)
(9.03208 -1.01565 -1.25703e-06)
(8.86406 -0.967955 -3.64234e-06)
(8.86411 -0.967962 -8.32598e-06)
(8.86411 -0.967964 -1.30402e-05)
(8.86411 -0.967966 -1.77858e-05)
(8.86411 -0.96797 -2.18064e-05)
(8.86412 -0.967974 -2.52956e-05)
(8.86412 -0.967979 -2.79819e-05)
(8.86412 -0.967985 -2.9872e-05)
(8.86413 -0.96799 -3.08852e-05)
(8.86413 -0.967996 -3.10321e-05)
(8.86413 -0.968002 -3.03357e-05)
(8.86414 -0.968008 -2.88724e-05)
(8.86414 -0.968013 -2.67426e-05)
(8.86414 -0.968018 -2.40955e-05)
(8.86415 -0.968023 -2.10434e-05)
(8.86415 -0.968027 -1.77837e-05)
(8.86415 -0.96803 -1.41782e-05)
(8.86416 -0.968033 -1.05298e-05)
(8.86416 -0.968035 -6.15987e-06)
(8.86411 -0.96803 -1.25555e-06)
(8.91201 0.750311 -8.90746e-07)
(8.91206 0.750317 -3.68019e-06)
(8.91206 0.750318 -5.38849e-06)
(8.91206 0.750319 -7.365e-06)
(8.91206 0.75032 -8.91778e-06)
(8.91206 0.750322 -1.03067e-05)
(8.91205 0.750324 -1.13616e-05)
(8.91205 0.750326 -1.21257e-05)
(8.91205 0.750328 -1.25533e-05)
(8.91205 0.75033 -1.2663e-05)
(8.91204 0.750332 -1.24625e-05)
(8.91204 0.750335 -1.19762e-05)
(8.91204 0.750337 -1.12408e-05)
(8.91204 0.750339 -1.02929e-05)
(8.91204 0.750341 -9.15972e-06)
(8.91203 0.750342 -7.90084e-06)
(8.91203 0.750344 -6.40528e-06)
(8.91203 0.750345 -4.89212e-06)
(8.91203 0.750346 -2.74077e-06)
(8.91198 0.75034 -1.35879e-06)
(8.76978 0.757193 -1.08004e-06)
(8.76984 0.7572 -2.56696e-06)
(8.76984 0.757203 -3.89385e-06)
(8.76984 0.757207 -5.2197e-06)
(8.76984 0.757212 -6.33378e-06)
(8.76984 0.757218 -7.29693e-06)
(8.76983 0.757225 -8.00627e-06)
(8.76983 0.757232 -8.4931e-06)
(8.76983 0.757239 -8.73909e-06)
(8.76983 0.757247 -8.76007e-06)
(8.76983 0.757254 -8.56936e-06)
(8.76983 0.757261 -8.19602e-06)
(8.76982 0.757268 -7.66182e-06)
(8.76982 0.757274 -6.98409e-06)
(8.76982 0.75728 -6.19778e-06)
(8.76982 0.757285 -5.33054e-06)
(8.76982 0.757289 -4.3355e-06)
(8.76982 0.757292 -3.25868e-06)
(8.76982 0.757294 -1.94592e-06)
(8.76976 0.75729 -5.26181e-07)
(8.80763 0.473137 -2.10793e-07)
(8.80768 0.473142 6.90441e-08)
(8.80768 0.473144 3.02828e-07)
(8.80768 0.473148 3.99881e-07)
(8.80768 0.473152 4.91924e-07)
(8.80768 0.473157 4.70851e-07)
(8.80768 0.473163 4.29284e-07)
(8.80768 0.473169 3.40356e-07)
(8.80768 0.473176 2.29244e-07)
(8.80768 0.473183 1.05989e-07)
(8.80768 0.473189 -1.45821e-08)
(8.80768 0.473196 -1.15976e-07)
(8.80768 0.473202 -1.98881e-07)
(8.80768 0.473207 -2.52047e-07)
(8.80768 0.473212 -2.75365e-07)
(8.80768 0.473217 -2.68533e-07)
(8.80768 0.47322 -1.95285e-07)
(8.80768 0.473223 -1.2936e-07)
(8.80768 0.473225 1.70241e-09)
(8.80762 0.473223 1.6489e-07)
(8.70746 0.472454 1.41251e-07)
(8.70751 0.472458 6.16022e-07)
(8.70751 0.472459 1.10686e-06)
(8.70751 0.472461 1.51905e-06)
(8.70751 0.472464 1.88642e-06)
(8.70751 0.472467 2.16308e-06)
(8.70751 0.472471 2.37727e-06)
(8.70751 0.472475 2.51259e-06)
(8.70751 0.472479 2.58205e-06)
(8.70751 0.472483 2.58812e-06)
(8.70751 0.472488 2.53598e-06)
(8.70752 0.472492 2.43308e-06)
(8.70752 0.472496 2.28257e-06)
(8.70752 0.4725 2.09271e-06)
(8.70752 0.472503 1.8731e-06)
(8.70752 0.472506 1.62749e-06)
(8.70752 0.472509 1.38571e-06)
(8.70752 0.472511 1.11068e-06)
(8.70752 0.472512 7.67911e-07)
(8.70746 0.47251 2.92837e-07)
(8.72745 0.27188 5.91788e-07)
(8.72751 0.271883 2.00766e-06)
(8.72751 0.271883 3.36587e-06)
(8.72751 0.271885 4.57049e-06)
(8.72751 0.271886 5.60906e-06)
(8.72751 0.271888 6.42588e-06)
(8.72751 0.27189 7.02539e-06)
(8.72751 0.271892 7.39749e-06)
(8.72751 0.271894 7.55609e-06)
(8.72751 0.271897 7.51931e-06)
(8.72751 0.271899 7.30563e-06)
(8.72751 0.271902 6.94425e-06)
(8.72751 0.271904 6.45249e-06)
(8.72751 0.271906 5.8649e-06)
(8.72751 0.271908 5.19454e-06)
(8.72751 0.27191 4.47481e-06)
(8.72751 0.271911 3.70249e-06)
(8.72751 0.271913 2.85004e-06)
(8.72751 0.271913 1.85888e-06)
(8.72745 0.271912 6.8098e-07)
(8.66301 0.2659 5.48948e-07)
(8.66307 0.265902 1.70229e-06)
(8.66307 0.265902 2.81419e-06)
(8.66307 0.265903 3.82985e-06)
(8.66307 0.265903 4.73822e-06)
(8.66307 0.265904 5.48483e-06)
(8.66307 0.265905 6.07291e-06)
(8.66307 0.265905 6.48438e-06)
(8.66307 0.265906 6.72482e-06)
(8.66307 0.265907 6.79853e-06)