/*--------------------------------*- C++ -*----------------------------------*\
| =========                 |                                                 |
| \\      /  F ield         | OpenFOAM: The Open Source CFD Toolbox           |
|  \\    /   O peration     | Version:  2212                                  |
|   \\  /    A nd           | Website:  www.openfoam.com                      |
|    \\/     M anipulation  |                                                 |
\*---------------------------------------------------------------------------*/
FoamFile
{
    version     2.0;
    format      ascii;
    arch        "LSB;label=32;scalar=64";
    class       volVectorField;
    location    "0.000363";
    object      U;
}
// * * * * * * * * * * * * * * * * * * * * * * * * * * * * * * * * * * * * * //

dimensions      [0 1 -1 0 0 0 0];

internalField   nonuniform List<vector> 
56928
(
(3.11002e-11 -0.162811 11.1595)
(3.64602e-11 -0.214839 11.5175)
(4.86963e-11 -0.208852 11.5282)
(-2.06473e-12 -0.22463 11.5322)
(-4.00638e-11 -0.215233 11.5327)
(-2.64965e-11 -0.219585 11.534)
(1.80975e-11 -0.212274 11.534)
(2.55108e-11 -0.210512 11.5342)
(5.44591e-11 -0.205239 11.5339)
(2.9841e-11 -0.201037 11.5335)
(-3.24038e-11 -0.196447 11.5329)
(-3.24871e-11 -0.191989 11.5322)
(-7.62204e-11 -0.187323 11.5314)
(-1.06373e-10 -0.182761 11.5304)
(-1.14306e-10 -0.178048 11.5294)
(-5.09079e-11 -0.173294 11.5283)
(1.04588e-10 -0.168152 11.5271)
(1.85364e-10 -0.162764 11.5256)
(1.06717e-10 -0.157094 11.5241)
(1.03659e-10 -0.15142 11.5225)
(4.20404e-11 -0.145607 11.5209)
(3.43382e-12 -0.139784 11.5192)
(-5.69742e-11 -0.133894 11.5175)
(6.25661e-11 -0.128076 11.5157)
(1.19596e-10 -0.122293 11.5138)
(6.20433e-11 -0.116559 11.512)
(1.19787e-11 -0.111001 11.5102)
(-6.73207e-11 -0.105901 11.5086)
(4.66406e-12 -0.101309 11.5072)
(-1.15746e-10 -0.0969488 11.5058)
(-1.61402e-10 -0.0927268 11.5045)
(-9.23833e-11 -0.0884982 11.5032)
(-5.44031e-11 -0.0839782 11.5018)
(-7.43567e-11 -0.0790037 11.5004)
(-2.12294e-10 -0.0735637 11.4989)
(-2.75921e-10 -0.0678967 11.4974)
(-2.40129e-10 -0.0622512 11.496)
(1.5096e-11 -0.0565877 11.4947)
(-1.52858e-10 -0.0508643 11.4935)
(-9.86311e-12 -0.0449955 11.4924)
(2.25129e-10 -0.039267 11.4914)
(1.13701e-10 -0.0335899 11.4906)
(1.48935e-10 -0.0283406 11.49)
(4.85818e-10 -0.0227627 11.4895)
(1.53459e-09 -0.0177662 11.4891)
(1.65694e-09 -0.0123497 11.4888)
(1.36804e-09 -0.00792531 11.4886)
(2.99825e-11 -0.180181 10.778)
(3.56622e-11 -0.23211 11.4946)
(4.79094e-11 -0.214921 11.5282)
(-9.55556e-13 -0.227005 11.5369)
(-3.78983e-11 -0.216455 11.539)
(-2.49643e-11 -0.220019 11.5414)
(1.63767e-11 -0.212274 11.542)
(2.80045e-11 -0.21028 11.5427)
(5.26229e-11 -0.204753 11.5427)
(2.70394e-11 -0.200426 11.5425)
(-3.41047e-11 -0.195656 11.542)
(-3.04006e-11 -0.191044 11.5414)
(-7.41689e-11 -0.186246 11.5407)
(-1.06483e-10 -0.181555 11.5398)
(-1.12916e-10 -0.176705 11.5389)
(-6.07139e-11 -0.171815 11.5378)
(9.50968e-11 -0.166514 11.5366)
(1.83929e-10 -0.160964 11.5352)
(1.1156e-10 -0.155139 11.5337)
(1.0785e-10 -0.149333 11.5322)
(3.95442e-11 -0.143487 11.5305)
(-3.1391e-13 -0.137718 11.5289)
(-4.86667e-11 -0.131865 11.5273)
(7.2284e-11 -0.125965 11.5256)
(1.28173e-10 -0.12005 11.5239)
(6.32551e-11 -0.114228 11.5222)
(2.76942e-12 -0.108632 11.5206)
(-7.80228e-11 -0.103535 11.519)
(-1.26834e-11 -0.098968 11.5177)
(-1.29366e-10 -0.094643 11.5163)
(-1.59665e-10 -0.09045 11.5151)
(-9.03624e-11 -0.0862579 11.5138)
(-5.21656e-11 -0.0817936 11.5125)
(-7.45845e-11 -0.0769061 11.5111)
(-2.10411e-10 -0.0715823 11.5097)
(-2.69971e-10 -0.066044 11.5082)
(-2.39707e-10 -0.0605359 11.5069)
(1.60826e-11 -0.0550113 11.5056)
(-1.66026e-10 -0.0494404 11.5045)
(-2.45444e-11 -0.0437285 11.5034)
(2.15285e-10 -0.0381689 11.5025)
(1.19818e-10 -0.0326427 11.5018)
(1.48386e-10 -0.0275402 11.5012)
(4.94786e-10 -0.0220936 11.5007)
(1.51634e-09 -0.017259 11.5004)
(1.66025e-09 -0.0119829 11.5002)
(1.36428e-09 -0.00774057 11.5)
(2.87697e-11 -0.197757 10.4021)
(3.37161e-11 -0.260408 11.4725)
(4.52459e-11 -0.228904 11.5393)
(-4.45483e-12 -0.235915 11.5492)
(-4.00379e-11 -0.220399 11.5548)
(-2.75998e-11 -0.222081 11.5596)
(1.7671e-11 -0.213468 11.5616)
(1.89323e-11 -0.210832 11.5632)
(4.98842e-11 -0.204989 11.5637)
(3.30759e-11 -0.200432 11.5638)
(-2.74278e-11 -0.195484 11.5635)
(-3.17489e-11 -0.190684 11.5631)
(-7.28203e-11 -0.185691 11.5625)
(-1.04197e-10 -0.180843 11.5618)
(-1.14691e-10 -0.175851 11.5609)
(-4.31229e-11 -0.170801 11.56)
(1.09782e-10 -0.165369 11.5589)
(1.76222e-10 -0.159665 11.5577)
(1.00413e-10 -0.153669 11.5563)
(9.04099e-11 -0.147751 11.5549)
(3.86683e-11 -0.141784 11.5534)
(6.37544e-12 -0.135881 11.5519)
(-6.53761e-11 -0.129919 11.5503)
(5.04859e-11 -0.124003 11.5486)
(1.07359e-10 -0.118098 11.547)
(7.19011e-11 -0.112264 11.5453)
(3.65493e-11 -0.106662 11.5437)
(-3.85717e-11 -0.101543 11.5423)
(2.60535e-11 -0.0969589 11.541)
(-1.00067e-10 -0.0926338 11.5397)
(-1.45821e-10 -0.0884469 11.5385)
(-7.16968e-11 -0.084259 11.5373)
(-5.0408e-11 -0.0798203 11.536)
(-6.82974e-11 -0.0749966 11.5347)
(-2.11843e-10 -0.0697694 11.5333)
(-2.95165e-10 -0.0643513 11.5319)
(-2.30884e-10 -0.0589761 11.5306)
(-1.09544e-11 -0.0535956 11.5294)
(-1.34821e-10 -0.0481591 11.5284)
(7.59199e-12 -0.0426016 11.5274)
(2.11696e-10 -0.0371717 11.5265)
(9.19733e-11 -0.03182 11.5259)
(1.50814e-10 -0.0268669 11.5253)
(5.00096e-10 -0.0215805 11.5248)
(1.5441e-09 -0.0168649 11.5245)
(1.67808e-09 -0.0117739 11.5244)
(1.3176e-09 -0.00758697 11.5242)
(2.74182e-11 -0.199301 10.0075)
(3.30519e-11 -0.267041 11.453)
(4.69285e-11 -0.246205 11.5541)
(3.56547e-13 -0.249877 11.5698)
(-3.94249e-11 -0.229582 11.5744)
(-2.91381e-11 -0.228921 11.5789)
(1.71526e-11 -0.217556 11.5813)
(3.27214e-11 -0.213736 11.5834)
(5.31346e-11 -0.206703 11.5844)
(2.97594e-11 -0.201415 11.5848)
(-2.45375e-11 -0.195889 11.5848)
(-2.9154e-11 -0.190642 11.5846)
(-7.38843e-11 -0.185312 11.5841)
(-9.68993e-11 -0.180205 11.5835)
(-1.06632e-10 -0.17497 11.5827)
(-5.60593e-11 -0.169697 11.5818)
(9.87943e-11 -0.164058 11.5808)
(1.92475e-10 -0.158181 11.5796)
(1.12537e-10 -0.152035 11.5783)
(1.06441e-10 -0.14594 11.577)
(4.82098e-11 -0.139823 11.5755)
(9.83962e-12 -0.133793 11.574)
(-4.82428e-11 -0.12774 11.5724)
(6.33439e-11 -0.121761 11.5708)
(1.1477e-10 -0.115832 11.5692)
(5.10664e-11 -0.110029 11.5675)
(2.32736e-12 -0.104477 11.566)
(-6.28779e-11 -0.0993951 11.5645)
(-1.2946e-11 -0.0948025 11.5632)
(-1.1283e-10 -0.0904688 11.562)
(-1.5587e-10 -0.0863066 11.5608)
(-1.09475e-10 -0.0821447 11.5597)
(-7.24705e-11 -0.0777532 11.5585)
(-9.28656e-11 -0.0730186 11.5572)
(-2.16876e-10 -0.0679253 11.5559)
(-2.46234e-10 -0.0626708 11.5546)
(-2.15065e-10 -0.0574519 11.5534)
(1.91006e-11 -0.0522366 11.5523)
(-1.35014e-10 -0.0469922 11.5513)
(-4.65582e-12 -0.0415974 11.5503)
(1.9059e-10 -0.0363358 11.5496)
(8.50867e-11 -0.0310513 11.5489)
(1.68521e-10 -0.0261863 11.5484)
(4.22052e-10 -0.0210102 11.548)
(1.35861e-09 -0.0164236 11.5476)
(1.55509e-09 -0.0114688 11.5474)
(1.30234e-09 -0.00739097 11.5472)
(2.61277e-11 -0.193494 9.62464)
(3.33909e-11 -0.265159 11.4191)
(4.42624e-11 -0.252454 11.5891)
(-2.77121e-12 -0.254197 11.5937)
(-3.36157e-11 -0.237881 11.5958)
(-2.77944e-11 -0.234988 11.5991)
(1.87923e-11 -0.222003 11.6006)
(1.63932e-11 -0.216745 11.6019)
(4.9556e-11 -0.208741 11.6022)
(2.59582e-11 -0.202778 11.6023)
(-3.66711e-11 -0.19661 11.6021)
(-3.3588e-11 -0.190862 11.6017)
(-8.01017e-11 -0.185119 11.6011)
(-1.05566e-10 -0.179658 11.6004)
(-1.08927e-10 -0.17416 11.5996)
(-3.93466e-11 -0.168589 11.5988)
(8.94596e-11 -0.162703 11.5977)
(1.59253e-10 -0.1566 11.5965)
(1.00322e-10 -0.15024 11.5953)
(9.56389e-11 -0.14398 11.5939)
(3.01147e-11 -0.137704 11.5925)
(-5.20817e-12 -0.131558 11.5911)
(-5.93768e-11 -0.125424 11.5896)
(4.84872e-11 -0.1194 11.588)
(1.111e-10 -0.113427 11.5864)
(7.32909e-11 -0.107627 11.5848)
(1.86578e-11 -0.102119 11.5833)
(-6.38972e-11 -0.0970713 11.582)
(-1.09784e-11 -0.0925193 11.5808)
(-1.06721e-10 -0.0882571 11.5796)
(-1.49154e-10 -0.0841535 11.5785)
(-9.13436e-11 -0.0800616 11.5774)
(-5.1553e-11 -0.0757777 11.5763)
(-7.0802e-11 -0.0711342 11.5752)
(-1.92113e-10 -0.0661594 11.5739)
(-3.02693e-10 -0.0610447 11.5727)
(-2.47797e-10 -0.0559571 11.5716)
(-8.68293e-12 -0.0508645 11.5706)
(-1.69654e-10 -0.0457476 11.5697)
(-1.0932e-11 -0.0405141 11.5688)
(2.2694e-10 -0.0353818 11.568)
(1.4385e-10 -0.0302956 11.5674)
(1.6936e-10 -0.0255475 11.5669)
(4.82999e-10 -0.0205238 11.5665)
(1.44735e-09 -0.0160389 11.5661)
(1.62422e-09 -0.0111902 11.566)
(1.2887e-09 -0.00720857 11.5656)
(2.36191e-11 -0.187119 9.24914)
(3.14317e-11 -0.262678 11.371)
(4.33709e-11 -0.255159 11.6095)
(4.85763e-13 -0.254868 11.618)
(-3.58316e-11 -0.237671 11.619)
(-2.84421e-11 -0.234981 11.6204)
(6.53924e-12 -0.222756 11.62)
(2.49362e-11 -0.217221 11.6198)
(5.33695e-11 -0.208965 11.6194)
(3.8414e-11 -0.202824 11.6189)
(-2.00449e-11 -0.196456 11.6182)
(-2.81859e-11 -0.190557 11.6174)
(-6.17935e-11 -0.184646 11.6166)
(-1.0672e-10 -0.178994 11.6157)
(-1.04797e-10 -0.173275 11.6148)
(-6.10686e-11 -0.1675 11.6138)
(1.02138e-10 -0.161342 11.6127)
(1.86696e-10 -0.15506 11.6115)
(1.09776e-10 -0.148571 11.6103)
(1.01206e-10 -0.142164 11.6089)
(5.18361e-11 -0.13578 11.6075)
(1.47158e-11 -0.129543 11.6061)
(-4.63442e-11 -0.123342 11.6047)
(5.55101e-11 -0.117245 11.6032)
(1.14901e-10 -0.111239 11.6017)
(6.27794e-11 -0.10542 11.6002)
(9.72414e-12 -0.0999186 11.5988)
(-6.328e-11 -0.094935 11.5975)
(-8.63414e-12 -0.0904944 11.5964)
(-1.23011e-10 -0.0863217 11.5954)
(-1.61744e-10 -0.0822956 11.5944)
(-8.58026e-11 -0.0782864 11.5934)
(-5.51421e-11 -0.0740733 11.5924)
(-6.4303e-11 -0.06953 11.5914)
(-1.90766e-10 -0.0646307 11.5904)
(-2.46063e-10 -0.0595964 11.5893)
(-1.98576e-10 -0.054593 11.5883)
(3.22778e-11 -0.0495871 11.5874)
(-1.41495e-10 -0.0445805 11.5866)
(-1.10463e-12 -0.0394862 11.5858)
(1.76387e-10 -0.034507 11.5851)
(5.5775e-11 -0.0295079 11.5845)
(5.88292e-11 -0.0249303 11.584)
(5.04486e-10 -0.0199369 11.5836)
(1.49084e-09 -0.0156723 11.5832)
(1.60438e-09 -0.0106896 11.5831)
(1.37503e-09 -0.00713771 11.5827)
(2.23522e-11 -0.17625 8.87571)
(2.94751e-11 -0.25551 11.3127)
(4.25161e-11 -0.254687 11.6215)
(-4.22511e-13 -0.255076 11.6452)
(-3.2673e-11 -0.237244 11.6423)
(-2.54862e-11 -0.235208 11.6395)
(1.88588e-11 -0.223511 11.6372)
(2.17076e-11 -0.218055 11.6363)
(5.14999e-11 -0.209469 11.6354)
(3.27985e-11 -0.202939 11.6347)
(-3.65135e-11 -0.196195 11.6339)
(-3.2032e-11 -0.189987 11.6331)
(-6.21808e-11 -0.183747 11.6323)
(-9.43659e-11 -0.177852 11.6313)
(-1.1022e-10 -0.171931 11.6304)
(-5.21313e-11 -0.165983 11.6293)
(7.99958e-11 -0.159679 11.6282)
(1.45164e-10 -0.153235 11.627)
(9.86081e-11 -0.146624 11.6257)
(8.79677e-11 -0.140104 11.6244)
(2.64223e-11 -0.133628 11.623)
(-8.90537e-12 -0.127345 11.6217)
(-4.41371e-11 -0.12114 11.6203)
(5.49419e-11 -0.115014 11.6189)
(1.18206e-10 -0.109017 11.6175)
(7.25038e-11 -0.1032 11.6161)
(2.62576e-11 -0.0977065 11.6148)
(-4.7933e-11 -0.0927861 11.6136)
(5.0219e-12 -0.0884282 11.6126)
(-7.89112e-11 -0.0843414 11.6117)
(-1.28639e-10 -0.0804433 11.6108)
(-7.93733e-11 -0.0765723 11.61)
(-6.00705e-11 -0.0724369 11.6092)
(-8.48541e-11 -0.067958 11.6083)
(-2.13146e-10 -0.0631172 11.6074)
(-2.87314e-10 -0.0581124 11.6065)
(-2.24086e-10 -0.0531461 11.6057)
(-4.72031e-11 -0.0482173 11.605)
(-1.2722e-10 -0.0432904 11.6043)
(1.28383e-11 -0.0382325 11.6036)
(1.69413e-10 -0.0333534 11.603)
(9.20311e-11 -0.0284725 11.6026)
(1.84635e-10 -0.0240312 11.6021)
(4.75835e-10 -0.0191704 11.6018)
(1.38899e-09 -0.0150236 11.6015)
(1.57265e-09 -0.0101701 11.6011)
(1.2739e-09 -0.00679877 11.6012)
(2.09833e-11 -0.1628 8.52141)
(2.74618e-11 -0.244241 11.2421)
(4.17956e-11 -0.251827 11.6293)
(-3.57802e-13 -0.253365 11.6668)
(-3.34974e-11 -0.238942 11.6634)
(-2.67467e-11 -0.236535 11.6599)
(9.01452e-12 -0.224627 11.6571)
(2.50598e-11 -0.218509 11.6547)
(4.34938e-11 -0.209626 11.653)
(2.22031e-11 -0.202673 11.6516)
(-2.281e-11 -0.195532 11.6503)
(-2.54355e-11 -0.1889 11.6492)
(-7.34176e-11 -0.182302 11.6481)
(-9.7156e-11 -0.176056 11.6471)
(-1.02133e-10 -0.169844 11.646)
(-5.30712e-11 -0.163688 11.6448)
(8.47522e-11 -0.157199 11.6436)
(1.77516e-10 -0.150612 11.6423)
(1.02949e-10 -0.143929 11.6409)
(8.97854e-11 -0.137329 11.6396)
(4.15532e-11 -0.130838 11.6382)
(3.34665e-12 -0.124582 11.6368)
(-5.44694e-11 -0.11838 11.6354)
(4.9322e-11 -0.11232 11.6341)
(9.82434e-11 -0.106392 11.6328)
(5.95605e-11 -0.10066 11.6315)
(1.03463e-11 -0.0952152 11.6303)
(-5.63663e-11 -0.0903536 11.6293)
(-2.79993e-11 -0.0860835 11.6284)
(-1.04023e-10 -0.0821033 11.6276)
(-1.33378e-10 -0.078268 11.6268)
(-6.68454e-11 -0.0744832 11.626)
(-3.37567e-11 -0.0704958 11.6253)
(-5.33723e-11 -0.0661282 11.6245)
(-1.82548e-10 -0.0613873 11.6238)
(-2.53129e-10 -0.0564952 11.6231)
(-2.12846e-10 -0.0516814 11.6224)
(-2.2537e-12 -0.0468594 11.6218)
(-1.41325e-10 -0.0420104 11.6213)
(-1.95471e-11 -0.037075 11.6207)
(1.8128e-10 -0.0322851 11.6203)
(7.63665e-11 -0.0275843 11.6199)
(1.53362e-10 -0.02323 11.6196)
(4.21093e-10 -0.0186597 11.6193)
(1.30548e-09 -0.0145375 11.6191)
(1.40333e-09 -0.0101733 11.6187)
(1.26744e-09 -0.00648868 11.6189)
(2.00264e-11 -0.149412 8.17513)
(2.7656e-11 -0.233217 11.1651)
(4.06199e-11 -0.243585 11.6331)
(2.98884e-13 -0.247792 11.6855)
(-2.72214e-11 -0.235454 11.6857)
(-2.93922e-11 -0.232649 11.6835)
(1.80078e-11 -0.221762 11.6806)
(2.50548e-11 -0.215544 11.6774)
(5.10385e-11 -0.207218 11.675)
(3.85536e-11 -0.20024 11.6727)
(-1.93792e-11 -0.193081 11.6708)
(-2.5372e-11 -0.186334 11.6691)
(-6.14552e-11 -0.179594 11.6675)
(-9.42784e-11 -0.1732 11.666)
(-1.03259e-10 -0.166764 11.6646)
(-3.17484e-11 -0.16044 11.6632)
(8.8586e-11 -0.153862 11.6617)
(1.64869e-10 -0.147237 11.6601)
(1.01306e-10 -0.140526 11.6585)
(9.32456e-11 -0.133974 11.6569)
(4.11466e-11 -0.127565 11.6554)
(4.59568e-12 -0.121337 11.6539)
(-4.53112e-11 -0.11528 11.6525)
(2.89318e-11 -0.109378 11.6511)
(9.28994e-11 -0.10358 11.6498)
(6.76838e-11 -0.0979842 11.6486)
(3.26557e-11 -0.0926896 11.6475)
(-4.72852e-11 -0.0879336 11.6465)
(-1.20247e-11 -0.0837028 11.6457)
(-9.56277e-11 -0.0797609 11.645)
(-1.43081e-10 -0.076008 11.6443)
(-1.08609e-10 -0.0723212 11.6437)
(-6.72456e-11 -0.0684168 11.643)
(-8.09553e-11 -0.0641452 11.6424)
(-1.89407e-10 -0.0595405 11.6417)
(-2.56136e-10 -0.0548022 11.6411)
(-1.62591e-10 -0.0501614 11.6405)
(-3.17759e-12 -0.0455278 11.64)
(-1.34868e-10 -0.0408571 11.6395)
(-2.54921e-12 -0.0361245 11.6391)
(1.62475e-10 -0.0315111 11.6387)
(1.02609e-10 -0.0269614 11.6384)
(2.33017e-10 -0.0227625 11.638)
(4.60253e-10 -0.0183464 11.6379)
(1.28617e-09 -0.0143136 11.6375)
(1.4152e-09 -0.0102377 11.6375)
(1.11851e-09 -0.00649973 11.6372)
(1.60176e-11 -0.134978 7.8571)
(2.6605e-11 -0.222515 11.0871)
(3.9313e-11 -0.233759 11.6281)
(-5.6716e-13 -0.239535 11.7008)
(-3.16908e-11 -0.227306 11.7055)
(-2.90501e-11 -0.226802 11.704)
(4.63278e-12 -0.21644 11.7017)
(1.78697e-11 -0.211026 11.6995)
(4.57205e-11 -0.203002 11.6972)
(2.64707e-11 -0.196121 11.6951)
(-2.84061e-11 -0.189132 11.6931)
(-3.91477e-11 -0.182414 11.6913)
(-7.42337e-11 -0.175725 11.6894)
(-1.0172e-10 -0.169324 11.6877)
(-9.19417e-11 -0.162928 11.686)
(-4.69042e-11 -0.156625 11.6842)
(9.12295e-11 -0.150155 11.6824)
(1.66775e-10 -0.143647 11.6806)
(1.00142e-10 -0.136975 11.6788)
(1.01084e-10 -0.13057 11.677)
(4.33156e-11 -0.124307 11.6753)
(-5.41587e-12 -0.118258 11.6737)
(-3.43128e-11 -0.112335 11.6723)
(5.29392e-11 -0.106536 11.6709)
(1.17391e-10 -0.100914 11.6696)
(6.4952e-11 -0.0954909 11.6685)
(1.67001e-11 -0.0903314 11.6674)
(-6.70855e-11 -0.0856665 11.6665)
(-3.14733e-11 -0.0815421 11.6658)
(-1.07684e-10 -0.0776938 11.6651)
(-1.45815e-10 -0.0740036 11.6646)
(-8.75709e-11 -0.0703494 11.6641)
(-5.82254e-11 -0.0664691 11.6636)
(-4.92156e-11 -0.0622547 11.6631)
(-1.47547e-10 -0.0577437 11.6627)
(-2.43036e-10 -0.0530998 11.6622)
(-1.92956e-10 -0.0485374 11.6618)
(1.12657e-11 -0.0440562 11.6613)
(-1.24533e-10 -0.0395495 11.6609)
(-6.71446e-12 -0.0349073 11.6606)
(1.83151e-10 -0.0305158 11.6603)
(9.47259e-11 -0.0260246 11.6601)
(6.54563e-11 -0.0220202 11.6597)
(4.65834e-10 -0.0176715 11.6597)
(1.33608e-09 -0.0138638 11.6592)
(1.47334e-09 -0.00974789 11.6595)
(1.19497e-09 -0.00642605 11.6589)
(1.45822e-11 -0.120505 7.5679)
(2.50978e-11 -0.211205 11.0084)
(3.78202e-11 -0.223887 11.6195)
(-8.65452e-13 -0.230468 11.7176)
(-3.20598e-11 -0.219313 11.7205)
(-2.9655e-11 -0.219018 11.7217)
(8.53779e-12 -0.21023 11.7204)
(1.92109e-11 -0.205746 11.7191)
(5.8847e-11 -0.198039 11.7173)
(3.62559e-11 -0.191581 11.7156)
(-3.4382e-11 -0.184745 11.7137)
(-3.759e-11 -0.178163 11.7119)
(-6.16032e-11 -0.171605 11.71)
(-9.7882e-11 -0.165359 11.7082)
(-1.14644e-10 -0.159162 11.7063)
(-5.07265e-11 -0.153044 11.7044)
(7.42148e-11 -0.146731 11.7025)
(1.44964e-10 -0.140354 11.7005)
(9.65259e-11 -0.133857 11.6985)
(8.73761e-11 -0.12763 11.6967)
(4.16327e-11 -0.121515 11.6949)
(6.13081e-12 -0.115626 11.6933)
(-4.76594e-11 -0.10984 11.6918)
(3.68201e-11 -0.104194 11.6905)
(1.09605e-10 -0.0987043 11.6893)
(7.60044e-11 -0.0934019 11.6883)
(4.31512e-12 -0.0883417 11.6874)
(-4.94477e-11 -0.0837699 11.6866)
(-7.18204e-13 -0.0797155 11.686)
(-7.78695e-11 -0.0759161 11.6855)
(-1.32979e-10 -0.0722735 11.6851)
(-8.85214e-11 -0.0686616 11.6847)
(-6.60341e-11 -0.0648406 11.6844)
(-8.79213e-11 -0.0606975 11.6842)
(-1.90906e-10 -0.0562506 11.6839)
(-2.44795e-10 -0.0516954 11.6836)
(-1.88332e-10 -0.0471921 11.6834)
(-2.02898e-11 -0.0426917 11.6832)
(-1.30452e-10 -0.0382671 11.683)
(-2.61542e-12 -0.0337228 11.6829)
(1.58943e-10 -0.0294129 11.6827)
(5.60051e-11 -0.0250484 11.6826)
(1.27635e-10 -0.0211252 11.6824)
(4.50421e-10 -0.0168641 11.6824)
(1.37413e-09 -0.0132053 11.6822)
(1.36772e-09 -0.0090229 11.6824)
(1.04893e-09 -0.00609817 11.682)
(1.66845e-11 -0.104277 7.28785)
(2.56062e-11 -0.198044 10.925)
(3.77815e-11 -0.212818 11.6069)
(8.48847e-13 -0.223806 11.7276)
(-2.81826e-11 -0.212687 11.7417)
(-2.25356e-11 -0.21097 11.739)
(1.00636e-11 -0.203811 11.7377)
(2.71391e-11 -0.199622 11.737)
(4.1006e-11 -0.192735 11.7358)
(2.98826e-11 -0.186902 11.7343)
(-2.04176e-11 -0.180452 11.7326)
(-2.30701e-11 -0.174267 11.7309)
(-5.83082e-11 -0.167935 11.729)
(-9.44995e-11 -0.161929 11.7271)
(-1.051e-10 -0.155901 11.7252)
(-5.7633e-11 -0.149973 11.7232)
(7.92986e-11 -0.143796 11.7211)
(1.6761e-10 -0.137521 11.719)
(1.085e-10 -0.131202 11.717)
(9.08528e-11 -0.125115 11.715)
(3.93063e-11 -0.119108 11.7132)
(-2.0851e-11 -0.113347 11.7116)
(-3.40012e-11 -0.107703 11.7101)
(7.59116e-11 -0.102192 11.7088)
(1.17299e-10 -0.0967957 11.7077)
(5.53637e-11 -0.0915748 11.7068)
(1.24359e-11 -0.0866174 11.706)
(-7.46438e-11 -0.0821322 11.7054)
(-4.17024e-11 -0.0781393 11.7049)
(-1.10827e-10 -0.0743886 11.7046)
(-1.45299e-10 -0.0707877 11.7043)
(-9.2202e-11 -0.0672015 11.704)
(-3.86298e-11 -0.063411 11.7039)
(-6.03787e-11 -0.0593165 11.7038)
(-1.91103e-10 -0.0549408 11.7037)
(-2.37044e-10 -0.05043 11.7036)
(-2.16445e-10 -0.046008 11.7036)
(-4.44227e-11 -0.0416149 11.7036)
(-9.36407e-11 -0.0372753 11.7037)
(-9.29747e-12 -0.0328461 11.7038)
(1.7403e-10 -0.028577 11.7037)
(1.25742e-10 -0.0243104 11.7037)
(1.74078e-10 -0.0204766 11.7037)
(4.56473e-10 -0.0163022 11.7038)
(1.29081e-09 -0.0127429 11.7037)
(1.5227e-09 -0.00864357 11.7038)
(1.39435e-09 -0.00576466 11.7036)
(8.96762e-12 -0.0844077 7.03363)
(2.28342e-11 -0.183344 10.8327)
(3.7486e-11 -0.202373 11.5875)
(2.58346e-12 -0.218022 11.735)
(-2.61508e-11 -0.209368 11.7576)
(-2.92967e-11 -0.210922 11.7544)
(8.07332e-12 -0.201862 11.7546)
(2.06638e-11 -0.197029 11.7547)
(4.33976e-11 -0.189834 11.7542)
(2.1312e-11 -0.183862 11.7532)
(-2.25976e-11 -0.177296 11.7518)
(-2.93066e-11 -0.171137 11.7501)
(-6.02078e-11 -0.164835 11.7483)
(-8.95507e-11 -0.158848 11.7463)
(-1.06012e-10 -0.152848 11.7443)
(-4.90696e-11 -0.146972 11.7422)
(6.77286e-11 -0.140865 11.74)
(1.48217e-10 -0.134638 11.7378)
(1.01909e-10 -0.128447 11.7356)
(8.3359e-11 -0.122452 11.7336)
(4.64848e-11 -0.116565 11.7317)
(1.86813e-11 -0.110929 11.73)
(-5.92953e-11 -0.10539 11.7286)
(2.74238e-11 -0.0999762 11.7273)
(7.68055e-11 -0.0946683 11.7263)
(7.10189e-11 -0.0895463 11.7254)
(4.17835e-11 -0.0846748 11.7248)
(-1.48557e-11 -0.0802378 11.7243)
(-1.93827e-11 -0.076294 11.7239)
(-1.01293e-10 -0.0725594 11.7237)
(-1.12361e-10 -0.0689666 11.7235)
(-6.08016e-11 -0.0654156 11.7234)
(-5.3722e-11 -0.0616646 11.7233)
(-7.70901e-11 -0.057654 11.7233)
(-2.1319e-10 -0.053393 11.7233)
(-2.93908e-10 -0.0490045 11.7233)
(-1.74045e-10 -0.0446718 11.7234)
(-1.72523e-11 -0.0403631 11.7235)
(-1.05339e-10 -0.0361219 11.7237)
(-2.25759e-11 -0.0317842 11.7238)
(1.88504e-10 -0.0277026 11.7239)
(1.0127e-10 -0.0235632 11.724)
(2.131e-10 -0.019874 11.7241)
(4.99171e-10 -0.0158938 11.7241)
(1.30556e-09 -0.0124423 11.7241)
(1.42824e-09 -0.00860835 11.7241)
(9.65191e-10 -0.00561256 11.724)
(1.70926e-11 -0.0613389 6.81219)
(2.23972e-11 -0.170127 10.7306)
(3.50961e-11 -0.195717 11.5586)
(4.29e-12 -0.21836 11.7342)
(-2.66012e-11 -0.213506 11.7663)
(-2.83715e-11 -0.213804 11.7704)
(3.19436e-12 -0.204247 11.7739)
(2.06604e-11 -0.197714 11.7742)
(3.31566e-11 -0.189231 11.774)
(1.66155e-11 -0.182241 11.7732)
(-1.65679e-11 -0.174873 11.7718)
(-2.64009e-11 -0.1682 11.7701)
(-6.23978e-11 -0.161537 11.7681)
(-8.46939e-11 -0.155339 11.766)
(-7.96652e-11 -0.149247 11.7638)
(-3.61055e-11 -0.143289 11.7615)
(7.5682e-11 -0.137168 11.7591)
(1.54012e-10 -0.131034 11.7567)
(9.57637e-11 -0.124923 11.7544)
(7.28146e-11 -0.119028 11.7523)
(3.65431e-11 -0.113281 11.7504)
(-1.59902e-12 -0.107739 11.7487)
(-2.18988e-11 -0.102317 11.7472)
(4.07743e-11 -0.0970173 11.746)
(1.05056e-10 -0.091802 11.7449)
(7.39734e-11 -0.0867734 11.7441)
(3.33933e-11 -0.0819738 11.7435)
(-2.0896e-11 -0.077606 11.7431)
(-1.13456e-11 -0.0737193 11.7428)
(-8.48464e-11 -0.0700527 11.7426)
(-1.03706e-10 -0.0665272 11.7425)
(-5.86365e-11 -0.0630246 11.7424)
(-3.12094e-11 -0.0593438 11.7424)
(-5.30157e-11 -0.0554084 11.7424)
(-1.6073e-10 -0.0512199 11.7425)
(-2.08582e-10 -0.0469385 11.7425)
(-1.7097e-10 -0.0427614 11.7427)
(-7.69826e-12 -0.0385877 11.7428)
(-1.05683e-10 -0.0345425 11.743)
(5.79792e-13 -0.0303875 11.7432)
(1.23957e-10 -0.0265818 11.7435)
(5.93035e-12 -0.0226171 11.7436)
(1.14951e-10 -0.0191081 11.7438)
(4.92134e-10 -0.0153015 11.7439)
(1.16682e-09 -0.0119409 11.7439)
(1.29779e-09 -0.00828999 11.7438)
(1.04441e-09 -0.0054518 11.7437)
(5.8326e-12 -0.0350793 6.6316)
(1.49852e-11 -0.156523 10.6156)
(3.38943e-11 -0.194375 11.5161)
(5.48392e-12 -0.225117 11.7262)
(-2.4591e-11 -0.228034 11.7796)
(-3.463e-11 -0.216702 11.7903)
(1.08092e-11 -0.208613 11.7959)
(3.59958e-12 -0.198407 11.7959)
(2.2878e-11 -0.188665 11.7956)
(3.16857e-11 -0.180105 11.7941)
(-1.74604e-11 -0.17178 11.7923)
(-2.75281e-11 -0.164397 11.7901)
(-5.32128e-11 -0.157252 11.7877)
(-6.67247e-11 -0.150798 11.7852)
(-9.24873e-11 -0.144563 11.7827)
(-4.64382e-11 -0.138549 11.7801)
(4.98145e-11 -0.132453 11.7775)
(1.15769e-10 -0.126419 11.775)
(9.22781e-11 -0.120405 11.7725)
(6.56433e-11 -0.114631 11.7703)
(2.18294e-11 -0.109008 11.7683)
(1.28089e-11 -0.103599 11.7666)
(-4.29456e-11 -0.0982903 11.7651)
(1.76434e-11 -0.0930846 11.7638)
(7.75663e-11 -0.0879706 11.7628)
(6.11624e-11 -0.0830503 11.762)
(1.93555e-11 -0.0783837 11.7613)
(-2.74649e-11 -0.074114 11.761)
(-6.71199e-12 -0.0703203 11.7607)
(-7.94871e-11 -0.0667535 11.7605)
(-1.14675e-10 -0.063323 11.7604)
(-8.15807e-11 -0.0599261 11.7603)
(-7.62151e-11 -0.0563515 11.7603)
(-7.52772e-11 -0.052548 11.7603)
(-1.55346e-10 -0.0485205 11.7604)
(-2.34978e-10 -0.0444108 11.7605)
(-1.63922e-10 -0.0404265 11.7607)
(-6.33059e-11 -0.036452 11.7609)
(-1.07342e-10 -0.0326287 11.7612)
(1.49484e-11 -0.0286724 11.7614)
(1.33703e-10 -0.0250213 11.7617)
(2.90577e-11 -0.0212607 11.7617)
(2.02974e-10 -0.01795 11.762)
(4.47172e-10 -0.0143386 11.762)
(1.10516e-09 -0.011274 11.7621)
(1.29971e-09 -0.00772042 11.762)
(9.8334e-10 -0.00527067 11.7618)
(1.21873e-11 -0.0098722 6.48795)
(1.63006e-11 -0.141802 10.4783)
(2.80632e-11 -0.204528 11.4526)
(4.9871e-12 -0.242589 11.7003)
(-1.92892e-11 -0.242112 11.8033)
(-3.46619e-11 -0.224987 11.8151)
(5.45992e-12 -0.212337 11.8206)
(1.95975e-11 -0.197915 11.8201)
(3.47087e-11 -0.1866 11.8189)
(2.09177e-11 -0.176257 11.8161)
(-1.41769e-11 -0.16716 11.8132)
(-2.57112e-11 -0.159117 11.8101)
(-3.46033e-11 -0.151688 11.8069)
(-6.87782e-11 -0.14505 11.8039)
(-7.1962e-11 -0.138766 11.8008)
(-4.37957e-11 -0.132773 11.7979)
(3.7739e-11 -0.126767 11.795)
(1.04333e-10 -0.120845 11.7922)
(8.15436e-11 -0.114948 11.7896)
(6.97928e-11 -0.10932 11.7873)
(2.91557e-11 -0.103849 11.7852)
(8.73105e-13 -0.0985939 11.7835)
(-2.65844e-11 -0.0933999 11.782)
(2.58388e-11 -0.0883197 11.7807)
(7.85077e-11 -0.0833604 11.7797)
(5.77764e-11 -0.0785801 11.779)
(2.01076e-11 -0.0740398 11.7784)
(-3.40091e-11 -0.0699113 11.778)
(-6.09861e-11 -0.066243 11.7777)
(-8.97129e-11 -0.0627914 11.7776)
(-9.40275e-11 -0.0594867 11.7774)
(-7.13299e-11 -0.0562466 11.7774)
(-5.09637e-11 -0.0528313 11.7773)
(-5.96698e-11 -0.0492258 11.7773)
(-1.21072e-10 -0.0454098 11.7774)
(-1.70452e-10 -0.0415403 11.7775)
(-1.47109e-10 -0.0377659 11.7777)
(-6.51955e-11 -0.0340351 11.7779)
(-1.44226e-10 -0.0304202 11.7781)
(-2.65735e-11 -0.0267269 11.7782)
(6.31093e-11 -0.0232578 11.7784)
(4.30775e-11 -0.019807 11.7784)
(1.43067e-10 -0.0166938 11.7786)
(4.27694e-10 -0.0133528 11.7785)
(9.69673e-10 -0.0104927 11.7786)
(1.2368e-09 -0.00708588 11.7785)
(1.02638e-09 -0.00496509 11.7783)
(7.75949e-12 0.00329736 6.37689)
(5.21908e-12 -0.128633 10.3057)
(2.37796e-11 -0.226351 11.3547)
(4.97826e-12 -0.250267 11.6851)
(-1.31309e-11 -0.247177 11.8272)
(-3.17511e-11 -0.232635 11.8456)
(1.33309e-12 -0.212038 11.851)
(1.27044e-11 -0.194508 11.8476)
(3.06928e-11 -0.18147 11.8438)
(3.3253e-11 -0.169877 11.8388)
(-9.32654e-12 -0.160359 11.8344)
(-2.13881e-11 -0.152043 11.8299)
(-4.80731e-11 -0.14456 11.8257)
(-7.29382e-11 -0.137952 11.8219)
(-7.74555e-11 -0.131803 11.8183)
(-4.55667e-11 -0.125981 11.8149)
(3.47093e-11 -0.120151 11.8117)
(8.92978e-11 -0.114404 11.8086)
(8.39509e-11 -0.108693 11.8059)
(6.9391e-11 -0.103252 11.8035)
(3.14031e-11 -0.0979784 11.8014)
(-4.55571e-12 -0.0928688 11.7997)
(-4.59068e-11 -0.0878678 11.7982)
(-5.30251e-13 -0.0829812 11.797)
(6.31569e-11 -0.0781725 11.7961)
(7.46485e-11 -0.0735352 11.7953)
(3.56981e-11 -0.0691595 11.7948)
(-6.43615e-12 -0.0652112 11.7944)
(-2.80442e-11 -0.0617074 11.7942)
(-7.92544e-11 -0.0584242 11.794)
(-8.47205e-11 -0.0552891 11.7939)
(-3.68623e-11 -0.0522141 11.7939)
(-4.55247e-11 -0.048993 11.7938)
(-4.2768e-11 -0.0456033 11.7938)
(-1.34758e-10 -0.0419874 11.7938)
(-1.87734e-10 -0.0383807 11.7939)
(-8.55238e-11 -0.0348247 11.794)
(-4.93858e-11 -0.0313768 11.794)
(-1.09475e-10 -0.0279645 11.7942)
(-2.13412e-11 -0.0245764 11.7941)
(2.95024e-11 -0.0213372 11.7943)
(2.4375e-11 -0.0181887 11.7942)
(1.29997e-10 -0.0153078 11.7945)
(3.49217e-10 -0.0122267 11.7942)
(8.43476e-10 -0.00971598 11.7944)
(1.12054e-09 -0.00645267 11.794)
(1.01145e-09 -0.00462802 11.7942)
(1.1887e-11 0.00195276 6.28639)
(1.12722e-11 -0.118725 10.114)
(2.16884e-11 -0.230025 11.2603)
(6.22259e-12 -0.246514 11.6847)
(-1.00213e-11 -0.244387 11.8416)
(-1.99786e-11 -0.225422 11.8807)
(-5.32974e-12 -0.204333 11.8851)
(8.57874e-12 -0.18499 11.876)
(2.7099e-11 -0.172128 11.8687)
(3.3733e-11 -0.16033 11.8608)
(-4.77698e-12 -0.15122 11.8546)
(-1.85475e-11 -0.143069 11.8486)
(-4.5028e-11 -0.13598 11.8435)
(-7.04166e-11 -0.12966 11.8388)
(-6.73094e-11 -0.123787 11.8347)
(-2.79198e-11 -0.118266 11.831)
(5.03548e-11 -0.112687 11.8275)
(1.14726e-10 -0.10719 11.8242)
(8.3581e-11 -0.101755 11.8214)
(6.63168e-11 -0.0965167 11.819)
(3.79542e-11 -0.0914384 11.8169)
(-1.13129e-11 -0.0865182 11.8152)
(-1.88204e-11 -0.0817148 11.8138)
(1.28099e-11 -0.0770278 11.8127)
(6.1989e-11 -0.0724164 11.8118)
(4.96672e-11 -0.0679652 11.8111)
(2.51813e-11 -0.0637814 11.8106)
(-9.74388e-12 -0.0600273 11.8103)
(-1.62691e-11 -0.0566987 11.8101)
(-6.46293e-11 -0.0535961 11.81)
(-8.82546e-11 -0.0506589 11.8098)
(-6.76496e-11 -0.0477785 11.8098)
(-4.57896e-11 -0.0447516 11.8097)
(-5.58806e-11 -0.0415939 11.8096)
(-1.42434e-10 -0.0381966 11.8096)
(-1.84271e-10 -0.0348524 11.8097)
(-9.69907e-11 -0.0315512 11.8098)
(-1.40843e-11 -0.0284295 11.8097)
(-2.31804e-11 -0.02526 11.8098)
(3.11804e-11 -0.0222397 11.8097)
(7.71835e-11 -0.0191967 11.8099)
(-3.306e-11 -0.0163916 11.8097)
(8.9293e-11 -0.0136667 11.8099)
(3.33985e-10 -0.0109016 11.8095)
(7.64517e-10 -0.00855988 11.8099)
(9.31489e-10 -0.00565182 11.8091)
(9.58949e-10 -0.00406684 11.8096)
(1.31212e-11 -0.00479314 6.20787)
(3.72058e-12 -0.107721 9.96099)
(1.70339e-11 -0.211512 11.1795)
(6.60771e-12 -0.232967 11.684)
(-7.9665e-12 -0.230825 11.8621)
(-2.44695e-11 -0.202201 11.9156)
(-4.61232e-12 -0.188845 11.9156)
(1.0062e-11 -0.170084 11.9014)
(3.02805e-11 -0.159393 11.8907)
(3.16818e-11 -0.148437 11.8802)
(-1.72697e-11 -0.140506 11.8725)
(-1.67921e-11 -0.132914 11.8651)
(-3.01353e-11 -0.126572 11.8593)
(-4.99989e-11 -0.120679 11.854)
(-7.06161e-11 -0.115293 11.8496)
(-3.42999e-11 -0.110061 11.8454)
(3.26494e-11 -0.104831 11.8418)
(9.42421e-11 -0.0996303 11.8385)
(7.64082e-11 -0.0944683 11.8356)
(5.58915e-11 -0.0894792 11.8332)
(3.76463e-11 -0.0846038 11.8313)
(-6.17429e-12 -0.0798784 11.8297)
(-2.90836e-11 -0.0752605 11.8284)
(-1.53392e-12 -0.0707511 11.8274)
(6.86826e-11 -0.066329 11.8266)
(7.69169e-11 -0.0621066 11.826)
(3.37792e-11 -0.0581284 11.8256)
(-2.83642e-11 -0.0545599 11.8252)
(-1.9767e-11 -0.0514163 11.8251)
(-5.52282e-11 -0.0485015 11.8249)
(-7.551e-11 -0.0457602 11.8248)
(-7.68987e-11 -0.0430895 11.8248)
(-6.50295e-11 -0.0402816 11.8247)
(-4.9346e-11 -0.0373739 11.8247)
(-1.20879e-10 -0.0342568 11.8247)
(-2.05302e-10 -0.0312217 11.8247)
(-1.22285e-10 -0.0281879 11.8248)
(-5.07783e-11 -0.0253863 11.8248)
(-6.14012e-11 -0.0225036 11.8249)
(3.16411e-11 -0.0198543 11.8248)
(5.57611e-11 -0.0170757 11.825)
(-3.7117e-12 -0.0146775 11.8248)
(4.96596e-11 -0.0121593 11.8251)
(2.02071e-10 -0.00985205 11.8245)
(6.72338e-10 -0.00758054 11.825)