/*--------------------------------*- C++ -*----------------------------------*\
| =========                 |                                                 |
| \\      /  F ield         | OpenFOAM: The Open Source CFD Toolbox           |
|  \\    /   O peration     | Version:  2212                                  |
|   \\  /    A nd           | Website:  www.openfoam.com                      |
|    \\/     M anipulation  |                                                 |
\*---------------------------------------------------------------------------*/
FoamFile
{
    version     2.0;
    format      ascii;
    arch        "LSB;label=32;scalar=64";
    class       volScalarField;
    location    "0.355";
    object      k_0;
}
// * * * * * * * * * * * * * * * * * * * * * * * * * * * * * * * * * * * * * //

dimensions      [0 2 -2 0 0 0 0];

internalField   nonuniform List<scalar> 
24240
(
2.61798e-06
2.01296e-05
2.72246e-05
2.72043e-05
2.72076e-05
2.72115e-05
2.72158e-05
2.72204e-05
2.72252e-05
2.72301e-05
2.72348e-05
2.72394e-05
2.72437e-05
2.72475e-05
2.7251e-05
2.7254e-05
2.72564e-05
2.72808e-05
2.0173e-05
2.62207e-06
5.73717e-08
9.04139e-07
1.47207e-07
1.54555e-07
1.48685e-07
1.48696e-07
1.48708e-07
1.4872e-07
1.48733e-07
1.48746e-07
1.48759e-07
1.4877e-07
1.48781e-07
1.4879e-07
1.48799e-07
1.48805e-07
1.54687e-07
1.47351e-07
9.06185e-07
5.74806e-08
2.66898e-10
7.73494e-08
4.63022e-10
7.81536e-09
6.22209e-09
6.22181e-09
6.22157e-09
6.2213e-09
6.22101e-09
6.2207e-09
6.22038e-09
6.22006e-09
6.21974e-09
6.21942e-09
6.21911e-09
6.21887e-09
7.81039e-09
4.633e-10
7.75264e-08
2.67926e-10
1.03037e-12
2.33393e-10
2.34284e-12
6.78855e-08
6.84125e-08
6.84112e-08
6.84097e-08
6.84082e-08
6.84065e-08
6.84049e-08
6.84034e-08
6.84019e-08
6.84007e-08
6.83996e-08
6.83987e-08
6.83982e-08
6.78699e-08
2.2782e-12
2.33962e-10
1.03626e-12
5.4404e-15
6.17439e-13
6.39866e-13
7.32769e-08
7.39611e-08
7.39596e-08
7.39578e-08
7.3956e-08
7.39541e-08
7.39521e-08
7.39503e-08
7.39485e-08
7.3947e-08
7.39457e-08
7.39447e-08
7.39441e-08
7.32588e-08
6.80566e-13
6.18923e-13
5.47289e-15
1.01879e-15
2.56385e-15
2.58564e-13
3.04189e-08
3.07154e-08
3.07139e-08
3.07123e-08
3.07105e-08
3.07086e-08
3.07067e-08
3.07049e-08
3.07031e-08
3.07015e-08
3.07e-08
3.06987e-08
3.06977e-08
3.03995e-08
2.34625e-13
2.56773e-15
1.01896e-15
1.00008e-15
1.00565e-15
2.61911e-13
3.30838e-08
3.34499e-08
3.34481e-08
3.34461e-08
3.34439e-08
3.34416e-08
3.34392e-08
3.34369e-08
3.34347e-08
3.34327e-08
3.34308e-08
3.34292e-08
3.34278e-08
3.30594e-08
2.63181e-13
1.00568e-15
1.00008e-15
1e-15
1.00035e-15
8.65915e-14
1.20204e-08
1.21532e-08
1.21523e-08
1.21513e-08
1.21502e-08
1.21491e-08
1.2148e-08
1.21469e-08
1.21458e-08
1.21447e-08
1.21438e-08
1.21429e-08
1.21422e-08
1.20082e-08
8.02714e-14
1.00033e-15
1e-15
1e-15
1.00028e-15
7.42526e-14
1.07054e-08
1.08264e-08
1.08256e-08
1.08246e-08
1.08236e-08
1.08226e-08
1.08215e-08
1.08204e-08
1.08194e-08
1.08184e-08
1.08175e-08
1.08166e-08
1.08159e-08
1.06936e-08
7.0412e-14
1.00027e-15
1e-15
1e-15
1.00018e-15
5.25753e-14
8.54404e-09
8.6373e-09
8.63614e-09
8.63484e-09
8.63342e-09
8.63194e-09
8.63043e-09
8.62892e-09
8.62746e-09
8.62607e-09
8.62476e-09
8.62357e-09
8.6225e-09
8.5275e-09
5.20953e-14
1.00017e-15
1e-15
1e-15
1.00012e-15
3.84949e-14
5.88151e-09
5.94143e-09
5.94041e-09
5.93926e-09
5.93802e-09
5.93671e-09
5.93539e-09
5.93407e-09
5.9328e-09
5.93159e-09
5.93046e-09
5.92945e-09
5.92855e-09
5.86715e-09
3.3725e-14
1.0001e-15
1e-15
1e-15
1.0004e-15
1.11886e-13
1.72692e-08
1.74424e-08
1.74406e-08
1.74387e-08
1.74366e-08
1.74345e-08
1.74323e-08
1.74301e-08
1.7428e-08
1.7426e-08
1.74242e-08
1.74225e-08
1.74211e-08
1.72456e-08
1.15702e-13
1.00041e-15
1e-15
1e-15
1.00034e-15
9.49168e-14
1.29505e-08
1.30668e-08
1.30654e-08
1.30638e-08
1.30621e-08
1.30604e-08
1.30586e-08
1.30569e-08
1.30552e-08
1.30537e-08
1.30523e-08
1.30511e-08
1.30501e-08
1.2932e-08
7.95191e-14
1.00027e-15
1e-15
1e-15
1.0017e-15
4.05842e-13
5.45203e-08
5.49658e-08
5.49626e-08
5.49591e-08
5.49554e-08
5.49515e-08
5.49476e-08
5.49438e-08
5.49403e-08
5.49371e-08
5.49342e-08
5.49318e-08
5.49299e-08
5.44807e-08
4.24441e-13
1.00176e-15
1e-15
1e-15
1.00196e-15
4.49798e-13
4.98488e-08
5.01887e-08
5.01857e-08
5.01823e-08
5.01787e-08
5.01749e-08
5.01712e-08
5.01676e-08
5.01642e-08
5.01612e-08
5.01586e-08
5.01565e-08
5.01548e-08
4.98114e-08
3.54334e-13
1.00143e-15
1e-15
1e-15
1.00783e-15
1.71271e-12
1.94082e-07
1.95379e-07
1.95375e-07
1.95371e-07
1.95367e-07
1.95363e-07
1.95359e-07
1.95357e-07
1.95353e-07
1.95351e-07
1.95349e-07
1.95348e-07
1.95349e-07
1.9405e-07
1.81589e-12
1.00833e-15
1e-15
1.00457e-15
1.08941e-15
2.69327e-12
2.11389e-07
2.12595e-07
2.12612e-07
2.12608e-07
2.12605e-07
2.12601e-07
2.12598e-07
2.12579e-07
2.12591e-07
2.12589e-07
2.12587e-07
2.12587e-07
2.12567e-07
2.11358e-07
2.33475e-12
1.0868e-15
1.00457e-15
3.15491e-13
1.17421e-12
2.07229e-08
4.23975e-08
4.03113e-08
3.64165e-08
3.64145e-08
3.64124e-08
3.64101e-08
3.64076e-08
3.94044e-08
3.64003e-08
3.63975e-08
3.63948e-08
3.63923e-08
4.02774e-08
4.2358e-08
2.0701e-08
1.17408e-12
3.15651e-13
1.05124e-09
1.39507e-08
1.61626e-07
1.93842e-07
1.7349e-07
1.72956e-07
1.72946e-07
1.72934e-07
1.72922e-07
1.72908e-07
1.73272e-07
1.7288e-07
1.72865e-07
1.7285e-07
1.72836e-07
1.73346e-07
1.93653e-07
1.61446e-07
1.39246e-08
1.0517e-09
7.31174e-05
0.000173992
0.000219863
0.000219991
0.000220002
0.000220017
0.000220034
0.000220052
0.000220072
0.000220091
0.000220109
0.000220128
0.000220144
0.00022016
0.000220174
0.000220186
0.000220198
0.000220087
0.000174181
7.31884e-05
5.07387e-07
1.79427e-05
2.68532e-05
2.68496e-05
2.68558e-05
2.6863e-05
2.68712e-05
2.688e-05
2.68892e-05
2.68984e-05
2.69076e-05
2.69165e-05
2.69248e-05
2.69325e-05
2.69395e-05
2.69456e-05
2.69505e-05
2.69628e-05
1.80296e-05
5.08107e-07
4.44337e-08
8.50426e-07
1.34536e-07
1.40907e-07
1.35051e-07
1.35069e-07
1.35089e-07
1.35111e-07
1.35134e-07
1.35157e-07
1.35181e-07
1.35203e-07
1.35224e-07
1.35243e-07
1.35261e-07
1.35276e-07
1.41162e-07
1.34807e-07
8.52573e-07
4.44411e-08
3.60163e-10
8.87622e-08
5.72089e-10
6.44419e-09
4.83176e-09
4.83178e-09
4.83194e-09
4.83211e-09
4.83231e-09
4.83252e-09
4.83274e-09
4.83297e-09
4.8332e-09
4.83342e-09
4.83363e-09
4.83393e-09
6.44667e-09
5.72628e-10
8.89652e-08
3.61263e-10
1.79893e-12
9.50221e-10
3.41986e-12
1.26751e-07
1.27804e-07
1.27802e-07
1.27799e-07
1.27796e-07
1.27793e-07
1.2779e-07
1.27787e-07
1.27784e-07
1.27781e-07
1.27778e-07
1.27776e-07
1.27774e-07
1.26718e-07
3.32814e-12
9.52426e-10
1.80845e-12
9.0393e-15
1.16094e-12
9.34051e-13
1.3641e-07
1.3773e-07
1.37727e-07
1.37723e-07
1.37719e-07
1.37715e-07
1.3771e-07
1.37706e-07
1.37702e-07
1.37698e-07
1.37694e-07
1.37691e-07
1.37689e-07
1.36366e-07
9.9083e-13
1.16361e-12
9.09864e-15
1.03399e-15
3.30803e-15
4.52873e-13
6.82027e-08
6.88623e-08
6.88584e-08
6.8854e-08
6.88491e-08
6.88441e-08
6.8839e-08
6.88339e-08
6.8829e-08
6.88243e-08
6.88202e-08
6.88165e-08
6.88136e-08
6.81491e-08
4.10187e-13
3.31362e-15
1.0343e-15
1.00014e-15
1.00724e-15
4.43099e-13
7.04045e-08
7.11478e-08
7.11432e-08
7.1138e-08
7.11324e-08
7.11264e-08
7.11204e-08
7.11145e-08
7.11087e-08
7.11033e-08
7.10983e-08
7.10939e-08
7.10903e-08
7.03409e-08
4.43351e-13
1.00728e-15
1.00014e-15
1e-15
1.00059e-15
1.82635e-13
3.00319e-08
3.0348e-08
3.03449e-08
3.03414e-08
3.03377e-08
3.03337e-08
3.03297e-08
3.03256e-08
3.03218e-08
3.03181e-08
3.03147e-08
3.03116e-08
3.0309e-08
2.99885e-08
1.69397e-13
1.00055e-15
1e-15
1e-15
1.00054e-15
1.61473e-13
2.71063e-08
2.7392e-08
2.73892e-08
2.7386e-08
2.73825e-08
2.73789e-08
2.73752e-08
2.73715e-08
2.73679e-08
2.73646e-08
2.73614e-08
2.73585e-08
2.73559e-08
2.70659e-08
1.52395e-13
1.0005e-15
1e-15
1e-15
1.00039e-15
1.26559e-13
2.41531e-08
2.44038e-08
2.44009e-08
2.43977e-08
2.43942e-08
2.43905e-08
2.43867e-08
2.4383e-08
2.43793e-08
2.43758e-08
2.43725e-08
2.43695e-08
2.43667e-08
2.41117e-08
1.28003e-13
1.00039e-15
1e-15
1e-15
1.00031e-15
1.01178e-13
1.82184e-08
1.83992e-08
1.8396e-08
1.83925e-08
1.83887e-08
1.83847e-08
1.83807e-08
1.83767e-08
1.83728e-08
1.83691e-08
1.83657e-08
1.83627e-08
1.836e-08
1.81748e-08
8.93967e-14
1.00026e-15
1e-15
1e-15
1.00089e-15
2.6562e-13
4.72685e-08
4.77294e-08
4.77253e-08
4.77207e-08
4.77157e-08
4.77105e-08
4.77051e-08
4.76999e-08
4.76948e-08
4.769e-08
4.76855e-08
4.76816e-08
4.76781e-08
4.72114e-08
2.82391e-13
1.00094e-15
1e-15
1e-15
1.00082e-15
2.43515e-13
3.85002e-08
3.88395e-08
3.88353e-08
3.88306e-08
3.88255e-08
3.88203e-08
3.8815e-08
3.88098e-08
3.88049e-08
3.88004e-08
3.87963e-08
3.87927e-08
3.87898e-08
3.84451e-08
2.06747e-13
1.00067e-15
1e-15
1e-15
1.0031e-15
8.50446e-13
1.31561e-07
1.32638e-07
1.32632e-07
1.32624e-07
1.32616e-07
1.32608e-07
1.32599e-07
1.32591e-07
1.32583e-07
1.32576e-07
1.32569e-07
1.32563e-07
1.32559e-07
1.31473e-07
9.40453e-13
1.00346e-15
1e-15
1e-15
1.00366e-15
9.61621e-13
1.26619e-07
1.2751e-07
1.27504e-07
1.27496e-07
1.27488e-07
1.27479e-07
1.2747e-07
1.27462e-07
1.27454e-07
1.27447e-07
1.27441e-07
1.27435e-07
1.27431e-07
1.26531e-07
8.02445e-13
1.00288e-15
1e-15
1e-15
1.00998e-15
2.57559e-12
3.42776e-07
3.45412e-07
3.45411e-07
3.45409e-07
3.45408e-07
3.45407e-07
3.45406e-07
3.45406e-07
3.45405e-07
3.45405e-07
3.45406e-07
3.45406e-07
3.45407e-07
3.42771e-07
2.89638e-12
1.0114e-15
1e-15
1.00211e-15
1.09137e-15
3.30045e-12
3.60122e-07
3.6258e-07
3.62606e-07
3.62605e-07
3.62604e-07
3.62603e-07
3.62603e-07
3.62584e-07
3.62602e-07
3.62602e-07
3.62603e-07
3.62604e-07
3.62579e-07
3.6012e-07
2.90206e-12
1.08871e-15
1.00212e-15
1.90681e-13
1.06818e-12
1.70774e-08
3.78223e-08
3.66482e-08
3.29349e-08
3.2935e-08
3.29352e-08
3.29354e-08
3.29357e-08
3.53942e-08
3.29336e-08
3.29339e-08
3.29344e-08
3.29349e-08
3.66421e-08
3.78253e-08
1.70739e-08
1.07603e-12
1.91159e-13
6.59124e-10
1.42857e-08
1.22224e-07
1.44628e-07
1.28714e-07
1.28472e-07
1.28477e-07
1.28484e-07
1.28491e-07
1.285e-07
1.2847e-07
1.28518e-07
1.28528e-07
1.28538e-07
1.28548e-07
1.28804e-07
1.4474e-07
1.22321e-07
1.42654e-08
6.60649e-10
6.03785e-05
0.000194579
0.000249538
0.000249675
0.000249699
0.000249728
0.000249761
0.000249797
0.000249835
0.000249874
0.000249912
0.00024995
0.000249986
0.000250019
0.00025005
0.000250078
0.000250102
0.000250001
0.000194976
6.05679e-05
3.54891e-07
1.5707e-05
2.5353e-05
2.53455e-05
2.53535e-05
2.53626e-05
2.53731e-05
2.53844e-05
2.53962e-05
2.54083e-05
2.54202e-05
2.54318e-05
2.54427e-05
2.54529e-05
2.5462e-05
2.54701e-05
2.54767e-05
2.5496e-05
1.582e-05
3.55136e-07
1.89998e-08
1.36842e-07
4.89127e-08
5.60289e-08
4.90853e-08
4.90946e-08
4.91055e-08
4.91176e-08
4.91306e-08
4.91441e-08
4.9158e-08
4.91717e-08
4.91854e-08
4.91984e-08
4.92108e-08
4.92222e-08
5.61843e-08
4.90839e-08
1.37074e-07
1.89083e-08
4.0484e-10
2.47584e-08
4.66778e-10
7.34898e-09
5.48911e-09
5.48893e-09
5.48888e-09
5.48883e-09
5.48877e-09
5.48871e-09
5.48866e-09
5.4886e-09
5.48855e-09
5.48849e-09
5.48844e-09
5.48851e-09
7.348e-09
4.67135e-10
2.48146e-08
4.05175e-10
2.30601e-12
4.02665e-09
3.5701e-12
1.5243e-07
1.53715e-07
1.53712e-07
1.53709e-07
1.53705e-07
1.53701e-07
1.53697e-07
1.53693e-07
1.53689e-07
1.53685e-07
1.53681e-07
1.53678e-07
1.53675e-07
1.52385e-07
3.47128e-12
4.03582e-09
2.31477e-12
1.15676e-14
1.89536e-12
1.01839e-12
1.63817e-07
1.65424e-07
1.65421e-07
1.65417e-07
1.65412e-07
1.65407e-07
1.65402e-07
1.65397e-07
1.65392e-07
1.65387e-07
1.65383e-07
1.65379e-07
1.65375e-07
1.63764e-07
1.07728e-12
1.89954e-12
1.16375e-14
1.04411e-15
1.52725e-15
5.19835e-13
9.00332e-08
9.09094e-08
9.09046e-08
9.08991e-08
9.0893e-08
9.08866e-08
9.08801e-08
9.08735e-08
9.08671e-08
9.0861e-08
9.08554e-08
9.08503e-08
9.08459e-08
8.99629e-08
4.74629e-13
1.52817e-15
1.04451e-15
1.00018e-15
1.00185e-15
5.07375e-13
9.29677e-08
9.39275e-08
9.39215e-08
9.39147e-08
9.39073e-08
9.38993e-08
9.38913e-08
9.38832e-08
9.38753e-08
9.38678e-08
9.38609e-08
9.38546e-08
9.38493e-08
9.2881e-08
5.08222e-13
1.00188e-15
1.00018e-15
1e-15
1.00069e-15
2.27731e-13
4.6752e-08
4.723e-08
4.72247e-08
4.72188e-08
4.72124e-08
4.72056e-08
4.71987e-08
4.71918e-08
4.7185e-08
4.71785e-08
4.71724e-08
4.71668e-08
4.71619e-08
4.66761e-08
2.12646e-13
1.00064e-15
1e-15
1e-15
1.00063e-15
2.07763e-13
4.39637e-08
4.44043e-08
4.43996e-08
4.43943e-08
4.43885e-08
4.43825e-08
4.43763e-08
4.43701e-08
4.4364e-08
4.43582e-08
4.43527e-08
4.43475e-08
4.43428e-08
4.38948e-08
1.98169e-13
1.0006e-15
1e-15
1e-15
1.00052e-15
1.83861e-13
4.3128e-08
4.35555e-08
4.35514e-08
4.35469e-08
4.35419e-08
4.35366e-08
4.35311e-08
4.35256e-08
4.35201e-08
4.35148e-08
4.35097e-08
4.35049e-08
4.35005e-08
4.30663e-08
1.89471e-13
1.00053e-15
1e-15
1e-15
1.00045e-15
1.62275e-13
3.69722e-08
3.73271e-08
3.73229e-08
3.73181e-08
3.7313e-08
3.73075e-08
3.73019e-08
3.72962e-08
3.72907e-08
3.72853e-08
3.72802e-08
3.72755e-08
3.72713e-08
3.69098e-08
1.46509e-13
1.00039e-15
1e-15
1e-15
1.00114e-15
3.76606e-13
8.02169e-08
8.09899e-08
8.09845e-08
8.09782e-08
8.09715e-08
8.09643e-08
8.09569e-08
8.09495e-08
8.09422e-08
8.09352e-08
8.09286e-08
8.09224e-08
8.09168e-08
8.01351e-08
4.1015e-13
1.00124e-15
1e-15
1e-15
1.00116e-15
3.77586e-13
7.31483e-08
7.37944e-08
7.37889e-08
7.37828e-08
7.37761e-08
7.3769e-08
7.37618e-08
7.37546e-08
7.37477e-08
7.3741e-08
7.37349e-08
7.37293e-08
7.37244e-08
7.30702e-08
3.29865e-13
1.00097e-15
1e-15
1e-15
1.00354e-15
1.03625e-12
1.83667e-07
1.85303e-07
1.85297e-07
1.8529e-07
1.85283e-07
1.85275e-07
1.85267e-07
1.85259e-07
1.85251e-07
1.85244e-07
1.85237e-07
1.85231e-07
1.85224e-07
1.83578e-07
1.17424e-12
1.00407e-15
1e-15
1e-15
1.00412e-15
1.15923e-12
1.79524e-07
1.81004e-07
1.80998e-07
1.80991e-07
1.80983e-07
1.80975e-07
1.80967e-07
1.8096e-07
1.80952e-07
1.80945e-07
1.80938e-07
1.80932e-07
1.80927e-07
1.79437e-07
1.00969e-12
1.00342e-15
1e-15
1e-15
1.01052e-15
2.81068e-12
3.99501e-07
4.02695e-07
4.02696e-07
4.02697e-07
4.02698e-07
4.02699e-07
4.027e-07
4.02702e-07
4.02704e-07
4.02707e-07
4.02709e-07
4.02711e-07
4.02712e-07
3.99521e-07
3.21503e-12
1.01219e-15
1e-15
1.00141e-15
1.0881e-15
3.62768e-12
4.15321e-07
4.18357e-07
4.18377e-07
4.18379e-07
4.1838e-07
4.18382e-07
4.18384e-07
4.18372e-07
4.18388e-07
4.18391e-07
4.18393e-07
4.18396e-07
4.18379e-07
4.15345e-07
3.26047e-12
1.08582e-15
1.00142e-15
1.31744e-13
8.56395e-13
1.60493e-08
3.27584e-08
3.09929e-08
2.84695e-08
2.84692e-08
2.84688e-08
2.84683e-08
2.84679e-08
3.05778e-08
2.84653e-08
2.84647e-08
2.84643e-08
2.84639e-08
3.09894e-08
3.2757e-08
1.60389e-08
8.67231e-13
1.32065e-13
4.53568e-10
1.41428e-08
1.10975e-07
1.32536e-07
1.18232e-07
1.1807e-07
1.18069e-07
1.18068e-07
1.18066e-07
1.18065e-07
1.18282e-07
1.18062e-07
1.18061e-07
1.1806e-07
1.18059e-07
1.18219e-07
1.32518e-07
1.10959e-07
1.41354e-08
4.54096e-10
4.88578e-05
0.000195729
0.000252314
0.000252443
0.00025247
0.000252504
0.000252543
0.000252585
0.000252629
0.000252675
0.00025272
0.000252765
0.000252808
0.000252848
0.000252885
0.000252918
0.000252948
0.000252863
0.0001962
4.90869e-05
3.23974e-07
8.47499e-06
1.42852e-05
1.42866e-05
1.42908e-05
1.42955e-05
1.4301e-05
1.4307e-05
1.43133e-05
1.43197e-05
1.43261e-05
1.43324e-05
1.43384e-05
1.43441e-05
1.43493e-05
1.43539e-05
1.43577e-05
1.43627e-05
8.52524e-06
3.24178e-07
1.08391e-08
2.64302e-08
1.36824e-07
1.45432e-07
1.37471e-07
1.37492e-07
1.37517e-07
1.37544e-07
1.37572e-07
1.376e-07
1.37629e-07
1.37657e-07
1.37684e-07
1.37709e-07
1.37733e-07
1.37753e-07
1.4575e-07
1.37171e-07
2.64276e-08
1.07475e-08
5.02984e-10
2.09162e-10
6.99304e-10
7.95865e-09
5.90627e-09
5.90611e-09
5.90611e-09
5.90611e-09
5.90612e-09
5.90612e-09
5.90613e-09
5.90614e-09
5.90614e-09
5.90615e-09
5.90615e-09
5.9063e-09
7.95849e-09
7.00122e-10
2.09426e-10
5.01827e-10
3.3012e-12
6.49969e-13
4.7417e-12
1.62062e-07
1.63442e-07
1.63439e-07
1.63436e-07
1.63432e-07
1.63428e-07
1.63424e-07
1.63419e-07
1.63415e-07
1.63411e-07
1.63407e-07
1.63404e-07
1.634e-07
1.62016e-07
4.64569e-12
6.50746e-13
3.30536e-12
1.6337e-14
5.37816e-15
1.04944e-12
1.74238e-07
1.75978e-07
1.75975e-07
1.75971e-07
1.75967e-07
1.75963e-07
1.75958e-07
1.75953e-07
1.75949e-07
1.75944e-07
1.7594e-07
1.75936e-07
1.75933e-07
1.74188e-07
1.10899e-12
5.3801e-15
1.64041e-14
1.06194e-15
1.02795e-15
5.5316e-13
9.9655e-08
1.00634e-07
1.0063e-07
1.00625e-07
1.00619e-07
1.00613e-07
1.00607e-07
1.00601e-07
1.00595e-07
1.00589e-07
1.00584e-07
1.00579e-07
1.00574e-07
9.95879e-08
5.08648e-13
1.0278e-15
1.06239e-15
1.00023e-15
1.00199e-15
5.37068e-13
1.02177e-07
1.03233e-07
1.03228e-07
1.03221e-07
1.03214e-07
1.03206e-07
1.03198e-07
1.0319e-07
1.03182e-07
1.03174e-07
1.03167e-07
1.03161e-07
1.03155e-07
1.02091e-07
5.38807e-13
1.00202e-15
1.00023e-15
1e-15
1.00077e-15
2.54656e-13
5.42958e-08
5.48508e-08
5.48454e-08
5.48394e-08
5.48327e-08
5.48257e-08
5.48184e-08
5.48112e-08
5.4804e-08
5.47971e-08
5.47905e-08
5.47845e-08
5.4779e-08
5.42156e-08
2.40116e-13
1.00072e-15
1e-15
1e-15
1.00072e-15
2.35454e-13
5.15361e-08
5.20491e-08
5.20441e-08
5.20386e-08
5.20324e-08
5.2026e-08
5.20194e-08
5.20128e-08
5.20062e-08
5.19999e-08
5.19938e-08
5.19881e-08
5.19828e-08
5.14616e-08
2.25987e-13
1.00068e-15
1e-15
1e-15
1.00061e-15
2.13423e-13
5.15102e-08
5.2017e-08
5.20126e-08
5.20077e-08
5.20022e-08
5.19964e-08
5.19904e-08
5.19843e-08
5.19782e-08
5.19722e-08
5.19664e-08
5.19609e-08
5.19557e-08
5.14412e-08
2.2123e-13
1.00063e-15
1e-15
1e-15
1.00055e-15
1.96601e-13
4.58126e-08
4.62507e-08
4.62467e-08
4.62422e-08
4.62373e-08
4.6232e-08
4.62265e-08
4.62209e-08
4.62154e-08
4.62099e-08
4.62046e-08
4.61996e-08
4.61949e-08
4.57499e-08
1.80594e-13
1.00049e-15
1e-15
1e-15
1.00131e-15
4.29533e-13
9.38999e-08
9.48083e-08
9.48025e-08
9.47958e-08
9.47886e-08
9.47808e-08
9.47729e-08
9.47648e-08
9.47567e-08
9.47489e-08
9.47414e-08
9.47342e-08
9.47277e-08
9.38094e-08
4.71675e-13
1.00146e-15
1e-15
1e-15
1.00139e-15
4.47833e-13
8.90641e-08
8.986e-08
8.98549e-08
8.9849e-08
8.98426e-08
8.98357e-08
8.98286e-08
8.98214e-08
8.98143e-08
8.98073e-08
8.98007e-08
8.97944e-08
8.97887e-08
8.8984e-08
3.99018e-13
1.00119e-15
1e-15
1e-15
1.00376e-15
1.12092e-12
2.02562e-07
2.04449e-07
2.04444e-07
2.04438e-07
2.04431e-07
2.04424e-07
2.04416e-07
2.04409e-07
2.04402e-07
2.04394e-07
2.04387e-07
2.04381e-07
2.04374e-07
2.02476e-07
1.28236e-12
1.00444e-15
1e-15
1e-15
1.00428e-15
1.23672e-12
1.9929e-07
2.01041e-07
2.01036e-07
2.0103e-07
2.01023e-07
2.01017e-07
2.0101e-07
2.01003e-07
2.00996e-07
2.00989e-07
2.00983e-07
2.00977e-07
2.00971e-07
1.99211e-07
1.10719e-12
1.00369e-15
1e-15
1e-15
1.01061e-15
2.85597e-12
4.13123e-07
4.16505e-07
4.16506e-07
4.16506e-07
4.16507e-07
4.16507e-07
4.16508e-07
4.1651e-07
4.16511e-07
4.16513e-07
4.16515e-07
4.16517e-07
4.16517e-07
4.13136e-07
3.29536e-12
1.01258e-15
1e-15
1.00186e-15
1.08523e-15
3.64668e-12
4.25436e-07
4.28764e-07
4.2878e-07
4.28782e-07
4.28784e-07
4.28786e-07
4.28788e-07
4.2878e-07
4.28793e-07
4.28795e-07
4.28797e-07
4.28798e-07
4.28784e-07
4.25456e-07
3.31465e-12
1.0834e-15
1.00186e-15
1.44622e-13
8.07166e-13
1.56985e-08
2.66918e-08
2.51598e-08
2.22211e-08
2.22206e-08
2.22201e-08
2.22195e-08
2.2219e-08
2.43581e-08
2.22157e-08
2.22151e-08
2.22146e-08
2.22141e-08
2.51504e-08
2.66707e-08
1.56943e-08
8.19124e-13
1.44837e-13
5.29545e-10
1.37928e-08
1.16244e-07
1.38825e-07
1.23809e-07
1.23686e-07
1.23684e-07
1.23681e-07
1.23679e-07
1.23676e-07
1.23788e-07
1.2367e-07
1.23668e-07
1.23665e-07
1.23663e-07
1.23782e-07
1.3879e-07
1.16208e-07
1.3789e-08
5.28552e-10
3.63065e-05
0.000138357
0.000181718
0.000181858
0.000181877
0.000181899
0.000181925
0.000181954
0.000181985
0.000182018
0.000182051
0.000182085
0.000182118
0.000182151
0.000182182
0.000182211
0.000182238
0.000182133
0.000138713
3.6425e-05
3.03922e-07
7.52388e-06
1.27942e-05
1.27949e-05
1.27983e-05
1.28022e-05
1.28067e-05
1.28116e-05
1.28168e-05
1.28221e-05
1.28275e-05
1.28328e-05
1.28379e-05
1.28427e-05
1.28471e-05
1.28511e-05
1.28545e-05
1.28591e-05
7.5628e-06
3.04137e-07
7.44181e-10
4.35238e-08
7.52544e-08
8.65814e-08
7.58435e-08
7.58472e-08
7.58518e-08
7.5857e-08
7.58626e-08
7.58684e-08
7.58744e-08
7.58803e-08
7.58863e-08
7.58919e-08
7.58973e-08
7.59025e-08
8.6649e-08
7.53275e-08
4.36228e-08
7.32869e-10
3.44762e-10
1.92119e-10
4.34522e-10
8.14811e-09
5.89778e-09
5.89757e-09
5.89756e-09
5.89755e-09
5.89754e-09
5.89754e-09
5.89753e-09
5.89753e-09
5.89752e-09
5.89752e-09
5.89751e-09
5.8977e-09
8.14803e-09
4.34626e-10
1.92361e-10
3.41549e-10
1.99275e-12
9.83968e-13
3.68098e-12
1.69154e-07
1.70643e-07
1.70641e-07
1.70638e-07
1.70635e-07
1.70632e-07
1.70628e-07
1.70625e-07
1.70621e-07
1.70618e-07
1.70614e-07
1.70611e-07
1.70608e-07
1.69114e-07
3.59862e-12
9.84588e-13
1.98043e-12
9.13436e-15
6.45746e-15
1.06407e-12
1.7827e-07
1.80071e-07
1.80069e-07
1.80066e-07
1.80063e-07
1.80059e-07
1.80055e-07
1.80051e-07
1.80047e-07
1.80044e-07
1.8004e-07
1.80037e-07
1.80033e-07
1.78228e-07
1.12137e-12
6.45928e-15
9.10485e-15
1.02919e-15
1.03345e-15
5.74483e-13
1.06476e-07
1.07562e-07
1.07559e-07
1.07557e-07
1.07553e-07
1.0755e-07
1.07546e-07
1.07542e-07
1.07538e-07
1.07535e-07
1.07531e-07
1.07527e-07
1.07524e-07
1.06433e-07
5.33442e-13
1.03331e-15
1.02917e-15
1.00009e-15
1.00206e-15
5.67678e-13
1.09392e-07
1.10549e-07
1.10545e-07
1.1054e-07
1.10534e-07
1.10528e-07
1.10522e-07
1.10516e-07
1.1051e-07
1.10503e-07
1.10498e-07
1.10492e-07
1.10487e-07
1.09323e-07
5.70108e-13
1.00209e-15
1.00009e-15
1e-15
1.00086e-15
2.90672e-13
6.34267e-08
6.40908e-08
6.4086e-08
6.40806e-08
6.40746e-08
6.40682e-08
6.40616e-08
6.40548e-08
6.4048e-08
6.40414e-08
6.40349e-08
6.40288e-08
6.40231e-08
6.33507e-08
2.77542e-13
1.00082e-15
1e-15
1e-15
1.00083e-15
2.77474e-13
6.14101e-08
6.20282e-08
6.20234e-08
6.2018e-08
6.20122e-08
6.20061e-08
6.19997e-08
6.19933e-08
6.19868e-08
6.19804e-08
6.19742e-08
6.19682e-08
6.19626e-08
6.1336e-08
2.68611e-13
1.0008e-15
1e-15
1e-15
1.00074e-15
2.62909e-13
6.31269e-08
6.37591e-08
6.37549e-08
6.37502e-08
6.37451e-08
6.37396e-08
6.37338e-08
6.37278e-08
6.37218e-08
6.37158e-08
6.37098e-08
6.3704e-08
6.36985e-08
6.30585e-08
2.73014e-13
1.00077e-15
1e-15
1e-15
1.00068e-15
2.44764e-13
5.75537e-08
5.81161e-08
5.81121e-08
5.81075e-08
5.81025e-08
5.80971e-08
5.80915e-08
5.80856e-08
5.80798e-08
5.80739e-08
5.80681e-08
5.80625e-08
5.80572e-08
5.74874e-08
2.28291e-13
1.00062e-15
1e-15
1e-15
1.00151e-15
4.98806e-13
1.07119e-07
1.08166e-07
1.08161e-07
1.08155e-07
1.08149e-07
1.08143e-07
1.08136e-07
1.08129e-07
1.08122e-07
1.08115e-07
1.08107e-07
1.081e-07
1.08094e-07
1.07038e-07
5.48035e-13
1.00169e-15
1e-15
1e-15
1.00159e-15
5.18686e-13
1.0379e-07
1.04777e-07
1.04772e-07
1.04767e-07
1.04761e-07
1.04755e-07
1.04749e-07
1.04742e-07
1.04735e-07
1.04728e-07
1.04721e-07
1.04715e-07
1.04708e-07
1.03712e-07
4.74753e-13
1.00141e-15
1e-15
1e-15
1.00388e-15
1.16911e-12
2.09566e-07
2.11591e-07
2.11586e-07
2.11581e-07
2.11576e-07
2.1157e-07
2.11563e-07
2.11557e-07
2.1155e-07
2.11544e-07
2.11537e-07
2.11531e-07
2.11524e-07
2.0949e-07
1.33977e-12
1.00464e-15
1e-15
1e-15
1.00433e-15
1.27052e-12
2.07905e-07
2.09821e-07
2.09817e-07
2.09812e-07
2.09806e-07
2.09801e-07
2.09795e-07
2.09788e-07
2.09782e-07
2.09776e-07
2.0977e-07
2.09763e-07
2.09757e-07
2.07832e-07
1.16186e-12
1.00385e-15
1e-15
1e-15
1.01004e-15
2.82402e-12
4.08068e-07
4.11672e-07
4.11673e-07
4.11674e-07
4.11674e-07
4.11675e-07
4.11675e-07
4.11676e-07
4.11677e-07
4.11678e-07
4.11679e-07
4.11679e-07
4.11677e-07
4.08071e-07
3.2825e-12
1.01233e-15
1e-15
1.00155e-15
1.07845e-15
3.49536e-12
4.24255e-07
4.27772e-07
4.27777e-07
4.27778e-07
4.27779e-07
4.27781e-07
4.27782e-07
4.27783e-07
4.27785e-07
4.27787e-07
4.27787e-07
4.27788e-07
4.27784e-07
4.24265e-07
3.28439e-12
1.07746e-15
1.00156e-15
1.15001e-13
7.17468e-13
1.31489e-08
2.58882e-08
2.53132e-08
2.23805e-08
2.23807e-08
2.2381e-08
2.23812e-08
2.23816e-08
2.4166e-08
2.23799e-08
2.23803e-08
2.23808e-08
2.23813e-08
2.53082e-08
2.58943e-08
1.31557e-08
7.31262e-13
1.15257e-13
3.69261e-10
1.26747e-08
9.68535e-08
1.14809e-07
1.0218e-07
1.02006e-07
1.02007e-07
1.02009e-07
1.0201e-07
1.02011e-07
1.02084e-07
1.02015e-07
1.02017e-07
1.0202e-07
1.02023e-07
1.02201e-07
1.14838e-07
9.68822e-08
1.26822e-08
3.70468e-10
3.26185e-05
0.000126789
0.000166822
0.000166949
0.000166965
0.000166983
0.000167006
0.00016703
0.000167057
0.000167086
0.000167115
0.000167145
0.000167176
0.000167206
0.000167235
0.000167263
0.000167288
0.000167193
0.000127109
3.27573e-05
2.73943e-07
4.33298e-06
8.08956e-06
8.08843e-06
8.09063e-06
8.09311e-06
8.09597e-06
8.09911e-06
8.10244e-06
8.10591e-06
8.10942e-06
8.11291e-06
8.1163e-06
8.11953e-06
8.12252e-06
8.12524e-06
8.12746e-06
8.1322e-06
4.35787e-06
2.74231e-07
1.31791e-09
2.51067e-08
7.15639e-08
8.34925e-08
7.18149e-08
7.182e-08
7.18264e-08
7.18337e-08
7.18414e-08
7.18495e-08
7.18578e-08
7.18661e-08
7.18742e-08
7.1882e-08
7.18893e-08
7.18965e-08
8.35854e-08
7.16657e-08
2.51635e-08
1.32655e-09
5.43482e-11
1.40283e-10
4.56728e-10
8.39034e-09
5.99589e-09
5.99568e-09
5.99569e-09
5.99569e-09
5.99571e-09
5.99572e-09
5.99574e-09
5.99575e-09
5.99577e-09
5.99578e-09
5.99579e-09
5.99604e-09
8.39061e-09
4.56938e-10
1.40384e-10
5.33949e-11
1.85852e-13
8.47596e-13
3.87478e-12
1.64696e-07
1.66199e-07
1.66197e-07
1.66196e-07
1.66194e-07
1.66191e-07
1.66189e-07
1.66186e-07
1.66184e-07
1.66181e-07
1.66178e-07
1.66176e-07
1.66173e-07
1.64666e-07
3.8022e-12
8.4785e-13
1.79701e-13
1.74716e-15
6.08954e-15
1.02427e-12
1.7412e-07
1.75938e-07
1.75937e-07
1.75935e-07
1.75933e-07
1.7593e-07
1.75928e-07
1.75925e-07
1.75922e-07
1.7592e-07
1.75917e-07
1.75914e-07
1.7591e-07
1.74089e-07
1.07285e-12
6.09018e-15
1.72441e-15
1.00251e-15
1.0323e-15
5.84585e-13
1.08862e-07
1.09996e-07
1.09995e-07
1.09993e-07
1.09991e-07
1.09988e-07
1.09985e-07
1.09982e-07
1.09979e-07
1.09977e-07
1.09974e-07
1.09971e-07
1.09968e-07
1.08829e-07
5.46778e-13
1.03217e-15
1.00243e-15
1e-15
1.00209e-15
5.78168e-13
1.11898e-07
1.13099e-07
1.13096e-07
1.13092e-07
1.13087e-07
1.13082e-07
1.13077e-07
1.13071e-07
1.13066e-07
1.1306e-07
1.13055e-07
1.1305e-07
1.13045e-07
1.11837e-07
5.80406e-13
1.00212e-15
1e-15
1e-15
1.00092e-15
3.09332e-13
6.76169e-08
6.83363e-08
6.83318e-08
6.83266e-08
6.83208e-08
6.83147e-08
6.83083e-08
6.83017e-08
6.82951e-08
6.82885e-08
6.8282e-08
6.82757e-08
6.82699e-08
6.75421e-08
2.97294e-13
1.00089e-15
1e-15
1e-15
1.00089e-15
2.96978e-13
6.57752e-08
6.64427e-08
6.64379e-08
6.64326e-08
6.64267e-08
6.64206e-08
6.64143e-08
6.64079e-08
6.64013e-08
6.63949e-08
6.63884e-08
6.63823e-08
6.63764e-08
6.57002e-08
2.88258e-13
1.00087e-15
1e-15
1e-15
1.00082e-15
2.88265e-13
6.8416e-08
6.9115e-08
6.9111e-08
6.91064e-08
6.91013e-08
6.90959e-08
6.90902e-08
6.90844e-08
6.90784e-08
6.90723e-08
6.90663e-08
6.90604e-08
6.90548e-08
6.8348e-08
2.99043e-13
1.00086e-15
1e-15
1e-15
1.00078e-15
2.74476e-13
6.37251e-08
6.4365e-08
6.43615e-08
6.43575e-08
6.43531e-08
6.43483e-08
6.43433e-08
6.4338e-08
6.43327e-08
6.43272e-08
6.43218e-08
6.43164e-08
6.43113e-08
6.36644e-08
2.59541e-13
1.00073e-15
1e-15
1e-15
1.00163e-15
5.36522e-13
1.14576e-07
1.15744e-07
1.15739e-07
1.15734e-07
1.15728e-07
1.15721e-07
1.15714e-07
1.15707e-07
1.157e-07
1.15693e-07
1.15685e-07
1.15678e-07
1.15671e-07
1.14494e-07
5.87765e-13
1.00184e-15
1e-15
1e-15
1.00171e-15
5.55477e-13
1.10863e-07
1.11944e-07
1.1194e-07
1.11935e-07
1.1193e-07
1.11924e-07
1.11918e-07
1.11911e-07
1.11905e-07
1.11898e-07
1.11892e-07
1.11885e-07
1.11879e-07
1.10789e-07
5.16094e-13
1.00156e-15
1e-15
1e-15
1.00391e-15
1.18046e-12
2.10994e-07
2.13098e-07
2.13095e-07
2.1309e-07
2.13085e-07
2.1308e-07
2.13075e-07
2.13069e-07
2.13063e-07
2.13057e-07
2.1305e-07
2.13044e-07
2.13037e-07
2.10923e-07
1.34415e-12
1.00466e-15
1e-15
1e-15
1.00433e-15
1.27379e-12
2.09221e-07
2.11218e-07
2.11215e-07
2.1121e-07
2.11206e-07
2.11201e-07
2.11196e-07
2.1119e-07
2.11185e-07
2.11179e-07
2.11172e-07
2.11166e-07
2.1116e-07
2.09153e-07
1.18132e-12
1.00394e-15
1e-15
1e-15
1.00894e-15
2.52576e-12
3.7108e-07
3.74688e-07
3.74691e-07
3.74693e-07
3.74695e-07
3.74697e-07
3.74701e-07
3.74703e-07
3.74707e-07
3.74709e-07
3.74712e-07
3.74713e-07
3.74713e-07
3.71105e-07
2.94158e-12
1.01114e-15
1e-15
1.00152e-15
1.07936e-15
2.90519e-12
3.82255e-07
3.85831e-07
3.85838e-07
3.85841e-07
3.85844e-07
3.85847e-07
3.85851e-07
3.85851e-07
3.85858e-07
3.8586e-07
3.85863e-07
3.85864e-07
3.85861e-07
3.82286e-07
2.77482e-12
1.0789e-15
1.00153e-15
7.57173e-14
5.90452e-13
1.14529e-08
1.94321e-08
1.82842e-08
1.62004e-08
1.62004e-08
1.62003e-08
1.62002e-08
1.62002e-08
1.78075e-08
1.61983e-08
1.61982e-08
1.61982e-08
1.61983e-08
1.82107e-08
1.94306e-08
1.14525e-08
6.05529e-13
7.58924e-14
2.44482e-10
1.22101e-08
8.05993e-08
9.56072e-08
8.49241e-08
8.48956e-08
8.48964e-08
8.48972e-08
8.48977e-08
8.48984e-08
8.49398e-08
8.49e-08
8.49012e-08
8.49028e-08
8.49049e-08
8.49356e-08
9.56257e-08
8.06188e-08
1.22131e-08
2.45019e-10
2.42757e-05
0.000101097
0.000134585
0.0001347
0.000134711
0.000134724
0.000134739
0.000134757
0.000134776
0.000134797
0.000134818
0.000134841
0.000134864
0.000134887
0.00013491
0.000134932
0.000134952
0.000134862
0.000101337
2.43707e-05
2.25188e-07
3.66225e-06
6.87877e-06
6.87257e-06
6.87423e-06
6.87616e-06
6.87837e-06
6.88081e-06
6.88342e-06
6.88615e-06
6.88892e-06
6.89172e-06
6.89443e-06
6.89704e-06
6.89945e-06
6.90166e-06
6.90352e-06
6.91261e-06
3.68405e-06
2.25498e-07
1.85853e-09
3.37973e-08
8.03187e-08
9.19543e-08
8.05288e-08
8.0535e-08
8.05429e-08
8.05516e-08
8.05608e-08
8.05704e-08
8.05803e-08
8.05901e-08
8.05996e-08
8.06087e-08
8.06172e-08
8.06255e-08
9.20644e-08
8.04386e-08
3.38824e-08
1.86532e-09
1.95955e-12
1.70507e-10
4.76324e-10
8.50347e-09
6.04217e-09
6.04197e-09
6.042e-09
6.04202e-09
6.04206e-09
6.04209e-09
6.04213e-09
6.04216e-09
6.04219e-09
6.04222e-09
6.04224e-09
6.04258e-09
8.504e-09
4.76603e-10
1.70699e-10
1.93826e-12
1.99034e-14
8.82516e-13
3.7239e-12
1.66986e-07
1.68565e-07
1.68565e-07
1.68564e-07
1.68562e-07
1.68561e-07
1.6856e-07
1.68558e-07
1.68556e-07
1.68554e-07
1.68552e-07
1.6855e-07
1.68547e-07
1.66965e-07
3.66053e-12
8.83033e-13
1.99587e-14
1.07221e-15
5.66931e-15
1.02557e-12
1.74758e-07
1.76631e-07
1.76631e-07
1.7663e-07
1.7663e-07
1.76629e-07
1.76627e-07
1.76626e-07
1.76625e-07
1.76623e-07
1.76621e-07
1.76619e-07
1.76616e-07
1.7474e-07
1.06821e-12
5.67122e-15