/*--------------------------------*- C++ -*----------------------------------*\
| =========                 |                                                 |
| \\      /  F ield         | OpenFOAM: The Open Source CFD Toolbox           |
|  \\    /   O peration     | Version:  2212                                  |
|   \\  /    A nd           | Website:  www.openfoam.com                      |
|    \\/     M anipulation  |                                                 |
\*---------------------------------------------------------------------------*/
FoamFile
{
    version     2.0;
    format      ascii;
    arch        "LSB;label=32;scalar=64";
    class       volScalarField;
    location    "0.00831";
    object      p;
}
// * * * * * * * * * * * * * * * * * * * * * * * * * * * * * * * * * * * * * //

dimensions      [1 -1 -2 0 0 0 0];

internalField   nonuniform List<scalar> 
2681
(
195.38
270.026
264.57
190.145
258.1
269.564
189.923
190.156
190.224
190.267
190.107
190.608
190.537
191.941
190.77
190.976
191.396
190.176
190.214
190.264
190.333
190.527
190.455
190.392
190.685
190.604
190.147
190.086
190.116
190.226
190.186
190.31
190.265
190.413
190.359
190.473
190.473
190.554
190.647
190.576
190.656
190.441
190.504
190.348
190.389
267.58
190.308
190.18
190.043
190.095
190.136
190.746
191.267
190.175
190.131
190.479
190.539
190.053
190.059
190.073
190.04
190.245
190.198
190.354
190.301
190.502
190.427
190.684
190.588
190.014
190.791
190.73
190.853
190.508
190.614
190.683
190.015
191.752
264.385
190.122
190.061
190.09
190.198
190.159
190.28
190.237
190.373
190.325
190.425
190.504
190.568
190.399
190.449
190.317
190.356
190.24
190.279
190.154
190.198
190.112
190.091
190.077
190.603
190.965
190.871
190.851
190.034
190.051
190.022
191.047
191.233
191.105
191.105
190.536
190.665
190.594
190.106
190.058
190.07
190.801
191.764
191.126
237.888
190.675
190.769
190.736
190.012
265.203
190.028
194.225
192.182
190.168
190.123
190.272
190.218
190.395
190.33
190.555
190.469
190.776
190.657
190.912
190.833
190.98
190.58
190.697
191.485
190.114
336.186
190.195
190.148
190.041
189.999
190.018
190.098
190.068
190.169
190.132
190.249
190.208
190.336
190.292
190.429
190.382
190.534
190.48
191.968
190.593
190.446
190.491
190.36
190.401
190.285
190.321
190.209
190.248
190.126
190.167
190.086
190.029
190
190.014
190.044
189.903
190.042
190.053
191.3
191.402
191.574
190.984
190.752
190.965
189.988
190.747
190.659
190.122
190.083
191.245
191.23
189.995
189.984
201.299
202.007
202.004
201.298
189.984
189.99
189.976
190.663
191.575
189.912
190.031
201.966
265.398
256.344
190.863
190.846
267.097
190.007
193.01
190.103
190.07
190.188
190.142
190.299
190.242
190.432
190.363
190.613
190.515
190.868
190.731
191.197
191.022
191.387
190.951
191.126
190.651
190.79
190.453
190.54
190.322
190.382
190.215
190.267
190.166
202.853
203.811
204.929
206.184
207.604
209.185
210.963
212.96
215.185
217.644
217.655
220.309
223.329
223.352
220.317
212.964
215.194
209.175
210.958
206.172
207.594
203.803
204.919
202.848
190.025
190.005
190.075
190.048
190.141
190.106
190.217
190.178
190.299
190.258
190.384
190.342
190.474
190.428
199.194
190.522
190.627
190.58
190.729
190.704
190.637
190.478
190.526
190.397
190.437
190.322
190.359
190.252
190.287
190.176
190.215
190.098
190.137
190.032
190.063
190.009
190.006
189.994
190.031
190.019
190.052
190.041
196.476
204.881
191.099
190.834
190.833
191.08
189.976
191.803
200.66
200.66
189.983
281.813
217.693
220.469
191.392
237.792
190.81
191.371
190.019
190.027
200.696
200.134
200.166
189.972
189.965
189.983
189.97
226.967
226.957
190.689
190.793
191.751
191.558
190.702
190.794
265.848
192.177
192.793
189.879
190.064
190.028
190.037
190.96
190.948
189.966
189.981
189.973
190
189.99
190.01
190.118
190.081
190.21
190.161
190.326
190.265
190.471
190.394
190.675
190.563
190.97
190.811
191.352
191.15
191.575
191.73
192.475
191.515
191.751
191.079
191.289
190.728
190.89
190.494
190.596
190.346
190.413
190.235
190.288
190.138
190.185
190.097
202.042
201.335
203.837
202.884
206.199
204.95
209.191
207.616
212.961
210.966
215.195
200.696
200.168
200.134
231.779
232.083
214.254
223.37
227.152
217.696
220.342
212.997
215.236
209.177
210.974
206.172
207.589
203.82
204.927
202.036
202.873
201.333
190.013
189.997
190.056
190.033
190.115
190.084
190.185
190.149
190.262
190.223
190.343
190.303
190.422
190.382
190.502
190.462
190.575
190.542
190.733
190.637
190.604
190.75
190.657
190.785
190.687
190.675
190.591
190.612
190.509
190.557
190.427
190.467
190.355
190.39
190.288
190.322
190.22
190.254
190.147
190.184
190.076
190.111
190.02
190.046
189.999
189.989
189.979
190.009
189.999
190.019
277.49
195.774
223.691
191.225
190.93
190.927
191.205
190.033
296.375
192.481
190.811
200.758
200.223
189.957
200.557
189.968
189.959
189.95
189.958
190.075
190.047
231.523
193.204
193.642
285.277
189.911
217.796
220.698
193.613
194.044
194.295
190.905
191.548
191.523
190.899
192.782
200.76
200.227
198.875
275.076
264.684
193.349
191.942
190.845
190.669
190.772
190.713
190.818
190.86
191.91
193.26
227.629
189.879
192.628
196.577
191.069
191.058
189.97
189.963
189.986
189.978
190.002
189.994
190.017
190.01
190.025
190.068
190.044
190.134
190.093
190.23
190.179
190.352
190.288
190.51
190.425
190.741
190.614
191.076
190.896
191.519
191.282
192.078
191.786
192.366
192.371
192.702
191.718
192.02
191.203
191.446
190.803
190.987
190.535
190.652
190.369
190.442
190.252
190.307
190.154
190.201
190.111
202.102
201.398
203.882
202.938
206.231
204.987
209.217
207.643
212.987
210.989
215.243
199.638
199.667
199.639
190.894
199.711
199.664
247.658
256.868
232.032
238.896
223.696
227.482
217.823
220.574
213.03
215.307
209.185
210.991
206.191
207.6
203.863
204.958
202.097
202.927
201.397
189.96
189.942
189.951
189.98
189.969
190.006
189.991
190.042
190.022
190.092
190.065
190.155
190.122
190.227
190.19
190.302
190.264
190.375
190.339
190.445
190.411
190.506
190.478
190.558
190.531
190.698
190.605
190.583
190.625
190.635
190.73
190.634
190.64
190.605
190.622
190.571
190.59
190.518
190.541
190.453
190.488
190.384
190.419
190.321
190.352
190.258
190.29
190.193
190.226
190.125
190.159
190.062
190.092
190.012
190.035
189.977
189.993
189.947
189.963
189.946
189.935
189.962
189.955
189.976
189.969
189.993
189.984
190.009
190.002
190.025
190.017
286.016
237.988
190.486
194.754
224.109
213.981
194.941
198.203
197.387
196.342
191.033
191.36
190.741
190.722
191.338
191.028
193.213
193.227
194.298
189.886
196.52
193.699
192.652
199.716
274.821
267.913
189.933
189.924
189.934
275.545
193.8
191.715
190.976
190.808
190.847
190.987
191.69
192.584
190.004
190.011
232.972
197.985
296.792
284.447
190.939
196.468
257.161
268.814
193.04
240.941
192.151
190.896
190.943
192.103
190.009
190.033
190.016
199.334
199.776
199.394
228.39
189.935
192.391
193.212
195.574
190.339
190.438
191.188
190.734
191.174
193.575
189.949
189.942
189.962
189.955
189.975
189.968
189.99
189.983
189.997
190.033
190.079
190.054
190.149
190.11
190.249
190.196
190.377
190.309
190.55
190.456
190.807
190.665
191.181
190.98
191.678
191.413
192.329
191.983
192.779
196.577
193.171
191.875
192.238
191.309
191.573
190.874
191.076
190.574
190.707
190.391
190.471
190.266
190.324
190.167
190.214
190.086
190.123
190.056
200.838
200.297
202.185
201.481
203.952
203.015
206.29
205.051
209.273
207.701
213.06
211.05
218
215.358
224.787
221.072
199.299
199.783
199.402
199.34
199.278
199.279
199.296
252.507
260.878
234.321
242.106
224.448
228.631
218.094
221.01
213.122
215.468
209.233
211.048
206.25
207.652
203.938
205.025
202.183
203.008
200.842
201.483
200.302
189.954
189.944
189.976
189.965
190.001
189.987
190.033
190.016
190.076
190.053
190.13
190.101
190.194
190.161
190.264
190.229
190.333
190.299
190.396
190.366
190.449
190.424
190.491
190.47
190.528
190.511
190.551
190.543
190.553
190.556
190.533
190.546
190.506
190.521
190.462
190.482
190.408
190.437
190.35
190.38
190.293
190.322
190.234
190.264
190.172
190.203
190.109
190.14
190.051
190.079
190.005
190.027
189.97
189.987
189.94
189.955
189.953
189.945
189.967
189.96
189.981
189.974
189.996
189.989
190.003
189.923
310.457
276.076
189.915
195.589
194.353
195.584
191.499
191.129
190.838
190.865
191.133
191.483
192.909
190.375
190.019
193.795
201.7
275.322
194.475
240.979
189.925
197.985
194.78
199.861
199.478
290.994
268.473
191.023
284.342
195.634
193.425
253.748
248.5
191.895
191.045
190.941
191.001
191.08
191.869
192.336
189.924
189.915
190.04
190.022
189.998
190.004
199.852
199.469
198.974
199.036
195.682
234.215
189.924
189.913
229.445
190.014
192.772
189.885
194.92
190.413
191.304
190.855
191.299
193.253
189.941
189.933
189.955
189.948
189.968
189.961
189.982
189.975
189.995
189.989
190.009
190.002
190.015
190.041
190.025
190.089
190.062
190.162
190.122
190.265
190.21
190.401
190.328
190.586
190.485
190.868
190.712
191.28
191.058
191.833
191.536
192.597
192.181
193.118
197.213
193.045
193.701
192.064
192.504
191.41
191.708
190.938
191.156
190.613
190.757
190.411
190.499
190.28
190.34
190.177
190.226
190.094
190.132
190.063
200.923
200.376
202.279
201.572
204.041
203.107
206.371
205.135
209.356
207.781
213.176
211.142
218.291
215.532
225.525
221.566
198.945
199.045
198.982
198.929
198.931
198.94
254.426
261.934
236.634
245.775
225.431
230.052
218.439
221.64
213.218
215.649
209.308
211.122
206.342
207.735
204.037
205.121
202.282
203.108
200.929
201.577
200.383
244.575
189.948
189.936
189.972
189.959
189.997
189.984
190.028
190.012
190.066
190.046
190.113
190.089
190.169
190.14
190.232
190.2
190.296
190.264
190.355
190.326
190.403
190.38
190.439
190.422
190.467
190.454
190.486
190.478
190.489
190.49
190.476
190.485
190.454
190.467
190.419
190.436
190.374
190.397
190.323
190.349
190.271
190.297
190.215
190.244
190.156
190.186
190.097
190.126
190.042
190.069
189.998
190.019
189.963
189.98
189.934
189.948
189.922
189.944
189.935
189.959
189.952
189.972
189.965
189.986
189.979
189.992
202.736
201.648
199.118
299.681
289.094
282.121
199.452
195.517
191.103
297.33
194.923
193.864
194.858
248.835
238.574
253.787
191.635
191.216
190.98
191.028
191.246
191.64
192.611
190.351
189.906
190.003
190.009
194.205
277.501
196.704
195.332
190.01
199.107
198.119
195.117
244.101
189.903
204.806
236.018
230.521
191.18
288.455
194.884
193.051
206.155
192.044
191.105
192.072
198.856
198.922
297.886
192.474
229.234
190.011
191.177
314.609
308.503
194.339
190.293
215.245
296.349
191.416
191.001
191.434
192.904
189.898
189.915
189.906
189.933
189.924
189.949
189.941
189.963
189.956
189.977
189.97
189.99
189.984
189.997
190.02
190.014
190.048
190.031
190.097
190.07
190.173
190.131
190.279
190.222
190.421
190.345
190.618
190.51
190.921
190.753
191.367
191.126
191.978
191.648
192.856
192.374
193.475
198.429
193.411
194.275
192.224
192.744
191.491
191.82
190.988
191.218
190.644
190.798
190.43
190.523
190.293
190.355
190.185
190.236
190.101
190.14
190.045
190.069
190.015
190.028
199.921
199.128
199.517
201.001
200.452
202.374
201.66
204.138
203.204
206.466
205.23
209.46
207.877
213.342
211.267
218.688
215.782
226.397
222.184
202.221
198.743
198.784
198.726
198.728
198.776
198.738
198.909
198.845
254.517
261.545
239.266
247.298
226.589
231.927
218.915
222.439
213.38
215.914
209.427
211.248
206.458
207.853
204.145
205.233
202.381
203.211
201.01
201.667
199.932
200.461
199.141
199.529
189.916
189.897
189.906
216.191
189.896
189.896
189.89
190.389
189.941
189.928
189.967
189.954
189.995
189.981
190.026
190.01
190.062
190.043
190.104
190.082
190.154
190.128
190.21
190.181
190.268
190.239
190.324
190.297
190.37
190.348
190.404
190.388
190.428
190.417
190.442
190.436
190.445
190.445
190.437
190.443
190.418
190.429
190.388
190.404
190.348
190.369
190.303
190.326
190.254
190.279
190.201
190.228
190.143
190.172
190.086
190.114
190.034
190.059
189.992
190.012
189.958
189.974
189.929
189.943
189.907
189.917
189.892
189.898
189.915
189.905
189.935
189.925
189.951
189.944
189.965
189.958
189.979
189.972
189.991
189.985
190.002
189.996
280.498
273.939
282.776
279.072
271.245
265.84
197.594
237.793
232.018
191.28
303.994
194.301
193.411
194.24
215.241
189.88
265.93
214.196
246.404
191.762
191.295
191.156
191.227
191.369
191.815
192.306
192.856
189.892
209.893
190.007
198.916
198.929
301.137
288.491
309.576
267.777
192.689
192.158
190.013
189.887
191.48
197.791
194.835
317.633
322.988
328.524
321.841
329.853
239.742
193.7
191.374
321.387
193.805
193.69
232.523
231.839
269.636
272.776
189.88
290.178
247.665
247.5
291.502
191.516
191.196
191.584
192.561
189.907
189.899
189.926
189.916
189.943
189.935
189.96
189.952
189.975
189.967
189.989
189.982
190.001
189.995
190.007
190.024
190.017
190.053
190.036
190.103
190.075
190.18
190.138
190.291
190.231
190.437
190.359
190.643
190.529
190.966
190.787
191.442
191.184
192.117
191.748
193.158
192.575
194.933
193.944
196.343
196.207
198.333
203
193.702
194.727
192.358
192.941
191.555
191.911
191.026
191.266
190.668
190.828
190.445
190.542
190.303
190.368
190.193
190.245
190.106
190.146
190.05
190.074
190.019
190.032
190.011
198.902
199.13
199.526
199.939
200.488
201.053
201.726
202.448
203.283
204.22
205.315
206.555
207.976
209.582
211.427
213.565
216.11
219.172
222.869
227.482
233.638
240.638
247.185
253.544
259.669
261.957
268.221
201.315
275.725
198.738
198.688
198.603
198.52
198.464
198.438
198.435
198.457
198.51
198.59
198.674
198.724
198.701
272.598
259.905
254.279
247.576
240.496
233.485
227.683
223.182
219.414
216.248
213.622
211.442
209.588
207.989
206.574
205.334
204.235
203.294
202.457
201.735
201.064
200.5
199.953
199.54
199.145
198.916
198.716
301.46
297.599
271.415
192.206
192.773
281.91
272.555
193.728
192.968
192.336
292.12
190.248
332.037
190.656
326.758
281.796
233.202
279.746
261.753
326.58
293.308
257.071
263.061
254.977
307.614
323.461
316.923
317.731
314.589
308.889
197.7
191.877
191.485
191.365
191.502
192.463
192.011
268.307
272.224
274.833
277.704
281.672
288.407
190.723
194.506
256.927
190.019
252.999
275.261
190.006
190.002
189.997
189.991
189.985
189.979
189.973
189.966
189.959
189.952
189.944
189.935
189.926
189.917
189.907
189.899
189.892
189.887
189.884
189.882
189.885
189.89
189.897
189.906
189.916
189.928
189.942
189.957
189.972
189.989
190.008
190.028
190.051
190.076
190.103
190.131
190.16
190.188
190.216
190.242
190.266
190.29
190.312
190.333
190.353
190.371
190.386
190.399
190.41
190.418
190.423
190.426
190.425
190.423
190.417
190.409
190.399
190.385
190.369
190.35
190.329
190.305
190.279
190.252
190.225
190.198
190.172
190.147
190.124
190.101
190.08
190.061
190.042
190.025
190.008
189.992
189.977
189.962
189.948
189.934
189.921
189.909
198.681
198.667
198.89
198.65
189.882
315.021
230.613
189.899
189.891
199.129
194.068
189.882
189.885
189.89
189.895
189.902
189.91
189.919
189.928
189.937
189.945
189.953
189.961
189.968
189.975
189.982
189.999
189.994
189.988
190.009
190.015
190.022
190.035
190.052
190.077
190.11
190.151
190.198
190.25
190.308
190.373
190.451
190.55
190.677
190.839
191.039
191.281
191.576
191.944
192.417
193.05
193.919
195.202
197.255
209.883
200.97
195.621
244.091
198.689
196.005
194.486
193.449
192.745
192.225
191.822
191.495
191.223
190.996
190.81
190.659
190.542
190.447
190.367
190.298
190.238
190.186
190.142
190.107
190.078
190.056
190.039
190.019
190.027
277.872
190.01
190.006
190.001
189.995
189.988
189.981
189.974
189.965
189.957
189.948
189.939
189.929
189.919
189.91
189.901
189.893
189.882
189.887
190.071
189.885
189.891
189.898
189.908
189.919
189.931
189.945
189.96
189.976
189.992
190.009
190.027
190.048
190.07
190.095
190.121
190.149
190.177
190.205
190.232
190.258
190.283
190.307
190.328
190.348
190.367
190.383
190.396
190.408
190.416
190.422
190.425
190.425
190.422
190.416
190.408
190.396
190.381
190.363
190.343
190.32
190.296
190.271
190.245
190.22
190.195
190.17
190.147
190.124
190.102
190.081
190.061
190.042
190.024
190.006
189.989
189.973
189.957
189.941
189.927
189.914
189.903
189.894
189.887
194.219
266.568
189.879
189.876
296.04
288.969
284.422
279.958
276.709
274.315
271.229
269.072
265.135
263.213
259.134
254.367
247.985
241.089
234.43
228.585
223.765
219.894
216.636
213.942
211.704
209.795
208.145
206.689
205.421
204.305
203.351
202.501
201.766
201.078
200.504
199.956
198.907
199.158
199.544
192.228
191.751
191.419
191.609
271.101
201.9
306.464
289.434
286.03
283.946
283.219
282.425
310.787
206.695
260.986
256.285
198.666
198.579
198.499
198.431
198.38
198.357
198.36
198.387
198.441
198.512
198.594
199.364
246.17
289.591
291.08
264.249
195.316
191.987
190.087
290.874
284.081
279.618
309.249
274.736
273.113
264.11
261.956
258.64
252.261
246.464
240.846
234.727
228.681
223.583
219.696
216.487
213.837
211.624
209.726
208.085
206.642
205.388
204.285
203.339
202.492
201.757
201.066
200.49
199.94
199.528
199.141
270.699
281.427
282.23
260.197
272.467
328.63
193.243
193.282
190.202
190.571
190.003
198.651
198.667
192.543
335.333
299.855
274.058
198.572
198.553
189.878
324.478
318.164
300.956
193.678
192.017
191.637
273.663
189.875
190.272
247.674
190.223
324.849
192.814
258.501
295.902
275.86
199.15
198.619
198.886
199.934
199.525
201.062
200.481
202.503
201.756
204.316
203.362
206.701
205.43
209.844
208.169
214.085
211.795
220.178
216.841
229.437
224.339
240.73
235.076
251.767
246.046
262.525
258.178
269.149
265.09
271.816
270.856
276.514
273.818
278.513
277.668
280.461
279.476
279.841
280.645
278.322
279.931
274.412
198.107
198.609
198.527
198.041
198.072
197.968
197.997
197.99
197.966
198.059
198.03
198.508
198.091
198.488
198.467
198.468
198.588
262.822
196.298
190.006
304.159
293.888
191.695
191.939
198.488
198.904
198.639
199.544
199.169
200.497
199.952
201.766
201.075
203.373
202.512
205.472
204.338
208.27
206.77
211.949
209.975
216.994
214.251
224.217
220.277
234.793
229.051
248.314
241.342
258.242
254.36
265.268
261.832
268.959
197.656
273.215
270.647
276.997
275.024
278.725
278.078
279.324
279.099
275.582
277.459
275.276
189.875
189.874
189.884
189.879
189.899
189.89
189.922
189.909
189.952
189.936
189.987
189.969
190.023
190.005
190.062
190.042
190.104
190.083
190.149
190.126
190.196
190.172
190.245
190.221
190.295
190.27
190.343
190.319
190.384
190.365
190.415
190.401
190.432
190.425
190.434
190.435
190.424
190.431
190.402
190.415
190.37
190.387
190.329
190.351
190.281
190.306
190.225
190.254
190.168
190.197
190.115
190.141
190.068
190.09
190.03
190.048
189.997
190.013
189.965
189.981
189.935
189.95
189.91
189.922
189.891
189.9
190.057
189.885
201.425
189.883
189.878
189.896
189.889
189.915
189.905
189.935
189.925
189.955
189.946
189.973
189.964
189.989
189.981
190.002
189.996
190.01
190.007
279.488
190.013
293.886
190.028
190.02
190.057
190.04
190.109
190.08
190.189
190.145
190.303
190.242
190.453
190.373
190.669
190.549
191.014
190.823
191.53
191.248
192.309
191.874
193.765
192.895
198.036
195.21
217.702
204.013
243.043
204.536
220.416
195.587
198.658
193.118
194.076
191.968
192.454
191.294
191.593
190.847
191.049
190.556
190.684
190.376
190.456
190.253
190.311
190.153
190.201
190.079
190.112
190.036
190.054
190.016
190.024
190.011
190.245
190.017
189.997
190.001
189.986
189.992
189.972
189.979
189.957
189.965
189.94
189.949
189.922
189.931
189.906
189.914
189.893
189.899
189.885
189.889
280.804
189.881
259.759
189.876
198.354
198.332
190.322
333.384
189.876
189.878
189.88
189.883
189.887
189.892
189.897
189.904
189.911
189.919
189.928
189.938
189.947
189.956
189.964
189.972
189.98
189.986
189.992
189.997
190.001
190.003
190.296
286.835
190.013
190.017
190.024
190.035
190.053
190.077
190.109
190.149
190.194
190.245
190.302
190.366
190.443
190.538
190.659
190.812
190.999
191.226
191.5
191.841
192.288
192.907
193.887
195.58
199.232
206.491
223.924
248.076
248.921
226.667
208.271
199.453
195.784
193.91
192.92
192.3
191.853
191.51
191.231
191.002
190.814
190.664
190.545
190.449
190.368
190.299
190.238
190.185
190.142
190.106
190.077
190.055
190.038
190.026
190.02
190.018
292.404
190.014
190.014
190.012
190.009
190.003
189.997
189.99
189.982
189.973
189.964
189.954
189.944
189.933
189.922
189.912
189.902
189.893
189.885
189.879
189.875
209.133
189.88
189.886
189.892
189.901
189.911
189.924
189.938
189.953
189.969
189.985
190.001
190.017
190.033
190.05
190.068
190.089
190.111
190.136
190.163
190.192
190.222
190.251
190.28
190.307
190.332
190.355
190.375
190.393
190.409
190.422
190.432
190.44
190.443
190.444
190.44
190.433
190.422
190.407
190.389
190.368
190.345
190.321
190.296
190.271
190.247
190.222
190.198
190.174
190.15
190.127
190.104
190.083
190.062
190.041
190.022
190.003
189.984
189.965
189.947
189.93
189.916
189.904
189.894
189.886
189.88
189.876
189.873
189.872
189.872
189.873
258.044
270.631
273.155
269.922
269.254
275.098
278.563
279.8
279.117
276.104
274.146
271.119
269.051
266.431
263.81
261.015
258.136
254.61
248.468
241.426
234.83
229.132
224.436
220.5
217.188
214.426
212.111
210.11
208.37
206.847
205.532
204.387
203.394
202.512
201.766
201.074
200.483
199.929
199.516
199.148
198.886
198.615
198.449
198.283
192.128
191.814
333.022
311.473
190.016
304.951
264.865
198.261
198.481
198.651
198.567
198.166
198.167
198.149
198.114
198.091
198.093
198.121
198.159
198.18
198.182
198.587
198.674
198.505
198.286
198.179
206.38
268.435
272.885
269.762
269.21
275.563
279.094
280.211
279.057
274.911
272.963
270.09
268.605
267.267
265.044
263.295
259.519
252.142
246.099
240.607
234.969
229.504
224.644
220.516
217.067
214.247
211.93
209.954
208.251
206.768
205.486
204.364
203.383
202.504
201.756
201.06
200.467
199.91
199.496
199.128
198.866
198.595
198.427
198.26
198.152
307.75
295.605
191.79
192.157
268.793
313.896
305.39
338.319
190.006
192.325
197.571
266.953
189.878
192.182
189.878
190.01
271.887
266.713
189.879
189.886
262.705
190.008
195.627
194.771
262.052
190.744
208.011
195.987
281.98
192.661
189.879
192.365
192.27
191.956
267.819
190.016
190.421
190.856
244.578
189.929
200.847
267.716
266.032
195.846
190.015
266.473
190.138
191.57
190.004
281.714
190.014
281.728
191.255
276.678
292.4
263.012
282.687
189.892
333.22
263.596
196.963
274.166
193.913
190.752
189.879
190.658
189.973
192.325
190.054
190.289
190.596
)
;

boundaryField
{
    wall
    {
        type            zeroGradient;
    }
    outlet
    {
        type            inletOutlet;
        inletValue      uniform 1e-05;
        value           nonuniform List<scalar> 
20
(
198.261
198.481
198.651
198.567
198.166
198.167
198.149
198.114
198.091
198.093
198.121
198.159
198.18
198.182
198.587
198.674
198.505
198.286
198.179
198.152
)
;
    }
    frontAndBackPlanes
    {
        type            empty;
    }
}


// ************************************************************************* //
