/*--------------------------------*- C++ -*----------------------------------*\
| =========                 |                                                 |
| \\      /  F ield         | OpenFOAM: The Open Source CFD Toolbox           |
|  \\    /   O peration     | Version:  2212                                  |
|   \\  /    A nd           | Website:  www.openfoam.com                      |
|    \\/     M anipulation  |                                                 |
\*---------------------------------------------------------------------------*/
FoamFile
{
    version     2.0;
    format      ascii;
    arch        "LSB;label=32;scalar=64";
    class       volScalarField;
    location    "0.0451";
    object      p;
}
// * * * * * * * * * * * * * * * * * * * * * * * * * * * * * * * * * * * * * //

dimensions      [1 -1 -2 0 0 0 0];

internalField   nonuniform List<scalar> 
2308
(
614.21
622.85
611.149
609.568
612.872
609.656
613.626
614.572
613.657
617.722
617.116
615.137
613.076
611.11
609.572
608.549
607.951
607.863
607.788
608.061
608.707
609.884
611.591
613.624
615.286
616.351
617.213
617.881
612.567
607.713
619
621.176
624.788
629.9
636.098
642.516
648.029
651.86
653.554
653.214
651.674
649.467
647.005
644.476
641.9
641.361
643.085
645.12
647.434
649.956
652.322
653.905
653.655
650.846
645.909
639.517
632.823
627.003
622.767
620.218
619.039
618.913
619.056
618.828
618.024
616.539
614.55
612.405
610.558
609.184
608.249
639.18
639.612
607.87
607.781
608.091
608.841
610.17
611.872
613.55
614.998
616.172
617.151
618.406
620.432
623.556
627.918
633.339
639.281
644.835
649.182
651.895
652.761
652.133
650.521
648.102
645.213
641.947
608.258
638.347
607.908
607.739
640.127
640.975
641.907
643.175
645.145
647.682
650.43
652.826
653.987
652.75
648.839
643.094
636.349
630.035
625.149
622.077
620.598
620.222
620.283
620.254
619.594
618.158
616.122
613.773
611.636
609.946
608.705
615.435
608.75
608.743
608.77
609.218
608.299
607.79
607.752
608.127
609.027
610.413
612.05
613.72
615.283
616.732
618.317
620.379
623.204
626.965
631.579
636.779
641.929
646.279
649.43
651.03
650.982
649.75
647.453
644.349
640.608
636.401
632.038
634.607
636.364
637.804
614.167
639.299
616.158
617.622
607.69
614.816
612.964
608.889
607.931
628.04
631.063
633.605
636.026
638.521
641.244
641.132
641.091
641.161
641.384
642.02
643.434
645.574
648.205
650.877
653.017
653.361
651.109
646.318
640.093
633.586
628.132
624.389
622.353
621.586
621.5
621.518
621.041
619.747
617.711
615.216
612.838
610.852
609.292
611.601
612.468
611.883
615.769
615.454
614.742
613.802
612.665
611.395
610.093
608.946
608.106
607.694
607.773
608.293
609.367
610.874
612.671
614.609
616.584
618.621
620.882
623.579
626.876
630.83
635.261
639.8
643.813
646.895
648.428
648.405
647.011
644.531
641.105
637.016
632.545
627.997
623.979
612.284
615.385
620.067
611.086
610.793
616.572
607.635
610.624
643.946
643.233
642.599
642.056
641.624
641.593
642.283
643.829
646.081
648.71
651.316
652.756
652.319
649.104
643.643
637.309
631.421
626.976
624.25
622.977
622.643
622.633
622.305
621.202
619.258
616.704
614.125
611.883
610.016
608.215
614.468
619.513
616.614
616.402
615.803
614.905
613.756
612.438
611.052
609.753
608.687
607.98
607.749
608.015
608.808
610.2
612.073
614.3
616.732
619.227
621.774
624.456
627.428
630.812
634.594
638.489
642.027
644.627
645.722
645.178
643.181
639.982
635.975
631.477
626.794
622.289
618.615
616.274
621.078
624.917
628.101
631.169
634.389
637.751
641.32
644.618
619.143
614.192
611.002
615.679
614.134
611.498
608.644
607.658
614.547
615.046
613.365
611.895
617.626
617.372
616.789
615.908
614.776
613.45
612.033
610.662
609.471
608.583
608.124
608.202
608.795
610.061
611.992
614.458
617.25
620.131
622.92
625.599
628.304
631.22
634.409
637.722
640.711
642.766
643.227
641.987
639.186
635.3
630.59
625.534
620.449
615.874
612.549
610.842
611.248
616.105
620.17
623.376
626.215
629.31
632.927
636.957
641.267
645.057
646.938
646.959
646.338
645.513
644.587
643.572
642.544
641.764
641.663
642.492
644.237
646.633
649.505
651.568
652.451
651.098
646.89
640.903
634.778
629.667
626.194
624.341
623.655
623.557
623.36
622.493
620.72
618.2
615.47
612.997
610.866
614.346
607.835
607.596
612.687
614.546
615.138
615.948
616.883
620.943
617.591
618.758
618.674
618.32
617.687
616.787
615.656
614.349
612.959
611.602
610.399
609.46
608.913
608.879
609.397
610.594
612.572
615.207
618.243
621.342
624.216
626.775
629.152
631.582
634.231
636.959
639.475
640.99
640.879
639.034
635.637
631.15
626.009
620.36
614.77
609.971
606.774
605.348
606.096
607.282
612.681
617.348
620.891
623.317
625.419
628.041
631.615
636.036
640.745
644.741
646.289
644.951
646.309
647.284
647.716
647.494
646.747
645.452
643.857
642.386
641.531
641.615
642.795
644.927
647.823
650.272
652.017
652.179
649.514
644.252
638.028
632.333
628.118
625.624
624.531
624.27
624.185
623.576
622.045
619.655
616.835
614.151
611.786
609.229
614.372
614.421
611.717
608.174
618.553
617.401
616.245
607.893
614.434
611.608
607.514
614.494
615.223
614.389
618.091
621.347
623.576
624.925
626.091
627.902
630.843
635.039
639.749
643.766
645.113
643.124
638.047
640.828
643.52
645.96
647.729
648.698
648.565
647.289
645.35
643.327
641.844
641.284
641.904
643.713
646.477
649.063
651.347
652.6
651.425
647.124
641.043
634.901
629.983
626.82
625.269
624.79
624.757
624.404
623.175
621.003
618.179
615.306
612.725
609.882
612.007
614.234
609.461
611.528
619.766
619.221
618.459
617.489
616.342
615.072
613.76
612.5
611.406
610.564
610.078
610.072
610.608
611.842
613.888
616.629
619.772
622.886
625.617
627.84
629.709
631.54
633.563
635.649
637.654
638.781
638.343
636.201
632.619
628.042
622.806
617.09
611.097
605.825
602.256
600.459
601.427
601.405
610.692
614.678
614.358
611.619
607.651
614.322
607.635
631.103
635.196
639.507
643.536
646.948
649.1
649.796
648.841
646.833
644.516
642.576
641.486
641.626
643.095
645.464
648.038
650.594
652.552
652.62
649.46
643.723
637.308
631.766
627.931
625.881
625.135
625.082
624.954
624.057
622.155
619.446
616.43
613.636
610.583
610.999
614.025
594.097
602.661
611.039
616.968
619.688
620.631
621.318
623.021
626.582
631.896
637.725
642.101
643.425
640.716
634.966
626.877
612.257
615.373
616.734
618.197
619.646
610.747
609.594
630.267
609.397
620.77
620.008
619.061
617.974
616.789
615.561
614.364
613.287
612.416
611.818
611.561
611.734
612.419
613.806
615.946
618.743
621.847
624.756
627.076
628.695
629.823
630.859
632.05
633.388
634.785
635.549
635.06
633.122
629.925
625.776
620.846
615.338
609.464
603.896
599.833
597.254
598.377
596.129
607.488
587.452
611.654
608.58
608.107
615.095
614.084
614.509
610.778
611.802
612.637
609.651
607.59
611.228
610.675
618.078
610.951
613.074
617.91
623.901
629.584
635.606
641.288
645.977
649.101
650.49
650.039
648.219
645.875
643.668
642.198
641.876
642.969
644.802
647.198
649.831
652.197
653.196
651.221
646.029
639.507
633.461
628.973
626.389
625.338
625.195
625.244
624.668
623.062
620.531
617.457
614.527
612.013
611.299
614.609
612.995
623.575
627.251
631.453
635.54
638.946
640.355
640.929
640.35
638.109
637.459
637.488
638.649
640.572
641.514
638.752
632.71
623.905
613.076
613.597
615.761
617.459
619.197
620.843
622.325
611.053
612.941
622.522
621.659
620.638
619.469
618.219
616.959
615.765
614.718
613.897
613.362
613.15
613.275
613.797
614.806
616.418
618.692
621.483
624.389
626.867
628.52
629.292
629.48
629.521
629.704
630.127
630.692
630.968
630.516
629.118
626.834
623.739
619.667
614.619
608.994
603.453
598.941
595.945
596.058
594.011
603.024
584.565
619.879
612.647
609.018
612.939
615.481
615.71
615.641
607.837
613.696
614.814
614.094
613.71
620.041
610.491
608.518
610.873
610.348
611.61
611.57
612.801
615.3
618.324
621.37
623.712
625.027
625.316
625.161
625.439
626.828
629.956
635.067
641.462
647.957
652.444
653.33
651.663
649.088
646.537
644.431
643.091
642.693
643.365
644.984
647.197
649.405
650.847
650.873
649.302
645.631
640.396
633.523
625.406
617.811
609.904
602.925
611.693
563.349
566.324
572.797
581.469
590.271
595.762
597.492
597.594
598.5
601.483
606.011
614.212
625.162
633.68
638.098
636.7
631.085
622.117
607.512
590.635
611.631
609.444
614.927
611.838
611.631
611.554
611.619
611.802
611.732
611.619
611.458
609.305
612.161
620.424
621.723
620.81
616.329
616.47
616.293
607.618
613.242
612.635
616.479
618.453
620.391
622.193
623.766
623.916
628.188
624.761
623.713
622.527
621.155
619.688
618.22
616.855
615.682
614.8
614.29
614.188
614.462
615.145
616.193
617.639
619.565
621.982
624.692
627.233
629.06
629.833
629.588
628.714
627.665
626.81
626.153
625.751
625.291
624.634
623.718
622.571
620.925
618.276
614.372
609.589
604.483
599.737
596.351
595.221
594.31
599.846
586.143
617.204
564.441
619.121
619.396
619.362
615.74
620.522
608.102
610.683
620.399
612.959
614.267
613.517
615.254
618.323
617.314
617.288
611.503
618.211
614.351
611.488
612.05
621.666
621.409
611.758
611.942
612.051
613.135
615.808
618.948
621.943
624.106
625.171
625.244
625.053
625.49
627.22
630.864
636.486
643.175
649.518
653.216
653.199
651.06
648.42
646.057
644.304
643.457
643.625
644.696
646.424
648.518
650.433
651.458
651.32
649.733
646.08
640.54
633.011
623.751
614.41
603.332
593.951
579.588
625.524
623.805
621.869
619.771
617.63
615.601
611.193
610.565
609.545
615.893
618.16
611.265
611.731
618.601
617.024
608.96
615.019
611.217
614.903
612.157
611.699
612.456
612.155
613.805
644.299
645.77
648.959
652.147
651.911
649.87
651.665
656.274
665.081
668.041
665.158
661.333
651.035
645.259
642.969
640.814
636.64
630.336
624.742
605.762
577.527
557.835
611.549
611.453
611.46
611.581
611.8
612.045
611.607
608.396
614.07
619.114
620.284
610.947
610.993
612.378
613.538
610.866
619.061
615.796
613.371
607.78
611.374
611.905
614.587
628.246
627.255
626.09
624.758
623.235
621.52
619.73
618.012
616.501
615.33
614.627
614.466
614.818
615.723
617.083
618.778
620.768
623.062
625.6
628.118
630.138
631.15
630.914
629.601
627.607
625.481
623.593
621.9
620.522
619.197
617.997
617.215
617.013
616.742
615.757
613.548
610.3
606.255
601.842
598.125
596.495
596.1
598.737
589.4
615.248
565.062
644.169
610.909
617.953
611.147
616.988
611.416
617.811
613.139
620.164
613.144
613.575
610.958
620.007
629.021
627.527
625.703
623.633
621.395
619.087
616.852
614.829
612.308
613.093
612.774
621.752
609.793
626.822
609.899
611.193
613.239
616.041
619.286
622.241
624.285
625.17
625.112
624.928
625.52
627.564
631.664
637.656
644.591
650.712
653.638
652.925
650.498
647.908
645.77
644.371
643.968
644.562
645.946
647.78
649.722
651.284
651.945
651.788
650.436
647.293
642.077
634.583
624.927
614.222
601.329
593.088
581.315
562.16
611.974
612.2
612.3
612.257
611.354
610.975
622.91
622.751
622.363
618.996
620.913
619.994
608.159
629.989
609.061
608.656
615.133
617.734
620.079
618.526
611.045
611.778
611.825
612.763
608.495
614.776
609.459
615.326
616.019
617.97
616.433
613.758
608.052
609.791
613.493
621.883
610.028
610.189
610.282
625.288
626.993
611.512
611.373
611.28
611.264
611.317
611.466
611.68
611.897
612.082
612.984
608.046
615.029
613.734
610.622
617.235
616.244
629.717
628.643
627.285
625.689
623.819
621.764
619.658
617.67
615.993
614.801
614.26
614.442
615.264
616.865
618.972
621.39
623.986
626.658
629.252
631.468
632.853
632.969
631.735
629.35
626.358
623.278
620.379
617.715
615.399
613.258
611.432
610.488
610.728
611.496
611.918
611.672
610.386
607.818
604.393
601.282
600.104
600.217
600.96
599.237
613.964
585.654
647.294
545.896
529.618
533.049
536.399
540.775
545.106
549.396
556.849
562.149
563.222
559.831
557.75
552.34
547.822
564.012
586.665
607.944
624.048
629.548
624.816
615.14
588.339
550.642
519.089
530.186
618.721
612.563
611.71
611.14
618.165
631.966
611.648
612.966
610.663
607.91
631.144
629.56
627.657
625.494
623.126
620.657
618.222
615.969
613.987
612.354
610.596
610.753
611.251
608.884
616.377
619.615
611.322
611.626
607.839
616.594
610.197
616.992
617.156
614.126
608.764
609.954
614.97
620.605
621.624
622.503
623.225
623.738
623.989
623.877
622.771
612.13
623.165
611.859
612.242
612.458
612.507
612.415
612.215
611.755
608.336
611.817
614.077
611.301
611.219
611.124
611.037
611.007
611.028
611.118
611.287
611.492
611.685
611.848
611.966
618.404
610.283
611.767
613.192
609.501
611.629
614.468
631.865
631.166
629.953
628.391
626.506
624.324
621.95
619.541
617.29
615.435
614.193
613.773
614.253
615.549
617.825
620.688
623.849
627.046
630.054
632.632
634.47
635.171
634.43
632.263
629.005
625.186
621.294
617.514
613.983
610.741
607.844
605.47
604.241
604.553
605.836
607.516
608.949
609.314
608.657
607.119
605.256
604.375
604.06
604.025
605.323
613.222
584.926
641.912
501.137
729.876
709.739
700.807
694.276
700.659
706.425
704.591
703.408
702.218
707.56
710.291
715.896
736.327
731.686
691.268
681.464
680.202
674.574
669.564
661.38
651.421
747.952
666.493
520.378
460.151
466.774
570.415
512.284
561.588
577.212
599.923
608.319
618.889
629.901
638.405
644.462
648.638
650.986
652.056
652.259
651.908
650.694
648.908
647.016
645.418
644.518
644.575
645.664
647.597
650.078
652.625
653.822
651.584
645.667
638.563
632.294
627.849
625.545
624.823
624.982
625.096
624.299
622.318
619.36
616.028
613.107
610.991
609.693
609.205
609.754
611.05
619.495
614.907
625.746
619.584
621.404
609.53
624.027
612.797
610.874
608.448
609.485
617.123
614.16
616.367
618.223
611.803
610.776
610.853
609.792
610.309
617.097
614.949
615.566
617.112
612.735
613.212
619.772
609.07
612.885
616.249
615.961
609.885
611.228
610.903
611.19
617.474
615.571
608.925
611.656
612.991
614.882
617.141
619.587
622.183
624.79
627.248
629.443
631.304
632.731
611.926
616.801
608.615
624.723
624.998
624.952
624.604
624.006
623.225
622.27
621.119
618.372
610.718
615.89
615.073
614.305
613.601
611.944
620.355
613.068
613.958
613.11
609.995
614.233
612.061
612.471
612.661
612.661
612.522
612.295
612.041
612.048
621.297
619.941
617.542
615.188
612.926
610.985
609.598
609.043
609.504
610.715
612.854
615.84
619.24
622.23
624.212
625.001
624.883
624.748
625.569
628.061
632.708
639.163
646.445
652.122
653.808
652.342
649.813
647.448
645.691
644.844
645.023
646.114
647.838
649.744
651.371
652.237
652.305
652.027
651.083
649.195
646.271
642.339
637.274
630.668
624.341
621.861
622.061
638.81
643.128
569.476
616.088
614.498
306.834
384.119
420.801
449.301
461.036
477.512
488.921
501.528
512.192
515.743
523.589
527.142
491.381
449.027
448.99
483.631
516.769
548.437
569.735
574.504
534.483
397.99
410.995
413.538
369.989
338.286
279.495
93.3598
618.902
610.899
610.806
610.723
610.679
610.684
610.735
610.843
611.015
611.199
611.369
611.521
611.638
611.713
612.372
611.881
611.396
610.994
633.488
633.253
632.406
631.07
629.32
627.192
624.752
622.112
619.436
616.943
614.914
613.596
613.251
613.977
615.69
618.543
622.109
625.953
629.676
632.95
635.468
636.904
636.96
635.516
632.62
628.664
624.231
619.698
615.239
610.968
606.951
603.368
600.472
598.915
599.119
600.722
603.113
605.627
607.72
608.806
608.939
608.699
608.888
609.881
611.628
614.256
615.476
613.724
625.259
628.233
782.997
152.835
609.832
610.226
611.837
610.516
614.39
616.386
608.923
610.364
610.976
613.032
634.682
611.873
613.855
625.202
625.743
625.886
625.739
625.335
624.702
623.884
622.878
621.691
613.816
608.661
617.519
616.609
615.581
614.662
633.94
611.596
613.024
615.228
617.853
620.627
623.459
626.21
628.728
630.919
632.69
609.633
614.651
615.495
611.072
610.444
609.894
615.022
615.14
623.506
621.88
619.926
617.628
615.249
612.959
610.962
609.504
608.883
609.277
610.457
612.571
615.577
619.015
622.031
624.062
624.916
624.808
624.705
625.556
628.153
632.803
639.583
646.874
652.451
653.816
652.254
649.811
647.456
645.795
645.107
645.42
646.585
648.364
650.249
651.739
652.336
652.18
651.727
650.736
649.144
647.066
644.461
641.202
638.786
637.763
638.451
644.348
663.924
672.435
649.366
116.926
611.627
612.164
612.613
612.773
612.739
612.565
612.326
612.1
611.759
611.486
610.298
613.278
610.207
611.911
612.73
609.876
612.696
612.082
611.519
611.099
614.189
610.473
610.445
610.346
610.234
610.154
610.12
610.135
610.201
610.313
610.469
610.637
610.799
610.957
611.106
611.25
611.43
611.54
15.6916
17.5335
16.1572
17.3318
16.4124
17.111
16.8666
17.1746
17.0174
16.9814
16.7902
16.937
17.0462
17.32
17.9827
18.5739
19.7488
21.1591
22.9984
25.4074
26.8212
24.2981
21.0074
18.978
23.9836
27.787
22.1454
18.3154
14.283
19.9451
634.653
634.245
633.296
631.865
630.002
627.727
625.104
622.26
619.376
616.701
614.53
613.147
612.837
613.72
615.721
618.975
623.047
627.442
631.605
635.092
637.502
638.578
638.183
636.246
632.863
628.448
623.574
618.598
613.691
608.897
604.314
600.168
596.848
594.961
594.836
596.747
599.654
602.782
605.812
608.413
609.888
610.721
612.3
614.653
618.043
622.629
627.8
631.341
639.395
663.595
741.936
148.279
21.1722
613.902
610.242
611.001
613.72
610.595
247.061
525.633
623.467
621.774
27.6292
6194.46
5458.99
4986.9
5740.42
5839.13
5754.59
5332.33
5419.4
5575.72
5376.4
5398.55
5317.12
5307.43
5283.44
5318.42
5188.03
5214.97
5206.91
5191.56
5209.51
5198.34
5277.63
5235.48
5385.25
5261.6
5544.52
5203.77
5659.25
5111.85
307.439
26.7168
5649.05
5088.9
609.935
540.916
636.27
641.244
626.092
631.798
617.037
620.885
611.406
614.153
606.432
608.926
600.174
603.444
593.991
596.928
592.614
592.324
598.52
594.868
607.887
603.002
618.078
612.959
628.359
623.262
636.618
632.98
639.464
638.851
636.098
638.492
628.148
632.525
619.145
623.471
613.579
615.716
612.955
612.631
616.659
614.396
622.435
619.441
628.105
625.392
632.288
630.404
634.762
633.759
635.28
635.255
633.596
634.723
629.904
631.957
624.825
627.508
619.034
621.962
613.8
616.263
611.637
612.126
612.162
611.75
612.798
612.706
612.558
612.739
612.17
612.33
611.826
611.23
611.331
611.01
611.103
610.827
610.918
610.651
610.735
610.544
610.585
610.555
610.54
610.67
610.591
610.779
610.792
611.558
610.606
611.186
611.607
611.12
611.388
611.585
611.167
613.026
612.231
614.71
613.814
616.866
615.689
619.593
618.177
622.317
621.02
624.46
623.483
625.823
625.23
626.406
626.225
625.811
626.304
623.636
624.909
619.971
621.968
615.371
617.713
611.042
613.104
608.764
609.483
610.252
609.077
615.347
612.348
621.824
618.785
624.86
623.893
624.618
624.73
628.076
625.448
639.496
632.891
652.046
646.527
652.439
653.656
647.771
650.122
645.394
646.123
646.83
645.645
650.464
648.609
652.365
651.887
651.259
651.992
648.086
649.979
643.516
645.775
642.286
642.505
646.862
642.516
673.809
660.729
635.053
611.574
611.76
612.123
608.594
4169.02
611.982
4583.86
612.013
611.89
611.939
611.895
611.962
611.975
611.992
611.987
607.947
617.213
611.059
610.96
612.733
610.42
609.749
609.596
614.115
612.918
613.637
614.245
613.132
613.821
614.572
613.533
614.207
615.069
614.131
614.765
618.087
611.653
611.647
621.73
611.541
609.907
619.368
618.536
618.625
617.708
612.314
609.299
608.128
610.323
612.696
610.728
621.588
613.218
617.658
611.976
609.975
616.78
616.398
611.827
611.428
609.613
611.616
608.164
608.203
614.944
614.822
611.824
611.867
612.223
633.556
624.545
614.198
611.645
611.248
621.459
610.978
609.295
610.747
610.059
622.944
608.369
612.597
628.942
613.859
610.258
616.68
617.989
621.474
)
;

boundaryField
{
    wall
    {
        type            zeroGradient;
    }
    outlet
    {
        type            fixedValue;
        value           uniform 1e-05;
    }
    inlet
    {
        type            fixedValue;
        value           uniform 612;
    }
    frontAndBackPlanes
    {
        type            empty;
    }
}


// ************************************************************************* //
