/*--------------------------------*- C++ -*----------------------------------*\
| =========                 |                                                 |
| \\      /  F ield         | OpenFOAM: The Open Source CFD Toolbox           |
|  \\    /   O peration     | Version:  2212                                  |
|   \\  /    A nd           | Website:  www.openfoam.com                      |
|    \\/     M anipulation  |                                                 |
\*---------------------------------------------------------------------------*/
FoamFile
{
    version     2.0;
    format      ascii;
    arch        "LSB;label=32;scalar=64";
    class       volScalarField;
    location    "0.0357";
    object      p;
}
// * * * * * * * * * * * * * * * * * * * * * * * * * * * * * * * * * * * * * //

dimensions      [1 -1 -2 0 0 0 0];

internalField   nonuniform List<scalar> 
2308
(
588.511
599.42
589.578
589.576
597.444
595.34
593.742
595.174
597.269
581.704
579.082
576.876
576.702
577.017
577.984
579.479
581.382
584.286
582.254
580.383
578.861
577.912
577.689
577.886
579.085
581.704
585.159
588.881
594.343
583.581
593.13
597.472
601.921
606.293
610.323
613.849
616.657
618.548
619.593
619.996
620.116
620.004
620.264
620.223
619.446
619.672
620.558
620.745
620.888
621.401
621.46
621.091
619.917
617.807
614.774
611.107
607.004
602.568
598.016
593.512
589.058
585.023
581.503
578.768
576.696
575.834
575.658
576.043
577.044
578.602
580.65
617.902
617.691
583.293
581.307
579.653
578.637
578.335
578.553
579.582
582.024
585.357
588.872
592.803
596.955
601.299
605.603
609.535
612.885
615.452
617.13
618.079
618.555
618.877
619.086
619.635
619.712
619.282
586.404
618.073
585.995
583.049
617.42
619.835
620.756
621.124
621.751
622.693
622.921
622.582
621.278
618.999
615.836
612.105
607.961
603.477
598.802
594.11
589.441
585.086
581.391
578.332
576.018
574.955
574.704
575.081
576.141
577.768
579.913
594.129
594.004
593.13
593.807
586.305
584.017
581.984
580.298
579.181
578.728
578.981
579.992
582.255
585.166
588.513
592.297
596.376
600.653
604.878
608.681
611.841
614.185
615.699
616.59
617.152
617.672
618.143
618.902
619.029
619.365
618.398
620.065
619.215
618.84
618.745
596.017
618.787
593.243
591.52
585.63
595.016
596.842
588.649
582.478
619.3
617.976
616.895
615.845
615.051
614.481
618.754
617.172
619.864
620.809
621.535
622.688
623.968
624.347
624.042
622.673
620.338
617.214
613.539
609.416
604.88
600.022
595.022
590.04
585.352
581.432
578.204
575.768
574.574
574.222
574.535
575.595
577.232
579.394
590.968
590.291
597.22
594.163
593.777
593.2
592.227
590.833
588.923
586.788
584.55
582.541
580.891
579.769
579.33
579.55
580.453
582.455
585.14
588.333
592.008
595.986
600.147
604.215
607.827
610.76
612.894
614.272
615.14
615.799
616.506
617.23
618.211
618.344
619.743
619.014
621.252
620.836
591.871
594.261
589.264
590.075
587.51
592.273
585.311
590.998
614.108
618.586
617.005
619.789
620.883
621.971
623.665
625.151
625.65
625.427
624.148
621.988
619.097
615.611
611.565
607.003
601.96
596.667
591.358
586.327
582.076
578.715
576.293
574.949
574.444
574.575
575.534
577.106
579.222
581.979
596.011
589.597
592.999
593.062
592.695
591.928
590.766
589.147
587.226
585.186
583.301
581.752
580.699
580.26
580.477
581.352
583.141
585.55
588.607
592.146
595.989
599.94
603.725
607.058
609.735
611.678
612.958
613.806
614.524
615.381
616.367
617.686
617.945
620.329
620.124
622.526
622.329
625.938
625.048
623.401
621.876
620.843
620.342
620.259
620.053
619.547
587.781
584.949
609.762
592.94
589.92
611.505
581.733
584.818
594.923
593.526
591.437
596.597
592.227
592.4
592.258
591.767
590.893
589.568
587.906
586.097
584.402
583.013
582.099
581.751
582.03
582.943
584.555
586.767
589.594
592.864
596.419
600.061
603.52
606.484
608.878
610.632
611.806
612.619
613.365
614.338
615.616
617.417
617.897
621.208
621.679
623.688
623.699
626.398
624.976
625.043
624.864
622.989
620.535
618.106
615.169
613.36
612.525
612.425
612.597
618.946
613.988
618.389
616.957
619.69
620.924
622.485
624.399
625.994
626.665
626.66
625.66
623.897
621.435
618.309
614.494
609.976
604.834
599.268
593.818
588.614
584.096
580.448
577.93
576.359
575.631
575.597
576.35
577.699
579.547
596.388
584.434
587.832
592.552
593.662
592.036
591.532
590.994
588.573
591.736
590.976
591.544
591.941
592.06
591.809
591.22
590.219
588.863
587.328
585.87
584.69
583.996
583.818
584.249
585.28
586.903
589.059
591.628
594.468
597.495
600.497
603.608
606.124
608.255
609.809
610.869
611.631
612.378
613.447
615.018
617.353
618.139
622.378
623.347
624.519
624.251
626.385
624.463
633.273
633.698
631.983
631.134
628.573
626.712
625.254
624.711
624.474
623.587
622.587
621.85
621.073
613.009
618.441
614.005
618.282
617.048
619.612
620.939
622.795
624.524
626.319
627.243
627.595
627.084
625.89
624.009
621.378
617.966
613.664
608.543
602.877
597.373
592.079
587.483
583.599
580.828
578.975
577.908
577.621
578.022
579.007
580.502
581.817
595.282
596.529
606.759
584.389
589.59
589.794
590.211
590.336
594.365
592.851
587.256
592.346
590.694
625.592
625.475
626.222
627.695
625.09
620.92
617.173
610.34
606.772
606.878
609.204
610.846
612.769
613.944
620.465
613.458
618.102
614.102
618.149
617.104
619.388
620.68
622.635
624.141
626.13
627.301
628.183
628.324
627.815
626.603
624.571
621.435
617.529
612.72
607.272
601.806
596.529
591.869
587.873
584.826
582.641
581.182
580.485
580.457
580.914
581.935
582.463
597.742
594.042
593.631
589.417
590.966
591.656
592.011
592.015
591.735
591.032
589.976
588.723
587.536
586.664
586.296
586.347
586.989
588.158
589.784
591.781
594.02
596.407
598.896
601.374
603.802
605.909
607.83
609.232
610.193
610.882
611.625
612.777
614.59
617.354
618.416
623.522
624.583
624.692
624.083
626.234
624.76
631.089
629.765
596.502
595.412
592.978
590.033
591.14
587.082
613.637
620.33
613.546
617.8
614.338
617.738
616.982
618.842
619.969
621.867
623.118
625.498
626.907
628.296
629.203
629.436
628.887
627.376
624.803
621.251
616.819
611.773
606.529
601.422
596.819
592.783
589.551
586.951
585.087
583.894
583.304
583.316
583.772
583.548
597.166
592.755
640.971
647.199
647.164
643.22
642.435
637.008
638.935
639.553
639.845
637.523
634.104
630.695
628.636
627.056
625.986
625.667
598.026
589.42
588.98
588.716
588.542
595.887
595.473
586.437
591.137
590.594
591.506
592.11
592.299
592.264
591.844
591.058
590.102
589.227
588.768
588.637
588.986
589.852
591.132
592.711
594.48
596.344
598.264
600.218
602.177
604.108
605.906
607.587
608.832
609.788
610.41
611.118
612.324
614.294
617.315
618.607
624.374
624.854
624.508
623.575
625.944
624.462
629.99
629.203
638.7
591.249
584.724
591.645
596.128
594.153
595.388
596.508
591.767
591.058
594.61
589.702
585.004
594.959
586.584
595.902
587.461
627.333
611.983
620.385
613.523
617.193
614.383
616.795
616.395
617.738
618.647
620.445
621.7
624.134
626.031
628.006
629.592
630.555
630.623
629.652
627.643
624.495
620.475
615.885
611.033
606.237
601.768
597.768
594.388
591.462
589.2
587.485
586.323
585.766
585.874
586.353
597.556
587.53
587.902
619.537
623.194
615.802
621.499
622.771
620.386
618.1
603.793
595.809
584.06
584.057
590.515
600.702
604.816
608.731
610.677
607.605
602.92
595.119
588.122
587.748
587.555
587.427
587.549
588.331
591.421
589.465
590.445
591.45
592.226
592.607
592.703
592.521
591.966
591.294
590.827
590.654
590.805
591.442
592.503
593.846
595.361
596.899
598.405
599.887
601.373
602.901
604.488
606.07
607.58
608.817
609.658
610.187
610.794
612.001
614.027
617.122
618.653
624.742
624.255
624.506
622.843
625.802
623.785
630.374
628.013
642.023
613.623
598.13
585.43
589.008
597.281
596.523
595.518
587.208
592.879
594.989
594.098
586.561
591.93
587.91
591.9
588.789
596.719
593.717
591.899
588.111
587.915
588.238
589.237
590.872
593.053
595.701
598.828
602.346
606.295
610.549
614.982
619.406
623.54
627.136
629.756
631.185
631.683
631.044
629.453
627.262
624.77
622.373
619.938
618.581
616.823
616.15
615.451
615.491
614.032
616.253
613.79
619.316
613.487
626.392
608.281
589.739
668.198
656.499
654.203
664.688
658.453
654.814
668.747
657.33
679.45
678.106
666.622
658.981
654.674
648.346
645.311
645.841
647.616
641.438
639.387
642.546
597.711
586.481
597.773
592.937
594.006
595
595.782
596.441
594.289
592.353
590.745
592.697
587.978
593.254
590.019
590.778
596.677
595.802
594.737
589.684
598.114
589.575
587.19
586.934
586.787
586.706
586.802
587.699
586.396
588.393
589.358
590.383
591.429
592.337
592.875
593.044
593.014
592.672
592.278
592.115
592.158
592.598
593.465
594.671
596.057
597.461
598.775
599.986
601.13
602.279
603.527
604.91
606.405
607.829
609.004
609.779
610.165
610.596
611.672
613.62
616.644
618.405
624.532
623.263
624.758
622.161
626.061
622.402
630.888
626.279
640.604
618.727
668.157
593.1
594.238
595.32
583.897
594.533
587.638
588.569
595.669
586.495
593.762
592.755
594.365
595.153
594.978
595.959
590.343
594.075
585.015
590.817
590.119
593.982
592.421
592.488
594.491
596.701
589.803
589.871
590.586
591.945
593.903
596.405
599.349
602.686
606.323
610.217
614.272
618.386
622.405
626.105
629.198
631.137
632.044
632.056
630.906
628.787
626.084
623.22
620.491
618.003
616.477
614.72
614.254
613.803
613.9
613.119
615.036
613.792
618.147
614.877
625.521
611.785
642.53
586.144
586.056
586.074
586.192
586.34
586.57
586.777
596.89
587.972
597.332
596.083
589.478
588.481
591.971
593.854
590.593
584.202
587.692
595.287
597.8
595.075
588.469
590.596
586.862
578.692
571.376
594.841
600.436
573.073
600.861
599.61
563.672
607.756
530.683
552.406
535.229
540.123
566.408
585.974
588.269
584.557
575.352
574.578
573.595
584.735
596.269
595.732
596.499
597.311
598.071
598.687
599.003
590.885
588.426
597.967
596.267
596.642
596.027
589.156
586.867
592.463
588.658
589.906
593.567
585.631
589.979
611.624
594.372
593.155
586.944
587.566
588.35
589.307
590.355
591.434
592.389
593.022
593.295
593.374
593.208
593.097
593.077
593.354
594.015
595.056
596.332
597.719
599.008
600.136
601.132
602.048
602.99
604.085
605.4
606.886
608.322
609.446
610.062
610.268
610.454
611.224
612.944
615.847
617.81
623.767
622.453
625.059
621.57
626.864
619.132
633.888
620.16
642.224
607.783
662.81
573.375
605.706
584.946
611.32
596.752
589.025
592.918
588.628
599.006
596.134
585.866
597.011
590.217
585.86
585.667
585.527
585.468
585.509
585.574
585.732
585.993
587.058
586.253
597.379
595.878
594.779
586.887
592.029
591.517
591.362
591.703
592.696
594.299
596.49
599.211
602.38
605.893
609.653
613.546
617.47
621.336
624.982
628.252
630.711
631.948
632.366
631.851
630.2
627.606
624.563
621.465
618.592
616.089
614.338
612.619
612.363
611.896
612.301
612.036
613.731
613.648
617.138
616.123
624.327
616.317
640.428
608.859
592.55
594.5
596.713
599.055
589.657
610.71
595.151
593.561
591.784
585.748
588.359
586.901
588.151
586.106
592.153
589.511
597.689
596.833
597.499
598.634
588.528
587.438
587.985
591.263
590.867
584.655
595.608
584.659
584.994
590.752
592.659
585.347
592.205
595.96
597.599
597.035
587.113
587.434
587.903
586.899
586.264
597.188
597.846
598.471
599.112
599.81
600.5
601.014
601.305
601.448
597.843
590.616
592.365
591.947
588.282
583.136
599.029
586.881
587.541
588.32
589.276
590.335
591.414
592.377
593.081
593.467
593.62
593.641
593.662
593.848
594.33
595.169
596.318
597.639
598.96
600.142
601.134
601.984
602.769
603.599
604.632
605.947
607.461
608.921
609.999
610.474
610.432
610.24
610.623
612.05
614.766
617.214
622.656
621.961
625.577
622.004
627.015
618.149
634.083
618.602
641.668
611.882
660.378
577.301
698.832
701.279
706.99
701.569
711.276
700.491
693.712
679.174
674.47
734.214
723.307
751.63
730.45
722.045
710.563
693.697
688.387
693.755
697.544
698.575
691.714
687.079
683.924
677.331
667.065
597.09
586.227
586.458
587.115
588.631
585.862
596.806
590.313
593.787
592.038
585.638
585.357
585.143
585.004
584.961
585
585.127
585.345
585.648
585.954
586.636
586.644
586.275
590.86
597.322
598.259
588.003
588.854
588.345
583.76
586.856
585.695
591.703
585.306
594.086
587.5
598.162
586.082
587.637
589.402
591.239
593.065
594.85
596.361
598.676
593.843
588.487
590.981
592.613
594.506
596.691
599.039
601.469
597.274
592.691
612.032
591.201
599.883
600.035
600.285
600.788
601.305
601.851
602.433
603.002
603.405
603.66
603.81
603.889
583.291
587.721
596.434
590.224
593.527
611.909
595.963
586.333
586.803
587.46
588.245
589.201
590.259
591.335
592.302
593.044
593.523
593.779
593.918
594.084
594.439
595.095
596.083
597.315
598.638
599.906
600.998
601.89
602.655
603.334
604.1
605.155
606.526
608.092
609.566
610.558
610.869
610.533
609.969
609.937
611.013
613.54
616.672
621.555
622.188
626.239
622.493
626.745
618.229
632.72
617.241
641.069
614.557
660.339
590.297
677.286
544.572
506.418
510.442
505.621
496.637
477.83
508.003
484.048
521.13
475.281
392.661
357.977
397.505
411.233
427.855
434.865
504.153
547.55
544.43
530.691
522.352
517.854
525.423
533.693
557.576
596.6
635.994
647.77
622.486
634.947
620.109
622.526
616.941
616.021
613.303
612.504
611.036
610.766
610.197
610.607
611.002
612.472
614.305
616.738
619.618
622.825
626.1
629.054
631.204
632.295
632.439
631.749
629.996
627.187
623.869
620.173
616.282
612.31
608.41
604.741
601.406
598.53
596.198
594.447
593.283
592.733
592.704
593.099
593.915
595.321
596.586
584.922
598.397
587.608
599.527
599.284
595.779
598.82
590.823
586.634
591.518
593.813
597.419
597.785
598.322
597.74
586.812
587.83
587.836
587.29
587.136
587.512
586.013
591.459
589.544
586.003
586.454
584.013
594.53
586.063
590.502
586.61
587.189
589.106
588.462
587.342
598.163
597.618
592.595
586.086
585.603
585.22
584.9
584.708
584.614
584.601
584.713
584.91
585.157
585.384
589.904
598.735
593.88
597.667
596.267
594.629
592.768
590.87
588.933
587.061
585.359
599.128
596.426
583.384
584.164
585.73
587.858
595.737
583.6
597.562
586.888
597.357
587.459
598.086
590.828
592.552
594.5
596.644
598.989
601.481
603.972
596.977
589.604
599.923
599.235
598.907
597.785
596.672
595.589
594.484
593.839
593.616
593.796
594.493
595.745
597.57
599.982
602.953
606.413
610.247
614.307
618.402
622.331
625.921
628.982
631.32
632.455
632.71
631.994
630.372
627.79
624.529
621.095
617.86
615.054
612.769
611.039
609.761
609.256
608.976
609.619
610.146
611.647
612.832
615.282
617.147
621.183
621.961
630.809
624.741
640.367
605.218
588.45
590.318
768.186
765.907
763.449
789.959
809.033
811.525
804.603
811.62
861.402
919.942
935.582
956.083
952.028
919.572
840.14
798.36
784.054
781.268
784.342
768.877
756.8
754.356
741.275
756.373
702.47
752.306
653.083
638.1
582.647
603.266
603.372
603.543
603.858
604.24
604.67
605.124
605.547
605.83
606.046
606.163
606.309
606.407
593.134
595.958
599.47
603.167
585.973
586.28
586.727
587.357
588.128
589.072
590.118
591.191
592.168
592.95
593.492
593.823
594.056
594.353
594.858
595.664
596.772
598.069
599.398
600.613
601.615
602.458
603.156
603.753
604.514
605.618
607.059
608.68
610.159
611.05
611.186
610.55
609.629
609.282
609.933
612.369
616.079
620.724
623.093
626.672
623.507
627.102
620.16
631.514
618.251
642.051
629.54
658.437
630.473
664.608
636.088
771.957
587.425
587.638
586.58
587.423
597.859
597.761
593.451
595.365
588.588
590.108
585.562
589.238
596.668
598.767
597.64
596.225
594.512
592.571
590.615
588.669
586.797
585.035
587.515
586.406
582.495
582.729
583.548
585.19
585.326
586.16
585.505
584.982
584.634
584.455
584.38
584.428
584.597
584.825
585.077
594.357
597.701
597.899
587.05
588.126
587.495
587.593
589.367
599.761
599.973
599.924
599.456
598.741
597.819
596.682
595.691
594.771
594.252
594.114
594.429
595.217
596.514
598.372
600.831
603.883
607.444
611.403
615.63
619.868
623.874
627.413
630.285
632.224
633.019
632.862
631.709
629.658
626.715
623.212
619.657
616.418
613.698
611.556
609.966
608.872
608.406
608.25
608.951
609.623
611.207
612.582
615.004
617.007
620.366
622.136
627.906
623.165
636.295
596.313
651.255
588.931
590.464
592.323
594.42
596.607
598.9
601.404
604.025
606.816
596.471
587.296
589.238
587.485
586.654
597.241
595.281
591.62
594.761
598.504
602.838
596.721
587.127
606.855
606.786
606.793
606.877
607.05
607.279
607.554
607.864
608.119
608.278
608.448
608.502
608.626
608.755
608.97
610.516
9.98756
9.97098
9.43401
10.4211
10.2892
11.2285
11.4976
11.302
11.1126
11.5968
11.3927
10.928
11.2853
11.3086
10.1529
9.43753
9.2315
9.0488
8.75247
8.60914
8.44313
8.53662
8.45725
8.55534
8.35273
8.45757
8.16532
8.50889
8.10674
10.2889
585.849
586.22
586.67
587.251
587.986
588.901
589.933
590.997
591.978
592.778
593.352
593.743
594.057
594.45
595.071
595.995
597.213
598.573
599.913
601.101
602.064
602.849
603.49
604.058
604.834
605.975
607.473
609.139
610.621
611.432
611.406
610.518
609.325
608.668
609.048
611.419
615.454
620.258
623.927
627.02
624.814
628.022
620.521
629.74
617.866
640.558
619.95
659.172
626.316
675.071
612.725
708.235
11.6284
588.409
587.789
587.046
597.594
595.802
745.711
565.222
597.765
597.947
11.3216
3370.79
3310.97
2950.87
3301.55
3069.34
3234.47
3118.28
3214.98
3140.03
3168.77
3159.92
3131.96
3129.82
3029.71
3099.23
3016.73
2964.3
2935.47
2943.56
3031.25
2909.02
2918.3
2837.75
2997.17
2818.55
3083.83
2731.18
3062.96
2679.69
793.708
12.7893
3257.8
2677.42
682.978
542.369
663.058
617.603
639.707
621.366
629.605
618.686
628.43
620.848
627.043
625.733
619.974
624.407
610.848
615.011
608.207
608.582
610.526
609.104
611.664
611.535
609.388
610.873
606.161
607.688
604.235
605.011
603.072
603.671
601.376
602.329
598.82
600.184
596.127
597.401
594.405
595.117
593.565
593.938
592.544
593.135
590.774
591.745
588.725
589.727
587.169
587.867
586.203
586.631
585.614
585.877
585.144
585.383
584.678
584.905
584.369
584.489
584.522
584.377
585.382
584.856
587.063
586.351
590.248
588.541
594.347
592.157
599.179
596.617
604.589
602.085
609.958
610.997
611.253
610.743
610.822
610.652
610.758
610.566
610.644
610.333
610.456
610.181
610.259
610.203
610.168
609.307
610.324
608.912
607.58
610.696
612.054
605.341
608.281
597.516
601.8
590.242
593.699
584.879
587.9
582.461
583.268
582.726
582.29
585.396
583.859
589.056
587.176
592.901
590.994
596.358
594.706
598.783
597.701
599.984
599.521
600.016
600.161
598.685
599.466
596.633
597.707
594.755
595.643
594.242
594.317
595.473
594.629
598.684
596.802
604.247
601.163
611.956
607.887
620.611
616.271
628.224
624.687
632.708
630.996
632.937
633.364
629.253
631.567
622.431
626.064
615.56
618.826
610.793
612.857
608.395
609.324
608.03
608.021
609.523
608.635
612.497
610.996
616.955
614.916
622.108
620.326
621.072
628.191
642.321
611.222
612.049
587.127
593.977
2708.64
588.449
2445.35
589.372
612.063
612.015
611.984
612.009
612.019
612.006
612.005
592.102
584.209
587.458
587.983
587.552
588.794
590.884
588.772
597.192
597.927
597.72
597.37
598.167
597.932
597.372
598.227
597.95
597.089
598.072
597.682
583.906
596.693
611.564
588.883
608.149
595.754
591.155
584.38
590.671
590.592
596.927
592.552
584.532
586.93
597.638
592.855
599.768
589.718
599.265
592.953
594.653
592.898
583.281
594.822
610.094
592.485
589.377
592.354
591.541
594.661
594.309
611.736
590.613
589.271
585.602
599.303
585.764
597.117
589.807
595.125
607.871
593.595
587.537
590.933
596.32
587.981
587.527
586.574
591.695
596.546
577.334
584.313
598.6
)
;

boundaryField
{
    wall
    {
        type            zeroGradient;
    }
    outlet
    {
        type            fixedValue;
        value           uniform 1e-05;
    }
    inlet
    {
        type            fixedValue;
        value           uniform 612;
    }
    frontAndBackPlanes
    {
        type            empty;
    }
}


// ************************************************************************* //
