/*--------------------------------*- C++ -*----------------------------------*\
| =========                 |                                                 |
| \\      /  F ield         | OpenFOAM: The Open Source CFD Toolbox           |
|  \\    /   O peration     | Version:  2212                                  |
|   \\  /    A nd           | Website:  www.openfoam.com                      |
|    \\/     M anipulation  |                                                 |
\*---------------------------------------------------------------------------*/
FoamFile
{
    version     2.0;
    format      ascii;
    arch        "LSB;label=32;scalar=64";
    class       volScalarField;
    location    "0.048";
    object      epsilon;
}
// * * * * * * * * * * * * * * * * * * * * * * * * * * * * * * * * * * * * * //

dimensions      [0 2 -3 0 0 0 0];

internalField   nonuniform List<scalar> 
2308
(
831948
1.02826e+07
762616
1.41017e+06
185528
185508
171189
199589
191238
93502.9
94887.3
98833.4
101869
105822
110266
115078
120257
125296
119938
114728
109851
105313
101156
97381.5
94808.8
93296.8
92144.8
91581.6
166123
125702
92805
98555.8
114556
152094
218941
317877
426536
463741
443498
418855
396811
377121
361189
347052
335587
339372
351359
364173
377535
394264
410286
404009
357708
298884
253840
225056
181745
138588
111746
99582.3
95690.7
95285.4
96397.8
97708.7
99826.9
102196
105095
108852
113235
118119
123461
328787
330054
122505
116891
111706
106968
102711
99299.9
97209.2
95816.7
94866.1
95540
100154
114677
144513
188031
226224
247266
287807
345381
396012
412304
398041
380735
367152
353999
341570
130462
331085
131243
129151
355158
362402
371733
388751
400744
375392
318392
270394
237251
219352
212089
209196
205910
191138
157458
126855
110731
105395
104537
105239
106685
108714
111101
114384
118668
123669
129189
230885
203028
172828
185673
134794
127836
121563
116008
111188
107343
104939
103756
103361
105203
112455
132572
167363
197919
206507
208854
210411
215536
230517
260401
306816
369288
407555
396242
377764
366270
356989
349486
325108
326942
325561
192695
350410
280158
398541
135013
224639
178733
136331
135210
348957
327738
331175
329385
352140
412825
408217
403777
410607
409165
370466
308037
257044
225241
209494
203033
201357
202882
205874
209383
211553
207289
183370
151194
130769
122437
119747
119382
120247
121584
123822
127429
132250
137823
151869
360169
183778
217761
200282
185708
173381
162573
152619
143611
136095
129490
123925
119728
117236
116209
116923
121245
133823
160198
195997
216258
216112
211755
207333
203649
201092
201291
205966
218844
247464
297555
366153
417915
415447
402986
406258
414113
1.25062e+06
254136
2.383e+06
1.96293e+06
1.82293e+06
350853
141486
147018
505441
512883
507809
440665
341302
278900
242081
221401
210664
205957
204640
205433
207995
211730
216501
221990
226515
227465
216048
187605
161260
147462
141244
139369
139736
141375
143973
148009
153611
143938
216480
702354
251880
230682
212232
196175
182234
170004
159523
150894
144061
139252
136553
135777
138135
146733
167572
201074
229108
235824
232466
225815
219000
213252
208706
205324
203587
204037
207593
216451
234295
269166
329362
418818
511051
531939
522273
514233
422211
360739
345289
347177
347068
363218
415636
495818
2.00211e+06
802415
7.26886e+06
315140
559789
1.46166e+06
159792
150405
238589
293120
344792
173598
322840
288862
259772
235640
215957
199786
186903
177284
171054
167770
167433
172707
187942
217819
251162
265103
262662
255712
248091
240592
233327
227815
224424
222486
221993
223585
228500
237278
250768
273811
313094
372747
476378
646293
706122
686409
653591
502140
428825
392097
393721
394686
392330
388238
414085
478837
605922
642935
668831
645256
516074
391131
324467
283369
256999
241037
231143
225471
223224
223240
224922
227879
232699
238792
244902
251186
255991
254169
236358
208135
185658
174647
170951
170925
173729
177586
182700
215240
166592
156642
161145
272855
373200
413168
454972
1.12133e+06
362106
448165
402443
359465
322088
290769
265790
246297
232420
223584
219082
220722
231892
255451
290093
310571
310051
302057
292715
283436
273892
265591
259755
256624
255769
256603
259338
264861
274208
288828
311100
345881
396470
457336
532767
656360
864745
928328
869742
792288
607402
484280
436354
432691
426385
416453
422415
419868
416027
456645
560161
714896
785274
840426
837861
706448
551580
465585
406538
355760
317496
292336
276044
266189
260378
257399
256527
257273
260229
266093
273761
281698
289145
296532
302029
297364
274426
247370
230477
223433
223502
228505
235203
189428
231035
222632
2.00922e+07
196706
657624
615849
558462
163794
183146
156424
172821
331879
497903
710033
557499
465510
442774
441117
413582
401256
411272
425280
418799
436482
514046
642617
797833
889626
976734
1.04298e+06
1.00074e+06
839659
723083
636120
558984
486307
426898
384850
356885
337873
324883
316151
310641
307882
307991
311588
318323
327643
338648
349849
360755
371996
379691
374036
349670
327567
316566
315812
323557
242508
199483
254651
2.8963e+06
2.22311e+06
549908
481918
427161
384629
352993
331078
317239
311560
317327
336362
364822
386268
385278
374101
361649
349237
336695
325715
317232
311152
308000
308224
311388
317149
326001
338714
357242
383400
422576
479657
554637
637025
721197
823225
990723
1.11816e+06
1.08286e+06
989468
885103
236678
233979
962317
179303
432081
203326
948966
1.0588e+06
1.16537e+06
1.243e+06
1.21318e+06
1.09282e+06
982993
886252
792125
701387
614379
544460
494610
459373
433615
414786
401173
391934
387036
386823
391117
399160
410390
424766
441764
459842
478411
498260
515043
517310
505440
493372
492953
334506
203356
289550
789536
636542
514620
449504
437337
423039
388800
377513
388974
410795
412722
419594
475662
579378
714315
854965
223600
674309
777483
878161
978837
171943
205726
9.13605e+06
2.10737e+06
809650
706099
627029
569852
529837
504462
494879
501740
518222
527700
517183
496341
476588
457424
438772
422685
410068
400540
394090
390815
391429
396832
406808
421042
440323
465968
500440
548139
616147
705270
803708
901748
1.00047e+06
1.10686e+06
1.2391e+06
1.3244e+06
1.27957e+06
1.1688e+06
1.04605e+06
934867
880422
250411
185220
260132
252888
242640
184781
973859
1.38347e+06
171727
209483
505326
163414
1.51897e+06
3.05865e+06
968499
973389
1.07562e+06
1.20232e+06
1.33819e+06
1.45469e+06
1.48737e+06
1.42415e+06
1.33115e+06
1.23386e+06
1.13299e+06
1.02732e+06
916085
810488
726776
665498
618891
582722
554568
533292
518592
511133
510725
515824
525694
540209
559227
582870
611642
644704
678225
716054
754532
784222
797994
814010
229802
1.28084e+06
994579
842225
706562
577353
482287
434503
422151
397966
361485
351736
363253
389604
399499
405271
446407
528311
644120
776290
898308
179367
1.00128e+06
1.16563e+06
1.33996e+06
1.53327e+06
1.83866e+06
2.16273e+06
308945
1.66705e+06
1.4001e+06
1.20609e+06
1.06653e+06
969056
905780
870518
847935
815989
770530
725039
685210
649488
617480
590371
568353
551121
538462
530005
525721
526360
533548
548479
570606
599441
636112
682710
742985
824537
932390
1.05104e+06
1.16416e+06
1.27164e+06
1.37342e+06
1.46985e+06
1.55424e+06
1.56558e+06
1.46797e+06
1.32198e+06
1.17665e+06
1.05246e+06
958953
259549
345696
652440
332854
311842
296558
256259
285185
259836
254912
1.2572e+06
1.69456e+06
765045
161989
1.40242e+06
235623
959080
868467
1.30267e+06
1.2063e+06
1.11466e+06
1.03781e+06
969918
910143
858068
814335
778114
750166
729908
716670
710575
712360
723580
746209
779701
822322
874431
937447
1.01417e+06
1.11163e+06
1.23522e+06
1.36601e+06
1.48183e+06
1.58101e+06
1.66702e+06
1.73378e+06
1.7687e+06
1.74492e+06
1.62812e+06
1.45806e+06
1.28919e+06
1.14632e+06
1.04086e+06
974091
800760
886016
762566
636893
528758
452204
414591
397008
364839
330821
322842
333417
360441
378711
387450
419905
486364
586382
710917
837335
930675
271010
519308
357359
1.14573e+06
1.09012e+06
1.06486e+06
1.06841e+06
1.11627e+06
997537
896865
812565
2.97527e+06
769222
1.94872e+06
5.62076e+06
2.80003e+06
417625
381434
352342
261493
310938
1.11064e+06
1.57201e+06
1.87142e+06
2.19791e+06
2.57386e+06
3.03828e+06
2.49126e+06
6.87168e+06
3.0355e+06
2.60324e+06
2.26148e+06
1.99671e+06
1.80493e+06
1.6529e+06
1.51438e+06
1.38433e+06
1.26608e+06
1.16565e+06
1.08257e+06
1.00949e+06
947906
896344
853360
818380
790929
770509
756717
749709
749934
759287
780129
812875
855846
908148
971273
1.04774e+06
1.14351e+06
1.26761e+06
1.40725e+06
1.53385e+06
1.64137e+06
1.7339e+06
1.80751e+06
1.85257e+06
1.85293e+06
1.76546e+06
1.59656e+06
1.40855e+06
1.24307e+06
1.11385e+06
1.0287e+06
977640
1.02343e+06
1.20153e+06
1.33424e+06
1.15732e+06
2.10387e+06
348256
694873
2.2892e+06
773344
265519
275964
288610
789153
491772
555084
788975
681171
1.19769e+06
834413
330343
3.61747e+06
3.2736e+06
935685
1.04663e+06
1.17439e+06
1.78881e+06
1.64327e+06
1.52632e+06
1.42851e+06
1.34181e+06
1.26586e+06
1.1981e+06
1.14315e+06
1.09935e+06
1.06943e+06
1.0518e+06
1.0465e+06
1.05288e+06
1.07263e+06
1.10772e+06
1.15968e+06
1.22569e+06
1.30166e+06
1.38723e+06
1.4833e+06
1.59295e+06
1.7248e+06
1.86645e+06
1.983e+06
2.06242e+06
2.10984e+06
2.12507e+06
2.0997e+06
2.02276e+06
1.88116e+06
1.67581e+06
1.45471e+06
1.26213e+06
1.11505e+06
1.01747e+06
968129
948759
5.2219e+06
4.51519e+06
3.94346e+06
3.35674e+06
2.86417e+06
2.3886e+06
8.42455e+06
280449
831166
457960
887870
740805
727285
810685
438495
146274
1.09335e+06
1.31572e+07
217276
332987
1.37889e+06
894263
1.01394e+06
1.91983e+06
937241
824725
694549
577234
484328
419877
385355
361883
329904
300707
293929
302994
327226
349055
363823
392226
448123
535608
653270
783146
892659
937241
1.27668e+06
1.21237e+06
1.19027e+06
1.20066e+06
1.25875e+06
1.3215e+06
847723
493706
387354
1.50876e+06
2.9905e+06
4.13536e+06
716219
701911
278366
830637
1.24886e+06
333548
700828
350060
2.51504e+06
1.42368e+06
287087
5.98731e+06
5.07976e+06
4.35465e+06
3.82667e+06
3.39034e+06
3.01879e+06
2.69522e+06
2.40803e+06
2.16394e+06
1.96569e+06
1.80523e+06
1.67254e+06
1.56056e+06
1.46194e+06
1.37691e+06
1.30454e+06
1.24469e+06
1.1978e+06
1.16322e+06
1.14044e+06
1.12917e+06
1.12947e+06
1.14303e+06
1.17223e+06
1.21929e+06
1.28242e+06
1.35719e+06
1.44208e+06
1.53773e+06
1.64645e+06
1.77683e+06
1.92646e+06
2.05766e+06
2.14848e+06
2.2038e+06
2.22623e+06
2.20893e+06
2.14311e+06
2.01808e+06
1.82284e+06
1.58836e+06
1.37073e+06
1.19898e+06
1.0791e+06
1.01428e+06
990559
981585
4.83325e+06
2.3221e+06
1.53012e+06
620455
715655
578256
1.33464e+06
8.35735e+06
177257
878441
358120
629472
9.96275e+06
9.16578e+06
8.28952e+06
7.51777e+06
6.70223e+06
5.83646e+06
4.9842e+06
4.14178e+06
1.5016e+06
3.35503e+06
5.06169e+06
4.77404e+06
3.83576e+06
4.83612e+06
2.90106e+06
2.67913e+06
2.48337e+06
2.31942e+06
2.18315e+06
2.06791e+06
1.96234e+06
1.85782e+06
1.767e+06
1.70116e+06
1.65887e+06
1.63917e+06
1.63987e+06
1.66111e+06
1.70231e+06
1.76432e+06
1.84781e+06
1.95057e+06
2.06399e+06
2.1798e+06
2.29479e+06
2.4089e+06
2.52629e+06
2.64709e+06
2.72892e+06
2.74267e+06
2.69821e+06
2.60443e+06
2.46523e+06
2.27897e+06
2.04958e+06
1.78825e+06
1.5166e+06
1.2726e+06
1.08272e+06
953652
882230
858755
865377
883919
959849
1.0699e+06
1.19344e+06
1.32726e+06
895782
978659
7.64312e+06
6.93451e+06
6.32954e+06
3.4163e+06
4.94419e+06
4.27268e+06
140682
9.8499e+06
1.93916e+06
714448
507323
1.0095e+06
3.71067e+06
5.04019e+06
673772
658882
782249
299533
153678
757587
234049
770317
785476
744400
404284
637162
352094
345208
3.75692e+06
5.70618e+06
725269
710475
634097
3.76962e+06
6.09792e+06
1.57629e+06
1.51713e+06
1.42472e+06
1.36514e+06
1.3448e+06
1.36168e+06
1.42962e+06
1.49447e+06
1.49075e+06
424898
491093
322025
293231
649882
6.25468e+06
7.30291e+06
7.80008e+06
6.70827e+06
5.83924e+06
5.12943e+06
4.54342e+06
4.05549e+06
3.64526e+06
3.30215e+06
3.01906e+06
2.78663e+06
2.59555e+06
2.43598e+06
2.29508e+06
2.16393e+06
2.04282e+06
1.94414e+06
1.87018e+06
1.81903e+06
1.78839e+06
1.77724e+06
1.78545e+06
1.81354e+06
1.86284e+06
1.93521e+06
2.03019e+06
2.13913e+06
2.25345e+06
2.3683e+06
2.48315e+06
2.60105e+06
2.72742e+06
2.82725e+06
2.8578e+06
2.82361e+06
2.73631e+06
2.60175e+06
2.41965e+06
2.19282e+06
1.93136e+06
1.65105e+06
1.38505e+06
1.16795e+06
1.01576e+06
927514
894919
901721
926007
951936
971534
896316
767748
633566
522813
439546
381886
348517
324819
297305
273693
267802
275351
294822
315400
332955
361213
410475
488475
599312
730231
853127
924758
902303
1.8925e+06
634736
2.5823e+06
1.17147e+06
1.06482e+06
1.23331e+07
1.66356e+06
2.04918e+06
155731
267464
1.43089e+07
1.54086e+07
1.54122e+07
1.49959e+07
1.43788e+07
1.32813e+07
1.17315e+07
1.00935e+07
8.36402e+06
6.49941e+06
2.48751e+06
1.81452e+06
4.47203e+06
1.1713e+06
699595
4.72283e+06
648005
478522
147644
1.85288e+06
1.13498e+06
1.03371e+06
522311
573309
351700
580629
3.40099e+06
9.83604e+06
1.10654e+07
1.23864e+07
1.37241e+07
1.44768e+07
1.47007e+07
1.42321e+07
1.29095e+07
1.5138e+06
2.04963e+06
981916
1.09399e+06
1.21369e+06
1.35218e+06
1.48967e+06
1.67688e+06
475709
496454
3.68818e+06
319009
2.10673e+06
1.8169e+06
1.70062e+06
1.65911e+06
1.59824e+06
1.55007e+06
1.53043e+06
1.54802e+06
1.61305e+06
1.671e+06
1.66307e+06
1.88459e+06
1.08554e+07
589213
2.52039e+06
455072
161542
3.62238e+06
203824
1.03502e+07
8.75182e+06
7.59166e+06
6.69406e+06
5.98526e+06
5.41552e+06
4.94718e+06
4.5553e+06
4.22692e+06
3.95702e+06
3.73687e+06
3.55177e+06
3.38468e+06
3.22796e+06
3.0957e+06
3.00109e+06
2.93356e+06
2.90557e+06
2.91114e+06
2.94808e+06
3.01376e+06
3.10561e+06
3.22239e+06
3.3617e+06
3.51919e+06
3.68415e+06
3.83529e+06
3.95877e+06
4.04668e+06
4.09668e+06
4.11496e+06
4.08434e+06
3.95116e+06
3.71313e+06
3.40391e+06
3.05034e+06
2.67253e+06
2.28706e+06
1.91368e+06
1.57071e+06
1.27227e+06
1.03261e+06
859931
752831
705229
703879
735370
785150
841144
895335
972351
959970
855382
712425
577548
472455
396423
344338
312972
291473
269226
250135
244854
251145
266714
283614
301414
328313
373662
444425
548060
678778
814309
910049
914538
839033
794221
747662
705141
676722
674519
711927
801758
952615
1.16888e+06
1.44712e+06
1.77367e+06
2.13308e+06
2.50722e+06
2.87682e+06
3.2264e+06
3.53819e+06
3.7891e+06
3.94752e+06
3.99894e+06
3.99023e+06
3.94885e+06
3.86871e+06
3.7517e+06
3.60252e+06
3.43234e+06
3.26273e+06
3.10675e+06
2.97132e+06
2.86139e+06
2.77931e+06
2.7312e+06
2.71655e+06
2.74457e+06
2.81169e+06
2.91175e+06
3.03502e+06
3.17185e+06
3.32405e+06
3.50497e+06
3.73049e+06
4.01993e+06
4.28036e+06
4.81324e+06
5.2306e+06
8.22418e+06
5.46431e+06
3.65562e+06
9.44316e+06
1.09282e+07
276736
1.42854e+07
308661
4.67969e+06
670659
1.64776e+06
1.21911e+06
572424
3.04133e+06
2.32135e+06
594589
610155
649378
553402
868364
829146
568765
377556
655057
572287
477921
1.74417e+07
504382
517180
471147
647390
642195
374609
456088
585560
2.78951e+06
814897
1.017e+06
1.14599e+07
1.7988e+07
2.36555e+07
2.81197e+07
3.15579e+07
3.29615e+07
3.2088e+07
3.00401e+07
2.65086e+07
2.16101e+07
1.62273e+07
334025
5.30966e+06
229481
2.00433e+07
2.52658e+07
2.91821e+07
3.19627e+07
3.33661e+07
3.2043e+07
2.84809e+07
2.37271e+07
7.79965e+06
575623
2.70767e+06
2.84186e+06
2.82458e+06
2.75288e+06
167241
6.0304e+07
660462
466616
2.12243e+06
534712
6.62191e+06
2.06308e+06
2.17012e+06
2.31824e+06
2.5016e+06
2.47465e+06
2.62433e+06
2.93094e+06
775457
944406
7.28125e+06
6.67086e+06
5.9812e+06
5.57082e+06
5.22888e+06
4.96827e+06
4.81685e+06
4.70231e+06
4.6662e+06
4.65618e+06
4.66747e+06
4.6884e+06
4.72537e+06
4.80761e+06
4.94073e+06
5.11573e+06
5.33136e+06
5.61174e+06
5.93195e+06
6.27425e+06
6.61973e+06
6.95157e+06
7.24667e+06
7.47675e+06
7.6093e+06
7.6077e+06
7.47552e+06
7.21791e+06
6.84908e+06
6.37119e+06
5.74686e+06
5.00619e+06
4.23297e+06
3.48714e+06
2.80462e+06
2.20655e+06
1.70475e+06
1.30296e+06
998392
780881
634760
544200
497561
486560
502928
543267
606161
687024
781379
549234
359251
942957
981659
942076
815499
661696
528209
427793
357383
310795
282573
263517
245106
229382
224600
229898
242586
256590
272429
297665
339701
405014
501741
630225
774321
885899
914730
877542
886253
3.84177e+07
2.35207e+06
2.03939e+06
1.97331e+06
1.94331e+06
1.87826e+06
1.82538e+06
1.81015e+06
1.83415e+06
1.90282e+06
1.97392e+06
1.93087e+06
2.10215e+06
3.23141e+06
2.04681e+06
2.31199e+06
2.8541e+06
3.28131e+06
9.8086e+06
7.85841e+06
6.80872e+06
6.17647e+06
5.74955e+06
5.44082e+06
5.20623e+06
5.03023e+06
4.90434e+06
4.82602e+06
4.79288e+06
4.79259e+06
4.80621e+06
4.82821e+06
4.88499e+06
4.99384e+06
5.14563e+06
5.32746e+06
5.5516e+06
5.82059e+06
6.11886e+06
6.43307e+06
6.74984e+06
7.05675e+06
7.33692e+06
7.56668e+06
7.71472e+06
7.7427e+06
7.64054e+06
7.40981e+06
7.06492e+06
6.61221e+06
6.01983e+06
5.28763e+06
4.49924e+06
3.72585e+06
3.01072e+06
2.37912e+06
1.84545e+06
1.41535e+06
1.08638e+06
848326
685403
582053
526095
510405
525748
568167
635695
723972
826855
940904
492957
542955
534920
551361
1.9089e+06
1.47218e+06
657702
1.59845e+06
374280
327195
7.80499e+06
345357
188496
1.09686e+07
1.94563e+07
3.29238e+07
5.12705e+07
7.22806e+07
9.10935e+07
1.0318e+08
1.00318e+08
8.39268e+07
1.13895e+07
132411
2.30247e+07
1.5185e+07
1.35543e+07
1.24492e+07
1.23846e+07
3.24725e+07
5.84999e+07
8.17402e+07
9.7549e+07
9.98668e+07
8.89598e+07
7.22028e+07
5.27056e+07
3.46124e+07
2.10388e+07
992460
965479
1.72908e+06
527742
426201
487843
484127
423013
5.54931e+06
4.53971e+06
4.01655e+06
3.92938e+06
3.78029e+06
4.03537e+06
4.59006e+06
5.16601e+06
5.89568e+06
6.70077e+06
7.63127e+06
8.61129e+06
9.60544e+06
1.06146e+07
1.16661e+07
1.27641e+07
1.39001e+07
1.50585e+07
1.62317e+07
1.73844e+07
1.84482e+07
1.93555e+07
2.00508e+07
2.04656e+07
2.05356e+07
2.02067e+07
1.94439e+07
1.82621e+07
1.67629e+07
1.50419e+07
1.313e+07
1.105e+07
8.90888e+06
6.92254e+06
5.2126e+06
3.81532e+06
2.72038e+06
1.8963e+06
1.30496e+06
907304
666607
538297
471877
436733
418365
412710
422855
466049
574649
749663
991598
1.30746e+06
1.33828e+07
1.18126e+07
1.12722e+07
1.12967e+07
1.06219e+07
8.34661e+06
6.76968e+06
6.06919e+06
6.83821e+06
1.38677e+06
498244
357357
453029
480021
1.26605e+06
630337
6.90709e+06
6.86141e+06
6.79487e+06
6.05923e+06
201355
1.49058e+06
2.67132e+06
2.19958e+06
2.03897e+06
2.05613e+06
2.01948e+06
1.93463e+06
1.86883e+06
1.86397e+06
1.8885e+06
1.96197e+06
2.06568e+06
1.96883e+06
1.89543e+06
2.52249e+06
4.0457e+06
8.88878e+06
1.0722e+06
992318
989128
923284
782227
621749
489446
392176
325594
283561
258183
241077
225287
212019
207702
212216
222839
234866
249118
272388
311720
374001
464393
589593
736043
857768
912586
917524
1.00714e+06
1.70684e+06
5.40508e+06
4.2829e+06
3.80407e+06
3.70732e+06
3.89242e+06
4.27446e+06
4.82103e+06
5.49938e+06
6.27947e+06
7.13207e+06
8.03104e+06
8.96608e+06
9.93855e+06
1.09683e+07
1.20698e+07
1.32134e+07
1.4376e+07
1.55268e+07
1.66688e+07
1.77551e+07
1.87368e+07
1.95751e+07
2.02231e+07
2.06286e+07
2.07294e+07
2.04732e+07
1.9809e+07
1.87247e+07
1.72905e+07
1.56172e+07
1.37425e+07
1.168e+07
9.5067e+06
7.43628e+06
5.62652e+06
4.13437e+06
2.95774e+06
2.06768e+06
1.42559e+06
990815
724229
581674
508977
471551
452188
445396
453046
490289
591004
768013
1.01893e+06
1.34898e+06
1.76706e+06
402711
426620
473547
1.13179e+06
930778
3.39254e+06
2.19957e+06
1.405e+07
7.82464e+06
5.03328e+06
937912
2.17098e+06
1.10729e+06
817636
895640
546222
689090
345778
428720
253123
288693
219715
232158
200199
209316
200053
196288
225356
211456
263059
240542
360986
300597
580252
452188
887574
739453
1.01694e+06
976025
3.43876e+06
5.14777e+06
2.25127e+06
1.17957e+06
1.36198e+06
2.19702e+06
628600
844116
670807
631332
689083
693475
647143
665229
995239
702479
2.71147e+06
1.62709e+06
6.89775e+06
4.40545e+06
1.51366e+07
1.04012e+07
2.87969e+07
2.12754e+07
4.52764e+07
3.70883e+07
6.08448e+07
5.31626e+07
7.38368e+07
6.79456e+07
8.08691e+07
7.81794e+07
8.16406e+07
8.19816e+07
7.72278e+07
7.99724e+07
6.89264e+07
7.35263e+07
5.77126e+07
6.35456e+07
4.55545e+07
5.16581e+07
3.37216e+07
3.9513e+07
2.31457e+07
2.82965e+07
1.34489e+07
1.81212e+07
6.13709e+06
9.34661e+06
2.84855e+06
4.01763e+06
2.96394e+06
2.68343e+06
5.02104e+06
3.62422e+06
1.72512e+07
8.04255e+06
7.81187e+07
3.74285e+07
2.64806e+08
1.51891e+08
4.54174e+08
3.86503e+08
2.46888e+08
3.89603e+08
1.06288e+08
1.37e+08
1.03727e+08
1.10934e+08
8.93089e+07
9.36572e+07
5.52691e+07
7.63089e+07
1.75709e+07
3.40506e+07
2.09169e+07
452444
1.00075e+06
268675
289548
259461
265236
253004
255013
254398
252205
261451
258034
313565
269251
4.77952e+06
496150
8.29508e+06
3.38382e+06
1.27009e+07
2.39462e+06
2.41397e+07
1.52685e+07
4.64825e+07
3.18445e+07
5.68284e+07
5.97789e+07
7.91011e+07
6.26574e+07
1.12161e+08
9.66254e+07
2.14283e+08
1.43458e+08
4.60523e+08
3.31791e+08
4.04424e+08
4.94367e+08
1.5422e+08
2.72262e+08
3.63175e+07
7.76147e+07
8.00996e+06
1.66481e+07
4.23002e+06
5.50862e+06
2.82117e+06
3.34926e+06
3.60754e+06
2.85698e+06
7.96588e+06
5.17629e+06
1.61423e+07
1.16524e+07
2.64634e+07
2.1135e+07
3.77731e+07
3.19857e+07
4.96362e+07
4.37115e+07
6.14405e+07
5.555e+07
7.21547e+07
6.70871e+07
7.93121e+07
7.62959e+07
8.14393e+07
8.11264e+07
7.70637e+07
8.01093e+07
6.60371e+07
7.23076e+07
5.09381e+07
5.86956e+07
3.48574e+07
4.30399e+07
1.96313e+07
2.67571e+07
9.52256e+06
1.39054e+07
4.00244e+06
6.2915e+06
1.46568e+06
2.45215e+06
650692
898074
617187
607006
618343
627276
553598
588221
863249
583648
1.38772e+06
1.43799e+07
2.51287e+06
434471
273373
7.83377e+06
370266
8.03719e+06
838785
3.75641e+06
4.81134e+06
5.04805e+06
1.13719e+07
1.0835e+07
1.70434e+07
1.77711e+07
217437
1.74378e+06
425555
392546
409761
143383
142748
139287
205336
197875
199723
217023
218325
215673
236242
248833
240377
266188
292882
277714
6.40505e+06
918787
2.75054e+07
1.11977e+06
7.53415e+07
519412
1.17938e+06
5.70587e+06
495860
476780
3.76613e+06
157333
128205
1.41389e+06
6.25166e+06
151072
8.08421e+06
6.13998e+06
8.36396e+06
1.26892e+06
2.88102e+06
273634
2.58585e+06
162668
5.84173e+06
152529
368337
199098
174322
197254
249064
3.15414e+07
921124
456653
1.24176e+07
7.07585e+06
544368
1.93587e+06
787167
3.42644e+06
6.17201e+06
3.69124e+06
864102
2.15147e+06
7.67074e+06
136639
842717
7.04863e+06
336082
210303
97326.3
93046.1
9.03347e+06
)
;

boundaryField
{
    wall
    {
        type            epsilonWallFunction;
        blending        stepwise;
        value           nonuniform List<scalar> 
166
(
3.39254e+06
2.19957e+06
5.03328e+06
3.43876e+06
5.14777e+06
1.36198e+06
2.19702e+06
628600
844116
670807
631332
689083
693475
647143
665229
995239
702479
2.71147e+06
1.62709e+06
6.89775e+06
4.40545e+06
1.51366e+07
1.04012e+07
2.87969e+07
2.12754e+07
4.52764e+07
3.70883e+07
6.08448e+07
5.31626e+07
7.38368e+07
6.79456e+07
8.08691e+07
7.81794e+07
8.16406e+07
8.19816e+07
7.72278e+07
7.99724e+07
6.89264e+07
7.35263e+07
5.77126e+07
6.35456e+07
4.55545e+07
5.16581e+07
3.37216e+07
3.9513e+07
2.31457e+07
2.82965e+07
1.34489e+07
1.81212e+07
6.13709e+06
9.34661e+06
2.84855e+06
4.01763e+06
2.96394e+06
2.68343e+06
5.02104e+06
3.62422e+06
1.72512e+07
8.04255e+06
7.81187e+07
3.74285e+07
2.64806e+08
1.51891e+08
4.54174e+08
3.86503e+08
2.46888e+08
3.89603e+08
1.06288e+08
1.37e+08
1.03727e+08
1.10934e+08
8.93089e+07
9.36572e+07
5.52691e+07
7.63089e+07
1.75709e+07
3.40506e+07
2.09169e+07
1.27009e+07
2.41397e+07
1.52685e+07
4.64825e+07
3.18445e+07
5.68284e+07
5.97789e+07
7.91011e+07
6.26574e+07
1.12161e+08
9.66254e+07
2.14283e+08
1.43458e+08
4.60523e+08
3.31791e+08
4.04424e+08
4.94367e+08
1.5422e+08
2.72262e+08
3.63175e+07
7.76147e+07
8.00996e+06
1.66481e+07
4.23002e+06
5.50862e+06
2.82117e+06
3.34926e+06
3.60754e+06
2.85698e+06
7.96588e+06
5.17629e+06
1.61423e+07
1.16524e+07
2.64634e+07
2.1135e+07
3.77731e+07
3.19857e+07
4.96362e+07
4.37115e+07
6.14405e+07
5.555e+07
7.21547e+07
6.70871e+07
7.93121e+07
7.62959e+07
8.14393e+07
8.11264e+07
7.70637e+07
8.01093e+07
6.60371e+07
7.23076e+07
5.09381e+07
5.86956e+07
3.48574e+07
4.30399e+07
1.96313e+07
2.67571e+07
9.52256e+06
1.39054e+07
4.00244e+06
6.2915e+06
1.46568e+06
2.45215e+06
650692
898074
617187
607006
618343
627276
553598
588221
863249
583648
1.38772e+06
1.43799e+07
7.83377e+06
8.03719e+06
4.81134e+06
5.04805e+06
1.13719e+07
1.0835e+07
1.70434e+07
1.70434e+07
1.77711e+07
1.77711e+07
2.75054e+07
7.53415e+07
3.15414e+07
)
;
    }
    outlet
    {
        type            inletOutlet;
        inletValue      uniform 266000;
        value           nonuniform List<scalar> 
33
(
937912
2.17098e+06
1.10729e+06
817636
895640
546222
689090
345778
428720
253123
288693
219715
232158
200199
209316
200053
196288
225356
211456
263059
240542
360986
300597
580252
452188
887574
739453
1.01694e+06
976025
2.25127e+06
1.17957e+06
7.83377e+06
8.03719e+06
)
;
    }
    inlet
    {
        type            fixedValue;
        value           uniform 266000;
    }
    frontAndBackPlanes
    {
        type            empty;
    }
}


// ************************************************************************* //
