/*--------------------------------*- C++ -*----------------------------------*\
| =========                 |                                                 |
| \\      /  F ield         | OpenFOAM: The Open Source CFD Toolbox           |
|  \\    /   O peration     | Version:  2212                                  |
|   \\  /    A nd           | Website:  www.openfoam.com                      |
|    \\/     M anipulation  |                                                 |
\*---------------------------------------------------------------------------*/
FoamFile
{
    version     2.0;
    format      ascii;
    arch        "LSB;label=32;scalar=64";
    class       volScalarField;
    location    "0.0225";
    object      k;
}
// * * * * * * * * * * * * * * * * * * * * * * * * * * * * * * * * * * * * * //

dimensions      [0 2 -2 0 0 0 0];

internalField   nonuniform List<scalar> 
7220
(
280.973
240.05
227.874
227.862
251.548
239.632
129.486
141.535
155.72
146.982
297.438
2705.31
575.716
395.304
523.561
1664.33
716.387
404.85
483.61
362.296
1010.72
480.089
389.563
464.047
210.836
366.863
5411.95
380.771
1023.86
503.407
257.13
482.685
327.237
512.53
199.301
295.26
186.947
326.549
294.529
1120.51
1134.02
1074.25
1059.59
264.863
268.659
273.209
270.185
267.155
1153.21
1176.7
1115.68
1093.75
1203.39
1226.46
1159.22
1139.85
1232.5
1195.59
1098.7
1162.65
1107.6
971.134
823.614
974.311
806.649
632.998
538.096
672.343
487.032
389.188
364.53
435.694
328.636
294.597
289.229
317.506
277.111
269.179
266.173
273.624
266.306
265.879
262.925
263.368
264.997
263.638
266.6
268.083
270.428
263.382
1118.18
1055.51
998.638
980.186
271.214
276.084
273.532
276.773
271.449
275.661
272.22
304.671
284.673
408.505
342.943
617.893
503.16
777.766
715.17
891.329
831.194
1054.42
967.539
1182.13
1135.05
1176.95
1187.84
1138.58
1157.32
1032.59
1019.4
950.779
1025.8
736.485
843.198
581.968
647.261
496.9
536.165
400.378
451.591
315.212
352.781
274.113
289.449
263.315
266.418
262.706
271.991
1131.56
970.684
263.468
263.104
274.446
280
273.623
276.2
277.519
264.907
279.17
278.628
279.98
277.797
299.164
285.879
375.89
326.463
547.733
451.857
682.442
635.827
696.295
692.822
717.707
703.522
792.519
745.155
953.786
862.864
1117.84
1050.6
1117.68
1127.44
1154.28
1143.36
1115.64
1077.9
1143.49
881.882
896.825
983.409
894.226
887.163
800.33
879.215
605.404
697.167
494.501
537.665
457.438
469.633
453.158
453.324
434.555
450.296
364.283
403.596
298.604
327.247
269.468
279.864
264.635
269.371
266.617
263.314
266.283
1262
1254.29
779.696
829.514
279.373
272.49
277.884
282.377
284.549
267.449
265.03
280.701
262.915
282.825
298.616
288.918
355.447
318.299
500.595
416.757
648.13
588.773
658.847
663.823
636.263
647.595
622.745
627.79
630.13
622.606
685.046
648.989
828.249
745.461
982.964
915.517
1093.62
1032.96
1176.46
1249.07
973.328
1063.42
655.481
729.151
497.896
572
417.283
446.928
395.481
401.87
398.325
394.948
413.446
404.738
427.829
422.27
407.513
424.916
341.517
376.782
287.77
310.46
273.65
263.486
1237.9
916.138
283.374
275.823
270.324
282.908
282.801
269.056
279.128
264.537
283.378
866.134
1075.93
1118.28
1019.17
285.793
281.44
273.547
279.333
274.606
271.093
277.043
286.944
287.7
298.949
291.33
342.039
314.012
461.71
390.375
614.415
545.236
645.492
645.509
617.968
633.663
586.034
601.431
561.918
572.985
546.263
552.792
546.193
543.334
585.364
558.648
689.882
630.674
762.855
1412.78
1496.31
1462.33
1402.98
1487.57
1251.42
802.064
540.968
632.939
421.13
473.974
361.782
384.067
346.488
350.574
349.657
346.715
361.2
354.494
379.785
369.86
400.337
390.186
412.229
408.744
384.689
405.387
322.809
354.243
296.95
262.806
262.988
265.536
263.715
268.036
284.255
1299.55
947.916
287.17
307.828
274.129
266.206
286.471
286.584
285.045
280.746
289.222
270.681
298.775
283.001
286.38
292.524
277.854
333.371
310.994
430.197
371.111
577.464
505.565
629.218
620.588
605.141
620.188
571.092
588.191
538.849
554.502
511.839
524.509
490.64
500.685
475.182
481.897
472.685
471.617
497.209
480.684
590.574
528.056
1095.83
741.95
1260.07
1464.81
1360.79
1601.1
1554.18
1501.76
1591.17
1188.57
1346.32
983.05
1055.23
957.682
564.144
847.709
377.189
432.867
330.582
347.519
315.536
320.536
315.149
314.085
321.961
317.821
334.87
327.729
351.786
342.963
371.158
361.233
390.298
381.142
397.134
396.833
363.755
386.406
335.024
264.033
267.232
262.909
262.903
264.027
286.72
286.542
290.69
289.384
320.484
345.815
298.37
748.463
1144.6
966.925
951.163
290.3
288.696
286.822
273.514
266.638
269.446
277.076
288.34
289.923
284.491
292.956
288.331
281.118
297.651
326.143
307.761
405.374
357.504
539.279
470.499
606.543
589.016
589.123
602.078
556.54
573.16
524.223
540.13
494.435
508.929
467.959
480.788
445.421
456.078
428.17
436.154
417.033
421.616
415.777
414.842
447.011
423.01
518.509
1260.06
1435.23
1341.96
1587.37
1536.06
1477.04
1567.23
1181.21
1336.19
1037.22
961.767
424.212
634.395
327.569
354.86
307.202
314.65
299.615
302.435
299.151
298.486
305.31
301.524
316.02
310.221
329.679
322.54
345.763
337.431
363.73
354.601
380.334
372.659
381.754
384.642
368.365
271.932
282.201
263.449
266.187
262.988
262.609
264.804
289.52
292.27
1215.42
1001.51
367.273
352.97
288.866
290.721
294.534
293.778
292.591
290.759
272.776
280.974
280.783
284.886
227.274
288.238
289.43
295.479
319.827
304.182
386.262
346.173
502.251
440.972
577.277
552.963
567.818
577.987
538.457
553.709
508.222
523.173
479.56
493.637
453.397
466.122
429.746
441.293
409.037
418.921
393.047
400.337
383.401
387.396
379.764
380.826
390.801
381.567
521.179
421.707
1118.97
826.814
1106.59
1214.64
1159.18
1384.13
1296.21
1528.46
1479.67
1415.4
1503.5
1139.27
1286.16
932.705
1001.02
948.718
912.502
1003.74
790.466
1013.71
382.61
489.876
326.614
344.035
308.651
316.341
298.156
302.496
295.018
295.751
297.567
295.689
304.209
300.46
313.913
308.723
326.137
319.733
340.62
333.107
356.682
348.556
370.376
364.36
372.476
293.061
332.594
311.393
269.933
279.173
262.516
264.759
262.125
261.867
265.69
263.477
276.033
272.036
276.538
268.592
292.926
167.102
288.469
290.538
297.816
215.121
913.759
1049.97
891.044
943.148
297.699
280.692
296.651
285.215
289.049
294.818
292.242
139.068
211.059
196.202
205.392
368.831
172.163
290.387
293.415
162.003
292.531
268.961
265.92
300.12
298.578
289.003
162.114
287.929
356.677
290.344
287.034
139.698
284.374
287.321
285.454
284.373
292.793
288.145
313.723
300.457
370.765
336.136
469.343
416.676
543.787
516.21
542.161
549.23
516.722
530.295
489.469
502.937
463.411
476.258
439.177
451.008
417.313
427.96
397.876
407.265
381.593
389.277
369.657
374.992
363.607
365.804
364.612
363.262
374.803
367.856
436.481
391.409
574.103
1043
1160.74
1095.56
1330.08
1242.96
1464.48
1419.48
1351.34
1435.7
1091.97
1232.06
891.085
961.346
865.744
1054.02
619.525
960.907
391.494
451.793
347.59
364.205
324.929
335.142
309.944
316.538
301.735
305.075
298.9
299.719
300.391
299.156
305.459
302.526
313.424
309.119
323.811
318.329
336.374
329.828
350.297
343.285
361.035
356.647
354.685
361.18
323.684
341.296
288.935
305.346
268.606
276.424
262.537
264.444
262.194
261.816
263.626
205.179
187.439
182.881
296.328
300.033
202.372
341.575
388.679
288.257
1026.4
1005.11
218.415
296.387
302.356
303.767
301.596
285.252
206.492
295.005
265.741
267.594
272.668
301.83
289.767
293.522
292.212
2282.14
300.908
389.326
288.441
219.197
299.046
296.559
187.11
203.788
293.302
223.332
223.34
214.414
290.926
286.497
309.111
297.77
357.221
327.957
441.176
396.797
508.305
481.573
513.168
516.958
492.276
503.81
468.556
480.313
445.787
456.99
424.51
434.937
405.254
414.599
388.344
396.486
374.316
380.93
364.003
368.646
358.319
360.516
358.504
357.58
365.862
361.26
382.002
372.383
426.21
397.36
685.728
495.822
1023.5
973.812
969.018
981.378
968.272
1100.76
1030.1
1272.39
1183.89
1394.16
1355.3
1284.53
1364.54
1040.9
1173.34
844.171
918.108
832.031
815.751
934.095
877.602
971.271
1025.48
1028.06
576.178
819.884
429.698
474.558
384.688
403.219
356.503
369.745
335.007
344.903
320.05
326.753
310.757
314.753
306.283
307.962
305.955
305.652
309.059
307.122
314.972
311.697
323.246
318.829
333.616
328.194
344.958
339.336
352.422
349.729
344.861
351.309
318.036
333.118
288.013
302.238
270.763
277.363
265.558
267.167
265.074
246.898
232.43
282.54
145.307
170.902
299.767
303.698
240.642
296.766
290.419
250.62
259.962
125.459
299.503
274.279
274.399
270.402
305.765
306.173
307.796
250.011
294.671
226.187
982.535
972.225
861.687
899.239
298.271
173.992
297.726
275.337
158.27
201.621
174.633
151.652
283.229
306.189
303.338
306.9
258.279
202.882
302.319
312.145
294.44
284.964
274.602
274.35
294.788
297.919
300.207
305.316
301.145
289.856
194.004
303.484
313.405
325.104
311.376
284.591
209.801
316.163
226.656
244.138
302.593
199.046
298.259
380.542
306.586
296.703
346.997
322.607
417.25
380.079
474.109
451.164
482.023
483.393
466.264
475.347
446.851
456.523
427.769
437.18
410.163
418.788
394.185
401.929
380.377
386.979
369.294
374.457
361.642
364.992
358.345
359.4
360.359
358.622
368.914
363.727
385.144
376.041
409.686
396.234
455.661
427.918
617.112
504.511
856.226
902.783
920.82
902.709
1039.55
967.735
1210.01
1124.57
1321.04
1285.48
1218.65
1293.71
986.462
1113.63
797.943
871.923
774.97
766.562
813.496
1001.94
976.325
1037.8
601.887
762.451
488.753
529.302
439.689
461.146
404.011
421.084
374.556
388.447
351.846
362.372
335.31
342.861
324.141
329.105
317.655
320.36
315.158
315.95
316.022
315.206
319.635
317.519
325.536
322.313
333.442
329.28
342.003
337.81
347.006
345.384
340
345.563
318.235
330.412
293.211
305.196
278.497
284.221
275.425
237.881
127.489
118.393
121.515
290.879
158.314
346.193
303.303
292.971
275.805
307.763
294.995
289.899
296.436
266.878
283.135
275.546
255.49
380.688
1740.69
299.979
281.074
309.983
918.542
935.821
303.295
231.737
287.598
258.031
269.866
194.838
302.78
209.935
273.623
161.266
273.876
235.876
272.971
160.926
310.108
310.123
311.946
299.664
267.616
288.073
282.214
402.602
412.097
404.51
400.415
390.085
261.11
326.754
247.031
249.639
163.76
225.848
304.054
300.619
279.225
296.535
300.871
209.486
310.699
304.685
403.92
382.564
383.8
305.953
296.731
423
289.559
270.173
315.237
125.926
124.6
136.362
119.628
202.734
309.882
323.639
312.326
358.818
360.163
358.681
269.608
308.11
291.217
217.797
338.755
323.639
339.261
321.341
284.874
232.848
417.945
381.837
328.275
248.561
358.443
308.062
305.688
407.852
338.921
171.548
303.42
3288
342.032
321.769
399.058
369.02
444.643
425.992
453.086
453.144
441.697
448.504
426.739
434.255
411.707
419.155
397.882
404.611
385.669
391.564
375.397
380.249
367.693
371.186
363.196
365.001
362.754
362.402
367.466
364.406
378.464
372.099
397.142
386.753
424.504
409.725
460.664
441.402
514.722
483.854
640.976
560.414
957.825
801.175
940.058
980.81
875.197
836.964
851.064
860.275
838.142
982.534
910.304
1147.1
1065.46
1248.62
1215
1155.56
1226.54
931.467
1052.86
754.132
824.039
724.595
721.87
791.667
753.319
864.211
829.446
889.949
1011.87
960.568
944.702
1026.05
670.149
783.065
568.592
608.843
513.14
538.334
468.996
490.358
430.83
449.068
399.684
414.362
375.251
386.683
356.707
365.294
343.353
349.424
334.504
338.409
329.553
331.564
327.913
328.355
328.902
328.105
332.313
330.31
337.871
334.874
344.261
341.114
347.96
346.792
342.776
346.833
326.478
335.766
306.609
316.082
294.896
299.397
292.948
308.612
514.022
218.827
241.747
394.327
246.114
279.498
116.917
124.661
119.93
140.182
131.503
163.405
150.684
178.779
306.97
278.668
410.784
164.55
312.012
293.636
275.427
396.507
266.171
149.036
217.56
287.165
182.873
192.672
271.798
249.362
199.904
184.965
403.968
221.564
322.688
348.601
404.775
389.885
242.276
296.022
267.932
278.398
179.648
306.161
277.733
299.119
304.165
236.093
187.819
314.662
314.192
316.265
298.115
270.647
288.332
283.646
384.815
310.984
172.14
963.072
904.886
794.198
822.608
231.406
317.763
303.565
142.918
283.727
344.026
320.962
117.692
116.478
212.667
315.392
304.099
362.159
161.692
312.935
151.161
298.975
294.399
380.597
227.308
314.582
312.599
340.655
329.601
292.522
241.075
417.069
405.033
324.313
334.002
285.704
253.96
381.756
313.72
311.448
266.392
358.668
314.208
290.086
340.617
277.162
206.014
308.928
181.603
200.915
119.827
211.241
285.091
305.326
336.511
316.754
387.386
362.409
423.275
408.81
430.639
430.016
422.575
427.5
411.778
417.21
400.749
406.235
390.696
395.543
382.24
386.254
375.675
378.698
371.583
373.263
370.645
370.699
373.382
371.493
381.029
376.495
394.963
387.14
416.515
404.691
447.177
430.625
487.644
466.204
537.469
511.361
603.163
567.053
721.623
650.791
959.262
838.069
994.145
809.76
774.057
785.798
808.612
781.689
929.102
859.074
1084.6
1008.26
1180.77
1148.14
1095.95
1162.33
880.673
996.851
713.915
780.353
680.285
681.228
731.721
701.884
763.57
905.559
1012.23
966.853
964.526
1027.54
767.832
855.916
669.424
710.914
606.69
635.904
553.797
579.564
506.622
529.389
466.548
485.652
433.683
449.264
407.216
419.704
386.418
396.143
370.61
377.939
359.077
364.35
351.364
354.77
346.792
348.726
345.1
345.568
346.348
345.385
350.106
347.986
354.91
352.496
358.047
356.939
355.616
357.837
344.992
351.291
332.11
338.187
325.267
327.594
325.104
126.437
147.045
133.248
194.415
167.966
240.684
250.895
223.307
240.853
233.372
202.939
217.453
188.88
212.35
201.052
245.624
224.315
221.806
218.153
222.918
210.366
164.308
191.01
291.276
371.341
256.37
287.665
118.792
125.807
120.93
120.141
118.73
126.2
122.604
137.22
130.979
155.195
145.26
167.013
310.741
282.699
304.127
281.174
242.397
192.877
316.504
292.903
278.003
383.171
384.694
368.125
316.267
417.164
148.087
373.966
187.207
837.727
842.515
413.869
418.673
168.323
159.457
176.734
848.762
193.626
262.769
297.135
374.977
352.814
251.106
308.823
279.436
290.138
166.68
309.609
302.45
282.403
337.917
327.608
300.64
284.03
266.211
250.763
231.431
217.811
409.135
436.654
319.357
318.365
320.73
298.112
418.153
438.372
433.452
275.337
289.88
286.217
364.466
408.697
421.258
399.289
165.205
317.938
156.042
336.715
137.249
134.296
231.884
335.742
306.517
288.6
369.328
333.369
115.671
273.954
266.282
237.065
320.27
304.773
342.796
396.396
341.736
319.471
301.229
438.998
457.397
299.747
443.762
453.928
379.13
250.577
250.589
394.213
422.781
313.698
325.783
342.971
294.086
473.766
472.595
251.466
255.292
261.659
406.39
319.703
317.07
418.673
458.845
461.255
479.974
477.359
491.442
482.257
489.287
271.245
382.577
319.972
303.937
344.096
280.23
360.526
321.784
1280.37
285.366
158.841
315.014
428.821
298.382
335.496
352.427
341.723
390.233
370.11
417.269
407.024
421.93
421.615
415.654
419.498
407.456
411.48
399.622
403.478
392.872
396.06
387.832
390.116
384.829
386.063
384.184
384.184
386.594
384.939
392.965
389.26
403.843
397.765
420.804
411.427
445.671
432.171
479.873
461.507
524.662
500.912
579.923
551.058
644.449
611.043
722.652
680.844
839.392
773.049
1002.87
927.439
984.145
1019.57
866.209
929.023
808.415
747.503
776.622
721.726
727.586
763.98
734.33
879.325
812.991
1025.99
954.057
1116.34
1085.49
1038.64
1100.43
835.314
944.442
677.308
741.222
640.766
644.436
680.977
657.15
733.271
707.233
784.895
759.934
806.957
913.691
857.257
1017.26
968.865
1019.43
1044.47
886.131
954.843
791.105
833.276
722.072
754.85
661.097
690.997
605.089
632.371
555.826
579.524
514.122
534.049
479.371
495.932
450.795
464.344
427.65
438.614
409.028
417.809
394.584
401.318
383.781
388.783
376.29
379.568
372.554
373.969
372.278
372.042
374.677
373.222
378.494
376.511
382.255
380.48
383.655
383.471
379.72
382.239
374.263
376.808
372.54
162.163
146.465
210.071
184.044
261.909
237.062
290.798
296.136
282
271.925
276.629
230.125
252.327
193.302
210.549
177.884
143.379
150.783
192.183
184.591
199.055
197.776
191.181
196.797
172.027
182.679
159.701
173.55
225.882
326.869
266.968
299.753
125.767
130.57
126.966
127.634
126.181
131.936
129.613
138.44
134.812
149.581
143.235
157.544
314.58
287.662
333.326
287.042
281.795
259.307
223.524
410.037
446.035
321.177
442.264
293.592
424.561
428.395
281.702
366.838
412.911
459.641
247.211
221.924
296.549
441.292
426.019
323.167
165.239
401.097
320.218
154.183
185.566
349.975
377.726
491.337
137.105
139.03
152.242
326.29
224.171
323.874
298.833
256.021
324.979
289.487
302.18
313.096
308.91
287.681
360.004
342.046
284.402
281.815
262.673
258.797
244.678
489.772
324.282
322.629
325.328
461.578
426.679
665.293
299.241
454.853
280.657
292.224
289.361
345.4
398.857
392.835
357.895
390.247
324.6
470.542
892.209
839.435
732.531
760.262
141.282
139.028
205.175
229.197
356.771
309.51
294.076
486.53
2720.21
432.899
372.853
133.815
332.919
298.597
261.315
285.649
259.776
347.351
427.512
325.327
471.866
306.447
479.345
366.467
327.987
390.851
356.015
438.043
437.382
334.913
303.603
305.728
466.403
261.993
304.576
301.374
270.112
427.147
390.672
315.482
497.509
326.213
322.744
295.985
699.785
491.902
271.918
277.905
408.244
502.775
325.797
313.808
350.151
301.749
294.065
284.143
384.667
327.483
364.233
441.937
288.525
328.635
333.936
158.905
535.084
411.402
564.873
333.652
400.168
403.6
399.93
418.349
409.986
432.683
427.043
433.007
434.296
426.857
430.223
420.179
423.375
414.777
417.328
410.371
412.4
407.922
408.862
407.799
407.555
410.242
408.684
415.643
412.531
424.933
419.712
439.455
431.495
459.945
448.862
488.302
472.981
526.606
506.134
576.093
549.891
637.028
605.195
707.745
671.324
785.738
745.93
872.923
827.555
980.844
923.311
1074.32
1039.72
1011.96
1061.01
951.745
756.348
694.809
721.689
678.448
679.513
724.379
693.782
833.511
771.34
971.128
903.527
1054.93
1026.43
983.44
1040.77
793.921
895.286
644.305
705.801
605.311
611.416
637.014
617.438
681.902
659.256
706.351
826.104
919.392
868.888
1032.54
975.582
1085.31
1075.79
1014.09
1058.2
931.055
970.534
860.069
894.619
793.411
826.45
729.662
761.043
671.362
699.657
620.543
644.973
577.226
597.99
540.809
558.198
510.274
524.897
484.573
496.843
463.314
473.398
445.949
454.189
432.339
438.604
423.152
427.154
418.29
420.243
416.986
417.195
418.521
417.455
422.789
420.316
429.532
425.905
435.404
432.814
438.264
437.233
438.572
147.575
153.454
147.647
182.218
165.041
228.462
204.028
274.066
252.693
302.101
290.795
308.915
311.559
308.471
325.842
339.127
287.526
314.564
233.877
260.057
189.486
210.211
156.947
171.748
145.619
146.097
175.798
171.003
178.919
178.88
171.449
176.528
156.655
164.461
145.079
149.42
146.835
203.518
272.37
274.928
313.878
140.462
153.171
145.785
137.249
137.621
139.819
138.118
143.094
141.611
145.264
144.3
149.225
146.622
159.38
153.38
407.571
318.475
293.395
351.251
288.918
283.259
272.132
251.584
513.912
326.003
444.383
471.433
431.612
295.276
450.32
285.945
348.416
394.684
953.812
377.202
329.972
457.155
163.442
332.292
2018.85
776.286
363.346
212.84
795.715
790.024
140.781
141.409
154.396
179.378
212.777
270.571
252.15
255.475
343.354
293.867
311.105
184.117
173.157
316.62
317.109
293.732
655.175
641.381
691.688
602.576
364.807
346.215
286.075
272.549
280.129
267.573
290.248
411.393
329.393
326.956
330.054
459.092
1531.03
462.045
425.574
428.58
411.465
301.448
252.679
476.032
292.865
349.874
330.633
382.701
381.812
373.367
544.918
551.657
440.06
225.691
374.307
171.446
381.449
185.413
312.586
300.335
457.098
405.778
390.002
454.978
402.536
362.594
1438.72
300.714
270.271
298.25
278.015
710.231
826.185
436.898
404.546
330.551
463.766
359.281
356.146
374.002
308.966
798.808
798.357
246.085
499.951
2916.11
1444.76
335.641
328.587
317.943
306.138
365.118
362.618
392.438
311.958
488.979
454.264
412.811
404.851
337.424
275.1
307.062
284.838
330.696
320.111
326.026
664.121
431.555
565.211
491.251
513.319
302.923
331.714
331.465
325.889
205.323
298.188
762.698
399.497
2138.18
510.061
359.642
290.603
313.579
311.563
289.326
316.761
330.074
411.289
333.344
370.477
424.428
316.435
292.284
388.644
334.263
335.509
443.196
346.863
293.694
196.881
2385.32
443.978
519.089
489.538
474.956
577.183
546.842
414.318
529.8
503.166
513.691
491.68
496.235
484.928
488.119
477.244
481.528
468.588
472.87
461.126
464.594
455.579
458.021
451.9
453.511
450.407
450.836
451.775
450.715
456.128
453.561
463.8
459.517
475.535
469.09
492.743
483.337
517.3
504.038
550.131
532.588
593.148
570.212
648.15
619.112
715.426
680.298
793.13
753.207
877.118
834.637
962.805
920.022
1048.23
1005.45
1129.2
1090.42
1149.49
1154.62
1043.02
1107.29
915.948
975.62
833.644
868.694
805.593
711.441
756.497
651.206
675.723
641.629
639.522
688.803
658.269
791.607
733.602
919.71
856.751
996.445
970.572
930.584
983.564
755.52
848.925
614.606
673.417
573.471
581.862
598.133
581.893
638.113
617.534
687.978
661.202
757.205
719.648
796.622
843.853
818.523
926.656
878.948
1051.1
985.74
1147.9
1110.38
1139.4
1155.19
1082.85
1112.99
1019.07
1051.34
952.281
986.05
883.848
918.069
817.706
850.199
757.822
786.823
705.687
730.773
661.22
682.522
623.35
641.563
590.977
606.536
563.607
576.747
540.485
551.579
521.299
530.356
507.017
513.481
497.724
501.8
492.833
494.793
491.739
491.754
495.161
492.811
503.902
498.817
516.583
509.953
530.963
523.656
538.167
164.419
166.506
176.285
167.775
207.036
189.611
249.394
227.636
287.663
270.103
309.451
300.898
315.987
313.962
317.632
305.613
332.803
247.473
276.544
195.505
219.941
158.65
174.999
146.939
150.506
148.281
148.071
150.612
170.08
167.332
171.29
171.497
165.788
169.329
157.236
161.357
155.72
154.848
161.95
188.175
354.278
235.105
276.204
327.907
155.995
161.246
153.902
153.654
157.764
155.471
160.895
159.729
159.782
161.233
156.945
157.884
160.701
157.486
165.521
322.41
300.268
614.925
679.392
355.909
291.252
285.467
282.125
274.18
928.93
1028.28
311.497
369.83
170.33
242.595
452.133
669.061
910.276
457.076
2752.86
763.135
331.011
444.525
321.742
433.493
394.15
297.82
944.141
469.652
290.664
335.597
333.616
379.412
796.634
365.816
313.773
395.289
3027.38
432.018
482.9
286.452
535.327
1168.6
558.704
556.37
675.453
177.277
201.312
257.02
248.626
247.075
352.41
305.627
200.373
320.207
363.323
327.314
300.707
382.379
386.061
439.584
408.7
357.286
369.367
523.887
298.46
585.594
385.583
288.95
279.33
294.597
284.75
340.014
346.603
357.979
351.895
1043.44
953.345
265.391
281.406
335.447
427.473
422.895
597.764
436.424
334.626
331.32
334.894
454.152
385.269
3829.72
208.765
456.773
428.585
413.373
380.913
298.214
305.223
999.512
785.428
498.423
345.586
334.739
587.419
296.738
348.104
319.284
346
320.629
325.514
186.02
198.449
865.58
850.425
728.873
776.231
160.454
169.995
177.707
282.471
279.396
402.046
386.399
315.742
361.951
359.187
377.135
307.238
413.988
373.856
479.905
414.131
319.984
304.888
725.656
306.547
280.326
305.335
291.082
335.924
951.487
826.88
303.296
445.713
418.439
852.346
909.873
335.943
453.556
373.496
341.127
368.806
311.987
519.991
762.157
337.806
1536.98
446.03
969.96
401.353
308.837
348.44
400.943
318.074
616.3
496.553
388.829
511.878
415.178
373.551
344.848
290.285
310.409
294.642
323.152
653.759
295.845
436.614
1869.45
670.336
639.947
500.425
525.759
339.294
1169.75
300.666
335.667
479.503
380.243
553.015
429.634
406.166
310.385
315.075
296.479
309.814
415.937
468.097
339.953
341.186
428.162
337.052
297.252
395.054
951.894
216.549
489.649
1191.92
179.069
530.445
635.858
591.576
741.694
685.427
666.495
897.847
810.065
586.063
771.129
689.241
724.766
638.831
661.23
604.494
620.457
579.162
591.013
560.919
569.229
547.191
553.458
536.854
541.698
529.609
532.775
526.244
527.452
526.614
525.943
530.92
528.262
539.363
534.589
552.737
545.363
572.459
561.693
600.498
585.301
638.947
618.338
688.618
662.347
750.459
717.931
825.06
786.209
910.567
866.699
1001.6
955.846
1090.77
1046.86
1170.78
1132.39
1234.73
1205.23
1266.17
1256.57
1214.25
1255.1
1067.47
1146.29
933.475
993.707
891.244
782.426
674.462
724.255
614.957
637.89
609.579
605.595
656.697
626.756
753.221
699.277
871.533
813.442
941.038
917.879
880.266
929.107
719.611
805.16
587.676
643.537
544.828
555.26
563.413
550.014
600.019
580.656
650.349
622.635
685.398
832.31
858.931
842.755
933.07
887.775
1064.94
993.658
1197.81
1137.51
1249.73
1235.34
1235.21
1247.49
1193.37
1216.56
1136.93
1166.66
1070.7
1104.72
1000.39
1035.6
932.69
965.884
871.577
901.184
818.364
843.992
772.593
794.589
733.816
752.338
701.197
716.789
673.914
686.96
651.272
661.996
633.942
641.883
621.786
627.227
614.5
617.591
612.194
612.576
616.014
613.241
627.009
620.596
644.886
635.129
668.837
656.171
696.287
682.406
720.949
709.675
189.07
187.156
206.109
195.603
236.497
220.004
272.871
254.564
303.361
289.557
319.396
313.3
323.526
322.335
329.644
324.833
337.456
370.68
386.112
377.054
392.778
383.038
397.698
398.046
376.202
390.369
330.855
355.941
272.73
302.535
216.403
243.409
174.38
193.161
153.452
160.917
152.843
167.827
169.732
168.211
182.252
180.287
183.511
183.291
180.593
182.541
177.122
178.21
181.252
178.072
188.961
285.048
6749.09
255.893
267.776
328.504
193.364
220.02
205.817
178.741
184.077
177.817
176.94
183.816
180.467
187.963
186.591
184.663
187.953
175.896
180.25
174.354
173.051
178.283
326.363
308.521
377.704
422.932
350.465
943.901
251.066
294.014
288.379
1220.99
290.208
364.891
1036.37
392.292
475.093
447.127
503.094
695.071
641.795
229.501
837.358
987.622
1084.79
731.542
555.82
336.188
442.303
4516.72
173.615
441.405
397.189
2782.55
925.968
492.802
500.201
295.301
335.704
369.01
359.491
323.202
216.762
5235.67
543.603
941.033
875.812
512.125
832.853
654.724
838.242
821.395
754.363
206.43
715.787
418.95
358.494
277.637
243.225
365.317
293.741
323.79
335.688
369.335
378.094
339.865
308.744
381.609
370.854
465.019
427.467
345.676
336.617
1038.59
5355.05
293.024
299.518
286.705
303.133
296.195
348.228
1035.28
954.506
361.93
442.668
441.574
738.035
604.606
1356.19
450.39
340.085
335.811
339.865
447.003
380.902
372.739
380.32
1583.86
460.005
426.662
413.574
383.946
219.967
237.927
312.331
304.766
308.781
688.19
749.389
522.108
643.953
344.238
322.266
297.136
2556.27
301.142
418.199
1070.77
937.928
415.509
2886.6
376.804
254.2
237.378
269.988
318.993
349.066
379.576
314.825
424.346
360.664
1019.55
1601.51
1064.15
506.682
430.556
392.514
416.882
2216
467.439
311.272
292.221
309.395
299.345
333.392
300.621
957.07
811.788
330.964
454.65
323.688
626.757
1132.65
1618.58
1973.31
1736.72
1518.45
1323.67
341.533
442.046
362.967
568.134
335.375
372.252
314.952
537.768
372.366
345.339
632.454
472.604
1053.48
314.862
303.245
311.732
337.381
428.908
325.885
524.003
729.119
533.404
2583.32
530.486
395.048
398.348
356.534
630.629
307.029
314.101
300.657
321.533
635.148
315.747
443.02
315.446
457.716
1413
373.576
564.746
452.238
345.614
346.98
412.128
329.603
301.022
422.839
521.154
236.058
245.314
734.934
686.951
846.861
784.45
1024.52
925.852
1273.43
1138.13
1433.47
1711.94
1033.7
1118.55
914.084
967.645
832.795
870.034
773.979
801.213
731.647
750.78
703.105
716.014
680.607
691.139
662.918
671.13
651.391
656.331
646.388
648.101
647.358
646.156
654.441
650.093
668.435
660.498
690.771
678.442
723.451
705.687
768.399
744.295
826.961
795.933
898.781
861.302
982.518
939.237
1076.15
1028.33
1174.28
1125.19
1267.02
1222.02
1344
1308.06
1395.52
1373.52
1412.37
1408.91
1376.36
1403.36
1252.71
1326.51
1073.77
1163.36
939.195
997.141
885.659
902.537
880.869
881.443
879.836
762.033
826.35
644.574
698.118
584.522
606.798
581.405
576.419
627.684
598.666
717.952
667.958
826.477
773.295
888.964
868.44
832.765
877.739
686.009
764.029
563.052
615.815
519.04
531.16
532.387
521.472
566.471
547.865
618.159
589.182
703.387
656.021
809.107
755.97
855.911
859.434
858.489
869.383
860.905
933.368
892.289
1067.04
992.579
1227.82
1149.52
1334.88
1291.06
1375
1361.56
1373.02
1378.13
1342.97
1360.99
1291.57
1319.54
1225.78
1259.92
1154.89
1190.44
1086.07
1119.91
1023.13
1053.75
967.694
994.424
920.902
943.214
882.423
900.687
851.701
866.146
827.844
838.93
810.636
818.428
799.373
804.324
793.398
795.779
793.314
792.525
800.882
796.093
817.165
808.226
841.525
828.123
875.884
857.41
917.774
896.271
962.886
940.315
1028.45
989.421
1078.92
215.501
221.047
222.566
216.961
242.767
231.508
270.215
255.932
299.475
285.06
322.443
312.239
333.667
329.587
336.194
335.439
341.68
337.591
357.478
348.603
380.017
368.107
402.171
391.954
411.746
409.232
398.716
408.392
362.046
383.008
309.251
336.967
253.623
280.801
208.481
229.082
182.352
192.667
182.385
178.511
221.703
195.846
264.523
226.096
248.293
204.623
209.861
600.348
203.758
212.869
628.896
219.264
216.77
221.899
220.951
221.368
222.231
220.389
220.317
225.911
222.112
248.726
233.485
467.689
2700.91
502.29
287.693
255.424
335.324
227.319
239.802
212.47
217.924
213.218
211.391
222.281
217.287
228.61
226.432
224.49
228.946
210.858
218.018
205.351
204.818
209.942
330.357
323.281
318.548
369.681
806.184
1680.82
1814.18
446.295
341.534
295.106
553.037
297.366
292.041
293.056
300.182
361.23
1030.34
414.811
470.638
824.701
714.231
729.009
660.034
765.997
698.62
951.693
849.55
1196.73
1071.09
1453.97
1322.38
1740.04
1582.63
1948.74
1573.88
1462.53
571.743
341.528
437.942
382.607
878.746
456.613
399.263
265.623
493.941
711.484
823.334
316.434
309.799
734.07
306.798
879.044
519.437
350.412
191.811
786.738
799.298
309.143
365.68
358.65
1395.32
299.332
2856.03
1645.84
544.669
1143.22
608.689
1215.2
639.817
736.721
888.703
1610.44
2194.12
636.88
505.434
400.88
342.996
423.154
345.487
273.957
261.788
289.216
327.448
351.486
365.923
395.034
355.007
318.041
383.658
360.006
1248.55
1148.01
493.61
450.44
234.354
506.028
334.918
900.51
2562.9
462.85
298.372
320.466
474.192
644.797
305.564
295.698
308.002
303.136
345.879
1017.21
934.261
390.497
457.518
636.883
896.896
624.908
597.783
672.171
429.108
992.352
813.853
785.494
630.677
790.233
919.269
301.907
1180.29
788.688
471.786
345.735
340.471
345.003
438.151
373.097
369.414
376.063
874.544
471.249
422.789
411.98
386.198
312.138
714.747
544.933
362.774
429.804
789.634
1936.79
207.185
902.278
910.614
796.306
850.107
246.197
284.263
287.272
305.953
380.191
334.228
322.403
340.491
394.37
323.166
438.12
349.864
770.011
533.873
534.407
456.009
181.755
415.706
308.59
386.918
320.316
372.969
305.755
313.174
304.427
331.71
946.561
784.224
361.941
464.452
321.612
477.57
452.896
895.2
630.873
353.56
1928.27
1024.6
632.318
941.353
281.783
307.308