/*--------------------------------*- C++ -*----------------------------------*\
| =========                 |                                                 |
| \\      /  F ield         | OpenFOAM: The Open Source CFD Toolbox           |
|  \\    /   O peration     | Version:  2212                                  |
|   \\  /    A nd           | Website:  www.openfoam.com                      |
|    \\/     M anipulation  |                                                 |
\*---------------------------------------------------------------------------*/
FoamFile
{
    version     2.0;
    format      ascii;
    arch        "LSB;label=32;scalar=64";
    class       volScalarField;
    location    "0.0188";
    object      T;
}
// * * * * * * * * * * * * * * * * * * * * * * * * * * * * * * * * * * * * * //

dimensions      [0 0 0 1 0 0 0];

internalField   nonuniform List<scalar> 
2308
(
270.656
270.289
271.801
269.831
270.156
270.011
269.949
270.087
270.21
269.133
269.195
269.285
269.348
269.411
269.474
269.535
269.595
269.647
269.591
269.532
269.469
269.405
269.339
269.272
269.203
269.136
269.07
269.002
269.959
269.653
268.933
268.865
268.799
268.733
268.667
268.601
268.536
268.471
268.405
268.34
268.274
268.209
268.143
268.078
268.012
268.005
268.071
268.137
268.203
268.269
268.335
268.401
268.467
268.532
268.598
268.664
268.729
268.796
268.862
268.929
268.998
269.062
269.125
269.185
269.243
269.3
269.359
269.42
269.481
269.543
269.603
267.947
267.939
269.598
269.533
269.468
269.402
269.336
269.269
269.203
269.135
269.067
269.001
268.934
268.868
268.801
268.736
268.67
268.605
268.54
268.475
268.41
268.344
268.279
268.214
268.149
268.084
268.019
269.702
267.954
269.709
269.663
267.931
267.998
268.065
268.132
268.198
268.264
268.331
268.397
268.463
268.529
268.595
268.661
268.727
268.793
268.859
268.925
268.991
269.055
269.12
269.183
269.245
269.306
269.367
269.428
269.49
269.551
269.613
270.134
269.987
269.932
269.966
269.676
269.605
269.536
269.468
269.401
269.335
269.268
269.202
269.134
269.067
269.001
268.935
268.869
268.804
268.738
268.673
268.608
268.543
268.478
268.414
268.349
268.284
268.22
268.155
268.091
268.027
267.962
267.898
267.889
267.881
267.872
270.124
267.864
270.18
270.205
269.721
270.279
270.111
269.762
269.674
267.834
267.824
267.815
267.806
267.797
267.788
267.856
267.924
267.992
268.059
268.126
268.193
268.26
268.326
268.393
268.459
268.526
268.592
268.658
268.724
268.79
268.856
268.922
268.987
269.052
269.117
269.181
269.245
269.309
269.373
269.436
269.498
269.56
269.622
269.814
270.758
270.106
270.076
270.008
269.943
269.877
269.809
269.741
269.672
269.605
269.536
269.468
269.401
269.334
269.268
269.201
269.134
269.067
269.001
268.936
268.871
268.806
268.741
268.676
268.611
268.547
268.482
268.417
268.353
268.289
268.225
268.161
268.097
268.033
267.97
267.906
267.843
272.341
270.238
270.855
269.765
271.51
270.239
269.735
269.819
267.781
267.849
267.918
267.986
268.053
268.121
268.188
268.255
268.322
268.389
268.456
268.523
268.589
268.655
268.722
268.788
268.854
268.919
268.985
269.049
269.114
269.179
269.244
269.31
269.375
269.44
269.504
269.567
269.63
269.684
270.32
270.209
270.079
270.006
269.939
269.872
269.805
269.737
269.67
269.602
269.535
269.467
269.4
269.334
269.267
269.201
269.134
269.068
269.003
268.938
268.873
268.808
268.743
268.679
268.614
268.549
268.485
268.421
268.357
268.293
268.229
268.166
268.103
268.04
267.977
267.914
267.852
267.79
267.78
267.77
267.759
267.749
267.739
267.729
267.72
267.711
270.961
271.713
273.092
270.296
270.597
273.121
269.693
269.746
270.374
270.358
270.633
270.06
270.071
270.003
269.936
269.868
269.801
269.734
269.667
269.6
269.533
269.466
269.4
269.333
269.267
269.201
269.135
269.069
269.004
268.939
268.874
268.81
268.745
268.681
268.616
268.552
268.488
268.424
268.361
268.297
268.234
268.171
268.108
268.046
267.984
267.922
267.861
267.8
267.74
267.729
267.717
267.705
267.694
267.682
267.671
267.66
267.651
267.641
267.633
267.704
267.774
267.843
267.912
267.98
268.048
268.116
268.184
268.252
268.319
268.386
268.453
268.52
268.587
268.653
268.72
268.786
268.852
268.917
268.983
269.048
269.113
269.178
269.244
269.309
269.376
269.442
269.508
269.573
269.637
270.368
269.754
269.808
269.882
270.423
270.411
270.351
270.296
270.239
270.14
270.135
270.069
270
269.932
269.864
269.797
269.731
269.664
269.598
269.531
269.465
269.399
269.333
269.267
269.201
269.135
269.07
269.005
268.94
268.876
268.811
268.747
268.683
268.618
268.555
268.491
268.427
268.364
268.301
268.238
268.176
268.113
268.052
267.99
267.929
267.869
267.809
267.75
267.692
267.68
267.668
267.655
267.641
267.628
267.615
267.603
267.591
267.581
267.571
267.562
267.554
267.626
267.697
267.767
267.837
267.906
267.975
268.044
268.112
268.18
268.248
268.316
268.383
268.45
268.517
268.584
268.651
268.717
268.784
268.85
268.916
268.981
269.046
269.111
269.177
269.243
269.309
269.375
269.442
269.51
269.577
269.642
269.7
270.425
270.419
272.913
269.762
270.275
270.342
270.404
269.865
270.012
269.888
269.815
270.471
270.468
267.635
267.621
267.607
267.592
267.577
267.562
267.548
267.534
267.521
267.51
267.499
267.49
267.482
267.475
267.548
267.62
267.691
267.762
267.832
267.902
267.971
268.04
268.108
268.177
268.245
268.312
268.38
268.447
268.515
268.582
268.649
268.715
268.782
268.848
268.914
268.98
269.045
269.11
269.176
269.242
269.308
269.375
269.442
269.509
269.578
269.646
269.707
270.152
270.48
269.94
271.751
270.067
269.996
269.927
269.86
269.793
269.727
269.661
269.595
269.529
269.463
269.398
269.332
269.266
269.201
269.135
269.07
269.006
268.941
268.877
268.812
268.748
268.684
268.62
268.557
268.493
268.43
268.367
268.304
268.242
268.18
268.118
268.057
267.996
267.936
267.876
267.817
267.759
267.702
267.647
270.471
270.479
272.238
269.872
270.534
269.823
267.469
267.542
267.614
267.686
267.757
267.827
267.897
267.967
268.036
268.105
268.173
268.242
268.31
268.377
268.445
268.512
268.579
268.646
268.713
268.78
268.846
268.913
268.978
269.044
269.11
269.176
269.241
269.308
269.374
269.441
269.509
269.577
269.646
269.713
270.104
270.529
267.592
267.579
267.564
267.547
267.53
267.513
267.496
267.48
267.464
267.451
267.438
267.427
267.417
267.408
267.401
267.395
270.198
270.523
270.451
270.382
270.311
270.014
270.036
270.262
269.853
270.059
269.99
269.922
269.855
269.789
269.723
269.658
269.593
269.527
269.462
269.396
269.331
269.266
269.2
269.135
269.071
269.006
268.942
268.877
268.813
268.749
268.686
268.622
268.559
268.495
268.433
268.37
268.308
268.246
268.184
268.123
268.062
268.002
267.942
267.883
267.825
267.768
267.712
267.657
267.604
272.125
269.77
269.922
270.523
270.537
270.533
270.058
272.22
272.33
269.971
269.884
269.718
269.967
271.067
270.029
272.027
267.39
267.464
267.537
267.609
267.681
267.753
267.823
267.894
267.963
268.033
268.102
268.171
268.239
268.307
268.375
268.443
268.51
268.577
268.644
268.711
268.778
268.845
268.911
268.977
269.043
269.109
269.175
269.241
269.307
269.374
269.441
269.508
269.576
269.644
269.712
270.149
270.702
270.792
267.552
267.54
267.525
267.507
267.488
267.468
267.448
267.429
267.41
267.394
267.378
267.365
267.353
267.342
267.333
267.326
267.32
267.315
270.028
270.574
270.496
270.423
270.353
270.286
271.619
270.707
270.11
270.046
269.98
269.914
269.849
269.784
269.719
269.655
269.59
269.525
269.46
269.395
269.33
269.265
269.2
269.135
269.071
269.006
268.942
268.878
268.814
268.75
268.687
268.623
268.56
268.497
268.435
268.372
268.31
268.249
268.187
268.127
268.066
268.006
267.947
267.889
267.831
267.775
267.719
267.665
267.613
267.562
270.238
269.778
270.738
270.441
270.506
270.573
269.832
270.591
270.588
270.595
272.024
270.719
271.546
269.887
269.768
270.102
272.234
272.118
269.703
269.639
269.573
269.506
269.439
269.373
269.306
269.24
269.174
269.108
269.042
268.976
268.909
268.843
268.776
268.71
268.643
268.575
268.508
268.441
268.373
268.305
268.236
268.168
268.099
268.03
267.96
267.89
267.82
267.749
267.677
267.605
267.533
267.46
267.385
267.31
272.016
267.513
267.504
267.49
267.473
267.453
267.43
267.407
267.383
267.361
267.34
267.321
267.305
267.29
267.277
267.267
267.257
267.25
267.243
267.238
267.235
270.184
269.787
270.377
272.358
272.353
272.355
272.354
272.351
272.228
272.108
271.993
269.879
271.919
270.64
270.78
270.758
270.484
270.552
270.622
269.893
270.276
272.192
270.617
270.537
270.464
270.397
270.337
270.238
270.291
270.153
270.094
270.032
269.97
269.907
269.843
269.779
269.716
269.651
269.587
269.523
269.458
269.394
269.329
269.264
269.2
269.135
269.071
269.007
268.943
268.879
268.815
268.751
268.688
268.625
268.562
268.499
268.437
268.375
268.313
268.251
268.19
268.13
268.07
268.011
267.952
267.894
267.837
267.781
267.726
267.672
267.62
267.569
267.52
270.674
270.603
270.533
271.575
270.567
269.842
271.669
270.5
271.836
270.654
270.654
270.642
270.565
270.595
270.525
272.005
270.636
271.869
271.964
270.833
270.586
270.668
272.09
272.218
272.346
269.7
269.635
269.57
269.504
269.437
269.371
269.305
269.239
269.173
269.107
269.041
268.974
268.908
268.842
268.775
268.708
268.641
268.574
268.506
268.439
268.371
268.303
268.234
268.166
268.097
268.027
267.957
267.887
267.817
267.746
267.674
267.602
267.529
267.456
267.382
267.307
267.232
270.377
270.434
270.5
270.572
270.65
270.735
271.423
270.13
269.807
270.418
270.496
271.883
271.901
270.747
270.668
269.833
271.718
271.55
270.18
270.217
272.494
272.047
272.21
270.824
267.473
267.468
267.459
267.444
267.425
267.4
267.373
267.345
267.317
267.291
267.268
267.247
267.229
267.213
267.2
267.189
267.18
267.172
267.166
267.161
267.158
267.155
272.491
272.485
272.482
272.48
272.478
272.476
271.934
269.855
270.314
270.466
270.439
270.012
271.79
271.797
270.717
271.66
270.843
270.695
271.695
269.905
273.138
272.485
270.712
270.229
270.184
270.133
270.078
270.02
269.961
269.899
269.837
269.775
269.712
269.648
269.585
269.521
269.456
269.392
269.328
269.264
269.199
269.135
269.071
269.007
268.943
268.879
268.815
268.752
268.689
268.626
268.563
268.501
268.438
268.376
268.315
268.254
268.193
268.133
268.073
268.014
267.956
267.898
267.841
267.786
267.731
267.677
267.625
267.574
267.524
267.476
272.975
271.197
273.13
270.457
271.89
270.71
272.179
270.273
270.063
271.868
270.155
270.139
270.353
270.404
270.462
270.527
270.599
270.677
270.762
270.852
270.919
270.948
270.071
270.484
269.953
270.256
269.82
269.758
269.695
269.631
269.567
269.501
269.436
269.37
269.304
269.238
269.172
269.106
269.04
268.973
268.907
268.84
268.774
268.707
268.64
268.572
268.505
268.437
268.369
268.301
268.232
268.164
268.094
268.025
267.955
267.885
267.814
267.743
267.672
267.599
267.527
267.454
267.38
267.305
267.23
267.154
272.071
272.206
272.34
272.473
271.783
273.119
270.522
270.599
270.687
271.091
270.879
270.985
269.778
270.307
269.915
269.873
270.353
270.43
270.382
270.259
271.772
271.781
270.888
270.778
269.85
271.565
270.053
271.423
271.297
270.826
270.745
271.557
269.968
270.093
270.11
270.424
271.341
271.439
271.552
270.291
270.331
272.617
272.618
272.616
272.613
272.61
272.607
272.606
272.605
272.604
270.252
269.92
270.771
270.782
271.67
271.473
270.148
270.216
270.169
270.119
270.067
270.011
269.953
269.893
269.832
269.771
269.708
269.646
269.582
269.519
269.455
269.391
269.327
269.263
269.199
269.135
269.071
269.007
268.943
268.879
268.816
268.753
268.69
268.627
268.564
268.502
268.44
268.378
268.317
268.256
268.195
268.135
268.076
268.017
267.959
267.902
267.845
267.789
267.735
267.681
267.629
267.577
267.527
267.477
267.428
267.429
267.429
267.427
267.419
267.404
267.38
267.35
267.317
267.282
267.249
267.219
267.193
267.17
267.151
267.135
267.121
267.11
267.101
267.093
267.088
267.083
267.079
267.077
267.077
270.404
271.673
271.047
271.019
270.939
270.313
272.621
272.321
269.918
269.954
270.365
270.421
270.481
270.546
270.618
270.697
270.783
270.876
270.976
271.079
271.275
271.147
271.182
269.894
270.393
270.322
271.773
270.874
269.797
271.436
271.243
271.177
270.789
271.424
270.028
271.443
270.167
271.013
270.901
270.797
270.703
270.618
270.541
270.466
270.337
272.482
270.177
271.916
272.055
272.194
272.333
272.47
272.603
270.187
269.984
273.154
270.848
272.756
272.749
272.745
272.743
272.741
272.738
272.735
272.733
272.732
272.731
272.731
272.731
271.324
271.553
270.076
270.674
269.927
273.136
270.222
270.261
270.21
270.161
270.11
270.058
270.004
269.947
269.889
269.829
269.768
269.706
269.643
269.58
269.517
269.454
269.39
269.326
269.262
269.198
269.134
269.071
269.007
268.943
268.88
268.816
268.753
268.69
268.627
268.565
268.503
268.441
268.379
268.318
268.257
268.197
268.137
268.078
268.019
267.961
267.904
267.848
267.792
267.738
267.684
267.631
267.579
267.528
267.478
267.428
267.377
267.379
267.383
267.388
267.391
267.387
267.371
267.343
267.304
267.261
267.219
267.179
267.144
267.115
267.09
267.07
267.053
267.04
267.029
267.02
267.013
267.008
267.003
267
266.998
266.998
267.001
267.078
267.154
267.229
267.304
267.378
267.452
267.525
267.597
267.669
267.741
267.812
267.883
267.953
268.023
268.093
268.162
268.231
268.299
268.368
268.436
268.504
268.571
268.638
268.706
268.772
268.839
268.906
268.972
269.039
269.105
269.171
269.237
269.303
269.368
269.434
269.499
269.564
269.629
269.693
269.757
269.823
269.885
269.946
270.004
271.131
270.131
270.208
270.219
270.277
270.073
270.349
270.851
271.337
269.939
269.98
270.368
270.291
270.227
270.345
271.658
271.658
270.995
271.331
271.122
271.04
271.255
270.826
270.913
271.546
271.307
271.174
270.045
271.425
270.874
271.145
271.225
270.956
270.978
271.654
270.287
270.33
269.959
271.233
271.117
271.003
270.895
270.797
270.709
270.629
270.557
270.492
270.432
270.377
270.912
270.193
270.001
270.413
270.479
270.551
270.629
270.714
270.809
270.916
271.037
270.211
270.129
271.701
271.863
272.022
272.173
270.012
271.187
270.229
271.204
270.135
271.434
270.089
271.894
272.039
272.183
272.327
272.469
272.606
272.74
270.172
270.131
270.208
270.153
270.1
270.046
269.992
269.937
269.878
269.817
269.754
269.691
269.627
269.562
269.498
269.433
269.367
269.302
269.236
269.17
269.104
269.038
268.971
268.905
268.838
268.772
268.705
268.638
268.57
268.503
268.435
268.367
268.298
268.23
268.161
268.091
268.022
267.952
267.881
267.811
267.74
267.668
267.596
267.523
267.45
267.377
267.303
267.229
267.155
267.08
267.006
271.006
270.91
267.325
267.328
267.337
267.349
267.362
267.366
267.351
267.315
267.263
267.206
267.152
267.104
267.065
267.032
267.006
266.985
266.969
266.956
266.945
266.938
266.932
266.927
266.923
266.918
266.917
266.917
266.923
266.932
271.343
272.879
272.873
272.869
272.866
272.864
272.861
272.859
272.857
272.856
272.855
272.854
272.856
272.869
272.468
272.607
272.749
272.882
270.304
270.254
270.204
270.155
270.105
270.053
269.999
269.943
269.886
269.826
269.765
269.704
269.642
269.579
269.516
269.453
269.389
269.325
269.262
269.198
269.134
269.071
269.007
268.943
268.88
268.816
268.753
268.69
268.628
268.565
268.503
268.441
268.38
268.319
268.258
268.198
268.138
268.079
268.021
267.963
267.906
267.85
267.794
267.74
267.686
267.633
267.581
267.529
267.479
267.428
267.377
267.326
271.316
271.1
271.533
271.538
270.195
270.309
270.004
270.044
271.051
270.926
270.34
271
270.166
270.365
270.424
270.488
270.558
270.635
270.721
270.816
270.923
271.046
272.189
269.689
271.511
271.684
271.86
272.026
270.387
271.3
271.158
271.024
270.907
270.805
270.716
270.636
270.564
270.498
270.439
270.024
270.271
270.252
271.529
271.079
271.206
271.105
270.964
270.29
270.241
270.194
270.145
270.094
270.042
269.988
269.932
269.873
269.813
269.751
269.689
269.625
269.561
269.496
269.432
269.366
269.301
269.235
269.169
269.103
269.037
268.971
268.904
268.838
268.771
268.704
268.637
268.569
268.502
268.434
268.366
268.297
268.229
268.16
268.09
268.021
267.951
267.88
267.81
267.738
267.667
267.595
267.522
267.449
267.376
267.303
267.229
267.156
267.083
267.011
266.941
271.71
271.869
272.023
272.172
272.322
272.47
272.618
272.76
272.887
270.106
271.415
271.001
271.294
271.403
270.164
270.069
272.418
272.574
272.729
272.87
270.265
271.414
273.001
272.994
272.99
272.988
272.986
272.984
272.982
272.981
272.979
272.978
272.977
272.976
272.978
272.99
273.004
273.089
267.273
267.266
267.273
267.286
267.309
267.341
267.364
267.352
267.304
267.228
267.148
267.077
267.021
266.978
266.943
266.916
266.896
266.881
266.869
266.859
266.853
266.849
266.845
266.841
266.834
266.834
266.832
266.839
266.855
266.87
270.294
270.247
270.199
270.151
270.101
270.051
269.997
269.941
269.884
269.824
269.764
269.703
269.64
269.578
269.515
269.452
269.389
269.325
269.261
269.198
269.134
269.07
269.007
268.943
268.88
268.817
268.753
268.691
268.628
268.566
268.504
268.442
268.38
268.319
268.259
268.199
268.139
268.08
268.022
267.964
267.907
267.851
267.796
267.741
267.687
267.634
267.582
267.53
267.479
267.428
267.377
267.327
267.276
271.061
271.183
271.399
270.217
270.088
266.945
267.013
270.399
270.365
266.882
266.758
266.804
266.781
266.731
266.742
266.726
266.727
266.736
266.73
266.755
266.745
266.784
266.768
266.824
266.804
266.884
266.851
266.995
266.93
267.199
267.082
267.394
267.324
267.333
267.398
267.218
267.259
267.203
267.215
267.324
267.271
267.188
267.191
267.428
267.376
267.53
267.479
267.635
267.582
267.742
267.688
267.852
267.796
267.965
267.908
268.081
268.022
268.199
268.14
268.32
268.259
268.442
268.381
268.566
268.504
268.691
268.628
268.817
268.754
268.943
268.88
269.07
269.007
269.197
269.134
269.325
269.261
269.451
269.388
269.577
269.515
269.702
269.64
269.824
269.763
269.941
269.883
270.05
269.996
270.148
270.1
270.243
270.196
270.34
270.291
270.443
270.39
270.567
270.502
270.719
270.639
270.911
270.809
271.172
271.03
271.497
271.331
271.85
271.676
272.161
272.013
272.482
272.32
272.794
272.644
273.039
273.103
273.107
273.098
273.099
273.099
273.099
273.101
273.1
273.102
273.101
273.103
273.103
273.105
273.104
273.075
273.109
273.014
273.035
273.125
273.148
272.96
273.041
272.704
272.848
272.37
272.542
272.036
272.199
271.685
271.861
271.349
271.515
271.051
271.192
270.82
270.927
270.638
270.724
270.492
270.561
270.377
270.431
270.28
270.328
270.187
270.234
270.091
270.139
269.986
270.04
269.872
269.93
269.75
269.811
269.624
269.687
269.496
269.56
269.366
269.431
269.235
269.3
269.103
269.169
268.971
269.037
268.838
268.904
268.704
268.771
268.569
268.636
268.434
268.501
268.297
268.365
268.159
268.228
268.02
268.09
267.88
267.95
267.738
267.809
267.594
267.666
267.449
267.522
267.303
267.376
267.156
267.229
267.084
273.124
273.147
271.274
270.014
266.837
271.092
267.206
272.043
273.153
273.158
273.158
273.16
273.16
273.16
273.16
269.943
271.314
271.269
271.155
271.162
269.746
269.826
269.755
270.311
270.203
270.256
270.36
270.25
270.304
270.41
270.294
270.351
270.459
270.336
270.397
271.284
270.139
273.145
270.186
272.965
270.095
270.773
271.213
270.187
270.255
270.068
269.89
269.644
271.342
270.047
269.882
270.246
272.308
270.169
272.379
269.988
270.137
271.585
269.965
273.072
269.883
270.881
269.945
269.906
270.059
270.331
273.144
272.13
270.797
270.339
270.327
271.332
272.649
271.878
270.526
273.037
269.9
269.762
269.812
270.464
269.756
271.937
270.261
270.57
270.077
269.241
269.082
270.323
)
;

boundaryField
{
    wall
    {
        type            zeroGradient;
    }
    outlet
    {
        type            inletOutlet;
        inletValue      uniform 85;
        value           nonuniform List<scalar> 
33
(
266.641
266.694
266.672
266.603
266.619
266.572
266.588
266.577
266.571
266.613
266.592
266.667
266.637
266.727
266.698
266.802
266.763
266.909
266.848
267.098
266.989
267.29
267.221
267.235
267.297
267.119
267.161
267.09
267.112
267.051
267.064
266.722
267.068
)
;
    }
    inlet
    {
        type            fixedValue;
        value           uniform 273.16;
    }
    frontAndBackPlanes
    {
        type            empty;
    }
}


// ************************************************************************* //
