/*--------------------------------*- C++ -*----------------------------------*\
| =========                 |                                                 |
| \\      /  F ield         | OpenFOAM: The Open Source CFD Toolbox           |
|  \\    /   O peration     | Version:  2212                                  |
|   \\  /    A nd           | Website:  www.openfoam.com                      |
|    \\/     M anipulation  |                                                 |
\*---------------------------------------------------------------------------*/
FoamFile
{
    version     2.0;
    format      ascii;
    arch        "LSB;label=32;scalar=64";
    class       volVectorField;
    location    "0.00807";
    object      U;
}
// * * * * * * * * * * * * * * * * * * * * * * * * * * * * * * * * * * * * * //

dimensions      [0 1 -1 0 0 0 0];

internalField   nonuniform List<vector> 
2681
(
(2.24703 -4.15157 -1.94641e-18)
(17.4016 -18.0652 0)
(11.789 -16.4119 -2.91923e-18)
(0.0141985 -0.0712241 -8.59174e-18)
(9.72573 -24.1441 2.01776e-18)
(-17.6969 -19.656 4.76567e-18)
(-0.0485845 -0.0205763 -2.13696e-18)
(-0.00727061 -0.0862363 2.77835e-19)
(0.0107477 -0.121497 5.50838e-19)
(0.0280454 -0.144977 -1.38696e-19)
(0.0251167 -0.0653187 0)
(-0.130748 -0.340404 -1.47299e-19)
(-0.111266 -0.293339 -1.43024e-19)
(0.727205 -1.37233 0)
(-0.211508 -0.442268 -6.53703e-19)
(0.311614 -0.562714 1.07091e-18)
(0.503761 -0.895742 0)
(0.00624533 -0.0939025 -6.84722e-19)
(-0.00699078 -0.104628 3.03454e-18)
(-0.0159316 -0.119873 -3.50502e-18)
(-0.050133 -0.179876 -1.12859e-17)
(-0.124034 -0.273432 8.3098e-19)
(-0.0990704 -0.23355 -3.32012e-18)
(-0.0782396 -0.205224 2.23699e-18)
(-0.182461 -0.390943 -1.24121e-18)
(-0.150779 -0.32167 0)
(0.0292791 -0.086243 -2.60124e-18)
(0.0430821 -0.0547806 2.43731e-19)
(0.0268308 -0.0717484 1.10745e-18)
(-0.00324409 -0.129575 1.32796e-18)
(0.0132605 -0.101117 -6.27757e-19)
(-0.0347354 -0.154557 1.30158e-18)
(-0.0210443 -0.145454 -1.13615e-18)
(-0.0686687 -0.218459 5.75635e-19)
(-0.0518925 -0.187943 0)
(-0.0901625 -0.253908 -8.51996e-19)
(0.100797 -0.267665 2.15253e-18)
(0.130819 -0.3033 2.57928e-19)
(0.160327 -0.348029 -5.14295e-19)
(0.111955 -0.321092 -5.21472e-19)
(0.135661 -0.372445 9.59832e-19)
(0.0818282 -0.231376 0)
(0.0947983 -0.271821 -2.72203e-19)
(0.0592771 -0.201445 0)
(0.0719206 -0.220263 0)
(-1.87491 -33.3496 0)
(0.0423564 -0.167879 1.40492e-19)
(-0.00719426 -0.100078 -1.09492e-18)
(0.0354125 -0.0437988 0)
(-0.0369271 -0.0638847 -2.78258e-19)
(-0.0238792 -0.0804616 6.2899e-23)
(0.197108 -0.412137 2.0483e-18)
(0.451429 -0.792821 1.53055e-19)
(0.00868079 -0.0881663 -2.77164e-19)
(-0.00944392 -0.071535 5.64147e-19)
(-0.0744451 -0.269678 1.4304e-19)
(-0.088839 -0.309042 -4.29379e-19)
(0.0424042 -0.0476759 -2.89491e-19)
(-0.0450063 -0.0510648 0)
(-0.0498736 -0.0573281 5.52152e-19)
(-0.0544831 -0.0467736 1.38407e-19)
(-0.0312547 -0.120911 0)
(-0.013743 -0.0985765 2.43345e-18)
(-0.0672305 -0.161363 2.89077e-18)
(-0.0499308 -0.145915 -4.95504e-19)
(-0.136552 -0.248565 -1.60116e-22)
(-0.110875 -0.20505 0)
(-0.207302 -0.348615 0)
(-0.168388 -0.297017 5.31981e-19)
(-0.00661045 -0.0280523 0)
(-0.223782 -0.403373 1.09772e-18)
(0.218923 -0.379424 2.50352e-19)
(0.264768 -0.465527 -9.01829e-19)
(0.12276 -0.236465 -1.61107e-18)
(0.178945 -0.303057 -4.82852e-19)
(-0.14349 -0.388126 5.9306e-19)
(-0.0229438 -0.0260057 0)
(0.650582 -1.24665 7.57262e-18)
(13.7504 -18.9791 4.76338e-18)
(0.0416908 -0.0765427 1.19379e-18)
(0.0511256 -0.0550248 -6.64886e-19)
(0.044583 -0.0649702 1.6897e-18)
(0.0182366 -0.111341 0)
(0.0302215 -0.0923046 1.23865e-18)
(-0.00834787 -0.151026 1.24677e-18)
(0.00836273 -0.129283 -1.19994e-19)
(-0.0423629 -0.204866 0)
(-0.0274685 -0.178087 -5.97342e-19)
(-0.0594956 -0.235601 8.59848e-19)
(0.0761671 -0.284198 0)
(0.0746019 -0.314052 0)
(0.0490196 -0.226315 1.15023e-18)
(0.0612884 -0.255355 -1.13095e-18)
(0.0333999 -0.181991 2.90505e-19)
(0.0363133 -0.201126 0)
(0.00734441 -0.134736 0)
(0.0222415 -0.15812 -2.81986e-19)
(-0.026023 -0.0904474 0)
(-0.00912309 -0.11175 0)
(-0.0399332 -0.0720614 5.48654e-19)
(-0.0229543 -0.0582478 -7.07713e-20)
(-0.0340767 -0.055352 7.06664e-20)
(-0.101359 -0.347744 5.65995e-19)
(-0.297318 -0.585596 4.59055e-18)
(-0.237316 -0.492869 0)
(0.220479 -0.496771 -2.07859e-18)
(0.0524607 -0.0449192 0)
(-0.0605646 -0.0537205 -1.37061e-19)
(-0.061648 -0.0459456 -6.85075e-19)
(-0.362801 -0.571051 -6.75481e-18)
(-0.459956 -0.740493 4.4121e-18)
(-0.345195 -0.681838 0)
(0.344735 -0.6728 0)
(0.0639489 -0.322366 -1.97536e-18)
(0.111467 -0.40745 4.41144e-18)
(0.0755971 -0.347268 4.87331e-18)
(-0.0120569 -0.0581658 -5.62113e-19)
(-0.0311333 -0.0476784 1.14251e-18)
(-0.0225813 -0.04797 5.72922e-19)
(-0.0888203 -0.483312 -2.20238e-18)
(-0.692826 -1.21086 1.36881e-18)
(0.408681 -0.641598 -3.02086e-19)
(-2.35523 -28.1838 -1.02593e-17)
(-0.118598 -0.394675 1.11666e-18)
(-0.167674 -0.447487 -1.17231e-18)
(0.143127 -0.415261 0)
(0.0508992 -0.040153 0)
(11.9336 -17.1001 7.3586e-18)
(0.0440109 -0.0414249 4.91628e-20)
(0.392384 -3.6497 0)
(0.726888 -1.48319 2.30912e-18)
(-0.00318824 -0.0802021 3.17672e-18)
(0.00998155 -0.0651342 -1.03265e-18)
(-0.0508953 -0.12114 -2.65324e-19)
(-0.0260241 -0.0953277 2.71431e-19)
(-0.10499 -0.183269 -1.52012e-18)
(-0.0794125 -0.144905 5.17875e-19)
(-0.177517 -0.262943 0)
(-0.13879 -0.214701 1.01957e-18)
(-0.273619 -0.40243 5.0434e-19)
(-0.223047 -0.321124 5.80145e-19)
(-0.321762 -0.495616 9.48708e-19)
(0.286188 -0.422225 2.47782e-19)
(0.347434 -0.524462 -6.04931e-19)
(0.179528 -0.280112 1.2074e-19)
(0.225931 -0.338008 3.5023e-23)
(0.550324 -0.881044 1.08164e-18)
(-0.0230305 -0.0692542 2.82086e-19)
(-9.90314 -49.3025 2.36199e-17)
(0.0243988 -0.0876934 -2.73844e-19)
(0.0040016 -0.0715264 0)
(0.0608343 -0.0507223 1.36163e-19)
(0.0554951 -0.0404734 1.03635e-18)
(0.0593591 -0.0434715 0)
(0.0556124 -0.0693072 -5.94835e-19)
(0.059346 -0.0592807 -1.11786e-18)
(0.0382902 -0.100977 3.0574e-19)
(0.04816 -0.0837816 -3.00973e-19)
(0.0131521 -0.137753 -6.02571e-19)
(0.0270021 -0.118456 5.73588e-19)
(-0.0162413 -0.18822 0)
(-0.00314871 -0.162761 -2.95546e-19)
(-0.0435849 -0.244937 0)
(-0.0319674 -0.215883 -2.84855e-19)
(-0.0659597 -0.31045 -5.52782e-19)
(-0.0554927 -0.276557 0)
(-0.709183 -1.34332 0)
(-0.0788779 -0.349708 1.073e-18)
(0.0432047 -0.258583 -5.71693e-19)
(0.0548833 -0.298254 1.24052e-18)
(0.0261988 -0.206958 -5.67617e-19)
(0.0347931 -0.233395 1.14543e-18)
(0.00887243 -0.16744 -2.84686e-19)
(0.0164752 -0.186459 0)
(-0.0153071 -0.121551 6.81471e-20)
(-0.0011666 -0.1444 0)
(-0.0439268 -0.0807924 -1.08594e-18)
(-0.0295596 -0.100018 6.11405e-19)
(-0.0544413 -0.0652658 5.46802e-19)
(-0.0479888 -0.0420214 4.20517e-19)
(-0.0586647 -0.0411649 1.3587e-18)
(-0.0542761 -0.0399366 1.3756e-19)
(-0.0398886 -0.0449831 -5.65115e-19)
(-0.05287 -0.0150329 2.37614e-18)
(0.0237112 -0.0379218 -3.33795e-18)
(0.0178436 -0.0344669 -6.75435e-18)
(0.537959 -0.748078 -8.92024e-19)
(-0.497414 -0.894388 -2.3728e-18)
(-0.520588 -1.04681 1.23814e-18)
(-0.264172 -0.593968 2.39024e-18)
(-0.136396 -0.452519 -3.34582e-18)
(0.250249 -0.584307 0)
(0.0611167 -0.0374735 1.94238e-18)
(0.126217 -0.458678 -2.19472e-18)
(0.0841278 -0.396374 2.20785e-18)
(-0.00135876 -0.0575718 5.59762e-19)
(-0.0141469 -0.047226 -7.08535e-19)
(-0.375349 -0.798142 1.18093e-18)
(0.36776 -0.771067 2.45355e-18)
(0.0461183 -0.0365527 0)
(0.0476347 -0.0361812 -5.15499e-19)
(0.0747769 -7.79678 3.15933e-21)
(0.0622905 -8.74398 -4.19141e-21)
(-0.0930547 -8.74245 -3.407e-20)
(-0.10189 -7.79488 3.39438e-20)
(-0.0528343 -0.038177 -5.40398e-19)
(-0.0621919 -0.0438472 -5.37816e-19)
(-0.0557845 -0.0402796 0)
(-0.079107 -0.397332 5.39282e-18)
(-0.638736 -1.02606 0)
(-0.059435 -0.0190051 -2.54021e-18)
(0.029998 -0.036974 1.09105e-18)
(0.960448 -9.90815 -1.0134e-17)
(4.91906 -31.6447 6.96185e-18)
(-5.60852 -29.2942 -2.6791e-18)
(-0.194068 -0.520141 0)
(0.18757 -0.510295 0)
(15.3454 -18.8805 1.15348e-17)
(0.0414427 -0.0359592 -1.11584e-18)
(-1.19451 -2.34889 4.45928e-18)
(0.0108289 -0.054293 -1.03351e-18)
(0.0180027 -0.0443073 1.0527e-18)
(-0.0209479 -0.0813018 0)
(-0.00242845 -0.0663387 1.04192e-18)
(-0.0730467 -0.124111 2.60794e-19)
(-0.0451314 -0.100913 -5.25848e-19)
(-0.138144 -0.183819 5.12077e-19)
(-0.103811 -0.151618 -1.667e-22)
(-0.224053 -0.276254 0)
(-0.178024 -0.223602 -2.54302e-19)
(-0.343615 -0.425865 0)
(-0.279889 -0.342618 -6.37634e-20)
(-0.484525 -0.67417 -1.01395e-18)
(-0.420114 -0.528662 0)
(-0.566175 -0.824573 -5.40069e-19)
(0.376016 -0.476288 4.95914e-19)
(0.450677 -0.604046 7.33305e-19)
(0.234135 -0.290714 -6.13275e-19)
(0.298814 -0.369788 -4.87684e-19)
(0.150362 -0.191448 1.27259e-19)
(0.184504 -0.233747 3.10435e-19)
(0.0931645 -0.131657 -6.57838e-20)
(0.12023 -0.15848 0)
(0.0403296 -0.0889852 -5.26264e-19)
(0.0661631 -0.109224 6.72695e-19)
(0.0172096 -0.0714691 0)
(0.0520396 -9.69183 1.04948e-21)
(0.0411705 -10.7322 -1.0486e-21)
(0.0328031 -11.8098 -1.62924e-20)
(0.0248565 -12.9765 5.02887e-20)
(0.0242547 -14.1924 -2.49205e-20)
(0.0330184 -15.4884 -4.11746e-21)
(0.0390929 -16.8356 -7.05898e-20)
(0.0325808 -18.2456 -1.28256e-19)
(0.0306874 -19.6713 -4.08385e-21)
(0.0371514 -21.2089 -6.55429e-20)
(-0.0910471 -21.1717 0)
(0.0767334 -22.8438 1.28675e-19)
(0.111859 -24.7337 4.43565e-19)
(-0.302257 -24.7045 7.53544e-19)
(-0.115289 -22.7351 -2.59066e-19)
(-0.025744 -18.2421 1.36797e-19)
(-0.0329771 -19.6442 2.59398e-19)
(-0.0354342 -15.5025 2.50631e-20)
(-0.0308457 -16.8445 0)
(-0.0558723 -12.9767 1.66627e-20)
(-0.0409704 -14.1971 3.28382e-24)
(-0.077416 -10.7321 1.7883e-20)
(-0.068682 -11.8104 -3.77083e-20)
(-0.0862121 -9.69071 -1.04951e-21)
(0.066884 -0.0487954 0)
(0.0623245 -0.0433512 0)
(0.0668753 -0.0626496 5.80253e-19)
(0.0682228 -0.0547941 0)
(0.0557332 -0.0878825 -2.97613e-19)
(0.0625729 -0.0739253 -2.94278e-19)
(0.0349666 -0.122344 2.99781e-19)
(0.0456997 -0.103707 -2.62454e-19)
(0.00863427 -0.169009 -5.75996e-19)
(0.019732 -0.145058 -2.91741e-19)
(-0.0161457 -0.220911 0)
(-0.00583921 -0.194942 5.65185e-19)
(-0.0366205 -0.27749 -5.4199e-19)
(-0.0271693 -0.249034 2.75057e-19)
(1.45586 -7.98357 1.05033e-17)
(-0.0437968 -0.308581 7.33082e-19)
(-0.0432099 -0.366065 1.18724e-19)
(0.0466033 -0.356167 0)
(0.0969471 -0.449669 -8.56397e-18)
(0.0524912 -0.423525 -8.584e-18)
(0.0616575 -0.392975 -1.92073e-18)
(0.0281587 -0.283916 5.88506e-19)
(0.0388953 -0.315413 0)
(0.0204393 -0.237337 -5.72995e-19)
(0.0269776 -0.263021 -2.9474e-19)
(0.00470626 -0.190812 -2.8215e-19)
(0.013081 -0.214274 5.65162e-19)
(-0.0132954 -0.14982 8.32848e-19)
(-0.00380749 -0.169634 0)
(-0.0358438 -0.108742 4.7597e-19)
(-0.0230985 -0.129157 -2.75043e-19)
(-0.0587578 -0.0745187 -5.41052e-19)
(-0.0479111 -0.0902452 -5.94221e-19)
(-0.0684063 -0.0537219 1.36006e-19)
(-0.0658494 -0.0622992 2.71512e-19)
(-0.066821 -0.0478773 1.35717e-19)
(-0.046206 -0.0362664 -5.59546e-19)
(-0.0500192 -0.0360031 -5.48672e-19)
(-0.0343105 -0.0396588 -1.78526e-18)
(-0.0407193 -0.0377279 6.35447e-19)
(-0.02128 -0.0398248 5.74358e-19)
(-0.0277712 -0.0403022 0)
(0.993337 -5.73183 0)
(-1.98532 -11.1433 -4.99524e-18)
(-0.279357 -0.694064 -1.16575e-18)
(-0.148321 -0.515861 4.36107e-18)
(0.142135 -0.517578 -4.40811e-18)
(0.275365 -0.678505 -2.32383e-18)
(0.0503546 -0.0398663 -4.87874e-19)
(-0.77618 -1.07875 4.36124e-18)
(0.0868625 -6.94378 4.19631e-21)
(-0.111096 -6.94184 0)
(0.0611541 -0.0463881 -2.25063e-18)
(-11.1967 -81.7575 0)
(0.136611 -21.1597 2.59724e-19)
(0.242965 -22.718 2.57484e-19)
(-0.399196 -0.925603 -4.79053e-18)
(-1.2886 -30.281 2.85782e-18)
(0.0978048 -0.511992 8.77599e-18)
(0.392679 -0.90461 2.51744e-18)
(0.0240474 -0.03227 1.15333e-18)
(0.0175086 -0.0329356 3.82305e-18)
(0.2818 -6.96755 -1.67316e-20)
(0.10034 -6.04088 -5.25725e-21)
(0.318619 -6.0636 3.3657e-20)
(-0.0459398 -0.035835 -3.37641e-20)
(-0.0493565 -0.0365733 2.16394e-19)
(-0.0664955 -0.0457284 -4.92202e-24)
(-0.0602024 -0.0406909 0)
(-0.210479 -26.3185 7.26191e-19)
(0.518202 -26.9267 -4.90533e-19)
(-0.0403479 -0.434613 1.52584e-18)
(-0.0824157 -0.511708 1.67391e-18)
(-0.539975 -1.21168 0)
(0.521376 -1.01978 2.75423e-18)
(0.0489145 -0.457182 1.25168e-18)
(0.0918052 -0.513675 -7.19472e-18)
(-7.07399 -32.8744 5.24532e-18)
(-0.885348 -1.62405 4.82061e-18)
(-1.03552 -2.03215 4.3108e-18)
(-0.0202736 -0.0107736 -4.85253e-18)
(-0.0150408 -0.0392574 -4.27556e-19)
(-0.0234942 -0.0343983 -5.76325e-19)
(-0.018891 -0.0337391 5.77154e-19)
(-0.204544 -0.600816 -1.19449e-21)
(0.201416 -0.591747 2.24579e-18)
(0.0428059 -0.0372428 1.07757e-18)
(0.0397316 -0.0333173 -5.3556e-19)
(0.0415083 -0.0339786 1.06514e-18)
(0.0330408 -0.0323171 1.09663e-18)
(0.0367452 -0.0322817 -5.10367e-19)
(0.0288773 -0.0322652 -1.11727e-18)
(-0.000303873 -0.0554203 -5.12042e-19)
(0.0108565 -0.0463681 4.82023e-19)
(-0.0383091 -0.0816562 0)
(-0.0168022 -0.0666814 5.18709e-19)
(-0.0969229 -0.123699 -2.59656e-19)
(-0.065384 -0.0999488 0)
(-0.172781 -0.186946 2.57619e-19)
(-0.132273 -0.151702 3.87427e-19)
(-0.27886 -0.286023 -1.27124e-19)
(-0.220259 -0.229671 -7.63791e-19)
(-0.435002 -0.459589 -1.03846e-18)
(-0.350198 -0.36102 8.90008e-19)
(-0.624361 -0.734985 1.00917e-18)
(-0.528101 -0.584718 -1.01169e-18)
(-0.725724 -0.907891 7.73929e-19)
(0.540658 -1.16512 -2.70033e-18)
(0.938642 -1.86013 -1.02667e-17)
(0.699397 -0.867325 -9.40291e-19)
(0.796045 -1.05932 6.73809e-19)
(0.492032 -0.525629 -9.82869e-19)
(0.604563 -0.675277 1.21145e-18)
(0.299 -0.313505 0)
(0.3864 -0.403516 4.83164e-19)
(0.184623 -0.19587 1.27091e-19)
(0.231957 -0.244251 -6.2435e-20)
(0.115503 -0.132475 2.58108e-19)
(0.146961 -0.160164 0)
(0.0572159 -0.0889522 -1.68456e-20)
(0.085351 -0.108849 -2.62499e-19)
(0.0099553 -0.0583313 5.58063e-19)
(0.0312211 -0.0719484 -6.80848e-19)
(-0.00575696 -0.0474084 4.223e-19)
(0.207684 -8.76575 0)
(0.245584 -7.82046 -1.78249e-20)
(0.142435 -10.7473 0)
(0.174836 -9.71004 0)
(0.0918287 -12.9838 5.24939e-22)
(0.115453 -11.8217 -5.23856e-22)
(0.0562392 -15.4948 -1.67598e-20)
(0.0720412 -14.1992 3.66038e-21)
(0.0710109 -18.2327 0)
(0.058568 -16.8362 1.49718e-19)
(0.09723 -19.6562 -2.63713e-19)
(-0.303259 -6.96343 -3.36764e-20)
(-0.337906 -6.06028 -3.35762e-20)
(-0.121528 -6.03947 9.44394e-21)
(0.630247 -29.5868 2.6074e-18)
(-2.39442 -29.1465 1.62106e-18)
(-4.8821 -15.1909 4.32654e-18)
(-0.364695 -24.6571 -1.15872e-18)
(-0.922173 -25.9083 -1.02266e-18)
(-0.129167 -21.1338 -2.62194e-19)
(-0.250446 -22.615 0)
(-0.0413041 -18.2243 -1.32667e-19)
(-0.0695811 -19.5978 -1.32087e-19)
(-0.0714016 -15.5055 -4.984e-20)
(-0.0436048 -16.836 -1.65852e-20)
(-0.122066 -12.9887 -2.50726e-20)
(-0.103315 -14.2066 5.02515e-20)
(-0.173645 -10.7432 -2.09737e-21)
(-0.145608 -11.8202 2.10014e-20)
(-0.235013 -8.76077 1.73665e-20)
(-0.20465 -9.7051 -1.57054e-20)
(-0.270366 -7.81582 3.32967e-20)
(0.0720106 -0.0484408 -2.83243e-19)
(0.067168 -0.0467373 5.60991e-19)
(0.0759142 -0.0582444 -1.44537e-19)
(0.0753158 -0.0524634 -2.84504e-19)
(0.0697475 -0.0771841 1.46349e-19)
(0.0742457 -0.0664736 -7.28696e-20)
(0.0532182 -0.10629 -2.88166e-19)
(0.0625439 -0.0901302 2.64195e-19)
(0.0312295 -0.146132 -2.86036e-19)
(0.0418666 -0.125209 0)
(0.00827277 -0.193737 0)
(0.0192603 -0.169535 0)
(-0.0103808 -0.243165 -3.37258e-19)
(-0.00145913 -0.218835 6.83695e-20)
(-0.0240415 -0.294993 -5.19094e-19)
(-0.015922 -0.270033 -1.47589e-22)
(-0.0381302 -0.347688 -1.60185e-18)
(-0.0250092 -0.328309 9.02851e-19)
(-0.0508425 -0.45906 -5.83485e-19)
(-0.027089 -0.390295 5.57363e-19)
(-0.0258414 -0.364033 0)
(0.0552869 -0.474852 4.1325e-18)
(0.013973 -0.395071 -7.57712e-19)
(0.0269147 -0.519341 2.64337e-18)
(0.00500797 -0.437993 3.07102e-19)
(0.042742 -0.416018 1.11025e-18)
(0.0446434 -0.35776 3.8051e-18)
(0.0175691 -0.386832 1.15e-18)
(0.0211856 -0.309821 -1.56176e-18)
(0.0153212 -0.32842 1.18038e-19)
(0.00532306 -0.257917 1.40228e-18)
(0.0117912 -0.281686 1.09647e-18)
(-0.00297335 -0.215447 -2.80853e-19)
(0.00125335 -0.237782 -8.50005e-19)
(-0.015426 -0.173817 2.78508e-19)
(-0.00871193 -0.194814 5.60374e-19)
(-0.0330368 -0.135556 -4.12066e-19)
(-0.0235934 -0.154181 6.92404e-19)
(-0.0535103 -0.0997089 0)
(-0.0427687 -0.117024 -4.10068e-19)
(-0.0706769 -0.0721388 0)
(-0.0630838 -0.0845667 -1.69529e-20)
(-0.0748022 -0.0556963 -3.38368e-19)
(-0.0747402 -0.0626157 2.70447e-19)
(-0.0714997 -0.0504083 1.34937e-19)
(-0.0413248 -0.0328522 -1.74182e-20)
(-0.0436921 -0.0336386 7.68065e-20)
(-0.0332859 -0.0341019 4.99397e-19)
(-0.037856 -0.032892 -4.83083e-19)
(-0.0283821 -0.0345888 0)
(-8.14229 -32.3976 -1.0468e-17)
(-2.08574 -4.61577 -1.11294e-17)
(0.495859 -24.4749 7.37721e-22)
(-0.298634 -0.802762 2.34666e-18)
(-0.147822 -0.593765 4.50217e-18)
(0.156115 -0.591124 0)
(0.298681 -0.786825 -7.14767e-18)
(0.0139805 -0.0332016 -3.43717e-19)
(-13.623 -32.7306 -2.48037e-17)
(-0.957858 -1.86092 -2.36623e-18)
(0.0325199 -0.510522 -4.48108e-18)
(0.496476 -7.01279 3.36574e-20)
(0.55361 -6.10798 1.05035e-21)
(0.0354759 -0.0332549 -1.37843e-18)
(-1.9535 -8.72466 5.75537e-18)
(0.0556998 -0.0351771 9.21182e-18)
(0.0447464 -0.0339848 -5.55121e-23)
(0.0392789 -0.0321848 0)
(-0.0547273 -0.0359905 7.70691e-19)
(-0.00843907 -0.0391327 -7.06611e-19)
(-0.0141823 -0.0334467 6.03171e-23)
(0.455893 -28.7715 -3.70275e-18)
(1.3794 -2.3694 4.35654e-18)
(1.38657 -2.91136 4.33431e-18)
(-4.37997 -32.4484 5.7008e-18)
(-0.0509301 -0.0163814 0)
(0.261168 -21.0265 -5.26846e-19)
(0.477949 -22.4988 -3.60636e-21)
(-1.46729 -2.94138 4.68365e-18)
(-1.9373 -2.96109 2.00761e-18)
(-1.44938 -3.45257 4.45223e-18)
(-0.133405 -0.585205 -5.00836e-18)
(-0.415732 -1.06317 0)
(0.419125 -1.04148 0)
(0.117061 -0.575943 0)
(0.983551 -2.11872 1.32116e-17)
(-0.514431 -7.00629 1.0505e-21)
(-0.570283 -6.10215 2.101e-21)
(2.47628 -7.65466 5.33949e-18)
(-15.4179 -28.0488 -1.95714e-18)
(-11.531 -26.353 8.37597e-20)
(-1.15947 -2.6305 -4.46304e-18)
(-0.564458 -1.43773 0)
(-0.0773667 -0.539513 -5.99872e-19)
(-0.022498 -0.413332 0)
(-0.0436975 -0.492742 0)
(0.0132489 -0.449441 1.14346e-18)
(0.0195684 -0.529689 1.21526e-21)
(0.0830724 -0.565739 4.51782e-18)
(0.560824 -1.38364 0)
(0.504841 -2.67328 -1.01519e-17)
(1.00767 -26.0996 -1.52033e-18)
(0.0251171 -0.00342966 1.81654e-17)
(-0.716257 -2.07092 9.57328e-18)
(-2.02601 -5.73655 6.41548e-18)
(-0.220197 -0.689746 -2.29184e-18)
(0.221204 -0.684799 0)
(0.0322148 -0.0311448 2.56434e-23)
(0.0338683 -0.0323847 -8.12622e-19)
(0.0277534 -0.0293515 -5.47922e-19)
(0.0301414 -0.0302378 4.2219e-21)
(0.0214471 -0.0293147 0)
(0.0249842 -0.0295418 5.62581e-19)
(0.0166523 -0.0283227 0)
(0.0180167 -0.0297972 -1.21938e-18)
(0.0121704 -0.0287117 0)
(0.00462471 -0.0393088 6.50951e-23)
(0.011974 -0.033824 -3.23638e-19)
(-0.0125102 -0.0527486 0)
(0.00451834 -0.0406582 -2.39758e-18)
(-0.0556808 -0.0816397 1.39215e-19)
(-0.0306924 -0.0661561 -1.38437e-19)
(-0.121109 -0.122433 -2.59936e-19)
(-0.0859222 -0.100142 1.30118e-19)
(-0.209385 -0.185619 0)
(-0.161558 -0.150586 1.84419e-23)
(-0.340063 -0.29248 7.65969e-19)
(-0.266912 -0.230764 1.28189e-19)
(-0.540657 -0.484435 -1.60689e-20)
(-0.430627 -0.376074 -3.83534e-19)
(-0.796136 -0.815026 -9.97362e-19)
(-0.66153 -0.627565 0)
(-1.02079 -1.31634 1.38514e-18)
(-0.921123 -1.05244 7.34752e-19)
(-1.05275 -1.49026 -3.73351e-18)
(1.083 -1.59127 1.74932e-18)
(1.18118 -1.83017 -3.6014e-18)
(0.899701 -0.991398 0)
(1.03021 -1.26803 -1.60116e-18)
(0.619209 -0.570553 4.74811e-19)
(0.763618 -0.759892 0)
(0.370754 -0.321477 -2.45257e-19)
(0.484103 -0.426288 0)
(0.22118 -0.194879 0)
(0.283384 -0.24685 0)
(0.137279 -0.12949 5.1374e-19)
(0.174002 -0.157056 -5.08879e-19)
(0.0740235 -0.0886732 2.66951e-19)
(0.104028 -0.107275 1.29434e-19)
(0.0217923 -0.0578536 -2.75872e-19)
(0.0456971 -0.0722331 -6.7592e-19)
(0.00330938 -0.0470241 5.57183e-19)
(0.381817 -8.80952 -1.47294e-20)
(0.441003 -7.86578 -3.1438e-20)
(0.272711 -10.79 1.68193e-20)
(0.328502 -9.7529 2.09375e-20)
(0.167738 -13.0189 0)
(0.219961 -11.862 -1.67083e-20)
(0.107593 -15.506 -3.35566e-20)
(0.13054 -14.2237 -2.09106e-21)
(0.114429 -18.2061 -1.3351e-19)
(0.102256 -16.8327 -6.68235e-20)
(0.163643 -19.5953 3.96762e-19)
(0.113911 -5.25394 0)
(-0.368091 -5.27132 3.15296e-20)
(-0.132441 -5.25262 -2.30855e-20)
(0.0611613 -0.599246 -2.45135e-18)
(0.60202 -5.31377 -2.09882e-21)
(0.35116 -5.27395 2.09881e-21)
(-4.89128 -26.5415 0)
(-8.35614 -25.4293 3.13992e-18)
(-2.08694 -26.9726 -1.12562e-18)
(-2.8396 -26.7308 2.6844e-18)
(-0.768599 -24.1437 -9.26979e-19)
(-1.67184 -25.8655 1.30969e-18)
(-0.27589 -21.0073 1.32068e-19)
(-0.513256 -22.4841 1.31733e-19)
(-0.126374 -18.2268 -1.32945e-19)
(-0.173559 -19.5828 -7.15284e-22)
(-0.131726 -15.5373 -6.69707e-20)
(-0.123129 -16.8636 2.66801e-19)
(-0.201403 -13.0286 -8.29409e-21)
(-0.157448 -14.2454 -8.33421e-21)
(-0.297639 -10.7835 -1.46557e-20)
(-0.251355 -11.8614 1.68196e-20)
(-0.402721 -8.80148 1.67646e-20)
(-0.351333 -9.74454 7.36823e-21)
(-0.460248 -7.85845 -1.68374e-20)
(0.0515238 -0.0402021 4.20556e-18)
(0.0432018 -0.0294837 2.41646e-18)
(0.0487431 -0.0339819 -7.36723e-18)
(0.0636661 -0.0417217 -3.22242e-19)
(0.0578863 -0.0419539 -1.04078e-18)
(0.076006 -0.0481854 -1.26761e-19)
(0.0704891 -0.0450821 4.42614e-19)
(0.0820822 -0.0555626 7.21656e-20)
(0.0800629 -0.0515191 -1.79551e-20)
(0.0801703 -0.0685437 7.63717e-20)
(0.0824395 -0.0610702 -1.5184e-24)
(0.0690072 -0.0906176 -7.1326e-20)
(0.0759125 -0.0781667 -8.93468e-21)
(0.0515668 -0.123667 4.22619e-19)
(0.0611793 -0.105739 1.42197e-19)
(0.0307378 -0.16525 1.37359e-19)
(0.0414403 -0.143944 1.47606e-24)
(0.011985 -0.208631 3.37497e-19)
(0.0214506 -0.187107 -4.0964e-19)
(-0.00288483 -0.252704 6.57856e-20)
(0.00541386 -0.231339 -4.69723e-19)
(-0.00834333 -0.292919 -1.86052e-18)
(-0.00579766 -0.276201 3.95989e-19)
(-0.00890776 -0.326205 -5.43501e-19)
(-0.00728013 -0.306743 1.08143e-18)
(-0.0223113 -0.435132 0)
(-0.00757637 -0.358969 -5.38072e-19)
(-0.00588 -0.343637 5.41457e-19)
(-0.00344306 -0.374073 0)
(-0.00461034 -0.381543 -1.323e-19)
(0.00536587 -0.467892 0)
(0.00379265 -0.385125 2.70989e-19)
(0.000574518 -0.390048 0)
(0.00660655 -0.360969 -3.52892e-20)
(0.00747027 -0.375179 2.78223e-19)
(0.00609424 -0.347343 0)
(0.01566 -0.356072 3.4335e-20)
(0.0112723 -0.312506 7.93609e-19)
(0.00460652 -0.32051 -1.34725e-19)
(-0.00435039 -0.268423 3.05445e-23)
(-0.000696174 -0.295025 5.16369e-19)
(-0.0151307 -0.228113 -2.74173e-19)
(-0.00993862 -0.248501 0)
(-0.0227002 -0.193115 2.78116e-19)
(-0.0188791 -0.211247 -5.56341e-19)
(-0.0343818 -0.15677 1.37615e-19)
(-0.0279621 -0.174987 1.38567e-19)
(-0.0505325 -0.122547 -6.82452e-19)
(-0.0418932 -0.139308 4.11845e-19)
(-0.0679491 -0.0923459 -2.71021e-19)
(-0.0592142 -0.106715 4.08447e-19)
(-0.0802092 -0.0697866 0)
(-0.0752093 -0.0799503 0)
(-0.0805771 -0.0552408 6.07779e-19)
(-0.0820547 -0.0616836 -2.02462e-19)
(-0.0713525 -0.0440202 5.56258e-24)
(-0.076433 -0.0496463 -2.69423e-19)
(-0.0626514 -0.028336 -9.53609e-19)
(-0.0643069 -0.0374133 1.04618e-18)
(-0.0478694 -0.0292241 7.74783e-19)
(-0.0542017 -0.0256098 1.4453e-18)
(-0.0394182 -0.0327681 6.78747e-20)
(-0.0434566 -0.0322283 -3.82716e-19)
(-0.0347022 -0.0306012 -3.47583e-20)
(-0.0367381 -0.0315653 3.75721e-19)
(-0.029213 -0.0302966 -7.10032e-20)
(-0.0323807 -0.0298508 5.6046e-19)
(-0.0219142 -0.0304207 0)
(-0.0256574 -0.030458 7.15215e-20)
(-0.0150833 -0.0295431 5.23605e-19)
(-0.018445 -0.0298291 -5.40808e-19)
(-16.9712 -31.1687 -4.98459e-18)
(1.09908 -29.8402 -4.18539e-18)
(0.149371 -0.221467 -9.78599e-19)
(-2.26629 -3.68687 9.08293e-18)
(0.793695 -24.0289 -5.25377e-19)
(-1.86053 -15.0153 9.61993e-18)
(-1.62396 -4.19238 -5.20483e-18)
(-1.87474 -7.10149 -7.54354e-21)
(-1.35223 -6.43601 6.89493e-18)
(-1.22173 -5.57548 -7.27619e-18)
(-0.165952 -0.669669 2.32596e-18)
(-0.307034 -0.92122 -2.31206e-18)
(-0.00319526 -0.477821 -5.3012e-19)
(-0.0145952 -0.455504 1.30435e-22)
(0.312677 -0.903327 9.74665e-18)
(0.166238 -0.67267 0)
(1.0636 -2.64421 -1.43751e-17)
(-1.64391 -2.20029 -3.75467e-18)
(1.59322 -3.42722 -8.48439e-19)
(0.0329128 -0.00493486 -4.42896e-18)
(0.383331 -5.84207 -1.58444e-17)
(1.71131 -2.7747 2.555e-19)
(1.45058 -1.70624 1.83586e-18)
(-0.617716 -5.30924 -3.35598e-20)
(-18.3047 -24.3763 2.6684e-18)
(-15.9949 -21.5538 -6.44163e-21)
(0.0380702 -0.0250386 5.95467e-19)
(0.0417944 -0.0209628 -1.21723e-22)
(0.046727 -0.0253778 3.0493e-18)
(2.61308 -32.1301 1.2506e-17)
(-1.0451 -3.11113 -9.79958e-18)
(-0.427109 -1.22552 0)
(-0.11736 -0.642178 2.38223e-18)
(-0.0399245 -0.521208 -6.8614e-20)
(0.00649938 -0.563988 0)
(0.116732 -0.657926 2.24822e-21)
(0.430418 -1.19771 -7.84998e-18)
(0.761731 -2.03632 -5.16957e-18)
(0.0126458 -0.0263711 -4.50741e-19)
(0.0105513 -0.0267651 1.50395e-19)
(1.82402 -27.6487 4.79661e-19)
(-2.12237 -6.72226 2.64522e-18)
(21.4152 -82.5259 -6.30174e-18)
(-20.2992 -23.4439 1.54935e-17)
(0.0713297 -0.626172 0)
(-0.755939 -5.69157 5.98623e-18)
(-1.78483 -33.4211 -1.27389e-17)
(18.3923 -24.8919 -3.88166e-18)
(-0.812665 -2.44372 -9.90395e-18)
(-1.8422 -31.8818 -1.70474e-19)
(-0.569776 -1.63595 -1.50439e-17)
(-0.0719516 -0.585698 5.69281e-19)
(0.0388259 -0.639442 -2.21081e-18)
(0.582358 -1.57904 -3.03337e-18)
(-0.0126944 -0.0267016 7.2418e-20)
(-0.0114512 -0.0289902 -2.70528e-19)
(-0.0100222 -0.0262497 2.17147e-19)
(0.645578 -4.39643 0)
(0.845625 -5.36132 3.36358e-20)
(0.905232 -4.43268 0)
(1.51416 -25.5165 2.0687e-18)
(-0.0438344 -0.0238392 2.66351e-19)
(-0.589654 -1.73509 -1.4584e-20)
(0.241699 -2.67761 -4.65229e-18)
(-1.37465 -5.00645 -3.40312e-18)
(0.0667024 -0.170399 -1.08917e-18)
(0.107275 -0.21651 7.04813e-19)
(-0.228972 -0.786317 2.29046e-18)
(-0.0130273 -0.465662 6.61659e-19)
(0.231147 -0.781886 -4.67214e-18)
(0.990578 -2.95467 1.13981e-20)
(0.0294924 -0.029836 1.11946e-18)
(0.0333043 -0.0285091 -5.7545e-19)
(0.0246743 -0.0292354 4.75924e-19)
(0.0267855 -0.0299399 0)
(0.0209006 -0.0273649 -8.96658e-24)
(0.0227618 -0.028521 -2.0405e-19)
(0.0164943 -0.0267669 0)
(0.0189192 -0.0273213 -2.79242e-19)
(0.0141586 -0.0266723 -2.95171e-19)
(0.00882667 -0.0291325 3.01652e-19)
(-0.000590373 -0.0377207 2.25412e-18)
(0.00694367 -0.0328017 0)
(-0.0226286 -0.0532101 -3.26021e-23)
(-0.00839198 -0.0464266 -2.64477e-19)
(-0.0714766 -0.0781415 -8.23563e-21)
(-0.0439591 -0.0645302 1.35796e-19)
(-0.144752 -0.117359 6.52276e-20)
(-0.105066 -0.0952518 1.35098e-19)
(-0.247686 -0.180936 6.45817e-20)
(-0.191345 -0.144776 -4.52644e-19)
(-0.407059 -0.291281 -7.67528e-19)
(-0.317539 -0.228403 3.87483e-19)
(-0.655977 -0.497103 2.09743e-18)
(-0.519406 -0.378489 -1.02623e-18)
(-0.980619 -0.856381 0)
(-0.808268 -0.65524 -1.0114e-18)
(-1.34413 -1.43183 1.43848e-18)
(-1.15182 -1.10796 0)
(-1.43966 -1.87646 3.57036e-18)
(-0.23221 -5.84681 -5.58195e-18)
(1.55462 -2.23999 4.24878e-21)
(1.08863 -1.00576 0)
(1.26017 -1.31487 0)
(0.737817 -0.581176 -9.61701e-19)
(0.909233 -0.767488 0)
(0.444348 -0.324809 -7.57995e-23)
(0.580766 -0.434815 1.21848e-18)
(0.25974 -0.188629 0)
(0.338254 -0.244633 3.12008e-20)
(0.158301 -0.122865 0)
(0.201824 -0.150329 1.27351e-19)
(0.0888376 -0.0842214 -1.31606e-19)
(0.121424 -0.10165 1.29165e-19)
(0.0328499 -0.0573967 0)
(0.0586911 -0.06974 5.37159e-19)
(-0.00149913 -0.0390339 3.50301e-19)
(0.0124638 -0.0471238 -1.38375e-19)
(-0.0091541 -0.0331222 -3.038e-19)
(0.707545 -7.07166 0)
(0.783256 -6.16204 -3.45931e-20)
(0.551783 -8.86997 -3.57483e-20)
(0.632522 -7.92676 1.0498e-21)
(0.394542 -10.8483 -2.09225e-20)
(0.475681 -9.81222 4.19021e-20)
(0.244221 -13.0683 2.32427e-21)
(0.318556 -11.9177 3.36178e-20)
(0.136808 -15.5222 5.88159e-20)
(0.181989 -14.2612 -3.54445e-20)
(0.145516 -18.1605 -2.66781e-19)
(0.122869 -16.8222 1.34499e-19)
(0.349784 -20.8415 5.34771e-19)
(0.210183 -19.501 -1.33823e-19)
(1.12126 -23.4105 5.24863e-19)
(0.613308 -22.1353 -1.5908e-18)
(-0.395594 -4.36419 2.09718e-21)
(-0.858361 -5.35534 0)
(-0.917306 -4.42803 4.19576e-21)
(-0.66078 -4.3928 -6.22207e-21)
(0.124976 -4.35007 2.09665e-21)
(-0.141841 -4.34929 1.67869e-20)
(0.381156 -4.36649 -2.09661e-21)
(-7.60376 -24.4924 0)
(-10.818 -23.1487 -2.65237e-18)
(-3.24322 -25.111 -1.13579e-18)
(-4.71154 -25.1672 0)
(-1.21608 -23.4257 -6.65546e-19)
(-2.08211 -24.576 -2.71736e-19)
(-0.415834 -20.7341 4.00886e-19)
(-0.714006 -22.0086 1.55372e-19)
(-0.195837 -18.1708 6.74276e-20)
(-0.264209 -19.4407 -1.32582e-19)
(-0.188759 -15.5612 -8.37849e-20)
(-0.1778 -16.8602 6.64679e-20)
(-0.277984 -13.0695 0)
(-0.228672 -14.2787 5.02811e-20)
(-0.416542 -10.8382 8.36185e-21)
(-0.344362 -11.9111 -1.67715e-20)
(-0.568143 -8.86061 -2.09963e-21)
(-0.493952 -9.80176 -8.41464e-21)
(-0.722465 -7.06379 -3.40748e-20)
(-0.648265 -7.91808 1.05022e-21)
(-0.797181 -6.15504 3.15447e-20)
(0.0564272 -0.0339593 0)
(0.0513525 -0.029923 1.86798e-18)
(0.0685534 -0.0414141 -6.24118e-19)
(0.0633074 -0.0369771 -3.22325e-19)
(0.0788327 -0.0474166 0)
(0.0734758 -0.0445599 5.9799e-19)
(0.0862667 -0.0534936 2.90186e-19)
(0.0833795 -0.0502908 -1.47081e-23)
(0.0874206 -0.0628947 6.71609e-20)
(0.087904 -0.0575654 1.42791e-19)
(0.0810976 -0.0784018 1.41904e-19)
(0.0853217 -0.0696136 -1.4215e-19)
(0.068174 -0.103366 -1.39734e-19)
(0.0756158 -0.0895801 0)
(0.0508111 -0.13716 -2.31292e-23)
(0.0601332 -0.119491 -2.76588e-19)
(0.0326464 -0.174566 1.51909e-19)
(0.0420161 -0.155671 4.08957e-19)
(0.0169453 -0.2128 6.64049e-20)
(0.0247085 -0.194188 -2.85241e-19)
(0.00907186 -0.245493 2.65611e-19)
(0.0122037 -0.231464 -1.33078e-19)
(0.00457083 -0.269999 0)
(0.0068514 -0.256613 -1.33879e-19)
(0.0034337 -0.292782 -5.34063e-19)
(0.00523277 -0.282167 0)
(0.00220649 -0.307661 -1.33472e-19)
(0.00387724 -0.302505 5.99869e-19)
(0.00292844 -0.310508 -5.39525e-19)
(0.00309972 -0.312543 2.68409e-19)
(0.000480057 -0.294838 -6.86762e-19)
(0.00327004 -0.304468 2.73425e-19)
(-0.00266551 -0.283664 -2.0267e-19)
(-0.00134417 -0.290539 3.06972e-19)
(-0.0105275 -0.259047 -1.06423e-22)
(-0.00649221 -0.266683 -1.34488e-19)
(-0.0193032 -0.228817 6.82182e-23)
(-0.0143774 -0.246079 -1.06083e-18)
(-0.030479 -0.198222 -1.08749e-18)
(-0.0250906 -0.213599 1.08009e-18)
(-0.0393221 -0.169186 -6.88387e-20)
(-0.0349059 -0.183922 5.45539e-19)
(-0.0507825 -0.138627 1.36646e-19)
(-0.0445521 -0.154115 -1.37449e-19)
(-0.065482 -0.108872 -2.7187e-19)
(-0.0577773 -0.123453 -2.73052e-19)