/*--------------------------------*- C++ -*----------------------------------*\
| =========                 |                                                 |
| \\      /  F ield         | OpenFOAM: The Open Source CFD Toolbox           |
|  \\    /   O peration     | Version:  2212                                  |
|   \\  /    A nd           | Website:  www.openfoam.com                      |
|    \\/     M anipulation  |                                                 |
\*---------------------------------------------------------------------------*/
FoamFile
{
    version     2.0;
    format      ascii;
    arch        "LSB;label=32;scalar=64";
    class       volScalarField;
    location    "0.1157";
    object      s;
}
// * * * * * * * * * * * * * * * * * * * * * * * * * * * * * * * * * * * * * //

dimensions      [0 0 0 0 0 0 0];

internalField   nonuniform List<scalar> 
24240
(
1.89162e-114
1.88048e-114
1.92553e-114
1.8352e-114
1.90007e-114
1.88538e-114
1.88703e-114
1.8352e-114
1.84183e-114
1.91005e-114
1.83903e-114
1.92267e-114
1.83377e-114
1.89599e-114
1.82041e-114
1.91385e-114
1.80707e-114
1.85191e-114
1.88237e-114
1.78592e-114
2.02261e-111
2.00963e-111
2.05793e-111
1.96169e-111
2.03065e-111
2.01516e-111
2.01678e-111
1.96106e-111
1.96857e-111
2.04114e-111
1.96598e-111
2.05473e-111
1.9604e-111
2.02665e-111
1.94645e-111
2.0459e-111
1.93196e-111
1.97952e-111
2.01198e-111
1.90925e-111
1.23923e-108
1.23056e-108
1.26035e-108
1.20151e-108
1.24355e-108
1.23422e-108
1.23505e-108
1.20068e-108
1.20545e-108
1.24987e-108
1.20413e-108
1.2582e-108
1.20079e-108
1.24127e-108
1.19248e-108
1.25315e-108
1.18328e-108
1.21233e-108
1.23219e-108
1.16925e-108
4.30618e-106
4.27331e-106
4.37801e-106
4.17366e-106
4.31912e-106
4.28741e-106
4.28949e-106
4.1691e-106
4.18605e-106
4.34096e-106
4.18257e-106
4.36979e-106
4.17139e-106
4.31201e-106
4.14358e-106
4.35357e-106
4.10975e-106
4.211e-106
4.28013e-106
4.06042e-106
1.12142e-103
1.11201e-103
1.13984e-103
1.08645e-103
1.12427e-103
1.11625e-103
1.11643e-103
1.08475e-103
1.08911e-103
1.12998e-103
1.08857e-103
1.13738e-103
1.08587e-103
1.12264e-103
1.07901e-103
1.13355e-103
1.06934e-103
1.0961e-103
1.11423e-103
1.05622e-103
2.02345e-101
2.00457e-101
2.05651e-101
1.95933e-101
2.02774e-101
2.01384e-101
2.01316e-101
1.95518e-101
1.96255e-101
2.03832e-101
1.96249e-101
2.05131e-101
1.95828e-101
2.02536e-101
1.94689e-101
2.04524e-101
1.92686e-101
1.97669e-101
2.00992e-101
1.90239e-101
2.59901e-99
2.57116e-99
2.64224e-99
2.51463e-99
2.60358e-99
2.58681e-99
2.5835e-99
2.50736e-99
2.51506e-99
2.61806e-99
2.51685e-99
2.63375e-99
2.51306e-99
2.60151e-99
2.50062e-99
2.62746e-99
2.46858e-99
2.53703e-99
2.58122e-99
2.43519e-99
2.19971e-97
2.1708e-97
2.23867e-97
2.12514e-97
2.20298e-97
2.19027e-97
2.18331e-97
2.11629e-97
2.11916e-97
2.21705e-97
2.1237e-97
2.2285e-97
2.12338e-97
2.20277e-97
2.11646e-97
2.22553e-97
2.07839e-97
2.14479e-97
2.18504e-97
2.0469e-97
5.34747e-96
5.30786e-96
5.39539e-96
5.17962e-96
5.33908e-96
5.29166e-96
5.31297e-96
5.17338e-96
5.21933e-96
5.3471e-96
5.20989e-96
5.3945e-96
5.18176e-96
5.32658e-96
5.13299e-96
5.38049e-96
5.15282e-96
5.21951e-96
5.28491e-96
5.1076e-96
5.0584e-96
5.08001e-96
5.04382e-96
4.93192e-96
5.03696e-96
4.97106e-96
5.05186e-96
4.95556e-96
5.05874e-96
5.00873e-96
5.01188e-96
5.08495e-96
4.9422e-96
5.00457e-96
4.84495e-96
5.04823e-96
5.03396e-96
4.95538e-96
4.97012e-96
5.03807e-96
7.27417e-96
7.40706e-96
7.40167e-96
7.34133e-96
7.26853e-96
7.34207e-96
7.47693e-96
7.3094e-96
7.51441e-96
7.51459e-96
7.45294e-96
7.53316e-96
7.37456e-96
7.28952e-96
7.22306e-96
7.36577e-96
7.30906e-96
7.28361e-96
7.32667e-96
7.39858e-96
8.77892e-96
8.87278e-96
8.895e-96
8.81991e-96
8.70508e-96
8.5218e-96
8.69341e-96
8.51086e-96
8.79503e-96
9.08678e-96
9.00944e-96
8.70059e-96
8.94846e-96
8.82508e-96
8.80171e-96
8.88533e-96
8.48461e-96
8.88105e-96
8.71886e-96
8.74693e-96
9.90007e-96
1.02192e-95
1.00819e-95
1.0021e-95
1.00366e-95
1.01632e-95
1.0499e-95
1.00291e-95
1.00978e-95
1.00141e-95
1.00498e-95
1.00292e-95
1.00548e-95
9.97185e-96
9.78099e-96
1.0013e-95
1.0095e-95
9.88348e-96
9.83083e-96
9.90374e-96
1.10636e-95
1.11563e-95
1.13328e-95
1.14498e-95
1.13046e-95
1.15156e-95
1.12801e-95
1.1449e-95
1.13997e-95
1.08498e-95
1.10462e-95
1.10093e-95
1.11278e-95
1.08691e-95
1.08994e-95
1.09451e-95
1.09819e-95
1.1143e-95
1.10485e-95
1.12457e-95
1.12638e-95
1.13576e-95
1.15257e-95
1.14955e-95
1.13222e-95
1.13935e-95
1.14639e-95
1.1645e-95
1.12748e-95
1.14552e-95
1.13556e-95
1.13815e-95
1.16057e-95
1.13906e-95
1.12606e-95
1.17818e-95
1.13339e-95
1.12423e-95
1.13946e-95
1.1598e-95
1.16777e-95
1.1462e-95
1.1683e-95
1.14831e-95
1.16574e-95
1.17196e-95
1.1827e-95
1.16775e-95
1.13498e-95
1.14782e-95
1.14378e-95
1.18671e-95
1.16642e-95
1.18905e-95
1.18382e-95
1.18519e-95
1.17335e-95
1.16689e-95
1.15479e-95
1.16208e-95
1.05817e-95
1.07235e-95
1.06032e-95
1.10684e-95
1.07586e-95
1.10515e-95
1.08442e-95
1.08694e-95
1.07531e-95
1.07796e-95
1.07245e-95
1.09725e-95
1.08266e-95
1.11286e-95
1.07032e-95
1.1002e-95
1.0927e-95
1.05104e-95
1.09746e-95
1.09078e-95
9.82064e-96
1.03094e-95
1.01083e-95
1.01101e-95
9.92641e-96
1.04579e-95
1.02966e-95
1.02657e-95
1.02143e-95
9.9739e-96
1.02244e-95
1.04399e-95
1.01048e-95
1.07043e-95
1.02429e-95
1.04492e-95
1.0574e-95
1.02229e-95
1.04647e-95
1.04891e-95
8.6909e-96
8.66227e-96
8.56615e-96
8.73874e-96
8.90726e-96
8.85493e-96
8.70344e-96
8.57488e-96
8.90917e-96
8.58956e-96
8.84688e-96
8.83549e-96
8.68964e-96
8.92307e-96
8.93752e-96
9.06082e-96
8.76665e-96
9.01274e-96
8.88576e-96
9.16878e-96
6.62971e-96
6.69932e-96
6.63636e-96
6.60149e-96
6.78785e-96
6.6966e-96
6.86956e-96
6.69636e-96
6.87485e-96
6.88874e-96
6.76391e-96
6.96383e-96
6.70674e-96
7.00316e-96
6.74718e-96
6.73321e-96
6.86479e-96
6.95884e-96
6.82708e-96
7.06683e-96
1.07252e-112
1.0659e-112
1.09097e-112
1.04036e-112
1.0767e-112
1.06838e-112
1.06952e-112
1.04014e-112
1.04435e-112
1.08212e-112
1.04281e-112
1.08943e-112
1.03967e-112
1.07445e-112
1.03202e-112
1.08465e-112
1.02508e-112
1.04968e-112
1.06667e-112
1.01325e-112
1.2959e-109
1.2872e-109
1.31761e-109
1.25667e-109
1.30031e-109
1.29043e-109
1.29169e-109
1.25599e-109
1.26132e-109
1.30677e-109
1.25973e-109
1.31565e-109
1.25598e-109
1.29784e-109
1.24696e-109
1.31026e-109
1.23838e-109
1.26791e-109
1.28837e-109
1.22402e-109
8.44749e-107
8.3859e-107
8.58551e-107
8.18919e-107
8.47211e-107
8.40891e-107
8.41594e-107
8.1816e-107
8.21743e-107
8.51366e-107
8.20899e-107
8.57147e-107
8.18513e-107
8.45732e-107
8.12802e-107
8.53877e-107
8.0696e-107
8.26169e-107
8.39494e-107
7.97519e-107
3.09264e-104
3.06815e-104
3.14202e-104
2.99706e-104
3.10016e-104
3.07757e-104
3.07955e-104
2.99308e-104
3.00643e-104
3.1153e-104
3.00414e-104
3.13635e-104
2.99574e-104
3.09534e-104
2.97557e-104
3.12535e-104
2.95285e-104
3.0234e-104
3.07223e-104
2.91787e-104
8.21204e-102
8.14084e-102
8.34099e-102
7.95499e-102
8.22815e-102
8.17001e-102
8.17265e-102
7.94065e-102
7.97562e-102
8.26861e-102
7.97228e-102
8.32367e-102
7.95156e-102
8.2171e-102
7.90075e-102
8.29736e-102
7.83413e-102
8.02434e-102
8.15489e-102
7.73935e-102
1.51358e-99
1.49904e-99
1.53719e-99
1.46545e-99
1.5159e-99
1.50562e-99
1.50535e-99
1.462e-99
1.46807e-99
1.52357e-99
1.46814e-99
1.53344e-99
1.46482e-99
1.51429e-99
1.45618e-99
1.52922e-99
1.44199e-99
1.47819e-99
1.50262e-99
1.42392e-99
1.92403e-97
1.90293e-97
1.95453e-97
1.8614e-97
1.92625e-97
1.91399e-97
1.91189e-97
1.85558e-97
1.86201e-97
1.93665e-97
1.86347e-97
1.94848e-97
1.86044e-97
1.92495e-97
1.85102e-97
1.94424e-97
1.82844e-97
1.87766e-97
1.90976e-97
1.80404e-97
1.61485e-95
1.59329e-95
1.64206e-95
1.56001e-95
1.61622e-95
1.607e-95
1.60226e-95
1.55316e-95
1.55591e-95
1.62625e-95
1.55935e-95
1.63488e-95
1.55889e-95
1.61625e-95
1.55357e-95
1.63305e-95
1.52677e-95
1.57415e-95
1.6031e-95
1.50396e-95
3.83341e-94
3.80369e-94
3.86624e-94
3.713e-94
3.82579e-94
3.79293e-94
3.80793e-94
3.70735e-94
3.74091e-94
3.83193e-94
3.73473e-94
3.86561e-94
3.71477e-94
3.8179e-94
3.68016e-94
3.8563e-94
3.69366e-94
3.74107e-94
3.78749e-94
3.66133e-94
3.60128e-94
3.61615e-94
3.59071e-94
3.51211e-94
3.5856e-94
3.54024e-94
3.59739e-94
3.52804e-94
3.60239e-94
3.56616e-94
3.56911e-94
3.61985e-94
3.51955e-94
3.56365e-94
3.45079e-94
3.59352e-94
3.58389e-94
3.52821e-94
3.53853e-94
3.58706e-94
5.18183e-94
5.275e-94
5.27283e-94
5.22819e-94
5.17712e-94
5.22865e-94
5.32447e-94
5.20443e-94
5.35162e-94
5.34936e-94
5.30839e-94
5.36282e-94
5.25202e-94
5.19154e-94
5.14413e-94
5.24501e-94
5.20492e-94
5.18728e-94
5.21869e-94
5.26918e-94
6.21614e-94
6.28219e-94
6.29835e-94
6.24336e-94
6.16388e-94
6.0342e-94
6.15705e-94
6.02741e-94
6.22893e-94
6.43294e-94
6.37877e-94
6.16052e-94
6.33704e-94
6.24829e-94
6.23258e-94
6.29086e-94
6.0076e-94
6.28729e-94
6.17186e-94
6.19266e-94
7.00629e-94
7.2295e-94
7.13469e-94
7.09013e-94
7.10357e-94
7.19171e-94
7.42896e-94
7.09701e-94
7.14541e-94
7.08483e-94
7.11066e-94
7.09694e-94
7.11681e-94
7.05883e-94
6.92412e-94
7.08628e-94
7.14429e-94
6.99518e-94
6.95822e-94
7.00911e-94
7.74562e-94
7.80841e-94
7.92995e-94
8.01434e-94
7.91328e-94
8.05934e-94
7.89511e-94
8.0138e-94
7.97789e-94
7.59436e-94
7.73164e-94
7.70703e-94
7.78985e-94
7.60967e-94
7.6291e-94
7.66276e-94
7.68597e-94
7.80009e-94
7.73365e-94
7.87287e-94
7.88708e-94
7.95034e-94
8.06948e-94
8.04624e-94
7.92584e-94
7.97804e-94
8.0269e-94
8.15229e-94
7.89411e-94
8.02039e-94
7.95255e-94
7.96999e-94
8.12382e-94
7.97581e-94
7.88651e-94
8.24725e-94
7.93644e-94
7.87088e-94
7.97753e-94
8.11608e-94
8.04652e-94
7.89598e-94
8.04637e-94
7.91107e-94
8.03186e-94
8.07566e-94
8.14727e-94
8.0449e-94
7.82033e-94
7.90793e-94
7.87814e-94
8.17404e-94
8.03679e-94
8.19272e-94
8.15575e-94
8.16549e-94
8.08295e-94
8.04091e-94
7.95598e-94
8.00617e-94
7.30796e-94
7.4054e-94
7.32245e-94
7.64368e-94
7.42869e-94
7.63038e-94
7.48654e-94
7.50651e-94
7.42528e-94
7.44321e-94
7.40708e-94
7.57645e-94
7.4742e-94
7.68415e-94
7.38978e-94
7.5957e-94
7.54442e-94
7.25789e-94
7.57707e-94
7.53267e-94
6.65724e-94
6.98819e-94
6.85233e-94
6.85136e-94
6.72806e-94
7.08827e-94
6.97857e-94
6.9586e-94
6.92298e-94
6.76055e-94
6.93002e-94
7.07552e-94
6.84945e-94
7.25376e-94
6.941e-94
7.08037e-94
7.16485e-94
6.92918e-94
7.09258e-94
7.10858e-94
5.92845e-94
5.90828e-94
5.84407e-94
5.96169e-94
6.07545e-94
6.03943e-94
5.9357e-94
5.85137e-94
6.07811e-94
5.85991e-94
6.03473e-94
6.02691e-94
5.92633e-94
6.0868e-94
6.09547e-94
6.1812e-94
5.97942e-94
6.14684e-94
6.06009e-94
6.2528e-94
4.49457e-94
4.5412e-94
4.49898e-94
4.47502e-94
4.60014e-94
4.53916e-94
4.65424e-94
4.5391e-94
4.65767e-94
4.66849e-94
4.58356e-94
4.71857e-94
4.54589e-94
4.74567e-94
4.57217e-94
4.56306e-94
4.65115e-94
4.71523e-94
4.62641e-94
4.78764e-94
7.96991e-111
7.91798e-111
8.10177e-111
7.72953e-111
7.99654e-111
7.93517e-111
7.94452e-111
7.726e-111
7.7601e-111
8.03546e-111
7.74943e-111
8.09071e-111
7.72527e-111
7.98061e-111
7.66832e-111
8.05695e-111
7.61992e-111
7.79784e-111
7.92239e-111
7.5329e-111
9.6749e-108
9.60677e-108
9.83051e-108
9.38047e-108
9.70242e-108
9.62921e-108
9.63977e-108
9.37296e-108
9.41615e-108
9.74897e-108
9.40514e-108
9.81625e-108
9.37618e-108
9.6848e-108
9.3086e-108
9.77806e-108
9.24845e-108
9.46285e-108
9.61348e-108
9.14232e-108
6.26372e-105
6.21605e-105
6.36182e-105
6.07127e-105
6.27844e-105
6.23203e-105
6.23802e-105
6.06411e-105
6.09289e-105
6.30824e-105
6.08717e-105
6.35171e-105
6.06886e-105
6.26813e-105
6.0263e-105
6.32884e-105
5.98561e-105
6.12409e-105
6.22142e-105
5.91637e-105
2.32198e-102
2.30288e-102
2.35746e-102
2.24992e-102
2.32631e-102
2.30954e-102
2.31132e-102
2.24635e-102
2.25718e-102
2.33731e-102
2.25567e-102
2.35333e-102
2.24913e-102
2.32294e-102
2.23389e-102
2.34558e-102
2.21783e-102
2.26932e-102
2.30541e-102
2.19186e-102
6.10185e-100
6.04715e-100
6.19334e-100
5.91016e-100
6.1103e-100
6.06766e-100
6.07044e-100
5.89801e-100
5.92615e-100
6.13946e-100
5.92418e-100
6.18091e-100
5.90818e-100
6.10284e-100
5.87008e-100
6.1627e-100
5.82338e-100
5.96071e-100
6.0561e-100
5.7538e-100
1.11601e-97
1.105e-97
1.1326e-97
1.08043e-97
1.11706e-97
1.1096e-97
1.10957e-97
1.07761e-97
1.0825e-97
1.12256e-97
1.08264e-97
1.12994e-97
1.08007e-97
1.11603e-97
1.07361e-97
1.12707e-97
1.06372e-97
1.08964e-97
1.10732e-97
1.05057e-97
1.396e-95
1.38036e-95
1.41702e-95
1.35047e-95
1.39675e-95
1.388e-95
1.38674e-95
1.34593e-95
1.35113e-95
1.40409e-95
1.35228e-95
1.41282e-95
1.34991e-95
1.39601e-95
1.34293e-95
1.41005e-95
1.32738e-95
1.36203e-95
1.38486e-95
1.30993e-95
1.15933e-93
1.14363e-93
1.17784e-93
1.11991e-93
1.15956e-93
1.15304e-93
1.14992e-93
1.11475e-93
1.1172e-93
1.16657e-93
1.11974e-93
1.17291e-93
1.11925e-93
1.15974e-93
1.11523e-93
1.17185e-93
1.09685e-93
1.12985e-93
1.15019e-93
1.08073e-93
2.68674e-92
2.66499e-92
2.70867e-92
2.60232e-92
2.68026e-92
2.65806e-92
2.66838e-92
2.59752e-92
2.62148e-92
2.68488e-92
2.61757e-92
2.70825e-92
2.60374e-92
2.67552e-92
2.57973e-92
2.70226e-92
2.58869e-92
2.62163e-92
2.65382e-92
2.5661e-92
2.50424e-92
2.51421e-92
2.49678e-92
2.44286e-92
2.49305e-92
2.46262e-92
2.50208e-92
2.45329e-92
2.50563e-92
2.48001e-92
2.48255e-92
2.51692e-92
2.44813e-92
2.47857e-92
2.40065e-92
2.49848e-92
2.49216e-92
2.45363e-92
2.46069e-92
2.49453e-92
3.60692e-92
3.6707e-92
3.67037e-92
3.63813e-92
3.60315e-92
3.63841e-92
3.7049e-92
3.62088e-92
3.72413e-92
3.72087e-92
3.69443e-92
3.73042e-92
3.65483e-92
3.6128e-92
3.57977e-92
3.64941e-92
3.62175e-92
3.6098e-92
3.63218e-92
3.66681e-92
4.30311e-92
4.34852e-92
4.36001e-92
4.32066e-92
4.26694e-92
4.17723e-92
4.26319e-92
4.17323e-92
4.31292e-92
4.45236e-92
4.41524e-92
4.26452e-92
4.38737e-92
4.32497e-92
4.31468e-92
4.35437e-92
4.1586e-92
4.35152e-92
4.27121e-92
4.28624e-92
4.84976e-92
5.00242e-92
4.93845e-92
4.90659e-92
4.91755e-92
4.9775e-92
5.14145e-92
4.91211e-92
4.94547e-92
4.90267e-92
4.92094e-92
4.91201e-92
4.92701e-92
4.88746e-92
4.79443e-92
4.90524e-92
4.94533e-92
4.84257e-92
4.81719e-92
4.85188e-92
5.31404e-92
5.35566e-92
5.43758e-92
5.49724e-92
5.42837e-92
5.52726e-92
5.41519e-92
5.49687e-92
5.47113e-92
5.20921e-92
5.30319e-92
5.28717e-92
5.34385e-92
5.22091e-92
5.23301e-92
5.25721e-92
5.27143e-92
5.35064e-92
5.30479e-92
5.40114e-92
5.41519e-92
5.45721e-92
5.53997e-92
5.52234e-92
5.44031e-92
5.47783e-92
5.51097e-92
5.59637e-92
5.41943e-92
5.50649e-92
5.46122e-92
5.47243e-92
5.57609e-92
5.47605e-92
5.41591e-92
5.66089e-92
5.44927e-92
5.40322e-92
5.47669e-92
5.56919e-92
5.45405e-92
5.35073e-92
5.45138e-92
5.3611e-92
5.44356e-92
5.47386e-92
5.52085e-92
5.45182e-92
5.30051e-92
5.35922e-92
5.33775e-92
5.53837e-92
5.44711e-92
5.5528e-92
5.52713e-92
5.53387e-92
5.47737e-92
5.45046e-92
5.39197e-92
5.42579e-92
4.96918e-92
5.03494e-92
4.97878e-92
5.197e-92
5.05019e-92
5.18676e-92
5.08865e-92
5.10401e-92
5.04804e-92
5.06012e-92
5.03678e-92
5.15069e-92
5.08018e-92
5.22372e-92
5.0234e-92
5.16299e-92
5.12837e-92
4.93454e-92
5.15038e-92
5.12147e-92
4.46566e-92
4.68704e-92
4.5963e-92
4.59447e-92
4.51254e-92
4.75388e-92
4.68001e-92
4.66731e-92
4.64291e-92
4.53457e-92
4.6477e-92
4.74486e-92
4.59428e-92
4.86364e-92
4.65397e-92
4.74721e-92
4.80357e-92
4.64707e-92
4.75648e-92
4.76679e-92
4.00502e-92
3.99133e-92
3.94882e-92
4.02798e-92
4.10388e-92
4.07967e-92
4.00928e-92
3.95471e-92
4.10679e-92
3.95916e-92
4.07696e-92
4.07173e-92
4.00279e-92
4.11239e-92
4.11727e-92
4.17628e-92
4.03946e-92
4.152e-92
4.09339e-92
4.22323e-92
3.02304e-92
3.054e-92
3.02592e-92
3.00962e-92
3.09292e-92
3.05251e-92
3.12835e-92
3.05248e-92
3.13057e-92
3.13875e-92
3.08149e-92
3.17187e-92
3.05688e-92
3.1904e-92
3.07383e-92
3.06796e-92
3.12634e-92
3.1697e-92
3.11031e-92
3.21786e-92
6.25632e-109
6.21337e-109
6.35579e-109
6.06654e-109
6.27376e-109
6.226e-109
6.23397e-109
6.06217e-109
6.09105e-109
6.30327e-109
6.08326e-109
6.34721e-109
6.06373e-109
6.26181e-109
6.01896e-109
6.32208e-109
5.98319e-109
6.11922e-109
6.21569e-109
5.91551e-109
7.49311e-106
7.43783e-106
7.60872e-106
7.26391e-106
7.51024e-106
7.45413e-106
7.46308e-106
7.25616e-106
7.29214e-106
7.54511e-106
7.2843e-106
7.59785e-106
7.26119e-106
7.49732e-106
7.20871e-106
7.56991e-106
7.16488e-106
7.32651e-106
7.44152e-106
7.08349e-106
4.72818e-103
4.69068e-103
4.79905e-103
4.58226e-103
4.73662e-103
4.70202e-103
4.70706e-103
4.57566e-103
4.59899e-103
4.75842e-103
4.5951e-103
4.79162e-103
4.58084e-103
4.72937e-103
4.54857e-103
4.77539e-103
4.51972e-103
4.62138e-103
4.69374e-103
4.46802e-103
1.75106e-100
1.73612e-100
1.77662e-100
1.69651e-100
1.75333e-100
1.74086e-100
1.7424e-100
1.69338e-100
1.70214e-100
1.76139e-100
1.70116e-100
1.7736e-100
1.69607e-100
1.75101e-100
1.6845e-100
1.76815e-100
1.67311e-100
1.71086e-100
1.73764e-100
1.65376e-100
4.52125e-98
4.47943e-98
4.58585e-98
4.37878e-98
4.52491e-98
4.49381e-98
4.49646e-98
4.36866e-98
4.39109e-98
4.54593e-98
4.39002e-98
4.57699e-98
4.37773e-98
4.52e-98
4.34924e-98
4.5645e-98
4.31667e-98
4.4155e-98
4.48496e-98
4.26578e-98
8.17838e-96
8.09554e-96
8.29388e-96
7.91701e-96
8.18129e-96
8.1275e-96
8.12854e-96
7.89444e-96
7.9332e-96
8.22049e-96
7.93485e-96
8.27522e-96
7.91517e-96
8.17488e-96
7.86718e-96
8.25605e-96
7.79889e-96
7.98314e-96
8.1103e-96
7.70387e-96
1.00654e-93
9.95046e-94
1.0209e-93
9.73668e-94
1.00648e-93
1.00028e-93
9.99555e-94
9.70167e-94
9.74304e-94
1.01163e-93
9.75207e-94
1.01802e-93
9.73376e-94
1.00609e-93
9.6822e-94
1.01624e-93
9.57619e-94
9.81831e-94
9.97954e-94
9.45235e-94
8.25674e-92
8.14354e-92
8.38123e-92
7.97595e-92
8.25303e-92
8.20741e-92
8.18728e-92
7.93752e-92
7.9584e-92
8.3017e-92
7.97694e-92
8.34782e-92
7.97221e-92
8.2556e-92
7.94214e-92
8.342e-92
7.81756e-92
8.04524e-92
8.18673e-92
7.70456e-92
1.86839e-90
1.85262e-90
1.88288e-90
1.80967e-90
1.86308e-90
1.84824e-90
1.85527e-90
1.80575e-90
1.8227e-90
1.86653e-90
1.82029e-90
1.88261e-90
1.81079e-90
1.86035e-90
1.79425e-90
1.87882e-90
1.80014e-90
1.82286e-90
1.84498e-90
1.78449e-90
1.72669e-90
1.73331e-90
1.72148e-90
1.68482e-90
1.71878e-90
1.69857e-90
1.72557e-90
1.69154e-90
1.72808e-90
1.71012e-90
1.71221e-90
1.73528e-90
1.68851e-90
1.70934e-90
1.65601e-90
1.72246e-90
1.71837e-90
1.69195e-90
1.69673e-90
1.72011e-90
2.4905e-90
2.53378e-90
2.53437e-90
2.51132e-90
2.48754e-90
2.51147e-90
2.55722e-90
2.4989e-90
2.57072e-90
2.56732e-90
2.55051e-90
2.57403e-90
2.52292e-90
2.49394e-90
2.47113e-90
2.5188e-90
2.49987e-90
2.49185e-90
2.50765e-90
2.53121e-90
2.95623e-90
2.98721e-90
2.9953e-90
2.96738e-90
2.93139e-90
2.86981e-90
2.92947e-90
2.86754e-90
2.96361e-90
3.05818e-90
3.03293e-90
2.92967e-90
3.01447e-90
2.97096e-90
2.96428e-90
2.9911e-90
2.85685e-90
2.98888e-90
2.93345e-90
2.94419e-90
3.33349e-90
3.43713e-90
3.3943e-90
3.37174e-90
3.38038e-90
3.42085e-90
3.53334e-90
3.37605e-90
3.39887e-90
3.36887e-90
3.38168e-90
3.37593e-90
3.3871e-90
3.36035e-90
3.29655e-90
3.37171e-90
3.39922e-90
3.32892e-90
3.31161e-90
3.33507e-90
3.62656e-90
3.65395e-90
3.70884e-90
3.75076e-90
3.70408e-90
3.77065e-90
3.6946e-90
3.75052e-90
3.73214e-90
3.55432e-90
3.61829e-90
3.60796e-90
3.6465e-90
3.56308e-90
3.57049e-90
3.58777e-90
3.5963e-90
3.65098e-90
3.6195e-90
3.68582e-90
3.70071e-90
3.72845e-90
3.78568e-90
3.77248e-90
3.71681e-90
3.74355e-90
3.76599e-90
3.8239e-90
3.70328e-90
3.76296e-90
3.73291e-90
3.74004e-90
3.80954e-90
3.74226e-90
3.70196e-90
3.8675e-90
3.72412e-90
3.69195e-90
3.74233e-90
3.80372e-90
3.69445e-90
3.62353e-90
3.69079e-90
3.63072e-90
3.68696e-90
3.70786e-90
3.73868e-90
3.69208e-90
3.59021e-90
3.62951e-90
3.6141e-90
3.7501e-90
3.68944e-90
3.76108e-90
3.74331e-90
3.74785e-90
3.70933e-90
3.69215e-90
3.65181e-90
3.67461e-90
3.37776e-90
3.42215e-90
3.38415e-90
3.53226e-90
3.43206e-90
3.52448e-90
3.45762e-90
3.4693e-90
3.43074e-90
3.43891e-90
3.42386e-90
3.5004e-90
3.45187e-90
3.54987e-90
3.41366e-90
3.50824e-90
3.48486e-90
3.35383e-90
3.49973e-90
3.48094e-90
3.01036e-90
3.1591e-90
3.09825e-90
3.09621e-90
3.04154e-90
3.20398e-90
3.15399e-90
3.14591e-90
3.12913e-90
3.05652e-90
3.13237e-90
3.19756e-90
3.09683e-90
3.27706e-90
3.13587e-90
3.19856e-90
3.23628e-90
3.13189e-90
3.20552e-90
3.2122e-90
2.71766e-90
2.70839e-90
2.68011e-90
2.7336e-90
2.78442e-90
2.7681e-90
2.72012e-90
2.68476e-90
2.78715e-90
2.68686e-90
2.76657e-90
2.76309e-90
2.7156e-90
2.79084e-90
2.79343e-90
2.83422e-90
2.74111e-90
2.81702e-90
2.77726e-90
2.86509e-90
2.03557e-90
2.05614e-90
2.03746e-90
2.02635e-90
2.08185e-90
2.05506e-90
2.10506e-90
2.05504e-90
2.10649e-90
2.11259e-90
2.07396e-90
2.13453e-90
2.05788e-90
2.1472e-90
2.06881e-90
2.06504e-90
2.10375e-90
2.13312e-90
2.09336e-90
2.16518e-90
4.70038e-107
4.66654e-107
4.77206e-107
4.55708e-107
4.71088e-107
4.67539e-107
4.68186e-107
4.55262e-107
4.57592e-107
4.73237e-107
4.57051e-107
4.7658e-107
4.55543e-107
4.70245e-107
4.52172e-107
4.74797e-107
4.49658e-107
4.59602e-107
4.66748e-107
4.44624e-107
5.7424e-104
5.69815e-104
5.82724e-104
5.56594e-104
5.75233e-104
5.70988e-104
5.7173e-104
5.55853e-104
5.58801e-104
5.77825e-104
5.58254e-104
5.8191e-104
5.56435e-104
5.74309e-104
5.524e-104
5.79895e-104
5.4925e-104
5.61302e-104
5.69987e-104
5.43077e-104
3.59633e-101
3.56667e-101
3.64785e-101
3.4849e-101
3.60073e-101
3.5748e-101
3.579e-101
3.47895e-101
3.49788e-101
3.61685e-101
3.49527e-101
3.64236e-101
3.48413e-101
3.59567e-101
3.45947e-101
3.63081e-101
3.43887e-101
3.51408e-101
3.56827e-101
3.39998e-101
1.31563e-98
1.30401e-98
1.33394e-98
1.27451e-98
1.31659e-98
1.30738e-98
1.30869e-98
1.27182e-98
1.27885e-98
1.32249e-98
1.27823e-98
1.33176e-98
1.2743e-98
1.31504e-98
1.26555e-98
1.32795e-98
1.25752e-98
1.28509e-98
1.30487e-98
1.24316e-98
3.3371e-96
3.30531e-96
3.38244e-96
3.23167e-96
3.33789e-96
3.31535e-96
3.31772e-96
3.22337e-96
3.24107e-96
3.35302e-96
3.24058e-96
3.37618e-96
3.23122e-96
3.33478e-96
3.20998e-96
3.36769e-96
3.18742e-96
3.25824e-96
3.30859e-96
3.15035e-96
5.96033e-94
5.89848e-94
6.04012e-94
5.76952e-94
5.95898e-94
5.92054e-94
5.92218e-94
5.75164e-94
5.78202e-94
5.98687e-94
5.7837e-94
6.02719e-94
5.76878e-94
5.95527e-94
5.73329e-94
6.01451e-94
5.68653e-94
5.81673e-94
5.9076e-94
5.6183e-94
7.21566e-92
7.13177e-92
7.31291e-92
6.97983e-92
7.21086e-92
7.16732e-92
7.16349e-92
6.95312e-92
6.98554e-92
7.24697e-92
6.9925e-92
7.29331e-92
6.97853e-92
7.20931e-92
6.94067e-92
7.28211e-92
6.86906e-92
7.03712e-92
7.1502e-92
6.78173e-92
5.83897e-90
5.75813e-90
5.9218e-90
5.64054e-90
5.83263e-90
5.80103e-90
5.78832e-90
5.61222e-90
5.62947e-90
5.8662e-90
5.64284e-90
5.89949e-90
5.63862e-90
5.8354e-90
5.61622e-90
5.89653e-90
5.53275e-90
5.68847e-90
5.78606e-90
5.45424e-90
1.29033e-88
1.27901e-88
1.29981e-88
1.24979e-88
1.28611e-88
1.27628e-88
1.28103e-88
1.24667e-88
1.25858e-88
1.28867e-88
1.25712e-88
1.29965e-88
1.25065e-88
1.28463e-88
1.23934e-88
1.29729e-88
1.24316e-88
1.25872e-88
1.27382e-88
1.2324e-88
1.18169e-88
1.18605e-88
1.17809e-88
1.15335e-88
1.17615e-88
1.16285e-88
1.18118e-88
1.15763e-88
1.18294e-88
1.17045e-88
1.17211e-88
1.18746e-88
1.15592e-88
1.17005e-88
1.13384e-88
1.17862e-88
1.176e-88
1.15802e-88
1.16124e-88
1.17726e-88
1.70742e-88
1.73657e-88
1.73753e-88
1.72119e-88
1.70515e-88
1.72126e-88
1.7525e-88
1.71233e-88
1.76192e-88
1.75881e-88
1.74826e-88
1.76349e-88
1.7292e-88
1.70935e-88
1.69372e-88
1.7261e-88
1.71325e-88
1.70791e-88
1.71897e-88
1.73487e-88
2.01735e-88
2.03833e-88
2.04399e-88
2.02432e-88
2.00041e-88
1.95842e-88
1.99954e-88
1.95722e-88
2.02281e-88
2.08653e-88
2.06946e-88
1.9992e-88
2.05732e-88
2.0272e-88
2.02291e-88
2.0409e-88
1.94945e-88
2.03921e-88
2.00121e-88
2.00881e-88
2.27709e-88
2.34701e-88
2.31853e-88
2.30269e-88
2.30933e-88
2.33647e-88
2.41315e-88
2.30597e-88
2.32149e-88
2.30061e-88
2.30952e-88
2.30586e-88
2.31407e-88
2.29613e-88
2.25264e-88
2.30329e-88
2.32204e-88
2.27425e-88
2.26252e-88
2.27827e-88
2.46257e-88
2.48049e-88
2.51705e-88
2.54633e-88
2.51487e-88
2.55942e-88
2.5081e-88
2.54618e-88
2.53312e-88
2.41305e-88
2.45636e-88
2.44976e-88
2.47583e-88
2.41951e-88
2.42397e-88
2.43622e-88
2.44121e-88
2.47876e-88
2.45725e-88
2.50267e-88
2.51795e-88
2.53609e-88
2.57548e-88
2.56572e-88
2.5282e-88
2.54708e-88
2.56224e-88
2.60127e-88
2.51947e-88
2.56014e-88
2.54029e-88
2.5448e-88
2.59115e-88
2.54614e-88
2.51927e-88
2.63059e-88
2.53395e-88
2.51155e-88
2.54591e-88
2.58644e-88
2.49504e-88
2.44652e-88
2.49129e-88
2.45152e-88
2.4897e-88
2.50407e-88
2.52419e-88
2.49287e-88
2.4245e-88
2.45074e-88
2.43972e-88
2.53161e-88
2.49144e-88
2.53985e-88
2.5276e-88
2.53063e-88
2.50446e-88
2.49357e-88
2.46583e-88
2.48119e-88
2.2906e-88
2.32051e-88
2.29487e-88
2.39509e-88
2.3269e-88
2.38928e-88
2.34383e-88
2.35259e-88
2.32609e-88
2.33161e-88
2.32196e-88
2.37327e-88
2.33995e-88
2.40668e-88
2.31432e-88
2.37823e-88
2.36248e-88
2.27413e-88
2.3725e-88
2.36032e-88
2.02792e-88
2.12775e-88
2.087e-88
2.08507e-88
2.04864e-88
2.15787e-88
2.12406e-88
2.11895e-88
2.10742e-88
2.0588e-88
2.1096e-88
2.15331e-88
2.08599e-88
2.20645e-88
2.11148e-88
2.15359e-88
2.17879e-88
2.10925e-88
2.15876e-88
2.16308e-88
1.84324e-88
1.83696e-88
1.81817e-88
1.85429e-88
1.88829e-88
1.87729e-88
1.84461e-88
1.82178e-88
1.89066e-88
1.82257e-88
1.87646e-88
1.87417e-88
1.84145e-88
1.89309e-88
1.89436e-88
1.92252e-88
1.85921e-88
1.91038e-88
1.8834e-88
1.94278e-88
1.37904e-88
1.39279e-88
1.3803e-88
1.37267e-88
1.40986e-88
1.392e-88
1.42516e-88
1.392e-88
1.42608e-88
1.43062e-88
1.40439e-88
1.44522e-88
1.39382e-88
1.45394e-88
1.4009e-88
1.39846e-88
1.42429e-88
1.4443e-88
1.41753e-88
1.46577e-88
3.69389e-105
3.66605e-105
3.74786e-105
3.58074e-105
3.70011e-105
3.67258e-105
3.67799e-105
3.57626e-105
3.59576e-105
3.7165e-105
3.59188e-105
3.74303e-105
3.57974e-105
3.69391e-105
3.55321e-105
3.72983e-105
3.53467e-105
3.61077e-105
3.66613e-105
3.4955e-105
4.4465e-102
4.41079e-102
4.50932e-102
4.3093e-102
4.45173e-102
4.41935e-102
4.4255e-102
4.3024e-102
4.32666e-102
4.47125e-102
4.32287e-102
4.50318e-102
4.30844e-102
4.44516e-102
4.27711e-102
4.48856e-102
4.25424e-102
4.34507e-102
4.41131e-102
4.20695e-102
2.73117e-99
2.7078e-99
2.7685e-99
2.64625e-99
2.733e-99
2.71363e-99
2.71709e-99
2.64102e-99
2.65629e-99
2.74493e-99
2.65457e-99
2.76446e-99
2.6459e-99
2.72954e-99
2.62709e-99
2.7563e-99
2.61244e-99
2.66798e-99
2.70848e-99
2.58324e-99
9.8515e-97
9.76159e-97
9.98194e-97
9.54268e-97
9.85315e-97
9.78543e-97
9.79627e-97
9.52007e-97
9.57592e-97
9.8963e-97
9.57223e-97
9.96626e-97
9.54203e-97
9.84307e-97
9.47608e-97
9.93994e-97
9.41979e-97
9.62033e-97
9.76599e-97
9.31356e-97
2.45409e-94
2.43006e-94
2.48572e-94
2.3764e-94
2.45328e-94
2.43704e-94
2.43909e-94
2.36969e-94
2.38353e-94
2.46417e-94
2.38339e-94
2.48134e-94
2.3763e-94
2.4514e-94
2.36053e-94
2.47564e-94
2.34501e-94
2.39555e-94
2.4319e-94
2.31812e-94
4.32091e-92
4.27504e-92
4.37559e-92
4.18242e-92
4.31743e-92
4.29018e-92
4.29199e-92
4.16843e-92
4.19198e-92
4.33724e-92
4.19355e-92
4.36673e-92
4.18233e-92
4.31551e-92
4.15621e-92
4.35848e-92
4.12447e-92
4.21594e-92
4.28048e-92
4.07577e-92
5.14384e-90
5.08306e-90
5.20912e-90
4.97573e-90
5.13735e-90
5.10705e-90
5.10527e-90
4.95554e-90
4.98063e-90
5.16257e-90
4.98591e-90
5.19599e-90
4.97537e-90
5.13719e-90
4.94771e-90
5.18907e-90
4.89981e-90
5.01569e-90
5.09447e-90
4.83862e-90
4.10162e-88
4.04441e-88
4.15614e-88
3.96247e-88
4.0946e-88
4.07291e-88
4.06509e-88
3.94181e-88
3.95572e-88
4.11763e-88
3.96525e-88
4.14147e-88
3.96164e-88
4.09726e-88
3.94505e-88
4.14015e-88
3.88979e-88
3.99537e-88
4.06212e-88
3.83568e-88
8.85302e-87
8.77236e-87
8.91443e-87
8.57497e-87
8.82023e-87
8.75579e-87
8.78758e-87
8.55073e-87
8.63378e-87
8.8391e-87
8.6253e-87
8.91351e-87
8.58151e-87
8.81295e-87
8.50468e-87
8.8992e-87
8.52921e-87
8.63516e-87
8.73738e-87
8.4557e-87
8.03065e-87
8.05912e-87
8.00606e-87
7.84023e-87
7.99218e-87
7.90544e-87
8.02888e-87
7.86709e-87
8.04118e-87
7.95494e-87
7.96787e-87
8.0692e-87
7.858e-87
7.95318e-87
7.70908e-87
8.00861e-87
7.99205e-87
7.87062e-87
7.89206e-87
8.00106e-87
1.16274e-86
1.18223e-86
1.18327e-86
1.17178e-86
1.16102e-86
1.1718e-86
1.19298e-86
1.1655e-86
1.19951e-86
1.19687e-86
1.19035e-86
1.2001e-86
1.17727e-86
1.16377e-86
1.15313e-86
1.17497e-86
1.1663e-86
1.16277e-86
1.17046e-86
1.18112e-86
1.36799e-86
1.38211e-86
1.38604e-86
1.37228e-86
1.3565e-86
1.32806e-86
1.35621e-86
1.32748e-86
1.37198e-86
1.41462e-86
1.40315e-86
1.35567e-86
1.39523e-86
1.37452e-86
1.37179e-86
1.38379e-86
1.32189e-86
1.38251e-86
1.35663e-86
1.36197e-86
1.54631e-86
1.59318e-86
1.57438e-86
1.56334e-86
1.56833e-86
1.58642e-86
1.63838e-86
1.5658e-86
1.57628e-86
1.56184e-86
1.568e-86
1.5657e-86
1.57166e-86
1.55973e-86
1.53025e-86
1.56417e-86
1.57686e-86
1.54458e-86
1.53667e-86
1.54718e-86
1.66415e-86
1.67579e-86
1.70001e-86
1.72035e-86
1.69926e-86
1.72891e-86
1.69446e-86
1.72027e-86
1.71103e-86
1.63039e-86
1.65955e-86
1.65538e-86
1.67291e-86
1.63509e-86
1.6377e-86
1.64633e-86
1.64915e-86
1.67482e-86
1.66018e-86
1.69114e-86
1.70567e-86
1.71746e-86
1.74445e-86
1.73731e-86
1.71215e-86
1.72544e-86
1.73558e-86
1.76178e-86
1.70657e-86
1.73414e-86
1.7211e-86
1.72396e-86
1.75468e-86
1.72476e-86
1.7069e-86
1.78138e-86
1.71656e-86
1.70108e-86
1.72437e-86
1.75097e-86
1.68076e-86
1.6477e-86
1.67738e-86
1.65116e-86
1.67697e-86
1.68681e-86
1.69991e-86
1.67894e-86
1.63318e-86
1.65065e-86
1.64282e-86
1.7047e-86
1.67823e-86
1.71081e-86
1.70242e-86
1.70443e-86
1.68668e-86
1.67982e-86
1.66084e-86
1.67116e-86
1.54975e-86
1.56984e-86
1.55258e-86
1.6202e-86
1.57394e-86
1.61594e-86
1.58513e-86
1.59161e-86
1.57344e-86
1.57717e-86
1.571e-86
1.60533e-86
1.58252e-86
1.62783e-86
1.56537e-86
1.60842e-86
1.59786e-86
1.53845e-86
1.60459e-86
1.59672e-86
1.36586e-86
1.43284e-86
1.40556e-86
1.40388e-86
1.37962e-86
1.45303e-86
1.43018e-86
1.42696e-86
1.41903e-86
1.3865e-86
1.4205e-86
1.4498e-86
1.40483e-86
1.48531e-86
1.42144e-86
1.44973e-86
1.46655e-86
1.42025e-86
1.45353e-86
1.45632e-86
1.2497e-86
1.24546e-86
1.23299e-86
1.25737e-86
1.28008e-86
1.27269e-86
1.25043e-86
1.23576e-86
1.28204e-86
1.23586e-86
1.27226e-86
1.27077e-86
1.24823e-86
1.28366e-86
1.28418e-86
1.30362e-86
1.2606e-86
1.29504e-86
1.27676e-86
1.31688e-86
9.32083e-87
9.41257e-87
9.32923e-87
9.27698e-87
9.52554e-87
9.4068e-87
9.62597e-87
9.40677e-87
9.63183e-87
9.66524e-87
9.48755e-87
9.76221e-87
9.41841e-87
9.82207e-87
9.46416e-87
9.44846e-87
9.62017e-87
9.75632e-87
9.57642e-87
9.89972e-87
2.89792e-103
2.87512e-103
2.93843e-103
2.80877e-103
2.90121e-103