/*--------------------------------*- C++ -*----------------------------------*\
| =========                 |                                                 |
| \\      /  F ield         | OpenFOAM: The Open Source CFD Toolbox           |
|  \\    /   O peration     | Version:  2212                                  |
|   \\  /    A nd           | Website:  www.openfoam.com                      |
|    \\/     M anipulation  |                                                 |
\*---------------------------------------------------------------------------*/
FoamFile
{
    version     2.0;
    format      ascii;
    arch        "LSB;label=32;scalar=64";
    class       volScalarField;
    location    "0.000105";
    object      p;
}
// * * * * * * * * * * * * * * * * * * * * * * * * * * * * * * * * * * * * * //

dimensions      [1 -1 -2 0 0 0 0];

internalField   nonuniform List<scalar> 
232988
(
3294.2
3141.41
3093.26
3024.61
2964.89
2957.16
2967.4
2972.95
2941.38
2880.34
2847.74
2855.29
2866.03
2894.97
2888.44
2836.15
2761.54
2751.91
2774.46
2814.81
2863.59
2839.85
2799.61
2741.95
2718.75
2743.11
2788.34
2826.88
2812.96
2779.51
2713.81
2692.32
2705.56
2740.79
2756.98
2731.16
2695.12
2665.61
2639.82
2649.92
2681.31
2724.86
2712.51
2679.52
2659.27
2620.05
2623.31
2656.71
2730.38
2759.46
2744.26
2721.96
2648.24
2640.33
2660.04
2681.12
2724.04
2718.55
2669.97
2617.15
2610.98
2639.8
2685.72
2749.9
2744.31
2719.06
2674.56
2631.8
2650.31
2683.8
2721.61
2766.72
2768.41
2735.54
2654.07
2648.51
2663.81
2705.84
2736.51
2696.09
2645.68
2627.9
2667.47
2708.59
2714.96
2688.4
2645.52
2623.57
2643.4
2690.51
2692.56
2668.18
2644.55
2624.04
2634.3
2674.03
2696.38
2662.91
2636.56
2620.06
2635.3
2681.55
2723.11
2695.12
2668.98
2633.48
2639.59
2683.49
2747.09
2735.67
2687.6
2641.28
2651.39
2686.57
2720.82
2765.7
2743.48
2726.43
2691.06
2653.13
2683.08
2725.37
2754.31
2742.81
2708.91
2722.67
2740.34
2713.97
2664.08
2668.71
2695.87
2737.57
2738.31
2707.68
2668.12
2679.54
2716.98
2743.7
2712.7
2684.51
2665.13
2688.33
2762.99
2810.1
2800.98
2751.92
2699.03
2699.77
2730.95
2777.26
2789.49
2723.43
2688.48
2705.51
2746.61
2804.15
2788.8
2742.28
2728.71
2749.76
2785.41
2783.64
2725.55
2695.1
2689.04
2719.84
2777.87
2831.75
2813.98
2748.45
2721.37
2746.44
2776.65
2820.84
2846.22
2783.09
2726.36
2739.55
2767.75
2819.19
2848.49
2812.26
2735.57
2735.06
2752.39
2794.26
2846.72
2815.06
2768.15
2722.15
2719.01
2774.17
2828.16
2838.41
2819.65
2777.58
2760.1
2733.91
2737.68
2772.63
2825.56
2825.08
2797.83
2759.51
2772.27
2802.61
2839.72
2843.44
2768.54
2757.78
2782.68
2822.6
2843.48
2825.62
2793.2
2787.48
2798.73
2820.62
2842.74
2816.38
2799.63
2786.6
2812.29
2859.14
2880.76
2840.03
2809.33
2831.43
2865.31
2893.84
2883.5
2826.26
2798.55
2809.6
2860.5
2896.33
2874.6
2816.95
2824.24
2843.4
2855.93
2845.69
2842.48
2869.39
2871.76
2844.74
2836.61
2841.74
2870.37
2885.49
2873.59
2846.09
2853.41
2890.01
2897.08
2869.58
2873.23
2900.04
2900.82
2848.69
2849.66
2879.18
2910.6
2917.5
2898.42
2874.65
2887.4
2900.2
2880.82
2872.85
2861.62
2860.54
2869.29
2881.98
2898.31
2937.65
2978.63
3004.88
3016.59
3028.51
3044.17
3059.04
3079.12
3097.68
3110.83
3121.26
3130.15
3134.07
3135.11
3131.61
3120.12
3100.18
3072.74
3037.63
2998.76
2962.69
2913.63
2844.27
2787.03
2749.2
2715.85
2673.71
2615.83
2553.8
2497.58
2429.22
2365.83
2290.3
2253.15
2185.64
3091.28
2941
2902.89
2875.69
2853.85
2845.68
2830.38
2779.38
2768.34
2765.31
2759.19
2764.05
2761.01
2744.38
2699.21
2692.8
2690.29
2705.62
2717.39
2711.67
2672.89
2641.84
2641.25
2637.6
2655.85
2677.02
2675.81
2644.9
2622.54
2619.5
2610.28
2638.08
2652.15
2653.86
2629.15
2621.86
2614.47
2602.63
2604.73
2623.3
2626.16
2604.26
2579.34
2579.61
2568.77
2569.67
2593.08
2601.89
2589.14
2555.42
2555.14
2549.81
2562.2
2596.89
2607.77
2610.11
2604.38
2579.93
2565.88
2560.87
2579.49
2598.29
2598
2579.03
2550.84
2544.62
2548.19
2568.55
2598.31
2607.12
2611.89
2604.39
2587.34
2575.4
2572.32
2601.82
2614.42
2614.01
2587.5
2566.04
2554.96
2567.54
2601.54
2605.98
2596.6
2585.49
2576.92
2585.24
2609.35
2605.94
2588.36
2589.17
2582.54
2583.82
2607.66
2607.07
2579.37
2573.53
2569.92
2574.2
2606.87
2605.47
2568.18
2560.51
2559.25
2567.18
2606.14
2612.53
2583.22
2555.18
2559.06
2574.96
2616.32
2638.78
2643.11
2626.87
2594.53
2586.81
2574.93
2597.56
2624.59
2634.85
2635.52
2619.12
2620.32
2627.27
2604.02
2593.35
2607.8
2631.7
2643.35
2635.26
2606.93
2603.94
2623.16
2647.28
2645.86
2612.07
2612.13
2608.99
2623.81
2659.57
2662.03
2645.09
2617.96
2616.88
2633.56
2668.44
2685.33
2685.74
2651.65
2637.64
2639.75
2678.94
2687.36
2661.48
2625.34
2624.67
2660.64
2697.68
2701.86
2661.37
2650.79
2645.41
2657.89
2691.97
2687.15
2649.82
2630.28
2635.22
2674.1
2707.27
2720.01
2722.28
2679.14
2659.75
2675.9
2708.39
2726.09
2726.99
2698.28
2676.58
2675.26
2690.55
2718.8
2725.35
2712.22
2665.99
2661.51
2657.49
2676.18
2713.29
2725.81
2726.58
2720.5
2705.82
2690.5
2695.13
2714.9
2730.89
2716.69
2686.64
2686.74
2709.16
2741.71
2756.33
2751.17
2710
2707.76
2723.19
2745.11
2747.96
2733.83
2706.27
2707.61
2743.24
2764.67
2763.79
2728.81
2712.99
2713.87
2726.91
2762.5
2764.4
2732
2722.54
2741.58
2782.34
2794.51
2795.35
2769.08
2758.48
2758.97
2792.56
2805.19
2785.27
2762.8
2771.38
2794.68
2803.71
2777.11
2764.81
2774.2
2791.52
2797.56
2789.26
2795.77
2811.55
2814.85
2804.85
2777.54
2783.98
2813.78
2820.36
2805.99
2810.24
2832.34
2827.51
2789.99
2797.66
2816.89
2830.83
2841.6
2840.81
2824.99
2836.49
2839.26
2821.98
2815.35
2808.76
2806.7
2810.65
2818.42
2833.56
2848.68
2866.82
2877.22
2892.31
2906.53
2919.41
2930.18
2940.94
2953.58
2966.02
2977.43
2985.57
2991.06
2993.5
2994.07
2992.01
2984.82
2971.91
2953.48
2927.52
2895.8
2859.25
2819.16
2775.94
2740.02
2712.74
2683.72
2644.73
2588.36
2529.63
2475.46
2411.31
2350.69
2280.91
2240.94
2187.46
3013.12
2864.61
2834.39
2820.86
2818.42
2812.07
2772.13
2725.96
2727.45
2733.41
2738.36
2737.03
2721.32
2678.26
2653.63
2662.47
2685.32
2713.4
2711.23
2682.52
2606.53
2604.39
2610.5
2630.24
2667.71
2666.59
2633.99
2558.34
2557.45
2568.65
2595.61
2638.83
2637.92
2624.58
2579.66
2587.53
2590.66
2591.39
2621.18
2625.27
2617.98
2567.67
2556.85
2559.18
2555.28
2593.16
2604.47
2594.44
2529.76
2503.41
2509.22
2514.05
2563.37
2593.29
2593.49
2591.84
2557.11
2543.59
2545.67
2569.53
2597.07
2592.5
2570.42
2510.48
2505.23
2507.55
2536.13
2589.01
2593.99
2583.62
2562.25
2518.22
2503.73
2515.76
2563.19
2600.7
2601.32
2586.33
2543.7
2549.2
2554.13
2586.86
2585.52
2566.91
2540.38
2541.6
2550.62
2593.78
2603.65
2583.28
2561.54
2573.55
2570.06
2593.83
2610.32
2593.41
2556.03
2566.28
2564
2597.23
2612.05
2586.87
2538.92
2542.88
2544
2579.6
2610.93
2592.3
2528.63
2527.4
2543.15
2591.23
2625.71
2628.13
2622.86
2573.54
2555.47
2544.93
2551.73
2612.01
2613.73
2612.71
2592.44
2575.51
2588.93
2586.04
2554.33
2570.72
2615.32
2633.99
2629.35
2584.59
2558.24
2579.59
2634.82
2645.99
2627.08
2591.87
2599.97
2604.71
2650.16
2659.7
2621.8
2566.39
2565.06
2574.76
2636.49
2674.17
2675.29
2656.13
2612.54
2626.56
2657.8
2686.02
2679.49
2600.05
2598.2
2609.24
2668.81
2680.59
2669.49
2626.07
2644.26
2652.32
2697.67
2693.38
2658.57
2605.78
2607.06
2631.8
2700.96
2703.73
2703.23
2678.22
2612.36
2636.34
2701.92
2720.57
2720.01
2696.75
2633.19
2647.27
2685.39
2715.98
2711.04
2712.54
2662.31
2650.25
2645.39
2664.62
2709.42
2697.37
2679.13
2664.05
2671.8
2674.71
2671.3
2711.36
2730.43
2717.4
2666.38
2648.84
2665.17
2726.37
2743.3
2743.28
2709.47
2666.99
2712.84
2742.53
2738.81
2730.43
2683.35
2677.31
2688.17
2747.85
2759.42
2755.54
2701.29
2705.71
2709.52
2740.17
2757.93
2734.58
2687.7
2705.04
2746.61
2769.69
2773.18
2743.31
2723.24
2739.32
2773.75
2794.56
2774.75
2726.27
2721.52
2778.51
2802.64
2801.26
2760.24
2760.99
2772.83
2773.03
2777.5
2775.92
2803.73
2810.82
2808.68
2782.82
2771.15
2789.88
2817.2
2804.65
2778.73
2809.41
2826.6
2802.98
2773.66
2808
2826.26
2822.26
2824.86
2819.7
2814.31
2839.02
2834.13
2806.81
2812.56
2805.71
2804.91
2809.42
2815.38
2831.92
2844.31
2847.3
2836.21
2844.4
2855.83
2878.08
2886.4
2894.54
2902.03
2909.16
2920.82
2927.43
2930.74
2932.26
2932.55
2931.27
2926.45
2917.59
2904.18
2883.54
2855.96
2819.1
2785.79
2759.02
2735.04
2712.2
2683.58
2645.87
2602.5
2552.87
2510.27
2461.5
2415.35
2364.39
2332.71
2283.07
2932.89
2826.94
2796.85
2775.99
2767.01
2744.06
2722.55
2712.62
2709.75
2709.61
2706.72
2680.55
2663.19
2649.54
2642.95
2654.86
2680.8
2696.19
2683.84
2633.98
2599.79
2594.74
2599.79
2631.96
2653.29
2636.54
2553.86
2540.24
2543.8
2561.53
2611.71
2628.27
2607.75
2535.05
2503.7
2515.12
2525.55
2569.93
2611.76
2612.01
2591.03
2539.5
2540.13
2536.02
2555.03
2596.11
2593.81
2553.1
2499.16
2502.09
2499.73
2519.52
2566.15
2570.85
2552.67
2503.62
2493.39
2509
2524.64
2570.32
2579
2562.29
2508.15
2504.78
2498.51
2500.98
2533.89
2574.22
2575.86
2517.72
2474.97
2474.33
2478.59
2513.37
2563.98
2596.71
2588.24
2547.06
2531.16
2536.19
2561.54
2581.08
2553.65
2505.71
2490.61
2489.71
2526.47
2582.01
2583.13
2546.21
2543.09
2528.28
2540.18
2592.84
2595.44
2566.01
2548.9
2551.34
2561.74
2601.26
2600.11
2549.66
2541.51
2534.03
2541.94
2582.57
2583.13
2530.97
2527.8
2523.96
2544.72
2597.25
2613.88
2595.29
2546.23
2530.61
2527.13
2522.52
2549.31
2591.66
2584.8
2588.58
2546.96
2540.79
2541.41
2525.38
2547.04
2576.71
2607.96
2604.83
2548.73
2532.24
2548.92
2587.5
2630.9
2633.76
2600.05
2595.52
2590.81
2611.04
2648.91
2626.05
2557.13
2553.96
2561.59
2578.37
2650.9
2674.27
2670.07
2599.97
2587.8
2614.6
2666.19
2681.47
2631.08
2583.35
2593.42
2613.6
2678.02
2674.23
2605.94
2586.69
2621.95
2667.16
2701.25
2682.03
2616.24
2610.56
2607.52
2649.32
2701
2694.55
2650.06
2587.13
2598.92
2644.58
2707.25
2724.39
2715.3
2629.67
2616.2
2645.26
2700.22
2718.43
2713.09
2696.35
2642
2639.39
2640.09
2682.46
2706.65
2669.67
2611.53
2606.41
2608.58
2612.71
2664.99
2712.66
2724.87
2655.39
2625.49
2646.65
2679.17
2733.31
2744.18
2700.99
2638.24
2658.94
2719.16
2738.93
2732.86
2690.08
2661.55
2674.84
2695.03
2744.27
2749.13
2715.58
2698.33
2701.25
2715.86
2757.14
2743.16
2704.03
2689.68
2707.6
2765.68
2765.66
2729.49
2680.9
2697.41
2735.77
2775.5
2768.58
2712.32
2705.4
2716.11
2780.4
2795.2
2781.87
2751.86
2764.25
2772.64
2765.29
2755.03
2760.89
2802.7
2809.22
2787.16
2765.02
2779.51
2803.39
2803.64
2777.61
2780.16
2807.22
2801.75
2760.96
2783.09
2815.27
2820.57
2816.32
2814.43
2802.08
2811.22
2820.55
2806.76
2809.57
2806.98
2798.6
2797.92
2799.79
2808.28
2814
2814.03
2798.2
2800.6
2806.62
2802.11
2825.17
2834.82
2838.82
2832.66
2830.41
2848.39
2851.82
2852.86
2852.66
2851.28
2849.39
2847.32
2844.33
2837.68
2826.19
2808.27
2787.99
2768.18
2750.52
2732.82
2712.13
2683.55
2646.35
2614.18
2572.76
2536.66
2495.81
2456.51
2416
2393.5
2364.13
2895.29
2794.06
2770.34
2739.72
2721.91
2699.1
2691.65
2689.6
2689.98
2686.19
2649.29
2643.43
2646.57
2640.6
2648.25
2663.09
2663.47
2643.07
2622.81
2624.77
2598.4
2594.77
2611.55
2632.49
2628.31
2586.71
2550.11
2539.59
2539.43
2569.14
2593.86
2584.31
2526.05
2492.11
2488.97
2497.41
2519.17
2566.77
2565.71
2546.14
2482.83
2464.57
2484.42
2502.28
2559.76
2572.84
2566.78
2519
2501.63
2497.93
2505
2550.12
2543.56
2519.29
2457.61
2457.2
2454.89
2472.62
2529.27
2535.26
2533.85
2512.09
2491.6
2497.27
2492.51
2526.16
2538.65
2528.34
2474.87
2464.55
2464.81
2462.27
2487.97
2535.62
2532.08
2512.2
2459.53
2456.73
2490.55
2537.67
2553.81
2533.01
2491.14
2501.77
2494.45
2501.29
2540.19
2540.14
2503.48
2467.34
2480.14
2492.91
2544.94
2556.85
2536.66
2504.38
2512.34
2526.03
2564.72
2571.63
2553.07
2535.04
2534.99
2537.62
2564.35
2565.98
2533.7
2523.17
2523.12
2537.69
2574.86
2564.96
2545.47
2504.29
2509.94
2504.23
2504.54
2518.45
2543.08
2539.11
2539.79
2523.66
2479.15
2490.93
2497.88
2520.64
2564.58
2574.79
2554.83
2512.15
2514.74
2526.99
2568.28
2596.59
2581.94
2535.99
2533.02
2563.64
2600.2
2623.89
2606.33
2560.83
2564.1
2557.67
2562.95
2624.73
2635
2624.95
2570.17
2541.06
2550.72
2619.92
2645.2
2637.85
2587.02
2588.76
2598.89
2647.88
2648.62
2587
2568.87
2566.93
2618.57
2662.18
2659.63
2626.11
2613.33
2618.17
2651.71
2662.58
2636.77
2578.17
2564.89
2575.08
2622.05
2670.27
2664.72
2655.75
2593.51
2576.98
2616.4
2676.74
2687.28
2690.82
2665.39
2624.63
2628.46
2635.1
2670.63
2685.9
2669.09
2613.61
2614.29
2609.53
2612.03
2627.84
2674.42
2664.53
2607.69
2606.68
2625.83
2673.95
2709.01
2703.01
2653.3
2617.82
2636.31
2687.63
2718.23
2721.49
2711.21
2661.66
2666.09
2673.78
2717.64
2723.66
2704.85
2667
2681.53
2703.31
2756.43
2751
2719.19
2686.2
2696.61
2749.15
2757.85
2731.23
2681.55
2686.24
2705.43
2741.04
2742.54
2713.29
2719.89
2711.88
2741.22
2767.25
2756.54
2714.58
2724.38
2761.85
2767.87
2753.73
2747.12
2766.65
2779.65
2776.41
2749.25
2747.77
2788
2801.42
2792.78
2769.35
2786.46
2800.62
2765.19
2758.07
2800.06
2805.95
2805.8
2805.9
2800.17
2794.39
2808.67
2804.34
2795.56
2807.1
2800.75
2796.91
2796.44
2796.98
2804.13
2805.17
2796.5
2782.25
2790.81
2790.9
2791.82
2798.58
2802.86
2795.78
2787.79
2798.08
2808.9
2812.03
2812.66
2811.54
2809.3
2807.01
2804.78
2802.88
2799.03
2793.03
2783.77
2772.45
2760.12
2747.1
2732.05
2712.14
2686.39
2654.53
2625.6
2594.45
2563.53
2530.84
2500.26
2468.42
2449.62
2424.08
2891.36
2780.81
2750.62
2693.99
2669.99
2671.69
2672
2673.42
2674.07
2654.34
2607.59
2614.92
2623.62
2637.1
2656.02
2649.25
2630.83
2587.88
2592.55
2589.18
2583.34
2596.66
2614.64
2617.1
2616.51
2570.64
2547.27
2542.63
2556.57
2583.71
2577.43
2541.87
2515.71
2487.24
2485.74
2492.44
2531.66
2550.68
2536.42
2472.77
2442.01
2443.82
2455.86
2489.67
2544.36
2545.12
2527.37
2476.7
2482.98
2493.28
2524.23
2552.63
2536.61
2476.3
2447.97
2446.58
2451.21
2487.77
2525.7
2515.37
2498.34
2446.02
2452.1
2465.15
2492.35
2539.22
2536.92
2509.37
2456.53
2453.74
2451.83
2458.95
2517.22
2529.71
2512.61
2445.96
2427.42
2432.52
2474.23
2534.48
2541.66
2503.99
2477.61
2486.83
2486.66
2518.2
2533.58
2517.12
2441.73
2448.26
2463.52
2510.22
2545.19
2536.43
2463.49
2449.64
2459.86
2507.15
2546.37
2533.81
2490.06
2490.4
2515.68
2542.62
2558.6
2549.52
2510
2511.69
2523.37
2561.6
2571.38
2557.8
2501.71
2488.19
2489.88
2492.39
2498.98
2519.83
2525.08
2528.1
2524.31
2476.38
2469.49
2480.3
2497.66
2539.75
2558.69
2542.02
2493.92
2496.54
2503.52
2533.35
2583.17
2585.54
2523.77
2497.33
2501.06
2552.78
2605.18
2614.89
2586.58
2555.56
2557.99
2560.88
2599.87
2625.1
2617.35
2587.89
2523.75
2537.32
2560.99
2624.59
2624.33
2603.66
2567.33
2586.41
2626.04
2646.33
2616.98
2561.24
2568.29
2573.14
2636.18
2641.56
2607.81
2564.47
2582.32
2631.48
2666.99
2663.84
2598.37
2565.36
2560.93
2575.21
2646.95
2655.44
2633.12
2566.88
2542.95
2569.86
2643.66
2673.85
2672.04
2667.09
2608.67
2577.59
2598.86
2654.22
2680.08
2678.86
2627.31
2616.85
2610.74
2607.64
2611.21
2649.86
2643.24
2590.83
2585.24
2600.16
2635.58
2696.62
2697.88
2639.39
2601.41
2612.42
2638.28
2708.07
2717.43
2715.49
2679.7
2663.64
2665.39
2683.88
2723.27
2711.24
2642.37
2631.62
2651.23
2719.59
2752.12
2747.3
2678.54
2662.74
2707.01
2756.21
2752.66
2694.31
2686.4
2693.42
2726.33
2732.27
2718.73
2709.27
2708.9
2715.38
2761.15
2758
2716.58
2697.59
2715.99
2748.64
2756.15
2740.42
2743.88
2766.25
2763.03
2718.56
2711.36
2736.26
2781.37
2784.43
2770.34
2767.36
2784.33
2775.3
2736.64
2773
2796.79
2799.92
2798.63
2795.48
2784.12
2786.64
2805.1
2794.55
2790.61
2801.97
2794.09
2790.16
2789.34
2790.52
2794.93
2794.59
2783.44
2782.4
2783.88
2781.9
2784.4
2777.7
2769.77
2762.81
2781.64
2788.23
2787.67
2791.22
2791.87
2789.8
2787.76
2785.85
2784.11
2782.41
2780.15
2776.88
2771.87
2765.2
2756.77
2745.72
2731.7
2712.27
2688.35
2662.91
2636.7
2611.2
2584.69
2556.38
2531.12
2506.54
2493.23
2476.16
2893.94
2771.45
2721.11
2671.22
2660.79
2656.94
2659.9
2659.21
2645.14
2596.13
2586.72
2589.66
2598.26
2632.72
2650.72
2636.14
2567.15
2526.24
2537.99
2543.83
2565.53
2589.45
2588.23
2562.16
2555.81
2565.17
2553.75
2564.12
2581.33
2578.29
2540.05
2536.1
2525.92
2502.89
2508.39
2531.86
2541.61
2521.57
2494.76
2481.97
2449.62
2444.27
2455.58
2502.78
2515.44
2467.91
2437.28
2415.35
2421.93
2466.93
2524.29
2532.33
2532.83
2466.19
2446.82
2443.42
2457.27
2502.49
2507.9
2484.65
2413.39
2393.24
2401.23
2429.29
2498.65
2521.95
2522.28
2488.44
2454.18
2444.6
2447.61
2480.75
2528.83
2524.07
2468.68
2426.57
2429.05
2432.93
2500.6
2507.09
2491.36
2449.53
2466.37
2471.21
2494.54
2523.77
2509.81
2451.62
2438.78
2445.14
2460.18
2516.54
2519.6
2482.1
2449.05
2451.74
2468.81
2501.76
2484.13
2455.2
2451.22
2464
2505.86
2526.98
2521.33
2471.37
2462.32
2486.5
2533.94
2548.49
2546.07
2513.2
2490.79
2487.41
2485.11
2487.26
2497.06
2518.57
2521.72
2522.42
2502.94
2464.67
2469.61
2473.33
2509.45
2534.34
2516.8
2477.71
2488.03
2490.51
2507.99
2560.21
2560.57
2520.64
2489.05
2500.45
2510.15
2576.04
2585.5
2574.98
2542.9
2555.41
2550.85
2588.88
2614.46
2604.84
2581.46
2527.84
2527.96
2541.45
2598.55
2610.13
2586.84
2519.49
2524.7
2586.96
2625.69
2620.92
2565.48
2563.75
2570.16
2612.68
2615.25
2560.6
2514.62
2520.93
2562.59
2628.34
2634.4
2610.88
2575.36
2568.78
2568.61
2614.38
2625.72
2588.46
2535.4
2531.84
2543.71
2588.14
2648.53
2644.67
2636.11
2583.66
2546.49
2576.9
2619.94
2663.15
2666.97
2643.5
2610.09
2614.56
2608.74
2617.21
2641.33
2631.59
2585.83
2586.27
2588.01
2607.33
2668.98
2672.62
2624.02
2601.37
2603.37
2612.14
2675
2686.98
2683.17
2673.92
2645.72
2657.99
2664.24
2709.18
2713.94
2669.58
2639.13
2639.98
2664.25
2719.02
2702.95
2642.35
2623.04
2653.04
2723.86
2728.97
2715.76
2688.09
2705.94
2715.49
2723.24
2716.44
2703.07
2707.71
2701.74
2734.95
2749.05
2728.63
2694.23
2709.04
2723.93
2731.09
2731.61
2722.55
2745.08
2755.41
2728.38
2715.38
2715.5
2751.5
2767.99
2769.46
2760.1
2766.48
2777.29
2736.54
2740.24
2779.68
2781.78
2793.21
2793.07
2787.55
2774.06
2780.28
2788.78
2779.11
2787.56
2792.08
2786.06
2787.41
2785.98
2786.44
2786.63
2782.1
2773.5
2781.14
2779.3
2777.18
2775.84
2742.96
2739.83
2763.44
2779.56
2782.22
2777.59
2780.83
2781.71
2779.19
2777.24
2775.61
2774.22
2772.58
2771.03
2769.07
2766.13
2761.88
2755.51
2745.22
2731.53
2713.03
2692.31
2671.4
2649.21
2627.8
2606.11
2582.22
2560.54
2539.55
2527.53
2512.72
2895.03
2762.94
2711.26
2675.52
2659.63
2649.93
2632.67
2617.99
2613.85
2588.67
2584.74
2587.01
2593.91
2623.06
2623.72
2588.89
2521.15
2513
2528.92
2538.91
2574.73
2579.79
2559.37
2506.27
2502.59
2520.39
2543.32
2568.94
2570.89
2553.29
2513.8
2521.38
2519.86
2526.23
2546.5
2545.68
2534.7
2492.52
2488.57
2482.83
2468.2
2474.44
2495.58
2496.81
2451.78
2435.21
2436.62
2423.58
2419.89
2468.45
2479.48
2463.61
2458.31
2455.17
2440.96
2452.37
2485.53
2500.24
2490.94
2439.72
2411.94
2399.75
2402.85
2449.42
2481.82
2475.21
2449.32
2404.16
2399.64
2419.2
2454.54
2500.01
2505.42
2503.27
2452.67
2429.33
2425.93
2458.01
2505.37
2492.07
2429.96
2401.72
2408.81
2443.19
2503.82
2512.51
2488.06
2437.56
2438.36
2439.23
2480.57
2503.07
2484.93
2443.61
2452.15
2452.72
2485.48
2484.37
2461.34
2455.09
2452.27
2477.62
2494.84
2458.93
2428.06
2421.4
2439.53
2495.92
2522.96
2525.58
2524.39
2480.25
2482.12
2487.5
2487.17
2486.17
2497.16
2517.74
2517.36
2516.96
2480.15
2468.57
2468.82
2477.8
2530.01
2526.73
2479.46
2466.78
2478.27
2492.87
2546.24
2553.04
2532.78
2479.95
2489.82
2498.75
2553.26
2562.38
2535.38
2473.4
2469.27
2506.95
2568.71
2600.63
2598.03
2592.03
2542.16
2500.68
2525.34
2570.74
2595.82
2586.99
2519.59
2498.22
2522.27
2597.45
2604.04
2588.22
2541.53
2559.43
2597.2
2616.95
2581.85
2516.97
2514.65
2520.49
2588.57
2606.03
2605.42
2563.79
2560.01
2567.5
2607.07
2627.15
2603.09
2539.38
2535.8
2532.58
2545.03
2616.42
2622.44
2598.65
2543.31
2521.23
2539.13
2586.9
2644.21
2650.24
2642.18
2610.28
2596.98
2603.71
2619.92
2647.02
2645.54
2603.81
2589.88
2582.9
2586.37
2643.46
2660.5
2636.61
2595.92
2604.56
2600.75
2632.43
2680.93
2670.31
2663.38
2616.26
2599.38
2625.69
2676.23
2705.9
2697.77
2641.1
2644.77
2644.8
2700.58
2696.38
2628.85
2618.42
2622.02
2666.68
2722.34
2718.44
2700.07
2686.81
2710.11
2713.99
2710.98
2698.59
2697.32
2698.77
2705.36
2735.26
2729.52
2695.08
2688.38
2710.36
2734.75
2720.01
2706.63
2708.16
2741.9
2740.11
2711.14
2714.39
2719.66
2759.72
2756.98
2756.29
2749.71
2759.34
2742.4
2725.31
2767.74
2767.97
2771.3
2777.62
2777.65
2771.06
2766.47
2776.28
2774.63
2765.42
2782.49
2779.4
2778.17
2781.94
2782.37
2780.25
2780.03
2772.17
2769.67
2778.49
2774.43
2768.23
2742.68
2738.06
2743.63
2769.19
2775.63
2776.66
2772.7
2774.12
2775.99
2774
2772.11
2770.62
2769.43
2767.88
2766.64
2765.27
2763.33
2760.38
2755.14
2745.04
2731.36
2713.4
2696.97
2679.42
2660.46
2641.42
2623.04
2602.7
2584.1
2567.13
2558.24
2546.9
2888.2
2760.09
2714.26
2677.73
2656.22
2633.35
2610.97
2615.78
2616.7
2602.31
2588.34
2585.72
2585.83
2581.72
2571.24
2568.15
2527.96
2514.84
2523.89
2535.62
2573.46
2572.14
2510.58
2453.7
2457.83
2466.47
2511.79
2554.24
2558.91
2511.36
2480.69
2489.25
2509.36
2532.96
2541.94
2533.31
2486.85
2459.06
2467.53
2474.14
2488.4
2505.73
2495.77
2472.93
2427.84
2430.36
2425.46
2429.58
2455.13
2455.95
2407
2374.44
2382.96
2398.17
2421.41
2453.35
2474.71
2481.76
2466.13
2430.88
2416.76
2410.8
2429.5
2458.32
2447.91
2402.2
2368.77
2367.28
2374.11
2410.66
2460.69
2477.52
2475.12
2460.53
2436.22
2424.28
2436
2486.34
2494.41
2463.62
2407.46
2401.26
2400.11
2441.93
2487.38
2485.03
2450.95
2428.98
2433.34
2445.97
2492.82
2485.39
2452.81
2436.5
2451.4
2480.65
2501.53
2482.54
2460.49
2456.12
2456.7
2470.19
2455.06
2425.31
2420.24
2421.36
2457.5
2497.67
2485.94
2484.09
2475.62
2439.7
2464.51
2486.2
2487.18
2486.04
2495.33
2517
2513.42
2505.88
2465.95
2467.19
2466.7
2497.59
2526.62
2505.67
2454.13
2459.5
2476.28
2524.88
2545.15
2539.21
2494.21
2473.91
2489.3
2529.73
2560.73
2536.12
2464.13
2458.82
2463.61
2504
2574.98
2587.01
2589.02
2565.99
2482.59
2491.43
2539.44
2587.65
2583.65
2548.68
2486.62
2502.12
2560.73
2585.34
2579.82
2528.17
2509.61
2563.6
2602.78
2602.02
2537.07
2526.06
2520.06
2542.58
2588.25
2571.08
2514.53
2492.37
2516.96
2583.67
2614.35
2609.35
2563.8
2548.42
2537.76
2537.39
2586.25
2604.45
2577.45
2520.43
2514.54
2522.66
2543.82
2615.38
2626.12
2624.14
2573.88
2534.87
2546.87
2593.84
2636.88
2641.43
2636.31
2595.33
2586.26
2583.04
2612.63
2650.03
2640.06
2599.1
2599.84
2598.62
2609.65
2671.72
2667.18
2649.06
2597.1
2570.94
2583.25
2619.92
2678.88
2685.14
2655.54
2629.56
2650.02
2695.47
2706.24
2666.24
2635.32
2626.3
2626.71
2684.35
2696.48
2692.18
2673.25
2683.16
2693.08
2696.53
2693.44
2687.28
2689.48
2679.64
2710.2
2726.57
2709.44
2658.19
2674.34
2716.81
2737.5
2709.23
2692.06
2714.03
2725.9
2720.28
2703.78
2711.97
2739.35
2751.21
2742.02
2737.8
2736.28
2739.11
2707.22
2734.78
2773.4
2765.33
2763.21
2763.56
2763.57
2759.28
2760.32
2767.28
2746.65
2751.83
2771.44
2767.03
2769.79
2776.82
2778.59
2774.44
2770.31
2763.58
2767.92
2772.89
2762.31
2737.56
2733.4
2744.84
2761.84
2767.21
2771.2
2770.91
2769.29
2769.52
2771.51
2771.22
2769.38
2768.03
2766.95
2765.49
2764.4
2763.32
2761.9
2759.68
2755.05
2744.98
2731.3
2716.89
2702.82
2687.71
2671.64
2655.46
2639.99
2622.79
2606.76
2591.39
2583.32
2573.5
2879.17
2753.38
2709.66
2676.6
2651.42
2621.96
2612.13
2614.97
2614.11
2609.44
2594.51
2584.4
2565.76
2552.83
2559.98
2558.23
2532.41
2523.18
2536.31
2549.05
2551.44
2531.7
2493.7
2454.7
2458.4
2465.52
2508.31
2528.01
2507.03
2453.24
2428.45
2436.67
2452.33
2512.96
2531.84
2521.97
2464.46
2440.9
2454.23
2469.78
2494.24
2504.35
2490.15
2435.47
2402.69
2415.87
2422.51
2473.01
2482.45
2447.57
2372.25
2369.82
2375.86
2401.54
2442.96
2441.81
2443.2
2430.99
2399.3
2412.37
2418.65
2448.47
2457.87
2455.12
2424.47
2377.51
2373.15
2371.71
2391.78
2431.18
2424.45
2412.05
2360.86
2353.74
2366.89
2397.76
2450.42
2458.99
2460.57
2428.55
2415.65
2407.2
2416.98
2459.28
2453.56
2431.58
2378.78
2385.06
2408.05
2458.33
2478.91
2463.38
2422.79
2425.44
2451.71
2489.91
2493.4
2474.16
2463.72
2462.74
2465.84
2465.86
2435.91
2421.78
2416.79
2427.75
2463.39
2444.96
2438.97
2438.4
2400.51
2391.67
2435.23
2469.6
2476.12
2476.16
2484.91
2511.33
2506.11
2474.54
2446.5
2448.2
2455.78
2496.3
2498.76
2447.28
2431.58
2447.91
2500.74
2526.93
2522.52
2494.59
2444.61
2461.39
2517.02
2551.87
2541.86
2472.78
2463.27
2462.52
2474.06
2543.94
2548.31
2549.87
2537.86
2457.52
2457.39
2495.52
2565.09
2570.87
2557.62
2486.04
2488.11
2529.73
2566.76
2552.87
2506.67
2471.1
2514.61
2573.58
2575.25
2556.67
2521.67
2524.71
2531.39
2581.58
2574.71
2517.13
2483.72
2487.14
2515.62
2582.79
2591.96
2584.22
2543.86
2546.51
2542.45
2580.48
2608.9
2592.55
2533.44
2523.29
2515.95
2522.24
2576.67
2602.16
2597.33
2561.14
2502.74
2512.06
2526.88
2600.85
2619.97
2621.1
2612.02
2584.87
2579.33
2598.98
2637.06
2635.23
2604.52
2581.64
2592.56
2598.7
2654.61
2668.81
2657.32
2616.96
2576.56
2574.74
2589.26
2652.65
2665.29
2641.78
2592.94
2608.25
2672.48
2701.47
2699.96
2651.32
2638.52
2631.15
2645.03
2688.74
2669.02
2666.88
2650.65
2677.21
2682.96
2684.9
2676.77
2681.35
2675.76
2675.51
2706.65
2704.62
2648.76
2647.38
2668.41
2722.15
2727.81
2695.49
2696.04
2716.9
2708.85
2700.49
2695.41
2719.24
2741.74
2738.71
2730.74
2723.56
2713.13
2691.92
2709.14
2756.85
2760.76
2752.53
2753.73
2754.02
2752.1
2745.81
2746.85
2731.24
2722.61
2752.1
2755.45
2755.18
2761.89
2769.06
2771.26
2768.38
2758.87
2756.53
2766.03
2759.28
2731.72
2736.3
2741.02
2763.25
2764.94
2764.72
2767.43
2766.07
2766.2
2766.36
2767.61
2768.9
2767.69
2766.56
2765.34
2764.23
2763.23
2762.27
2761.08
2759.32
2755.27
2745.45
2733.44
2721.96
2709.71
2696.26
2682.14
2667.72
2654.25
2639.65
2626.64
2614.2
2608.42
2600.24
2825.22
2731.24
2701.23
2676.08
2649.52
2619.74
2609.09
2607.54
2608.02
2608.9
2600.63
2583.15
2541.97
2537.43
2540.63
2543.33
2550.16
2559.78
2562.65
2554.58
2530.05
2522.49
2510.53
2472.82
2470.13
2472.19
2500.96
2500.48
2448.37
2402.16
2391.98
2404.65
2433.62
2498.19
2499.28
2496.16
2429.09
2402.41
2414
2436.87
2492.88
2500.62
2474.35
2383.09
2365.46
2379.9
2419.18
2482.16
2483.36
2434.11
2376.88
2378.4
2374.05
2429.66
2449.7
2432.79
2411.83
2341.86
2332.74
2356
2415.36
2456.02
2450.52
2433.89
2381.75
2382.12
2377.57
2386.36
2437.14
2431.62
2413.63
2348
2331.42
2339.64
2359.44
2411.25
2435.4
2435.03
2411.54
2381.59
2403.12
2409.05
2453.63
2460.92
2435.31
2373.14
2369.7
2380.06
2409.63
2455.61
2450.17
2408.46
2368.1
2372.36
2427.42
2475.09
2470.42
2456.94
2454.06
2462.78
2466.37
2464.68
2431.83
2428.27
2432.46
2451.66
2446.59
2431.33
2435.61
2425.71
2395.29
2397.86
2436.21
2432.25
2419.6
2415.21
2433
2462.8
2455.11
2405.47
2404.48
2427.02
2457.62
2477.94
2438.86
2406.46
2428.45
2469.78
2508.17
2507.72
2486.45
2417.23
2424.87
2461.76
2528.7
2535.87
2508.49
2469.6
2469.48
2465.7
2518.04
2536.62
2521.39
2484.82
2424.32
2424.63
2455.51
2531.71
2554.89
2551.94
2507.1
2465.34
2502.63
2550.79
2547.33
2479.17
2444.89
2467.45
2547.03
2561.01
2540.42
2483.05
2492.31
2524.41
2574.2
2584.22
2550.29
2491.56
2491.65
2494.31
2554.96
2560.23
2552.56
2512.81
2503.17
2527.17
2559.1
2598.16
2598.51
2573.23
2534.88
2527.7
2526.62
2555.82
2588.84
2575.56
2526.54
2493.05
2501.5
2512.49
2561.56
2595.11
2587.57
2567.28
2541.99
2543.54
2577.04
2618.95
2620.61
2601.2
2542.21
2546.11
2570.41
2627.59
2654.08
2649.15
2631.02
2586.27
2586.67
2581.98
2627.12
2656.09
2627.82
2577.52
2582.01
2618.32
2665.69
2670.61
2676.06
2643.71
2635.56
2641.97
2694.62
2696.6
2659.95
2619.46
2619
2651.1
2655.53
2664.09
2665.43
2670.69
2664.37
2683.41
2692.95
2658.44
2632.11
2649.74
2688.58
2709.29
2686.96
2663.08
2705.89
2712.06
2697.04
2677.04
2685.69
2726.33
2731.78
2729.5
2720.92
2708.18
2673.34
2688.76
2734.37
2753.67
2745.14
2740.58
2741.92
2741.32
2723.34
2708.75
2705.85
2704.77
2732.18
2747.2
2738.8
2737.82
2754.19
2757.88
2758.75
2755.71
2749.86
2751.68
2750.48
2720.54
2732.43
2745.61
2758.07
2761.63
2761.81
2763.43
2763.14
2762.25
2763.65
2763.45
2764.73
2765.95
2766.16
2764.99
2763.88
2763.24
2762.54
2761.63
2760.67
2759.14
2756.03
2750.06
2739.4
2728.52
2717.37
2705.3
2692.75
2680.33
2668.5
2655.76
2644.34
2633.34
2627.82
2621.1
2809.29
2716.6
2691.09
2656.44
2639.84
2619.03
2599.85
2597.77
2597.63
2603.96
2602.06
2579.95
2527.14
2524.58
2530.97
2534.72
2562.41
2561.33
2552.04
2514.17
2503.7
2515.57
2513.94
2510.38
2518.32
2515.56
2496.33
2462.53
2454.04
2414.54
2403.2
2406.5
2440.06
2477.65
2471.2
2426.43
2363.41
2364.66
2382.23
2428.88
2481.56
2483.8
2443.11
2363.19
2355.89
2360.07
2411.9
2461.21
2458.99
2418.07
2379.35
2382.79
2408.37
2464.08
2455.96
2431.96
2372.2
2325.69
2325.04
2348.58
2422.86
2440.34
2437.27
2404.6
2359.07
2378.16
2386.78
2440.56
2447.41
2434.68
2397.44
2348.8
2343.98
2337.95
2365.92
2424.71
2416.01
2388.92
2320.63
2315.57
2348.82
2407.98
2450.99
2448.69
2406.1
2372.36
2376.56
2382.77
2434.94
2443.35
2424.19
2361
2359.28
2360.45
2414.74
2424.82
2424.65
2432.71
2423.6
2449.09
2457.25
2455.43
2439.94
2448.4
2452.64
2452.57
2437.61
2437.65
2437.22
2410.04
2398.21
2415.26
2434.82
2409.13
2373.24
2372.38
2399.9
2425.05
2412.98
2395.93
2401.09
2437.26
2456.17
2429.18
2399.26
2407.54
2456.37
2494.63
2489.06
2456.7
2398.16
2403.13
2431.33
2498.37
2504.54
2497.27
2457.93
2468.49
2474.61
2511.99
2533.2
2516.08
2458.27
2412.15
2414.3
2426.23
2493.33
2529.59
2526.11
2508.51
2444.62
2469.21
2529.76
2536.99
2486.05
2448.3
2446.85
2488.56
2545.3
2536.59
2478.82
2466.77
2465.03
2537.78
2571.51
2569.32
2523.15
2501.61
2496.02
2526.85
2554.92
2531.35
2467.79
2452.05
2455.7
2501.38
2565.53
2574.95
2576.54
2548.69
2534.81
2528.62
2559.72
2585.67
2581.24
2541.45
2500.32
2497.84
2503.43
2529.5
2574.12
2556.14
2517.26
2503.71
2502.5
2522.87
2586.93
2604.74
2586.03
2515
2514.12
2535.86
2589.37
2631.38
2632.86
2626.5
2585.6
2574.58
2585.95
2615.05
2655.4
2635.42
2577.65
2580.37
2591.67
2633.69
2613.77
2604.82
2612.5
2620.73
2630.16
2666.91
2696.61
2695.63
2644.41
2604.91
2625.49
2648.21
2640.63
2639.19
2649.37
2653.54
2669.4
2681.96
2671.22
2626.85
2637.37
2660.95
2692.64
2658.43
2637.06
2661.79
2701.4
2700.96
2673.44
2655.93
2692.24
2720.79
2721.22
2723.58
2713.65
2676.8
2672.62
2705.02
2747.7
2740.27
2732.67
2733.62
2727.91
2703.23
2696.11
2704.01
2706.04
2714.05
2737.39
2736.35
2711.07
2712.3
2716.69
2717.17
2719.59
2718.25
2718.12
2720.22
2710.85
2718.78
2738.76
2749.92
2753.33
2749.75
2759.76
2761.71
2759.4
2759.39