/*--------------------------------*- C++ -*----------------------------------*\
| =========                 |                                                 |
| \\      /  F ield         | OpenFOAM: The Open Source CFD Toolbox           |
|  \\    /   O peration     | Version:  2212                                  |
|   \\  /    A nd           | Website:  www.openfoam.com                      |
|    \\/     M anipulation  |                                                 |
\*---------------------------------------------------------------------------*/
FoamFile
{
    version     2.0;
    format      ascii;
    arch        "LSB;label=32;scalar=64";
    class       volScalarField;
    location    "0.0095";
    object      k;
}
// * * * * * * * * * * * * * * * * * * * * * * * * * * * * * * * * * * * * * //

dimensions      [0 2 -2 0 0 0 0];

internalField   nonuniform List<scalar> 
7220
(
698.558
785.369
774.802
710.61
675.702
682.456
1679.47
1661.38
1646.8
1704.62
1705.96
3868.79
2133.05
1359.28
2074.83
3330.35
3189.11
691.208
3102.56
666.659
3283.94
3857.5
509.853
1273.72
807.768
1212.21
8009.33
1016.85
3147.75
5700.16
1653.45
5241.87
610.156
5679.51
825.774
805.926
1005.56
1954.77
1708.44
624.471
641.918
641.529
624.08
532.746
559.846
584.123
564.561
547.033
654.992
663.307
662.975
654.622
666.668
665.102
664.894
666.389
658.901
648.631
648.586
658.77
635.124
619.428
619.809
635.227
602.57
585.364
586.014
603.13
568.889
554.163
554.602
569.515
541.956
532.628
531.939
541.959
526.406
523.437
520.388
524.708
523.826
527.631
520.829
519.113
534.431
525.824
534.819
545.662
560.251
520.987
603.188
602.812
639.531
622.138
579.957
605.48
579.443
602.149
538.811
523.753
529.516
523.406
521.701
537.639
528.798
564.439
549.648
598.79
581.17
632.396
616.209
656.875
646.285
665.12
663.342
653.716
661.918
623.323
640.72
660.867
652.571
662.662
664.22
646.186
656.467
617.168
632.68
582.989
600.317
550.743
566.132
526.552
537.443
512.612
518.205
510.115
509.921
513.717
551.724
602.074
600.939
518.937
506.791
605.635
628.419
568.286
588.984
570.312
535.114
613.919
591.422
538.256
552.633
519.875
527.279
517.056
516.402
530.377
521.837
557.375
542.373
592.783
574.545
627.709
610.887
653.195
642.146
662.091
660.031
651.036
659.095
620.803
638.136
577.645
575.226
599.602
578.383
578.733
597.675
573.476
576.6
636.037
618.755
657.12
648.96
658.576
660.313
641.633
652.182
611.732
627.708
576.575
594.422
542.866
559.032
516.713
528.658
500.43
507.185
496.365
496.759
499.385
578.817
554.611
498.59
487.048
550.794
548.445
593.154
569.129
633.569
607.343
636.756
643.807
568.343
581.27
555.565
616.736
514.326
589.698
534.031
549.767
513.094
521.804
508.516
508.606
521.316
512.895
548.753
533.431
585.392
566.486
621.766
604.237
648.379
636.824
657.955
655.608
647.224
655.158
617.1
634.394
571.604
595.93
551.542
551.855
546.91
549.866
631.224
614.083
651.968
643.994
652.917
654.93
635.329
646.223
604.03
620.795
567.221
585.925
531.395
548.68
502.662
515.944
483.852
491.796
478.023
479.191
480.641
533.053
544.909
542.77
660.719
640.508
610.599
668.346
614.818
484.338
472.535
500.158
647.262
566.912
540.297
518.776
514.878
680.117
674.017
646.876
680.723
731.213
672.602
696
700.293
602.125
559.473
579.616
525.795
541.357
503.937
513.061
498.736
499.097
511.48
502.968
539.569
523.837
577.483
557.885
615.304
597.072
642.982
630.96
653.116
650.548
642.555
650.442
612.401
629.72
591.215
516.665
522.337
520.075
523.095
523.365
521.541
537.563
587.528
563.69
625.301
608.302
645.72
637.926
646.089
648.436
627.654
638.986
594.884
612.642
555.97
575.755
517.792
536.298
486.685
501.114
466.467
474.955
460.946
461.634
464.682
539.03
518.388
589.605
562.56
624.237
644.85
512.192
509.945
477.769
463.977
493.742
671.966
683.822
710.768
719.807
756.434
721.933
772.4
583.73
733.792
628.335
606.602
789.237
546.586
564.212
514.587
529.633
493.409
502.189
488.618
488.811
501.808
492.992
530.774
514.553
569.956
549.642
609.061
590.214
637.569
625.205
647.972
645.332
637.285
645.269
606.874
624.32
561.27
585.598
506.742
534.708
478.153
487.671
483.389
493.073
490.924
493.831
494.054
489.849
492.412
481.601
486.217
476.075
531.401
504.074
580.95
557.292
618.482
601.59
638.692
631.012
638.605
641.234
619.215
631.082
585.184
603.692
544.043
564.961
503.679
523.285
471.017
486.054
451.041
459.174
447.929
447.113
453.687
531.355
511.683
582.71
554.41
620.447
658.562
680.127
749.218
633.408
477.733
460.995
495.853
500.389
472.018
453.237
448.086
762.894
777.976
797.551
829.397
840.545
873.359
853.719
694.942
728.571
821.333
773.08
666.502
842.729
616.477
567.937
589.838
534.258
550.158
503.394
518.447
483.217
491.413
479.255
479.078
493.229
483.977
523.246
506.483
563.621
542.681
603.733
584.43
632.664
620.176
642.87
640.394
631.631
639.915
600.656
618.364
554.771
579.192
528.227
449.642
458.639
454.601
463.739
461.706
464.499
464.68
460.859
463.208
457.513
469.694
524.375
497.337
573.556
550.046
610.975
594.114
631.175
623.499
630.913
633.674
610.767
623.102
575.565
594.644
532.536
554.434
490.41
510.833
457.115
472.213
438.848
445.8
439.714
436.689
447.972
534.039
514.383
593.18
559.611
698.911
639.04
767.677
722.301
649.948
443.805
442.104
463.254
483.11
710.693
741.785
808.443
824.811
845.028
868.423
827.213
794.216
786.796
865.814
1127.8
882.641
695.082
698.862
613.498
650.625
560.734
584.212
527.092
543.029
495.147
510.597
475.354
483.259
472.015
471.506
486.728
477.039
517.855
500.535
559.242
537.822
599.939
580.421
628.699
616.396
638.075
636.074
625.741
634.577
593.831
611.965
547.469
572.06
493.16
520.895
437.116
465.012
410.012
421.791
416.311
430.212
426.436
434.978
433.074
435.73
435.873
432.424
434.564
425.437
429.365
415.136
420.685
408.802
462.495
435.316
516.547
489.788
565.456
542.035
602.961
586.017
623.447
615.617
623.395
626.086
602.926
615.522
566.743
586.354
522.319
544.956
479.038
499.94
446.019
460.702
430.591
435.765
436.386
430.72
447.403
545.981
504.405
524.859
617.716
576.478
735.686
670.928
883.536
807.608
902.673
932.658
715.83
745.392
705.335
812.48
774.6
1218.75
752.725
755.702
868.56
791.373
429.561
402.877
389.246
383.39
894.522
638.56
922
640.967
798.735
940.012
909.767
1555.51
951.962
861.969
811.897
2287.3
841.398
769.661
802.909
962.43
836.663
886.618
920.41
895.224
872.486
816.633
1076.57
814.099
2924.51
873.701
862.226
1427.02
800.23
892.207
909.355
872.594
833.558
882.443
718.88
777.192
625.414
667.409
564.438
591.357
527.014
545.082
492.102
508.582
471.5
479.704
468.036
467.487
483.218
473.229
515.396
497.543
557.511
535.805
598.172
578.782
625.973
614.26
633.736
632.591
619.677
629.356
586.412
605.153
539.358
564.206
485.051
512.706
457.127
384.146
395.09
390.004
402.884
399.39
407.29
405.53
408.027
408.132
405.052
406.984
398.697
402.276
394.348
401.654
454.47
427.702
507.943
481.428
556.718
533.299
594.576
577.398
615.756
607.554
616.422
618.775
596.223
608.775
559.542
579.481
514.202
537.324
470.347
491.423
438.367
452.252
426.559
429.601
438.018
429.368
470.634
451.989
519.385
493.566
568.648
543.322
653.936
604.351
792.678
717.442
965.636
878.822
1041.6
1035.14
986.064
1034.81
926.46
836.374
840.671
897.185
1139.42
1052.23
1056.78
681.359
377.491
376.736
886.904
874.152
954.632
972.606
939.406
616.973
772.292
905.215
1173.89
1145.23
882.585
977.242
567.404
605.345
913.968
5109.89
1004.01
1261.63
837.363
773.734
977.03
834.812
1284.67
1264.68
688.205
1212.03
1319.84
891.665
971.88
955.283
883.926
940.222
755.977
819.883
650.462
699.368
580.059
610.68
535.395
557.152
495.152
513.424
472.448
481.558
468.125
467.848
483.543
473.344
516.542
498.275
558.923
537.228
598.751
579.949
624.62
613.988
629.862
630.007
613.379
624.219
578.319
597.856
530.357
555.543
475.991
503.578
421.067
448.287
369.95
394.827
346.719
359.858
353.713
369.915
365.248
377.06
373.859
381.1
379.486
381.804
381.88
379.14
380.876
373.394
376.635
364.783
369.44
353.262
359.408
346.234
393.6
369.185
445.548
419.182
498.516
472.194
547.328
523.81
585.873
568.275
608.257
599.405
610.299
611.971
591.133
603.25
554.666
574.604
508.927
532.295
464.916
485.958
434.417
447.289
426.572
427.281
444
432.236
482.66
461.08
538.615
508.497
605.124
571.043
701.833
646.191
863.605
775.38
1068.68
964.717
1216.85
1161.57
1214.34
1316.44
1057.31
895.786
999.999
886.524
918.768
968.205
1425.8
602.231
609.442
1195.37
1760.37
1497.11
953.759
1438.54
1429.19
1137.53
1025.24
1047.44
1064.15
1474.85
546.107
923.398
361.342
338.678
331.449
324.941
520.711
1070.47
962.219
931.514
1507.59
890.303
1012.86
1136.44
2336.15
1067.05
2969.55
2283.89
1591.98
771.362
2943.16
2789
854.827
799.887
1315.63
1228.32
1043.5
1156.75
1725.75
1051.24
594.006
738.069
1441.84
895.182
1630.35
1381.62
2589.94
763.999
1408.32
1868.27
1438.25
1549.06
606.69
1032.23
699.672
2749.25
1075.97
1085.2
958.41
1028.01
809.599
883.174
689.089
744.495
610.122
645.013
550.76
579.879
504.34
524.978
478.239
488.819
472.566
472.743
488.088
477.726
521.663
503.131
563.747
542.406
601.746
584.059
624.547
615.562
626.266
628.172
606.636
618.961
569.346
589.861
520.276
545.878
465.797
493.335
411.462
438.319
385.686
325.311
337.376
331.752
346.535
342.289
353.026
350.12
356.696
355.228
357.353
357.41
354.974
356.528
349.802
352.724
341.999
346.227
337.094
338.113
384.454
360.541
435.56
409.58
488.105
461.927
537.164
513.429
576.769
558.534
600.95
591.122
605.174
605.739
587.989
599.183
552.659
572.166
507.17
530.507
463.264
484.196
434.148
446.095
429.784
428.493
452.482
437.969
496.511
472.289
558.945
525.158
641.585
598.103
755.876
691.978
934.124
837.282
1164.76
1045.88
1377.13
1281.29
1428.84
948.279
1173.18
1458.07
1318.13
2481.65
879.702
2448.83
1006.48
1704.67
1421.87
1055.63
2528.32
2687.07
3013.72
1622.92
2278.13
1927.8
1642.61
1537.31
3616.35
540.673
904.989
862.128
317.846
317.346
498.147
748.02
2144.77
1081.16
1421.48
827.055
1035.18
1088.98
1142.2
1115.92
1395.03
1611.28
1467.64
1632.3
1122.58
1155.15
1171.91
2717.01
1797.46
2828.93
2434.73
1291.27
1536.15
1537.32
1287.81
1289.66
1715.87
2615.14
1466.45
1393
1050.63
736.6
2373.68
917.981
947.707
1647.7
1249.26
1150.23
1123.69
1995.99
1304.9
1103.97
1077.51
493.999
714.546
927.938
812.976
1552.12
984.289
1612.22
1662.17
1659.45
1657.46
1599.85
964.716
1229.06
1421.23
1013.85
959.27
969.921
791.966
599.042
684.439
1565.92
1044.86
1094.41
958.699
2142.74
756.678
1581.06
1540.82
1143.28
1559.16
1670.5
1079.27
617.402
542.061
1149.32
1142.72
1723.57
714.842
3308.21
1203.29
1241.37
1047.98
1133.69
874.41
958.635
738.581
800.761
644.266
687.478
570.575
605.511
517.657
541.193
487.749
499.864
480.887
481.412
496.774
486.146
530.822
512.141
571.933
551.341
606.921
590.981
625.37
618.66
622.517
626.669
599.027
613.15
559.115
580.772
508.77
534.85
454.142
481.637
400.421
426.899
351.33
375.127
308.991
329.245
290.608
305.821
298.911
316.837
311.722
325.117
321.284
330.965
328.348
334.269
332.947
334.866
334.913
332.743
334.132
328.102
330.726
321.058
324.882
311.439
316.601
298.343
305.433
289.783
328.54
308.29
373.875
350.454
424.177
398.559
476.394
450.3
525.911
501.832
566.971
547.88
593.6
582.435
600.928
599.891
586.875
596.549
553.86
572.372
509.438
532.391
465.813
486.644
437.399
448.862
435.177
432.613
461.427
445.025
509.387
483.174
576.96
540.304
670.92
620.51
800.7
729.897
986.887
885.755
1233.55
1104.04
1496.92
1368.57
1661.09
1597.95
1691.75
495.233
1105.04
1164.15
1545.04
1539.04
849.041
1792.04
1431.84
1147.18
1289.46
937.095
1022.77
874.99
891.812
856.92
1104.8
1416.09
1089.07
1718.61
1157.81
2960.52
2076.34
1289.01
1852.55
1283.29
1700.15
1120.33
1193.12
1274.89
1125.53
1319.48
1722.77
1695.54
1286.84
1708.5
1759.41
1777.65
1792.31
1791.73
725.42
2021.03
959.601
1266.08
933.771
1010.74
1148.09
1539.56
1329.54
989.115
1726.14
1186.44
1196.42
1238.77
2425.24
1944.38
2868.34
2613.89
1063.28
469.654
1135.26
298.161
280.314
281.139
273.038
742.207
2232.69
728.745
1123.53
960.756
1457.65
1088.86
1577.44
1639.58
1727.07
1023.04
1723.22
916.359
838.403
481.805
1048.6
638.793
828.45
1276.28
1717.12
612.603
1232.22
884.73
2464.55
673.457
1735.33
1794.79
1331.75
975.531
1775.11
758.795
1804.77
1193.74
633.253
549.568
1937.81
1154.15
501.103
919.255
1253.75
2127.08
834.804
734.057
1616.62
1726.09
1657.68
1561.48
1101.53
1381.84
1427.81
1402.23
1347
1411.33
1148.13
1254.04
944.613
1041.68
788.793
860.284
676.038
728.086
591.211
630.457
531.84
558.15
499.203
512.204
492.396
492.652
509.452
498.222
543.922
525.241
583.114
563.823
613.649
600.211
626.326
622.566
617.843
624.717
589.847
606.047
546.992
569.917
495.259
521.854
440.472
467.919
387.391
413.474
339.351
362.592
317.845
274.068
288.265
281.866
298.295
293.662
305.739
302.3
310.969
308.631
313.917
312.738
314.446
314.49
312.547
313.789
308.39
310.741
302.05
305.496
293.297
298.011
287.757
279.15
316.935
297.181
361.292
338.348
410.84
385.555
462.823
436.758
512.99
488.453
555.88
535.715
585.603
572.742
597.031
593.849
587.422
594.885
558.21
574.976
516.014
538.076
472.947
493.682
444.253
455.883
442.135
439.412
469.596
452.443
519.079
492.236
589.891
550.962
687.612
635.207
821.572
749.403
1003.58
905.532
1246.37
1116.61
1535.82
1388.92
1781.35
1672.07
1909.56
1859.43
1938.98
1574.44
1526.78
1560.06
1395.71
1472.86
1467.3
1155.66
1293.09
644.932
690.75
830.605
756.278
916.497
1405
1354.37
1236.47
1490.53
1429.98
1622.82
1553.29
1687.54
1534.26
1653.08
1074.08
1788.76
787.376
1652.77
1620.76
1570.16
1644.38
1405.99
1532.37
1112.11
1259.46
933.348
999.567
927.774
916.77
939.498
1113.01
1411.3
1421.97
894.12
1101.88
1772.52
1227.33
2792.56
2242.66
1047.77
1055.54
851.426
468.352
1785.41
1364.86
2097.86
953.367
264.255
262.844
1382.74
1222.29
1355.52
1274.61
1444.61
2428.17
1534.55
1792.99
1867.54
1980.91
1958.84
719.076
1883.12
865.498
1114.21
1048.74
778.527
1693.98
1152.79
1356.47
1172.31
1348.78
1075.22
1022.09
831.408
1694.13
1803.36
1497.39
1753.39
1054.2
929.745
997.989
2113.86
981.444
990.95
1045.46
2103.21
2773.89
2721.71
884.88
1135.78
3739.77
3306.53
1444.11
455.363
1189.43
1969.8
1386.82
1394.1
769.905
2082.76
619.536
976.857
1236.22
923.684
1553.44
1000.27
1328.18
1830.73
626.258
1467.46
824.295
1322.35
2822.66
480.222
622.272
1029.69
992.96
849.517
1099.31
1044.62
1028.05
611.95
1868.93
1995.17
1557.38
1063.01
873.525
2050.41
677.291
1013.76
1065.57
633.858
592.012
1939.19
1370.21
652.498
562.383
1024.83
1014.15
974.286
1012.18
978.052
1022.83
992.006
1040.51
2059.86
1254.31
512.364
741.152
1383.79
2206.83
1239.17
476.55
2498.85
2368.77
1490.56
757.788
1938.02
1315.85
1627.22
1679.5
1661.89
1648.01
1684.2
1468.94
1575.02
1218.19
1345.89
990.583
1097.41
821.139
898.958
697.466
754.664
606.761
648.252
543.628
571.157
511.658
524.057
506.999
506.054
526.219
514.041
560.666
542.384
596.437
579.281
620.71
610.677
626.099
625.985
610.996
621.025
577.971
596.456
531.963
556.228
478.804
505.919
423.886
451.268
371.488
397.156
324.527
347.203
284.48
303.602
251.558
267.155
237.594
259.297
249.898
272.595
266.654
281.73
277.535
288.402
285.329
293.055
290.977
295.665
294.623
296.12
296.167
294.416
295.529
290.692
292.799
284.989
288.094
277.024
281.33
265.714
271.908
248.218
258.024
235.464
265.589
249.712
302.42
283.154
345.82
323.343
394.641
369.672
446.457
420.381
497.423
472.34
542.45
521.031
575.839
560.954
592.335
586.471
588.612
593.087
565.003
579.09
526.704
547.098
484.973
505.388
455.173
467.605
450.804
449.249
476.282
460.035
524.567
498.133
594.226
556.088
686.913
637.385
809.831
744.305
968.987
884.253
1181
1066.99
1456.03
1312.54
1741.3
1603.6
1952.68
1858.82
2022.15
1295.3
1353.91
1106.45
1211.72
847.798
984.516
848.258
619.478
723.811
586.46
626.376
747.179
682.628
888.519
815.856
966.944
1221.19
1225.05
1571.45
1519.49
1658.79
1608.23
1781.99
1723.74
1753.29
1803.71
1594.3
1121.42
1698.33
1923.82
748.944
1490.07
1593.77
1543.73
1618.14
1371.27
1503.12
1072.71
1217.07
928.995
970.9
971.681
935.254
1018.03
851.57
1402.93
1259.18
763.698
883.466
916.786
1802.45
1631.52
1914.37
1043.58
945.514
2522.08
1202.72
1114.1
2428.76
865.816
1049.01
2078.38
1721.62
1414.3
831.974
1531.48
1533.45
454.722
1576.96
1432.53
712.995
934.87
1312.41
2004.08
838.157
1669.1
1377.77
1259.32
1401.69
822.731
1618.05
1938.16
1883.45
738.531
1712.96
808.686
986.471
619.871
1698.61
1165.44
1150.28
992.895
1055.64
828.222
697.529
1617.49
1870.3
2105.36
636.35
639.642
643.268
938.882
883.692
4146.23
1797.79
1058.97
2267.52
2555.8
2694.5
775.808
992.773
1184.39
3183.34
883.369
450.396
965.251
234.975
221.467
235.183
222.748
1305.98
1323.46
875.451
820.754
1900.28
593.603
1000.04
1579.89
3956.74
1158.81
988.326
1218.55
1590.07
1287.71
594.787
1162.73
1940.29
1974.42
1803.17
485.103
947.174
1230.17
1049.66
822.916
791.844
1425.55
2408.11
1994.47
2070.86
989.655
625.347
876.603
1120.84
559.792
539.873
710.837
2026.98
1583.18
2051.44
916.053
1056.7
673.055
579.247
687.225
2853.97
1091.95
550.949
2143.86
1418.18
1071.69
527.29
619.687
1542.96
581.813
550.177
2265.65
1323.5
489.674
1337.13
977.586
2387.15
464.158
706.413
1580.58
1760.73
1543.65
1987.47
1555.54
1828.25
1892.64
1866.3
1880.15
1900.79
1736.23
1829.17
1472.48
1612.58
1196.43
1330.06
976.748
1078.37
816.946
890.613
698.247
753.405
611.194
650.824
551.815
577.577
524.859
534.595
525.127
521.882
547.053
533.936
580.047
563.069
610.096
596.264
625.95
620.323
622.56
626.744
600.032
613.539
561.654
582.538
512.456
538.059
457.943
485.536
402.999
430.261
351.397
376.593
305.622
327.68
266.814
285.326
250.057
225.14
246.182
237.123
258.715
253.168
267.065
263.257
273.042
270.299
277.169
275.33
279.468
278.553
279.85
279.903
278.313
279.314
274.972
276.863
269.836
272.637
262.57
266.514
252.001
257.826
244.663
218.914
248.083
232.703
283.837
265.118
326.187
304.22
374.217
349.592
425.842
399.762
477.653
451.989
525.002
502.213
562.492
545.324
584.879
575.859
588.435
589.146
572.416
582.761
540.269
557.866
501.625
520.966
470.873
484.288
462.206
463.106
482.093
468.663
525.401
501.441
587.783
554.146
667.354
625.542
765.574
713.979
885.177
822.245
1041.41
956.933
1260.86
1142.1
1528.7
1392.07
1788.42
1662.63
1900.73
1229.19
1184.68
1220.89
1038.85
1121.65
839.048
944.285
631.68
729.879
493.604
552.594
487.105
432.006
453.868
549.019
572.723
668.368
613.592
809.594
735.305
959.225
884.642
1111.58
1034.62
1188.37
1333.98
1704.15
1646.77
1813.96
1756.71
1880.13
1868.31
1644.82
1809.94
1176.96
1407.01
984.267
1487.61
1809.97
742.436
1309.05
1501.53
1210
1335.6
1554.98
1577.75
1325.99
1462.91
1024.75
1167.19
911.231
935.197
990.987
933.878
1143.36
1070.52
1247.07
630.113
1409.67
1065.9
771.789
881.129
755.045
1804.97
2307.4
641.804
906.83
1893.08
1592.9
2184.63
1110.77
2560.86
739.455
1076.24
3253.05
3402.32
449.865
943.813
1657.14
1052.91
2708.15
4156.71
1532.07
934.932
209.406
206.608
1325.51
1379.63
1498.13
1007.21
1332.57
1623.99
1567.4
784.391
1503.1
792.484
897.434
1027.15
1181.44
580.152
1715.22
1191.05
4379.67
4301.28
3701.88
5092.52
924.901
804.147
1044.84
596.709
1491.16
1910.76
1664.2
2004.24
496.262
557.639
536.6
907.114
2675.36
1717.68
1306.82
845.909
829.046
1488.06
1070.33
1091.42
2523.9
687.869
726.285
1329.46
1266.17
2867.87
1693.28
1821.11
2140.3
893.393
1655.1
1180.97
1033.3
1098.98
594.698
1029.8
1542.13
1433.89
1084.52
1178.32
1457.82
781.068
3440.65
1268.38
539.062
982.011
2019.04
2991.6
4270.66
1816.12
2462.14
453.511
920.078
543.267
593.225
556.67
1011.35
3132.41
3037.46
1197.95
1093.53
3445.33
1977.03
3060.32
598.833
803.554
636.976
793.696
853.859
1569.47
914.713
1146.4
1650.33
1565.25
1784.84
1529.04
522.08
603.432
2135.77
423.522
415.916
426.303
5010.52
1618.63
4887.07
5625.31
1106.32
1531.95
545.155
553.68
844.928
1557.73
700.982
3688.73
1442.47
2729.15
1123.35
1753.57
521.073
424.392
459.615
2247.31
426.39
3155.57
1476.51
505.867
1454.8
967.527
524.463
2343.08
1402.16
478.484
460.153
927.178
526.119
2411.07
952.778
1342.76
1688.24
1648.34
1635.39
1564.25
1722.72
1679.68
1746.79
1873.66
1954.84
1918.89
1958.91
1969.99
1842.75
1917.15
1600.96
1735.63
1311.41
1454.46
1065.43
1178.62
894.582
972.408
771.205
828.633
675.696
720.467
604.203
636.912
557.476
577.245
540.247
545.438
547.183
541.091
570.687
557.557
599.3
585.193
620.569
611.517
625.808
625.542
612.471
621.431
582.082
599.209
538.374
561.61
486.197
513.018
430.623
458.541
375.993
402.959
325.585
350.104
281.455
302.658
244.41
262.041
214.255
228.511
190.236
201.539
180.22
214.066
198.665
234.594
225.8
246.503
241.28
254.182
250.708
259.553
257.099
263.214
261.586
265.234
264.433
265.548
265.608
264.153
265.058
261.146
262.848
256.504
259.041
249.842
253.476
239.901
245.417
223.632
232.85
195.674
211.455
177.057
198.726
187.217
226.232
211.691
260.297
242.419
301.078
279.867
347.903
323.815
399.028
373.084
451.473
425.32
501.07
476.927
542.804
523.249
571.587
559.101
583.509
579.824
576.916
582.513
553.475
566.941
520.665
537.589
490.884
504.495
477.781
481.523
489.416
480.419
523.401
504.082
573.717
546.808
634.284
603.183
701.051
666.888
774.31
736.668
863.678
815.559
998.984
922.772
1196.34
1091.05
1435.8
1312.11
1563.97
1141.09
1139.59
1068.52
1119.95
890.222
989.334
678.645
782.983
521.801
589.265
439.162
472.644
410.377
419.295
409.811
709.536
643.25
874.045
788.896
1035.62
957.364
1185.21
1111.41
1258.96
1420.67
1383.95
1382.99
1426.53
1783.3
1722.29
1886.81
1841.76
1811.01
1891.56
1448.14
1654.84
1018.72
1210.96
876.947
902.331
661.246
1493.69
768.352
1134.6
1455.69
1307.02
1505.82
1526.54
1274.73
1414.19
971.48
1113.81
869.414
885.175
985.493
906.469
1207.31
1096.51
1249.05
571.401
1435.63
4760.24
3911.84
853.794
783.634
884.895
634.366
1756.91
3714.46
3414.18
1691.48
1995.69
1549.67
1168.2
1065.96
2877.06
3307.43
1198.13
4654.09
2771.1
513.991
872.912
790.38
1471
826.613
1824.16
3077.05
1139.6
2578.56
629.29
672.98
1137.51
3212.31
1019.73
927.873
3379.44
4999.1
1726.09
1227.18
815.646
2454.7
1574.08
1747.33
1934.82
2421.7
1675.17
748.673
960.23
1095.34
855.31
1269.93
855.001
1063.91
577.871
2034.22
1747.42
1225.93
1337.29
1151.98
1240.69
1380.23
734.204
997.786
5494.1
1899.53
3058.17
952.235
1043.73
531.29
1315.48
1887.29
434.487
431.928
444.207
447.04
3316.57
3804.1
1239.38
1254.01
1708.98
2010.12
3000.83
2292.06
2199.37
465.351
542.233
513.527
879.05
530.076
4454.76
1602.03
1565.47
813.207
790.918
782.487
632.834
1161.09
3015.29
2922.81
1133.52
3275.73
620.038
2593.11
2221.19
651.324
890.677
985.325
718.705
602.601
1329.14
1169.95
173.33
165.102
185.98
168.121
1489.09
1449.26
1510.43
952.469
930.737
1769.71
1381.06
606.698
920.427
709.338
1387.21
1069.22
1447.35
1085.93
1204.32
1476.85
540.423
1261.35
3087.41
550.544
501.531
810.112
2010.74
437.738
3308.15
4349.61
1280.74
1835.6
2164.17
2920.79
2262.13
453.432
897.649
522.19
641.95
743.763
852.314
1143.87
3230.42
565.287
4253.69
3713.52
2954.59
1524.45
653.833
913.055
1730.19
961.996
1776.66
1594.26
953.082
1177.79
1593.79
2048.22
1512.88
496.535
532.335
2115.66
433.733
5011.22
994.415
1663.95
1459.6
2826.08
2566.97
3517.12
1158.93
524.164
2957.24
717.151
905.596
2235.31
1607.68
1826.4
1718.2
958.718
501.253
449.668
2195.93
942.509
1543.31
2779.3
495.923
475.393
914.396
507.454
2252.65
1492.25
3177.59
992.199
4442.02
1598.96
1539.37
1772.97
1810.52
1756.52
1960.04
1884.75
1834.21
2083.22
2028.7
1780.39
1712.76
1796.18
1760.58
1813.46
1815.85
1721.85
1782.43
1520.77
1633.24
1260.63
1393
1031.5
1137.67
874.72
944.675
774.692
819.724
701.072
735.957
640.026
669.071
592.744
614.411
564.417
575.599
559.266
559.253
571.4
563.631
592.54
581.516
612.587
603.375
622.005
619.105
615.102
620.771
591.435
605.259
553.436
574.001
505.031
530.264
450.737
478.323
395.165
422.848
342.14
368.135
294.44
317.497
253.662
273.135
220.239
236.046
193.738
206.169
182.834
171.36
204.234
189.111
224.389
215.788
235.813
230.848
242.939
239.743
247.793
245.588
251.054
249.609
252.831
252.13
253.084
253.151
251.81
252.632
249.088
250.628
244.868
247.179
238.714
242.087
229.283
234.55
213.433
222.454
201.451
162.081
180.033
170.385
203.797
191.124
234.192
218.13
271.561
252.005
315.556
292.788
364.81
339.656
416.796
390.665
467.831
442.702
513.305
491.574
548.358
532.411
569.084
560.7
573.145
573.26
560.668
568.728
536.849
549.691
511.316
523.534
496.067
501.708
499.609
495.285
521.555
508.602
556.32
537.751
595.964
576.194
632.245
614.736
663.746
648.472
695.831
679.08
749.448
715.935
862.266
798.155
1035.86
941.749
1259.42
1142.74
1493.51
1381.03
1095.61
1095.43
1019.07
1072.18
831.394
936.172
619.4
719.446
485.841
541.913
424.323
448.031
406.258
411.314
412.783
407.19
421.443
457.867
487.696
473.928
489.231
472.694
533.012
508.427
609.294
565.029
747.187
669.118
937.339
840.18
1109.71
1027.49
1258.51
1186.5
1402.17
1333.37
1456.59
1442.3
1433.77
1487.23
1770.63
1724.89
1797.61
1803.95
1611.53
1732.06
1336.28
1488.37
958.022
1130.95
829.783
916.702
21127.6
1223.78
824.028
992.707
1161.51
1049.37
1082.86
1408.13
1279.76
1455.71
1473.21
1230.52
1367.56
932.442
1071.94
832.924
847.605
969.681
877.237
1283.95
1116.22
1367.88
563.533
1469.02
1246.93
1308.53
680.736
1313.24
1207.76
799.015
892.933
2540.14
1639.6
460.36
3485.4
2006.65
4175.7
3697.36
1842.57
2972.39
2640
1002.75
3352.17
3159.8
2890.69
1589.71
2037.56
485.603
843.228
6862.34
1615.51
1394.59
780.354
14778.1
2941.19
1177.32
1326.41
2413.93
591.121
1160
1460.15
653.583
1063.52
7752.55
6082.62
2747.58
8961.21
1274.3
1656.08
6922.19
158.027
155.008
1653.2
1517.59
2550.56
1068.26
1042.05
954.697
955.487
1077.76
865.946
589.258
1039.02
1235.27
2050.51
1769.61
1268.5
1345.82
1160.54
1266.1
1401.01
616.604
550.618
3245.6
24592.6
1048.85
507.959
490.45
1107.33
1770.01
450.001
3343.44
3833.29
1722.91
2017.11
2657.63
3174.98
4566.64
1332.11
2229.52
465.588
547.823
515.692
855.352
506.635
474.074
485.001
2309.3
1479.1
785.303
759.144
737.872
1507.27
1348.25
495.836
1276.94
941.452
2779.58
2785.17
1184.44
2470.35
586.752
467.556
2299.05
1467.53
1820.45
1060.61
2871.21
2760.35
1886.84
4349.31
1217.15
1053.52
1043.67
1060.73
624.903
1008.34
1533.93
1117.85
1464.44
1098.56
2085.39
2037.22
2018.46
1235.62
1500.09
2477.05
3051.5
2989.11
6443.86
1264.34
477.895
671.298
1872.2
443.756
1558.23
3336
4300.26
1311.3
1864.39
889.529
2361.42
3075.49
2013.68
1241.24
1231.4
1335.96
1381.3
464.622
879.745
510.215
3309.39
708.987
701.133
739.286
1198.08
1448.66
544.551
1907.12
1842.32
1555.8
1013.22
738.117
673.909
1000.83
1964.21
1013.46
1631.92
1876.64
1214.25
4444.59
4621.55
1825.25
1018.84
1510.63
2793.86
481.053
495.014
1945.14
449.335
4846.08
1023.2
1719.58
1010.77
2523.38
2753.94
885.961
2449.32
1700.66
515.558
493.806
903.511
489.37
1990.92
1617.8
2700.02
1095.9
1076.49
1931.96
1899.52
2118.78
2004.11
2314.41
2233.21
2341.29
2353.15
2255.87
1358.82
1479.7
1441.27
1500.38
1500.59
1429.13
1476.6
1278.87
1362.16
1082.83
1183.53
892.085
983.377
756.251
815.181
688.838
715.27
654.694
670.009
627.252
640.794
601.173
613.94
579.96
589.581
570.606
573.263
575.563
571.662
588.591
581.492
602.759
596.026
611.018
608.119
607.244
610.893
588.514
599.775
555.86
573.775
512.257
535.197
461.638
487.561
408.43
435.078
356.793
382.196
309.84
332.582
269.596
288.796
237.004
252.324
212.049
223.607
193.999
202.222
181.876
187.261
174.712
177.731
172.73
163.532
151.988
195.515
180.615
215.429
206.952
226.498
221.728
233.184
230.212
237.612
235.612
240.536
239.245
242.109
241.492
242.31
242.383
241.137
241.89
238.654
240.059
234.785
236.909
229.046
232.207
220.009
225.088
204.452
213.341
177.392
192.605
149.005
160.266
170.095
174.933
171.97
184.593
179.114
199.872
191.463
221.715
209.923
250.768
235.316
287.123
268.057
329.961
307.826
377.394
353.261
426.437
401.943
473.061
450.336
512.601
494.004
540.929
528.369
555.266
549.956
554.598
556.675
542.048
549.497
524.117
533.189
509.988
515.971
507.604
507.067
517.762
511.333
535.993
526.337
554.453
545.841
564.576
560.878
564.164
565.579
560.772
561.592
589.731
568.838
687.129
628.529
855.335
764.238
1052.48
953.78
1226.11
1145.69
1356.9
1297.21
1411.27
1056.42
1048.81
1062.29
1063.17
992.908
1039.68
810.919
914.311
608.033
703.714
480.817
533.246
426.976
447.028
411.743
416.244
415.313
411.755
430.614
421.842
454.036
441.384
485.717
468.654
533.007
506.345
619.346
569.361
776.967
687.407
993.953
883.805
1175.29
1092.27
1322.76
1254.87
1469.13
1396.32
1565.18
1529.41
1585.04
1582.25
1614.82
1491.34
1535.92
1478.27
1465.14
2381.78
1513.05
1637.93
2515.95
1669.99
1662.4
1587.85
1645.66
1500.42
1520.29
1406.04
1484.88
1021.45
1220.81
765.581
864.255
1089.6
3347.35
4127.74
968.823
910.077
912.082
1156.47
1083.66
1371.63
1261.4
1417.5
1430.46
1208.44
1336.51
925.98
1059.42
821.446
841.872
965.461
866.113
1374.4
1143.6
1502.79
572.776
466.608
1504.66
1251.01
3278.27
1885.88
1717.82
1331.39
580.808
2243.67
5493.69
818.009
905.607
490.45
1449.95
462.292
3500.66
2012.6
3363.51
3375.59
3388.76
3286.89
2647.46
2980.84
2510.53
3832.64
3461.23
3890.43
3983.79
3207.91
3612.89
2279.6
2742.33
1875.24
1255.18
1290.11
2074.59
486.167
817.768
494.943
3050.33
1365.15
742.653
1200.9
1801.75
3516.19
3407.66
466.431
1005.7
8418.21
1081.76
2781.38
1227.4
609.46
918.47
2172.73
2254.34
830.81
1024.42
3141.84
2423.42
2110.97
3580.58
2860.03
1336.06
1457.26
1414.51
3330.21
1981.12
3170.59
2101.39
3207.37
1277.97
1287.61
1135.22
997.01
921.818
1633.58
1008.9
943.952
1053.61
1091.46
607.743
1121.01
1363.72
2050.11
1797.37
1315.69
1360.43
1178.56
1650.63
1914.02
1297.22
1428.43
729.213
4194.19
560.815
2576.13
3337.62
6479.17
1061.61
3158.73
3553.17
1696.76
471.547
466.282
900.803
1553.59
454.63
3320.81
3760.14
1735.79
2029.09
1962.35
2135.13
2026.94
2212.16
4858.92
2362.21
3173.12
2796.34
2171.15
1935.47
2258.5
1592.4
859.785
1434.41
1705.4
2229.9
477.006
561.703
527.233
836.083
498.938
474.693
483.061
2622.51
1467.55
761.497
732.49
701.722
788.792
2643.68
1240.87
632.559
1770.86
1699.54
3092.61
801.51
295.168
301.045
143.963
169.209
1665.84
1709
742.381
763.781
4777.55
852.604
646.95
1113.61
1728.89
1170.26
1482.96
1115.94
1880.74
1272.98
4652.64
1529.5
1017.72
2155.35
1183.33
853.738
1281.47
956.246
465.111
580.669
1621.11
454.799
3314.65
4103.53
1331.15
1904.74
1154
1897.9
2322.01
2583.43
1964.32
2072.26
3181.49
2689.7
1735.78
1574.3