/*--------------------------------*- C++ -*----------------------------------*\
| =========                 |                                                 |
| \\      /  F ield         | OpenFOAM: The Open Source CFD Toolbox           |
|  \\    /   O peration     | Version:  2212                                  |
|   \\  /    A nd           | Website:  www.openfoam.com                      |
|    \\/     M anipulation  |                                                 |
\*---------------------------------------------------------------------------*/
FoamFile
{
    version     2.0;
    format      ascii;
    arch        "LSB;label=32;scalar=64";
    class       volScalarField;
    location    "0.000312";
    object      p;
}
// * * * * * * * * * * * * * * * * * * * * * * * * * * * * * * * * * * * * * //

dimensions      [1 -1 -2 0 0 0 0];

internalField   nonuniform List<scalar> 
23217
(
1.01265e+06
1.0127e+06
1.01273e+06
1.01278e+06
1.01286e+06
1.01295e+06
1.01309e+06
1.01324e+06
1.01334e+06
1.01345e+06
1.01354e+06
1.01363e+06
1.0137e+06
1.01376e+06
1.0138e+06
1.0138e+06
1.01381e+06
1.01379e+06
1.01379e+06
1.0138e+06
1.01384e+06
1.01393e+06
1.01407e+06
1.01427e+06
1.01456e+06
1.01492e+06
1.01533e+06
1.0158e+06
1.01638e+06
1.01706e+06
1.01784e+06
1.01871e+06
1.01969e+06
1.02075e+06
1.0219e+06
1.02314e+06
1.02446e+06
1.02582e+06
1.02718e+06
1.02848e+06
1.02968e+06
1.03078e+06
1.0318e+06
1.03273e+06
1.03357e+06
1.03427e+06
1.03483e+06
1.03524e+06
1.03556e+06
1.0357e+06
1.03571e+06
1.03567e+06
1.03557e+06
1.03539e+06
1.03517e+06
1.03492e+06
1.03463e+06
1.03432e+06
1.03404e+06
1.03379e+06
1.03357e+06
1.03335e+06
1.01257e+06
1.01261e+06
705390
825225
889356
921697
948699
963799
975241
983225
988591
993490
996890
999773
1.00159e+06
1.00311e+06
1.00432e+06
1.00555e+06
1.00653e+06
1.00732e+06
1.00791e+06
1.00835e+06
1.00873e+06
1.00908e+06
1.00944e+06
1.00974e+06
1.01e+06
1.0102e+06
1.0104e+06
1.01058e+06
1.01075e+06
1.0109e+06
1.01102e+06
1.01112e+06
1.01123e+06
1.01133e+06
1.01144e+06
1.01153e+06
1.01161e+06
1.0117e+06
1.01179e+06
1.01188e+06
1.01197e+06
1.01204e+06
1.0121e+06
1.01215e+06
1.01221e+06
1.01227e+06
1.01233e+06
1.01239e+06
1.01245e+06
1.01252e+06
306146
212798
162182
124382
95483.7
73811.7
58734.9
47387.5
38847.3
32214.7
26832.2
22582.6
19318.7
16689.6
14697.8
13101.5
11429.3
10447
9366.99
8345.62
7705.8
6819.46
6377.46
5796.38
5267.22
4964.44
4480.96
4197.42
3872.88
3637.77
3317.84
3186.95
2916.26
2788.29
2600.98
2500.68
2325
2224.77
2117.85
2047.86
1898.72
1811.34
1663.05
1571.11
1469.86
1407.36
1320.37
1275.47
1208.01
1147.8
1073.54
1020.09
988.929
969.347
941.021
910.389
882.64
859.391
827.985
808.99
775.877
754.337
723.76
704.022
677.321
664.026
648.067
639.265
620.349
602.885
582.639
562.71
547.784
536.947
525.922
516.023
504.22
493.437
481.711
469.645
458.524
446.758
439.013
429.572
423.447
415.022
408.506
402.482
396.581
394.137
392.106
390.515
390.674
391.306
392.583
394.838
395.877
397.125
396.952
395.874
393.087
389.928
385.313
378.657
368.107
355.346
344.477
334.492
324.946
317.107
308.606
300.351
292.268
282.338
271.42
257.325
240.123
221.695
190.758
154.16
336592
216444
163258
124875
96102.4
74625.9
59352.2
47767.9
39091.4
32446.2
27026.6
22726.7
19433.2
16780.5
14765.5
13167.3
11482.9
10488.4
9407.84
8375.82
7732.98
6842.3
6395.06
5816.29
5284.29
4977.25
4495.01
4208.71
3881.04
3647.05
3324.4
3192.85
2926.18
2793.78
2605.27
2505.5
2330.8
2229.15
2120.32
2049.34
1902.54
1815.05
1668.08
1575.07
1473.02
1410.24
1322.54
1276.77
1209.89
1150.02
1076.58
1022.35
989.898
969.761
941.553
911.23
883.318
860.056
828.58
809.538
776.719
755.236
724.867
705.12
678.187
664.382
648.113
639.314
620.79
603.469
583.448
563.62
548.416
537.4
526.328
516.453
504.688
493.876
482.199
470.145
458.999
447.16
439.32
429.864
423.731
415.36
408.848
402.827
396.86
394.338
392.276
390.658
390.774
391.342
392.554
394.724
395.681
396.862
396.639
395.529
392.755
389.573
384.934
378.377
367.957
355.333
344.524
334.517
324.951
317.062
308.52
300.227
292.111
282.183
271.267
257.227
240.015
221.59
190.464
155.419
697365
820201
886092
919876
947502
962937
974672
982846
988299
993213
996707
999639
1.0015e+06
1.00302e+06
1.00427e+06
1.00549e+06
1.00649e+06
1.00729e+06
1.00789e+06
1.00833e+06
1.00871e+06
1.00906e+06
1.00943e+06
1.00973e+06
1.00999e+06
1.0102e+06
1.0104e+06
1.01057e+06
1.01075e+06
1.01089e+06
1.01102e+06
1.01112e+06
1.01122e+06
1.01133e+06
1.01143e+06
1.01152e+06
1.01161e+06
1.0117e+06
1.01179e+06
1.01188e+06
1.01197e+06
1.01204e+06
1.0121e+06
1.01215e+06
1.01221e+06
1.01227e+06
1.01233e+06
1.01239e+06
1.01245e+06
1.01252e+06
1.01257e+06
1.01261e+06
1.01265e+06
1.0127e+06
1.01273e+06
1.01278e+06
1.01286e+06
1.01295e+06
1.01309e+06
1.01324e+06
1.01334e+06
1.01345e+06
1.01354e+06
1.01364e+06
1.0137e+06
1.01376e+06
1.0138e+06
1.0138e+06
1.01381e+06
1.01379e+06
1.01379e+06
1.0138e+06
1.01384e+06
1.01393e+06
1.01407e+06
1.01427e+06
1.01456e+06
1.01492e+06
1.01533e+06
1.01581e+06
1.01638e+06
1.01707e+06
1.01784e+06
1.01872e+06
1.01969e+06
1.02075e+06
1.0219e+06
1.02314e+06
1.02446e+06
1.02582e+06
1.02718e+06
1.02848e+06
1.02968e+06
1.03078e+06
1.0318e+06
1.03273e+06
1.03357e+06
1.03428e+06
1.03483e+06
1.03524e+06
1.03556e+06
1.0357e+06
1.03571e+06
1.03567e+06
1.03557e+06
1.03539e+06
1.03517e+06
1.03492e+06
1.03463e+06
1.03432e+06
1.03404e+06
1.03379e+06
1.03357e+06
1.03335e+06
1.01265e+06
1.0127e+06
1.01274e+06
1.01278e+06
1.01286e+06
1.01295e+06
1.01309e+06
1.01324e+06
1.01334e+06
1.01345e+06
1.01354e+06
1.01364e+06
1.0137e+06
1.01376e+06
1.0138e+06
1.0138e+06
1.01381e+06
1.01379e+06
1.01379e+06
1.0138e+06
1.01384e+06
1.01393e+06
1.01407e+06
1.01427e+06
1.01456e+06
1.01492e+06
1.01533e+06
1.01581e+06
1.01638e+06
1.01707e+06
1.01784e+06
1.01872e+06
1.01969e+06
1.02075e+06
1.0219e+06
1.02314e+06
1.02446e+06
1.02582e+06
1.02718e+06
1.02848e+06
1.02968e+06
1.03078e+06
1.0318e+06
1.03273e+06
1.03357e+06
1.03428e+06
1.03483e+06
1.03524e+06
1.03556e+06
1.0357e+06
1.03571e+06
1.03567e+06
1.03557e+06
1.03539e+06
1.03517e+06
1.03492e+06
1.03463e+06
1.03432e+06
1.03404e+06
1.03379e+06
1.03357e+06
1.03335e+06
1.01257e+06
1.01261e+06
698195
818864
883979
919964
947041
962966
974607
982868
988360
993191
996706
999545
1.00148e+06
1.00303e+06
1.00428e+06
1.00549e+06
1.0065e+06
1.0073e+06
1.00789e+06
1.00833e+06
1.00871e+06
1.00907e+06
1.00943e+06
1.00972e+06
1.00998e+06
1.0102e+06
1.0104e+06
1.01057e+06
1.01075e+06
1.01089e+06
1.01102e+06
1.01112e+06
1.01122e+06
1.01133e+06
1.01143e+06
1.01152e+06
1.01161e+06
1.0117e+06
1.01179e+06
1.01188e+06
1.01197e+06
1.01204e+06
1.0121e+06
1.01215e+06
1.01221e+06
1.01227e+06
1.01233e+06
1.01239e+06
1.01245e+06
1.01251e+06
351989
216928
162972
124374
95701.8
74223
58975.6
47480
39014.4
32369.1
27004
22768.2
19462.2
16806.9
14787.7
13166.4
11493.6
10494.5
9412.22
8394.36
7744.95
6857.43
6406.72
5827.44
5298.17
4983.38
4506.35
4218.37
3887.7
3653.98
3329.18
3198.22
2933.93
2798.7
2608.98
2509.6
2335.51
2233.96
2122.63
2050.76
1904.7
1816.87
1671.67
1578.85
1476.07
1413.15
1324.54
1277.77
1210.74
1151.92
1079.86
1025.27
991.241
969.983
941.442
911.738
883.809
860.568
828.931
809.906
777.405
756.248
726.117
706.519
679.357
664.82
648.037
639.058
620.929
603.993
584.366
564.631
549.199
537.903
526.716
516.828
505.079
494.268
482.644
470.627
459.534
447.627
439.667
430.137
423.993
415.664
409.156
403.168
397.167
394.573
392.471
390.833
390.923
391.437
392.585
394.68
395.538
396.617
396.329
395.154
392.354
389.144
384.473
378.04
367.802
355.39
344.683
334.658
325.043
317.065
308.421
300.037
291.863
281.924
271.024
257.059
239.871
221.47
190.386
156.62
370089
223738
162869
124084
95618.3
74597.6
59473
47952
39256.2
32538.9
27212.7
22985.5
19560.7
16903.2
14842.3
13204.7
11559.3
10519.7
9428.86
8422.16
7747.14
6876.38
6419.81
5838.91
5313.23
4984.56
4518.05
4227.22
3894.92
3660.97
3333.79
3203.97
2941.25
2804.06
2612.81
2514.26
2340.38
2238.92
2124.89
2052.21
1905.64
1817.63
1674.78
1582.52
1479.19
1416.08
1326.35
1277.99
1211.04
1153.56
1083.22
1028.65
992.884
970.272
941.233
912.07
884.21
861.003
829.003
810.134
777.973
757.282
727.518
708.229
680.767
665.348
647.79
638.466
620.74
604.376
585.308
565.75
550.096
538.437
527.058
517.17
505.454
494.66
483.086
471.136
460.103
448.125
440.019
430.359
424.203
415.908
409.423
403.485
397.449
394.79
392.635
390.985
391.061
391.536
392.629
394.671
395.428
396.38
396.037
394.781
391.908
388.666
383.956
377.659
367.636
355.489
344.942
334.923
325.217
317.119
308.323
299.806
291.551
281.591
270.724
256.85
239.747
221.44
190.676
159.461
699956
817137
881423
919071
946030
962430
974106
982587
988162
992978
996556
999406
1.0014e+06
1.00296e+06
1.00426e+06
1.00546e+06
1.0065e+06
1.00728e+06
1.00787e+06
1.00831e+06
1.00869e+06
1.00906e+06
1.00942e+06
1.00972e+06
1.00997e+06
1.01019e+06
1.01039e+06
1.01057e+06
1.01075e+06
1.01089e+06
1.01102e+06
1.01111e+06
1.01122e+06
1.01133e+06
1.01143e+06
1.01152e+06
1.01161e+06
1.01169e+06
1.01179e+06
1.01188e+06
1.01197e+06
1.01204e+06
1.0121e+06
1.01215e+06
1.01221e+06
1.01227e+06
1.01233e+06
1.01239e+06
1.01245e+06
1.01251e+06
1.01257e+06
1.01261e+06
1.01265e+06
1.0127e+06
1.01274e+06
1.01278e+06
1.01286e+06
1.01295e+06
1.01309e+06
1.01324e+06
1.01334e+06
1.01345e+06
1.01354e+06
1.01364e+06
1.0137e+06
1.01376e+06
1.0138e+06
1.0138e+06
1.01381e+06
1.01379e+06
1.01379e+06
1.0138e+06
1.01384e+06
1.01393e+06
1.01407e+06
1.01427e+06
1.01457e+06
1.01492e+06
1.01533e+06
1.01581e+06
1.01638e+06
1.01707e+06
1.01784e+06
1.01872e+06
1.0197e+06
1.02075e+06
1.0219e+06
1.02315e+06
1.02446e+06
1.02582e+06
1.02719e+06
1.02848e+06
1.02968e+06
1.03078e+06
1.0318e+06
1.03273e+06
1.03357e+06
1.03428e+06
1.03483e+06
1.03524e+06
1.03557e+06
1.0357e+06
1.03571e+06
1.03567e+06
1.03557e+06
1.03539e+06
1.03517e+06
1.03492e+06
1.03463e+06
1.03432e+06
1.03404e+06
1.03379e+06
1.03357e+06
1.03335e+06
1.01265e+06
1.0127e+06
1.01274e+06
1.01278e+06
1.01286e+06
1.01295e+06
1.01309e+06
1.01324e+06
1.01334e+06
1.01345e+06
1.01354e+06
1.01364e+06
1.0137e+06
1.01376e+06
1.0138e+06
1.0138e+06
1.01381e+06
1.01379e+06
1.01379e+06
1.0138e+06
1.01384e+06
1.01393e+06
1.01407e+06
1.01427e+06
1.01457e+06
1.01492e+06
1.01533e+06
1.01581e+06
1.01638e+06
1.01707e+06
1.01784e+06
1.01872e+06
1.0197e+06
1.02075e+06
1.02191e+06
1.02315e+06
1.02446e+06
1.02582e+06
1.02719e+06
1.02848e+06
1.02968e+06
1.03078e+06
1.0318e+06
1.03273e+06
1.03357e+06
1.03428e+06
1.03483e+06
1.03524e+06
1.03557e+06
1.0357e+06
1.03571e+06
1.03567e+06
1.03557e+06
1.03539e+06
1.03517e+06
1.03492e+06
1.03463e+06
1.03432e+06
1.03404e+06
1.03379e+06
1.03357e+06
1.03335e+06
1.01257e+06
1.01261e+06
705378
814766
880146
919411
945182
962433
973998
982583
988169
992879
996517
999296
1.00135e+06
1.00296e+06
1.00427e+06
1.00546e+06
1.00651e+06
1.00729e+06
1.00787e+06
1.0083e+06
1.0087e+06
1.00906e+06
1.00942e+06
1.00972e+06
1.00997e+06
1.01018e+06
1.01039e+06
1.01057e+06
1.01075e+06
1.01089e+06
1.01101e+06
1.01111e+06
1.01122e+06
1.01133e+06
1.01143e+06
1.01152e+06
1.01161e+06
1.01169e+06
1.01179e+06
1.01188e+06
1.01197e+06
1.01204e+06
1.0121e+06
1.01215e+06
1.01221e+06
1.01227e+06
1.01233e+06
1.01239e+06
1.01245e+06
1.01251e+06
392993
228500
163770
123343
95084.6
74367.8
59382.8
47869.6
39154.1
32434.1
27129.8
22891.8
19549.4
16932.5
14864.6
13139.3
11609.5
10489.8
9415.12
8447.61
7743.99
6899.88
6433.09
5840.71
5327.55
4981.96
4532.05
4227.49
3902.37
3668.42
3338.96
3209.66
2948.18
2809.47
2616.99
2520.08
2345.62
2243.63
2125.41
2052.24
1906.76
1816.95
1677.36
1585.89
1482.4
1419
1328.06
1278.22
1211.03
1155.15
1086.63
1032.39
994.859
970.669
941.001
912.213
884.602
861.393
828.869
810.219
778.451
758.32
729.057
710.203
682.393
665.993
647.447
637.666
620.363
604.631
586.235
566.937
551.113
539.034
527.411
517.517
505.835
495.07
483.541
471.672
460.703
448.657
440.385
430.551
424.376
416.107
409.662
403.781
397.703
394.987
392.764
391.105
391.177
391.616
392.656
394.673
395.329
396.134
395.746
394.402
391.417
388.128
383.37
377.225
367.456
355.609
345.272
335.278
325.451
317.222
308.234
299.546
291.188
281.197
270.371
256.604
239.648
221.478
191.308
161.566
414502
238793
166050
122500
94169.5
74032.7
59271.5
47768.7
39057.4
32384.7
27139
22993.7
19711.9
17076.6
14940.5
13198.4
11695.7
10467.6
9418.18
8475.86
7727.92
6938.67
6435.02
5843.07
5338.92
4976.17
4544.9
4225.49
3911
3676.21
3345.34
3214.46
2954.84
2814.56
2621.32
2527.04
2351.55
2247.85
2125.11
2051.79
1906.45
1816.21
1679.37
1588.72
1485.59
1421.81
1329.65
1278.33
1211.21
1156.83
1089.95
1036.41
997.162
971.289
940.793
912.342
885.079
861.667
828.644
810.21
778.829
759.338
730.679
712.369
684.177
666.755
647.09
636.75
619.821
604.781
587.081
568.121
552.242
539.709
527.807
517.891
506.231
495.501
484.001
472.228
461.322
449.216
440.768
430.729
424.524
416.263
409.876
404.053
397.929
395.17
392.856
391.194
391.264
391.67
392.659
394.665
395.23
395.872
395.448
394.022
390.898
387.53
382.705
376.738
367.265
355.74
345.654
335.7
325.733
317.365
308.164
299.28
290.795
280.757
269.976
256.326
239.579
221.584
192.189
163.466
711801
812493
879004
919122
944418
962254
973546
982206
988158
992857
996395
999166
1.00125e+06
1.00286e+06
1.00429e+06
1.00547e+06
1.00651e+06
1.00727e+06
1.00785e+06
1.00828e+06
1.00869e+06
1.00906e+06
1.00943e+06
1.00971e+06
1.00996e+06
1.01018e+06
1.01039e+06
1.01057e+06
1.01074e+06
1.01089e+06
1.01101e+06
1.01111e+06
1.01122e+06
1.01133e+06
1.01143e+06
1.01152e+06
1.01161e+06
1.01169e+06
1.01179e+06
1.01188e+06
1.01197e+06
1.01204e+06
1.0121e+06
1.01215e+06
1.01221e+06
1.01227e+06
1.01233e+06
1.01239e+06
1.01244e+06
1.0125e+06
1.01256e+06
1.01261e+06
1.01265e+06
1.0127e+06
1.01274e+06
1.01278e+06
1.01286e+06
1.01295e+06
1.01309e+06
1.01324e+06
1.01334e+06
1.01346e+06
1.01354e+06
1.01364e+06
1.0137e+06
1.01377e+06
1.0138e+06
1.0138e+06
1.01381e+06
1.01379e+06
1.01379e+06
1.0138e+06
1.01384e+06
1.01393e+06
1.01407e+06
1.01427e+06
1.01457e+06
1.01493e+06
1.01533e+06
1.01581e+06
1.01639e+06
1.01707e+06
1.01784e+06
1.01872e+06
1.0197e+06
1.02076e+06
1.02191e+06
1.02315e+06
1.02446e+06
1.02583e+06
1.02719e+06
1.02848e+06
1.02968e+06
1.03078e+06
1.0318e+06
1.03274e+06
1.03357e+06
1.03428e+06
1.03483e+06
1.03524e+06
1.03557e+06
1.0357e+06
1.03571e+06
1.03567e+06
1.03557e+06
1.03539e+06
1.03517e+06
1.03492e+06
1.03463e+06
1.03432e+06
1.03404e+06
1.03379e+06
1.03357e+06
1.03335e+06
1.01265e+06
1.01269e+06
1.01274e+06
1.01278e+06
1.01286e+06
1.01295e+06
1.01309e+06
1.01324e+06
1.01334e+06
1.01346e+06
1.01355e+06
1.01364e+06
1.0137e+06
1.01377e+06
1.0138e+06
1.0138e+06
1.01381e+06
1.01379e+06
1.01379e+06
1.0138e+06
1.01384e+06
1.01393e+06
1.01407e+06
1.01427e+06
1.01457e+06
1.01493e+06
1.01533e+06
1.01581e+06
1.01639e+06
1.01707e+06
1.01784e+06
1.01872e+06
1.0197e+06
1.02076e+06
1.02191e+06
1.02315e+06
1.02446e+06
1.02583e+06
1.02719e+06
1.02848e+06
1.02968e+06
1.03078e+06
1.0318e+06
1.03274e+06
1.03357e+06
1.03428e+06
1.03483e+06
1.03524e+06
1.03557e+06
1.0357e+06
1.03571e+06
1.03567e+06
1.03557e+06
1.03539e+06
1.03517e+06
1.03491e+06
1.03462e+06
1.03432e+06
1.03404e+06
1.03379e+06
1.03357e+06
1.03335e+06
1.01256e+06
1.01261e+06
718917
810235
878361
919348
943705
962289
973286
982227
988200
992817
996426
999061
1.00124e+06
1.00287e+06
1.00432e+06
1.00548e+06
1.00653e+06
1.00727e+06
1.00785e+06
1.00827e+06
1.00869e+06
1.00907e+06
1.00943e+06
1.00971e+06
1.00996e+06
1.01018e+06
1.01039e+06
1.01057e+06
1.01074e+06
1.01089e+06
1.01101e+06
1.01111e+06
1.01122e+06
1.01133e+06
1.01144e+06
1.01153e+06
1.01161e+06
1.01169e+06
1.01179e+06
1.01188e+06
1.01197e+06
1.01204e+06
1.0121e+06
1.01215e+06
1.01221e+06
1.01227e+06
1.01233e+06
1.01239e+06
1.01244e+06
1.0125e+06
436329
248108
169994
121767
93209.5
73673.5
59157.3
47692.2
39031.1
32382.6
27203.4
23154.6
19865.8
17158.9
14935.4
13198.3
11648.5
10420.7
9406.16
8472.32
7686.31
6952.9
6424.85
5829.62
5367.59
4964.6
4547.72
4222.54
3921.18
3682.61
3352.33
3217.87
2960.85
2819.64
2625.55
2535.33
2358.19
2251.42
2123.79
2050.4
1905.23
1814.79
1679.35
1590.89
1488.6
1424.38
1331.08
1278.75
1211.84
1158.68
1093.11
1040.68
999.764
972.313
940.63
912.757
885.759
861.855
828.331
810.099
779.086
760.276
732.328
714.651
686.038
667.624
646.771
635.819
619.172
604.835
587.785
569.233
553.452
540.46
528.273
518.323
506.653
495.954
484.455
472.791
461.942
449.788
441.156
430.888
424.649
416.373
410.06
404.292
398.116
395.334
392.906
391.241
391.313
391.691
392.64
394.63
395.134
395.608
395.162
393.672
390.402
386.904
381.973
376.21
367.074
355.874
346.07
336.169
326.064
317.532
308.119
299.027
290.402
280.298
269.556
256.026
239.556
221.742
193.333
164.479
458933
260279
175137
121580
92271.5
73322.8
58954.6
47509.9
38946.2
32362
27338.9
23295.9
20024
17241.2
14975.9
13217
11666.2
10412.7
9393.58
8462.56
7698.05
6971.35
6406.14
5818.09
5359.55
4956.32
4560.75
4218.64
3932.01
3686.02
3356.21
3220.52
2965.77
2825.67
2631.61
2545.36
2367.25
2254.02
2120.52
2047.54
1901.69
1811.78
1678.34
1592.5
1491.01
1426.75
1331.65
1279.76
1212.77
1160.59
1095.95
1045.2
1002.65
973.633
940.529
913.413
886.706
861.925
827.833
809.916
779.076
761.097
733.988
716.985
687.918
668.593
646.544
634.956
618.47
604.846
588.271
570.202
554.697
541.277
528.832
518.853
507.125
496.44
484.893
473.348
462.535
450.348
441.528
431.013
424.746
416.433
410.208
404.486
398.25
395.469
392.896
391.223
391.3
391.659
392.567
394.535
395.015
395.341
394.893
393.378
390
386.317
381.231
375.679
366.906
356.021
346.526
336.683
326.441
317.737
308.125
298.815
290.068
279.87
269.15
255.733
239.601
221.956
194.616
164.819
725280
808461
877164
919636
943031
961728
973015
981846
988242
992823
996464
998977
1.00117e+06
1.00284e+06
1.00435e+06
1.0055e+06
1.00653e+06
1.00725e+06
1.00783e+06
1.00824e+06
1.00868e+06
1.00907e+06
1.00943e+06
1.00971e+06
1.00996e+06
1.01018e+06
1.01038e+06
1.01057e+06
1.01075e+06
1.01089e+06
1.01101e+06
1.01111e+06
1.01122e+06
1.01133e+06
1.01144e+06
1.01153e+06
1.01161e+06
1.0117e+06
1.01179e+06
1.01189e+06
1.01197e+06
1.01204e+06
1.0121e+06
1.01215e+06
1.01221e+06
1.01227e+06
1.01233e+06
1.01238e+06
1.01244e+06
1.0125e+06
1.01255e+06
1.0126e+06
1.01265e+06
1.01269e+06
1.01273e+06
1.01278e+06
1.01286e+06
1.01295e+06
1.01309e+06
1.01324e+06
1.01334e+06
1.01346e+06
1.01355e+06
1.01364e+06
1.0137e+06
1.01377e+06
1.0138e+06
1.0138e+06
1.01381e+06
1.01379e+06
1.01379e+06
1.0138e+06
1.01384e+06
1.01393e+06
1.01407e+06
1.01428e+06
1.01457e+06
1.01493e+06
1.01533e+06
1.01581e+06
1.01639e+06
1.01707e+06
1.01784e+06
1.01872e+06
1.0197e+06
1.02076e+06
1.02191e+06
1.02315e+06
1.02446e+06
1.02583e+06
1.02719e+06
1.02848e+06
1.02969e+06
1.03079e+06
1.0318e+06
1.03274e+06
1.03358e+06
1.03428e+06
1.03483e+06
1.03525e+06
1.03557e+06
1.0357e+06
1.03571e+06
1.03567e+06
1.03557e+06
1.03539e+06
1.03517e+06
1.03491e+06
1.03462e+06
1.03432e+06
1.03404e+06
1.03379e+06
1.03357e+06
1.03335e+06
1.01265e+06
1.01269e+06
1.01273e+06
1.01278e+06
1.01286e+06
1.01295e+06
1.01309e+06
1.01324e+06
1.01334e+06
1.01346e+06
1.01355e+06
1.01364e+06
1.0137e+06
1.01377e+06
1.0138e+06
1.0138e+06
1.01381e+06
1.01379e+06
1.01379e+06
1.0138e+06
1.01384e+06
1.01393e+06
1.01407e+06
1.01428e+06
1.01457e+06
1.01493e+06
1.01533e+06
1.01581e+06
1.01639e+06
1.01707e+06
1.01784e+06
1.01872e+06
1.0197e+06
1.02076e+06
1.02191e+06
1.02315e+06
1.02446e+06
1.02583e+06
1.02719e+06
1.02849e+06
1.02969e+06
1.03079e+06
1.0318e+06
1.03274e+06
1.03358e+06
1.03428e+06
1.03483e+06
1.03525e+06
1.03557e+06
1.0357e+06
1.03571e+06
1.03567e+06
1.03556e+06
1.03539e+06
1.03517e+06
1.03491e+06
1.03462e+06
1.03432e+06
1.03404e+06
1.03379e+06
1.03357e+06
1.03335e+06
1.01255e+06
1.0126e+06
728434
811520
876584
920426
942189
961795
972954
981913
988367
992825
996530
998942
1.00117e+06
1.00286e+06
1.00438e+06
1.00552e+06
1.00655e+06
1.00726e+06
1.00781e+06
1.00824e+06
1.00868e+06
1.00908e+06
1.00943e+06
1.00972e+06
1.00997e+06
1.01018e+06
1.01038e+06
1.01057e+06
1.01075e+06
1.01089e+06
1.011e+06
1.01111e+06
1.01122e+06
1.01133e+06
1.01144e+06
1.01153e+06
1.01161e+06
1.0117e+06
1.01179e+06
1.01189e+06
1.01197e+06
1.01204e+06
1.0121e+06
1.01215e+06
1.01221e+06
1.01227e+06
1.01233e+06
1.01238e+06
1.01244e+06
1.01249e+06
478534
271828
180049
121436
91410.9
72974.8
58726.1
47240.2
38821
32329
27475.6
23401.8
20159.6
17309.1
15029.1
13216
11677.8
10392.8
9380.5
8444.27
7694.57
6959.59
6393.09
5815.13
5338.44
4923.46
4586.16
4203.24
3940.1
3670.28
3367.69
3220.05
2962.77
2828.11
2638.76
2551.81
2374.59
2251.28
2112.28
2040.41
1893.6
1805.91
1675.29
1592.01
1492.53
1427.82
1333.02
1281.44
1214.36
1162.97
1098.65
1050.4
1006.12
975.367
940.616
914.803
888.104
861.939
827.325
809.807
779.151
762.102
735.924
719.512
689.834
669.738
646.491
634.286
617.74
604.862
588.372
570.92
555.952
542.121
529.517
519.498
507.664
496.954
485.299
473.871
463.073
450.873
441.874
431.134
424.856
416.463
410.372
404.652
398.362
395.583
392.802
391.107
391.187
391.514
392.35
394.244
394.695
394.862
394.404
392.88
389.445
385.596
380.415
375.055
366.643
356.018
346.906
337.149
326.753
317.92
308.1
298.638
289.818
279.504
268.789
255.471
239.738
222.249
195.232
166.34
493208
283956
187346
121828
90608.6
72520.4
58356.5
46750.7
38667.5
32358.4
27704.7
23557.9
20328.7
17399.3
15097.4
13235
11701.8
10372.2
9363.33
8423.85
7684.21
6944.53
6368.56
5801.73
5318.79
4912.88
4574.3
4181.49
3939.85
3643.42
3389.99
3221.83
2964.19
2843.72
2668.92
2577.57
2392.7
2254.33
2106.58
2033.82
1886.2
1801.31
1672.7
1592.21
1494.75
1430.77
1337.37
1286.52
1219.33
1168.75
1104.21
1059.46
1012.58
979.109
942.472
918.642
891.282
862.883
827.709
810.764
780.126
764.298
738.96
722.676
691.71
671.155
646.565
633.989
616.977
604.843
587.92
571.22
557.3
542.916
530.42
520.161
508.233
497.402
485.641
474.291
463.548
451.358
442.216
431.39
425.155
416.628
410.816
404.938
398.65
395.797
392.592
390.831
390.891
391.137
391.812
393.463
393.837
393.78
393.21
391.575
388.021
383.938
378.697
373.553
365.619
355.267
346.466
336.872
326.433
317.659
307.646
298.083
289.185
278.734
268.155
254.984
239.769
222.543
195.346
729579
814672
877071
919795
942408
961096
973146
981781
988432
992525
996448
998857
1.00118e+06
1.00288e+06
1.0044e+06
1.00552e+06
1.00654e+06
1.00722e+06
1.00777e+06
1.00822e+06
1.00865e+06
1.00906e+06
1.00942e+06
1.00972e+06
1.00997e+06
1.01018e+06
1.01038e+06
1.01057e+06
1.01075e+06
1.01089e+06
1.011e+06
1.01111e+06
1.01122e+06
1.01133e+06
1.01144e+06
1.01153e+06
1.01161e+06
1.0117e+06
1.01179e+06
1.01189e+06
1.01197e+06
1.01204e+06
1.0121e+06
1.01215e+06
1.01221e+06
1.01227e+06
1.01233e+06
1.01238e+06
1.01244e+06
1.01249e+06
1.01255e+06
1.0126e+06
1.01265e+06
1.01269e+06
1.01273e+06
1.01278e+06
1.01286e+06
1.01295e+06
1.01309e+06
1.01324e+06
1.01334e+06
1.01346e+06
1.01355e+06
1.01364e+06
1.0137e+06
1.01376e+06
1.0138e+06
1.0138e+06
1.01381e+06
1.01379e+06
1.01379e+06
1.0138e+06
1.01384e+06
1.01393e+06
1.01407e+06
1.01428e+06
1.01457e+06
1.01493e+06
1.01533e+06
1.01581e+06
1.01639e+06
1.01707e+06
1.01785e+06
1.01873e+06
1.0197e+06
1.02076e+06
1.02192e+06
1.02315e+06
1.02447e+06
1.02583e+06
1.02719e+06
1.02849e+06
1.02969e+06
1.03079e+06
1.03181e+06
1.03274e+06
1.03358e+06
1.03428e+06
1.03484e+06
1.03525e+06
1.03557e+06
1.0357e+06
1.03571e+06
1.03567e+06
1.03556e+06
1.03539e+06
1.03517e+06
1.03491e+06
1.03462e+06
1.03432e+06
1.03404e+06
1.03379e+06
1.03357e+06
1.03335e+06
463.101
505.712
520.431
452.296
418.579
400.808
417.514
425.819
431.115
437.911
443.555
466.142
538.049
617.193
662.464
667.494
649.903
603.447
516.873
472.47
452.404
441.971
414.867
384.032
361.017
331.347
303.447
281.903
265.383
254.944
242.088
229.052
220.773
220.315
224.228
230.989
238.311
243.577
249.795
252.813
254.388
261.773
278.618
304.87
323.206
333.26
338.738
339.758
337.542
332.818
333.334
342.415
354.582
364.294
368.419
369.145
371.343
373.259
377.772
391.122
402.799
414.546
432.067
447.013
446.747
451.811
434.77
528.758
358.491
319.993
298.635
285.934
276.806
269.347
264.381
257.905
248.582
241.672
237.145
234.615
233.893
233.5
231.956
228.616
222.213
215.466
209.223
197.828
189.278
180.842
172.509
166.982
161.683
155.337
150.964
146.702
142.683
138.574
132.545
127.473
124.393
123.354
122.624
119.734
113.282
111.668
110.523
109.886
109.84
110.607
110.603
110.571
110.47
110.441
110.531
110.378
107.016
100.271
94.207
92.0658
91.7153
91.7195
92.2363
92.5628
92.97
92.5542
90.6027
86.0075
75.6119
72.1211
71.3753
71.1669
71.5076
72.5496
72.568
71.4073
69.7219
68.2587
67.7678
66.3891
66.3001
66.3082
67.6946
69.3273
69.7947
69.461
69.1361
68.331
67.6273
67.3551
67.3821
67.6267
67.6136
67.6832
67.5169
66.4763
65.9938
64.484
57.395
50.7384
47.7143
46.2403
45.0485
44.1101
42.1914
36.3781
31.1418
28.2651
25.5396
24.1261
21.7314
20.5783
19.2319
18.761
18.6484
18.5977
18.608
18.6315
18.6743
18.6934
18.6969
18.6425
18.6472
18.6518
18.8904
19.4195
19.879
20.3257
20.6683
20.8531
20.9949
21.3504
21.7093
22.1486
22.3576
22.4131
22.8098
22.9504
23.0934
23.2836
23.5188
24.0969
25.0497
25.9039
26.4986
26.6854
26.6774
26.6565
26.629
26.5243
26.3331
26.2758
26.2228
26.2076
26.2058
26.2563
26.2481
25.3776
22.1123
20.0206
18.856
17.9805
17.6388
17.1728
16.9024
16.4386
16.0097
15.8187
15.7785
15.6876
15.6878
15.6885
15.6362
15.6214
15.598
15.5982
15.8476
15.9304
15.9723
16.0263
16.0259
16.1902
16.6531
17.5432
18.2508
18.5714
18.6511
18.6602
18.696
18.6889
18.6814
18.7479
19.0008
19.0481
19.0567
19.0479
18.7162
18.4391
18.2805
18.1922
18.1931
18.2051
18.1823
17.7261
17.4492
16.9398
16.6379
16.4704
16.4625
16.4304
16.3666
16.2498
16.0786
15.8489
15.6164
15.4151
15.1044
14.4094
13.82
13.5693
13.3427
13.1127
12.9482
12.7609
12.6497
12.5405
12.4176
12.2478
11.9071
11.4459
11.1897
11.1396
10.9436
10.7002
10.6927
10.7558
11.0359
10.2153
9.74725
9.57354
9.4921
9.46798
9.502
9.49788
9.45739
9.28537
8.77219
8.5537
8.41044
12.7562
8.64308
8.44393
8.44412
8.45491
8.5663
8.77439
9.00304
9.25905
9.3916
9.48189
9.74096
10.1907
10.355
10.4125
10.4471
10.4953
10.5203
10.6133
10.9392
11.3113
11.8551
12.6314
13.3743
13.7124
13.946
14.032
14.2132
14.4973
14.9394
15.7523
16.5973
16.9697
17.2505
18.0472
18.4555
18.6629
18.8723
18.9809
19.3353
20.1028
21.345
22.715
23.5949
24.2506
25.4086
26.8584
28.3259
32.1745
42.0529
47.5766
49.2293
49.5266
48.8346
48.5337
48.372
48.7787
49.4991
49.5061
49.3111
47.7638
45.4884
42.8485
39.3545
37.7998
35.2692
32.7833
34.5276
36.0345
37.2975
38.8395
39.9575
41.0256
41.8763
42.5661
43.1892
43.7787
44.3447
44.9098
45.3184
45.6939
46.063
46.3702
46.65
46.9424
47.1988
47.423
47.6327
47.8325
48.0096
48.1713
48.3334
48.4602
48.5783
48.6943
48.7966
48.8985
48.9884
49.074
49.159
49.2483
49.3496
49.4688
49.5928
49.7192
49.8657
50.0109
50.1423
50.296
50.4172
50.535
50.6769
50.7889
50.8501
50.8924
50.9215
50.9282
50.9341
50.9376
50.9316
50.8909
50.7975
50.6898
50.6077
50.5631
50.5467
50.5226
50.4721
50.3745
50.209
50.1597
50.0631
49.94
49.7714
49.7019
49.6297
49.6282
49.636
49.657
49.6632
49.6692
49.691
49.7432
49.8445
49.9272
49.9588
49.9706
49.9985
50.0487
50.1566
50.1969
50.1884
50.1714
50.1375
50.0549
49.8848
49.7778
49.7807
49.807
49.87
49.8701
49.8571
49.813
49.7295
49.6872
49.6121
49.1231
1.03334e+06
1.03334e+06
1.03334e+06
1.03334e+06
1.03333e+06
182.507
1.03357e+06
1.03379e+06
1.03404e+06
1.03432e+06
1.03461e+06
1.0349e+06
1.03516e+06
1.03539e+06
1.03556e+06
1.03567e+06
1.0357e+06
1.0357e+06
1.03557e+06
1.03525e+06
1.03483e+06
1.03428e+06
1.03358e+06
1.03275e+06
1.03181e+06
1.03079e+06
1.02969e+06
1.02849e+06
1.02719e+06
1.02583e+06
1.02446e+06
1.02315e+06
1.02192e+06
1.02076e+06
1.0197e+06
1.01872e+06
1.01784e+06
1.01707e+06
1.01639e+06
1.01582e+06
1.01534e+06
1.01493e+06
1.01457e+06
1.01428e+06
1.01407e+06
1.01393e+06
1.01384e+06
1.0138e+06
1.01379e+06
1.01379e+06
1.01381e+06
1.0138e+06
1.0138e+06
1.01376e+06
1.0137e+06
1.01364e+06
1.01355e+06
1.01346e+06
1.01335e+06
1.01324e+06
1.0131e+06
1.01296e+06
1.01286e+06
1.01278e+06
1.01273e+06
1.01269e+06
1.01264e+06
1.0126e+06
1.01254e+06
1.01249e+06
1.01244e+06
1.01238e+06
1.01233e+06
1.01227e+06
1.01221e+06
1.01215e+06
1.0121e+06
1.01204e+06
1.01197e+06
1.01189e+06
1.01179e+06
1.0117e+06
1.01162e+06
1.01154e+06
1.01144e+06
1.01134e+06
1.01123e+06
1.01111e+06
1.011e+06
1.01089e+06
1.01076e+06
1.01058e+06
1.01038e+06
1.01019e+06
1.00999e+06
1.00976e+06
1.00946e+06
1.0091e+06
1.00865e+06
1.00822e+06
1.00776e+06
1.00726e+06
1.00658e+06
1.00559e+06
1.00443e+06
1.00296e+06
1.00117e+06
999246
996647
993535
988993
982783
974793
961175
33.5006
88.0537
106.755
112.51
123.705
129.903
131.299
145.094
160.421
165.903
44883.6
37940.9
32258.3
27937.3
23625.3
20566.2
17437.5
15167.1
13380.1
11787.6
10369.2
9291.89
8319.07
7592.24
6809.49
6173.54
5624.75
5134.74
4793.77
4387.06
4077.23
3825.35
3494.95
3324.3
3063.88
2842.67
2668.45
2534.68
2429.89
2246.62
2096.2
1970.36
1908.71
1796.78
1730.19
1621.66
1582.78
1504.63
1458.89
1364.51
1324.89
1262.38
1232.23
1167.5
1135.9
1067.84
1012.19
960.817
947.531
921.879
869.652
830.563
813.878
782.626
771.945
749.415
730.826
692.586
673.185
645.575
633.679
614.624
604.72
584.613
571.038
562.641
545.921
534.81
521.832
509.813
498.077
486.356
475.221
465.02
453.054
443.426
433.117
427.44
418.16
414.338
406.874
401.021
397.431
392.231
390.342
390.273
390.317
390.489
391.027
391.842
392.151
391.907
391.102
388.811
383.612
372.985
367.961
363.385
354.216
348.16
339.661
327.223
318.488
306.917
296.74
287.765
276.969
267.022
253.224
240.348
224.276
198.824
280.223
5.88798
34.6197
118.332
1.03354e+06
1.03356e+06
48.4741
182.244
12091.5
10397.5
9272.63
8176.95
7400.49
195.043
215.512
155.549
243.388
238.245
236.435
239.844
239.959
236.146
267.74
251.602
323.275
290.599
370.694
356.534
379.881
377.473
355.141
377.689
332.698
339.266
316.442
329.936
285.935
298.389
250.008
267.93
216.557
232.607
185.366
200.933
166.285
173.88
156.526
160.796
155.328
154.768
163.308
159.208
179.757
170.44
198.66
189.268
210.183
206.166
211.751
211.744
211.035
211.667
212.009
210.813
220.091
218.492
228.229
223.597
237.834
231.889
243.806
240.982
247.868
246.182
253.966
250.456
269.652
260.916
288.681
242.23
215.739
224.209
210.592
212.167
207.055
208.851
198.786
202.842