/*--------------------------------*- C++ -*----------------------------------*\
| =========                 |                                                 |
| \\      /  F ield         | OpenFOAM: The Open Source CFD Toolbox           |
|  \\    /   O peration     | Version:  2212                                  |
|   \\  /    A nd           | Website:  www.openfoam.com                      |
|    \\/     M anipulation  |                                                 |
\*---------------------------------------------------------------------------*/
FoamFile
{
    version     2.0;
    format      ascii;
    arch        "LSB;label=32;scalar=64";
    class       surfaceScalarField;
    location    "0.0005";
    object      phi;
}
// * * * * * * * * * * * * * * * * * * * * * * * * * * * * * * * * * * * * * //

dimensions      [1 0 -1 0 0 0 0];

oriented        oriented;

internalField   nonuniform List<scalar> 
5190
(
-2.84332e-17
-1.60586e-17
6.77246e-17
9.00417e-17
1.51108e-18
4.58075e-17
4.3164e-17
-1.45666e-17
1.60267e-17
1.072e-17
1.75501e-17
2.70296e-17
1.72859e-17
-5.22604e-17
-3.28108e-17
-5.19777e-18
5.36954e-17
3.8933e-17
-1.90671e-18
2.8698e-17
3.54017e-17
-3.15878e-18
-1.20352e-17
6.20587e-17
-1.2033e-17
-2.26542e-17
-3.73791e-17
-4.2187e-17
-7.87063e-17
4.28728e-17
7.41036e-17
-1.66105e-17
5.01737e-17
-1.74896e-17
-1.31556e-16
6.0312e-17
-6.22008e-18
-1.24774e-16
2.06141e-17
-7.07234e-17
9.52828e-18
2.495e-17
-3.22502e-17
2.46017e-17
-1.6511e-17
5.47679e-17
-2.30491e-18
3.54229e-17
2.62988e-17
1.91231e-17
1.83218e-17
2.68267e-17
8.45464e-18
-1.47697e-17
1.69393e-17
-2.689e-17
-8.44886e-17
-6.68262e-17
-2.04882e-17
4.31798e-17
8.19213e-17
7.03633e-17
-1.28726e-17
-2.64782e-17
-1.51498e-17
-3.26099e-17
-1.76655e-17
-1.81179e-17
1.46821e-17
-1.88432e-17
-8.9297e-18
1.54506e-17
-1.42055e-17
-7.15573e-18
-4.82097e-17
3.09509e-17
2.46763e-17
-7.32698e-18
4.0627e-17
-2.25685e-17
-1.16665e-17
-4.35159e-17
4.22129e-17
-1.96743e-17
-2.46217e-17
6.39985e-17
-9.97023e-18
4.51522e-18
-1.36487e-17
-4.38296e-17
-6.25276e-17
-1.6647e-18
-3.70797e-17
1.95333e-17
5.76519e-17
-2.54709e-17
-1.77234e-17
-1.2593e-17
4.9609e-17
1.30108e-17
-1.82664e-18
1.38981e-17
2.39525e-17
4.16972e-19
1.60374e-17
3.70727e-17
6.53553e-19
1.33581e-17
-1.85261e-17
-1.6571e-17
1.26586e-17
3.80116e-17
1.97066e-17
-8.05561e-17
2.45344e-17
-7.46323e-17
3.27197e-17
-2.76546e-17
1.17714e-16
-4.81379e-17
1.029e-16
5.28917e-18
3.34091e-19
-4.95152e-17
4.93077e-17
9.16521e-17
-9.583e-17
8.37959e-17
-2.09323e-17
2.49852e-17
5.35736e-18
2.0017e-17
3.05139e-17
1.69027e-17
6.34258e-18
1.17085e-17
-1.38171e-17
2.03014e-17
-5.77083e-17
-1.61535e-17
3.07506e-18
8.61199e-18
2.61708e-17
-3.19052e-17
-3.21192e-17
-1.72882e-17
-8.01854e-17
6.28383e-17
-8.90433e-17
-2.80488e-17
-3.99529e-17
-2.59735e-17
-2.84154e-17
-4.38174e-17
-1.0375e-16
7.06043e-17
-1.02064e-16
8.8441e-18
5.95281e-17
-4.63097e-17
4.6664e-18
-5.63422e-18
9.56862e-18
-2.27163e-17
4.29982e-18
-7.11554e-18
1.25517e-17
-5.46944e-17
-1.21025e-17
3.55756e-17
-2.62503e-19
3.45663e-17
1.14091e-17
4.47343e-17
3.67446e-17
5.69154e-17
-1.35677e-16
9.0525e-17
-1.44154e-17
-2.31405e-17
-5.22329e-17
-6.97206e-17
-1.62106e-17
-1.97224e-18
1.82274e-17
-1.41963e-17
4.41149e-17
-2.58839e-17
4.56348e-17
4.26619e-17
4.64714e-17
-3.10147e-17
-8.79296e-17
-1.62551e-17
-9.71461e-18
4.33746e-17
1.20977e-16
-3.03221e-17
9.6161e-18
-1.01365e-16
9.92577e-18
-3.59957e-17
1.62527e-17
-5.16215e-17
3.52496e-17
8.85276e-17
3.24113e-18
4.60538e-18
4.49959e-17
7.28002e-17
6.22043e-18
3.64699e-17
8.68039e-18
-2.71185e-17
-5.55243e-17
9.1869e-18
-1.65079e-17
-2.88253e-17
2.81551e-18
-2.83406e-17
3.69591e-17
-4.92263e-18
8.59364e-17
4.04146e-17
-4.55601e-18
-7.37439e-17
-3.60486e-17
-5.70527e-17
-6.72886e-18
-6.5598e-18
1.1172e-17
3.03934e-17
3.20372e-17
1.96605e-17
6.4136e-18
-2.66593e-17
-1.63691e-17
3.54266e-17
-1.33884e-17
8.65798e-18
3.73097e-17
7.92869e-18
-4.87696e-18
-1.30976e-18
1.63315e-17
1.3416e-17
-2.16547e-17
-1.91769e-17
-3.85946e-17
-3.82158e-17
-3.14124e-17
-1.83367e-17
4.44892e-17
1.74624e-17
9.95732e-18
-5.24233e-17
5.73157e-18
-8.31077e-17
-2.0565e-17
4.89112e-19
1.34096e-16
-7.50263e-17
1.88306e-17
-4.33994e-17
4.35518e-17
1.59236e-17
1.40347e-17
-4.55628e-17
-1.70851e-17
-5.70562e-18
-5.87363e-17
-5.3461e-18
2.70231e-17
-4.79688e-17
6.56423e-17
-4.36521e-17
3.97933e-17
-4.93831e-17
3.40937e-17
-6.72317e-18
3.04513e-17
3.69576e-18
-9.54546e-18
2.74022e-17
-2.33051e-17
8.76487e-18
5.85289e-18
3.53704e-17
7.67087e-19
-2.76943e-17
2.50763e-17
8.78627e-17
-1.73158e-17
3.10761e-17
-4.8405e-17
-8.82866e-18
-1.19296e-17
-1.56781e-17
-2.07421e-17
-4.86916e-18
-2.56635e-17
-2.56184e-17
1.51368e-17
-2.98586e-18
5.42078e-17
-3.13202e-17
-5.97173e-17
-5.30187e-17
6.22962e-19
-2.20721e-17
-8.6429e-18
-4.87964e-18
3.03177e-17
-4.19388e-17
-3.28029e-17
-4.07365e-17
-3.49213e-17
-3.38717e-18
9.81254e-18
-1.1503e-17
3.53344e-18
-2.47985e-17
6.10739e-17
2.41422e-18
3.25233e-17
4.51599e-17
5.81513e-18
-5.62187e-17
-3.06526e-17
-1.52045e-17
-3.75832e-17
-4.91954e-18
-3.3994e-17
-8.00759e-18
-8.06511e-17
3.95486e-18
4.14112e-17
4.36771e-17
4.81325e-17
2.41699e-18
-8.04085e-18
1.34575e-17
-1.95289e-17
1.78631e-17
4.4183e-17
1.12314e-17
-2.48671e-17
-1.902e-17
4.96729e-18
-1.75038e-17
1.46335e-17
5.40193e-17
3.33603e-17
-6.48916e-18
1.06814e-18
-2.13524e-17
2.45709e-17
-1.54493e-17
-2.1671e-17
-1.79823e-17
2.07177e-17
8.83891e-18
4.59438e-17
4.32572e-17
2.842e-18
-2.13701e-17
-6.57639e-17
-7.88094e-17
-1.56654e-17
2.89985e-17
-2.0543e-18
4.81811e-17
-6.51273e-17
2.77274e-17
5.44827e-17
-4.17214e-17
3.00863e-17
3.14139e-17
-4.87136e-17
3.54669e-17
6.30367e-17
-1.70363e-17
-1.56763e-17
-4.77233e-17
-9.8788e-17
-1.23366e-18
-1.33563e-17
-4.01951e-17
-5.15324e-17
-1.11355e-17
1.04732e-17
5.18117e-17
-6.36767e-17
5.1229e-18
2.37711e-17
6.15217e-17
7.08681e-17
2.80936e-17
1.7827e-18
-4.5012e-17
-1.3426e-17
-1.26461e-17
-2.61e-17
-4.81642e-18
5.66667e-17
-1.09698e-18
4.41004e-18
-9.47421e-18
-5.04778e-17
2.46505e-18
3.18553e-17
2.93745e-17
1.59983e-18
-2.77013e-17
1.82004e-17
-2.778e-18
2.08733e-17
-1.11291e-17
4.64971e-17
-3.96418e-17
2.0633e-17
-3.79608e-17
-2.4395e-17
1.95581e-17
2.1645e-17
4.05878e-19
-1.85964e-17
6.53224e-18
5.98394e-18
7.85294e-18
2.28803e-17
-2.05876e-17
-3.33183e-17
-1.04422e-17
6.36308e-18
-5.59479e-17
-5.80258e-17
7.8686e-17
-7.5443e-17
-5.19633e-17
-7.68038e-17
4.10201e-17
-4.85508e-17
2.59328e-17
-5.74562e-17
-1.14916e-17
-4.73571e-18
1.99171e-17
6.81263e-17
3.91742e-17
-9.6279e-17
6.39492e-17
-1.58261e-17
-3.46514e-17
2.40148e-17
9.08007e-17
-1.08761e-17
-1.64501e-18
1.35347e-17
-2.70208e-17
-1.09493e-17
1.73275e-17
2.56047e-17
2.03674e-17
-2.48385e-18
-9.69138e-18
-2.20154e-17
-1.04046e-17
-3.17685e-17
-1.86791e-17
-7.48683e-17
-5.54563e-17
-3.53733e-17
-2.86499e-17
1.4886e-17
-1.68091e-17
3.31471e-17
-3.05553e-17
3.26372e-17
-3.21578e-17
-8.13876e-17
1.81517e-17
7.29725e-18
5.37691e-17
6.37742e-18
8.9224e-17
-9.01574e-18
3.90244e-17
1.36141e-17
-6.09888e-17
-4.81698e-17
5.75701e-17
1.94157e-17
5.02862e-18
4.13536e-17
-8.43656e-18
6.03378e-18
-4.36799e-18
3.29525e-17
-5.6311e-18
-7.1017e-18
4.44596e-17
-2.55054e-17
2.49487e-18
1.27282e-17
-8.23543e-09
-3.66332e-12
5.97206e-08
-5.04837e-12
-1.15719e-12
-1.46922e-09
-7.28036e-13
8.24233e-09
-1.47108e-09
-2.52455e-12
5.97596e-08
-9.90975e-12
1.24778e-16
-3.4564e-18
7.96698e-17
3.92545e-17
-6.02138e-17
3.27837e-17
1.32339e-17
9.38083e-17
-5.56887e-18
-6.79529e-18
4.49544e-17
-6.01043e-17
3.53279e-17
2.50985e-18
-2.66262e-17
-1.75054e-17
-3.24543e-17
-6.61497e-18
3.37733e-17
5.52794e-17
9.41901e-19
-1.0583e-17
-3.4064e-17
-2.85189e-18
-2.15506e-17
-8.43564e-19
1.68482e-17
-1.35514e-17
-1.75646e-17
-2.929e-17
-1.09169e-17
-1.69757e-17
-1.94598e-17
-8.96888e-18
3.83537e-18
6.03818e-17
-2.77817e-17
-2.94009e-18
4.05916e-17
3.49849e-18
-8.6504e-17
-3.82177e-18
7.12898e-18
5.4495e-17
-2.84119e-17
6.0885e-17
-1.32002e-17
3.65234e-17
-8.99762e-18
1.84506e-17
-5.02942e-18
-7.06089e-17
3.58872e-17
-4.82694e-17
-5.61749e-17
-4.95222e-17
-2.4705e-17
-2.67248e-18
-4.57034e-17
3.91381e-17
3.97282e-17
-5.93775e-17
-2.27922e-17
-4.73251e-17
-1.0062e-17
4.48912e-17
9.15232e-17
3.17981e-17
-1.58286e-17
6.28261e-17
1.01177e-16
5.13763e-17
-3.83236e-17
4.50945e-17
-3.42944e-17
-6.91188e-17
-5.23907e-17
-4.34433e-17
1.91716e-17
3.42821e-17
4.18546e-19
3.35272e-17
-1.61319e-18
-7.18134e-17
5.74395e-17
-7.80621e-19
1.06748e-17
-1.21033e-17
4.74017e-17
3.14425e-18
-3.52351e-18
-4.71358e-17
2.82454e-17
3.56921e-17
-3.82506e-17
2.77758e-17
-9.21166e-17
6.31115e-17
5.29702e-18
-1.70315e-10
-1.73007e-13
-1.75824e-14
-2.58987e-11
-3.92558e-14
9.39927e-15
-2.60759e-12
-4.56884e-15
2.77985e-15
-3.41861e-13
-6.01716e-16
4.43469e-16
-3.0483e-14
-9.65876e-17
7.65011e-17
-3.4185e-15
-1.99228e-17
1.34688e-18
-2.03906e-16
-1.10132e-17
4.23261e-18
6.94166e-17
-3.43603e-18
-8.0027e-17
-3.37119e-17
-4.00489e-17
-8.52585e-17
-4.49151e-18
-8.58858e-17
-6.8127e-17
-1.32414e-17
2.87487e-17
3.44675e-17
6.30647e-18
5.47432e-18
2.1334e-17
-5.54154e-18
8.85045e-18
-5.55502e-18
5.33265e-18
2.19452e-17
5.54273e-17
2.42422e-17
-2.06005e-17
2.54455e-16
-6.31841e-17
-7.37297e-17
-3.40546e-15
3.04802e-14
-7.24065e-17
-7.39249e-17
-3.42379e-13
2.61118e-12
-6.14439e-16
-1.14951e-16
-2.59468e-11
1.70548e-10
-4.72643e-14
-3.48906e-15
-2.2889e-13
-3.2144e-17
-1.50295e-17
1.48944e-17
-2.08748e-17
2.32409e-17
-7.22096e-18
7.99074e-18
-1.43241e-17
-2.5899e-19
1.76045e-17
8.45291e-19
2.46508e-17
-3.95728e-17
-1.80524e-17
-2.02473e-17
2.22251e-17
1.66831e-17
-4.78676e-17
1.47039e-17
2.42673e-17
-1.60116e-17
1.00888e-17
4.77592e-17
1.45017e-17
4.98733e-17
2.75686e-17
4.48222e-18
-5.62825e-17
-1.27257e-17
-4.36694e-18
-1.2999e-17
-5.54827e-18
2.83385e-17
-8.75616e-18
-1.19662e-17
-5.26342e-17
4.71097e-17
2.7615e-17
-5.73622e-17
1.79752e-17
6.81464e-17
1.77064e-17
-3.91107e-17
-2.66985e-17
-8.39676e-18
-5.41016e-17
8.58021e-18
-3.98779e-17
1.16579e-18
-2.97537e-17
4.45141e-18
1.28465e-17
-3.5327e-17
3.03533e-17
-1.28622e-18
1.80192e-17
2.45917e-18
-1.82177e-17
4.66301e-18
-1.80988e-17
-3.52845e-17
-1.11279e-16
-4.41074e-17
4.75203e-17
-9.35696e-17
-1.84856e-17
-7.59596e-17
2.98843e-17
-1.89143e-18
5.70374e-17
1.0812e-16
-2.53494e-17
6.43746e-17
5.82693e-17
3.8463e-17
5.27032e-17
-1.01423e-16
6.97666e-17
2.62784e-17
5.48952e-17
3.26115e-18
8.69059e-18
8.11369e-18
1.77142e-17
-4.01922e-17
1.01077e-17
-2.4218e-17
1.1357e-17
1.33301e-17
-3.54679e-17
1.37288e-17
1.20701e-17
9.57638e-18
-4.23787e-17
-1.72698e-17
8.05145e-18
4.18368e-17
-8.42582e-18
-1.03595e-18
-5.96387e-17
-5.16756e-17
2.51976e-17
-3.56949e-17
2.44079e-17
-3.06046e-17
-3.95884e-17
5.26108e-17
2.46914e-17
1.67039e-17
-4.95714e-17
-3.5695e-11
-5.55134e-11
2.8192e-07
-8.67709e-11
2.82112e-07
-5.06705e-18
3.28782e-17
1.51635e-17
-3.39335e-17
4.61992e-17
-2.71745e-17
5.12164e-17
3.93039e-17
-5.66044e-17
-5.02531e-17
-5.54678e-18
-1.9229e-17
9.58145e-19
6.34907e-18
1.34682e-17
3.46717e-18
-2.44065e-17
-3.79788e-18
1.62771e-17
2.75125e-17
-1.89817e-17
-8.65317e-18
-4.61647e-17
6.64791e-18
4.71558e-17
2.66932e-18
8.63203e-18
6.43745e-18
2.82144e-07
-5.97604e-08
-1.5169e-10
-1.23154e-10
-3.21654e-11
1.6351e-06
-4.24529e-10
1.63642e-06
3.41139e-17
-4.20773e-17
6.91423e-17
-4.38295e-17
-1.5498e-17
4.62456e-17
-6.58795e-17
9.33786e-18
-3.8069e-17
6.65565e-17
2.18891e-17
1.80065e-17
-7.64561e-17
5.93445e-17
1.39911e-18
-1.46583e-17
-4.86018e-18
6.37305e-18
-3.06448e-17
1.76804e-17
2.99659e-17
-5.78891e-18
-3.49801e-17
-7.5015e-18
1.60606e-17
3.55373e-17
6.77067e-19
-6.75481e-18
-3.05763e-17
1.66274e-17
1.3768e-17
-1.38538e-18
3.37182e-17
3.785e-17
4.09727e-17
-3.02313e-18
-9.35883e-17
-2.83855e-17
-5.52937e-17
-3.62837e-17
-3.98876e-18
8.33419e-18
3.66806e-17
-2.02722e-17
-4.98739e-17
-3.315e-17
-1.66064e-18
-1.60759e-18
-7.5704e-18
-3.04753e-17
3.30745e-18
-3.65467e-17
-3.52018e-17
2.78204e-17
5.39823e-18
5.71464e-17
-1.53961e-17
1.25259e-17
-5.53937e-17
-1.24779e-17
-1.12564e-17
-8.84303e-18
-9.12996e-17
9.97211e-17
-5.84223e-17
-5.11031e-19
1.42695e-17
-3.132e-17
-2.09932e-17
3.14893e-17
-1.13561e-17
-2.17921e-17
-4.06582e-18
5.55613e-18
-1.66839e-17
6.15144e-17
4.01565e-17
4.53464e-17
1.89404e-17
-3.86476e-17
-3.94026e-17
-2.10758e-17
-4.46586e-17
3.39006e-17
-2.09987e-17
-4.01115e-18
-1.75808e-17
1.34146e-17
1.30386e-17
-2.03285e-17
1.57528e-17
-9.95381e-18
7.31218e-17
-2.64545e-17
-2.00678e-17
-1.2196e-17
-2.2004e-18
4.6646e-17
-5.43669e-17
-2.70032e-17
1.5206e-17
-4.57709e-18
-3.51952e-17
-2.22787e-17
-3.31225e-17
4.73593e-17
-1.87282e-17
-7.50197e-18
-8.68856e-17
-6.95297e-17
-1.57887e-17
7.11434e-18
5.45574e-17
6.40927e-17
2.34943e-18
-3.90157e-17
-2.90548e-17
-4.49277e-17
1.88667e-17
-3.1969e-17
-1.93493e-18
2.71844e-17
-1.21482e-17
3.70177e-17
-3.79548e-18
1.68432e-17
4.69377e-17
6.26904e-17
4.63225e-17
1.61696e-17
8.23819e-09
-1.46941e-09
-2.46701e-12
-1.23365e-11
1.70262e-10
-2.58755e-11
-2.32353e-14
-1.91741e-13
2.60561e-12
-3.41412e-13
2.42631e-17
-1.65236e-15
3.0488e-14
-3.46079e-15
-9.4396e-18
1.19553e-18
2.86439e-16
-1.57065e-17
-1.74367e-17
4.08004e-17
1.63177e-17
2.82502e-07
-5.98414e-08
-1.38777e-10
1.70684e-10
-4.0035e-10
1.63746e-06
1.63549e-06
-3.05884e-17
3.47007e-17
-3.0013e-17
-3.37255e-17
2.4092e-17
-2.30056e-17
-8.71305e-17
-4.37118e-18
-6.91382e-17
5.49055e-17
4.41473e-18
-4.50808e-17
1.73296e-17
-9.3437e-17
-2.11594e-17
-2.65078e-17
4.11996e-17
2.21791e-16
-1.60727e-17
-1.90789e-17
-3.43127e-15
3.06013e-14
-5.64883e-17
2.89068e-17
-3.42999e-13
2.61425e-12
-6.02586e-16
-7.92249e-17
-2.59736e-11
1.70821e-10
-3.85321e-14
-2.85075e-15
-1.47308e-09
8.25455e-09
-2.90681e-12
-1.71392e-13
-1.14667e-11
-8.21218e-18
-1.46501e-17
-7.03273e-18
1.51648e-17
-8.06291e-18
1.68586e-17
3.38409e-17
3.22689e-17
2.8568e-17
1.91144e-18
2.28421e-17
6.54578e-18
-3.99659e-17
3.86221e-18
-3.91053e-17
3.61437e-17
1.72388e-17
-1.74545e-17
1.36914e-18
1.92846e-17
2.33578e-17
-1.09577e-17
3.20584e-17
3.48982e-17
2.7934e-17
5.76437e-17
-5.53161e-18
-7.08269e-17
-2.31717e-17
-1.20099e-17
-4.09067e-17
-5.35208e-17
-5.23863e-17
-3.16042e-17
-2.60344e-17
-3.08323e-17
2.53631e-17
2.65041e-17
1.67108e-17
-3.97484e-17
-5.0955e-18
-4.36028e-17
4.73166e-17
6.72637e-17
1.19125e-17
-8.44431e-18
7.10377e-18
-1.08694e-17
-6.36222e-18
3.97201e-17
2.07889e-17
2.05662e-17
2.09731e-17
2.82755e-18
-1.39427e-17
-1.62179e-17
1.07063e-17
-2.30447e-17
1.54526e-17
4.38628e-17
-2.03216e-17
3.67339e-17
6.59929e-17
2.61546e-18
8.86543e-18
7.1773e-17
8.09092e-18
2.11653e-17
-2.41434e-17
-7.74627e-19
-5.4851e-17
-6.05206e-18
-2.20602e-17
-3.54262e-17
7.35286e-18
1.43069e-17
8.65722e-18
-1.04926e-17
-1.95262e-17
-3.18188e-17
9.48671e-17
-2.54958e-17
-1.25457e-16
-9.5195e-17
-1.00101e-16
8.03258e-17
-7.94942e-17
-4.63349e-17
4.41253e-17
-1.07145e-16
2.28103e-17
-3.78998e-17
6.16154e-18
-1.715e-17
4.03552e-17
5.36797e-17
1.19004e-16
-6.81008e-17
6.64169e-17
2.13158e-17
9.99961e-17
6.21729e-19
-2.57633e-17
-4.63564e-17
-4.17377e-18
2.0824e-17
2.26259e-17
2.14703e-17
5.28766e-18
-4.1259e-17
-2.08167e-17
-9.59158e-18
1.85931e-17
1.11291e-17
4.09351e-18
1.43054e-19
-3.32203e-18
-2.25983e-17
2.02413e-17
6.71619e-18
1.29196e-17
-5.52083e-18
2.60214e-17
5.52758e-18
1.40557e-17
2.11154e-17
1.26291e-17
4.04784e-18
1.46016e-17
-2.61428e-17
5.18476e-17
2.31377e-17
3.99829e-17
-2.23208e-17
2.82886e-07
-5.98894e-08
-1.67358e-10
1.64064e-06
-5.08981e-10
3.96715e-17
-1.30658e-17
-2.24246e-17
-2.40207e-17
2.42263e-17
-2.07014e-17
-4.98401e-17
-1.06531e-17
1.96509e-17
-1.01115e-17
4.95217e-17
2.38234e-17
-1.59791e-17
1.19066e-17
1.10873e-17
-1.8805e-17
-5.3668e-18
-1.19742e-17
3.32634e-18
-1.93637e-17
-3.2957e-17
-4.61446e-17
-4.83234e-17
5.21389e-17
-8.01693e-17
-7.91703e-17
2.07864e-17
5.36164e-18
-3.85705e-18
5.937e-18
1.73467e-17
6.58413e-17
-3.99937e-17
1.19279e-17
3.75531e-17
1.5206e-17
4.67914e-17
5.90216e-17
-4.03514e-17
1.33646e-17
2.15594e-18
-4.67398e-18
-1.2887e-17
5.92957e-17
1.00063e-17
-1.33855e-17
-6.4496e-18
-7.95521e-18
5.76043e-17
-2.46202e-17
5.62235e-18
1.9489e-17
-1.97602e-18
3.68441e-18
4.24132e-17
-8.24724e-17
-6.10479e-17
2.83212e-07
-5.99699e-08
-1.43673e-10
1.64188e-06
-4.09421e-10
5.29707e-18
-2.19667e-17
-4.06954e-17
2.45043e-17
-4.7158e-18
2.76412e-17
6.12072e-17
2.97933e-17
1.97012e-17
-2.28491e-17
-8.72879e-19
5.91378e-17
5.64595e-18
-1.67319e-17
-2.66725e-17
-5.5284e-17
-2.71825e-17
-6.33005e-17
9.03175e-17
-6.49281e-17
4.31657e-17
3.68685e-17
1.57586e-17
-1.70089e-17
4.64935e-17
2.26201e-17
-8.58819e-18
6.93895e-18
-2.00341e-17
-2.69358e-17
-2.64095e-17
2.67919e-17
3.92366e-17
-1.79039e-18
1.2665e-17
-1.75071e-17
4.08948e-17
-2.89139e-17
6.97924e-18
4.13614e-17
5.25268e-17
-2.74315e-17
-4.41364e-17
-4.41286e-17
-1.09468e-17
4.05227e-18
-5.26266e-17
-3.30353e-17
-2.15719e-17
4.77548e-17
-5.98672e-18
-4.13521e-17
-8.5837e-17
-9.1514e-18
4.46789e-17
-8.00004e-19
-8.76852e-17
-2.884e-17
-1.02132e-17
-5.91069e-18
3.2258e-18
-7.52854e-19
8.26402e-18
3.55076e-17
2.97034e-17
-3.61033e-17
4.75731e-18
-1.53635e-17
3.66864e-18
1.03388e-17
-4.81429e-18
5.47995e-17
-2.95376e-18
4.92072e-17
6.29027e-18
1.0469e-17
3.47595e-18
-4.33807e-17
3.16583e-17
2.84539e-17
5.1791e-17
5.32611e-18
-2.69285e-17
7.45434e-18
6.51738e-17
4.1132e-17
-2.77581e-18
2.8695e-18
-8.05044e-17
2.69518e-17
1.23612e-17
8.28243e-17
4.16198e-17
-6.15555e-17
4.92332e-17
-3.84649e-17
4.74924e-17
-4.32567e-17
-4.09569e-17
-1.74845e-17
-6.76397e-17
-3.02221e-18
-2.70878e-17
-3.7841e-17
4.05251e-17
-4.48845e-17
-4.0737e-17
-3.25915e-18
7.9943e-17
-1.24475e-17
1.74219e-17
-2.0698e-18
-5.30113e-18
-5.40136e-17
-4.50247e-17
-7.60462e-17
8.68787e-18
3.61843e-17
6.87382e-17
-2.93291e-17
-7.25527e-17
-3.47983e-17
1.35066e-17
4.69838e-17
5.47033e-17
-1.69693e-19
5.74774e-18
-1.03568e-17
-1.60557e-17
6.00993e-17
-8.91744e-18
-1.63781e-18
-6.17137e-17
-1.68513e-17
-8.64744e-17
-1.51106e-17
3.40858e-17
-4.19509e-17
-3.98062e-17
1.61854e-17
-1.66639e-17
8.25424e-09
-1.47184e-09
-3.50628e-12
-1.48925e-11
1.7049e-10
-2.59068e-11
-4.47062e-14
-2.80126e-13
2.60803e-12
-3.41776e-13
-3.68958e-16
-3.30251e-15
3.05064e-14
-3.4577e-15
-5.54076e-18
-5.08503e-17
2.86975e-16
-3.26594e-18
2.18447e-17
-1.26462e-17
-2.26462e-17
-3.06616e-10
-1.68178e-09
6.42973e-06
1.88391e-09
-2.83773e-09
6.43951e-06
6.43128e-06
6.09856e-18
1.96628e-17
2.93183e-09
6.45219e-06
-4.11037e-09
6.43679e-06
1.89901e-17
-2.07865e-17
-1.09144e-17
1.22351e-17
2.89068e-17
-1.49012e-17
2.63428e-17
-3.72852e-18
2.57428e-17
1.53009e-17
-6.63413e-17
-2.93105e-18
-5.29354e-17
4.69238e-17
2.35329e-17
-4.9469e-18
1.11151e-17
4.31216e-17
2.93554e-17
2.50281e-16
4.92449e-17
6.34601e-18
-3.43301e-15
3.06219e-14
-5.06605e-17
3.04119e-17
-3.43176e-13
2.61832e-12
-8.51605e-16
-5.90258e-17
-2.59935e-11
1.71103e-10
-3.36983e-14
-2.30777e-15
-1.47523e-09
8.27219e-09
-2.40524e-12
-1.69911e-13
-1.11192e-11
1.73016e-17
3.11679e-17
-3.8702e-17
1.00489e-17
-2.2955e-17
6.67542e-18
-1.41525e-17
1.36566e-17
-3.02967e-17
-5.49112e-17
-5.33558e-17
-2.61002e-17
-1.10965e-17
3.27282e-17
-5.49846e-17
2.04652e-17
1.43785e-17
-1.68045e-17
-5.24696e-18
-1.23949e-17
2.7254e-17
2.54786e-17
3.08326e-17
-3.15992e-17
2.73744e-18
1.99084e-17
-3.43964e-17
-1.57814e-17
2.2958e-17
-3.69942e-18
-2.07888e-17
-5.17169e-17
1.45553e-17
-1.09478e-16
-2.42054e-17
3.71271e-17
3.93918e-17
2.78324e-17
8.5119e-18
5.67565e-17
-5.69207e-17
5.95655e-17
-1.54542e-17
-3.27011e-18
-7.2581e-17
2.88874e-17
-9.64668e-17
1.04691e-17
9.56575e-18
-1.66422e-17
6.1924e-19
-3.34559e-18
6.64586e-17
-1.0521e-17
-1.78156e-17
6.80455e-17
-9.62131e-18
9.70002e-17
1.33556e-19
-7.29163e-17
-1.16659e-16
7.11123e-17
5.40698e-18
-8.94504e-19
5.82706e-17
3.87818e-18
-2.84007e-17
5.06258e-17
-7.77217e-17
-1.41481e-17
1.12668e-17
1.92707e-17
8.93687e-17
-1.07771e-17
5.48274e-17
-7.00602e-18
1.03406e-17
-2.28744e-17
-5.73211e-17
-1.23735e-16
-4.80184e-17
1.75275e-17
7.88257e-19
1.43761e-17
1.25282e-17
5.3328e-17
5.67269e-18
5.35864e-17
3.09551e-17
-2.2382e-17
5.81071e-17
-1.79191e-17
2.7121e-17
-3.47376e-17
-5.79965e-17
-4.21741e-17
-4.77925e-17
5.90379e-17
-7.95656e-17
-1.29384e-17
-1.04697e-16
1.20707e-16
5.09119e-18
-3.06919e-17
-1.26191e-16
-4.62135e-17
5.0917e-17
3.02057e-18
5.26829e-17
-7.76578e-17
-4.23638e-18
-4.21599e-18
7.34615e-18
-4.01043e-17
4.73315e-17
8.07926e-17
1.11614e-16
-1.18593e-17
3.9018e-17
6.42796e-17
8.94752e-17
7.57016e-17
-1.75476e-18
6.96876e-17
5.32224e-18
-2.23074e-17
-2.638e-17
-3.46542e-17
4.7378e-17
-2.22681e-17
-1.65403e-17
-1.08747e-18
-2.506e-17
-6.17854e-18
1.21898e-17
-4.88405e-18
1.73688e-17
1.38507e-17
1.95862e-17
-3.26006e-17
-2.33414e-17
-3.84851e-18
5.55369e-18
4.60381e-18
1.42413e-17
3.11272e-18
-1.04298e-17
6.57873e-18
2.80546e-17
8.4685e-19
1.38455e-19
-2.48818e-17
-2.08756e-17
-4.64955e-17
1.87334e-17
-5.38073e-17
6.04304e-17
2.13394e-17
-3.42116e-17
-1.20551e-18
1.47071e-17
-1.45535e-17
-1.53727e-17
7.50813e-18
-2.87712e-17
3.87255e-17
8.5987e-18
-7.97615e-18
3.30814e-17
1.65891e-17
1.3979e-17
-1.13115e-17
2.30815e-17
1.03688e-17
-2.89857e-18
1.04223e-17
4.60704e-17
-2.00592e-17
4.34087e-17
-8.40396e-17
3.998e-17
2.61836e-17
-3.94787e-17
1.19039e-17
1.40934e-17
-1.57198e-17
5.94493e-18
-2.88065e-17
1.2837e-17
6.18982e-18
-1.85386e-17
-1.71255e-17
1.87136e-17
-4.57643e-17
-3.77035e-17
3.52729e-18
-1.72029e-17
-3.12629e-18
3.48368e-18
-1.07861e-17
2.93894e-17
2.73293e-17
-4.28937e-17
-2.13323e-17
-1.71982e-17
-3.90737e-09
6.45506e-06
-2.24106e-17
2.07652e-17
-2.27141e-17
-1.5638e-18
2.77614e-17
2.43554e-17
-4.7055e-17
-1.87957e-17
-1.19287e-17
-1.96735e-17
-3.05026e-17
-9.98824e-18
-7.20168e-20
5.44523e-17
-5.32328e-18
-2.15252e-17
1.04663e-17
6.17837e-18
-2.8607e-17
2.55796e-17
-2.56021e-17
3.58105e-17
-2.01281e-17
1.90199e-17
-1.88221e-18
5.59657e-18
2.13918e-17
2.94496e-17
-4.84412e-17
-4.00322e-17
-5.48834e-17
-1.02923e-17
-2.2443e-17
1.50546e-18
-1.20751e-17
-2.65762e-17
-3.33992e-17
-6.34755e-17
9.73808e-18
1.23411e-17
-4.49786e-17
1.0431e-16
4.22248e-17
7.96731e-18
-3.97958e-17
3.5332e-17
-5.00885e-17
-8.1922e-18
-4.23928e-17
1.57346e-18
2.07831e-17
2.68461e-17
-1.48773e-17
2.34588e-17
3.06417e-18
1.77645e-17
-8.19228e-19
-4.98684e-17
-9.68329e-18
-6.03902e-18
-1.80321e-17
6.39757e-17
2.15307e-18
5.12188e-17
-5.70427e-17
4.83352e-18
4.07263e-17
2.32101e-17
-2.20764e-17
2.58102e-17
2.13092e-18
5.21119e-17
-8.5565e-18
-1.18314e-17
-2.90025e-17
-4.30844e-17
1.93719e-17
1.63718e-17
-5.28436e-09
3.92388e-09
2.77542e-05
6.47204e-06
-1.64591e-06
-4.82542e-09
-1.08825e-08
2.78181e-05
1.73991e-17
7.25863e-17
-1.47723e-17
-1.19692e-17
-5.33743e-18
2.79722e-17
6.36893e-18
-1.58327e-17
1.52534e-17
1.06018e-17
-4.27746e-17
-3.17398e-17
2.78095e-17
-1.37299e-17
-1.07907e-17
1.8499e-17
1.22577e-17
6.7858e-17
7.00997e-18
1.50888e-17
-2.85244e-21
1.12628e-17
6.05842e-17
-7.27138e-17
-1.85507e-18
1.26071e-17
1.96768e-17
-3.91909e-18
3.87314e-17
1.83115e-17
-9.87393e-17
3.65982e-17
3.00053e-17
3.49409e-17
-3.12991e-17
4.22704e-17
-1.23607e-19
-1.05662e-17
-2.14844e-17
-2.34561e-17
3.32441e-17
6.28905e-19
-5.06565e-18
3.44183e-17
4.65338e-17
2.14427e-17
1.66832e-17
5.63403e-17
7.03907e-17
1.58007e-17
-4.59305e-17
1.5009e-17
-2.16977e-17
7.01211e-18
4.71086e-17
-9.33714e-17
-3.62397e-17
4.91283e-18
4.78603e-18
5.27816e-17
-1.28211e-17
2.62678e-18
-3.24448e-17
-2.32799e-18
2.59807e-17
6.67208e-18
5.59213e-17
-9.04257e-18
3.16984e-17
4.93103e-18
-6.58261e-17
4.40545e-17
3.51534e-17
-7.25063e-18
4.40245e-17
-3.9943e-17
9.49596e-18
1.5626e-17
-1.15829e-17
-1.58218e-17
-1.88649e-17
-6.90837e-18
-9.91479e-18
3.39674e-19
1.11852e-17
-1.48023e-17
-5.34253e-17
-4.42426e-17
-5.55291e-17
6.32969e-17
1.63119e-17
1.91759e-18
5.18269e-18
-6.65504e-17
-3.2955e-17
-5.80023e-17
6.43209e-17
-6.58522e-18
3.15538e-17
3.41628e-17
-6.57681e-17
3.28782e-17
3.92643e-17
6.67714e-17
1.32376e-17
2.31478e-17
-6.27672e-17
-4.11681e-17
-8.10432e-18
1.81307e-18
-3.82804e-17
-2.69183e-17
3.50138e-18
-1.75632e-17
-1.67388e-17
-4.04967e-17
-1.17684e-17
2.83755e-07
-6.00446e-08
-1.771e-10
-5.4348e-10
8.27469e-09
-1.47507e-09
-3.94492e-12
-1.67813e-11
1.70821e-10
-2.59568e-11
-6.07802e-14
-3.18039e-13
2.61249e-12
-3.4251e-13
-1.02052e-15
-5.16793e-15
3.06114e-14
-3.44e-15
-3.14949e-17
-4.53799e-17
2.41492e-16
9.56842e-18
5.89735e-17
-3.45513e-17
-8.8014e-20
3.71337e-17
2.07083e-17
-3.3868e-17
2.71664e-17
3.75608e-17
2.04779e-17
2.04102e-17
-3.30509e-09
2.25862e-09
2.77062e-05
6.47396e-06
-1.64672e-06
-4.54019e-09
5.35762e-09
-9.4714e-09
2.78202e-05
2.77552e-05
-1.58297e-09
-2.36585e-09
2.76761e-05
2.76838e-05
2.77003e-05
3.76223e-17
-5.06954e-18
2.21347e-17
6.84519e-17
2.3311e-17
-4.69186e-17
6.37022e-17
7.0637e-17
-6.95852e-17
6.22928e-17
-1.17181e-17
1.04544e-16
1.79413e-18
-8.4314e-17
-2.03473e-17
6.90283e-17
-2.47219e-17
2.64454e-16
7.8837e-17
2.55097e-17
-3.42158e-15
3.06714e-14
-4.79849e-17
-4.09983e-17
-3.43446e-13
2.61943e-12
-9.50943e-16
-1.52208e-16
-2.60202e-11
1.71304e-10
-3.94643e-14
-5.7014e-15
-1.47752e-09
8.28759e-09
-2.33799e-12
-1.72225e-13
-6.01041e-08
2.83978e-07
-1.42095e-10
-1.22474e-11
-4.43146e-10
3.87691e-17
3.21521e-18
-2.71804e-17
-3.17315e-17
-7.80595e-18
-9.90247e-19
-5.66131e-17
-3.10881e-17
4.66639e-17
2.35904e-17
-1.55811e-17
-3.47419e-17
-2.01083e-17
-8.0094e-19
1.07743e-17
1.01335e-17
-1.53145e-17
-3.49535e-17
-1.8507e-17
-1.72127e-17
2.49665e-17
1.99613e-17
1.31053e-17
9.3977e-18
-3.445e-17
2.62119e-17
-1.90249e-17
-2.12223e-17
6.49563e-17
-7.49591e-17
1.58329e-17
1.34589e-17
9.0532e-18
1.43132e-17
5.4666e-17
4.08795e-17
-4.13081e-17
5.80719e-17
1.68598e-17
-2.33769e-18
1.65272e-17
4.02375e-17
-6.39813e-17
-9.78287e-17
-8.0636e-17
1.47389e-17
-7.23938e-17
-2.72538e-17
1.32088e-17
-3.46992e-17
3.78665e-18
-7.48456e-17
7.10436e-17
1.87721e-17
8.52765e-17
-4.11604e-17
7.72468e-18
-3.7213e-17
3.47278e-17
6.33655e-17
-9.44556e-18
-8.64607e-18
-8.76846e-17
2.48045e-17
1.71813e-17
9.38108e-17
-1.12339e-16
-1.07002e-16
6.38437e-18
-4.89017e-17
-9.99616e-17
-1.01838e-16
3.42219e-17
1.51645e-17
9.49361e-18
-1.39424e-17
-3.73091e-18
1.09146e-17
-1.93984e-17
6.00363e-18
6.26692e-18
-8.20178e-17
-1.05526e-17
-4.69323e-17
3.54783e-17
-1.11848e-16
-9.06037e-17
-3.03011e-17
2.38922e-17
8.01227e-17
-8.57389e-18
-3.90333e-17
-4.1664e-17
4.34087e-18
4.47556e-17
1.50298e-17
-6.37854e-17
5.96144e-17
2.83945e-17
1.15403e-16
-3.45677e-17
4.80954e-17
5.14928e-17
2.4868e-17
1.62347e-18
2.27683e-17
4.17148e-17
-1.30986e-17
6.30102e-17
1.14967e-17
-8.6608e-18
-4.30541e-17
5.68973e-18
2.65544e-17
6.32209e-17
-5.69341e-17
-2.11284e-17
-1.38302e-17
1.49682e-17
4.70165e-17
1.1839e-17
4.8258e-17
1.85243e-17
1.4787e-17
-9.72229e-18
2.81809e-18
-3.78329e-18
-2.68285e-17
-2.57035e-17
2.08906e-17
6.97371e-17
-6.0208e-17
-1.00473e-16
1.50326e-17
-6.55298e-17
-3.14424e-17
1.80921e-18
-3.28138e-18
-5.42771e-18
4.91408e-18
1.69229e-17
-2.06585e-17
-1.83636e-17
3.96797e-18
-1.82562e-17
1.58428e-17
-3.61649e-17
6.77281e-18
4.62943e-17
-8.47258e-19
1.31189e-17
6.1684e-17
4.38475e-17
-9.96773e-17
-3.15172e-17
-8.34868e-18
-3.82471e-19
1.31762e-17
9.73468e-18
5.80348e-18
8.36869e-18
7.39832e-17
1.76008e-17
-5.4754e-18
1.80451e-17
4.29321e-18
5.18443e-17
2.79694e-17
2.61252e-17
-8.93079e-18
1.30106e-17
-2.92212e-17
1.77068e-17
-5.37536e-17
4.53467e-17
2.55624e-17
-1.28274e-17
-3.55872e-17
-1.1724e-17
1.7897e-17
-2.94982e-17
2.46255e-17
-1.38629e-17
9.94311e-18
2.6774e-17
6.49162e-06
-1.65082e-06
-5.65125e-09
2.78847e-05
-2.22304e-08
-3.20528e-18
2.77712e-17
4.64158e-17
-3.5277e-17
2.72734e-17
1.45095e-17
-2.48071e-17
1.02334e-17
-1.96716e-17
1.79122e-17
-3.07816e-17
-4.7234e-17
3.42683e-17
3.40608e-17
8.91916e-18
3.12066e-17
-3.96526e-17
-1.76453e-17
-3.26008e-17
5.86127e-17
7.62866e-17
-2.63031e-17
-1.80754e-17
-5.50163e-18
3.96602e-17
2.9284e-17
-2.71051e-19
-4.05534e-17
1.49033e-17
1.50474e-17
-2.61624e-17
-2.85673e-17
1.08321e-17
-1.56022e-17
3.77554e-17
-1.58275e-17
-2.57112e-17
1.49073e-18
2.51395e-17
1.97309e-17
2.0992e-17
1.58885e-17
-5.58376e-18
3.49864e-17
6.49101e-06
-1.65043e-06
-5.81524e-09
2.78857e-05
-2.24247e-08
-3.56466e-08
2.35725e-08
8.66716e-05
-5.85914e-08
8.68499e-05
-9.99412e-18
-2.98292e-17
-5.43038e-18
4.89253e-18
-2.4411e-17
2.66332e-17
-1.45962e-17
3.75223e-17
3.54967e-17
-1.89186e-17
9.489e-18
8.91767e-18
1.50479e-17
1.60227e-17
7.14732e-18
-7.41955e-18
-2.70085e-17
3.72954e-17
-1.31586e-17
-3.22994e-17
-4.3856e-17
2.41879e-17
8.30348e-17
1.55447e-17
-6.70627e-18
2.11238e-17
6.76822e-17
-2.706e-17
5.55737e-17
1.56045e-17
9.8225e-18
-5.77516e-18
3.68141e-17
7.46735e-17
-6.4719e-17
1.17711e-17
8.87697e-18
6.24788e-17
-2.85591e-17
7.00701e-18
-1.00206e-17
2.79259e-17
-2.56938e-17
-1.72637e-17
-1.67236e-17
4.75271e-19
-1.77133e-17
2.78505e-17
-1.53141e-17
2.04632e-18
2.30385e-18
-1.48796e-17
1.67379e-18
3.46133e-17
1.10999e-17
2.19405e-17
-2.79332e-17
-6.54661e-18
5.46595e-17
1.55733e-17
-1.34692e-17
3.0124e-17
-2.15744e-17
6.91137e-17
-5.23597e-17
9.79853e-18
1.66427e-17
5.8277e-17
4.12418e-17
7.17806e-17
-3.85369e-17
6.82082e-17
1.36886e-17
-3.24494e-17
7.5272e-17
-4.52417e-17
3.80508e-17
-3.14355e-17
-3.06263e-17
-6.82447e-17
-8.54477e-17
1.47832e-17
2.01621e-19
4.84013e-18
-3.83344e-17
-7.38654e-17
-2.23089e-17
3.6409e-17
3.95727e-17
9.1246e-17
-6.89761e-17
9.59377e-17
-2.05237e-17
7.55129e-17
3.01393e-17
-6.80525e-17
-8.50902e-17
2.03171e-17
8.17132e-18
9.45997e-17
5.93717e-17
-1.70045e-17
5.98407e-17
7.28936e-17
8.0387e-17
-4.28851e-17
2.38595e-18
-4.79842e-17
1.7256e-17
-2.02727e-17
1.94345e-17
-1.50768e-17
-4.07522e-17
4.13499e-17
-4.69363e-18
-1.85684e-17
-1.03541e-17
9.05889e-18
-5.58564e-17
2.56082e-17
3.36962e-17
1.98074e-18
2.55506e-17
1.70643e-17
2.88481e-17
3.28398e-17
2.56771e-17
4.65976e-17
1.56771e-17
-1.86203e-17
-1.23047e-17
-4.09258e-20
-3.0743e-17
-1.40206e-17
2.84568e-07
-6.01924e-08
-1.91828e-10
-8.48605e-10
8.29549e-09
-1.4781e-09
-4.1225e-12
-2.24255e-11
1.712e-10
-2.60102e-11
-7.77768e-14
-4.10041e-13
2.61994e-12
-3.43559e-13
-1.26892e-15
-7.43069e-15
3.07188e-14
-3.47641e-15
-3.81014e-17
-9.14053e-17
2.91012e-16
-4.43027e-17
3.67267e-17
-2.00098e-17
-9.59528e-18
8.4249e-17
-4.60801e-18
3.78714e-18
-3.55351e-17
-3.39535e-17
8.89071e-18