/*--------------------------------*- C++ -*----------------------------------*\
| =========                 |                                                 |
| \\      /  F ield         | OpenFOAM: The Open Source CFD Toolbox           |
|  \\    /   O peration     | Version:  2212                                  |
|   \\  /    A nd           | Website:  www.openfoam.com                      |
|    \\/     M anipulation  |                                                 |
\*---------------------------------------------------------------------------*/
FoamFile
{
    version     2.0;
    format      ascii;
    arch        "LSB;label=32;scalar=64";
    class       volScalarField;
    location    "0.000216";
    object      p;
}
// * * * * * * * * * * * * * * * * * * * * * * * * * * * * * * * * * * * * * //

dimensions      [1 -1 -2 0 0 0 0];

internalField   nonuniform List<scalar> 
37920
(
206.71
208.064
208.579
209.749
211.144
212.788
214.895
217.668
221.434
226.409
233.038
240.559
252.953
271.443
294.423
316.081
332.388
349.701
359.453
363.581
361.478
359.843
365.918
370.003
376.844
383.495
386.214
383.831
375.803
367.937
364.551
362.552
360.692
356.835
352.173
346.212
338.411
329.038
321.913
315.282
306.319
293.303
279.992
269.252
259.315
256.784
244.893
186.257
187.438
188.061
189.206
190.538
192.166
194.117
196.591
199.927
204.292
209.74
216.194
226.306
241.319
261.905
282.066
300.961
314.717
319.378
321.837
323.543
328.014
331.871
334.07
337.184
340.309
344.941
344.9
341.829
336.659
333.246
331.126
329.596
326.992
324.161
320.231
315.198
308.792
303.566
299.2
294.101
284.73
273.776
263.969
254.934
251.763
242.555
180.487
181.578
182.256
183.401
184.715
186.354
188.254
190.61
193.752
197.855
202.787
208.834
217.851
231.344
251.156
271.028
291.173
304.011
307.141
308.602
312.734
319.844
322.906
324.121
324.696
326.205
331.209
332.559
331.726
328.135
324.744
322.394
320.817
318.454
316.204
312.888
308.789
303.44
298.785
295.154
291.541
283.675
273.428
263.858
255.026
252.147
247.3
178.127
179.162
179.871
181.017
182.321
183.969
185.843
188.133
191.167
195.125
199.782
205.66
214.048
226.755
246.244
266.057
286.598
299.364
302.165
303.078
309.464
317.253
320.197
320.766
319.537
320.199
325.043
327.178
327.279
324.57
321.266
318.744
317.097
314.752
312.767
309.773
306.086
301.233
296.833
293.512
290.547
283.422
273.4
265.256
258.448
255.38
252.448
177.329
178.333
179.065
180.21
181.501
183.134
184.984
187.22
190.155
193.961
198.467
204.265
212.235
224.472
243.829
263.689
284.366
297.29
300.247
301.087
309.125
316.845
319.995
320.163
318.305
317.943
322.492
324.962
325.415
323.131
319.92
317.285
315.564
313.149
311.276
308.475
304.984
300.366
296.087
292.899
290.167
283.379
274.788
267.493
261.473
258.28
256.061
177.078
178.079
178.819
179.957
181.232
182.831
184.656
186.848
189.716
193.419
197.858
203.616
211.306
223.29
242.59
262.501
282.419
295.336
299.425
300.603
311.986
316.991
322.32
323.109
318.337
317.333
321.565
324.097
324.653
322.567
319.449
316.77
314.996
312.517
310.69
307.989
304.592
300.069
295.843
292.711
290.046
284.226
277.039
270.567
264.862
261.378
259.274
177.003
178.019
178.754
179.883
181.147
182.722
184.53
186.696
189.534
193.191
197.608
203.339
210.813
222.586
241.23
261.538
280.607
294.297
299.044
300.684
315.751
319.033
324.775
326.957
323.046
317.254
321.323
323.795
324.378
322.381
319.329
316.643
314.837
312.322
310.506
307.847
304.49
299.993
295.784
292.671
290.02
286.601
280.264
274.147
268.511
264.686
262.396
176.985
178.008
178.74
179.865
181.126
182.691
184.493
186.65
189.476
193.115
197.527
203.233
210.468
222.28
240.365
260.455
278.932
292.914
298.899
301.216
315.272
321.27
325.046
327.788
328.404
320.462
321.317
323.707
324.295
322.34
319.326
316.642
314.819
312.287
310.471
307.825
304.706
300.579
296.103
293.305
291.207
289.216
283.599
277.788
272.24
268.132
265.52
177.204
178.244
178.779
179.865
181.124
182.686
184.487
186.64
189.462
193.094
197.5
203.179
210.309
221.844
239.569
259.828
277.118
291.07
298.918
302.013
314.926
321.979
325.082
327.983
330.076
326.213
321.517
323.691
324.28
323.956
321.45
318.481
316.317
313.589
312.119
309.939
306.996
302.862
298.271
295.421
293.742
292.191
287.095
281.509
276.095
271.799
268.826
178.401
179.389
179.979
180.976
182.142
183.476
185.064
187.001
189.488
193.088
197.49
203.103
210.222
221.576
239.154
259.164
276.207
290.332
298.975
303.437
314.894
322.007
324.544
327.892
330.605
329.706
322.462
323.703
324.949
325.466
323.464
320.497
318.436
315.598
314.097
312.25
309.637
305.899
301.244
298.146
296.305
295.073
290.591
285.358
280.186
275.815
272.506
179.309
180.331
180.887
181.917
183.092
184.475
186.095
188.024
190.491
193.596
197.806
203.053
210.165
221.232
238.102
257.97
275.51
290.084
299.199
305.435
314.986
321.916
324.222
327.781
330.794
333.086
326.072
324.755
326.458
327.025
325.736
322.707
320.429
317.423
315.835
314.155
311.851
308.455
304.16
301.146
299.363
298.108
294.126
289.297
284.515
280.226
276.622
180.386
181.4
181.959
182.966
184.142
185.505
187.105
189.026
191.358
194.322
198.207
203.046
210.139
221.055
237.482
256.884
274.889
289.99
299.286
308.723
314.977
321.782
324.162
327.859
330.838
334.67
330.98
327.048
328.766
328.315
327.541
324.883
322.67
319.406
317.613
316.099
314.142
311.261
307.047
303.787
301.835
300.927
297.549
293.16
288.867
284.833
281.028
181.386
182.43
182.989
184.009
185.181
186.555
188.155
190.027
192.338
195.304
198.93
203.403
210.137
220.959
236.609
255.868
274.657
289.978
299.857
312.233
315.053
321.411
324.306
328.124
330.844
335.38
335.061
330.693
332.024
329.983
329.448
327.031
324.917
321.605
319.582
318.017
316.213
313.695
309.863
306.676
304.704
303.701
300.833
296.888
293.134
289.498
285.669
182.517
183.532
184.082
185.083
186.247
187.596
189.165
191.021
193.271
196.076
199.541
203.811
210.234
220.883
235.999
255.354
274.58
290.049
301.615
313.916
315.24
320.751
324.529
328.144
330.736
335.69
336.961
333.825
333.237
331.689
331.08
329.086
327.179
323.773
321.542
319.937
318.322
316.113
312.486
309.266
307.183
306.272
303.99
300.508
297.307
294.191
290.524
183.554
184.59
185.135
186.144
187.304
188.663
190.233
192.054
194.259
197.044
200.471
204.782
211.101
220.841
235.181
254.355
274.554
290.074
306.476
314.865
316.403
320.593
324.611
328.17
330.392
335.788
337.819
336.44
334.163
333.625
332.694
331.012
329.391
326.091
323.651
321.856
320.261
318.361
315.126
312.059
309.841
308.832
307.008
303.943
301.27
298.746
295.39
184.723
185.741
186.276
187.26
188.41
189.743
191.289
193.094
195.242
197.876
201.141
205.286
211.554
220.771
234.8
253.742
274.17
290.212
308.515
315.891
317.78
320.577
324.634
328.159
330.216
335.812
338.288
338.037
335.667
335.451
334.287
332.812
331.487
328.267
325.742
323.847
322.279
320.57
317.593
314.601
312.305
311.179
309.78
307.123
304.92
302.994
300.021
185.808
186.81
187.354
188.343
189.488
190.825
192.364
194.132
196.244
198.849
202.039
206.103
211.886
220.738
234.493
253.152
274.028
290.311
309.273
316.58
318.493
320.628
324.604
327.817
329.851
335.723
338.64
339.311
337.561
337.304
335.912
334.528
333.488
330.534
327.884
325.806
324.141
322.554
319.867
317.082
314.731
313.385
312.34
310.061
308.257
306.897
304.33
186.958
187.93
188.462
189.422
190.554
191.869
193.388
195.144
197.208
199.693
202.706
206.645
212.165
220.729
234.127
252.404
273.883
290.294
309.448
317.253
319.393
321.24
324.014
327.283
329.003
334.753
338.723
340.652
339.726
339.171
337.65
336.229
335.383
332.613
329.984
327.81
326.02
324.447
321.891
319.233
316.961
315.498
314.746
312.921
311.476
310.678
308.567
188.03
188.991
189.525
190.491
191.623
192.94
194.453
196.181
198.213
200.678
203.676
207.38
212.467
220.734
233.578
251.793
273.504
290.327
309.416
318.09
320.899
322.053
323.709
327.149
328.698
334.174
338.731
341.829
342.085
341.38
339.55
338.065
337.297
334.813
332.183
329.895
327.888
326.246
323.838
321.397
319.233
317.868
317.027
315.883
314.779
314.584
312.989
189.195
190.156
190.684
191.627
192.744
194.042
195.539
197.254
199.251
201.623
204.419
207.947
213.047
220.986
233.165
250.959
272.752
289.657
309.433
318.207
321.227
322.265
323.805
327.131
328.598
333.941
338.624
342.248
343.773
344.094
341.493
339.925
339.124
336.877
334.391
332.148
330.004
328.287
325.848
323.434
321.367
320.1
319.368
318.861
318.066
318.427
317.326
190.37
191.335
191.859
192.808
193.926
195.229
196.723
198.418
200.375
202.71
205.52
208.925
213.824
221.398
232.959
249.786
270.893
288.757
309.096
318.203
321.266
322.714
324.438
327.712
329.075
333.891
338.598
342.406
344.563
345.304
343.494
341.884
340.989
338.957
336.679
334.529
332.23
330.448
328.136
325.826
323.775
322.514
321.774
321.606
321.2
321.853
321.204
191.536
192.509
193.029
193.962
195.068
196.358
197.84
199.522
201.45
203.7
206.332
209.58
214.428
221.769
232.862
249.071
269.471
288.456
308.587
317.981
321.228
323.711
327.131
329.113
330.118
334.25
338.599
342.437
344.905
345.947
345.258
343.757
342.749
340.885
338.796
336.868
334.578
332.765
330.464
328.152
326.08
324.823
324.17
324.106
324.005
324.821
324.501
192.567
193.559
194.074
195.013
196.121
197.414
198.895
200.567
202.472
204.687
207.307
210.507
215.126
222.057
232.787
248.263
268.493
287.944
307.413
317.903
321.034
324.347
331.218
332.276
331.933
335.033
338.876
342.414
345.155
346.583
346.851
345.557
344.485
342.701
340.811
339.082
336.769
334.97
332.869
330.638
328.479
327.145
326.511
326.497
326.471
327.295
327.247
193.606
194.617
195.115
196.048
197.153
198.441
199.92
201.587
203.478
205.635
208.084
211.084
215.53
222.313
232.73
247.81
267.455
287.231
305.836
317.889
321.678
325.804
336.628
337.021
337.573
337.018
338.846
342.342
345.244
347.233
348.1
347.147
346.129
344.434
342.63
341.189
339.038
337.307
335.359
333.235
330.996
329.536
328.868
328.734
328.673
329.264
329.469
194.67
195.707
196.197
197.137
198.242
199.532
201.009
202.67
204.535
206.675
209.131
212.164
216.377
222.753
232.726
247.414
266.761
286.733
305.324
318.218
322.631
328.702
342.987
343.823
350.315
345.521
340.068
342.556
345.431
348.066
349.188
348.724
347.812
346.177
344.488
343.271
341.255
339.643
337.943
335.998
333.698
332.008
331.203
330.814
330.558
330.881
331.108
195.882
196.917
197.383
198.317
199.416
200.696
202.164
203.806
205.658
207.752
210.127
212.856
216.847
223.265
232.796
247.227
266.377
286.636
305.051
319.057
324.657
333.692
345.3
350.995
355.417
356.071
344.997
343.202
345.819
348.731
350.021
350.075
349.417
347.887
346.248
345.258
343.455
341.964
340.487
338.742
336.389
334.415
333.368
332.668
332.112
332.178
332.27
197.179
198.187
198.659
199.576
200.66
201.929
203.385
205.018
206.836
208.883
211.178
214.059
217.989
224.122
233.312
247.154
266.225
286.32
305.058
320.392
328.201
339.661
346.291
354.037
356.963
360.025
356.071
346.269
346.602
349.722
351.06
351.423
351.022
349.674
348.071
347.191
345.501
344.039
342.685
341.188
338.929
336.7
335.313
334.342
333.468
333.251
333.178
198.549
199.489
199.959
200.858
201.929
203.187
204.631
206.243
208.037
210.031
212.276
214.861
218.623
224.559
233.604
247.114
265.476
286.15
305.183
321.182
332.1
342.136
346.775
355.318
357.21
361.252
360.898
353.352
348.002
350.934
352.521
352.677
352.548
351.435
349.838
349.032
347.453
345.957
344.603
343.311
341.247
338.928
337.219
336.029
334.854
334.259
334.008
199.834
200.744
201.231
202.109
203.17
204.418
205.852
207.453
209.225
211.192
213.401
216.046
219.68
225.464
234.135
247.101
264.64
285.981
305.584
321.413
335.898
343.21
347.432
355.524
357.185
361.489
362.623
360.225
351.164
354.327
355.614
354.031
354.069
353.245
351.669
350.865
349.347
347.756
346.278
345.169
343.434
341.162
339.287
337.912
336.444
335.469
334.93
201.1
201.988
202.464
203.335
204.388
205.631
207.059
208.648
210.4
212.327
214.42
216.89
220.394
225.888
234.396
247.059
263.724
285.679
305.585
321.369
337.165
343.66
349.165
355.294
356.915
361.393
362.99
362.881
355.28
357.155
357.193
355.583
355.522
354.988
353.415
352.62
351.2
349.574
347.928
346.833
345.388
343.367
341.535
340.101
338.452
337.093
336.195
202.318
203.205
203.687
204.552
205.601
206.84
208.266
209.856
211.599
213.514
215.642
218.084
221.443
226.788
234.846
246.983
263.275
285.428
305.701
320.606
337.972
345.298
349.745
354.682
356.553
360.563
363.004
364.225
360.019
358.226
357.996
357.311
357.007
356.719
355.21
354.421
353.075
351.433
349.64
348.564
347.399
345.632
344.007
342.592
340.896
339.246
337.98
203.575
204.467
204.937
205.793
206.836
208.072
209.494
211.075
212.809
214.689
216.689
219.03
222.253
227.325
235.214
246.925
262.855
285.007
305.275
320.277
338.349
346.82
349.702
354.033
355.99
358.715
362.918
364.781
363.519
359.652
359.053
359.027
358.53
358.393
356.935
356.225
355.026
353.526
351.649
350.364
349.264
347.741
346.352
345.091
343.6
341.868
340.272
204.831
205.721
206.193
207.05
208.089
209.323
210.747
212.333
214.06
215.916
217.953
220.225
223.335
228.194
235.732
246.899
262.549
284.091
304.392
320.291
339.388
347.807
349.87
353.926
355.878
358.129
362.26
364.989
365.756
361.393
360.486
360.828
360.242
360.106
358.716
358.063
356.941
355.555
353.75
352.435
351.378
349.968
348.728
347.631
346.397
344.811
343.001
206.128
207.027
207.491
208.333
209.368
210.599
212.019
213.597
215.313
217.145
219.066
221.303
224.281
228.853
236.147
246.89
262.034
282.405
302.376
320.693
340.869
348.305
350.679
353.913
355.854
357.925
362.041
364.993
367.039
363.458
362.475
362.697
362.044
361.799
360.461
359.871
358.871
357.669
355.918
354.415
353.277
351.991
351.014
350.197
349.229
347.971
346.102
207.44
208.333
208.791
209.634
210.661
211.886
213.305
214.88
216.589
218.416
220.361
222.493
225.41
229.841
236.737
246.886
261.632
281.053
301.901
321.133
341.268
351.515
353.469
354.444
356.254
357.957
361.991
364.782
367.526
365.59
364.745
364.744
363.959
363.573
362.26
361.689
360.723
359.619
358.108
356.679
355.484
354.149
353.261
352.69
352.06
351.232
349.447
208.798
209.699
210.155
210.983
212.001
213.22
214.63
216.195
217.895
219.699
221.562
223.687
226.447
230.662
237.296
246.89
261.408
280.451
301.687
321.231
341.382
354.673
358.029
355.827
357.347
359.251
362.754
364.722
367.991
367.81
367.075
366.837
365.882
365.395
364.056
363.515
362.669
361.675
360.271
358.813
357.554
356.203
355.398
355.046
354.722
354.372
352.803
210.198
211.083
211.533
212.35
213.355
214.566
215.973
217.54
219.231
221.013
222.867
224.908
227.653
231.712
238.07
247.246
261.174
280.341
301.457
321.689
341.192
355.718
361.652
358.809
359.48
360.887
363.722
365.25
368.619
369.798
369.298
368.882
367.806
367.297
365.906
365.332
364.526
363.578
362.427
361.177
359.948
358.474
357.589
357.314
357.185
357.256
355.99
211.489
212.368
212.824
213.628
214.624
215.828
217.227
218.782
220.467
222.226
224.041
226.059
228.669
232.584
238.634
247.465
261.026
279.504
301.538
321.834
341.142
356.095
362.927
365.613
362.845
362.996
365.677
366.27
369.27
371.068
371.027
370.689
369.606
369.142
367.678
367.056
366.328
365.371
364.236
363.069
361.963
360.544
359.689
359.487
359.514
359.877
358.981
212.675
213.552
214.002
214.794
215.781
216.978
218.373
219.927
221.607
223.363
225.171
227.148
229.74
233.502
239.365
247.9
260.853
278.7
301.35
322.099
341.064
356.195
363.262
369.013
368.018
366.592
367.058
368.287
370.479
371.985
372.351
372.212
371.328
370.931
369.38
368.655
367.928
366.95
365.951
364.974
364.029
362.648
361.793
361.632
361.769
362.283
361.787
213.797
214.684
215.13
215.919
216.903
218.094
219.484
221.036
222.72
224.476
226.259
228.202
230.699
234.381
239.976
248.28
260.719
277.854
301.422
322.127
340.913
356.184
363.282
370.633
374.705
374.551
372.234
370.668
372.037
372.974
373.402
373.51
372.888
372.635
371.055
370.272
369.6
368.564
367.464
366.47
365.662
364.503
363.815
363.738
363.938
364.496
364.367
214.96
215.85
216.278
217.057
218.036
219.22
220.608
222.167
223.851
225.616
227.415
229.336
231.784
235.31
240.723
248.723
260.521
277.176
301.316
322.205
340.631
355.566
363.167
371.352
378.249
381.101
380.57
373.718
373.832
374.14
374.565
374.792
374.408
374.354
372.778
371.93
371.268
370.281
369.317
368.414
367.628
366.474
365.831
365.783
365.991
366.508
366.616
216.298
217.186
217.599
218.377
219.353
220.53
221.912
223.471
225.155
226.927
228.705
230.585
232.978
236.439
241.54
249.258
260.463
276.512
300.754
321.859
339.851
354.447
363.176
372.049
380.475
384.228
386.949
377.976
375.998
375.64
375.932
376.125
375.928
376.067
374.629
373.812
373.239
372.248
371.202
370.232
369.487
368.427
367.825
367.758
367.917
368.333
368.49
217.9
218.797
219.193
219.947
220.9
222.06
223.432
224.984
226.661
228.406
230.156
232.024
234.335
237.615
242.52
249.883
260.474
275.963
298.767
321.108
338.481
354.214
363.97
375.165
383.117
386.776
389.845
383.965
379.172
377.919
377.762
377.79
377.602
377.824
376.53
375.713
375.2
374.332
373.45
372.531
371.725
370.566
369.862
369.703
369.774
370.035
370.095
219.514
220.408
220.792
221.533
222.469
223.616
224.975
226.511
228.184
229.921
231.664
233.461
235.742
238.934
243.565
250.509
260.507
275.642
296.109
319.045
338.003
354.651
364.59
378.479
384.623
388.246
391.198
390.538
383.234
380.824
379.963
379.641
379.357
379.562
378.419
377.674
377.269
376.416
375.468
374.518
373.763
372.662
371.894
371.635
371.596
371.682
371.581
221.134
222.013
222.383
223.101
224.017
225.145
226.49
228.016
229.677
231.401
233.111
234.926
237.133
240.218
244.683
251.333
261.001
275.407
294.526
316.285
337.576
355.13
366.779
379.567
385.229
389.302
391.759
393.237
387.104
383.959
382.488
381.726
381.279
381.373
380.257
379.521
379.215
378.54
377.781
376.875
376.046
374.872
373.979
373.578
373.406
373.361
373.025
222.759
223.614
223.973
224.673
225.571
226.684
228.016
229.537
231.197
232.919
234.63
236.39
238.57
241.554
245.824
252.181
261.486
275.321
293.653
315.306
337.051
355.57
370.222
381.378
385.863
389.502
391.967
394.375
390.821
387.067
385.163
383.969
383.307
383.24
382.135
381.42
381.18
380.527
379.749
378.865
378.078
376.957
376.035
375.535
375.246
375.073
374.56
224.407
225.238
225.587
226.266
227.143
228.237
229.56
231.076
232.722
234.435
236.124
237.878
240.01
242.932
247.057
253.103
262.048
275.291
292.737
314.685
336.997
356.247
372.795
383.279
386.497
389.588
392.053
394.913
392.937
390.201
388.022
386.465
385.523
385.19
384.057
383.256
383.043
382.551
381.967
381.142
380.263
379.056
378.09
377.519
377.184
376.919
376.31
226.038
226.856
227.195
227.858
228.721
229.805
231.118
232.623
234.266
235.971
237.651
239.393
241.487
244.306
248.268
254.042
262.618
275.267
291.901
314.139
336.962
356.329
373.139
383.59
387.818
389.61
392.818
395.182
394.572
392.79
390.795
388.998
387.792
387.183
386.067
385.181
384.92
384.387
383.804
383.083
382.261
381.044
380.095
379.531
379.221
378.956
378.283
227.643
228.449
228.782
229.428
230.274
231.34
232.638
234.131
235.778
237.475
239.152
240.864
242.954
245.74
249.554
255.071
263.212
275.246
291.571
313.671
336.856
356.571
373.315
383.895
388.589
391.319
394.502
395.228
395.976
394.852
393.322
391.47
390.108
389.212
388.048
387.051
386.77
386.392
386.051
385.485
384.644
383.255
382.149
381.548
381.272
381.076
380.379
229.2
229.989
230.315
230.945
231.777
232.828
234.117
235.607
237.248
238.946
240.61
242.33
244.36
247.06
250.782
256.028
263.927
275.241
291.463
313.568
336.736
356.672
373.334
384.826
390.925
394.539
395.189
394.889
397.283
396.718
395.605
393.842
392.382
391.238
390.125
388.985
388.605
388.141
387.841
387.53
386.915
385.531
384.24
383.545
383.266
383.178
382.497
230.732
231.499
231.82
232.433
233.248
234.282
235.558
237.036
238.662
240.359
242.025
243.723
245.774
248.446
252.023
257.115
264.6
275.353
291.426
313.672
336.807
356.706
373.036
385.724
393.591
397.482
396.788
395.674
398.207
398.646
397.774
396.2
394.683
393.251
392.113
390.843
390.403
389.961
389.758
389.624
389.23
387.91
386.428
385.58
385.252
385.254
384.619
232.225
232.976
233.292
233.889
234.692
235.714
236.98
238.456
240.09
241.79
243.447
245.145
247.133
249.742
253.277
258.142
265.422
275.719
291.439
313.044
336.087
356.661
372.821
386.107
396.565
402.181
402.23
400.485
399.775
400.618
399.952
398.531
396.959
395.307
394.207
392.783
392.195
391.512
391.16
391.133
391.096
390.101
388.65
387.704
387.322
387.373
386.816
233.715
234.465
234.769
235.356
236.148
237.158
238.415
239.883
241.509
243.203
244.876
246.562
248.563
251.148
254.541
259.264
266.181
275.982
291.053
312.031
335.439
356.182
372.845
386.32
398.968
406.971
409.18
407.103
403.489
403.135
402.313
400.943
399.293
397.458
396.281
394.709
394.069
393.359
392.871
392.768
392.818
392.141
390.857
389.894
389.47
389.53
389.066
235.251
236.007
236.297
236.875
237.659
238.658
239.904
241.369
243.002
244.711
246.386
248.072
250.034
252.559
255.91
260.439
267.035
276.543
290.649
310.924
335.108
355.945
373
386.449
399.916
408.396
412.707
413.144
408.637
406.022
404.792
403.305
401.586
399.657
398.456
396.793
396.047
395.155
394.455
394.263
394.355
394.016
393.012
392.075
391.606
391.629
391.239
236.895
237.657
237.931
238.498
239.269
240.253
241.492
242.956
244.586
246.297
247.958
249.636
251.589
254.108
257.356
261.717
267.929
276.998
290.469
309.058
334.931
355.18
372.881
386.772
401.141
409.398
414.517
415.878
414.228
409.635
407.635
405.872
404.026
401.959
400.686
398.947
398.229
397.477
396.716
396.312
396.205
395.93
395.142
394.229
393.697
393.646
393.279
238.612
239.378
239.636
240.19
240.946
241.917
243.144
244.596
246.221
247.932
249.609
251.283
253.234
255.687
258.839
263.034
269.014
277.627
290.396
308.303
333.908
354.982
373.141
388.631
403.598
410.693
415.497
417.33
416.963
413.059
410.459
408.414
406.441
404.275
403.008
401.186
400.371
399.551
398.79
398.37
398.136
397.852
397.248
396.36
395.734
395.576
395.173
240.383
241.14
241.383
241.921
242.658
243.61
244.822
246.267
247.89
249.589
251.246
252.914
254.835
257.281
260.41
264.463
270.09
278.382
290.386
307.964
332.107
354.888
374.322
391.18
404.925
411.913
416.295
418.666
418.571
416.481
413.282
411.012
408.904
406.636
405.342
403.451
402.65
401.957
401.266
400.821
400.409
399.923
399.352
398.464
397.714
397.415
396.933
242.212
242.945
243.176
243.694
244.409
245.34
246.533
247.958
249.567
251.265
252.94
254.604
256.538
258.949
261.947
265.853
271.266
279.148
290.417
307.778
330.68
354.835
375.612
392.364
406.717
413.73
417.351
420.425
420.455
419.609
415.937
413.502
411.285
408.981
407.732
405.75
404.819
404.03
403.382
403.072
402.698
402.085
401.464
400.566
399.677
399.208
398.626
244.072
244.777
245.004
245.5
246.191
247.1
248.274
249.686
251.285
252.971
254.613
256.279
258.193
260.572
263.57
267.369
272.547
280.059
290.63
307.228
329.936
354.51
376.143
393.286
408.42
415.604
419.423
422.158
422.627
422.642
418.48
415.958
413.652
411.329
410.104
408.088
407.131
406.335
405.681
405.421
405.106
404.389
403.622
402.682
401.66
401.013
400.32
245.775
246.453
246.683
247.159
247.831
248.722
249.881
251.28
252.87
254.548
256.201
257.859
259.782
262.161
265.063
268.732
273.678
280.939
291.164
306.968
328.494
353.839
376.303
394.048
410.025
418.235
422.162
423.581
423.954
423.942
420.714
418.187
415.82
413.519
412.359
410.298
409.215
408.282
407.585
407.434
407.327
406.691
405.823
404.809
403.663
402.849
402.039
247.25
247.913
248.147
248.606
249.265
250.142
251.288
252.674
254.259
255.936
257.58
259.25
261.17
263.518
266.411
270.012
274.825
281.721
291.518
306.801
327.349
352.958
376.356
394.518
411.708
420.56
423.91
425.42
425.542
425.089
422.815
420.367
417.962
415.645
414.459
412.397
411.285
410.342
409.482
409.307
409.314
408.857
408.005
406.955
405.726
404.779
403.855
248.575
249.252
249.484
249.934
250.586
251.455
252.593
253.979
255.567
257.252
258.905
260.57
262.486
264.839
267.683
271.196
275.818
282.529
292.088
306.643
326.458
351.783
376.164
394.666
412.064
423.71
427.493
428.457
427.447
427.84
424.903
422.444
420.043
417.717
416.447
414.338
413.086
412.087
411.019
410.768
410.853
410.694
410.07
409.121
407.902
406.877
405.864
249.872
250.571
250.788
251.234
251.88
252.742
253.872
255.252
256.842
258.538
260.209
261.883
263.797
266.126
268.949
272.406
276.928
283.301
292.618
306.515
325.947
351.401
375.691
394.668
412.009
427.113
433.37
435.167
431.731
429.835
426.815
424.521
422.167
419.844
418.447
416.321
415.093
414.231
412.943
412.44
412.402
412.361
412.022
411.249
410.133
409.096
408.025
251.238
251.945
252.138
252.589
253.24
254.096
255.222
256.606
258.213
259.936
261.626
263.299
265.19
267.515
270.318
273.713
278.081
284.247
293.2
306.462
325.529
351.481
375.107
394.693
410.951
427.893
435.378
437.96
437.836
432.237
428.719
426.558
424.314
421.997
420.515
418.34
417.011
416.242
414.973
414.252
414.05
414.017
413.91
413.307
412.324
411.329
410.23
252.916
253.627
253.79
254.233
254.871
255.711
256.824
258.205
259.8
261.528
263.226
264.9
266.798
269.103
271.854
275.177
279.43
285.241
293.851
306.484
325.366
351.358
374.804
394.628
410.642
428.398
436.544
439.25
440.387
438.055
430.966
428.71
426.593
424.378
422.785
420.595
419.292
418.676
417.533
416.624
416.087
415.878
415.839
415.35
414.468
413.534
412.424
254.876
255.59
255.736
256.158
256.768
257.586
258.675
260.026
261.605
263.305
265.005
266.679
268.563
270.853
273.588
276.833
280.929
286.534
294.719
306.66
325.016
351.153
374.305
394.593
410.998
428.772
437.235
440.681
442.368
440.035
433.532
430.928
428.897
426.805
425.144
422.874
421.458
420.876
419.936
419.069
418.287
417.85
417.778
417.388
416.583
415.717
414.61
256.831
257.523
257.662
258.062
258.646
259.439
260.502
261.836
263.403
265.1
266.757
268.428
270.329
272.613
275.283
278.458
282.427
287.773
295.632
307.085
324.923
351.319
373.234
394.399
411.064
428.998
438.866
443.575
443.5
441.09
436.084
433.174
431.189
429.27
427.592
425.384
423.851
423.282
422.495
421.74
420.776
419.967
419.735
419.427
418.692
417.899
416.805
258.716
259.372
259.502
259.881
260.444
261.217
262.269
263.595
265.146
266.829
268.513
270.176
272.058
274.317
276.982
280.099
283.974
289.131
296.613
307.629
324.681
349.573
372.548
393.142
411.148
429.122
439.677
444.846
444.718
443.005
438.525
435.378
433.38
431.635
429.966
427.784
426.014
425.365
424.738
424.248
423.341
422.213
421.715
421.443
420.794
420.085
419.019
260.601
261.217
261.339
261.7
262.246
263.002
264.031
265.326
266.859
268.53
270.193
271.866
273.753
276.012
278.635
281.716
285.487
290.469
297.686
308.244
324.585
347.916
369.758
390.426
411.405
429.568
439.964
445.394
446.307
444.253
441.11
437.734
435.619
434.016
432.342
430.36
428.404
427.633
427.073
426.818
426.086
424.73
423.861
423.487
422.899
422.267
421.242
262.541
263.117
263.235
263.573
264.095
264.827
265.838
267.132
268.677
270.354
271.998
273.65
275.53
277.766
280.373
283.395
287.089
291.883
298.709
308.913
324.549
346.067
367.756
389.234
411.773
430.192
439.964
445.466
447.374
446.472
443.808
440.193
437.909
436.379
434.659
432.881
430.668
429.695
429.162
429.111
428.727
427.436
426.248
425.647
425.044
424.456
423.465
264.401
264.935
265.057
265.373
265.876
266.591
267.584
268.848
270.34
271.979
273.649
275.32
277.204
279.445
282.038
285.036
288.639
293.288
299.887
309.572
324.532
344.239
366.293
388.805
411.875
430.276
442.367
446.297
448.023
448.31
446.413
442.784
440.313
438.784
436.976
435.487
433.184
432.004
431.254
431.215
431.152
430.123
428.823
428.006
427.339
426.762
425.791
266.03
266.56
266.687
266.991
267.484
268.19
269.173
270.441
271.967
273.635
275.256
276.915
278.806
281.04
283.616
286.575
290.126
294.63
300.882
310.334
324.515
343.007
365.027
388.462
411.788
429.94
443.542
449.19
450.265
450.5
449.168
445.521
442.832
441.176
439.274
437.961
435.508
434.102
432.967
432.803
432.924
432.332
431.291
430.479
429.833
429.304
428.373
267.521
268.079
268.199
268.496
268.985
269.684
270.66
271.915
273.409
275.054
276.741
278.413
280.3
282.543
285.13
288.08
291.562
295.936
301.935
310.987
324.472
342.236
364.256
387.342
410.91
429.972
444.58
450.998
452.599
453.111
451.883
448.305
445.415
443.538
441.584
440.394
438.026
436.592
435.001
434.488
434.499
434.166
433.55
432.941
432.424
432.006
431.143
268.984
269.567
269.668
269.972
270.466
271.166
272.14
273.405
274.936
276.634
278.285
279.962
281.851
284.091
286.667
289.595
293.045
297.333
303.094
311.657
324.441
341.777
363.308
386.236
408.865
430.335
446.615
453.176
455.531
456.029
454.543
451.107
448.08
445.956
443.956
442.764
440.375
439.04
437.314
436.453
436.223
435.938
435.668
435.31
434.96
434.676
433.884
270.604
271.183
271.255
271.567
272.069
272.766
273.736
275
276.526
278.212
279.943
281.616
283.486
285.728
288.323
291.251
294.648
298.813
304.367
312.528
324.49
341.506
362.725
385.805
408.639
430.452
447.928
455.868
457.837
458.831
457.279
453.96
450.886
448.571
446.476
445.31
443.064
441.863
440.26
439.078
438.511
438.007
437.838
437.652
437.423
437.245
436.51
272.659
273.239
273.286
273.587
274.071
274.744
275.686
276.926
278.435
280.149
281.852
283.544
285.423
287.659
290.227
293.112
296.448
300.526
305.855
313.563
325.004
341.482
362.794
385.558
408.339
430.596
449.585
457.962
460.816
461.843
460.323
456.968
453.844
451.375
449.169
447.974
445.711
444.58
443.204
441.972
441.187
440.375
440.092
439.976
439.831
439.73
439.035
274.971
275.538
275.576
275.856
276.309
276.96
277.884
279.111
280.589
282.235
283.915
285.588
287.474
289.72
292.292
295.16
298.444
302.385
307.493
314.799
325.695
341.463
362.45
385.564
408.527
431.305
451.242
462.169
464.419
464.351
463.187
459.92
456.837
454.298
451.999
450.826
448.632
447.533
446.344
445.16
444.284
443.105
442.525
442.323
442.204
442.153
441.487
277.302
277.824
277.868
278.126
278.552
279.176
280.06
281.231
282.677
284.314
285.988
287.675
289.576
291.823
294.371
297.2
300.415
304.255
309.157
316.136
326.481
341.57
362.226
385.16
408.187
431.724
451.703
463.795
466.625
466.984
465.877
462.836
459.793
457.221
454.87
453.698
451.436
450.286
449.266
448.241
447.482
446.139
445.207
444.771
444.587
444.541
443.888
279.539
279.995
280.049
280.287
280.691
281.296
282.162
283.327
284.755
286.361
288.001
289.678
291.583
293.83
296.375
299.179
302.356
306.112
310.87
317.493
327.353
341.838