/*--------------------------------*- C++ -*----------------------------------*\
| =========                 |                                                 |
| \\      /  F ield         | OpenFOAM: The Open Source CFD Toolbox           |
|  \\    /   O peration     | Version:  2212                                  |
|   \\  /    A nd           | Website:  www.openfoam.com                      |
|    \\/     M anipulation  |                                                 |
\*---------------------------------------------------------------------------*/
FoamFile
{
    version     2.0;
    format      ascii;
    arch        "LSB;label=32;scalar=64";
    class       volScalarField;
    location    "0.00023736";
    object      p;
}
// * * * * * * * * * * * * * * * * * * * * * * * * * * * * * * * * * * * * * //

dimensions      [1 -1 -2 0 0 0 0];

internalField   nonuniform List<scalar> 
105480
(
40.2785
38.6023
40.0941
41.9146
43.3534
44.6317
45.7938
46.8408
47.8062
48.7248
49.5794
50.3402
50.9996
51.5805
52.1034
52.5757
52.9972
53.3545
53.6464
53.8953
54.1313
54.368
54.5968
54.8045
54.983
55.1312
55.2438
55.3295
55.3909
55.4289
55.4458
55.443
55.421
55.3865
55.3415
55.2864
55.2159
55.1256
55.0199
54.8946
54.758
54.6273
54.5029
54.3755
54.2381
54.0825
53.898
53.6868
53.4605
53.2224
52.9724
52.7155
52.4582
52.2055
51.9581
51.7109
51.4618
51.2109
50.9543
50.6906
50.4272
50.1714
49.9212
49.6705
49.4201
49.1751
48.9378
48.7091
48.4832
48.2507
48.0192
47.8037
47.6043
47.4122
47.2233
47.0376
46.8537
46.6699
46.4838
46.2883
46.0805
45.8654
45.6484
45.434
45.2262
45.0262
44.835
44.6589
44.5051
44.3682
44.2314
44.0871
43.9434
43.8096
43.6881
43.5754
43.4668
43.3602
43.2578
43.1609
43.0679
42.9739
42.8733
42.7641
42.6483
42.5184
42.3593
42.1698
41.9586
41.7296
41.4812
41.2062
40.9037
40.5879
40.2659
39.9387
39.6174
39.3129
39.0282
38.7673
38.5321
38.3164
38.1153
37.935
37.7874
37.675
37.5867
37.5137
37.4557
37.4136
37.3897
37.3931
37.4104
37.4567
37.5532
37.7139
37.9035
38.002
37.9212
37.4767
36.2898
33.7145
28.7788
16.9368
43.0471
40.1121
40.6823
42.2959
43.6081
44.8115
45.9262
46.9413
47.8818
48.7756
49.6052
50.342
50.9914
51.5655
52.0827
52.5506
52.9683
53.3228
53.6137
53.8624
54.098
54.3329
54.5586
54.7624
54.9371
55.0855
55.1975
55.2829
55.3427
55.3786
55.3914
55.3906
55.3678
55.3317
55.2836
55.2219
55.1479
55.0606
54.954
54.8301
54.6955
54.5613
54.4342
54.3086
54.1734
54.0176
53.8313
53.6188
53.3915
53.1525
52.9018
52.6443
52.3868
52.134
51.8865
51.6392
51.3902
51.1392
50.8826
50.6192
50.3561
50.1008
49.851
49.6009
49.3509
49.1063
48.8693
48.6409
48.4152
48.1829
47.9518
47.7366
47.5375
47.3459
47.1574
46.9723
46.789
46.606
46.4205
46.226
46.0194
45.8059
45.5906
45.378
45.1723
44.9742
44.7848
44.6105
44.4588
44.324
44.1894
44.0477
43.9066
43.775
43.6551
43.544
43.4366
43.331
43.229
43.1324
43.0393
42.9445
42.8423
42.7302
42.6107
42.4761
42.3112
42.1153
41.8978
41.6631
41.4103
41.1319
40.8279
40.5123
40.1917
39.8677
39.5506
39.2511
38.9716
38.7161
38.4874
38.2772
38.0825
37.9092
37.7675
37.6601
37.5766
37.5084
37.4544
37.4148
37.3983
37.4038
37.424
37.4723
37.5738
37.7302
37.8943
37.913
37.7767
37.3396
36.4107
34.871
32.4852
27.5526
43.6086
40.5067
40.9418
42.5062
43.7469
44.9198
46.0021
46.9936
47.9149
48.7908
49.6052
50.3316
50.9672
51.5314
52.0402
52.5011
52.9126
53.2614
53.547
53.7931
54.027
54.2596
54.4824
54.6826
54.8542
55.0022
55.1169
55.202
55.2613
55.2928
55.3029
55.301
55.2758
55.2374
55.1872
55.124
55.0488
54.9597
54.8522
54.7252
54.5892
54.4532
54.3244
54.1997
54.0665
53.9101
53.7223
53.5084
53.2801
53.0402
52.7891
52.5322
52.2749
52.0218
51.7738
51.5262
51.2768
51.0254
50.7684
50.5045
50.2417
49.9867
49.7373
49.4874
49.2376
48.9932
48.7563
48.5279
48.3023
48.0703
47.8395
47.6244
47.4256
47.2344
47.0466
46.8622
46.6796
46.4974
46.3128
46.1194
45.9145
45.703
45.4901
45.2802
45.077
44.8817
44.6952
44.5238
44.3747
44.2423
44.1106
43.9719
43.8338
43.7052
43.5881
43.4796
43.3742
43.2702
43.1695
43.0736
42.9808
42.8852
42.781
42.6659
42.5423
42.4025
42.2313
42.0284
41.8039
41.5628
41.3045
41.0221
40.7159
40.3997
40.0804
39.7595
39.4469
39.1528
38.8789
38.6289
38.4057
38.2043
38.0187
37.8544
37.7225
37.6238
37.549
37.4894
37.442
37.4069
37.3964
37.4015
37.4213
37.4696
37.5732
37.7271
37.875
37.8667
37.7832
37.5042
36.9244
36.272
35.4759
34.1426
44.6677
41.2694
41.4062
42.8465
44.0063
45.1243
46.1558
47.1034
47.9894
48.8344
49.626
50.3385
50.9636
51.5163
52.0154
52.4681
52.8723
53.2163
53.4995
53.7431
53.9738
54.2035
54.4224
54.6196
54.7895
54.9358
55.0545
55.1372
55.1929
55.2185
55.2262
55.2212
55.1937
55.153
55.1006
55.0352
54.9574
54.8652
54.7546
54.6265
54.4874
54.3503
54.2207
54.0938
53.9584
53.8007
53.6114
53.3963
53.1668
52.9262
52.6749
52.418
52.16
51.9061
51.6573
51.4089
51.1586
50.9066
50.6489
50.3852
50.123
49.8685
49.6191
49.3692
49.1195
48.8751
48.6381
48.4097
48.1838
47.9518
47.7211
47.5061
47.3076
47.1168
46.9294
46.7456
46.5637
46.382
46.1978
46.0051
45.8014
45.5917
45.381
45.1734
44.9726
44.7797
44.5959
44.4275
44.2809
44.1507
44.0213
43.8853
43.75
43.6243
43.5099
43.4036
43.3004
43.1985
43.0995
43.005
42.9128
42.817
42.7117
42.5948
42.4684
42.3252
42.1495
41.9414
41.7116
41.4655
41.2027
40.9169
40.6084
40.2914
39.9728
39.654
39.3447
39.0543
38.7844
38.5383
38.3189
38.1221
37.9442
37.7879
37.6624
37.5689
37.4989
37.4457
37.4083
37.3828
37.383
37.3885
37.4095
37.4597
37.5664
37.7159
37.8613
37.9184
37.9079
37.8564
37.6887
37.3951
36.9833
36.3053
45.3942
41.8421
41.9199
43.1821
44.2734
45.3362
46.3254
47.2427
48.1014
48.9187
49.6775
50.3613
50.9704
51.5138
52.0024
52.4463
52.8431
53.1816
53.4618
53.7038
53.9332
54.1594
54.3747
54.5695
54.7381
54.8812
55.003
55.0833
55.1304
55.1506
55.1563
55.1467
55.1156
55.0715
55.0158
54.9473
54.8662
54.7705
54.6566
54.5255
54.3846
54.2457
54.1134
53.985
53.847
53.6871
53.4961
53.2792
53.0482
52.806
52.5534
52.2949
52.0354
51.7802
51.5303
51.2808
51.0297
50.777
50.5192
50.2559
49.9939
49.7394
49.4899
49.2398
48.99
48.7454
48.5084
48.2797
48.0534
47.8214
47.5909
47.3767
47.1787
46.9881
46.8011
46.6176
46.4361
46.2547
46.0707
45.8783
45.676
45.4683
45.2596
45.0543
44.8556
44.6649
44.4837
44.318
44.1738
44.0454
43.9182
43.7849
43.6526
43.5297
43.4178
43.3139
43.2132
43.1137
43.017
42.9242
42.833
42.7375
42.6319
42.5141
42.3861
42.2405
42.0618
41.8501
41.6161
41.3658
41.0992
40.8101
40.4995
40.1814
39.8628
39.5453
39.2382
38.9503
38.6832
38.4397
38.223
38.0285
37.8554
37.7061
37.5872
37.499
37.4336
37.3864
37.351
37.3377
37.3414
37.353
37.3802
37.4379
37.5462
37.6897
37.8523
38.0035
38.1545
38.3254
38.4339
38.3828
38.2294
37.933
46.1608
42.3596
42.398
43.5116
44.5405
45.5501
46.4951
47.3756
48.2045
48.9967
49.7361
50.401
50.9888
51.5174
51.9968
52.4317
52.8209
53.1537
53.4301
53.6697
53.8969
54.1208
54.3328
54.5251
54.6914
54.8333
54.9572
55.0289
55.0661
55.0816
55.0855
55.0698
55.0341
54.9859
54.9263
54.8541
54.7694
54.67
54.5525
54.4182
54.2744
54.133
53.9999
53.87
53.7277
53.5665
53.3732
53.1545
52.9214
52.6773
52.4228
52.1622
51.901
51.6442
51.3929
51.1421
50.89
50.6365
50.3781
50.1144
49.8523
49.5975
49.3477
49.0974
48.8475
48.6027
48.3656
48.1365
47.91
47.6782
47.4486
47.2349
47.0368
46.8463
46.6594
46.476
46.2947
46.1136
45.9297
45.7386
45.5385
45.3328
45.1263
44.9229
44.7261
44.5372
44.3586
44.1957
44.0536
43.927
43.8016
43.6708
43.5414
43.4214
43.312
43.2107
43.1125
43.0158
42.9217
42.8309
42.7411
42.6467
42.5415
42.4236
42.2949
42.1479
41.9674
41.7532
41.5162
41.2626
40.9927
40.7007
40.3881
40.0685
39.7494
39.4325
39.1266
38.8402
38.5746
38.3325
38.1171
37.9243
37.7528
37.6085
37.4953
37.412
37.3519
37.311
37.2796
37.2764
37.2792
37.2913
37.3232
37.3917
37.5035
37.6521
37.8383
38.0725
38.3701
38.7631
39.0773
39.2299
39.1876
39.096
46.8074
42.7856
42.7842
43.8153
44.7915
45.7562
46.6624
47.5117
48.3118
49.0775
49.7937
50.44
51.014
51.5273
51.9963
52.4221
52.8039
53.1309
53.4032
53.6397
53.864
54.085
54.2942
54.4842
54.6484
54.7906
54.9124
54.9693
54.997
55.0089
55.0117
54.9885
54.9478
54.8951
54.8314
54.7552
54.6667
54.5636
54.4424
54.3049
54.1584
54.0147
53.8796
53.7467
53.6047
53.4421
53.2431
53.0237
52.7877
52.5419
52.2853
52.0227
51.7595
51.501
51.2481
50.9959
50.7427
50.4881
50.2289
49.9648
49.7023
49.4472
49.1969
48.9463
48.6961
48.4512
48.2137
47.9845
47.7578
47.5259
47.2966
47.0827
46.8843
46.6935
46.5064
46.3232
46.1423
45.9617
45.7791
45.5895
45.3907
45.1866
44.9818
44.7804
44.5853
44.3992
44.2237
44.0635
43.9234
43.798
43.6739
43.5457
43.4193
43.3019
43.1948
43.0958
43.0004
42.9067
42.8154
42.727
42.6391
42.5461
42.442
42.3247
42.1959
42.0484
41.8671
41.6515
41.4125
41.1565
40.884
40.5898
40.2751
39.9541
39.634
39.3169
39.0113
38.7253
38.4599
38.2181
38.0028
37.8105
37.6396
37.4968
37.3877
37.3088
37.2568
37.2189
37.194
37.1954
37.2016
37.2203
37.2607
37.336
37.4515
37.6055
37.8124
38.0796
38.5053
39.0713
39.5292
39.8369
39.9812
39.9622
47.2444
43.1341
43.1239
44.0846
45.0185
45.9445
46.817
47.6378
48.4122
49.1542
49.8492
50.4778
51.0377
51.54
51.9961
52.4142
52.789
53.1104
53.3785
53.6117
53.8329
54.0509
54.2575
54.4446
54.6064
54.7483
54.8569
54.9061
54.9262
54.9316
54.9319
54.9016
54.856
54.7989
54.7311
54.6512
54.559
54.4523
54.3278
54.1872
54.038
53.892
53.7549
53.62
53.4758
53.3095
53.1127
52.8898
52.6488
52.4016
52.1427
51.878
51.6131
51.3529
51.0984
50.8447
50.5902
50.3345
50.0745
49.8097
49.5468
49.2913
49.0406
48.7896
48.5391
48.2938
48.0561
47.8264
47.5994
47.3674
47.138
46.924
46.7252
46.534
46.3469
46.1638
45.9831
45.803
45.621
45.4321
45.2343
45.0315
44.8283
44.6288
44.4364
44.253
44.0797
43.9216
43.7831
43.6588
43.537
43.4118
43.2882
43.1729
43.0678
42.9712
42.8788
42.7881
42.6996
42.6136
42.5279
42.4367
42.3341
42.2178
42.0897
41.9424
41.761
41.545
41.305
41.0476
40.7732
40.4772
40.1609
39.8383
39.5168
39.1987
38.8924
38.6058
38.3396
38.0968
37.8809
37.6878
37.5166
37.3732
37.2652
37.1897
37.146
37.1117
37.097
37.0989
37.1071
37.1311
37.1845
37.2712
37.3888
37.5471
37.7673
38.066
38.502
39.1349
39.7629
40.2316
40.5456
40.5762
47.6094
43.4349
43.4196
44.3204
45.2193
46.1127
46.9568
47.7505
48.5014
49.2219
49.8976
50.5101
51.0571
51.548
51.9942
52.4047
52.7727
53.0888
53.3528
53.5828
53.8009
54.0159
54.2199
54.4034
54.5614
54.7012
54.7917
54.8323
54.8482
54.8522
54.8435
54.808
54.7577
54.6964
54.6249
54.5414
54.4458
54.3358
54.2081
54.0645
53.9127
53.7645
53.6254
53.4884
53.342
53.1733
52.9739
52.749
52.5095
52.255
51.9952
51.7275
51.461
51.1993
50.9432
50.6881
50.4323
50.1756
49.9147
49.6493
49.386
49.1301
48.8789
48.6275
48.3767
48.1311
47.8929
47.6629
47.4355
47.2033
46.9737
46.7593
46.5601
46.3686
46.1813
45.9982
45.8176
45.6377
45.4562
45.2678
45.0708
44.8691
44.6673
44.4695
44.279
44.0973
43.9258
43.7694
43.6326
43.5103
43.3907
43.2675
43.1462
43.033
42.9307
42.8372
42.7476
42.6599
42.5739
42.4907
42.4073
42.3181
42.2173
42.1025
41.9753
41.8287
41.6479
41.4324
41.1925
40.9345
40.6594
40.3621
40.0446
39.7203
39.3971
39.0773
38.7696
38.4811
38.2129
37.9683
37.7505
37.5557
37.3829
37.2379
37.1288
37.0567
37.0165
36.9853
36.985
36.9873
36.9972
37.0265
37.0919
37.1894
37.3125
37.4738
37.6947
38.0213
38.4743
39.1056
39.7608
40.3292
40.7425
40.9376
47.9078
43.6958
43.6763
44.5249
45.3948
46.2601
47.0766
47.8469
48.5766
49.2776
49.936
50.5339
51.0663
51.5461
51.9876
52.3902
52.752
53.0633
53.3235
53.5504
53.7658
53.9782
54.1789
54.3583
54.5115
54.6442
54.7172
54.7497
54.762
54.765
54.7483
54.7075
54.6528
54.5879
54.5128
54.4261
54.3272
54.214
54.0831
53.9366
53.7822
53.6316
53.4903
53.3512
53.2026
53.0315
52.8295
52.6018
52.3597
52.107
51.8424
51.5707
51.3024
51.0394
50.782
50.5257
50.2687
50.011
49.7494
49.4835
49.2198
48.9636
48.712
48.46
48.2089
47.9629
47.7244
47.494
47.2662
47.0335
46.8037
46.5889
46.3893
46.1974
46.0099
45.8266
45.646
45.4663
45.285
45.097
44.9006
44.6998
44.4992
44.3028
44.1138
43.9336
43.7635
43.6086
43.4731
43.3522
43.2338
43.1124
42.9932
42.8826
42.7831
42.6919
42.6049
42.5199
42.4374
42.3577
42.2771
42.19
42.0909
41.9777
41.8519
41.7063
41.5268
41.3128
41.074
40.8168
40.5416
40.2439
39.9255
39.5997
39.2743
38.9523
38.6422
38.3508
38.0793
37.832
37.6115
37.4139
37.2383
37.0907
36.9787
36.9096
36.8702
36.8452
36.8466
36.8517
36.8695
36.9107
36.983
37.09
37.2202
37.3835
37.5973
37.9123
38.3839
39.0115
39.7105
40.2912
40.7253
41.064
48.154
43.9201
43.8972
44.7023
45.5473
46.3844
47.1761
47.9249
48.6355
49.319
49.9606
50.5394
51.0638
51.5388
51.9735
52.3682
52.7246
53.0314
53.2883
53.5128
53.726
53.9353
54.1322
54.3074
54.4581
54.5733
54.6327
54.6588
54.6679
54.6699
54.646
54.6006
54.5421
54.4737
54.3954
54.3055
54.2035
54.0871
53.953
53.8033
53.6461
53.493
53.3494
53.208
53.0569
52.8833
52.6786
52.4483
52.2036
51.9482
51.6832
51.412
51.1358
50.873
50.6144
50.3571
50.0993
49.8408
49.5787
49.3124
49.0484
48.7919
48.54
48.2878
48.0363
47.7899
47.5511
47.3203
47.092
46.859
46.6288
46.4136
46.2135
46.0211
45.8333
45.6498
45.4691
45.2894
45.1082
44.9205
44.7246
44.5245
44.325
44.1296
43.9418
43.7628
43.5939
43.4402
43.3059
43.186
43.0687
42.9487
42.8313
42.7227
42.6248
42.5354
42.4511
42.3697
42.2913
42.2148
42.1363
42.0514
41.9544
41.8433
41.7194
41.5757
41.3985
41.1871
40.9507
40.6951
40.4208
40.1229
39.8038
39.4763
39.1482
38.8231
38.5095
38.2142
37.9398
37.6895
37.4651
37.2635
37.0845
36.9329
36.8169
36.7489
36.709
36.6903
36.6922
36.6994
36.7202
36.7741
36.8556
36.9722
37.1113
37.2763
37.4785
37.7499
38.1592
38.7789
39.5185
40.1604
40.6544
41.0381
48.3612
44.1126
44.087
44.8542
45.6726
46.4839
47.2532
47.9823
48.6747
49.3371
49.9595
50.5351
51.0528
51.5211
51.9451
52.3357
52.6875
52.9907
53.2452
53.4678
53.6782
53.8836
54.0766
54.2475
54.3974
54.4943
54.5372
54.5562
54.5649
54.5671
54.5359
54.4868
54.4247
54.353
54.2716
54.1785
54.0732
53.9534
53.8158
53.6629
53.5025
53.3466
53.2004
53.0566
52.9029
52.7265
52.5191
52.286
52.0387
51.7808
51.5133
51.2409
50.9693
50.6964
50.439
50.1808
49.9226
49.6638
49.4012
49.1348
48.8708
48.6143
48.3623
48.1099
47.8581
47.6116
47.3725
47.1413
46.9126
46.6792
46.4487
46.2331
46.0324
45.8397
45.6515
45.4677
45.2868
45.1071
44.9258
44.7382
44.5427
44.3433
44.1444
43.9499
43.7631
43.5851
43.4173
43.2646
43.1311
43.0121
42.8957
42.777
42.661
42.554
42.4574
42.37
42.2883
42.21
42.1347
42.0612
41.9861
41.9029
41.8083
41.6998
41.5786
41.4377
41.2639
41.056
40.8226
40.5694
40.2962
39.9985
39.6786
39.349
39.0178
38.689
38.3718
38.073
37.7947
37.54
37.3107
37.1055
36.9228
36.7663
36.6457
36.5765
36.5349
36.52
36.5222
36.5303
36.5544
36.6172
36.7073
36.8352
36.9846
37.1534
37.3446
37.5799
37.9137
38.3976
39.0433
39.7889
40.3811
40.8722
48.535
44.2707
44.2424
44.9723
45.7673
46.5555
47.3042
48.0136
48.6839
49.3348
49.9523
50.519
51.0257
51.4834
51.9042
52.29
52.6385
52.9395
53.1915
53.4111
53.6186
53.8211
54.0118
54.1778
54.3182
54.4005
54.4367
54.4498
54.4531
54.4546
54.4182
54.3653
54.2998
54.2248
54.1401
54.0436
53.9349
53.8114
53.6701
53.5135
53.3498
53.1908
53.0417
52.8951
52.7386
52.5592
52.3489
52.1132
51.8633
51.6032
51.3336
51.0594
50.7862
50.52
50.2525
49.9959
49.7374
49.4786
49.2162
48.95
48.6864
48.4301
48.1782
47.9258
47.6742
47.4276
47.1883
46.9569
46.7278
46.4941
46.2633
46.0472
45.8461
45.6529
45.4643
45.2803
45.0992
44.9192
44.7379
44.5505
44.3552
44.1562
43.9579
43.7641
43.578
43.4008
43.2338
43.0819
42.9492
42.8308
42.7152
42.5974
42.4827
42.377
42.2818
42.1963
42.1168
42.0412
41.9688
41.8983
41.8263
41.7464
41.6539
41.5485
41.4303
41.2927
41.1227
40.9189
40.6893
40.4388
40.1672
39.8702
39.5496
39.218
38.8835
38.551
38.2295
37.9264
37.6434
37.3839
37.1507
36.9413
36.753
36.592
36.467
36.3944
36.3501
36.3356
36.3379
36.3466
36.3726
36.4405
36.5385
36.678
36.8391
37.0155
37.2002
37.4035
37.667
38.0379
38.5252
39.09
39.6801
40.341
48.6745
44.392
44.3615
45.0601
45.833
46.6002
47.3283
48.0166
48.6801
49.3231
49.9308
50.4812
50.9801
51.4334
51.8498
52.2329
52.5789
52.8764
53.1255
53.343
53.5489
53.7504
53.9404
54.1029
54.2278
54.2968
54.3275
54.3386
54.3411
54.336
54.2965
54.2399
54.1708
54.0923
54.0041
53.904
53.7916
53.6643
53.5189
53.3585
53.191
53.0287
52.8767
52.7272
52.5677
52.3853
52.172
51.9335
51.6813
51.419
51.148
50.8724
50.5981
50.3305
50.0706
49.8046
49.548
49.2898
49.0281
48.7626
48.4996
48.2438
47.9923
47.7402
47.4888
47.2422
47.0029
46.7714
46.5421
46.3082
46.0771
45.8608
45.6592
45.4656
45.2767
45.0923
44.911
44.7308
44.5494
44.3618
44.1668
43.968
43.7701
43.5769
43.3912
43.2146
43.0481
42.8968
42.7646
42.6467
42.5318
42.4148
42.3011
42.1965
42.1026
42.0186
41.9411
41.8679
41.7982
41.7305
41.6616
41.5856
41.4954
41.3932
41.2783
41.1443
40.9785
40.7791
40.5535
40.3061
40.0367
39.7407
39.4197
39.0863
38.7488
38.4123
38.0865
37.7787
37.4906
37.2262
36.9881
36.7739
36.5813
36.4159
36.2846
36.2072
36.1602
36.1424
36.1448
36.1539
36.1798
36.2495
36.3535
36.5032
36.6766
36.8647
37.0503
37.2314
37.4356
37.7023
38.0537
38.4767
38.9089
39.4044
48.7751
44.4796
44.4472
45.1191
45.8728
46.619
47.3278
48.012
48.6656
49.293
49.8854
50.4305
50.924
51.3733
51.7867
52.1669
52.5092
52.8042
53.0518
53.2687
53.4747
53.6764
53.8655
54.0257
54.1315
54.1918
54.2177
54.2269
54.2292
54.2182
54.175
54.1148
54.042
53.9599
53.8681
53.7644
53.648
53.5166
53.3672
53.2026
53.0313
52.8655
52.7103
52.5579
52.3955
52.21
51.9938
51.7525
51.498
51.2339
50.9615
50.6851
50.4103
50.1422
49.8817
49.6221
49.359
49.1023
48.8419
48.5774
48.3153
48.0603
47.8094
47.5579
47.3068
47.0605
46.8214
46.5898
46.3604
46.1263
45.895
45.6784
45.4765
45.2825
45.0933
44.9086
44.727
44.5466
44.3648
44.1773
43.9822
43.7835
43.5859
43.3928
43.2075
43.0311
42.865
42.7141
42.5822
42.4647
42.3501
42.2337
42.1207
42.0171
41.9243
41.8414
41.7655
41.6944
41.6271
41.5621
41.4961
41.4237
41.3366
41.2376
41.1262
40.996
40.8345
40.6397
40.4183
40.1745
39.9075
39.6127
39.2916
38.9567
38.6164
38.2762
37.946
37.6334
37.3403
37.0707
36.8277
36.6084
36.411
36.2407
36.1044
36.02
35.9691
35.9463
35.9484
35.9571
35.9822
36.05
36.1569
36.3149
36.5005
36.7036
36.8973
37.0666
37.2276
37.4085
37.6412
37.9305
38.2341
38.6182
48.8438
44.5412
44.5076
45.1533
45.8872
46.618
47.3226
47.9963
48.6328
49.249
49.8337
50.3721
50.8605
51.3061
51.7165
52.0929
52.433
52.727
52.9748
53.1928
53.4004
53.6029
53.7893
53.9449
54.034
54.0873
54.1084
54.1166
54.1183
54.102
54.055
53.9908
53.9142
53.8284
53.7329
53.6252
53.5049
53.3694
53.2157
53.0469
52.8716
52.7023
52.5439
52.3884
52.2228
52.0344
51.8151
51.5712
51.3144
51.0487
50.775
50.498
50.2229
49.9549
49.6941
49.4371
49.1739
48.9167
48.6572
48.3943
48.1334
47.8794
47.6292
47.3783
47.1277
46.8818
46.6429
46.4114
46.1819
45.9477
45.7162
45.4994
45.2971
45.1027
44.9131
44.7281
44.5461
44.3654
44.1833
43.9955
43.8003
43.6016
43.4038
43.2108
43.0255
42.8493
42.6833
42.5324
42.4006
42.2831
42.1687
42.0526
41.9402
41.8373
41.7455
41.6633
41.5886
41.5192
41.454
41.3916
41.3283
41.2591
41.1755
41.0799
40.9721
40.8458
40.6887
40.4988
40.2818
40.0417
39.7774
39.4842
39.1633
38.827
38.484
38.1402
37.8057
37.4883
37.19
36.9151
36.667
36.4426
36.24
36.0643
35.9227
35.8301
35.7753
35.745
35.7472
35.7547
35.7804
35.8412
35.9435
36.1103
36.3092
36.5292
36.7342
36.9014
37.0344
37.1484
37.2857
37.459
37.6454
37.9076
48.8842
44.5781
44.5432
45.1589
45.8851
46.6107
47.3055
47.9601
48.5884
49.1969
49.7741
50.306
50.7896
51.2318
51.6384
52.0127
52.3519
52.6466
52.896
53.1162
53.3261
53.5293
53.711
53.8597
53.9352
53.9772
53.999
54.0048
54.0059
53.9842
53.933
53.8649
53.7844
53.6946
53.5953
53.4837
53.3592
53.2194
53.0614
52.8882
52.709
52.5359
52.3742
52.2154
52.0467
51.855
51.6326
51.3858
51.1268
50.8593
50.5846
50.307
50.0318
49.764
49.5037
49.2465
48.9895
48.7268
48.47
48.2088
47.9493
47.6965
47.4472
47.197
46.947
46.7017
46.463
46.2316
46.0022
45.7679
45.5363
45.3191
45.1165
44.9217
44.7317
44.5462
44.3639
44.1827
44.0002
43.812
43.6165
43.4175
43.2196
43.0263
42.8409
42.6645
42.4983
42.3472
42.2152
42.0976
41.983
41.867
41.7548
41.6523
41.5613
41.4798
41.406
41.3378
41.2745
41.2142
41.1537
41.0876
41.0075
40.9155
40.8116
40.6894
40.5371
40.3521
40.1398
39.9036
39.6423
39.3509
39.0304
38.6932
38.3477
38.0002
37.6613
37.3389
37.0352
36.7548
36.5013
36.2714
36.0635
35.8821
35.7348
35.6327
35.573
35.5338
35.5366
35.5479
35.5674
35.6113
35.7117
35.8847
36.0963
36.3313
36.5514
36.7248
36.8433
36.9092
36.975
37.0563
37.1494
37.2977
48.895
44.5859
44.5496
45.1549
45.875
46.5892
47.266
47.9149
48.5358
49.1366
49.7071
50.2335
50.7129
51.1512
51.5554
51.9289
52.269
52.5653
52.817
53.0397
53.2516
53.4545
53.6309
53.7672
53.832
53.8653
53.8846
53.8902
53.8911
53.8628
53.8075
53.7354
53.6509
53.5572
53.454
53.3383
53.2098
53.0656
52.9031
52.7255
52.5421
52.3651
52.1997
52.0376
51.8655
51.6703
51.4446
51.1949
50.9334
50.6641
50.3882
50.1101
49.835
49.5675
49.3078
49.0512
48.7977
48.533
48.2783
48.0186
47.7608
47.5093
47.2611
47.0117
46.7625
46.5177
46.2793
46.0482
45.8188
45.5845
45.3529
45.1355
44.9325
44.7373
44.5469
44.3609
44.1781
43.9964
43.8134
43.6246
43.4287
43.2293
43.0309
42.8373
42.6514
42.4745
42.3079
42.1564
42.0239
41.9059
41.791
41.6748
41.5625
41.4603
41.3697
41.2889
41.2153
41.1481
41.0863
41.0281
40.9701
40.9067
40.8304
40.7424
40.6427
40.5249
40.3776
40.1979
39.9907
39.7587
39.5007
39.2114
38.8918
38.5536
38.2057
37.8547
37.5114
37.1837
36.8744
36.5881
36.3288
36.0931
35.8793
35.692
35.5389
35.4261
35.3613
35.3135
35.3144
35.3181
35.3324
35.3743
35.4703
35.6361
35.8547
36.1039
36.3415
36.5287
36.6479
36.6826
36.7
36.7215
36.7479
36.7957
48.8912
44.5817
44.545
45.1408
45.8492
46.549
47.2212
47.8636
48.4781
49.073
49.6381
50.1603
50.6365
51.0721
51.4753
51.8492
52.1907
52.4892
52.7429
52.967
53.1793
53.3807
53.5478
53.6715
53.7329
53.7596
53.7699
53.7753
53.7779
53.7421
53.6829
53.6069
53.5185
53.421
53.314
53.1945
53.0617
52.9133
52.7463
52.5643
52.3765
52.1955
52.0265
51.8608
51.6852
51.4862
51.257
51.0041
50.7399
50.4686
50.1913
49.9126
49.6374
49.3703
49.1113
48.8555
48.6017
48.3426
48.0859
47.8281
47.5721
47.3219
47.0749
46.8265
46.578
46.3338
46.0959
45.865
45.6357
45.4016
45.1699
44.9523
44.749
44.5533
44.3624
44.176
43.9926
43.8104
43.6267
43.4373
43.2407
43.0408
42.8418
42.6475
42.4609
42.2833
42.116
41.9638
41.8306
41.7119
41.5964
41.4798
41.3672
41.2649
41.1744
41.0939
41.0206
40.9539
40.8933
40.8368
40.7809
40.7202
40.6476
40.5637
40.4683
40.3553
40.2132
40.039
39.8371
39.6096
39.3553
39.0684
38.7499
38.411
38.0611
37.7065
37.3586
37.0258
36.7107
36.4183
36.1528
35.9112
35.6913
35.4976
35.3385
35.2156
35.1435
35.0903
35.0757
35.0788
35.0911
35.1284
35.2168
35.3687
35.5891
35.847
36.1022
36.3088
36.4436
36.458
36.4562
36.4498
36.4356
36.4098
48.8795
44.5671
44.5298
45.1078
45.809
46.5056
47.1728
47.8102
48.42
49.0104
49.5718
50.0911
50.5655
51.0003
51.4032
51.7778
52.121
52.4213
52.6765
52.9009
53.1116
53.3098
53.4691
53.5785
53.6332
53.658
53.6666
53.6687
53.6677
53.6263
53.5636
53.484
53.3919
53.2909
53.1804
53.0572
52.9206
52.7681
52.5967
52.4103
52.2182
52.0331
51.8604
51.6911
51.5116
51.309
51.0759
50.8195
50.5523
50.2788
50
49.7205
49.4451
49.1783
48.9198
48.6648
48.4117
48.1559
47.8981
47.6424
47.388
47.1392
46.8932
46.6459
46.3983
46.1546
45.9174
45.6867
45.4576
45.2235
44.9917
44.774
44.5703
44.3743
44.1829
43.996
43.8121
43.6292
43.4449
43.2547
43.0574
42.8566
42.6568
42.4616
42.2742
42.0955
41.9273
41.7741
41.64
41.5205
41.4042
41.2868
41.1736
41.0709
40.9802
40.8998
40.8266
40.7602
40.7002
40.645
40.5912
40.5327
40.4638
40.3839
40.2929
40.1847
40.0479
39.8794
39.6828
39.4601
39.2096
38.9255
38.6084
38.2693
37.9173
37.5597
37.2074
36.8694
36.5485
36.2499
35.9782
35.7303
35.5042
35.304
35.1386
35.0087
34.9231
34.8651
34.8357
34.8383
34.8479
34.8789
34.958
35.0907
35.3077
35.5673
35.8359
36.0647
36.2245
36.2468
36.2427
36.2271
36.189
36.1106
48.8531
44.5322
44.494
45.0675
45.766
46.459
47.1226
47.7565
48.3632
48.9506
49.5094
50.0272
50.5008
50.9363
51.3402
51.7155
52.0599
52.3612
52.6171
52.8411
53.0489
53.242
53.3956
53.4897
53.5396
53.561
53.5685
53.5704
53.5621
53.5168
53.4507
53.3677
53.2724
53.1681
53.0544
52.9278
52.7876
52.6312
52.4557
52.2649
52.0684
51.8793
51.7027
51.5296
51.3463
51.1396
50.9024
50.6421
50.3718
50.0957
49.8151
49.5345
49.2587
48.992
48.734
48.4797
48.2274
47.9737
47.7156
47.4617
47.2089
46.9614
46.7164
46.4699
46.2231
45.9802
45.7433
45.5131
45.2842
45.0502
44.8184
44.6006
44.3965
44.2001
44.0083
43.8209
43.6363
43.4528
43.2677
43.0767
42.8784
42.6768
42.476
42.2797
42.0911
41.9113
41.7419
41.5875
41.4523
41.3317
41.2143
41.0959
40.9818
40.8783
40.7872
40.7065
40.6334
40.567
40.5074
40.4532
40.4008
40.3443
40.2788
40.203
40.1162
40.0128
39.8814
39.7186
39.5275
39.3098
39.0633
38.7823
38.4669
38.1279
37.7745
37.4139
37.0576
36.7144
36.3876
36.0827
35.8046
35.5504
35.3178
35.111
34.9389
34.8029
34.7019
34.6388
34.5942
34.5983
34.6103
34.6317
34.6825
34.8012
35.0118
35.2668
35.543
35.7928
35.9801
36.0403
36.0362
36.0189
35.9762
35.8885
48.8067
44.4869
44.449
45.0236
45.7199
46.4106
47.072
47.7041
48.3089
48.8947
49.4521
49.9691
50.4429
50.8791
51.2847
51.6622
52.0075
52.3089
52.5644
52.7873
52.992
53.1801
53.3262
53.4057
53.4523
53.4703
53.4767
53.478
53.4625
53.4137
53.3445
53.2585
53.1603
53.053
52.9362
52.8066
52.663
52.5027
52.3231
52.128
51.9272
51.7338
51.5532
51.3761
51.1887
50.9776
50.736
50.4715
50.1976
49.9187
49.6359
49.354
49.0774
48.8104
48.5525
48.2988
48.0471
47.7948
47.537
47.2846
47.0331
46.7868
46.5428
46.2971
46.051
45.8087
45.5722
45.3423
45.1135
44.8796
44.648
44.4299
44.2256
44.0288
43.8364
43.6484
43.4632
43.2789
43.0929
42.901
42.7017
42.4989
42.2969
42.0994
41.9095
41.7282
41.5574
41.4015
41.265
41.143
41.0244
40.9046
40.7893
40.6848
40.5928
40.5116
40.4381
40.3715
40.3119
40.2583
40.2069
40.1524
40.0901
40.0181
39.9357
39.837
39.711
39.5539
39.3684
39.1558
38.9137
38.6362
38.3228
37.9843
37.6298
37.2666
36.9063
36.5581
36.2252
35.9138
35.629
35.368
35.1285
34.9147
34.7354
34.593
34.4793
34.4067
34.3532
34.3464
34.3502
34.3658
34.4109
34.5131
34.6967
34.942
35.2185
35.4842
35.7007
35.817
35.8127
35.7937
35.7507
35.6718
48.7581
44.4406
44.4028
44.9756
45.6713
46.3611
47.0217
47.6529
48.2571
48.8423
49.3992
49.9162
50.3906
50.8281
51.2353
51.6147
51.9617
52.2635
52.5176
52.7392
52.9406
53.126
53.2596
53.3285
53.3664
53.3857
53.3904
53.3913
53.3683
53.3166
53.2444
53.1556
53.0546
52.9447
52.8252
52.6925
52.5455
52.3815
52.1977
51.9982
51.7929
51.5952
51.4103
51.229
51.0371
50.8213
50.5748
50.3059
50.0279
49.7456
49.4604
49.1766
48.8989
48.6314
48.3733
48.1198
47.8686
47.6167
47.36
47.1086
46.8582
46.6129
46.3697
46.1247
45.8793
45.6376
45.4016
45.172
44.9433
44.7096
44.478
44.2597
44.0551
43.8577
43.6648
43.4762
43.2903
43.1051
42.9181
42.7251
42.5247
42.3207
42.1174
41.9185
41.7269
41.5441
41.3715
41.214
41.0757
40.9521
40.8319
40.7106
40.5938
40.4878
40.3947
40.3125
40.2384
40.1713
40.1114
40.0579
40.0074
39.9548
39.8954
39.827
39.7488
39.6549
39.5344
39.3832
39.2035
38.9962
38.7588
38.4851
38.1743
37.8369
37.4817
37.1161
36.7521
36.3987
36.0598
35.7415
35.4496
35.1812
34.9344
34.713
34.526
34.3762
34.2544
34.1642
34.1064
34.0774
34.0799
34.0917
34.1254
34.2134
34.3633
34.5921
34.8601
35.1335
35.376
35.5448
35.5655
35.5586
35.5316
35.4619
48.7017
44.3902
44.3526
44.9234
45.6196
46.3097
46.9706
47.6023
48.2068
48.7922
49.3495
49.8672
50.3429
50.7819
51.1909
51.5718
51.9201
52.2224
52.476
52.6955
52.894
53.0707
53.1971
53.2606
53.2886
53.3012
53.3077
53.3092
53.2789
53.2244
53.1495
53.058
52.9545
52.8421
52.7198
52.5841
52.4338
52.266
52.078
51.8739
51.6639
51.4615
51.272
51.0863
50.8895
50.6686
50.4169
50.1429
49.8605
49.5743
49.2861
49.0002
48.7211
48.4527
48.1942
47.9406
47.6897
47.4373
47.1825
46.9317
46.6821
46.4376
46.1951
45.9509
45.7062
45.4649
45.2293
45
44.7716
44.5379
44.3064
44.088
43.883
43.6852
43.4918
43.3025
43.1158
42.9297
42.7417
42.5476
42.346
42.1407
41.9359
41.7353
41.542
41.3573
41.1827
41.0234
40.8832
40.7577
40.6356
40.5125
40.3939
40.2863
40.1918
40.1084
40.0333
39.9654
39.905
39.8513
39.8013
39.7503
39.6938
39.629
39.5551
39.4658
39.3509
39.2057
39.0321
38.8305
38.5982
38.3289
38.0214
37.6856
37.3302
36.9628
36.5953
36.237
35.8917
35.5663
35.2668
34.9909
34.7361
34.5066
34.3114
34.1534
34.0241
33.9171
33.8499
33.7998
33.8045
33.8163
33.8372
33.8876
34.0117
34.2211
34.4725
34.7436
35.003
35.2087
35.303
35.2971
35.2713
35.2096
48.6427
44.3344
44.2971
44.8692
45.5671
46.2586
46.921
47.5538
48.1597
48.7461
49.3045
49.8235
50.3009
50.7417
51.1523
51.5348
51.8841
52.1866
52.4393
52.6573
52.8535
53.0219
53.1371
53.1945
53.2202
53.2297
53.2322
53.2326
53.1973
53.1402
53.0626
52.9688
52.863
52.7481
52.6232
52.4846
52.3309
52.1593
51.9671
51.7583
51.5435
51.3362
51.142
50.9514
50.7496
50.5233
50.266
49.9866
49.6993
49.409
49.1175
48.829
48.5482
48.2786
48.0194
47.7654
47.5146
47.2612
47.0084
46.7581
46.509
46.2652
46.0233
45.7797
45.5355
45.2947
45.0595
44.8304
44.6023
44.3688
44.1373
43.9188
43.7135
43.5153
43.3213
43.1314
42.944
42.757
42.568
42.3729
42.17
41.9633
41.7569
41.5547
41.3595
41.1728
40.9963
40.8347
40.6926
40.5651
40.4411
40.316
40.1955
40.086
39.9897
39.9049
39.8286
39.7597
39.6986
39.6445
39.5948
39.5452
39.4912
39.4299
39.3599
39.2755
39.1659
39.0267
38.8593
38.6636
38.437
38.1726
37.8689
37.5353
37.1805
36.8118
36.4414
36.0784
35.7272
35.3948
35.0876
34.8038
34.5409
34.303
34.0993
33.9328
33.7953
33.6787
33.5916
33.535
33.519
33.5223
33.5369
33.577
33.6768
33.8469
34.0753
34.3334
34.597
34.8293
34.9824
35.0139
35.0048
34.9723
48.5843
44.2766
44.2396
44.8165
45.5168
46.2109
46.8752
47.5101
48.1178
48.7058
49.2658
49.7868
50.2659
50.7083
51.1205
51.5043
51.8544
52.1568
52.4086
52.6251
52.8194
52.9787
53.0861
53.1366
53.1595
53.1679
53.1701
53.1642
53.1263
53.0667
52.9868
52.8908
52.7828
52.6657
52.5383
52.3968
52.24
52.0646
51.8681
51.6545
51.4348
51.2226
51.0237
50.8283
50.6214
50.3895
50.1265
49.8414
49.5491
49.2545
48.9595
48.6681
48.3853
48.1142
47.854
47.5993
47.3487
47.0934
46.8427
46.5924
46.3438
46.1003
45.8589
45.6157
45.3719
45.1316
44.8967
44.6679
44.4399
44.2065
43.9751
43.7565
43.5509
43.3523
43.1579
42.9673
42.7792
42.5914
42.4014
42.2051
42.001
41.7929
41.5851
41.3811
41.184
40.9954
40.8168
40.6531
40.5089
40.3794