/*--------------------------------*- C++ -*----------------------------------*\
| =========                 |                                                 |
| \\      /  F ield         | OpenFOAM: The Open Source CFD Toolbox           |
|  \\    /   O peration     | Version:  2212                                  |
|   \\  /    A nd           | Website:  www.openfoam.com                      |
|    \\/     M anipulation  |                                                 |
\*---------------------------------------------------------------------------*/
FoamFile
{
    version     2.0;
    format      ascii;
    arch        "LSB;label=32;scalar=64";
    class       volScalarField;
    location    "0.079";
    object      k;
}
// * * * * * * * * * * * * * * * * * * * * * * * * * * * * * * * * * * * * * //

dimensions      [0 2 -2 0 0 0 0];

internalField   nonuniform List<scalar> 
31661
(
1734.54
509.794
552.969
527.013
505.995
541.529
520.047
503.413
532.734
514.814
1959.42
571.504
4817.07
1065.92
1437.77
1664.99
1507.75
1761.31
544.809
1646.03
484.851
487.307
969.313
1865.01
522.533
485.799
1089.25
838.173
573.545
575.872
1832.46
872.797
908.95
573.636
695.493
1714.81
454.301
1658.7
1196.8
963.821
738.928
510.907
1253.08
651.977
659.414
594.748
657.811
657.582
457.186
1136.1
611.115
1374.3
611.097
626.935
1104.1
548.489
617.53
637.384
1732.09
576.285
587.332
580.372
697.412
479.137
520.535
1723.62
1584.25
1594.61
1438.38
1288.63
555.725
1083.34
967.141
864.145
776.824
703.08
642.766
594.023
555.548
525.481
502.488
485.153
472.345
463.001
466.903
477.469
491.831
511.029
536.08
568.203
608.563
658.336
718.802
790.856
874.76
970.657
1071.44
1173.71
1291.96
1418.86
1546.76
1665.76
1776.92
1933.24
1896.19
2046.44
2007.12
2141.81
2103.46
2219.03
2184.28
2279.61
2250.16
2325.76
2302.15
2360.03
2341.94
2384.87
2371.55
2402.44
2392.98
2414.49
2408.02
2422.46
2418.21
2427.43
2424.78
2430.26
2428.72
2431.6
2430.8
2431.96
2431.63
2431.76
2431.71
2431.34
2431.43
2431.02
2431.15
2431.07
2431.19
2431.81
2431.88
2433.58
2433.57
2436.88
2436.77
2442.62
2442.4
2452.96
2452.64
2473.84
2473.4
2522.82
2522.16
2651.52
2650.22
2999.5
2996.75
3862.38
3856.95
5487.7
5479.4
7297.92
7288.47
8296.45
8285.92
8525.24
8513.33
8418.15
8430.73
8397.64
8488.43
8250.52
7239.73
5434.38
3831.58
2986.11
2645.91
2520.09
2471.99
2451.34
2441.03
2435.27
2431.93
2430.11
2429.33
2429.21
2429.47
2429.78
2429.83
2429.24
2427.58
2424.27
2418.6
2409.66
2396.24
2376.82
2349.52
2312.14
2262.23
2197.37
2115.49
2014.98
1894.53
1756.25
1600.64
1435.12
1273.55
1126.71
998.297
889.598
797.477
720.143
656.544
605.052
564.246
459.284
456.353
532.383
508.043
489.676
475.976
465.903
451.814
453.973
460.422
467.785
478.001
491.794
510.016
533.73
563.867
601.312
646.895
700.952
763.898
835.577
915.209
1001.37
1092.12
1184.67
1281.75
1383.03
1485.11
1586.61
1689
1797.09
1903.45
2003.06
2092.74
2170.79
2236.38
2289.54
2331.18
2362.66
2385.72
2402.04
2413.13
2420.32
2424.67
2427.03
2428.09
2428.42
2428.48
2428.68
2429.41
2431.07
2434.2
2439.73
2449.77
2470.07
2517.6
2642.21
2979.66
3819.92
5415.38
7213.99
8218.64
8452.31
8359.69
8180.29
8237.17
8249.91
8218.78
8144.16
8319.31
8403.34
8149.51
7118.82
5327.78
3771.31
2959.65
2634.45
2514.11
2467.77
2447.66
2437.49
2431.75
2428.41
2426.56
2425.71
2425.48
2425.5
2425.42
2424.82
2423.24
2420.08
2414.59
2405.84
2392.62
2373.46
2346.65
2310.22
2262.25
2201.15
2125.96
2036.69
1934.49
1820.92
1698.34
1562.17
1424.58
1291.49
1164
1045.8
941.233
848.731
768.251
699.668
642.168
595.379
558.047
528.845
458.663
506.294
489.105
476.202
455.274
450.456
453.632
448.876
451.849
458.536
464.101
472.071
482.965
497.521
516.576
540.983
571.639
609.308
654.307
706.88
766.483
832.167
902.5
975.85
1050.48
1124.63
1197.08
1269.76
1343.52
1418.78
1496.45
1579.58
1670.4
1765.46
1861.6
1955.67
2044.34
2125.08
2195.36
2254.29
2301.64
2338.36
2365.81
2385.58
2399.3
2408.42
2414.16
2417.57
2419.48
2420.58
2421.43
2422.54
2424.42
2427.66
2433.18
2443.01
2462.61
2507.96
2625.99
2945.9
3747.43
5291.05
7071.8
8094.66
8342.68
8255.75
8079.59
7883.43
7981.82
8037.59
8050.38
8020.29
7948.06
7834.72
8027.19
8196.9
8271.11
7994.33
6937.64
5171.33
3683.31
2920.73
2616.8
2504.17
2460.32
2440.94
2430.95
2425.22
2421.8
2419.82
2418.73
2418.08
2417.44
2416.32
2414.15
2410.23
2403.71
2393.5
2378.29
2356.52
2326.45
2286.36
2234.77
2170.87
2094.82
2007.89
1912.47
1811.7
1708.71
1604.76
1497.64
1393.02
1291.33
1194.81
1099.06
1007.7
921.453
841.43
768.445
704.358
649.72
604.243
566.953
536.971
466.678
513.529
495.471
448.218
454.777
449.656
459.812
450.303
447.043
452.25
458.586
463.018
469.422
478.386
490.57
506.67
527.498
553.893
586.608
626.213
672.888
726.23
785.332
848.668
913.969
979.227
1042.31
1101.77
1156.78
1207.76
1257
1306.1
1356.87
1411.23
1471.98
1541.42
1618.77
1702.69
1791.32
1881.94
1971.25
2055.72
2132.29
2198.62
2253.75
2297.82
2331.67
2356.71
2374.59
2386.88
2395.07
2400.39
2403.87
2406.37
2408.62
2411.25
2414.99
2420.79
2430.58
2449.39
2491.78
2600.73
2895.73
3641.1
5108.1
6861.98
7913.05
8184.11
8106.54
7935.58
7743.11
7551.38
7688.34
7784.57
7839.29
7852.13
7823.18
7753.15
7643.07
7494.44
7681.58
7869.05
8031.61
8092.72
7785.53
6696.46
4968.21
3569.56
2869.13
2592.06
2488.94
2448.13
2429.57
2419.69
2413.78
2410.02
2407.54
2405.72
2403.97
2401.71
2398.23
2392.68
2384.01
2370.98
2352.07
2325.65
2290.01
2243.65
2185.69
2116.18
2036.31
1948.59
1856.22
1762.82
1671.89
1585.72
1504.61
1427.24
1354.93
1285.68
1217.69
1147.71
1076.01
1002.78
928.919
856.432
788.263
726.329
671.299
623.835
584.083
551.85
481.729
526.049
446.876
448.371
471.474
455.576
450.755
455.047
448.18
446.002
453.698
459.483
463.152
468.412
475.886
486.247
500.097
518.219
541.426
570.495
606.051
648.479
697.647
752.836
812.646
875.035
937.461
997.357
1052.58
1101.85
1144.71
1181.46
1213.79
1243.83
1273.54
1304.74
1339.36
1379.65
1427.73
1484.31
1549.63
1623.4
1704.5
1790.83
1879.39
1966.57
2048.65
2122.73
2186.67
2239.41
2281.22
2313.18
2336.72
2353.56
2365.38
2373.63
2379.58
2384.28
2388.67
2393.62
2400.23
2410.35
2428.46
2467.49
2565.54
2829.97
3505.1
4872.96
6587.17
7674.35
7977.45
7913.19
7749.5
7562.18
7375.13
7188.84
7361
7495.02
7589.32
7643.05
7655.81
7627.73
7559.51
7452.37
7307.7
7309.14
7490.3
7671.41
7824.77
7868.78
7523.4
6398.25
4722.6
3433.1
2805.13
2559
2466.71
2429.26
2411.5
2401.48
2394.99
2390.37
2386.68
2383.13
2378.96
2373.29
2365.07
2353.06
2335.77
2311.57
2278.74
2235.77
2181.66
2116.2
2040.41
1956.68
1868.15
1778.63
1691.81
1610.63
1537.01
1471.66
1413.96
1362.51
1316.43
1273.2
1230.08
1184.21
1134.16
1078.54
1017.35
952.179
885.536
819.704
757.001
699.617
649.596
606.789
505.912
570.955
7127.41
541.961
446.297
490.385
447.861
463.961
450.088
451.849
457.1
452.74
446.898
445.664
455.726
460.92
463.955
468.383
474.716
483.549
495.476
511.305
531.799
557.76
589.908
628.742
674.328
726.303
783.558
844.247
905.949
965.942
1021.55
1070.84
1112.68
1146.95
1174.36
1196.15
1214.2
1230.31
1246.12
1263.07
1282.7
1306.66
1336.61
1373.7
1418.94
1473.13
1536.61
1609
1688.98
1774.21
1861.5
1947.21
2027.72
2099.91
2161.9
2212.87
2253.17
2283.95
2306.83
2323.6
2335.93
2345.36
2353.19
2360.63
2368.91
2379.96
2397.75
2433.37
2519.57
2749.93
3345.15
4593.55
6252.04
7380.42
7724.76
7677.78
7523.71
7343.12
7162.2
6981.23
6804.61
7007.61
7176.15
7307.5
7400.01
7452.8
7465.39
7437.85
7371.28
7266.59
7125.25
6949.21
6914.12
7089.71
7263.78
7437.04
7579.13
7601.58
7209.15
6047.13
4441.99
3277.84
2729.41
2516.41
2435.65
2401.63
2384.42
2373.75
2366.03
2359.65
2353.46
2346.47
2337.6
2325.56
2308.88
2285.87
2254.79
2214.11
2162.69
2100.16
2027.5
1946.57
1860.47
1773.09
1688.11
1608.78
1537.23
1474.64
1421.33
1376.63
1339.37
1308.11
1281.28
1256.74
1232.33
1205.89
1175.07
1138
1093.53
1041.53
983.206
920.133
855.18
792.183
733.263
679.498
632.738
593.137
6741.03
560.362
519.024
446.33
478.601
447.923
458.67
450.023
449.743
452.444
446.348
459.036
455.12
445.873
6636.09
6834.63
6999.49
7128.07
7218.75
7270.56
7282.99
7256.07
7190.86
7088.64
6950.58
6778.66
6575.47
6504.24
6671.41
6839.91
7006.11
7170.28
7298.82
7294.72
6846.89
5649.84
4135.3
3108.58
2642.58
2463.21
2393.89
2363.03
2345.78
2333.74
2323.76
2314.02
2303.24
2290.05
2272.93
2250.19
2220.02
2180.8
2131.27
2071.01
2000.68
1922.07
1838.12
1752.58
1669.03
1590.81
1520.27
1458.73
1406.78
1364.03
1329.6
1302.31
1280.94
1264.22
1250.71
1238.87
1227.29
1214.35
1198.21
1177.05
1149.08
1113.03
1068.25
1015.18
956.195
893.804
830.139
769.071
712.167
661.351
617.346
534.063
580.562
6344.33
458.037
462.728
465.225
469.017
474.425
481.978
492.321
506.161
524.242
547.395
576.389
611.843
654.069
702.91
757.58
816.587
877.738
938.362
995.681
1047.21
1091.26
1127.08
1154.89
1175.65
1190.67
1201.46
1209.56
1216.3
1222.78
1230.16
1239.28
1251.23
1267.36
1288.76
1316.49
1351.68
1395.38
1448.35
1510.82
1582.33
1661.42
1745.66
1831.82
1916.18
1995.12
2065.77
2126.21
2175.87
2215.25
2245.61
2268.71
2286.39
2300.41
2312.38
2323.87
2336.83
2354.97
2387.62
2461.96
2657.09
3167.18
4280.22
5863.74
7035.12
7430.26
7405.18
7262.77
7090.32
6916.8
6742.24
6571.04
6407.66
501.099
446.789
550.896
513.408
469.884
448.422
455.042
450.43
448.5
452.671
446.389
455.087
446.457
461.272
457.723
6089.26
6243.15
6403.77
6564.96
6722.88
6877.22
6989.92
6953.09
6441.69
5216.94
3812.83
2930.36
2545.42
2398.32
2339.59
2311.05
2292.97
2278.38
2264.21
2248.62
2229.98
2206.5
2176.38
2137.85
2089.6
2031
1962.59
1885.97
1804.08
1720.29
1638.16
1561.12
1491.64
1431
1379.92
1338.13
1304.86
1279.12
1259.73
1245.64
1235.74
1228.78
1223.95
1220.42
1217.04
1212.91
1206.74
1197.2
1182.66
1161.42
1131.99
1093.68
1046.79
991.842
931.761
868.424
805.772
746.264
691.556
643.505
602.932
466.905
470.102
474.796
481.321
490.325
502.494
518.453
539.038
565.125
597.382
636.284
681.911
733.788
790.75
850.913
911.792
970.598
1024.65
1071.8
1110.78
1141.29
1163.87
1179.62
1189.91
1196.08
1199.41
1200.97
1201.63
1202.1
1203.15
1205.4
1209.31
1215.71
1225.62
1240.01
1259.82
1286.15
1320.1
1362.69
1414.65
1476.16
1546.66
1624.69
1707.74
1792.6
1875.5
1952.98
2022.19
2081.43
2130.27
2169.36
2200.14
2224.45
2244.21
2261.37
2278.1
2297.73
2328.25
2391.77
2552.86
2977.51
3944.98
5432.16
6644.4
7100.26
7102
6973.13
6809.98
6644.85
6477.41
6312.04
6154.11
6004.09
6252.22
6475.46
6669.4
6830.44
6956.08
7044.74
7095.5
7107.81
7081.65
7018.03
6918.24
6783.69
6615.92
6417.67
6192.12
464.88
5943.08
527.203
569.526
460.591
487.321
447.592
5803.92
6047.01
6266.98
6460.15
6623.35
6754.47
6851.6
6913.44
6938.74
6926.58
6876.98
6790.47
6667.89
6510.91
6321.77
6103.79
5861.27
497.37
463.59
449.247
463.76
468.96
471.664
475.72
481.391
489.293
500.05
514.213
532.576
555.942
585.196
620.881
663.264
712.137
766.664
825.292
885.797
945.502
1001.63
1051.76
1094.17
1128.09
1153.66
1171.7
1183.42
1190.16
1193.15
1193.45
1191.94
1189.3
1186.07
1182.7
1179.63
1177.35
1176.19
1176.45
1178.7
1183.68
1192.3
1205.47
1224.14
1249.36
1282.24
1323.75
1374.56
1434.87
1504.1
1580.75
1662.37
1745.65
1827.05
1903.08
1971.07
2029.51
2078.1
2117.67
2149.77
2176.37
2199.8
2223.29
2253.43
2307.84
2438.19
2782.05
3600.43
4970.52
6216.58
6743.02
6777.08
6663.36
6510.09
6353.64
6193.42
6033.81
5881.22
5736.54
5599.17
542.783
508.685
452.545
451.182
448.002
453.284
446.847
455.527
447.352
457.928
460.513
467.318
463.347
473.472
469.959
5542.04
5675.08
5815.3
5963.05
6117.14
6271.01
6421.08
6564.81
6660.41
6584.04
6000.96
4760.84
3486.28
2747.93
2438.75
2320.56
2270.69
2243.42
2223
2203.54
2182.25
2157.07
2126.08
2087.49
2039.82
1982.4
1915.5
1840.68
1760.56
1678.64
1598.21
1522.72
1454.33
1394.84
1344.69
1303.79
1271.4
1246.68
1228.34
1215.45
1207.03
1202.1
1199.86
1199.11
1199.76
1201.53
1203.36
1204.75
1204.8
1202.97
1197.86
1188.08
1172.2
1148.71
1116.5
1074.85
1024.38
967.368
906.057
842.702
780.724
723.561
672.136
627.399
590.519
5671.19
521.52
560.094
758.411
5415.36
476.97
448.64
5908.21
6122.35
6310.18
6469.01
6596.47
6690.69
6750.61
6774.96
6762.95
6714.58
6630.33
6511.08
6358.25
6174.04
5961.59
5724.8
5468.33
485.176
459.153
450.319
475.603
473.614
477.119
482.156
489.125
498.608
511.261
527.755
548.804
575.208
607.781
647.002
692.789
744.599
801.21
860.701
920.588
978.123
1030.7
1076.28
1113.66
1142.56
1163.5
1177.5
1185.84
1189.76
1190.38
1188.59
1185.12
1180.51
1175.18
1169.46
1163.63
1157.94
1152.66
1148.09
1144.56
1142.18
1141.29
1142.54
1146.58
1154.25
1166.46
1184.15
1208.34
1240.1
1280.38
1329.88
1388.75
1456.4
1531.38
1611.24
1692.84
1772.63
1847.34
1914.42
1972.49
2021.44
2062.19
2096.59
2127.51
2160.47
2209.28
2313.89
2585.14
3258.29
4493.27
5761.35
6368.34
6441.29
6343.93
6200.12
6051.27
5897.52
5743.21
5595.46
5455.6
5323.2
5197.54
494.416
451.035
452.198
535.85
504.865
448.054
454.2
447.646
456.308
448.47
458.534
460.907
463.475
469.288
5544.16
5294.52
480.211
478.351
5145.73
5266.47
5393.73
5528.21
5670.11
5817.99
5965.11
6107.68
6241.44
6319.08
6195.75
5534.57
4295.69
3165.65
2565.07
2322.97
2229.07
2185.61
2157.2
2131.56
2103.8
2071.25
2031.89
1984.23
1927.42
1861.69
1788.4
1710.05
1629.82
1551.32
1477.45
1410.76
1352.52
1303.72
1263.82
1232.41
1208.46
1191.04
1178.96
1171.45
1167.57
1166.23
1166.96
1169.41
1172.87
1177.28
1182.19
1187.2
1192
1196.06
1198.92
1199.84
1197.86
1191.84
1180.35
1161.81
1134.96
1098.97
1054.13
1000.83
941.194
879.151
816.973
757.237
702.407
654.266
613.341
579.536
474.327
472.009
516.781
552.114
695.436
469.387
449.884
5775.02
5983.33
6165.96
6320.05
6443.34
6534.65
6592.48
6615.9
6604.03
6556.95
6475.12
6359.3
6210.82
6031.7
5824.9
5593.99
5343.36
5077.99
476.083
456.075
451.578
504.016
478.804
483.361
489.553
498.045
509.476
524.359
543.433
567.432
597.096
633.111
675.839
724.791
779.042
836.981
896.374
954.589
1008.96
1057.2
1097.74
1129.93
1153.94
1170.57
1180.98
1186.42
1188.04
1186.8
1183.47
1178.64
1172.75
1166.14
1159.05
1151.7
1144.25
1136.87
1129.71
1122.94
1116.75
1111.4
1107.13
1104.04
1102.49
1103.11
1106.49
1113.39
1124.75
1141.52
1164.7
1195.31
1234.28
1282.25
1339.4
1405.2
1478.21
1556.14
1635.89
1714.13
1787.64
1854.04
1912.06
1961.77
2004.74
2045.06
2093.22
2179.29
2389.86
2928.51
4014.6
5288.13
5985.93
6106.18
6025.35
5889.8
5746.55
5597.58
5447.42
5303.49
5167.51
5039.22
4917.96
4803.11
483.635
450.335
453.416
492.191
448.541
455.344
530.249
502.035
448.69
457.352
449.767
459.45
461.664
464.026
5422.21
5179.02
466.564
469.13
578.015
471.541
5030.88
4758.32
4867.61
4982.97
5105.13
5234.58
5371.38
5513.58
5654.38
5790.5
5914.66
5975.01
5795.84
5052.57
3835.87
2859.41
2384.15
2198.1
2122.4
2081.21
2047.91
2013.03
1972.62
1924.64
1868.16
1803.28
1731.31
1654.6
1576.27
1499.61
1427.69
1362.73
1306.22
1258.75
1220.18
1189.68
1166.6
1150.02
1138.8
1131.93
1128.64
1127.85
1129.49
1132.63
1136.96
1142.36
1148.55
1155.24
1162.17
1169.25
1176.18
1182.63
1188.42
1193.03
1195.95
1196.38
1193.3
1185.41
1171.4
1149.74
1119.27
1079.61
1031.11
975.702
915.276
852.974
791.68
734.618
683.167
638.393
600.922
570.322
1313.39
513.23
545.677
512.096
600.511
463.995
451.269
5646.77
5849.15
6026.16
6175.28
6294.75
6383.06
6438.75
6461.11
6449.43
6403.72
6324.37
6212
6067.98
5894.18
5693.11
5468.26
5223.67
4964.01
4694.17
469.474
454.119
452.979
604.775
512.136
484.115
490.117
498.001
508.432
522.054
539.527
561.519
588.738
621.839
661.334
707.391
759.072
815.057
873.379
931.586
987.044
1037.32
1080.58
1115.79
1142.79
1162.14
1174.84
1182.09
1185.04
1184.74
1181.99
1177.46
1171.62
1164.83
1157.36
1149.42
1141.15
1132.7
1124.17
1115.67
1107.3
1099.16
1091.38
1084.08
1077.43
1071.68
1067.03
1063.61
1061.73
1061.97
1064.93
1071.3
1081.93
1097.83
1119.98
1149.36
1186.88
1233.17
1288.38
1352.06
1422.87
1498.61
1576.35
1652.86
1725.05
1790.68
1848.93
1901.38
1954.98
2031.3
2195.6
2616.48
3545.94
4803.83
5603.6
5783.47
5717.39
5587.82
5447.55
5301.1
5153.3
5011.69
4878.28
4752.9
4634.94
4523.84
4419.06
475.7
450.235
454.79
482.78
449.352
456.666
490.875
449.931
458.6
526.091
500.166
451.191
460.606
462.7
5304.92
5068.24
464.906
467.213
469.531
471.893
4921.5
4654.67
4482.31
4586.94
4697.99
4816.05
4941.55
5074.21
5211.33
5346.59
5476.63
5590.88
5632.03
5390.76
4564.1
3393.74
2572.87
2205.41
2062.29
1997.15
1952.83
1909.92
1861.61
1805.62
1741.72
1671.12
1596.12
1519.75
1445.19
1375.34
1312.38
1257.67
1211.72
1174.44
1145.2
1123.07
1107.18
1096.64
1090.3
1087.4
1087.08
1089.01
1092.45
1097.23
1103.14
1109.79
1117.1
1125.01
1133.06
1141.43
1149.85
1158.05
1166.05
1173.61
1180.55
1186.43
1190.85
1193.14
1192.44
1187.71
1177.56
1160.55
1135.46
1101.51
1058.5
1007.28
949.843
888.645
827.405
768.375
713.455
665.843
624.993
590.922
563.189
477.756
510.866
540.905
474.576
4383.55
460.161
452.768
5523.01
5719.22
5890.66
6034.9
6150.28
6235.34
6288.9
6310.28
6298.88
6254.57
6177.71
6068.98
5929.51
5761.02
5565.83
5347.18
5108.83
4855.09
4590.64
4320.15
464.787
453.082
454.489
485.317
488.599
492.032
498.032
507.612
520.348
536.656
557.07
582.281
612.934
649.552
692.428
741.444
795.202
852.002
909.606
965.478
1017.14
1062.55
1100.38
1130.16
1152.16
1167.2
1176.38
1180.87
1181.71
1179.79
1175.82
1170.32
1163.69
1156.23
1148.15
1139.61
1130.75
1121.67
1112.45
1103.17
1093.92
1084.75
1075.74
1066.98
1058.53
1050.51
1043.04
1036.27
1030.42
1025.7
1022.28
1020.41
1020.57
1023.37
1029.43
1039.55
1054.66
1075.75
1103.83
1139.71
1184.08
1237.1
1298.28
1366.43
1439.47
1514.62
1588.82
1659.35
1725
1788.61
1863.84
1997.12
2321.12
3092.31
4308.12
5223.98
5481.83
5428.51
5301.7
5161.16
5014.25
4866.48
4725.36
4592.99
4469.16
4353.3
4244.86
4143.31
4048.15
470.006
450.609
456.282
475.952
450.415
458.122
483.118
482.644
451.313
460.007
490.359
452.718
461.947
5191.94
4961.89
523.245
499.218
463.957
466.047
468.209
470.421
472.721
4817.06
4556.03
4290.1
4113.29
4208.25
4309.55
4417.52
4532.78
4655.66
4785.77
4919.66
5051.12
5176.46
5281.39
5302.39
4988.41
4076.76
2977.03
2305.84
2025.34
1911.07
1848.09
1795.15
1739.22
1676.8
1608.2
1535.45
1461.49
1389.42
1322.01
1261.34
1208.66
1164.46
1128.63
1100.59
1079.48
1064.34
1054.24
1048.25
1045.52
1045.32
1047.3
1050.75
1055.56
1061.56
1068.45
1076.02
1084.06
1092.74
1101.49
1110.59
1119.83
1129.02
1138.11
1147.08
1155.88
1164.21
1171.98
1178.82
1184.4
1188.2
1189.48
1187.26
1180.41
1167.69
1147.69
1119.14
1081.66
1035.46
981.939
923.665
862.989
803.189
746.716
695.543
651.496
614.299
583.328
558.005
509.521
475.302
537.605
477.774
4024.09
457.634
454.348
5403.46
5593.4
5759.05
5898.2
6009.42
6091.35
6142.91
6163.38
6152.18
6109.25
6034.97
5929.91
5795.03
5631.87
5442.67
5230.35
4998.4
4750.84
4492.11
4226.64
3958.84
461.575
452.726
456.083
496.211
502.075
509.464
519.975
534.5
553.482
577.149
605.886
640.132
680.225
726.207
777.583
832.53
889.038
944.721
997.125
1044.09
1084.06
1116.27
1140.73
1158.05
1169.2
1175.3
1177.42
1176.48
1173.22
1168.23
1161.95
1154.69
1146.69
1138.14
1129.18
1119.89
1110.38
1100.72
1090.96
1081.17
1071.41
1061.71
1052.15
1042.77
1033.63
1024.82
1016.39
1008.44
1001.1
994.532
988.906
984.436
981.343
979.849
980.286
983.226
989.302
999.176
1013.67
1033.71
1060.27
1094.24
1136.17
1186.3
1244.19
1308.72
1378.01
1449.66
1521.4
1593.01
1671.32
1786.05
2034.89
2650.15
3788.01
4836.03
5194.27
5158.82
5034.02
4890.52
4740.65
4590.89
4448.57
4315.68
4192.01
4077.05
3970.22
3871
3778.81
3692.99
466.014
451.338
457.867
491.79
481.906
470.999
451.667
459.685
476.672
452.81
461.538
5082.89
4859.51
483.138
454.321
490.54
463.435
465.387
521.524
499.103
467.405
469.488
471.618
473.851
4717.12
4462.11
4201.52
3940.14
3762.56
3848.59
3940.94
4040.12
4146.49
4260.66
4382.84
4512.3
4645.36
4776.01
4899.97
4998.54
4996.66
4589.47
3590.89
2585.11
2051.75
1836.55
1738.1
1670.89
1607.59
1541.25
1471.72
1401.21
1332.57
1268.4
1210.67
1160.53
1118.52
1084.43
1057.72
1037.61
1023.09
1013.23
1007.23
1004.39
1004.07
1005.67
1008.88
1013.47
1019.22
1025.97
1033.43
1041.52
1050.05
1059.09
1068.32
1077.74
1087.53
1097.18
1106.88
1116.62
1126.35
1135.89
1145.23
1154.14
1162.46
1170.12
1176.63
1181.61
1184.46
1184.38
1180.47
1171.41
1155.8
1132.58
1100.67
1060.1
1011.61
956.961
898.172
838.177
780.786
727.763
681.154
640.61
606.259
577.584
554.085
509.03
478.163
535.225
476.28
3682.22
456.155
455.995
5287.88
5471.5
5631.34
5765.39
5872.49
5951.3
6000.72
6020.15
6009.15
5967.65
5895.99
5794.58
5664.32
5506.54
5323.4
5117.51
4892.04
4650.83
4398.02
4137.85
3874.45
3612.53
459.564
452.909
457.741
505.335
513.029
522.991
535.714
552.278
573.581
600.247
632.46
670.32
713.699
762.302
815.191
870.217
925.182
977.726
1025.64
1067.2
1101.42
1128.05
1147.48
1160.55
1168.28
1171.74
1171.86
1169.42
1165.05
1159.23
1152.3
1144.52
1136.1
1127.18
1117.88
1108.29
1098.47
1088.49
1078.42
1068.28
1058.14
1048.04
1038.02
1028.11
1018.36
1008.82
999.542
990.59
982.027
973.925
966.378
959.509
953.465
948.407
944.543
942.102
941.332
942.517
945.997
952.317
962.164
976.143
995.004
1019.64
1050.93
1089.45
1135.5
1188.75
1248.31
1313
1382.11
1458.55
1559.14
1749.29
2215.24
3222.44
4405.49
4918.62
4910.44
4786.73
4637.82
4482.84
4329.18
4183.88
4048.95
3924.24
3809.2
3703.2
3605.63
3515.77
3432.86
3355.85
481.352
463.357
452.342
459.523
488.686
499.478
467.606
453.065
461.329
4977.38
4760.61
472.415
454.39
455.984
477.88
463.164
465.036
484.16
466.955
491.391
468.939
520.535
499.654
470.961
473.035
475.215
4621.31
4372.49
4117.51
3860.56
3606.57
3431.68
3509.32
3593.15
3683.89
3782.13
3888.45
4003.25
4126.75
4258.06
4393.23
4526.52
4652.77
4746.9
4712.77
4174.58
3094.55
2210.34
1800.08
1631.9
1541.67
1470.77
1403.48
1337.25
1273.38
1213.83
1160.26
1113.74
1074.72
1042.99
1018.01
998.933
984.892
975.075
968.825
965.513
964.537
965.49
968.102
972.164
977.409
983.629
990.709
998.42
1006.69
1015.4
1024.59
1034
1043.61
1053.57
1063.55
1073.52
1083.65
1093.88
1104.03
1114.18
1124.11
1133.74
1143.12
1152.02
1160.25
1167.51
1173.44
1177.61
1179.35
1177.78
1171.8
1160.34
1141.93
1115.74
1081.04
1038.06
987.493
932.129
874.073
816.857
762.588
713.523
669.893
631.827
599.572
572.804
551.239
509.318
477.56
478.976
533.835
3359.24
455.469
457.693
5175.81
5353.19
5507.19
5636.34
5739.26
5814.78
5862.05
5880.47
5869.74
5829.71
5760.63
5662.84
5537.16
5384.83
5207.71
5008.2
4789.21
4554.33
4307.63
4053.14
3794.94
3537.51
3284.8
481.434
458.472
453.495
480.09
481.955
459.452
486.657
495.201
508.59
516.035
525.766
538.31
554.094
573.607
597.755
627.281
662.468
703.298
749.441
800.002
853.323
907.165
959.3
1007.57
1050.18
1085.93
1114.36
1135.66
1150.5
1159.82
1164.61
1165.83
1164.28
1160.61
1155.33
1148.81
1141.35
1133.15
1124.39
1115.17
1105.6
1095.77
1085.72
1075.52
1065.21
1054.85
1044.46
1034.1
1023.8
1013.58
1003.47
993.528
983.783
974.282
965.072
956.207
947.746
939.759
932.321
925.529
919.494
914.346
910.25
907.37
905.916
906.144
908.284
912.611
919.352
928.947
942.063
959.196
981.063
1008.54
1042.34
1082.93
1130.4
1184.94
1248.47
1330.32
1470.01
1800.63
2604.74
3859.61
4627.86
4678.41
4558.97
4402.78
4241.19
4081.76
3931.67
3793.43
3666.96
3551.46
3446.03
3349.82
3261.98
3181.5
3107.71
3040.3
461.781
453.552
461.236
4874.84
4664.79
465.454
454.573
456.037
469.567
463.039
464.867
474.232
457.694
466.729
479.579
468.632
485.695
470.59
492.741
472.579
520.206
500.761
474.621
476.762
4528.94
4286.4
4037.17
3785.48
3535.89
3292.23
3057.52
3121.37
3191.04
3266.89
3349.26
3439.07
3537.23
3644.36
3761.17
3887.96
4023.77
4164.14
4303.07
4435.08
4523.58
4430.45
3695.88
2572.66
1849.06
1546.45
1415.34
1335.06
1269.5
1210.34
1156.51
1108.57
1067.09
1032.33
1003.99
981.452
963.861
950.491
940.803
934.149
930.006
928.077
928.072
929.79
932.93
937.299
942.708
948.986
956.031
963.698
971.89
980.539
989.638
999.028
1008.66
1018.61
1028.66
1038.78
1049.05
1059.49
1069.92
1080.45
1090.89
1101.17
1111.4
1121.5
1131.27
1140.54
1149.19
1157.06
1163.79
1169.02
1172.2
1172.63
1169.45
1161.48
1147.66
1126.72
1097.73
1060.74
1015.79
965.054
909.907
854.035
799.646
748.342
701.471
660.025
624.403
594.08
568.791
548.471
509.918
532.244
520.092
479.03
535.915
455.398
537.332
527.067
481.465
482.875
485.54
492.268
502.986
485.139
490.427
498.977
485.326
489.467
496.266
489.179
485.955
494.559
484.081
493.672
489.432
486.94
459.432
5066.83
5238.1
5386.57
5510.83
5609.58
5681.88
5727
5744.52
5733.98
5695.38
5628.8
5534.55
5413.36
5266.34
5095.17
4902.02
4689.63
4461.39
4221.08
3972.59
3719.93
3467.46
3219.15
2978.63
563.208
587.542
616.584
651.101
690.825
735.2
784.227
837.287
892.091
945.576
996.164
1041.25
1079.89
1110.61
1133.76
1149.69
1159.56
1164.39
1165.28
1163.14
1158.73
1152.62
1145.25
1136.94
1127.9
1118.29
1108.37
1098.1
1087.57
1076.89
1066.23
1055.62
1044.95
1034.3
1023.79
1013.33
1003.09
992.974
983.022
973.244
963.783
954.62
945.803
937.447
929.566
922.226
915.519
909.55
904.401
900.191
897.061
895.15
894.623
895.65
898.455
903.216
910.062
919.182
931.061
946.183
965.204
989.015
1018.42
1053.95
1096.09
1145.96
1208.61
1304.56
1513.13
2041.85
3101.41
4093.74
4317.38
4241.23
4100.25
3953.32
3805.39
3663.03
3531.86
3412.69
3304.61
3206.53
3117.46
3036.46
2962.38
2895.11
2834.03
458.092
454.396
461.204
4439.82
4203.75
3960.57
3714.42
3469.63
3230.04
2998.85
2778.47
500.631
503.267
507.103
512.418
519.499
528.81
540.868
556.103
574.989
597.982
625.516
658.122
696.147
739.341
786.989
838.2
890.744
942.083
990.196
1033.28
1070.06
1099.89
1122.75
1139.16
1149.94
1156.03
1158.35
1157.72
1154.8
1150.12
1144.08
1137
1129.09
1120.55
1111.5
1102.05
1092.27
1082.24
1072.03
1061.66
1051.19
1040.66
1030.11
1019.57
1009.09
998.692
988.378
978.191
968.175
958.369
948.805
939.527
930.58
922.015
913.889
906.265
899.213
892.813
887.156
882.338
878.471
875.673
874.077
873.829
875.058
877.991
882.778
889.522
898.325
909.621
923.923
941.905
964.522
992.783
1027.68
1070.97
1128.24
1221.29
1434.48
1990.57
3143.99
4244.26
4447.81
4346.04
4181.77
4013.04
3846.4
3689.98
3547.88
3419.82
3304.25
3199.8
3105.26
3019.62
2941.61
2870.98
2807
2749.05
461.025
454.922
456.167
464.25
462.994
464.8
467.839
457.735
4775.3
4571.95
466.631
471.878
459.442
468.491
476.448
470.399
481.665
472.333
487.637
474.303
494.511
476.335
502.415
478.452
512.455
480.68
483.026
498.957
493.421
485.525
505.184
498.092
455.799
517.478
515.024
490.104
488.202
461.202
558.02
575.906
602.792
638.042
678.266
722.74
770.849
821.617
873.979
926.928
977.711
1023.32
1062.34
1094.49
1119.07
1136.79
1148.23
1154.57
1156.73
1155.68
1152.17
1146.77
1139.95
1132.06
1123.36
1114.04
1104.25
1094.06
1083.61
1073.07
1062.25
1051.38
1040.46
1029.63
1018.93
1008.26
997.649
987.21
976.891
966.797
956.883
947.188
937.736
928.634
919.888
911.549
903.696
896.36
889.604
883.502
878.137
873.567
869.872
867.13
865.41
864.788
865.331
867.108
870.216
874.789
880.903
888.468
897.797
909.474
924.23
943.079
967.201
997.945
1038.71
1100.96
1232.08
1574.57
2411.44
3590.12
4105.94
4054.23
3904.52
3748.68
3593.77
3445.63
3310.99
3190.33
3082.11
2984.76
2897.02
2817.82
2745.94
2681.18
2622.81
2570.19
4960.85
5126.11
5269.14
5388.6
5483.34
5552.52
5595.59
5612.13
5601.84
5564.57
5500.43
5409.6
5292.78
5151.01
4985.75
4798.97
4593.27
4371.79
4138.06
3895.84
3649.08
3401.92
3158.37
2922.14
2696.5
458.259
455.531
503.76
549.743
456.414
460.91
462.988
464.788
507.859
511.668
516.88
523.746
532.695
544.223
558.771
576.834
598.905
625.342
656.397
692.186
732.643
777.448
825.697
876.043
926.113
973.627
1016.75
1054.07
1084.84
1108.91
1126.64
1138.72
1146.01
1149.4
1149.68
1147.53
1143.49
1137.98
1131.33
1123.79
1115.53
1106.7
1097.42
1087.77
1077.84
1067.67
1057.31
1046.84
1036.25
1025.6
1014.93
1004.28
993.678
983.166
972.768
962.468
952.275
942.273
932.512
923.007
913.796
904.922
896.431
888.373
880.804
873.782
867.37
861.633
856.638
852.454
849.143
846.764
845.369
845.003
845.71
847.538
850.535
854.837
860.506
867.415
875.868
886.477
900.066
917.843
941.622
974.933
1029.46
1152.66
1489.46
2341.93
3631.13
4209.79
4140.04
3966.36
3790.07
3617.58
3455.54
3310.57
3182.03
3067.49
2964.94
2872.86
2789.99
2715.04
2647.67
2587.13
2532.74
2483.83
463.794
457.826
4353.74
4124.29
3887.39
3647.04
3407.39
3172.26
2944.93
2727.91
2522.72
4678.62
4481.97
497.875
497.956
493.688
466.603
466.97
459.474
468.443
470.507
461.219
470.308
474.482
472.215
478.974
474.147
484.123
476.119
490.074
478.15
497.172
480.256
506.497
482.453
547.403
484.749
487.152
456.56
511.541
510.852
456.849
458.845
464.801
4857.74
5017.07
5154.79
5269.59
5360.45
5426.66
5467.72
5483.32
5473.17
5437.26
5375.42
5287.88
5175.38
5038.79
4879.37
4698.95
4499.95
4285.32
4058.33
3822.62
3581.99
3340.45
3101.96
2870.32
2648.78
2439.84
705.436
516.057
521.429
528.288
537.129
548.402
562.514
579.824
600.875
626.118
655.805
690
728.526
770.916
816.386
863.87
912.09
958.428
1000.95
1038.25
1069.48
1094.36
1113.08
1126.24
1134.6
1138.97
1140.13
1138.75
1135.37
1130.43
1124.26
1117.11
1109.19
1100.64
1091.59
1082.12
1072.33
1062.27
1051.99
1041.56
1030.98
1020.31
1009.59
998.862
988.148
977.482
966.891
956.412
946.077
935.863
925.755
915.853
906.222
896.87
887.83
879.144
870.855
863.011
855.66
848.854
842.645
837.083
832.214
828.077
824.701
822.096
820.257
819.161
818.767
819.024
819.892
821.349
823.397
826.201
829.8
834.067
839.344
846.438
856.56
872.008
899.421
962.819
1145.39
1656.9
2770.11
3798.86
3875.85
3730.81
3556.01
3385.24
3224.44
3080.1
2953.02
2840.96
2741.55
2652.9
2573.59
2502.29
2438.57
2381.64
2330.8
2285.41
2244.92
461.282
457.998
561.887
580.402
603.006
630.843
665.677
707.703
755.421
806.568
859.098
911.147
960.325
1005
1044.9
1078.19
1104.03
1122.9
1135.72
1143.3
1146.54
1146.64
1143.95
1139.28
1133.07
1125.71
1117.43
1108.44
1098.89
1088.93
1078.63
1068.1
1057.38
1046.54
1035.62
1024.64
1013.7
1002.71
991.935
981.332
970.812
960.378
950.133
940.072
930.291
920.744
911.47
902.522
893.953
885.813
878.134
870.989
864.413
858.461
853.186
848.642
844.862
841.878
839.709
838.348
837.787
837.995
838.951
840.654
843.107
846.471
850.783
855.897
862.126
870.186
881.005
895.944
917.527
952.244
1025.75
1223.14
1763.86
2861.41
3764.23
3823.29
3692.59
3534.46
3378.37
3229.69
3094.49
2974.14
2867.2
2771.79
2686.46
2609.89
2540.88
2479.06
2423.71
2374.14
2329.8
4270.6
4047.86
3817.38
3583.04
3348.81