/*--------------------------------*- C++ -*----------------------------------*\
| =========                 |                                                 |
| \\      /  F ield         | OpenFOAM: The Open Source CFD Toolbox           |
|  \\    /   O peration     | Version:  2212                                  |
|   \\  /    A nd           | Website:  www.openfoam.com                      |
|    \\/     M anipulation  |                                                 |
\*---------------------------------------------------------------------------*/
FoamFile
{
    version     2.0;
    format      ascii;
    arch        "LSB;label=32;scalar=64";
    class       volVectorField;
    location    "0.008";
    object      U;
}
// * * * * * * * * * * * * * * * * * * * * * * * * * * * * * * * * * * * * * //

dimensions      [0 1 -1 0 0 0 0];

internalField   nonuniform List<vector> 
12075
(
(0.0594 -0.0252 0)
(0.0685 0.0612 -8.74e-19)
(0.0652 0.0754 8.74e-19)
(0.0634 0.0709 0)
(0.0791 0.06 1.72e-18)
(0.108 0.0506 -2.98e-22)
(0.152 0.0431 1.72e-18)
(0.204 0.0377 -3.49e-18)
(0.263 0.0339 3.46e-18)
(0.325 0.032 -3.48e-18)
(0.387 0.0315 -2.72e-20)
(0.449 0.0324 0)
(0.51 0.0344 -3.5e-18)
(0.57 0.0375 3.47e-18)
(0.631 0.0413 6.97e-18)
(0.691 0.0455 -6.94e-18)
(0.751 0.0498 -2.71e-20)
(0.809 0.0537 0)
(0.864 0.0575 0)
(0.915 0.0609 -6.95e-18)
(0.961 0.0635 6.92e-18)
(1 0.066 -2.7e-20)
(1.04 0.0677 0)
(1.07 0.0688 -2.7e-20)
(1.1 0.0693 0)
(-0.00886 0.0587 0)
(0.0167 0.127 0)
(0.0538 0.139 -8.88e-19)
(0.0977 0.134 8.9e-19)
(0.146 0.122 1.81e-18)
(0.199 0.11 -1.79e-18)
(0.256 0.0992 2.81e-20)
(0.317 0.0899 3.6e-18)
(0.381 0.0822 -3.58e-18)
(0.446 0.0768 0)
(0.511 0.0742 3.66e-18)
(0.577 0.0747 -3.64e-18)
(0.641 0.0785 3.68e-18)
(0.705 0.0849 -3.66e-18)
(0.768 0.0933 3.65e-18)
(0.831 0.102 3.8e-18)
(0.893 0.111 -7.36e-18)
(0.954 0.119 0)
(1.01 0.126 0)
(1.07 0.132 1.46e-19)
(1.12 0.137 0)
(1.17 0.141 1.47e-19)
(1.21 0.145 -7.52e-18)
(1.25 0.148 7.58e-18)
(1.29 0.151 7.57e-18)
(-0.00999 0.185 6.68e-19)
(0.0268 0.205 -6.7e-19)
(0.0786 0.2 2.24e-19)
(0.138 0.187 -1.58e-18)
(0.2 0.172 1.81e-18)
(0.263 0.157 -2.04e-18)
(0.327 0.145 -2.27e-19)
(0.392 0.134 1.6e-18)
(0.458 0.126 0)
(0.526 0.121 3.69e-18)
(0.594 0.12 -7.77e-22)
(0.663 0.122 -7.67e-18)
(0.731 0.129 7.7e-18)
(0.797 0.139 -3.75e-18)
(0.862 0.152 0)
(0.925 0.166 1.18e-19)
(0.986 0.18 -7.59e-18)
(1.05 0.192 2.4e-19)
(1.1 0.203 7.41e-18)
(1.16 0.212 -1.2e-19)
(1.21 0.219 2.41e-19)
(1.26 0.225 -1.21e-19)
(1.31 0.231 -7.78e-18)
(1.35 0.236 2.46e-19)
(1.39 0.241 2.21e-21)
(0.00647 0.303 -2.24e-19)
(0.0564 0.279 2.25e-19)
(0.119 0.257 -2.26e-19)
(0.188 0.235 -2.04e-18)
(0.258 0.214 4.1e-18)
(0.327 0.196 2.28e-19)
(0.396 0.181 -1.61e-18)
(0.465 0.171 2.3e-19)
(0.534 0.165 0)
(0.604 0.162 4.64e-19)
(0.675 0.164 0)
(0.747 0.17 7.02e-19)
(0.818 0.179 -4e-18)
(0.886 0.192 3.78e-18)
(0.953 0.208 -3.79e-18)
(1.02 0.225 1.12e-17)
(1.08 0.242 -7.65e-18)
(1.13 0.258 -2.4e-19)
(1.19 0.273 2.41e-19)
(1.24 0.285 0)
(1.3 0.296 7.05e-18)
(1.35 0.306 -7.81e-18)
(1.4 0.315 0)
(1.44 0.322 -7.38e-19)
(1.49 0.329 0)
(0.0242 0.412 9.04e-19)
(0.086 0.361 -1.44e-22)
(0.157 0.323 0)
(0.234 0.289 -1.83e-18)
(0.311 0.26 1.38e-18)
(0.388 0.236 0)
(0.463 0.219 0)
(0.538 0.208 0)
(0.611 0.204 -3.73e-18)
(0.684 0.205 7.02e-18)
(0.758 0.211 -3.76e-18)
(0.832 0.22 -4.72e-19)
(0.904 0.232 0)
(0.975 0.246 0)
(1.04 0.263 -3.82e-18)
(1.11 0.281 3.84e-18)
(1.17 0.3 -7.71e-18)
(1.22 0.318 1.55e-17)
(1.28 0.336 -7.77e-18)
(1.33 0.352 0)
(1.38 0.366 8.33e-18)
(1.43 0.378 -7.87e-18)
(1.48 0.389 -4.94e-19)
(1.53 0.399 -7.44e-18)
(1.58 0.407 8.48e-18)
(0.0365 0.498 -1.44e-22)
(0.111 0.435 9.14e-19)
(0.191 0.387 -9.18e-19)
(0.276 0.347 -1.84e-18)
(0.361 0.312 2.78e-18)
(0.447 0.284 -3.71e-18)
(0.531 0.265 9.33e-19)
(0.613 0.254 0)
(0.692 0.251 0)
(0.77 0.255 2.83e-18)
(0.846 0.263 -7.58e-18)
(0.92 0.274 8.56e-18)
(0.994 0.288 -8.6e-18)
(1.07 0.304 3.84e-18)
(1.13 0.32 -3.85e-18)
(1.2 0.339 3.87e-18)
(1.26 0.359 0)
(1.31 0.379 7.8e-18)
(1.37 0.399 -7.84e-18)
(1.42 0.418 0)
(1.47 0.436 7.9e-18)
(1.52 0.451 -7.94e-18)
(1.57 0.465 8.47e-18)
(1.62 0.476 -1.5e-17)
(1.67 0.485 8.55e-18)
(0.0447 0.572 -4.59e-19)
(0.13 0.504 -4.61e-19)
(0.223 0.45 0)
(0.317 0.408 0)
(0.409 0.372 3.73e-18)
(0.503 0.344 -2.81e-18)
(0.597 0.323 9.4e-19)
(0.688 0.311 0)
(0.774 0.307 -3.79e-18)
(0.856 0.309 8.56e-18)
(0.935 0.318 -3.82e-18)
(1.01 0.329 -9.59e-19)
(1.08 0.343 9.63e-19)
(1.16 0.359 0)
(1.22 0.376 -4.85e-18)
(1.29 0.394 4.87e-18)
(1.35 0.414 -7.83e-18)
(1.41 0.436 7.87e-18)
(1.46 0.458 -8.89e-18)
(1.51 0.48 7.93e-18)
(1.56 0.5 -7.97e-18)
(1.61 0.519 8e-18)
(1.66 0.535 0)
(1.71 0.548 -2.02e-18)
(1.76 0.559 -1.01e-18)
(0.054 0.632 9.25e-19)
(0.151 0.566 -9.29e-19)
(0.256 0.513 0)
(0.36 0.471 -1.87e-18)
(0.461 0.438 2.82e-18)
(0.561 0.411 -2.83e-18)
(0.661 0.391 1.89e-18)
(0.759 0.377 -3.8e-18)
(0.853 0.37 3.82e-18)
(0.94 0.37 -9.58e-19)
(1.02 0.375 0)
(1.1 0.385 0)
(1.17 0.399 0)
(1.25 0.415 0)
(1.31 0.432 9.79e-19)
(1.38 0.452 -9.83e-19)
(1.44 0.473 0)
(1.5 0.495 -9.91e-19)
(1.56 0.519 9.96e-19)
(1.61 0.543 0)
(1.66 0.566 -1e-18)
(1.71 0.586 0)
(1.76 0.604 -8.11e-18)
(1.8 0.619 1.02e-18)
(1.85 0.631 7.16e-18)
(0.0646 0.688 6.62e-33)
(0.176 0.625 0)
(0.292 0.575 0)
(0.404 0.537 0)
(0.512 0.505 0)
(0.619 0.48 -9.5e-19)
(0.725 0.461 0)
(0.827 0.447 0)
(0.926 0.438 0)
(1.02 0.434 3.87e-18)
(1.11 0.436 -2.8e-22)
(1.19 0.443 -2.92e-18)
(1.26 0.456 0)
(1.34 0.472 -3.93e-18)
(1.41 0.492 5.91e-22)
(1.48 0.513 1.19e-17)
(1.54 0.536 -7.96e-18)
(1.6 0.56 8e-18)
(1.66 0.584 -8.03e-18)
(1.71 0.609 0)
(1.76 0.633 9.12e-18)
(1.81 0.655 -8.14e-18)
(1.85 0.675 0)
(1.9 0.691 0)
(1.94 0.705 1.03e-18)
(0.076 0.743 -1.41e-18)
(0.201 0.682 -4.72e-19)
(0.328 0.634 1.89e-18)
(0.45 0.598 -3.8e-18)
(0.565 0.568 1.91e-18)
(0.677 0.545 9.59e-19)
(0.787 0.527 1.92e-18)
(0.893 0.514 1.93e-18)
(0.995 0.506 -5.82e-18)
(1.09 0.501 8.77e-18)
(1.18 0.502 -5.87e-18)
(1.27 0.507 -9.83e-19)
(1.35 0.519 -3.95e-18)
(1.43 0.536 5.94e-18)
(1.5 0.558 -3.98e-18)
(1.57 0.581 4e-18)
(1.64 0.606 0)
(1.7 0.631 1.11e-17)
(1.76 0.656 -1.62e-17)
(1.81 0.682 8.14e-18)
(1.86 0.706 -6.13e-18)
(1.91 0.728 8.21e-18)
(1.95 0.749 -8.25e-18)
(2 0.767 1.04e-17)
(2.04 0.782 0)
(0.0859 0.794 2.37e-18)
(0.222 0.732 -4.75e-19)
(0.362 0.688 -3.82e-18)
(0.494 0.652 3.83e-18)
(0.615 0.624 -2.28e-23)
(0.733 0.603 -3.86e-18)
(0.848 0.587 -6.92e-22)
(0.958 0.577 -3.9e-18)
(1.06 0.571 5.87e-18)
(1.16 0.569 -1.11e-22)
(1.26 0.573 -1.97e-18)
(1.35 0.58 3.96e-18)
(1.44 0.593 -3.2e-22)
(1.52 0.61 -4e-18)
(1.6 0.633 0)
(1.67 0.658 8.06e-18)
(1.74 0.684 -1.62e-17)
(1.8 0.71 1.42e-17)
(1.86 0.736 -8.17e-18)
(1.91 0.761 2.05e-18)
(1.96 0.785 -2.06e-18)
(2.01 0.808 0)
(2.05 0.829 0)
(2.09 0.848 -1.04e-17)
(2.14 0.864 8.4e-18)
(0.0914 0.83 0)
(0.238 0.772 0)
(0.392 0.73 1.93e-18)
(0.532 0.696 1.93e-18)
(0.662 0.67 -6.36e-22)
(0.787 0.652 1.95e-18)
(0.907 0.64 -6.4e-22)
(1.02 0.634 1.96e-18)
(1.13 0.633 0)
(1.24 0.637 0)
(1.34 0.646 3.98e-18)
(1.43 0.658 -4e-18)
(1.53 0.674 0)
(1.61 0.693 -2.02e-18)
(1.69 0.716 0)
(1.77 0.741 0)
(1.84 0.768 0)
(1.9 0.795 -2.05e-18)
(1.96 0.821 8.24e-18)
(2.01 0.846 -1.03e-17)
(2.06 0.87 -1.04e-17)
(2.11 0.893 8.36e-18)
(2.15 0.915 -2.1e-18)
(2.2 0.934 -8.43e-18)
(2.24 0.952 8.47e-18)
(0.0954 0.846 4.81e-19)
(0.249 0.797 2.42e-18)
(0.415 0.759 9.69e-19)
(0.565 0.728 1.95e-18)
(0.706 0.705 -1.96e-18)
(0.84 0.693 3.93e-18)
(0.966 0.686 -3.95e-18)
(1.09 0.685 3.96e-18)
(1.2 0.691 -7.96e-18)
(1.31 0.701 3.99e-18)
(1.42 0.716 2.01e-18)
(1.52 0.735 0)
(1.61 0.756 6.07e-18)
(1.7 0.779 -1.02e-17)
(1.79 0.804 4.08e-18)
(1.86 0.829 0)
(1.93 0.856 0)
(2 0.884 2.07e-18)
(2.05 0.911 -8.31e-18)
(2.11 0.937 8.35e-18)
(2.16 0.962 2.1e-18)
(2.21 0.985 2.11e-18)
(2.25 1.01 1.06e-17)
(2.3 1.03 -8.16e-22)
(2.34 1.05 -1.71e-17)
(0.102 0.838 -1.45e-18)
(0.261 0.801 -2.44e-18)
(0.435 0.771 -1.96e-18)
(0.594 0.747 -1.96e-18)
(0.747 0.729 0)
(0.892 0.722 -1.98e-18)
(1.03 0.723 0)
(1.16 0.73 0)
(1.28 0.742 4.01e-18)
(1.39 0.759 -4.03e-18)
(1.5 0.781 -6.07e-18)
(1.61 0.805 4.06e-18)
(1.7 0.831 2.04e-18)
(1.79 0.859 -8.74e-23)
(1.88 0.888 0)
(1.96 0.917 8.27e-18)
(2.03 0.946 -8.31e-18)
(2.09 0.976 0)
(2.15 1.01 1.05e-17)
(2.21 1.03 -8.43e-18)
(2.26 1.06 0)
(2.31 1.09 -1.07e-21)
(2.35 1.11 0)
(2.4 1.13 0)
(2.44 1.15 0)
(0.11 0.803 4.9e-19)
(0.275 0.779 4.91e-19)
(0.456 0.762 -9.86e-19)
(0.621 0.749 3.96e-18)
(0.785 0.741 -1.99e-18)
(0.943 0.741 2e-18)
(1.09 0.75 -2.01e-18)
(1.22 0.765 8.06e-18)
(1.35 0.785 -2.17e-22)
(1.47 0.808 -6.09e-18)
(1.59 0.835 -4.08e-18)
(1.69 0.865 -2.05e-18)
(1.79 0.897 8.23e-18)
(1.88 0.931 -2.07e-18)
(1.97 0.965 -1.04e-17)
(2.05 1 -4.17e-18)
(2.12 1.04 6.29e-18)
(2.19 1.07 0)
(2.25 1.1 -8.46e-18)
(2.31 1.14 8.5e-18)
(2.36 1.17 6.41e-18)
(2.41 1.19 -4.29e-18)
(2.45 1.22 -1.73e-17)
(2.5 1.24 6.5e-18)
(2.54 1.25 -2.18e-18)
(0.119 0.74 2.47e-18)
(0.291 0.734 -4.95e-19)
(0.481 0.731 1.99e-18)
(0.652 0.734 -2e-18)
(0.822 0.74 2.01e-18)
(0.99 0.749 2.01e-18)
(1.15 0.766 -2.02e-18)
(1.29 0.789 -8e-22)
(1.42 0.816 -6.12e-18)
(1.55 0.845 2.05e-18)
(1.67 0.879 6.17e-18)
(1.78 0.915 -6.44e-23)
(1.88 0.954 4.15e-18)
(1.97 0.994 -2.09e-18)
(2.06 1.04 4.19e-18)
(2.15 1.08 1.05e-17)
(2.22 1.12 -4.23e-18)
(2.29 1.16 2.12e-18)
(2.35 1.2 -2.14e-18)
(2.41 1.24 2.14e-18)
(2.46 1.28 1.29e-17)
(2.51 1.31 -4.33e-18)
(2.55 1.33 -6.53e-18)
(2.59 1.35 1.31e-17)
(2.64 1.37 2.2e-18)
(0.127 0.65 2.49e-18)
(0.305 0.667 5e-19)
(0.504 0.682 -3.01e-18)
(0.684 0.701 2.01e-18)
(0.859 0.722 -6.07e-18)
(1.03 0.742 -7.02e-22)
(1.2 0.769 -2.04e-18)
(1.35 0.799 0)
(1.49 0.832 2.06e-18)
(1.62 0.87 0)
(1.74 0.91 -1.23e-21)
(1.86 0.953 -6.26e-18)
(1.97 0.999 8.38e-18)
(2.07 1.05 -1.05e-17)
(2.16 1.1 2.11e-18)
(2.24 1.15 -2.13e-18)
(2.32 1.2 -2.14e-18)
(2.39 1.25 6.43e-18)
(2.45 1.3 -2.51e-22)
(2.51 1.35 -1.08e-17)
(2.56 1.39 -1.14e-21)
(2.6 1.42 -2.19e-18)
(2.65 1.45 -1.1e-17)
(2.69 1.47 -2.21e-18)
(2.73 1.48 8.88e-18)
(0.133 0.543 -1.51e-18)
(0.317 0.583 -5.04e-19)
(0.526 0.617 4.05e-18)
(0.715 0.651 0)
(0.895 0.686 -2.04e-18)
(1.07 0.72 0)
(1.25 0.756 6.5e-22)
(1.4 0.793 2.07e-18)
(1.55 0.834 -1.15e-21)
(1.69 0.879 4.17e-18)
(1.82 0.927 2.09e-18)
(1.94 0.978 -1.16e-21)
(2.05 1.03 8.46e-18)
(2.16 1.09 -8.5e-18)
(2.26 1.15 0)
(2.35 1.21 1.29e-17)
(2.43 1.28 -1.29e-17)
(2.5 1.34 4.33e-18)
(2.56 1.4 -8.7e-18)
(2.62 1.45 8.74e-18)
(2.66 1.5 2.2e-18)
(2.7 1.54 -4.42e-18)
(2.74 1.57 0)
(2.77 1.59 4.46e-18)
(2.81 1.6 4.48e-18)
(0.137 0.416 -5.06e-19)
(0.327 0.482 5.08e-19)
(0.546 0.537 -2.3e-21)
(0.743 0.586 2.05e-18)
(0.928 0.634 2.06e-18)
(1.11 0.682 0)
(1.29 0.727 -4.15e-18)
(1.45 0.772 4.17e-18)
(1.6 0.82 -1.16e-21)
(1.75 0.873 -8.42e-18)
(1.89 0.929 4.23e-18)
(2.02 0.989 -1.27e-17)
(2.14 1.05 -8.54e-18)
(2.25 1.12 1.29e-17)
(2.36 1.19 4.31e-18)
(2.45 1.26 -1.73e-17)
(2.54 1.34 1.74e-17)
(2.61 1.41 -2.15e-21)
(2.67 1.48 -4.39e-18)
(2.72 1.55 0)
(2.77 1.61 1.77e-17)
(2.8 1.65 -1.78e-17)
(2.83 1.69 4.48e-18)
(2.85 1.71 -2.08e-21)
(2.88 1.71 -4.53e-18)
(0.138 0.277 7.25e-33)
(0.336 0.368 0)
(0.563 0.443 -4.12e-18)
(0.764 0.508 2.07e-18)
(0.954 0.568 -2.08e-18)
(1.14 0.629 2.09e-18)
(1.31 0.683 2.1e-18)
(1.48 0.736 0)
(1.65 0.79 0)
(1.8 0.851 4.25e-18)
(1.95 0.915 4.27e-18)
(2.09 0.983 2.04e-21)
(2.22 1.06 4.31e-18)
(2.34 1.13 -8.66e-18)
(2.46 1.21 -8.7e-18)
(2.56 1.3 4.37e-18)
(2.65 1.39 -4.39e-18)
(2.73 1.47 -8.82e-18)
(2.79 1.56 1.33e-17)
(2.84 1.64 -8.91e-18)
(2.87 1.71 4.48e-18)
(2.9 1.77 -9e-18)
(2.91 1.81 4.52e-18)
(2.92 1.83 -1.36e-17)
(2.93 1.84 -4.57e-18)
(0.139 0.131 -4.12e-18)
(0.341 0.245 0)
(0.573 0.339 0)
(0.775 0.418 0)
(0.97 0.491 4.19e-18)
(1.16 0.561 0)
(1.33 0.623 0)
(1.5 0.684 -4.25e-18)
(1.68 0.745 4.27e-18)
(1.84 0.811 -4.29e-18)
(2 0.882 -4.31e-18)
(2.15 0.957 4.33e-18)
(2.29 1.04 8.7e-18)
(2.43 1.12 -4.37e-18)
(2.55 1.22 8.78e-18)
(2.66 1.31 8.82e-18)
(2.76 1.42 -4.43e-18)
(2.85 1.52 4.46e-18)
(2.91 1.62 0)
(2.96 1.73 0)
(2.99 1.82 9.04e-18)
(3.01 1.89 -4.54e-18)
(3.01 1.95 -4.57e-18)
(2.99 1.98 9.19e-18)
(2.98 1.99 9.24e-18)
(0.141 -0.0139 4.16e-18)
(0.342 0.12 0)
(0.572 0.228 0)
(0.774 0.32 -2.11e-18)
(0.971 0.402 2.11e-18)
(1.16 0.48 6.37e-18)
(1.33 0.55 -2.13e-18)
(1.51 0.618 8.58e-18)
(1.69 0.686 -6.96e-22)
(1.87 0.756 -7.74e-22)
(2.04 0.83 4.35e-18)
(2.2 0.91 4.37e-18)
(2.35 0.996 8.78e-18)
(2.5 1.09 -8.13e-22)
(2.64 1.19 -1.68e-21)
(2.77 1.3 4.45e-18)
(2.88 1.42 -1.76e-21)
(2.98 1.55 0)
(3.05 1.67 4.52e-18)
(3.1 1.8 -9.09e-18)
(3.13 1.92 -4.57e-18)
(3.13 2.03 9.18e-18)
(3.11 2.11 -1.85e-17)
(3.07 2.15 -4.64e-18)
(3.03 2.17 4.66e-18)
(0.139 -0.155 -3.67e-18)
(0.332 -0.00307 -3.69e-18)
(0.557 0.118 -1.06e-18)
(0.755 0.219 6.37e-18)
(0.952 0.308 -1.07e-17)
(1.14 0.39 -4.29e-18)
(1.32 0.466 -6.46e-18)
(1.5 0.539 -2.16e-18)
(1.69 0.612 -4.35e-18)
(1.88 0.685 -8.74e-18)
(2.05 0.76 4.39e-18)
(2.23 0.84 -1.49e-21)
(2.39 0.928 -4.43e-18)
(2.56 1.03 -7.69e-22)
(2.72 1.14 -4.48e-18)
(2.86 1.26 -4.5e-18)
(3 1.39 4.52e-18)
(3.11 1.54 -4.54e-18)
(3.21 1.7 4.57e-18)
(3.27 1.86 0)
(3.3 2.03 1.38e-17)
(3.29 2.17 -9.28e-18)
(3.25 2.29 9.32e-18)
(3.17 2.37 -4.69e-18)
(3.08 2.4 0)
(0.129 -0.282 4.23e-18)
(0.31 -0.117 5.31e-18)
(0.524 0.0109 -5.34e-18)
(0.714 0.118 -2.15e-18)
(0.907 0.212 2.16e-18)
(1.09 0.295 6.49e-18)
(1.28 0.373 2.18e-18)
(1.46 0.448 4.37e-18)
(1.66 0.522 -4.39e-18)
(1.85 0.594 -5.55e-22)
(2.04 0.668 4.43e-18)
(2.23 0.747 -4.46e-18)
(2.42 0.834 -1.28e-21)
(2.6 0.933 0)
(2.78 1.04 0)
(2.95 1.17 0)
(3.11 1.32 9.13e-18)
(3.26 1.49 -1.84e-17)
(3.38 1.68 9.23e-18)
(3.46 1.89 -9.27e-18)
(3.51 2.11 9.32e-18)
(3.5 2.32 -9.37e-18)
(3.44 2.52 -4.71e-18)
(3.32 2.66 0)
(3.15 2.73 0)
(0.112 -0.385 -3.74e-18)
(0.274 -0.212 -5.36e-19)
(0.471 -0.0834 4.31e-18)
(0.652 0.026 -4.33e-18)
(0.837 0.121 0)
(1.02 0.203 -6.56e-18)
(1.2 0.28 2.2e-18)
(1.39 0.352 -4.41e-18)
(1.59 0.42 8.87e-18)
(1.79 0.486 -8.91e-18)
(1.99 0.553 -8.95e-18)
(2.2 0.627 0)
(2.4 0.709 -4.52e-18)
(2.61 0.804 9.09e-18)
(2.81 0.913 -9.13e-18)
(3.01 1.04 0)
(3.21 1.2 9.23e-18)
(3.4 1.38 -4.64e-18)
(3.57 1.6 9.32e-18)
(3.7 1.85 -1.17e-21)
(3.78 2.13 4.71e-18)
(3.8 2.43 -9.47e-18)
(3.74 2.72 0)
(3.58 2.96 -1.44e-17)
(3.34 3.1 9.63e-18)
(0.0858 -0.453 4.31e-18)
(0.223 -0.284 0)
(0.397 -0.161 0)
(0.565 -0.0558 4.37e-18)
(0.739 0.0356 4.39e-18)
(0.918 0.114 2.21e-18)
(1.1 0.186 4.54e-23)
(1.29 0.251 6.68e-18)
(1.49 0.311 -4.48e-18)
(1.69 0.367 -4.5e-18)
(1.9 0.424 1.36e-17)
(2.12 0.486 -4.54e-18)
(2.34 0.556 -5.11e-22)
(2.57 0.638 -4.15e-22)
(2.8 0.737 4.61e-18)
(3.04 0.861 -4.64e-18)
(3.28 1.01 1.4e-17)
(3.52 1.2 -1.02e-21)
(3.74 1.44 4.71e-18)
(3.94 1.74 -1.42e-17)
(4.1 2.09 -9.52e-18)
(4.18 2.5 -4.78e-18)
(4.14 2.95 4.81e-18)
(3.94 3.39 -9.68e-18)
(3.58 3.75 -4.87e-18)
(0.0486 -0.454 -4.35e-18)
(0.155 -0.314 4.37e-18)
(0.302 -0.209 -5.49e-18)
(0.454 -0.117 -1.1e-18)
(0.614 -0.0359 -6.65e-18)
(0.784 0.0343 -4.46e-18)
(0.959 0.096 -4.48e-18)
(1.14 0.15 1.07e-22)
(1.34 0.198 -1.54e-22)
(1.54 0.242 -9.09e-18)
(1.76 0.284 -2.37e-22)
(1.98 0.329 9.18e-18)
(2.22 0.38 -4.61e-18)
(2.47 0.44 -4.64e-18)
(2.72 0.515 -4.66e-18)
(3 0.614 -1.41e-17)
(3.29 0.742 1.41e-17)
(3.59 0.913 -4.74e-18)
(3.9 1.14 4.76e-18)
(4.21 1.44 -4.79e-18)
(4.5 1.83 1.44e-17)
(4.73 2.32 -4.84e-18)
(4.86 2.93 1.71e-21)
(4.79 3.6 4.89e-18)
(4.51 4.22 -4.92e-18)
(0.00242 -0.38 4.39e-18)
(0.0747 -0.308 -4.42e-18)
(0.191 -0.232 4.44e-18)
(0.32 -0.158 2.23e-18)
(0.461 -0.0894 4.48e-18)
(0.616 -0.0303 6.67e-23)
(0.779 0.0191 6.79e-18)
(0.955 0.0606 4.55e-18)
(1.15 0.0946 4.57e-18)
(1.35 0.124 -4.59e-18)
(1.56 0.151 -1.89e-22)
(1.79 0.177 -4.64e-18)
(2.04 0.206 4.66e-18)
(2.29 0.24 0)
(2.57 0.285 4.71e-18)
(2.86 0.349 -9.47e-18)
(3.19 0.441 9.52e-18)
(3.54 0.573 9.57e-18)
(3.92 0.764 0)
(4.33 1.04 4.84e-18)
(4.76 1.43 0)
(5.18 1.96 -9.78e-18)
(5.5 2.73 4.92e-18)
(5.61 3.84 1.48e-17)
(5.3 5.12 0)
(-0.0145 -0.199 4.44e-18)
(0.0204 -0.242 -5.57e-18)
(0.0927 -0.213 1.12e-18)
(0.183 -0.166 2.25e-18)
(0.29 -0.117 -6.79e-18)
(0.418 -0.0772 4.55e-18)
(0.56 -0.0456 -6.86e-18)
(0.72 -0.0214 2.3e-18)
(0.9 -0.00599 9.24e-18)
(1.1 0.00245 -4.64e-18)
(1.31 0.00746 -9.33e-18)
(1.54 0.00765 9.38e-18)
(1.78 0.00506 -4.71e-18)
(2.04 0.00271 -4.74e-18)
(2.33 0.00466 2.02e-23)
(2.64 0.0157 9.58e-18)
(2.99 0.0437 -9.63e-18)
(3.39 0.0956 -4.84e-18)
(3.86 0.198 9.73e-18)
(4.42 0.343 -1.47e-17)
(5.08 0.651 -4.92e-18)
(5.84 1.04 3.18e-21)
(6.84 1.86 4.98e-18)
(7.53 3.07 -5e-18)
(9.2 5.48 0)
(0.0431 -0.0362 -4.48e-18)
(0.0377 -0.126 4.5e-18)
(0.0332 -0.126 0)
(0.0434 -0.103 2.27e-18)
(0.0825 -0.076 6.01e-23)
(0.153 -0.0584 7.1e-24)
(0.253 -0.049 -2.31e-18)
(0.379 -0.0464 4.64e-18)
(0.533 -0.0502 -1.4e-17)
(0.71 -0.0598 4.69e-18)
(0.909 -0.0724 6.4e-23)
(1.13 -0.09 4.74e-18)
(1.37 -0.115 0)
(1.63 -0.146 -4.79e-18)
(1.91 -0.181 9.63e-18)
(2.21 -0.219 -1.45e-17)
(2.53 -0.256 1.95e-17)
(2.92 -0.296 -1.47e-17)
(3.32 -0.325 4.92e-18)
(3.92 -0.392 -4.95e-18)
(4.45 -0.334 -4.98e-18)
(5.52 -0.449 0)
(6.47 0.0132 5.03e-18)
(8.34 0.0764 -5.06e-18)
(10.6 2.94 5.09e-18)
(0.0455 0.0197 0)
(0.0592 0.104 -4.49e-18)
(0.0805 0.107 1.13e-18)
(0.12 0.0859 -1.13e-18)
(0.199 0.0625 2.28e-18)
(0.315 0.0491 2.29e-18)
(0.466 0.0434 6.9e-18)
(0.654 0.0486 -2.31e-18)
(0.869 0.0538 4.65e-18)
(1.12 0.0756 1.94e-24)
(1.38 0.0942 9.4e-18)
(1.69 0.128 0)
(2 0.15 -4.75e-18)
(2.37 0.194 4.77e-18)
(2.77 0.224 -4.8e-18)
(3.23 0.272 4.82e-18)
(3.74 0.309 -4.85e-18)
(4.33 0.335 9.75e-18)
(5.05 0.361 -6.69e-22)
(5.87 0.323 -4.93e-18)
(7.04 0.267 -4.95e-18)
(8.18 -0.0167 9.97e-18)
(10.7 -0.338 5e-18)
(11.8 -1.35 -5.04e-18)
(18.2 -3.26 -2.64e-20)
(-0.00357 0.122 0)
(0.0578 0.151 3.33e-18)
(0.163 0.12 1.12e-18)
(0.289 0.0713 6.73e-18)
(0.441 0.0217 -2.25e-18)
(0.617 -0.0197 -2.27e-18)
(0.816 -0.053 -1.14e-17)
(1.04 -0.0779 0)
(1.28 -0.0976 -4.6e-18)
(1.54 -0.111 -4.62e-18)
(1.83 -0.119 -4.14e-22)
(2.13 -0.125 -9.35e-18)
(2.47 -0.135 9.39e-18)
(2.84 -0.146 -4.72e-18)
(3.26 -0.166 4.75e-18)
(3.74 -0.198 0)
(4.27 -0.252 4.8e-18)
(4.87 -0.347 -4.82e-18)
(5.58 -0.493 4.85e-18)
(6.4 -0.741 9.75e-18)
(7.36 -1.1 -2.45e-17)
(8.46 -1.74 1.97e-17)
(9.75 -2.42 -4.96e-18)
(10.9 -4.14 0)
(12.6 -6.35 -5e-18)
(0.0183 0.23 4.38e-18)
(0.119 0.144 0)
(0.272 0.0653 0)
(0.436 -0.0151 -4.44e-18)
(0.623 -0.0888 0)
(0.826 -0.153 2.24e-18)
(1.05 -0.21 9.02e-18)
(1.28 -0.261 -6.8e-18)
(1.54 -0.309 -4.55e-18)
(1.81 -0.354 1.37e-17)
(2.09 -0.399 -4.6e-18)
(2.4 -0.447 -4.62e-18)
(2.74 -0.503 6.58e-22)
(3.11 -0.572 4.67e-18)
(3.53 -0.662 0)
(3.98 -0.782 0)
(4.49 -0.945 0)
(5.05 -1.17 -9.54e-18)
(5.68 -1.49 9.59e-18)
(6.37 -1.92 0)
(7.11 -2.51 -9.69e-18)
(7.87 -3.3 9.74e-18)
(8.64 -4.32 -9.79e-18)
(9.25 -5.71 9.86e-18)
(9.63 -7.32 0)
(0.0664 0.227 -4.34e-18)
(0.204 0.0748 -1.09e-18)
(0.393 -0.0378 1.09e-18)
(0.58 -0.141 -4.4e-18)
(0.786 -0.232 4.42e-18)
(1 -0.314 2.22e-18)
(1.23 -0.39 -2.23e-18)
(1.48 -0.461 4.48e-18)
(1.73 -0.53 0)
(2 -0.599 -9.06e-18)
(2.29 -0.672 0)
(2.59 -0.753 -9.15e-18)
(2.92 -0.848 4.6e-18)
(3.27 -0.963 0)
(3.65 -1.11 0)
(4.07 -1.29 0)
(4.52 -1.53 0)
(5 -1.84 -9.43e-18)
(5.51 -2.24 9.48e-18)
(6.02 -2.75 0)
(6.53 -3.4 -4.79e-18)
(6.98 -4.2 0)
(7.33 -5.16 0)
(7.49 -6.3 0)
(7.4 -7.54 4.9e-18)
(0.103 0.142 -4.3e-18)
(0.27 -0.0405 -1.08e-18)
(0.487 -0.174 1.08e-18)
(0.69 -0.293 4.36e-18)
(0.908 -0.398 -4.38e-18)
(1.13 -0.495 0)
(1.37 -0.586 -4.42e-18)
(1.61 -0.674 0)
(1.87 -0.762 -4.46e-18)
(2.13 -0.853 4.48e-18)
(2.4 -0.952 9.01e-18)
(2.69 -1.06 -3.16e-22)
(2.99 -1.19 -4.55e-18)
(3.31 -1.35 -4.57e-18)
(3.66 -1.53 4.6e-18)
(4.02 -1.76 -9.24e-18)
(4.39 -2.05 9.29e-18)
(4.77 -2.41 -4.67e-18)
(5.15 -2.84 0)
(5.5 -3.37 0)
(5.8 -4 9.48e-18)
(6.02 -4.73 0)
(6.12 -5.54 0)
(6.04 -6.42 -1.45e-17)
(5.75 -7.3 5.39e-21)
(0.128 -0.00805 4.26e-18)
(0.318 -0.197 0)
(0.557 -0.338 -3.22e-18)
(0.77 -0.463 -1.08e-18)
(0.996 -0.576 2.17e-18)
(1.22 -0.682 -1.03e-22)
(1.46 -0.783 -2.19e-18)
(1.7 -0.884 0)
(1.94 -0.987 -4.42e-18)
(2.19 -1.1 8.88e-18)
(2.45 -1.21 -4.46e-18)
(2.71 -1.35 0)
(2.99 -1.5 -4.48e-22)
(3.27 -1.68 -4.53e-18)
(3.56 -1.89 0)
(3.86 -2.15 0)
(4.16 -2.46 0)
(4.44 -2.82 4.62e-18)
(4.71 -3.25 4.64e-18)
(4.92 -3.75 -9.33e-18)
(5.08 -4.31 -1.03e-21)
(5.14 -4.93 -1.89e-17)
(5.09 -5.59 4.74e-18)
(4.9 -6.25 9.54e-18)
(4.56 -6.87 4.8e-18)
(0.143 -0.2 -4.22e-18)
(0.349 -0.383 -5.29e-18)
(0.6 -0.522 2.13e-18)
(0.819 -0.646 -3.21e-18)
(1.05 -0.761 -9.03e-23)
(1.27 -0.871 2.16e-18)
(1.5 -0.978 -2.17e-18)
(1.73 -1.09 2.18e-18)
(1.97 -1.2 4.37e-18)
(2.2 -1.32 0)
(2.44 -1.45 -4.21e-22)
(2.67 -1.6 -4.44e-18)
(2.91 -1.77 4.46e-18)
(3.15 -1.96 -8.96e-18)
(3.4 -2.18 -2.46e-22)
(3.63 -2.44 -4.53e-18)
(3.86 -2.75 -4.55e-18)
(4.06 -3.1 9.14e-18)
(4.23 -3.49 -9.19e-18)
(4.35 -3.94 9.23e-18)
(4.41 -4.42 -4.64e-18)
(4.38 -4.93 -4.67e-18)
(4.25 -5.44 -2.48e-21)
(4.02 -5.94 -4.72e-18)
(3.67 -6.39 -4.75e-18)
(0.153 -0.417 4.7e-18)
(0.365 -0.584 3.67e-18)
(0.623 -0.715 -3.81e-22)
(0.842 -0.834 4.23e-18)
(1.07 -0.945 -4.25e-18)
(1.29 -1.05 -2.14e-18)
(1.51 -1.16 -6.44e-18)
(1.73 -1.28 0)
(1.95 -1.39 -8.66e-18)
(2.16 -1.52 8.7e-18)
(2.38 -1.66 -4.19e-22)
(2.59 -1.81 0)
(2.79 -1.99 8.83e-18)
(2.99 -2.18 8.87e-18)
(3.19 -2.4 -5.31e-22)
(3.37 -2.65 1.34e-17)
(3.54 -2.94 -4.5e-18)
(3.68 -3.25 1.36e-17)
(3.78 -3.6 4.55e-18)
(3.83 -3.98 -1.83e-17)
(3.82 -4.38 1.84e-17)
(3.73 -4.79 4.62e-18)
(3.57 -5.19 -4.65e-18)
(3.33 -5.56 0)
(3 -5.88 4.69e-18)
(0.156 -0.646 0)
(0.368 -0.793 0)
(0.626 -0.911 5.22e-18)
(0.842 -1.02 -3.15e-18)
(1.06 -1.12 6.32e-18)
(1.28 -1.23 0)
(1.48 -1.33 8.5e-18)
(1.69 -1.45 0)
(1.89 -1.56 0)
(2.09 -1.69 0)
(2.28 -1.83 -4.33e-18)
(2.46 -1.99 0)
(2.64 -2.15 2.79e-22)
(2.81 -2.34 -8.79e-18)
(2.96 -2.55 4.41e-18)
(3.1 -2.78 5.29e-22)
(3.22 -3.04 0)
(3.31 -3.32 1.48e-21)
(3.36 -3.62 0)
(3.37 -3.93 4.53e-18)
(3.32 -4.26 0)
(3.21 -4.57 0)
(3.03 -4.88 0)
(2.79 -5.15 9.24e-18)
(2.49 -5.38 -1.39e-17)
(0.153 -0.873 5.13e-19)
(0.362 -1 -5.15e-19)
(0.615 -1.1 -1.03e-18)
(0.825 -1.2 1.04e-18)
(1.04 -1.29 2.09e-18)
(1.24 -1.39 2.1e-18)
(1.44 -1.49 -4.21e-18)
(1.63 -1.59 -4.23e-18)
(1.81 -1.71 4.25e-18)
(1.99 -1.83 -4.27e-18)
(2.15 -1.97 8.58e-18)
(2.32 -2.11 -4.31e-18)
(2.47 -2.27 4.33e-18)
(2.61 -2.45 -4.35e-18)
(2.73 -2.64 0)
(2.83 -2.85 -1.76e-17)
(2.91 -3.08 8.83e-18)
(2.97 -3.32 -4.44e-18)
(3 -3.57 0)
(2.97 -3.83 -4.48e-18)
(2.9 -4.08 0)
(2.78 -4.33 -9.05e-18)
(2.6 -4.55 1.82e-17)
(2.37 -4.75 -9.15e-18)
(2.11 -4.9 4.6e-18)
(0.148 -1.1 5.08e-19)
(0.349 -1.2 3.57e-18)
(0.592 -1.28 0)
(0.795 -1.37 0)
(0.997 -1.45 -4.14e-18)
(1.19 -1.53 0)
(1.37 -1.62 2.09e-18)
(1.54 -1.72 2.1e-18)
(1.71 -1.82 0)
(1.87 -1.94 0)
(2.02 -2.07 0)
(2.16 -2.2 0)
(2.29 -2.35 0)
(2.4 -2.51 4.31e-18)
(2.5 -2.68 4.33e-18)
(2.58 -2.87 8.7e-18)
(2.63 -3.07 -4.37e-18)
(2.67 -3.27 0)
(2.67 -3.48 4.42e-18)
(2.63 -3.69 0)
(2.55 -3.89 -8.92e-18)
(2.43 -4.07 1.34e-17)
(2.26 -4.24 9.01e-18)
(2.06 -4.37 -4.53e-18)
(1.84 -4.46 9.11e-18)
(0.143 -1.3 5.04e-19)
(0.332 -1.38 -3.54e-18)
(0.562 -1.45 -1.02e-18)
(0.754 -1.51 0)
(0.946 -1.58 0)
(1.12 -1.65 -2.06e-18)
(1.29 -1.73 2.07e-18)
(1.45 -1.82 -4.15e-18)
(1.6 -1.91 0)
(1.74 -2.02 0)
(1.87 -2.13 0)
(1.99 -2.26 -2.12e-18)
(2.11 -2.39 0)
(2.2 -2.53 0)
(2.28 -2.68 0)
(2.33 -2.85 1.08e-17)
(2.37 -3.01 -2.17e-17)
(2.4 -3.18 1.09e-17)
(2.39 -3.35 -4.37e-18)
(2.35 -3.52 2.2e-18)
(2.27 -3.68 2.21e-18)
(2.15 -3.81 -1.33e-17)
(2 -3.93 1.12e-17)
(1.83 -4.01 -4.48e-18)
(1.64 -4.05 -6.76e-18)
(0.136 -1.5 4.99e-19)
(0.312 -1.55 1.5e-18)
(0.528 -1.59 0)
(0.709 -1.64 -2.02e-18)
(0.888 -1.69 2.03e-18)
(1.05 -1.75 2.04e-18)
(1.2 -1.82 2.05e-18)
(1.35 -1.9 -2.71e-22)
(1.48 -1.98 0)
(1.61 -2.07 0)
(1.73 -2.17 -4.17e-18)
(1.84 -2.27 6.29e-18)
(1.93 -2.39 0)
(2.01 -2.52 0)
(2.07 -2.65 4.25e-18)
(2.11 -2.78 -8.54e-18)
(2.14 -2.92 0)
(2.16 -3.06 9.27e-22)
(2.14 -3.2 1.08e-17)
(2.1 -3.33 -1.09e-17)
(2.02 -3.46 9.89e-22)
(1.92 -3.56 0)
(1.79 -3.63 8.84e-18)
(1.65 -3.68 -8.88e-18)
(1.5 -3.69 -2.23e-18)
(0.128 -1.66 1.98e-18)
(0.29 -1.69 -1.99e-18)
(0.493 -1.72 2e-18)
(0.66 -1.75 -3.11e-22)
(0.825 -1.79 -2.01e-18)
(0.973 -1.83 2.02e-18)
(1.11 -1.89 2.03e-18)
(1.24 -1.95 2.04e-18)
(1.36 -2.02 -4.1e-18)
(1.48 -2.1 -2.06e-18)
(1.59 -2.18 -4.13e-18)
(1.69 -2.27 4.15e-18)
(1.76 -2.37 -2.09e-18)
(1.83 -2.47 2.1e-18)
(1.88 -2.58 -4.21e-18)
(1.91 -2.69 -8.69e-22)
(1.93 -2.8 -2.13e-18)
(1.94 -2.92 9.24e-22)
(1.92 -3.03 -2.15e-18)
(1.88 -3.13 -2.16e-18)
(1.82 -3.22 6.5e-18)
(1.73 -3.3 -8.71e-18)
(1.63 -3.34 6.57e-18)
(1.52 -3.36 -8.8e-18)
(1.4 -3.35 0)
(0.119 -1.81 -1.96e-18)
(0.268 -1.81 -1.97e-18)
(0.457 -1.81 -9.89e-19)
(0.609 -1.83 4.97e-18)
(0.76 -1.85 -2e-18)
(0.894 -1.89 2.01e-18)
(1.02 -1.93 -2.01e-18)
(1.14 -1.98 6.07e-18)
(1.25 -2.04 -4.06e-18)
(1.36 -2.11 2.04e-18)
(1.46 -2.17 4.1e-18)
(1.55 -2.25 -2.06e-18)
(1.61 -2.32 4.13e-18)
(1.66 -2.4 2.08e-18)
(1.71 -2.49 4.17e-18)
(1.74 -2.58 6.29e-18)
(1.75 -2.67 -6.32e-18)
(1.75 -2.76 9.28e-22)
(1.73 -2.84 0)
(1.7 -2.92 4.27e-18)
(1.64 -2.99 -8.59e-18)
(1.58 -3.03 -1.13e-21)
(1.5 -3.06 1.08e-17)
(1.41 -3.07 0)
(1.32 -3.05 8.76e-18)
(0.109 -1.91 4.87e-19)
(0.246 -1.89 1.47e-18)
(0.421 -1.89 -9.81e-19)
(0.557 -1.89 -2.96e-18)
(0.693 -1.9 1.98e-18)
(0.814 -1.92 -3.98e-18)
(0.93 -1.95 2e-18)
(1.04 -1.99 0)
(1.14 -2.03 -2.01e-18)
(1.24 -2.08 0)
(1.34 -2.14 0)
(1.41 -2.2 -2.04e-18)
(1.47 -2.26 7.76e-22)
(1.52 -2.32 2.06e-18)
(1.56 -2.39 0)
(1.58 -2.45 -6.23e-18)
(1.59 -2.52 6.26e-18)
(1.59 -2.59 9.08e-22)
(1.57 -2.65 0)
(1.54 -2.71 1.05e-21)
(1.5 -2.75 0)
(1.45 -2.78 8.55e-18)
(1.39 -2.79 -8.59e-18)
(1.32 -2.79 -2.16e-18)
(1.25 -2.76 0)
(0.101 -1.98 2.41e-18)
(0.225 -1.95 -4.85e-19)
(0.384 -1.93 9.74e-19)
(0.508 -1.92 -9.77e-19)
(0.628 -1.92 1.96e-18)
(0.737 -1.93 3.94e-18)
(0.843 -1.95 1.98e-18)
(0.945 -1.97 -5.96e-18)
(1.04 -2 5.99e-18)
(1.13 -2.03 0)
(1.22 -2.08 4.03e-18)
(1.29 -2.12 -6.07e-18)
(1.35 -2.17 9.29e-22)
(1.39 -2.22 -4.08e-18)
(1.42 -2.27 2.05e-18)
(1.44 -2.32 8.24e-18)
(1.45 -2.37 -6.21e-18)
(1.44 -2.42 6.24e-18)
(1.43 -2.46 -8.35e-18)
(1.4 -2.49 9.93e-22)
(1.37 -2.52 8.43e-18)
(1.33 -2.54 -1.69e-17)
(1.29 -2.54 1.7e-17)
(1.25 -2.53 4.28e-18)
(1.2 -2.49 -1.72e-17)
(0.0928 -2.01 -1.44e-18)
(0.205 -1.97 4.81e-19)
(0.348 -1.94 -2.9e-18)
(0.461 -1.92 0)
(0.569 -1.91 -1.95e-18)
(0.667 -1.91 3.47e-22)
(0.764 -1.91 4.21e-22)
(0.858 -1.92 -3.94e-18)
(0.946 -1.94 1.98e-18)
(1.03 -1.96 0)
(1.11 -1.99 -2e-18)
(1.17 -2.03 2e-18)
(1.22 -2.07 -4.03e-18)
(1.27 -2.11 6.07e-18)
(1.31 -2.15 -6.09e-18)
(1.32 -2.18 6.12e-18)
(1.33 -2.22 -8.2e-18)
(1.32 -2.25 0)
(1.31 -2.27 0)
(1.29 -2.29 -2.08e-18)
(1.27 -2.31 -8.36e-18)
(1.24 -2.31 -1.6e-21)
(1.21 -2.3 1.48e-17)
(1.18 -2.28 -1.06e-17)
(1.15 -2.24 0)
(0.0826 -2.01 4.75e-19)
(0.183 -1.96 -4.77e-19)
(0.313 -1.92 -9.57e-19)
(0.415 -1.9 -9.61e-19)
(0.515 -1.88 3.59e-22)
(0.605 -1.86 0)
(0.694 -1.85 1.95e-18)
(0.779 -1.85 3.91e-18)
(0.859 -1.86 -1.96e-18)
(0.934 -1.87 -3.94e-18)
(1 -1.89 1.98e-18)
(1.06 -1.92 0)
(1.11 -1.94 2e-18)
(1.16 -1.97 -2.01e-18)
(1.19 -2 4.03e-18)
(1.21 -2.03 -4.05e-18)
(1.21 -2.06 0)
(1.21 -2.08 6.13e-18)
(1.21 -2.09 -8.2e-18)
(1.19 -2.1 8.24e-18)
(1.18 -2.1 -8.28e-18)
(1.16 -2.1 0)
(1.14 -2.09 -2.09e-18)
(1.12 -2.06 0)
(1.11 -2.01 0)
(0.0714 -1.97 0)
(0.16 -1.91 -9.46e-19)
(0.276 -1.87 -1.9e-18)
(0.368 -1.84 9.54e-19)
(0.462 -1.81 -4.71e-22)
(0.549 -1.79 1.92e-18)
(0.631 -1.77 0)
(0.706 -1.76 0)
(0.778 -1.76 0)
(0.845 -1.76 0)
(0.905 -1.77 1.96e-18)
(0.959 -1.79 -3.94e-18)
(1.01 -1.81 3.96e-18)
(1.05 -1.83 5.96e-18)
(1.09 -1.85 2e-18)
(1.1 -1.87 2.01e-18)
(1.11 -1.89 -6.04e-18)
(1.12 -1.9 2.02e-18)
(1.11 -1.91 -8.13e-18)
(1.11 -1.91 -1.3e-21)
(1.1 -1.91 8.21e-18)
(1.09 -1.9 0)
(1.08 -1.88 1.24e-17)
(1.07 -1.85 -8.33e-18)
(1.06 -1.8 0)
(0.0593 -1.9 0)
(0.136 -1.83 0)
(0.237 -1.79 1.88e-18)
(0.321 -1.75 -9.45e-19)
(0.41 -1.72 1.9e-18)
(0.493 -1.69 -3.81e-18)
(0.571 -1.67 1.91e-18)
(0.64 -1.66 0)
(0.703 -1.65 0)
(0.762 -1.64 0)
(0.818 -1.64 -1.95e-18)
(0.868 -1.65 0)
(0.914 -1.66 -9.82e-19)
(0.955 -1.67 0)
(0.985 -1.69 -2.97e-18)
(1 -1.71 -5.97e-18)
(1.02 -1.72 5.99e-18)
(1.03 -1.73 0)
(1.03 -1.73 -8.06e-18)
(1.03 -1.73 8.1e-18)
(1.03 -1.72 -1.02e-18)
(1.03 -1.71 0)
(1.02 -1.68 -2.05e-18)
(1.02 -1.65 0)
(1.02 -1.61 -1.04e-18)
(0.0482 -1.8 4.63e-19)
(0.113 -1.73 -1.4e-18)
(0.201 -1.68 -9.34e-19)
(0.277 -1.64 -2.65e-22)
(0.358 -1.6 -2.83e-18)
(0.435 -1.57 9.45e-19)
(0.508 -1.55 1.9e-18)
(0.574 -1.54 -1.91e-18)
(0.634 -1.52 -3.83e-18)
(0.688 -1.51 -4.73e-22)
(0.739 -1.51 7.72e-18)
(0.786 -1.51 -3.88e-18)
(0.827 -1.51 9.73e-19)
(0.861 -1.51 3.91e-18)
(0.889 -1.53 9.82e-19)
(0.91 -1.54 -3.95e-18)
(0.928 -1.55 9.91e-19)
(0.943 -1.55 0)
(0.954 -1.55 1e-18)
(0.962 -1.55 0)
(0.967 -1.54 -7.06e-18)
(0.969 -1.52 8.11e-18)
(0.972 -1.49 1.02e-18)
(0.975 -1.46 8.18e-18)
(0.983 -1.42 -7.19e-18)
(0.039 -1.67 0)
(0.0928 -1.6 -9.23e-19)
(0.168 -1.55 0)
(0.234 -1.5 2.79e-18)
(0.307 -1.46 -1.87e-18)
(0.375 -1.43 9.38e-19)
(0.442 -1.41 0)
(0.506 -1.4 0)
(0.564 -1.38 -9.5e-19)
(0.618 -1.37 9.54e-19)
(0.668 -1.36 9.58e-19)
(0.711 -1.36 -3.85e-18)
(0.746 -1.35 -2.93e-22)
(0.775 -1.36 4.85e-18)
(0.801 -1.36 9.74e-19)
(0.823 -1.37 6.85e-18)
(0.844 -1.37 1.12e-21)
(0.863 -1.37 -7.9e-18)
(0.88 -1.37 -9.91e-18)
(0.894 -1.36 1.59e-17)
(0.904 -1.35 -1.5e-17)
(0.912 -1.33 7.03e-18)
(0.919 -1.31 4.59e-22)
(0.928 -1.28 0)
(0.941 -1.24 8.15e-18)
(0.0309 -1.52 0)
(0.0739 -1.45 -2.61e-22)
(0.136 -1.4 -4.86e-23)
(0.194 -1.35 -9.23e-19)
(0.256 -1.31 1.85e-18)
(0.316 -1.28 0)
(0.377 -1.26 -9.34e-19)
(0.437 -1.24 0)
(0.494 -1.23 -4.46e-22)
(0.548 -1.22 4.36e-22)
(0.597 -1.21 4.16e-22)
(0.637 -1.2 0)
(0.669 -1.2 0)
(0.696 -1.2 -9.62e-19)
(0.72 -1.2 2.9e-18)
(0.743 -1.2 -2.91e-18)
(0.766 -1.2 4.47e-22)
(0.788 -1.19 0)
(0.809 -1.19 9.83e-19)
(0.827 -1.18 0)
(0.842 -1.17 -9.92e-19)
(0.855 -1.15 -4.44e-22)
(0.867 -1.13 7.01e-18)
(0.88 -1.1 -8.04e-18)
(0.896 -1.07 -1.01e-18)
(0.0213 -1.35 4.53e-19)
(0.0545 -1.28 -9.09e-19)
(0.104 -1.23 0)
(0.154 -1.19 1.83e-18)
(0.207 -1.15 -9.2e-19)
(0.26 -1.12 0)
(0.315 -1.09 9.27e-19)
(0.37 -1.07 -3.26e-18)
(0.424 -1.06 4.67e-18)
(0.475 -1.05 -4.69e-19)
(0.523 -1.04 -9.42e-19)
(0.563 -1.04 4.73e-19)
(0.594 -1.04 -4.75e-19)
(0.62 -1.03 -4.77e-19)
(0.646 -1.03 4.79e-19)
(0.67 -1.03 7.7e-18)
(0.695 -1.02 -1.45e-18)
(0.718 -1.02 -8.25e-18)
(0.741 -1.01 -8.29e-18)
(0.762 -1 7.35e-18)
(0.781 -0.99 0)
(0.798 -0.973 4.94e-19)
(0.814 -0.952 0)