/*--------------------------------*- C++ -*----------------------------------*\
| =========                 |                                                 |
| \\      /  F ield         | OpenFOAM: The Open Source CFD Toolbox           |
|  \\    /   O peration     | Version:  2212                                  |
|   \\  /    A nd           | Website:  www.openfoam.com                      |
|    \\/     M anipulation  |                                                 |
\*---------------------------------------------------------------------------*/
FoamFile
{
    version     2.0;
    format      ascii;
    arch        "LSB;label=32;scalar=64";
    class       volScalarField;
    location    "4.2e-05";
    object      epsilon;
}
// * * * * * * * * * * * * * * * * * * * * * * * * * * * * * * * * * * * * * //

dimensions      [0 2 -3 0 0 0 0];

internalField   nonuniform List<scalar> 
17100
(
3.03105e+08
1.73145e+07
3.64416e+06
1.74467e+06
1.10155e+06
800588
639460
544635
484603
444593
415916
394681
378603
366205
356500
348808
342650
337680
333644
330356
327672
325483
323708
322281
321150
320274
319616
319153
318866
318744
319232
319749
320352
321138
322198
323554
325242
327313
329836
332905
336640
341201
346800
353724
362363
373260
387180
405221
429832
464445
515190
594290
731405
1.01665e+06
1.88194e+06
8.27955e+06
1.91113e+08
3.88725e+08
1.3238e+08
4.51401e+07
1.61517e+07
7.02851e+06
3.78642e+06
2.40794e+06
1.7188e+06
1.32935e+06
1.08864e+06
929554
819060
739364
680166
635154
600284
572863
551042
533521
519366
507893
498598
491105
485137
480494
476941
474265
472403
471291
470888
472023
473955
476738
480466
485264
491287
498732
507857
519005
532625
549326
569930
595576
627866
669112
722752
794083
891636
1.02997e+06
1.23531e+06
1.55881e+06
2.1124e+06
3.19223e+06
5.76082e+06
1.37439e+07
4.54041e+07
1.72176e+08
1.87318e+08
8.47109e+07
4.4527e+07
2.33856e+07
1.27865e+07
7.61418e+06
4.93806e+06
3.45629e+06
2.5846e+06
2.04027e+06
1.68206e+06
1.4357e+06
1.25994e+06
1.13073e+06
1.03335e+06
958460
899898
853491
816336
786371
762103
742439
726567
713881
703926
696354
690920
687476
685535
684938
687132
691187
697195
705314
715777
728901
745109
764967
789222
818881
855302
900352
956638
1.02788e+06
1.11949e+06
1.23962e+06
1.40089e+06
1.62359e+06
1.94172e+06
2.41486e+06
3.15241e+06
4.36782e+06
6.52835e+06
1.07336e+07
2.01612e+07
4.46076e+07
1.0982e+08
1.1539e+08
5.62336e+07
3.2858e+07
2.07562e+07
1.3491e+07
9.00212e+06
6.35206e+06
4.73379e+06
3.68104e+06
2.97335e+06
2.48195e+06
2.13045e+06
1.87228e+06
1.67823e+06
1.52941e+06
1.41333e+06
1.32146e+06
1.2479e+06
1.18847e+06
1.14014e+06
1.10071e+06
1.06855e+06
1.04243e+06
1.02146e+06
1.00494e+06
992372
983389
977744
974981
974319
978102
985068
995376
1.00928e+06
1.02714e+06
1.04945e+06
1.07689e+06
1.11031e+06
1.15088e+06
1.20014e+06
1.26015e+06
1.3337e+06
1.42463e+06
1.5383e+06
1.68235e+06
1.86784e+06
2.11122e+06
2.4375e+06
2.88565e+06
3.51798e+06
4.43642e+06
5.81507e+06
8.01372e+06
1.19237e+07
1.9393e+07
3.51975e+07
7.96918e+07
8.13368e+07
4.09148e+07
2.49367e+07
1.68591e+07
1.20873e+07
8.97455e+06
6.81687e+06
5.37514e+06
4.39873e+06
3.69865e+06
3.18428e+06
2.79798e+06
2.50214e+06
2.27163e+06
2.08929e+06
1.94315e+06
1.82474e+06
1.72794e+06
1.64828e+06
1.58244e+06
1.52797e+06
1.48298e+06
1.44606e+06
1.41615e+06
1.39243e+06
1.3743e+06
1.36132e+06
1.35319e+06
1.34958e+06
1.34893e+06
1.35467e+06
1.36511e+06
1.38047e+06
1.40108e+06
1.4274e+06
1.46005e+06
1.49986e+06
1.54789e+06
1.60552e+06
1.67456e+06
1.75736e+06
1.85701e+06
1.97764e+06
2.12481e+06
2.3061e+06
2.532e+06
2.81725e+06
3.18301e+06
3.66022e+06
4.29537e+06
5.16051e+06
6.37822e+06
8.23344e+06
1.11274e+07
1.62645e+07
2.76355e+07
6.02676e+07
6.00723e+07
3.07806e+07
1.92489e+07
1.35791e+07
1.02972e+07
8.19273e+06
6.71971e+06
5.62062e+06
4.82302e+06
4.22549e+06
3.76482e+06
3.40272e+06
3.11322e+06
2.87846e+06
2.68581e+06
2.52617e+06
2.39285e+06
2.28086e+06
2.18643e+06
2.1067e+06
2.03946e+06
1.983e+06
1.93602e+06
1.8975e+06
1.86664e+06
1.84288e+06
1.82578e+06
1.81504e+06
1.8105e+06
1.80989e+06
1.81765e+06
1.83168e+06
1.85221e+06
1.87962e+06
1.9144e+06
1.95718e+06
2.00881e+06
2.07034e+06
2.1431e+06
2.22876e+06
2.32946e+06
2.44788e+06
2.58748e+06
2.75272e+06
2.9494e+06
3.18524e+06
3.47064e+06
3.81997e+06
4.25352e+06
4.8009e+06
5.50821e+06
6.46748e+06
7.8048e+06
9.83381e+06
1.35302e+07
2.19648e+07
4.64289e+07
4.48479e+07
2.34025e+07
1.50215e+07
1.10214e+07
8.77612e+06
7.35506e+06
6.37693e+06
5.64154e+06
5.06138e+06
4.60848e+06
4.2433e+06
3.94252e+06
3.69075e+06
3.47739e+06
3.29491e+06
3.13778e+06
3.00186e+06
2.88403e+06
2.78183e+06
2.69335e+06
2.61707e+06
2.55178e+06
2.49654e+06
2.45059e+06
2.41334e+06
2.38435e+06
2.3633e+06
2.34995e+06
2.3442e+06
2.34357e+06
2.35295e+06
2.37001e+06
2.39499e+06
2.42821e+06
2.47012e+06
2.52126e+06
2.58231e+06
2.65413e+06
2.73773e+06
2.83435e+06
2.94549e+06
3.07296e+06
3.21897e+06
3.38627e+06
3.57832e+06
3.7996e+06
4.05605e+06
4.35595e+06
4.7114e+06
5.14109e+06
5.67593e+06
6.37216e+06
7.31232e+06
8.76496e+06
1.14852e+07
1.78807e+07
3.6588e+07
3.38607e+07
1.80934e+07
1.19713e+07
9.12987e+06
7.59666e+06
6.66074e+06
6.03108e+06
5.57078e+06
5.19405e+06
4.88837e+06
4.63104e+06
4.40843e+06
4.21231e+06
4.0375e+06
3.88064e+06
3.73943e+06
3.61227e+06
3.49797e+06
3.39561e+06
3.30447e+06
3.22394e+06
3.15356e+06
3.0929e+06
3.04163e+06
2.99949e+06
2.96625e+06
2.94177e+06
2.92595e+06
2.91875e+06
2.91794e+06
2.928e+06
2.9468e+06
2.9745e+06
3.01136e+06
3.05766e+06
3.11376e+06
3.18008e+06
3.25708e+06
3.3453e+06
3.44535e+06
3.55789e+06
3.68368e+06
3.82356e+06
3.97856e+06
4.14998e+06
4.3396e+06
4.55004e+06
4.78553e+06
5.05316e+06
5.36541e+06
5.74475e+06
6.23021e+06
6.89702e+06
7.96167e+06
1.00187e+07
1.5e+07
2.95645e+07
2.63576e+07
1.4497e+07
9.89323e+06
7.81971e+06
6.74724e+06
6.12871e+06
5.73743e+06
5.46616e+06
5.25139e+06
5.0737e+06
4.91795e+06
4.77539e+06
4.64159e+06
4.51449e+06
4.39341e+06
4.27833e+06
4.1696e+06
4.06767e+06
3.97302e+06
3.88606e+06
3.80715e+06
3.73656e+06
3.6745e+06
3.62112e+06
3.57653e+06
3.54081e+06
3.51403e+06
3.49625e+06
3.48753e+06
3.48635e+06
3.49587e+06
3.51458e+06
3.54259e+06
3.58e+06
3.62692e+06
3.68343e+06
3.7496e+06
3.82549e+06
3.91109e+06
4.00632e+06
4.11105e+06
4.22504e+06
4.348e+06
4.47961e+06
4.61962e+06
4.7681e+06
4.92581e+06
5.09498e+06
5.28054e+06
5.49247e+06
5.75404e+06
6.08702e+06
6.56758e+06
7.37797e+06
9.00835e+06
1.30278e+07
2.46985e+07
2.14589e+07
1.21732e+07
8.56248e+06
6.96408e+06
6.17097e+06
5.74465e+06
5.50211e+06
5.35461e+06
5.25535e+06
5.17205e+06
5.09818e+06
5.0256e+06
4.95072e+06
4.87248e+06
4.79125e+06
4.70813e+06
4.62456e+06
4.54206e+06
4.46207e+06
4.38586e+06
4.31458e+06
4.24915e+06
4.19033e+06
4.13876e+06
4.09491e+06
4.05918e+06
4.03184e+06
4.01313e+06
4.00322e+06
4.00157e+06
4.00951e+06
4.02644e+06
4.05239e+06
4.0873e+06
4.13107e+06
4.18353e+06
4.24442e+06
4.31339e+06
4.38995e+06
4.47348e+06
4.56319e+06
4.65816e+06
4.7573e+06
4.85948e+06
4.96365e+06
5.06911e+06
5.17596e+06
5.28584e+06
5.40323e+06
5.53767e+06
5.70807e+06
5.93743e+06
6.30021e+06
6.9478e+06
8.29786e+06
1.16636e+07
2.13262e+07
1.82544e+07
1.06651e+07
7.70656e+06
6.40483e+06
5.78433e+06
5.47308e+06
5.31934e+06
5.24752e+06
5.21569e+06
5.19971e+06
5.18647e+06
5.16858e+06
5.14261e+06
5.10754e+06
5.06394e+06
5.01315e+06
4.95697e+06
4.89733e+06
4.83614e+06
4.77518e+06
4.71605e+06
4.66012e+06
4.60859e+06
4.56243e+06
4.52244e+06
4.48924e+06
4.46334e+06
4.44511e+06
4.43479e+06
4.43253e+06
4.43851e+06
4.45271e+06
4.47507e+06
4.50541e+06
4.54346e+06
4.58884e+06
4.64102e+06
4.69936e+06
4.76302e+06
4.83101e+06
4.90215e+06
4.97509e+06
5.04839e+06
5.12054e+06
5.19022e+06
5.25656e+06
5.31963e+06
5.38114e+06
5.44564e+06
5.52422e+06
5.62773e+06
5.7913e+06
6.07597e+06
6.61656e+06
7.7772e+06
1.06872e+07
1.89243e+07
1.60677e+07
9.64016e+06
7.12957e+06
6.03124e+06
5.519e+06
5.27827e+06
5.17811e+06
5.15225e+06
5.16311e+06
5.18858e+06
5.21564e+06
5.2357e+06
5.24616e+06
5.24377e+06
5.23176e+06
5.20944e+06
5.17872e+06
5.14154e+06
5.09988e+06
5.05566e+06
5.01068e+06
4.96653e+06
4.92464e+06
4.8862e+06
4.85221e+06
4.82348e+06
4.80064e+06
4.78419e+06
4.77446e+06
4.77167e+06
4.77594e+06
4.78728e+06
4.80557e+06
4.83055e+06
4.86184e+06
4.89892e+06
4.9411e+06
4.98753e+06
5.03716e+06
5.0888e+06
5.14107e+06
5.19248e+06
5.24145e+06
5.28643e+06
5.32614e+06
5.35983e+06
5.38778e+06
5.41204e+06
5.43751e+06
5.472e+06
5.53341e+06
5.6512e+06
5.88168e+06
6.34705e+06
7.37128e+06
9.94635e+06
1.71432e+07
1.45125e+07
8.91387e+06
6.72208e+06
5.76636e+06
5.32741e+06
5.13262e+06
5.06598e+06
5.06886e+06
5.10569e+06
5.15658e+06
5.20885e+06
5.25617e+06
5.29174e+06
5.31551e+06
5.32754e+06
5.3268e+06
5.31767e+06
5.30015e+06
5.27626e+06
5.24792e+06
5.21692e+06
5.18489e+06
5.15332e+06
5.12348e+06
5.09647e+06
5.07319e+06
5.05437e+06
5.04055e+06
5.03214e+06
5.02937e+06
5.03237e+06
5.04115e+06
5.05555e+06
5.07527e+06
5.09986e+06
5.1287e+06
5.16101e+06
5.19583e+06
5.23204e+06
5.26834e+06
5.30329e+06
5.33536e+06
5.363e+06
5.38475e+06
5.39946e+06
5.40659e+06
5.40668e+06
5.40195e+06
5.39737e+06
5.40204e+06
5.43251e+06
5.51726e+06
5.7084e+06
6.11808e+06
7.03944e+06
9.35538e+06
1.57358e+07
1.33566e+07
8.37249e+06
6.41807e+06
5.56761e+06
5.18156e+06
5.01898e+06
4.97496e+06
4.99568e+06
5.04943e+06
5.11686e+06
5.18603e+06
5.24991e+06
5.30511e+06
5.34715e+06
5.37667e+06
5.39462e+06
5.40184e+06
5.40039e+06
5.39159e+06
5.37718e+06
5.35879e+06
5.338e+06
5.31626e+06
5.29483e+06
5.27484e+06
5.25721e+06
5.24269e+06
5.23188e+06
5.22519e+06
5.22289e+06
5.22509e+06
5.23178e+06
5.24277e+06
5.25773e+06
5.27617e+06
5.29741e+06
5.32062e+06
5.34481e+06
5.36881e+06
5.39132e+06
5.41092e+06
5.42611e+06
5.43543e+06
5.43757e+06
5.43162e+06
5.41719e+06
5.39515e+06
5.36806e+06
5.34118e+06
5.32389e+06
5.3289e+06
5.38952e+06
5.55164e+06
5.91945e+06
6.76139e+06
8.87158e+06
1.45955e+07
1.246e+07
7.95633e+06
6.18573e+06
5.41554e+06
5.06917e+06
4.92898e+06
4.89995e+06
4.93257e+06
4.99719e+06
5.07547e+06
5.15597e+06
5.23154e+06
5.29848e+06
5.35503e+06
5.39889e+06
5.43048e+06
5.45159e+06
5.46356e+06
5.46643e+06
5.46411e+06
5.45675e+06
5.44597e+06
5.43314e+06
5.4195e+06
5.40613e+06
5.39393e+06
5.38366e+06
5.37591e+06
5.37108e+06
5.36944e+06
5.3711e+06
5.37601e+06
5.38398e+06
5.39463e+06
5.40746e+06
5.42176e+06
5.43668e+06
5.45122e+06
5.46422e+06
5.47441e+06
5.48042e+06
5.48085e+06
5.47446e+06
5.46e+06
5.43637e+06
5.40399e+06
5.36383e+06
5.31863e+06
5.27374e+06
5.23854e+06
5.22854e+06
5.27013e+06
5.40995e+06
5.74557e+06
6.52484e+06
8.46797e+06
1.36521e+07
1.17475e+07
7.63233e+06
6.00693e+06
5.29852e+06
4.98158e+06
4.85715e+06
4.83806e+06
4.87818e+06
4.9496e+06
5.03489e+06
5.12301e+06
5.20692e+06
5.28282e+06
5.34872e+06
5.40391e+06
5.44721e+06
5.4792e+06
5.50179e+06
5.51619e+06
5.52396e+06
5.52513e+06
5.52335e+06
5.51848e+06
5.51187e+06
5.50453e+06
5.49734e+06
5.49103e+06
5.48616e+06
5.48311e+06
5.48213e+06
5.48331e+06
5.4866e+06
5.49176e+06
5.49842e+06
5.50604e+06
5.51391e+06
5.52118e+06
5.52685e+06
5.52976e+06
5.52901e+06
5.52284e+06
5.51017e+06
5.4899e+06
5.46026e+06
5.42195e+06
5.37461e+06
5.31957e+06
5.25984e+06
5.20093e+06
5.15226e+06
5.12927e+06
5.1573e+06
5.28103e+06
5.59253e+06
6.32246e+06
8.12788e+06
1.28562e+07
1.11684e+07
7.37822e+06
5.87008e+06
5.20966e+06
4.91411e+06
4.7998e+06
4.78658e+06
4.83075e+06
4.906e+06
4.99567e+06
5.08881e+06
5.17873e+06
5.26149e+06
5.3349e+06
5.39805e+06
5.45088e+06
5.49277e+06
5.52448e+06
5.54789e+06
5.56418e+06
5.57452e+06
5.58022e+06
5.58169e+06
5.58151e+06
5.57964e+06
5.57697e+06
5.57423e+06
5.57194e+06
5.57047e+06
5.57002e+06
5.57067e+06
5.57234e+06
5.57477e+06
5.57759e+06
5.58025e+06
5.58201e+06
5.58202e+06
5.57967e+06
5.57331e+06
5.56206e+06
5.54474e+06
5.52017e+06
5.48669e+06
5.44488e+06
5.39366e+06
5.33354e+06
5.26611e+06
5.19461e+06
5.12473e+06
5.06592e+06
5.03331e+06
5.0515e+06
5.16408e+06
5.45827e+06
6.14972e+06
7.84032e+06
1.21764e+07
1.06917e+07
7.17643e+06
5.76342e+06
5.14027e+06
4.86029e+06
4.75246e+06
4.74222e+06
4.78811e+06
4.86517e+06
4.95727e+06
5.05376e+06
5.14807e+06
5.23614e+06
5.31565e+06
5.38547e+06
5.44535e+06
5.49564e+06
5.53598e+06
5.56722e+06
5.59113e+06
5.60878e+06
5.62125e+06
5.62957e+06
5.63478e+06
5.6377e+06
5.63879e+06
5.63909e+06
5.63914e+06
5.63903e+06
5.63887e+06
5.63885e+06
5.63878e+06
5.63839e+06
5.63756e+06
5.63541e+06
5.63133e+06
5.62452e+06
5.61408e+06
5.59897e+06
5.57812e+06
5.55034e+06
5.51445e+06
5.47038e+06
5.41707e+06
5.35449e+06
5.28335e+06
5.20547e+06
5.12435e+06
5.04592e+06
4.97978e+06
4.9409e+06
4.95197e+06
5.05783e+06
5.34042e+06
6.00215e+06
7.59651e+06
1.15924e+07
1.02931e+07
7.01302e+06
5.67879e+06
5.08512e+06
4.81648e+06
4.71248e+06
4.703e+06
4.74891e+06
4.82625e+06
4.91933e+06
5.01788e+06
5.11534e+06
5.20755e+06
5.29203e+06
5.36748e+06
5.43344e+06
5.49007e+06
5.53791e+06
5.57686e+06
5.60755e+06
5.63173e+06
5.65032e+06
5.66428e+06
5.67446e+06
5.68166e+06
5.68654e+06
5.68967e+06
5.6915e+06
5.69229e+06
5.69215e+06
5.69128e+06
5.6894e+06
5.68626e+06
5.68148e+06
5.67451e+06
5.66467e+06
5.6512e+06
5.63323e+06
5.60989e+06
5.57966e+06
5.54219e+06
5.4967e+06
5.44235e+06
5.37882e+06
5.30626e+06
5.22564e+06
5.13902e+06
5.05013e+06
4.96514e+06
4.89386e+06
4.85155e+06
4.85803e+06
4.96088e+06
5.23609e+06
5.87514e+06
7.3882e+06
1.10857e+07
9.95106e+06
6.87844e+06
5.6116e+06
5.04173e+06
4.78105e+06
4.67849e+06
4.66782e+06
4.71223e+06
4.78852e+06
4.88145e+06
4.98103e+06
5.08066e+06
5.1761e+06
5.2647e+06
5.34492e+06
5.4161e+06
5.47823e+06
5.53171e+06
5.57718e+06
5.61491e+06
5.6449e+06
5.66901e+06
5.68801e+06
5.70268e+06
5.71372e+06
5.72175e+06
5.72726e+06
5.73064e+06
5.73214e+06
5.73189e+06
5.72988e+06
5.72598e+06
5.71989e+06
5.71123e+06
5.69946e+06
5.68395e+06
5.66396e+06
5.63858e+06
5.60687e+06
5.56856e+06
5.52237e+06
5.4677e+06
5.4041e+06
5.33145e+06
5.25018e+06
5.16148e+06
5.06769e+06
4.97275e+06
4.88306e+06
4.80856e+06
4.76455e+06
4.77043e+06
4.87279e+06
5.14432e+06
5.76629e+06
7.20897e+06
1.0639e+07
9.65037e+06
6.76531e+06
5.55769e+06
5.00741e+06
4.75195e+06
4.64869e+06
4.63536e+06
4.67704e+06
4.75127e+06
4.84317e+06
4.94297e+06
5.04404e+06
5.14197e+06
5.2339e+06
5.31817e+06
5.39396e+06
5.46097e+06
5.51936e+06
5.56964e+06
5.61251e+06
5.64877e+06
5.67809e+06
5.70157e+06
5.72025e+06
5.7347e+06
5.74546e+06
5.75299e+06
5.7576e+06
5.75952e+06
5.75884e+06
5.75554e+06
5.74946e+06
5.74032e+06
5.72774e+06
5.71121e+06
5.69013e+06
5.66374e+06
5.63142e+06
5.59246e+06
5.54609e+06
5.49162e+06
5.42855e+06
5.3566e+06
5.27589e+06
5.18708e+06
5.09161e+06
4.99207e+06
4.89265e+06
4.79993e+06
4.72396e+06
4.67984e+06
4.68847e+06
4.79246e+06
5.06376e+06
5.67266e+06
7.05175e+06
1.02368e+07
9.38419e+06
6.66613e+06
5.51069e+06
4.9769e+06
4.72505e+06
4.62012e+06
4.60348e+06
4.64189e+06
4.71358e+06
4.80398e+06
4.90341e+06
5.00517e+06
5.10473e+06
5.19919e+06
5.28677e+06
5.36646e+06
5.43784e+06
5.50087e+06
5.5558e+06
5.60306e+06
5.64323e+06
5.6771e+06
5.70508e+06
5.72751e+06
5.74491e+06
5.75801e+06
5.76719e+06
5.77273e+06
5.7748e+06
5.77347e+06
5.7687e+06
5.76032e+06
5.74807e+06
5.73156e+06
5.71031e+06
5.68379e+06
5.65144e+06
5.61257e+06
5.56654e+06
5.51275e+06
5.45068e+06
5.37998e+06
5.3006e+06
5.21283e+06
5.11758e+06
5.01652e+06
4.91249e+06
4.8099e+06
4.71552e+06
4.63946e+06
4.59674e+06
4.60956e+06
4.7168e+06
4.98952e+06
5.58763e+06
6.90829e+06
9.86894e+06
9.13952e+06
6.57393e+06
5.46547e+06
4.94619e+06
4.69723e+06
4.59047e+06
4.57047e+06
4.60548e+06
4.67443e+06
4.76304e+06
4.86158e+06
4.96341e+06
5.06399e+06
5.16034e+06
5.25053e+06
5.33344e+06
5.40849e+06
5.47548e+06
5.53454e+06
5.58594e+06
5.63012e+06
5.66755e+06
5.69871e+06
5.72408e+06
5.74428e+06
5.75945e+06
5.77e+06
5.77618e+06
5.77816e+06
5.77598e+06
5.76959e+06
5.75883e+06
5.74343e+06
5.72306e+06
5.69729e+06
5.66562e+06
5.62752e+06
5.58244e+06
5.52983e+06
5.46921e+06
5.40023e+06
5.32271e+06
5.23676e+06
5.1429e+06
5.04224e+06
4.93667e+06
4.82924e+06
4.72457e+06
4.62959e+06
4.55452e+06
4.51444e+06
4.53182e+06
4.64352e+06
4.91817e+06
5.5066e+06
6.77307e+06
9.52961e+06
8.91232e+06
6.48478e+06
5.41912e+06
4.91322e+06
4.66702e+06
4.55861e+06
4.53542e+06
4.56705e+06
4.63311e+06
4.71961e+06
4.81692e+06
4.9184e+06
5.0195e+06
5.11717e+06
5.20938e+06
5.29487e+06
5.37293e+06
5.44325e+06
5.50579e+06
5.56072e+06
5.60833e+06
5.64899e+06
5.6831e+06
5.71105e+06
5.73324e+06
5.74997e+06
5.7615e+06
5.76805e+06
5.76971e+06
5.76652e+06
5.7584e+06
5.74521e+06
5.7267e+06
5.70256e+06
5.67241e+06
5.63581e+06
5.5923e+06
5.54142e+06
5.48275e+06
5.41593e+06
5.34075e+06
5.25719e+06
5.16555e+06
5.06654e+06
4.96143e+06
4.85235e+06
4.7425e+06
4.63669e+06
4.54199e+06
4.46872e+06
4.43199e+06
4.45404e+06
4.57053e+06
4.84721e+06
5.42635e+06
6.64241e+06
9.2165e+06
8.70735e+06
6.39871e+06
5.37099e+06
4.87742e+06
4.63397e+06
4.52418e+06
4.49796e+06
4.52626e+06
4.58934e+06
4.67349e+06
4.76924e+06
4.86998e+06
4.97114e+06
5.0696e+06
5.16324e+06
5.25071e+06
5.33117e+06
5.40418e+06
5.46959e+06
5.52745e+06
5.57793e+06
5.62129e+06
5.65785e+06
5.6879e+06
5.71176e+06
5.72967e+06
5.74187e+06
5.74849e+06
5.74961e+06
5.74524e+06
5.73531e+06
5.71968e+06
5.69811e+06
5.67032e+06
5.63599e+06
5.59475e+06
5.54621e+06
5.49002e+06
5.42584e+06
5.35346e+06
5.27281e+06
5.18402e+06
5.08755e+06
4.98427e+06
4.87566e+06
4.76397e+06
4.6526e+06
4.54648e+06
4.4528e+06
4.38193e+06
4.34893e+06
4.37571e+06
4.49684e+06
4.77527e+06
5.34523e+06
6.51474e+06
8.92835e+06
8.52427e+06
6.31555e+06
5.3212e+06
4.83904e+06
4.59832e+06
4.48735e+06
4.45824e+06
4.4832e+06
4.54314e+06
4.62471e+06
4.71857e+06
4.81815e+06
4.91889e+06
5.0176e+06
5.11211e+06
5.20096e+06
5.2832e+06
5.3583e+06
5.42598e+06
5.48619e+06
5.53898e+06
5.58453e+06
5.62304e+06
5.65475e+06
5.67988e+06
5.69864e+06
5.71119e+06
5.71764e+06
5.71804e+06
5.71239e+06
5.70059e+06
5.68252e+06
5.65798e+06
5.62673e+06
5.58848e+06
5.54293e+06
5.48978e+06
5.42876e+06
5.35967e+06
5.2824e+06
5.197e+06
5.10377e+06
5.00331e+06
4.89665e+06
4.7854e+06
4.67197e+06
4.55988e+06
4.45419e+06
4.36216e+06
4.29419e+06
4.26519e+06
4.29666e+06
4.42211e+06
4.70183e+06
5.26271e+06
6.38987e+06
8.66488e+06
8.36889e+06
6.23653e+06
5.2704e+06
4.79861e+06
4.56055e+06
4.44847e+06
4.41649e+06
4.43803e+06
4.49465e+06
4.57335e+06
4.66495e+06
4.76295e+06
4.86279e+06
4.96124e+06
5.05606e+06
5.1457e+06
5.22914e+06
5.30573e+06
5.3751e+06
5.43708e+06
5.49164e+06
5.53886e+06
5.57886e+06
5.61179e+06
5.63782e+06
5.65709e+06
5.66972e+06
5.67578e+06
5.67531e+06
5.66826e+06
5.65458e+06
5.63414e+06
5.60676e+06
5.57224e+06
5.53036e+06
5.48087e+06
5.42356e+06
5.35825e+06
5.28484e+06
5.20334e+06
5.11394e+06
5.01705e+06
4.91341e+06
4.80418e+06
4.69112e+06
4.57675e+06
4.46471e+06
4.36014e+06
4.27035e+06
4.20571e+06
4.18095e+06
4.2171e+06
4.3466e+06
4.62727e+06
5.17942e+06
6.26913e+06
8.42876e+06
8.24329e+06
6.16215e+06
5.21912e+06
4.75662e+06
4.52105e+06
4.40786e+06
4.37296e+06
4.39092e+06
4.44399e+06
4.51951e+06
4.60847e+06
4.70446e+06
4.80292e+06
4.9006e+06
4.9952e+06
5.08508e+06
5.16915e+06
5.24666e+06
5.31715e+06
5.38035e+06
5.43616e+06
5.48455e+06
5.52558e+06
5.55932e+06
5.58588e+06
5.60535e+06
5.6178e+06
5.62328e+06
5.62179e+06
5.61331e+06
5.59775e+06
5.57501e+06
5.54496e+06
5.50741e+06
5.46221e+06
5.40918e+06
5.34818e+06
5.27912e+06
5.202e+06
5.11695e+06
5.02425e+06
4.92446e+06
4.81842e+06
4.70742e+06
4.59333e+06
4.47879e+06
4.36751e+06
4.26471e+06
4.17773e+06
4.11686e+06
4.09662e+06
4.1375e+06
4.27088e+06
4.55232e+06
5.09652e+06
6.15478e+06
8.22702e+06
8.12977e+06
6.08954e+06
5.16708e+06
4.71332e+06
4.48011e+06
4.36573e+06
4.32777e+06
4.34197e+06
4.39121e+06
4.46323e+06
4.54919e+06
4.64276e+06
4.7394e+06
4.83582e+06
4.92968e+06
5.01928e+06
5.10343e+06
5.18131e+06
5.25238e+06
5.31629e+06
5.37284e+06
5.42193e+06
5.46355e+06
5.49772e+06
5.52446e+06
5.54384e+06
5.55589e+06
5.56061e+06
5.55801e+06
5.54805e+06
5.53066e+06
5.50574e+06
5.47319e+06
5.43289e+06
5.38471e+06
5.32854e+06
5.26434e+06
5.19208e+06
5.11186e+06
5.0239e+06
4.92862e+06
4.82664e+06
4.71896e+06
4.60694e+06
4.49257e+06
4.37857e+06
4.26875e+06
4.16837e+06
4.08475e+06
4.02811e+06
4.01269e+06
4.05842e+06
4.19562e+06
4.47775e+06
5.01465e+06
6.04583e+06
8.04903e+06
8.0181e+06
6.01649e+06
5.11375e+06
4.66849e+06
4.43759e+06
4.32192e+06
4.28081e+06
4.29108e+06
4.33628e+06
4.40452e+06
4.48715e+06
4.57793e+06
4.67233e+06
4.76705e+06
4.8597e+06
4.94851e+06
5.03224e+06
5.10999e+06
5.18114e+06
5.24525e+06
5.30207e+06
5.35142e+06
5.39323e+06
5.42745e+06
5.45407e+06
5.47309e+06
5.48453e+06
5.48836e+06
5.48458e+06
5.47313e+06
5.45396e+06
5.427e+06
5.39217e+06
5.34939e+06
5.29858e+06
5.23971e+06
5.17278e+06
5.09786e+06
5.01514e+06
4.92493e+06
4.82772e+06
4.72428e+06
4.61565e+06
4.50333e+06
4.38938e+06
4.27661e+06
4.16888e+06
4.0715e+06
3.99178e+06
3.9398e+06
3.92951e+06
3.98028e+06
4.12139e+06
4.40419e+06
4.93411e+06
5.94023e+06
7.8807e+06
7.90476e+06
5.94174e+06
5.05831e+06
4.62142e+06
4.39287e+06
4.27599e+06
4.23177e+06
4.23808e+06
4.27912e+06
4.34336e+06
4.4224e+06
4.51008e+06
4.60188e+06
4.6945e+06
4.7855e+06
4.87308e+06
4.95592e+06
5.03306e+06
5.10381e+06
5.16767e+06
5.22432e+06
5.27352e+06
5.31514e+06
5.34908e+06
5.37528e+06
5.39372e+06
5.40437e+06
5.4072e+06
5.40218e+06
5.38927e+06
5.36841e+06
5.33957e+06
5.30268e+06
5.25771e+06
5.20464e+06
5.14348e+06
5.07431e+06
4.99727e+06
4.91263e+06
4.82077e+06
4.72229e+06
4.61803e+06
4.50912e+06
4.39716e+06
4.28426e+06
4.17333e+06
4.06827e+06
3.97441e+06
3.89902e+06
3.85201e+06
3.84694e+06
3.90281e+06
4.04778e+06
4.33108e+06
4.85405e+06
5.83613e+06
7.71647e+06
7.78869e+06
5.86421e+06
4.99982e+06
4.57134e+06
4.34531e+06
4.22743e+06
4.18019e+06
4.18289e+06
4.21972e+06
4.27985e+06
4.35508e+06
4.43938e+06
4.52827e+06
4.61844e+06
4.70741e+06
4.79334e+06
4.87486e+06
4.95096e+06
5.02087e+06
5.08407e+06
5.14014e+06
5.18881e+06
5.22989e+06
5.26324e+06
5.28878e+06
5.30642e+06
5.31614e+06
5.31789e+06
5.31162e+06
5.29727e+06
5.27483e+06
5.24427e+06
5.20556e+06
5.15871e+06
5.10373e+06
5.04071e+06
4.96977e+06
4.89113e+06
4.80511e+06
4.7122e+06
4.61305e+06
4.50858e+06
4.40001e+06
4.28899e+06
4.17773e+06
4.06918e+06
3.96729e+06
3.87742e+06
3.80684e+06
3.76547e+06
3.76386e+06
3.82522e+06
3.97394e+06
4.25747e+06
4.77341e+06
5.73212e+06
7.55377e+06
7.66896e+06
5.78323e+06
4.9377e+06
4.51771e+06
4.29441e+06
4.17568e+06
4.1253e+06
4.12606e+06
4.15835e+06
4.21416e+06
4.2854e+06
4.36609e+06
4.4518e+06
4.53919e+06
4.62578e+06
4.70969e+06
4.78951e+06
4.86416e+06
4.93286e+06
4.99499e+06
5.05012e+06
5.09793e+06
5.13816e+06
5.17065e+06
5.19527e+06
5.21192e+06
5.22054e+06
5.22134e+06
5.21375e+06
5.19801e+06
5.17409e+06
5.14199e+06
5.1017e+06
5.05326e+06
4.99674e+06
4.93226e+06
4.86e+06
4.78025e+06
4.6934e+06
4.59997e+06
4.50072e+06
4.3966e+06
4.28893e+06
4.1794e+06
4.07027e+06
3.96455e+06
3.86623e+06
3.78065e+06
3.71504e+06
3.67917e+06
3.68109e+06
3.74738e+06
3.89938e+06
4.18277e+06
4.69154e+06
5.6273e+06
7.39113e+06
7.54398e+06
5.69818e+06
4.87159e+06
4.4603e+06
4.24008e+06
4.12101e+06
4.06824e+06
4.06654e+06
4.09472e+06
4.14632e+06
4.21352e+06
4.29047e+06
4.37277e+06
4.45712e+06
4.54103e+06
4.62259e+06
4.70034e+06
4.7732e+06
4.84032e+06
4.90105e+06
4.95492e+06
5.00155e+06
5.04067e+06
5.07206e+06
5.09558e+06
5.11108e+06
5.11845e+06
5.11833e+06
5.1094e+06
5.09232e+06
5.06706e+06
5.03361e+06
4.99199e+06
4.94227e+06
4.88455e+06
4.81901e+06
4.74588e+06
4.66549e+06
4.57828e+06
4.48486e+06
4.38601e+06
4.28277e+06
4.17648e+06
4.0689e+06
3.96233e+06
3.85979e+06
3.76524e+06
3.68396e+06
3.62289e+06
3.5912e+06
3.60066e+06
3.67012e+06
3.82439e+06
4.10698e+06
4.60821e+06
5.52104e+06
7.22708e+06
7.41231e+06
5.60826e+06
4.80128e+06
4.39918e+06
4.18265e+06
4.0641e+06
4.01025e+06
4.00339e+06
4.02846e+06
4.0763e+06
4.13959e+06
4.21275e+06
4.2915e+06
4.3726e+06
4.45356e+06
4.53247e+06
4.60787e+06
4.67861e+06
4.74383e+06
4.80285e+06
4.85516e+06
4.90035e+06
4.93812e+06
4.96824e+06
4.99052e+06
5.00485e+06
5.01113e+06
5.00932e+06
4.9993e+06
4.98107e+06
4.95464e+06
4.92005e+06
4.87735e+06
4.82664e+06
4.76807e+06
4.70184e+06
4.62824e+06
4.54764e+06
4.46054e+06
4.36759e+06
4.26962e+06
4.16771e+06
4.06324e+06
3.95802e+06
3.85436e+06
3.75527e+06
3.66469e+06
3.5878e+06
3.53143e+06
3.50463e+06
3.51946e+06
3.59264e+06
3.74881e+06
4.03001e+06
4.52315e+06
5.41263e+06
7.06038e+06
7.27038e+06
5.51292e+06
4.72687e+06
4.33461e+06
4.1223e+06
4.00459e+06
3.9493e+06
3.93892e+06
3.96046e+06
4.0045e+06
4.06389e+06
4.13321e+06
4.20829e+06
4.28596e+06
4.36376e+06
4.43977e+06
4.51253e+06
4.58088e+06
4.64393e+06
4.70098e+06
4.75147e+06
4.79499e+06
4.83121e+06
4.85987e+06
4.88078e+06
4.8938e+06
4.89881e+06
4.89576e+06
4.88457e+06
4.86523e+06
4.83777e+06
4.80222e+06
4.75868e+06
4.70727e+06
4.64816e+06
4.58161e+06
4.50792e+06
4.42752e+06
4.34095e+06
4.24888e+06
4.1522e+06
4.05203e+06
3.94978e+06
3.84726e+06
3.7468e+06
3.6514e+06
3.56496e+06
3.49258e+06
3.44096e+06
3.41894e+06
3.4383e+06
3.51493e+06
3.67262e+06
3.95191e+06
4.43632e+06
5.30183e+06
6.89097e+06
7.12051e+06
5.41272e+06
4.64875e+06
4.26692e+06
4.0592e+06
3.94261e+06
3.88607e+06
3.87293e+06
3.89103e+06
3.93126e+06
3.98672e+06
4.05213e+06
4.12344e+06
4.19753e+06
4.27197e+06
4.34488e+06
4.41478e+06
4.48051e+06
4.54116e+06
4.59601e+06
4.64448e+06
4.68615e+06
4.72065e+06
4.74772e+06
4.76716e+06
4.7788e+06
4.78253e+06
4.77828e+06
4.76599e+06
4.74566e+06
4.71731e+06
4.681e+06
4.63685e+06
4.585e+06
4.52567e+06
4.45911e+06
4.38569e+06
4.30586e+06
4.22019e+06
4.1294e+06
4.03439e+06
3.93631e+06
3.8366e+06
3.73707e+06
3.64006e+06
3.54854e+06
3.46637e+06
3.39854e+06
3.3516e+06
3.33416e+06
3.35762e+06
3.43726e+06
3.596e+06
3.87289e+06
4.34813e+06
5.18957e+06
6.72169e+06
6.96667e+06
5.30879e+06
4.56745e+06
4.19645e+06
3.99363e+06
3.87845e+06
3.82099e+06
3.80541e+06
3.82024e+06
3.85676e+06
3.9083e+06
3.96976e+06
4.03722e+06
4.10762e+06
4.17857e+06
4.24821e+06
4.31508e+06
4.378e+06
4.43606e+06
4.48853e+06
4.53482e+06
4.57448e+06
4.60714e+06
4.63253e+06
4.65042e+06
4.66065e+06
4.66313e+06
4.65773e+06
4.64441e+06
4.62318e+06
4.59409e+06
4.55721e+06
4.51267e+06
4.46063e+06
4.40134e+06
4.33509e+06
4.26227e+06
4.18334e+06
4.09891e+06
4.00973e+06
3.91673e+06
3.82106e+06
3.72417e+06
3.6279e+06
3.53454e+06
3.44705e+06
3.36921e+06
3.30592e+06
3.26356e+06
3.25049e+06
3.27771e+06
3.35995e+06
3.51931e+06
3.79346e+06
4.25956e+06
5.07825e+06
6.55897e+06
6.81419e+06
5.20295e+06
4.48378e+06
4.12366e+06
3.92595e+06
3.81247e+06
3.75435e+06
3.73661e+06
3.74834e+06
3.78123e+06
3.82889e+06
3.88641e+06
3.94997e+06
4.0166e+06
4.08395e+06
4.15021e+06
4.21391e+06
4.27388e+06
4.32922e+06
4.37917e+06
4.42315e+06
4.46068e+06
4.4914e+06
4.515e+06
4.53126e+06
4.54003e+06
4.54147e+06
4.53492e+06
4.52062e+06
4.49859e+06
4.46888e+06
4.43159e+06
4.38686e+06
4.33487e+06
4.27588e+06
4.21021e+06
4.13827e+06
4.06055e+06
3.97767e+06
3.8904e+06
3.79969e+06
3.70671e+06
3.6129e+06
3.52009e+06
3.43055e+06
3.34721e+06
3.27376e+06
3.215e+06
3.17712e+06
3.16822e+06
3.19895e+06
3.2835e+06
3.44324e+06
3.71464e+06
4.1723e+06
4.9712e+06
6.40999e+06
6.66772e+06
5.09804e+06
4.39943e+06
4.04965e+06
3.85682e+06
3.7452e+06
3.68663e+06
3.6669e+06
3.67568e+06
3.70504e+06
3.74888e+06
3.80246e+06
3.86211e+06
3.92491e+06
3.98861e+06
4.05139e+06
4.11182e+06
4.16875e+06
4.22125e+06
4.26858e+06
4.31014e+06
4.34546e+06
4.37414e+06
4.39589e+06
4.41045e+06
4.41765e+06
4.41834e+06
4.41058e+06
4.39533e+06
4.37257e+06
4.34238e+06
4.30483e+06
4.26009e+06
4.20835e+06
4.14989e+06
4.08505e+06
4.01424e+06
3.93799e+06
3.85693e+06
3.77185e+06
3.68369e+06
3.59362e+06
3.50311e+06
3.41394e+06
3.32839e+06
3.24929e+06
3.1803e+06
3.12605e+06
3.09256e+06
3.08761e+06
3.12168e+06
3.2084e+06
3.36849e+06
3.63748e+06
4.08795e+06
4.87069e+06
6.27732e+06
6.5274e+06
4.99552e+06
4.31554e+06
3.97531e+06
3.7872e+06
3.67735e+06
3.61838e+06
3.59675e+06
3.60273e+06
3.62865e+06
3.66872e+06
3.71839e+06
3.77411e+06
3.83307e+06
3.89306e+06
3.9523e+06
4.00939e+06
4.06318e+06
4.11275e+06
4.15738e+06
4.19645e+06
4.22949e+06
4.25611e+06
4.276e+06
4.28892e+06
4.29469e+06
4.2939e+06
4.28512e+06
4.26907e+06
4.24574e+06
4.2152e+06
4.17755e+06
4.13297e+06
4.08167e+06
4.02395e+06
3.96014e+06
3.8907e+06
3.81615e+06
3.73713e+06
3.65445e+06
3.56906e+06
3.48212e+06
3.39508e+06
3.30973e+06
3.22829e+06
3.15356e+06
3.08912e+06
3.03954e+06
3.01073e+06
3.00833e+06
3.04601e+06
3.135e+06
3.29561e+06
3.56273e+06
4.00744e+06
4.77727e+06
6.15723e+06
6.38692e+06
4.89504e+06
4.23294e+06
3.90169e+06
3.71801e+06
3.60969e+06
3.55018e+06
3.52647e+06
3.5304e+06
3.55277e+06
3.58902e+06
3.63475e+06
3.68651e+06
3.74158e+06
3.7978e+06
3.85343e+06
3.90709e+06
3.95766e+06
4.00423e+06
4.04606e+06
4.08256e+06
4.11326e+06
4.13776e+06
4.15578e+06
4.16708e+06
4.17151e+06
4.16898e+06
4.15933e+06
4.14259e+06
4.11879e+06
4.08802e+06
4.05041e+06
4.00614e+06
3.95545e+06
3.89863e+06
3.83605e+06
3.76815e+06
3.69549e+06
3.61872e+06
3.53863e+06
3.45618e+06
3.37253e+06
3.28913e+06
3.20772e+06
3.13051e+06
3.06024e+06
3.00042e+06
2.95553e+06
2.93137e+06
2.93128e+06
2.97247e+06
3.0637e+06
3.22485e+06
3.49029e+06
3.92964e+06
4.68684e+06
6.03759e+06
6.23878e+06
4.79563e+06
4.15193e+06
3.82934e+06
3.64988e+06
3.5429e+06
3.48268e+06
3.45683e+06
3.45918e+06
3.47794e+06
3.5103e+06
3.55201e+06
3.59974e+06
3.65084e+06
3.7032e+06
3.75514e+06
3.80529e+06
3.85255e+06
3.89602e+06
3.93498e+06
3.96885e+06
3.99714e+06
4.01949e+06
4.03559e+06
4.04524e+06
4.04826e+06
4.04453e+06
4.03396e+06
4.01656e+06
3.99238e+06
3.96149e+06
3.92405e+06
3.88023e+06
3.8303e+06
3.77454e+06
3.71335e+06
3.64717e+06
3.57656e+06
3.50218e+06
3.42483e+06
3.34546e+06
3.26524e+06
3.18558e+06
3.10822e+06
3.03531e+06
2.96953e+06
2.91429e+06
2.8739e+06
2.85388e+06
2.85806e+06
2.90211e+06
2.99537e+06
3.15698e+06
3.42056e+06
3.85341e+06
4.59292e+06
5.89731e+06
6.08198e+06
4.69878e+06
4.07403e+06
3.75961e+06
3.58391e+06
3.47795e+06
3.41685e+06
3.38876e+06
3.38941e+06
3.40448e+06
3.43285e+06
3.47045e+06
3.51404e+06
3.56107e+06
3.60948e+06
3.65762e+06
3.70417e+06
3.74804e+06
3.78835e+06
3.82439e+06
3.85559e+06
3.88146e+06
3.90164e+06
3.91585e+06
3.92385e+06
3.92575e+06
3.92091e+06
3.90951e+06
3.89156e+06
3.86711e+06
3.83624e+06
3.79911e+06
3.7559e+06
3.70687e+06
3.65233e+06
3.59267e+06
3.52835e+06
3.45993e+06
3.38807e+06
3.31358e+06
3.23742e+06
3.16072e+06
3.0849e+06
3.01166e+06
2.94309e+06
2.8818e+06