/*--------------------------------*- C++ -*----------------------------------*\
| =========                 |                                                 |
| \\      /  F ield         | OpenFOAM: The Open Source CFD Toolbox           |
|  \\    /   O peration     | Version:  2212                                  |
|   \\  /    A nd           | Website:  www.openfoam.com                      |
|    \\/     M anipulation  |                                                 |
\*---------------------------------------------------------------------------*/
FoamFile
{
    version     2.0;
    format      ascii;
    arch        "LSB;label=32;scalar=64";
    class       volVectorField;
    location    "4.2e-05";
    object      U;
}
// * * * * * * * * * * * * * * * * * * * * * * * * * * * * * * * * * * * * * //

dimensions      [0 1 -1 0 0 0 0];

internalField   nonuniform List<vector> 
17100
(
(-2.4779 3.67657 1.50127e-16)
(-0.761153 4.56786 -3.40307e-18)
(-0.303346 4.63035 -2.08972e-16)
(-0.177414 4.79595 1.47233e-19)
(-0.121267 4.82992 6.27012e-17)
(-0.0863311 4.82507 -5.15933e-17)
(-0.062679 4.8228 4.43534e-17)
(-0.0455726 4.8257 0)
(-0.0324801 4.82962 -3.61749e-17)
(-0.0222543 4.83316 1.05726e-20)
(-0.0145272 4.83642 7.07216e-21)
(-0.00902919 4.83998 3.08472e-17)
(-0.00532296 4.84331 1.49288e-17)
(-0.00292822 4.84619 -1.45477e-17)
(-0.00140683 4.84853 -1.42463e-17)
(-0.000465288 4.85033 2.80181e-17)
(0.000134935 4.85155 -9.43612e-22)
(0.000571637 4.85228 -1.36678e-17)
(0.000958614 4.85272 0)
(0.00135843 4.85301 0)
(0.00180767 4.85319 0)
(0.00234439 4.85332 -6.6507e-18)
(0.00299087 4.8535 6.62584e-18)
(0.00371352 4.85382 0)
(0.00446985 4.8542 6.59089e-18)
(0.00529345 4.85442 -6.58163e-18)
(0.00624228 4.85421 0)
(0.00726695 4.85377 0)
(0.00808072 4.85335 0)
(0.00857455 4.85312 0)
(0.00891374 4.85301 -1.60426e-21)
(0.00925693 4.85312 -8.20943e-19)
(0.0096598 4.85357 8.23942e-19)
(0.01021 4.85401 0)
(0.0108709 4.85441 -3.31049e-18)
(0.0115415 4.85472 -3.32036e-18)
(0.012178 4.85485 6.44855e-22)
(0.0127477 4.85487 6.69875e-18)
(0.0132557 4.85485 0)
(0.0137274 4.85475 6.78646e-18)
(0.0141934 4.85447 -2.0537e-17)
(0.0146833 4.85387 8.36552e-22)
(0.0152676 4.85287 1.40135e-17)
(0.0160929 4.85147 0)
(0.0173644 4.84967 0)
(0.0193345 4.84745 0)
(0.0222839 4.84481 0)
(0.0264363 4.84179 0)
(0.0321054 4.83864 0)
(0.0397889 4.83541 1.762e-17)
(0.0500624 4.83194 -1.90886e-17)
(0.0639012 4.82893 0)
(0.0836032 4.82725 -4.96957e-17)
(0.113843 4.82028 1.23038e-16)
(0.169407 4.77645 -7.57723e-17)
(0.356908 4.65823 -8.95638e-17)
(1.06904 4.36623 9.19027e-17)
(8.39106 -1.67709 0)
(5.84721 -1.51695 -8.54794e-16)
(1.58797 0.891651 7.12722e-16)
(0.348843 2.33131 0)
(0.147692 3.04822 3.4672e-16)
(0.11778 3.45563 -4.72914e-16)
(0.114 3.7224 3.40844e-16)
(0.113513 3.90447 -1.30692e-16)
(0.112305 4.03209 0)
(0.110173 4.12485 0)
(0.107306 4.19392 0)
(0.103886 4.246 3.46172e-17)
(0.0995002 4.28689 -3.16006e-17)
(0.0941139 4.31934 0)
(0.0880828 4.3446 2.75504e-17)
(0.0815742 4.36479 -5.23583e-17)
(0.0748217 4.3811 5.01837e-17)
(0.0680461 4.39402 -2.42244e-17)
(0.0612801 4.40458 -2.35202e-17)
(0.0546098 4.41318 2.29567e-17)
(0.0481014 4.42001 0)
(0.0417526 4.42567 0)
(0.0355911 4.43035 0)
(0.0296357 4.4342 1.07898e-17)
(0.0238919 4.43751 -1.06983e-17)
(0.0183711 4.44022 -5.31119e-18)
(0.0130427 4.44239 5.28562e-18)
(0.00783832 4.44362 5.26793e-18)
(0.0025856 4.44372 -5.25822e-18)
(-0.0028565 4.44301 0)
(-0.0083668 4.44248 0)
(-0.0138194 4.44164 0)
(-0.0192463 4.44037 2.65862e-18)
(-0.0246611 4.43885 -2.67858e-18)
(-0.0301172 4.43664 5.40634e-18)
(-0.0356594 4.43363 -1.64074e-17)
(-0.0413599 4.4295 1.10934e-17)
(-0.0472122 4.42432 -1.12796e-17)
(-0.0532185 4.41788 1.15101e-17)
(-0.0593681 4.40995 -1.17867e-17)
(-0.0656475 4.40022 2.42549e-17)
(-0.0720951 4.38788 -1.25454e-17)
(-0.0786794 4.3724 0)
(-0.0852258 4.35351 2.74081e-17)
(-0.0917281 4.32981 -5.80861e-17)
(-0.0979421 4.30091 3.11463e-17)
(-0.103795 4.26548 0)
(-0.109834 4.21895 3.75649e-17)
(-0.116069 4.15715 -4.26674e-17)
(-0.12246 4.07404 0)
(-0.129229 3.9599 -6.06955e-17)
(-0.137321 3.79782 7.81103e-17)
(-0.152131 3.55442 0)
(-0.205534 3.15135 3.16557e-16)
(-0.512238 2.31476 -9.50824e-19)
(-2.58707 0.109289 -6.34144e-16)
(-7.67482 -1.42391 0)
(3.91919 -1.18008 1.6701e-15)
(5.38914 -1.99252 -9.11477e-16)
(4.64369 -1.48538 0)
(3.4864 -0.341202 0)
(2.43953 0.668612 5.8751e-16)
(1.70947 1.44729 -8.85782e-16)
(1.24328 2.02005 3.32736e-16)
(0.947847 2.44383 0)
(0.752986 2.76225 0)
(0.61799 3.0044 0)
(0.520147 3.18986 0)
(0.446302 3.333 0)
(0.388658 3.44488 0)
(0.342181 3.53335 4.92037e-17)
(0.303462 3.60399 -9.06118e-17)
(0.270231 3.66097 4.22661e-17)
(0.240922 3.70734 0)
(0.214546 3.74534 0)
(0.190435 3.77667 -3.63773e-17)
(0.168113 3.80251 3.51264e-17)
(0.147217 3.82376 1.70487e-17)
(0.127467 3.84124 -1.66357e-17)
(0.10865 3.85563 -1.62963e-17)
(0.090618 3.86743 2.63293e-21)
(0.0732248 3.87699 1.58176e-17)
(0.0562906 3.88447 7.827e-18)
(0.0396108 3.88998 -7.77057e-18)
(0.0229963 3.8934 0)
(0.00657989 3.8952 0)
(-0.00981561 3.89541 0)
(-0.0261859 3.89407 0)
(-0.0425167 3.891 1.94415e-18)
(-0.0589887 3.88606 -5.88199e-18)
(-0.07575 3.87919 3.96592e-18)
(-0.0929198 3.87019 0)
(-0.110615 3.85883 0)
(-0.128974 3.84474 -1.6721e-17)
(-0.14817 3.82753 1.71499e-17)
(-0.168416 3.80665 0)
(-0.189987 3.78141 0)
(-0.213239 3.75092 -1.90654e-17)
(-0.238663 3.71397 6.00362e-17)
(-0.266983 3.66901 -4.23733e-17)
(-0.299298 3.61398 -4.52976e-17)
(-0.337232 3.54615 1.45237e-20)
(-0.383101 3.46197 5.38454e-17)
(-0.440221 3.35659 0)
(-0.513272 3.22291 0)
(-0.609278 3.05072 0)
(-0.739945 2.82626 -9.65521e-17)
(-0.925195 2.53173 1.20184e-16)
(-1.19994 2.14132 1.54886e-16)
(-1.63197 1.60835 -2.05239e-16)
(-2.33857 0.8481 -5.47257e-16)
(-3.48147 -0.275802 1.31668e-15)
(-4.81389 -1.6614 -8.60884e-19)
(-4.69786 -1.34157 -1.3569e-15)
(3.018 -0.728425 0)
(5.31338 -1.69854 0)
(5.66589 -1.76113 0)
(5.00154 -1.33193 8.19265e-16)
(4.06312 -0.713381 -4.1902e-19)
(3.20458 -0.0708174 -5.65179e-16)
(2.52549 0.501749 0)
(2.01382 0.987835 -3.64406e-16)
(1.63261 1.39043 1.49461e-16)
(1.34675 1.71924 2.49766e-16)
(1.12918 1.98762 -1.06758e-16)
(0.960099 2.20752 0)
(0.825739 2.38802 -8.27563e-17)
(0.716623 2.53648 1.49592e-16)
(0.626155 2.65897 -6.85712e-17)
(0.549672 2.76044 0)
(0.48382 2.84482 -5.96648e-17)
(0.426152 2.91523 1.22214e-20)
(0.374858 2.97408 1.07752e-16)
(0.328546 3.02329 -5.17522e-17)
(0.286102 3.06438 0)
(0.246639 3.0986 0)
(0.209484 3.12692 -2.37014e-17)
(0.174125 3.15012 3.76887e-21)
(0.140152 3.16875 2.28656e-17)
(0.107212 3.18321 0)
(0.0750084 3.19381 -1.11889e-17)
(0.0433153 3.20076 1.11265e-17)
(0.0119439 3.20424 0)
(-0.0194296 3.20436 0)
(-0.0509241 3.20109 0)
(-0.0825773 3.19429 -2.8025e-18)
(-0.114668 3.18375 8.49531e-18)
(-0.147487 3.16923 5.74085e-18)
(-0.181336 3.15044 -1.16865e-17)
(-0.216556 3.12695 0)
(-0.253553 3.09821 0)
(-0.292832 3.06347 0)
(-0.33503 3.02181 -2.61395e-17)
(-0.380964 2.97207 2.72384e-17)
(-0.431683 2.91277 -2.8558e-17)
(-0.48855 2.84205 9.05214e-17)
(-0.553392 2.7576 -6.43164e-17)
(-0.628685 2.65651 0)
(-0.717794 2.53508 7.53222e-17)
(-0.825306 2.38865 -8.31093e-17)
(-0.957508 2.2114 0)
(-1.12314 1.9963 0)
(-1.33468 1.7351 0)
(-1.60997 1.41742 1.45812e-16)
(-1.97311 1.03089 -1.76424e-16)
(-2.45536 0.564725 0)
(-3.10027 0.00704838 0)
(-3.94768 -0.650047 6.6474e-16)
(-4.96441 -1.38194 -4.61227e-19)
(-5.58074 -1.80592 -7.6642e-16)
(-3.95487 -1.01292 0)
(2.54859 -0.593785 0)
(4.92708 -1.49685 0)
(5.70834 -1.80677 0)
(5.51989 -1.76505 0)
(4.90997 -1.45858 0)
(4.20071 -1.04924 0)
(3.54137 -0.615727 0)
(2.97918 -0.201938 0)
(2.51451 0.174764 0)
(2.13428 0.508652 1.66552e-16)
(1.82325 0.799766 -1.45466e-16)
(1.5679 1.05124 1.28877e-16)
(1.35681 1.26721 -2.31732e-16)
(1.18067 1.45208 1.05515e-16)
(1.03205 1.6101 0)
(0.905098 1.74511 -9.04134e-17)
(0.795265 1.86042 8.49172e-17)
(0.698971 1.95888 0)
(0.613396 2.04285 0)
(0.536297 2.1143 0)
(0.465885 2.17485 0)
(0.400734 2.22586 -3.43801e-17)
(0.339712 2.26842 5.12414e-21)
(0.28192 2.30342 3.2789e-17)
(0.226622 2.33155 0)
(0.173207 2.35338 0)
(0.121152 2.36931 1.57339e-17)
(0.0700141 2.37962 -1.56371e-17)
(0.0193967 2.38451 0)
(-0.0312393 2.38406 -3.89704e-18)
(-0.0822094 2.37827 3.91321e-18)
(-0.13369 2.36699 0)
(-0.186112 2.34997 7.97769e-18)
(-0.239951 2.32689 -8.10085e-18)
(-0.295741 2.29733 0)
(-0.354092 2.26073 -1.68992e-17)
(-0.415734 2.21637 5.21177e-17)
(-0.481555 2.16338 -3.5889e-17)
(-0.552657 2.10067 -3.72497e-17)
(-0.630421 2.02691 7.22223e-21)
(-0.716575 1.94051 8.15837e-21)
(-0.813311 1.83954 8.63886e-17)
(-0.923402 1.72171 -1.38074e-16)
(-1.05036 1.58432 9.89386e-17)
(-1.19866 1.42422 0)
(-1.37395 1.23785 0)
(-1.58336 1.02129 -1.30536e-16)
(-1.83575 0.770528 1.46736e-16)
(-2.14166 0.482005 0)
(-2.51292 0.153492 0)
(-2.96165 -0.214239 0)
(-3.49823 -0.61535 0)
(-4.13049 -1.04152 3.17421e-16)
(-4.83228 -1.46084 -1.11336e-15)
(-5.45952 -1.80589 7.81486e-16)
(-5.39254 -1.76944 0)
(-3.36692 -0.881822 0)
(2.2295 -0.51728 -8.922e-16)
(4.49725 -1.33566 1.00268e-15)
(5.449 -1.78564 -9.73935e-16)
(5.59432 -1.93166 9.13039e-16)
(5.29031 -1.87211 0)
(4.78321 -1.66883 -7.25902e-16)
(4.22978 -1.39878 6.30408e-16)
(3.70261 -1.10285 -2.73186e-16)
(3.22948 -0.80666 2.38457e-16)
(2.81569 -0.523771 0)
(2.45818 -0.261285 1.87367e-16)
(2.15079 -0.0222637 -1.68964e-16)
(1.88654 0.192624 1.5391e-16)
(1.6587 0.384085 -1.41645e-16)
(1.46117 0.553556 1.31462e-16)
(1.2887 0.702801 -2.46614e-20)
(1.13683 0.83367 -1.16004e-16)
(1.00182 0.947953 1.10066e-16)
(0.880558 1.04731 -5.25593e-17)
(0.770477 1.13325 -7.7952e-21)
(0.669444 1.20708 -7.06794e-21)
(0.575697 1.26996 -4.72001e-17)
(0.487775 1.32286 0)
(0.404467 1.36661 0)
(0.324755 1.4019 -2.20729e-17)
(0.247777 1.42927 2.17636e-17)
(0.172789 1.44914 0)
(0.0991358 1.4618 0)
(0.0262199 1.46744 0)
(-0.0466907 1.46617 0)
(-0.120131 1.45795 0)
(-0.194483 1.44266 5.39718e-18)
(-0.27036 1.42007 5.46111e-18)
(-0.348435 1.38985 -1.10979e-17)
(-0.429461 1.35154 0)
(-0.514299 1.3046 2.31817e-17)
(-0.603955 1.24833 -2.38467e-17)
(-0.699618 1.18191 0)
(-0.802709 1.10435 -5.11536e-17)
(-0.914937 1.01453 5.33878e-17)
(-1.03836 0.911172 0)
(-1.17548 0.792832 0)
(-1.32927 0.657951 0)
(-1.50332 0.504892 0)
(-1.70187 0.33203 0)
(-1.92983 0.137912 -1.57263e-16)
(-2.19274 -0.078478 1.72411e-16)
(-2.49659 -0.317304 0)
(-2.84717 -0.577228 0)
(-3.24888 -0.854382 0)
(-3.70227 -1.14071 -2.73595e-16)
(-4.20082 -1.42317 6.28608e-16)
(-4.72773 -1.68333 -7.16259e-16)
(-5.22195 -1.88693 4.03473e-16)
(-5.50557 -1.91146 0)
(-5.00934 -1.63153 8.46292e-16)
(-2.89005 -0.70516 -7.65482e-16)
(1.95981 -0.447071 -9.11096e-16)
(4.04447 -1.2028 1.03111e-15)
(5.05648 -1.69671 0)
(5.38155 -1.96126 0)
(5.30067 -2.06434 0)
(5.00225 -2.03624 -4.00833e-16)
(4.59241 -1.91919 3.58582e-16)
(4.156 -1.75048 3.19726e-16)
(3.73056 -1.55476 -2.86139e-16)
(3.33364 -1.34903 -2.57705e-16)
(2.972 -1.14402 2.34038e-16)
(2.64679 -0.946495 2.14173e-16)
(2.35623 -0.760475 -3.9514e-16)
(2.09719 -0.58812 1.83581e-16)
(1.86606 -0.430382 0)
(1.65917 -0.287433 0)
(1.47309 -0.158963 0)
(1.30468 -0.0443779 0)
(1.15116 0.0570702 0)
(1.01009 0.146182 -6.69831e-17)
(0.879364 0.223747 1.29377e-16)
(0.757159 0.290515 -6.27434e-17)
(0.641905 0.347171 -6.1101e-17)
(0.532248 0.394319 5.97539e-17)
(0.427015 0.432471 0)
(0.325182 0.46206 0)
(0.225843 0.483434 -2.8592e-17)
(0.128172 0.496846 1.41979e-17)
(0.0314068 0.502457 1.07272e-21)
(-0.0653143 0.500371 1.76836e-17)
(-0.162699 0.490571 -5.32641e-18)
(-0.261338 0.472984 1.78973e-18)
(-0.361997 0.447419 0)
(-0.465501 0.413605 2.943e-17)
(-0.572753 0.371194 -3.00148e-17)
(-0.684764 0.319759 -3.07296e-17)
(-0.802681 0.258793 3.15976e-17)
(-0.927818 0.187721 6.52458e-17)
(-1.06169 0.105904 -6.76756e-17)
(-1.20604 0.0126577 0)
(-1.36287 -0.0927136 -7.38128e-17)
(-1.53447 -0.210873 1.55345e-16)
(-1.72342 -0.342383 -8.21682e-17)
(-1.93258 -0.487606 0)
(-2.165 -0.646556 1.8702e-16)
(-2.4238 -0.81869 -4.02754e-16)
(-2.71188 -1.00261 2.18256e-16)
(-3.03138 -1.19564 2.38093e-16)
(-3.38279 -1.39331 -4.73202e-20)
(-3.76342 -1.58861 -2.89228e-16)
(-4.16459 -1.77075 -3.21606e-16)
(-4.56866 -1.92355 7.18619e-16)
(-4.94392 -2.02905 -3.98493e-16)
(-5.20923 -2.0404 0)
(-5.21118 -1.89486 0)
(-4.5529 -1.49158 8.85003e-16)
(-2.49136 -0.595056 -7.94837e-16)
(1.70856 -0.387235 -9.30473e-16)
(3.58177 -1.06731 0)
(4.56303 -1.56523 0)
(4.98663 -1.90269 5.09736e-16)
(5.06427 -2.0995 -5.12092e-20)
(4.93103 -2.19569 -4.40293e-16)
(4.67859 -2.20787 4.02906e-16)
(4.35937 -2.15769 -3.68376e-16)
(4.0115 -2.06604 0)
(3.66469 -1.94791 3.08684e-16)
(3.33081 -1.81587 -2.84598e-16)
(3.01635 -1.67821 0)
(2.72408 -1.5406 0)
(2.45456 -1.40696 0)
(2.20689 -1.27988 2.16779e-16)
(1.97945 -1.16099 -2.05109e-16)
(1.77027 -1.05124 0)
(1.57728 -0.951103 -9.30403e-17)
(1.39842 -0.860732 8.92078e-17)
(1.23176 -0.780065 0)
(1.07549 -0.708902 0)
(0.927988 -0.646972 0)
(0.787788 -0.593969 0)
(0.653576 -0.549583 7.67223e-17)
(0.524173 -0.513519 -3.76576e-17)
(0.39851 -0.485509 -3.70993e-17)
(0.275607 -0.465326 0)
(0.154557 -0.452797 0)
(0.0345056 -0.447803 0)
(-0.0854504 -0.450252 -4.53303e-18)
(-0.206119 -0.460141 4.5497e-18)
(-0.328229 -0.477492 -9.16736e-18)
(-0.452619 -0.502409 -9.27065e-18)
(-0.580171 -0.535036 9.42439e-22)
(-0.711833 -0.575558 1.91831e-17)
(-0.848627 -0.624183 0)
(-0.991677 -0.681135 4.03083e-17)
(-1.14222 -0.74663 -4.15663e-17)
(-1.30162 -0.820862 0)
(-1.47138 -0.903983 0)
(-1.65314 -0.996037 9.34086e-17)
(-1.84862 -1.09689 -9.79475e-17)
(-2.05957 -1.20614 0)
(-2.28768 -1.32305 0)
(-2.53446 -1.44636 0)
(-2.80094 -1.57409 0)
(-3.08729 -1.70336 0)
(-3.39212 -1.83004 0)
(-3.71162 -1.94822 3.10165e-16)
(-4.03835 -2.04965 -3.3698e-16)
(-4.35987 -2.12242 0)
(-4.64655 -2.15516 0)
(-4.86907 -2.13092 0)
(-4.96993 -2.01551 0)
(-4.81208 -1.77934 0)
(-4.052 -1.31555 0)
(-2.14321 -0.510181 8.2438e-16)
(1.48393 -0.338648 0)
(3.13919 -0.936204 0)
(4.05171 -1.3965 0)
(4.50977 -1.75508 5.33791e-16)
(4.68524 -2.01217 -5.09471e-16)
(4.67488 -2.18316 0)
(4.53995 -2.28534 0)
(4.33302 -2.33414 0)
(4.08524 -2.33872 -3.85171e-16)
(3.80697 -2.30936 3.58952e-16)
(3.51893 -2.25698 0)
(3.23537 -2.18824 0)
(2.96133 -2.11035 2.95043e-16)
(2.69983 -2.02825 -2.78373e-16)
(2.45229 -1.94516 0)
(2.21886 -1.86357 2.50497e-16)
(1.99914 -1.78536 -2.3895e-16)
(1.79239 -1.71179 0)
(1.59751 -1.64367 0)
(1.41323 -1.5815 1.05947e-16)
(1.23823 -1.52565 -1.02525e-16)
(1.0712 -1.47632 0)
(0.911079 -1.4336 0)
(0.756679 -1.3975 0)
(0.606934 -1.36796 0)
(0.460881 -1.34491 4.58861e-17)
(0.317592 -1.32825 -9.07333e-17)
(0.176178 -1.3179 4.50151e-17)
(0.0357857 -1.31381 0)
(-0.104444 -1.31589 -5.59914e-18)
(-0.245323 -1.32412 5.61623e-18)
(-0.387622 -1.33846 0)
(-0.532158 -1.35892 0)
(-0.679771 -1.38552 0)
(-0.831328 -1.41825 0)
(-0.987731 -1.4571 0)
(-1.14992 -1.502 4.94229e-17)
(-1.31887 -1.55283 -5.08659e-17)
(-1.49561 -1.6093 0)
(-1.68129 -1.67105 -1.0895e-16)
(-1.87701 -1.73754 1.13382e-16)
(-2.08371 -1.80811 0)
(-2.30213 -1.88174 0)
(-2.53268 -1.95695 0)
(-2.77531 -2.03169 0)
(-3.02941 -2.10331 0)
(-3.29304 -2.16864 0)
(-3.5625 -2.22262 0)
(-3.83202 -2.25853 0)
(-4.08752 -2.27171 0)
(-4.31693 -2.2539 0)
(-4.50568 -2.19591 0)
(-4.61764 -2.08647 0)
(-4.59963 -1.90302 0)
(-4.33836 -1.60681 0)
(-3.56742 -1.14616 0)
(-1.8463 -0.4358 0)
(1.29402 -0.297136 0)
(2.74324 -0.818307 0)
(3.56791 -1.22692 0)
(4.02058 -1.56761 0)
(4.24271 -1.84071 0)
(4.31056 -2.05409 0)
(4.2678 -2.21408 0)
(4.14541 -2.32851 0)
(3.96926 -2.40583 0)
(3.75766 -2.45208 0)
(3.53349 -2.47199 0)
(3.29847 -2.47137 0)
(3.05471 -2.4565 0)
(2.81483 -2.43088 0)
(2.58097 -2.39745 0)
(2.35481 -2.35943 0)
(2.13706 -2.31978 0)
(1.92821 -2.28016 0)
(1.72807 -2.24141 0)
(1.53599 -2.20436 0)
(1.3511 -2.16968 0)
(1.17251 -2.13841 0)
(0.999451 -2.1109 0)
(0.831226 -2.08705 0)
(0.667083 -2.06727 0)
(0.506245 -2.05169 0)
(0.347935 -2.04028 0)
(0.191375 -2.03304 0)
(0.0358012 -2.02994 0)
(-0.119538 -2.03095 0)
(-0.275368 -2.03603 0)
(-0.4324 -2.04511 0)
(-0.591355 -2.05811 0)
(-0.752946 -2.07494 0)
(-0.917864 -2.0955 0)
(-1.08677 -2.11958 0)
(-1.26028 -2.14694 0)
(-1.43901 -2.17718 0)
(-1.62359 -2.20945 0)
(-1.81471 -2.2429 0)
(-2.01302 -2.27705 0)
(-2.21887 -2.31109 0)
(-2.43205 -2.34378 0)
(-2.6519 -2.37328 0)
(-2.87731 -2.3964 0)
(-3.10693 -2.4102 0)
(-3.33772 -2.41303 0)
(-3.55731 -2.40054 0)
(-3.7673 -2.36833 -3.94299e-16)
(-3.9639 -2.31288 4.19089e-16)
(-4.1242 -2.22944 0)
(-4.23227 -2.11131 0)
(-4.2631 -1.9485 0)
(-4.17218 -1.72633 0)
(-3.86552 -1.41642 0)
(-3.12707 -0.990969 0)
(-1.59344 -0.374176 0)
(1.13654 -0.262077 1.91948e-20)
(2.40281 -0.715463 2.78754e-20)
(3.13374 -1.07272 1.79222e-20)
(3.55586 -1.38311 5.74037e-16)
(3.78988 -1.64645 -5.57438e-16)
(3.89631 -1.86952 1.59173e-20)
(3.908 -2.05622 5.10074e-16)
(3.84812 -2.21024 -4.85779e-16)
(3.73516 -2.33468 4.61738e-16)
(3.58377 -2.43088 0)
(3.40636 -2.50339 0)
(3.21046 -2.5575 3.97508e-16)
(3.00367 -2.5955 -3.78928e-16)
(2.79959 -2.62035 3.61849e-16)
(2.59622 -2.63441 -3.46352e-16)
(2.38696 -2.64014 0)
(2.17942 -2.64012 0)
(1.97809 -2.63613 0)
(1.78221 -2.629 1.48372e-16)
(1.59106 -2.61925 3.73445e-21)
(1.40451 -2.60775 -2.78968e-16)
(1.22232 -2.59588 -4.95628e-21)
(1.04402 -2.58476 1.32643e-16)
(0.869368 -2.57495 0)
(0.698036 -2.56661 6.38411e-17)
(0.529526 -2.55979 -6.29257e-17)
(0.363238 -2.55455 -3.11136e-17)
(0.198534 -2.55091 3.08643e-17)
(0.0347664 -2.5489 0)
(-0.128704 -2.54852 0)
(-0.292508 -2.54972 -3.84084e-18)
(-0.457249 -2.55242 3.85996e-18)
(-0.623527 -2.55653 -3.11381e-17)
(-0.791914 -2.56196 6.29959e-17)
(-0.962875 -2.56861 -3.19636e-17)
(-1.13677 -2.57627 0)
(-1.31389 -2.58452 0)
(-1.49442 -2.59261 0)
(-1.67848 -2.59938 0)
(-1.86601 -2.60358 1.44194e-16)
(-2.05756 -2.60464 -2.98085e-16)
(-2.25419 -2.60229 -4.87549e-21)
(-2.45491 -2.59531 1.60649e-16)
(-2.65423 -2.58173 0)
(-2.84892 -2.55862 1.74797e-16)
(-3.04531 -2.52496 -1.83255e-16)
(-3.24048 -2.47913 -3.84834e-16)
(-3.42276 -2.41738 -3.60782e-21)
(-3.58835 -2.3378 4.26449e-16)
(-3.72779 -2.23705 0)
(-3.83027 -2.11221 0)
(-3.88159 -1.95979 0)
(-3.86172 -1.77257 5.24373e-16)
(-3.7335 -1.53947 -5.44865e-16)
(-3.41722 -1.23846 0)
(-2.73397 -0.856473 0)
(-1.37929 -0.323032 -4.57615e-16)
(1.00453 -0.232543 0)
(2.111 -0.627373 5.86336e-16)
(2.75173 -0.937853 -5.94524e-16)
(3.13123 -1.21503 5.9164e-16)
(3.35525 -1.45719 -5.76709e-16)
(3.4745 -1.67206 -5.55143e-16)
(3.51527 -1.86338 5.32975e-16)
(3.49432 -2.03312 5.10749e-16)
(3.42507 -2.18175 -9.77708e-16)
(3.3188 -2.30935 -5.10032e-21)
(3.18548 -2.41719 4.47384e-16)
(3.03167 -2.50735 0)
(2.86317 -2.58147 4.10206e-16)
(2.68559 -2.64179 -3.93466e-16)
(2.50253 -2.69095 0)
(2.31473 -2.73058 0)
(2.12381 -2.76149 0)
(1.93572 -2.78604 -1.6954e-16)
(1.75632 -2.80594 -9.8395e-21)
(1.58025 -2.82101 -1.01875e-20)
(1.40244 -2.83195 1.5502e-16)
(1.22452 -2.83986 0)
(1.04788 -2.84549 0)
(0.873282 -2.84957 0)
(0.701261 -2.8526 7.13326e-17)
(0.531884 -2.8548 -1.40717e-16)
(0.364415 -2.85611 3.47985e-17)
(0.19814 -2.85644 6.90668e-17)
(0.0325918 -2.85569 -3.43681e-17)
(-0.132592 -2.85383 8.57746e-18)
(-0.297804 -2.85091 -1.28816e-17)
(-0.463471 -2.847 -1.29382e-17)
(-0.630242 -2.84216 -1.73791e-17)
(-0.798977 -2.83642 3.51136e-17)
(-0.969661 -2.82959 -7.11737e-17)
(-1.14193 -2.82126 7.23304e-17)
(-1.3153 -2.81087 0)
(-1.48869 -2.79776 0)
(-1.65995 -2.781 1.54625e-16)
(-1.83191 -2.75984 -1.58941e-16)
(-2.01074 -2.73448 0)
(-2.19399 -2.70408 0)
(-2.37605 -2.66656 0)
(-2.55491 -2.62072 0)
(-2.72926 -2.56614 -1.89702e-16)
(-2.89827 -2.5016 3.95658e-16)
(-3.05741 -2.42443 -2.06706e-16)
(-3.20224 -2.33221 0)
(-3.32717 -2.22319 4.53613e-16)
(-3.42505 -2.09605 -4.75982e-16)
(-3.48693 -1.94932 -4.99977e-16)
(-3.5017 -1.78068 5.25628e-16)
(-3.45265 -1.58562 5.46184e-16)
(-3.30889 -1.35765 -2.76055e-21)
(-3.0037 -1.07778 -5.47635e-16)
(-2.3858 -0.740105 5.37393e-16)
(-1.19635 -0.279685 -4.7316e-16)
(0.890706 -0.206726 0)
(1.85727 -0.551092 0)
(2.41509 -0.819538 0)
(2.74889 -1.0631 0)
(2.95378 -1.28081 -5.94554e-16)
(3.07263 -1.48271 5.73842e-16)
(3.12632 -1.67037 0)
(3.12777 -1.84213 0)
(3.087 -1.99745 0)
(3.01196 -2.13685 0)
(2.91016 -2.26005 0)
(2.78763 -2.36768 0)
(2.6494 -2.46172 0)
(2.49974 -2.5437 0)
(2.34192 -2.61497 0)
(2.17828 -2.67647 0)
(2.01095 -2.72882 -1.88797e-16)
(1.84191 -2.77301 1.82924e-16)
(1.67345 -2.81104 0)
(1.50568 -2.8443 0)
(1.33783 -2.87288 0)
(1.17007 -2.8967 0)
(1.00269 -2.91598 0)
(0.835843 -2.93106 0)
(0.669898 -2.94247 0)
(0.506229 -2.9509 7.69204e-17)
(0.345297 -2.9566 -7.61395e-17)
(0.186508 -2.95947 3.77965e-17)
(0.0292321 -2.95956 -3.76218e-17)
(-0.127932 -2.95683 0)
(-0.286024 -2.95134 0)
(-0.445395 -2.94316 0)
(-0.606779 -2.93248 0)
(-0.769708 -2.91904 0)
(-0.932979 -2.90218 0)
(-1.09644 -2.88149 0)
(-1.25993 -2.8566 0)
(-1.42313 -2.82728 0)
(-1.58587 -2.79355 0)
(-1.74879 -2.75549 0)
(-1.91219 -2.71231 0)
(-2.07467 -2.66241 0)
(-2.23461 -2.60469 0)
(-2.3904 -2.53863 0)
(-2.54026 -2.4637 0)
(-2.68217 -2.37904 0)
(-2.81314 -2.28354 0)
(-2.9292 -2.17611 0)
(-3.02522 -2.05571 0)
(-3.09511 -1.92071 0)
(-3.13134 -1.7693 0)
(-3.12435 -1.60057 0)
(-3.06044 -1.41091 0)
(-2.91459 -1.1934 0)
(-2.63005 -0.934415 0)
(-2.07777 -0.637706 0)
(-1.03802 -0.241623 0)
(0.789539 -0.182774 0)
(1.63259 -0.4829 0)
(2.11729 -0.714716 0)
(2.40843 -0.930699 0)
(2.59127 -1.12897 0)
(2.70282 -1.31484 0)
(2.75975 -1.48936 0)
(2.77144 -1.65206 0)
(2.74614 -1.8014 0)
(2.69053 -1.93747 0)
(2.61028 -2.06139 0)
(2.51067 -2.17381 0)
(2.39597 -2.27551 0)
(2.26965 -2.36715 -2.20951e-16)
(2.13455 -2.44935 2.1356e-16)
(1.99294 -2.52266 0)
(1.84675 -2.58762 0)
(1.69767 -2.64494 0)
(1.54684 -2.69537 0)
(1.39482 -2.73956 0)
(1.24193 -2.77794 0)
(1.08856 -2.81073 0)
(0.935057 -2.83811 0)
(0.781645 -2.86027 0)
(0.628719 -2.87736 0)
(0.476432 -2.88977 0)
(0.324967 -2.89795 0)
(0.174452 -2.90225 0)
(0.0245834 -2.90293 0)
(-0.125121 -2.90007 0)
(-0.275015 -2.89356 0)
(-0.42531 -2.88324 0)
(-0.575934 -2.86888 0)
(-0.726529 -2.85014 0)
(-0.877025 -2.82671 0)
(-1.02728 -2.79845 0)
(-1.17714 -2.76524 0)
(-1.3263 -2.72696 0)
(-1.47448 -2.68347 0)
(-1.62143 -2.6345 0)
(-1.76685 -2.57953 0)
(-1.90997 -2.51791 0)
(-2.04958 -2.44908 0)
(-2.18423 -2.37257 0)
(-2.31223 -2.28795 0)
(-2.43155 -2.19474 0)
(-2.53959 -2.09243 0)
(-2.63308 -1.98056 0)
(-2.70794 -1.85867 0)
(-2.75913 -1.72614 0)
(-2.78003 -1.58221 0)
(-2.7625 -1.42453 0)
(-2.69485 -1.2483 5.86607e-16)
(-2.55533 -1.04875 -6.04809e-16)
(-2.29517 -0.814019 0)
(-1.80509 -0.549605 0)
(-0.90003 -0.206687 0)
(0.697881 -0.158327 0)
(1.43143 -0.42182 0)
(1.85175 -0.627909 0)
(2.10526 -0.820207 0)
(2.26575 -0.997514 0)
(2.36533 -1.16408 0)
(2.41837 -1.32035 0)
(2.43308 -1.46609 0)
(2.41581 -1.60234 0)
(2.37251 -1.72937 0)
(2.30792 -1.84753 0)
(2.22614 -1.957 0)
(2.13054 -2.0579 0)
(2.02396 -2.15045 0)
(1.90874 -2.23487 0)
(1.78683 -2.31148 0)
(1.65985 -2.38071 0)
(1.52912 -2.44287 0)
(1.39564 -2.49828 0)
(1.26013 -2.54732 0)
(1.12315 -2.59028 -1.9062e-16)
(0.985101 -2.62738 1.86801e-16)
(0.846373 -2.65882 0)
(0.707333 -2.68477 0)
(0.568402 -2.70536 8.90982e-17)
(0.429915 -2.72079 -8.80945e-17)
(0.292085 -2.73128 -4.36704e-17)
(0.15491 -2.73707 -7.13478e-21)
(0.0182289 -2.73834 2.16078e-17)
(-0.118214 -2.73515 2.15814e-17)
(-0.254663 -2.72744 0)
(-0.391291 -2.71513 0)
(-0.528144 -2.69807 0)
(-0.665081 -2.67612 0)
(-0.801828 -2.64916 0)
(-0.938041 -2.61714 0)
(-1.0734 -2.57996 0)
(-1.20758 -2.53747 0)
(-1.34024 -2.48953 0)
(-1.47101 -2.43591 0)
(-1.59937 -2.37634 0)
(-1.72459 -2.31054 0)
(-1.84571 -2.23822 0)
(-1.96152 -2.15911 0)
(-2.07053 -2.07293 0)
(-2.17095 -1.97945 0)
(-2.26053 -1.87843 0)
(-2.33655 -1.76967 0)
(-2.39562 -1.65304 0)
(-2.43356 -1.52848 0)
(-2.44505 -1.39579 0)
(-2.42327 -1.25384 0)
(-2.3576 -1.09784 0)
(-2.22904 -0.920437 0)
(-1.99522 -0.710754 0)
(-1.56345 -0.471904 0)
(-0.777281 -0.172933 0)
(0.611869 -0.133533 5.48801e-16)
(1.2498 -0.366717 -6.43844e-16)
(1.61309 -0.554861 0)
(1.83251 -0.72578 -6.57937e-16)
(1.97103 -0.881144 1.28942e-15)
(2.05734 -1.02498 -6.24513e-16)
(2.10388 -1.16038 0)
(2.11816 -1.28893 5.84767e-16)
(2.10575 -1.4109 -5.65223e-16)
(2.07122 -1.52634 0)
(2.01841 -1.63505 0)
(1.95054 -1.73687 0)
(1.87032 -1.83174 -2.47523e-16)
(1.78009 -1.91967 2.39891e-16)
(1.68182 -2.00077 2.32809e-16)
(1.57715 -2.07523 -2.26156e-16)
(1.46744 -2.14316 -2.20053e-16)
(1.35381 -2.2047 4.28789e-16)
(1.23715 -2.26007 -2.09222e-16)
(1.1182 -2.30943 2.04578e-16)
(0.997519 -2.35292 -3.00533e-16)
(0.875579 -2.39068 1.96626e-16)
(0.752766 -2.42282 -9.66673e-17)
(0.629413 -2.44946 0)
(0.505802 -2.47073 -9.40847e-17)
(0.382161 -2.48677 1.39659e-16)
(0.258644 -2.49776 8.3984e-21)
(0.135327 -2.50387 -4.59097e-17)
(0.0122327 -2.50523 0)
(-0.110703 -2.50189 0)
(-0.233492 -2.49384 0)
(-0.35613 -2.48104 0)
(-0.478562 -2.46342 0)
(-0.600662 -2.44086 0)
(-0.722244 -2.41327 -4.70952e-17)
(-0.843077 -2.38057 4.77008e-17)
(-0.962898 -2.34271 0)
(-1.0814 -2.29962 0)
(-1.19823 -2.25123 0)
(-1.31294 -2.19746 0)
(-1.42501 -2.13817 -2.10409e-16)
(-1.53376 -2.07325 4.31735e-16)
(-1.63833 -2.00256 -2.21885e-16)
(-1.73768 -1.92599 2.28526e-16)
(-1.83054 -1.84343 -2.35706e-16)
(-1.91532 -1.75478 0)
(-1.99014 -1.65994 2.52026e-16)
(-2.05266 -1.55887 -2.61102e-16)
(-2.10002 -1.45157 0)
(-2.12871 -1.33808 0)
(-2.13431 -1.21853 0)
(-2.11106 -1.09251 -6.07795e-16)
(-2.05002 -0.956487 -2.98235e-20)
(-1.9343 -0.804012 1.28828e-15)
(-1.72666 -0.621251 -6.25401e-16)
(-1.34799 -0.403858 6.15568e-16)
(-0.663415 -0.142154 -5.37181e-16)
(0.527906 -0.111335 0)
(1.08383 -0.318949 6.58866e-16)
(1.39778 -0.491735 -6.73406e-16)
(1.58627 -0.641133 -6.74606e-16)
(1.70466 -0.773107 6.61322e-16)
(1.77811 -0.895707 0)
(1.81822 -1.01278 0)
(1.83125 -1.12525 6.01536e-16)
(1.82185 -1.23302 -5.82147e-16)
(1.79371 -1.33576 0)
(1.7499 -1.43314 -2.72794e-16)
(1.69303 -1.52495 2.64268e-16)
(1.62534 -1.61106 0)
(1.54876 -1.69143 -2.48752e-16)
(1.46491 -1.76608 -3.3942e-20)
(1.37519 -1.83501 2.35155e-16)
(1.28072 -1.89825 2.29142e-16)
(1.18249 -1.95588 3.60607e-20)
(1.0813 -2.00799 -2.18458e-16)
(0.977803 -2.05465 2.13889e-16)
(0.872529 -2.09593 -2.09715e-16)
(0.765927 -2.1319 0)
(0.658366 -2.16265 0)
(0.55015 -2.18826 0)
(0.441532 -2.20881 0)
(0.332713 -2.22439 0)
(0.223842 -2.23512 4.861e-17)
(0.115036 -2.24111 -4.83469e-17)
(0.00635628 -2.24237 -2.41054e-17)
(-0.102178 -2.23893 1.80601e-17)
(-0.210541 -2.23089 6.0292e-18)
(-0.318675 -2.2182 0)
(-0.426496 -2.20085 0)
(-0.533882 -2.1788 0)
(-0.640669 -2.152 4.96226e-17)
(-0.74665 -2.12041 -5.024e-17)
(-0.851577 -2.08402 1.01987e-16)
(-0.955159 -2.04279 1.89528e-20)
(-1.05705 -1.9967 1.88273e-20)
(-1.15684 -1.94571 -1.07896e-16)
(-1.25402 -1.88978 -2.20802e-16)
(-1.34798 -1.82888 2.26272e-16)
(-1.43796 -1.76297 -2.32365e-16)
(-1.52306 -1.69202 2.3896e-16)
(-1.60217 -1.61602 -2.46215e-16)
(-1.67394 -1.53495 2.54007e-16)
(-1.73676 -1.44881 2.62484e-16)
(-1.78863 -1.35763 3.04223e-20)
(-1.82714 -1.26147 -5.62415e-16)
(-1.84928 -1.1604 2.91427e-16)
(-1.85126 -1.05456 0)
(-1.82812 -0.943781 0)
(-1.77214 -0.825695 0)
(-1.66871 -0.695139 -6.64053e-16)
(-1.48538 -0.539638 -2.0467e-20)
(-1.15341 -0.348729 1.27175e-15)
(-0.557233 -0.119552 -5.53623e-16)
(0.446963 -0.0964839 0)
(0.929857 -0.281451 0)
(1.20168 -0.433073 0)
(1.36366 -0.560279 0)
(1.46473 -0.672604 0)
(1.5275 -0.777648 0)
(1.56194 -0.878921 0)
(1.5735 -0.976772 0)
(1.56607 -1.07089 0)
(1.54275 -1.16094 0)
(1.50608 -1.24665 0)
(1.45822 -1.32779 0)
(1.401 -1.40425 -2.64954e-16)
(1.33601 -1.47591 2.57452e-16)
(1.2646 -1.54271 0)
(1.18791 -1.60461 -2.44064e-16)
(1.10694 -1.66161 -3.92892e-20)
(1.02252 -1.71373 2.32567e-16)
(0.935327 -1.76098 2.27594e-16)
(0.845954 -1.80339 -2.23014e-16)
(0.754882 -1.841 0)
(0.662513 -1.87385 0)
(0.56918 -1.90199 0)
(0.47516 -1.92545 0)
(0.380682 -1.9443 0)
(0.285931 -1.95858 0)
(0.191055 -1.96842 -5.10059e-17)
(0.0961547 -1.97387 5.0756e-17)
(0.0012868 -1.97488 2.53175e-17)
(-0.0934782 -1.97146 -3.16268e-17)
(-0.188069 -1.96369 6.33564e-18)
(-0.282399 -1.95162 0)
(-0.376367 -1.93525 0)
(-0.469851 -1.91456 0)
(-0.562703 -1.88956 -5.21333e-17)
(-0.654746 -1.86022 5.27643e-17)
(-0.745761 -1.82655 -1.07066e-16)
(-0.835487 -1.78854 1.088e-16)
(-0.923614 -1.7462 1.10821e-16)
(-1.00976 -1.69952 2.05891e-20)
(-1.09349 -1.64852 -1.15559e-16)
(-1.17424 -1.59319 -2.36702e-16)
(-1.25135 -1.53356 2.42755e-16)
(-1.32403 -1.46963 0)
(-1.39133 -1.40146 0)
(-1.45209 -1.32908 -2.64519e-16)
(-1.50494 -1.25252 2.72918e-16)
(-1.54817 -1.17187 0)
(-1.57972 -1.0872 0)
(-1.59698 -0.99861 3.01775e-16)
(-1.59665 -0.906176 -6.25035e-16)
(-1.57433 -0.809724 3.24014e-16)
(-1.52316 -0.707367 -6.65919e-16)
(-1.43036 -0.595327 6.84125e-16)
(-1.26759 -0.463256 0)
(-0.976335 -0.300535 0)
(-0.461063 -0.102333 0)
(0.371993 -0.0842122 -5.83757e-16)
(0.786763 -0.246057 6.89793e-16)
(1.02231 -0.375992 7.06602e-16)
(1.1627 -0.48487 -1.41736e-15)
(1.25005 -0.581206 -4.38314e-20)
(1.30423 -0.671779 1.349e-15)
(1.33404 -0.75925 -6.54697e-16)
(1.34426 -0.843837 0)
(1.33833 -0.925323 0)
(1.31889 -1.00347 -2.9882e-16)
(1.28811 -1.07804 -3.57768e-20)
(1.24777 -1.14886 2.81538e-16)
(1.19942 -1.21577 -2.73668e-16)
(1.14434 -1.27863 5.32485e-16)
(1.08366 -1.33737 4.08972e-20)
(1.01834 -1.39191 -2.5292e-16)
(0.949234 -1.44223 2.47061e-16)
(0.877031 -1.4883 -2.41605e-16)
(0.80234 -1.53011 0)
(0.725674 -1.56767 1.16118e-16)
(0.647451 -1.60103 -2.28207e-16)
(0.568022 -1.63019 2.2466e-16)
(0.487679 -1.6552 -1.10771e-16)
(0.406661 -1.67608 1.09471e-16)
(0.325167 -1.69287 -5.41613e-17)
(0.243357 -1.70562 -1.07474e-16)
(0.161365 -1.71434 5.33983e-17)
(0.0792715 -1.71899 0)
(-0.00286251 -1.71954 -1.3267e-17)
(-0.0849265 -1.71609 1.32619e-17)
(-0.166815 -1.70878 0)
(-0.248434 -1.69761 0)
(-0.329684 -1.6826 0)
(-0.410451 -1.66374 0)
(-0.490601 -1.64104 5.46572e-17)
(-0.569973 -1.6145 -5.53021e-17)
(-0.648382 -1.58413 0)
(-0.725601 -1.54994 0)
(-0.801354 -1.51195 -1.15983e-16)
(-0.875307 -1.4702 1.18235e-16)
(-0.947058 -1.42469 -1.20787e-16)
(-1.01613 -1.37546 -1.23603e-16)
(-1.08194 -1.32254 -4.26294e-20)
(-1.14381 -1.26598 5.19911e-16)
(-1.20091 -1.20584 -2.6719e-16)
(-1.25228 -1.14218 0)
(-1.29673 -1.07508 0)
(-1.33281 -1.00463 0)