/*--------------------------------*- C++ -*----------------------------------*\
| =========                 |                                                 |
| \\      /  F ield         | OpenFOAM: The Open Source CFD Toolbox           |
|  \\    /   O peration     | Version:  2212                                  |
|   \\  /    A nd           | Website:  www.openfoam.com                      |
|    \\/     M anipulation  |                                                 |
\*---------------------------------------------------------------------------*/
FoamFile
{
    version     2.0;
    format      ascii;
    arch        "LSB;label=32;scalar=64";
    class       volScalarField;
    location    "0.045";
    object      p;
}
// * * * * * * * * * * * * * * * * * * * * * * * * * * * * * * * * * * * * * //

dimensions      [1 -1 -2 0 0 0 0];

internalField   nonuniform List<scalar> 
31661
(
504.063
39.6008
41.9183
40.6148
39.6525
41.7087
40.5569
39.7739
41.6335
40.5517
475.182
54.4112
684.19
320.573
459.884
446.833
473.335
469.367
57.3703
436.593
80.3528
81.1667
244.404
410.378
43.142
80.379
240.631
209.663
54.9327
58.4252
402.843
96.2605
96.2832
63.6782
82.7184
386.37
66.142
383.844
226.639
94.1219
97.1517
38.7217
361.45
98.8421
102.168
59.3877
100.362
81.0781
65.6014
258.677
95.0065
245.128
62.3603
77.7024
191.446
54.5131
63.7855
68.8935
67.7312
57.7821
57.6525
56.6537
92.4322
34.9005
73.1716
389.713
615.586
61.9551
57.522
53.0507
51.9129
48.4942
44.4725
42.0789
39.5567
37.6869
35.9447
34.5982
33.415
32.4957
31.7225
31.1324
30.6589
30.3109
30.4127
30.7781
31.2676
31.8823
32.6706
33.6169
34.7987
36.1688
37.8614
39.7749
42.0954
44.659
47.5494
50.6974
53.7919
57.5232
61.5537
65.6911
69.659
73.6638
73.5431
78.297
77.6796
82.5857
81.7207
86.465
85.4747
89.8935
88.8714
92.8626
91.8791
95.3893
94.4905
97.5142
96.7255
99.2893
98.62
100.769
100.216
102.007
101.558
103.051
102.692
103.942
103.657
104.713
104.488
105.391
105.214
105.999
105.859
106.553
106.441
107.067
106.977
107.554
107.48
108.024
107.962
108.484
108.432
108.942
108.899
109.405
109.369
109.881
109.85
110.376
110.351
110.898
110.877
111.454
111.438
112.053
112.041
112.704
112.697
113.419
113.415
114.21
114.209
115.093
115.096
116.09
116.098
117.251
117.239
117.304
116.15
115.147
114.259
113.463
112.744
112.088
111.485
110.925
110.399
109.9
109.421
108.954
108.491
108.026
107.551
107.056
106.532
105.966
105.344
104.645
103.848
102.923
101.837
100.547
99.0052
97.1587
94.9549
92.3466
89.2969
85.7904
81.8318
77.4301
72.5704
67.6437
62.3131
57.379
52.7041
48.8081
45.3957
42.5569
40.0631
38.0292
36.2594
34.8344
33.6241
30.1384
30.0492
32.6631
31.8723
31.2597
30.7713
30.4059
29.8792
29.9518
30.1954
30.4222
30.7396
31.1581
31.6995
32.379
33.2256
34.2484
35.4809
36.9295
38.6267
40.5877
42.8239
45.3321
48.1198
51.1107
54.2336
57.5708
61.1062
64.6697
68.2552
71.9946
75.7581
79.4623
83.0239
86.3811
89.4786
92.285
94.7756
96.9512
98.825
100.425
101.784
102.939
103.925
104.775
105.516
106.173
106.767
107.315
107.832
108.33
108.819
109.308
109.806
110.321
110.862
111.436
112.052
112.72
113.452
114.26
115.16
116.176
117.343
118.724
118.621
118.605
118.676
118.836
117.451
116.281
115.262
114.359
113.549
112.816
112.147
111.531
110.959
110.421
109.909
109.416
108.933
108.453
107.967
107.465
106.937
106.371
105.75
105.056
104.266
103.353
102.284
101.023
99.5258
97.7527
95.6619
93.2202
90.4074
87.2214
83.6783
79.8126
75.678
71.3459
66.8853
62.1742
57.7901
53.6072
49.8801
46.5317
43.6602
41.1121
38.9568
37.1041
35.5595
34.2691
33.2173
32.3605
30.1323
31.6766
31.1318
30.7131
30.0465
29.8364
29.9481
29.7696
29.9863
30.2907
30.4097
30.6181
30.911
31.3025
31.8064
32.4417
33.2227
34.1743
35.3075
36.6452
38.1961
39.9738
41.97
44.193
46.613
49.2387
51.9498
54.7211
57.5947
60.54
63.5161
66.5143
69.6774
72.9322
76.2232
79.5158
82.7591
85.9131
88.9116
91.701
94.238
96.4999
98.4823
100.194
101.66
102.911
103.978
104.893
105.689
106.391
107.024
107.608
108.158
108.69
109.214
109.742
110.283
110.848
111.445
112.083
112.774
113.528
114.359
115.282
116.322
117.511
118.914
120.655
120.45
120.337
120.319
120.395
120.565
120.83
119.086
117.678
116.483
115.439
114.512
113.678
112.922
112.231
111.593
110.999
110.438
109.903
109.383
108.871
108.356
107.827
107.272
106.677
106.024
105.292
104.457
103.49
102.358
101.025
99.4533
97.6102
95.4706
93.0186
90.2599
87.2171
83.9317
80.4534
76.8431
73.158
69.4375
65.6509
61.8003
58.1267
54.5236
51.1675
48.0405
45.2397
42.6865
40.4482
38.4744
36.799
35.382
34.206
33.2287
32.4321
30.3998
31.7906
31.2824
29.8053
30.2286
29.9527
30.1754
29.8341
29.7461
30.2103
30.5717
30.614
30.7439
30.9511
31.2426
31.6307
32.1291
32.7535
33.5195
34.4445
35.5443
36.8292
38.3051
39.9768
41.8309
43.8502
46.015
48.2792
50.628
52.962
55.2799
57.6128
59.9494
62.2974
64.6829
67.2085
69.8696
72.6544
75.5555
78.5516
81.6046
84.6593
87.6504
90.5045
93.1623
95.5834
97.7423
99.6327
101.266
102.664
103.857
104.879
105.764
106.542
107.239
107.88
108.484
109.067
109.644
110.227
110.829
111.461
112.133
112.856
113.642
114.506
115.463
116.535
117.758
119.19
120.953
123.304
123.004
122.797
122.684
122.665
122.741
122.911
123.179
123.544
121.192
119.424
117.985
116.756
115.677
114.715
113.848
113.06
112.337
111.667
111.04
110.444
109.871
109.309
108.747
108.172
107.569
106.921
106.208
105.406
104.487
103.419
102.168
100.7
98.9814
96.9897
94.7118
92.1529
89.3394
86.3212
83.1568
79.9203
76.6695
73.4603
70.3279
67.2703
64.2485
61.2398
58.313
55.3965
52.5541
49.7924
47.177
44.7086
42.4309
40.3618
38.5528
36.9799
35.6306
34.4855
33.5323
32.7538
30.8917
32.12
29.7872
29.9486
30.6014
30.5489
30.2101
30.0347
29.8043
29.7314
30.5517
30.9527
30.9742
31.0423
31.1719
31.3909
31.6971
32.1008
32.617
33.2576
34.0389
34.9742
36.0756
37.3506
38.8003
40.4197
42.191
44.0827
46.0583
48.0785
50.1031
52.0942
54.0005
55.8404
57.6458
59.4145
61.1979
63.0212
64.9654
67.0526
69.3
71.7223
74.3228
77.0892
79.9892
82.972
85.9643
88.899
91.7035
94.3117
96.6786
98.7865
100.628
102.216
103.578
104.746
105.756
106.64
107.429
108.151
108.83
109.486
110.135
110.793
111.475
112.194
112.962
113.793
114.7
115.701
116.817
118.082
119.553
121.343
123.699
127.137
126.783
126.518
126.339
126.243
126.23
126.297
126.449
126.688
127.014
124.006
121.65
119.852
118.373
117.099
115.976
114.969
114.058
113.226
112.46
111.745
111.071
110.425
109.795
109.166
108.524
107.85
107.125
106.323
105.418
104.378
103.168
101.754
100.103
98.1917
96.0037
93.5466
90.8437
87.9399
84.9012
81.8096
78.7325
75.741
72.8808
70.178
67.6322
65.221
62.9024
60.6325
58.4055
56.1653
53.889
51.5936
49.2934
47.0159
44.8004
42.7089
40.7918
39.0566
37.512
36.1693
35.0336
34.0731
31.619
33.2707
127.43
32.6179
29.8075
31.2301
30.0144
30.3977
30.301
29.9807
30.9512
30.6428
29.7868
29.7652
31.0372
31.4071
31.4128
31.4507
31.5191
31.6809
31.9234
32.256
32.6904
33.2393
33.9168
34.7349
35.7064
36.837
38.1328
39.5887
41.19
42.9126
44.7169
46.5597
48.3982
50.1834
51.8942
53.4964
54.9813
56.3769
57.722
59.0131
60.3286
61.6865
63.1436
64.7305
66.4742
68.4011
70.5306
72.8736
75.4258
78.1657
81.0513
84.0249
87.0148
89.9401
92.729
95.3176
97.6648
99.7488
101.569
103.142
104.498
105.67
106.695
107.608
108.44
109.219
109.971
110.715
111.471
112.256
113.085
113.974
114.938
115.995
117.166
118.484
120.002
121.828
124.191
127.583
132.997
132.692
132.462
132.297
132.192
132.145
132.147
132.199
132.3
132.454
132.668
132.948
127.939
124.565
122.202
120.369
118.84
117.512
116.333
115.271
114.304
113.416
112.592
111.816
111.075
110.354
109.636
108.903
108.133
107.301
106.38
105.337
104.138
102.745
101.127
99.2554
97.1137
94.7084
92.0583
89.2082
86.227
83.183
80.1589
77.2329
74.458
71.8763
69.4986
67.323
65.3316
63.4887
61.7547
60.086
58.4543
56.7955
55.0663
53.2624
51.3669
49.3944
47.3741
45.3646
43.4185
41.5642
39.85
38.3225
36.9765
35.7923
34.7957
33.9541
133.299
33.2605
32.0963
29.8986
30.9379
30.1131
30.2852
30.4005
29.9496
30.7472
29.8091
31.4702
31.1379
29.8609
142.091
142.046
142.028
142.042
142.071
142.106
142.14
142.171
142.184
142.186
142.199
142.229
142.283
133.724
128.539
125.22
122.846
120.97
119.384
117.992
116.745
115.614
114.578
113.617
112.714
111.852
111.016
110.182
109.33
108.433
107.463
106.386
105.165
103.765
102.149
100.288
98.1633
95.7745
93.1416
90.3092
87.3392
84.3048
81.2909
78.3745
75.613
73.0537
70.7182
68.6118
66.7277
65.0427
63.5293
62.1522
60.8778
59.6727
58.505
57.3113
56.05
54.7053
53.2382
51.645
49.9256
48.1195
46.2605
44.3925
42.5999
40.9182
39.3562
37.9625
36.7313
35.6631
34.7577
32.6944
34.0063
142.367
31.5709
31.9456
31.912
31.9286
31.9556
32.0769
32.264
32.5391
32.9087
33.3851
33.9808
34.7084
35.5792
36.6027
37.7824
39.1179
40.5983
42.2022
43.8973
45.6405
47.3831
49.0755
50.6795
52.1644
53.5254
54.7517
55.8592
56.8889
57.8508
58.8189
59.7458
60.7282
61.7989
62.975
64.2869
65.7609
67.4233
69.2965
71.396
73.7281
76.2845
79.0383
81.9448
84.9414
87.9499
90.893
93.6919
96.2866
98.6361
100.721
102.546
104.132
105.509
106.715
107.786
108.761
109.672
110.547
111.414
112.292
113.208
114.175
115.212
116.339
117.578
118.96
120.536
122.404
124.779
128.122
133.379
142.18
31.6856
30.0069
33.3951
32.2546
30.7346
30.2478
30.2259
30.5502
29.9456
30.8985
29.8993
31.2875
29.9765
32.0393
31.709
142.499
134.224
129.227
125.965
123.577
121.65
119.998
118.53
117.203
115.988
114.861
113.803
112.789
111.809
110.829
109.825
108.766
107.618
106.343
104.902
103.258
101.377
99.2382
96.838
94.1937
91.3465
88.3597
85.3065
82.2752
79.3373
76.5564
73.9851
71.6497
69.5525
67.6964
66.0602
64.621
63.3546
62.2332
61.2255
60.3162
59.4747
58.6099
57.7689
56.8719
55.9063
54.8312
53.6212
52.259
50.7516
49.105
47.3728
45.6123
43.8477
42.16
40.5564
39.1069
37.7994
36.6562
35.6767
34.8615
32.4588
32.4614
32.4839
32.5539
32.6872
32.9134
33.2331
33.6494
34.1781
34.8316
35.6214
36.5573
37.6453
38.8861
40.2722
41.7867
43.4015
45.0776
46.7677
48.4217
49.9923
51.4448
52.756
53.9214
54.9485
55.8497
56.6523
57.3867
58.0755
58.764
59.4561
60.1525
60.8997
61.7502
62.7145
63.8083
65.0587
66.4903
68.1279
69.9926
72.0983
74.4486
77.0338
79.8239
82.7729
85.8116
88.8626
91.8422
94.6743
97.2974
99.672
101.785
103.643
105.27
106.701
107.975
109.131
110.209
111.243
112.263
113.295
114.371
115.506
116.722
118.044
119.503
121.147
123.067
125.458
128.749
133.838
142.318
156.135
156.418
156.708
156.988
157.246
157.478
157.667
157.801
157.876
157.865
157.786
157.613
157.36
157.058
156.708
156.32
32.5462
155.928
32.9025
34.1826
32.164
31.3783
30.1603
175.08
175.907
176.663
177.316
177.858
178.279
178.563
178.705
178.748
178.66
178.478
178.206
177.858
177.43
176.938
176.398
175.802
31.9133
30.6061
30.4124
32.6481
33.0758
33.0341
33.0454
33.0936
33.1819
33.3695
33.6392
34.007
34.4764
35.0679
35.7897
36.6519
37.6621
38.823
40.1307
41.5719
43.1228
44.7486
46.405
48.0426
49.6118
51.0706
52.3893
53.5543
54.5636
55.4322
56.1762
56.8182
57.3867
57.8981
58.387
58.8507
59.3619
59.881
60.4202
61.0059
61.6808
62.465
63.3782
64.4346
65.6605
67.0808
68.7199
70.5978
72.7289
75.1166
77.7488
80.5956
83.6041
86.7067
89.8206
92.8605
95.7489
98.4255
100.855
103.026
104.951
106.656
108.18
109.565
110.853
112.084
113.295
114.516
115.787
117.121
118.548
120.101
121.826
123.806
126.218
129.458
134.37
142.509
155.863
175.179
33.6451
32.5248
30.2071
30.7202
30.0144
31.0726
30.0094
31.4588
30.1318
31.8778
32.325
33.1734
32.802
34.3685
33.8232
174.235
155.572
142.692
134.803
129.996
126.791
124.384
122.4
120.67
119.114
117.689
116.366
115.121
113.922
112.764
111.602
110.407
109.145
107.774
106.255
104.545
102.611
100.426
97.9846
95.2992
92.4091
89.3754
86.2772
83.1964
80.2173
77.3982
74.7963
72.4293
70.3197
68.4586
66.8308
65.4159
64.1891
63.1244
62.1937
61.3846
60.6922
60.0454
59.4142
58.8026
58.213
57.5887
56.9122
56.1508
55.2778
54.264
53.0932
51.7512
50.2634
48.6556
46.9434
45.2197
43.513
41.9002
40.3672
38.9834
37.7716
36.7174
35.8146
35.0824
196.281
33.2076
34.4505
96.1536
195.337
31.1574
30.3339
197.164
197.944
198.598
199.103
199.486
199.753
199.89
199.941
199.906
199.762
199.544
199.25
198.884
198.454
197.947
197.367
196.741
31.6675
30.5644
30.6047
34.2936
33.6498
33.6547
33.6846
33.7348
33.8856
34.1179
34.4406
34.8642
35.4024
36.0639
36.8614
37.8031
38.8936
40.1317
41.5077
43.0022
44.5849
46.2148
47.8442
49.4229
50.9054
52.2554
53.4514
54.4863
55.3662
56.1052
56.7259
57.2487
57.6954
58.0878
58.4459
58.779
59.107
59.4332
59.8027
60.2238
60.6455
61.1158
61.641
62.2777
63.0278
63.9168
64.9591
66.1815
67.609
69.2662
71.1747
73.3489
75.7914
78.4898
81.4113
84.5031
87.6919
90.8941
94.0214
96.9957
99.7591
102.279
104.547
106.58
108.409
110.075
111.623
113.098
114.541
115.987
117.49
119.057
120.728
122.552
124.604
127.046
130.237
134.967
142.748
155.615
174.547
196.071
32.2412
30.2105
30.9236
33.9745
32.8839
30.1126
31.2782
30.162
31.6651
30.3108
32.0776
32.5163
32.9775
33.9612
213.747
213.01
35.2907
35.3702
194.375
173.424
155.276
142.958
135.455
130.837
127.684
125.253
123.202
121.382
119.717
118.168
116.703
115.284
113.912
112.525
111.095
109.58
107.935
106.118
104.09
101.823
99.3039
96.5443
93.5799
90.4711
87.296
84.1411
81.0881
78.2096
75.5525
73.1462
71
69.1198
67.4806
66.0674
64.8503
63.8107
62.9143
62.1542
61.5147
60.9543
60.4462
59.9582
59.497
59.0921
58.6774
58.2517
57.7827
57.2579
56.651
55.9313
55.0756
54.0592
52.8721
51.5194
49.9932
48.3753
46.7011
44.9903
43.3136
41.7573
40.31
39.0081
37.8591
36.8906
36.0472
35.3679
35.0029
34.4217
33.5927
34.8094
90.6489
31.0282
30.54
214.404
214.954
215.389
215.726
215.983
216.154
216.244
216.283
216.298
216.262
216.157
216.009
215.82
215.577
215.27
214.897
214.457
213.947
31.5011
30.5416
30.8223
40.5091
34.2892
34.308
34.363
34.4602
34.6576
34.9423
35.3245
35.8135
36.4278
37.1678
38.0489
39.0763
40.2512
41.5673
43.009
44.5503
46.1547
47.7766
49.3667
50.8769
52.2667
53.5083
54.588
55.5057
56.2721
56.9053
57.4256
57.8554
58.2132
58.5181
58.7841
59.0257
59.2539
59.4793
59.7055
59.9437
60.1968
60.5218
60.8656
61.2395
61.6716
62.1639
62.7786
63.5146
64.3974
65.4424
66.6775
68.128
69.8201
71.7764
74.0107
76.5273
79.3125
82.3336
85.5344
88.84
92.162
95.4112
98.5105
101.402
104.056
106.469
108.662
110.668
112.532
114.302
116.023
117.732
119.506
121.338
123.291
125.434
127.916
131.066
135.616
143.034
155.4
173.921
195.373
213.362
32.0494
30.2998
31.1475
32.649
30.2496
31.507
34.3778
33.3216
30.3363
31.8933
30.5198
32.3046
32.7377
33.1915
224.551
224.012
33.6568
34.124
73.4572
34.5933
212.207
211.353
193.445
172.688
155.056
143.295
136.166
131.731
128.625
126.16
124.03
122.098
120.294
118.575
116.901
115.274
113.618
111.901
110.078
108.103
105.933
103.537
100.898
98.024
94.948
91.729
88.4457
85.1858
82.0349
79.0647
76.3287
73.8583
71.6642
69.7421
68.0773
66.6441
65.4205
64.3847
63.5052
62.7677
62.1546
61.6402
61.1899
60.789
60.3813
60.0512
59.7563
59.4715
59.19
58.8939
58.5773
58.2244
57.8099
57.3189
56.72
55.9924
55.1084
54.0543
52.8119
51.4128
49.8833
48.2309
46.5328
44.8783
43.245
41.7315
40.3294
39.1251
38.0404
37.1297
36.3514
35.7363
370.543
34.0501
35.2379
86.0223
60.2386
30.9617
30.7649
224.994
225.339
225.6
225.794
225.93
226.02
226.087
226.135
226.159
226.169
226.168
226.134
226.065
225.953
225.786
225.549
225.227
224.806
224.266
31.4294
30.5475
31.0623
61.1523
41.0643
34.9351
34.9946
35.068
35.2437
35.5002
35.8459
36.2996
36.8591
37.5637
38.3877
39.3584
40.4757
41.7359
43.1272
44.6274
46.2042
47.8156
49.4135
50.9492
52.379
53.6699
54.8022
55.7704
56.5805
57.2472
57.7895
58.2284
58.5835
58.8727
59.1113
59.3124
59.4863
59.642
59.7879
59.9324
60.0816
60.2371
60.4056
60.5863
60.8039
61.098
61.3949
61.7419
62.1556
62.6358
63.2409
63.978
64.8698
65.9326
67.1959
68.6861
70.4301
72.4516
74.7676
77.3821
80.2815
83.4316
86.7747
90.2334
93.7166
97.1334
100.405
103.477
106.319
108.933
111.342
113.583
115.703
117.751
119.762
121.834
123.975
126.247
128.794
131.915
136.297
143.361
155.229
173.329
194.669
212.705
223.59
31.9255
30.4013
31.397
32.5145
30.4139
31.7603
33.1293
30.5423
32.1486
34.8538
33.8202
30.7478
32.5574
32.9857
229.633
229.165
33.429
33.8845
34.3441
34.8074
223.367
222.605
210.462
192.566
172.044
154.918
143.688
136.918
132.652
129.58
127.068
124.832
122.75
120.742
118.786
116.861
114.887
112.829
110.639
108.272
105.694
102.885
99.8479
96.6145
93.2426
89.8112
86.4103
83.128
80.0392
77.1983
74.6373
72.3681
70.3861
68.6749
67.2108
65.9671
64.9172
64.0332
63.2989
62.7015
62.2114
61.7882
61.424
61.08
60.7774
60.5466
60.3292
60.1272
59.9349
59.7432
59.5463
59.338
59.1024
58.8285
58.4974
58.0938
57.5928
56.9693
56.2028
55.2656
54.1542
52.8725
51.4151
49.8324
48.1964
46.4974
44.8514
43.2427
41.8133
40.4713
39.3029
38.3114
37.4495
36.7482
36.1804
35.6094
34.5713
35.7333
35.3063
221.728
30.9376
31.0149
229.99
230.253
230.442
230.581
230.684
230.753
230.792
230.817
230.857
230.906
230.932
230.925
230.885
230.807
230.671
230.454
230.126
229.649
228.975
228.072
31.3918
30.6374
31.3235
35.8804
35.8741
35.7161
35.7286
35.8487
36.0792
36.4095
36.8327
37.3682
38.0135
38.8109
39.7229
40.7897
41.9999
43.3444
44.8047
46.3525
47.9492
49.5498
51.1054
52.5708
53.9087
55.0948
56.1177
56.9792
57.6903
58.2681
58.7322
59.1025
59.3969
59.6314
59.819
59.9706
60.095
60.1996
60.2898
60.3719
60.4504
60.5311
60.6194
60.7189
60.8328
60.9684
61.1179
61.315
61.5926
61.8711
62.2075
62.6181
63.1036
63.7092
64.462
65.378
66.4758
67.7818
69.3295
71.1465
73.2573
75.6806
78.4217
81.4685
84.7859
88.3144
91.9735
95.6695
99.3084
102.81
106.119
109.208
112.08
114.76
117.288
119.711
122.067
124.45
126.943
129.606
132.737
136.977
143.714
155.108
172.801
193.985
211.975
222.751
226.885
31.899
30.5517
31.6658
32.445
30.6077
32.0346
36.0445
33.0434
30.7674
32.4247
33.6687
31.0005
32.8339
230.199
229.624
35.389
34.3759
33.2593
33.6983
34.1453
34.6009
35.0659
228.564
227.805
226.761
220.69
209.528
191.75
171.514
154.884
144.126
137.685
133.565
130.501
127.904
125.508
123.181
120.927
118.664
116.323
113.866
111.248
108.432
105.395
102.14
98.6956
95.1191
91.4911
87.9045
84.4501
81.2057
78.228
75.5493
73.1809
71.1163
69.3375
67.8205
66.5381
65.4577
64.5568
63.812
63.2153
62.726
62.3123
61.9674
61.6606
61.3801
61.1736
61.0008
60.8461
60.7026
60.5763
60.4559
60.3377
60.2179
60.0879
59.9384
59.7603
59.5463
59.2791
58.9443
58.523
57.9888
57.3197
56.4951
55.5016
54.3212
52.9728
51.4859
49.8615
48.2023
46.498
44.9106
43.352
41.9528
40.7079
39.5912
38.6581
37.8732
37.2256
36.7021
35.1447
35.5356
36.2906
35.806
225.408
30.9383
31.2822
230.634
230.959
231.199
231.377
231.513
231.614
231.668
231.693
231.727
231.751
231.731
231.672
231.568
231.405
231.163
230.819
230.344
229.719
228.947
227.957
226.679
31.3874
30.7459
31.6039
36.5989
36.6216
36.6318
36.7649
37.0265
37.423
37.9283
38.5559
39.2943
40.1926
41.2042
42.3648
43.6627
45.0821
46.5981
48.1757
49.7725
51.3403
52.8343
54.2136
55.4497
56.5268
57.4417
58.202
58.8222
59.3206
59.7167
60.0285
60.2726
60.4621
60.609
60.722
60.8079
60.8744
60.9244
60.963
60.995
61.0234
61.0523
61.0844
61.1256
61.1796
61.249
61.3383
61.4566
61.5946
61.7864
62.0566
62.3385
62.6805
63.1026
63.611
64.2295
65.0135
65.9619
67.1142
68.488
70.115
72.0293
74.2576
76.8202
79.7252
82.9612
86.4927
90.2585
94.1742
98.1417
102.063
105.854
109.457
112.845
116.021
119.01
121.852
124.595
127.31
130.181
133.419
137.586
144.04
155.022
172.354
193.349
211.177
221.704
225.394
225.105
31.8831
30.7228
31.955
36.6077
36.1784
32.4243
30.8256
32.3291
32.9971
31.0174
32.7229
229.613
228.991
33.6218
31.2698
34.2753
33.1326
33.5568
35.982
34.992
33.9926
34.4379
34.8918
35.3532
228.875
227.922
226.744
225.321
223.75
219.455
208.563
191.036
171.123
154.934
144.591
138.417
134.394
131.281
128.495
125.856
123.282
120.641
117.887
114.977
111.875
108.559
105.029
101.315
97.4759
93.5956
89.7704
86.0947
82.6508
79.4961
76.6641
74.1657
71.9922
70.1233
68.5332
67.189
66.0599
65.1286
64.3591
63.7499
63.2435
62.823
62.4783
62.1781
61.9084
61.7147
61.5645
61.4324
61.3235
61.2323
61.1559
61.0926
61.0295
60.9717
60.9085
60.8382
60.7501
60.6445
60.5095
60.341
60.1268
59.8456
59.4885
59.0307
58.4546
57.7324
56.8432
55.7804
54.545
53.1215
51.5889
49.9282
48.2913
46.6163
45.0231
43.5349
42.1995
41.0188
40.0022
39.1137
38.3811
37.7672
37.275
35.7623
36.0716
36.8869
35.842
223.6
31.0279
31.5695
230.087
230.443
230.71
230.911
231.064
231.176
231.239
231.268
231.296
231.308
231.272
231.192
231.061
230.863
230.58
230.186
229.655
228.96
228.062
226.901
225.46
223.726
31.454
30.8973
31.9023
37.4271
37.4704
37.6175
37.8188
38.1254
38.5579
39.1402
39.8545
40.7066
41.7041
42.8139
44.0718
45.454
46.9381
48.4937
50.0809
51.6544
53.1685
54.5812
55.8616
56.9886
57.9552
58.7653
59.4308
59.9681
60.3961
60.7326
60.9944
61.1953
61.348
61.4604
61.5428
61.5977
61.632
61.6536
61.6579
61.6557
61.6493
61.6367
61.6236
61.6126
61.6132
61.6184
61.6343
61.6662
61.7241
61.8061
61.9222
62.0617
62.2588
62.5344
62.8417
63.2052
63.6557
64.2035
64.8609
65.6819
66.6916
67.9098
69.3742
71.1084
73.1496
75.5303
78.2716
81.3835
84.8571
88.6558
92.7155
96.9469
101.245
105.505
109.636
113.574
117.291
120.786
124.09
127.263
130.4
133.753
137.911
144.195
154.904
171.973
192.774
210.317
220.432
223.599
223.226
221.668
36.3907
31.9223
30.9275
32.2619
36.7003
37.4025
32.4241
31.0662
32.6423
227.877
227.144
32.9879
31.2846
31.5593
33.5961
33.0398
33.452
34.2336
33.8768
34.9171
34.3133
36.6124
35.6475
34.7567
35.2087
35.6697
228.185
227.165
225.908
224.363
222.512
221.57
221.797
218.006
207.572
190.448
170.866
155.015
144.983
138.974
134.938
131.677
128.717
125.769
122.715
119.505
116.096
112.467
108.618
104.583
100.426
96.235
92.1136
88.1632
84.4688
81.0913
78.0657
75.3992
73.0826
71.095
69.4054
67.9774
66.7881
65.8007
64.9987
64.3535
63.813
63.3681
63.0069
62.6898
62.4187
62.2241
62.0765
61.9537
61.8623
61.7945
61.7405
61.7046
61.6811
61.6619
61.6483
61.6381
61.6173
61.5911
61.555
61.5017
61.4281
61.3317
61.1982
61.0219
60.7897
60.4876
60.0982
59.5977
58.9648
58.1803
57.2324
56.0879
54.7903
53.316
51.7678
50.1124
48.428
46.8083
45.2717
43.8662
42.6041
41.4624
40.4895
39.6345
38.9303
38.3465
37.8957
36.4219
36.1391
36.3329
37.5301
220.322
31.1307
31.8728
228.444
228.879
229.212
229.468
229.663
229.802
229.882
229.918
229.935
229.92
229.85
229.719
229.523
229.243
228.862
228.354
227.687
226.825
225.677
224.22
222.491
220.453
218.058
36.6052
31.5587
31.0743
36.6438
36.8737
32.2176
36.8211
37.4089
38.2463
38.2876
38.4292
38.6486
38.9588
39.3532
39.8638
40.5127
41.3117
42.253
43.3537
44.5785
45.925
47.3772
48.9076
50.4791
52.0509
53.5771
55.015
56.3308
57.5012
58.5155
59.3733
60.0837
60.6615
61.1243
61.4894
61.7742
61.992
62.1568
62.2763
62.3624
62.414
62.4464
62.4518
62.4474
62.4341
62.4064
62.3673
62.3234
62.2769
62.2306
62.1869
62.1487
62.1176
62.0974
62.099
62.1087
62.1361
62.1909
62.2798
62.4066
62.5626
62.7776
63.07
63.4261
63.8292
64.3289
64.9374
65.6633
66.5401
67.6221
68.9343
70.5126
72.39
74.5924
77.1617
80.1244
83.4892
87.2492
91.3674
95.7751
100.375
105.05
109.685
114.178
118.46
122.499
126.311
129.964
133.667
137.953
144.172
154.7
171.625
192.258
209.405
218.946
221.515
221.043
219.271
215.264
32.0192
31.1525
32.586
224.256
223.31
32.5195
31.3275
31.5719
33.0403
32.9731
33.3756
33.5998
31.8641
33.7909
34.2227
34.2179
34.8916
34.6543
35.5891
35.0984
37.2736
36.3275
35.5477
36.0058
226.209
225.04
223.605
221.843
219.74
217.255
214.365
217.779
219.219
219.54
216.346
206.553
189.972
170.712
155.054
145.157
139.217
135.128
131.66
128.274
124.775
121.071
117.129
112.948
108.564
104.048
99.4983
95.0284
90.7489
86.753
83.1056
79.8415
76.9665
74.4715
72.3324
70.5083
68.9722
67.695
66.6411
65.7882
65.0804
64.4864
63.9979
63.6009
63.2431
62.958
62.7475
62.5891
62.4614
62.3684
62.3023
62.2609
62.2467
62.2396
62.2395
62.254
62.2737
62.298
62.3214
62.3391
62.35
62.3525
62.3478
62.321
62.2789
62.2048
62.1016
61.9589
61.7681
61.5125
61.1796
60.7474
60.1984
59.512
58.6581
57.6411
56.443
55.0989
53.5888
51.9856
50.3346
48.705
47.1171
45.6525
44.3321
43.076
41.9804
41.0173
40.2167
39.5213
38.9474
38.5008
37.1012
38.1514
37.9226
36.4814
40.6958
31.2838
39.0642
38.8816
36.9616
37.1538
36.9891
37.5108
38.2239
37.1943
37.6393
38.2473
37.4307
37.8201
38.357
38.0272
37.6985
38.4894
37.4686
38.6709
38.2692
37.9886
32.1932
225.008
225.598
226.063
226.428
226.704
226.896
227.012
227.062
227.056
226.991
226.85
226.622
226.297
225.86
225.293
224.566
223.638
222.458
221.018
219.33
217.355
215.054
212.395
209.352
39.3922
40.0494
40.7537
41.5719
42.5388
43.5929
44.8171
46.1505
47.6225
49.1465
50.7407
52.3559
53.952
55.4671
56.8705
58.1153
59.1915
60.0916
60.8347
61.4359
61.9096
62.2794
62.5619
62.7747
62.9307
63.0448
63.1194
63.1613
63.1896
63.1884
63.1782
63.1532
63.1159
63.0718
63.0215
62.9698
62.9163
62.8662
62.8211
62.7857
62.7556
62.7499
62.7554
62.7735
62.8136
62.8904
63.0007
63.1486
63.3338
63.5725
63.889
64.3095
64.7715
65.3189
65.9865
66.7868
67.7363
68.876
70.2661
71.9272
73.9148
76.2452
78.9501
82.0707
85.6154
89.5769
93.9172
98.5646
103.416
108.347
113.232
117.959
122.453
126.685
130.691
134.635
139.007
145.051
154.961
170.59
189.571
205.5
214.492
216.982
216.551
214.884
211.062
31.7006
31.2819
32.5491
222.131
220.679
218.934
216.912
214.567
211.848
208.74
205.237
39.2343
39.1302
39.0962
39.1132
39.1466
39.2768
39.4911
39.7908
40.1894
40.6951
41.3112
42.054
42.9427
43.9853
45.1682
46.4835
47.9121
49.4182
50.9724
52.5351
54.0638
55.5185
56.8621
58.0683
59.1232
60.0242
60.7773
61.3948
61.8929
62.2886
62.5988
62.8371
63.018
63.1491
63.2436
63.299
63.3331
63.3329
63.326
63.3067
63.2672
63.2138
63.1519
63.084
63.0122
62.9389
62.8661
62.7959
62.7302
62.6715
62.6227
62.5847
62.565
62.5681
62.5843
62.6174
62.6924
62.8021
62.9526
63.1394
63.3867
63.7123
64.1439
64.6168
65.1813
65.87
66.695
67.6742
68.8496
70.2807
71.992
74.0391
76.4441
79.2348
82.4557
86.1147
90.2038
94.6825
99.4748
104.471
109.541
114.554
119.4
124.01
128.381
132.647
137.285
143.637
154.201
171.194
191.751
208.438
217.287
219.167
218.575
216.541
212.059
205.924
32.1512
31.4027
31.6079
32.6287
32.9264
33.3205
33.1476
31.875
219.8
218.668
33.7284
33.6991
32.1859
34.1479
34.2745
34.5784
34.8887
35.0158
35.5701
35.459
36.2779
35.9087
37.0122
36.3663
37.8582
36.8308
37.3119
39.3659
38.8771
37.7977
40.0986
39.5437
31.4582
42.4225
39.6097
38.5363
38.3045
32.5284
40.2932
40.534
41.1293
41.9861
43.0032
44.1203
45.3791
46.714
48.1199
49.638
51.2542
52.8635
54.4376
55.9624
57.3712
58.6507
59.7714
60.7277
61.5216
62.1645
62.6778
63.0831
63.3961
63.6343
63.8098
63.9361
64.0204
64.0735
64.0949
64.0899
64.0793
64.0529
64.007
63.9492
63.8823
63.8104
63.7355
63.6584
63.582
63.5077
63.439
63.3775
63.3263
63.2865
63.2629
63.2651
63.277
63.3091
63.3721
63.4745
63.6163
63.7985
64.0348
64.3185
64.693
65.1677
65.7439
66.3887
67.1547
68.07
69.1492
70.4194
71.9326
73.7581
75.9113
78.4644
81.4159
84.8119
88.6631
92.9609
97.6644
102.693
107.931
113.236
118.47
123.517
128.321
132.957
137.85
144.248
154.446
170.315
189.145
204.39
212.484
214.156
213.594
211.65
207.341
201.352
220.725
221.472
222.071
222.545
222.905
223.159
223.314
223.376
223.352
223.238
223.025
222.7
222.253
221.674
220.943
220.032
218.909
217.547
215.935
214.054
211.879
209.383
206.553
203.384
199.889
31.8748
31.5126
40.2302
49.0865
31.6717
32.3184
32.8957
33.2821
40.0114
39.9988
40.0187
40.0666
40.1809
40.3855
40.6719
41.0582
41.5539
42.1649
42.8973
43.7574
44.7503
45.8817
47.1592
48.5422
50.0183
51.5563
53.1086
54.6362
56.0974
57.4586
58.6928
59.7822
60.7206
61.5116
62.1663
62.6987
63.1252
63.4618
63.7226
63.9218
64.0671
64.1729
64.2367
64.276
64.2763
64.269
64.2479
64.204
64.1426
64.0699
63.9884
63.9006
63.8084
63.7137
63.6182
63.5236
63.4319
63.3448
63.2646
63.193
63.1326
63.0864
63.0553
63.0566
63.0678
63.0994
63.1618
63.2669
63.4133
63.6024
63.8468
64.1421
64.533
65.0265
65.6211
66.2896
67.0833
68.0312
69.1484
70.4621
72.025
73.9075
76.1272
78.7628
81.8087
85.3145
89.2899
93.7266
98.5797
103.764
109.157
114.612
119.989
125.185
130.216
135.446
142.185
153.065
170.438
191.123
207.366
215.466
216.564
215.826
213.476
208.436
202.129
196.096
32.7926
31.906
217.297
215.659
213.743
211.533
208.999
206.12
202.892
199.324
195.443
215.23
213.947
39.7506
39.9609
39.1179
33.6837
33.2891
32.195
34.0978
33.8162
32.5221
34.522
34.3808
34.9551
34.9765
35.3949
35.5954
35.8397
36.2741
36.2883
37.0117
36.744
37.8526
37.2088
40.9077
37.6745
38.1527
31.6678
41.4086
41.5856
31.7669
32.079
33.257
216.3
217.181
217.897
218.468
218.904
219.212
219.398
219.47
219.43
219.278
219.002
218.589
218.039
217.342
216.477
215.421
214.149
212.641
210.879
208.846
206.527
203.909
200.989
197.774
194.284
190.548
92.833
40.8872
40.964
41.0165
41.1544
41.3594
41.6451
42.014
42.4898
43.0828
43.7988
44.6451
45.6207
46.7274
47.9565
49.3
50.7421
52.248
53.7796
55.2982
56.7595
58.1308
59.382
60.4961
61.465
62.2897
62.9775
63.5416
63.9977
64.3604
64.6443
64.8626
65.0246
65.1428
65.218
65.2639
65.2705
65.2639
65.2433
65.1995
65.1342
65.0553
64.9654
64.8669
64.762
64.6523
64.5395
64.4251
64.3108
64.1982
64.0891
63.9849
63.888
63.7995
63.7227
63.6585
63.6103
63.5834
63.5863
63.602
63.6324
63.7053
63.8157
63.9685
64.17
64.4221
64.7368
65.122
65.5931
66.1783
66.8927
67.7169
68.6484
69.7435
71.0258
72.5136
74.244
76.2979
78.7209
81.5862
84.888
88.6751
92.9617
97.7391
102.958
108.525
114.306
120.15
125.956
131.925
139.263
150.741
168.896
190.08
206.017
213.39
213.719
212.8
210.062
204.394
198.019
192.055
186.598
32.517
31.9607
41.1679
41.5649
42.0916
42.6927
43.5234
44.5815
45.841
47.244
48.7068
50.2529
51.8356
53.397
54.9989
56.559
57.9885
59.2878
60.4298
61.416
62.2517
62.9368
63.4918
63.9291
64.2718
64.5332
64.729
64.8713
64.9697
65.03
65.059
65.0553
65.0418
65.0121
64.9609
64.8977
64.8223
64.7406
64.6502
64.555
64.4583
64.3614
64.2652
64.1727
64.085
64.0048
63.9349
63.8761
63.8317
63.8064
63.809
63.8235
63.8518
63.9208
64.0254
64.1698
64.361
64.6011
64.9009
65.2687
65.7183
66.2791
66.9662
67.7576
68.653
69.708
70.9451
72.3827
74.0576
76.0495
78.4009
81.1798
84.3836
88.0565
92.2143
96.8472
101.909
107.309
112.918
118.586
124.17
129.626
135.25
142.264
153.075
169.546
188.491
203.111
210.29
211.107
210.385
208.101
203.204
197.121
191.29
212.425
210.64
208.579
206.225
203.566
200.598