/*--------------------------------*- C++ -*----------------------------------*\
| =========                 |                                                 |
| \\      /  F ield         | OpenFOAM: The Open Source CFD Toolbox           |
|  \\    /   O peration     | Version:  2212                                  |
|   \\  /    A nd           | Website:  www.openfoam.com                      |
|    \\/     M anipulation  |                                                 |
\*---------------------------------------------------------------------------*/
FoamFile
{
    version     2.0;
    format      ascii;
    arch        "LSB;label=32;scalar=64";
    class       volScalarField;
    location    "0.0418";
    object      T;
}
// * * * * * * * * * * * * * * * * * * * * * * * * * * * * * * * * * * * * * //

dimensions      [0 0 0 1 0 0 0];

internalField   nonuniform List<scalar> 
2308
(
197.831
186.904
232.295
173.12
182.833
178.471
176.537
180.708
184.436
151.95
153.828
156.514
158.419
160.336
162.228
164.086
165.889
167.443
165.746
163.955
162.065
160.126
158.142
156.091
154.044
151.988
149.982
147.959
176.851
167.646
145.852
143.81
141.791
139.784
137.788
135.797
133.809
131.82
129.829
127.838
125.847
123.858
121.869
119.88
117.891
117.891
119.878
121.864
123.852
125.839
127.826
129.813
131.802
133.788
135.775
137.766
139.758
141.759
143.772
145.809
147.892
149.839
151.744
153.57
155.303
156.996
158.765
160.613
162.475
164.323
166.154
115.906
115.898
165.945
163.98
162.006
160.016
158.005
155.983
153.965
151.915
149.867
147.864
145.835
143.807
141.794
139.793
137.796
135.804
133.811
131.819
129.828
127.836
125.845
123.856
121.867
119.878
117.891
169.112
115.904
169.338
167.956
115.877
117.868
119.854
121.842
123.829
125.817
127.807
129.798
131.783
133.771
135.759
137.746
139.736
141.729
143.73
145.731
147.72
149.667
151.62
153.52
155.376
157.203
159.032
160.884
162.749
164.606
166.453
182.113
177.757
176.089
177.104
168.273
166.151
164.036
161.992
159.965
157.941
155.917
153.895
151.861
149.82
147.817
145.809
143.798
141.791
139.793
137.796
135.803
133.811
131.818
129.825
127.833
125.844
123.853
121.863
119.875
117.889
115.902
113.914
113.917
113.918
113.907
181.83
113.889
183.518
184.255
169.719
186.52
181.448
170.93
168.305
111.926
111.927
111.928
111.915
111.901
111.885
113.872
115.863
117.848
119.837
121.823
123.811
125.8
127.79
129.78
131.769
133.758
135.745
137.733
139.721
141.71
143.7
145.684
147.652
149.593
151.547
153.481
155.423
157.348
159.236
161.121
163.005
164.886
166.752
172.464
200.923
181.324
180.351
178.312
176.347
174.339
172.297
170.231
168.157
166.097
164.028
161.971
159.931
157.901
155.874
153.848
151.821
149.792
147.788
145.788
143.786
141.786
139.791
137.795
135.802
133.809
131.815
129.821
127.831
125.839
123.847
121.858
119.871
117.883
115.895
113.908
111.92
248.535
185.248
203.893
171.148
223.561
185.275
170.153
172.633
111.872
113.86
115.846
117.835
119.821
121.808
123.797
125.788
127.778
129.767
131.757
133.746
135.733
137.722
139.708
141.693
143.673
145.647
147.606
149.552
151.505
153.461
155.434
157.412
159.37
161.309
163.226
165.127
167.023
168.622
187.743
184.36
180.442
178.254
176.222
174.196
172.157
170.11
168.061
166.017
163.972
161.928
159.894
157.866
155.841
153.816
151.791
149.772
147.767
145.77
143.775
141.782
139.786
137.793
135.798
133.804
131.809
129.818
127.826
125.832
123.841
121.853
119.864
117.875
115.888
113.9
111.914
109.926
109.932
109.935
109.936
109.934
109.927
109.913
109.899
109.886
207.062
229.661
271.128
186.991
196.066
271.998
168.902
170.492
189.361
188.881
197.155
179.934
180.204
178.153
176.102
174.065
172.031
169.997
167.965
165.934
163.903
161.874
159.848
157.827
155.806
153.786
151.767
149.754
147.752
145.757
143.767
141.775
139.782
137.788
135.793
133.798
131.806
129.813
127.818
125.827
123.837
121.846
119.855
117.867
115.879
113.892
111.906
109.92
107.933
107.938
107.943
107.943
107.944
107.945
107.935
107.924
107.913
107.901
107.891
109.876
111.863
113.849
115.838
117.823
119.811
121.799
123.789
125.779
127.768
129.757
131.746
133.735
135.722
137.708
139.692
141.673
143.649
145.617
147.574
149.526
151.482
153.449
155.429
157.415
159.42
161.412
163.382
165.322
167.247
189.203
170.752
172.361
174.525
190.826
190.48
188.664
187
185.26
182.283
182.129
180.121
178.042
175.978
173.932
171.904
169.881
167.863
165.846
163.829
161.811
159.795
157.782
155.769
153.757
151.746
149.739
147.74
145.747
143.757
141.765
139.772
137.778
135.784
133.792
131.799
129.805
127.813
125.822
123.831
121.838
119.849
117.858
115.87
113.885
111.898
109.912
107.926
105.94
105.946
105.949
105.952
105.954
105.952
105.951
105.943
105.935
105.925
105.916
105.906
105.897
107.883
109.869
111.856
113.843
115.83
117.818
119.805
121.794
123.783
125.772
127.761
129.749
131.737
133.724
135.711
137.695
139.677
141.654
143.628
145.593
147.552
149.508
151.466
153.442
155.421
157.41
159.418
161.438
163.46
165.463
167.425
169.15
190.921
190.731
265.722
171.009
186.365
188.364
190.237
174.059
178.439
174.693
172.564
192.283
192.19
103.953
103.956
103.96
103.961
103.961
103.96
103.957
103.952
103.944
103.937
103.928
103.919
103.909
103.901
105.888
107.876
109.864
111.852
113.839
115.827
117.815
119.802
121.791
123.779
125.767
127.754
129.741
131.728
133.714
135.699
137.681
139.661
141.638
143.61
145.575
147.536
149.495
151.457
153.433
155.414
157.401
159.412
161.429
163.458
165.504
167.54
169.363
182.719
192.546
176.413
230.799
180.043
177.911
175.832
173.79
171.77
169.759
167.756
165.754
163.749
161.743
159.738
157.733
155.728
153.724
151.722
149.721
147.725
145.734
143.743
141.751
139.759
137.766
135.774
133.782
131.789
129.797
127.806
125.815
123.823
121.832
119.84
117.851
115.864
113.876
111.889
109.903
107.918
105.933
103.947
192.305
192.533
245.437
174.301
194.162
172.838
103.894
105.883
107.87
109.859
111.847
113.836
115.824
117.811
119.8
121.787
123.775
125.762
127.748
129.734
131.719
133.703
135.686
137.667
139.646
141.621
143.594
145.561
147.523
149.485
151.45
153.427
155.402
157.393
159.401
161.416
163.444
165.495
167.578
169.547
181.273
194.043
101.959
101.963
101.966
101.969
101.969
101.969
101.968
101.965
101.959
101.953
101.946
101.937
101.929
101.921
101.911
101.904
184.092
193.832
191.675
189.565
187.44
178.556
179.216
185.924
173.809
179.822
177.704
175.648
173.627
171.625
169.634
167.646
165.658
163.666
161.673
159.678
157.682
155.685
153.689
151.694
149.699
147.707
145.716
143.726
141.735
139.744
137.753
135.761
133.77
131.779
129.788
127.797
125.806
123.815
121.824
119.834
117.845
115.855
113.868
111.882
109.897
107.911
105.926
103.94
101.952
242.054
171.255
175.783
193.875
194.29
194.179
179.892
244.891
248.207
177.261
174.678
169.718
177.11
210.241
179.084
239.114
101.899
103.888
105.878
107.867
109.855
111.844
113.832
115.821
117.809
119.796
121.783
123.769
125.756
127.741
129.726
131.71
133.692
135.674
137.653
139.63
141.606
143.578
145.548
147.513
149.477
151.444
153.418
155.395
157.385
159.387
161.398
163.423
165.46
167.509
169.569
182.639
199.228
201.932
99.9636
99.9688
99.9721
99.9759
99.9772
99.9778
99.9787
99.9751
99.9703
99.9657
99.9596
99.9519
99.9449
99.9376
99.9293
99.9212
99.9149
99.9088
178.923
195.356
193.015
190.799
188.691
186.676
226.815
199.392
181.349
179.397
177.41
175.423
173.445
171.474
169.506
167.535
165.562
163.584
161.602
159.617
157.63
155.642
153.652
151.663
149.674
147.685
145.696
143.707
141.717
139.728
137.738
135.748
133.758
131.768
129.777
127.787
125.797
123.806
121.817
119.827
117.837
115.849
113.862
111.876
109.89
107.904
105.919
103.932
101.945
99.9573
185.324
171.507
200.32
191.418
193.378
195.399
173.12
195.911
195.835
196.041
239.008
199.806
224.618
174.722
171.247
181.227
245.318
241.848
169.308
167.371
165.382
163.378
161.371
159.37
157.376
155.384
153.411
151.439
149.47
147.502
145.534
143.564
141.591
139.616
137.64
135.661
133.681
131.7
129.717
127.733
125.749
123.764
121.778
119.791
117.804
115.816
113.829
111.84
109.852
107.863
105.874
103.884
101.894
99.9031
238.765
97.9681
97.9735
97.9777
97.9817
97.985
97.9852
97.9863
97.984
97.9794
97.9756
97.9704
97.9641
97.9577
97.9516
97.9445
97.9375
97.9305
97.9237
97.9187
97.912
183.696
171.799
189.51
249.065
248.917
248.965
248.94
248.846
245.133
241.53
238.086
174.574
235.862
197.433
201.641
200.972
192.712
194.757
196.876
174.966
186.478
244.055
196.645
194.242
192.028
190.009
188.195
185.211
186.816
182.64
180.843
178.99
177.101
175.185
173.256
171.321
169.378
167.427
165.469
163.505
161.534
159.559
157.58
155.598
153.615
151.631
149.646
147.66
145.674
143.687
141.699
139.711
137.723
135.734
133.745
131.756
129.766
127.777
125.787
123.798
121.809
119.819
117.831
115.843
113.856
111.869
109.882
107.897
105.91
103.924
101.937
99.9494
97.9611
198.432
196.32
194.216
225.523
195.221
173.435
228.34
193.219
233.375
197.8
197.814
197.473
195.151
196.059
193.958
238.434
197.281
234.349
237.205
203.19
195.801
198.274
241.005
244.844
248.691
169.2
167.254
165.293
163.316
161.33
159.343
157.359
155.377
153.402
151.43
149.46
147.49
145.52
143.55
141.577
139.603
137.627
135.649
133.67
131.69
129.708
127.725
125.741
123.756
121.771
119.785
117.799
115.812
113.824
111.836
109.848
107.859
105.869
103.88
101.89
99.8994
97.9077
189.406
191.133
193.112
195.292
197.667
200.21
220.925
182.065
172.411
190.735
193.098
234.783
235.316
200.622
198.256
173.07
229.813
224.762
183.509
184.683
253.149
239.697
244.603
202.897
95.972
95.9779
95.9827
95.9867
95.9907
95.9918
95.9923
95.9905
95.9873
95.9837
95.9793
95.974
95.9687
95.9632
95.9575
95.9518
95.9459
95.9383
95.9323
95.927
95.9209
95.9176
253.051
252.881
252.78
252.722
252.67
252.601
236.292
173.837
187.628
192.212
191.405
178.596
231.976
232.208
199.718
228.069
203.522
199.069
229.122
175.337
272.492
252.87
199.57
184.94
183.591
182.047
180.381
178.627
176.815
174.959
173.075
171.172
169.255
167.324
165.382
163.431
161.471
159.504
157.533
155.558
153.58
151.6
149.619
147.636
145.653
143.668
141.682
139.695
137.708
135.72
133.732
131.744
129.755
127.767
125.778
123.789
121.8
119.812
117.823
115.835
113.848
111.861
109.875
107.888
105.902
103.916
101.928
99.9404
97.9528
95.9648
267.587
214.16
272.262
191.934
234.988
199.519
243.663
186.407
179.996
234.318
182.838
182.219
188.681
190.218
191.975
193.944
196.112
198.476
201.027
203.75
205.754
206.627
180.348
192.74
176.809
185.767
172.817
170.961
169.081
167.158
165.213
163.254
161.285
159.311
157.335
155.361
153.388
151.418
149.448
147.479
145.508
143.537
141.565
139.591
137.615
135.638
133.66
131.68
129.699
127.716
125.733
123.749
121.764
119.779
117.793
115.806
113.819
111.831
109.843
107.854
105.865
103.876
101.886
99.8962
97.9063
95.9168
240.422
244.476
248.506
252.515
231.756
271.921
193.901
196.208
198.856
210.972
204.622
207.787
171.43
187.298
175.659
174.387
188.808
191.13
189.673
185.987
231.45
231.706
204.843
201.52
173.599
225.224
179.742
220.937
217.166
203
200.565
224.965
177.204
180.96
181.528
190.935
218.459
221.418
224.826
186.811
188.017
256.83
256.857
256.806
256.711
256.617
256.547
256.511
256.479
256.451
185.742
175.797
201.327
201.664
228.362
222.465
182.663
184.535
183.13
181.622
180.02
178.331
176.574
174.765
172.919
171.044
169.147
167.232
165.304
163.365
161.414
159.456
157.491
155.521
153.548
151.572
149.594
147.614
145.632
143.649
141.665
139.68
137.694
135.707
133.72
131.732
129.744
127.756
125.768
123.78
121.792
119.803
117.815
115.828
113.84
111.854
109.866
107.88
105.893
103.906
101.919
99.9319
97.9445
95.957
93.9686
93.9755
93.9817
93.9872
93.991
93.9939
93.9956
93.9961
93.9959
93.9935
93.9902
93.9859
93.9819
93.9776
93.9731
93.9685
93.9636
93.959
93.9529
93.9463
93.9412
93.9363
93.9301
93.9265
93.9263
190.342
228.464
209.629
208.787
206.409
187.469
256.95
247.926
175.635
176.786
189.043
190.729
192.538
194.52
196.69
199.066
201.661
204.471
207.475
210.595
216.487
212.623
213.679
175.025
189.987
187.886
231.477
204.419
172.01
221.347
215.511
213.564
201.901
220.982
179.035
221.523
183.222
208.633
205.262
202.159
199.341
196.773
194.455
192.202
188.336
252.769
183.358
235.767
239.929
244.129
248.296
252.434
256.431
183.805
177.705
272.97
203.64
261.029
260.817
260.695
260.63
260.561
260.482
260.4
260.336
260.297
260.277
260.272
260.271
217.97
224.838
180.486
198.387
175.93
272.433
184.787
185.898
184.362
182.871
181.347
179.768
178.117
176.396
174.622
172.801
170.945
169.061
167.158
165.239
163.308
161.366
159.414
157.455
155.49
153.52
151.547
149.572
147.594
145.614
143.633
141.65
139.666
137.68
135.695
133.708
131.721
129.734
127.746
125.759
123.771
121.783
119.795
117.807
115.82
113.833
111.845
109.858
107.871
105.884
103.898
101.911
99.9237
97.9367
95.9495
93.9614
91.9723
91.9781
91.9841
91.9887
91.9931
91.9958
91.9976
91.9987
91.9992
91.9987
91.9956
91.9917
91.9882
91.9845
91.9809
91.9774
91.9736
91.9697
91.9661
91.961
91.9552
91.9503
91.9454
91.9393
91.9356
91.9358
91.9362
93.9249
95.9146
97.9045
99.8935
101.883
103.872
105.861
107.85
109.838
111.826
113.814
115.801
117.787
119.773
121.758
123.742
125.726
127.709
129.69
131.671
133.65
135.629
137.605
139.58
141.554
143.526
145.497
147.467
149.436
151.405
153.374
155.342
157.311
159.279
161.243
163.201
165.148
167.084
169.008
170.926
172.911
174.768
176.604
178.331
212.192
182.159
184.294
184.791
186.547
180.368
188.711
203.725
218.36
176.356
177.623
189.262
186.921
185.032
188.569
228.024
228.012
208.073
218.173
211.869
209.428
215.91
202.983
205.602
224.657
217.46
213.471
179.546
220.995
204.44
212.599
214.967
206.874
207.551
227.886
186.819
188.12
176.978
215.21
211.743
208.284
205.047
202.092
199.424
197.024
194.853
192.883
191.084
189.4
205.569
184.02
178.182
190.612
192.6
194.77
197.1
199.65
202.498
205.71
209.35
184.553
182.079
229.313
234.175
238.956
243.508
178.453
213.854
185.075
214.361
182.275
221.268
180.907
235.082
239.445
243.788
248.108
252.39
256.517
260.536
183.367
181.978
184.477
182.834
181.238
179.601
177.99
176.329
174.555
172.735
170.849
168.943
167.026
165.097
163.157
161.208
159.251
157.29
155.326
153.36
151.394
149.426
147.458
145.488
143.517
141.545
139.572
137.597
135.621
133.643
131.664
129.683
127.702
125.72
123.736
121.752
119.767
117.782
115.796
113.809
111.822
109.834
107.846
105.857
103.869
101.88
99.8911
97.9017
95.9127
93.9241
91.9363
208.42
205.529
89.9813
89.9839
89.9892
89.9926
89.9963
89.9987
90.0006
90.0016
90.0022
90.0012
89.9975
89.9935
89.9901
89.9873
89.9842
89.9806
89.9772
89.976
89.9752
89.9711
89.9657
89.9603
89.9548
89.9476
89.9436
89.9465
89.949
89.9501
218.565
264.705
264.519
264.417
264.337
264.259
264.184
264.115
264.055
264.012
263.986
263.968
264.03
264.418
252.359
256.541
260.797
264.802
187.2
185.698
184.192
182.694
181.176
179.609
177.979
176.28
174.524
172.716
170.871
168.998
167.102
165.19
163.264
161.327
159.381
157.426
155.464
153.497
151.527
149.553
147.577
145.599
143.618
141.636
139.653
137.669
135.684
133.698
131.711
129.724
127.737
125.75
123.762
121.774
119.787
117.799
115.812
113.825
111.838
109.85
107.863
105.876
103.89
101.903
99.916
97.9292
95.942
93.9541
91.9652
89.9747
217.716
211.227
224.25
224.396
184.056
187.491
178.307
179.536
209.745
205.99
188.291
208.22
183.116
189.188
190.96
192.883
194.975
197.292
199.858
202.715
205.945
209.627
243.965
168.685
223.583
228.786
234.094
239.081
189.707
217.233
212.96
208.926
205.397
202.334
199.641
197.23
195.053
193.08
191.293
178.91
186.344
185.782
224.148
210.587
214.406
211.381
207.142
186.927
185.475
184.042
182.574
181.065
179.497
177.868
176.184
174.431
172.626
170.773
168.887
166.981
165.059
163.125
161.181
159.23
157.273
155.313
153.349
151.384
149.418
147.45
145.481
143.51
141.538
139.565
137.59
135.614
133.637
131.658
129.678
127.697
125.714
123.731
121.747
119.763
117.777
115.791
113.805
111.818
109.83
107.842
105.854
103.866
101.877
99.8884
97.8996
95.911
93.9231
91.936
89.95
229.557
234.336
238.983
243.455
247.967
252.421
256.871
261.139
264.957
181.395
220.71
208.25
217.074
220.342
183.121
180.274
250.856
255.557
260.195
264.454
186.089
220.649
268.376
268.156
268.04
267.983
267.93
267.875
267.82
267.768
267.722
267.684
267.654
267.645
267.694
268.037
268.48
271.024
87.9805
87.987
87.9854
87.9911
87.9927
87.9988
87.9997
88.0028
88.0032
88.005
88.0026
87.9988
87.9946
87.9913
87.9901
87.9874
87.9819
87.9777
87.981
87.9868
87.985
87.9789
87.9717
87.9633
87.9557
87.9491
87.9573
87.9627
87.9638
87.9645
186.899
185.488
184.034
182.567
181.072
179.53
177.911
176.218
174.463
172.661
170.823
168.955
167.065
165.157
163.234
161.3
159.356
157.404
155.445
153.48
151.511
149.539
147.564
145.586
143.607
141.625
139.643
137.659
135.674
133.688
131.702
129.716
127.729
125.742
123.754
121.767
119.779
117.792
115.805
113.818
111.831
109.843
107.856
105.869
103.883
101.896
99.9092
97.9223
95.9353
93.9478
91.96
89.9716
87.98
210.054
213.734
220.228
184.719
180.843
89.9487
91.9351
190.189
189.176
87.962
85.9628
85.9641
85.9612
85.9574
85.96
85.9738
85.9623
86.0032
85.9925
86.0046
86.0098
85.9744
85.9907
85.9745
85.9708
85.9648
85.972
85.9684
85.965
85.9718
85.9702
85.9721
85.9723
85.9716
85.9721
85.9746
85.9732
85.976
85.9823
89.9674
87.9778
85.9782
85.9793
93.9427
91.9553
97.9167
95.9298
101.89
99.9034
105.863
103.877
109.837
107.85
113.811
111.824
117.785
115.798
121.76
119.772
125.734
123.747
129.708
127.721
133.681
131.695
137.651
135.666
141.617
139.634
145.577
143.598
149.529
147.554
153.469
151.501
157.39
155.432
161.284
159.341
165.138
163.217
168.934
167.045
172.639
170.801
176.193
174.441
179.501
177.884
182.495
181.028
185.366
183.934
188.304
186.813
191.403
189.797
195.153
193.183
199.748
197.332
205.531
202.451
213.396
209.111
223.167
218.178
233.768
228.563
243.117
238.695
252.777
247.909
262.137
257.644
269.527
271.44
271.559
271.311
271.314
271.337
271.323
271.376
271.355
271.418
271.397
271.453
271.437
271.509
271.471
270.611
271.619
268.781
269.416
272.094
272.8
267.155
269.57
259.46
263.797
249.406
254.588
239.383
244.268
228.822
234.114
218.733
223.719
209.781
214.022
202.832
206.072
197.391
199.965
192.997
195.074
189.53
191.159
186.651
188.064
183.839
185.256
180.956
182.41
177.827
179.441
174.377
176.133
170.726
172.571
166.951
168.85
163.104
165.034
159.216
161.164
155.303
157.262
151.378
153.342
147.444
149.412
143.505
145.475
139.56
141.533
135.609
137.585
131.653
133.632
127.692
129.673
123.727
125.71
119.759
121.743
115.788
117.774
111.814
113.801
107.839
109.827
103.863
105.851
99.8863
101.875
95.91
97.898
93.9222
272.068
272.778
216.462
178.592
85.9759
210.991
85.9903
239.574
272.963
273.108
273.11
273.154
273.153
273.16
273.16
176.454
217.662
216.325
212.874
213.098
170.398
172.848
170.669
187.48
184.236
185.828
188.968
185.654
187.285
190.484
186.997
188.719
191.956
188.265
190.085
216.764
182.367
272.701
183.656
267.306
181.024
201.408
214.638
183.698
185.767
180.269
174.797
167.339
218.508
179.644
174.528
185.62
247.564
183.295
249.685
177.869
182.195
225.817
177.033
270.523
174.593
204.64
176.507
175.307
179.853
188.078
272.689
242.191
202.082
188.259
188.03
218.205
257.805
234.63
193.996
269.456
175.216
171.06
172.563
192.156
170.749
236.381
185.893
195.267
180.454
155.196
150.388
187.911
)
;

boundaryField
{
    wall
    {
        type            zeroGradient;
    }
    outlet
    {
        type            fixedValue;
        value           uniform 85;
    }
    inlet
    {
        type            fixedValue;
        value           uniform 273.16;
    }
    frontAndBackPlanes
    {
        type            empty;
    }
}


// ************************************************************************* //
