/*--------------------------------*- C++ -*----------------------------------*\
| =========                 |                                                 |
| \\      /  F ield         | OpenFOAM: The Open Source CFD Toolbox           |
|  \\    /   O peration     | Version:  2212                                  |
|   \\  /    A nd           | Website:  www.openfoam.com                      |
|    \\/     M anipulation  |                                                 |
\*---------------------------------------------------------------------------*/
FoamFile
{
    version     2.0;
    format      ascii;
    arch        "LSB;label=32;scalar=64";
    class       volScalarField;
    location    "0.026";
    object      epsilon;
}
// * * * * * * * * * * * * * * * * * * * * * * * * * * * * * * * * * * * * * //

dimensions      [0 2 -3 0 0 0 0];

internalField   nonuniform List<scalar> 
7220
(
219101
12154.3
13114
13705.5
11471.6
12494.6
13034.3
11474
13697.7
12492.1
523774
6.06009e+06
75843.4
199169
598400
3.38685e+06
701446
79566.5
321273
94840
162616
65132.7
20343.1
311864
26349.2
511857
1.94347e+07
133479
162935
148463
10733.7
121715
7616.14
164344
58584.9
183794
16906.7
640290
517643
194037
201947
202035
194076
801994
823337
767116
822897
791002
210875
220853
221069
211021
232014
244495
244898
232312
258428
273971
274682
258969
291273
310504
311700
292199
331827
355410
357387
333365
381387
409833
413161
383940
440775
474171
479694
445095
510064
548597
556872
516905
589766
633195
645486
599726
743528
693518
679545
726003
767363
750193
187188
187194
201830
194009
616137
525639
792644
723462
693545
597470
643423
514052
554281
442509
476856
381959
410898
331787
355624
290972
310297
258095
273633
231779
244198
210816
220696
194275
202019
220717
210725
244466
231913
274303
258541
311573
291917
357827
333471
414693
384847
482961
447427
562001
521169
651886
605652
699637
745687
187644
187333
851394
790296
383171
475495
794721
829111
858395
857667
754828
882642
737606
797485
626613
680664
531096
576809
451865
489576
386780
417680
334029
358967
291847
311735
258395
274141
231987
244408
211231
220967
195207
202658
182217
183926
188938
181488
181499
187797
182859
181897
201484
194032
219834
210074
243263
230863
272847
257185
310149
290436
356905
332221
415165
384471
486625
449183
572066
527539
674012
620670
730375
307312
569939
941645
875497
178105
180085
188963
184550
381973
229572
294985
449871
970770
205145
245686
682266
860727
938164
801585
885206
656919
724691
545495
597521
459104
499734
390426
422836
335767
361506
292642
312906
258901
274723
232590
244931
212285
221746
197046
204077
186681
191240
177143
177175
179042
177759
201551
194639
218970
209637
241787
229669
270871
255436
308028
288324
355248
330237
415032
383393
490651
450604
587754
535976
717069
647721
795489
401978
183105
181041
348374
197978
191060
336862
469265
966225
925396
569736
341880
190744
187327
175779
177899
304883
242303
183437
183574
181367
187581
177758
302711
326556
943691
672446
816246
898403
673569
740514
555673
610857
464423
507256
392789
426435
336839
363057
293435
313749
259958
275595
234056
246171
214521
223555
200271
206803
194934
180005
174746
176877
173628
173688
174355
184139
191480
187478
202940
196627
219225
210433
241213
229446
269778
254598
306877
287102
354957
329391
416561
383906
494637
453296
596572
541687
736452
662289
824441
227550
297751
199283
207402
193627
263640
184265
181054
750981
886474
380500
204844
241442
301660
203152
173250
248226
192904
279007
174734
235074
239153
178467
849678
426852
878059
940111
716836
797616
574352
640278
472328
519182
396966
431980
339889
366476
296431
316682
263257
278744
237908
249684
219244
227820
205884
211993
196809
200862
190277
193381
187373
177095
181392
171597
173857
170341
170434
172708
171147
178156
174945
183157
189186
186073
196405
192543
207029
201205
222197
213967
243278
231896
271432
256422
308561
288671
357808
331483
422399
387970
506441
461630
619320
558314
768519
690902
842632
234140
266003
216620
222465
211540
210009
211277
266486
224487
514901
869470
333594
199465
196516
175567
180531
241111
176645
167636
191740
215221
210644
188619
199808
206262
169338
218150
217178
176428
251778
289041
263646
592800
360018
927534
930422
755948
846288
598301
672164
487408
537632
408248
444855
349098
376556
304766
325323
271293
286922
246263
257761
228271
236519
215370
221292
206221
210393
202655
184733
174501
178807
168800
171175
167416
167536
169990
168302
172326
191491
197632
194438
205148
201144
215509
209895
229907
222109
250108
239148
278076
263062
315319
295315
365430
338548
432221
396444
523009
473813
655268
582620
826871
738453
903612
258045
278780
241799
248144
227464
235448
220584
193422
244771
193840
188842
725208
458446
212575
193770
219027
176437
156851
158130
206627
185144
244697
172677
7200.23
163849
239634
276911
292820
284068
327911
305680
505316
374638
928692
814231
804824
883121
638688
719164
515275
571032
429274
468728
366665
395545
320749
341949
286521
302388
261710
273058
243923
252106
230874
236910
221268
225688
214238
217519
208755
211326
206609
182512
191555
172458
176705
166635
169091
165148
165287
167911
166112
173502
170312
186585
178338
201017
205653
203132
211765
208533
219730
215452
230454
224707
244720
237065
264273
253672
292000
276955
329784
309503
381163
353495
450926
413363
548311
495212
689056
612668
843722
771400
876703
298283
355862
317200
278653
287089
262787
270807
249429
256063
237829
243430
225510
229181
203111
233074
183800
8441.34
234652
270571
173563
14281.6
233326
231601
184770
199436
135156
199386
135025
180429
166146
143468
154260
10640
7694.51
8549.13
9158.03
19188.1
11592.6
208256
189518
8837.52
203610
272475
274338
171152
172844
229395
8414.11
264681
14343
224028
258701
9998.93
289046
253144
299321
294065
311753
305206
328292
319320
351922
338920
394426
368633
531124
438418
918876
738344
851682
913114
685193
765860
552222
612840
459884
501950
394399
424406
347157
368948
312395
328336
287629
299021
269329
277826
255531
261940
245360
250018
238224
241475
235537
205001
180775
189757
171147
175176
165511
167927
163980
164125
166742
164989
171951
169003
176569
225502
229287
227169
235013
231879
243268
238770
254704
248577
269614
261686
289123
278659
316318
301458
354519
333987
406924
378557
480220
440432
585996
528053
730769
654733
864435
810807
670143
853076
418672
495859
358157
380770
330757
342800
310966
320100
296012
303141
283611
289589
278442
7511.23
8204.35
9811.92
177859
171096
7494.56
205261
145237
201359
230541
224475
8109.94
185788
167040
158731
126817
193495
12538.2
199063
335252
333898
275147
106930
172407
154852
219289
4.40431e+06
112310
177765
248413
10004.2
124218
139058
8114.56
7650.06
185168
7209.63
7355
14175.6
360828
354219
375759
367392
399558
386275
434865
415684
491687
458584
628280
541605
929606
783687
892454
945199
733819
815060
599477
662581
502504
546451
435815
466068
388062
410230
353465
369279
328026
339884
308471
317609
293673
300511
283167
287903
276415
279373
272646
274188
271472
271637
272132
203931
230119
179466
188420
170487
174121
165456
167653
164028
164179
166388
164925
170779
168229
183393
175166
224072
198372
265569
265106
264926
267374
265985
272144
269402
280236
275723
292315
285768
308462
299882
328921
318098
355614
341233
393437
372883
445687
417331
521277
479919
631009
571354
775317
697913
888777
846445
726041
862676
516983
591803
443408
473018
404054
421757
376443
389136
357254
366080
344179
350432
339127
7154.91
7404.46
350310
10031.1
9410.16
174469
142208
7213.13
158280
181694
7540.39
7815.72
11260.2
182354
413730
412868
336121
97510.7
160921
142626
7119.09
158576
13293.2
333716
335724
224290
267074
138137
35173.1
195354
289718
9620.57
15281
18200.4
22172.7
9442.9
88151
13142.2
16051.2
7196.5
64547
10677
10646.7
215546
242537
10249.2
10260.8
8932.33
8834.12
9394.98
93679.3
120278
246057
8566.94
105126
18404.8
20289.9
15462.3
292199
8016.72
18379.1
7661.74
7506.95
136369
15865.2
168032
18140.1
441570
434511
463008
450625
498253
478452
550242
521948
626680
583402
773492
685293
992737
896703
933249
991372
780912
859463
654303
714282
558704
602087
494085
523257
447500
468766
413805
429550
387065
399703
366030
375842
350530
357600
340251
344768
334577
336899
332560
333139
332763
273592
203365
230308
178478
187461
170289
173413
166397
168053
165234
165412
166646
165763
169931
167868
182375
174081
197769
328545
325569
326545
325589
325222
328774
326758
335979
331798
348134
341408
365445
356161
387535
375928
414314
400262
449654
430368
499847
472817
573301
532857
676281
621543
812054
738674
934072
880740
841844
930813
653082
730898
561843
600602
506227
531657
466731
484568
439599
451649
422409
430020
416996
8051.07
11244.2
12334.9
11750.1
10534.1
11297.5
14065
171332
512489
414981
114695
9359.35
9642.16
11189.4
7435.77
8517.14
7786.54
7415.16
7612.24
2.84686e+06
139120
362723
8135.36
338764
331580
119314
10702.7
8515.81
8405.61
8053.17
15942.1
179114
15061.4
346307
20656.5
10226.5
12552
10134.1
10310.5
81883.6
148955
120878
13879.6
7494.14
10305.7
9012.5
11012.6
10373.8
9011.23
9393.28
7365.79
7343.22
11552
12384.9
12322.8
19771.5
16083.2
9675.84
192348
296678
9143.03
8721.75
45634.7
77316.4
16440.7
13044.9
14002.7
11951.7
103094
213735
112165
233241
10124.6
7972.69
12051.1
15156.9
14216
14013.1
9152.04
81746.2
19457.3
18092.3
16931.9
14849.4
147425
93856.2
90529.4
247906
8550.21
18935.1
18383.8
17207.6
18101.4
298538
8144.03
12230.5
16331.5
20791
7938.06
19113.6
123970
118648
129353
20561.7
12245.6
156206
1.63585e+06
548588
537161
582253
563354
634456
605916
706006
667721
802365
749519
951804
868259
1.08048e+06
1.03876e+06
974336
1.04771e+06
818858
893985
706398
756135
623958
661458
567727
593406
526986
545852
494224
509986
466592
479701
445080
455030
429969
436742
420855
424705
416994
418333
417405
416720
421241
419031
429015
424546
434545
275872
342781
203220
231118
177791
186832
170582
173057
168253
169150
167494
167722
167561
167479
169447
167986
181698
173314
225088
197591
335608
269405
426091
416158
420583
410548
412882
407918
408802
408856
407896
414300
410932
425368
419076
442601
433211
465593
453449
492834
478803
524075
507681
566229
543289
627877
593865
713260
668530
842190
771545
988106
918528
979610
1.01812e+06
825289
900222
719133
766343
646603
679842
591326
616860
550749
568724
524207
535622
511161
515930
510055
103814
237248
14494.3
12484.9
8108.97
9345.53
8082.01
14088.6
13309.1
13624.8
13225.5
13046
14116.3
13674.3
14782.1
166393
420320
119514
11209.3
93866.6
11942.4
8078.23
8179.24
7777.82
22661.5
13308.4
460696
18435.7
17690.9
10327.8
12303.8
15942.6
16650.6
159343
13378
9093.03
8920.73
10487.8
9531.58
13557.1
9204.03
10348.7
9554.42
20262.9
175213
355264
8883.94
8591.94
12639.1
10313.5
73848.3
130313
100103
14525.9
7877.39
11123.2
9768.52
10245.1
91331.3
19416.8
541123
546895
340504
432549
22197.6
11097.2
189719
28178.3
300146
7543
7796.06
13078.2
15627.8
9811.12
71983.8
16566.2
12945.4
45038.9
81909.6
30787.4
213581
219568
6940.78
9201.5
75409.2
17523.9
15457.9
17573.8
251812
8746.98
11969
15477.1
17126.2
20965.4
305581
8483.83
18896.4
118423
105963
8506.85
21301.5
94099.1
9086.65
21998.7
8903.91
38866.9
149880
13451.3
12188.6
16724.2
13377.1
464324
597132
636883
605814
693397
668803
747023
719439
818009
780828
904876
859573
1.00837e+06
953752
1.12837e+06
1.0688e+06
1.1548e+06
1.16703e+06
1.00012e+06
1.08964e+06
837232
912358
742116
780653
685191
710728
646496
664180
615718
630785
586657
600889
561629
573460
542698
551354
530169
535652
523615
526179
522343
522371
525427
523392
532033
528358
536121
441051
278913
347723
203484
232532
177386
186502
171278
173030
170725
170776
170412
170702
168981
169784
169293
168499
181324
172833
226458
197822
272393
536134
525405
530399
517483
521283
512251
514453
510531
510916
513176
511238
521289
516495
535580
527644
555900
545046
580497
567863
605756
593256
632958
618493
671895
650409
733470
698684
857457
786217
1.0261e+06
940912
1.09974e+06
1.08773e+06
1.01315e+06
1.06558e+06
911687
960207
828922
868134
758202
792370
701891
728710
661028
679572
637037
646925
631921
632050
635728
18047
15620.3
16528.3
14869.5
15121.7
13402.4
14754.5
14770.6
13417.3
14851.4
15677.9
15135.1
16625.6
16072.5
17150.2
12356.7
15295.2
15374.7
15475.6
15360
15615.8
18699.3
15112.1
433905
9035.79
11690.3
9174.37
18167.7
20483.9
19214.5
16815.4
17360.6
16347.3
16448.8
16655.4
16382.1
17815.3
17149.2
18768.5
157333
427630
8596.41
370730
12321.8
11170.5
80816.2
12724.5
8686.12
7826.26
8860.21
8695.01
84821.5
445415
24019.7
790525
46147.8
553404
542586
258362
134618
22281.7
23234
21564.7
150805
18128.5
13291.9
12300.3
12120.6
11733.8
18689.7
11145
13972
12571.8
26474.6
168624
528680
364787
7511.68
7614.55
595361
467453
10544.8
11407.5
12262.5
10474.6
309824
422635
70189.5
109885
86018.6
14983.3
125364
116851
131477
8496.95
11931.4
10596.6
11271.2
170713
20668.2
18899.3
18666.2
77718.6
25848.6
654194
19631.8
21975.8
32278.9
14315.3
185883
300141
6831.3
7312.7
14756.1
14798.1
13495.4
9908.74
69708.4
16432.7
13777.7
243116
16980.1
72590.9
213525
100067
93468.9
207213
106532
98613.9
7189.75
12190
9432.07
13026.2
14579.5
16733.2
15746.5
20776.9
255841
92915.5
96749.3
14728.1
13313.1
9117.36
18298.2
115860
100970
107131
111257
102688
100482
95185.6
94805.9
92010.1
93399.5
9022.36
21610.7
89619.4
8361.52
23148.1
9263.73
23399.9
81745.1
1.74718e+06
9663.28
28138.9
147239
521997
599539
779445
786483
778712
836245
806865
903176
870450
969802
936129
1.04686e+06
1.00713e+06
1.12887e+06
1.08792e+06
1.20578e+06
1.16848e+06
1.25397e+06
1.23717e+06
1.18363e+06
1.24052e+06
991850
1.09257e+06
827060
901027
748275
776460
723733
733294
709966
716640
693415
702302
674740
683994
658534
666148
646800
652065
639889
642746
637659
638209
639652
638180
645005
641967
652873
648679
661494
657147
670419
665971
674712
448276
560418
282716
353571
204160
234546
177150
186433
171998
173109
173080
172351
173130
173485
170350
171972
169238
169040
181197
172513
228386
198442
346191
276058
549513
439662
660144
651472
655885
642587
646972
633862
638130
626928
630105
622487
624361
621245
621403
624088
622110
631582
627240
643602
637075
658708
650939
672942
666312
681283
677878
690600
684831
726432
701449
843894
773858
1.02578e+06
930090
1.16684e+06
1.1122e+06
1.16884e+06
1.18151e+06
1.11107e+06
1.14274e+06
1.04212e+06
1.0773e+06
970039
1.00622e+06
902586
935158
846711
872941
806213
824339
785469
793272
781851
17309.1
18181.6
16569.9
16824.4
16398.9
16446.6
14857.2
16377.2
16383
14701.7
16358.3
16567.7
16423.1
17362.3
16848.9
18260.1
25898.6
24442.2
20289.6
20947.2
19822.3
19848.5
20130
19937.7
20964.2
20429
21919.7
40880.7
15030.4
11814.8
15989.2
11644.1
22067.6
24309.1
23073.8
20921.6
21341.2
20892.3
20793.2
21636.2
21178.5
23164.7
22292.3
24442.9
141940
436852
7500
311198
376030
10891.9
11287
370931
502719
74190.1
106285
13413.5
182286
152063
9440.48
9848.73
144095
592909
18811.5
32470.9
190068
451977
367708
75948
27509.2
316982
7735.13
36873
27709.9
693691
117895
426016
25719.6
27603.9
29065.1
7523.73
20364.1
16659.8
16956.7
27218.7
15068.9
20254.6
17972.7
157006
545098
376405
6826.45
7087.36
471874
9458.25
10638.7
12403.9
10642.1
599960
68729.4
94727.2
78794.2
96330
102519
145290
15193.6
122746
9168.76
12606.6
11364
12227
138459
195670
16595.4
119844
71589.1
90461.4
770511
770234
556479
663910
31732.5
33301.5
61474.6
49908.1
20706
178480
295474
373452
1.59156e+06
118604
6865.96
10064.2
788013
608120
11132.3
13620.3
10147.4
16801.2
14016.4
68949.8
91451.6
16069.8
107851
7988.66
14329.2
288694
20296.9
983046
980445
195164
210873
199763
102655
12107
16359.9
14917.2
9798.87
17474.3
29361
15752.5
99080.3
114124
99257.2
257626
1.37559e+06
95903.2
13328.5
9635.95
21437.4
95162.2
88119.1
8028.59
23939.4
16340.7
14735.4
9709.63
24375.1
80609.3
25292.4
94598
10017.1
75369
7322.27
37331.7
524943
293353
630233
805675
1.06192e+06
1.03575e+06
1.04341e+06
1.05013e+06
1.03787e+06
1.10361e+06
1.07387e+06
1.16689e+06
1.13542e+06
1.22671e+06
1.19737e+06
1.2806e+06
1.25448e+06
1.31969e+06
1.30283e+06
1.3313e+06
1.32985e+06
1.28873e+06
1.31993e+06
1.14225e+06
1.23e+06
934733
1.03759e+06
779356
847188
718455
736223
723490
717879
735400
730223
739298
738252
738757
739280
737643
738133
737580
737420
739307
738193
743121
740952
748759
745754
755413
752013
762359
758880
767987
765578
769688
678516
455945
567528
287469
360219
205384
237322
177054
186713
172414
173085
174469
173310
174651
175059
171130
173217
169083
169290
181388
172317
231032
199570
352626
280619
447104
750847
750119
751026
745679
748307
738757
742333
731613
735165
724776
728129
718804
721638
714295
716342
711497
712688
710024
710646
708593
709442
704161
707052
691344
699082
673058
681751
685528
670600
788956
725390
969045
871641
1.1524e+06
1.06846e+06
1.24228e+06
1.20995e+06
1.25843e+06
1.25618e+06
1.24047e+06
1.25256e+06
1.20021e+06
1.2228e+06
1.14623e+06
1.17421e+06
1.0889e+06
1.11733e+06
1.03854e+06
1.06233e+06
1.00202e+06
1.01824e+06
990105
27152.7
21558
23736.2
19376.5
20202.5
18651.9
18906
18424.4
18512.1
18292.8
18360.4
16333.4
18117.9
18216.7
16342.2
18298.2
18410.1
18345.6
18661.1
18502.8
19418.9
18935.8
21700.5
20271.7
23991
30284.7
26723.4
27054.5
26677
26603
27175.7
26880.3
28290.2
27598.4
31692.7
29433.4
35964.8
22883.3
17705.9
23292.8
16275.2
30306.4
32367
31770.3
28032.3
29016.1
27299.1
27426.2
27859.3
27482.5
29079.7
28387.2
31013.9
29927.7
34966.2
32541.9
208566
123099
452400
6908.44
315986
381051
10020
11463.7
720142
71348.2
98578
491935
348455
13902.9
137749
10217.4
10837.5
162006
172013
16750.6
71435.5
89935.3
36895.2
241596
2.37201e+06
152246
7483.44
89718
768671
749428
29630.9
34962.6
38204.4
42338.8
35080.4
27482.9
28678.4
42029.9
22659.6
31316.9
27801.9
63345.9
56047
140993
571481
387617
107574
486101
191680
218082
6761.26
6974.53
479557
10216.4
12585.1
10890.2
26535.1
14512.1
68332.3
86413.2
75689.7
91694.7
4.41563e+06
412057
219976
95391.5
100012
15188.6
68257.6
118182
12011.2
9223.15
12930.8
538616
231963
19668.8
1.26943e+06
1.2615e+06
963723
75569.2
32257
45964.4
159587
51277
166420
288370
551282
382638
136303
111215
220980
7513.56
2.50066e+06
623394
11071.4
13757.5
10495
461518
149147
16720.9
26974
68905.2
89002.5
18243.7
20807.9
20698.7
15503.6
258829
241869
52586.7
105186
4.90549e+06
1.48943e+06
12545.1
98722.7
14654.7
203971
116477
129692
354254
199966
100018
404589
265195
1.0908e+06
831673
12167.2
14964.3
10278
21521.5
19678
19174
138479
20848.3
187318
139602
98352.1
13432.4
87804.2
7711.53
154602
78068.9
256522
777417
263715
2.88477e+06
96444.3
24293.2
13417
17956.8
16251.5
10255.4
17643.2
14246.1
24802.1
80452.1
26853.4
98608.5
14798.3
10442
27062.8
75424.1
71613.5
90268.9
16349.4
10787.2
78557
2.19319e+06
352584
663083
536256
668724
974341
808190
1.13127e+06
1.45976e+06
1.38792e+06
1.41656e+06
1.36044e+06
1.36973e+06
1.36949e+06
1.36118e+06
1.40058e+06
1.38419e+06
1.42899e+06
1.41623e+06
1.44313e+06
1.43782e+06
1.4382e+06
1.44346e+06
1.40579e+06
1.42608e+06
1.33689e+06
1.37655e+06
1.21496e+06
1.28415e+06
1.02712e+06
1.12796e+06
827704
922819
693844
750333
652706
660939
679454
662444
714224
697581
741415
728757
762582
752592
779739
771578
794131
787215
806604
800565
817596
812287
826863
822476
833822
830666
837998
836271
838698
838889
833565
836916
821458
828457
812388
681319
765655
463910
574080
293342
367698
207548
241169
177486
187751
172790
173330
174924
173801
174980
175431
171462
173555
169185
169501
182297
172619
234713
201593
359855
286297
562776
454731
746537
666640
788384
803721
797056
811639
808539
813152
813161
810157
812071
804122
807499
795375
800071
784256
790086
771129
777932
756032
763832
738574
747655
717632
728625
691391
705344
656864
675320
617484
636673
611343
605579
693047
640927
854492
765218
1.04872e+06
952899
1.19985e+06
1.13237e+06
1.29359e+06
1.25253e+06
1.349e+06
1.32531e+06
1.37409e+06
1.36513e+06
1.37294e+06
1.37636e+06
1.35274e+06
1.36466e+06
1.32285e+06
1.33832e+06
1.29248e+06
1.30722e+06
1.27952e+06
29106.4
33823.8
23990.4
25990.5
21968.5
22737.8
21272.4
21524.5
21001.4
21120.4
20775.7
20888.8
20499.5
20649.4
20318.9
21008.1
20906.5
21293.3
21127.1
22003.4
21553.1
24120.1
22800.8
26249
43363.7
40986.6
42470.6
39462.2
36907.9
36835.8
37409.3
37137
38109.2
37737.1
39421.5
38606.7
43217.3
40743.1
47895.5
50555.1
98297.5
30334.4
35979.6
24997.7
39779.6
41916.1
37338.3
38293.9
37321
37068.7
38680.3
37905.3
40513.2
39568.8
42904.9
41584.9
47477.6
44676.6
50699
107219
472672
351848
185430
6816.26
320390
388088
9527.76
11690.2
157775
162172
25766.8
17404
52978.5
55084.3
201897
1.21353e+06
1.82425e+06
157686
6.98398e+06
1.6115e+06
70337.8
92877.9
146290
292832
107412
14155.2
173283
133203
11029.8
10504
11598.7
190401
274752
180424
110569
19386.5
8.09509e+06
302275
145947
49297.4
834067
2.67855e+06
641967
1.25129e+06
666589
52433.6
71431.2
79492.5
63143
64510
35348
44169.3
54879.4
124949
731671
604578
397406
274643
156698
123946
174060
7214.34
158367
192436
13316.4
474703
137176
492434
10198.1
12794.1
11209.4
21290.6
24429.8
24249.7
21088.3
158238
154851
44000
41797.8
25527.3
16707
25948.4
753360
937134
68421.1
82736.1
74548.3
88399.6
20567.8
7.27986e+06
78161.7
345084
90069.7
93056.8
106163
8666.12
15064.2
161314
233142
113871
14250.3
98793.1
884690
12521.7
8551.9
118157
168902
13517.9
11426.1
78279.7
89972.7
830087
817032
741563
777581
44906.9
56463.9
57021.9
71959.9
79742
49579.6
56367.7
151679
144829
103758
284906
285187
466781
157388
106476
195177
8012.7
644903
541348
8459.26
11178.8
13889.5
10922.7
18933.3
166915
141781
39592.4
20078.3
44376.3
1.01772e+06
1.0337e+06
69139.4
87585.4
18171
99585.7
105525
14744.2
103168
1.34488e+06
88063.8
2.7749e+06
23574.5
158361
91500.2
192872
152986
431782
206372
1.17283e+06
805613
115885
99056.5
233618
24189.7
867551
12311
14979.4
10826.9
17365.4
129001
63071.2
24673
3.17289e+06
635778
599406
339472
98424.6
80745.3
1.95134e+06
250972
163015
741806
27955.4
1.51839e+06
1.18696e+06
105698
13547.4
16115.4
10912.1
94973.1
28264.7
301077
75795.8
71994.8
92350.6
14875.1
11163.2
29495
173732
111449
159655
1.16488e+06
9284.46
547196
961481
770386
1.443e+06
1.19217e+06
1.41807e+06
2.08157e+06
1.72869e+06
1.59737e+06
1.89787e+06
1.77118e+06
1.82698e+06
1.6976e+06
1.72851e+06
1.66173e+06
1.67711e+06
1.64232e+06
1.65071e+06
1.62175e+06
1.63348e+06
1.58488e+06
1.60566e+06
1.52851e+06
1.55925e+06
1.45022e+06
1.49243e+06
1.34598e+06
1.40153e+06
1.21352e+06
1.28348e+06
1.04845e+06
1.13533e+06
857709
954357
686315
765773
582332
624383
560795
560970
600866
576848
653049
627177
700416
677543
741213
721643
775546
759157
804072
790487
827281
816324
845235
836932
857750
852184
864598
861894
865756
865880
861186
864211
849710
856428
840943
801111
682227
760562
471916
579411
300625
376134
211411
246614
179652
190503
174700
175309
176530
175566
176460
176947
173062
175061
170968
171218
184860
174595
239982
205264
368062
293383
567771
462439
667348
788459
811136
800858
825669
819390
832853
830084
834034
834158
829519
832492
819285
825109
803406
812050
782014
793388
755208
769283
722901
739780
684351
704456
639024
662564
586758
613676
533937
559261
514361
516332
570337
532535
700364
627003
876294
785838
1.04758e+06
965011
1.19148e+06
1.12295e+06
1.31071e+06
1.2539e+06
1.40694e+06
1.36188e+06
1.47819e+06
1.44575e+06
1.52487e+06
1.50441e+06
1.5517e+06
1.54033e+06
1.56535e+06
1.55979e+06
1.57407e+06
1.56963e+06
1.59235e+06
1.5809e+06
31911.6
36484.5
27167.4
29001
25329.5
26032.1
24664.8
24909.3
24362.7
24499.7
24062
24217.6
23686.6
23888
23997.9
23553.5
24504
24027
20410.2
20685.8
23372.1
23757.2
23703.7
23355.5
24097.9
23923.4
24388.2
24248.1
24690
24525.5
25354.9
24933.2
27253.4
26073.1
32249.8
29173.9
37147.4
56117.4
57882.5
54316.4
53551.2
52841.2
54851
54260.5
55792.8
55351.8
57121.8
56246.4
61196.8
58561
65888.9
96373.4
1.46552e+07
47112.1
55699.8
39293.9
62453.9
73165.2
68058.1
55001.5
57922.1
52532.1
53264.1
53658.8
52811.3
56256.7
54919.9
58849.1
57588.2
61628.4
60144.2
66616.3
63667.3
71066.4
97407.8
496500
203379
143799
7157.93
843916
50301.6
322692
396997
2.5499e+06
11962.1
20892.1
158559
18672.5
27137.8
25900.2
497304
1.11773e+06
919102
118183
1.58455e+06
2.08645e+06
2.33552e+06
1.61232e+06
1.25304e+06
70124.7
88685.5
1.66016e+07
52309.2
253614
98244.6
5.00325e+06
169633
126547
157499
11779.1
9668.52
189935
181374
12421.5
111442
1.84499e+07
403399
158800
913680
134742
1.98948e+06
572765
801726
773846
1.6376e+06
76292.3
742005
165792
129850
79711.9
105068
63419.9
78044.1
113372
240883
232326
774269
641511
406591
332273
189557
116365
155788
8075.56
7788.41
161951
1.13125e+07
510542
9036.02
10363.4
13009.9
11572.3
18742.8
151289
149471
25953.8
19679.9
41160.2
619112
494356
2.27421e+06
979073
68706
81297.4
74249.8
86177.6
18034
18377.3
18136.6
1.59972e+06
299219
86106.8
87839.7
97246.7
115095
132911
8522.49
13949.8
14632.6
466882
245385
110112
1.36895e+06
88931.7
9310.75
11533.7
2.98476e+06
12838.8
239126
1.26954e+06
153965
82056.5
7.77762e+06
103379
104013
77471.8
110340
138502
177224
351220
288475
563429
184191
2.49402e+06
3.55779e+06
2.65189e+06
103530
170659
23675.4
23158.7
2.91669e+06
275525
674870
11368.3
14001.5
11394.1
17171.8
14079.5
147978
133601
37917.8
24095.8
185769
594269
1.90183e+06
2.00963e+06
2.59297e+06
2.50537e+06
2.75964e+06
2.57651e+06
69477.4
87080.5
16350.3
178840
115754
96449.3
13872
101941
187785
81637
695358
401916
2.47772e+06
104996
241835
179438
188297
579241
210491
971599
1.71993e+06
99699.9
7.09985e+06
61857.3
28556.9
118598
916591
1.05359e+06
12508.4
14960
11394.9
15977.8
118611
57150.7
28806.3
92107.4
294967
1.92966e+06
151985
1.08e+06
1.26014e+06
76709.4
72775.7
96602.3
13700.4
11555.5
31610.7
184055
157668
150531
1.02617e+06
858148
1.52337e+06
1.23647e+06
2.21175e+06
1.85491e+06
3.03243e+06
2.60111e+06
3.39101e+06
2.95297e+06
2.0395e+06
2.10941e+06
1.92742e+06
1.97895e+06
1.84876e+06
1.8843e+06
1.79193e+06
1.81912e+06
1.73114e+06
1.76301e+06
1.65112e+06
1.69409e+06
1.55001e+06
1.60304e+06
1.43226e+06
1.49298e+06
1.3005e+06
1.36816e+06
1.1552e+06
1.22945e+06
998231
1.07803e+06
831749
915906
667336
747738
535157
595014
463366
490718
459037
452899
505715
478481
567426
536215
627602
598096
682189
655684
729628
706894
769189
750365
800907
786053
824460
813713
839787
833153
847085
844415
846815
847861
839423
843997
824830
833043
802450
814632
771931
788213
753605
787196
784019
679826
752173
479404
582868
309252
385167
217915
254134
185251
196200
180925
181195
183139
182078
182957
183492
179392
181537
176612
177223
190314
179944
247258
211510
376896
301798
570958
469752
733196
664736
756841
764067
722887
755894
740411
780814
769359
797998
790342
808142
803925
811457
810668
807547
810439
795895
802714
776179
787053
748353
763277
712591
731437
669194
691875
618137
644566
560549
590096
498227
529725
439437
467300
411070
418967
442300
418774
535755
481800
675139
601524
830660
752544
983634
907863
1.1306e+06
1.05786e+06
1.26947e+06
1.20128e+06
1.3958e+06
1.33444e+06
1.50523e+06
1.45269e+06
1.59685e+06
1.55316e+06
1.673e+06
1.63656e+06
1.73818e+06
1.70629e+06
1.8068e+06
1.77071e+06
1.89022e+06
1.8467e+06
1.94533e+06
46971.7
58359.9
35716.2
40009.5
31437.8
33071.1
29813.3
30438.6
29186.7
29425
28854.8
29007.9
28516.6
28699.7
28131
28322
28371.8
28136.2
28729.5
28681.4
28375.1
28599.5
27869.5
28107.9
28085.8
27876.1
28533.7
28323.8
28898.6
28725.2
29219.1
29057.6
29828.2
29447.4
31478.5
30456
35883.5
33155.7
47591
40327.8
79193.3
59490.3
112428
94653.3
106786
81769.7
85520.6
370580
79427.6
79051
402886
82110.9
80588.3
84685.9
83534.1
85872.7
85484
86889.2
86256
91025.4
88337.6
103920
95830.4
198454
3.95483e+06
38258.6
88685.1
91127.6
70197.1
89906.4
96842.1
80635.8
84288.1
78713.1
78692.8
81691.3
79744.8
86376.3
84053.8
89898.7
88300.4
92908.9
91329.1
98720
95079.4
104743
92516.7
10203.9
524534
245142
271772
3.5125e+06
3.45199e+06
131603
7853.15
13073.2
412136
319427
406684
9698.14
12255.7
18564.7
152584
20774.8
39202.5
188187
429905
542713
441261
1.17473e+06
957727
1.76633e+06
1.45281e+06
2.41742e+06
2.09105e+06
3.04024e+06
2.753e+06
3.29994e+06
3.20214e+06
3.36381e+06
2.4129e+06
2.34108e+06
1.27585e+06
70240.1
85665.1
17898.8
153146
222804
91393.4
163535
452433
343578
167380
8837.14
13803.5
692611
14362.9
171214
120096
90433.9
31874
1.00407e+06
1.01362e+06
227791
152687
165596
2.14286e+06
12207.4
4.22484e+06
2.51815e+06
125483
2.00816e+06
493947
1.50726e+06
737134
151523
1.18563e+06
3.16406e+06
2.14649e+06
339376
235954
173130
138205
210026
117998
146421
81420.1
115375
106434
208626
287418
819068
685603
416480
402321
228433
2.79701e+06
2.77186e+06
110774
140413
86078.4
29558.1
9115.9
148515
3.57185e+06
266318
533239
12142.4
86661.4
113348
9146.36
10556.5
13215.1
11959.4
17008.6
141071
141218
27328.4
23508.3
675069
1.07675e+06
632606
560715
150240
75964.7
1.5491e+06
942139
1.02261e+06
690377
1.0598e+06
2.10832e+06
316913
2.43588e+06
1.68267e+06
1.0218e+06
69068.9
80915.7
74272
84883.8
16338.3
16676
16495.9
1.90145e+06
269907
83207.4
83918.4
90356.6
14019
243044
107244
89243.9
269788
2.06799e+06
4.04275e+06
18697.1
732790
716586
737079
703166
82433.4
116674
123244
231362
194145
148908
128629
220783
457061
295113
677612
216505
1.94705e+06
102461
37882.4
143829
7965.7
28525.2
13470
168206
717135
129774
11622.7
14087.7
11869.3
15857.7
133708
123215
37766.4
28700
87449.5
397386
299641
155109
665297
169213
4.17476e+06
1.57892e+06
1.70191e+06
2.29674e+06
179407
205554
70097.5
87844.6
14954.3
11845.1
31497.5
346689
89642.2
12958.4
183834
167682
242524
789040
1.1762e+06
15715.6
101873
1.97239e+06
284398
979968
78126.8
73978
103399
12740.2
14938.3
11941.2
107107
54885
33052.9
184409
452768
8236.36
1.92267e+06
1.97849e+06
240413
212259
213591
152497
122344
9445.15
13560
2.35149e+06
2.15246e+06
485985
487876
1.69108e+06
157907
125082
150197
1.11849e+06
1.6327e+06
1.34393e+06
2.50493e+06
2.02947e+06
3.46996e+06
2.98667e+06
4.36108e+06
3.96573e+06
4.51561e+06
4.54971e+06
4.06273e+06
4.31909e+06
3.46311e+06
3.76323e+06
158166
2.50108e+06
2.74633e+06
679845
2.03863e+06
2.08974e+06
1.97876e+06
2.00674e+06
1.901e+06
1.94186e+06
1.81688e+06
1.85827e+06
1.73878e+06
1.77704e+06
1.66189e+06