/*--------------------------------*- C++ -*----------------------------------*\
| =========                 |                                                 |
| \\      /  F ield         | OpenFOAM: The Open Source CFD Toolbox           |
|  \\    /   O peration     | Version:  2212                                  |
|   \\  /    A nd           | Website:  www.openfoam.com                      |
|    \\/     M anipulation  |                                                 |
\*---------------------------------------------------------------------------*/
FoamFile
{
    version     2.0;
    format      ascii;
    arch        "LSB;label=32;scalar=64";
    class       volScalarField;
    location    "0.00048";
    object      p;
}
// * * * * * * * * * * * * * * * * * * * * * * * * * * * * * * * * * * * * * //

dimensions      [1 -1 -2 0 0 0 0];

internalField   nonuniform List<scalar> 
2681
(
194.419
196.029
196.125
194.714
196.871
196.085
194.753
194.709
194.697
194.69
194.715
194.634
194.646
194.58
194.626
194.611
194.596
194.698
194.697
194.678
194.682
194.653
194.661
194.671
194.636
194.646
194.712
194.714
194.715
194.695
194.703
194.677
194.687
194.661
194.667
194.654
194.662
194.649
194.636
194.628
194.619
194.649
194.636
194.674
194.666
196.056
194.684
194.704
194.727
194.718
194.711
194.624
194.595
194.707
194.714
194.65
194.642
194.724
194.724
194.72
194.726
194.688
194.699
194.688
194.676
194.658
194.671
194.636
194.646
194.743
194.61
194.635
194.623
194.672
194.65
194.631
194.748
194.566
196.476
194.711
194.721
194.715
194.693
194.703
194.686
194.69
194.667
194.676
194.659
194.646
194.623
194.665
194.653
194.673
194.67
194.692
194.683
194.707
194.7
194.714
194.72
194.722
194.636
194.612
194.609
194.616
194.727
194.722
194.728
194.627
194.602
194.6
194.594
194.642
194.627
194.629
194.719
194.726
194.725
194.627
194.565
194.611
197.336
194.627
194.623
194.634
194.733
196.138
194.73
194.495
194.529
194.704
194.714
194.689
194.696
194.671
194.68
194.65
194.66
194.621
194.637
194.606
194.625
194.618
194.643
194.633
194.575
194.716
194.787
194.704
194.712
194.723
194.735
194.729
194.713
194.718
194.699
194.706
194.687
194.694
194.672
194.68
194.656
194.663
194.641
194.648
194.55
194.633
194.654
194.646
194.669
194.661
194.68
194.675
194.695
194.687
194.709
194.702
194.716
194.73
194.734
194.732
194.728
194.76
194.731
194.723
194.609
194.584
194.577
194.598
194.619
194.605
194.742
194.62
194.62
194.716
194.723
194.59
194.593
194.737
194.739
236.377
229.987
229.99
236.38
194.739
194.735
194.74
194.619
194.581
194.757
194.731
194.434
196.057
196.492
194.612
194.615
195.878
194.735
194.565
194.718
194.723
194.704
194.711
194.687
194.695
194.668
194.678
194.646
194.657
194.625
194.635
194.607
194.615
194.596
194.62
194.612
194.642
194.629
194.663
194.652
194.684
194.674
194.702
194.693
194.709
224.662
220.191
216.412
213.203
210.464
208.119
206.104
204.371
202.877
201.581
201.557
200.46
199.483
199.453
200.431
204.362
202.86
208.115
206.099
213.202
210.462
220.194
216.413
224.665
194.727
194.734
194.715
194.721
194.703
194.709
194.691
194.697
194.676
194.683
194.661
194.668
194.647
194.654
194.446
194.64
194.615
194.628
194.618
194.631
194.626
194.644
194.637
194.656
194.646
194.672
194.664
194.684
194.678
194.698
194.691
194.712
194.705
194.725
194.719
194.73
194.735
194.737
194.732
194.734
194.729
194.73
194.472
194.41
194.594
194.617
194.613
194.6
194.738
194.549
244.118
244.123
194.74
194.389
201.588
200.468
194.585
196.994
194.609
194.584
194.736
194.732
244.12
253.614
253.615
194.743
194.745
194.737
194.742
198.569
198.613
194.622
194.605
194.57
194.565
194.607
194.605
196.233
194.545
194.544
194.767
194.727
194.734
194.732
194.606
194.607
194.743
194.742
194.743
194.738
194.74
194.737
194.717
194.723
194.701
194.71
194.684
194.693
194.664
194.674
194.642
194.653
194.62
194.631
194.597
194.609
194.583
194.564
194.543
194.566
194.551
194.607
194.59
194.635
194.622
194.659
194.647
194.681
194.67
194.699
194.69
194.714
194.707
194.721
229.987
236.378
220.188
224.661
213.201
216.41
208.12
210.463
204.375
206.108
202.883
244.126
253.62
253.618
197.768
197.917
194.42
199.406
198.568
201.522
200.379
204.344
202.836
208.108
206.086
213.198
210.457
220.192
216.41
229.992
224.666
236.383
194.729
194.735
194.717
194.723
194.706
194.712
194.693
194.7
194.68
194.687
194.666
194.673
194.653
194.659
194.641
194.647
194.626
194.631
194.61
194.62
194.628
194.613
194.604
194.603
194.618
194.611
194.621
194.628
194.636
194.62
194.65
194.643
194.66
194.654
194.675
194.667
194.688
194.681
194.702
194.695
194.715
194.708
194.727
194.721
194.732
194.74
194.742
194.737
194.738
194.735
195.912
194.484
199.496
194.589
194.604
194.604
194.59
194.738
195.561
194.542
194.619
244.133
253.635
194.748
194.41
194.74
194.749
194.751
194.746
194.726
194.731
197.839
194.546
194.496
195.706
194.757
201.6
200.483
194.557
194.484
194.489
194.598
194.575
194.575
194.599
194.554
244.132
253.635
194.483
196.091
196.391
194.485
194.561
194.603
194.616
194.608
194.609
194.605
194.61
194.557
194.525
198.655
194.764
194.536
194.452
194.598
194.597
194.746
194.747
194.742
194.744
194.739
194.74
194.739
194.737
194.735
194.722
194.728
194.715
194.725
194.699
194.707
194.681
194.69
194.66
194.671
194.638
194.649
194.614
194.626
194.584
194.601
194.55
194.564
194.559
194.528
194.57
194.562
194.544
194.6
194.582
194.631
194.616
194.655
194.644
194.677
194.667
194.697
194.687
194.713
194.705
194.72
229.99
236.384
220.189
224.662
213.201
216.41
208.124
210.465
204.383
206.114
202.892
265.439
265.448
265.442
194.592
265.467
265.446
197.079
196.705
197.996
197.476
199.465
198.658
201.526
200.415
204.324
202.821
208.095
206.07
213.192
210.449
220.187
216.404
229.99
224.662
236.384
194.749
194.754
194.752
194.738
194.746
194.729
194.733
194.72
194.725
194.708
194.714
194.696
194.702
194.684
194.69
194.67
194.677
194.658
194.664
194.646
194.652
194.633
194.638
194.627
194.633
194.612
194.619
194.623
194.617
194.616
194.605
194.614
194.613
194.624
194.617
194.621
194.619
194.629
194.633
194.643
194.634
194.654
194.648
194.665
194.659
194.678
194.671
194.691
194.685
194.704
194.698
194.717
194.711
194.729
194.723
194.74
194.734
194.752
194.745
194.75
194.749
194.748
194.749
194.744
194.746
194.741
194.743
194.738
194.74
194.736
194.737
195.724
197.201
194.655
194.451
199.517
194.413
194.494
194.424
194.46
194.459
194.592
194.581
194.603
194.61
194.58
194.593
194.522
194.571
194.464
194.762
194.472
194.555
194.567
265.466
196.073
196.34
194.756
194.757
194.754
195.863
194.498
194.561
194.598
194.604
194.595
194.598
194.559
194.521
194.742
194.74
197.969
194.504
194.714
195.81
194.599
194.488
196.265
196.464
194.521
196.89
194.557
194.599
194.601
194.549
194.74
194.734
194.739
280.5
265.495
280.528
198.683
194.754
194.558
194.523
194.477
194.677
194.653
194.587
194.609
194.587
194.531
194.752
194.754
194.749
194.751
194.746
194.748
194.743
194.744
194.741
194.734
194.724
194.729
194.711
194.718
194.696
194.704
194.678
194.687
194.657
194.668
194.633
194.645
194.608
194.621
194.581
194.596
194.548
194.565
194.524
194.48
194.556
194.58
194.571
194.601
194.59
194.627
194.613
194.653
194.64
194.675
194.664
194.695
194.685
194.711
194.703
194.724
194.718
194.73
244.143
253.654
229.994
236.39
220.19
224.664
213.202
216.411
208.128
210.468
204.395
206.121
201.62
202.907
199.547
200.508
280.479
265.49
280.524
280.493
280.462
280.471
280.478
197.054
196.673
198.087
197.528
199.535
198.745
201.566
200.469
204.335
202.846
208.085
206.067
213.182
210.437
220.18
216.397
229.987
224.657
244.138
236.385
253.649
194.746
194.751
194.742
194.744
194.732
194.737
194.722
194.727
194.711
194.717
194.699
194.705
194.687
194.693
194.674
194.68
194.662
194.668
194.65
194.656
194.64
194.644
194.633
194.637
194.626
194.629
194.622
194.624
194.621
194.621
194.628
194.624
194.628
194.626
194.636
194.636
194.647
194.64
194.658
194.652
194.669
194.663
194.682
194.675
194.694
194.688
194.707
194.701
194.719
194.713
194.73
194.725
194.741
194.736
194.752
194.746
194.751
194.752
194.748
194.75
194.745
194.747
194.742
194.744
194.741
194.75
195.172
195.475
194.758
194.485
194.486
194.479
194.573
194.589
194.601
194.591
194.588
194.571
194.516
194.666
194.738
194.488
194.429
196.103
194.491
197.424
194.755
194.514
194.478
265.506
280.552
195.608
196.213
194.587
195.8
194.493
194.511
196.989
196.537
194.544
194.591
194.596
194.581
194.592
194.554
194.535
194.758
194.759
194.733
194.737
194.743
194.742
265.515
280.563
300.056
300.087
194.522
197.98
194.757
194.757
198.716
194.746
194.513
194.762
194.482
194.666
194.58
194.602
194.58
194.525
194.755
194.757
194.752
194.754
194.749
194.751
194.746
194.748
194.745
194.745
194.742
194.743
194.74
194.733
194.737
194.722
194.728
194.709
194.717
194.694
194.702
194.676
194.685
194.654
194.665
194.63
194.642
194.605
194.618
194.579
194.592
194.549
194.565
194.53
194.472
194.53
194.513
194.562
194.546
194.593
194.577
194.623
194.608
194.649
194.637
194.673
194.662
194.693
194.683
194.709
194.701
194.722
194.716
194.728
244.151
253.666
229.996
236.395
220.191
224.665
213.206
216.413
208.134
210.472
204.406
206.129
201.642
202.924
199.581
200.536
300.028
300.083
300.05
300.02
300.025
300.028
197.065
196.637
198.111
197.559
199.565
198.773
201.59
200.497
204.349
202.866
208.087
206.076
213.177
210.435
220.174
216.39
229.982
224.651
244.14
236.383
253.656
196.558
194.75
194.753
194.743
194.747
194.734
194.739
194.724
194.729
194.713
194.719
194.702
194.708
194.69
194.696
194.677
194.683
194.666
194.672
194.655
194.66
194.645
194.649
194.638
194.641
194.631
194.634
194.628
194.629
194.628
194.627
194.631
194.629
194.634
194.632
194.642
194.639
194.651
194.645
194.661
194.656
194.673
194.667
194.685
194.678
194.697
194.691
194.709
194.703
194.721
194.715
194.732
194.727
194.74
194.737
194.748
194.744
194.753
194.754
194.755
194.751
194.753
194.748
194.75
194.746
194.747
194.745
194.497
194.442
300.115
195.421
195.461
195.657
194.453
194.475
194.587
195.576
194.494
194.502
194.488
196.794
194.422
196.274
194.563
194.582
194.592
194.576
194.582
194.566
194.523
194.677
194.759
194.745
194.743
194.557
195.881
194.454
194.462
194.741
300.13
194.489
194.521
197.399
194.759
194.455
198.001
198.76
194.585
195.558
194.494
194.517
194.434
194.542
194.587
194.548
326.211
326.248
195.294
194.525
194.276
194.745
194.592
195.225
195.377
194.496
194.686
194.417
195.317
194.572
194.595
194.573
194.525
194.762
194.76
194.761
194.757
194.759
194.755
194.756
194.752
194.753
194.749
194.751
194.747
194.748
194.746
194.739
194.742
194.731
194.736
194.721
194.727
194.708
194.715
194.693
194.701
194.673
194.683
194.651
194.662
194.628
194.64
194.602
194.615
194.575
194.588
194.558
194.565
194.557
194.473
194.506
194.485
194.543
194.525
194.58
194.561
194.616
194.599
194.645
194.632
194.671
194.659
194.691
194.681
194.708
194.7
194.722
194.715
194.732
194.727
194.74
194.736
265.526
300.157
280.58
244.154
253.671
229.995
236.395
220.192
224.664
213.209
216.415
208.14
210.477
204.417
206.137
201.661
202.938
199.614
200.56
194.529
326.148
326.177
326.153
326.147
326.178
326.15
326.26
326.218
197.076
196.664
198.125
197.572
199.58
198.787
201.606
200.514
204.36
202.879
208.093
206.084
213.175
210.436
220.169
216.387
229.978
224.646
244.141
236.381
265.517
253.661
300.149
280.573
194.757
194.763
194.76
194.499
194.761
194.761
194.762
194.657
194.751
194.754
194.744
194.748
194.736
194.74
194.726
194.731
194.715
194.721
194.704
194.71
194.692
194.698
194.68
194.686
194.669
194.675
194.658
194.664
194.649
194.654
194.642
194.645
194.636
194.639
194.633
194.634
194.633
194.632
194.635
194.634
194.639
194.637
194.646
194.642
194.654
194.65
194.664
194.659
194.676
194.67
194.687
194.681
194.699
194.693
194.711
194.705
194.723
194.717
194.733
194.728
194.743
194.738
194.752
194.747
194.756
194.754
194.761
194.759
194.759
194.76
194.757
194.758
194.754
194.755
194.751
194.753
194.749
194.75
194.746
194.747
194.744
194.745
195.818
195.763
195.406
195.592
195.984
196.193
194.472
198.06
198.803
194.585
195.351
194.496
194.511
194.494
194.396
194.767
194.4
194.413
197.393
194.552
194.578
194.585
194.573
194.575
194.558
194.537
194.533
194.762
194.522
194.743
326.294
326.289
194.73
195.243
195.118
196.426
194.524
194.547
194.746
194.763
194.545
194.465
194.488
194.401
194.407
194.369
194.379
195.05
198.114
194.511
194.595
195.187
194.505
194.498
194.395
194.403
195.826
195.683
194.765
195.646
197.535
197.475
195.483
194.567
194.581
194.564
194.529
194.761
194.763
194.759
194.76
194.757
194.758
194.754
194.756
194.752
194.753
194.749
194.75
194.747
194.748
194.746
194.738
194.741
194.73
194.734
194.72
194.725
194.707
194.714
194.691
194.7
194.672
194.682
194.65
194.661
194.624
194.637
194.597
194.611
194.571
194.584
194.557
194.56
194.573
194.561
194.523
194.481
194.472
194.435
194.485
194.485
194.512
194.493
194.559
194.535
194.604
194.583
194.639
194.622
194.667
194.654
194.689
194.678
194.706
194.698
194.721
194.714
194.731
194.726
194.739
194.735
194.742
326.315
300.168
280.587
265.529
253.672
244.152
236.392
229.992
224.663
220.191
216.415
213.21
210.479
208.145
206.144
204.426
202.949
201.674
200.577
199.634
198.825
198.137
197.557
197.077
196.689
196.379
195.92
194.496
195.578
360.788
360.749
360.71
360.673
360.651
360.643
360.644
360.65
360.676
360.715
360.751
360.789
360.821
194.38
196.632
197.033
197.531
198.109
198.788
199.585
200.521
201.615
202.889
204.368
206.09
208.097
210.437
213.175
216.385
220.166
224.643
229.976
236.379
244.141
253.664
265.525
280.587
300.175
326.333
360.847
195.489
195.095
195.751
194.526
194.538
194.436
194.439
194.497
194.522
194.527
194.362
194.694
194.279
194.625
194.935
194.403
194.384
195.598
194.366
194.466
194.318
196.88
196.383
197.057
195.308
194.938
194.377
194.43
194.398
194.346
194.473
194.559
194.557
194.578
194.569
194.548
194.548
195.837
195.667
195.518
195.383
195.238
195.068
194.622
194.454
196.34
194.733
194.169
194.005
194.745
194.746
194.747
194.748
194.749
194.75
194.751
194.752
194.754
194.755
194.756
194.758
194.759
194.76
194.761
194.762
194.763
194.764
194.764
194.766
194.764
194.762
194.76
194.757
194.755
194.752
194.748
194.744
194.739
194.734
194.729
194.724
194.718
194.713
194.707
194.701
194.695
194.689
194.684
194.678
194.672
194.667
194.662
194.657
194.653
194.649
194.646
194.643
194.641
194.639
194.637
194.637
194.636
194.637
194.638
194.64
194.642
194.645
194.649
194.653
194.657
194.661
194.666
194.672
194.677
194.683
194.689
194.694
194.7
194.706
194.711
194.717
194.722
194.727
194.732
194.737
194.741
194.745
194.749
194.752
194.755
194.758
403.906
403.964
326.352
360.863
194.762
195.333
194.436
194.761
194.763
194.436
194.516
194.765
194.765
194.764
194.763
194.762
194.761
194.76
194.759
194.758
194.757
194.755
194.754
194.753
194.752
194.751
194.748
194.749
194.75
194.743
194.741
194.738
194.735
194.73
194.725
194.719
194.712
194.704
194.696
194.686
194.675
194.663
194.649
194.633
194.615
194.595
194.574
194.55
194.523
194.495
194.469
194.455
194.458
194.474
194.487
194.488
194.484
194.789
194.441
194.553
194.541
194.545
194.554
194.566
194.579
194.593
194.608
194.621
194.635
194.648
194.66
194.671
194.681
194.69
194.698
194.706
194.713
194.719
194.724
194.729
194.733
194.741
194.737
195.457
194.747
194.748
194.749
194.75
194.751
194.752
194.753
194.755
194.756
194.757
194.758
194.76
194.761
194.762
194.762
194.763
194.765
194.764
194.721
194.764
194.762
194.76
194.758
194.755
194.752
194.748
194.744
194.74
194.735
194.73
194.725
194.72
194.714
194.708
194.703
194.697
194.691
194.685
194.68
194.674
194.669
194.664
194.66
194.656
194.652
194.648
194.646
194.643
194.641
194.64
194.639
194.639
194.64
194.641
194.643
194.645
194.648
194.651
194.655
194.659
194.664
194.669
194.674
194.679
194.685
194.69
194.696
194.702
194.707
194.713
194.718
194.723
194.729
194.733
194.738
194.742
194.746
194.75
194.753
194.756
194.758
194.76
194.761
194.505
194.259
194.764
194.766
194.902
194.854
195.051
195.243
195.374
195.489
195.612
195.761
195.915
196.362
196.672
197.048
197.532
198.11
198.792
199.591
200.527
201.621
202.894
204.372
206.093
208.099
210.439
213.175
216.385
220.166
224.642
229.975
236.38
244.143
253.668
265.533
326.37
300.2
280.602
194.535
194.553
194.585
194.568
194.337
194.456
194.312
194.599
194.565
194.444
194.448
194.465
194.985
194.395
196.676
196.99
403.904
403.873
403.846
403.82
403.798
403.787
403.791
403.802
403.815
403.844
403.877
194.463
196.751
194.524
194.672
194.352
194.489
194.545
194.72
194.852
195.016
195.172
194.426
195.404
195.583
196.102
196.331
196.651
197.054
197.55
198.14
198.834
199.643
200.586
201.683
202.956
204.432
206.148
208.148
210.482
213.212
216.416
220.192
224.664
229.993
236.393
244.154
253.675
265.536
280.6
300.191
195.694
195.718
194.346
194.406
194.342
194.372
194.496
194.519
194.702
194.633
194.746
403.94
360.889
194.542
194.926
194.38
196.005
404
403.969
194.767
195.126
194.674
194.401
194.522
194.538
194.569
194.275
194.765
194.689
194.572
194.698
194.831
194.536
194.393
194.415
195.852
300.176
360.898
326.355
265.525
280.586
244.147
253.667
229.989
236.388
220.189
224.66
213.211
216.414
208.149
210.481
204.434
206.15
201.686
202.959
199.646
200.589
198.146
198.838
197.062
197.557
196.344
196.663
195.843
196.079
195.52
195.652
195.237
195.391
194.993
195.066
194.776
194.934
194.47
194.6
194.209
194.227
194.536
428.907
428.914
428.905
428.91
428.909
428.918
428.914
428.913
428.917
428.912
428.912
428.904
428.909
428.943
404.073
428.925
428.909
196.602
194.457
194.746
194.359
194.671
194.571
194.531
404.085
326.363
360.909
280.585
300.181
253.659
265.52
236.373
244.135
224.637
229.97
216.381
220.161
210.437
213.172
206.095
208.099
202.898
204.375
200.531
201.625
198.791
199.594
197.526
198.106
196.652
197.047
196.048
196.304
195.734
194.461
195.457
195.593
195.244
195.336
195.106
195.191
194.341
194.869
194.081
194.228
194.017
194.765
194.765
194.762
194.764
194.756
194.759
194.75
194.753
194.744
194.747
194.736
194.74
194.728
194.732
194.718
194.723
194.708
194.713
194.697
194.702
194.686
194.691
194.675
194.68
194.665
194.67
194.656
194.661
194.649
194.653
194.644
194.647
194.641
194.643
194.641
194.641
194.643
194.641
194.647
194.645
194.653
194.65
194.661
194.657
194.67
194.666
194.681
194.676
194.692
194.686
194.704
194.698
194.715
194.709
194.726
194.72
194.736
194.731
194.745
194.74
194.752
194.749
194.758
194.755
194.763
194.76
194.726
194.765
194.44
194.765
194.766
194.763
194.764
194.762
194.763
194.76
194.761
194.757
194.758
194.755
194.756
194.752
194.753
194.75
194.751
194.748
194.749
194.6
194.747
194.38
194.736
194.74
194.726
194.731
194.717
194.722
194.705
194.711
194.689
194.698
194.669
194.679
194.647
194.658
194.619
194.634
194.587
194.603
194.551
194.57
194.509
194.532
194.444
194.479
194.634
194.462
194.786
194.492
194.564
194.411
194.427
194.474
194.436
194.536
194.508
194.58
194.56
194.616
194.599
194.646
194.632
194.672
194.659
194.694
194.683
194.711
194.703
194.724
194.718
194.734
194.729
194.743
194.739
194.746
194.696
194.743
194.749
194.748
194.751
194.75
194.753
194.752
194.755
194.754
194.758
194.757
194.76
194.759
194.762
194.761
194.764
194.763
194.765
194.765
195.37
194.766
194.465
194.768
429.006
429.005
194.679
194.799
194.767
194.767
194.767
194.767
194.766
194.765
194.764
194.763
194.762
194.761
194.76
194.758
194.757
194.755
194.754
194.752
194.751
194.749
194.748
194.748
194.748
194.749
194.687
195.386
194.739
194.741
194.743
194.741
194.737
194.732
194.726
194.72
194.714
194.709
194.703
194.697
194.693
194.69
194.689
194.691
194.697
194.707
194.723
194.744
194.769
194.79
194.773
194.709
194.612
194.513
194.45
194.252
194.3
194.471
194.517
194.532
194.539
194.558
194.574
194.583
194.597
194.611
194.623
194.633
194.644
194.654
194.665
194.675
194.685
194.694
194.703
194.711
194.719
194.727
194.734
194.74
194.744
194.746
194.742
194.738
194.776
194.75
194.748
194.748
194.748
194.749
194.751
194.752
194.754
194.755
194.756
194.758
194.759
194.76
194.762
194.763
194.764
194.765
194.766
194.767
194.767
194.33
194.762
194.763
194.764
194.763
194.761
194.758
194.754
194.75
194.746
194.742
194.737
194.732
194.727
194.721
194.715
194.71
194.704
194.698
194.692
194.686
194.681
194.675
194.67
194.665
194.66
194.656
194.652
194.649
194.646
194.644
194.642
194.641
194.641
194.641
194.641
194.642
194.644
194.646
194.649
194.652
194.656
194.66
194.665
194.67
194.675
194.681
194.686
194.692
194.698
194.704
194.71
194.716
194.722
194.728
194.734
194.739
194.744
194.749
194.754
194.758
194.761
194.764
194.767
194.768
194.767
194.767
194.766
194.766
194.766
194.767
195.109
194.838
194.669
194.88
194.724
194.335
194.132
194.197
194.377
194.663
194.979
195.279
195.532
195.8
196.033
196.336
196.662
197.064
197.546
198.117
198.792
199.589
200.523
201.616
202.888
204.366
206.087
208.091
210.428
213.161
216.367
220.144
224.615
229.942
236.339
244.094
253.609
265.461
280.52
300.135
326.229
360.514
403.708
429.657
194.543
194.522
195.152
194.407
194.743
194.794
196.325
459.61
459.599
459.583
459.605
459.631
459.654
459.672
459.687
459.699
459.699
459.687
459.672
459.651
459.626
459.601
459.573
459.594
459.603
460.564
194.426
195.184
194.738
194.968
194.751
194.374
194.048
194.06
194.295
194.62
194.94
195.213
195.489
195.775
196.084
196.42
196.77
197.155
197.62
198.181
198.854
199.649
200.583
201.675
202.945
204.422
206.139
208.139
210.472
213.2
216.401
220.173
224.64
229.963
236.358
244.11
253.623
265.473
280.531
300.145
326.237
360.521
403.714
429.665
460.571
194.393
194.328
194.518
194.55
196.218
194.335
194.422
194.956
194.749
194.602
194.451
194.485
194.763
194.539
194.766
194.743
194.53
195.834
194.764
194.763
194.648
194.746
194.482
194.468
196.124
194.622
194.565
194.499
195.851
194.553
194.765
194.526
194.552
194.541
196.281
194.744
194.656
194.609
197.079
194.75
194.451
195.953
196.306
194.459
194.748
196.163
194.72
194.573
194.745
194.382
194.746
194.421
194.588
195.341
194.685
196.071
194.381
194.762
194.419
196.38
194.435
196.067
194.493
194.613
194.766
194.625
194.741
194.525
194.724
194.678
194.625
)
;

boundaryField
{
    wall
    {
        type            zeroGradient;
    }
    outlet
    {
        type            inletOutlet;
        inletValue      uniform 1e-05;
        value           nonuniform List<scalar> 
20
(
459.61
459.599
459.583
459.605
459.631
459.654
459.672
459.687
459.699
459.699
459.687
459.672
459.651
459.626
459.601
459.573
459.594
459.603
460.564
460.571
)
;
    }
    frontAndBackPlanes
    {
        type            empty;
    }
}


// ************************************************************************* //
