/*--------------------------------*- C++ -*----------------------------------*\
| =========                 |                                                 |
| \\      /  F ield         | OpenFOAM: The Open Source CFD Toolbox           |
|  \\    /   O peration     | Version:  2212                                  |
|   \\  /    A nd           | Website:  www.openfoam.com                      |
|    \\/     M anipulation  |                                                 |
\*---------------------------------------------------------------------------*/
FoamFile
{
    version     2.0;
    format      ascii;
    arch        "LSB;label=32;scalar=64";
    class       volScalarField;
    location    "0.0758";
    object      T;
}
// * * * * * * * * * * * * * * * * * * * * * * * * * * * * * * * * * * * * * //

dimensions      [0 0 0 1 0 0 0];

internalField   nonuniform List<scalar> 
31661
(
271.639
211.331
213.057
212.104
211.267
212.814
211.946
211.256
212.639
211.848
268.422
217.637
274.034
266.064
272.445
271.256
272.409
271.474
219.017
271.06
232.689
232.841
256.207
268.386
213.146
233.134
257.837
251.766
217.835
219.59
268.327
262.112
262.347
221.076
229.077
268.037
224.11
268.218
252.897
261.359
257.234
210.955
268.459
233.008
233.863
219.62
233.388
226.701
223.667
258.976
249.008
256.016
220.875
225.72
248.583
217.979
221.269
223.18
229.324
218.936
218.904
218.503
230.828
208.428
224.834
265.5
272.567
227.655
225.629
223.645
216.606
220.983
219.092
217.139
215.456
213.845
212.386
211.068
209.902
208.889
208.02
207.293
206.69
206.2
206.312
206.815
207.433
208.175
209.052
210.066
211.222
212.512
213.942
215.501
217.164
218.864
220.575
222.198
223.814
225.475
227.149
228.611
229.91
231.342
231.172
232.647
232.361
233.738
233.424
234.65
234.342
235.406
235.124
236.027
235.783
236.537
236.333
236.958
236.792
237.307
237.176
237.601
237.499
237.853
237.775
238.075
238.016
238.275
238.231
238.46
238.428
238.637
238.613
238.809
238.793
238.983
238.972
239.162
239.155
239.35
239.346
239.551
239.55
239.769
239.77
240.009
240.012
240.277
240.282
240.577
240.585
240.924
240.934
241.327
241.339
241.833
241.848
242.516
242.532
243.636
243.653
245.726
245.742
249.929
249.934
256.586
256.58
262.61
262.606
265.912
265.914
265.847
262.493
256.445
249.849
245.712
243.651
242.54
241.86
241.352
240.946
240.598
240.294
240.024
239.782
239.561
239.358
239.168
238.987
238.81
238.633
238.452
238.262
238.056
237.826
237.562
237.254
236.888
236.446
235.91
235.26
234.474
233.53
232.401
231.045
229.53
227.676
225.607
223.531
221.488
219.48
217.534
215.787
214.129
212.636
211.286
210.096
205.907
205.811
209.061
208.176
207.433
206.815
206.309
205.508
205.593
205.853
206.206
206.653
207.2
207.858
208.637
209.545
210.579
211.738
213.011
214.386
215.856
217.383
218.955
220.535
222.055
223.551
225.027
226.458
227.793
229.05
230.294
231.483
232.569
233.545
234.408
235.16
235.808
236.361
236.829
237.226
237.563
237.853
238.108
238.336
238.546
238.745
238.939
239.135
239.336
239.548
239.777
240.027
240.304
240.614
240.97
241.383
241.897
242.582
243.695
245.75
249.877
256.462
262.51
265.864
267.189
267.21
267.21
267.175
267.114
265.726
262.28
256.197
249.718
245.703
243.699
242.605
241.926
241.413
241.001
240.644
240.334
240.056
239.807
239.579
239.368
239.169
238.978
238.789
238.598
238.4
238.187
237.951
237.684
237.374
237.01
236.576
236.056
235.436
234.7
233.835
232.832
231.686
230.398
228.931
227.254
225.459
223.623
221.764
219.887
218.093
216.363
214.741
213.236
211.867
210.644
209.573
208.647
205.904
207.859
207.194
206.645
205.602
205.375
205.591
205.304
205.381
205.705
205.99
206.297
206.714
207.225
207.839
208.563
209.4
210.355
211.418
212.582
213.834
215.151
216.512
217.892
219.274
220.634
221.933
223.194
224.428
225.627
226.779
227.909
229.055
230.19
231.279
232.307
233.261
234.134
234.915
235.603
236.201
236.714
237.154
237.531
237.857
238.143
238.399
238.635
238.86
239.079
239.301
239.531
239.775
240.039
240.33
240.654
241.022
241.447
241.971
242.657
243.753
245.743
249.731
256.192
262.288
265.744
267.132
267.474
267.507
267.52
267.519
267.501
267.467
267.414
267.019
265.541
261.961
255.835
249.533
245.698
243.773
242.703
242.023
241.502
241.078
240.709
240.385
240.095
239.832
239.59
239.364
239.148
238.938
238.725
238.505
238.27
238.011
237.718
237.381
236.985
236.519
235.97
235.325
234.578
233.723
232.762
231.701
230.552
229.325
227.994
226.559
225.065
223.526
221.949
220.32
218.727
217.14
215.61
214.142
212.778
211.533
210.421
209.434
208.576
206.199
207.841
207.222
205.191
205.557
205.25
205.847
205.375
205.125
205.397
205.776
205.974
206.202
206.531
206.941
207.441
208.038
208.737
209.541
210.448
211.453
212.543
213.698
214.901
216.123
217.341
218.536
219.691
220.796
221.838
222.837
223.812
224.769
225.715
226.672
227.668
228.693
229.727
230.755
231.762
232.728
233.637
234.473
235.226
235.892
236.474
236.978
237.414
237.792
238.125
238.424
238.699
238.961
239.217
239.477
239.747
240.035
240.347
240.692
241.079
241.521
242.057
242.747
243.815
245.717
249.499
255.771
261.927
265.54
267.028
267.412
267.371
267.428
267.46
267.473
267.472
267.457
267.427
267.379
267.307
267.334
266.879
265.274
261.516
255.346
249.288
245.691
243.861
242.822
242.14
241.607
241.165
240.778
240.435
240.124
239.84
239.576
239.325
239.08
238.835
238.582
238.311
238.013
237.677
237.292
236.844
236.322
235.714
235.015
234.22
233.336
232.371
231.341
230.264
229.162
228.041
226.893
225.712
224.517
223.297
222.034
220.72
219.384
218.017
216.638
215.272
213.957
212.717
211.565
210.513
209.576
208.756
206.708
208.046
205.071
205.143
206.293
205.65
205.318
205.597
205.193
205.008
205.564
205.946
206.11
206.266
206.554
206.867
207.285
207.791
208.392
209.089
209.883
210.77
211.741
212.78
213.868
214.981
216.093
217.179
218.217
219.198
220.115
220.967
221.759
222.515
223.254
223.988
224.728
225.499
226.321
227.195
228.114
229.071
230.055
231.049
232.033
232.984
233.881
234.709
235.457
236.123
236.707
237.219
237.666
238.062
238.418
238.746
239.059
239.366
239.676
239.999
240.343
240.717
241.131
241.597
242.149
242.843
243.876
245.672
249.19
255.197
261.415
265.237
266.867
267.316
267.284
267.076
267.156
267.21
267.242
267.256
267.256
267.244
267.218
267.175
267.111
267.208
267.222
266.683
264.911
260.929
254.734
248.989
245.673
243.953
242.951
242.265
241.717
241.252
240.84
240.47
240.13
239.815
239.516
239.225
238.934
238.633
238.313
237.961
237.566
237.116
236.598
236.003
235.321
234.55
233.695
232.767
231.782
230.762
229.73
228.707
227.707
226.736
225.787
224.851
223.929
223.001
222.04
221.048
219.99
218.881
217.712
216.51
215.298
214.102
212.942
211.845
210.841
209.931
207.445
209.118
267.024
208.41
204.998
206.944
205.102
205.994
205.291
205.39
205.864
205.539
205.073
204.956
205.831
206.208
206.317
206.453
206.678
206.933
207.289
207.725
208.249
208.864
209.573
210.372
211.254
212.206
213.213
214.25
215.293
216.314
217.29
218.202
219.042
219.804
220.496
221.124
221.703
222.257
222.798
223.342
223.899
224.495
225.143
225.851
226.619
227.448
228.337
229.275
230.25
231.241
232.225
233.179
234.083
234.918
235.676
236.355
236.957
237.49
237.965
238.395
238.793
239.172
239.543
239.918
240.307
240.721
241.172
241.668
242.241
242.941
243.934
245.608
248.818
254.484
260.742
264.823
266.642
267.185
267.166
266.971
266.615
266.724
266.808
266.868
266.904
266.923
266.925
266.913
266.885
266.84
266.775
266.685
266.911
267.084
267.07
266.422
264.437
260.191
254.006
248.648
245.641
244.044
243.081
242.39
241.823
241.329
240.885
240.477
240.098
239.737
239.387
239.035
238.673
238.287
237.865
237.395
236.864
236.261
235.578
234.811
233.966
233.048
232.076
231.074
230.065
229.073
228.116
227.208
226.355
225.556
224.803
224.088
223.398
222.714
222.013
221.286
220.498
219.647
218.72
217.724
216.67
215.574
214.462
213.373
212.329
211.339
210.433
209.618
266.57
208.895
207.805
204.979
206.534
205.098
205.708
205.29
205.25
205.538
205.001
206.16
205.829
204.94
266.14
266.262
266.357
266.426
266.471
266.495
266.499
266.486
266.454
266.403
266.33
266.232
266.11
266.433
266.771
266.938
266.875
266.088
263.84
259.303
253.184
248.279
245.598
244.13
243.209
242.51
241.919
241.39
240.9
240.445
240.009
239.584
239.157
238.716
238.248
237.739
237.177
236.549
235.847
235.067
234.212
233.289
232.316
231.314
230.307
229.319
228.372
227.479
226.653
225.896
225.206
224.576
224
223.471
222.965
222.473
221.973
221.456
220.895
220.276
219.584
218.809
217.95
217.011
216.018
214.994
213.955
212.938
211.961
211.046
210.207
208.267
209.461
265.97
206.154
206.522
206.595
206.705
206.887
207.096
207.4
207.778
208.24
208.789
209.428
210.156
210.968
211.854
212.798
213.78
214.775
215.758
216.702
217.585
218.393
219.116
219.757
220.321
220.822
221.266
221.683
222.068
222.459
222.853
223.27
223.708
224.198
224.745
225.355
226.031
226.778
227.597
228.481
229.422
230.404
231.406
232.403
233.373
234.294
235.151
235.934
236.642
237.277
237.85
238.372
238.856
239.318
239.77
240.224
240.693
241.19
241.729
242.328
243.038
243.99
245.532
248.408
253.651
259.907
264.291
266.351
267.017
267.022
266.842
266.482
265.996
207.293
204.984
208.81
207.738
206.205
205.128
205.561
205.334
205.147
205.584
204.982
205.867
204.95
206.507
206.178
265.814
266.285
266.616
266.767
266.64
265.679
263.112
258.267
252.3
247.905
245.55
244.212
243.328
242.618
241.995
241.416
240.875
240.351
239.837
239.317
238.78
238.211
237.597
236.924
236.185
235.373
234.492
233.547
232.557
231.541
230.521
229.525
228.572
227.677
226.854
226.106
225.433
224.832
224.297
223.824
223.402
223.008
222.644
222.292
221.95
221.586
221.201
220.769
220.278
219.709
219.054
218.31
217.482
216.577
215.618
214.624
213.629
212.656
211.728
210.871
210.099
206.916
206.999
207.165
207.318
207.608
207.914
208.325
208.819
209.399
210.066
210.819
211.647
212.54
213.477
214.437
215.394
216.321
217.195
217.997
218.714
219.342
219.884
220.349
220.75
221.097
221.407
221.692
221.965
222.232
222.518
222.822
223.146
223.501
223.902
224.364
224.889
225.483
226.15
226.896
227.718
228.613
229.568
230.567
231.591
232.614
233.613
234.567
235.46
236.285
237.039
237.727
238.361
238.951
239.514
240.063
240.611
241.173
241.762
242.402
243.128
244.043
245.451
247.985
252.732
258.915
263.633
265.992
266.81
266.865
266.69
266.333
265.838
265.235
265.42
265.589
265.733
265.847
265.932
265.987
266.017
266.023
266.006
265.967
265.904
265.815
265.698
265.555
265.391
206.879
265.212
208.25
209.415
206.512
206.871
205.038
264.59
264.795
264.981
265.143
265.277
265.38
265.454
265.501
265.52
265.513
265.477
265.412
265.314
265.183
265.02
264.83
264.621
207.296
205.98
205.194
206.875
207.276
207.339
207.468
207.597
207.867
208.112
208.482
208.927
209.456
210.071
210.77
211.548
212.393
213.291
214.22
215.156
216.073
216.946
217.752
218.478
219.115
219.661
220.122
220.509
220.832
221.106
221.341
221.552
221.743
221.935
222.117
222.309
222.52
222.765
223.026
223.315
223.648
224.031
224.481
224.999
225.592
226.264
227.02
227.856
228.77
229.75
230.78
231.839
232.901
233.945
234.949
235.898
236.784
237.606
238.371
239.088
239.77
240.432
241.086
241.749
242.436
243.193
244.084
245.366
247.567
251.768
257.778
262.846
265.566
266.574
266.697
266.53
266.18
265.678
265.046
264.405
208.825
207.78
205.402
205.404
205.106
205.654
204.987
205.934
205.009
206.238
206.565
207.261
206.907
208.006
207.645
264.373
265.023
265.652
266.136
266.449
266.579
266.37
265.191
262.245
257.102
251.392
247.546
245.5
244.286
243.43
242.698
242.029
241.394
240.774
240.157
239.528
238.876
238.187
237.448
236.65
235.786
234.858
233.873
232.847
231.802
230.757
229.74
228.767
227.86
227.027
226.274
225.602
225.008
224.486
224.03
223.638
223.292
222.98
222.691
222.428
222.187
221.948
221.707
221.443
221.153
220.818
220.423
219.954
219.401
218.754
218.014
217.184
216.288
215.345
214.371
213.4
212.474
211.601
210.8
210.087
263.96
208.32
209.451
231.098
263.719
206.564
205.113
264.187
264.392
264.57
264.718
264.833
264.916
264.968
264.99
264.981
264.941
264.868
264.76
264.616
264.438
264.231
264.003
263.765
206.933
205.779
205.285
208.056
207.7
207.793
207.935
208.134
208.366
208.699
209.102
209.585
210.152
210.802
211.532
212.333
213.192
214.091
215.007
215.914
216.787
217.603
218.344
218.998
219.561
220.035
220.428
220.751
221.014
221.231
221.412
221.568
221.705
221.834
221.955
222.086
222.218
222.356
222.519
222.707
222.93
223.167
223.443
223.767
224.147
224.596
225.118
225.721
226.408
227.183
228.046
228.992
230.01
231.084
232.194
233.314
234.422
235.496
236.522
237.492
238.404
239.265
240.083
240.869
241.639
242.404
243.199
244.084
245.263
247.171
250.799
256.517
261.924
265.074
266.319
266.526
266.376
266.042
265.526
264.863
264.192
263.528
207.396
205.323
205.503
208.911
207.898
205.102
205.753
205.04
206.029
205.087
206.326
206.64
206.971
207.655
263.324
263.064
208.674
208.658
263.476
264.158
264.84
265.495
265.993
266.281
266.384
266.066
264.618
261.237
255.835
250.502
247.209
245.444
244.334
243.481
242.719
241.993
241.273
240.544
239.793
239.01
238.183
237.302
236.364
235.367
234.321
233.24
232.145
231.058
230.004
229.002
228.067
227.215
226.446
225.764
225.163
224.641
224.19
223.807
223.477
223.192
222.933
222.697
222.497
222.321
222.158
221.99
221.828
221.654
221.463
221.241
220.978
220.659
220.271
219.798
219.232
218.572
217.823
216.986
216.081
215.144
214.198
213.263
212.375
211.548
210.796
210.128
208.335
207.974
208.46
209.548
230.258
206.263
205.218
263.568
263.788
263.98
264.139
264.263
264.353
264.41
264.433
264.424
264.38
264.301
264.185
264.031
263.841
263.622
263.38
263.125
262.869
206.673
205.653
205.402
211.584
208.144
208.293
208.427
208.699
208.955
209.321
209.765
210.291
210.898
211.584
212.343
213.165
214.033
214.927
215.823
216.694
217.518
218.275
218.949
219.534
220.029
220.439
220.774
221.043
221.259
221.432
221.572
221.688
221.786
221.874
221.954
222.033
222.113
222.199
222.302
222.405
222.528
222.675
222.852
223.062
223.297
223.573
223.9
224.286
224.743
225.281
225.903
226.619
227.427
228.33
229.322
230.394
231.529
232.707
233.905
235.097
236.262
237.384
238.454
239.469
240.432
241.35
242.234
243.109
244.022
245.125
246.787
249.855
255.159
260.86
264.509
266.049
266.366
266.242
265.935
265.401
264.703
263.999
263.307
262.626
207.087
205.295
205.624
207.593
205.131
205.876
209.055
208.084
205.115
206.149
205.197
206.439
206.745
207.063
262.682
262.408
207.386
207.707
224.512
208.011
262.8
262.544
263.245
263.956
264.675
265.354
265.866
266.126
266.194
265.733
263.952
260.087
254.509
249.663
246.892
245.353
244.32
243.46
242.642
241.823
240.978
240.098
239.172
238.195
237.163
236.078
234.949
233.792
232.627
231.479
230.37
229.321
228.347
227.46
226.663
225.956
225.339
224.805
224.351
223.965
223.635
223.355
223.11
222.89
222.704
222.547
222.416
222.292
222.176
222.071
221.963
221.852
221.728
221.587
221.417
221.208
220.948
220.623
220.221
219.731
219.147
218.463
217.69
216.846
215.947
215.013
214.082
213.186
212.339
211.552
210.844
210.23
268.757
208.652
209.702
236.874
219.992
206.111
205.344
262.938
263.17
263.372
263.539
263.671
263.766
263.826
263.851
263.841
263.794
263.711
263.588
263.428
263.231
263.002
262.749
262.482
262.213
261.954
206.45
205.566
205.539
220.367
212.081
208.621
208.779
209
209.244
209.589
210
210.486
211.053
211.698
212.417
213.202
214.038
214.907
215.787
216.654
217.483
218.252
218.946
219.554
220.072
220.505
220.857
221.141
221.365
221.541
221.68
221.789
221.875
221.945
222.003
222.054
222.101
222.147
222.194
222.246
222.304
222.376
222.465
222.559
222.676
222.819
222.996
223.209
223.453
223.74
224.082
224.487
224.965
225.528
226.185
226.939
227.796
228.755
229.809
230.952
232.167
233.432
234.721
236.012
237.278
238.502
239.671
240.779
241.827
242.829
243.82
244.903
246.381
248.947
253.724
259.64
263.856
265.767
266.231
266.143
265.867
265.317
264.58
263.839
263.116
262.411
261.721
206.873
205.294
205.767
207.292
205.197
206.019
207.809
205.22
206.29
209.258
208.323
205.326
206.576
206.873
262.034
261.751
207.18
207.49
207.795
208.112
262.128
261.855
262.313
263.04
263.787
264.547
265.249
265.753
265.992
266.027
265.367
263.186
258.804
253.167
248.888
246.577
245.217
244.214
243.299
242.381
241.423
240.412
239.342
238.213
237.03
235.804
234.555
233.303
232.075
230.893
229.778
228.748
227.81
226.969
226.228
225.581
225.025
224.551
224.149
223.81
223.523
223.275
223.058
222.875
222.726
222.605
222.5
222.401
222.321
222.249
222.181
222.115
222.046
221.971
221.883
221.778
221.646
221.48
221.268
220.997
220.655
220.232
219.715
219.103
218.398
217.61
216.748
215.845
214.932
214.028
213.157
212.353
211.615
210.959
210.393
208.72
208.9
209.909
208.435
261.604
205.943
205.491
262.299
262.539
262.748
262.921
263.058
263.158
263.22
263.246
263.235
263.187
263.1
262.974
262.809
262.607
262.372
262.112
261.837
261.558
261.288
261.041
206.305
205.54
205.695
209.122
209.183
209.206
209.324
209.542
209.869
210.258
210.719
211.253
211.862
212.546
213.295
214.099
214.942
215.804
216.661
217.49
218.268
218.977
219.606
220.148
220.604
220.978
221.279
221.518
221.704
221.848
221.958
222.042
222.106
222.155
222.192
222.222
222.246
222.267
222.288
222.311
222.337
222.369
222.41
222.462
222.53
222.618
222.716
222.834
222.984
223.173
223.404
223.67
223.983
224.355
224.795
225.311
225.914
226.617
227.426
228.344
229.37
230.505
231.73
233.032
234.391
235.776
237.162
238.519
239.827
241.069
242.244
243.37
244.507
245.886
248.05
252.228
258.237
263.089
265.466
266.141
266.093
265.832
265.281
264.515
263.732
262.973
262.24
261.529
260.833
206.688
205.336
205.928
207.142
205.288
206.182
209.115
207.582
205.345
206.451
208.087
205.476
206.732
261.382
261.093
209.503
208.602
207.023
207.32
207.619
207.922
208.23
261.46
261.174
260.909
261.389
262.12
262.876
263.662
264.468
265.192
265.681
265.893
265.889
264.972
262.31
257.392
251.833
248.157
246.209
244.954
243.916
242.893
241.825
240.689
239.483
238.214
236.897
235.553
234.208
232.888
231.621
230.428
229.323
228.32
227.423
226.63
225.942
225.35
224.844
224.412
224.045
223.735
223.471
223.241
223.051
222.899
222.778
222.674
222.581
222.509
222.451
222.401
222.358
222.319
222.283
222.245
222.202
222.152
222.09
222.012
221.91
221.777
221.603
221.377
221.088
220.724
220.272
219.728
219.088
218.354
217.546
216.685
215.79
214.891
214.018
213.188
212.426
211.742
211.135
210.609
209.202
208.563
210.16
208.804
260.678
205.861
205.654
261.652
261.897
262.11
262.287
262.427
262.529
262.594
262.62
262.609
262.56
262.471
262.343
262.175
261.97
261.732
261.469
261.189
260.904
260.626
260.37
260.149
206.199
205.54
205.868
209.712
209.839
209.992
210.218
210.547
210.977
211.488
212.071
212.723
213.441
214.213
215.029
215.87
216.713
217.537
218.319
219.04
219.686
220.249
220.727
221.122
221.443
221.699
221.898
222.052
222.169
222.256
222.32
222.366
222.398
222.42
222.433
222.441
222.446
222.448
222.45
222.454
222.462
222.474
222.494
222.523
222.565
222.619
222.694
222.788
222.905
223.04
223.209
223.422
223.682
223.993
224.35
224.768
225.258
225.835
226.501
227.262
228.131
229.117
230.22
231.429
232.74
234.123
235.561
237.02
238.475
239.89
241.253
242.551
243.818
245.19
247.09
250.657
256.607
262.169
265.142
266.113
266.093
265.856
265.316
264.512
263.685
262.892
262.13
261.393
260.678
259.978
206.581
205.407
206.105
209.621
209.132
206.978
205.404
206.36
207.428
205.492
206.629
260.726
260.433
207.894
205.641
208.405
206.907
207.192
209.782
208.908
207.483
207.776
208.075
208.383
260.794
260.5
260.224
259.982
260.499
261.228
261.983
262.772
263.593
264.434
265.179
265.658
265.858
265.772
264.553
261.303
255.845
250.513
247.41
245.698
244.459
243.312
242.131
240.878
239.554
238.172
236.755
235.33
233.929
232.579
231.301
230.12
229.042
228.078
227.227
226.483
225.836
225.276
224.796
224.389
224.042
223.738
223.482
223.273
223.105
222.971
222.854
222.758
222.682
222.624
222.579
222.544
222.517
222.496
222.479
222.464
222.448
222.429
222.405
222.374
222.333
222.274
222.195
222.089
221.947
221.76
221.516
221.204
220.811
220.33
219.753
219.086
218.338
217.522
216.654
215.772
214.904
214.07
213.295
212.576
211.929
211.356
210.858
209.523
208.902
210.439
208.694
259.789
205.829
205.834
260.999
261.245
261.46
261.638
261.78
261.885
261.95
261.977
261.966
261.916
261.826
261.697
261.528
261.322
261.084
260.82
260.538
260.25
259.967
259.704
259.474
259.292
206.153
205.584
206.055
210.297
210.47
210.689
210.965
211.323
211.77
212.313
212.936
213.629
214.377
215.166
215.984
216.811
217.626
218.406
219.133
219.792
220.371
220.868
221.284
221.625
221.898
222.112
222.278
222.404
222.498
222.566
222.614
222.645
222.664
222.674
222.673
222.67
222.663
222.651
222.639
222.627
222.618
222.611
222.61
222.616
222.63
222.654
222.691
222.742
222.812
222.901
223.016
223.159
223.333
223.544
223.791
224.095
224.456
224.881
225.37
225.928
226.576
227.314
228.153
229.095
230.14
231.303
232.572
233.939
235.371
236.854
238.349
239.844
241.292
242.727
244.163
245.946
248.96
254.656
260.996
264.78
266.135
266.182
265.965
265.433
264.595
263.722
262.884
262.087
261.326
260.59
259.873
259.172
209.187
206.508
205.506
206.297
209.581
210.162
206.895
205.541
206.554
260.066
259.773
207.31
205.655
205.823
207.759
206.822
207.098
208.228
207.379
208.756
207.666
210.089
209.248
207.955
208.25
208.545
260.131
259.832
259.549
259.299
259.095
259.662
260.388
261.136
261.915
262.732
263.596
264.488
265.249
265.712
265.896
265.699
264.091
260.106
254.128
249.159
246.531
244.922
243.612
242.3
240.944
239.526
238.07
236.6
235.146
233.739
232.397
231.15
230.008
228.983
228.063
227.245
226.527
225.899
225.356
224.886
224.475
224.125
223.83
223.588
223.388
223.217
223.079
222.966
222.879
222.809
222.756
222.717
222.69
222.671
222.661
222.656
222.655
222.654
222.655
222.655
222.65
222.641
222.624
222.597
222.555
222.495
222.411
222.296
222.14
221.935
221.669
221.331
220.908
220.399
219.801
219.114
218.343
217.524
216.674
215.826
214.994
214.202
213.452
212.76
212.137
211.592
211.13
209.844
208.853
209.026
210.734
258.953
205.827
206.026
260.34
260.586
260.8
260.979
261.122
261.226
261.292
261.319
261.307
261.257
261.168
261.039
260.871
260.666
260.429
260.165
259.884
259.595
259.31
259.042
258.806
258.615
258.483
209.265
206.147
205.656
209.17
209.373
206.255
209.573
210.074
210.746
210.913
211.13
211.41
211.757
212.164
212.648
213.217
213.863
214.578
215.346
216.144
216.953
217.755
218.529
219.257
219.923
220.515
221.028
221.462
221.82
222.109
222.339
222.518
222.655
222.757
222.831
222.883
222.917
222.937
222.945
222.943
222.937
222.921
222.903
222.883
222.86
222.837
222.815
222.797
222.781
222.771
222.766
222.771
222.785
222.811
222.85
222.906
222.981
223.077
223.199
223.349
223.532
223.756
224.025
224.339
224.713
225.137
225.634
226.208
226.858
227.582
228.387
229.291
230.284
231.373
232.562
233.852
235.237
236.677
238.176
239.68
241.227
242.743
244.503
247.086
252.277
259.338
264.282
266.207
266.38
266.172
265.646
264.773
263.849
262.967
262.136
261.344
260.583
259.844
259.125
258.421
206.495
205.628
206.502
259.404
259.112
206.863
205.697
205.834
207.253
206.76
207.028
207.672
206.017
207.303
208.124
207.582
208.59
207.865
209.115
208.151
210.436
209.624
208.438
208.73
259.469
259.168
258.882
258.625
258.413
258.26
258.177
258.884
259.608
260.353
261.125
261.933
262.786
263.695
264.637
265.419
265.858
266.022
265.667
263.522
258.589
252.167
247.681
245.39
243.776
242.344
240.88
239.405
237.917
236.447
235.02
233.651
232.374
231.197
230.121
229.142
228.258
227.468
226.766
226.139
225.586
225.105
224.695
224.342
224.039
223.784
223.57
223.394
223.251
223.135
223.043
222.971
222.916
222.877
222.851
222.835
222.828
222.827
222.833
222.841
222.854
222.866
222.878
222.891
222.896
222.898
222.891
222.876
222.849
222.803
222.738
222.644
222.517
222.345
222.12
221.831
221.468
221.024
220.489
219.865
219.162
218.401
217.591
216.773
215.954
215.141
214.359
213.632
212.972
212.371
211.84
211.387
210.157
211.006
210.749
209.026
212.269
205.865
211.521
211.317
209.333
209.501
209.593
210.039
210.618
209.654
210.036
210.542
209.738
210.067
210.517
210.129
209.849
210.514
209.649
210.546
210.214
209.977
206.231
259.676
259.921
260.133
260.311
260.453
260.556
260.621
260.648
260.637
260.587
260.499
260.371
260.204
260.002
259.767
259.506
259.227
258.939
258.654
258.385
258.145
257.947
257.805
257.73
211.978
212.562
213.164
213.829
214.549
215.305
216.095
216.915
217.733
218.524
219.277
219.973
220.604
221.154
221.623
222.007
222.317
222.56
222.748
222.889
222.994
223.067
223.119
223.149
223.168
223.172
223.169
223.16
223.143
223.125
223.104
223.081
223.06
223.04
223.025
223.012
223.006
223.007
223.016
223.035
223.067
223.114
223.178
223.262
223.368
223.499
223.66
223.854
224.086
224.359
224.68
225.056
225.489
225.983
226.547
227.176
227.883
228.665
229.511
230.434
231.439
232.525
233.709
234.979
236.343
237.761
239.237
240.745
242.277
243.91
246.014
249.911
256.522
262.677
265.621
266.245
266.111
265.712
264.892
263.892
262.937
262.049
261.214
260.417
259.65
258.906
258.183
206.172
205.756
206.467
258.809
258.507
258.22
257.96
257.742
257.58
257.486
257.479
211.002
211.028
211.101
211.216
211.374
211.579
211.847
212.183
212.584
213.051
213.583
214.182
214.851
215.579
216.345
217.135
217.924
218.69
219.414
220.081
220.681
221.206
221.654
222.027
222.332
222.576
222.768
222.916
223.027
223.109
223.167
223.205
223.227
223.237
223.235
223.228
223.21
223.188
223.162
223.133
223.104
223.073
223.041
223.012
222.987
222.966
222.952
222.943
222.941
222.949
222.969
223.003
223.053
223.121
223.21
223.324
223.464
223.635
223.842
224.086
224.377
224.712
225.107
225.56
226.074
226.66
227.308
228.035
228.837
229.696
230.63
231.639
232.73
233.913
235.189
236.559
237.992
239.504
241.049
242.757
245.031
249.453
256.87
263.409
266.252
266.671
266.484
265.972
265.069
264.079
263.146
262.278
261.456
260.669
259.907
259.167
258.444
257.738
206.504
205.77
205.869
206.861
206.718
206.979
207.244
206.027
258.739
258.449
207.247
207.644
206.224
207.521
208.059
207.799
208.505
208.079
208.975
208.36
209.48
208.642
210.019
208.926
210.582
209.216
209.511
210.997
210.605
209.813
211.473
211.027
205.934
212.735
211.425
210.322
210.125
206.448
212.36
212.702
213.197
213.915
214.681
215.473
216.278
217.085
217.881
218.668
219.429
220.131
220.761
221.32
221.797
222.199
222.525
222.787
222.989
223.144
223.259
223.342
223.4
223.437
223.459
223.465
223.462
223.453
223.433
223.411
223.385
223.357
223.33
223.301
223.273
223.248
223.229
223.214
223.206
223.201
223.207
223.225
223.256
223.301
223.363
223.446
223.55
223.679
223.837
224.026
224.25
224.513
224.818
225.171
225.573
226.029
226.541
227.12
227.756
228.464
229.227
230.057
230.933
231.866
232.861
233.926
235.091
236.338
237.694
239.106
240.634
242.199
244.2
247.413
253.765
261.197
265.398
266.559
266.467
266.081
265.254
264.198
263.199
262.274
261.407
260.583
259.793
259.03
258.289
257.568
259.008
259.251
259.461
259.637
259.776
259.878
259.942
259.968
259.957
259.908
259.821
259.695
259.53
259.331
259.1
258.843
258.567
258.282
257.999
257.73
257.488
257.286
257.136
257.052
257.048
206.236
205.879
211.481
215.979
205.931
206.559
206.69
206.944
211.51
211.59
211.709
211.86
212.059
212.311
212.63
213.012
213.463
213.98
214.559
215.195
215.881
216.612
217.371
218.135
218.885
219.602
220.268
220.871
221.402
221.86
222.246
222.564
222.821
223.025
223.184
223.305
223.396
223.459
223.504
223.529
223.542
223.541
223.536
223.518
223.495
223.466
223.434
223.4
223.363
223.324
223.287
223.251
223.218
223.189
223.165
223.148
223.14
223.137
223.142
223.16
223.194
223.244
223.312
223.402
223.515
223.656
223.826
224.029
224.269
224.549
224.874
225.247
225.669
226.147
226.679
227.277
227.932
228.653
229.433
230.272
231.151
232.087
233.076
234.143
235.296
236.56
237.908
239.379
240.917
242.99
246.477
253.486
261.62
266.039
267.054
266.888
266.403
265.489
264.411
263.422
262.514
261.662
260.847
260.062
259.301
258.561
257.838
257.132
206.901
206.056
258.149
257.849
257.562
257.301
257.079
256.911
256.808
256.79
256.865
258.072
257.787
211.084
211.124
210.687
207.208
207.259
206.232
207.477
207.642
206.441
207.75
208.05
208.027
208.466
208.304
208.907
208.581
209.38
208.858
209.882
209.138
210.47
209.419
212.537
209.703
209.993
206.031
212.17
212.228
206.023
206.326
206.922
258.337
258.576
258.783
258.956
259.093
259.192
259.255
259.281
259.27
259.222
259.136
259.011
258.85
258.655
258.429
258.177
257.906
257.625
257.345
257.078
256.836
256.631
256.477
256.385
256.37
256.442
230.837
212.068
212.203
212.371
212.551
212.812
213.117
213.482
213.909
214.403
214.96
215.575
216.238
216.939
217.665
218.399
219.126
219.828
220.485
221.085
221.62
222.084
222.478
222.806
223.074
223.289
223.459
223.589
223.687
223.759
223.809
223.839
223.857
223.858
223.854
223.838
223.815
223.785
223.752
223.716
223.675
223.633
223.59
223.547
223.506
223.467
223.432
223.402
223.377
223.362
223.355
223.354
223.36
223.382
223.42
223.475
223.549
223.645
223.765
223.912
224.089
224.299
224.544
224.828
225.153
225.522
225.936
226.397
226.906
227.462
228.067
228.716
229.418
230.171
230.974
231.823
232.688
233.606
234.566
235.62
236.75
238.025
239.407
241.105
243.876
249.477
258.419
265.194
267.328
267.267
266.876
265.989
264.852
263.8
262.844
261.957
261.117
260.311
259.532
258.776
258.041
257.324
256.623
206.639
206.108
212.822
213.222
213.671
214.196
214.823
215.569
216.395
217.242
218.07
218.867
219.613
220.303
220.942
221.515
222.005
222.413
222.751
223.023
223.239
223.406
223.532
223.625
223.69
223.734
223.76
223.772
223.769
223.761
223.741
223.717
223.688
223.658
223.626
223.591
223.557
223.524
223.494
223.466
223.444
223.429
223.423
223.418
223.424
223.443
223.476
223.525
223.592
223.679
223.788
223.922
224.085
224.278
224.506
224.77
225.075
225.422
225.814
226.253
226.741
227.277
227.866
228.5
229.194
229.938
230.738
231.581
232.452
233.368
234.343
235.385
236.533
237.777
239.155
240.61
242.376
245.058
250.452
258.618
264.704
266.825
266.808
266.499
265.717
264.622
263.573
262.605
261.704
260.855
260.044
259.262
258.506
257.771
257.056
257.49
257.194
256.909
256.648