/*--------------------------------*- C++ -*----------------------------------*\
| =========                 |                                                 |
| \\      /  F ield         | OpenFOAM: The Open Source CFD Toolbox           |
|  \\    /   O peration     | Version:  2212                                  |
|   \\  /    A nd           | Website:  www.openfoam.com                      |
|    \\/     M anipulation  |                                                 |
\*---------------------------------------------------------------------------*/
FoamFile
{
    version     2.0;
    format      ascii;
    arch        "LSB;label=32;scalar=64";
    class       volScalarField;
    location    "0.0535";
    object      T;
}
// * * * * * * * * * * * * * * * * * * * * * * * * * * * * * * * * * * * * * //

dimensions      [0 0 0 1 0 0 0];

internalField   nonuniform List<scalar> 
2308
(
236.31
260.202
260.681
234.494
228.236
224.634
223.438
226.434
229.52
212.662
212.681
213.214
213.739
214.459
215.246
216.093
217.003
217.921
217.011
216.102
215.242
214.404
213.689
212.974
212.574
212.613
212.83
213.117
223.833
217.945
213.608
214.616
216.283
219.303
224.945
231.325
238.521
242.605
242.442
241.914
241.514
240.595
240.128
240.224
240.366
240.536
240.458
240.717
240.836
241.016
241.083
239.341
235.907
233.355
230.449
227.315
222.327
217.922
215.803
214.423
213.788
213.416
213.268
213.178
213.437
213.702
214.107
214.735
215.45
216.261
217.138
240.569
240.597
217.223
216.258
215.369
214.532
213.813
213.194
212.983
213.071
213.289
213.668
214.326
215.869
218.055
222.815
227.498
230.075
232.445
235.117
238.57
241.104
241.215
240.971
240.901
240.624
240.655
218.817
240.718
218.914
218.088
241.148
241.32
241.394
241.604
241.488
238.404
234.96
232.429
230.711
229.358
228.476
227.279
226.194
223.434
219.221
216.742
215.33
214.755
214.51
214.403
214.421
214.577
214.783
215.256
215.894
216.646
217.478
227.238
223.872
223.065
223.586
218.656
217.523
216.483
215.585
214.836
214.219
213.949
214.09
214.241
214.646
215.426
216.893
219.935
224.02
226.103
227.21
228.246
228.967
230.259
231.897
234.182
237.643
241.543
241.951
241.648
241.589
241.385
241.47
240.855
240.92
240.755
227.298
241.291
227.943
227.397
219.107
230.572
227.221
219.88
218.402
241.667
241.138
241.5
241.051
241.482
243.096
242.905
242.828
242.984
242.218
238.377
234.834
232.168
230.317
229.073
228.328
227.833
227.471
227.101
226.805
226.258
225.016
221.66
218.695
217.443
216.686
216.412
216.182
216.076
215.948
216.114
216.574
217.192
217.935
220.963
241.289
227.049
225.792
224.424
223.228
222.087
220.99
219.882
218.826
217.798
216.859
216.089
215.519
215.342
215.428
215.781
216.189
217.381
218.81
222.495
225.784
226.568
226.87
227.161
227.371
227.691
228.118
228.757
229.891
231.573
234.098
237.666
242.218
243.122
242.877
242.945
243.097
266.398
229.281
238.62
243.176
252.412
228.662
219.416
221.123
246.305
246.138
243.541
239.499
235.822
232.885
230.882
229.483
228.445
227.806
227.414
227.141
227.071
227.064
227.098
227.162
227.066
226.587
224.762
221.847
219.954
218.983
218.312
217.984
217.795
217.685
217.707
218.048
218.604
218.753
231.9
226.916
225.469
224.262
223.202
222.178
221.104
220.092
219.124
218.277
217.537
217.113
217.024
217.211
217.572
218.417
219.716
222.306
225.591
227.02
227.425
227.345
227.246
227.064
227.02
227.035
227.227
227.608
228.141
229.09
230.33
232.238
234.906
238.685
243.14
245.927
246.025
246.078
243.392
241.935
241.634
242.139
241.646
241.886
243.423
246.386
241.736
258.805
268.042
230.222
236.217
260.082
219.272
219.668
232.936
231.784
238.772
226.159
225.215
224.235
223.244
222.272
221.343
220.464
219.727
219.138
218.899
219.006
219.301
219.919
220.997
222.913
225.974
228.131
228.508
228.41
228.285
228.11
227.832
227.337
227.092
227.141
227.265
227.436
227.789
228.37
229.1
230.219
231.683
234.033
236.751
242.133
248.088
250.139
250.087
246.437
243.79
242.563
242.438
242.742
242.475
242.516
243.882
246.518
250.049
250.063
249.817
243.672
237.997
235.193
232.54
230.843
229.65
228.733
228.087
227.628
227.406
227.236
227.164
227.334
227.707
227.88
227.995
228.107
228.039
227.359
225.174
222.811
221.297
220.405
219.935
219.663
219.537
219.446
219.643
233.197
220.001
220.693
222.157
233.661
232.63
230.876
229.214
227.663
226.293
226.1
225.266
224.359
223.483
222.632
221.936
221.272
220.988
221.024
221.296
221.776
222.727
224.225
226.884
229.349
229.887
229.832
229.654
229.445
229.116
228.579
228.206
227.879
227.689
227.696
227.834
228.016
228.292
228.672
229.348
230.225
231.436
233.013
235.66
238.414
243.86
250.601
253.762
253.722
249.943
246.672
244.713
243.528
243.42
243.577
243.458
243.775
244.733
246.657
249.905
253.755
253.811
252.256
246.104
240.141
237.177
234.374
232.482
231.032
230.107
229.232
228.778
228.36
228.154
227.924
227.827
227.947
228.255
228.626
228.999
229.187
229.274
229.404
229.376
228.414
226.066
224.057
222.81
222.062
221.706
221.517
221.407
220.089
234.4
234.524
268.23
220.604
227.817
229.28
231.068
221.739
224.681
222.427
220.845
234.268
233.182
253.322
249.694
247.154
245.917
245.523
245.421
245.33
245.485
245.834
245.858
246.833
249.459
253.21
256.957
256.971
256.9
251.376
245.429
241.615
239.272
236.395
234.314
232.79
231.807
231.029
230.482
230.022
229.661
229.341
229.197
229.217
229.367
229.587
229.901
230.289
230.611
230.772
230.845
230.952
230.809
229.536
227.281
225.554
224.54
223.897
223.585
221.404
227.988
235.4
242.938
255.492
225.541
224.762
224.046
223.587
223.349
223.324
223.506
223.919
224.676
226.21
228.354
230.684
231.419
231.337
231.14
230.971
230.616
230.079
229.685
229.339
229.106
228.912
228.81
228.833
229.043
229.406
229.722
230.295
230.827
231.833
232.956
235.012
237.438
240.266
243.334
249.434
255.8
256.876
256.969
235.72
235.923
267.963
221.751
235.286
221.239
260.17
260.018
258.096
252.953
248.092
245.694
242.837
240.186
237.712
236.172
234.92
234.06
233.253
232.663
232.069
231.623
231.316
231.267
231.254
231.321
231.44
231.637
231.893
232.213
232.473
232.583
232.605
232.655
232.527
231.415
229.462
227.739
226.739
223.417
226.713
236.22
256.171
252.156
248.71
247.409
247.642
248.525
248.855
248.54
248.703
247.947
246.944
246.826
248.343
251.759
255.761
259.679
228.784
233.39
231.069
229.243
228.131
225.03
224.953
257.872
240.383
226.719
226.334
225.936
225.746
225.893
226.296
226.967
228.285
230.29
232.3
232.988
232.792
232.673
232.547
232.242
231.803
231.446
231.159
230.938
230.803
230.692
230.64
230.651
230.815
231.241
231.781
232.392
233.118
233.986
235.101
236.556
238.765
241.366
244.37
246.724
251.496
256.677
260.031
260.284
260.102
266.406
221.627
222.66
236.784
237.153
237.307
225.85
267.114
264.232
224.039
222.024
225.955
224.174
245.07
242.531
262.956
261.726
261.799
261.791
260.069
256.556
252.925
250.484
247.877
245.323
242.869
240.936
239.433
238.294
237.269
236.422
235.638
234.946
234.446
234.204
234.033
233.97
233.946
233.943
234.021
234.138
234.314
234.521
234.76
234.873
234.816
234.811
234.673
233.798
232.341
231.136
227.393
236.115
239.614
258.799
254.359
250.313
247.816
247.651
248.853
250.477
251.279
251.481
250.64
249.398
247.827
246.811
247.324
249.838
253.564
258.13
260.765
225.283
233.327
231.058
229.355
228.871
228.909
254.394
240.732
229.585
229.257
229.226
229.263
229.484
230.066
231.257
232.982
234.291
234.663
234.527
234.512
234.429
234.218
233.937
233.728
233.526
233.403
233.316
233.28
233.292
233.331
233.439
233.653
234.157
234.791
235.644
236.45
237.528
238.609
240.098
241.894
244.341
246.787
249.465
251.99
255.322
259.047
261.555
261.922
261.903
261.329
229.341
223.297
239.185
233.617
235.696
237.629
222.013
238.182
238.557
238.724
261.025
235.71
255.085
222.246
236.657
226.225
268.015
266.556
237.817
238.084
237.954
237.972
238.058
237.991
237.873
237.737
237.624
237.53
237.532
237.555
237.608
237.755
237.9
238.161
238.463
238.969
239.652
240.531
241.47
242.491
243.691
244.982
246.762
248.831
251.149
253.415
255.68
257.476
258.953
260.573
261.558
261.545
261.539
261.172
264.877
259.888
256.632
252.002
248.545
246.999
247.696
249.152
250.463
251.262
251.511
250.626
249.497
248.057
246.772
246.387
248.052
251.375
255.843
259.339
260.314
227.789
225.458
231.525
267.879
268.697
269.325
269.378
269.142
267.751
266.242
264.713
248.281
263.085
233.088
235.506
235.578
233.779
236.135
238.346
222.549
229.555
264.736
233.168
231.045
229.894
230.23
231.011
231.337
247.337
235.207
234.434
234.098
234.138
234.794
235.861
236.514
236.726
236.694
236.732
236.82
236.951
236.918
236.902
236.878
236.836
236.838
236.854
236.905
236.969
237.1
237.276
237.553
237.853
238.354
239.022
239.937
240.898
241.944
243.126
244.419
246.089
248.104
250.381
252.582
254.817
256.7
258.244
259.819
261.124
261.344
261.339
261.139
260.388
236.052
233.382
231.316
254.891
231.608
223.295
258.72
230.517
261.132
240.206
239.936
239.623
233.761
236.213
233.754
264.989
236.164
259.152
263.754
243.987
232.328
233.159
265.526
267.015
268.542
243.023
242.939
242.94
243.004
243.004
242.979
242.861
242.782
242.689
242.695
242.721
242.81
242.952
243.138
243.358
243.672
244.056
244.664
245.396
246.332
247.214
248.305
249.386
250.776
252.522
254.541
256.197
257.377
258.263
258.832
259.349
259.914
260.001
259.852
259.848
259.769
259.568
234.983
232.972
231.484
231.296
232.985
235.222
250.599
226.411
228.406
231.562
231.388
263.123
263.293
238.573
238.735
221.337
257.028
255.326
228.314
227.922
269.372
264.047
266.068
238.28
259.424
258.177
254.72
250.474
247.693
246.798
247.869
249.239
250.441
251.121
251.34
250.552
249.521
248.169
246.921
246.185
247.325
250.057
254.204
257.744
259.315
259.16
269.935
270.451
270.818
270.794
270.537
269.964
262.495
225.143
229.59
230.062
230.735
252.589
261.082
261.488
241.731
256.747
240.473
240.513
259.325
223.478
265.856
268.058
241.446
249.932
247.437
245.458
244.61
243.967
243.471
243.089
242.777
242.467
242.301
242.244
242.25
242.292
242.371
242.466
242.472
242.482
242.503
242.559
242.607
242.716
242.847
243.022
243.224
243.514
243.864
244.403
245.105
245.989
246.893
247.88
248.972
250.189
251.822
253.749
255.47
256.692
257.637
258.245
258.784
259.368
259.606
259.533
259.456
259.426
259.269
258.961
268.607
246.433
263.145
231.538
263.355
238.725
262.766
254.689
226.162
260.835
226.525
226.294
251.761
242.965
238.504
235.629
233.717
233.693
235.082
237.17
241.426
239.739
256.54
232.624
253.355
239.645
251.316
251.28
251.056
250.906
250.823
250.773
250.635
250.341
249.974
249.734
249.517
249.399
249.279
249.214
249.221
249.254
249.345
249.506
249.823
250.284
250.936
251.661
252.415
253.313
254.234
255.521
256.725
257.631
258.176
258.473
258.725
258.742
258.645
258.359
258.004
257.437
257.297
257.098
257.157
257.337
264.145
265.725
267.25
268.806
258.549
260.055
236.275
233.905
234.39
243.536
237.969
240.588
220.208
255.606
236.451
227.238
229.569
229.729
233.387
241.807
261.427
261.65
242.881
242.94
221.571
256.485
225.066
254.127
251.26
241.238
241.161
257.499
223.88
225.436
242.907
237.924
251.6
253.417
256.977
233.746
239.41
270.266
271.433
272.139
272.483
272.643
272.572
272.29
271.778
270.891
227.903
224.991
242.612
243.224
259.406
250.798
258.988
257.304
256.536
255.607
254.738
253.95
253.215
252.549
252.001
251.578
251.292
251.105
250.995
250.874
250.631
250.323
250.049
249.836
249.666
249.509
249.394
249.248
249.19
249.168
249.197
249.289
249.483
249.881
250.402
251.121
251.785
252.624
253.447
254.63
255.934
256.947
257.611
257.941
258.208
258.298
258.228
257.993
257.619
257.102
256.812
256.663
256.674
256.82
257.17
258.75
258.795
257.052
253.446
249.422
247.097
246.463
247.603
248.852
249.957
250.685
250.921
250.154
249.104
247.895
246.748
245.945
246.796
249.213
253.127
256.8
258.81
258.962
257.62
229.48
259.678
242.541
244.573
243.139
259.413
268.825
261.278
223.186
223.284
258.411
255.699
248.9
243.63
239.238
237.054
236.683
237.926
239.855
242.246
247.276
245.716
244.674
231.05
229.56
237.92
261.65
244.009
220.515
251.984
248.815
248.286
241.383
255.284
224.493
254.995
238.047
241.052
238.636
237.167
237.402
240.347
244.685
248.634
258.365
265.918
230.102
260.049
261.574
263.142
264.619
266.534
269.056
226.886
224.952
272.119
244.644
272.067
273.553
273.71
273.812
273.976
274.088
274.152
274.15
274.121
274.13
273.917
272.814
248.09
257.622
235.091
238.741
223.216
264.949
229.474
259.75
260.022
260.192
260.162
260.049
259.839
259.527
259.156
258.753
258.385
258.071
257.79
257.463
257.003
256.398
255.869
255.391
255
254.585
254.263
253.871
253.65
253.296
253.186
253.102
253.137
253.263
253.531
254.001
254.575
255.17
255.813
256.397
257.072
257.517
257.814
257.921
257.864
257.661
257.228
256.53
255.573
254.52
253.549
252.921
252.669
252.736
252.963
253.491
253.88
257.291
258.487
258.375
256.559
253.206
249.57
247.365
246.777
247.618
248.787
249.512
249.905
250.099
249.574
248.952
247.897
246.833
246.293
247.075
249.324
253.003
256.441
258.485
258.732
257.689
254.402
254.046
253.514
253.271
253.182
253.403
253.885
254.8
255.797
256.784
257.53
258.029
258.275
258.363
258.336
258.075
257.705
257.126
256.552
255.999
255.358
254.803
254.267
253.934
253.763
253.7
253.701
253.826
254.05
254.354
254.64
255.028
255.404
255.892
256.436
257.11
257.604
257.966
258.221
258.486
258.736
258.961
258.507
259.442
259.906
243.791
253.374
236.535
260.035
259.686
225.233
260.171
244.776
247.94
226.602
232.93
228.877
228.123
235.087
230.506
259.81
259.714
245.874
252.913
247.666
246.129
251.313
243.387
243.662
257.846
253.68
245.188
225.082
255.795
243.803
248.861
250.42
246.801
246.534
259.87
232.644
228.439
229.044
246.15
244.199
242.627
241.677
242.216
245.223
250.484
255.448
258.725
259.577
259.515
246.113
247.965
224.005
259.441
259.173
256.197
251.52
245.888
242.455
241.925
243.007
257.6
226.181
255.379
257.007
258.509
259.73
225.111
249.59
227.268
251.328
232.837
255.656
260.97
257.422
258.137
259.908
261.454
263.946
266.944
270.533
226.998
227.182
260.404
261.201
261.069
261.147
261.703
261.495
261.484
261.422
261.223
261.044
260.798
260.45
259.97
259.487
258.972
258.513
258.044
257.663
257.26
256.973
256.679
256.462
256.4
256.411
256.48
256.639
256.912
257.236
257.504
257.716
257.814
257.977
258.016
257.968
257.813
257.482
257.02
256.325
255.239
253.675
251.819
250.114
248.863
248.212
248.145
248.312
248.693
249.323
249.772
246.353
245.626
254.582
257.561
258.478
258.225
256.062
252.467
248.699
246.798
246.204
246.787
247.555
247.885
248.098
248.332
248.033
247.644
247.034
246.238
245.741
246.453
248.492
252.268
255.946
258.311
258.709
257.881
255.02
250.488
251.189
273.343
274.547
274.58
274.63
274.709
274.771
274.777
274.784
274.808
274.885
274.776
273.814
271.462
262.955
265.58
269.561
270.361
259.985
260.04
260.266
260.696
261.059
261.325
261.473
261.451
261.356
261.158
260.922
260.686
260.362
259.931
259.402
258.908
258.433
257.992
257.569
257.176
256.818
256.491
256.253
255.981
255.903
255.897
255.946
256.071
256.322
256.655
256.957
257.19
257.338
257.482
257.589
257.569
257.454
257.182
256.763
256.136
255.133
253.631
251.757
249.932
248.546
247.772
247.65
247.812
248.203
248.882
249.383
250.172
253.501
248.704
257.947
257.886
230.928
228.743
226.443
231.395
249.144
246.474
260.484
248.093
228.422
260.141
260.261
260.305
259.871
258.39
256.645
253.311
250.274
249.405
258.797
218.742
253.325
255.857
257.72
258.609
260.513
250.235
249.126
249.242
250.167
252.873
256.449
258.382
259.92
260.446
260.532
228.364
227.79
229.704
257.99
249.119
251.302
248.964
246.286
260.171
260.231
260.405
261.038
261.083
261.159
261.584
261.678
261.791
261.771
261.694
261.569
261.373
261.111
260.819
260.532
260.221
259.92
259.6
259.331
259.048
258.873
258.608
258.516
258.394
258.305
258.243
258.195
258.161
258.121
258.062
257.961
257.852
257.711
257.515
257.261
256.899
256.33
255.335
253.644
251.213
248.437
245.984
244.327
243.512
243.372
243.543
243.985
244.546
245.182
245.69
246.338
256.206
257.785
258.715
259.445
260.63
262.576
265.199
267.927
268.349
229.7
255.892
247.868
253.776
255.841
228.747
226.199
261.543
263.543
267.108
268.583
230.739
250.704
268.721
271.921
271.922
270.788
270.033
269.328
268.696
268.667
268.819
269.357
270.12
270.781
270.967
268.362
268.032
266.019
250.552
254.833
257.575
258.397
258.073
255.92
252.598
249.134
247.25
246.369
246.167
246.237
246.384
246.558
246.797
246.553
246.362
246.269
246.125
246.193
247.024
249.005
252.418
255.818
258.157
258.614
257.866
255.228
250.827
246.702
260.368
260.271
260.338
260.573
260.934
261.256
261.477
261.594
261.592
261.552
261.461
261.304
261.073
260.774
260.467
260.171
259.857
259.564
259.255
259.004
258.723
258.56
258.281
258.173
258.042
257.937
257.863
257.805
257.768
257.729
257.676
257.591
257.477
257.368
257.19
256.968
256.648
256.146
255.264
253.712
251.37
248.563
245.968
244.146
243.216
243.028
243.198
243.658
244.26
244.948
245.503
246.208
246.603
248.905
251.451
255.944
228.08
227.661
244.231
243.667
254.829
244.899
244.711
255.738
247.497
251.639
258.276
257.802
254.714
257.467
247.826
250.978
245.01
245.962
244.419
244.501
244.613
244.467
244.615
244.806
244.314
244.426
244.965
244.465
247.81
245.946
254.762
251.101
258.104
257.395
255.441
257.576
244.191
244.696
247.448
251.444
242.998
243.586
241.683
242.342
240.574
241.058
240.701
240.379
244.061
241.862
250.297
247.091
254.738
252.957
256.338
255.766
256.971
256.695
257.41
257.214
257.745
257.574
258.108
257.923
258.525
258.31
258.981
258.75
259.465
259.216
259.967
259.716
260.45
260.209
260.893
260.675
261.268
261.09
261.514
261.415
261.58
261.561
261.479
261.573
261.054
261.306
260.472
260.762
260.161
260.26
260.259
260.193
260.012
260.218
259.125
259.631
258.667
258.804
258.047
258.347
255.453
256.04
259.537
256.299
263.758
262.322
263.878
264.386
265.013
263.716
267.779
266.594
266.442
256.665
262.281
253.941
254.868
252.826
253.2
252.349
252.541
252.132
252.176
252.454
252.184
254.238
253.111
268.349
256.172
268.878
266.87
270.263
268.385
268.029
268.009
266.832
267.392
263.565
264.937
263.763
263.42
261.526
263.14
257.031
259.094
256.873
256.666
258.054
258.11
258.428
258.264
259.37
258.826
259.907
259.735
260.049
260.008
260.37
260.151
260.901
260.732
261.336
261.042
261.704
261.544
261.744
261.763
261.625
261.705
261.336
261.495
260.946
261.154
260.49
260.728
259.998
260.25
259.503
259.748
259.045
259.271
258.617
258.825
258.244
258.423
257.902
258.068
257.528
257.734
256.971
257.267
255.919
256.572
252.815
254.759
246.838
250.038
241.902
243.935
240.602
240.864
241.277
240.807
242.494
241.872
243.112
270.627
267.808
253.779
224.175
245.344
249.921
245.34
264.637
271.878
272.801
272.817
272.117
272.154
272.557
272.547
222.957
249.396
253.748
251.404
251.429
219.819
221.107
219.843
231.908
229.263
230.604
233.088
230.177
231.642
234.12
230.887
232.468
234.975
231.367
233.185
248.092
227.519
272.193
227.72
268.382
225.571
238.159
246.177
226.841
228.087
248.149
222.495
217.954
249.644
261.121
222.33
260.457
259.292
259.951
267.582
240.677
226.656
253.037
224.14
267.001
222.408
244.937
223.06
222.524
225.701
231.732
271.973
265.874
241.591
260.194
260.156
253.322
268.627
262.547
231.455
269.864
254.508
231.25
243.701
240.323
219.793
262.636
252.294
236.686
225.939
212.967
212.896
253.541
)
;

boundaryField
{
    wall
    {
        type            zeroGradient;
    }
    outlet
    {
        type            inletOutlet;
        inletValue      uniform 85;
        value           nonuniform List<scalar> 
33
(
255.737
247.497
251.637
258.277
257.803
254.719
257.47
247.831
250.983
245.013
245.966
244.42
244.505
244.611
244.466
244.614
244.804
244.313
244.425
244.968
244.466
247.815
245.949
254.767
251.106
258.106
257.398
255.44
257.577
247.448
251.443
245.344
245.341
)
;
    }
    inlet
    {
        type            fixedValue;
        value           uniform 273.16;
    }
    frontAndBackPlanes
    {
        type            empty;
    }
}


// ************************************************************************* //
