/*--------------------------------*- C++ -*----------------------------------*\
| =========                 |                                                 |
| \\      /  F ield         | OpenFOAM: The Open Source CFD Toolbox           |
|  \\    /   O peration     | Version:  2212                                  |
|   \\  /    A nd           | Website:  www.openfoam.com                      |
|    \\/     M anipulation  |                                                 |
\*---------------------------------------------------------------------------*/
FoamFile
{
    version     2.0;
    format      ascii;
    arch        "LSB;label=32;scalar=64";
    class       volVectorField;
    location    "0.0336";
    object      U;
}
// * * * * * * * * * * * * * * * * * * * * * * * * * * * * * * * * * * * * * //

dimensions      [0 1 -1 0 0 0 0];

internalField   nonuniform List<vector> 
31661
(
(-79.4467 111.717 4.57133e-16)
(-34.706 645.803 -1.68606e-17)
(-40.839 635.264 2.30576e-17)
(-38.0491 640.369 0)
(-28.4776 648.035 3.38524e-17)
(-35.2154 637.23 -4.59264e-17)
(-32.1244 642.47 -2.82423e-17)
(-22.1247 650.246 0)
(-29.5187 639.122 3.41417e-17)
(-26.0893 644.541 2.50414e-19)
(-157.922 150.086 0)
(-144.18 655.832 -1.53565e-16)
(29.4211 24.7034 -1.17484e-16)
(0.31879 286.062 0)
(30.3522 141.261 1.99458e-16)
(70.4573 151.856 1.31015e-18)
(31.6472 131.401 0)
(-74.2148 135.283 -1.17573e-16)
(137.12 612.897 0)
(71.3601 159.599 0)
(134.498 498.165 6.66792e-17)
(131.772 498.669 -1.6796e-16)
(4.30194 399.316 -1.07783e-18)
(-103.215 201.721 3.59256e-17)
(-3.39335 644.491 -1.527e-16)
(136.07 493.281 0)
(1.52965 383.909 -3.18849e-18)
(31.6347 442.44 -6.25988e-17)
(-144.603 658.267 1.67262e-16)
(106.107 671.09 -8.05826e-17)
(-98.0464 207.52 -4.0006e-16)
(-30.8731 90.7637 1.43919e-16)
(-40.3317 118.884 -7.62093e-17)
(202.631 614.593 8.41536e-17)
(-22.8989 572.282 -2.99891e-17)
(-84.6361 223.175 7.50774e-17)
(174.528 564.1 -2.80356e-16)
(-80.21 223.316 -1.53679e-17)
(-16.0557 430.049 -1.51731e-16)
(-61.6186 180.361 -3.15263e-19)
(67.141 245.184 -2.32624e-16)
(-49.6096 644.137 2.02141e-19)
(45.7694 237.709 1.54174e-16)
(18.8838 596.255 -2.03705e-16)
(17.3854 590.36 -2.13363e-16)
(155.21 652.831 -1.00761e-16)
(23.2651 593.377 -1.02446e-16)
(208.341 597.516 -1.05099e-16)
(181.821 569.389 0)
(1.41793 371.74 0)
(84.6761 336.652 0)
(-3.67416 399.288 -2.88853e-17)
(-157.493 647.883 -4.89867e-17)
(219.35 597.965 9.65164e-17)
(48.8411 468.415 -1.18331e-16)
(-109.014 621.242 9.37411e-17)
(-168.903 641.132 -9.74184e-17)
(-150.222 639.118 -5.0797e-17)
(-0.0921045 333.622 -2.01155e-16)
(-167.188 636.18 -2.22002e-16)
(-158.262 650.335 1.78317e-16)
(-158.45 645.746 0)
(-93.7152 602.713 -2.25769e-16)
(70.1353 656.248 0)
(-238.205 587.359 0)
(129.844 239.406 0)
(-83.3936 51.5026 2.69314e-16)
(-0.0151901 329.4 6.24769e-17)
(0.15724 325.324 1.38797e-17)
(0.400081 321.44 1.11904e-16)
(-126.423 652.481 -7.5418e-17)
(-0.000106851 316.132 -2.87099e-17)
(0.0529076 313.139 0)
(0.149664 311.689 6.69223e-18)
(0.222748 311.184 5.57972e-17)
(0.154558 313.209 -5.65396e-17)
(0.278025 322.553 0)
(0.379074 345.147 0)
(0.706503 386.631 0)
(1.04364 440.635 0)
(0.706746 487.257 -3.23379e-18)
(0.112518 516.214 -3.11461e-17)
(-0.438303 533.856 2.60735e-17)
(-1.0118 546.683 -6.20945e-18)
(13.1906 548.229 3.17644e-17)
(12.0609 535.753 1.52299e-18)
(10.7034 518.836 -2.47041e-17)
(8.93625 491.338 6.47778e-18)
(6.42523 446.296 0)
(3.59764 392.199 1.70804e-18)
(1.87738 348.894 0)
(1.31803 324.459 -5.93895e-17)
(1.15105 313.914 5.62149e-17)
(1.2737 311.201 -1.71732e-18)
(1.29751 311.55 5.67045e-17)
(1.31895 312.717 -5.71765e-17)
(1.42157 315.224 9.55908e-20)
(1.40794 318.531 3.26634e-17)
(1.36486 321.886 0)
(1.38344 325.405 -7.34259e-18)
(1.44395 329.123 7.43539e-18)
(1.56755 332.907 5.52088e-17)
(1.57586 336.726 -8.21157e-18)
(0.371294 339.65 1.09463e-16)
(1.48468 340.633 -6.22104e-17)
(0.157977 344.206 2.86042e-17)
(1.42914 344.89 4.43962e-17)
(0.0614224 348.997 4.27027e-17)
(1.34959 349.511 -7.25977e-18)
(0.0186775 353.97 -3.23257e-17)
(1.26672 354.378 3.2319e-17)
(0.00745026 359.111 0)
(1.17978 359.447 -5.92987e-17)
(0.019268 364.398 0)
(1.08461 364.683 2.98062e-17)
(0.0454967 369.806 0)
(0.975865 370.05 0)
(0.0785213 375.317 -1.11142e-19)
(0.856906 375.527 1.11699e-19)
(0.108065 380.906 -2.2207e-19)
(0.728974 381.089 -7.07884e-18)
(0.134593 386.543 2.21879e-19)
(0.590842 386.704 1.40293e-17)
(0.159374 392.207 6.92626e-18)
(0.445521 392.352 -1.42278e-17)
(0.184792 397.881 -7.14366e-18)
(0.293339 398.014 7.15593e-18)
(0.211228 403.549 -7.17658e-18)
(0.135906 403.672 -3.42931e-18)
(0.237631 409.196 1.24994e-19)
(-0.023901 409.311 5.90433e-20)
(0.266299 414.81 7.10342e-18)
(-0.184746 414.921 3.61087e-18)
(0.296189 420.373 2.19659e-19)
(-0.343385 420.482 3.48405e-18)
(0.325902 425.876 0)
(-0.499171 425.983 -3.4862e-18)
(0.355428 431.311 3.46496e-18)
(-0.652962 431.413 3.57697e-18)
(0.383833 436.673 4.53006e-20)
(-0.8018 436.77 -6.35947e-20)
(0.412021 441.955 -6.33964e-20)
(-0.945818 442.049 -3.47982e-18)
(0.439627 447.148 -7.03459e-18)
(-1.08465 447.238 1.083e-19)
(0.465104 452.246 6.79779e-18)
(-1.21586 452.334 0)
(0.488623 457.246 -3.47206e-18)
(-1.33869 457.331 5.37655e-20)
(0.511063 462.145 -6.68594e-18)
(-1.45484 462.227 0)
(0.53278 466.941 6.57235e-18)
(-1.56282 467.021 1.06757e-19)
(0.553468 471.629 3.37386e-18)
(-1.66281 471.706 1.06339e-19)
(0.572537 476.208 -1.02523e-17)
(-1.75505 476.282 -3.36266e-18)
(0.590205 480.676 3.46566e-18)
(-1.83879 480.747 -3.29293e-18)
(0.606477 485.035 5.72998e-20)
(-1.91527 485.1 3.4523e-18)
(0.621147 489.283 5.6287e-20)
(-1.98326 489.343 5.62502e-20)
(0.634582 493.421 1.01906e-17)
(-2.04248 493.476 3.36566e-18)
(0.647369 497.448 -6.70184e-18)
(-2.09357 497.498 -1.23343e-18)
(0.660675 501.363 -4.13485e-19)
(-2.13691 501.408 1.66815e-18)
(-2.17119 505.208 -4.11941e-19)
(0.673272 505.169 2.04534e-18)
(3.51429 505.192 -1.19683e-18)
(3.45549 501.389 -1.22789e-18)
(3.38823 497.477 0)
(3.31005 493.455 1.47461e-18)
(3.22242 489.321 -3.56143e-18)
(3.12483 485.077 -1.72661e-18)
(3.01701 480.723 3.13908e-18)
(2.89812 476.258 -3.42284e-18)
(2.76797 471.684 3.37655e-18)
(2.62709 467.002 7.11147e-18)
(2.47491 462.213 -1.02621e-17)
(2.31281 457.319 -3.42831e-18)
(2.14043 452.324 1.39268e-17)
(1.95816 447.23 1.26194e-19)
(1.76694 442.042 -3.38123e-18)
(1.56725 436.764 6.35604e-20)
(1.36033 431.404 6.36961e-20)
(1.14745 425.968 -3.47526e-18)
(0.930157 420.463 -7.31469e-18)
(0.710245 414.896 3.42797e-18)
(0.489528 409.277 7.05725e-18)
(0.27021 403.618 1.72361e-19)
(0.0547205 397.936 -7.08284e-18)
(-0.15479 392.246 -3.52358e-18)
(-0.356782 386.563 6.58986e-18)
(-0.549675 380.907 6.65163e-19)
(-0.730966 375.299 0)
(-0.897731 369.751 0)
(-1.04294 364.283 1.77312e-18)
(-1.16373 358.921 -1.4269e-17)
(-1.26047 353.694 1.40486e-17)
(-1.32435 348.624 -3.53347e-17)
(-1.34664 343.698 -2.78876e-17)
(-1.34947 338.861 3.79779e-17)
(-1.03626 334.192 1.10179e-17)
(-1.2484 329.672 -4.95334e-18)
(-1.33789 325.363 -1.31706e-17)
(-1.30776 321.182 0)
(-0.961097 317.076 -1.02593e-16)
(-1.10008 313.608 5.45084e-17)
(-1.02538 311.826 -6.64519e-18)
(-0.901978 311.155 1.07144e-16)
(-0.91181 312.614 -2.96243e-17)
(-0.80373 320.93 -5.66893e-17)
(-1.00341 342.093 -2.32448e-17)
(-1.91047 382.781 1.07015e-16)
(14.1624 559.205 1.77435e-17)
(-1.64604 557.876 1.22422e-17)
(-4.15137 437.601 -8.73467e-17)
(-7.48097 485.859 5.30249e-17)
(-10.4227 515.923 -2.0442e-17)
(-12.8146 534.021 -2.45113e-17)
(-14.9967 547.071 2.5571e-17)
(-2.4042 568.633 0)
(14.8884 569.783 -4.22662e-17)
(32.289 572.574 2.32687e-17)
(30.2704 562.26 6.13513e-18)
(27.9109 551.5 0)
(25.2825 539.377 -1.29168e-17)
(22.2784 523.305 1.54938e-17)
(18.5578 497.679 -3.27622e-18)
(13.4819 454.665 -3.09861e-17)
(7.87107 399.995 -6.44199e-18)
(4.22077 353.852 2.63847e-17)
(2.73726 326.774 3.03347e-17)
(2.21184 314.73 -2.86219e-17)
(2.31312 311.232 -1.72213e-18)
(2.38945 311.456 -6.5275e-18)
(2.44778 312.435 0)
(2.54472 314.789 -1.49884e-17)
(2.63867 318.222 1.55599e-17)
(2.64717 321.759 0)
(2.69324 325.3 5.64819e-18)
(2.78691 328.959 -9.43103e-18)
(2.90544 332.754 -2.68341e-17)
(2.93399 336.74 2.91781e-18)
(2.84449 340.934 0)
(2.75324 345.329 1.48873e-17)
(2.65151 349.96 -2.91605e-17)
(2.52273 354.813 2.93549e-17)
(2.35418 359.859 2.72435e-18)
(2.15117 365.072 -1.05408e-21)
(1.91745 370.422 1.43255e-17)
(1.65587 375.886 -1.44728e-17)
(1.37074 381.436 0)
(1.06509 387.039 -2.79359e-20)
(0.743564 392.68 2.78487e-20)
(0.408374 398.338 0)
(0.0636432 403.989 -2.77707e-20)
(-0.28553 409.627 -3.5026e-18)
(-0.636504 415.232 7.92848e-21)
(-0.987355 420.787 3.56796e-18)
(-1.3325 426.283 3.42751e-18)
(-1.6684 431.706 -3.64887e-18)
(-1.99591 437.052 1.73012e-18)
(-2.31113 442.32 -1.78346e-18)
(-2.61187 447.499 5.41692e-20)
(-2.89842 452.585 5.396e-20)
(-3.17014 457.571 -6.22321e-23)
(-3.42483 462.455 -5.36008e-20)
(-3.66437 467.235 1.695e-18)
(-3.88563 471.91 -1.93085e-18)
(-4.08797 476.475 1.7893e-18)
(-4.2734 480.927 -1.70629e-18)
(-4.44018 485.267 1.88128e-18)
(-4.59046 489.497 -1.69193e-18)
(-4.72286 493.615 1.65746e-18)
(-4.83841 497.622 -4.4313e-19)
(-4.93596 501.518 -2.08359e-18)
(-5.01566 505.303 0)
(-5.07884 508.975 -1.6373e-18)
(-2.19731 508.895 -4.10472e-19)
(0.685394 508.864 -1.64043e-18)
(3.56503 508.884 -7.69328e-19)
(6.44062 508.96 0)
(6.35392 505.28 -4.12233e-19)
(6.24885 501.491 1.67031e-18)
(6.12674 497.592 -1.85862e-18)
(5.9874 493.583 0)
(5.82715 489.463 2.09827e-19)
(5.6478 485.232 -1.69958e-18)
(5.44757 480.891 1.78346e-18)
(5.22746 476.439 2.12132e-19)
(4.987 471.878 0)
(4.72594 467.21 0)
(4.44443 462.436 -1.61149e-19)
(4.144 457.558 1.63189e-18)
(3.82456 452.576 -7.67092e-20)
(3.487 447.495 -1.50345e-18)
(3.13196 442.317 -1.75718e-18)
(2.76123 437.051 1.62202e-18)
(2.37655 431.699 1.76794e-18)
(1.98009 426.268 -1.30182e-18)
(1.57447 420.764 0)
(1.16172 415.196 0)
(0.745144 409.574 0)
(0.32852 403.908 0)
(-0.0833131 398.215 -1.78848e-18)
(-0.485508 392.506 1.7594e-18)
(-0.8729 386.797 4.43752e-19)
(-1.2388 381.107 -4.02548e-18)
(-1.57625 375.454 2.63335e-18)
(-1.87613 369.855 1.77216e-18)
(-2.13902 364.336 -6.10822e-22)
(-2.36635 358.923 7.11941e-18)
(-2.55547 353.632 -6.99223e-18)
(-2.68909 348.476 -7.05984e-18)
(-2.74595 343.497 -6.97909e-18)
(-2.69752 338.732 -2.02055e-17)
(-2.58317 334.191 4.14817e-19)
(-2.63838 329.802 6.68028e-18)
(-2.59741 325.585 -2.69308e-17)
(-2.48011 321.472 5.35383e-17)
(-2.3036 317.467 -2.01532e-17)
(-2.3163 313.943 0)
(-2.18944 311.935 5.87145e-17)
(-2.04668 311.156 -5.32919e-17)
(-1.93172 312.227 -2.81042e-17)
(-1.78925 319.891 2.81144e-17)
(-2.43617 340.676 -2.63404e-17)
(-4.91478 381.721 6.20913e-17)
(-10.0236 437.614 -5.1196e-17)
(-16.2406 487.172 3.27471e-18)
(-17.1687 558.377 -1.23014e-17)
(-21.3587 517.725 3.31216e-17)
(-25.4515 536.027 0)
(-29.0912 549.2 0)
(33.9062 582.779 -2.43086e-17)
(15.3894 580.333 -4.58369e-18)
(-19.3726 569.23 0)
(-3.20164 579.369 5.93688e-18)
(35.0324 592.975 -2.26301e-17)
(53.4883 595.785 1.18777e-17)
(51.8398 586.236 -1.14543e-17)
(49.5076 576.542 -1.82707e-17)
(46.5946 566.623 -6.3155e-19)
(43.1852 556.194 -6.58414e-19)
(39.3488 544.53 1.211e-17)
(34.9454 529.432 -3.21275e-18)
(29.4176 505.91 -1.58621e-18)
(21.8357 465.394 1.69722e-18)
(12.999 410.083 0)
(6.81253 360.25 -8.78465e-19)
(4.14625 329.572 -1.54469e-17)
(3.28914 315.647 1.33918e-17)
(3.34846 311.279 1.73015e-18)
(3.47528 311.321 1.62907e-18)
(3.56178 312.233 0)
(3.69326 314.467 7.40349e-18)
(3.8583 317.885 -7.8776e-18)
(3.96554 321.496 -1.14228e-17)
(4.06415 325.107 -1.86946e-18)
(4.16943 328.816 0)
(4.27849 332.687 7.56555e-18)
(4.31341 336.772 -2.86607e-18)
(4.24991 341.08 0)
(4.13928 345.596 -7.35233e-18)
(3.98835 350.314 2.58078e-17)
(3.78838 355.228 -1.29261e-17)
(3.53941 360.314 -1.0769e-21)
(3.23391 365.553 -9.1077e-19)
(2.87434 370.921 -1.39718e-17)
(2.46803 376.394 2.17414e-17)
(2.02298 381.952 -7.27634e-18)
(1.54651 387.559 2.52917e-19)
(1.0416 393.202 7.08353e-18)
(0.517791 398.86 -3.67043e-18)
(-0.0172074 404.514 -3.59603e-18)
(-0.560692 410.151 0)
(-1.10769 415.749 -3.51569e-18)
(-1.6496 421.292 3.49807e-18)
(-2.18316 426.777 0)
(-2.70293 432.19 3.48311e-18)
(-3.2051 437.522 -3.53605e-18)
(-3.69136 442.771 0)
(-4.15679 447.932 -1.08635e-19)
(-4.59912 453 -5.41675e-20)
(-5.01728 457.966 -1.76564e-18)
(-5.41003 462.829 8.45116e-20)
(-5.77558 467.586 1.72951e-18)
(-6.11524 472.239 2.13193e-19)
(-6.42839 476.784 1.68623e-18)
(-6.71303 481.215 -1.7092e-18)
(-6.97087 485.533 1.46266e-18)
(-7.20093 489.74 -1.69529e-18)
(-7.40457 493.835 1.45161e-18)
(-7.58137 497.819 -1.68071e-18)
(-7.73181 501.692 3.79534e-22)
(-7.8567 505.455 -8.20123e-19)
(-7.95593 509.104 8.35693e-19)
(-8.03055 512.64 1.23681e-18)
(-5.12546 512.534 6.30249e-21)
(-2.21606 512.469 4.08685e-19)
(0.696046 512.445 1.64653e-18)
(3.60562 512.465 4.09735e-18)
(6.51165 512.528 8.17731e-19)
(9.41221 512.636 -2.45783e-18)
(9.31502 509.09 1.63393e-18)
(9.19226 505.434 -4.19755e-19)
(9.04495 501.668 8.23401e-19)
(8.86985 497.792 2.07745e-22)
(8.66638 493.806 0)
(8.43561 489.709 1.48541e-18)
(8.1744 485.502 -1.78025e-18)
(7.88491 481.185 2.11906e-19)
(7.56575 476.756 -2.12774e-19)
(7.21536 472.218 -1.06746e-19)
(6.83654 467.573 0)
(6.42909 462.821 1.73837e-18)
(5.99181 457.966 3.10621e-20)
(5.52575 453.007 -1.6105e-18)
(5.03272 447.945 -2.17737e-19)
(4.51494 442.787 -1.7622e-18)
(3.9744 437.537 3.50422e-18)
(3.41287 432.198 -3.07584e-18)
(2.83227 426.776 -6.92752e-19)
(2.23698 421.279 1.75027e-18)
(1.63143 415.715 -4.42094e-19)
(1.02056 410.092 0)
(0.409816 404.421 4.43684e-19)
(-0.194695 398.716 8.97186e-19)
(-0.785571 392.986 -2.22477e-18)
(-1.35534 387.247 -1.49172e-20)
(-1.89524 381.52 -1.4571e-20)
(-2.39605 375.822 2.66999e-18)
(-2.84941 370.171 -8.68912e-19)
(-3.25171 364.594 -5.3123e-18)
(-3.59254 359.118 -1.78264e-18)
(-3.86254 353.762 1.74756e-18)
(-4.05925 348.554 -7.43032e-18)
(-4.17313 343.538 1.77997e-17)
(-4.17988 338.757 -3.42035e-18)
(-4.10874 334.218 -4.26065e-19)
(-4.04915 329.892 0)
(-3.91949 325.753 2.9188e-17)
(-3.76946 321.71 -2.56111e-17)
(-3.60407 317.71 -8.6392e-18)
(-3.4722 314.098 0)
(-3.28102 311.942 1.96157e-17)
(-3.11537 311.092 -5.31558e-17)
(-2.88065 311.871 2.87131e-17)
(-2.80977 319.352 -8.92198e-19)
(-4.16744 340.513 2.62172e-17)
(-8.43496 382.762 -3.34314e-17)
(-16.4256 440.564 0)
(-25.6701 491.188 1.83499e-17)
(-32.9714 521.68 -5.76608e-17)
(-32.6422 560.563 -1.18687e-17)
(-38.6386 539.798 4.39628e-17)
(-43.5376 552.857 -3.14056e-17)
(15.657 590.964 1.36422e-18)
(54.398 605.229 0)
(35.6201 603.168 1.23871e-17)
(-35.9975 571.345 1.2403e-17)
(-21.4898 579.986 -1.18265e-17)
(-3.97675 590.192 -1.1369e-17)
(54.5282 614.573 -5.59445e-18)
(71.3438 615.765 -1.62679e-17)
(71.3251 607.377 5.9589e-18)
(70.4213 598.82 5.34394e-19)
(68.6604 590.066 -1.43106e-17)
(66.0791 581.059 -2.92977e-18)
(62.7561 571.721 2.96515e-18)
(58.7588 561.807 -1.252e-17)
(54.1399 550.767 1.05343e-17)
(48.7557 536.78 -7.72381e-19)
(41.9355 515.551 1.6386e-18)
(32.4089 478.195 0)
(20.1251 422.582 -1.52508e-17)
(10.504 368.205 1.34969e-17)
(5.97161 333.046 4.51501e-19)
(4.47525 316.756 -2.30306e-19)
(4.35538 311.374 0)
(4.56088 311.148 1.74127e-18)
(4.66455 312.015 1.72587e-18)
(4.83667 314.154 0)
(5.07858 317.54 2.37044e-19)
(5.27435 321.195 1.13496e-17)
(5.43738 324.872 -1.90115e-18)
(5.57866 328.65 0)
(5.69053 332.603 7.53248e-18)
(5.74179 336.78 -7.54759e-18)
(5.68767 341.186 3.76739e-18)
(5.55633 345.807 -7.44829e-18)
(5.35379 350.628 3.70361e-18)
(5.077 355.635 -1.84399e-18)
(4.72393 360.806 -1.83687e-18)
(4.29833 366.117 -4.57698e-19)
(3.80628 371.541 6.79601e-18)
(3.25274 377.057 -1.45655e-17)
(2.64333 382.64 1.4543e-17)
(1.98864 388.264 -1.11272e-17)
(1.30263 393.92 3.63781e-18)
(0.59273 399.586 0)
(-0.135553 405.243 3.56585e-18)
(-0.872666 410.88 -3.59913e-18)
(-1.60764 416.474 5.55985e-20)
(-2.3375 422.005 1.78807e-18)
(-3.05743 427.471 -1.75789e-18)
(-3.76087 432.868 1.74696e-18)
(-4.44129 438.183 -1.77379e-18)
(-5.09453 443.408 0)
(-5.72143 448.541 1.78338e-18)
(-6.31753 453.581 -2.61431e-18)
(-6.88017 458.519 8.7377e-19)
(-7.40758 463.352 -5.3856e-20)
(-7.90059 468.079 0)
(-8.35687 472.699 -9.5545e-19)
(-8.77715 477.211 8.59743e-19)
(-9.15996 481.612 7.36151e-19)
(-9.50553 485.899 -8.53286e-19)
(-9.81531 490.074 0)
(-10.0874 494.138 4.19553e-19)
(-10.324 498.09 0)
(-10.5255 501.932 8.28958e-19)
(-10.6928 505.663 -6.40463e-21)
(-10.8266 509.281 -4.67426e-19)
(-10.9284 512.785 -1.53751e-19)
(-10.9994 516.174 -3.07502e-19)
(-8.08319 516.061 6.13426e-19)
(-5.15689 515.978 -8.15811e-19)
(-2.22628 515.929 4.07105e-19)
(0.706936 515.913 0)
(3.63762 515.931 -8.3788e-19)
(6.56466 515.983 2.4333e-18)
(9.48293 516.071 1.64421e-18)
(12.3891 516.196 0)
(12.3006 512.79 -1.232e-18)
(12.1804 509.275 1.2504e-18)
(12.0252 505.652 -2.47398e-18)
(11.8347 501.919 -8.38578e-19)
(11.6101 498.075 1.88095e-18)
(11.348 494.123 -8.32939e-19)
(11.0474 490.059 2.10809e-19)
(10.7101 485.886 1.78936e-22)
(10.3324 481.603 -1.91213e-22)
(9.91474 477.208 0)
(9.4595 472.703 1.07229e-19)
(8.96377 468.091 1.07411e-19)
(8.42887 463.371 9.25522e-19)
(7.85693 458.547 -8.59864e-19)
(7.24749 453.619 2.17268e-19)
(6.60187 448.587 -8.81365e-19)
(5.92264 443.455 2.02836e-19)
(5.2116 438.227 1.53891e-18)
(4.4721 432.907 -2.20527e-18)
(3.70826 427.502 1.09779e-18)
(2.92494 422.017 -4.66489e-21)
(2.12736 416.46 8.85098e-19)
(1.32193 410.839 2.24691e-19)
(0.51624 405.163 -6.67693e-19)
(-0.282177 399.443 -1.40845e-20)
(-1.06503 393.691 4.61668e-19)
(-1.82126 387.922 -8.93892e-19)
(-2.53833 382.152 0)
(-3.20785 376.401 1.78765e-18)
(-3.8188 370.691 -1.80038e-18)
(-4.35806 365.049 5.33915e-18)
(-4.81446 359.504 0)
(-5.18015 354.081 -7.13445e-18)
(-5.44498 348.817 7.01346e-18)
(-5.60246 343.749 7.03417e-18)
(-5.65504 338.907 0)
(-5.61701 334.32 1.73957e-18)
(-5.53004 329.983 0)
(-5.35784 325.843 -2.53054e-22)
(-5.12975 321.801 2.63439e-17)
(-4.86385 317.78 -2.57063e-17)
(-4.59929 314.091 2.79206e-17)
(-4.34056 311.825 -2.46114e-17)
(-4.15117 310.918 0)
(-3.87651 311.529 0)
(-4.13454 319.137 3.56754e-18)
(-6.4174 341.316 0)
(-12.6906 385.834 2.50687e-17)
(-24.0212 446.651 -4.96334e-18)
(-36.5364 498.08 -1.50736e-17)
(-45.652 527.583 -2.44547e-17)
(-52.5033 544.987 6.2213e-17)
(-48.0802 564.069 0)
(-58.2167 557.595 4.81528e-18)
(15.6348 601.666 2.36178e-17)
(35.6658 613.318 2.24714e-17)
(-52.2211 574.567 0)
(70.4661 624.028 3.85775e-17)
(53.8806 623.779 1.10182e-17)
(-39.1528 581.926 1.19484e-17)
(-23.3088 590.736 0)
(-4.75732 601.076 2.87288e-17)
(68.7882 632.19 -2.2169e-17)
(82.6152 631.149 0)
(84.5922 623.92 8.47423e-18)
(85.7161 616.612 -1.09508e-17)
(86.0099 609.196 5.67684e-18)
(85.3872 601.566 -1.17101e-17)
(83.8723 593.695 1.43138e-17)
(81.4751 585.509 2.97662e-18)
(78.2291 576.926 -3.02276e-18)
(74.1595 567.73 -7.45396e-19)
(69.2855 557.497 2.31793e-18)
(63.4728 544.836 -6.05654e-18)
(55.9484 526.173 -1.74759e-19)
(45.1696 493.001 6.45447e-18)
(29.773 438.257 -1.03258e-19)
(15.7746 378.809 -7.16258e-18)
(8.42965 337.835 6.33785e-18)
(5.85688 318.256 2.03961e-21)
(5.37088 311.536 -7.96384e-18)
(5.62167 310.92 6.9682e-18)
(5.76024 311.749 -5.18179e-18)
(5.98268 313.805 1.86307e-18)
(6.31197 317.158 1.89376e-18)
(6.59962 320.859 9.45285e-19)
(6.83714 324.605 -4.69338e-19)
(7.02747 328.461 9.41981e-19)
(7.15943 332.503 1.40153e-18)
(7.21808 336.777 -2.12969e-18)
(7.16559 341.291 0)
(7.0091 346.026 0)
(6.75185 350.964 0)
(6.39363 356.083 3.68204e-18)
(5.93605 361.358 -3.25909e-18)
(5.38413 366.764 7.56515e-22)
(4.74596 372.273 -3.64716e-18)
(4.03199 377.86 3.80838e-18)
(3.25739 383.497 3.62957e-18)
(2.43173 389.163 -3.56232e-18)
(1.561 394.847 3.59928e-18)
(0.655688 400.528 -3.65247e-18)
(-0.268979 406.189 -3.56022e-18)
(-1.20378 411.822 3.62072e-18)
(-2.13978 417.409 -1.1181e-19)
(-3.06226 422.931 2.79192e-20)
(-3.96694 428.379 -1.79023e-18)
(-4.85093 433.75 3.2131e-20)
(-5.70763 439.038 1.78047e-18)
(-6.53082 444.235 1.37166e-20)
(-7.31567 449.334 0)
(-8.0627 454.335 0)
(-8.76818 459.236 9.15335e-19)
(-9.42938 464.031 -8.19286e-19)
(-10.0447 468.717 -8.01099e-19)
(-10.6147 473.294 7.59139e-19)
(-11.1382 477.763 3.17273e-19)
(-11.6163 482.121 -3.22948e-19)
(-12.047 486.367 -1.05979e-19)
(-12.4311 490.502 0)
(-12.7701 494.525 -4.17965e-19)
(-13.0643 498.437 -2.02643e-19)
(-13.3145 502.238 4.20561e-19)
(-13.5218 505.928 5.15551e-20)
(-13.6877 509.505 -4.66446e-19)
(-13.8133 512.97 1.02569e-18)
(-13.8998 516.321 -7.25582e-19)
(-13.9489 519.561 -6.40474e-21)
(-11.0409 519.45 6.38292e-21)
(-8.11491 519.365 0)
(-5.17633 519.306 2.03376e-19)
(-2.23135 519.273 -2.02995e-19)
(0.716317 519.266 4.02769e-19)
(3.66126 519.282 -2.44521e-18)
(6.60048 519.325 -8.23184e-19)
(9.52958 519.395 -8.12574e-19)
(12.4447 519.491 8.15312e-19)
(15.2785 516.356 1.65335e-18)
(15.1768 512.991 -3.93795e-19)
(15.0344 509.516 -8.20649e-19)
(14.8504 505.933 4.15813e-19)
(14.622 502.242 0)
(14.3484 498.442 0)
(14.0304 494.532 0)
(13.6649 490.513 0)
(13.2515 486.384 1.06232e-19)
(12.7904 482.143 -2.38857e-22)
(12.2799 477.794 3.25068e-19)
(11.7203 473.334 -4.26149e-19)
(11.1124 468.765 3.27481e-19)
(10.4558 464.087 -3.21466e-19)
(9.75103 459.304 -5.47987e-19)
(9.00003 454.416 2.1426e-19)
(8.20347 449.422 2.18856e-19)
(7.36378 444.325 -2.20277e-19)
(6.4839 439.128 6.66596e-19)
(5.56867 433.838 3.22514e-21)
(4.62201 428.456 0)
(3.64973 422.99 -4.39246e-19)
(2.65865 417.443 -6.9134e-21)
(1.6563 411.825 0)
(0.651195 406.145 0)
(-0.345692 400.409 0)
(-1.32294 394.634 -1.8174e-18)
(-2.26752 388.832 2.68688e-18)
(-3.1672 383.011 0)
(-4.0101 377.201 -3.60354e-18)
(-4.77978 371.425 -1.82995e-18)
(-5.46255 365.706 1.7684e-18)
(-6.04253 360.076 0)
(-6.50784 354.569 -3.58243e-18)
(-6.85071 349.224 0)
(-7.06484 344.076 -7.13704e-18)
(-7.15497 339.156 -1.4287e-17)
(-7.13912 334.502 4.25459e-17)
(-7.0347 330.102 -1.47582e-18)
(-6.82438 325.896 -5.84438e-17)
(-6.52111 321.789 -2.80915e-19)
(-6.15074 317.698 2.78987e-17)
(-5.75467 313.936 -2.83122e-17)
(-5.43102 311.608 -1.71776e-18)
(-5.22863 310.668 5.1528e-19)
(-4.98569 311.288 2.88719e-17)
(-5.66084 319.398 -3.58339e-18)
(-9.05306 343.334 0)
(-18.0276 391.839 0)
(-33.8021 456.367 0)
(-49.0544 507.44 -1.27873e-17)
(-59.3611 534.897 -2.42824e-17)
(-66.8906 551.116 4.30017e-17)
(-63.3531 568.407 -2.47354e-17)
(-72.9411 562.933 -2.49327e-17)
(15.341 519.613 8.16827e-19)
(-78.0833 573.038 0)
(15.4172 612.368 5.29894e-18)
(-67.8143 578.382 1.16316e-17)
(35.1602 623.366 -2.75805e-17)
(-55.8712 584.708 -1.17326e-17)
(52.5167 632.869 0)
(-41.7836 592.374 0)
(79.8461 638.268 0)
(66.3146 640.22 -1.04697e-17)
(-24.7721 601.477 -5.75265e-18)
(-5.34688 611.954 -6.81088e-19)
(76.3149 645.325 -5.35102e-18)
(87.2997 642.262 -1.64005e-17)
(90.9842 636.005 2.12058e-17)
(93.955 629.718 -1.38405e-17)
(96.1936 623.382 2.7603e-17)
(97.6306 616.933 -8.18342e-18)
(98.3008 610.389 1.15012e-17)
(98.1664 603.696 -1.12405e-17)
(97.1516 596.725 1.43986e-18)
(95.2531 589.425 0)
(92.4754 581.714 -6.05624e-18)
(88.7978 573.408 6.64072e-18)
(84.1944 564.174 -7.7462e-19)
(78.4969 552.986 3.58971e-18)
(71.0456 537.054 -3.4733e-18)
(60.0387 509.044 -2.09653e-19)
(42.8322 457.603 5.89999e-20)
(23.4692 393.481 -1.14401e-19)
(11.8126 344.924 -3.97834e-18)
(7.4425 320.523 -1.4275e-20)
(6.43901 311.83 4.16069e-18)
(6.69734 310.657 1.7588e-18)
(6.84616 311.441 -3.47807e-18)
(7.11925 313.396 3.49917e-18)
(7.56153 316.717 -3.80452e-18)
(7.95226 320.484 9.5083e-22)
(8.27393 324.311 0)
(8.52537 328.258 1.1756e-19)
(8.6903 332.405 8.20967e-19)
(8.75704 336.796 -7.13092e-19)
(8.69635 341.434 -9.35542e-19)
(8.50756 346.304 9.44475e-19)
(8.18925 351.377 0)
(7.74262 356.628 0)
(7.17256 362.027 9.30149e-19)
(6.48692 367.546 2.32525e-19)
(5.69643 373.157 0)
(4.81434 378.83 -1.15422e-19)
(3.8552 384.542 0)
(2.83426 390.271 1.70312e-18)
(1.76685 395.998 -1.84272e-18)
(0.668724 401.703 0)
(-0.450622 407.372 -2.83973e-20)
(-1.58107 412.999 -2.81748e-20)
(-2.7097 418.572 5.98384e-20)
(-3.82766 424.079 0)
(-4.92214 429.508 0)
(-5.98591 434.849 0)
(-7.01574 440.1 -8.78555e-19)
(-8.00552 445.257 8.63309e-19)
(-8.9497 450.316 2.74385e-20)
(-9.84373 455.271 0)
(-10.6879 460.121 3.77837e-19)
(-11.4791 464.865 -8.68888e-19)
(-12.2149 469.502 1.24061e-18)
(-12.8942 474.027 -3.34377e-19)
(-13.5181 478.442 -7.51243e-19)
(-14.0855 482.747 7.17304e-21)
(-14.5979 486.942 5.35827e-19)
(-15.0546 491.026 -2.10243e-19)
(-15.4565 494.999 -4.17449e-19)
(-15.8034 498.86 4.25637e-19)
(-16.0986 502.611 2.1101e-19)
(-16.3427 506.251 2.08401e-19)
(-16.5367 509.779 4.1255e-19)
(-16.6824 513.197 -5.2057e-19)
(-16.7808 516.503 0)
(-16.8338 519.7 8.16614e-19)
(-16.8427 522.788 -1.10162e-20)
(-13.9604 522.691 7.60058e-19)
(-11.0525 522.613 5.08831e-20)
(-8.12487 522.556 8.06856e-19)
(-5.18262 522.519 -8.05168e-19)
(-2.23171 522.501 -4.01958e-19)
(0.722536 522.501 -2.91214e-21)
(3.67459 522.519 -2.7991e-21)
(6.61834 522.553 8.09154e-19)
(9.55111 522.604 7.99328e-19)
(12.4671 522.673 0)
(15.3622 522.76 1.6172e-18)
(18.2145 519.762 8.30984e-19)
(18.151 516.551 2.33968e-20)
(18.0388 513.235 -1.64266e-18)
(17.8782 509.811 4.15627e-19)
(17.6662 506.279 0)
(17.4036 502.638 2.09218e-19)
(17.0876 498.89 -1.05091e-19)
(16.7159 495.034 -2.12952e-19)
(16.2895 491.068 2.10494e-19)
(15.8058 486.993 0)
(15.2637 482.808 -1.07109e-19)
(14.6643 478.513 5.41171e-19)
(14.0061 474.109 -2.10278e-19)
(13.2882 469.594 -2.14803e-19)
(12.5125 464.97 -3.56419e-22)
(11.6798 460.239 3.71702e-22)
(10.7905 455.4 2.21345e-19)
(9.84573 450.454 -8.83064e-19)
(8.84859 445.402 2.15026e-19)
(7.80277 440.248 -4.02016e-21)
(6.71239 434.995 -5.93851e-20)
(5.58321 429.646 -3.90273e-19)
(4.42209 424.205 5.02487e-21)
(3.23594 418.676 -8.9302e-19)
(2.03537 413.065 -9.08976e-19)
(0.830698 407.382 1.79663e-18)
(-0.367304 401.633 0)
(-1.54358 395.831 0)
(-2.68638 389.988 2.75313e-18)
(-3.78094 384.118 -3.59589e-18)
(-4.80534 378.241 4.94255e-21)
(-5.74321 372.384 -1.81621e-18)
(-6.57995 366.572 9.12068e-18)
(-7.30076 360.846 -2.18214e-17)
(-7.88708 355.242 2.1629e-17)
(-8.32114 349.793 -1.09514e-17)
(-8.59985 344.532 2.89012e-17)
(-8.73055 339.499 -1.43248e-17)
(-8.7206 334.734 -1.79916e-18)
(-8.57529 330.226 2.04866e-22)
(-8.30197 325.912 -3.07315e-17)
(-7.91256 321.706 5.76432e-17)
(-7.44384 317.533 -1.9239e-19)
(-6.95149 313.697 -2.84329e-17)
(-6.57157 311.331 2.67842e-17)
(-6.33996 310.374 -5.43448e-17)
(-6.09728 311.165 3.00137e-17)
(-7.22187 320.228 2.92263e-17)
(-12.1818 347.378 -3.01015e-17)
(-25.2579 401.76 0)
(-46.4998 469.778 0)
(-63.0663 518.405 6.48213e-18)
(-73.8394 542.971 0)
(-81.2788 557.538 2.36622e-17)
(-87.1326 568.301 -2.4608e-17)
(-91.8838 577.513 1.1627e-17)
(18.2316 522.865 0)
(-95.6207 585.868 -1.79058e-17)
(-82.3631 582.278 -5.70558e-18)
(14.978 622.986 -1.13666e-17)
(-71.5044 587.865 -2.09765e-19)
(34.1254 633.25 1.38261e-17)
(-58.8928 594.618 -2.29663e-17)
(50.4702 641.789 0)
(-43.706 602.662 0)
(63.1029 648.103 4.44915e-19)
(-25.7071 612.158 -5.32624e-18)
(82.9641 648.495 -5.19873e-18)
(72.1311 652.293 5.29514e-18)
(-5.77955 622.734 -2.2126e-17)
(-16.8071 525.767 -7.19615e-19)
(-13.9358 525.711 -1.07843e-20)
(-11.0355 525.667 0)
(-8.11302 525.636 -1.09337e-20)
(-5.17435 525.619 8.13458e-19)
(-2.22651 525.614 1.00582e-18)
(0.725845 525.621 -3.97666e-19)
(3.67719 525.64 -2.04351e-19)
(6.62101 525.667 -4.03261e-19)
(9.54969 525.701 -8.28931e-19)
(12.4594 525.745 2.41595e-18)
(15.3465 525.798 -1.63327e-18)
(18.2037 525.858 0)
(21.0723 522.982 0)
(21.0622 519.934 4.17669e-19)
(20.9994 516.78 -8.20431e-19)
(20.8805 513.52 0)
(20.7065 510.156 0)
(20.4727 506.685 2.09134e-19)
(20.1788 503.105 -1.05384e-19)
(19.824 499.418 1.05659e-19)
(19.4057 495.624 0)
(18.9218 491.722 1.06319e-19)
(18.3721 487.712 -5.39373e-20)
(17.756 483.594 5.32629e-20)
(17.0712 479.364 0)
(16.3185 475.026 0)
(15.4972 470.578 1.08575e-19)
(14.607 466.019 -1.10631e-19)
(13.6496 461.351 2.74055e-19)
(12.6259 456.574 -1.65754e-19)
(11.5362 451.687 1.37504e-19)
(10.3847 446.693 -2.75093e-20)
(9.17567 441.593 2.22383e-19)
(7.91401 436.388 -2.24165e-19)
(6.60433 431.081 4.44708e-19)
(5.25503 425.673 9.0278e-19)
(3.87434 420.168 4.55745e-19)
(2.47253 414.572 0)
(1.06268 408.891 -3.19816e-18)
(-0.34177 403.133 2.71308e-18)
(-1.72564 397.303 3.67788e-18)
(-3.07177 391.419 1.89121e-18)
(-4.36365 385.497 -4.53883e-18)
(-5.58265 379.548 6.04365e-21)
(-6.70764 373.603 0)
(-7.71628 367.698 -3.66244e-18)
(-8.57976 361.865 -1.4773e-17)
(-9.28366 356.137 1.08846e-17)
(-9.82089 350.547 -1.84104e-17)
(-10.1805 345.139 1.45382e-17)
(-10.3609 339.956 0)
(-10.3648 335.033 2.93453e-17)
(-10.1856 330.373 -5.64174e-17)
(-9.83861 325.918 3.08348e-17)
(-9.36201 321.594 0)
(-8.79058 317.331 -2.88909e-17)
(-8.20163 313.44 2.87367e-17)
(-7.75206 311.051 -2.72359e-17)
(-7.47065 310.088 5.43783e-17)
(-7.16738 311.277 -2.22696e-18)
(-8.90254 322.06 -2.98299e-17)
(-16.5224 354.323 0)
(-35.5142 416.772 -2.45825e-17)
(-61.7524 486.287 1.73461e-18)
(-78.2186 529.778 5.10378e-17)
(-88.3696 551.083 -2.54288e-17)
(-95.1477 563.649 2.05211e-17)
(-100.325 573.18 -4.77219e-17)
(-104.292 581.4 1.81446e-17)
(-107.217 588.838 -1.14472e-17)
(-98.3648 593.663 0)
(-109.163 595.72 1.17862e-17)
(21.0291 525.922 0)
(78.0218 654.701 0)
(86.8833 650.151 5.96394e-18)
(91.8036 644.579 -2.09436e-17)
(96.1519 639.025 -2.7158e-18)
(99.899 633.482 -2.73834e-18)
(103.017 627.935 2.71935e-18)
(105.48 622.358 3.03558e-20)
(107.272 616.706 -1.38528e-18)
(108.333 610.925 5.73937e-18)
(108.709 605.028 -1.14274e-17)
(108.343 598.948 4.23506e-18)
(107.142 592.537 -2.96921e-18)
(105.072 585.735 5.90754e-18)
(102.104 578.397 -2.74751e-18)
(98.1717 570.26 1.54698e-18)
(93.0879 560.589 -1.50221e-18)
(86.4021 547.427 0)
(76.1401 524.935 0)
(59.5189 480.187 1.93648e-18)
(34.999 413.822 -1.58902e-18)
(17.0489 355.792 1.17704e-19)
(9.55895 324.321 0)
(7.57737 312.513 -5.9013e-20)
(7.78711 310.424 0)
(7.93587 311.123 4.37162e-18)
(8.25468 312.919 -1.17805e-18)
(8.83583 316.197 0)
(9.34227 320.064 -9.5318e-19)
(9.75972 324.004 0)
(10.0794 328.064 -4.46163e-19)
(10.2861 332.341 -3.72845e-20)
(10.3648 336.87 0)
(10.2914 341.662 0)
(10.0611 346.688 -9.44443e-19)
(9.67212 351.921 0)