/*--------------------------------*- C++ -*----------------------------------*\
| =========                 |                                                 |
| \\      /  F ield         | OpenFOAM: The Open Source CFD Toolbox           |
|  \\    /   O peration     | Version:  2212                                  |
|   \\  /    A nd           | Website:  www.openfoam.com                      |
|    \\/     M anipulation  |                                                 |
\*---------------------------------------------------------------------------*/
FoamFile
{
    version     2.0;
    format      ascii;
    arch        "LSB;label=32;scalar=64";
    class       volVectorField;
    location    "0.076";
    object      UMean;
}
// * * * * * * * * * * * * * * * * * * * * * * * * * * * * * * * * * * * * * //

dimensions      [0 1 -1 0 0 0 0];

internalField   nonuniform List<vector> 
24240
(
(9.7427 0.514672 5.56307e-07)
(9.74273 0.514674 -3.79049e-07)
(9.74273 0.514674 -2.93896e-07)
(9.74273 0.514674 -5.21248e-07)
(9.74273 0.514673 -6.35949e-07)
(9.74272 0.514673 -7.90974e-07)
(9.74272 0.514673 -9.2664e-07)
(9.74272 0.514673 -1.05838e-06)
(9.74272 0.514673 -1.17561e-06)
(9.74272 0.514673 -1.27388e-06)
(9.74272 0.514673 -1.34895e-06)
(9.74272 0.514673 -1.39459e-06)
(9.74272 0.514673 -1.40637e-06)
(9.74272 0.514673 -1.38254e-06)
(9.74272 0.514673 -1.32319e-06)
(9.74272 0.514673 -1.23295e-06)
(9.74272 0.514673 -1.08179e-06)
(9.74272 0.514673 -9.87832e-07)
(9.74272 0.514673 -5.01352e-07)
(9.7427 0.514672 -8.96325e-07)
(9.15933 0.525644 -1.6362e-07)
(9.15936 0.525646 -3.75607e-07)
(9.15936 0.525646 -5.17972e-07)
(9.15936 0.525646 -7.12943e-07)
(9.15936 0.525646 -8.69934e-07)
(9.15936 0.525646 -1.02526e-06)
(9.15936 0.525646 -1.15414e-06)
(9.15936 0.525645 -1.26118e-06)
(9.15936 0.525645 -1.34e-06)
(9.15936 0.525645 -1.3881e-06)
(9.15936 0.525645 -1.40484e-06)
(9.15936 0.525645 -1.38712e-06)
(9.15936 0.525645 -1.33544e-06)
(9.15936 0.525644 -1.25081e-06)
(9.15936 0.525644 -1.13723e-06)
(9.15936 0.525644 -1.00105e-06)
(9.15936 0.525644 -8.37611e-07)
(9.15936 0.525644 -6.68376e-07)
(9.15936 0.525644 -4.32226e-07)
(9.15933 0.525642 -1.55059e-07)
(9.173 0.207213 -1.62808e-07)
(9.17303 0.207214 -2.45413e-07)
(9.17303 0.207214 -3.56364e-07)
(9.17303 0.207214 -5.16022e-07)
(9.17303 0.207214 -6.66868e-07)
(9.17303 0.207215 -8.34343e-07)
(9.17303 0.207215 -9.99692e-07)
(9.17303 0.207215 -1.16178e-06)
(9.17303 0.207216 -1.31216e-06)
(9.17303 0.207216 -1.44277e-06)
(9.17303 0.207217 -1.54607e-06)
(9.17303 0.207217 -1.61391e-06)
(9.17303 0.207218 -1.63994e-06)
(9.17303 0.207218 -1.61857e-06)
(9.17303 0.207219 -1.54922e-06)
(9.17303 0.207219 -1.42718e-06)
(9.17303 0.20722 -1.25952e-06)
(9.17303 0.20722 -1.03598e-06)
(9.17303 0.20722 -7.13849e-07)
(9.173 0.20722 -2.16478e-07)
(8.89556 0.208044 -5.02364e-08)
(8.89559 0.208045 -1.60692e-07)
(8.89559 0.208045 -2.20617e-07)
(8.89559 0.208045 -2.88587e-07)
(8.89559 0.208045 -3.42914e-07)
(8.89559 0.208046 -4.00965e-07)
(8.89559 0.208046 -4.53027e-07)
(8.89559 0.208046 -4.98382e-07)
(8.89559 0.208046 -5.31615e-07)
(8.89559 0.208047 -5.48891e-07)
(8.89559 0.208047 -5.46997e-07)
(8.89559 0.208047 -5.24276e-07)
(8.89559 0.208048 -4.80678e-07)
(8.89559 0.208048 -4.16035e-07)
(8.89559 0.208049 -3.33311e-07)
(8.89559 0.208049 -2.34021e-07)
(8.89559 0.208049 -1.22619e-07)
(8.89559 0.20805 -1.44903e-08)
(8.89559 0.20805 3.50227e-08)
(8.89556 0.20805 -7.5152e-09)
(8.88515 0.0955189 -7.05243e-08)
(8.88518 0.0955193 -1.24792e-07)
(8.88518 0.0955194 -1.8163e-07)
(8.88518 0.0955195 -2.5068e-07)
(8.88518 0.0955196 -3.26148e-07)
(8.88518 0.0955198 -4.14785e-07)
(8.88518 0.09552 -5.10432e-07)
(8.88518 0.0955202 -6.07686e-07)
(8.88518 0.0955203 -7.00799e-07)
(8.88518 0.0955206 -7.81749e-07)
(8.88518 0.0955208 -8.4397e-07)
(8.88518 0.095521 -8.81392e-07)
(8.88518 0.0955212 -8.89019e-07)
(8.88518 0.0955213 -8.62675e-07)
(8.88518 0.0955215 -8.01174e-07)
(8.88518 0.0955216 -6.98463e-07)
(8.88518 0.0955218 -5.63629e-07)
(8.88517 0.0955218 -3.97364e-07)
(8.88517 0.0955219 -2.37989e-07)
(8.88515 0.0955215 -7.08628e-08)
(8.75169 0.0890621 -1.38352e-08)
(8.75172 0.0890625 -4.77236e-08)
(8.75172 0.0890625 -5.91806e-08)
(8.75172 0.0890625 -7.603e-08)
(8.75172 0.0890624 -8.73884e-08)
(8.75172 0.0890624 -1.03175e-07)
(8.75172 0.0890624 -1.19869e-07)
(8.75172 0.0890623 -1.36264e-07)
(8.75172 0.0890623 -1.49247e-07)
(8.75171 0.0890624 -1.5597e-07)
(8.75171 0.0890624 -1.5393e-07)
(8.75171 0.0890625 -1.41509e-07)
(8.75171 0.0890625 -1.18271e-07)
(8.75171 0.0890626 -8.28818e-08)
(8.75171 0.0890627 -3.59037e-08)
(8.75171 0.0890627 2.27473e-08)
(8.75171 0.0890628 8.79736e-08)
(8.75171 0.0890628 1.41654e-07)
(8.75171 0.0890628 1.3901e-07)
(8.75168 0.0890624 4.48789e-08)
(8.74133 0.0409332 -4.80595e-08)
(8.74135 0.0409333 -1.27328e-07)
(8.74135 0.0409333 -2.07065e-07)
(8.74135 0.0409332 -2.88304e-07)
(8.74135 0.0409331 -3.66381e-07)
(8.74135 0.040933 -4.42722e-07)
(8.74135 0.0409329 -5.15812e-07)
(8.74135 0.0409328 -5.82673e-07)
(8.74135 0.0409328 -6.41367e-07)
(8.74135 0.0409327 -6.88281e-07)
(8.74135 0.0409326 -7.20836e-07)
(8.74135 0.0409325 -7.35606e-07)
(8.74135 0.0409324 -7.2991e-07)
(8.74135 0.0409324 -7.01245e-07)
(8.74135 0.0409323 -6.48192e-07)
(8.74135 0.0409322 -5.69063e-07)
(8.74135 0.0409321 -4.68033e-07)
(8.74135 0.040932 -3.48142e-07)
(8.74135 0.0409318 -2.2671e-07)
(8.74132 0.0409316 -8.41532e-08)
(8.68704 0.0337312 -2.88229e-08)
(8.68707 0.0337313 -8.93294e-08)
(8.68707 0.0337312 -1.38618e-07)
(8.68707 0.033731 -1.86108e-07)
(8.68707 0.0337308 -2.20277e-07)
(8.68707 0.0337306 -2.45967e-07)
(8.68707 0.0337303 -2.6221e-07)
(8.68707 0.03373 -2.70629e-07)
(8.68707 0.0337297 -2.72016e-07)
(8.68706 0.0337294 -2.66986e-07)
(8.68706 0.0337292 -2.56556e-07)
(8.68706 0.0337289 -2.40203e-07)
(8.68706 0.0337286 -2.17845e-07)
(8.68706 0.0337284 -1.89156e-07)
(8.68706 0.0337281 -1.54021e-07)
(8.68706 0.0337279 -1.15814e-07)
(8.68706 0.0337276 -7.70615e-08)
(8.68706 0.0337274 -5.02008e-08)
(8.68706 0.0337272 -2.48557e-08)
(8.68703 0.033727 -1.06944e-08)
(8.68663 0.0047918 -8.81694e-08)
(8.68666 0.00479173 -2.55851e-07)
(8.68666 0.00479153 -4.25999e-07)
(8.68666 0.00479125 -5.87733e-07)
(8.68666 0.00479088 -7.31402e-07)
(8.68666 0.00479045 -8.54427e-07)
(8.68666 0.00478997 -9.56557e-07)
(8.68666 0.00478946 -1.03806e-06)
(8.68666 0.00478891 -1.10037e-06)
(8.68666 0.00478836 -1.14367e-06)
(8.68666 0.0047878 -1.16828e-06)
(8.68666 0.00478724 -1.17318e-06)
(8.68666 0.0047867 -1.15515e-06)
(8.68666 0.00478618 -1.11322e-06)
(8.68666 0.00478569 -1.04587e-06)
(8.68666 0.00478525 -9.56353e-07)
(8.68666 0.00478485 -8.37578e-07)
(8.68666 0.0047845 -6.89661e-07)
(8.68666 0.00478423 -4.72809e-07)
(8.68664 0.00478408 -1.66045e-07)
(8.68294 -0.0080682 -1.09305e-07)
(8.68297 -0.00806829 -3.31348e-07)
(8.68297 -0.00806839 -5.3843e-07)
(8.68297 -0.00806852 -7.26504e-07)
(8.68297 -0.00806868 -8.83416e-07)
(8.68297 -0.00806887 -1.00787e-06)
(8.68297 -0.00806906 -1.09982e-06)
(8.68297 -0.00806927 -1.1614e-06)
(8.68297 -0.00806947 -1.19647e-06)
(8.68297 -0.00806967 -1.20715e-06)
(8.68297 -0.00806987 -1.1963e-06)
(8.68297 -0.00807005 -1.16489e-06)
(8.68297 -0.00807023 -1.11143e-06)
(8.68297 -0.00807039 -1.0368e-06)
(8.68297 -0.00807054 -9.41325e-07)
(8.68297 -0.00807067 -8.32634e-07)
(8.68297 -0.00807078 -7.06569e-07)
(8.68297 -0.00807086 -5.74771e-07)
(8.68297 -0.00807093 -3.6679e-07)
(8.68294 -0.00807087 -1.15657e-07)
(8.70035 -0.0290662 -1.26474e-07)
(8.70038 -0.0290664 -3.77786e-07)
(8.70038 -0.0290664 -6.1388e-07)
(8.70038 -0.0290666 -8.31595e-07)
(8.70038 -0.0290668 -1.01814e-06)
(8.70038 -0.029067 -1.17117e-06)
(8.70038 -0.0290673 -1.29094e-06)
(8.70038 -0.0290676 -1.37983e-06)
(8.70038 -0.0290679 -1.44084e-06)
(8.70038 -0.0290683 -1.47741e-06)
(8.70038 -0.0290687 -1.49061e-06)
(8.70038 -0.0290691 -1.47986e-06)
(8.70038 -0.0290696 -1.44204e-06)
(8.70038 -0.02907 -1.37578e-06)
(8.70038 -0.0290704 -1.27824e-06)
(8.70038 -0.0290708 -1.15851e-06)
(8.70038 -0.0290711 -1.00255e-06)
(8.70038 -0.0290714 -8.231e-07)
(8.70038 -0.0290716 -5.23589e-07)
(8.70035 -0.0290716 -1.59753e-07)
(8.7354 -0.0447991 -1.54945e-07)
(8.73542 -0.0447995 -4.56005e-07)
(8.73542 -0.0447997 -7.42808e-07)
(8.73543 -0.0448001 -1.00883e-06)
(8.73543 -0.0448005 -1.24244e-06)
(8.73543 -0.044801 -1.44033e-06)
(8.73543 -0.0448016 -1.60197e-06)
(8.73543 -0.0448022 -1.72809e-06)
(8.73543 -0.0448029 -1.8207e-06)
(8.73543 -0.0448035 -1.88081e-06)
(8.73543 -0.0448042 -1.90788e-06)
(8.73543 -0.0448048 -1.89899e-06)
(8.73543 -0.0448053 -1.85017e-06)
(8.73543 -0.0448058 -1.75899e-06)
(8.73543 -0.0448062 -1.62259e-06)
(8.73543 -0.0448065 -1.45441e-06)
(8.73543 -0.0448067 -1.24457e-06)
(8.73543 -0.0448069 -1.00944e-06)
(8.73543 -0.0448069 -6.262e-07)
(8.73541 -0.0448067 -1.81023e-07)
(8.77585 -0.0734937 -2.32605e-07)
(8.77587 -0.0734941 -6.99082e-07)
(8.77587 -0.0734944 -1.11588e-06)
(8.77588 -0.0734948 -1.49869e-06)
(8.77588 -0.0734953 -1.82691e-06)
(8.77588 -0.0734958 -2.0949e-06)
(8.77588 -0.0734965 -2.30217e-06)
(8.77588 -0.0734973 -2.44753e-06)
(8.77588 -0.0734981 -2.53325e-06)
(8.77588 -0.0734989 -2.56184e-06)
(8.77588 -0.0734998 -2.53473e-06)
(8.77588 -0.0735006 -2.45209e-06)
(8.77588 -0.0735014 -2.31368e-06)
(8.77588 -0.0735021 -2.12292e-06)
(8.77589 -0.0735028 -1.88059e-06)
(8.77589 -0.0735033 -1.61141e-06)
(8.77589 -0.0735037 -1.30783e-06)
(8.77589 -0.073504 -1.00292e-06)
(8.77589 -0.0735042 -5.52568e-07)
(8.77586 -0.073504 -1.33407e-07)
(8.86281 -0.0876523 -2.67215e-07)
(8.86284 -0.0876527 -7.72684e-07)
(8.86284 -0.0876528 -1.26644e-06)
(8.86284 -0.087653 -1.72673e-06)
(8.86284 -0.0876531 -2.14421e-06)
(8.86284 -0.0876534 -2.50487e-06)
(8.86284 -0.0876536 -2.80469e-06)
(8.86284 -0.0876539 -3.03954e-06)
(8.86285 -0.0876541 -3.20732e-06)
(8.86285 -0.0876544 -3.30565e-06)
(8.86285 -0.0876547 -3.32944e-06)
(8.86285 -0.0876549 -3.27532e-06)
(8.86285 -0.0876551 -3.13886e-06)
(8.86285 -0.0876552 -2.92217e-06)
(8.86285 -0.0876553 -2.62759e-06)
(8.86286 -0.0876553 -2.28175e-06)
(8.86286 -0.0876552 -1.88391e-06)
(8.86286 -0.0876552 -1.45034e-06)
(8.86286 -0.0876552 -8.6545e-07)
(8.86283 -0.0876548 -2.44428e-07)
(8.91749 -0.14905 -2.50717e-07)
(8.91752 -0.14905 -8.05726e-07)
(8.91752 -0.149051 -1.3032e-06)
(8.91752 -0.149051 -1.76584e-06)
(8.91752 -0.149051 -2.1656e-06)
(8.91752 -0.149051 -2.49357e-06)
(8.91752 -0.149051 -2.74604e-06)
(8.91753 -0.149052 -2.91861e-06)
(8.91753 -0.149052 -3.01245e-06)
(8.91753 -0.149053 -3.02658e-06)
(8.91753 -0.149054 -2.96177e-06)
(8.91753 -0.149054 -2.81976e-06)
(8.91753 -0.149055 -2.60197e-06)
(8.91753 -0.149056 -2.31789e-06)
(8.91753 -0.149056 -1.97906e-06)
(8.91753 -0.149057 -1.62675e-06)
(8.91753 -0.149058 -1.26633e-06)
(8.91753 -0.149058 -9.6536e-07)
(8.91753 -0.149059 -5.67921e-07)
(8.91751 -0.149059 -1.7298e-07)
(9.10228 -0.156343 -2.99665e-07)
(9.10231 -0.156344 -8.23386e-07)
(9.10231 -0.156344 -1.40535e-06)
(9.10231 -0.156344 -1.98737e-06)
(9.10231 -0.156344 -2.53978e-06)
(9.10231 -0.156344 -3.04035e-06)
(9.10231 -0.156344 -3.48209e-06)
(9.10231 -0.156344 -3.85372e-06)
(9.10231 -0.156345 -4.14905e-06)
(9.10232 -0.156345 -4.35744e-06)
(9.10232 -0.156345 -4.46944e-06)
(9.10232 -0.156346 -4.47578e-06)
(9.10232 -0.156346 -4.36828e-06)
(9.10232 -0.156346 -4.14663e-06)
(9.10233 -0.156346 -3.81548e-06)
(9.10233 -0.156347 -3.40017e-06)
(9.10233 -0.156347 -2.9192e-06)
(9.10233 -0.156347 -2.42553e-06)
(9.10233 -0.156347 -1.71032e-06)
(9.1023 -0.156347 -5.90555e-07)
(9.14772 -0.323752 -2.03143e-07)
(9.14775 -0.323754 -7.66061e-07)
(9.14775 -0.323754 -1.3297e-06)
(9.14775 -0.323754 -1.88597e-06)
(9.14775 -0.323754 -2.37246e-06)
(9.14775 -0.323754 -2.78091e-06)
(9.14775 -0.323755 -3.10751e-06)
(9.14775 -0.323755 -3.34364e-06)
(9.14775 -0.323756 -3.48977e-06)
(9.14775 -0.323756 -3.53962e-06)
(9.14776 -0.323757 -3.49271e-06)
(9.14776 -0.323757 -3.34881e-06)
(9.14776 -0.323758 -3.11282e-06)
(9.14776 -0.323759 -2.79793e-06)
(9.14776 -0.323759 -2.41785e-06)
(9.14776 -0.32376 -2.02184e-06)
(9.14776 -0.323761 -1.65314e-06)
(9.14776 -0.323761 -1.43118e-06)
(9.14776 -0.323761 -9.61813e-07)
(9.14773 -0.32376 -3.21741e-07)
(9.53786 -0.314133 -4.40411e-07)
(9.53789 -0.314135 -9.88037e-07)
(9.53789 -0.314135 -1.61302e-06)
(9.53789 -0.314135 -2.30704e-06)
(9.53789 -0.314135 -2.96021e-06)
(9.53789 -0.314134 -3.58346e-06)
(9.53789 -0.314134 -4.14463e-06)
(9.53789 -0.314134 -4.63495e-06)
(9.5379 -0.314134 -5.03992e-06)
(9.5379 -0.314134 -5.34465e-06)
(9.5379 -0.314133 -5.53821e-06)
(9.5379 -0.314133 -5.60739e-06)
(9.5379 -0.314133 -5.54468e-06)
(9.53791 -0.314133 -5.34409e-06)
(9.53791 -0.314133 -4.99764e-06)
(9.53791 -0.314133 -4.511e-06)
(9.53791 -0.314133 -3.8754e-06)
(9.53791 -0.314133 -3.13318e-06)
(9.53792 -0.314133 -2.11013e-06)
(9.53789 -0.314131 -6.64753e-07)
(9.52365 -0.796501 -3.34763e-07)
(9.52368 -0.796504 -8.89856e-07)
(9.52368 -0.796504 -1.2591e-06)
(9.52368 -0.796504 -1.7196e-06)
(9.52369 -0.796504 -2.12616e-06)
(9.52369 -0.796503 -2.50271e-06)
(9.52369 -0.796503 -2.81248e-06)
(9.52369 -0.796502 -3.05161e-06)
(9.52369 -0.796501 -3.21325e-06)
(9.52369 -0.796501 -3.29241e-06)
(9.52369 -0.7965 -3.28621e-06)
(9.52369 -0.796499 -3.19432e-06)
(9.5237 -0.796498 -3.02133e-06)
(9.5237 -0.796497 -2.77437e-06)
(9.5237 -0.796497 -2.45027e-06)
(9.5237 -0.796496 -2.0729e-06)
(9.5237 -0.796495 -1.61149e-06)
(9.5237 -0.796494 -1.18439e-06)
(9.5237 -0.796494 -4.86307e-07)
(9.52367 -0.796491 -3.438e-08)
(10.3599 -0.772234 7.40903e-07)
(10.3599 -0.772237 -1.11171e-06)
(10.3599 -0.772237 -1.30255e-06)
(10.3599 -0.772237 -1.97879e-06)
(10.3599 -0.772237 -2.46635e-06)
(10.3599 -0.772237 -2.97698e-06)
(10.3599 -0.772238 -3.41465e-06)
(10.3599 -0.772238 -3.79534e-06)
(10.3599 -0.772239 -4.10033e-06)
(10.3599 -0.772239 -4.32243e-06)
(10.3599 -0.77224 -4.45186e-06)
(10.3599 -0.772241 -4.48146e-06)
(10.3599 -0.772242 -4.4075e-06)
(10.3599 -0.772243 -4.22843e-06)
(10.36 -0.772244 -3.92888e-06)
(10.36 -0.772245 -3.53646e-06)
(10.36 -0.772246 -2.9681e-06)
(10.36 -0.772246 -2.46939e-06)
(10.36 -0.772247 -1.30253e-06)
(10.3599 -0.772245 -1.57648e-06)
(8.88159 0.588598 2.73155e-07)
(8.88162 0.5886 -2.75118e-07)
(8.88162 0.5886 -2.66606e-07)
(8.88162 0.5886 -4.62806e-07)
(8.88162 0.5886 -5.86645e-07)
(8.88162 0.5886 -7.54934e-07)
(8.88162 0.5886 -9.19927e-07)
(8.88162 0.588601 -1.09291e-06)
(8.88162 0.588601 -1.2576e-06)
(8.88162 0.588601 -1.41117e-06)
(8.88162 0.588602 -1.54046e-06)
(8.88162 0.588603 -1.6368e-06)
(8.88162 0.588603 -1.69705e-06)
(8.88162 0.588604 -1.70796e-06)
(8.88162 0.588605 -1.6841e-06)
(8.88162 0.588606 -1.60975e-06)
(8.88162 0.588607 -1.51855e-06)
(8.88162 0.588608 -1.39367e-06)
(8.88162 0.588609 -9.74287e-07)
(8.88159 0.588608 -8.25984e-07)
(8.87086 0.611138 -7.19075e-08)
(8.87089 0.61114 -2.83555e-07)
(8.87088 0.61114 -3.66879e-07)
(8.87088 0.61114 -4.84887e-07)
(8.87088 0.61114 -5.43237e-07)
(8.87088 0.611141 -6.01327e-07)
(8.87088 0.611141 -6.2923e-07)
(8.87088 0.611141 -6.37143e-07)
(8.87088 0.611141 -6.17725e-07)
(8.87088 0.611141 -5.73118e-07)
(8.87088 0.611141 -5.03203e-07)
(8.87088 0.611141 -4.1142e-07)
(8.87088 0.611141 -3.04983e-07)
(8.87088 0.611141 -1.86491e-07)
(8.87088 0.611141 -7.35527e-08)
(8.87088 0.611141 3.91723e-08)
(8.87088 0.611141 1.22154e-07)
(8.87088 0.611141 1.51008e-07)
(8.87088 0.611142 1.40211e-07)
(8.87085 0.61114 -2.09958e-08)
(8.89757 0.342979 -6.95045e-08)
(8.8976 0.34298 -2.04511e-07)
(8.8976 0.34298 -2.73836e-07)
(8.8976 0.34298 -4.01899e-07)
(8.8976 0.34298 -5.22153e-07)
(8.89759 0.342981 -6.77409e-07)
(8.89759 0.342981 -8.42567e-07)
(8.89759 0.342981 -1.01714e-06)
(8.89759 0.342982 -1.18659e-06)
(8.89759 0.342982 -1.34062e-06)
(8.89759 0.342982 -1.46647e-06)
(8.89759 0.342983 -1.55327e-06)
(8.89759 0.342983 -1.59482e-06)
(8.89759 0.342983 -1.58121e-06)
(8.89759 0.342983 -1.51841e-06)
(8.89759 0.342984 -1.38991e-06)
(8.89759 0.342984 -1.23104e-06)
(8.89759 0.342984 -9.97623e-07)
(8.89759 0.342984 -7.17337e-07)
(8.89756 0.342983 -3.44779e-07)
(8.76899 0.344132 -2.53092e-09)
(8.76902 0.344134 -5.58296e-08)
(8.76902 0.344134 -5.01107e-08)
(8.76902 0.344134 -5.60178e-08)
(8.76901 0.344134 -4.07515e-08)
(8.76901 0.344134 -3.22201e-08)
(8.76901 0.344135 -1.92016e-08)
(8.76901 0.344135 -5.35045e-09)
(8.76901 0.344135 1.42148e-08)
(8.76901 0.344136 4.13543e-08)
(8.76901 0.344136 7.83583e-08)
(8.76901 0.344137 1.2436e-07)
(8.76901 0.344137 1.77898e-07)
(8.76901 0.344138 2.38548e-07)
(8.76901 0.344138 2.99623e-07)
(8.76901 0.344139 3.62604e-07)
(8.76901 0.344139 4.10133e-07)
(8.76901 0.34414 4.09316e-07)
(8.76901 0.34414 3.06657e-07)
(8.76898 0.344139 6.76408e-08)
(8.77577 0.191166 -3.59919e-08)
(8.7758 0.191167 -5.37722e-08)
(8.7758 0.191167 -5.77158e-08)
(8.7758 0.191167 -8.18184e-08)
(8.7758 0.191167 -1.14131e-07)
(8.7758 0.191167 -1.70833e-07)
(8.7758 0.191168 -2.44172e-07)
(8.7758 0.191168 -3.28805e-07)
(8.77579 0.191168 -4.17071e-07)
(8.77579 0.191168 -5.00258e-07)
(8.77579 0.191168 -5.6864e-07)
(8.77579 0.191169 -6.14767e-07)
(8.77579 0.191169 -6.34104e-07)
(8.77579 0.191169 -6.18264e-07)
(8.77579 0.191169 -5.70132e-07)
(8.77579 0.191169 -4.74178e-07)
(8.77579 0.191169 -3.61538e-07)
(8.77579 0.19117 -2.22477e-07)
(8.77579 0.19117 -1.29814e-07)
(8.77576 0.191169 -6.60137e-08)
(8.68042 0.181363 2.6073e-08)
(8.68044 0.181364 7.34747e-08)
(8.68044 0.181364 1.44279e-07)
(8.68044 0.181363 2.07614e-07)
(8.68044 0.181363 2.77498e-07)
(8.68044 0.181363 3.36733e-07)
(8.68044 0.181363 3.88823e-07)
(8.68044 0.181363 4.3232e-07)
(8.68044 0.181363 4.69792e-07)
(8.68044 0.181362 5.02302e-07)
(8.68044 0.181362 5.31775e-07)
(8.68044 0.181362 5.59046e-07)
(8.68044 0.181362 5.82847e-07)
(8.68044 0.181362 6.05952e-07)
(8.68044 0.181362 6.24951e-07)
(8.68044 0.181362 6.40064e-07)
(8.68044 0.181362 6.38305e-07)
(8.68044 0.181362 5.83658e-07)
(8.68044 0.181362 4.24533e-07)
(8.68041 0.181361 1.39263e-07)
(8.67894 0.0854378 -5.61408e-08)
(8.67897 0.0854381 -1.3342e-07)
(8.67897 0.085438 -2.05932e-07)
(8.67897 0.0854379 -2.80143e-07)
(8.67897 0.0854378 -3.50505e-07)
(8.67897 0.0854377 -4.20784e-07)
(8.67897 0.0854376 -4.88946e-07)
(8.67897 0.0854374 -5.52738e-07)
(8.67897 0.0854373 -6.09517e-07)
(8.67897 0.0854372 -6.54949e-07)
(8.67897 0.0854371 -6.86174e-07)
(8.67897 0.085437 -6.99179e-07)
(8.67897 0.0854369 -6.91132e-07)
(8.67897 0.0854368 -6.57692e-07)
(8.67897 0.0854367 -5.99699e-07)
(8.67897 0.0854366 -5.11259e-07)
(8.67897 0.0854365 -4.049e-07)
(8.67897 0.0854364 -2.81661e-07)
(8.67897 0.0854363 -1.69714e-07)
(8.67894 0.085436 -6.22359e-08)
(8.63722 0.0709967 -1.81994e-09)
(8.63724 0.0709969 -4.35034e-09)
(8.63724 0.0709967 1.6935e-08)
(8.63724 0.0709964 4.12554e-08)
(8.63724 0.0709961 8.16733e-08)
(8.63724 0.0709956 1.27492e-07)
(8.63724 0.0709952 1.79853e-07)
(8.63724 0.0709947 2.33683e-07)
(8.63724 0.0709942 2.86889e-07)
(8.63724 0.0709937 3.37274e-07)
(8.63724 0.0709932 3.81292e-07)
(8.63724 0.0709927 4.19756e-07)
(8.63724 0.0709922 4.50943e-07)
(8.63724 0.0709918 4.75591e-07)
(8.63724 0.0709914 4.92873e-07)
(8.63724 0.070991 4.98459e-07)
(8.63724 0.0709906 4.86948e-07)
(8.63724 0.0709903 4.31809e-07)
(8.63724 0.0709901 3.35829e-07)
(8.63721 0.0709897 1.30495e-07)
(8.63874 0.00627456 -1.36527e-07)
(8.63876 0.00627443 -3.76688e-07)
(8.63876 0.00627409 -6.11677e-07)
(8.63876 0.00627361 -8.2836e-07)
(8.63876 0.00627298 -1.01574e-06)
(8.63876 0.00627224 -1.17119e-06)
(8.63876 0.00627141 -1.29368e-06)
(8.63876 0.00627051 -1.385e-06)
(8.63876 0.00626956 -1.44826e-06)
(8.63876 0.00626859 -1.48372e-06)
(8.63876 0.0062676 -1.49383e-06)
(8.63876 0.00626663 -1.47721e-06)
(8.63876 0.00626568 -1.43243e-06)
(8.63876 0.00626478 -1.35862e-06)
(8.63876 0.00626394 -1.25502e-06)
(8.63876 0.00626318 -1.12552e-06)
(8.63876 0.0062625 -9.59027e-07)
(8.63876 0.00626194 -7.63985e-07)
(8.63876 0.0062615 -4.80766e-07)
(8.63874 0.00626129 -1.4343e-07)
(8.63739 -0.0208112 -1.44879e-07)
(8.63742 -0.0208114 -4.27231e-07)
(8.63742 -0.0208115 -6.79705e-07)
(8.63742 -0.0208116 -9.01418e-07)
(8.63742 -0.0208117 -1.07855e-06)
(8.63742 -0.0208119 -1.21149e-06)
(8.63742 -0.020812 -1.29834e-06)
(8.63742 -0.0208122 -1.34508e-06)
(8.63742 -0.0208124 -1.35713e-06)
(8.63742 -0.0208125 -1.33821e-06)
(8.63742 -0.0208127 -1.29416e-06)
(8.63742 -0.0208128 -1.22592e-06)
(8.63742 -0.020813 -1.13467e-06)
(8.63742 -0.0208131 -1.02114e-06)
(8.63742 -0.0208132 -8.86521e-07)
(8.63742 -0.0208133 -7.4148e-07)
(8.63742 -0.0208134 -5.79391e-07)
(8.63742 -0.0208135 -4.28796e-07)
(8.63742 -0.0208135 -2.05001e-07)
(8.63739 -0.0208134 -2.85253e-08)
(8.65367 -0.0703243 -1.65113e-07)
(8.6537 -0.0703247 -4.83926e-07)
(8.6537 -0.070325 -7.80789e-07)
(8.6537 -0.0703254 -1.04736e-06)
(8.6537 -0.0703259 -1.26982e-06)
(8.6537 -0.0703265 -1.44815e-06)
(8.6537 -0.0703273 -1.58139e-06)
(8.6537 -0.0703281 -1.67536e-06)
(8.6537 -0.0703289 -1.73496e-06)
(8.6537 -0.0703299 -1.76379e-06)
(8.6537 -0.0703308 -1.76481e-06)
(8.6537 -0.0703317 -1.73721e-06)
(8.6537 -0.0703327 -1.67894e-06)
(8.6537 -0.0703335 -1.58625e-06)
(8.6537 -0.0703344 -1.45528e-06)
(8.6537 -0.0703351 -1.29523e-06)
(8.6537 -0.0703357 -1.08516e-06)
(8.6537 -0.0703362 -8.56159e-07)
(8.6537 -0.0703366 -4.92234e-07)
(8.65367 -0.0703364 -1.20432e-07)
(8.68643 -0.103397 -2.74263e-07)
(8.68646 -0.103398 -7.84033e-07)
(8.68646 -0.103398 -1.26054e-06)
(8.68646 -0.103399 -1.69389e-06)
(8.68646 -0.103399 -2.06692e-06)
(8.68646 -0.1034 -2.37367e-06)
(8.68646 -0.103401 -2.61141e-06)
(8.68646 -0.103402 -2.7811e-06)
(8.68646 -0.103403 -2.88707e-06)
(8.68646 -0.103404 -2.92964e-06)
(8.68646 -0.103405 -2.91166e-06)
(8.68646 -0.103405 -2.83148e-06)
(8.68646 -0.103406 -2.68856e-06)
(8.68646 -0.103407 -2.48409e-06)
(8.68646 -0.103408 -2.21789e-06)
(8.68646 -0.103408 -1.90894e-06)
(8.68646 -0.103408 -1.54376e-06)
(8.68646 -0.103408 -1.16903e-06)
(8.68646 -0.103409 -6.45747e-07)
(8.68643 -0.103408 -1.44019e-07)
(8.71783 -0.168201 -3.06963e-07)
(8.71785 -0.168201 -9.31903e-07)
(8.71785 -0.168202 -1.49751e-06)
(8.71785 -0.168202 -2.0074e-06)
(8.71785 -0.168202 -2.43971e-06)
(8.71785 -0.168203 -2.79114e-06)
(8.71785 -0.168203 -3.05514e-06)
(8.71785 -0.168204 -3.23506e-06)
(8.71785 -0.168204 -3.332e-06)
(8.71785 -0.168205 -3.34939e-06)
(8.71785 -0.168206 -3.29118e-06)
(8.71785 -0.168206 -3.15867e-06)
(8.71785 -0.168207 -2.95388e-06)
(8.71785 -0.168208 -2.681e-06)
(8.71785 -0.168208 -2.34559e-06)
(8.71785 -0.168209 -1.96759e-06)
(8.71785 -0.168209 -1.54421e-06)
(8.71785 -0.16821 -1.1291e-06)
(8.71785 -0.16821 -5.77481e-07)
(8.71783 -0.168209 -1.24319e-07)
(8.79353 -0.194934 -3.58359e-07)
(8.79356 -0.194934 -1.00085e-06)
(8.79356 -0.194934 -1.61705e-06)
(8.79356 -0.194934 -2.19255e-06)
(8.79356 -0.194935 -2.70828e-06)
(8.79356 -0.194935 -3.15282e-06)
(8.79356 -0.194935 -3.51948e-06)
(8.79356 -0.194935 -3.80266e-06)
(8.79356 -0.194935 -4.00076e-06)
(8.79356 -0.194935 -4.10953e-06)
(8.79356 -0.194935 -4.12606e-06)
(8.79356 -0.194935 -4.04604e-06)
(8.79356 -0.194935 -3.86687e-06)
(8.79356 -0.194935 -3.58866e-06)
(8.79356 -0.194934 -3.21345e-06)
(8.79356 -0.194934 -2.76486e-06)
(8.79356 -0.194934 -2.23403e-06)
(8.79356 -0.194934 -1.67896e-06)
(8.79356 -0.194934 -9.75824e-07)
(8.79353 -0.194933 -2.54299e-07)
(8.82851 -0.310391 -3.00176e-07)
(8.82853 -0.310393 -9.59891e-07)
(8.82853 -0.310393 -1.53004e-06)
(8.82853 -0.310393 -2.05357e-06)
(8.82853 -0.310393 -2.49825e-06)
(8.82853 -0.310394 -2.86415e-06)
(8.82853 -0.310394 -3.14054e-06)
(8.82853 -0.310395 -3.32543e-06)
(8.82853 -0.310396 -3.4183e-06)
(8.82853 -0.310397 -3.41988e-06)
(8.82853 -0.310398 -3.33359e-06)
(8.82853 -0.310399 -3.16255e-06)
(8.82853 -0.3104 -2.91199e-06)
(8.82853 -0.310401 -2.58925e-06)
(8.82853 -0.310402 -2.21009e-06)
(8.82853 -0.310403 -1.7978e-06)
(8.82853 -0.310404 -1.3613e-06)
(8.82853 -0.310404 -9.7134e-07)
(8.82853 -0.310405 -4.96185e-07)
(8.82851 -0.310404 -1.31765e-07)
(8.96266 -0.320678 -4.22059e-07)
(8.96269 -0.32068 -1.19698e-06)
(8.96269 -0.32068 -1.97067e-06)
(8.96269 -0.320679 -2.73115e-06)
(8.96269 -0.320679 -3.44323e-06)
(8.96269 -0.320679 -4.08932e-06)
(8.96269 -0.320679 -4.65136e-06)
(8.96269 -0.320679 -5.11773e-06)
(8.96269 -0.320679 -5.47717e-06)
(8.96269 -0.320679 -5.71886e-06)
(8.96269 -0.320678 -5.83409e-06)
(8.96269 -0.320678 -5.81451e-06)
(8.96269 -0.320678 -5.65478e-06)
(8.96269 -0.320678 -5.35409e-06)
(8.96269 -0.320678 -4.91693e-06)
(8.96269 -0.320677 -4.35937e-06)
(8.96269 -0.320677 -3.68211e-06)
(8.96269 -0.320677 -2.91739e-06)
(8.96269 -0.320677 -1.89937e-06)
(8.96266 -0.320676 -6.23321e-07)
(8.98002 -0.53411 -2.60458e-07)
(8.98005 -0.534112 -9.0656e-07)
(8.98005 -0.534112 -1.42035e-06)
(8.98005 -0.534112 -1.91244e-06)
(8.98005 -0.534113 -2.32916e-06)
(8.98005 -0.534113 -2.6794e-06)
(8.98005 -0.534114 -2.94069e-06)
(8.98005 -0.534115 -3.11216e-06)
(8.98005 -0.534116 -3.18981e-06)
(8.98005 -0.534117 -3.17415e-06)
(8.98005 -0.534118 -3.07191e-06)
(8.98005 -0.534119 -2.88749e-06)
(8.98005 -0.53412 -2.6336e-06)
(8.98005 -0.534122 -2.3217e-06)
(8.98005 -0.534123 -1.97022e-06)
(8.98005 -0.534124 -1.60828e-06)
(8.98005 -0.534125 -1.2273e-06)
(8.98005 -0.534126 -8.663e-07)
(8.98005 -0.534127 -4.28442e-07)
(8.98002 -0.534125 -1.46637e-07)
(9.15023 -0.516654 -4.90585e-07)
(9.15025 -0.516656 -1.48468e-06)
(9.15025 -0.516656 -2.4225e-06)
(9.15025 -0.516655 -3.42136e-06)
(9.15025 -0.516655 -4.35085e-06)
(9.15025 -0.516655 -5.22686e-06)
(9.15025 -0.516654 -6.00545e-06)
(9.15026 -0.516654 -6.67606e-06)
(9.15026 -0.516653 -7.21698e-06)
(9.15026 -0.516653 -7.61117e-06)
(9.15026 -0.516652 -7.84599e-06)
(9.15026 -0.516651 -7.91046e-06)
(9.15026 -0.51665 -7.79355e-06)
(9.15026 -0.516649 -7.48878e-06)
(9.15026 -0.516649 -6.9905e-06)
(9.15026 -0.516648 -6.30463e-06)
(9.15026 -0.516647 -5.41905e-06)
(9.15026 -0.516646 -4.34836e-06)
(9.15026 -0.516645 -2.90365e-06)
(9.15023 -0.516643 -1.0677e-06)
(9.11996 -0.907719 -2.34221e-07)
(9.11999 -0.907722 -8.24098e-07)
(9.11999 -0.907722 -1.17395e-06)
(9.11999 -0.907722 -1.55716e-06)
(9.11999 -0.907722 -1.82982e-06)
(9.11999 -0.907721 -2.05159e-06)
(9.11999 -0.907721 -2.1781e-06)
(9.11999 -0.907721 -2.21973e-06)
(9.11999 -0.907721 -2.17183e-06)
(9.11999 -0.907721 -2.03818e-06)
(9.11999 -0.90772 -1.8322e-06)
(9.11999 -0.90772 -1.56506e-06)
(9.11999 -0.90772 -1.25167e-06)
(9.11999 -0.90772 -9.10655e-07)
(9.11999 -0.90772 -5.54703e-07)
(9.11999 -0.90772 -2.17652e-07)
(9.11999 -0.90772 1.24148e-07)
(9.11999 -0.90772 3.25015e-07)
(9.11999 -0.90772 7.56479e-07)
(9.11997 -0.907717 4.57401e-07)
(9.0963 -0.843003 -4.09586e-07)
(9.09633 -0.843006 -1.56986e-06)
(9.09633 -0.843007 -2.26614e-06)
(9.09633 -0.843007 -3.24856e-06)
(9.09633 -0.843009 -4.11261e-06)
(9.09633 -0.84301 -4.96482e-06)
(9.09633 -0.843012 -5.72474e-06)
(9.09633 -0.843015 -6.39821e-06)
(9.09633 -0.843017 -6.95333e-06)
(9.09633 -0.84302 -7.37223e-06)
(9.09633 -0.843024 -7.64652e-06)
(9.09633 -0.843028 -7.7718e-06)
(9.09633 -0.843031 -7.72855e-06)
(9.09633 -0.843035 -7.5036e-06)
(9.09633 -0.84304 -7.08583e-06)
(9.09633 -0.843043 -6.48231e-06)
(9.09633 -0.843047 -5.64371e-06)
(9.09633 -0.84305 -4.61226e-06)
(9.09633 -0.843053 -3.01506e-06)
(9.09631 -0.843052 -1.29699e-06)
(8.89741 0.693759 -1.08384e-08)
(8.89744 0.693762 -3.47985e-07)
(8.89744 0.693762 -2.73041e-07)
(8.89744 0.693762 -4.11518e-07)
(8.89744 0.693762 -4.77727e-07)
(8.89744 0.693761 -5.98064e-07)
(8.89744 0.693761 -7.10428e-07)
(8.89744 0.693761 -8.32171e-07)
(8.89744 0.693762 -9.42765e-07)
(8.89744 0.693762 -1.03941e-06)
(8.89744 0.693762 -1.11275e-06)
(8.89743 0.693762 -1.15677e-06)
(8.89743 0.693762 -1.17013e-06)
(8.89743 0.693763 -1.14804e-06)
(8.89743 0.693763 -1.10885e-06)
(8.89743 0.693763 -1.04214e-06)
(8.89743 0.693764 -9.9763e-07)
(8.89743 0.693764 -9.30838e-07)
(8.89743 0.693764 -6.03086e-07)
(8.8974 0.693762 -4.52545e-07)
(8.75817 0.718601 -1.88117e-07)
(8.7582 0.718603 -3.16174e-07)
(8.7582 0.718603 -3.75972e-07)
(8.7582 0.718603 -4.80026e-07)
(8.7582 0.718603 -5.48035e-07)
(8.7582 0.718604 -6.29337e-07)
(8.7582 0.718604 -6.91842e-07)
(8.7582 0.718604 -7.43276e-07)
(8.7582 0.718604 -7.73125e-07)
(8.7582 0.718605 -7.8005e-07)
(8.7582 0.718605 -7.60316e-07)
(8.7582 0.718605 -7.13888e-07)
(8.7582 0.718605 -6.44655e-07)
(8.7582 0.718605 -5.53336e-07)
(8.7582 0.718605 -4.56026e-07)
(8.7582 0.718605 -3.52398e-07)
(8.7582 0.718606 -2.71071e-07)
(8.7582 0.718606 -2.14132e-07)
(8.7582 0.718606 -1.85458e-07)
(8.75817 0.718604 -8.36542e-08)
(8.79238 0.420149 -1.57524e-07)
(8.79241 0.42015 -1.37228e-07)
(8.7924 0.420151 -1.02388e-07)
(8.7924 0.420151 -1.2648e-07)
(8.7924 0.420151 -1.53312e-07)
(8.7924 0.420152 -2.32588e-07)
(8.7924 0.420152 -3.33506e-07)
(8.7924 0.420153 -4.56393e-07)
(8.7924 0.420153 -5.84129e-07)
(8.7924 0.420154 -7.05329e-07)
(8.7924 0.420154 -8.06164e-07)
(8.7924 0.420155 -8.764e-07)
(8.7924 0.420156 -9.11268e-07)
(8.7924 0.420156 -9.0109e-07)
(8.7924 0.420157 -8.56116e-07)
(8.7924 0.420157 -7.52491e-07)
(8.79239 0.420158 -6.3805e-07)
(8.79239 0.420158 -4.81325e-07)
(8.79239 0.420159 -3.57054e-07)
(8.79237 0.420158 -1.28482e-07)
(8.6747 0.423589 -2.05781e-08)
(8.67473 0.42359 -2.04817e-09)
(8.67473 0.42359 5.72615e-08)
(8.67473 0.423591 1.05684e-07)
(8.67473 0.423591 1.60948e-07)
(8.67473 0.423591 1.98926e-07)
(8.67473 0.423591 2.30287e-07)
(8.67473 0.423592 2.53602e-07)
(8.67473 0.423592 2.74897e-07)
(8.67473 0.423592 2.9821e-07)
(8.67473 0.423593 3.27401e-07)
(8.67473 0.423593 3.62605e-07)
(8.67473 0.423594 4.02614e-07)
(8.67473 0.423594 4.49166e-07)
(8.67473 0.423594 4.9808e-07)
(8.67473 0.423595 5.5361e-07)
(8.67472 0.423595 6.00977e-07)
(8.67472 0.423596 6.04229e-07)
(8.67472 0.423596 4.50859e-07)
(8.6747 0.423595 1.45582e-07)
(8.68683 0.238847 -2.18134e-08)
(8.68685 0.238848 5.30581e-08)
(8.68685 0.238848 1.35199e-07)
(8.68685 0.238848 1.95324e-07)
(8.68685 0.238848 2.36302e-07)
(8.68685 0.238848 2.40091e-07)
(8.68685 0.238848 2.14482e-07)
(8.68685 0.238849 1.63942e-07)
(8.68685 0.238849 9.84331e-08)
(8.68685 0.238849 2.87043e-08)
(8.68685 0.23885 -3.58689e-08)
(8.68685 0.23885 -8.63711e-08)
(8.68685 0.23885 -1.1795e-07)
(8.68685 0.23885 -1.19428e-07)
(8.68685 0.238851 -9.55717e-08)
(8.68685 0.238851 -2.19873e-08)