/*--------------------------------*- C++ -*----------------------------------*\
| =========                 |                                                 |
| \\      /  F ield         | OpenFOAM: The Open Source CFD Toolbox           |
|  \\    /   O peration     | Version:  2212                                  |
|   \\  /    A nd           | Website:  www.openfoam.com                      |
|    \\/     M anipulation  |                                                 |
\*---------------------------------------------------------------------------*/
FoamFile
{
    version     2.0;
    format      ascii;
    arch        "LSB;label=32;scalar=64";
    class       volScalarField;
    location    "0.000315";
    object      p;
}
// * * * * * * * * * * * * * * * * * * * * * * * * * * * * * * * * * * * * * //

dimensions      [1 -1 -2 0 0 0 0];

internalField   nonuniform List<scalar> 
23217
(
1.01234e+06
1.01237e+06
1.0124e+06
1.01244e+06
1.01247e+06
1.01254e+06
1.01265e+06
1.01283e+06
1.01303e+06
1.01325e+06
1.01352e+06
1.01381e+06
1.01411e+06
1.0144e+06
1.0147e+06
1.015e+06
1.01529e+06
1.0156e+06
1.01591e+06
1.01622e+06
1.01653e+06
1.01683e+06
1.01715e+06
1.01749e+06
1.01786e+06
1.01827e+06
1.01871e+06
1.01921e+06
1.01981e+06
1.02047e+06
1.02116e+06
1.02191e+06
1.02272e+06
1.02363e+06
1.02462e+06
1.02569e+06
1.02682e+06
1.02802e+06
1.02927e+06
1.03054e+06
1.03185e+06
1.03318e+06
1.03447e+06
1.03571e+06
1.03682e+06
1.03747e+06
1.03813e+06
1.03865e+06
1.03898e+06
1.03911e+06
1.03911e+06
1.03897e+06
1.03869e+06
1.03828e+06
1.03778e+06
1.03721e+06
1.0366e+06
1.03597e+06
1.03536e+06
1.03477e+06
1.0342e+06
1.0336e+06
1.01233e+06
1.01233e+06
706607
826007
890116
922695
949597
965117
976912
984902
990407
994925
997859
1.00051e+06
1.00245e+06
1.0042e+06
1.00551e+06
1.00664e+06
1.00749e+06
1.00823e+06
1.00885e+06
1.00935e+06
1.00975e+06
1.01003e+06
1.01026e+06
1.01045e+06
1.01066e+06
1.01086e+06
1.01105e+06
1.0112e+06
1.01134e+06
1.01145e+06
1.01154e+06
1.0116e+06
1.01164e+06
1.01168e+06
1.01173e+06
1.0118e+06
1.01186e+06
1.01191e+06
1.01195e+06
1.01199e+06
1.01203e+06
1.01206e+06
1.01209e+06
1.01212e+06
1.01215e+06
1.01218e+06
1.01222e+06
1.01225e+06
1.01228e+06
1.01231e+06
306857
213319
162761
124711
95658.6
73766.6
58794.4
47446.2
38837.2
32284
26726.7
22684.5
19307.1
16644.6
14768.6
13041
11525.3
10427.6
9300.99
8355.18
7750.49
6802.43
6420.87
5770.13
5297.37
4958.96
4497.26
4199.13
3851.75
3637.16
3324.25
3192.6
2909.76
2773.97
2583.74
2489.07
2318.75
2257.14
2146.36
2050.3
1882.85
1765.46
1634.72
1580.33
1471.58
1397.04
1313.82
1264.92
1190.45
1131.65
1074.11
1045.88
1016.37
974.263
927.144
893.973
874.275
859.01
829.047
810.644
779.445
760.241
728.959
709.324
684.471
668.6
642.175
624.188
605.057
594.034
583.468
570.449
557.228
543.182
526.291
513.099
502.086
491.113
478.845
466.601
456.584
446.86
439.441
429.776
422.104
414.248
406.922
401.505
393.865
389.48
384.258
381.284
380.047
380.152
380.879
382.603
384.916
388.023
389.964
390.53
390.009
387.91
382.528
375.745
367.436
358.775
351.348
342.51
332.007
322.032
310.593
299.477
288.682
276.784
265.198
252.677
237.872
222.135
193.817
156.979
337400
216960
163796
125166
96277.6
74577.9
59410.4
47838.9
39081
32515.3
26922.8
22824.7
19424.8
16733.5
14835.2
13108.4
11578.8
10469.6
9344.16
8381.79
7779.01
6823.17
6442.24
5790.76
5310.81
4972.31
4510.42
4210.81
3860.61
3646.75
3330.7
3196.59
2920.36
2781.99
2589.46
2492.78
2322.39
2258.64
2148.86
2053.79
1887.77
1771.69
1638.3
1582.71
1474.73
1400.08
1315.89
1266.78
1193.22
1134.34
1075.97
1046.54
1016.97
975.459
928.758
895.311
874.937
859.481
829.59
811.142
780.134
760.939
729.894
710.146
685.033
669.182
643.043
625.092
605.811
594.461
583.753
570.775
557.624
543.698
526.948
513.659
502.567
491.62
479.403
467.087
456.948
447.116
439.659
430.082
422.411
414.584
407.238
401.798
394.196
389.787
384.543
381.518
380.217
380.263
380.905
382.56
384.799
387.814
389.698
390.217
389.657
387.543
382.25
375.525
367.273
358.65
351.203
342.354
331.895
321.928
310.52
299.438
288.663
276.798
265.189
252.651
237.76
221.949
193.43
158.111
698571
821065
886854
920873
948339
964219
976322
984492
990118
994699
997705
1.00038e+06
1.00236e+06
1.00412e+06
1.00544e+06
1.00658e+06
1.00745e+06
1.0082e+06
1.00882e+06
1.00933e+06
1.00974e+06
1.01002e+06
1.01025e+06
1.01044e+06
1.01065e+06
1.01085e+06
1.01104e+06
1.01119e+06
1.01134e+06
1.01145e+06
1.01154e+06
1.01159e+06
1.01163e+06
1.01167e+06
1.01173e+06
1.01179e+06
1.01186e+06
1.01191e+06
1.01195e+06
1.01199e+06
1.01203e+06
1.01206e+06
1.01209e+06
1.01212e+06
1.01215e+06
1.01218e+06
1.01222e+06
1.01225e+06
1.01228e+06
1.01231e+06
1.01233e+06
1.01233e+06
1.01234e+06
1.01237e+06
1.0124e+06
1.01244e+06
1.01247e+06
1.01254e+06
1.01265e+06
1.01283e+06
1.01303e+06
1.01325e+06
1.01353e+06
1.01381e+06
1.01411e+06
1.01441e+06
1.0147e+06
1.015e+06
1.01529e+06
1.0156e+06
1.01591e+06
1.01622e+06
1.01653e+06
1.01683e+06
1.01715e+06
1.0175e+06
1.01786e+06
1.01827e+06
1.01871e+06
1.01921e+06
1.01981e+06
1.02047e+06
1.02117e+06
1.02191e+06
1.02273e+06
1.02363e+06
1.02462e+06
1.02569e+06
1.02683e+06
1.02802e+06
1.02927e+06
1.03054e+06
1.03185e+06
1.03318e+06
1.03447e+06
1.03572e+06
1.03682e+06
1.03747e+06
1.03813e+06
1.03865e+06
1.03898e+06
1.03911e+06
1.03911e+06
1.03897e+06
1.03869e+06
1.03828e+06
1.03778e+06
1.03721e+06
1.0366e+06
1.03597e+06
1.03536e+06
1.03477e+06
1.0342e+06
1.0336e+06
1.01234e+06
1.01237e+06
1.0124e+06
1.01244e+06
1.01247e+06
1.01254e+06
1.01265e+06
1.01283e+06
1.01304e+06
1.01325e+06
1.01353e+06
1.01381e+06
1.01411e+06
1.01441e+06
1.0147e+06
1.015e+06
1.01529e+06
1.0156e+06
1.01591e+06
1.01622e+06
1.01653e+06
1.01683e+06
1.01715e+06
1.0175e+06
1.01786e+06
1.01827e+06
1.01871e+06
1.01921e+06
1.01981e+06
1.02047e+06
1.02117e+06
1.02191e+06
1.02273e+06
1.02363e+06
1.02462e+06
1.02569e+06
1.02683e+06
1.02802e+06
1.02927e+06
1.03055e+06
1.03185e+06
1.03318e+06
1.03447e+06
1.03572e+06
1.03682e+06
1.03747e+06
1.03813e+06
1.03865e+06
1.03898e+06
1.0391e+06
1.03911e+06
1.03897e+06
1.03869e+06
1.03828e+06
1.03778e+06
1.03721e+06
1.0366e+06
1.03597e+06
1.03536e+06
1.03477e+06
1.0342e+06
1.0336e+06
1.01233e+06
1.01233e+06
699461
819789
884704
920994
947962
963991
975852
984428
990126
994712
997729
1.0004e+06
1.00236e+06
1.00408e+06
1.00542e+06
1.00655e+06
1.00743e+06
1.0082e+06
1.00882e+06
1.00933e+06
1.00974e+06
1.01002e+06
1.01025e+06
1.01044e+06
1.01065e+06
1.01085e+06
1.01104e+06
1.01119e+06
1.01133e+06
1.01145e+06
1.01154e+06
1.01159e+06
1.01163e+06
1.01167e+06
1.01173e+06
1.01179e+06
1.01186e+06
1.01191e+06
1.01195e+06
1.01199e+06
1.01203e+06
1.01206e+06
1.01209e+06
1.01212e+06
1.01215e+06
1.01218e+06
1.01221e+06
1.01225e+06
1.01228e+06
1.01231e+06
352690
217475
163488
124662
95877.6
74203.4
58980.6
47525.4
39022.4
32424.8
26918.1
22872.5
19438.3
16771.6
14854
13111.4
11592.6
10483.2
9348.24
8397.79
7790.58
6834.6
6454.85
5803.95
5321.15
4980.2
4520.5
4218.68
3867.17
3653.88
3335.91
3200.84
2926.98
2789.79
2595.93
2495.78
2325.77
2257.62
2150.71
2055.73
1891.34
1777.05
1642.08
1584.99
1477.01
1403.07
1317.69
1268.29
1195.18
1136.9
1078.22
1047.04
1016.65
976.288
930.438
897.012
875.914
860.082
829.884
811.474
780.525
761.508
730.803
711.006
685.57
669.681
643.861
626.086
606.79
595.052
584.01
570.992
557.801
544.103
527.631
514.276
503.048
492.16
480.048
467.697
457.391
447.364
439.81
430.321
422.694
414.9
407.519
402.096
394.529
390.141
384.914
381.849
380.451
380.435
380.975
382.532
384.699
387.608
389.426
389.88
389.278
387.134
381.942
375.316
367.175
358.599
351.096
342.202
331.761
321.797
310.418
299.389
288.667
276.858
265.232
252.665
237.66
221.75
193.187
159.152
370703
224275
163370
124325
95782.9
74598.2
59479.5
47974.9
39268.1
32582.4
27162.2
23052.4
19554.7
16878.9
14900.7
13162.9
11657
10506
9372.69
8421.05
7802.06
6842.62
6466.77
5817.38
5332.15
4987.56
4531.8
4225.24
3873.21
3660.45
3341.14
3205.9
2932.69
2797.94
2603.18
2498.58
2329.38
2256.11
2152.14
2057.14
1894.4
1782.57
1645.97
1587.08
1479.01
1405.98
1319.24
1269.74
1197.01
1139.5
1080.7
1047.42
1016.27
976.785
932.114
898.981
877.184
860.794
830.044
811.453
780.774
761.932
731.693
711.969
686.109
670.128
644.63
627.184
607.925
595.785
584.231
571
557.727
544.343
528.277
514.934
503.578
492.76
480.779
468.4
457.88
447.568
439.856
430.458
422.915
415.173
407.763
402.361
394.836
390.511
385.321
382.223
380.701
380.612
381.048
382.467
384.573
387.381
389.138
389.526
388.896
386.724
381.62
375.128
367.136
358.602
351.036
342.065
331.613
321.647
310.295
299.332
288.699
276.972
265.348
252.742
237.641
221.648
193.291
161.929
701457
818354
882184
920185
946982
963628
975282
984097
989893
994546
997734
1.00036e+06
1.00233e+06
1.00401e+06
1.00537e+06
1.0065e+06
1.0074e+06
1.00817e+06
1.0088e+06
1.00932e+06
1.00972e+06
1.01001e+06
1.01024e+06
1.01043e+06
1.01066e+06
1.01086e+06
1.01104e+06
1.01119e+06
1.01133e+06
1.01144e+06
1.01154e+06
1.01159e+06
1.01163e+06
1.01167e+06
1.01173e+06
1.01179e+06
1.01186e+06
1.01191e+06
1.01195e+06
1.01199e+06
1.01203e+06
1.01206e+06
1.01209e+06
1.01212e+06
1.01215e+06
1.01218e+06
1.01221e+06
1.01225e+06
1.01228e+06
1.01231e+06
1.01233e+06
1.01233e+06
1.01234e+06
1.01237e+06
1.0124e+06
1.01244e+06
1.01247e+06
1.01254e+06
1.01265e+06
1.01283e+06
1.01304e+06
1.01325e+06
1.01353e+06
1.01381e+06
1.01411e+06
1.01441e+06
1.0147e+06
1.015e+06
1.01529e+06
1.0156e+06
1.01591e+06
1.01622e+06
1.01653e+06
1.01683e+06
1.01715e+06
1.0175e+06
1.01786e+06
1.01827e+06
1.01871e+06
1.01922e+06
1.01982e+06
1.02047e+06
1.02117e+06
1.02192e+06
1.02273e+06
1.02364e+06
1.02462e+06
1.02569e+06
1.02683e+06
1.02803e+06
1.02927e+06
1.03055e+06
1.03186e+06
1.03318e+06
1.03447e+06
1.03572e+06
1.03682e+06
1.03747e+06
1.03813e+06
1.03865e+06
1.03898e+06
1.0391e+06
1.03911e+06
1.03898e+06
1.03869e+06
1.03828e+06
1.03778e+06
1.03721e+06
1.0366e+06
1.03597e+06
1.03536e+06
1.03477e+06
1.0342e+06
1.0336e+06
1.01234e+06
1.01237e+06
1.0124e+06
1.01244e+06
1.01247e+06
1.01254e+06
1.01265e+06
1.01284e+06
1.01304e+06
1.01325e+06
1.01353e+06
1.01381e+06
1.01411e+06
1.01441e+06
1.0147e+06
1.015e+06
1.01529e+06
1.0156e+06
1.01591e+06
1.01622e+06
1.01653e+06
1.01683e+06
1.01715e+06
1.0175e+06
1.01786e+06
1.01827e+06
1.01871e+06
1.01922e+06
1.01982e+06
1.02047e+06
1.02117e+06
1.02192e+06
1.02273e+06
1.02364e+06
1.02463e+06
1.02569e+06
1.02683e+06
1.02803e+06
1.02927e+06
1.03055e+06
1.03186e+06
1.03318e+06
1.03447e+06
1.03572e+06
1.03682e+06
1.03747e+06
1.03813e+06
1.03865e+06
1.03898e+06
1.0391e+06
1.03911e+06
1.03898e+06
1.03869e+06
1.03828e+06
1.03778e+06
1.03721e+06
1.0366e+06
1.03597e+06
1.03536e+06
1.03477e+06
1.0342e+06
1.0336e+06
1.01232e+06
1.01233e+06
706905
816171
881537
920491
946148
963492
974957
983784
989810
994523
997758
1.00036e+06
1.00234e+06
1.00402e+06
1.00539e+06
1.00646e+06
1.00739e+06
1.00816e+06
1.00881e+06
1.00932e+06
1.00972e+06
1.01e+06
1.01024e+06
1.01043e+06
1.01066e+06
1.01086e+06
1.01104e+06
1.01119e+06
1.01133e+06
1.01144e+06
1.01154e+06
1.01159e+06
1.01163e+06
1.01167e+06
1.01173e+06
1.01179e+06
1.01186e+06
1.01191e+06
1.01195e+06
1.01199e+06
1.01203e+06
1.01206e+06
1.01209e+06
1.01212e+06
1.01215e+06
1.01218e+06
1.01221e+06
1.01224e+06
1.01227e+06
1.0123e+06
393458
229017
164095
123547
95233
74372.1
59392.4
47885.5
39166
32472.4
27080.6
22943.6
19545.7
16932.1
14901.3
13116.6
11675.5
10471.9
9389.88
8446.48
7792.61
6858.46
6472.24
5827.18
5342.09
4987.45
4544.74
4229.08
3878.72
3666.38
3347.01
3211.62
2937.6
2805.88
2611
2501.95
2333.69
2254.17
2151.84
2057.04
1896.82
1787.83
1649.82
1589.04
1481
1408.75
1320.67
1271.41
1198.86
1142.12
1083.32
1047.86
1015.96
977.104
933.672
901.143
878.723
861.635
830.218
811.427
780.754
762.245
732.58
713.031
686.687
670.559
645.374
628.359
609.188
596.67
584.491
570.966
557.596
544.468
528.887
515.642
504.161
493.421
481.583
469.194
458.432
447.762
439.823
430.518
423.079
415.41
407.989
402.606
395.124
390.893
385.753
382.634
380.967
380.775
381.119
382.354
384.402
387.112
388.804
389.134
388.49
386.303
381.279
374.952
367.141
358.649
351.008
341.938
331.453
321.488
310.159
299.274
288.758
277.132
265.532
252.894
237.699
221.657
193.617
164.011
414825
239248
166305
122604
94286.9
74040.2
59296.9
47773.6
39081.2
32418.1
27117.3
23029.6
19729.8
17091.3
14946
13199.6
11725
10471.5
9414.28
8455.29
7784.87
6881.45
6458.84
5840.13
5349.21
4987.09
4558.68
4229.56
3884.03
3672.28
3354.29
3217.6
2941.48
2812.73
2619.51
2506.27
2338.92
2252.21
2150.82
2056.29
1896.95
1792.3
1653.36
1590.94
1482.9
1411.25
1322.11
1273.43
1200.85
1144.78
1085.95
1048.5
1015.77
977.418
935.117
903.446
880.499
862.574
830.398
811.384
780.666
762.476
733.462
714.174
687.309
670.985
646.094
629.577
610.53
597.71
584.785
570.881
557.395
544.502
529.464
516.394
504.793
494.129
482.438
470.069
459.053
447.989
439.747
430.461
423.183
415.603
408.198
402.837
395.396
391.28
386.197
383.076
381.257
380.917
381.179
382.21
384.184
386.792
388.409
388.692
388.052
385.873
380.931
374.795
367.188
358.728
350.994
341.819
331.285
321.333
310.027
299.228
288.848
277.332
265.768
253.102
237.83
221.752
194.106
165.535
713314
814139
880097
920382
945276
963032
974659
983649
989623
994353
997728
1.00031e+06
1.00234e+06
1.00396e+06
1.00536e+06
1.00643e+06
1.00736e+06
1.00813e+06
1.0088e+06
1.00931e+06
1.00971e+06
1.00999e+06
1.01023e+06
1.01043e+06
1.01066e+06
1.01086e+06
1.01105e+06
1.01119e+06
1.01132e+06
1.01144e+06
1.01153e+06
1.01159e+06
1.01163e+06
1.01167e+06
1.01173e+06
1.01179e+06
1.01186e+06
1.01191e+06
1.01195e+06
1.01199e+06
1.01203e+06
1.01206e+06
1.01209e+06
1.01212e+06
1.01215e+06
1.01218e+06
1.01221e+06
1.01224e+06
1.01227e+06
1.0123e+06
1.01232e+06
1.01233e+06
1.01234e+06
1.01236e+06
1.0124e+06
1.01244e+06
1.01247e+06
1.01254e+06
1.01265e+06
1.01284e+06
1.01304e+06
1.01325e+06
1.01353e+06
1.01381e+06
1.01411e+06
1.01441e+06
1.0147e+06
1.015e+06
1.01529e+06
1.01561e+06
1.01591e+06
1.01622e+06
1.01653e+06
1.01683e+06
1.01715e+06
1.0175e+06
1.01787e+06
1.01827e+06
1.01871e+06
1.01922e+06
1.01982e+06
1.02047e+06
1.02117e+06
1.02192e+06
1.02273e+06
1.02364e+06
1.02463e+06
1.02569e+06
1.02683e+06
1.02803e+06
1.02927e+06
1.03055e+06
1.03186e+06
1.03318e+06
1.03447e+06
1.03572e+06
1.03682e+06
1.03747e+06
1.03813e+06
1.03865e+06
1.03898e+06
1.0391e+06
1.03911e+06
1.03898e+06
1.03869e+06
1.03828e+06
1.03778e+06
1.03721e+06
1.0366e+06
1.03597e+06
1.03536e+06
1.03477e+06
1.0342e+06
1.0336e+06
1.01234e+06
1.01236e+06
1.0124e+06
1.01244e+06
1.01247e+06
1.01254e+06
1.01265e+06
1.01284e+06
1.01304e+06
1.01325e+06
1.01353e+06
1.01381e+06
1.01411e+06
1.01441e+06
1.0147e+06
1.015e+06
1.01529e+06
1.01561e+06
1.01591e+06
1.01622e+06
1.01653e+06
1.01683e+06
1.01715e+06
1.0175e+06
1.01787e+06
1.01827e+06
1.01871e+06
1.01922e+06
1.01982e+06
1.02047e+06
1.02117e+06
1.02192e+06
1.02273e+06
1.02364e+06
1.02463e+06
1.02569e+06
1.02683e+06
1.02803e+06
1.02927e+06
1.03055e+06
1.03186e+06
1.03318e+06
1.03447e+06
1.03572e+06
1.03682e+06
1.03747e+06
1.03813e+06
1.03865e+06
1.03898e+06
1.0391e+06
1.03911e+06
1.03898e+06
1.03869e+06
1.03828e+06
1.03778e+06
1.03721e+06
1.0366e+06
1.03597e+06
1.03536e+06
1.03477e+06
1.0342e+06
1.0336e+06
1.01231e+06
1.01233e+06
720394
811978
879360
920602
944546
963139
974568
983657
989702
994315
997756
1.00031e+06
1.00235e+06
1.00396e+06
1.00536e+06
1.00643e+06
1.00737e+06
1.00814e+06
1.00881e+06
1.00931e+06
1.00971e+06
1.00998e+06
1.01022e+06
1.01043e+06
1.01067e+06
1.01087e+06
1.01105e+06
1.01119e+06
1.01132e+06
1.01143e+06
1.01153e+06
1.01159e+06
1.01163e+06
1.01168e+06
1.01173e+06
1.01179e+06
1.01186e+06
1.01191e+06
1.01195e+06
1.01199e+06
1.01203e+06
1.01206e+06
1.01209e+06
1.01212e+06
1.01215e+06
1.01218e+06
1.01221e+06
1.01224e+06
1.01227e+06
1.01229e+06
436608
248478
170193
121823
93292.5
73685.5
59201.6
47700.2
39060.1
32413.6
27222
23179.4
19890.8
17161.3
14957.5
13187.1
11688.4
10446.8
9404.97
8446.22
7743.92
6892.03
6429.93
5852.13
5341.77
4984.37
4571.73
4230.74
3891.06
3677.4
3361.46
3223
2943.52
2818.06
2628.47
2511.44
2345.01
2250.29
2148.19
2054.4
1895.58
1795.59
1656.55
1591.99
1484.93
1413.29
1323.64
1275.78
1203.05
1147.52
1088.43
1049.53
1016.46
977.96
936.425
905.865
882.468
863.513
830.538
811.295
780.524
762.634
734.322
715.369
687.96
671.4
646.777
630.808
611.883
598.902
585.091
570.728
557.176
544.48
530.016
517.193
505.471
494.863
483.309
470.997
459.733
448.272
439.645
430.333
423.216
415.733
408.381
403.048
395.644
391.659
386.632
383.533
381.564
381.033
381.223
382.071
383.896
386.43
387.956
388.215
387.595
385.453
380.611
374.681
367.279
358.815
350.99
341.71
331.118
321.205
309.921
299.219
288.97
277.572
266.049
253.358
238.05
221.924
194.893
166.265
459013
260494
175299
121636
92346
73335.8
59023.1
47526.9
38983.8
32386.9
27366.1
23314
20044.6
17247.3
15007.5
13199.4
11703.7
10440.6
9395.1
8446.61
7724.94
6937.32
6421.35
5840.91
5339.93
4970.88
4574.69
4235.04
3900.39
3684.09
3368.46
3222.75
2947.67
2822.22
2639.2
2519.14
2352.09
2248.43
2143.21
2049.92
1892.02
1796.57
1657.17
1591.97
1486.73
1414.65
1325.23
1278.23
1205.48
1150.39
1090.66
1050.84
1017.65
978.833
937.562
908.405
884.527
864.343
830.573
811.127
780.327
762.721
735.193
716.615
688.632
671.808
647.434
632.026
613.197
600.223
585.36
570.515
556.99
544.454
530.561
518.053
506.203
495.61
484.156
471.941
460.45
448.613
439.533
430.121
423.146
415.778
408.522
403.227
395.856
392.01
387.028
383.973
381.867
381.113
381.24
381.93
383.517
386.018
387.436
387.708
387.13
385.065
380.358
374.629
367.434
358.91
350.993
341.633
330.978
321.143
309.876
299.279
289.144
277.866
266.388
253.669
238.364
222.169
195.895
166.377
726636
810307
878767
920997
944441
963138
974560
983555
989662
994122
997753
1.00022e+06
1.00236e+06
1.00395e+06
1.00534e+06
1.00641e+06
1.00736e+06
1.00812e+06
1.0088e+06
1.0093e+06
1.0097e+06
1.00997e+06
1.01021e+06
1.01043e+06
1.01067e+06
1.01087e+06
1.01105e+06
1.01118e+06
1.01131e+06
1.01143e+06
1.01153e+06
1.01159e+06
1.01163e+06
1.01168e+06
1.01173e+06
1.0118e+06
1.01186e+06
1.01191e+06
1.01195e+06
1.01199e+06
1.01202e+06
1.01206e+06
1.01209e+06
1.01212e+06
1.01215e+06
1.01218e+06
1.01221e+06
1.01224e+06
1.01227e+06
1.01229e+06
1.01231e+06
1.01232e+06
1.01234e+06
1.01236e+06
1.0124e+06
1.01244e+06
1.01247e+06
1.01254e+06
1.01265e+06
1.01284e+06
1.01304e+06
1.01325e+06
1.01353e+06
1.01381e+06
1.01411e+06
1.01441e+06
1.0147e+06
1.015e+06
1.01529e+06
1.01561e+06
1.01591e+06
1.01622e+06
1.01653e+06
1.01683e+06
1.01715e+06
1.0175e+06
1.01787e+06
1.01827e+06
1.01871e+06
1.01922e+06
1.01982e+06
1.02048e+06
1.02117e+06
1.02192e+06
1.02273e+06
1.02364e+06
1.02463e+06
1.0257e+06
1.02683e+06
1.02803e+06
1.02928e+06
1.03055e+06
1.03186e+06
1.03318e+06
1.03447e+06
1.03572e+06
1.03682e+06
1.03747e+06
1.03813e+06
1.03865e+06
1.03898e+06
1.0391e+06
1.03911e+06
1.03898e+06
1.03869e+06
1.03828e+06
1.03778e+06
1.03721e+06
1.0366e+06
1.03597e+06
1.03536e+06
1.03477e+06
1.0342e+06
1.0336e+06
1.01234e+06
1.01236e+06
1.01239e+06
1.01244e+06
1.01247e+06
1.01254e+06
1.01265e+06
1.01284e+06
1.01304e+06
1.01325e+06
1.01353e+06
1.01381e+06
1.01412e+06
1.01441e+06
1.0147e+06
1.015e+06
1.01529e+06
1.01561e+06
1.01591e+06
1.01622e+06
1.01653e+06
1.01683e+06
1.01715e+06
1.0175e+06
1.01787e+06
1.01827e+06
1.01871e+06
1.01922e+06
1.01982e+06
1.02048e+06
1.02117e+06
1.02192e+06
1.02273e+06
1.02364e+06
1.02463e+06
1.0257e+06
1.02683e+06
1.02804e+06
1.02928e+06
1.03055e+06
1.03186e+06
1.03318e+06
1.03447e+06
1.03572e+06
1.03682e+06
1.03747e+06
1.03813e+06
1.03865e+06
1.03898e+06
1.0391e+06
1.03911e+06
1.03898e+06
1.03869e+06
1.03828e+06
1.03779e+06
1.03721e+06
1.0366e+06
1.03597e+06
1.03536e+06
1.03477e+06
1.0342e+06
1.0336e+06
1.01231e+06
1.01232e+06
729676
813153
878470
921913
943444
963355
974664
983511
989700
993926
997829
1.00023e+06
1.00238e+06
1.00396e+06
1.00536e+06
1.00642e+06
1.00738e+06
1.00813e+06
1.00881e+06
1.00931e+06
1.00969e+06
1.00996e+06
1.0102e+06
1.01044e+06
1.01068e+06
1.01088e+06
1.01105e+06
1.01118e+06
1.01131e+06
1.01142e+06
1.01152e+06
1.01159e+06
1.01163e+06
1.01168e+06
1.01173e+06
1.0118e+06
1.01185e+06
1.0119e+06
1.01195e+06
1.01199e+06
1.01202e+06
1.01206e+06
1.01209e+06
1.01212e+06
1.01215e+06
1.01217e+06
1.0122e+06
1.01223e+06
1.01226e+06
1.01229e+06
478208
271860
180158
121481
91508.1
72997.4
58817.7
47273.6
38868.9
32346.6
27506.7
23420.2
20180.4
17316.2
15067.6
13194.8
11720.4
10426.3
9380.09
8440.98
7710.06
6948.66
6399.24
5826.62
5338.26
4930.66
4586.17
4224.3
3901.12
3679.87
3376.56
3216.1
2954.82
2819.89
2649.4
2526.68
2354.7
2242.79
2132.07
2039.88
1883.73
1794.79
1656.4
1591.48
1488.07
1414.39
1327.25
1281.09
1208.6
1153.85
1092.98
1053.03
1019.26
980.116
938.632
911.415
886.681
865.121
830.623
810.977
780.164
763.211
736.403
718.119
689.356
672.297
648.135
633.254
614.417
601.621
585.437
570.205
556.881
544.454
531.124
518.968
506.991
496.34
484.937
472.851
461.182
449.029
439.439
429.848
423.035
415.739
408.664
403.398
396.07
392.353
387.365
384.372
382.113
381.107
381.181
381.694
382.958
385.381
386.666
386.944
386.424
384.468
379.934
374.486
367.489
358.871
350.913
341.455
330.757
321.065
309.817
299.385
289.348
278.175
266.775
254.019
238.749
222.468
196.384
167.347
493104
283508
187332
121864
90711.4
72562.2
58461.7
46807.4
38726.4
32372.7
27747
23582.8
20344.3
17406.3
15150.6
13208.6
11718.6
10407.6
9361.74
8425.08
7694.9
6941.47
6368.61
5800.56
5328.25
4920.11
4585.14
4194.67
3905.49
3669.4
3399.95
3211.87
2982.02
2827.6
2680.1
2551.42
2364.82
2246.47
2122.8
2031.12
1875.67
1793.12
1655.78
1591.27
1491.33
1415.75
1332.58
1287.57
1215.37
1161.07
1098.12
1059.09
1023.72
983.123
941.02
916.649
890.438
866.534
831.77
811.775
780.958
764.944
738.84
720.46
689.976
673.004
648.879
634.619
615.455
602.942
585.259
569.716
556.878
544.444
531.781
519.799
507.784
496.954
485.599
473.643
461.923
449.583
439.46
429.691
423.008
415.787
409.062
403.745
396.549
392.857
387.682
384.79
382.246
380.971
380.972
381.25
382.117
384.103
385.211
385.382
384.88
383.019
378.741
373.713
366.977
358.207
350.151
340.621
329.883
320.477
309.29
299.058
289.177
278.043
266.829
254.103
238.962
222.659
195.937
731214
816009
878976
921255
943730
962945
974526
982965
989493
993621
997842
1.00018e+06
1.0024e+06
1.00396e+06
1.00536e+06
1.00643e+06
1.00739e+06
1.0081e+06
1.00879e+06
1.00929e+06
1.00967e+06
1.00994e+06
1.01018e+06
1.01044e+06
1.01068e+06
1.01089e+06
1.01105e+06
1.01118e+06
1.01131e+06
1.01142e+06
1.01152e+06
1.01159e+06
1.01163e+06
1.01168e+06
1.01173e+06
1.0118e+06
1.01185e+06
1.0119e+06
1.01195e+06
1.01198e+06
1.01202e+06
1.01206e+06
1.01209e+06
1.01212e+06
1.01215e+06
1.01217e+06
1.0122e+06
1.01223e+06
1.01226e+06
1.01228e+06
1.0123e+06
1.01232e+06
1.01233e+06
1.01236e+06
1.01239e+06
1.01244e+06
1.01247e+06
1.01254e+06
1.01266e+06
1.01284e+06
1.01304e+06
1.01326e+06
1.01353e+06
1.01381e+06
1.01412e+06
1.01441e+06
1.0147e+06
1.015e+06
1.01529e+06
1.01561e+06
1.01591e+06
1.01622e+06
1.01653e+06
1.01683e+06
1.01715e+06
1.0175e+06
1.01787e+06
1.01827e+06
1.01872e+06
1.01922e+06
1.01982e+06
1.02048e+06
1.02117e+06
1.02192e+06
1.02274e+06
1.02364e+06
1.02463e+06
1.0257e+06
1.02684e+06
1.02804e+06
1.02928e+06
1.03055e+06
1.03186e+06
1.03318e+06
1.03448e+06
1.03572e+06
1.03682e+06
1.03747e+06
1.03813e+06
1.03865e+06
1.03898e+06
1.0391e+06
1.03911e+06
1.03898e+06
1.03869e+06
1.03829e+06
1.03779e+06
1.03721e+06
1.0366e+06
1.03597e+06
1.03536e+06
1.03477e+06
1.03419e+06
1.0336e+06
251.179
354.364
405.227
409.04
403.11
399.895
436.147
458.552
460.037
459.669
459.684
469.946
513.773
558.022
585.054
579.054
562.619
532.274
489.62
439.14
417.022
405.697
392.924
373.812
349.455
318.39
288.528
263.761
244.753
234.027
221.182
208.523
198.514
192.601
192.233
194.19
200.237
207.94
219.672
223.193
223.523
228.04
239.152
262.756
284.997
298.519
306.737
309.714
309.468
306.885
305.473
306.617
310.148
313.967
321.411
331.946
339.895
342.462
345.01
352.005
364.614
377.169
396.953
419.793
421.987
426.476
409.207
497.654
336.183
299.668
279.313
267.189
258.578
251.525
245.508
238.037
227.016
218.979
212.899
209.379
207.359
206.758
203.982
200.958
194.217
187.88
179.892
170.136
162.352
155.706
148.575
143.197
138.934
133.304
129.78
126.587
123.653
120.332
115.048
111.324
109.015
108.321
107.693
105.369
100.631
99.6595
98.8217
98.4289
98.4076
99.2058
99.2148
99.1613
99.0005
98.8669
98.8422
98.0653
94.3995
88.1818
83.2948
81.6138
81.4035
81.3873
81.7885
82.0565
82.5343
82.1554
80.6431
76.2838
68.0762
65.4511
65.0225
64.9478
65.5199
66.5091
66.5363
65.4516
64.3862
63.2864
63.0029
62.3775
62.4189
62.6292
64.6828
65.9813
66.0265
65.5722
65.1914
64.5123
63.9191
63.7277
63.8636
64.253
64.5984
65.1472
64.8446
63.5256
62.9004
59.8985
50.96
47.5007
44.8319
42.9889
41.853
41.4028
36.0026
31.8694
29.3294
25.5936
23.1866
21.5708
19.5967
18.6469
17.6298
17.3033
17.2549
17.2382
17.2644
17.3209
17.3821
17.4177
17.4903
17.4984
17.5137
17.5366
17.8847
18.4401
18.8791
19.3043
19.6289
19.8099
19.9306
20.2269
20.5752
21.012
21.2206
21.2917
21.6954
21.9336
22.1233
22.3317
22.5703
23.0319
23.902
24.641
25.1659
25.3208
25.3127
25.2924
25.2657
25.1695
24.9904
24.9794
24.9491
24.9404
24.9393
24.9984
24.9205
23.3321
20.3342
18.7106
17.6479
16.882
16.5934
16.2691
16.0606
15.7068
15.3421
15.1896
15.1747
15.0999
15.1011
15.1155
15.0872
15.0747
15.0552
15.0552
15.3546
15.47
15.6361
15.7853
15.8414
16.1038
16.6271
17.4262
17.9155
18.1356
18.1733
18.1692
18.1676
18.1447
18.1062
18.0995
18.2132
18.2541
18.2605
18.223
17.8807
17.6133
17.4508
17.3631
17.364
17.3767
17.3566
16.9199
16.6555
16.1739
15.8888
15.7313
15.7249
15.7031
15.6737
15.6029
15.436
15.1868
14.9336
14.7221
14.4124
13.7423
13.1819
12.9432
12.7269
12.5071
12.3523
12.1766
12.0705
11.9659
11.853
11.6958
11.3645
10.9222
10.6776
10.6325
10.4468
10.2072
10.204
10.2734
10.5402
9.75645
9.30281
9.13653
9.05929
9.03779
9.07697
9.07373
9.03613
8.87233
8.38253
8.17721
8.05885
12.2473
8.26212
8.0709
8.07099
8.07764
8.18248
8.37684
8.59519
8.83709
8.96057
9.04887
9.29676
9.72115
9.87528
9.92893
9.961
10.0048
10.0277
10.1144
10.4248
10.7768
11.2937
12.0259
12.7255
13.0372
13.2522
13.3282
13.4972
13.7657
14.1882
14.9621
15.7624
16.1158
16.3882
17.1418
17.52
17.7225
17.9257
18.0313
18.3726
19.1128
20.3118
21.6365
22.505
23.2314
24.6127
26.6372
29.5151
37.8534
42.9465
44.7831
45.4246
45.4659
44.5529
44.2407
44.1014
44.5395
45.256
45.2661
45.134
43.7306
41.6094
39.1789
36.0148
34.5588
32.2523
29.9579
31.4693
32.8603
33.973
35.3849
36.3957
37.3616
38.1227
38.7371
39.2953
39.834
40.3445
40.8593
41.235
41.5811
41.9198
42.2015
42.4584
42.7293
42.9699
43.1845
43.3895
43.5886
43.7676
43.932
44.0955
44.2235
44.3415
44.4565
44.5598
44.6667
44.7621
44.8586
44.96
45.0705
45.2005
45.3555
45.5114
45.665
45.8369
46.0057
46.159
46.3339
46.4775
46.6164
46.7735
46.8989
46.9672
47.0072
47.0333
47.041
47.0485
47.0514
47.0437
46.9973
46.8935
46.7832
46.6957
46.6517
46.6442
46.6313
46.6022
46.536
46.3958
46.3578
46.2836
46.1778
46.0236
45.9513
45.8618
45.8404
45.8449
45.8576
45.8565
45.8551
45.8649
45.9005
45.9783
46.0542
46.0813
46.0885
46.1079
46.1483
46.2397
46.2803
46.274
46.2623
46.2393
46.178
46.0491
45.9683
45.9737
46.0044
46.0748
46.1042
46.1121
46.1318
46.1898
46.3379
46.3932
45.8973
1.0336e+06
1.0336e+06
1.03361e+06
1.0336e+06
1.0336e+06
182.616
1.03419e+06
1.03477e+06
1.03536e+06
1.03598e+06
1.0366e+06
1.03721e+06
1.03779e+06
1.03829e+06
1.0387e+06
1.03898e+06
1.03911e+06
1.0391e+06
1.03898e+06
1.03865e+06
1.03814e+06
1.03748e+06
1.03682e+06
1.03572e+06
1.03447e+06
1.03318e+06
1.03186e+06
1.03055e+06
1.02928e+06
1.02804e+06
1.02684e+06
1.0257e+06
1.02463e+06
1.02364e+06
1.02274e+06
1.02192e+06
1.02117e+06
1.02048e+06
1.01982e+06
1.01922e+06
1.01872e+06
1.01827e+06
1.01787e+06
1.0175e+06
1.01715e+06
1.01683e+06
1.01653e+06
1.01622e+06
1.01591e+06
1.01561e+06
1.01529e+06
1.01501e+06
1.01471e+06
1.01441e+06
1.01412e+06
1.01382e+06
1.01353e+06
1.01326e+06
1.01305e+06
1.01285e+06
1.01267e+06
1.01254e+06
1.01247e+06
1.01243e+06
1.01239e+06
1.01235e+06
1.01233e+06
1.01231e+06
1.0123e+06
1.01228e+06
1.01225e+06
1.01222e+06
1.01219e+06
1.01217e+06
1.01214e+06
1.01212e+06
1.01209e+06
1.01206e+06
1.01202e+06
1.01198e+06
1.01194e+06
1.0119e+06
1.01185e+06
1.0118e+06
1.01174e+06
1.01168e+06
1.01164e+06
1.01159e+06
1.01151e+06
1.01142e+06
1.0113e+06
1.01117e+06
1.01105e+06
1.01091e+06
1.01071e+06
1.01047e+06
1.01019e+06
1.00994e+06
1.00964e+06
1.00931e+06
1.00883e+06
1.00822e+06
1.00745e+06
1.0065e+06
1.00538e+06
1.00403e+06
1.00238e+06
1.00055e+06
997854
994611
989932
983457
975446
961983
33.6619
89.4338
108.615
114.439
125.922
131.408
132.854
146.245
161.018
166.153
45016
38026.4
32323.9
27978.8
23656.8
20549.3
17433.2
15278
13326.2
11781.1
10413.7
9287.72
8340.05
7611.92
6808.41
6199.95
5608.42
5166.24
4745.02
4482.53
4039.54
3799.25
3534.03
3344.67
3070.54
2875.12
2649.38
2542.77
2402.46
2201.79
2094.34
1989.33
1902.88
1769.31
1725.95
1635.79
1592.08
1509.32
1415.71
1364.58
1335
1274.57
1232.95
1144.48
1122.68
1076.05
1015.15
964.72
952.163
926.379
872.992
834.697
811.54
782.883
771.961
748.889
727.516
687.269
673.017
649.396
639.03
618.343
606.439
582.439
567.291
558.524
544.868
535.005
521.589
509.996
498.182
487.336
475.741
464.453
451.821
440.324
430.34
423.886
416.491
412.148
406.025
399.896
395.695
388.955
386.719
382.903
380.874
380.567
380.525
380.532
380.674
381.142
382.289
382.333
381.859
379.353
373.081
365.42
355.698
349.241
341.216
329.525
321.426
309.658
299.495
289.983
278.792
267.843
254.148
240.497
223.966
198.785
262.087
5.61858
31.6184
60.5379
1.03421e+06
1.03421e+06
45.5081
182.344
12092.7
10473.5
9244.99
8157.46
7354.84
195.259
185.701
104.95
245.669
229.613
258.217
252.034
266.63
261.014
287.597
275.949
323.143
302.727
339.053
338.607
334.328
337.115
321.988
328.726
300.106
306.284
294.11
297.771
280.475
286.652
242.269
262.31
201.174
220.816
168.564
184.285
149.056
157.339
137.985
142.85
134.167
135.067
138.063
135.147
154.487
145.03
173.028
163.973
191.359
183.378
198.5
196.333
201.67
200.047
204.097
203.544
203.877
204.026
212.326
205.193
219.182
216.86
221.257
220.725
222.769
221.701
230.779
225.355
258.626
241.351
270.02