/*--------------------------------*- C++ -*----------------------------------*\
| =========                 |                                                 |
| \\      /  F ield         | OpenFOAM: The Open Source CFD Toolbox           |
|  \\    /   O peration     | Version:  2212                                  |
|   \\  /    A nd           | Website:  www.openfoam.com                      |
|    \\/     M anipulation  |                                                 |
\*---------------------------------------------------------------------------*/
FoamFile
{
    version     2.0;
    format      ascii;
    arch        "LSB;label=32;scalar=64";
    class       volVectorField;
    location    "0.259";
    object      UMean;
}
// * * * * * * * * * * * * * * * * * * * * * * * * * * * * * * * * * * * * * //

dimensions      [0 1 -1 0 0 0 0];

internalField   nonuniform List<vector> 
24240
(
(9.36649 0.63283 8.3328e-07)
(9.36657 0.632837 -4.75119e-07)
(9.36657 0.632837 -2.38612e-07)
(9.36657 0.632836 -6.13263e-07)
(9.36657 0.632835 -6.75578e-07)
(9.36657 0.632834 -8.60351e-07)
(9.36657 0.632833 -9.71071e-07)
(9.36657 0.632832 -1.0981e-06)
(9.36657 0.632831 -1.19156e-06)
(9.36657 0.632829 -1.26838e-06)
(9.36657 0.632828 -1.31178e-06)
(9.36657 0.632827 -1.32586e-06)
(9.36657 0.632826 -1.29944e-06)
(9.36657 0.632826 -1.24721e-06)
(9.36657 0.632825 -1.14048e-06)
(9.36657 0.632825 -1.05601e-06)
(9.36657 0.632824 -8.30646e-07)
(9.36657 0.632824 -8.6617e-07)
(9.36657 0.632824 -2.54219e-07)
(9.36648 0.632816 -1.12755e-06)
(9.10684 0.637833 -4.23526e-07)
(9.10693 0.637841 -9.30092e-07)
(9.10693 0.637841 -1.36074e-06)
(9.10693 0.637842 -1.8903e-06)
(9.10693 0.637843 -2.25869e-06)
(9.10693 0.637844 -2.61059e-06)
(9.10693 0.637845 -2.84768e-06)
(9.10693 0.637847 -3.01891e-06)
(9.10693 0.637848 -3.0954e-06)
(9.10693 0.637849 -3.09547e-06)
(9.10694 0.63785 -3.01497e-06)
(9.10694 0.637851 -2.86626e-06)
(9.10694 0.637853 -2.65214e-06)
(9.10694 0.637853 -2.3931e-06)
(9.10694 0.637854 -2.08358e-06)
(9.10694 0.637855 -1.77431e-06)
(9.10694 0.637856 -1.39603e-06)
(9.10694 0.637856 -1.08599e-06)
(9.10694 0.637856 -6.02112e-07)
(9.10685 0.637849 -1.25409e-07)
(9.13562 0.345247 -7.51825e-08)
(9.13571 0.345252 2.90801e-07)
(9.13571 0.345252 6.5512e-07)
(9.13571 0.345252 8.21423e-07)
(9.13571 0.345253 1.01732e-06)
(9.13571 0.345253 1.09002e-06)
(9.13571 0.345253 1.12751e-06)
(9.13571 0.345253 1.09026e-06)
(9.13571 0.345254 1.01055e-06)
(9.13571 0.345254 8.88733e-07)
(9.1357 0.345254 7.43835e-07)
(9.1357 0.345255 5.85366e-07)
(9.1357 0.345255 4.29833e-07)
(9.1357 0.345255 2.83048e-07)
(9.1357 0.345256 1.67866e-07)
(9.1357 0.345256 5.86407e-08)
(9.1357 0.345256 2.48917e-08)
(9.1357 0.345256 -5.20836e-08)
(9.1357 0.345257 2.58407e-08)
(9.13561 0.345252 1.29706e-07)
(8.95395 0.342505 -2.88382e-07)
(8.95404 0.34251 -7.53473e-07)
(8.95404 0.34251 -1.12179e-06)
(8.95404 0.34251 -1.51681e-06)
(8.95404 0.34251 -1.82985e-06)
(8.95404 0.34251 -2.09873e-06)
(8.95404 0.34251 -2.28611e-06)
(8.95404 0.34251 -2.41164e-06)
(8.95404 0.34251 -2.46124e-06)
(8.95404 0.34251 -2.44459e-06)
(8.95404 0.34251 -2.36147e-06)
(8.95404 0.34251 -2.22058e-06)
(8.95404 0.34251 -2.02727e-06)
(8.95404 0.342511 -1.79619e-06)
(8.95404 0.342511 -1.52879e-06)
(8.95405 0.342511 -1.2526e-06)
(8.95405 0.342511 -9.48364e-07)
(8.95405 0.342511 -6.63175e-07)
(8.95405 0.342511 -3.23342e-07)
(8.95396 0.342506 -8.60775e-08)
(8.96732 0.186287 3.0975e-08)
(8.96741 0.18629 3.53086e-07)
(8.96741 0.186291 6.89138e-07)
(8.96741 0.186291 9.15081e-07)
(8.96741 0.186291 1.10544e-06)
(8.96741 0.186292 1.22089e-06)
(8.96741 0.186293 1.28449e-06)
(8.9674 0.186293 1.28424e-06)
(8.9674 0.186294 1.23704e-06)
(8.9674 0.186295 1.14701e-06)
(8.9674 0.186295 1.02903e-06)
(8.9674 0.186296 8.93136e-07)
(8.9674 0.186296 7.52401e-07)
(8.9674 0.186297 6.1445e-07)
(8.9674 0.186297 4.93717e-07)
(8.9674 0.186298 3.86791e-07)
(8.9674 0.186298 3.08771e-07)
(8.9674 0.186298 2.34488e-07)
(8.96739 0.186298 2.07149e-07)
(8.9673 0.186296 1.29329e-07)
(8.85774 0.179848 -1.57218e-07)
(8.85783 0.179851 -3.95321e-07)
(8.85783 0.17985 -5.8205e-07)
(8.85783 0.17985 -7.82184e-07)
(8.85783 0.179849 -9.34338e-07)
(8.85783 0.179849 -1.07255e-06)
(8.85783 0.179848 -1.16939e-06)
(8.85783 0.179848 -1.23734e-06)
(8.85783 0.179847 -1.26593e-06)
(8.85783 0.179846 -1.26063e-06)
(8.85783 0.179846 -1.21898e-06)
(8.85783 0.179845 -1.146e-06)
(8.85783 0.179845 -1.0418e-06)
(8.85783 0.179844 -9.16129e-07)
(8.85783 0.179844 -7.63646e-07)
(8.85783 0.179843 -6.05573e-07)
(8.85783 0.179843 -4.20536e-07)
(8.85783 0.179843 -2.59214e-07)
(8.85783 0.179843 -8.69755e-08)
(8.85775 0.17984 -5.52723e-09)
(8.86509 0.0824968 -3.91416e-08)
(8.86518 0.0824982 5.31922e-08)
(8.86517 0.0824983 1.62554e-07)
(8.86517 0.0824984 2.14464e-07)
(8.86517 0.0824985 2.56024e-07)
(8.86517 0.0824987 2.6956e-07)
(8.86517 0.0824989 2.65394e-07)
(8.86517 0.082499 2.37999e-07)
(8.86517 0.0824992 1.95309e-07)
(8.86517 0.0824994 1.38932e-07)
(8.86517 0.0824996 7.62885e-08)
(8.86517 0.0824998 1.18073e-08)
(8.86517 0.0824999 -4.57191e-08)
(8.86517 0.0825 -9.38312e-08)
(8.86517 0.0825001 -1.21315e-07)
(8.86517 0.0825001 -1.33498e-07)
(8.86517 0.0825001 -1.17446e-07)
(8.86517 0.0825001 -9.2288e-08)
(8.86517 0.0825 -2.26338e-08)
(8.86508 0.0824986 3.13012e-08)
(8.81413 0.073242 -1.05145e-07)
(8.81422 0.0732432 -2.7715e-07)
(8.81422 0.073243 -4.12605e-07)
(8.81422 0.0732427 -5.5836e-07)
(8.81422 0.0732424 -6.67576e-07)
(8.81422 0.073242 -7.64542e-07)
(8.81422 0.0732416 -8.32133e-07)
(8.81422 0.0732412 -8.80284e-07)
(8.81422 0.0732407 -9.03614e-07)
(8.81422 0.0732402 -9.06796e-07)
(8.81422 0.0732398 -8.88505e-07)
(8.81422 0.0732394 -8.52076e-07)
(8.81422 0.0732389 -7.94238e-07)
(8.81422 0.0732385 -7.22872e-07)
(8.81422 0.0732381 -6.29095e-07)
(8.81422 0.0732377 -5.32797e-07)
(8.81422 0.0732374 -4.11647e-07)
(8.81422 0.0732371 -3.09113e-07)
(8.81422 0.0732368 -1.67029e-07)
(8.81413 0.0732355 -4.63052e-08)
(8.82165 0.0013918 -9.4068e-08)
(8.82174 0.00139173 -1.53402e-07)
(8.82174 0.00139161 -2.02937e-07)
(8.82174 0.00139145 -2.77916e-07)
(8.82174 0.00139122 -3.42059e-07)
(8.82174 0.00139097 -4.06732e-07)
(8.82174 0.00139067 -4.64879e-07)
(8.82174 0.00139035 -5.2238e-07)
(8.82174 0.00139 -5.77358e-07)
(8.82174 0.00138965 -6.31725e-07)
(8.82174 0.00138928 -6.82378e-07)
(8.82174 0.0013889 -7.28635e-07)
(8.82174 0.00138852 -7.61489e-07)
(8.82174 0.00138816 -7.80856e-07)
(8.82174 0.0013878 -7.7046e-07)
(8.82174 0.00138747 -7.39712e-07)
(8.82174 0.00138717 -6.59666e-07)
(8.82174 0.00138692 -5.57498e-07)
(8.82174 0.00138671 -3.60148e-07)
(8.82165 0.00138663 -9.04097e-08)
(8.81853 -0.0145204 -1.64669e-07)
(8.81862 -0.0145211 -4.26787e-07)
(8.81862 -0.0145217 -6.5481e-07)
(8.81862 -0.0145227 -8.82894e-07)
(8.81862 -0.0145239 -1.07223e-06)
(8.81862 -0.0145253 -1.23302e-06)
(8.81862 -0.0145268 -1.35546e-06)
(8.81862 -0.0145285 -1.44583e-06)
(8.81862 -0.0145302 -1.50299e-06)
(8.81862 -0.0145319 -1.53066e-06)
(8.81862 -0.0145336 -1.52813e-06)
(8.81862 -0.0145352 -1.49813e-06)
(8.81862 -0.0145367 -1.43472e-06)
(8.81862 -0.014538 -1.34524e-06)
(8.81862 -0.0145391 -1.21875e-06)
(8.81862 -0.0145401 -1.0772e-06)
(8.81862 -0.0145409 -8.93501e-07)
(8.81862 -0.0145415 -7.08504e-07)
(8.81862 -0.0145419 -4.25849e-07)
(8.81853 -0.0145417 -1.13446e-07)
(8.82894 -0.0790394 -3.33961e-07)
(8.82903 -0.0790408 -9.65631e-07)
(8.82903 -0.0790408 -1.53528e-06)
(8.82903 -0.0790408 -2.06787e-06)
(8.82903 -0.0790407 -2.51574e-06)
(8.82903 -0.0790407 -2.88438e-06)
(8.82903 -0.0790407 -3.15997e-06)
(8.82903 -0.0790407 -3.34818e-06)
(8.82903 -0.0790407 -3.44941e-06)
(8.82903 -0.0790407 -3.47044e-06)
(8.82903 -0.0790408 -3.41544e-06)
(8.82903 -0.0790409 -3.2921e-06)
(8.82904 -0.079041 -3.10119e-06)
(8.82904 -0.0790412 -2.85483e-06)
(8.82904 -0.0790414 -2.54862e-06)
(8.82904 -0.0790415 -2.2105e-06)
(8.82904 -0.0790417 -1.81052e-06)
(8.82904 -0.0790418 -1.39529e-06)
(8.82904 -0.079042 -8.41938e-07)
(8.82895 -0.0790406 -2.54259e-07)
(8.87224 -0.0958483 -1.90805e-07)
(8.87233 -0.0958503 -4.14635e-07)
(8.87233 -0.0958506 -6.16453e-07)
(8.87233 -0.0958511 -8.31474e-07)
(8.87233 -0.0958518 -1.02348e-06)
(8.87233 -0.0958526 -1.19605e-06)
(8.87233 -0.0958534 -1.34304e-06)
(8.87233 -0.0958544 -1.46833e-06)
(8.87233 -0.0958553 -1.56996e-06)
(8.87233 -0.0958563 -1.64922e-06)
(8.87233 -0.0958572 -1.701e-06)
(8.87233 -0.0958581 -1.724e-06)
(8.87233 -0.095859 -1.70669e-06)
(8.87233 -0.0958597 -1.65059e-06)
(8.87233 -0.0958603 -1.53792e-06)
(8.87233 -0.0958608 -1.38987e-06)
(8.87233 -0.0958612 -1.17653e-06)
(8.87233 -0.0958614 -9.35994e-07)
(8.87233 -0.0958616 -5.61561e-07)
(8.87224 -0.0958599 -1.26089e-07)
(8.88467 -0.175907 -4.69982e-07)
(8.88476 -0.17591 -1.42545e-06)
(8.88476 -0.17591 -2.27259e-06)
(8.88476 -0.17591 -3.05917e-06)
(8.88476 -0.17591 -3.71894e-06)
(8.88477 -0.17591 -4.26482e-06)
(8.88477 -0.17591 -4.67298e-06)
(8.88477 -0.17591 -4.94744e-06)
(8.88477 -0.175911 -5.08617e-06)
(8.88477 -0.175911 -5.0968e-06)
(8.88477 -0.175911 -4.98503e-06)
(8.88477 -0.175911 -4.76109e-06)
(8.88478 -0.175912 -4.43171e-06)
(8.88478 -0.175912 -4.01479e-06)
(8.88478 -0.175912 -3.51261e-06)
(8.88478 -0.175912 -2.96859e-06)
(8.88478 -0.175912 -2.35215e-06)
(8.88478 -0.175913 -1.74415e-06)
(8.88478 -0.175913 -9.88672e-07)
(8.88469 -0.17591 -2.91655e-07)
(8.98196 -0.18829 -2.50583e-07)
(8.98205 -0.188293 -4.95317e-07)
(8.98205 -0.188293 -7.17408e-07)
(8.98205 -0.188294 -9.74518e-07)
(8.98205 -0.188294 -1.21824e-06)
(8.98205 -0.188295 -1.44345e-06)
(8.98205 -0.188295 -1.64323e-06)
(8.98205 -0.188296 -1.82036e-06)
(8.98205 -0.188296 -1.96836e-06)
(8.98205 -0.188297 -2.08672e-06)
(8.98205 -0.188298 -2.16472e-06)
(8.98205 -0.188298 -2.19952e-06)
(8.98205 -0.188299 -2.17431e-06)
(8.98205 -0.188299 -2.08977e-06)
(8.98205 -0.1883 -1.92669e-06)
(8.98205 -0.1883 -1.71039e-06)
(8.98205 -0.1883 -1.41927e-06)
(8.98205 -0.1883 -1.08433e-06)
(8.98205 -0.1883 -6.15663e-07)
(8.98196 -0.188297 -1.13061e-07)
(8.99079 -0.311141 -5.60087e-07)
(8.99088 -0.311146 -1.72407e-06)
(8.99088 -0.311146 -2.75491e-06)
(8.99088 -0.311146 -3.71973e-06)
(8.99089 -0.311146 -4.52063e-06)
(8.99089 -0.311146 -5.19634e-06)
(8.99089 -0.311146 -5.69968e-06)
(8.99089 -0.311146 -6.03679e-06)
(8.99089 -0.311146 -6.19965e-06)
(8.9909 -0.311146 -6.19595e-06)
(8.9909 -0.311147 -6.03098e-06)
(8.9909 -0.311147 -5.71878e-06)
(8.9909 -0.311147 -5.27055e-06)
(8.9909 -0.311147 -4.71208e-06)
(8.9909 -0.311147 -4.05608e-06)
(8.9909 -0.311148 -3.36265e-06)
(8.99091 -0.311148 -2.59635e-06)
(8.99091 -0.311148 -1.89042e-06)
(8.99091 -0.311148 -1.06242e-06)
(8.99082 -0.311143 -3.25365e-07)
(9.15782 -0.316322 -2.88686e-07)
(9.15791 -0.316327 -4.69765e-07)
(9.15791 -0.316327 -6.49874e-07)
(9.15791 -0.316327 -9.34947e-07)
(9.15791 -0.316327 -1.21952e-06)
(9.15791 -0.316327 -1.49597e-06)
(9.15791 -0.316328 -1.74842e-06)
(9.15791 -0.316328 -1.98872e-06)
(9.15791 -0.316329 -2.19829e-06)
(9.15791 -0.316329 -2.37781e-06)
(9.1579 -0.316329 -2.50844e-06)
(9.1579 -0.31633 -2.58561e-06)
(9.1579 -0.31633 -2.58629e-06)
(9.1579 -0.31633 -2.51301e-06)
(9.1579 -0.31633 -2.34237e-06)
(9.1579 -0.316331 -2.10583e-06)
(9.1579 -0.316331 -1.79337e-06)
(9.1579 -0.316331 -1.44377e-06)
(9.1579 -0.316331 -9.03949e-07)
(9.15781 -0.316326 -2.03692e-07)
(9.15232 -0.534471 -5.9751e-07)
(9.15241 -0.534479 -1.83692e-06)
(9.15241 -0.534479 -2.93139e-06)
(9.15241 -0.534479 -4.02862e-06)
(9.15241 -0.534479 -4.96883e-06)
(9.15241 -0.53448 -5.74788e-06)
(9.15242 -0.53448 -6.32992e-06)
(9.15242 -0.53448 -6.72467e-06)
(9.15242 -0.534481 -6.91729e-06)
(9.15242 -0.534481 -6.91805e-06)
(9.15243 -0.534482 -6.72921e-06)
(9.15243 -0.534483 -6.36988e-06)
(9.15243 -0.534483 -5.85391e-06)
(9.15243 -0.534484 -5.21983e-06)
(9.15243 -0.534484 -4.48419e-06)
(9.15243 -0.534484 -3.72109e-06)
(9.15243 -0.534485 -2.92646e-06)
(9.15243 -0.534485 -2.20909e-06)
(9.15244 -0.534485 -1.25341e-06)
(9.15234 -0.534478 -3.78437e-07)
(9.41107 -0.529199 -4.54107e-07)
(9.41116 -0.529206 -6.61195e-07)
(9.41116 -0.529206 -9.43309e-07)
(9.41116 -0.529206 -1.42069e-06)
(9.41116 -0.529205 -1.76998e-06)
(9.41116 -0.529205 -2.17847e-06)
(9.41116 -0.529205 -2.51463e-06)
(9.41116 -0.529204 -2.8399e-06)
(9.41116 -0.529204 -3.10401e-06)
(9.41116 -0.529204 -3.31972e-06)
(9.41116 -0.529203 -3.45951e-06)
(9.41116 -0.529203 -3.52527e-06)
(9.41116 -0.529203 -3.48939e-06)
(9.41116 -0.529203 -3.36866e-06)
(9.41116 -0.529202 -3.11607e-06)
(9.41116 -0.529202 -2.80515e-06)
(9.41116 -0.529202 -2.3195e-06)
(9.41116 -0.529202 -1.87766e-06)
(9.41116 -0.529202 -1.15292e-06)
(9.41107 -0.529194 -1.96556e-07)
(9.37082 -0.951441 -5.7355e-07)
(9.37091 -0.951452 -1.59393e-06)
(9.37091 -0.951452 -2.63241e-06)
(9.37091 -0.951453 -3.73059e-06)
(9.37091 -0.951454 -4.55909e-06)
(9.37092 -0.951455 -5.31348e-06)
(9.37092 -0.951456 -5.8574e-06)
(9.37092 -0.951457 -6.24975e-06)
(9.37092 -0.951458 -6.44651e-06)
(9.37092 -0.951459 -6.47051e-06)
(9.37092 -0.95146 -6.31235e-06)
(9.37093 -0.951461 -5.99761e-06)
(9.37093 -0.951462 -5.52866e-06)
(9.37093 -0.951463 -4.95807e-06)
(9.37093 -0.951463 -4.27033e-06)
(9.37093 -0.951464 -3.57846e-06)
(9.37093 -0.951464 -2.76021e-06)
(9.37093 -0.951464 -2.11507e-06)
(9.37093 -0.951465 -1.21457e-06)
(9.37084 -0.951453 -3.01604e-07)
(9.73206 -0.931379 7.8807e-07)
(9.73215 -0.931388 -1.0871e-06)
(9.73214 -0.931386 -1.56037e-06)
(9.73214 -0.931386 -2.70004e-06)
(9.73215 -0.931385 -3.28446e-06)
(9.73215 -0.931384 -3.94709e-06)
(9.73215 -0.931384 -4.41307e-06)
(9.73215 -0.931383 -4.81045e-06)
(9.73215 -0.931382 -5.06477e-06)
(9.73215 -0.931381 -5.20736e-06)
(9.73215 -0.93138 -5.21094e-06)
(9.73215 -0.93138 -5.09446e-06)
(9.73215 -0.931379 -4.83973e-06)
(9.73215 -0.931379 -4.49438e-06)
(9.73215 -0.931379 -4.00365e-06)
(9.73215 -0.931379 -3.52752e-06)
(9.73215 -0.931379 -2.80581e-06)
(9.73215 -0.931379 -2.52855e-06)
(9.73216 -0.93138 -1.43636e-06)
(9.73207 -0.931371 -1.63719e-06)
(8.77273 0.699527 5.21833e-07)
(8.77281 0.699534 -1.16934e-07)
(8.77281 0.699533 1.83932e-08)
(8.77281 0.699532 -1.94543e-07)
(8.77281 0.699531 -1.66801e-07)
(8.77281 0.69953 -2.72803e-07)
(8.77281 0.699528 -3.21588e-07)
(8.77281 0.699527 -4.17403e-07)
(8.77281 0.699525 -4.94142e-07)
(8.77281 0.699524 -5.78924e-07)
(8.77281 0.699523 -6.44877e-07)
(8.77281 0.699521 -7.00027e-07)
(8.77281 0.69952 -7.2531e-07)
(8.77281 0.699519 -7.38273e-07)
(8.77281 0.699519 -6.98657e-07)
(8.77281 0.699518 -6.90632e-07)
(8.77281 0.699518 -5.63286e-07)
(8.77281 0.699517 -6.33319e-07)
(8.77281 0.699518 -3.41036e-07)
(8.77272 0.69951 -7.53781e-07)
(8.81147 0.71115 -3.64005e-07)
(8.81155 0.711159 -9.03518e-07)
(8.81155 0.711159 -1.35203e-06)
(8.81155 0.71116 -1.86475e-06)
(8.81155 0.711161 -2.20398e-06)
(8.81155 0.711162 -2.53872e-06)
(8.81155 0.711163 -2.74937e-06)
(8.81155 0.711165 -2.90249e-06)
(8.81155 0.711166 -2.95466e-06)
(8.81155 0.711168 -2.93414e-06)
(8.81155 0.711169 -2.8295e-06)
(8.81155 0.71117 -2.66074e-06)
(8.81155 0.711172 -2.4256e-06)
(8.81155 0.711173 -2.15419e-06)
(8.81154 0.711174 -1.83069e-06)
(8.81154 0.711175 -1.52085e-06)
(8.81154 0.711176 -1.1397e-06)
(8.81154 0.711176 -8.4609e-07)
(8.81154 0.711177 -4.51769e-07)
(8.81146 0.711169 -1.32855e-07)
(8.84431 0.461058 9.75685e-08)
(8.8444 0.461063 5.594e-07)
(8.8444 0.461063 1.03799e-06)
(8.8444 0.461063 1.35606e-06)
(8.8444 0.461064 1.70479e-06)
(8.8444 0.461064 1.89004e-06)
(8.8444 0.461064 2.02351e-06)
(8.8444 0.461064 2.04897e-06)
(8.8444 0.461064 2.00877e-06)
(8.8444 0.461064 1.89859e-06)
(8.8444 0.461064 1.74595e-06)
(8.8444 0.461064 1.55641e-06)
(8.8444 0.461064 1.35242e-06)
(8.8444 0.461065 1.14214e-06)
(8.8444 0.461065 9.5226e-07)
(8.8444 0.461065 7.48995e-07)
(8.8444 0.461065 6.20594e-07)
(8.8444 0.461065 4.1571e-07)
(8.8444 0.461065 2.85762e-07)
(8.84431 0.46106 1.22472e-07)
(8.7801 0.458643 -3.08647e-07)
(8.78019 0.458649 -8.25793e-07)
(8.78019 0.458649 -1.24428e-06)
(8.78019 0.458649 -1.68122e-06)
(8.78019 0.458649 -2.03073e-06)
(8.78019 0.458649 -2.32699e-06)
(8.78018 0.458649 -2.5271e-06)
(8.78018 0.458649 -2.65991e-06)
(8.78018 0.458649 -2.70366e-06)
(8.78018 0.458649 -2.67288e-06)
(8.78018 0.458649 -2.56675e-06)
(8.78018 0.458649 -2.39592e-06)
(8.78018 0.458649 -2.16677e-06)
(8.78018 0.458649 -1.90341e-06)
(8.78018 0.458649 -1.59804e-06)
(8.78018 0.458649 -1.29139e-06)
(8.78018 0.458649 -9.57207e-07)
(8.78018 0.45865 -6.497e-07)
(8.78018 0.45865 -3.06147e-07)
(8.78009 0.458644 -8.80738e-08)
(8.79806 0.272932 1.2418e-07)
(8.79815 0.272936 5.54549e-07)
(8.79815 0.272936 1.01123e-06)
(8.79815 0.272937 1.35987e-06)
(8.79815 0.272937 1.66009e-06)
(8.79815 0.272938 1.87031e-06)
(8.79815 0.272938 2.01403e-06)
(8.79815 0.272939 2.07118e-06)
(8.79815 0.27294 2.0632e-06)
(8.79815 0.272941 1.99153e-06)
(8.79815 0.272942 1.87515e-06)
(8.79815 0.272942 1.72277e-06)
(8.79815 0.272943 1.55121e-06)
(8.79815 0.272944 1.36683e-06)
(8.79815 0.272944 1.18841e-06)
(8.79815 0.272945 1.00797e-06)
(8.79815 0.272945 8.38933e-07)
(8.79815 0.272945 6.51231e-07)
(8.79815 0.272945 4.71846e-07)
(8.79806 0.272942 1.87562e-07)
(8.73734 0.264539 -1.62252e-07)
(8.73742 0.264542 -4.20696e-07)
(8.73742 0.264542 -6.46836e-07)
(8.73742 0.264541 -8.61613e-07)
(8.73742 0.264541 -1.01091e-06)
(8.73742 0.26454 -1.15259e-06)
(8.73742 0.264539 -1.2423e-06)
(8.73742 0.264538 -1.30271e-06)
(8.73742 0.264538 -1.31643e-06)
(8.73742 0.264537 -1.2942e-06)
(8.73742 0.264536 -1.23136e-06)
(8.73742 0.264535 -1.13762e-06)
(8.73742 0.264535 -1.01067e-06)
(8.73742 0.264534 -8.67589e-07)
(8.73742 0.264533 -6.94765e-07)
(8.73742 0.264533 -5.27878e-07)
(8.73742 0.264533 -3.24756e-07)
(8.73742 0.264532 -1.72355e-07)
(8.73742 0.264532 -4.30418e-08)
(8.73734 0.264529 2.93036e-09)
(8.74541 0.123015 -5.80682e-09)
(8.7455 0.123017 1.60571e-07)
(8.7455 0.123017 3.34467e-07)
(8.7455 0.123017 4.61433e-07)
(8.7455 0.123017 5.70372e-07)
(8.7455 0.123017 6.41825e-07)
(8.7455 0.123017 6.86989e-07)
(8.7455 0.123017 6.95736e-07)
(8.7455 0.123018 6.7886e-07)
(8.7455 0.123018 6.36206e-07)
(8.7455 0.123018 5.77825e-07)
(8.7455 0.123018 5.06203e-07)
(8.7455 0.123018 4.34153e-07)
(8.7455 0.123019 3.60906e-07)
(8.7455 0.123019 3.03942e-07)
(8.7455 0.123019 2.51132e-07)
(8.7455 0.123019 2.21364e-07)
(8.7455 0.123019 1.83594e-07)
(8.7455 0.123019 1.62285e-07)
(8.74541 0.123017 9.89155e-08)
(8.71654 0.108808 -1.09552e-07)
(8.71663 0.10881 -3.07578e-07)
(8.71663 0.108809 -4.74659e-07)
(8.71663 0.108809 -6.28316e-07)
(8.71663 0.108808 -7.31231e-07)
(8.71663 0.108808 -8.24381e-07)
(8.71663 0.108807 -8.78771e-07)
(8.71663 0.108806 -9.12425e-07)
(8.71663 0.108806 -9.15924e-07)
(8.71663 0.108805 -8.97986e-07)
(8.71663 0.108804 -8.55368e-07)
(8.71663 0.108803 -7.95972e-07)
(8.71663 0.108803 -7.1357e-07)
(8.71663 0.108802 -6.23273e-07)
(8.71663 0.108801 -5.0769e-07)
(8.71663 0.108801 -4.01235e-07)
(8.71663 0.1088 -2.62085e-07)
(8.71663 0.1088 -1.65773e-07)
(8.71663 0.108799 -5.51376e-08)
(8.71654 0.108798 -1.68696e-09)
(8.72171 -0.0037121 -1.16915e-07)
(8.7218 -0.00371232 -2.12813e-07)
(8.7218 -0.00371255 -3.0278e-07)
(8.7218 -0.00371286 -3.93204e-07)
(8.7218 -0.00371327 -4.62524e-07)
(8.7218 -0.00371376 -5.27474e-07)
(8.7218 -0.00371432 -5.76672e-07)
(8.7218 -0.00371492 -6.22099e-07)
(8.7218 -0.00371555 -6.60184e-07)
(8.7218 -0.00371621 -6.96046e-07)
(8.7218 -0.00371687 -7.25859e-07)
(8.7218 -0.00371752 -7.52644e-07)
(8.7218 -0.00371816 -7.64339e-07)
(8.7218 -0.00371876 -7.65986e-07)
(8.7218 -0.00371932 -7.33409e-07)
(8.7218 -0.00371981 -6.87308e-07)
(8.7218 -0.00372024 -5.83138e-07)
(8.7218 -0.0037206 -4.76356e-07)
(8.7218 -0.00372085 -2.81037e-07)
(8.72171 -0.00372083 -4.27787e-08)
(8.72446 -0.0270459 -2.25233e-07)
(8.72454 -0.0270467 -5.99025e-07)
(8.72454 -0.0270474 -9.36942e-07)
(8.72454 -0.0270484 -1.24776e-06)
(8.72454 -0.0270497 -1.50044e-06)
(8.72454 -0.0270512 -1.71176e-06)
(8.72454 -0.0270529 -1.86398e-06)
(8.72454 -0.0270547 -1.96909e-06)
(8.72454 -0.0270566 -2.02226e-06)
(8.72454 -0.0270584 -2.03048e-06)
(8.72454 -0.0270603 -1.99117e-06)
(8.72454 -0.027062 -1.91188e-06)
(8.72454 -0.0270637 -1.78491e-06)
(8.72454 -0.0270652 -1.62622e-06)
(8.72454 -0.0270665 -1.41973e-06)
(8.72454 -0.0270676 -1.20509e-06)
(8.72454 -0.0270685 -9.39953e-07)
(8.72454 -0.0270692 -6.95183e-07)
(8.72454 -0.0270696 -3.64158e-07)
(8.72446 -0.0270693 -6.3474e-08)
(8.73224 -0.131096 -3.68617e-07)
(8.73233 -0.131098 -1.0817e-06)
(8.73233 -0.131098 -1.73614e-06)
(8.73233 -0.131098 -2.32976e-06)
(8.73233 -0.131098 -2.82115e-06)
(8.73233 -0.131098 -3.22822e-06)
(8.73233 -0.131098 -3.52765e-06)
(8.73233 -0.131098 -3.73175e-06)
(8.73233 -0.131098 -3.83826e-06)
(8.73233 -0.131098 -3.85613e-06)
(8.73233 -0.131099 -3.7886e-06)
(8.73233 -0.131099 -3.64624e-06)
(8.73233 -0.131099 -3.42703e-06)
(8.73233 -0.131099 -3.14784e-06)
(8.73233 -0.131099 -2.79452e-06)
(8.73232 -0.1311 -2.40761e-06)
(8.73232 -0.1311 -1.93438e-06)
(8.73232 -0.1311 -1.46133e-06)
(8.73232 -0.1311 -8.51888e-07)
(8.73224 -0.131098 -2.40424e-07)
(8.76716 -0.154921 -2.79026e-07)
(8.76724 -0.154923 -6.51815e-07)
(8.76724 -0.154924 -9.96313e-07)
(8.76724 -0.154925 -1.3207e-06)
(8.76724 -0.154926 -1.59847e-06)
(8.76724 -0.154927 -1.83397e-06)
(8.76724 -0.154928 -2.0172e-06)
(8.76724 -0.154929 -2.15569e-06)
(8.76725 -0.15493 -2.24602e-06)
(8.76725 -0.154932 -2.29277e-06)
(8.76725 -0.154933 -2.29024e-06)
(8.76725 -0.154934 -2.24226e-06)
(8.76725 -0.154935 -2.13546e-06)
(8.76725 -0.154936 -1.98238e-06)
(8.76725 -0.154937 -1.76042e-06)
(8.76725 -0.154938 -1.509e-06)
(8.76725 -0.154939 -1.18879e-06)
(8.76725 -0.154939 -8.71994e-07)
(8.76725 -0.154939 -4.55551e-07)
(8.76716 -0.154937 -5.3406e-08)
(8.77471 -0.279897 -5.50729e-07)
(8.77479 -0.279901 -1.69451e-06)
(8.77479 -0.279901 -2.74028e-06)
(8.77479 -0.279901 -3.68562e-06)
(8.77479 -0.279901 -4.4668e-06)
(8.77479 -0.279901 -5.12205e-06)
(8.77479 -0.279901 -5.60882e-06)
(8.77479 -0.279901 -5.93789e-06)
(8.77479 -0.279901 -6.1023e-06)
(8.77479 -0.279901 -6.11268e-06)
(8.77479 -0.279901 -5.97474e-06)
(8.77479 -0.279901 -5.7028e-06)
(8.77479 -0.279901 -5.30309e-06)
(8.77479 -0.279902 -4.79971e-06)
(8.77479 -0.279902 -4.18887e-06)
(8.77479 -0.279902 -3.52529e-06)
(8.77479 -0.279902 -2.75331e-06)
(8.77479 -0.279902 -2.00826e-06)
(8.77479 -0.279902 -1.14038e-06)
(8.7747 -0.279898 -3.40277e-07)
(8.84411 -0.29605 -3.10182e-07)
(8.8442 -0.296054 -6.57302e-07)
(8.8442 -0.296054 -9.69481e-07)
(8.8442 -0.296055 -1.29197e-06)
(8.8442 -0.296055 -1.58721e-06)
(8.8442 -0.296056 -1.84458e-06)
(8.8442 -0.296056 -2.05761e-06)
(8.8442 -0.296057 -2.23322e-06)
(8.8442 -0.296058 -2.362e-06)
(8.8442 -0.296059 -2.44764e-06)
(8.8442 -0.29606 -2.47755e-06)
(8.8442 -0.29606 -2.45406e-06)
(8.8442 -0.296061 -2.35627e-06)
(8.8442 -0.296062 -2.1952e-06)
(8.8442 -0.296062 -1.9469e-06)
(8.8442 -0.296063 -1.65106e-06)
(8.8442 -0.296063 -1.28422e-06)
(8.8442 -0.296063 -9.09257e-07)
(8.8442 -0.296063 -4.51116e-07)
(8.84411 -0.296059 -3.23868e-08)
(8.84475 -0.46912 -6.68818e-07)
(8.84483 -0.469126 -2.07209e-06)
(8.84483 -0.469126 -3.36176e-06)
(8.84483 -0.469125 -4.52652e-06)
(8.84483 -0.469125 -5.46835e-06)
(8.84483 -0.469125 -6.28498e-06)
(8.84483 -0.469125 -6.89079e-06)
(8.84483 -0.469125 -7.30097e-06)
(8.84483 -0.469125 -7.49941e-06)
(8.84483 -0.469125 -7.49894e-06)
(8.84483 -0.469125 -7.305e-06)
(8.84483 -0.469125 -6.93734e-06)
(8.84483 -0.469125 -6.40867e-06)
(8.84483 -0.469126 -5.75013e-06)
(8.84483 -0.469126 -4.96905e-06)
(8.84483 -0.469126 -4.13097e-06)
(8.84483 -0.469126 -3.16097e-06)
(8.84483 -0.469126 -2.26547e-06)
(8.84483 -0.469126 -1.28264e-06)
(8.84474 -0.46912 -3.97173e-07)
(8.944 -0.473117 -3.07572e-07)
(8.94409 -0.473123 -5.8338e-07)
(8.94409 -0.473123 -8.01678e-07)
(8.94409 -0.473124 -1.12254e-06)
(8.94409 -0.473124 -1.4485e-06)
(8.94409 -0.473124 -1.73756e-06)
(8.94409 -0.473125 -1.98558e-06)
(8.94409 -0.473125 -2.21439e-06)
(8.94409 -0.473126 -2.39755e-06)
(8.94409 -0.473126 -2.54452e-06)
(8.94409 -0.473127 -2.62983e-06)
(8.94409 -0.473127 -2.65773e-06)
(8.94409 -0.473127 -2.59726e-06)
(8.94409 -0.473128 -2.46426e-06)
(8.94409 -0.473128 -2.22704e-06)
(8.94409 -0.473128 -1.93402e-06)
(8.94409 -0.473128 -1.58579e-06)
(8.94409 -0.473128 -1.19692e-06)
(8.94409 -0.473128 -6.54349e-07)
(8.944 -0.473122 -1.14658e-07)
(8.92722 -0.720034 -7.41143e-07)
(8.92731 -0.720043 -2.28247e-06)
(8.92731 -0.720043 -3.60435e-06)
(8.92731 -0.720043 -4.9166e-06)
(8.92731 -0.720043 -6.05925e-06)
(8.92731 -0.720043 -6.99342e-06)
(8.92731 -0.720044 -7.68266e-06)
(8.92731 -0.720044 -8.14551e-06)
(8.92731 -0.720044 -8.35783e-06)
(8.92731 -0.720045 -8.34062e-06)
(8.92731 -0.720045 -8.09627e-06)
(8.92731 -0.720045 -7.65538e-06)
(8.92731 -0.720046 -7.03314e-06)
(8.92731 -0.720046 -6.27999e-06)
(8.92731 -0.720047 -5.40872e-06)
(8.92731 -0.720047 -4.4978e-06)
(8.92731 -0.720047 -3.5336e-06)
(8.92731 -0.720048 -2.56398e-06)
(8.92731 -0.720048 -1.39352e-06)
(8.92722 -0.72004 -4.39225e-07)
(9.0168 -0.706741 -3.20366e-07)
(9.01689 -0.70675 -5.81015e-07)
(9.01689 -0.70675 -9.31706e-07)
(9.01689 -0.70675 -1.39458e-06)
(9.01689 -0.706749 -1.68747e-06)
(9.01689 -0.706749 -2.07643e-06)
(9.01689 -0.706749 -2.37879e-06)
(9.01689 -0.706749 -2.6918e-06)
(9.01689 -0.706748 -2.9409e-06)
(9.01689 -0.706748 -3.15501e-06)
(9.01689 -0.706747 -3.29034e-06)
(9.01689 -0.706747 -3.36164e-06)
(9.01689 -0.706747 -3.32178e-06)
(9.01689 -0.706746 -3.20504e-06)
(9.01689 -0.706746 -2.93281e-06)
(9.01689 -0.706745 -2.62286e-06)
(9.01689 -0.706745 -2.10583e-06)
(9.01689 -0.706745 -1.68181e-06)
(9.01689 -0.706745 -1.08858e-06)
(9.0168 -0.706736 -2.83218e-07)
(8.96678 -1.05264 -6.55687e-07)
(8.96687 -1.05265 -2.02876e-06)
(8.96687 -1.05265 -3.3704e-06)
(8.96687 -1.05265 -4.70266e-06)
(8.96687 -1.05265 -5.70663e-06)
(8.96687 -1.05265 -6.60018e-06)
(8.96687 -1.05265 -7.21519e-06)
(8.96687 -1.05265 -7.6357e-06)
(8.96687 -1.05266 -7.79959e-06)
(8.96687 -1.05266 -7.74849e-06)
(8.96687 -1.05266 -7.47062e-06)
(8.96687 -1.05266 -7.01123e-06)
(8.96687 -1.05266 -6.3717e-06)
(8.96687 -1.05266 -5.63194e-06)
(8.96687 -1.05266 -4.76416e-06)
(8.96687 -1.05267 -3.91972e-06)
(8.96687 -1.05267 -2.94581e-06)
(8.96687 -1.05267 -2.1687e-06)
(8.96687 -1.05267 -1.17738e-06)
(8.96678 -1.05266 -3.19888e-07)
(8.89529 -1.0057 3.43099e-07)
(8.89537 -1.00571 -9.24462e-07)
(8.89536 -1.00571 -1.88008e-06)
(8.89536 -1.00571 -3.06804e-06)
(8.89536 -1.00571 -3.75992e-06)
(8.89536 -1.0057 -4.50722e-06)
(8.89536 -1.0057 -5.03924e-06)
(8.89536 -1.0057 -5.50752e-06)
(8.89536 -1.0057 -5.81128e-06)
(8.89536 -1.0057 -5.99466e-06)
(8.89536 -1.0057 -6.01669e-06)
(8.89536 -1.0057 -5.91198e-06)
(8.89536 -1.0057 -5.64176e-06)
(8.89536 -1.0057 -5.27181e-06)
(8.89536 -1.0057 -4.72017e-06)
(8.89536 -1.0057 -4.17732e-06)
(8.89536 -1.0057 -3.38354e-06)
(8.89536 -1.0057 -2.93136e-06)
(8.89537 -1.0057 -2.08868e-06)
(8.89529 -1.00569 -1.38731e-06)
(8.86337 0.728591 3.31475e-07)
(8.86346 0.728598 -5.85953e-07)
(8.86346 0.728598 -7.56871e-08)
(8.86346 0.728597 -2.18384e-07)
(8.86346 0.728596 -1.0624e-07)
(8.86346 0.728595 -1.81981e-07)
(8.86346 0.728594 -1.9113e-07)
(8.86346 0.728593 -2.57159e-07)
(8.86346 0.728592 -3.02503e-07)
(8.86346 0.728591 -3.58888e-07)
(8.86346 0.72859 -3.97643e-07)
(8.86346 0.728589 -4.32581e-07)
(8.86346 0.728588 -4.39349e-07)
(8.86346 0.728587 -4.45179e-07)
(8.86345 0.728586 -3.95911e-07)
(8.86345 0.728585 -3.98768e-07)
(8.86345 0.728585 -2.38062e-07)
(8.86345 0.728584 -3.08702e-07)
(8.86346 0.728584 2.86942e-07)
(8.86337 0.728576 -5.01061e-07)
(8.74717 0.737455 -5.99927e-07)
(8.74726 0.737463 -9.28255e-07)
(8.74726 0.737463 -1.12628e-06)
(8.74726 0.737464 -1.48285e-06)
(8.74726 0.737465 -1.71016e-06)
(8.74726 0.737466 -1.97849e-06)
(8.74726 0.737467 -2.14888e-06)
(8.74726 0.737468 -2.29118e-06)
(8.74725 0.73747 -2.35313e-06)
(8.74725 0.737471 -2.36301e-06)
(8.74725 0.737472 -2.30604e-06)
(8.74725 0.737473 -2.20041e-06)
(8.74725 0.737474 -2.03606e-06)
(8.74725 0.737475 -1.84427e-06)
(8.74725 0.737476 -1.59387e-06)
(8.74725 0.737477 -1.35934e-06)
(8.74725 0.737478 -1.02422e-06)
(8.74725 0.737478 -7.49047e-07)
(8.74725 0.737479 -2.75571e-07)
(8.74717 0.737471 1.39003e-07)
(8.78058 0.475216 -1.47058e-07)
(8.78067 0.475221 3.80063e-07)
(8.78067 0.475221 8.56269e-07)
(8.78067 0.475221 1.16506e-06)
(8.78067 0.475221 1.5323e-06)
(8.78067 0.475221 1.71926e-06)
(8.78067 0.475221 1.86919e-06)
(8.78067 0.475221 1.91793e-06)
(8.78067 0.475221 1.91046e-06)
(8.78067 0.475222 1.83746e-06)
(8.78067 0.475222 1.73202e-06)
(8.78067 0.475222 1.58594e-06)
(8.78066 0.475222 1.42669e-06)
(8.78066 0.475222 1.25993e-06)
(8.78066 0.475222 1.10926e-06)
(8.78066 0.475222 9.30821e-07)
(8.78066 0.475222 8.45825e-07)
(8.78066 0.475222 6.41245e-07)
(8.78066 0.475222 5.03028e-07)
(8.78057 0.475217 3.80655e-07)
(8.69983 0.474903 -3.48591e-07)
(8.69992 0.474909 -7.24524e-07)
(8.69992 0.474909 -1.01773e-06)
(8.69992 0.474909 -1.35979e-06)
(8.69992 0.474909 -1.64318e-06)
(8.69992 0.474909 -1.89112e-06)
(8.69992 0.474909 -2.06273e-06)
(8.69992 0.474909 -2.18644e-06)
(8.69992 0.474909 -2.23712e-06)
(8.69992 0.474909 -2.22679e-06)
(8.69992 0.474909 -2.15388e-06)
(8.69992 0.47491 -2.02328e-06)
(8.69992 0.47491 -1.84021e-06)
(8.69992 0.47491 -1.63378e-06)
(8.69992 0.47491 -1.37995e-06)
(8.69992 0.47491 -1.12236e-06)
(8.69992 0.474911 -8.25592e-07)
(8.69992 0.474911 -5.33377e-07)
(8.69992 0.474911 -2.00487e-07)
(8.69983 0.474906 1.50393e-08)
(8.71821 0.280912 4.93707e-08)
(8.7183 0.280915 5.31387e-07)
(8.7183 0.280916 1.01236e-06)
(8.7183 0.280916 1.38425e-06)
(8.7183 0.280917 1.70499e-06)
(8.7183 0.280917 1.93371e-06)
(8.7183 0.280918 2.09608e-06)
(8.7183 0.280918 2.17134e-06)
(8.7183 0.280919 2.18266e-06)
(8.7183 0.28092 2.1313e-06)
(8.7183 0.28092 2.03597e-06)
(8.7183 0.280921 1.90253e-06)
(8.7183 0.280921 1.74824e-06)
(8.7183 0.280922 1.57604e-06)
(8.7183 0.280923 1.40664e-06)
(8.7183 0.280923 1.22822e-06)
(8.7183 0.280923 1.06036e-06)
(8.7183 0.280923 8.5536e-07)
(8.7183 0.280924 6.42263e-07)
(8.71821 0.280921 3.18603e-07)
(8.6664 0.273345 -1.72211e-07)
(8.66649 0.273348 -3.63666e-07)
(8.66649 0.273348 -5.2927e-07)
(8.66649 0.273347 -6.95724e-07)
(8.66649 0.273346 -7.99795e-07)