/*--------------------------------*- C++ -*----------------------------------*\
| =========                 |                                                 |
| \\      /  F ield         | OpenFOAM: The Open Source CFD Toolbox           |
|  \\    /   O peration     | Version:  2212                                  |
|   \\  /    A nd           | Website:  www.openfoam.com                      |
|    \\/     M anipulation  |                                                 |
\*---------------------------------------------------------------------------*/
FoamFile
{
    version     2.0;
    format      ascii;
    arch        "LSB;label=32;scalar=64";
    class       volScalarField;
    location    "0.102";
    object      pPrime2Mean;
}
// * * * * * * * * * * * * * * * * * * * * * * * * * * * * * * * * * * * * * //

dimensions      [0 4 -4 0 0 0 0];

internalField   nonuniform List<scalar> 
24240
(
705888
705886
705881
705873
705863
705851
705836
705820
705803
705784
705765
705745
705726
705706
705688
705671
705656
705643
705633
705626
643908
643907
643906
643904
643902
643899
643895
643892
643888
643883
643879
643874
643869
643865
643861
643857
643853
643850
643848
643846
606739
606739
606739
606740
606740
606741
606742
606743
606744
606745
606746
606747
606748
606749
606749
606750
606751
606752
606752
606753
584356
584357
584358
584359
584362
584364
584367
584371
584375
584379
584383
584387
584391
584395
584399
584402
584406
584408
584411
584412
569355
569356
569357
569360
569363
569367
569371
569377
569382
569388
569394
569400
569406
569412
569417
569422
569427
569431
569434
569436
559117
559118
559120
559123
559127
559131
559136
559142
559149
559156
559163
559170
559177
559184
559191
559197
559202
559207
559210
559212
552416
552417
552419
552422
552426
552431
552436
552443
552450
552457
552465
552472
552480
552487
552494
552501
552507
552511
552515
552517
548531
548532
548534
548537
548541
548546
548552
548558
548565
548572
548580
548587
548595
548602
548610
548616
548622
548627
548630
548633
546503
546504
546506
546509
546512
546517
546522
546528
546534
546541
546548
546555
546562
546570
546576
546582
546588
546592
546596
546598
547189
547190
547192
547194
547198
547202
547206
547212
547218
547224
547231
547237
547244
547251
547257
547263
547268
547272
547275
547277
549986
549986
549988
549990
549993
549997
550001
550006
550011
550017
550023
550029
550035
550041
550047
550053
550057
550061
550064
550066
554964
554964
554965
554967
554970
554973
554977
554981
554986
554991
554996
555002
555007
555013
555018
555023
555027
555031
555034
555035
562316
562316
562317
562319
562321
562323
562326
562330
562334
562338
562343
562347
562352
562357
562361
562365
562369
562372
562375
562376
572379
572379
572380
572381
572382
572384
572386
572389
572392
572395
572398
572402
572405
572409
572413
572416
572419
572422
572424
572425
585747
585747
585747
585747
585748
585749
585750
585751
585753
585755
585757
585759
585761
585763
585766
585768
585770
585772
585774
585775
603408
603408
603407
603407
603407
603407
603406
603406
603406
603406
603406
603406
603407
603407
603408
603409
603410
603411
603412
603413
627231
627231
627230
627229
627227
627225
627223
627220
627217
627215
627212
627210
627208
627206
627204
627202
627201
627200
627200
627201
661124
661123
661121
661118
661114
661110
661105
661099
661092
661086
661079
661073
661066
661060
661054
661049
661045
661041
661039
661039
716347
716345
716342
716337
716330
716321
716311
716300
716288
716275
716262
716248
716235
716222
716209
716198
716187
716179
716173
716171
795907
795904
795898
795887
795873
795856
795835
795812
795785
795757
795728
795697
795666
795635
795605
795578
795553
795532
795516
795504
5.9683e+06
5.96828e+06
5.96825e+06
5.96821e+06
5.96815e+06
5.96808e+06
5.96799e+06
5.9679e+06
5.9678e+06
5.96769e+06
5.96758e+06
5.96746e+06
5.96735e+06
5.96724e+06
5.96714e+06
5.96704e+06
5.96695e+06
5.96688e+06
5.96682e+06
5.96679e+06
5.67205e+06
5.67205e+06
5.67204e+06
5.67202e+06
5.672e+06
5.67197e+06
5.67194e+06
5.67191e+06
5.67187e+06
5.67184e+06
5.6718e+06
5.67176e+06
5.67172e+06
5.67168e+06
5.67164e+06
5.6716e+06
5.67157e+06
5.67155e+06
5.67153e+06
5.67152e+06
5.40379e+06
5.40379e+06
5.40379e+06
5.40379e+06
5.40379e+06
5.40379e+06
5.40379e+06
5.40379e+06
5.40379e+06
5.40379e+06
5.40379e+06
5.40379e+06
5.40379e+06
5.40379e+06
5.40379e+06
5.40378e+06
5.40378e+06
5.40378e+06
5.40378e+06
5.40378e+06
5.22232e+06
5.22233e+06
5.22233e+06
5.22234e+06
5.22236e+06
5.22237e+06
5.22239e+06
5.22241e+06
5.22243e+06
5.22246e+06
5.22248e+06
5.2225e+06
5.22253e+06
5.22255e+06
5.22257e+06
5.22259e+06
5.22261e+06
5.22263e+06
5.22264e+06
5.22265e+06
5.09568e+06
5.09568e+06
5.09569e+06
5.09571e+06
5.09573e+06
5.09576e+06
5.09579e+06
5.09582e+06
5.09586e+06
5.0959e+06
5.09593e+06
5.09597e+06
5.09601e+06
5.09605e+06
5.09609e+06
5.09612e+06
5.09615e+06
5.09618e+06
5.0962e+06
5.09621e+06
5.00776e+06
5.00777e+06
5.00778e+06
5.0078e+06
5.00783e+06
5.00786e+06
5.0079e+06
5.00794e+06
5.00798e+06
5.00803e+06
5.00808e+06
5.00813e+06
5.00818e+06
5.00823e+06
5.00827e+06
5.00831e+06
5.00835e+06
5.00838e+06
5.0084e+06
5.00842e+06
4.94931e+06
4.94931e+06
4.94933e+06
4.94935e+06
4.94938e+06
4.94941e+06
4.94945e+06
4.9495e+06
4.94955e+06
4.9496e+06
4.94965e+06
4.94971e+06
4.94976e+06
4.94982e+06
4.94986e+06
4.94991e+06
4.94995e+06
4.94998e+06
4.95001e+06
4.95003e+06
4.91582e+06
4.91583e+06
4.91584e+06
4.91586e+06
4.91589e+06
4.91593e+06
4.91597e+06
4.91601e+06
4.91606e+06
4.91612e+06
4.91617e+06
4.91623e+06
4.91628e+06
4.91633e+06
4.91638e+06
4.91643e+06
4.91647e+06
4.9165e+06
4.91653e+06
4.91655e+06
4.90114e+06
4.90115e+06
4.90116e+06
4.90119e+06
4.90121e+06
4.90125e+06
4.90128e+06
4.90133e+06
4.90138e+06
4.90143e+06
4.90148e+06
4.90153e+06
4.90158e+06
4.90163e+06
4.90168e+06
4.90173e+06
4.90177e+06
4.9018e+06
4.90182e+06
4.90184e+06
4.90679e+06
4.9068e+06
4.90681e+06
4.90683e+06
4.90685e+06
4.90688e+06
4.90692e+06
4.90696e+06
4.907e+06
4.90705e+06
4.9071e+06
4.90715e+06
4.9072e+06
4.90725e+06
4.90729e+06
4.90734e+06
4.90737e+06
4.9074e+06
4.90743e+06
4.90744e+06
4.93106e+06
4.93107e+06
4.93108e+06
4.9311e+06
4.93112e+06
4.93115e+06
4.93118e+06
4.93122e+06
4.93126e+06
4.9313e+06
4.93134e+06
4.93139e+06
4.93143e+06
4.93148e+06
4.93152e+06
4.93156e+06
4.93159e+06
4.93162e+06
4.93165e+06
4.93166e+06
4.97445e+06
4.97446e+06
4.97447e+06
4.97448e+06
4.9745e+06
4.97452e+06
4.97455e+06
4.97458e+06
4.97462e+06
4.97466e+06
4.97469e+06
4.97473e+06
4.97478e+06
4.97481e+06
4.97485e+06
4.97489e+06
4.97492e+06
4.97494e+06
4.97496e+06
4.97498e+06
5.03851e+06
5.03851e+06
5.03852e+06
5.03853e+06
5.03854e+06
5.03856e+06
5.03858e+06
5.03861e+06
5.03864e+06
5.03867e+06
5.0387e+06
5.03873e+06
5.03877e+06
5.0388e+06
5.03883e+06
5.03886e+06
5.03889e+06
5.03891e+06
5.03893e+06
5.03894e+06
5.12598e+06
5.12599e+06
5.12599e+06
5.126e+06
5.12601e+06
5.12602e+06
5.12604e+06
5.12605e+06
5.12607e+06
5.1261e+06
5.12612e+06
5.12614e+06
5.12617e+06
5.12619e+06
5.12622e+06
5.12624e+06
5.12626e+06
5.12628e+06
5.12629e+06
5.1263e+06
5.24167e+06
5.24167e+06
5.24167e+06
5.24167e+06
5.24168e+06
5.24168e+06
5.24169e+06
5.2417e+06
5.24171e+06
5.24172e+06
5.24173e+06
5.24174e+06
5.24175e+06
5.24177e+06
5.24178e+06
5.24179e+06
5.24181e+06
5.24182e+06
5.24183e+06
5.24184e+06
5.39316e+06
5.39316e+06
5.39315e+06
5.39315e+06
5.39315e+06
5.39314e+06
5.39314e+06
5.39313e+06
5.39312e+06
5.39312e+06
5.39311e+06
5.39311e+06
5.39311e+06
5.39311e+06
5.39311e+06
5.39311e+06
5.39311e+06
5.39311e+06
5.39312e+06
5.39312e+06
5.59364e+06
5.59364e+06
5.59363e+06
5.59361e+06
5.5936e+06
5.59358e+06
5.59356e+06
5.59353e+06
5.59351e+06
5.59348e+06
5.59345e+06
5.59343e+06
5.5934e+06
5.59338e+06
5.59336e+06
5.59334e+06
5.59332e+06
5.59331e+06
5.5933e+06
5.5933e+06
5.86617e+06
5.86616e+06
5.86614e+06
5.86612e+06
5.86608e+06
5.86604e+06
5.866e+06
5.86595e+06
5.86589e+06
5.86583e+06
5.86577e+06
5.86571e+06
5.86565e+06
5.8656e+06
5.86554e+06
5.86549e+06
5.86545e+06
5.86542e+06
5.8654e+06
5.86539e+06
6.25627e+06
6.25625e+06
6.25622e+06
6.25618e+06
6.25613e+06
6.25606e+06
6.25597e+06
6.25588e+06
6.25578e+06
6.25568e+06
6.25556e+06
6.25545e+06
6.25534e+06
6.25523e+06
6.25513e+06
6.25503e+06
6.25494e+06
6.25487e+06
6.25482e+06
6.2548e+06
6.64306e+06
6.64304e+06
6.64299e+06
6.64292e+06
6.64283e+06
6.64271e+06
6.64258e+06
6.64242e+06
6.64225e+06
6.64207e+06
6.64188e+06
6.64168e+06
6.64148e+06
6.64129e+06
6.6411e+06
6.64092e+06
6.64076e+06
6.64063e+06
6.64052e+06
6.64045e+06
1.59184e+07
1.59183e+07
1.59183e+07
1.59182e+07
1.59181e+07
1.59179e+07
1.59177e+07
1.59176e+07
1.59173e+07
1.59171e+07
1.59169e+07
1.59167e+07
1.59165e+07
1.59162e+07
1.5916e+07
1.59158e+07
1.59157e+07
1.59155e+07
1.59154e+07
1.59153e+07
1.53497e+07
1.53497e+07
1.53497e+07
1.53496e+07
1.53496e+07
1.53495e+07
1.53495e+07
1.53494e+07
1.53493e+07
1.53492e+07
1.53491e+07
1.5349e+07
1.5349e+07
1.53489e+07
1.53488e+07
1.53487e+07
1.53486e+07
1.53486e+07
1.53485e+07
1.53485e+07
1.47795e+07
1.47795e+07
1.47795e+07
1.47794e+07
1.47794e+07
1.47794e+07
1.47794e+07
1.47794e+07
1.47794e+07
1.47794e+07
1.47794e+07
1.47794e+07
1.47794e+07
1.47794e+07
1.47794e+07
1.47794e+07
1.47793e+07
1.47793e+07
1.47793e+07
1.47793e+07
1.43599e+07
1.43599e+07
1.43599e+07
1.43599e+07
1.436e+07
1.436e+07
1.436e+07
1.43601e+07
1.43601e+07
1.43602e+07
1.43602e+07
1.43603e+07
1.43603e+07
1.43604e+07
1.43604e+07
1.43604e+07
1.43605e+07
1.43605e+07
1.43605e+07
1.43605e+07
1.40527e+07
1.40527e+07
1.40527e+07
1.40528e+07
1.40528e+07
1.40529e+07
1.40529e+07
1.4053e+07
1.40531e+07
1.40532e+07
1.40532e+07
1.40533e+07
1.40534e+07
1.40535e+07
1.40536e+07
1.40536e+07
1.40537e+07
1.40538e+07
1.40538e+07
1.40538e+07
1.38337e+07
1.38337e+07
1.38338e+07
1.38338e+07
1.38339e+07
1.38339e+07
1.3834e+07
1.38341e+07
1.38342e+07
1.38343e+07
1.38344e+07
1.38345e+07
1.38347e+07
1.38348e+07
1.38349e+07
1.38349e+07
1.3835e+07
1.38351e+07
1.38351e+07
1.38352e+07
1.36843e+07
1.36843e+07
1.36843e+07
1.36844e+07
1.36844e+07
1.36845e+07
1.36846e+07
1.36847e+07
1.36848e+07
1.36849e+07
1.36851e+07
1.36852e+07
1.36853e+07
1.36854e+07
1.36855e+07
1.36856e+07
1.36857e+07
1.36858e+07
1.36859e+07
1.36859e+07
1.35993e+07
1.35993e+07
1.35993e+07
1.35994e+07
1.35994e+07
1.35995e+07
1.35996e+07
1.35997e+07
1.35998e+07
1.35999e+07
1.36001e+07
1.36002e+07
1.36003e+07
1.36004e+07
1.36006e+07
1.36007e+07
1.36008e+07
1.36008e+07
1.36009e+07
1.36009e+07
1.35636e+07
1.35636e+07
1.35637e+07
1.35637e+07
1.35638e+07
1.35638e+07
1.35639e+07
1.3564e+07
1.35642e+07
1.35643e+07
1.35644e+07
1.35645e+07
1.35646e+07
1.35647e+07
1.35649e+07
1.3565e+07
1.3565e+07
1.35651e+07
1.35652e+07
1.35652e+07
1.35789e+07
1.3579e+07
1.3579e+07
1.3579e+07
1.35791e+07
1.35792e+07
1.35793e+07
1.35794e+07
1.35795e+07
1.35796e+07
1.35797e+07
1.35798e+07
1.35799e+07
1.358e+07
1.35801e+07
1.35802e+07
1.35803e+07
1.35804e+07
1.35804e+07
1.35805e+07
1.36432e+07
1.36432e+07
1.36432e+07
1.36432e+07
1.36433e+07
1.36433e+07
1.36434e+07
1.36435e+07
1.36436e+07
1.36437e+07
1.36438e+07
1.36439e+07
1.3644e+07
1.36441e+07
1.36442e+07
1.36443e+07
1.36444e+07
1.36444e+07
1.36445e+07
1.36445e+07
1.37573e+07
1.37573e+07
1.37574e+07
1.37574e+07
1.37574e+07
1.37575e+07
1.37576e+07
1.37576e+07
1.37577e+07
1.37578e+07
1.37579e+07
1.3758e+07
1.37581e+07
1.37582e+07
1.37583e+07
1.37583e+07
1.37584e+07
1.37585e+07
1.37585e+07
1.37585e+07
1.3925e+07
1.3925e+07
1.3925e+07
1.3925e+07
1.39251e+07
1.39251e+07
1.39251e+07
1.39252e+07
1.39253e+07
1.39253e+07
1.39254e+07
1.39255e+07
1.39256e+07
1.39256e+07
1.39257e+07
1.39258e+07
1.39258e+07
1.39259e+07
1.39259e+07
1.39259e+07
1.41521e+07
1.41521e+07
1.41522e+07
1.41522e+07
1.41522e+07
1.41522e+07
1.41523e+07
1.41523e+07
1.41523e+07
1.41524e+07
1.41524e+07
1.41525e+07
1.41525e+07
1.41526e+07
1.41527e+07
1.41527e+07
1.41527e+07
1.41528e+07
1.41528e+07
1.41528e+07
1.4449e+07
1.4449e+07
1.4449e+07
1.4449e+07
1.4449e+07
1.4449e+07
1.4449e+07
1.44491e+07
1.44491e+07
1.44491e+07
1.44491e+07
1.44491e+07
1.44492e+07
1.44492e+07
1.44492e+07
1.44492e+07
1.44493e+07
1.44493e+07
1.44493e+07
1.44493e+07
1.48304e+07
1.48304e+07
1.48304e+07
1.48304e+07
1.48304e+07
1.48304e+07
1.48304e+07
1.48303e+07
1.48303e+07
1.48303e+07
1.48303e+07
1.48303e+07
1.48303e+07
1.48302e+07
1.48302e+07
1.48302e+07
1.48302e+07
1.48302e+07
1.48302e+07
1.48302e+07
1.532e+07
1.532e+07
1.53199e+07
1.53199e+07
1.53199e+07
1.53198e+07
1.53198e+07
1.53197e+07
1.53196e+07
1.53196e+07
1.53195e+07
1.53194e+07
1.53193e+07
1.53193e+07
1.53192e+07
1.53192e+07
1.53191e+07
1.53191e+07
1.53191e+07
1.53191e+07
1.59519e+07
1.59519e+07
1.59518e+07
1.59518e+07
1.59517e+07
1.59516e+07
1.59515e+07
1.59514e+07
1.59512e+07
1.59511e+07
1.59509e+07
1.59508e+07
1.59506e+07
1.59505e+07
1.59504e+07
1.59502e+07
1.59501e+07
1.59501e+07
1.595e+07
1.595e+07
1.67792e+07
1.67792e+07
1.67791e+07
1.6779e+07
1.67789e+07
1.67787e+07
1.67785e+07
1.67783e+07
1.67781e+07
1.67778e+07
1.67776e+07
1.67773e+07
1.6777e+07
1.67768e+07
1.67765e+07
1.67763e+07
1.67761e+07
1.6776e+07
1.67758e+07
1.67758e+07
1.75418e+07
1.75418e+07
1.75417e+07
1.75415e+07
1.75413e+07
1.75411e+07
1.75408e+07
1.75404e+07
1.754e+07
1.75397e+07
1.75392e+07
1.75388e+07
1.75384e+07
1.7538e+07
1.75376e+07
1.75372e+07
1.75369e+07
1.75366e+07
1.75364e+07
1.75362e+07
3.0227e+07
3.02269e+07
3.02268e+07
3.02267e+07
3.02265e+07
3.02263e+07
3.02261e+07
3.02258e+07
3.02255e+07
3.02251e+07
3.02248e+07
3.02245e+07
3.02242e+07
3.02238e+07
3.02235e+07
3.02233e+07
3.0223e+07
3.02228e+07
3.02226e+07
3.02225e+07
2.93826e+07
2.93826e+07
2.93826e+07
2.93825e+07
2.93824e+07
2.93823e+07
2.93822e+07
2.93821e+07
2.9382e+07
2.93818e+07
2.93817e+07
2.93816e+07
2.93814e+07
2.93813e+07
2.93811e+07
2.9381e+07
2.93809e+07
2.93808e+07
2.93808e+07
2.93807e+07
2.84978e+07
2.84978e+07
2.84978e+07
2.84978e+07
2.84978e+07
2.84978e+07
2.84978e+07
2.84977e+07
2.84977e+07
2.84977e+07
2.84977e+07
2.84977e+07
2.84976e+07
2.84976e+07
2.84976e+07
2.84976e+07
2.84976e+07
2.84976e+07
2.84976e+07
2.84975e+07
2.78143e+07
2.78143e+07
2.78144e+07
2.78144e+07
2.78144e+07
2.78145e+07
2.78145e+07
2.78146e+07
2.78147e+07
2.78147e+07
2.78148e+07
2.78149e+07
2.78149e+07
2.7815e+07
2.78151e+07
2.78151e+07
2.78152e+07
2.78152e+07
2.78153e+07
2.78153e+07
2.72962e+07
2.72962e+07
2.72962e+07
2.72963e+07
2.72964e+07
2.72965e+07
2.72966e+07
2.72967e+07
2.72968e+07
2.72969e+07
2.72971e+07
2.72972e+07
2.72973e+07
2.72975e+07
2.72976e+07
2.72977e+07
2.72978e+07
2.72979e+07
2.72979e+07
2.7298e+07
2.69172e+07
2.69172e+07
2.69173e+07
2.69174e+07
2.69175e+07
2.69176e+07
2.69177e+07
2.69179e+07
2.6918e+07
2.69182e+07
2.69184e+07
2.69186e+07
2.69187e+07
2.69189e+07
2.6919e+07
2.69192e+07
2.69193e+07
2.69194e+07
2.69195e+07
2.69195e+07
2.66595e+07
2.66595e+07
2.66596e+07
2.66597e+07
2.66598e+07
2.66599e+07
2.66601e+07
2.66602e+07
2.66604e+07
2.66606e+07
2.66608e+07
2.6661e+07
2.66612e+07
2.66614e+07
2.66616e+07
2.66617e+07
2.66619e+07
2.6662e+07
2.66621e+07
2.66621e+07
2.65097e+07
2.65097e+07
2.65098e+07
2.65099e+07
2.651e+07
2.65101e+07
2.65103e+07
2.65104e+07
2.65106e+07
2.65108e+07
2.6511e+07
2.65112e+07
2.65114e+07
2.65116e+07
2.65118e+07
2.6512e+07
2.65121e+07
2.65122e+07
2.65123e+07
2.65124e+07
2.64495e+07
2.64495e+07
2.64496e+07
2.64496e+07
2.64497e+07
2.64499e+07
2.645e+07
2.64502e+07
2.64504e+07
2.64506e+07
2.64508e+07
2.6451e+07
2.64511e+07
2.64513e+07
2.64515e+07
2.64517e+07
2.64518e+07
2.64519e+07
2.6452e+07
2.64521e+07
2.64799e+07
2.64799e+07
2.64799e+07
2.648e+07
2.64801e+07
2.64802e+07
2.64804e+07
2.64805e+07
2.64807e+07
2.64809e+07
2.64811e+07
2.64812e+07
2.64814e+07
2.64816e+07
2.64818e+07
2.64819e+07
2.64821e+07
2.64822e+07
2.64822e+07
2.64823e+07
2.6599e+07
2.6599e+07
2.65991e+07
2.65991e+07
2.65992e+07
2.65993e+07
2.65995e+07
2.65996e+07
2.65998e+07
2.65999e+07
2.66001e+07
2.66003e+07
2.66004e+07
2.66006e+07
2.66008e+07
2.66009e+07
2.6601e+07
2.66011e+07
2.66012e+07
2.66012e+07
2.68087e+07
2.68087e+07
2.68087e+07
2.68088e+07
2.68089e+07
2.6809e+07
2.68091e+07
2.68092e+07
2.68093e+07
2.68095e+07
2.68096e+07
2.68098e+07
2.68099e+07
2.68101e+07
2.68102e+07
2.68103e+07
2.68104e+07
2.68105e+07
2.68106e+07
2.68106e+07
2.71141e+07
2.71141e+07
2.71142e+07
2.71142e+07
2.71143e+07
2.71143e+07
2.71144e+07
2.71145e+07
2.71146e+07
2.71148e+07
2.71149e+07
2.7115e+07
2.71151e+07
2.71152e+07
2.71153e+07
2.71154e+07
2.71155e+07
2.71156e+07
2.71157e+07
2.71157e+07
2.75242e+07
2.75242e+07
2.75242e+07
2.75242e+07
2.75243e+07
2.75243e+07
2.75244e+07
2.75245e+07
2.75245e+07
2.75246e+07
2.75247e+07
2.75248e+07
2.75248e+07
2.75249e+07
2.7525e+07
2.75251e+07
2.75251e+07
2.75252e+07
2.75252e+07
2.75253e+07
2.80532e+07
2.80532e+07
2.80532e+07
2.80532e+07
2.80532e+07
2.80532e+07
2.80532e+07
2.80533e+07
2.80533e+07
2.80533e+07
2.80534e+07
2.80534e+07
2.80534e+07
2.80535e+07
2.80535e+07
2.80535e+07
2.80535e+07
2.80536e+07
2.80536e+07
2.80536e+07
2.87205e+07
2.87205e+07
2.87205e+07
2.87204e+07
2.87204e+07
2.87204e+07
2.87204e+07
2.87203e+07
2.87203e+07
2.87203e+07
2.87202e+07
2.87202e+07
2.87202e+07
2.87201e+07
2.87201e+07
2.87201e+07
2.87201e+07
2.87201e+07
2.872e+07
2.872e+07
2.95546e+07
2.95546e+07
2.95546e+07
2.95545e+07
2.95545e+07
2.95544e+07
2.95543e+07
2.95542e+07
2.95541e+07
2.95539e+07
2.95538e+07
2.95537e+07
2.95536e+07
2.95534e+07
2.95533e+07
2.95532e+07
2.95532e+07
2.95531e+07
2.95531e+07
2.9553e+07
3.05917e+07
3.05917e+07
3.05916e+07
3.05915e+07
3.05914e+07
3.05912e+07
3.0591e+07
3.05908e+07
3.05906e+07
3.05904e+07
3.05901e+07
3.05899e+07
3.05896e+07
3.05894e+07
3.05892e+07
3.0589e+07
3.05888e+07
3.05886e+07
3.05885e+07
3.05885e+07
3.18807e+07
3.18806e+07
3.18805e+07
3.18804e+07
3.18801e+07
3.18799e+07
3.18796e+07
3.18792e+07
3.18788e+07
3.18784e+07
3.1878e+07
3.18776e+07
3.18772e+07
3.18768e+07
3.18764e+07
3.1876e+07
3.18757e+07
3.18755e+07
3.18753e+07
3.18752e+07
3.30359e+07
3.30358e+07
3.30356e+07
3.30354e+07
3.30351e+07
3.30346e+07
3.30342e+07
3.30336e+07
3.30331e+07
3.30324e+07
3.30318e+07
3.30311e+07
3.30305e+07
3.30299e+07
3.30292e+07
3.30287e+07
3.30282e+07
3.30277e+07
3.30274e+07
3.30272e+07
4.86621e+07
4.8662e+07
4.86619e+07
4.86617e+07
4.86615e+07
4.86612e+07
4.86609e+07
4.86605e+07
4.86601e+07
4.86597e+07
4.86593e+07
4.86589e+07
4.86585e+07
4.86581e+07
4.86577e+07
4.86574e+07
4.86571e+07
4.86568e+07
4.86566e+07
4.86565e+07
4.75481e+07
4.75481e+07
4.75481e+07
4.7548e+07
4.75479e+07
4.75478e+07
4.75476e+07
4.75475e+07
4.75473e+07
4.75471e+07
4.75469e+07
4.75467e+07
4.75465e+07
4.75464e+07
4.75462e+07
4.7546e+07
4.75459e+07
4.75458e+07
4.75457e+07
4.75457e+07
4.63534e+07
4.63534e+07
4.63534e+07
4.63534e+07
4.63534e+07
4.63533e+07
4.63533e+07
4.63533e+07
4.63533e+07
4.63532e+07
4.63532e+07
4.63532e+07
4.63531e+07
4.63531e+07
4.63531e+07
4.63531e+07
4.6353e+07
4.6353e+07
4.6353e+07
4.6353e+07
4.54039e+07
4.54039e+07
4.54039e+07
4.54039e+07
4.5404e+07
4.54041e+07
4.54041e+07
4.54042e+07
4.54043e+07
4.54044e+07
4.54045e+07
4.54046e+07
4.54046e+07
4.54047e+07
4.54048e+07
4.54049e+07
4.54049e+07
4.5405e+07
4.5405e+07
4.54051e+07
4.46656e+07
4.46656e+07
4.46656e+07
4.46657e+07
4.46658e+07
4.4666e+07
4.46661e+07
4.46663e+07
4.46664e+07
4.46666e+07
4.46668e+07
4.4667e+07
4.46672e+07
4.46673e+07
4.46675e+07
4.46676e+07
4.46678e+07
4.46679e+07
4.4668e+07
4.4668e+07
4.41206e+07
4.41206e+07
4.41207e+07
4.41208e+07
4.41209e+07
4.41211e+07
4.41213e+07
4.41215e+07
4.41217e+07
4.41219e+07
4.41221e+07
4.41224e+07
4.41226e+07
4.41228e+07
4.4123e+07
4.41232e+07
4.41234e+07
4.41235e+07
4.41236e+07
4.41237e+07
4.37464e+07
4.37464e+07
4.37465e+07
4.37466e+07
4.37467e+07
4.37469e+07
4.37471e+07
4.37474e+07
4.37476e+07
4.37479e+07
4.37481e+07
4.37484e+07
4.37486e+07
4.37489e+07
4.37491e+07
4.37493e+07
4.37495e+07
4.37497e+07
4.37498e+07
4.37498e+07
4.35288e+07
4.35288e+07
4.35289e+07
4.3529e+07
4.35291e+07
4.35293e+07
4.35295e+07
4.35298e+07
4.353e+07
4.35303e+07
4.35306e+07
4.35308e+07
4.35311e+07
4.35313e+07
4.35316e+07
4.35318e+07
4.3532e+07
4.35321e+07
4.35323e+07
4.35323e+07
4.34454e+07
4.34455e+07
4.34455e+07
4.34457e+07
4.34458e+07
4.3446e+07
4.34462e+07
4.34464e+07
4.34467e+07
4.34469e+07
4.34472e+07
4.34474e+07
4.34477e+07
4.3448e+07
4.34482e+07
4.34484e+07
4.34486e+07
4.34487e+07
4.34488e+07
4.34489e+07
4.3497e+07
4.3497e+07
4.34971e+07
4.34972e+07
4.34974e+07
4.34975e+07
4.34977e+07
4.34979e+07
4.34982e+07
4.34984e+07
4.34987e+07
4.34989e+07
4.34992e+07
4.34994e+07
4.34996e+07
4.34998e+07
4.35e+07
4.35001e+07
4.35002e+07
4.35003e+07
4.3683e+07
4.36831e+07
4.36831e+07
4.36832e+07
4.36833e+07
4.36835e+07
4.36837e+07
4.36839e+07
4.36841e+07
4.36843e+07
4.36845e+07
4.36848e+07
4.3685e+07
4.36852e+07
4.36854e+07
4.36856e+07
4.36858e+07
4.36859e+07
4.3686e+07
4.3686e+07
4.40057e+07
4.40057e+07
4.40058e+07
4.40059e+07
4.4006e+07
4.40061e+07
4.40063e+07
4.40064e+07
4.40066e+07
4.40068e+07
4.4007e+07
4.40072e+07
4.40074e+07
4.40076e+07
4.40078e+07
4.40079e+07
4.40081e+07
4.40082e+07
4.40083e+07
4.40083e+07
4.44716e+07
4.44716e+07
4.44717e+07
4.44717e+07
4.44718e+07
4.44719e+07
4.44721e+07
4.44722e+07
4.44723e+07
4.44725e+07
4.44726e+07
4.44728e+07
4.4473e+07
4.44731e+07
4.44733e+07
4.44734e+07
4.44735e+07
4.44736e+07
4.44736e+07
4.44737e+07
4.50912e+07
4.50912e+07
4.50912e+07
4.50913e+07
4.50913e+07
4.50914e+07
4.50915e+07
4.50916e+07
4.50917e+07
4.50918e+07
4.50919e+07
4.5092e+07
4.50921e+07
4.50922e+07
4.50923e+07
4.50924e+07
4.50924e+07
4.50925e+07
4.50925e+07
4.50926e+07
4.5881e+07
4.5881e+07
4.5881e+07
4.5881e+07
4.5881e+07
4.5881e+07
4.58811e+07
4.58811e+07
4.58811e+07
4.58812e+07
4.58812e+07
4.58812e+07
4.58813e+07
4.58813e+07
4.58813e+07
4.58814e+07
4.58814e+07
4.58814e+07
4.58814e+07
4.58814e+07
4.68618e+07
4.68618e+07
4.68618e+07
4.68618e+07
4.68618e+07
4.68617e+07
4.68617e+07
4.68616e+07
4.68616e+07
4.68615e+07
4.68615e+07
4.68614e+07
4.68613e+07
4.68613e+07
4.68612e+07
4.68612e+07
4.68612e+07
4.68611e+07
4.68611e+07
4.68611e+07
4.80632e+07
4.80632e+07
4.80631e+07
4.80631e+07
4.8063e+07
4.80628e+07
4.80627e+07
4.80625e+07
4.80624e+07
4.80622e+07
4.8062e+07
4.80619e+07
4.80617e+07
4.80615e+07
4.80614e+07
4.80612e+07
4.80611e+07
4.8061e+07
4.80609e+07
4.80609e+07
4.95182e+07
4.95181e+07
4.9518e+07
4.95179e+07
4.95177e+07
4.95175e+07
4.95172e+07
4.95169e+07
4.95166e+07
4.95163e+07
4.95159e+07
4.95156e+07
4.95153e+07
4.95149e+07
4.95146e+07
4.95144e+07
4.95141e+07
4.95139e+07
4.95138e+07
4.95137e+07
5.12697e+07
5.12696e+07
5.12695e+07
5.12693e+07
5.1269e+07
5.12686e+07
5.12682e+07
5.12677e+07
5.12672e+07
5.12666e+07
5.12661e+07
5.12655e+07
5.12649e+07
5.12644e+07
5.12639e+07
5.12634e+07
5.1263e+07
5.12627e+07
5.12624e+07
5.12623e+07
5.28162e+07
5.2816e+07
5.28158e+07
5.28154e+07
5.2815e+07
5.28144e+07
5.28138e+07
5.28131e+07
5.28123e+07
5.28115e+07
5.28106e+07
5.28098e+07
5.28089e+07
5.28081e+07
5.28073e+07
5.28066e+07
5.28059e+07
5.28054e+07
5.28051e+07
5.28049e+07
7.10358e+07
7.10357e+07
7.10355e+07
7.10353e+07
7.1035e+07
7.10347e+07
7.10343e+07
7.10339e+07
7.10335e+07
7.1033e+07
7.10325e+07
7.1032e+07
7.10316e+07
7.10311e+07
7.10307e+07
7.10303e+07
7.103e+07
7.10296e+07
7.10294e+07
7.10293e+07
6.96608e+07
6.96607e+07
6.96607e+07
6.96606e+07
6.96604e+07
6.96603e+07
6.96601e+07
6.96599e+07
6.96597e+07
6.96595e+07
6.96593e+07
6.96591e+07
6.96588e+07
6.96586e+07
6.96584e+07
6.96583e+07
6.96581e+07
6.9658e+07
6.96579e+07
6.96578e+07
6.81652e+07
6.81652e+07
6.81652e+07
6.81652e+07
6.81652e+07
6.81652e+07
6.81652e+07
6.81651e+07
6.81651e+07
6.81651e+07
6.8165e+07
6.8165e+07
6.8165e+07
6.8165e+07
6.81649e+07
6.81649e+07
6.81649e+07
6.81649e+07
6.81649e+07
6.81649e+07
6.6955e+07
6.69551e+07
6.69551e+07
6.69551e+07
6.69552e+07
6.69553e+07
6.69554e+07
6.69555e+07
6.69556e+07
6.69557e+07
6.69558e+07
6.6956e+07
6.69561e+07
6.69562e+07
6.69563e+07
6.69564e+07
6.69565e+07
6.69565e+07
6.69566e+07
6.69566e+07
6.60046e+07
6.60046e+07
6.60047e+07
6.60048e+07
6.60049e+07
6.6005e+07
6.60052e+07
6.60054e+07
6.60056e+07
6.60058e+07
6.6006e+07
6.60062e+07
6.60064e+07
6.60066e+07
6.60068e+07
6.6007e+07
6.60071e+07
6.60073e+07
6.60074e+07
6.60074e+07
6.52943e+07
6.52944e+07
6.52945e+07
6.52946e+07
6.52947e+07
6.52949e+07
6.52952e+07
6.52954e+07
6.52957e+07
6.52959e+07
6.52962e+07
6.52965e+07
6.52968e+07
6.5297e+07
6.52972e+07
6.52975e+07
6.52977e+07
6.52978e+07
6.52979e+07
6.5298e+07
6.48048e+07
6.48048e+07
6.48049e+07
6.48051e+07
6.48052e+07
6.48055e+07
6.48057e+07
6.4806e+07
6.48063e+07
6.48066e+07
6.48069e+07
6.48072e+07
6.48075e+07
6.48078e+07
6.48081e+07
6.48083e+07
6.48085e+07
6.48087e+07
6.48088e+07
6.48089e+07
6.45224e+07
6.45224e+07
6.45225e+07
6.45226e+07
6.45228e+07
6.45231e+07
6.45233e+07
6.45236e+07
6.45239e+07
6.45242e+07
6.45245e+07
6.45249e+07
6.45252e+07
6.45255e+07
6.45258e+07
6.4526e+07
6.45262e+07
6.45264e+07
6.45265e+07
6.45266e+07
6.44208e+07
6.44209e+07
6.44209e+07
6.44211e+07
6.44213e+07
6.44215e+07
6.44217e+07
6.4422e+07
6.44223e+07
6.44226e+07
6.4423e+07
6.44233e+07
6.44236e+07
6.44239e+07
6.44242e+07
6.44244e+07
6.44246e+07
6.44248e+07
6.44249e+07
6.44249e+07
6.45002e+07
6.45003e+07
6.45004e+07
6.45005e+07
6.45007e+07
6.45009e+07
6.45011e+07
6.45014e+07
6.45017e+07
6.4502e+07
6.45023e+07
6.45026e+07
6.45029e+07
6.45031e+07
6.45034e+07
6.45036e+07
6.45038e+07
6.4504e+07
6.45041e+07
6.45041e+07
6.47624e+07
6.47624e+07
6.47625e+07
6.47626e+07
6.47628e+07
6.4763e+07
6.47632e+07
6.47634e+07
6.47637e+07
6.4764e+07
6.47643e+07
6.47645e+07
6.47648e+07
6.47651e+07
6.47653e+07
6.47655e+07
6.47657e+07
6.47658e+07
6.47659e+07
6.47659e+07
6.52099e+07
6.52099e+07
6.521e+07
6.52101e+07
6.52102e+07
6.52104e+07
6.52106e+07
6.52108e+07
6.5211e+07
6.52113e+07
6.52115e+07
6.52118e+07
6.5212e+07
6.52122e+07
6.52124e+07
6.52126e+07
6.52127e+07
6.52128e+07
6.52129e+07
6.52129e+07
6.585e+07
6.585e+07
6.58501e+07
6.58501e+07
6.58503e+07
6.58504e+07
6.58505e+07
6.58507e+07
6.58509e+07
6.58511e+07
6.58513e+07
6.58515e+07
6.58516e+07
6.58518e+07
6.5852e+07
6.58521e+07
6.58522e+07
6.58523e+07
6.58523e+07
6.58523e+07
6.66936e+07
6.66936e+07
6.66936e+07
6.66937e+07
6.66938e+07
6.66939e+07
6.6694e+07
6.66941e+07
6.66942e+07
6.66943e+07
6.66944e+07
6.66946e+07
6.66947e+07
6.66948e+07
6.66949e+07
6.6695e+07
6.6695e+07
6.66951e+07
6.66951e+07
6.66951e+07
6.77579e+07
6.77579e+07
6.77579e+07
6.77579e+07
6.7758e+07
6.7758e+07
6.7758e+07
6.7758e+07
6.77581e+07
6.77581e+07
6.77582e+07
6.77582e+07
6.77582e+07
6.77583e+07
6.77583e+07
6.77583e+07
6.77583e+07
6.77583e+07
6.77583e+07
6.77583e+07
6.90631e+07
6.90631e+07
6.90631e+07
6.90631e+07
6.9063e+07
6.9063e+07
6.90629e+07
6.90629e+07
6.90628e+07
6.90627e+07
6.90626e+07
6.90626e+07
6.90625e+07
6.90624e+07
6.90623e+07
6.90623e+07
6.90622e+07
6.90621e+07
6.90621e+07
6.9062e+07
7.06374e+07
7.06373e+07
7.06373e+07
7.06372e+07
7.06371e+07
7.06369e+07
7.06368e+07
7.06366e+07
7.06364e+07
7.06361e+07
7.06359e+07
7.06357e+07
7.06355e+07
7.06353e+07
7.06351e+07
7.06349e+07
7.06347e+07
7.06346e+07
7.06344e+07
7.06344e+07
7.25092e+07
7.25092e+07
7.25091e+07
7.25089e+07
7.25087e+07
7.25084e+07
7.25081e+07
7.25077e+07
7.25073e+07
7.25069e+07
7.25065e+07
7.25061e+07
7.25057e+07
7.25053e+07
7.25049e+07
7.25046e+07
7.25043e+07
7.2504e+07
7.25038e+07
7.25037e+07
7.4716e+07
7.47159e+07
7.47157e+07
7.47154e+07
7.47151e+07
7.47146e+07
7.47141e+07
7.47135e+07
7.47129e+07
7.47122e+07
7.47115e+07
7.47109e+07
7.47102e+07
7.47096e+07
7.4709e+07
7.47085e+07
7.4708e+07
7.47076e+07
7.47074e+07
7.47072e+07
7.66467e+07
7.66465e+07
7.66462e+07
7.66458e+07
7.66452e+07
7.66445e+07
7.66437e+07
7.66429e+07
7.66419e+07
7.66409e+07
7.66399e+07
7.66389e+07
7.66379e+07
7.6637e+07
7.66361e+07
7.66353e+07
7.66346e+07
7.66341e+07
7.66338e+07
7.66337e+07
9.71826e+07
9.71826e+07
9.71824e+07
9.71822e+07
9.71819e+07
9.71815e+07
9.71811e+07
9.71807e+07
9.71802e+07
9.71797e+07
9.71792e+07
9.71787e+07
9.71782e+07
9.71778e+07
9.71773e+07
9.71769e+07
9.71765e+07
9.71762e+07
9.7176e+07
9.71758e+07
9.55552e+07
9.55551e+07
9.55551e+07
9.5555e+07
9.55548e+07
9.55547e+07
9.55545e+07
9.55543e+07
9.55541e+07
9.55539e+07
9.55536e+07
9.55534e+07
9.55532e+07
9.5553e+07
9.55528e+07
9.55526e+07
9.55524e+07
9.55523e+07
9.55522e+07
9.55522e+07
9.37699e+07
9.37699e+07
9.37699e+07
9.37699e+07
9.37699e+07
9.37698e+07
9.37698e+07
9.37698e+07
9.37698e+07
9.37697e+07
9.37697e+07
9.37697e+07
9.37697e+07
9.37696e+07
9.37696e+07
9.37696e+07
9.37696e+07
9.37696e+07
9.37696e+07
9.37696e+07
9.2311e+07
9.2311e+07
9.23111e+07
9.23111e+07
9.23112e+07
9.23113e+07
9.23114e+07
9.23115e+07
9.23116e+07
9.23118e+07
9.23119e+07
9.2312e+07
9.23121e+07
9.23122e+07
9.23123e+07
9.23124e+07
9.23125e+07
9.23126e+07
9.23127e+07
9.23127e+07
9.11557e+07
9.11558e+07
9.11558e+07
9.11559e+07
9.11561e+07
9.11562e+07
9.11564e+07
9.11566e+07
9.11569e+07
9.11571e+07
9.11573e+07
9.11575e+07
9.11578e+07
9.1158e+07
9.11582e+07
9.11584e+07
9.11585e+07
9.11587e+07
9.11588e+07
9.11588e+07
9.02878e+07
9.02878e+07
9.02879e+07
9.02881e+07
9.02882e+07
9.02885e+07
9.02887e+07
9.0289e+07
9.02893e+07
9.02896e+07
9.02899e+07
9.02902e+07
9.02905e+07
9.02907e+07
9.0291e+07
9.02912e+07
9.02914e+07
9.02916e+07
9.02917e+07
9.02918e+07
8.96896e+07
8.96897e+07
8.96898e+07
8.969e+07
8.96902e+07
8.96904e+07
8.96907e+07
8.9691e+07
8.96913e+07
8.96916e+07
8.9692e+07
8.96923e+07
8.96927e+07
8.9693e+07
8.96933e+07
8.96935e+07
8.96938e+07
8.9694e+07
8.96941e+07
8.96941e+07
8.93492e+07
8.93492e+07
8.93494e+07
8.93495e+07
8.93497e+07
8.935e+07
8.93503e+07
8.93506e+07
8.93509e+07
8.93513e+07
8.93516e+07
8.9352e+07
8.93523e+07
8.93527e+07
8.9353e+07
8.93532e+07
8.93535e+07
8.93537e+07
8.93538e+07
8.93538e+07
8.92363e+07
8.92364e+07
8.92365e+07
8.92366e+07
8.92368e+07
8.92371e+07
8.92374e+07
8.92377e+07
8.9238e+07
8.92384e+07
8.92387e+07
8.92391e+07
8.92394e+07
8.92398e+07
8.924e+07
8.92403e+07
8.92405e+07
8.92407e+07
8.92408e+07
8.92409e+07
8.93502e+07
8.93503e+07
8.93504e+07
8.93506e+07
8.93508e+07
8.9351e+07
8.93513e+07
8.93516e+07
8.93519e+07
8.93522e+07
8.93526e+07
8.93529e+07
8.93532e+07
8.93535e+07
8.93538e+07
8.9354e+07
8.93542e+07
8.93544e+07
8.93545e+07
8.93545e+07
8.96958e+07
8.96959e+07
8.9696e+07
8.96961e+07
8.96963e+07
8.96965e+07
8.96968e+07
8.9697e+07
8.96973e+07
8.96976e+07
8.96979e+07