/*--------------------------------*- C++ -*----------------------------------*\
| =========                 |                                                 |
| \\      /  F ield         | OpenFOAM: The Open Source CFD Toolbox           |
|  \\    /   O peration     | Version:  2212                                  |
|   \\  /    A nd           | Website:  www.openfoam.com                      |
|    \\/     M anipulation  |                                                 |
\*---------------------------------------------------------------------------*/
FoamFile
{
    version     2.0;
    format      ascii;
    arch        "LSB;label=32;scalar=64";
    class       volScalarField;
    location    "0.026";
    object      k;
}
// * * * * * * * * * * * * * * * * * * * * * * * * * * * * * * * * * * * * * //

dimensions      [0 2 -2 0 0 0 0];

internalField   nonuniform List<scalar> 
7220
(
8100.75
2634.35
2509.75
2015.85
2221.3
2115.37
2480.91
2184.52
1995.67
2088.24
14764.1
102407
7532.2
25168.1
48411.3
70215.4
63317.6
9260.67
40227.3
9427.94
12515
15776.5
782.175
27598.1
7077.26
35557
145106
14792
13958.6
18099.1
4101.94
15187.9
1785.57
19293.3
11493.8
4661.45
3485.63
17623.2
14505.6
3350.53
3349.31
3349.28
3350.49
3912.58
4007.49
3975.07
3908.76
3848.59
3349.37
3350.81
3350.79
3349.34
3353.74
3358.28
3358.29
3353.73
3364.58
3372.77
3372.84
3364.62
3383.01
3395.47
3395.62
3383.12
3410.32
3427.77
3428.04
3410.53
3448.01
3471.26
3471.67
3448.34
3497.76
3527.75
3528.28
3498.25
3561.49
3599.28
3599.66
3562.02
3641.44
3688.22
3687.39
3641.37
3791.64
3737.47
3740.16
3797.19
3859.03
3859.19
3352.93
3352.89
3432.78
3434.38
4087.44
4046.48
3925.59
3995.64
3815.54
3715.71
3762.85
3636.22
3673.59
3573.85
3603.12
3525.55
3548.08
3489.25
3506.02
3463.18
3475.03
3445.87
3453.52
3436.03
3440.09
3432.55
3433.56
3434.52
3432.9
3433.48
3432.45
3440.1
3435.98
3453.7
3445.96
3475.46
3463.48
3506.77
3489.82
3549.22
3526.49
3604.59
3575.18
3674.53
3637.65
3759.77
3715.24
3807.78
3874.29
3437.29
3437.14
4045.36
3998.89
4172.29
4070.04
3938.65
4007.97
4090.84
4112.62
4081.26
4161.29
3967.11
4025.93
3868.11
3914.71
3790.61
3826.81
3730.91
3758.81
3685.39
3706.54
3651.69
3667.18
3627.99
3638.69
3612.82
3619.43
3604.92
3608.04
3603.16
3603.37
3606.74
3604.35
3441.13
3614.77
3610.25
3356.38
3356.43
3609.94
3614.47
3440.97
3604.1
3606.46
3603.16
3602.96
3608
3604.79
3619.65
3612.9
3639.29
3628.39
3668.28
3652.52
3708.22
3686.77
3760.87
3732.84
3827.69
3792.47
3908.34
3866.44
3952.85
4291.81
4202.82
4268.87
4222.63
3445.97
3620.27
3880.24
3885.8
4127.6
4384.78
4263.7
4159.57
4323.97
4589.94
4497.99
4236.96
4331.31
4394.09
4202.67
4260.09
4106.79
4151.66
4033.35
4067.52
3978.08
4003.81
3936.65
3955.8
3906.75
3920.38
3886.51
3895.52
3874.48
3879.55
3869.39
3871.14
3870.24
3869.13
3876.15
3872.61
3886.29
3880.74
3360.89
3360.94
3619.96
3445.8
3872.16
3875.65
3868.79
3869.83
3870.99
3869.13
3879.73
3874.47
3896.17
3886.91
3921.65
3907.69
3957.75
3938.26
4006.19
3980.33
4068.02
4035.45
4141.96
4103.72
4181.78
4410.92
3892.75
3892.29
4151.32
4484.22
4687.1
4217.08
4470.44
4591.73
4547.55
4650.19
4318.79
4269.91
4277.66
3626.36
3899.62
4246.16
4363.13
4789.33
4591.17
5272.49
5174.55
4897.08
4239.32
4795.73
4652.19
4720.64
4536.07
4590.68
4446.11
4487.97
4379.12
4410.06
4329.76
4352.53
4293.9
4310.34
4268.96
4280.17
4253.23
4260.04
4245.26
4248.35
4243.81
4243.82
4248.03
4245.28
4256.99
4251.96
4263.01
3900.07
3451.74
3626.67
3366.34
3366.39
3451.57
4276.98
4262.26
4269.19
4251.26
4256.25
4244.72
4247.39
4243.45
4243.36
4248.37
4245.07
4260.58
4253.48
4281.4
4269.82
4312.36
4295.5
4355.1
4332.18
4410.18
4381.18
4475.82
4441.88
4510.81
4805.37
4723.24
4987.47
4893.92
5082.69
4553.19
4286.2
4285.56
5035.74
4994.53
5089.3
5575.45
4410.39
4315.13
4471.62
5013.47
4328.08
5749.47
5234.42
4706.44
4877.29
5313.61
5402.31
5097.33
5162.24
4989.34
5039.84
4908.19
4945.56
4849.22
4876.27
4807.3
4826.45
4778.23
4791.35
4759.4
4767.66
4749.15
4753.3
4746.09
4746.79
4749.11
4746.91
4757.33
4752.62
4769.98
4763.15
4786.28
4777.71
4805.61
4795.59
4816.31
3908.21
4295.48
3458.38
3633.9
3372.66
3372.71
3633.6
3458.2
4294.89
3907.77
4815.55
4794.67
4804.76
4776.69
4785.28
4762.17
4768.96
4751.78
4756.41
4746.28
4748.37
4746.53
4745.63
4753.57
4749.13
4768.63
4760.01
4793.21
4779.63
4828.79
4809.58
4875.34
4850.84
4931.12
4902.15
4961.22
5232.68
5156.12
5404.41
5316.04
5493.46
4966.01
4643.09
4337.75
5400.14
5628.2
5590.59
5676.81
5486.96
5499.3
4304.94
4826.97
4421.39
4589.67
4830.26
5909.79
6404.59
6568.18
6067.4
5064.67
4500.72
5144.56
4418.51
5496.76
5549.05
5975.01
5816.72
5892.52
5689.65
5749.09
5593.09
5637.73
5522.49
5554.78
5473.42
5495.64
5440.38
5455.25
5419.25
5428.53
5407.52
5412.32
5403.59
5404.66
5406.19
5404.14
5414.31
5409.61
5427.12
5420.17
5443.95
5435.07
5464.11
5453.66
5475.23
4827.67
3917.1
4305.48
3465.81
3641.93
3379.79
3379.84
3641.63
3465.63
3916.68
5498.31
5474.02
5485.88
5452.35
5462.84
5433.8
5442.65
5419.01
5425.89
5408.63
5413.23
5403.49
5405.35
5404.5
5403.16
5412.81
5407.67
5429.86
5420.14
5456.78
5442.08
5492.89
5473.91
5537.74
5514.3
5561.89
5807.07
5737.19
5961.26
5882.83
6102.55
6037.01
6223.07
4740.1
6066.72
5512.15
5511.31
6377.94
6409.88
5608.78
5181.16
4436.44
4537.65
4715.72
4963.54
6733.08
6231.57
8905.91
5702.55
2252.29
5287.65
6172.73
6913.39
6731.12
6815.82
6584.28
6654.32
6470.84
6523.51
6388.06
6425.77
6330.35
6356.59
6292.76
6309.41
6269.77
6279.73
6257.51
6262.47
6253.64
6254.63
6256.71
6254.38
6265.55
6260.46
6279.24
6271.84
6297.07
6287.67
6318.44
6307.34
6342.75
6330.24
6369.42
6355.83
6397.98
6383.46
6412.93
4839.64
5525.57
3926.71
4316.18
3473.97
3650.67
3387.66
3387.71
3650.38
3473.8
4315.66
3926.29
5524.84
4839
6412.07
6382.26
6396.97
6354.32
6368.05
6328.65
6341.19
6305.76
6316.84
6286.16
6295.52
6270.46
6277.78
6259.33
6264.27
6253.65
6255.75
6254.37
6253.15
6262.83
6257.57
6279.63
6270.24
6304.21
6291
6337.05
6319.92
6355.08
6566.86
6452.17
6505.29
6699.1
6632.37
6841.72
6765.43
7097.25
6952.19
7413.55
7252.51
7979.7
7774.78
6907.68
7586
4861.62
2238.58
6293.64
7026.01
4543.82
2392.1
7538.14
7554.6
5538.86
6427.63
4662.36
7093.87
4849.77
6406.4
5866.57
5106.87
5441.02
2286.13
2584.61
2954.33
3272.43
5740.62
3946.56
5737.51
5318.87
2865.69
5875.92
8905.02
8684.26
4676.34
4806.54
6425.48
2514.11
7150.34
4049.62
6566.62
7284.83
2399.39
8702.51
7428.46
8374.15
8512.45
8105.14
8232.52
7888
7990.49
7725.41
7800.5
7594.1
7656.24
7497.67
7541.86
7431
7460.81
7388.29
7407.17
7363.24
7373.8
7351.11
7355.79
7348.35
7348.72
7352.86
7349.77
7363.34
7357.42
7378.75
7370.49
7398.27
7388.04
7421.26
7409.37
7447.22
7433.91
7475.72
7461.2
7506.19
7490.77
7522
6428.33
4852.2
5539.55
3936.93
4327.48
3482.8
3660.07
3396.21
3396.26
3659.8
3482.64
4326.99
3936.54
4851.61
7553.62
7520.59
7536.93
7489.01
7504.58
7459.34
7473.91
7432.02
7445.35
7407.49
7419.38
7386.19
7396.4
7368.8
7376.97
7356.01
7361.77
7348.62
7351.6
7347.77
7347.15
7352.96
7349.55
7364.58
7357.87
7383.64
7373.19
7412.45
7396.65
7471.14
7436.35
7566.49
7515.51
7675.59
7619.53
7814.17
7736.8
8036.78
7914.19
8329
8176.97
8497.25
2356.26
2718.31
3388.6
5013.59
4595.04
2141.89
15287.7
12769.7
8231.24
7571.43
7570.62
2849.02
5463.44
4947.59
4802.55
4660.87
7286.68
4315.07
6021.13
9904.49
10136.8
9278.28
4795.34
6593.38
6042.26
6716.49
364295
4993.79
21544.4
7588.1
3578.14
5260.97
5605.79
1987.64
1937.93
8493.32
2058.6
1865.46
3006.85
9640.12
9780.59
9367.98
9489.91
9174.39
9263.85
9036.75
9099.6
8926.09
8978.76
8848.1
8882.79
8800.16
8821.11
8773.09
8784.56
8761.34
8765.51
8760.56
8759.8
8767.56
8763.23
8780.63
8773.39
8798.57
8789.05
8820.49
8809.08
8845.7
8832.72
8873.63
8859.35
8903.9
8888.49
8936.17
8919.81
8969.96
8952.87
9004.84
8987.29
9040.61
9022.61
9058.84
6444.26
7588.62
4865.3
5553.99
3947.74
4339.34
3492.25
3670.08
3405.38
3405.43
3669.81
3492.09
4338.88
3947.38
5553.39
4864.76
7587.94
6443.59
9058.06
9021.47
9039.68
8985.67
9003.46
8950.97
8968.16
8917.73
8934.14
8886.33
8901.78
8857.1
8871.43
8830.43
8843.41
8806.83
8818.21
8786.92
8796.38
8771.29
8778.52
8760.62
8765.36
8754.22
8756.37
8750.25
8750.4
8754.06
8750.94
8770.26
8760.45
8809.56
8784.49
8882.57
8843.18
8972.24
8925.81
9099.24
9028.46
9292.39
9186.62
9560.07
9419.57
9719.52
2228.8
2491.55
10345
3258.3
3168.57
5160.98
4709.78
1821.84
7673.25
7474.43
2595.16
1471.9
2700.51
5611.53
11546
11773
10460.1
4791.14
5088.92
4936.61
1909.74
6790.92
3146.14
10934.1
10952.8
7605.6
9076.67
6230.92
8709.36
6174.94
9737.25
2057.58
2871.32
3324.71
3888.26
1172.9
4938.96
1661.83
1369.98
2037.02
13180.7
2110.52
2614.63
6881.35
9196.19
3565.87
3411.5
2850.4
2999.86
3554.6
5148.98
5782.89
7787.78
1801.99
5426.95
1198.5
1215.2
1601.71
9023.33
1756.12
1349.19
1699.58
1633.19
7928.66
3640.14
8806.38
5377.62
11264.1
11401.2
11044.5
11146.8
10881.9
10956.1
10774.7
10822.6
10688.4
10729.3
10631.6
10655.9
10602.5
10614.3
10591.4
10595.2
10593.1
10591.1
10603.4
10597.4
10619.9
10611
10641.1
10630
10666
10653.1
10693.8
10679.5
10723.9
10708.6
10755.9
10739.7
10789.5
10772.5
10824.4
10806.8
10860.4
10842.3
10897.1
10878.7
10915.6
9077.36
6460.52
7606.25
4878.88
5568.93
3959.06
4351.7
3502.25
3680.61
3415.12
3415.16
3680.37
3502.1
4351.28
3958.73
5568.39
4878.36
6459.94
10951.9
10914.3
10933.1
10877
10895.5
10840.3
10858.5
10804.6
10822.3
10770.1
10787.2
10737.1
10753.4
10705.9
10721.3
10676.8
10691
10650.3
10663.2
10627.1
10638.2
10607.1
10616.7
10588.9
10598
10569.1
10578.9
10552.1
10559.6
10553.2
10550.5
10574.3
10560.1
10627
10597.6
10697.7
10659.2
10809.1
10745.9
10977.5
10883.5
11215.5
11088.1
11365.2
2910.75
3412.07
3214.84
3324.39
1024.64
3744.29
4309.28
5307.82
14224.3
12061.7
4839.06
2236.28
1845.01
1743.79
2277.57
1968.92
2118.75
1643.69
2582.12
240895
7000.09
10840.9
2413.25
10971.6
10970.8
6433.37
3929.83
2384.4
3044.39
2764.19
5209.08
5765.75
3790.56
10847.6
4093.49
3685.92
4533.86
3770.4
1944.36
4934.14
5237.36
5081.46
1411.24
1894.61
1553.17
1652.81
1818.94
2197.95
2302.58
1906.77
2135.47
1755.56
3316.29
4270.16
4115.93
3152.82
5195.78
2768.65
6341.13
10076.9
3526.09
3108.34
7717.92
5095.04
1204.13
1750.44
1483.47
1536.93
5973.86
7073.18
14312.7
9530.37
3877.28
2550.84
2588.91
2854.54
2373.03
2978.87
1649.42
5316.69
1128.77
1096.06
1267.22
1287.2
13561.8
15065.5
5605.97
8037.06
1600.97
1151.79
1075.46
1137.79
1561.58
9368.47
1552.11
2115.83
1448.57
1345.49
1489.92
1266.32
8226.72
7225.44
17508.8
1189.98
1778.44
9162.37
142970
13447.1
13528
13289.2
13366.3
13164.8
13221.1
13090.8
13122.3
13032.8
13060.8
12998
13012
12988.1
12990.5
12992.4
12989
13006.6
12998.6
13026.9
13016.1
13051.7
13038.8
13079.6
13065.3
13110
13094.5
13142
13125.8
13175.3
13158.5
13209.6
13192.3
13244.5
13227
13280
13262.2
13315.8
13297.9
13351.9
13333.9
13387.9
13370
13423.6
13405.8
13441.5
9096.17
10990.6
6477.24
7624.18
4892.86
5584.26
3970.85
4364.48
3512.74
3691.62
3425.35
3425.39
3691.4
3512.61
4364.1
3970.55
5583.74
4892.41
7623.55
6476.67
10990
9095.61
13440.9
13404.7
13422.8
13368.6
13386.7
13332.1
13350.3
13295.9
13314
13259.9
13277.8
13224.4
13242.1
13189.6
13206.9
13155.5
13172.4
13122.6
13138.9
13091.2
13106.7
13061.5
13076.1
13033.3
13047.3
13005.6
13019.4
12971.8
12989.9
12929.2
12950.1
12908.1
12915.6
12916.2
12909.8
12951.7
12931.6
13008.2
12975.2
13102
13050.5
13242.2
13163.1
13448
13334.2
13754.1
13585.8
13967.2
6650.22
17950.5
3944.67
4413.1
2430.64
3437.74
2559.16
3869.18
4074.5
3985.08
4262.35
4141.92
4669.35
4482.31
4888.35
5460.29
12392.6
15755.2
1861.12
4982.06
1472.86
1769.8
2013.37
1524.31
7279.29
4859.06
12883.1
4456.97
4613.56
3252.05
3957.68
5492.51
5777.26
21527.2
4670.89
3406.89
3176.5
2708.1
2828.75
4629.74
2942.36
3701.66
3386.61
6166.09
5930.84
11221.5
3414.85
3184.82
3302.62
1676.88
5090.15
5397.19
5239.31
1227.78
1622.35
1332.82
1412.03
1607.33
6179.04
4282.99
16621.4
16636
11009.3
13459.1
6271.35
3505.01
6525.76
8544.03
10442.2
2846.77
2648.64
3098.02
3615.22
1535.01
5264.48
1085.48
1324.87
11465.9
5798.7
8475.52
7291.93
9910.48
2258.94
1472.45
5497.49
1028.05
1143.52
1862.48
8307.62
1423.35
2618.32
1701.62
1047.57
1541.51
9664.61
1374.27
1432.67
8560.79
7482.09
1310.37
1288.59
6883.86
2679.21
1259.16
1231.64
8745.39
9569.06
1699.43
1533.06
3473.87
1465.9
13204.3
16060.7
16015.6
15792.7
16412.1
16400.7
16325
16378
16244.9
16279.4
16205.7
16220.3
16173.7
16188.9
16162.8
16165.4
16169.2
16164.6
16187.1
16176.9
16211.5
16198.7
16239.5
16225.2
16269.9
16254.4
16301.8
16285.6
16334.5
16318.1
16367.6
16351
16400.8
16384.2
16433.7
16417.3
16466.2
16450
16498.4
16482.3
16530
16514.2
16561.3
16545.7
16591.8
16576.7
16606.7
13459.4
9115.34
11009.8
6494.24
7642.38
4907.2
5599.91
3983.03
4377.64
3523.65
3703.04
3436.02
3436.05
3702.85
3523.53
4377.31
3982.76
5599.43
4906.8
7641.89
6493.73
9114.76
16635.5
16605.6
16620.7
16575.3
16590.6
16544.1
16559.8
16512.5
16528.4
16480.2
16496.4
16447.5
16463.9
16414.5
16431
16381.2
16397.8
16347.7
16364.5
16314.3
16331
16281
16297.6
16247.6
16264.5
16211.4
16230.7
16164.6
16190.5
16098.4
16132.1
16054.9
16072.7
16050.6
16048.3
16071.8
16059
16120.7
16093.5
16189.4
16153.5
16299.6
16240
16471.3
16375.4
16741
16591.9
17150.2
16927.3
17391.9
3317.37
2263.61
2723.23
1624.66
1905.3
1281.63
1231.63
1404.48
1719.05
1640.67
2276.88
1920.6
2733.38
4697.72
4747.48
3804.5
4846.09
4712.53
5150.97
4999.09
5297.36
6385.03
5392.38
12036.6
2983.29
4116.77
3143.86
4436.85
4093.06
4276.83
4712.86
4579.64
4934.9
4828.68
5183.23
5041.79
5586.52
5376.13
5832.57
5622.73
12736.1
3272.22
11155
3549.26
1604.34
5138.85
1271.2
1508.43
1785.57
1693.92
1523.62
6398.77
28538.3
7657.08
21899.7
9573.8
16650.5
16650.3
27194.3
18877.6
5517.94
5327.59
5674.62
18313
5498.97
4218.41
3925.48
3407.08
3535.04
5584
3706.36
4557.54
4207.31
7396.88
6110.69
15097.9
11610.5
2796
2702.77
16323.2
13488
3111.61
2777.84
1337.09
1459.98
27646.8
33009.7
5258.92
5571.68
5411.83
1093.97
15809.3
15596.3
17392
1413.28
1166.93
1230.05
1379.5
20135.3
5105.46
5182.95
6247.25
6005.79
7338.38
18400.4
3144.23
3877.99
7691.01
4545.87
6729.9
10850.1
2326.77
2286.64
3747.94
1095.85
1135.6
1370.8
5447.51
1003.23
1166.89
23655.4
2284.59
5692.17
7529.33
13982.2
12956.1
10342.2
15151.9
13895
1865.02
1801.97
1314.34
3321.58
2055.12
986.963
1040.36
1821.13
8577.93
13070.2
13881.9
1420.06
1483.47
1268.74
1671.08
8928.88
7768.51
14251.2
15403.4
14107.3
14064.9
13171.1
13348.9
12829.7
13294.6
1222.16
1438.65
7139.89
2251.93
1370.01
1161.91
1339.76
6634.73
151171
1116.8
6919.66
10036.2
29965.4
16602.1
20531.1
20088.1
20285
20146.7
19983.2
20474.1
20371.1
20479.7
20495.7
20440
20452
20430.5
20430.4
20424.8
20427.8
20432.4
20426.7
20451.9
20441.4
20479.9
20465.2
20510.1
20494.9
20540.9
20525.5
20571.8
20556.3
20602.4
20587.2
20632.1
20617.4
20660.5
20646.5
20687.4
20674.1
20712.7
20700.2
20736.3
20724.7
20758.2
20747.4
20778.6
20768.6
20797.6
20788.3
20815.2
20806.6
20831.2
20823.4
20846.1
20838.7
20852.6
13477.6
16665
9134.6
11029.3
6511.49
7660.88
4921.82
5615.82
3995.53
4391.11
3534.92
3714.8
3447.04
3447.08
3714.63
3534.81
4390.82
3995.3
5615.42
4921.47
7660.42
6511.05
11028.9
9134.21
16665.3
13477.6
20853.6
20838.3
20845.9
20822.6
20830.5
20805.6
20814.2
20787.2
20796.6
20767.3
20777.4
20745.8
20756.7
20722.6
20734.3
20697.7
20710.3
20671.4
20684.8
20643.4
20657.6
20613.7
20628.7
20582.4
20598.2
20548.4
20566.1
20506.8
20528.7
20449.1
20481.7
20365.5
20409.7
20303.9
20329.5
20287.3
20286.8
20301.4
20291.8
20336.8
20317.4
20393.5
20362
20471.4
20427.5
20600.8
20527.1
20812.9
20695.3
21124.1
20960.3
21278.4
2151.24
2583.44
1552.02
1814.79
1186.45
1347.05
988.704
961.784
1060.54
1245.75
1198.82
1565.26
1359.96
2161.96
1826.88
2593.06
4861.82
5109.57
5826.4
5770.96
5991.91
5889.22
6286.21
6132.62
6703.31
6468.84
7059.4
6373.15
4728.06
3707.18
5013.45
3934.28
5509.51
5118.44
5330.12
5805.3
5664.09
6050.92
5931.05
6342.77
6185.69
6759.92
6536.88
7032.18
5799.71
13133.1
2748.59
9950.48
11443.4
2950
1397.58
27957.6
32987.8
5309.65
14192.6
1121.3
22612
19675.3
1311.47
1450.72
17715.9
33138.9
4933.11
6362.69
4537.87
37299.7
36510.8
6227.58
7082.41
30568.2
2061.82
9768.19
6501.9
19633.1
12450
46791
4858.5
4579.98
6712.01
2195.93
5231.3
4388.1
4512.38
6838.35
4779.71
5689.94
5316.05
6307.46
15716.2
12058
2319.47
2310.09
13782.1
2574.96
2339.17
1181.41
1294.46
39450.3
5442.11
5761.49
5598.99
13072.9
13124.8
15827.4
997.45
17061.6
1256.28
1043.91
1093.72
1207.19
16070.1
20505.6
2884.41
13417.5
5901.46
12471.9
26422.4
26415.2
16680.6
20861.4
6173.03
5819.19
10662.8
9369.26
6054.18
6952.09
11311.4
45527.3
133972
16773
1915.62
2895.99
20837.1
16929.4
1889.15
1019.9
1226.33
4324.71
2551.32
5644.61
12513
949.056
15246.9
1574.67
1050.97
24013.6
2226.76
26824.4
26939.2
13794.9
7780.55
10850.7
14998
1551.07
884.571
904.248
1178.24
2010.36
7928.75
967.893
14073.6
9309.34
8081.35
8856.23
44492.2
13957.7
1295.94
1136.91
1658.65
13659.3
7418.52
1918.87
1538.55
1072.43
1108.34
1094.68
1470.4
6889.56
1429.44
12963.5
1054.82
6465.18
1934.6
8805.36
57328.7
35340.8
59246.9
21253.4
26744.7
26036.4
26331.3
25731.2
25838.5
25807.9
25697.5
26107.7
25967.8
26208.4
26186.5
26213.1
26206.6
26228.8
26217.9
26240.8
26235.7
26261.3
26248.7
26286.9
26274.1
26316.8
26301.8
26344.5
26331
26369.7
26357.6
26392.2
26381.2
26412.1
26402.5
26428.9
26420.9
26442.3
26436
26452.5
26447.8
26459.2
26456.2
26462.5
26461.3
26462.5
26462.9
26459.5
26461.4
26453.8
26457
26445.6
26450
26435.2
26440.6
26429.1
20860.2
13496.2
16680
9154.18
11048.9
6528.91
7679.53
4936.65
5631.91
4008.28
4404.81
3546.45
3726.83
3458.34
3458.37
3726.68
3546.37
4404.56
4008.08
5631.58
4936.35
7679.16
6528.55
11048.8
9153.87
13496.3
26416.6
26428.9
26422.7
26440.3
26434.9
26449.8
26445.4
26456.8
26453.7
26461
26459.3
26462.1
26461.9
26460
26461.4
26454.7
26457.7
26446
26450.8
26434
26440.5
26418
26426.6
26397.8
26408.5
26370.8
26385.7
26333
26354.3
26269.2
26305.4
26178.1
26224.9
26105.1
26136.3
26086.4
26085.8
26099.9
26090.3
26127.7
26111.3
26164.5
26145.3
26216.9
26187.9
26299.5
26253.4
26442.1
26362.5
26620
26535.5
26708.5
4515.45
2956.77
3632.5
2035.71
2437.6
1481.04
1724.01
1144.54
1291.92
939.333
1029.33
825.247
815.823
869.509
973.458
949.884
1155.04
1039.71
1491.72
1302.61
2045.92
1733.93
2973.1
2448.26
3662.86
6465.49
7278.08
7187.12
7478.34
7370.92
7786.68
7615.09
8261.01
7998.39
9250.7
8655.14
10095.5
5703.92
4696.83
6187.97
5029.62
6495.12
5666.16
6208.81
6927.29
6728.77
7248.49
7096.58
7529
7389.48
7849.06
7678.03
8282.57
8048.95
8919.76
8564.67
23251.1
5992.34
13637.2
2313.33
10251
11742.9
2475.21
1233.81
39249.9
5494.25
13082.6
39522.5
32664.2
1010.83
19151.4
1160.26
1266.97
18031
16107.5
3787.95
6126.06
12243.4
8973.86
15456.3
49946.3
14215.6
2752.52
12743.4
26408.5
26410.6
4267.07
5401.68
8581.83
8786.63
6694.66
5785.09
5885.61
8431.02
6336.23
7205.76
6847.52
11778.3
11428.2
6521.59
16529.2
12565
14003.6
27416.6
19377.3
19807.6
1938.19
1985.32
14114.2
1978.44
1057.29
1157.14
5788.17
3258.14
5639.61
5967.46
5801.7
12307.2
85976.5
39541.8
26500.6
12164.8
12198.7
928.579
9327.64
16797.7
990.501
1341.96
1078.25
35343.4
20901.9
2828.73
34431.7
34216.6
26344.7
11465.4
8319.82
8057.16
16417.3
7981.03
7191.74
11842.1
37641.6
30894
16274.8
16476.9
29273.1
1613.35
224190
17329.9
1622.29
928.434
1103.87
37313.7
12461.5
2496.42
7577.46
5857.23
12033.5
880.153
929.997
867.223
918.711
24411.8
24831.3
7811.69
15123.6
107629
60102
3126.63
8411.67
967.079
8049.79
11645.5
12675.1
24801.3
11463.9
14899.1
43969.7
34752
27305.7
21809.4
1349.73
838.952
1062.67
736.734
748.207
729.066
14220.7
1980.82
21643.1
16769.3
14219.7
836.102
7717.34
1582.96
11243
14715.2
9153.35
61565.2
30062
79176.5
14141.3
1796.12
1147.37
775.473
780.331
1027.07
745.928
2362.3
1670.59
7163.23
1572.53
13052.7
1000.03
995.303
1537.43
6719.27
6366.25
12125.3
896.302
973.644
12655.3
112042
44332.6
46280.3
45289
37831.3
46456.4
46510.1
28076.8
35841.4
34502.8
35063.5
33856.3
34121.8
33638
33709.3
33728.6
33619.5
34034.9
33879.7
34212.6
34147
34256.8
34239.5
34288.1
34275
34307.2
34298.8
34329
34317.1
34348.2
34339.4
34365.2
34357.3
34376.1
34371.5
34380.2
34379.7
34378.2
34379.7
34371
34375.4
34357.7
34365.1
34338.5
34348.8
34313.4
34326.7
34282.7
34298.8
34246.2
34265.1
34204.3
34225.9
34157.4
34181.4
34105.8
34132.2
34050.1
34078.5
33990.9
34020.9
33928.6
33960.2
33864.8
33896.7
33834.1
20868.4
26402.6
13515
16695.5
9173.85
11068.9
6546.41
7698.26
4951.59
5648.11
4021.19
4418.64
3558.17
3739.02
3469.82
3469.85
3738.9
3558.09
4418.43
4021.02
5647.85
4951.35
7698.01
6546.14
11068.9
9173.64
16696.2
13515.3
26405.1
20869.8
33837.5
33898.8
33867.8
33961.3
33930.1
34022.1
33992
34079.9
34051.4
34133.6
34107.3
34182.7
34158.7
34226.7
34205.3
34265.6
34246.8
34299
34283
34327
34313.7
34348.9
34338.8
34364.5
34357.5
34371.6
34368.6
34367.3
34372.7
34342.9
34362.7
34288.4
34324
34207.2
34249.7
34139.7
34169.7
34136.1
34131.6
34155.7
34144.9
34182.3
34169.8
34204.5
34193.2
34228.6
34215.3
34272.2
34246.2
34335.5
34301.6
34401.2
34371
34425.9
4161.98
5138.02
2762.68
3376.13
1919.64
2287.24
1412.12
1633.91
1106.28
1239.8
921.756
1002.41
811.059
859.291
774.07
1114.84
1010.87
1420.35
1248.4
1928.62
1642.49
2784.38
2299.76
3421.29
6933.79
7964.66
7527.58
8305.44
9206.39
9098.07
9450.45
9323.91
9789.63
9600.39
10311.5
10024.7
11320.8
10728.9
12106.3
10175.5
9412.77
6088.54
7729.27
6599.22
8367.48
8114.17
8830.09
8614.14
9176.64
9015.31
9487.78
9329.57
9842.83
9658.32
10290.4
10050.8
10896
10568.7
11147.5
6201.62
14245.9
23741.1
17798.7
1944.88
10582.7
12077.6
2102.45
1102.47
12041.2
11649.5
5801.12
4282.87
11143.8
8047.78
15866.9
45883.5
56498.4
21818.2
106027
44032.2
5694.44
12198.4
10597.8
32101.9
12298.3
929.185
17750.7
18860.5
1039.04
1173.26
1124.37
18420.7
23450.8
21260.3
15466.1
3752.92
98144
43195
21229.7
9259.4
38623.8
60361.8
56893
34019
64981.4
11569.1
15314
10755.2
8718.48
10536.7
8656.69
9006.27
7680.1
6754.18
20948.2
17378.7
13141.6
25695.5
18433.5
18452.9
24615.6
1646.46
15112.3
20974.2
887.18
34641.7
14789.5
14508.2
1694.12
958.709
1043.99
727.56
740.898
737.675
723.638
12312.4
10884.4
8084.93
8120.41
5788.05
3199.02
7382.61
60736.9
26279.4
5852.05
6190.95
6021.46
11721.7
818.914
104442
14991.4
38455.2
11396.5
11354.9
11478.7
2044.67
887.487
14732.5
25434.6
16532.9
2961.17
8746.04
47708.6
910.822
1382.98
14657.1
13683.8
981.347
1045.4
14227.5
14720
44029.4
43955.3
26400.7
33809.1
6305.92
8998.63
8040.93
11907.1
11790.2
11204.8
11713.2
7451.64
13848.8
10041.3
21631.9
12471.7
31165.9
16625.9
16204
28457.5
1651.59
17859.5
37943.6
1771.73
1406.74
857.087
1001.04
717.737
14863.4
11256.8
8121.23
2449.57
10828.3
57316.5
101141
6085.89
11694.6
826.792
9121.23
10785.6
908
15052.8
58786.7
8031.96
231345
4961.36
14097.1
16007
8340.26
13059.9
26185
12164.2
46390.8
37909.7
13320.4
14873.2
34243.8
2174.96
22557
1190.02
788.943
966.79
724.561
13060.9
10984.3
1969.16
79160.9
63927.4
64461.9
38172
14491.1
7455.7
93025
9477.74
12355.3
33066.6
1793.25
36917.8
29124.9
13188.5
1029.78
747.18
939.643
14225.8
1712.68
42300.7
6989.85
6621.47
12085.5
915.049
920.696
1651.9
17037.3
14765.9
24098.9
59244.2
1833.97
56966.7
58113
57618.7
57756.7
58033.4
46327.4
57332
57408
38415.3
49574.1
46947.7
48029
45639.9
46178.3
45045.9
45279.4
44903.4
44946.2
45020.4
44901.2
45352.4
45183.7
45552.8
45475.6
45626.7
45608.1
45666.3
45655.6
45677.7
45671.9
45676.1
45677.6
45666
45672.4
45645.1
45656.8
45612.5
45630.2
45568.5
45592
45514.2
45542.5
45450.5
45483.6
45377.1
45415
45294.3
45336.8
45202.3
45249.4
45101.3
45152.9
44991.5
45047.5
44873.4
44933.5
44747.5
44811.3
44614.3
44681.7
44474.6
44545.2
44329.6
44402.7
44180.6
44255.4
44104.8
33805.3
20877.4
26398.2
13534.2
16711.5
9193.55
11088.9
6563.9
7716.99
4966.54
5664.29
4034.13
4432.49
3569.95
3751.27
3481.36
3481.38
3751.17
3569.88
4432.33
4034
5664.11
4966.36
7716.84
6563.72
11089
9193.51
16712.4
13534.6
20879
43960.4
44108.6
44033.9
44258.8
44183.8
44406.4
44333.1
44549.3
44478.5
44685.9
44618.5
44815.5
44751.7
44937.3
44877.4
45051.1
44995.3
45156.6
45104.9
45253.3
45206.1
45341.2
45298.4
45419.2
45381.7
45486.3
45454.5
45531.1
45511.7
45547.4
45541.9
45525.3
45541.6
45480.3
45504.3
45456.9
45460.1
45481.9
45465.2
45528.9
45503.6
45566.9
45551
45583.6
45576.3
45592.7
45587.8
45602
45599.5
45602
45602.1
45584.7
45601.9
45421.4
45549.6
45134.9
45126.8
3849.69
4780.86
2568.82
3127.97
1803.04
2136.78
1345.7
1545.44
1072.2
1191.64
909.04
980.186
812.141
854.364
760.364
780.172
748.629
739.299
747.265
732.948
760.065
746.36
816.559
783.316
914.823
859.374
1078.8
986.455
1352.27
1197.95
1811.46
1552.19
2589.76
2148.52
3937.24
3169.76
4957.24
10456.4
9970.41
10836.9
11841.6
11699.6
12119.1
11976.3
12501.6
12289.9
13070.8
12753.3
14082.3
13496.5
14798.5
12427.8
623279
7981.3
9800.48
8943.57
10558.6
10017.4
10339.4
10946.5
10739.8
11428.5
11196.7
11808
11633.6
12145.5
11977.5
12526.7
12328.6
12989.2
12746.5
13551.8
13261
13865
6429.56
14909.2
21608.9
21095.5
1662.47
52745.2
7856.24
10956
12462.5
56724.7
996.623
725.283
10750.3
4233.89
7082.73
7250.13
48150.3
59583.9
60388.8
14544.3
57746.9
55511.4
55076.7
45228.7
34110.5
5910.6
11514.8
159958
11386.7
31254.3
11385.5
105010
18356.2
18486.2
23821.9
943.741
1213.74
20461.2
21661.2
1008.32
15709.1
152977
30427.9
16203.8
46321.1
20362.3
51733
38014.3
43884.2
43889.4
45446.6
10338.9
65713.6
13728.1
11902.6
11528.1
13416.6
12132.5
12294.7
7007.66
24469.3
19024.8
21775.6
18167.5
13812.9
26002.2
18937.3
18007.7
23855
1416.9
1473.4
13159.4
689484
15004.8
1634.14
1463.41
880.99
951.356
712.9
11359
9868.26
5721.9
3138.64
10717.7
37078
35803.6
74121.4
26984.2
6081.61
6434.07
6259.81
11282.5
787.411
722.427
736.834
41983.9
37082.5
10785.1
10674
10670
18095.1
18715.7
1538.46
833.605
868.451
39777.8
27118.1
16241.8
37052.5
8350.83
1185.32
915.203
103045
850.284
25673
99744.6
14926.2
15534.4
107381
16706.7
13311.5
9473.12
12663.3
7733.43
14380.5
22788.5
13215.7
31345.4
16868.1
58159.8
73711.2
58460.6
15965.8
27419
2747.83
3619.79
59528.1
27117.6
18582.1
1236.66
801.907
916.341
711.165
875.101
13389.4
10228.9
7747.73
2413.62
12185.7
66809.1
75842.4
76416.3
89385.3
82438.8
71469.4
65249.1
6330.48
11467
836.739
24977.7
10018.7
10047.9
910.552
15065.8
23404.7
7767.31
74271
54238.1
56643.3
10932.9
9838.12
8657.4
13636.8
28191.7
13084.2
37902.9
46486.5
14992.3
116158
15461.5
2135.08
14556
23549.6
47015.5
1063.22
751.378
890.448
722.874
11942.8
10274.4
1984.02
14084.1
44261.8
151750
17424.7
35941.2
30511.5
7277.57
6891.95
12104.9
936.84
872.994
1796.59
29567.4
17344.9
17691.7
76222.1
75237.3
74981.8
75836.1
73086.2
74028.3
71809.1
72210.9
72672.9
76512.2
65792.8
68015.3
63154.2
64237.5
61895.2
62408.6
61358.7
61555.1
61260.6
61285.8
61435.2
61277
61760.6
61595
61958.1
61883
62016.8
62000.6
62024.6
62027.8
61997
62014.8
61938.5
61970.8
61854.1
61899.3
61749.9
61804.3
61626.9
61690.7
61486.4
61558.7
61329.7
61410.1
61158.3
61245.9
60971.9
61066.9
60771.2
60873.3
60556.6
60665.6
60328.5
60444.2
60087.2
60209.5
59833.6
59961.9
59568.2
59702.3
59292
59431.5
59006
59150.1
58712.2
58859.9
58412.2
58562.9
58110.6
58261.3
57816.9
57961.8
57678.2
33779.7
43817.3
20887.5
26395.5
13553.5
16728.1
9213.15
11109
6581.24
7735.6
4981.35
5680.33
4046.98
4446.23
3581.65
3763.43
3492.83
3492.85
3763.36
3581.6
4446.11
4046.88
5680.21
4981.23
7735.56
6581.14
11109.2
9213.23
16729
13554
26398.1
20889.1
43822.6
33783.4
57685.8
57969.1
57824.4
58268.1
58117.4
58569.7
58418.9
58867.8
58719.4
59158.7
59014.3
59440.4
59300.8
59711.5
59577.3
59971.1
59842.8
60218.8
60096.5
60453.9
60338
60676.2
60566.7
60885.3
60782.4
61080.6
60984.6
61258.4
61172.6
61408.7
61338.4
61507.7
61469.1
61564.9
61540.6
61607.3
61587.2
61665.4
61631.8
61759.2
61708.7
61881.2
61817.9
61959.1
61929.5
62000.3
61985.5
62016.6
62015.1
62002.3
62023.5
61968.3
62004.4
61866.6
61940.7
61558.2
61774.3
61149.7
61203.4
61371.8
61202.7
61755.3
5596.72
7213.08
3547.81
4422.36
2375.04
2882.5
1687.9
1985.79
1282.67
1458.88
1042.92
1147.11
901.229
962.729
818.571
854.038
775.093
792.532
757.725
764.2
756.648
755.143
774.642
762.809
820.951
793.693
905.047
857.387
1047.48
967.056
1287.73
1151.93
1694.98
1464.68
2391.53
1996.4
3604.15
2912.97
5743.61
4522.03
9622.03
7379.87
12774.9
13504.7
13415.5
13970.3
13542.2
44918
14375.2
15190.3
43602.5
15494.7
15352.6
15816.3
15644.7
16243.7
16014
16861.1
16532.7
17846.8
17284.6
19309.6
18520.9
15583.2
69050.6
10458.3
11325.3
12753.1
12430
14039.1
13719.5
14530.5
14300.2
15048.8
14791.1
15470.3
15275.4
15839.4
15650.4
16234.7
16029.8
16709.5
16458
17280.8
16976
17638
6677.67
1051.33
15637.3
22001.3
21281.9
73468.1
76516.8
20474.5
1439.77
953.489
32703
11366.4
12906.4
1530.08
911.96
714.424
9843.7
4162.38
10623.8
17958.9
27071.9
31585.4
42083.1
77487.5
76658.7
75649.4
76539.2
72333.9
74149.3
70045.6
70935.1
71476.2
69627
75657.9
78328.7
76122.1
34510.8
6144.36
10984.1
758.226
14957.1
30128.8
10647.2
19788.6
55170
23260.5
15755.3
1341.44
806.306
41353.4
843.846
19642.8
17940.5
8710.23
7893.93
100520
96404.1
11447
14972.7
22849.4
68061.7
876.659
67683.4
68951.2
19292
62616
35809.1
103041
77975.3
18342.8
104203
78696.9
106464
18542.3
16578.1
15673.1
16563.5
33935.9
17109.8
17234.8
8755.46
11783
7282.53
15884.5
19976.2
22704
19077.6
14620.3
26258.1
19247
62077
58523.6
17538.2
22905
16277.3
6840.87
1241.99
15670.5
63590.2
24975.7
15701.6
2475.75
11855.9
17974.7
1436.28
1288.65
820.18
876.119
705.378
10345.1
8954.94
5535.05
3073.04
75521.6
104027
72733.9
68029.8
15587.9
15739.7
60887.7
61226.2
104094
77079.8
106611
54833.8
12341.6
61158.2
46046
27891
6328.33
6699.07
6519.03
10960.1
791.401
715.647
732.069
45583.7
36400.8
10296
10113
10009
860.389
28901.3
15989.4
8943.3
41943.8
46326.7
158507
5867.1
77423.4
77159.9
43761.8
57556.1
8825.56
11839.4
20604.2
10223.3
24093.6
11170.2
8041.16
15109.6
24348.7
14192.5
31447.5
17057.7
46773.2
15818.3
10100.9
25241.6
2470.85
2669.44
798.499
19992.9
19536.2
13443.2
1101.24
759.916
849.487
707.527
12277.4
9279.64
7363.6
2395.67
14271.3
54424.7
46125.7
17296.8
74009.1
22209.9
128310
151114
40473.2
52301
23512.1
24214.8
6588.88
11324
848.84
866.366
1833.32
44850.6
9431.1
924.782
12550.2
9008.45
14455.8
30252
37985.3
5410.48
15295.4