/*--------------------------------*- C++ -*----------------------------------*\
| =========                 |                                                 |
| \\      /  F ield         | OpenFOAM: The Open Source CFD Toolbox           |
|  \\    /   O peration     | Version:  2212                                  |
|   \\  /    A nd           | Website:  www.openfoam.com                      |
|    \\/     M anipulation  |                                                 |
\*---------------------------------------------------------------------------*/
FoamFile
{
    version     2.0;
    format      ascii;
    arch        "LSB;label=32;scalar=64";
    class       volScalarField;
    location    "0.00649";
    object      p;
}
// * * * * * * * * * * * * * * * * * * * * * * * * * * * * * * * * * * * * * //

dimensions      [1 -1 -2 0 0 0 0];

internalField   nonuniform List<scalar> 
2681
(
191.904
284.606
290.868
190.131
270.79
281.943
189.995
190.129
190.151
190.168
190.118
190.32
190.284
190.802
190.4
190.497
190.629
190.14
190.152
190.167
190.191
190.281
190.246
190.216
190.359
190.32
190.131
190.111
190.121
190.155
190.143
190.184
190.168
190.225
190.202
190.252
190.278
190.324
190.371
190.338
190.374
190.264
190.301
190.208
190.232
276.84
190.187
190.135
190.091
190.101
190.119
190.413
190.59
190.135
190.121
190.255
190.283
190.096
190.083
190.086
190.069
190.161
190.145
190.201
190.179
190.272
190.234
190.364
190.316
190.047
190.416
190.407
190.454
190.295
190.353
190.357
190.042
190.74
275.067
190.123
190.098
190.111
190.147
190.135
190.173
190.16
190.207
190.189
190.229
190.299
190.331
190.238
190.269
190.191
190.212
190.154
190.172
190.12
190.137
190.103
190.105
190.096
190.315
190.484
190.447
190.453
190.083
190.071
190.057
190.517
190.582
190.538
190.54
190.309
190.372
190.337
190.111
190.089
190.096
190.409
190.756
190.547
262.241
190.351
190.397
190.405
190.068
286.247
190.081
191.572
190.892
190.136
190.123
190.17
190.152
190.221
190.193
190.303
190.258
190.411
190.354
190.466
190.451
190.502
190.338
190.395
190.656
190.113
283.164
190.138
190.125
190.085
190.055
190.07
190.112
190.099
190.138
190.125
190.164
190.15
190.194
190.178
190.233
190.212
190.281
190.256
190.824
190.31
190.263
190.287
190.212
190.237
190.169
190.188
190.135
190.151
190.103
190.119
190.086
190.066
190.045
190.054
190.078
189.978
190.091
190.096
190.601
190.638
190.696
190.494
190.387
190.493
190.04
190.405
190.364
190.116
190.102
190.588
190.58
190.054
190.042
209.981
211.451
211.452
209.982
190.035
190.039
190.031
190.349
190.693
189.983
190.085
193.203
276.754
271.887
190.439
190.448
290.056
190.066
191.18
190.116
190.104
190.142
190.128
190.182
190.16
190.242
190.209
190.333
190.284
190.447
190.389
190.568
190.506
190.632
190.495
190.55
190.375
190.436
190.264
190.316
190.186
190.22
190.143
190.161
190.129
213.097
214.859
216.797
218.91
221.233
223.805
226.669
229.868
233.446
237.431
237.404
241.812
246.66
246.626
241.757
229.874
233.441
223.808
226.668
218.912
221.237
214.86
216.798
213.097
190.071
190.056
190.1
190.085
190.127
190.113
190.153
190.14
190.182
190.167
190.216
190.198
190.256
190.235
192.794
190.279
190.331
190.326
190.39
190.375
190.348
190.278
190.301
190.23
190.254
190.184
190.206
190.146
190.164
190.116
190.13
190.087
190.102
190.061
190.073
190.049
190.051
190.042
190.072
190.061
190.087
190.08
192.206
193.459
190.537
190.424
190.437
190.531
190.03
190.77
208.601
208.602
190.031
196.924
237.404
241.787
190.639
263.299
190.42
190.625
190.077
190.082
208.588
207.434
207.427
190.027
190.023
190.035
190.026
251.998
252.001
190.364
190.408
190.755
190.682
190.374
190.407
275.73
190.894
191.113
189.962
190.093
190.072
190.078
190.48
190.484
190.02
190.041
190.03
190.061
190.051
190.07
190.121
190.109
190.15
190.134
190.195
190.17
190.263
190.226
190.363
190.309
190.485
190.423
190.618
190.549
190.692
190.737
190.982
190.665
190.736
190.538
190.599
190.412
190.475
190.293
190.35
190.204
190.243
190.152
190.174
190.121
190.135
190.107
211.42
209.958
214.828
213.063
218.902
216.776
223.809
221.236
229.855
226.663
233.426
208.592
207.432
207.436
258.095
257.67
193.651
246.322
251.516
237.302
241.534
229.905
233.434
223.843
226.718
218.911
221.253
214.831
216.781
211.422
213.065
209.962
190.057
190.044
190.086
190.072
190.114
190.1
190.14
190.127
190.168
190.154
190.2
190.184
190.235
190.217
190.274
190.255
190.312
190.294
190.386
190.348
190.33
190.388
190.361
190.405
190.375
190.368
190.332
190.343
190.295
190.319
190.247
190.272
190.201
190.224
190.16
190.18
190.127
190.142
190.102
190.114
190.078
190.09
190.054
190.066
190.044
190.039
190.032
190.056
190.047
190.064
278.87
191.991
246.627
190.583
190.466
190.471
190.573
190.085
282.84
190.998
190.413
208.564
207.41
190.011
192.973
190.018
190.01
190.003
190.018
190.098
190.083
257.742
191.239
191.388
280.983
189.986
237.272
241.634
191.378
191.522
191.594
190.454
190.693
190.674
190.452
191.101
208.572
207.418
192.678
277.409
274.121
191.294
190.821
190.429
190.366
190.404
190.386
190.417
190.431
190.797
191.263
251.978
189.965
191.05
192.208
190.523
190.522
190.029
190.02
190.047
190.038
190.063
190.056
190.073
190.069
190.078
190.102
190.091
190.126
190.113
190.158
190.14
190.209
190.181
190.284
190.243
190.391
190.333
190.522
190.455
190.673
190.594
190.858
190.763
190.967
190.944
191.071
190.725
190.822
190.574
190.644
190.44
190.507
190.315
190.375
190.221
190.263
190.163
190.188
190.127
190.143
190.112
211.376
209.924
214.782
213.016
218.875
216.739
223.786
221.214
229.791
226.625
233.328
206.35
206.35
206.351
190.441
206.331
206.345
265.956
270.363
255.992
261.374
245.846
250.78
237.174
241.311
229.858
233.351
223.826
226.687
218.889
221.236
214.791
216.75
211.384
213.024
209.932
190.006
189.995
190.001
190.022
190.013
190.044
190.033
190.071
190.058
190.099
190.085
190.125
190.112
190.152
190.138
190.183
190.167
190.216
190.199
190.25
190.233
190.284
190.268
190.315
190.299
190.38
190.345
190.33
190.356
190.363
190.394
190.363
190.366
190.349
190.357
190.332
190.341
190.304
190.319
190.267
190.287
190.222
190.245
190.179
190.2
190.143
190.16
190.116
190.128
190.094
190.105
190.072
190.084
190.05
190.061
190.03
190.04
190.011
190.021
190.01
190.002
190.02
190.015
190.029
190.024
190.043
190.035
190.057
190.05
190.069
190.064
281.333
263.555
190.282
191.704
246.467
194.041
191.791
192.588
192.449
192.185
190.506
190.63
190.399
190.392
190.618
190.507
191.244
191.259
191.604
189.968
192.235
191.409
191.043
206.34
279.49
275.806
189.989
189.983
189.988
279.13
191.443
190.747
190.481
190.419
190.428
190.484
190.73
191.029
190.061
190.066
257.973
192.496
221.296
282.596
190.459
192.231
273.526
277.143
191.19
265.215
190.889
190.449
190.458
190.865
190.056
190.074
190.061
205.527
206.311
205.516
251.802
190.002
190.975
191.246
191.976
190.199
190.253
190.568
190.397
190.562
191.368
190.003
189.996
190.019
190.011
190.035
190.027
190.049
190.043
190.056
190.083
190.107
190.095
190.132
190.119
190.167
190.147
190.221
190.192
190.302
190.257
190.418
190.355
190.56
190.487
190.727
190.639
190.945
190.832
191.102
192.257
191.226
190.775
190.896
190.602
190.681
190.461
190.531
190.33
190.392
190.232
190.275
190.172
190.198
190.134
190.151
190.102
190.118
190.088
208.541
207.39
211.346
209.897
214.753
212.986
218.85
216.714
223.734
221.181
229.673
226.546
237.077
233.173
246.261
241.424
205.538
206.323
205.528
205.536
205.532
205.534
205.533
266.962
271.856
255.976
261.526
245.748
250.626
237.084
241.235
229.76
233.249
223.775
226.61
218.872
221.209
214.769
216.733
211.36
213.001
208.553
209.91
207.402
189.999
189.993
190.013
190.006
190.032
190.022
190.056
190.044
190.083
190.07
190.108
190.096
190.134
190.121
190.163
190.148
190.193
190.178
190.224
190.209
190.253
190.239
190.281
190.267
190.307
190.294
190.326
190.318
190.33
190.33
190.321
190.327
190.306
190.315
190.279
190.293
190.242
190.263
190.2
190.221
190.162
190.18
190.132
190.146
190.109
190.12
190.089
190.099
190.067
190.078
190.044
190.055
190.024
190.034
190.005
190.014
190.013
190.008
190.022
190.017
190.032
190.026
190.045
190.038
190.051
189.994
282.333
292.783
189.978
191.992
191.62
191.974
190.677
190.541
190.429
190.435
190.544
190.666
191.144
190.215
190.07
191.438
193.194
279.872
191.648
264.338
189.982
192.419
191.737
206.309
205.525
283.759
278.004
190.489
282.338
192.005
191.319
271.166
269.578
190.81
190.506
190.465
190.48
190.517
190.791
190.947
189.985
189.98
190.078
190.064
190.045
190.049
206.294
205.511
204.74
204.737
191.958
257.77
189.995
189.988
251.561
190.041
191.1
189.966
191.793
190.236
190.609
190.434
190.605
191.26
189.997
189.99
190.01
190.003
190.024
190.017
190.037
190.031
190.048
190.043
190.058
190.053
190.062
190.087
190.074
190.111
190.099
190.136
190.123
190.174
190.153
190.232
190.201
190.319
190.271
190.443
190.376
190.595
190.516
190.78
190.682
191.035
190.898
191.216
192.333
191.178
191.405
190.837
190.986
190.634
190.723
190.482
190.556
190.345
190.411
190.239
190.286
190.177
190.204
190.139
190.157
190.107
190.122
190.092
208.508
207.368
211.301
209.858
214.697
212.938
218.768
216.649
223.603
221.078
229.47
226.379
236.832
232.942
246.008
241.179
204.747
204.749
204.749
204.74
204.742
204.742
267.807
273.676
256.137
261.952
245.708
250.726
236.859
241.073
229.532
233.011
223.636
226.425
218.796
221.106
214.721
216.676
211.32
212.959
208.525
209.875
207.384
268.247
189.991
189.986
190.005
189.998
190.021
190.013
190.042
190.031
190.067
190.054
190.091
190.079
190.115
190.103
190.142
190.128
190.169
190.155
190.197
190.183
190.223
190.21
190.246
190.235
190.267
190.257
190.284
190.276
190.29
190.288
190.284
190.288
190.271
190.279
190.247
190.26
190.215
190.232
190.18
190.197
190.149
190.163
190.123
190.135
190.102
190.112
190.081
190.091
190.057
190.069
190.035
190.046
190.015
190.025
189.997
190.006
189.989
190.006
190.001
190.015
190.011
190.024
190.019
190.034
190.029
190.04
192.986
193.017
204.758
284.314
286.269
286.009
192.85
191.952
190.52
283.554
191.796
191.463
191.767
267.978
194.329
272.161
190.724
190.572
190.476
190.489
190.584
190.72
191.042
190.199
189.975
190.047
190.051
191.569
284.41
192.215
191.887
190.053
204.744
192.417
191.814
264.28
189.981
193.331
257.458
251.324
190.553
284.392
191.783
191.195
193.644
190.857
190.526
190.862
204.244
204.257
286.188
191.001
194.418
190.045
190.544
285.038
284.332
191.616
190.177
193.951
288.628
190.649
190.481
190.652
191.144
189.973
189.981
189.977
189.991
189.986
190.002
189.997
190.015
190.008
190.027
190.021
190.038
190.032
190.042
190.065
190.054
190.09
190.078
190.114
190.102
190.14
190.126
190.18
190.158
190.242
190.208
190.334
190.283
190.464
190.395
190.626
190.542
190.827
190.721
191.125
190.963
191.335
192.562
191.304
191.581
190.894
191.071
190.66
190.76
190.5
190.576
190.36
190.428
190.246
190.297
190.18
190.208
190.141
190.158
190.11
190.125
190.081
190.095
190.056
190.068
206.283
204.767
205.515
208.47
207.347
211.244
209.812
214.616
212.871
218.652
216.553
223.447
220.941
229.277
226.203
236.634
232.741
245.856
240.993
192.861
204.239
204.24
204.232
204.234
204.231
204.233
204.244
204.233
269.019
275.467
256.728
262.737
245.83
251.07
236.707
241.04
229.318
232.802
223.472
226.233
218.68
220.968
214.643
216.581
211.267
212.896
208.488
209.831
206.3
207.364
204.782
205.531
189.976
189.971
189.973
193.646
189.974
189.976
189.971
190.228
189.985
189.98
189.997
189.991
190.012
190.004
190.029
190.02
190.051
190.04
190.074
190.063
190.097
190.086
190.121
190.109
190.145
190.133
190.169
190.157
190.192
190.181
190.211
190.202
190.227
190.219
190.241
190.235
190.247
190.245
190.243
190.246
190.232
190.239
190.212
190.223
190.186
190.199
190.158
190.172
190.134
190.146
190.111
190.122
190.09
190.101
190.067
190.079
190.044
190.055
190.023
190.033
190.004
190.013
189.988
189.996
189.976
189.981
189.969
189.972
189.989
189.982
190
189.995
190.009
190.005
190.018
190.014
190.027
190.022
190.036
190.031
190.043
190.04
281.892
290.567
290.633
290.882
288.711
285.083
192.313
257.055
251.201
190.589
285.195
191.602
191.313
191.578
194.103
189.959
194.98
194.18
263.553
190.767
190.598
190.542
190.565
190.628
190.782
190.943
191.128
189.971
193.535
190.046
204.278
204.293
248.879
289.805
285.941
276.666
191.073
190.901
190.04
189.966
190.664
192.54
191.759
203.256
207.421
208.231
204.131
285.432
257.019
191.405
190.624
285.454
191.443
191.4
194.542
194.748
297.576
298.564
189.96
289.91
263.08
262.992
288.303
190.683
190.556
190.706
191.031
189.978
189.975
189.987
189.982
189.997
189.992
190.007
190.002
190.018
190.013
190.028
190.023
190.037
190.033
190.041
190.068
190.057
190.092
190.08
190.116
190.104
190.142
190.128
190.185
190.161
190.25
190.215
190.346
190.293
190.482
190.409
190.652
190.563
190.871
190.753
191.224
191.029
191.767
191.478
192.076
192.072
192.49
193.012
191.405
191.716
190.944
191.145
190.683
190.793
190.515
190.594
190.374
190.443
190.258
190.311
190.184
190.216
190.142
190.161
190.111
190.126
190.083
190.097
190.058
190.07
190.048
204.327
204.797
205.516
206.267
207.313
208.412
209.733
211.141
212.749
214.475
216.397
218.477
220.75
223.246
226.002
229.079
232.55
236.476
240.88
245.777
251.205
257.158
263.497
270.122
276.939
283.73
305.587
192.775
299.557
203.738
203.693
203.674
203.671
203.671
203.668
203.666
203.665
203.662
203.664
203.681
203.725
203.772
195.589
276.561
269.751
263.43
257.227
251.36
245.935
241.012
236.568
232.605
229.108
226.021
223.265
220.773
218.504
216.426
214.502
212.774
211.163
209.753
208.431
207.332
206.286
205.534
204.814
204.343
203.787
289.376
287.952
311.329
190.91
191.105
198.09
197.552
191.413
191.165
190.963
196.882
190.159
214.695
190.341
275.701
195.703
194.75
285.483
194.865
213.462
202.125
269.557
280.492
269.18
288.348
285.149
201.48
216.951
209.211
204.819
192.527
190.806
190.665
190.622
190.677
191.003
190.849
298.145
298.479
298.359
297.441
295.331
291.42
190.372
191.661
273.533
190.076
194.561
195.815
190.041
190.038
190.036
190.032
190.029
190.025
190.021
190.017
190.013
190.009
190.005
190
189.995
189.989
189.984
189.978
189.973
189.969
189.965
189.962
189.963
189.965
189.967
189.97
189.974
189.98
189.986
189.993
190.001
190.01
190.019
190.028
190.039
190.05
190.062
190.073
190.084
190.095
190.106
190.116
190.126
190.136
190.146
190.156
190.167
190.176
190.185
190.192
190.198
190.202
190.205
190.205
190.204
190.201
190.197
190.192
190.186
190.179
190.172
190.163
190.154
190.144
190.134
190.124
190.113
190.102
190.092
190.081
190.07
190.06
190.049
190.038
190.027
190.018
190.01
190.003
189.996
189.99
189.984
189.979
189.975
189.972
203.589
203.607
204.37
203.81
189.964
287.654
194.049
189.97
189.968
192.795
191.531
189.964
189.967
189.971
189.975
189.98
189.985
189.99
189.996
190.001
190.005
190.01
190.014
190.017
190.021
190.025
190.033
190.03
190.028
190.042
190.05
190.06
190.071
190.084
190.098
190.112
190.128
190.145
190.165
190.19
190.223
190.265
190.317
190.378
190.445
190.518
190.597
190.689
190.807
190.969
191.186
191.468
191.81
192.211
193.284
192.71
191.997
194.247
192.443
191.995
191.623
191.318
191.086
190.909
190.778
190.669
190.576
190.492
190.418
190.353
190.3
190.256
190.22
190.189
190.163
190.144
190.129
190.117
190.105
190.093
190.081
190.058
190.069
300.389
190.037
190.033
190.029
190.025
190.021
190.016
190.012
190.007
190.002
189.997
189.993
189.988
189.984
189.98
189.976
189.973
189.968
189.97
190.105
189.961
189.962
189.963
189.966
189.969
189.973
189.978
189.984
189.99
189.998
190.005
190.014
190.024
190.034
190.045
190.056
190.067
190.077
190.087
190.096
190.105
190.113
190.122
190.13
190.138
190.145
190.152
190.158
190.163
190.167
190.17
190.171
190.171
190.17
190.167
190.164
190.16
190.154
190.148
190.141
190.133
190.124
190.116
190.107
190.098
190.088
190.078
190.068
190.058
190.048
190.037
190.027
190.018
190.01
190.003
189.996
189.99
189.984
189.979
189.975
189.972
189.969
189.967
189.965
191.569
195.4
189.964
189.965
284.288
281.374
296.439
306.114
311.262
313.337
313.542
311.952
308.547
288.75
279.793
272.187
265.037
258.12
251.801
246.099
241.002
236.481
232.499
228.979
225.861
223.078
220.58
218.308
216.229
214.315
212.607
211.023
209.646
208.352
207.281
206.264
204.389
204.841
205.529
190.925
190.763
190.641
190.716
196.203
193.227
202.081
215.566
208.674
204.676
201.897
199.507
284.171
193.59
275.036
268.953
203.577
203.541
203.522
203.52
203.524
203.526
203.528
203.53
203.528
203.532
203.552
192.86
269.023
205.51
210.605
195.534
191.881
190.82
190.111
279.716
291.712
297.661
198.583
314.252
313.72
296.943
289.421
280.356
272.077
264.526
257.696
251.497
245.896
240.883
236.405
232.459
228.959
225.847
223.063
220.559
218.282
216.202
214.288
212.584
211.002
209.627
208.333
207.262
206.243
205.508
204.821
290.817
289.091
195.503
195.243
196.44
229.382
191.252
191.27
190.144
190.303
190.035
203.594
203.827
191.029
273.567
196.59
281.691
203.612
203.598
189.96
287.771
233.637
198.171
191.402
190.856
190.725
199.39
189.964
190.164
194.46
190.148
268.39
191.118
197.126
196.078
286.493
204.764
203.766
204.322
206.169
205.438
208.227
207.162
210.862
209.504
214.128
212.427
218.157
216.063
222.97
220.458
228.903
225.758
236.478
232.455
246.141
241.026
258.268
251.874
273.516
265.421
294.054
283.03
314.471
304.286
329.405
323.474
324.743
332.444
298.675
313.918
233.262
268.486
209.186
217.463
201.574
204.765
198.83
203.159
203.138
203.223
202.991
203.033
202.961
202.97
202.965
202.959
203.025
202.983
203.212
203.15
203.007
203.57
202.994
203.126
274.454
192.155
190.037
199.788
197.329
190.747
190.83
203.586
204.343
203.784
205.461
204.786
207.182
206.19
209.522
208.246
212.447
210.88
216.088
214.151
220.481
218.183
225.774
222.988
232.479
228.922
241.142
236.528
252.215
246.356
266.073
258.78
284.053
274.411
295.677
295.454
322.427
192.499
328.662
328.072
321.085
327.121
271.202
307.269
216.755
231.301
204.87
209.167
202.067
189.962
189.963
189.963
189.962
189.967
189.965
189.972
189.969
189.98
189.976
189.99
189.985
190.004
189.997
190.02
190.012
190.039
190.03
190.059
190.049
190.078
190.069
190.095
190.087
190.111
190.104
190.126
190.119
190.138
190.132
190.145
190.142
190.148
190.147
190.147
190.148
190.143
190.146
190.134
190.139
190.122
190.128
190.109
190.115
190.094
190.102
190.079
190.087
190.061
190.07
190.042
190.052
190.022
190.032
190.003
190.012
189.989
189.995
189.977
189.982
189.968
189.972
189.963
189.965
189.96
189.962
190.098
189.959
193.091
189.969
189.967
189.975
189.972
189.982
189.978
189.99
189.986
189.999
189.994
190.007
190.003
190.016
190.012
190.024
190.02
190.031
190.028
198.727
190.034
199.715
190.07
190.059
190.094
190.082
190.117
190.106
190.145
190.129
190.191
190.165
190.26
190.223
190.357
190.304
190.498
190.422
190.682
190.585
190.939
190.796
191.399
191.134
192.237
191.754
193.579
192.839
194.428
192.878
193.568
191.873
192.31
191.212
191.507
190.818
190.986
190.602
190.697
190.448
190.521
190.318
190.38
190.225
190.267
190.167
190.192
190.129
190.146
190.099
190.113
190.072
190.085
190.05
190.06
190.043
190.152
190.05
190.03
190.032
190.025
190.028
190.019
190.022
190.011
190.015
190.002
190.007
189.992
189.997
189.982
189.987
189.973
189.977
189.966
189.969
293.218
189.963
196.636
189.959
203.085
203.072
190.185
245.975
189.96
189.961
189.963
189.965
189.968
189.972
189.976
189.981
189.986
189.991
189.996
190.001
190.006
190.01
190.014
190.018
190.021
190.024
190.027
190.029
190.031
190.034
190.172
291.806
190.045
190.051
190.06
190.071
190.084
190.099
190.113
190.129
190.146
190.165
190.188
190.218
190.257
190.307
190.366
190.433
190.504
190.581
190.67
190.782
190.933
191.134
191.413
191.784
192.257
192.933
193.786
195.174
195.373
193.865
192.917
192.263
191.772
191.402
191.134
190.94
190.797
190.682
190.585
190.498
190.42
190.355
190.302
190.26
190.223
190.191
190.165
190.145
190.129
190.117
190.105
190.093
190.08
190.069
190.06
190.052
241.468
190.035
190.031
190.028
190.025
190.021
190.017
190.013
190.009
190.005
190.001
189.997
189.993
189.989
189.984
189.981
189.977
189.974
189.971
189.968
189.966
193.638
189.959
189.959
189.96
189.961
189.962
189.964
189.966
189.969
189.973
189.978
189.984
189.99
189.997
190.006
190.015
190.024
190.034
190.044
190.053
190.061
190.068
190.076
190.083
190.09
190.097
190.103
190.109
190.115
190.121
190.126
190.13
190.133
190.135
190.137
190.137
190.137
190.136
190.133
190.129
190.124
190.118
190.112
190.105
190.097
190.089
190.081
190.073
190.064
190.055
190.045
190.035
190.026
190.017
190.008
190.001
189.994
189.987
189.982
189.977
189.974
189.971
189.968
189.965
189.963
189.962
189.961
189.961
189.962
189.963
189.964
197.314
200.607
203.931
207.195
214.299
228.822
263.756
335.648
359.648
361.614
356.875
346.104
334.297
317.673
308.495
299.651
289.705
277.374
267.852
259.577
252.506
246.413
241.217
236.62
232.502
228.887
225.746
222.958
220.437
218.138
216.034
214.088
212.404
210.85
209.494
208.222
207.15
206.172
205.432
204.753
204.303
203.79
203.569
203.16
190.893
190.791
283.75
199.253
190.049
271.704
279.211
203.111
203.05
203.242
203.376
203.316
203.209
203.18
203.173
203.175
203.177
203.178
203.188
203.216
203.324
203.385
203.253
203.061
203.122
203.109
193.655
199.875
204.595
207.118
215.059
229.566
263.791
330.046
353.816
356.586
353.316
345.37
333.728
322.213
311.429
301.534
288.135
275.984
266.976
259.139
252.3
246.323
241.153
236.593
232.49
228.873
225.73
222.938
220.412
218.112
216.008
214.065
212.383
210.831
209.476
208.204
207.13
206.15
205.409
204.729
204.281
203.771
203.552
203.146
203.098
197.821
196.525
190.784
190.903
279.738
200.768
197.195
286.257
190.036
190.964
192.452
197.196
189.963
190.886
189.959
190.041
195.414
317.466
189.959
189.969
199.022
190.038
191.988
191.72
275.029
190.383
193.243
192.015
279.885
191.06
189.966
190.959
190.931
190.822
276.77
190.039
190.249
190.443
265.266
189.997
192.919
296.649
280.306
192.028
190.045
283.106
190.129
190.685
190.034
196.885
190.037
201.017
190.576
314.354
227.911
304.679
196.086
189.97
227.599
282.458
192.325
280.556
191.473
190.39
189.961
190.355
190.021
190.937
190.097
190.176
190.345
)
;

boundaryField
{
    wall
    {
        type            zeroGradient;
    }
    outlet
    {
        type            inletOutlet;
        inletValue      uniform 1e-05;
        value           nonuniform List<scalar> 
20
(
203.111
203.05
203.242
203.376
203.316
203.209
203.18
203.173
203.175
203.177
203.178
203.188
203.216
203.324
203.385
203.253
203.061
203.122
203.109
203.098
)
;
    }
    frontAndBackPlanes
    {
        type            empty;
    }
}


// ************************************************************************* //
