/*--------------------------------*- C++ -*----------------------------------*\
| =========                 |                                                 |
| \\      /  F ield         | OpenFOAM: The Open Source CFD Toolbox           |
|  \\    /   O peration     | Version:  2212                                  |
|   \\  /    A nd           | Website:  www.openfoam.com                      |
|    \\/     M anipulation  |                                                 |
\*---------------------------------------------------------------------------*/
FoamFile
{
    version     2.0;
    format      ascii;
    arch        "LSB;label=32;scalar=64";
    class       volScalarField;
    location    "0.0662";
    object      alphat;
}
// * * * * * * * * * * * * * * * * * * * * * * * * * * * * * * * * * * * * * //

dimensions      [1 -1 -1 0 0 0 0];

internalField   nonuniform List<scalar> 
31661
(
0.00100566
0.000102429
0.000107961
0.000104688
0.000102268
0.000106712
0.000103967
0.000102283
0.0001058
0.000103513
0.000125919
0.000125651
0.000340768
0.00102627
0.00127269
0.00136389
0.00122859
0.00129971
8.52073e-05
0.00137857
2.33084e-05
2.38953e-05
8.19561e-05
0.00115782
0.000106264
2.21623e-05
6.45241e-05
8.05165e-05
0.000129387
0.000156289
0.00120376
3.26205e-05
3.24421e-05
9.01156e-05
0.000104552
0.00127473
3.02789e-05
0.00128305
0.00034458
2.98845e-05
2.94699e-05
0.000101756
0.00121171
0.000294849
0.000305876
0.000139195
0.000299323
0.000115186
3.1856e-05
0.000897198
2.60798e-05
0.000735965
0.000146254
9.76145e-05
0.000347574
9.61309e-05
0.000141321
0.000168093
0.000292598
0.000111379
0.000129481
0.000120884
0.000254192
9.52347e-05
4.8386e-05
0.000557004
0.000193747
0.000256495
0.000227866
0.000200536
0.000116701
0.000171006
0.000150681
0.00013718
0.000124696
0.000115391
0.000107434
0.00010144
9.65e-05
9.27752e-05
8.97915e-05
8.75804e-05
8.58789e-05
8.46704e-05
8.51258e-05
8.64328e-05
8.82378e-05
9.05916e-05
9.36995e-05
9.76018e-05
0.000102645
0.000108816
0.000116709
0.000126146
0.00013801
0.00015177
0.000167789
0.000185479
0.000204588
0.000227694
0.000253277
0.000279963
0.000306497
0.000336576
0.000334174
0.000369391
0.000363803
0.000400602
0.000393174
0.000429368
0.000420912
0.000455105
0.000446341
0.000477524
0.000469029
0.000496596
0.000488764
0.000512522
0.000505582
0.000525637
0.000519681
0.000536334
0.000531346
0.000545013
0.000540905
0.000552057
0.000548711
0.000557792
0.000555073
0.000562496
0.000560278
0.000566395
0.000564568
0.00056967
0.00056814
0.000572469
0.00057116
0.000574914
0.000573763
0.0005771
0.000576064
0.000579115
0.000578157
0.000581023
0.000580121
0.00058289
0.000582027
0.000584778
0.000583939
0.000586745
0.000585924
0.000588854
0.000588045
0.000591171
0.000590377
0.000593768
0.000592983
0.000596733
0.000595955
0.000600161
0.00059939
0.000604173
0.0006034
0.000608894
0.000608137
0.000614499
0.000613759
0.000621194
0.000620471
0.000628527
0.000629238
0.00062946
0.000621291
0.00061449
0.000608794
0.000603995
0.000599923
0.000596441
0.000593428
0.000590786
0.000588432
0.00058629
0.000584291
0.000582372
0.000580471
0.000578526
0.00057647
0.000574224
0.00057171
0.000568822
0.000565432
0.000561383
0.000556484
0.000550499
0.000543143
0.000534077
0.000522925
0.000509288
0.000492788
0.000473124
0.000450118
0.00042381
0.000394454
0.000362411
0.000328001
0.000293804
0.000258785
0.000226987
0.000198079
0.000174765
0.000155398
0.000139946
0.000127178
0.00011711
0.000108886
0.000102505
9.73911e-05
8.41865e-05
8.38075e-05
9.34703e-05
9.03899e-05
8.80753e-05
8.63015e-05
8.50173e-05
8.33295e-05
8.36276e-05
8.45167e-05
8.52945e-05
8.64623e-05
8.80476e-05
9.01538e-05
9.28825e-05
9.63919e-05
0.000100801
0.00010633
0.000113105
0.000121376
0.000131292
0.000143007
0.00015654
0.000171978
0.000188961
0.000207303
0.000227492
0.000249303
0.000272085
0.000295725
0.000321173
0.000347549
0.000374132
0.000400175
0.000425087
0.000448314
0.000469467
0.000488252
0.000504572
0.000518474
0.000530135
0.000539792
0.000547719
0.000554207
0.00055951
0.000563867
0.000567481
0.000570529
0.000573159
0.000575494
0.000577636
0.000579676
0.000581691
0.000583758
0.000585951
0.000588341
0.000591016
0.000594058
0.000597571
0.000601673
0.000606508
0.000612244
0.000619089
0.000627297
0.00063718
0.000638245
0.000638948
0.000639318
0.000639367
0.00062921
0.000620778
0.00061375
0.000607859
0.000602896
0.000598682
0.000595078
0.000591959
0.000589224
0.000586783
0.000584558
0.000582472
0.000580457
0.000578444
0.000576359
0.000574122
0.000571642
0.000568814
0.000565509
0.000561571
0.000556811
0.000551003
0.000543884
0.000535151
0.000524481
0.000511553
0.000496073
0.000477824
0.000456728
0.000432884
0.000406577
0.000378271
0.000348588
0.000318226
0.000287957
0.000257228
0.000229156
0.000203701
0.000181473
0.000162379
0.000146506
0.000133123
0.000122182
0.000113243
0.000106088
0.000100402
9.59557e-05
9.24868e-05
8.40999e-05
8.98099e-05
8.77518e-05
8.62119e-05
8.40195e-05
8.32869e-05
8.35617e-05
8.30327e-05
8.37663e-05
8.48548e-05
8.52639e-05
8.60658e-05
8.72095e-05
8.8767e-05
9.08154e-05
9.3462e-05
9.68212e-05
0.000101053
0.000106282
0.000112687
0.000120368
0.000129439
0.000139893
0.000151772
0.000164936
0.000179382
0.000194589
0.000210469
0.000227231
0.000244812
0.000263124
0.000282237
0.000302943
0.000324884
0.00034771
0.000371101
0.000394596
0.000417793
0.000440075
0.000460945
0.000479952
0.000496852
0.000511537
0.000524026
0.000534485
0.000543137
0.00055022
0.000556
0.000560736
0.000564647
0.000567936
0.000570766
0.000573284
0.00057561
0.000577848
0.000580095
0.000582441
0.000584974
0.000587784
0.000590967
0.000594632
0.000598905
0.000603932
0.000609889
0.000616988
0.000625483
0.000635683
0.000647967
0.000649132
0.000650023
0.000650727
0.000651271
0.000651651
0.000651792
0.000639039
0.000628447
0.000619623
0.00061225
0.000606061
0.000600839
0.000596406
0.000592609
0.000589319
0.000586428
0.000583837
0.000581459
0.000579211
0.000577008
0.000574765
0.000572389
0.000569775
0.000566801
0.000563322
0.000559166
0.00055413
0.000547978
0.000540445
0.000531249
0.00052011
0.000506774
0.000491074
0.000472933
0.000452458
0.000429912
0.000405728
0.000380417
0.000354563
0.000328717
0.000303291
0.000278285
0.000253641
0.000230568
0.000209042
0.000189518
0.000171804
0.000156193
0.000142472
0.000130723
0.00012074
0.000112544
0.000105904
0.000100604
9.63786e-05
9.30506e-05
8.50929e-05
9.04584e-05
8.84682e-05
8.3126e-05
8.45585e-05
8.36177e-05
8.43626e-05
8.32362e-05
8.29036e-05
8.44113e-05
8.55765e-05
8.58828e-05
8.64213e-05
8.72283e-05
8.84436e-05
9.00809e-05
9.22184e-05
9.49561e-05
9.84116e-05
0.000102719
0.000108013
0.000114398
0.000121948
0.000130693
0.000140555
0.000151419
0.000163139
0.000175444
0.000188226
0.000201016
0.000213876
0.000226918
0.000240247
0.000253963
0.000268348
0.000284007
0.000301009
0.000319347
0.000338992
0.000359788
0.00038143
0.000403456
0.000425308
0.000446349
0.000466044
0.000483992
0.000499916
0.000513708
0.000525412
0.000535167
0.000543204
0.000549783
0.000555174
0.000559622
0.000563355
0.000566567
0.000569431
0.00057209
0.000574676
0.000577305
0.000580087
0.000583131
0.000586546
0.000590454
0.00059499
0.00060031
0.000606597
0.000614067
0.000622973
0.000633618
0.000646358
0.000661629
0.000662813
0.000663666
0.000664397
0.000665114
0.000665843
0.000666572
0.000667192
0.000667488
0.000651535
0.000638209
0.000627065
0.000617735
0.000609907
0.00060332
0.000597749
0.000593008
0.000588938
0.000585398
0.000582269
0.000579441
0.000576807
0.000574273
0.00057173
0.000569066
0.000566153
0.000562847
0.000558977
0.000554345
0.000548726
0.000541866
0.000533494
0.000523344
0.000511178
0.000496834
0.000480249
0.000461513
0.000440897
0.000418861
0.000395939
0.000372777
0.000349892
0.000327746
0.000306637
0.000286598
0.0002674
0.00024884
0.000231256
0.000214291
0.000198119
0.000182644
0.000168153
0.000154688
0.000142431
0.000131514
0.000122157
0.000114262
0.000107698
0.000102325
9.80054e-05
9.45944e-05
8.69645e-05
9.18976e-05
8.3113e-05
8.37366e-05
8.58713e-05
8.53946e-05
8.45576e-05
8.39106e-05
8.30817e-05
8.2949e-05
8.55218e-05
8.65248e-05
8.67574e-05
8.71669e-05
8.7719e-05
8.86941e-05
9.0044e-05
9.18399e-05
9.41666e-05
9.71201e-05
0.000100819
0.000105386
0.000110931
0.000117534
0.00012522
0.000133948
0.000143586
0.000153916
0.000164683
0.000175633
0.000186513
0.00019712
0.000207216
0.000216966
0.00022649
0.000236009
0.000245677
0.000255858
0.000267028
0.000279413
0.000293196
0.000308537
0.00032551
0.000344061
0.000363977
0.000384878
0.000406196
0.000427375
0.000447789
0.000466852
0.000484141
0.000499446
0.000512642
0.000523796
0.000533093
0.000540762
0.000547092
0.000552323
0.000556725
0.000560524
0.000563924
0.000567101
0.000570216
0.00057341
0.000576831
0.0005806
0.000584862
0.000589771
0.000595492
0.000602217
0.000610167
0.000619593
0.00063078
0.000644055
0.000659802
0.00067849
0.000680001
0.000680867
0.000681478
0.000682098
0.000682858
0.00068378
0.000684839
0.000685875
0.000686604
0.000667129
0.000650633
0.000636681
0.000624902
0.000614973
0.000606594
0.000599508
0.000593492
0.000588347
0.000583903
0.00058001
0.000576528
0.000573321
0.000570281
0.000567264
0.000564133
0.000560734
0.000556892
0.000552407
0.000547047
0.000540565
0.000532688
0.000523148
0.000511704
0.000498197
0.000482535
0.000464816
0.000445284
0.000424351
0.000402587
0.000380679
0.000359195
0.000338692
0.000319522
0.000301863
0.000285693
0.000270832
0.00025696
0.000243751
0.000231129
0.000218591
0.0002061
0.000193536
0.000180998
0.000168573
0.000156519
0.000145175
0.00013485
0.000125622
0.000117574
0.000110747
0.000105146
0.000100566
8.98191e-05
9.68599e-05
0.000686609
9.39249e-05
8.33347e-05
8.82264e-05
8.39589e-05
8.51109e-05
8.47842e-05
8.36724e-05
8.65885e-05
8.57266e-05
8.30853e-05
8.31939e-05
8.67604e-05
8.7738e-05
8.77687e-05
8.80828e-05
8.85457e-05
8.93e-05
9.04013e-05
9.19369e-05
9.39561e-05
9.65437e-05
9.98067e-05
0.000103856
0.000108802
0.000114731
0.000121695
0.000129666
0.000138535
0.000148116
0.000158128
0.000168276
0.000178267
0.000187817
0.000196787
0.000205013
0.00021249
0.000219403
0.000225941
0.000232351
0.000238742
0.000245569
0.00025312
0.000261649
0.000271382
0.000282553
0.000295356
0.000309927
0.000326293
0.000344349
0.000363825
0.000384306
0.000405242
0.000425984
0.000445933
0.00046452
0.000481354
0.000496197
0.00050898
0.000519804
0.000528854
0.000536385
0.00054267
0.000547994
0.000552616
0.000556778
0.000560694
0.00056456
0.000568554
0.000572854
0.000577621
0.000583033
0.000589273
0.000596545
0.000605072
0.000615099
0.000626888
0.000640725
0.00065692
0.000675823
0.000697896
0.000700777
0.000702309
0.000703105
0.000703647
0.000704259
0.00070511
0.000706213
0.000707497
0.000708765
0.000709652
0.00070965
0.00068535
0.000665679
0.00064872
0.000634163
0.00062172
0.000611123
0.000602112
0.000594435
0.000587868
0.000582208
0.000577267
0.000572876
0.000568869
0.000565097
0.000561391
0.00055758
0.000553473
0.000548861
0.00054351
0.000537159
0.000529534
0.000520358
0.000509384
0.000496423
0.000481379
0.000464344
0.00044552
0.000425303
0.000404282
0.000383034
0.000362217
0.000342435
0.000324087
0.000307449
0.000292567
0.000279378
0.000267712
0.000257283
0.000247777
0.000238875
0.000230292
0.000221594
0.000212599
0.000203158
0.000193117
0.000182527
0.000171585
0.000160589
0.000149885
0.000139679
0.000130297
0.000122035
0.000114901
0.000108797
0.000103791
9.97017e-05
0.000708114
9.6419e-05
9.16362e-05
8.36281e-05
8.70478e-05
8.43357e-05
8.47317e-05
8.51726e-05
8.35357e-05
8.61086e-05
8.33059e-05
8.78617e-05
8.71082e-05
8.35249e-05
0.00072393
0.00072776
0.000729955
0.000731201
0.000732047
0.000732879
0.000733889
0.000735085
0.000736361
0.000737441
0.000737923
0.00073722
0.000734613
0.000704301
0.000682171
0.000662572
0.000645318
0.000630252
0.000617181
0.000605899
0.000596191
0.000587836
0.000580609
0.000574297
0.000568698
0.000563608
0.000558825
0.00055418
0.000549433
0.000544361
0.000538715
0.000532224
0.000524601
0.000515559
0.000504834
0.000492224
0.000477617
0.000461055
0.000442739
0.00042306
0.000402541
0.000381784
0.00036144
0.000342104
0.000324194
0.000308019
0.000293693
0.000281197
0.000270434
0.000261194
0.000253235
0.000246292
0.000240092
0.000234458
0.000228985
0.000223342
0.000217386
0.000210764
0.000203341
0.000195085
0.000185975
0.000176198
0.000165965
0.000155566
0.000145518
0.000136085
0.000127393
0.000119752
0.000113139
0.000107564
0.000102966
9.38134e-05
9.92528e-05
0.000729332
8.81518e-05
8.90338e-05
8.89561e-05
8.91338e-05
8.95165e-05
9.01326e-05
9.10139e-05
9.23389e-05
9.41078e-05
9.64025e-05
9.93159e-05
0.000102955
0.000107429
0.000112834
0.00011923
0.000126624
0.000134938
0.00014401
0.000153596
0.000163389
0.000173057
0.000182285
0.000190835
0.000198538
0.000205368
0.000211297
0.000216458
0.000221034
0.000225259
0.000229249
0.000233383
0.000237573
0.000242347
0.000247872
0.000254324
0.000261932
0.000270909
0.000281462
0.000293758
0.000307905
0.000323908
0.000341635
0.000360802
0.000380972
0.000401565
0.000421973
0.000441549
0.000459772
0.000476255
0.000490779
0.000503325
0.000513996
0.00052301
0.000530628
0.000537149
0.000542863
0.00054805
0.000552966
0.000557843
0.00056293
0.000568405
0.000574482
0.000581376
0.000589305
0.000598492
0.000609169
0.000621571
0.000635925
0.000652451
0.000671365
0.000692939
0.000717673
8.98613e-05
8.40803e-05
9.631e-05
9.18058e-05
8.62809e-05
8.48021e-05
8.44469e-05
8.56517e-05
8.368e-05
8.6576e-05
8.36083e-05
8.75451e-05
8.39894e-05
8.92404e-05
8.85605e-05
0.000720599
0.000697425
0.00067633
0.000657152
0.000639867
0.00062446
0.00061085
0.000598912
0.000588479
0.000579361
0.000571348
0.000564212
0.000557719
0.000551611
0.000545735
0.000539759
0.00053343
0.000526457
0.000518534
0.00050936
0.000498653
0.000486184
0.000471827
0.000455584
0.000437641
0.000418351
0.000398235
0.000377871
0.000357932
0.00033895
0.000321366
0.000305523
0.000291569
0.000279463
0.000269161
0.000260475
0.000253204
0.000247144
0.000242058
0.000237775
0.000234107
0.000230628
0.000227362
0.000223957
0.000220255
0.000215996
0.000211068
0.000205208
0.000198317
0.000190409
0.000181527
0.000171971
0.000162088
0.000152077
0.000142459
0.000133353
0.000125188
0.00011798
0.000111806
0.000106655
0.000102483
9.02627e-05
9.02689e-05
9.05919e-05
9.11164e-05
9.17997e-05
9.29521e-05
9.45081e-05
9.6558e-05
9.91813e-05
0.000102478
0.000106556
0.000111516
0.000117433
0.000124337
0.000132183
0.000140843
0.000150104
0.000159679
0.000169235
0.000178439
0.000186995
0.000194692
0.000201409
0.000207125
0.00021191
0.000215848
0.000219128
0.000221908
0.000224389
0.000226676
0.00022907
0.000231568
0.000234302
0.000237497
0.000241443
0.00024626
0.000252102
0.00025918
0.000267698
0.00027785
0.000289789
0.00030361
0.000319312
0.000336747
0.000355635
0.00037551
0.000395816
0.000415915
0.000435196
0.00045314
0.00046938
0.000483746
0.000496231
0.000506975
0.000516205
0.000524218
0.000531322
0.000537833
0.000544051
0.000550237
0.000556743
0.00056372
0.000571436
0.000580137
0.000590052
0.000601396
0.000614362
0.00062911
0.000645759
0.000664392
0.000685111
0.000708172
0.00073434
0.000746725
0.000755573
0.000761639
0.00076567
0.000768369
0.000770285
0.000771795
0.000773091
0.000774155
0.000774872
0.000774932
0.000773903
0.000771244
0.000766258
0.000758215
9.03794e-05
0.000746457
9.39846e-05
9.90856e-05
8.96088e-05
8.85361e-05
8.45947e-05
0.000776728
0.00079335
0.000806258
0.000815894
0.000822759
0.000827303
0.000829894
0.000830827
0.000830344
0.00082857
0.000825493
0.00082107
0.000815058
0.000807026
0.000796484
0.000782881
0.000765638
9.02645e-05
8.57629e-05
8.53737e-05
9.06864e-05
9.15858e-05
9.154e-05
9.17145e-05
9.2162e-05
9.27234e-05
9.37456e-05
9.50995e-05
9.69327e-05
9.93063e-05
0.000102308
0.000106045
0.000110616
0.000116108
0.00012257
0.000129989
0.000138272
0.000147239
0.000156631
0.000166126
0.000175388
0.000184094
0.000191987
0.000198896
0.000204753
0.000209567
0.000213434
0.000216474
0.000218827
0.000220665
0.000222122
0.000223327
0.000224434
0.000225481
0.000226782
0.000228213
0.000229875
0.000231931
0.000234586
0.000238016
0.000242371
0.000247794
0.00025449
0.000262655
0.000272471
0.000284096
0.00029762
0.000313032
0.000330194
0.000348797
0.000368406
0.000388447
0.000408296
0.000427355
0.000445128
0.000461288
0.000475688
0.000488362
0.000499467
0.000509268
0.000518081
0.000526244
0.000534092
0.000541904
0.000550167
0.000558948
0.000568572
0.000579283
0.000591278
0.000604705
0.000619653
0.000636146
0.000654154
0.000673642
0.000694691
0.000717768
0.000744323
9.6463e-05
9.22056e-05
8.43384e-05
8.62385e-05
8.39012e-05
8.71574e-05
8.40591e-05
8.81098e-05
8.45274e-05
8.90884e-05
9.00834e-05
9.17901e-05
9.11001e-05
9.42361e-05
9.32063e-05
0.000756028
0.000730426
0.000707746
0.000686754
0.000667075
0.000648693
0.000631701
0.00061619
0.000602201
0.000589677
0.000578515
0.000568551
0.000559582
0.000551371
0.000543602
0.000536179
0.000528652
0.000520746
0.000512135
0.000502489
0.000491504
0.000478931
0.000464608
0.000448517
0.000430799
0.000411788
0.000391966
0.000371933
0.000352294
0.000333651
0.000316387
0.000300869
0.000287177
0.000275405
0.000265431
0.000257107
0.000250245
0.00024466
0.000240115
0.000236476
0.000233636
0.000231302
0.000229233
0.000227262
0.000225583
0.000223794
0.000221777
0.000219352
0.000216323
0.00021257
0.000207862
0.000202084
0.000195159
0.000187197
0.000178347
0.000168739
0.000158888
0.000149092
0.000139785
0.00013103
0.000123211
0.000116488
0.000110782
0.000106053
0.000102259
0.000815467
9.43566e-05
9.9142e-05
0.000196959
0.000787569
8.75724e-05
8.52187e-05
0.000840089
0.000861503
0.000879704
0.00089459
0.000906119
0.00091421
0.000918718
0.000919639
0.000917077
0.000910961
0.000901573
0.00088899
0.000873252
0.000854376
0.000832258
0.000806798
0.000777951
8.91681e-05
8.54565e-05
8.60186e-05
9.41397e-05
9.28569e-05
9.28978e-05
9.32764e-05
9.38198e-05
9.46466e-05
9.58172e-05
9.74748e-05
9.96335e-05
0.00010238
0.000105819
0.000110049
0.00011516
0.000121217
0.000128232
0.000136148
0.000144819
0.000154017
0.000163443
0.000172762
0.00018164
0.000189789
0.000196996
0.000203144
0.000208208
0.000212242
0.000215347
0.000217668
0.000219335
0.000220494
0.000221266
0.000221772
0.000222099
0.000222329
0.000222544
0.000222791
0.000223232
0.000223955
0.000224791
0.000225966
0.000227577
0.000229849
0.000232914
0.00023692
0.000242013
0.000248391
0.000256246
0.000265764
0.000277098
0.000290336
0.000305472
0.00032236
0.00034071
0.000360076
0.000379904
0.000399585
0.000418542
0.00043632
0.000452621
0.000467339
0.000480531
0.000492399
0.000503234
0.000513375
0.000523174
0.000532898
0.000543184
0.000553968
0.000565586
0.000578211
0.00059197
0.000606891
0.000622921
0.000639951
0.00065786
0.000676626
0.000696538
0.000718656
0.000745599
9.08613e-05
8.44752e-05
8.68958e-05
9.6752e-05
9.27815e-05
8.42913e-05
8.78126e-05
8.45776e-05
8.87545e-05
8.51633e-05
8.97091e-05
9.06751e-05
9.16471e-05
9.3581e-05
0.000870682
0.000831137
9.60182e-05
9.61783e-05
0.000756279
0.000730996
0.000709705
0.000690225
0.000671648
0.000653725
0.000636504
0.000620146
0.000604821
0.000590636
0.000577622
0.000565715
0.000554776
0.0005446
0.000534878
0.000525607
0.000516204
0.000506395
0.000495836
0.000484192
0.000471185
0.000456626
0.000440457
0.00042279
0.000403917
0.000384297
0.000364497
0.000345121
0.000326718
0.000309762
0.000294515
0.000281141
0.000269633
0.000259982
0.000251956
0.000245421
0.000240161
0.000236005
0.000232761
0.000230339
0.000228539
0.000227071
0.000225999
0.000225011
0.000224349
0.000223697
0.000223027
0.000222184
0.000221054
0.000219511
0.000217402
0.000214542
0.000210768
0.000205929
0.000199941
0.000192804
0.000184508
0.00017546
0.000165913
0.000156062
0.000146358
0.000137336
0.000129042
0.000121689
0.000115344
0.000110087
0.000105674
0.000102195
9.56002e-05
9.44922e-05
9.4875e-05
9.9372e-05
0.000247009
8.70324e-05
8.58972e-05
0.000908571
0.000944284
0.000976969
0.0010056
0.0010293
0.00104701
0.00105794
0.00106155
0.00105775
0.00104665
0.00102881
0.00100498
0.000976212
0.000943115
0.0009065
0.000867289
0.000826001
0.000782968
8.84123e-05
8.52998e-05
8.67389e-05
0.000103721
9.4155e-05
9.4427e-05
9.49404e-05
9.55756e-05
9.66943e-05
9.81722e-05
0.000100142
0.000102669
0.000105838
0.000109767
0.000114535
0.000120221
0.000126855
0.000134408
0.000142771
0.000151748
0.000161068
0.000170407
0.00017943
0.000187825
0.000195347
0.000201838
0.000207235
0.000211556
0.000214884
0.000217341
0.00021906
0.000220182
0.000220828
0.000221109
0.000221119
0.000220933
0.000220624
0.00022024
0.000219835
0.000219451
0.000219125
0.000218904
0.000218982
0.00021923
0.0002197
0.000220548
0.000221846
0.000223812
0.000226591
0.000230315
0.000235134
0.000241236
0.000248821
0.000258072
0.000269134
0.000282107
0.000296982
0.000313629
0.000331761
0.000350956
0.000370668
0.000390321
0.000409377
0.000427407
0.000444158
0.000459561
0.00047371
0.000486825
0.000499213
0.000511205
0.000523018
0.000535373
0.000548156
0.000561475
0.000575486
0.000590185
0.000605478
0.000621235
0.000637311
0.000653647
0.000670454
0.000688529
0.000709794
0.000738394
8.99754e-05
8.47175e-05
8.76309e-05
9.16023e-05
8.47572e-05
8.85515e-05
9.71949e-05
9.34966e-05
8.52017e-05
8.94836e-05
8.58561e-05
9.04202e-05
9.13553e-05
9.22872e-05
0.000954697
0.000896632
9.32099e-05
9.41122e-05
7.47572e-05
9.49784e-05
0.00079008
0.000747495
0.000721577
0.000701534
0.000684122
0.000667741
0.000651679
0.000635742
0.000619983
0.000604569
0.000589689
0.000575489
0.000562031
0.00054929
0.000537087
0.000525309
0.000513978
0.000502433
0.000490439
0.000477664
0.000463807
0.000448651
0.000432105
0.000414242
0.000395317
0.000375749
0.000356078
0.000336882
0.000318701
0.000301964
0.00028697
0.000273853
0.000262631
0.000253225
0.000245486
0.000239201
0.000234213
0.000230353
0.000227437
0.000225342
0.000223887
0.00022278
0.000222193
0.000221686
0.000221499
0.00022151
0.0002216
0.000221712
0.00022179
0.000221764
0.000221556
0.000221059
0.000220163
0.000218736
0.000216608
0.000213617
0.000209612
0.000204467
0.000198084
0.000190589
0.000182117
0.0001728
0.00016307
0.000153439
0.000143971
0.000135201
0.000127208
0.000120371
0.000114452
0.00010953
0.000105496
0.000102302
0.0012337
9.5526e-05
9.97617e-05
2.28188e-05
0.00013873
8.66228e-05
8.66542e-05
0.00101312
0.00107035
0.00112439
0.00117302
0.0012139
0.00124501
0.00126501
0.00127268
0.00126758
0.00124994
0.00122073
0.0011815
0.00113396
0.00108
0.00102187
0.000961555
0.000900643
0.000840397
0.00078178
8.79309e-05
8.54173e-05
8.75197e-05
0.000143327
0.000104316
9.5547e-05
9.60317e-05
9.66762e-05
9.76284e-05
9.89404e-05
0.000100764
0.000103106
0.000106063
0.000109708
0.000114186
0.000119528
0.000125808
0.000133011
0.000141059
0.00014979
0.000158962
0.000168271
0.000177386
0.000185985
0.000193796
0.000200628
0.000206378
0.000211034
0.000214653
0.000217339
0.000219221
0.000220433
0.000221101
0.000221338
0.000221238
0.000220881
0.00022033
0.000219637
0.000218844
0.000217993
0.000217123
0.000216254
0.000215429
0.000214662
0.000213975
0.00021346
0.000213262
0.000213204
0.000213413
0.000214023
0.000215101
0.000216813
0.000219368
0.000222854
0.000227454
0.00023333
0.000240684
0.000249697
0.000260527
0.00027327
0.000287931
0.000304396
0.000322398
0.000341535
0.000361295
0.000381136
0.000400557
0.000419168
0.000436747
0.000453248
0.000468773
0.00048353
0.000497771
0.000511624
0.000525666
0.000540105
0.000554455
0.000568913
0.000583339
0.000597692
0.000611852
0.000625756
0.000639648
0.000654163
0.000670761
0.00069238
0.000724475
8.93379e-05
8.51076e-05
8.84279e-05
9.09178e-05
8.53362e-05
8.93528e-05
9.25419e-05
8.58822e-05
9.02819e-05
9.77891e-05
9.43558e-05
8.66229e-05
9.12066e-05
9.21239e-05
0.00107921
0.000995748
9.30279e-05
9.39123e-05
9.47786e-05
9.56202e-05
0.000840114
0.000784969
0.000703303
0.00068357
0.000667811
0.000653789
0.000640283
0.000626709
0.000612857
0.000598718
0.000584423
0.000570145
0.00055595
0.000541968
0.000527964
0.000514385
0.000500975
0.000487179
0.000472842
0.000457698
0.000441533
0.000424241
0.000405867
0.000386628
0.000366906
0.000347204
0.000328069
0.000310013
0.000293451
0.000278656
0.000265757
0.000254758
0.000245567
0.000238047
0.00023201
0.000227245
0.000223603
0.000220917
0.000219077
0.000217862
0.000217129
0.000216766
0.000216621
0.000216722
0.000217125
0.000217636
0.000218225
0.000218877
0.000219529
0.000220157
0.000220721
0.000221143
0.000221379
0.000221345
0.000220945
0.000220056
0.000218536
0.000216224
0.00021297
0.000208609
0.000203074
0.000196357
0.000188461
0.000179657
0.000170313
0.000160542
0.000150966
0.000141682
0.000133364
0.000125774
0.000119233
0.000113779
0.000109226
0.000105545
0.000102604
9.67167e-05
9.62956e-05
0.000100289
9.6456e-05
0.000730887
8.63899e-05
8.74597e-05
0.00116424
0.00124767
0.00132605
0.00139598
0.00145423
0.00149848
0.00152722
0.00153894
0.00153302
0.00150987
0.00147044
0.00141625
0.00134937
0.00127257
0.00118917
0.00110232
0.00101512
0.000930326
0.000849858
0.000774465
8.76082e-05
8.56376e-05
8.83594e-05
9.71191e-05
9.73056e-05
9.71605e-05
9.76382e-05
9.85108e-05
9.97139e-05
0.000101446
0.000103657
0.00010643
0.000109873
0.000114047
0.000119115
0.000125052
0.000131923
0.000139659
0.000148126
0.000157113
0.000166341
0.00017549
0.000184234
0.000192286
0.000199424
0.000205514
0.000210511
0.000214445
0.000217403
0.000219502
0.000220873
0.000221643
0.000221927
0.000221825
0.000221418
0.000220773
0.000219942
0.000218968
0.000217887
0.000216727
0.000215513
0.000214272
0.000213029
0.000211806
0.000210622
0.000209506
0.00020849
0.000207577
0.000206865
0.00020646
0.000206218
0.000206253
0.000206701
0.000207635
0.000209167
0.000211528
0.000214841
0.00021926
0.000224961
0.00023213
0.000240953
0.000251606
0.000264191
0.000278727
0.000295114
0.000313117
0.00033237
0.000352395
0.000372683
0.00039276
0.000412259
0.000430956
0.000448774
0.000465755
0.000481992
0.000497524
0.000512448
0.000527423
0.000542038
0.000555923
0.000569072
0.000581526
0.000593204
0.000604542
0.000616072
0.0006289
0.000645217
0.000668733
0.000704969
8.89455e-05
8.55939e-05
8.92845e-05
9.03857e-05
8.5981e-05
9.02178e-05
9.74026e-05
9.19041e-05
8.66395e-05
9.11466e-05
9.35266e-05
8.74376e-05
9.20646e-05
0.00124126
0.00113081
9.84944e-05
9.52955e-05
9.29668e-05
9.38511e-05
9.47186e-05
9.55621e-05
9.63331e-05
0.000916136
0.000841289
0.000771685
0.000677883
0.000657632
0.000642589
0.000630279
0.000619136
0.000608167
0.000596872
0.000585006
0.000572389
0.000559087
0.000545194
0.000530613
0.000515766
0.000501079
0.000485856
0.00046998
0.000453378
0.000435929
0.00041757
0.000398362
0.000378513
0.000358386
0.000338444
0.000319202
0.000301142
0.000284648
0.00026997
0.000257218
0.000246386
0.000237378
0.000230034
0.000224172
0.00021959
0.000216127
0.00021363
0.000211978
0.000210924
0.000210364
0.000210217
0.000210313
0.000210617
0.000211241
0.000212044
0.000212938
0.000213902
0.000214963
0.000216017
0.000217097
0.000218147
0.000219131
0.00022002
0.000220774
0.000221354
0.000221682
0.000221678
0.000221234
0.00022023
0.00021851
0.000215915
0.000212301
0.000207561
0.000201594
0.000194463
0.000186305
0.000177218
0.000167726
0.000157945
0.000148659
0.000139688
0.000131653
0.000124583
0.000118421
0.000113378
0.000109195
0.000105806
0.000103079
9.71444e-05
9.70507e-05
0.000100932
9.72054e-05
0.000706996
8.64644e-05
8.83248e-05
0.00135131
0.00145632
0.00155204
0.00163505
0.00170267
0.00175305
0.00178537
0.00179886
0.00179319
0.00176854
0.00172527
0.00166423
0.00158689
0.00149552
0.00139303
0.00128296
0.0011697
0.00105746
0.000950064
0.000850276
0.000759725
8.75937e-05
8.60195e-05
8.92498e-05
9.87116e-05
9.91816e-05
9.97584e-05
0.000100702
0.000102206
0.000104276
0.00010692
0.000110186
0.000114167
0.000118924
0.000124595
0.000131132
0.000138559
0.000146751
0.000155524
0.000164623
0.000173747
0.000182571
0.000190803
0.000198196
0.00020459
0.000209909
0.000214156
0.000217398
0.000219739
0.000221304
0.00022222
0.000222602
0.000222555
0.000222165
0.0002215
0.000220618
0.000219562
0.000218364
0.000217061
0.000215679
0.000214224
0.000212723
0.0002112
0.000209673
0.000208146
0.000206641
0.000205169
0.000203783
0.000202498
0.000201324
0.000200268
0.000199426
0.00019888
0.000198566
0.0001985
0.00019886
0.000199725
0.000201176
0.000203376
0.000206545
0.000210835
0.0002164
0.000223476
0.000232207
0.000242764
0.000255278
0.000269797
0.000286246
0.000304408
0.000323948
0.000344424
0.000365334
0.000386194
0.000406597
0.000426243
0.000444944
0.000462585
0.000479127
0.000494409
0.000508557
0.000522012
0.000534477
0.000545798
0.000556066
0.00056552
0.000574779
0.000584744
0.000597162
0.000614543
0.000640518
0.00067847
8.87836e-05
8.61803e-05
9.01934e-05
9.85591e-05
9.76404e-05
9.00594e-05
8.67069e-05
9.11366e-05
9.14591e-05
8.74459e-05
9.20692e-05
0.00141202
0.00128332
9.29747e-05
8.83099e-05
9.45608e-05
9.29848e-05
9.38806e-05
9.9296e-05
9.62974e-05
9.47557e-05
9.5605e-05
9.64073e-05
9.71598e-05
0.00102397
0.000923691
0.00083177
0.00074858
0.000645813
0.000625674
0.000610756
0.000599196
0.000589531
0.000580703
0.000571762
0.000562204
0.000551713
0.000540061
0.000527266
0.000513482
0.0004992
0.000483909
0.000467463
0.000450009
0.000431558
0.00041219
0.000392057
0.000371427
0.000350686
0.000330306
0.000310783
0.000292566
0.000276009
0.000261334
0.000248634
0.000237894
0.00022898
0.000221733
0.000215983
0.000211543
0.000208225
0.000205896
0.000204334
0.00020337
0.000202913
0.00020288
0.000203091
0.00020355
0.000204314
0.000205288
0.000206369
0.000207571
0.000208848
0.000210202
0.000211576
0.000212968
0.000214375
0.000215729
0.000217033
0.000218281
0.000219426
0.000220448
0.000221296
0.000221915
0.000222236
0.000222166
0.0002216
0.000220394
0.000218419
0.000215506
0.000211517
0.000206354
0.000200007
0.000192435
0.000183988
0.000174698
0.000165284
0.000155676
0.000146482
0.00013791
0.000130293
0.000123629
0.000118046
0.000113282
0.000109388
0.000106184
0.000103617
9.80445e-05
9.7902e-05
0.000101589
9.79196e-05
0.000673282
8.6641e-05
8.92327e-05
0.00153516
0.00164818
0.00174767
0.0018314
0.00189788
0.00194657
0.00197741
0.00199034
0.00198539
0.00196255
0.00192158
0.00186269
0.00178637
0.00169356
0.00158583
0.00146588
0.00133759
0.00120533