/*--------------------------------*- C++ -*----------------------------------*\
| =========                 |                                                 |
| \\      /  F ield         | OpenFOAM: The Open Source CFD Toolbox           |
|  \\    /   O peration     | Version:  2212                                  |
|   \\  /    A nd           | Website:  www.openfoam.com                      |
|    \\/     M anipulation  |                                                 |
\*---------------------------------------------------------------------------*/
FoamFile
{
    version     2.0;
    format      ascii;
    arch        "LSB;label=32;scalar=64";
    class       volScalarField;
    location    "0.474";
    object      k;
}
// * * * * * * * * * * * * * * * * * * * * * * * * * * * * * * * * * * * * * //

dimensions      [0 2 -2 0 0 0 0];

internalField   nonuniform List<scalar> 
24240
(
6.43435e-07
1.64296e-05
2.55726e-05
2.55641e-05
2.55709e-05
2.55788e-05
2.55878e-05
2.55974e-05
2.56076e-05
2.56179e-05
2.56281e-05
2.56379e-05
2.56472e-05
2.56559e-05
2.56637e-05
2.56706e-05
2.56762e-05
2.56946e-05
1.65296e-05
6.44203e-07
2.97524e-08
4.51509e-07
1.45455e-07
1.53079e-07
1.4594e-07
1.45969e-07
1.46001e-07
1.46037e-07
1.46074e-07
1.46113e-07
1.46151e-07
1.46188e-07
1.46224e-07
1.46257e-07
1.46287e-07
1.46314e-07
1.53502e-07
1.45914e-07
4.52961e-07
2.96895e-08
4.5642e-10
4.26539e-08
9.32655e-10
7.76811e-09
5.87866e-09
5.87858e-09
5.87864e-09
5.87872e-09
5.87881e-09
5.8789e-09
5.879e-09
5.8791e-09
5.87919e-09
5.87928e-09
5.87936e-09
5.87956e-09
7.76909e-09
9.34098e-10
4.27507e-08
4.56346e-10
4.24836e-12
1.69538e-09
8.25726e-12
1.48823e-07
1.50023e-07
1.5002e-07
1.50015e-07
1.50011e-07
1.50006e-07
1.50001e-07
1.49996e-07
1.49991e-07
1.49986e-07
1.49982e-07
1.49978e-07
1.49975e-07
1.48768e-07
8.02306e-12
1.6992e-09
4.25168e-12
3.57935e-14
1.3154e-11
1.8272e-12
1.62035e-07
1.63595e-07
1.63592e-07
1.63587e-07
1.63582e-07
1.63576e-07
1.63571e-07
1.63565e-07
1.6356e-07
1.63555e-07
1.6355e-07
1.63546e-07
1.63542e-07
1.61977e-07
1.99909e-12
1.31804e-11
3.58716e-14
1.2622e-15
7.47652e-14
9.61596e-13
8.90514e-08
8.98994e-08
8.98936e-08
8.98869e-08
8.98797e-08
8.98721e-08
8.98643e-08
8.98566e-08
8.98491e-08
8.9842e-08
8.98356e-08
8.98298e-08
8.98249e-08
8.89689e-08
8.75277e-13
7.49088e-14
1.26318e-15
1.00197e-15
1.38712e-15
9.09394e-13
8.97994e-08
9.07156e-08
9.07088e-08
9.0701e-08
9.06926e-08
9.06838e-08
9.06748e-08
9.06658e-08
9.06571e-08
9.06489e-08
9.06413e-08
9.06346e-08
9.06289e-08
8.97034e-08
9.48615e-13
1.38811e-15
1.00198e-15
1.00001e-15
1.00415e-15
4.39092e-13
4.58316e-08
4.62973e-08
4.62921e-08
4.62862e-08
4.62798e-08
4.62731e-08
4.62662e-08
4.62594e-08
4.62526e-08
4.62462e-08
4.62402e-08
4.62348e-08
4.62299e-08
4.57564e-08
4.3725e-13
1.00412e-15
1.00001e-15
1e-15
1.00201e-15
3.94381e-13
4.13606e-08
4.17748e-08
4.177e-08
4.17646e-08
4.17587e-08
4.17526e-08
4.17463e-08
4.174e-08
4.17338e-08
4.1728e-08
4.17224e-08
4.17173e-08
4.17126e-08
4.12909e-08
3.82019e-13
1.00193e-15
1e-15
1e-15
1.0017e-15
3.51665e-13
4.04426e-08
4.08403e-08
4.08355e-08
4.083e-08
4.08241e-08
4.08178e-08
4.08114e-08
4.08049e-08
4.07985e-08
4.07924e-08
4.07866e-08
4.07811e-08
4.07762e-08
4.03708e-08
3.83646e-13
1.00187e-15
1e-15
1e-15
1.0016e-15
3.32024e-13
3.44524e-08
3.47789e-08
3.47737e-08
3.47679e-08
3.47615e-08
3.47549e-08
3.4748e-08
3.47412e-08
3.47345e-08
3.47281e-08
3.47221e-08
3.47167e-08
3.47118e-08
3.43775e-08
2.83967e-13
1.00133e-15
1e-15
1e-15
1.00338e-15
6.71256e-13
7.23829e-08
7.3071e-08
7.30647e-08
7.30576e-08
7.30499e-08
7.30418e-08
7.30335e-08
7.30252e-08
7.30171e-08
7.30093e-08
7.3002e-08
7.29953e-08
7.29894e-08
7.22918e-08
7.77836e-13
1.00403e-15
1e-15
1e-15
1.00395e-15
7.62138e-13
6.70055e-08
6.75947e-08
6.75882e-08
6.75808e-08
6.75729e-08
6.75645e-08
6.7556e-08
6.75476e-08
6.75395e-08
6.75318e-08
6.75247e-08
6.75184e-08
6.75128e-08
6.69142e-08
6.06853e-13
1.00302e-15
1e-15
1e-15
1.00958e-15
1.75779e-12
1.73079e-07
1.74553e-07
1.74546e-07
1.74537e-07
1.74528e-07
1.74519e-07
1.7451e-07
1.745e-07
1.74492e-07
1.74483e-07
1.74476e-07
1.74469e-07
1.74463e-07
1.72979e-07
2.10227e-12
1.01194e-15
1e-15
1e-15
1.0131e-15
2.3005e-12
1.73935e-07
1.75297e-07
1.75289e-07
1.7528e-07
1.7527e-07
1.7526e-07
1.75249e-07
1.75239e-07
1.7523e-07
1.75221e-07
1.75213e-07
1.75207e-07
1.75201e-07
1.73827e-07
1.77754e-12
1.0097e-15
1e-15
1e-15
1.02687e-15
4.58465e-12
3.97202e-07
4.00216e-07
4.00218e-07
4.00219e-07
4.00221e-07
4.00222e-07
4.00224e-07
4.00227e-07
4.0023e-07
4.00233e-07
4.00237e-07
4.0024e-07
4.00243e-07
3.97232e-07
5.42757e-12
1.0332e-15
1e-15
1.00533e-15
1.14786e-15
6.59285e-12
4.23331e-07
4.26276e-07
4.26297e-07
4.263e-07
4.26303e-07
4.26306e-07
4.2631e-07
4.26301e-07
4.26319e-07
4.26324e-07
4.26329e-07
4.26334e-07
4.2632e-07
4.2338e-07
5.39796e-12
1.13902e-15
1.00534e-15
2.90615e-13
1.49668e-12
1.59378e-08
4.42598e-08
4.28997e-08
3.97633e-08
3.97632e-08
3.97631e-08
3.9763e-08
3.97629e-08
4.20381e-08
3.97605e-08
3.97603e-08
3.97603e-08
3.97603e-08
4.28933e-08
4.42569e-08
1.59288e-08
1.511e-12
2.91322e-13
9.7099e-10
1.4934e-08
1.21224e-07
1.44355e-07
1.29034e-07
1.28706e-07
1.28705e-07
1.28705e-07
1.28705e-07
1.28705e-07
1.28908e-07
1.28705e-07
1.28706e-07
1.28706e-07
1.28707e-07
1.29035e-07
1.44354e-07
1.21221e-07
1.49241e-08
9.72826e-10
5.27708e-05
0.000191623
0.000247266
0.000247394
0.000247422
0.000247456
0.000247495
0.000247538
0.000247584
0.000247631
0.000247678
0.000247724
0.000247768
0.00024781
0.000247849
0.000247885
0.000247916
0.000247834
0.000192083
5.29697e-05
3.22691e-07
1.29663e-05
2.26673e-05
2.2662e-05
2.26719e-05
2.26834e-05
2.26964e-05
2.27106e-05
2.27254e-05
2.27405e-05
2.27556e-05
2.27702e-05
2.27841e-05
2.27971e-05
2.28089e-05
2.28194e-05
2.2828e-05
2.28483e-05
1.30716e-05
3.2293e-07
6.69962e-09
3.37961e-08
1.6207e-07
1.70784e-07
1.62349e-07
1.62393e-07
1.62444e-07
1.625e-07
1.62558e-07
1.62618e-07
1.62678e-07
1.62737e-07
1.62793e-07
1.62846e-07
1.62894e-07
1.62938e-07
1.71444e-07
1.62792e-07
3.37223e-08
6.64435e-09
4.46205e-10
6.03687e-09
1.06013e-09
8.13642e-09
6.02666e-09
6.02664e-09
6.02682e-09
6.02703e-09
6.02726e-09
6.02749e-09
6.02774e-09
6.02798e-09
6.02822e-09
6.02845e-09
6.02866e-09
6.02905e-09
8.13879e-09
1.06223e-09
6.05085e-09
4.45331e-10
4.86977e-12
1.34907e-09
9.90159e-12
2.26925e-07
2.28864e-07
2.28859e-07
2.28853e-07
2.28846e-07
2.28839e-07
2.28831e-07
2.28823e-07
2.28815e-07
2.28808e-07
2.28801e-07
2.28794e-07
2.28788e-07
2.26839e-07
9.64745e-12
1.35215e-09
4.86736e-12
4.17964e-14
1.19315e-11
2.23793e-12
2.4385e-07
2.4625e-07
2.46245e-07
2.46239e-07
2.46232e-07
2.46224e-07
2.46216e-07
2.46208e-07
2.46201e-07
2.46193e-07
2.46186e-07
2.46179e-07
2.46172e-07
2.43764e-07
2.46346e-12
1.19569e-11
4.18394e-14
1.30533e-15
6.79336e-14
1.30019e-12
1.50724e-07
1.52182e-07
1.52174e-07
1.52163e-07
1.52152e-07
1.52141e-07
1.52129e-07
1.52116e-07
1.52105e-07
1.52093e-07
1.52082e-07
1.52072e-07
1.52063e-07
1.50591e-07
1.21889e-12
6.80734e-14
1.30613e-15
1.0022e-15
1.32467e-15
1.25918e-12
1.53586e-07
1.55137e-07
1.55126e-07
1.55114e-07
1.55101e-07
1.55087e-07
1.55073e-07
1.55058e-07
1.55044e-07
1.5503e-07
1.55017e-07
1.55006e-07
1.54995e-07
1.53428e-07
1.33363e-12
1.32573e-15
1.00221e-15
1.00001e-15
1.00429e-15
6.82662e-13
8.95158e-08
9.04043e-08
9.03936e-08
9.03815e-08
9.03684e-08
9.03545e-08
9.03402e-08
9.03258e-08
9.03118e-08
9.02982e-08
9.02854e-08
9.02736e-08
9.02631e-08
8.93579e-08
7.04779e-13
1.00432e-15
1.00001e-15
1e-15
1.00285e-15
6.4191e-13
8.32126e-08
8.40177e-08
8.40073e-08
8.39957e-08
8.3983e-08
8.39698e-08
8.39561e-08
8.39425e-08
8.39291e-08
8.39162e-08
8.39039e-08
8.38926e-08
8.38822e-08
8.30607e-08
6.33265e-13
1.00279e-15
1e-15
1e-15
1.00263e-15
6.23623e-13
8.58132e-08
8.66332e-08
8.66224e-08
8.66103e-08
8.65971e-08
8.65831e-08
8.65688e-08
8.65543e-08
8.65399e-08
8.65261e-08
8.65128e-08
8.65004e-08
8.64892e-08
8.56518e-08
7.01124e-13
1.00301e-15
1e-15
1e-15
1.00267e-15
6.32899e-13
7.72853e-08
7.80027e-08
7.79912e-08
7.79782e-08
7.79641e-08
7.79492e-08
7.7934e-08
7.79186e-08
7.79036e-08
7.7889e-08
7.78754e-08
7.78627e-08
7.78514e-08
7.7116e-08
5.51527e-13
1.00228e-15
1e-15
1e-15
1.00501e-15
1.1285e-12
1.47263e-07
1.48638e-07
1.48625e-07
1.4861e-07
1.48593e-07
1.48576e-07
1.48559e-07
1.48541e-07
1.48523e-07
1.48506e-07
1.4849e-07
1.48476e-07
1.48462e-07
1.47066e-07
1.3474e-12
1.00623e-15
1e-15
1e-15
1.0061e-15
1.34034e-12
1.42246e-07
1.43505e-07
1.43491e-07
1.43475e-07
1.43458e-07
1.4344e-07
1.43422e-07
1.43403e-07
1.43385e-07
1.43368e-07
1.43352e-07
1.43337e-07
1.43324e-07
1.42044e-07
1.08842e-12
1.0048e-15
1e-15
1e-15
1.01232e-15
2.54476e-12
2.93675e-07
2.9638e-07
2.96369e-07
2.96355e-07
2.96341e-07
2.96326e-07
2.96311e-07
2.96295e-07
2.96281e-07
2.96266e-07
2.96252e-07
2.96239e-07
2.96227e-07
2.93503e-07
3.12242e-12
1.0161e-15
1e-15
1e-15
1.01611e-15
3.21438e-12
2.92063e-07
2.94632e-07
2.94619e-07
2.94605e-07
2.9459e-07
2.94573e-07
2.94557e-07
2.9454e-07
2.94524e-07
2.94508e-07
2.94494e-07
2.9448e-07
2.94467e-07
2.91878e-07
2.55104e-12
1.01242e-15
1e-15
1e-15
1.02954e-15
5.61635e-12
5.46522e-07
5.51053e-07
5.5106e-07
5.51066e-07
5.51073e-07
5.51081e-07
5.51089e-07
5.51098e-07
5.51107e-07
5.51116e-07
5.51125e-07
5.51134e-07
5.51139e-07
5.46619e-07
6.838e-12
1.03814e-15
1e-15
1.00295e-15
1.14933e-15
7.49617e-12
5.70654e-07
5.75259e-07
5.7529e-07
5.75296e-07
5.75303e-07
5.7531e-07
5.75317e-07
5.75308e-07
5.75333e-07
5.75341e-07
5.75349e-07
5.75356e-07
5.75337e-07
5.70738e-07
6.13088e-12
1.1404e-15
1.00296e-15
1.57281e-13
1.26293e-12
1.40572e-08
3.46048e-08
3.34814e-08
3.11132e-08
3.11138e-08
3.11145e-08
3.11153e-08
3.11162e-08
3.28517e-08
3.1116e-08
3.11168e-08
3.11178e-08
3.11188e-08
3.3486e-08
3.46155e-08
1.40542e-08
1.28665e-12
1.58045e-13
5.50784e-10
1.48515e-08
9.67357e-08
1.14631e-07
1.02252e-07
1.02188e-07
1.02191e-07
1.02194e-07
1.02198e-07
1.02202e-07
1.02283e-07
1.0221e-07
1.02215e-07
1.0222e-07
1.02225e-07
1.02297e-07
1.14688e-07
9.67883e-08
1.48513e-08
5.52347e-10
3.93288e-05
0.000198334
0.00026099
0.00026113
0.000261169
0.000261217
0.000261273
0.000261334
0.0002614
0.000261468
0.000261536
0.000261604
0.00026167
0.000261733
0.000261793
0.000261848
0.000261897
0.000261826
0.000199056
3.95619e-05
2.94851e-07
1.1347e-05
1.99675e-05
1.99475e-05
1.99559e-05
1.99657e-05
1.99769e-05
1.99891e-05
2.00018e-05
2.00149e-05
2.00279e-05
2.00406e-05
2.00527e-05
2.0064e-05
2.00743e-05
2.00836e-05
2.00913e-05
2.01241e-05
1.14426e-05
2.9508e-07
3.05951e-09
3.18238e-08
1.61291e-07
1.71471e-07
1.61875e-07
1.61917e-07
1.61965e-07
1.62018e-07
1.62073e-07
1.6213e-07
1.62187e-07
1.62243e-07
1.62297e-07
1.62347e-07
1.62394e-07
1.62436e-07
1.72103e-07
1.6198e-07
3.18992e-08
3.04198e-09
3.45796e-10
5.87375e-10
1.06314e-09
8.58507e-09
6.37027e-09
6.37017e-09
6.37027e-09
6.37038e-09
6.3705e-09
6.37063e-09
6.37076e-09
6.37089e-09
6.37102e-09
6.37113e-09
6.37124e-09
6.37154e-09
8.58639e-09
1.06518e-09
5.8891e-10
3.43771e-10
4.10494e-12
2.05384e-10
1.01677e-11
2.60207e-07
2.62477e-07
2.62472e-07
2.62466e-07
2.62458e-07
2.62451e-07
2.62443e-07
2.62434e-07
2.62426e-07
2.62418e-07
2.62411e-07
2.62403e-07
2.62396e-07
2.60116e-07
9.93129e-12
2.05851e-10
4.08957e-12
3.53804e-14
9.0802e-13
2.36943e-12
2.7812e-07
2.80879e-07
2.80874e-07
2.80867e-07
2.8086e-07
2.80851e-07
2.80843e-07
2.80834e-07
2.80826e-07
2.80818e-07
2.8081e-07
2.80802e-07
2.80794e-07
2.78025e-07
2.59861e-12
9.10296e-13
3.53117e-14
1.25072e-15
4.35073e-15
1.41859e-12
1.79844e-07
1.81611e-07
1.81601e-07
1.81591e-07
1.81579e-07
1.81566e-07
1.81553e-07
1.81539e-07
1.81526e-07
1.81513e-07
1.81501e-07
1.8149e-07
1.81479e-07
1.79697e-07
1.35105e-12
4.35885e-15
1.25063e-15
1.00174e-15
1.01636e-15
1.37811e-12
1.83143e-07
1.84999e-07
1.84988e-07
1.84975e-07
1.84961e-07
1.84946e-07
1.8493e-07
1.84914e-07
1.84899e-07
1.84883e-07
1.84869e-07
1.84856e-07
1.84844e-07
1.82969e-07
1.46279e-12
1.01685e-15
1.00174e-15
1e-15
1.00338e-15
7.81003e-13
1.16382e-07
1.17553e-07
1.17541e-07
1.17528e-07
1.17514e-07
1.17499e-07
1.17483e-07
1.17467e-07
1.17451e-07
1.17436e-07
1.17421e-07
1.17407e-07
1.17394e-07
1.16204e-07
8.15614e-13
1.00348e-15
1e-15
1e-15
1.00314e-15
7.41742e-13
1.11177e-07
1.12252e-07
1.1224e-07
1.12226e-07
1.12211e-07
1.12195e-07
1.12179e-07
1.12163e-07
1.12146e-07
1.1213e-07
1.12115e-07
1.12101e-07
1.12087e-07
1.10992e-07
7.36355e-13
1.0031e-15
1e-15
1e-15
1.00296e-15
7.36665e-13
1.18243e-07
1.1938e-07
1.19366e-07
1.1935e-07
1.19333e-07
1.19315e-07
1.19296e-07
1.19277e-07
1.19258e-07
1.19239e-07
1.19221e-07
1.19204e-07
1.19189e-07
1.18029e-07
8.32236e-13
1.00341e-15
1e-15
1e-15
1.00304e-15
7.62555e-13
1.10419e-07
1.11458e-07
1.11444e-07
1.11428e-07
1.1141e-07
1.11392e-07
1.11373e-07
1.11353e-07
1.11334e-07
1.11315e-07
1.11298e-07
1.11281e-07
1.11265e-07
1.10203e-07
6.73174e-13
1.00264e-15
1e-15
1e-15
1.0055e-15
1.30389e-12
1.89948e-07
1.91746e-07
1.91729e-07
1.91711e-07
1.9169e-07
1.91668e-07
1.91646e-07
1.91623e-07
1.916e-07
1.91578e-07
1.91557e-07
1.91537e-07
1.91518e-07
1.89692e-07
1.55992e-12
1.00691e-15
1e-15
1e-15
1.00675e-15
1.56115e-12
1.86592e-07
1.88277e-07
1.8826e-07
1.88241e-07
1.8822e-07
1.88198e-07
1.88175e-07
1.88152e-07
1.8813e-07
1.88107e-07
1.88086e-07
1.88066e-07
1.88048e-07
1.86334e-07
1.28943e-12
1.00543e-15
1e-15
1e-15
1.01294e-15
2.80567e-12
3.43534e-07
3.46768e-07
3.46754e-07
3.46738e-07
3.46721e-07
3.46702e-07
3.46684e-07
3.46665e-07
3.46646e-07
3.46628e-07
3.46611e-07
3.46594e-07
3.46578e-07
3.43321e-07
3.44932e-12
1.01709e-15
1e-15
1e-15
1.0165e-15
3.46206e-12
3.42304e-07
3.45404e-07
3.4539e-07
3.45374e-07
3.45356e-07
3.45337e-07
3.45318e-07
3.45298e-07
3.45279e-07
3.4526e-07
3.45243e-07
3.45226e-07
3.4521e-07
3.42084e-07
2.82357e-12
1.01309e-15
1e-15
1e-15
1.02984e-15
5.86404e-12
5.9602e-07
6.01272e-07
6.01281e-07
6.01288e-07
6.01297e-07
6.01305e-07
6.01316e-07
6.01326e-07
6.01338e-07
6.01349e-07
6.0136e-07
6.01369e-07
6.01376e-07
5.96135e-07
7.17005e-12
1.03891e-15
1e-15
1.0055e-15
1.15259e-15
7.92894e-12
6.19307e-07
6.24587e-07
6.24608e-07
6.24616e-07
6.24626e-07
6.24635e-07
6.24646e-07
6.24648e-07
6.24668e-07
6.24678e-07
6.24688e-07
6.24697e-07
6.24692e-07
6.19421e-07
6.61297e-12
1.14534e-15
1.00551e-15
1.93239e-13
1.15866e-12
1.35949e-08
3.1856e-08
3.03942e-08
2.80467e-08
2.8046e-08
2.80452e-08
2.80442e-08
2.80433e-08
2.9903e-08
2.80397e-08
2.80386e-08
2.80376e-08
2.80366e-08
3.03644e-08
3.18331e-08
1.35956e-08
1.17791e-12
1.93826e-13
6.50959e-10
1.39567e-08
1.05333e-07
1.25245e-07
1.11879e-07
1.11714e-07
1.11714e-07
1.11714e-07
1.11713e-07
1.11713e-07
1.11859e-07
1.11712e-07
1.11712e-07
1.11712e-07
1.11713e-07
1.11878e-07
1.25243e-07
1.0533e-07
1.39689e-08
6.52172e-10
3.41913e-05
0.000196807
0.000261296
0.000261442
0.000261485
0.000261536
0.000261596
0.000261662
0.000261733
0.000261806
0.00026188
0.000261953
0.000262025
0.000262094
0.00026216
0.000262221
0.000262274
0.000262203
0.000197619
3.44245e-05
2.70702e-07
6.26778e-06
1.21954e-05
1.21935e-05
1.21985e-05
1.22041e-05
1.22106e-05
1.22177e-05
1.22252e-05
1.22329e-05
1.22406e-05
1.22482e-05
1.22555e-05
1.22625e-05
1.22689e-05
1.22747e-05
1.22795e-05
1.2289e-05
6.31774e-06
2.70949e-07
2.45184e-09
5.53239e-08
1.27536e-07
1.38827e-07
1.27881e-07
1.27905e-07
1.27932e-07
1.27962e-07
1.27993e-07
1.28026e-07
1.28058e-07
1.28091e-07
1.28122e-07
1.28152e-07
1.2818e-07
1.28205e-07
1.39193e-07
1.27934e-07
5.55629e-08
2.45324e-09
1.26986e-10
1.01475e-10
9.23751e-10
8.70387e-09
6.37135e-09
6.37121e-09
6.37129e-09
6.37139e-09
6.37149e-09
6.37159e-09
6.3717e-09
6.37181e-09
6.37191e-09
6.37201e-09
6.37209e-09
6.37245e-09
8.70507e-09
9.24923e-10
1.01263e-10
1.25202e-10
1.3621e-12
1.7956e-12
9.50549e-12
2.71459e-07
2.73861e-07
2.73857e-07
2.73851e-07
2.73845e-07
2.73838e-07
2.73831e-07
2.73823e-07
2.73816e-07
2.73808e-07
2.73801e-07
2.73794e-07
2.73786e-07
2.71375e-07
9.30508e-12
1.79666e-12
1.34207e-12
1.14817e-14
1.4883e-14
2.42437e-12
2.89442e-07
2.92345e-07
2.9234e-07
2.92334e-07
2.92327e-07
2.92319e-07
2.92311e-07
2.92302e-07
2.92294e-07
2.92286e-07
2.92278e-07
2.9227e-07
2.92262e-07
2.89348e-07
2.64813e-12
1.48962e-14
1.13414e-14
1.07177e-15
1.09993e-15
1.48427e-12
1.93617e-07
1.9556e-07
1.95552e-07
1.95542e-07
1.95532e-07
1.9552e-07
1.95508e-07
1.95495e-07
1.95483e-07
1.95471e-07
1.95459e-07
1.95448e-07
1.95438e-07
1.93479e-07
1.42945e-12
1.09962e-15
1.07092e-15
1.00042e-15
1.00732e-15
1.4538e-12
1.96585e-07
1.98599e-07
1.98589e-07
1.98577e-07
1.98564e-07
1.98549e-07
1.98535e-07
1.98519e-07
1.98505e-07
1.9849e-07
1.98476e-07
1.98463e-07
1.98451e-07
1.96419e-07
1.54772e-12
1.00781e-15
1.00042e-15
1e-15
1.00363e-15
8.67236e-13
1.29964e-07
1.31289e-07
1.31278e-07
1.31265e-07
1.31251e-07
1.31235e-07
1.3122e-07
1.31203e-07
1.31187e-07
1.31171e-07
1.31156e-07
1.31141e-07
1.31128e-07
1.29783e-07
9.20607e-13
1.00383e-15
1e-15
1e-15
1.00355e-15
8.40039e-13
1.24912e-07
1.26129e-07
1.26117e-07
1.26103e-07
1.26087e-07
1.26071e-07
1.26054e-07
1.26037e-07
1.2602e-07
1.26003e-07
1.25987e-07
1.25972e-07
1.25958e-07
1.24718e-07
8.36909e-13
1.00353e-15
1e-15
1e-15
1.00341e-15
8.4185e-13
1.33595e-07
1.34894e-07
1.34879e-07
1.34863e-07
1.34846e-07
1.34827e-07
1.34808e-07
1.34788e-07
1.34768e-07
1.34749e-07
1.3473e-07
1.34712e-07
1.34695e-07
1.33373e-07
9.60644e-13
1.00398e-15
1e-15
1e-15
1.00347e-15
8.64526e-13
1.26545e-07
1.27753e-07
1.2774e-07
1.27724e-07
1.27707e-07
1.27688e-07
1.27669e-07
1.2765e-07
1.27631e-07
1.27611e-07
1.27593e-07
1.27575e-07
1.2756e-07
1.26327e-07
7.80208e-13
1.0031e-15
1e-15
1e-15
1.00612e-15
1.44595e-12
2.09526e-07
2.11541e-07
2.11524e-07
2.11505e-07
2.11484e-07
2.11462e-07
2.11439e-07
2.11416e-07
2.11393e-07
2.1137e-07
2.11348e-07
2.11327e-07
2.11308e-07
2.09264e-07
1.75105e-12
1.00781e-15
1e-15
1e-15
1.00725e-15
1.68925e-12
2.0773e-07
2.09609e-07
2.09593e-07
2.09574e-07
2.09553e-07
2.09531e-07
2.09508e-07
2.09485e-07
2.09462e-07
2.09439e-07
2.09418e-07
2.09397e-07
2.09378e-07
2.07469e-07
1.43346e-12
1.00605e-15
1e-15
1e-15
1.01322e-15
2.92053e-12
3.61907e-07
3.65379e-07
3.65366e-07
3.65349e-07
3.65332e-07
3.65313e-07
3.65294e-07
3.65274e-07
3.65256e-07
3.65236e-07
3.65218e-07
3.65201e-07
3.65184e-07
3.61686e-07
3.63244e-12
1.01771e-15
1e-15
1e-15
1.01654e-15
3.53865e-12
3.62139e-07
3.65499e-07
3.65487e-07
3.65471e-07
3.65455e-07
3.65438e-07
3.6542e-07
3.65401e-07
3.65383e-07
3.65364e-07
3.65347e-07
3.65329e-07
3.65313e-07
3.61928e-07
2.96076e-12
1.01342e-15
1e-15
1e-15
1.02875e-15
5.83385e-12
5.98591e-07
6.04175e-07
6.04183e-07
6.04189e-07
6.04198e-07
6.04205e-07
6.04215e-07
6.04225e-07
6.04236e-07
6.04246e-07
6.04256e-07
6.04265e-07
6.04271e-07
5.98698e-07
7.19205e-12
1.03885e-15
1e-15
1.0101e-15
1.1798e-15
7.48706e-12
6.17924e-07
6.23384e-07
6.23392e-07
6.23401e-07
6.23412e-07
6.23422e-07
6.23434e-07
6.23447e-07
6.23457e-07
6.23468e-07
6.23479e-07
6.23488e-07
6.23495e-07
6.18045e-07
6.51651e-12
1.17432e-15
1.01011e-15
1.508e-13
1.05208e-12
1.12786e-08
2.5675e-08
2.52159e-08
2.26028e-08
2.26033e-08
2.2604e-08
2.26047e-08
2.26055e-08
2.41338e-08
2.2605e-08
2.26058e-08
2.26068e-08
2.26078e-08
2.51499e-08
2.56792e-08
1.12845e-08
1.07467e-12
1.5129e-13
4.79284e-10
1.27949e-08
8.7428e-08
1.03333e-07
9.1975e-08
9.18494e-08
9.18515e-08
9.18538e-08
9.1856e-08
9.18586e-08
9.18784e-08
9.18642e-08
9.18674e-08
9.18713e-08
9.18755e-08
9.20053e-08
1.03377e-07
8.74728e-08
1.28007e-08
4.81077e-10
2.64827e-05
0.000152022
0.000204591
0.000204772
0.000204801
0.000204836
0.000204877
0.000204923
0.000204973
0.000205026
0.000205081
0.000205136
0.000205192
0.000205247
0.000205299
0.000205351
0.000205396
0.000205275
0.000152602
2.66581e-05
2.30341e-07
5.29869e-06
1.04914e-05
1.04831e-05
1.0487e-05
1.04915e-05
1.04967e-05
1.05023e-05
1.05083e-05
1.05145e-05
1.05208e-05
1.0527e-05
1.0533e-05
1.05388e-05
1.0544e-05
1.05488e-05
1.05529e-05
1.05675e-05
5.34318e-06
2.30629e-07
1.43642e-09
3.46665e-08
6.14257e-08
7.40069e-08
6.14313e-08
6.14348e-08
6.14397e-08
6.14453e-08
6.14515e-08
6.14584e-08
6.14656e-08
6.14731e-08
6.14807e-08
6.14882e-08
6.14954e-08
6.15028e-08
7.40882e-08
6.15146e-08
3.47651e-08
1.44369e-09
1.44612e-11
2.59743e-10
4.94804e-10
8.58389e-09
6.07512e-09
6.07489e-09
6.07491e-09
6.07493e-09
6.07496e-09
6.07499e-09
6.07503e-09
6.07506e-09
6.0751e-09
6.07512e-09
6.07515e-09
6.07571e-09
8.58453e-09
4.95055e-10
2.60179e-10
1.41856e-11
1e-15
1.87948e-12
6.59792e-12
2.86906e-07
2.89571e-07
2.89568e-07
2.89564e-07
2.89559e-07
2.89554e-07
2.89548e-07
2.89541e-07
2.89535e-07
2.89529e-07
2.89522e-07
2.89515e-07
2.89508e-07
2.86833e-07
6.45103e-12
1.88127e-12
1e-15
1.30197e-15
1.46869e-14
2.47593e-12
3.02494e-07
3.05558e-07
3.05555e-07
3.05549e-07
3.05543e-07
3.05537e-07
3.0553e-07
3.05523e-07
3.05515e-07
3.05508e-07
3.05501e-07
3.05493e-07
3.05485e-07
3.02411e-07
2.68639e-12
1.4694e-14
1.30021e-15
1.00137e-15
1.11519e-15
1.54417e-12
2.09685e-07
2.11901e-07
2.11895e-07
2.11887e-07
2.11878e-07
2.11869e-07
2.11859e-07
2.11849e-07
2.11838e-07
2.11828e-07
2.11817e-07
2.11807e-07
2.11798e-07
2.0957e-07
1.51092e-12
1.11491e-15
1.00137e-15
1e-15
1.00763e-15
1.54233e-12
2.14094e-07
2.16372e-07
2.16365e-07
2.16356e-07
2.16346e-07
2.16335e-07
2.16324e-07
2.16312e-07
2.16301e-07
2.16289e-07
2.16278e-07
2.16267e-07
2.16258e-07
2.13966e-07
1.64018e-12
1.00813e-15
1e-15
1e-15
1.00397e-15
9.63206e-13
1.48816e-07
1.50381e-07
1.50371e-07
1.50359e-07
1.50346e-07
1.50332e-07
1.50318e-07
1.50303e-07
1.50288e-07
1.50273e-07
1.50258e-07
1.50244e-07
1.50231e-07
1.48646e-07
1.03555e-12
1.00425e-15
1e-15
1e-15
1.0039e-15
9.42576e-13
1.44344e-07
1.45791e-07
1.4578e-07
1.45767e-07
1.45752e-07
1.45737e-07
1.45722e-07
1.45706e-07
1.4569e-07
1.45674e-07
1.45659e-07
1.45644e-07
1.4563e-07
1.44162e-07
9.47677e-13
1.0039e-15
1e-15
1e-15
1.00384e-15
9.63251e-13
1.54696e-07
1.56246e-07
1.56234e-07
1.5622e-07
1.56205e-07
1.56189e-07
1.56173e-07
1.56156e-07
1.56139e-07
1.56122e-07
1.56105e-07
1.5609e-07
1.56075e-07
1.54504e-07
1.1029e-12
1.0045e-15
1e-15
1e-15
1.0039e-15
9.82546e-13
1.48047e-07
1.49517e-07
1.49506e-07
1.49493e-07
1.49479e-07
1.49464e-07
1.49449e-07
1.49432e-07
1.49416e-07
1.494e-07
1.49384e-07
1.49369e-07
1.49356e-07
1.47867e-07
9.11928e-13
1.0036e-15
1e-15
1e-15
1.00663e-15
1.59389e-12
2.32121e-07
2.34465e-07
2.34451e-07
2.34436e-07
2.3442e-07
2.34402e-07
2.34384e-07
2.34365e-07
2.34347e-07
2.34328e-07
2.34311e-07
2.34294e-07
2.34279e-07
2.31914e-07
1.92798e-12
1.00844e-15
1e-15
1e-15
1.00762e-15
1.81344e-12
2.31319e-07
2.33553e-07
2.3354e-07
2.33525e-07
2.33509e-07
2.33491e-07
2.33473e-07
2.33454e-07
2.33435e-07
2.33416e-07
2.33398e-07
2.33381e-07
2.33366e-07
2.31109e-07
1.59245e-12
1.00663e-15
1e-15
1e-15
1.0133e-15
3.00181e-12
3.7509e-07
3.78824e-07
3.78814e-07
3.788e-07
3.78787e-07
3.78771e-07
3.78756e-07
3.78739e-07
3.78724e-07
3.78707e-07
3.78692e-07
3.78676e-07
3.78662e-07
3.74907e-07
3.72724e-12
1.01784e-15
1e-15
1e-15
1.01629e-15
3.58218e-12
3.7649e-07
3.80041e-07
3.8003e-07
3.80016e-07
3.80002e-07
3.79986e-07
3.79969e-07
3.79952e-07
3.79935e-07
3.79918e-07
3.79901e-07
3.79885e-07
3.7987e-07
3.76294e-07
3.0565e-12
1.01363e-15
1e-15
1.00002e-15
1.02657e-15
5.75187e-12
6.04e-07
6.09829e-07
6.09838e-07
6.09846e-07
6.09855e-07
6.09864e-07
6.09875e-07
6.09886e-07
6.09898e-07
6.0991e-07
6.09922e-07
6.09932e-07
6.0994e-07
6.04123e-07
7.13216e-12
1.03642e-15
1.00002e-15
1.02577e-15
1.27033e-15
7.12987e-12
6.24927e-07
6.30695e-07
6.30703e-07
6.30712e-07
6.30723e-07
6.30733e-07
6.30745e-07
6.30757e-07
6.30769e-07
6.3078e-07
6.30791e-07
6.30801e-07
6.30809e-07
6.25053e-07
6.43567e-12
1.26657e-15
1.02579e-15
1.2584e-13
1.01232e-12
1.00907e-08
2.51131e-08
2.43053e-08
2.23288e-08
2.23289e-08
2.23291e-08
2.23292e-08
2.23293e-08
2.38022e-08
2.23278e-08
2.23279e-08
2.23281e-08
2.23284e-08
2.41185e-08
2.51225e-08
1.00897e-08
1.03347e-12
1.26295e-13
3.42066e-10
1.22395e-08
7.12728e-08
8.41251e-08
7.48059e-08
7.47409e-08
7.47426e-08
7.47442e-08
7.47457e-08
7.47473e-08
7.48126e-08
7.47509e-08
7.47531e-08
7.47559e-08
7.47591e-08
7.48239e-08
8.41575e-08
7.13078e-08
1.22475e-08
3.44002e-10
2.30381e-05
0.00014084
0.00018946
0.000189604
0.000189628
0.000189657
0.000189692
0.000189731
0.000189774
0.00018982
0.000189867
0.000189916
0.000189965
0.000190015
0.000190063
0.000190109
0.000190151
0.000190061
0.000141353
2.3221e-05
1.74236e-07
2.3442e-06
5.36994e-06
5.36449e-06
5.36661e-06
5.36898e-06
5.37175e-06
5.37478e-06
5.37803e-06
5.38141e-06
5.38485e-06
5.38829e-06
5.39163e-06
5.39483e-06
5.39777e-06
5.40046e-06
5.40261e-06
5.41147e-06
2.36334e-06
1.74487e-07
2.31932e-09
3.1064e-08
9.0872e-08
1.02332e-07
9.07241e-08
9.07377e-08
9.07542e-08
9.07724e-08
9.07919e-08
9.08123e-08
9.08331e-08
9.08538e-08
9.08741e-08
9.08934e-08
9.09113e-08
9.09283e-08
1.02562e-07
9.11234e-08
3.12019e-08
2.32473e-09
7.10677e-13
2.20881e-10
7.07105e-10
8.58934e-09
6.13906e-09
6.13887e-09
6.13894e-09
6.13902e-09
6.13911e-09
6.1392e-09
6.1393e-09
6.13939e-09
6.13948e-09
6.13956e-09
6.13963e-09
6.14056e-09
8.59054e-09
7.07913e-10
2.21303e-10
7.49684e-13
2.684e-14
1.61419e-12
7.75945e-12
2.85229e-07
2.87957e-07
2.87955e-07
2.87951e-07
2.87947e-07
2.87943e-07
2.87938e-07
2.87932e-07
2.87927e-07
2.87921e-07
2.87915e-07
2.87909e-07
2.87902e-07
2.85166e-07
7.62654e-12
1.61568e-12
2.69933e-14
1.13684e-15
1.27124e-14
2.41013e-12
3.00754e-07
3.03985e-07
3.03984e-07
3.03982e-07
3.03979e-07
3.03976e-07
3.03972e-07
3.03968e-07
3.03964e-07
3.03959e-07
3.03954e-07
3.03948e-07
3.0394e-07
3.00702e-07
2.58074e-12
1.272e-14
1.13785e-15
1.00074e-15
1.08866e-15
1.56152e-12
2.13342e-07
2.1565e-07
2.15644e-07
2.15637e-07
2.1563e-07
2.15621e-07
2.15612e-07
2.15602e-07
2.15593e-07
2.15583e-07
2.15573e-07
2.15564e-07
2.15555e-07
2.13236e-07
1.54096e-12
1.0885e-15
1.00075e-15
1e-15
1.00751e-15
1.56457e-12
2.17823e-07
2.20194e-07
2.20188e-07
2.2018e-07
2.20172e-07
2.20162e-07
2.20153e-07
2.20142e-07
2.20132e-07
2.20122e-07
2.20112e-07
2.20102e-07
2.20094e-07
2.17712e-07
1.66158e-12
1.00801e-15
1e-15
1e-15
1.00415e-15
1.00734e-12
1.55347e-07
1.57006e-07
1.56996e-07
1.56985e-07
1.56973e-07
1.56959e-07
1.56946e-07
1.56931e-07
1.56917e-07
1.56902e-07
1.56887e-07
1.56873e-07
1.5686e-07
1.55182e-07
1.0876e-12
1.00447e-15
1e-15
1e-15
1.00408e-15
9.85818e-13
1.50891e-07
1.52425e-07
1.52413e-07
1.52401e-07
1.52387e-07
1.52373e-07
1.52358e-07
1.52343e-07
1.52328e-07
1.52313e-07
1.52298e-07
1.52284e-07
1.5227e-07
1.50715e-07
9.97914e-13
1.00412e-15
1e-15
1e-15
1.00407e-15
1.0155e-12
1.61953e-07
1.63603e-07
1.63592e-07
1.6358e-07
1.63567e-07
1.63552e-07
1.63538e-07
1.63522e-07
1.63507e-07
1.63492e-07
1.63477e-07
1.63463e-07
1.63451e-07
1.61782e-07
1.16299e-12
1.00475e-15
1e-15
1e-15
1.00411e-15
1.03156e-12
1.56152e-07
1.57729e-07
1.5772e-07
1.57709e-07
1.57697e-07
1.57684e-07
1.5767e-07
1.57656e-07
1.57642e-07
1.57628e-07
1.57615e-07
1.57602e-07
1.5759e-07
1.55997e-07
9.76941e-13
1.00389e-15
1e-15
1e-15
1.00686e-15
1.64501e-12
2.38488e-07
2.40968e-07
2.40957e-07
2.40944e-07
2.4093e-07
2.40915e-07
2.40899e-07
2.40883e-07
2.40867e-07
2.40851e-07
2.40835e-07
2.40821e-07
2.40809e-07
2.38311e-07
1.98623e-12
1.00868e-15
1e-15
1e-15
1.00779e-15
1.848e-12
2.38867e-07
2.41368e-07
2.41358e-07
2.41347e-07
2.41334e-07
2.4132e-07
2.41306e-07
2.4129e-07
2.41275e-07
2.4126e-07
2.41245e-07
2.41231e-07
2.41219e-07
2.38702e-07
1.66373e-12
1.00698e-15
1e-15
1e-15
1.01326e-15
2.99437e-12
3.74647e-07
3.78475e-07
3.78465e-07
3.78453e-07
3.78441e-07
3.78427e-07
3.78413e-07
3.78398e-07
3.78383e-07
3.78368e-07
3.78354e-07
3.7834e-07
3.78326e-07
3.74481e-07
3.71136e-12
1.01766e-15
1e-15
1e-15
1.01557e-15
3.44224e-12
3.76033e-07
3.79749e-07
3.7974e-07
3.79729e-07
3.79718e-07
3.79704e-07
3.79691e-07
3.79676e-07
3.79662e-07
3.79647e-07
3.79632e-07
3.79618e-07
3.79604e-07
3.75869e-07
3.05864e-12
1.01367e-15
1e-15
1.00009e-15
1.02454e-15
5.18659e-12
5.52053e-07
5.57858e-07
5.57867e-07
5.57874e-07
5.57884e-07
5.57893e-07
5.57905e-07
5.57916e-07
5.57929e-07
5.57941e-07
5.57953e-07
5.57965e-07
5.57975e-07
5.52184e-07
6.38161e-12
1.0328e-15
1.00009e-15
1.07536e-15
1.53382e-15
6.14286e-12
5.67004e-07
5.7285e-07
5.72864e-07
5.72874e-07
5.72885e-07
5.72896e-07
5.72908e-07
5.72917e-07
5.72932e-07
5.72944e-07
5.72956e-07
5.72967e-07
5.72973e-07
5.6714e-07
5.6519e-12
1.53136e-15
1.07541e-15
1.71804e-13
1.20351e-12
9.83162e-09
1.77763e-08
1.74845e-08
1.52556e-08
1.52557e-08
1.52558e-08
1.5256e-08
1.52561e-08
1.65511e-08
1.52547e-08
1.52549e-08
1.52551e-08
1.52555e-08
1.70851e-08
1.77783e-08
9.83137e-09
1.2234e-12
1.72189e-13
4.20014e-10
1.21896e-08
7.41464e-08
8.77642e-08
7.80078e-08
7.79813e-08
7.7982e-08
7.79826e-08
7.79829e-08
7.79832e-08
7.8022e-08
7.79843e-08
7.79851e-08
7.79863e-08
7.79881e-08
7.801e-08
8.77775e-08
7.41622e-08
1.21883e-08
4.21007e-10
1.73052e-05
0.000114578
0.000156387
0.000156537
0.000156555
0.000156575
0.0001566
0.000156629
0.000156661
0.000156694
0.00015673
0.000156767
0.000156805
0.000156844
0.000156881
0.000156918
0.000156951
0.000156842
0.000114967
1.74269e-05
1.22445e-07
1.63815e-06
3.94557e-06
3.9398e-06
3.94117e-06
3.94275e-06
3.94462e-06
3.94666e-06
3.94887e-06
3.95118e-06
3.95355e-06
3.95593e-06
3.95826e-06
3.96049e-06
3.96254e-06
3.96441e-06
3.96592e-06
3.97399e-06
1.65114e-06
1.22552e-07
1.44543e-09
2.12151e-08
5.57906e-08
6.60493e-08
5.4782e-08
5.47858e-08
5.47916e-08
5.47979e-08
5.48049e-08
5.48121e-08
5.48198e-08
5.48273e-08
5.48348e-08
5.48418e-08
5.48483e-08
5.48551e-08
6.61324e-08
5.5881e-08
2.12504e-08
1.44517e-09
5.83507e-12
1.55396e-10
4.24152e-10
7.90087e-09
5.55544e-09
5.55501e-09
5.55508e-09
5.55516e-09
5.55525e-09
5.55534e-09
5.55543e-09
5.55551e-09
5.55559e-09
5.55566e-09
5.55571e-09
5.55862e-09
7.90209e-09
4.24415e-10
1.55528e-10
5.86807e-12
3.47662e-14
9.96144e-13
5.16737e-12
2.86493e-07
2.89349e-07
2.89348e-07
2.89345e-07
2.89342e-07
2.89338e-07
2.89335e-07
2.8933e-07
2.89326e-07
2.8932e-07
2.89315e-07
2.89309e-07
2.89303e-07
2.86439e-07
5.08677e-12
9.96854e-13
3.49079e-14
1.18588e-15
7.05581e-15
2.40048e-12
2.98996e-07
3.02286e-07
3.02286e-07
3.02284e-07
3.02282e-07
3.0228e-07
3.02277e-07
3.02274e-07
3.02271e-07
3.02266e-07
3.02262e-07
3.02257e-07
3.0225e-07
2.98953e-07
2.53321e-12
7.06091e-15