/*--------------------------------*- C++ -*----------------------------------*\
| =========                 |                                                 |
| \\      /  F ield         | OpenFOAM: The Open Source CFD Toolbox           |
|  \\    /   O peration     | Version:  2212                                  |
|   \\  /    A nd           | Website:  www.openfoam.com                      |
|    \\/     M anipulation  |                                                 |
\*---------------------------------------------------------------------------*/
FoamFile
{
    version     2.0;
    format      ascii;
    arch        "LSB;label=32;scalar=64";
    class       volScalarField;
    location    "0.171";
    object      p;
}
// * * * * * * * * * * * * * * * * * * * * * * * * * * * * * * * * * * * * * //

dimensions      [0 2 -2 0 0 0 0];

internalField   nonuniform List<scalar> 
24240
(
1.18844
1.18963
1.19199
1.19547
1.19992
1.20519
1.2111
1.21747
1.22411
1.23084
1.23749
1.2439
1.24993
1.25546
1.26041
1.26469
1.26825
1.27104
1.27302
1.2741
0.644729
0.645045
0.645653
0.646539
0.647676
0.649032
0.650566
0.652234
0.65399
0.655789
0.657584
0.659333
0.660998
0.662544
0.663938
0.665154
0.666167
0.666955
0.667492
0.667754
0.495153
0.495112
0.495009
0.494854
0.494656
0.49443
0.494185
0.493935
0.493686
0.493448
0.493225
0.493024
0.492845
0.492689
0.492557
0.492443
0.492346
0.49226
0.492182
0.492112
0.344053
0.343806
0.343303
0.342564
0.341617
0.3405
0.339251
0.337911
0.336519
0.335114
0.33373
0.332398
0.331146
0.329995
0.328963
0.328064
0.327309
0.326708
0.32627
0.326017
0.342868
0.342515
0.341803
0.34076
0.339421
0.337836
0.336055
0.334135
0.332129
0.330092
0.328074
0.326121
0.324273
0.322567
0.321031
0.31969
0.318566
0.317676
0.317041
0.316689
0.303241
0.302826
0.301997
0.300782
0.299222
0.29737
0.295285
0.29303
0.290669
0.288264
0.285874
0.283555
0.281356
0.279321
0.277486
0.275884
0.274541
0.273482
0.272734
0.272333
0.3167
0.316266
0.3154
0.314139
0.312511
0.310575
0.308392
0.306025
0.303539
0.301002
0.298474
0.296016
0.29368
0.291515
0.289561
0.287854
0.286424
0.2853
0.284512
0.284097
0.2935
0.293082
0.292252
0.291035
0.289467
0.2876
0.285487
0.283191
0.280773
0.2783
0.27583
0.273423
0.271131
0.269003
0.267079
0.265397
0.263987
0.262881
0.262108
0.261704
0.290004
0.289626
0.288876
0.287775
0.286356
0.28466
0.282738
0.280643
0.278432
0.276163
0.273893
0.271675
0.269559
0.26759
0.265806
0.264243
0.262932
0.261902
0.261185
0.260811
0.28026
0.279916
0.279232
0.278227
0.276931
0.27538
0.273618
0.271693
0.269659
0.267568
0.265472
0.263423
0.261466
0.259642
0.257989
0.256539
0.255321
0.254363
0.253696
0.253349
0.247066
0.246761
0.246154
0.245263
0.244112
0.242732
0.241162
0.239445
0.237627
0.235756
0.23388
0.232044
0.230289
0.228652
0.227166
0.22586
0.224759
0.22389
0.223282
0.222966
0.26557
0.265315
0.264808
0.264063
0.263097
0.261937
0.260615
0.259166
0.25763
0.256047
0.254458
0.252901
0.251411
0.250019
0.248753
0.247634
0.246684
0.245927
0.245392
0.24511
0.207083
0.206883
0.206485
0.205898
0.205135
0.204218
0.20317
0.202021
0.200803
0.199546
0.198285
0.197049
0.195866
0.19476
0.19375
0.19285
0.192077
0.19145
0.190996
0.190751
0.249403
0.249272
0.249008
0.248616
0.248106
0.24749
0.246785
0.246011
0.24519
0.244343
0.243494
0.242663
0.241867
0.241121
0.240434
0.239813
0.239266
0.238806
0.238459
0.238266
0.183631
0.183581
0.183476
0.183316
0.183106
0.18285
0.182556
0.182233
0.181891
0.181541
0.181193
0.180856
0.180535
0.180231
0.179943
0.179668
0.179405
0.179161
0.178958
0.178836
0.275932
0.275987
0.276088
0.27623
0.27641
0.276623
0.276863
0.277127
0.277409
0.277704
0.278008
0.278311
0.278605
0.278878
0.279114
0.279297
0.279417
0.279472
0.279475
0.279452
0.258175
0.258363
0.258726
0.259256
0.259939
0.260756
0.261688
0.26271
0.263798
0.264927
0.266071
0.267201
0.26829
0.269307
0.270222
0.271005
0.271632
0.272088
0.272367
0.272477
0.554184
0.554578
0.555343
0.556466
0.557914
0.559649
0.561626
0.56379
0.566087
0.568459
0.570847
0.573195
0.575448
0.57755
0.579454
0.58111
0.582479
0.583524
0.584217
0.584543
0.821296
0.822029
0.823469
0.825582
0.828308
0.831573
0.835282
0.839335
0.843619
0.848023
0.852435
0.856745
0.860855
0.864675
0.868126
0.87114
0.873655
0.875614
0.876961
0.877631
1.87515
1.87671
1.87978
1.8843
1.89012
1.89706
1.90491
1.91346
1.92244
1.9316
1.94071
1.94953
1.95785
1.96549
1.97232
1.97824
1.98318
1.98704
1.98976
1.9912
0.477357
0.479958
0.485133
0.492722
0.502453
0.513996
0.526977
0.540999
0.555657
0.570554
0.585314
0.599591
0.613081
0.625518
0.636684
0.646395
0.654504
0.660875
0.665373
0.667789
0.460022
0.461017
0.462971
0.465826
0.469493
0.473863
0.478801
0.484165
0.489805
0.495573
0.501324
0.506925
0.512252
0.517197
0.521663
0.525568
0.528836
0.531397
0.533176
0.534083
0.498977
0.499057
0.499196
0.499393
0.499649
0.49997
0.500354
0.500796
0.501287
0.501817
0.502372
0.502936
0.503492
0.504026
0.504519
0.504955
0.505317
0.505587
0.505745
0.505791
0.528177
0.527649
0.526588
0.525028
0.52303
0.520669
0.518026
0.515187
0.512235
0.50925
0.506304
0.503463
0.500783
0.498313
0.496093
0.494155
0.492526
0.49123
0.490294
0.489768
0.602037
0.601188
0.599494
0.597009
0.593821
0.590038
0.585783
0.581185
0.576375
0.571479
0.566618
0.5619
0.557423
0.553275
0.549528
0.546247
0.543489
0.541308
0.53976
0.538924
0.614498
0.613468
0.611422
0.608423
0.604568
0.599986
0.594817
0.589215
0.583336
0.577336
0.571358
0.565539
0.560003
0.554859
0.550204
0.546121
0.542688
0.539979
0.53807
0.537059
0.673549
0.672457
0.670288
0.667109
0.663017
0.658141
0.652629
0.646639
0.640336
0.633892
0.62745
0.621165
0.615172
0.609592
0.604532
0.600088
0.59635
0.5934
0.591331
0.590246
0.650554
0.649484
0.647363
0.644249
0.640236
0.635445
0.630017
0.624104
0.617867
0.61147
0.605065
0.598801
0.592814
0.587227
0.58215
0.577683
0.573916
0.570943
0.568859
0.567768
0.647731
0.646744
0.644786
0.64191
0.638196
0.633753
0.628707
0.623198
0.617372
0.61138
0.605368
0.599474
0.593827
0.588544
0.58373
0.579481
0.57589
0.573048
0.571054
0.570008
0.628574
0.627676
0.625894
0.623272
0.619882
0.615819
0.611193
0.606133
0.600772
0.595247
0.589693
0.584239
0.579004
0.574097
0.569614
0.565646
0.56228
0.559606
0.557723
0.556732
0.552599
0.551811
0.550246
0.54794
0.544953
0.541365
0.537274
0.53279
0.52803
0.523117
0.518171
0.513305
0.508626
0.50423
0.5002
0.496618
0.493562
0.491118
0.489384
0.488467
0.574817
0.574168
0.572875
0.570966
0.568487
0.565504
0.562094
0.55835
0.554369
0.550252
0.546101
0.54201
0.538067
0.534349
0.530925
0.527859
0.525219
0.523083
0.521548
0.520727
0.436808
0.436315
0.435329
0.433868
0.431965
0.429669
0.42704
0.424147
0.421068
0.417881
0.414663
0.411487
0.408419
0.405513
0.402819
0.40038
0.398247
0.396487
0.395194
0.394486
0.480208
0.479912
0.479314
0.47842
0.47725
0.475831
0.474199
0.4724
0.470481
0.468491
0.46648
0.46449
0.462558
0.460712
0.458972
0.45736
0.455904
0.454653
0.45369
0.45314
0.308896
0.308834
0.308697
0.308479
0.308181
0.30781
0.307376
0.306893
0.306374
0.305835
0.30529
0.304747
0.304207
0.303666
0.303113
0.302536
0.301939
0.301344
0.300819
0.30048
0.360561
0.36081
0.361285
0.361968
0.362837
0.36387
0.36504
0.366317
0.367672
0.369072
0.370484
0.37187
0.373189
0.374394
0.375435
0.376265
0.376852
0.377184
0.37729
0.377265
0.211706
0.212354
0.21362
0.215468
0.21785
0.220702
0.223948
0.227507
0.231287
0.235196
0.239139
0.24302
0.246743
0.250209
0.253326
0.256002
0.258159
0.25974
0.26072
0.261132
0.295718
0.296958
0.299401
0.302984
0.307613
0.313163
0.319483
0.326404
0.333745
0.34132
0.348943
0.356432
0.363612
0.370321
0.376406
0.381726
0.38615
0.389558
0.391844
0.392942
0.299593
0.301697
0.305876
0.312022
0.319966
0.329488
0.340319
0.352161
0.364694
0.377591
0.390528
0.403195
0.415308
0.42661
0.436874
0.4459
0.453503
0.459494
0.463663
0.465788
0.642212
0.645836
0.653071
0.663733
0.677503
0.693974
0.712661
0.733028
0.7545
0.776494
0.798437
0.819794
0.840083
0.858896
0.875896
0.890812
0.90341
0.913447
0.920625
0.924547
0.775166
0.77835
0.784661
0.793931
0.80584
0.820002
0.835971
0.853269
0.87141
0.889912
0.908321
0.926217
0.943223
0.959011
0.973291
0.98581
0.996347
1.00469
1.01061
1.01382
0.608462
0.609812
0.612474
0.616371
0.621389
0.62738
0.634168
0.641561
0.649358
0.657358
0.665365
0.673196
0.680681
0.687667
0.694019
0.699612
0.704333
0.708064
0.710679
0.712035
0.770003
0.770252
0.770727
0.771419
0.772314
0.773399
0.774652
0.776044
0.777539
0.779102
0.780692
0.782271
0.783798
0.78524
0.786562
0.787733
0.788721
0.789491
0.790004
0.790237
0.744373
0.743752
0.742505
0.740671
0.738319
0.735534
0.732412
0.729051
0.725548
0.721995
0.718479
0.715073
0.711847
0.708857
0.706155
0.703785
0.701786
0.700192
0.699038
0.698386
0.8895
0.888464
0.886399
0.883367
0.879471
0.874837
0.869613
0.863952
0.858011
0.851943
0.845893
0.839994
0.834365
0.829117
0.824347
0.820143
0.81659
0.813766
0.811758
0.810675
0.885576
0.884283
0.881716
0.877946
0.873092
0.867306
0.860763
0.85365
0.84616
0.838485
0.830805
0.823291
0.816099
0.809372
0.80324
0.797821
0.793231
0.789583
0.787
0.785627
0.979923
0.978528
0.975757
0.971686
0.966435
0.960162
0.953049
0.945296
0.937109
0.928695
0.920252
0.911969
0.904019
0.896561
0.889743
0.883702
0.878572
0.874488
0.871597
0.870071
0.949139
0.947756
0.945007
0.940963
0.935737
0.92948
0.922368
0.914595
0.906366
0.897886
0.889353
0.880959
0.872879
0.865277
0.858303
0.852102
0.846816
0.842594
0.839599
0.838012
0.952719
0.951428
0.94886
0.945076
0.940176
0.934295
0.927593
0.920249
0.912453
0.904397
0.896269
0.888249
0.880505
0.873192
0.866457
0.860441
0.855288
0.851152
0.848205
0.846635
0.929686
0.928512
0.926172
0.922718
0.918234
0.912841
0.90668
0.899913
0.892712
0.885254
0.87771
0.870246
0.863017
0.856166
0.849829
0.844137
0.83923
0.835265
0.832418
0.830889
0.834708
0.833686
0.831645
0.828624
0.824694
0.819954
0.814526
0.80855
0.802175
0.795557
0.788847
0.782188
0.775717
0.769557
0.763826
0.758642
0.754135
0.750455
0.747785
0.746334
0.865508
0.864681
0.863022
0.860557
0.857339
0.853447
0.848977
0.844042
0.838765
0.833272
0.827685
0.822122
0.81669
0.811488
0.806609
0.802148
0.79822
0.794965
0.792563
0.791237
0.689254
0.688655
0.687442
0.685631
0.683254
0.680367
0.677039
0.673355
0.669403
0.665276
0.661064
0.656852
0.652712
0.648711
0.644911
0.641379
0.638204
0.635508
0.633466
0.632308
0.756441
0.756128
0.755481
0.754496
0.753189
0.751586
0.749724
0.747647
0.745406
0.74305
0.740627
0.738178
0.735735
0.733322
0.730963
0.728687
0.726549
0.724642
0.723121
0.722215
0.538891
0.538921
0.538952
0.538966
0.538951
0.538905
0.538824
0.538709
0.538561
0.53838
0.538162
0.537896
0.537564
0.537142
0.536605
0.535937
0.535147
0.534285
0.533469
0.532908
0.647394
0.647872
0.648787
0.650105
0.651787
0.653787
0.656049
0.658516
0.661124
0.663806
0.666491
0.669103
0.671563
0.673785
0.67569
0.677203
0.678275
0.678891
0.679101
0.679067
0.448953
0.449999
0.452044
0.455035
0.458892
0.463516
0.468785
0.474563
0.480704
0.487056
0.493462
0.499765
0.505808
0.511438
0.516505
0.520869
0.524404
0.527011
0.528636
0.529325
0.653815
0.655658
0.659297
0.664649
0.671575
0.679897
0.689391
0.699811
0.710889
0.722349
0.733915
0.745318
0.7563
0.766619
0.776044
0.784355
0.791339
0.796782
0.80048
0.802282
0.551387
0.554315
0.56014
0.568735
0.579878
0.59327
0.608546
0.625299
0.643088
0.661466
0.679987
0.698231
0.715804
0.732351
0.747545
0.761081
0.772653
0.781922
0.788488
0.791899
0.869404
0.873923
0.88297
0.896358
0.913718
0.934568
0.958318
0.984313
1.01185
1.04021
1.06871
1.09668
1.12355
1.1488
1.17199
1.19273
1.21061
1.2252
1.23589
1.24192
0.65497
0.658121
0.664389
0.673613
0.685501
0.699684
0.715732
0.733185
0.751568
0.770412
0.789271
0.807728
0.825407
0.841968
0.8571
0.870517
0.881944
0.891106
0.897709
0.901351
0.66527
0.666761
0.669707
0.67403
0.679608
0.686284
0.693867
0.702151
0.710916
0.719943
0.729019
0.737939
0.746517
0.75458
0.761971
0.768538
0.774134
0.778602
0.781771
0.783439
0.838075
0.838429
0.839105
0.840095
0.841378
0.842929
0.844715
0.846693
0.848815
0.851029
0.853281
0.855516
0.857685
0.859738
0.861631
0.863321
0.864762
0.865901
0.866681
0.867046
0.897086
0.896588
0.895584
0.894105
0.892207
0.88996
0.887438
0.884721
0.881883
0.878998
0.87613
0.873338
0.870674
0.868187
0.86592
0.863915
0.86221
0.86084
0.859838
0.859262
1.05811
1.05711
1.05511
1.05216
1.04837
1.04385
1.03873
1.03317
1.02731
1.0213
1.01527
1.00936
1.00367
0.998325
0.993424
0.989066
0.98535
0.982371
0.980235
0.979073
1.07023
1.06892
1.06631
1.06247
1.05751
1.05159
1.04487
1.03753
1.02977
1.02178
1.01374
1.00582
0.998181
0.990972
0.984337
0.978416
0.973348
0.969277
0.966362
0.964798
1.17834
1.17689
1.17401
1.16976
1.16427
1.15768
1.15018
1.14198
1.13327
1.12428
1.1152
1.10623
1.09754
1.08932
1.08173
1.07492
1.06906
1.06434
1.06095
1.05915
1.15076
1.1493
1.1464
1.14212
1.13656
1.12988
1.12227
1.1139
1.10501
1.09578
1.08645
1.07719
1.06819
1.05964
1.0517
1.04455
1.03836
1.03335
1.02973
1.02778
1.15827
1.1569
1.15416
1.15011
1.14484
1.13849
1.13122
1.12322
1.11468
1.1058
1.09678
1.0878
1.07905
1.07068
1.06287
1.05579
1.04962
1.04458
1.04092
1.03893
1.14078
1.13953
1.13703
1.13332
1.12849
1.12265
1.11594
1.10854
1.10062
1.09235
1.08393
1.07551
1.06726
1.05934
1.05189
1.04508
1.03911
1.03417
1.03055
1.02855
1.03848
1.03741
1.03525
1.03202
1.0278
1.02269
1.0168
1.01027
1.00327
0.995938
0.988435
0.980905
0.973486
0.966309
0.959507
0.953229
0.947649
0.942987
0.939514
0.937573
1.08027
1.07942
1.0777
1.07511
1.07171
1.06757
1.06278
1.05745
1.0517
1.04567
1.03946
1.03319
1.02697
1.02089
1.01506
1.0096
1.00467
1.00048
0.997297
0.995483
0.889933
0.88935
0.888151
0.886336
0.883927
0.880973
0.877536
0.873691
0.869523
0.865114
0.860546
0.855891
0.851213
0.846573
0.842037
0.837693
0.833668
0.830149
0.827399
0.825789
0.971215
0.97097
0.970439
0.969604
0.968466
0.96704
0.965351
0.963431
0.961315
0.959038
0.95663
0.954112
0.9515
0.948804
0.946043
0.943258
0.940535
0.93802
0.935941
0.93467
0.736614
0.736773
0.737042
0.73739
0.737788
0.738217
0.738657
0.739088
0.739489
0.739838
0.740103
0.740247
0.740224
0.739988
0.7395
0.738745
0.737746
0.736588
0.735446
0.734637
0.825836
0.826515
0.82782
0.829702
0.832102
0.834954
0.83818
0.841691
0.845396
0.849193
0.852976
0.856634
0.860048
0.863104
0.865694
0.867728
0.869149
0.869946
0.870188
0.870113
0.604279
0.605602
0.608193
0.611985
0.616881
0.622758
0.629461
0.636822
0.644655
0.652767
0.660957
0.669025
0.67677
0.683996
0.690514
0.696148
0.700736
0.704137
0.706268
0.707173
0.683742
0.685927
0.690254
0.696636
0.704916
0.71489
0.726301
0.738861
0.752259
0.766172
0.780276
0.794255
0.807804
0.820632
0.832457
0.842998
0.851967
0.859044
0.863927
0.866345
0.510292
0.513578
0.520141
0.529867
0.542523
0.55779
0.575273
0.594525
0.615065
0.636403
0.658053
0.679552
0.700468
0.720399
0.73896
0.75576
0.770372
0.782288
0.790897
0.795456
0.627442
0.632218
0.641838
0.656157
0.674825
0.697354
0.723144
0.751519
0.781756
0.813121
0.844903
0.87644
0.907135
0.936455
0.963904
0.988983
1.01113
1.02965
1.04366
1.05181
0.898818
0.901728
0.907543
0.916131
0.927239
0.940541
0.955656
0.972171
0.989661
1.0077
1.02588
1.04382
1.06117
1.07759
1.09277
1.10641
1.11819
1.12777
1.1348
1.13877
0.849456
0.85094
0.853866
0.85817
0.863738
0.870421
0.878039
0.886392
0.895269
0.904458
0.91375
0.922941
0.931846
0.940286
0.948093
0.955097
0.961127
0.965991
0.969475
0.971311
1.04736
1.0478
1.04865
1.04989
1.0515
1.05345
1.05569
1.05818
1.06084
1.06363
1.06646
1.06928
1.07203
1.07464
1.07707
1.07925
1.08113
1.08263
1.08367
1.08418
1.05774
1.05739
1.05667
1.05562
1.05426
1.05265
1.05085
1.0489
1.04686
1.04478
1.0427
1.04065
1.03868
1.03683
1.03511
1.03358
1.03227
1.03119
1.03039
1.02991
1.22537
1.22451
1.22279
1.22025
1.21697
1.21304
1.20859
1.20372
1.19857
1.19325
1.18788
1.18256
1.17741
1.17251
1.16797
1.16389
1.16037
1.15752
1.15545
1.1543
1.21405
1.21287
1.21051
1.20704
1.20253
1.19713
1.19097
1.18422
1.17703
1.16959
1.16204
1.15454
1.14724
1.14028
1.13379
1.12794
1.12286
1.11873
1.11573
1.1141
1.32535
1.32402
1.32135
1.31741
1.31228
1.30611
1.29907
1.29131
1.28304
1.27443
1.26567
1.25694
1.2484
1.24022
1.23257
1.22561
1.21955
1.21459
1.21095
1.20901
1.29554
1.29418
1.29145
1.28741
1.28215
1.2758
1.26852
1.26048
1.25188
1.2429
1.23373
1.22454
1.21552
1.20683
1.19865
1.19117
1.18459
1.17917
1.17518
1.17298
1.30605
1.30476
1.30217
1.29831
1.29327
1.28717
1.28014
1.27237
1.26401
1.25525
1.24627
1.23724
1.22831
1.21966
1.21146
1.20389
1.19718
1.1916
1.18746
1.18515
1.29652
1.29535
1.29299
1.28945
1.28482
1.27918
1.27268
1.26545
1.25765
1.24944
1.24098
1.23243
1.22393
1.21562
1.20768
1.20028
1.19364
1.18806
1.18386
1.18149
1.19718
1.19618
1.19416
1.19111
1.18709
1.18218
1.17648
1.17012
1.16323
1.15595
1.1484
1.14071
1.13301
1.12542
1.11807
1.11114
1.10485
1.09946
1.09536
1.093
1.25358
1.25281
1.25124
1.24884
1.24566
1.24175
1.23719
1.23206
1.22647
1.22052
1.21431
1.20792
1.20145
1.19498
1.18863
1.18252
1.17687
1.17195
1.16812
1.16588
1.06933
1.06885
1.06783
1.06625
1.06412
1.06147
1.05834
1.05478
1.05087
1.04665
1.04219
1.03752
1.03271
1.02778
1.02281
1.0179
1.01323
1.00903
1.00567
1.00365
1.17607
1.17594
1.17563
1.17509
1.17431
1.17328
1.17202
1.17052
1.16881
1.16688
1.16475
1.16241
1.15985
1.15705
1.15405
1.15088
1.14768
1.14464
1.14205
1.14045
0.9488
0.949098
0.949629
0.950343
0.951195
0.952146
0.953157
0.954184
0.955182
0.956101
0.956881
0.957452
0.957744
0.957688
0.957236
0.956378
0.955162
0.953711
0.952252
0.951195
1.08508
1.08591
1.08752
1.08984
1.09279
1.0963
1.10026
1.10456
1.10909
1.11372
1.11832
1.12273
1.12682
1.13045
1.13349
1.13584
1.13746
1.13833
1.13856
1.1384
0.857466
0.858952
0.861865
0.866132
0.871646
0.878268
0.885831
0.894146
0.903008
0.912199
0.921495
0.930667
0.939488
0.947735
0.955196
0.961671
0.966972
0.970916
0.973396
0.97444
0.990774
0.993094
0.997704
1.00452
1.01339
1.02411
1.0364
1.04998
1.06452
1.07969
1.09515
1.11057
1.12563
1.14001
1.15341
1.16548
1.1759
1.18418
1.18999
1.1929
0.744123
0.747445
0.754123
0.764061
0.777049
0.79278
0.810874
0.830897
0.852383
0.874853
0.897836
0.92088
0.943554
0.965447
0.986135
1.00516
1.02197
1.03589
1.04609
1.05151
1.07657
1.08126
1.09079
1.10508
1.12384
1.1466
1.1728
1.2018
1.23293
1.26549
1.29881
1.33231
1.36541
1.3976
1.42836
1.45707
1.483
1.5052
1.52245
1.53284
1.07158
1.07418
1.07943
1.0872
1.09728
1.1094
1.12324
1.13845
1.15465
1.17148
1.18859
1.20562
1.22226
1.23819
1.25311
1.26667
1.27852
1.28829
1.29556
1.29976
0.894971
0.896359
0.899077
0.903089
0.908287
0.914548
0.921712
0.929603
0.938033
0.946809
0.955752
0.964651
0.973344
0.981653
0.989406
0.99642
1.00251
1.00744
1.01099
1.01283
1.11715
1.11765
1.11862
1.12005
1.12191
1.12415
1.12674
1.12961
1.13269
1.13591
1.1392
1.14248
1.14569
1.14876
1.15163
1.15422
1.15646
1.15827
1.15954
1.16016
1.14888
1.14869
1.1483
1.14772
1.14697
1.14609
1.1451
1.14403
1.1429
1.14175
1.14058
1.13941
1.13827
1.13718
1.13615
1.13521
1.1344
1.13372
1.1332
1.13287
1.31093
1.31027
1.30896
1.30701
1.30449
1.30147
1.29802
1.29423
1.29019
1.28597
1.28168
1.27738
1.27316
1.2691
1.26528
1.26181
1.25878
1.2563
1.25448
1.25345
1.29634
1.29538
1.29346
1.29062
1.28693
1.28248
1.27738
1.27175
1.26572
1.25942
1.25297
1.24649
1.2401
1.23392
1.22809
1.22276
1.21807
1.21422
1.21138
1.2098
1.40445
1.40333
1.4011
1.39777
1.39343
1.38819
1.38216
1.37549
1.36831
1.36078
1.35304
1.34523
1.3375
1.32998
1.32285
1.31627
1.31045
1.30561
1.30203
1.30004
1.37565
1.3745
1.37218
1.36871
1.36418
1.35868
1.35233
1.34527
1.33766
1.32963
1.32135
1.31295
1.30459
1.2964
1.28858
1.2813
1.2748
1.26935
1.26527
1.26298
1.38828
1.38718
1.38495
1.38161
1.37722
1.37187
1.36567
1.35875
1.35125
1.34331
1.33507
1.32667
1.31824
1.30993
1.30192
1.29439
1.2876
1.28185
1.2775
1.27503
1.3887
1.3877
1.38567
1.3826
1.37855
1.37359
1.36782
1.36135
1.3543
1.34679
1.33895
1.3309
1.32276
1.31466
1.30675
1.29924
1.29238
1.2865
1.28199
1.2794
1.29772
1.29688
1.29516
1.29254
1.28906
1.28476
1.27973
1.27405
1.26782
1.26115
1.25413
1.24684
1.2394
1.2319
1.22448
1.21733
1.2107
1.20493
1.20045
1.19783
1.37084
1.37022
1.36893
1.36694
1.36425
1.36091
1.35695
1.35245
1.34746
1.34206
1.3363
1.33025
1.32397
1.31752
1.31102
1.30464
1.29861
1.29325
1.28901
1.2865
1.20346
1.20312
1.20238
1.20119
1.19953
1.19742
1.19487
1.19191
1.18856
1.18486
1.18083
1.17648
1.17184
1.16692
1.1618
1.15661
1.15156
1.14695
1.14319
1.14089
1.33188
1.33189
1.33184
1.33167
1.33134
1.33083
1.33012
1.3292
1.32804
1.32663
1.32494
1.32293
1.32057
1.31784
1.31474
1.31137
1.30786
1.3045
1.30159
1.29974
1.12857
1.129
1.12978
1.13085
1.13214
1.13359
1.13515
1.13674
1.13831
1.13976
1.14102
1.14199
1.14257
1.14268
1.14227
1.14135
1.13999
1.13835
1.13668
1.13546
1.27793
1.27888
1.28071
1.28334
1.28669
1.29066
1.29514
1.29999
1.30509
1.31029
1.31542
1.32034
1.32486
1.32884
1.33216
1.33471
1.33646
1.3374
1.33763
1.33745
1.07805
1.07961
1.08268
1.08719
1.093
1.09999
1.10798
1.11677
1.12615
1.1359
1.14578
1.15554
1.16496
1.17379
1.18182
1.18883
1.1946
1.19894
1.20168
1.20286
1.1817
1.18404
1.18869
1.1956
1.2046
1.2155
1.22805
1.24195
1.2569
1.27257
1.28864
1.30478
1.32066
1.33598
1.35039
1.36352
1.37496
1.38419
1.39072
1.39404
1.00267
1.0059
1.01244
1.02221
1.03503
1.05062
1.06864
1.08868
1.11031
1.1331
1.15662
1.18045
1.20418
1.2274
1.24966
1.2704
1.28899
1.30459
1.31617
1.32246
1.14156
1.14588
1.15476
1.16819
1.1859
1.20753
1.23258
1.26051
1.29072
1.32263
1.35568
1.38936
1.42318
1.45666
1.48925
1.52017
1.54856
1.57321
1.59259
1.60441
1.24236
1.2446
1.24909
1.25574
1.26438
1.27481
1.28677
1.3
1.31419
1.32905
1.34428
1.35959
1.37471
1.38934
1.40316
1.41584
1.42699
1.43617
1.44294
1.44673
1.11128
1.11257
1.11513
1.11892
1.12383
1.12977
1.13659
1.14414
1.15224
1.16075
1.16944
1.17817
1.18676
1.19504
1.20282
1.20991
1.21608
1.22111
1.22474
1.22663
1.26224
1.2628
1.2639
1.26554
1.26767
1.27025
1.27322
1.27651
1.28005
1.28376
1.28756
1.29136
1.29508
1.29866
1.30201
1.30506
1.3077
1.30985
1.31138
1.31217
1.23749
1.23748
1.23745
1.23741
1.23736
1.23731
1.23726
1.23721
1.23716
1.23709
1.23701
1.2369
1.23677
1.23661
1.23644
1.23627
1.23612
1.23599
1.23589
1.23582
1.37618
1.37577
1.37494
1.37372
1.37213
1.37022
1.36801
1.36557
1.36293
1.36014
1.35724
1.35429
1.35133
1.34843
1.34566
1.3431
1.34084
1.33899
1.33763
1.33688
1.33999
1.33931
1.33795
1.33592
1.33327
1.33006
1.32636
1.32224
1.31777
1.31304
1.30813
1.30311
1.29808
1.29314
1.2884
1.28399
1.28008
1.27684
1.27445
1.27312
1.43647
1.43565
1.43397
1.43148
1.42821
1.42422
1.41961
1.41446
1.40886
1.40291
1.39671
1.39035
1.38394
1.37761
1.3715
1.36577
1.36064
1.35633
1.35311
1.3513
1.40481
1.40393
1.40215
1.39948
1.39596
1.39167
1.38667
1.38106
1.37494
1.36841
1.36157
1.35451
1.34736
1.34023
1.33329
1.32673
1.32078
1.31574
1.31193
1.30975
1.41743
1.41658
1.41485
1.41224
1.40878
1.40453
1.39957
1.39397
1.38784
1.38125
1.3743
1.36708
1.35971
1.35229
1.345
1.33803
1.33165
1.32618
1.322
1.31959
1.42741
1.42665
1.42507
1.42267
1.41947
1.41551
1.41086
1.40558
1.39975
1.39344
1.38674
1.37971
1.37246
1.36508
1.35774
1.35063
1.34404
1.33833
1.3339
1.33132
1.34849
1.34786
1.34655
1.34453
1.34181
1.33841
1.33438
1.32977
1.32462
1.319
1.31296
1.30655
1.29984
1.29291
1.28591
1.27903
1.27257
1.26688
1.26241
1.25978
1.44044
1.44001
1.43909
1.43763
1.43563
1.43308
1.43001
1.42643
1.42239
1.41789
1.41297
1.40765
1.40196
1.39596
1.38976
1.38354
1.37759
1.37225
1.36797
1.36549
1.29913
1.29896
1.29855
1.29783
1.29678
1.29537
1.29359
1.29144
1.28891
1.28599
1.28266
1.27892
1.27475
1.27018
1.26527
1.26019
1.25517
1.25054
1.24675
1.24444
1.4575
1.45766
1.45789
1.45813
1.45832
1.45841
1.45836
1.45811
1.45764
1.45687
1.45577
1.45425
1.45228
1.44982
1.44689
1.4436
1.44013
1.43676
1.43385
1.43199
1.29105
1.2916
1.29262
1.29402
1.29573
1.29767
1.29975
1.30189
1.30399
1.30596
1.30769
1.30905
1.30995
1.31029
1.31004
1.30921
1.3079
1.30629
1.30464
1.30343
1.48615
1.48718
1.48917
1.49203
1.49567
1.49996
1.50478
1.51
1.51547
1.52103
1.5265
1.53173
1.53652
1.54074
1.54425
1.54697
1.54886
1.54992
1.55023
1.5501
1.32426
1.32585
1.32898
1.33356
1.33947
1.34655
1.35465
1.36356
1.37308
1.38297
1.39302
1.40298
1.41261
1.42167
1.42994
1.4372
1.4432
1.44774
1.45062
1.45186
1.50096
1.50324
1.50778
1.51453
1.52333
1.53399
1.54629
1.55996
1.57472
1.59026
1.60629
1.6225
1.63857
1.6542
1.66902
1.68261
1.69452
1.70417
1.71101
1.71452
1.34238
1.34541
1.35157
1.36081
1.37295
1.38777
1.40496
1.42417
1.44505
1.46721
1.49027
1.51386
1.53762
1.56111
1.58386
1.60524
1.62449
1.64068
1.65269
1.6592
1.62676
1.63069
1.63881
1.65116
1.66754
1.68765
1.71109
1.7374
1.76612
1.79677
1.82891
1.86212
1.89599
1.93003
1.96364
1.99587
2.02573
2.05178
2.07231
2.08486
1.40756
1.40949
1.4133
1.41891
1.42619
1.43498
1.44512
1.45639
1.46858
1.48145
1.49477
1.50828
1.52176
1.53489
1.54739
1.55886
1.56887
1.57692
1.58257
1.58541
1.23615
1.23733
1.23969
1.24319
1.24773
1.25324
1.25957
1.2666
1.27418
1.2822
1.29043
1.29874
1.30696
1.31492
1.32243
1.32925
1.33518
1.33996
1.34336
1.34516
1.34472
1.34534
1.34658
1.34844
1.35086
1.35379
1.35717
1.36091
1.36493
1.36916
1.37347
1.37781
1.38206
1.38615
1.38997
1.39345
1.39648
1.39895
1.40077
1.40178
1.28719
1.28737
1.28772
1.28827
1.28899
1.28987
1.29086
1.29196
1.2931
1.29427
1.29542
1.29653
1.29756
1.29851
1.29936
1.30011
1.30078
1.30136
1.30186
1.30219
1.39501
1.39486
1.39458
1.39417
1.39363
1.39298
1.39221
1.39132
1.39031
1.3892
1.38796
1.38664
1.38523
1.38378
1.38234
1.38098
1.37979
1.37885
1.37823
1.37797
1.3399
1.33953
1.33879
1.33769
1.33625
1.33449
1.33242
1.33008
1.32748
1.32465
1.32163
1.31845
1.31516
1.31184
1.30858
1.30549
1.30274
1.30049
1.29888
1.29806
1.41999
1.41948
1.41845
1.41692
1.4149
1.41241
1.4095
1.40619
1.40252
1.39853
1.39428
1.3898
1.38517
1.38048
1.37585
1.37145
1.36746
1.36412
1.36167
1.36033
1.38423
1.38366
1.3825
1.38077
1.37846
1.37561
1.37226
1.36844
1.3642
1.35957
1.3546
1.34936
1.3439
1.33833
1.33278
1.32746
1.32258
1.31844
1.31533
1.31358
1.39513
1.39456
1.39341
1.39166
1.38933
1.38643
1.383
1.37907
1.37467
1.36984
1.36463
1.35907
1.35325
1.34724
1.34121
1.33535
1.32993
1.32528
1.32174
1.31971
1.41384
1.41333
1.41228
1.41066
1.40848
1.40576
1.4025
1.39874
1.39449
1.38978
1.38464
1.37911
1.37323
1.3671
1.36086
1.35473
1.34901
1.34403
1.3402
1.33798
1.34877
1.34838
1.34753
1.34622
1.34441
1.34212
1.33934
1.33607
1.33233
1.32812
1.32346
1.31835
1.31284
1.30699
1.30094
1.29492
1.28922
1.28421
1.28031
1.27802
1.46047
1.46025
1.45974
1.45889
1.45769
1.45611
1.45412
1.45171
1.44888
1.44559
1.44185
1.43763
1.43294
1.42785
1.42246
1.41697
1.41169
1.40699
1.40327
1.40109
1.35073
1.35073
1.35067
1.35049
1.35012
1.34953
1.34867
1.3475
1.34598
1.34406
1.34171
1.33886
1.33552
1.33168
1.32744
1.32298
1.31855
1.31449
1.31121
1.30923
1.54007
1.54037
1.5409
1.54157
1.54231
1.54305
1.54372
1.54425
1.54455
1.54457
1.5442
1.54337
1.54203
1.54013
1.53774
1.53495
1.53198
1.5291
1.52664
1.52508
1.42094
1.4216
1.42285
1.42458
1.42669
1.4291
1.43169
1.43436
1.437
1.4395
1.44173
1.44356
1.44488
1.44562
1.44574
1.4453
1.44437
1.44314
1.44183
1.44086
1.65489
1.656
1.65812
1.66116
1.665
1.66952
1.67457
1.68003
1.68573
1.69151
1.69721
1.70264
1.70764
1.71206
1.7158
1.71876
1.7209
1.7222
1.72272
1.72273
1.55338
1.55499
1.55812
1.56268
1.56855
1.57557
1.58357
1.59236
1.60176
1.61153
1.62148
1.63135
1.64093
1.64999
1.65829
1.66559
1.67165
1.67622
1.67912
1.6804
1.77604
1.77823
1.78259
1.78903
1.79743
1.8076
1.81933
1.8324
1.84655
1.86152
1.87703
1.89281
1.90857
1.92397
1.93864
1.95212
1.9639
1.97339
1.98005
1.98345
1.69833
1.70116
1.70688
1.71544
1.72671
1.74048
1.75651
1.7745
1.79415
1.81515
1.83719
1.85993
1.88301
1.906
1.92837
1.94941
1.96828
1.98401
1.99552
2.00169
2.03061
2.03417
2.04152
2.05267
2.0675
2.08577
2.10718
2.13139
2.15803
2.18674
2.2172
2.24904
2.28189
2.31524
2.34836
2.38023
2.40957
2.43488
2.45446
2.46609
1.60737
1.60902
1.61221
1.61684
1.62284
1.63006
1.63845
1.64778
1.65801
1.66884
1.6802
1.69177
1.70344
1.71479
1.7256
1.73534
1.74361
1.74983
1.75367
1.75507
1.37066
1.37175
1.37393
1.37717
1.38137
1.38647
1.39235
1.3989
1.40599
1.41349
1.42123
1.42909
1.43687
1.4444
1.45146
1.45785
1.46331
1.46765
1.47068
1.47224
1.4235
1.4242
1.42561
1.42772
1.43048
1.43382
1.43765
1.44191
1.44648
1.45127
1.45617
1.46108
1.46589
1.47052
1.47483
1.47874
1.48215
1.48496
1.48709
1.48833
1.31763
1.31801
1.31879
1.31999
1.32154
1.32343
1.32557
1.32792
1.33039
1.33293
1.33546
1.33794
1.34029
1.3425
1.34452
1.34636
1.348
1.34947
1.3507
1.35156
1.38656
1.3867
1.387
1.38748
1.3881
1.38883
1.38963
1.39047
1.39128
1.39204
1.39269
1.39323
1.39362
1.39389
1.39405
1.39418
1.39432
1.39457
1.39493
1.39532
1.30588
1.30585
1.30578
1.30571
1.30559
1.30543
1.30518
1.30483
1.30433
1.30367
1.30282
1.3018
1.30058
1.29924
1.29782
1.29645
1.29524
1.29435
1.29384
1.29374
1.36439
1.36423
1.36391
1.36344
1.36279
1.36198
1.36096
1.35974
1.35828
1.35657
1.3546
1.35238
1.34991
1.34729
1.3446
1.34198
1.33961
1.33769
1.33639
1.33579
1.32176
1.32153
1.32106
1.32035
1.31939
1.31818
1.31669
1.31492
1.31284
1.31045
1.30773
1.3047
1.30137
1.29784
1.29419
1.29063
1.28736
1.28464
1.28268
1.28167
1.32899
1.32873
1.3282
1.3274
1.32633
1.32496
1.32328
1.32127
1.31892
1.3162
1.31311
1.30964
1.30583
1.30174
1.29751
1.29334
1.28949
1.28624
1.28386
1.28259
1.35542
1.35518
1.35469
1.35394
1.35291
1.35159
1.34994
1.34795
1.34558
1.34281
1.33963
1.33601
1.33199
1.32764
1.32309
1.31857
1.31436
1.31079
1.30815
1.30672
1.30543
1.30526
1.30492
1.30438
1.3036
1.30256
1.30122
1.29954
1.29749
1.29502
1.2921
1.28872
1.28488
1.28064
1.27615
1.27163
1.2674
1.26377
1.26108
1.25962
1.43809
1.43807
1.43799
1.43783
1.43753
1.43703
1.4363
1.43526
1.43389
1.4321
1.42987
1.42714
1.42392
1.42024
1.41626
1.41216
1.40827
1.4049
1.40237
1.40098
1.36392
1.3641
1.36442
1.36482
1.36521
1.36554
1.36572
1.36569
1.36538
1.36471
1.3636
1.362
1.35987
1.35725
1.35423
1.35101
1.34783
1.34502
1.34284
1.34161
1.58898
1.58944
1.59028
1.59142
1.59277
1.59422
1.5957
1.59709
1.59832
1.59927
1.59985
1.59997
1.59958
1.59865
1.59725
1.5955
1.5936
1.59177
1.59024
1.58931
1.52396
1.52474
1.52622
1.52829
1.53083
1.53372
1.53685
1.54009
1.54333
1.54643
1.54927
1.55172
1.55367
1.55507
1.55591
1.55621
1.55608
1.55562