/*--------------------------------*- C++ -*----------------------------------*\
| =========                 |                                                 |
| \\      /  F ield         | OpenFOAM: The Open Source CFD Toolbox           |
|  \\    /   O peration     | Version:  2212                                  |
|   \\  /    A nd           | Website:  www.openfoam.com                      |
|    \\/     M anipulation  |                                                 |
\*---------------------------------------------------------------------------*/
FoamFile
{
    version     2.0;
    format      ascii;
    arch        "LSB;label=32;scalar=64";
    class       volScalarField;
    location    "0.171";
    object      pMean;
}
// * * * * * * * * * * * * * * * * * * * * * * * * * * * * * * * * * * * * * //

dimensions      [0 2 -2 0 0 0 0];

internalField   nonuniform List<scalar> 
24240
(
9.97036
9.97038
9.97038
9.97039
9.97041
9.97042
9.97045
9.97047
9.97049
9.97052
9.97054
9.97057
9.9706
9.97062
9.97064
9.97066
9.97068
9.97069
9.97071
9.97071
7.68716
7.68716
7.68716
7.68716
7.68717
7.68717
7.68718
7.68719
7.68719
7.6872
7.68721
7.68722
7.68722
7.68723
7.68724
7.68725
7.68725
7.68726
7.68726
7.68726
7.88108
7.88108
7.88108
7.88108
7.88107
7.88107
7.88107
7.88106
7.88106
7.88105
7.88105
7.88105
7.88104
7.88104
7.88103
7.88103
7.88103
7.88102
7.88102
7.88102
7.09419
7.09419
7.09419
7.09419
7.09418
7.09418
7.09417
7.09417
7.09416
7.09415
7.09415
7.09414
7.09413
7.09412
7.09412
7.09411
7.09411
7.0941
7.0941
7.09409
7.17488
7.17488
7.17487
7.17487
7.17486
7.17485
7.17483
7.17482
7.17481
7.17479
7.17477
7.17476
7.17474
7.17473
7.17472
7.17471
7.17469
7.17469
7.17468
7.17467
6.90259
6.90259
6.90259
6.90258
6.90258
6.90257
6.90256
6.90255
6.90254
6.90252
6.90251
6.9025
6.90248
6.90247
6.90246
6.90245
6.90244
6.90243
6.90242
6.90242
6.95104
6.95103
6.95103
6.95102
6.95101
6.951
6.95099
6.95097
6.95096
6.95094
6.95093
6.95091
6.95089
6.95088
6.95086
6.95085
6.95084
6.95083
6.95082
6.95081
6.8362
6.8362
6.8362
6.83619
6.83618
6.83618
6.83617
6.83616
6.83614
6.83613
6.83612
6.83611
6.83609
6.83608
6.83607
6.83606
6.83605
6.83604
6.83603
6.83603
6.86534
6.86534
6.86533
6.86532
6.86531
6.8653
6.86529
6.86527
6.86526
6.86524
6.86523
6.86521
6.86519
6.86518
6.86516
6.86515
6.86514
6.86513
6.86512
6.86512
6.83991
6.8399
6.8399
6.8399
6.8399
6.83989
6.83989
6.83988
6.83987
6.83987
6.83986
6.83985
6.83984
6.83983
6.83982
6.83982
6.83981
6.8398
6.8398
6.83979
6.84468
6.84469
6.84468
6.84468
6.84468
6.84468
6.84468
6.84468
6.84467
6.84467
6.84466
6.84466
6.84465
6.84464
6.84464
6.84463
6.84463
6.84462
6.84462
6.84462
6.90892
6.90892
6.90892
6.90892
6.90891
6.90891
6.9089
6.90889
6.90888
6.90888
6.90887
6.90886
6.90885
6.90884
6.90883
6.90882
6.90882
6.90881
6.90881
6.9088
6.88674
6.88674
6.88674
6.88674
6.88674
6.88675
6.88675
6.88675
6.88675
6.88675
6.88675
6.88675
6.88675
6.88675
6.88675
6.88674
6.88674
6.88674
6.88674
6.88673
7.06863
7.06863
7.06863
7.06863
7.06863
7.06863
7.06862
7.06862
7.06862
7.06862
7.06861
7.06861
7.0686
7.0686
7.06859
7.06859
7.06859
7.06858
7.06858
7.06858
7.0173
7.0173
7.01731
7.01731
7.01732
7.01733
7.01734
7.01735
7.01735
7.01736
7.01737
7.01738
7.01738
7.01739
7.01739
7.01739
7.01739
7.01739
7.01739
7.01739
7.44736
7.44736
7.44736
7.44736
7.44736
7.44737
7.44737
7.44737
7.44737
7.44737
7.44737
7.44737
7.44737
7.44738
7.44738
7.44737
7.44737
7.44737
7.44737
7.44737
7.35816
7.35816
7.35817
7.35818
7.35819
7.35821
7.35822
7.35824
7.35826
7.35827
7.35829
7.35831
7.35832
7.35834
7.35835
7.35836
7.35836
7.35837
7.35837
7.35837
8.60901
8.60901
8.60902
8.60902
8.60903
8.60904
8.60905
8.60907
8.60908
8.60909
8.60911
8.60912
8.60914
8.60915
8.60916
8.60917
8.60917
8.60918
8.60918
8.60918
8.37853
8.37854
8.37854
8.37856
8.37857
8.37859
8.37862
8.37864
8.37867
8.3787
8.37874
8.37877
8.3788
8.37883
8.37886
8.37889
8.37891
8.37893
8.37894
8.37894
11.964
11.964
11.9641
11.9641
11.9641
11.9641
11.9642
11.9642
11.9642
11.9643
11.9643
11.9644
11.9644
11.9645
11.9645
11.9646
11.9646
11.9646
11.9646
11.9646
23.2045
23.2045
23.2045
23.2046
23.2046
23.2046
23.2046
23.2047
23.2047
23.2048
23.2048
23.2048
23.2049
23.2049
23.205
23.205
23.205
23.2051
23.2051
23.2051
21.3485
21.3485
21.3485
21.3485
21.3485
21.3485
21.3485
21.3486
21.3486
21.3486
21.3486
21.3486
21.3487
21.3487
21.3487
21.3487
21.3487
21.3487
21.3487
21.3487
21.7968
21.7968
21.7968
21.7968
21.7968
21.7968
21.7968
21.7968
21.7968
21.7967
21.7967
21.7967
21.7967
21.7967
21.7967
21.7967
21.7967
21.7967
21.7967
21.7967
20.8274
20.8274
20.8274
20.8274
20.8274
20.8274
20.8274
20.8274
20.8274
20.8274
20.8274
20.8273
20.8273
20.8273
20.8273
20.8273
20.8273
20.8273
20.8273
20.8273
21.0589
21.0589
21.0589
21.0588
21.0588
21.0588
21.0588
21.0588
21.0587
21.0587
21.0587
21.0586
21.0586
21.0586
21.0586
21.0585
21.0585
21.0585
21.0585
21.0585
20.5117
20.5117
20.5117
20.5117
20.5117
20.5117
20.5117
20.5117
20.5116
20.5116
20.5116
20.5115
20.5115
20.5115
20.5115
20.5114
20.5114
20.5114
20.5114
20.5114
20.6493
20.6493
20.6493
20.6492
20.6492
20.6492
20.6492
20.6491
20.6491
20.6491
20.649
20.649
20.649
20.6489
20.6489
20.6489
20.6488
20.6488
20.6488
20.6488
20.3763
20.3763
20.3763
20.3763
20.3763
20.3762
20.3762
20.3762
20.3762
20.3761
20.3761
20.3761
20.3761
20.376
20.376
20.376
20.376
20.3759
20.3759
20.3759
20.4553
20.4553
20.4553
20.4552
20.4552
20.4552
20.4552
20.4551
20.4551
20.4551
20.455
20.455
20.455
20.4549
20.4549
20.4549
20.4548
20.4548
20.4548
20.4548
20.4002
20.4002
20.4002
20.4002
20.4002
20.4002
20.4002
20.4002
20.4001
20.4001
20.4001
20.4001
20.4001
20.4
20.4
20.4
20.4
20.4
20.3999
20.3999
20.4195
20.4195
20.4195
20.4195
20.4195
20.4195
20.4194
20.4194
20.4194
20.4194
20.4194
20.4194
20.4193
20.4193
20.4193
20.4193
20.4193
20.4193
20.4193
20.4192
20.5892
20.5892
20.5892
20.5892
20.5892
20.5892
20.5892
20.5892
20.5891
20.5891
20.5891
20.5891
20.5891
20.589
20.589
20.589
20.589
20.589
20.589
20.589
20.5439
20.5439
20.5439
20.5439
20.5439
20.5439
20.5439
20.5439
20.5439
20.5439
20.5439
20.5439
20.5439
20.5439
20.5439
20.5439
20.5439
20.5439
20.5439
20.5439
20.9844
20.9844
20.9844
20.9844
20.9844
20.9844
20.9844
20.9843
20.9843
20.9843
20.9843
20.9843
20.9843
20.9843
20.9843
20.9843
20.9842
20.9842
20.9842
20.9842
20.8545
20.8545
20.8545
20.8546
20.8546
20.8546
20.8546
20.8546
20.8546
20.8546
20.8546
20.8546
20.8546
20.8546
20.8546
20.8546
20.8546
20.8546
20.8546
20.8546
21.6751
21.6751
21.6751
21.6751
21.6751
21.6751
21.6751
21.6751
21.6751
21.6751
21.6751
21.6751
21.6751
21.6751
21.6751
21.6751
21.6751
21.6751
21.6751
21.6751
21.4099
21.4099
21.4099
21.41
21.41
21.41
21.41
21.41
21.4101
21.4101
21.4101
21.4102
21.4102
21.4102
21.4102
21.4102
21.4102
21.4102
21.4102
21.4102
22.8099
22.8099
22.8099
22.8099
22.81
22.81
22.81
22.81
22.81
22.8101
22.8101
22.8101
22.8102
22.8102
22.8102
22.8102
22.8103
22.8103
22.8103
22.8103
22.2486
22.2486
22.2486
22.2487
22.2487
22.2487
22.2488
22.2488
22.2489
22.249
22.249
22.2491
22.2491
22.2492
22.2492
22.2493
22.2493
22.2494
22.2494
22.2494
24.9305
24.9305
24.9306
24.9306
24.9306
24.9307
24.9308
24.9308
24.9309
24.931
24.9311
24.9312
24.9313
24.9314
24.9315
24.9316
24.9316
24.9317
24.9317
24.9318
38.2775
38.2775
38.2775
38.2776
38.2776
38.2776
38.2777
38.2777
38.2778
38.2778
38.2779
38.2779
38.278
38.278
38.2781
38.2781
38.2782
38.2782
38.2782
38.2782
35.5456
35.5456
35.5456
35.5457
35.5457
35.5457
35.5457
35.5457
35.5458
35.5458
35.5458
35.5458
35.5458
35.5459
35.5459
35.5459
35.5459
35.5459
35.5459
35.5459
36.1409
36.1409
36.1409
36.1409
36.1409
36.1408
36.1408
36.1408
36.1408
36.1408
36.1408
36.1408
36.1408
36.1408
36.1408
36.1408
36.1408
36.1408
36.1408
36.1408
34.5875
34.5875
34.5874
34.5874
34.5874
34.5874
34.5874
34.5874
34.5874
34.5874
34.5873
34.5873
34.5873
34.5873
34.5873
34.5873
34.5872
34.5872
34.5872
34.5872
34.9225
34.9225
34.9225
34.9225
34.9225
34.9225
34.9224
34.9224
34.9224
34.9223
34.9223
34.9222
34.9222
34.9222
34.9221
34.9221
34.9221
34.9221
34.922
34.922
34.0718
34.0718
34.0718
34.0717
34.0717
34.0717
34.0717
34.0716
34.0716
34.0716
34.0715
34.0715
34.0715
34.0714
34.0714
34.0714
34.0713
34.0713
34.0713
34.0713
34.279
34.279
34.279
34.279
34.279
34.2789
34.2789
34.2789
34.2788
34.2788
34.2787
34.2787
34.2786
34.2786
34.2785
34.2785
34.2785
34.2784
34.2784
34.2784
33.8697
33.8697
33.8697
33.8697
33.8697
33.8696
33.8696
33.8696
33.8695
33.8695
33.8695
33.8694
33.8694
33.8693
33.8693
33.8693
33.8692
33.8692
33.8692
33.8692
33.9857
33.9857
33.9857
33.9857
33.9857
33.9856
33.9856
33.9856
33.9855
33.9855
33.9854
33.9854
33.9853
33.9853
33.9853
33.9852
33.9852
33.9852
33.9851
33.9851
33.9129
33.9129
33.9129
33.9129
33.9129
33.9129
33.9128
33.9128
33.9128
33.9128
33.9127
33.9127
33.9127
33.9126
33.9126
33.9126
33.9126
33.9125
33.9125
33.9125
33.9494
33.9494
33.9494
33.9494
33.9494
33.9494
33.9494
33.9493
33.9493
33.9493
33.9493
33.9492
33.9492
33.9492
33.9492
33.9491
33.9491
33.9491
33.9491
33.9491
34.2123
34.2123
34.2123
34.2123
34.2122
34.2122
34.2122
34.2122
34.2122
34.2122
34.2121
34.2121
34.2121
34.2121
34.212
34.212
34.212
34.212
34.212
34.2119
34.1669
34.1669
34.1669
34.1669
34.167
34.167
34.167
34.167
34.1669
34.1669
34.1669
34.1669
34.1669
34.1669
34.1669
34.1669
34.1669
34.1669
34.1669
34.1669
34.837
34.837
34.837
34.837
34.837
34.837
34.8369
34.8369
34.8369
34.8369
34.8369
34.8369
34.8369
34.8369
34.8369
34.8369
34.8369
34.8368
34.8368
34.8368
34.6773
34.6773
34.6773
34.6773
34.6773
34.6774
34.6774
34.6774
34.6774
34.6774
34.6775
34.6775
34.6775
34.6775
34.6775
34.6775
34.6775
34.6775
34.6775
34.6775
35.9523
35.9523
35.9523
35.9523
35.9523
35.9523
35.9524
35.9524
35.9524
35.9524
35.9524
35.9524
35.9524
35.9524
35.9525
35.9525
35.9525
35.9525
35.9525
35.9525
35.5974
35.5974
35.5975
35.5975
35.5975
35.5976
35.5976
35.5976
35.5977
35.5977
35.5978
35.5978
35.5979
35.5979
35.5979
35.598
35.598
35.598
35.598
35.598
37.9174
37.9174
37.9174
37.9174
37.9175
37.9175
37.9175
37.9176
37.9176
37.9177
37.9178
37.9178
37.9179
37.9179
37.918
37.918
37.918
37.9181
37.9181
37.9181
37.1703
37.1703
37.1704
37.1704
37.1705
37.1705
37.1706
37.1707
37.1708
37.1709
37.171
37.1711
37.1711
37.1712
37.1713
37.1714
37.1714
37.1715
37.1715
37.1715
41.2356
41.2356
41.2357
41.2357
41.2358
41.2359
41.236
41.2361
41.2362
41.2363
41.2365
41.2366
41.2368
41.2369
41.237
41.2371
41.2372
41.2373
41.2373
41.2374
51.8027
51.8027
51.8027
51.8027
51.8028
51.8028
51.8029
51.8029
51.803
51.803
51.8031
51.8031
51.8032
51.8032
51.8033
51.8033
51.8034
51.8034
51.8034
51.8034
49.1218
49.1218
49.1218
49.1218
49.1219
49.1219
49.1219
49.1219
49.1219
49.122
49.122
49.122
49.122
49.1221
49.1221
49.1221
49.1221
49.1221
49.1221
49.1221
49.7843
49.7843
49.7843
49.7843
49.7843
49.7843
49.7843
49.7843
49.7843
49.7843
49.7843
49.7842
49.7842
49.7842
49.7842
49.7842
49.7842
49.7842
49.7842
49.7842
48.0865
48.0865
48.0865
48.0865
48.0865
48.0865
48.0865
48.0864
48.0864
48.0864
48.0864
48.0864
48.0864
48.0863
48.0863
48.0863
48.0863
48.0863
48.0863
48.0863
48.5056
48.5056
48.5056
48.5056
48.5056
48.5055
48.5055
48.5055
48.5054
48.5054
48.5053
48.5053
48.5052
48.5052
48.5052
48.5051
48.5051
48.5051
48.5051
48.5051
47.4814
47.4814
47.4814
47.4814
47.4814
47.4813
47.4813
47.4813
47.4812
47.4812
47.4811
47.4811
47.4811
47.481
47.481
47.481
47.4809
47.4809
47.4809
47.4809
47.7444
47.7444
47.7444
47.7444
47.7443
47.7443
47.7442
47.7442
47.7442
47.7441
47.744
47.744
47.7439
47.7439
47.7438
47.7438
47.7438
47.7437
47.7437
47.7437
47.2464
47.2464
47.2464
47.2464
47.2464
47.2463
47.2463
47.2463
47.2462
47.2462
47.2461
47.2461
47.246
47.246
47.2459
47.2459
47.2459
47.2458
47.2458
47.2458
47.3906
47.3906
47.3906
47.3905
47.3905
47.3905
47.3904
47.3904
47.3903
47.3903
47.3902
47.3902
47.3901
47.3901
47.3901
47.39
47.39
47.3899
47.3899
47.3899
47.3134
47.3134
47.3134
47.3134
47.3134
47.3133
47.3133
47.3133
47.3132
47.3132
47.3132
47.3131
47.3131
47.3131
47.313
47.313
47.313
47.3129
47.3129
47.3129
47.3635
47.3635
47.3635
47.3635
47.3635
47.3634
47.3634
47.3634
47.3634
47.3633
47.3633
47.3633
47.3632
47.3632
47.3632
47.3631
47.3631
47.3631
47.3631
47.3631
47.7088
47.7088
47.7088
47.7088
47.7088
47.7088
47.7087
47.7087
47.7087
47.7087
47.7086
47.7086
47.7086
47.7085
47.7085
47.7085
47.7085
47.7084
47.7084
47.7084
47.6608
47.6608
47.6608
47.6608
47.6608
47.6608
47.6608
47.6608
47.6608
47.6608
47.6608
47.6608
47.6608
47.6608
47.6607
47.6607
47.6607
47.6607
47.6607
47.6607
48.5038
48.5038
48.5038
48.5038
48.5038
48.5038
48.5038
48.5038
48.5038
48.5038
48.5038
48.5038
48.5037
48.5037
48.5037
48.5037
48.5037
48.5037
48.5036
48.5036
48.3155
48.3155
48.3156
48.3156
48.3156
48.3156
48.3156
48.3156
48.3156
48.3157
48.3157
48.3157
48.3157
48.3157
48.3157
48.3157
48.3157
48.3157
48.3157
48.3157
49.8251
49.8251
49.8252
49.8252
49.8252
49.8252
49.8252
49.8252
49.8252
49.8253
49.8253
49.8253
49.8253
49.8253
49.8253
49.8253
49.8253
49.8253
49.8253
49.8253
49.4113
49.4113
49.4113
49.4113
49.4113
49.4114
49.4114
49.4115
49.4115
49.4116
49.4116
49.4117
49.4117
49.4118
49.4118
49.4118
49.4119
49.4119
49.4119
49.4119
51.8608
51.8608
51.8608
51.8608
51.8609
51.8609
51.861
51.861
51.8611
51.8611
51.8612
51.8612
51.8613
51.8614
51.8614
51.8615
51.8615
51.8615
51.8615
51.8615
51.0595
51.0595
51.0595
51.0596
51.0596
51.0597
51.0598
51.0599
51.06
51.0601
51.0602
51.0603
51.0604
51.0605
51.0606
51.0607
51.0607
51.0608
51.0608
51.0608
54.9189
54.9189
54.919
54.919
54.9191
54.9192
54.9193
54.9194
54.9196
54.9197
54.9199
54.92
54.9201
54.9203
54.9204
54.9205
54.9206
54.9207
54.9208
54.9208
65.528
65.528
65.528
65.528
65.5281
65.5281
65.5282
65.5282
65.5282
65.5283
65.5284
65.5284
65.5285
65.5285
65.5286
65.5286
65.5286
65.5287
65.5287
65.5287
62.6532
62.6532
62.6533
62.6533
62.6533
62.6533
62.6533
62.6533
62.6534
62.6534
62.6534
62.6534
62.6535
62.6535
62.6535
62.6535
62.6535
62.6535
62.6536
62.6536
63.3727
63.3727
63.3727
63.3727
63.3727
63.3727
63.3726
63.3726
63.3726
63.3726
63.3726
63.3726
63.3726
63.3726
63.3726
63.3725
63.3725
63.3725
63.3725
63.3725
61.4558
61.4558
61.4558
61.4558
61.4557
61.4557
61.4557
61.4557
61.4557
61.4557
61.4556
61.4556
61.4556
61.4556
61.4556
61.4556
61.4555
61.4555
61.4555
61.4555
61.934
61.934
61.9339
61.9339
61.9339
61.9339
61.9338
61.9338
61.9337
61.9337
61.9336
61.9336
61.9335
61.9335
61.9335
61.9334
61.9334
61.9334
61.9334
61.9333
60.7667
60.7667
60.7667
60.7667
60.7667
60.7666
60.7666
60.7666
60.7665
60.7665
60.7664
60.7664
60.7664
60.7663
60.7663
60.7662
60.7662
60.7662
60.7662
60.7661
61.0633
61.0632
61.0632
61.0632
61.0632
61.0631
61.0631
61.063
61.063
61.0629
61.0629
61.0628
61.0628
61.0627
61.0627
61.0626
61.0626
61.0625
61.0625
61.0625
60.5044
60.5043
60.5043
60.5043
60.5043
60.5043
60.5042
60.5042
60.5041
60.5041
60.504
60.504
60.5039
60.5039
60.5038
60.5038
60.5038
60.5037
60.5037
60.5037
60.6673
60.6672
60.6672
60.6672
60.6672
60.6671
60.6671
60.6671
60.667
60.667
60.6669
60.6669
60.6668
60.6668
60.6667
60.6667
60.6666
60.6666
60.6666
60.6666
60.5952
60.5952
60.5952
60.5952
60.5951
60.5951
60.5951
60.5951
60.595
60.595
60.5949
60.5949
60.5949
60.5948
60.5948
60.5947
60.5947
60.5947
60.5947
60.5947
60.6551
60.6551
60.6551
60.6551
60.6551
60.655
60.655
60.655
60.655
60.6549
60.6549
60.6549
60.6548
60.6548
60.6548
60.6547
60.6547
60.6547
60.6547
60.6546
61.0743
61.0743
61.0743
61.0742
61.0742
61.0742
61.0742
61.0742
61.0741
61.0741
61.0741
61.074
61.074
61.074
61.074
61.0739
61.0739
61.0739
61.0739
61.0738
61.0246
61.0246
61.0246
61.0246
61.0246
61.0246
61.0246
61.0246
61.0246
61.0246
61.0246
61.0245
61.0245
61.0245
61.0245
61.0245
61.0245
61.0245
61.0244
61.0244
62.0157
62.0157
62.0157
62.0157
62.0157
62.0157
62.0157
62.0157
62.0157
62.0157
62.0157
62.0157
62.0156
62.0156
62.0156
62.0156
62.0156
62.0156
62.0156
62.0156
61.8061
61.8061
61.8061
61.8061
61.8061
61.8062
61.8062
61.8062
61.8062
61.8062
61.8062
61.8063
61.8063
61.8063
61.8063
61.8063
61.8063
61.8063
61.8063
61.8063
63.5471
63.5471
63.5471
63.5471
63.5471
63.5472
63.5472
63.5472
63.5472
63.5473
63.5473
63.5473
63.5473
63.5473
63.5474
63.5474
63.5474
63.5474
63.5474
63.5474
63.0824
63.0825
63.0825
63.0825
63.0825
63.0826
63.0826
63.0827
63.0828
63.0828
63.0829
63.0829
63.083
63.083
63.0831
63.0831
63.0831
63.0832
63.0832
63.0832
65.8564
65.8564
65.8564
65.8564
65.8565
65.8565
65.8566
65.8567
65.8567
65.8568
65.8569
65.8569
65.857
65.8571
65.8571
65.8572
65.8572
65.8573
65.8573
65.8573
64.9841
64.9841
64.9841
64.9842
64.9842
64.9843
64.9844
64.9845
64.9846
64.9847
64.9849
64.985
64.9851
64.9852
64.9853
64.9854
64.9854
64.9855
64.9855
64.9855
69.1263
69.1263
69.1263
69.1264
69.1265
69.1266
69.1267
69.1269
69.127
69.1272
69.1273
69.1275
69.1276
69.1278
69.1279
69.128
69.1281
69.1282
69.1282
69.1282
78.759
78.759
78.759
78.759
78.759
78.7591
78.7591
78.7592
78.7592
78.7593
78.7593
78.7594
78.7594
78.7594
78.7595
78.7595
78.7596
78.7596
78.7596
78.7596
75.8686
75.8686
75.8686
75.8686
75.8686
75.8686
75.8687
75.8687
75.8687
75.8687
75.8687
75.8688
75.8688
75.8688
75.8688
75.8688
75.8688
75.8689
75.8689
75.8689
76.6259
76.6259
76.6259
76.6259
76.6259
76.6258
76.6258
76.6258
76.6258
76.6258
76.6258
76.6258
76.6257
76.6257
76.6257
76.6257
76.6257
76.6257
76.6257
76.6257
74.6217
74.6217
74.6217
74.6217
74.6217
74.6216
74.6216
74.6216
74.6216
74.6216
74.6216
74.6215
74.6215
74.6215
74.6215
74.6215
74.6214
74.6214
74.6214
74.6214
75.1374
75.1374
75.1373
75.1373
75.1373
75.1373
75.1372
75.1372
75.1371
75.1371
75.137
75.137
75.137
75.1369
75.1369
75.1368
75.1368
75.1368
75.1368
75.1368
73.8924
73.8924
73.8924
73.8923
73.8923
73.8923
73.8922
73.8922
73.8922
73.8921
73.8921
73.892
73.892
73.892
73.8919
73.8919
73.8919
73.8918
73.8918
73.8918
74.2107
74.2107
74.2107
74.2106
74.2106
74.2106
74.2105
74.2105
74.2104
74.2104
74.2103
74.2102
74.2102
74.2101
74.2101
74.2101
74.21
74.21
74.21
74.21
73.6178
73.6178
73.6178
73.6177
73.6177
73.6177
73.6176
73.6176
73.6175
73.6175
73.6174
73.6174
73.6173
73.6173
73.6173
73.6172
73.6172
73.6171
73.6171
73.6171
73.7933
73.7933
73.7932
73.7932
73.7932
73.7932
73.7931
73.7931
73.793
73.793
73.7929
73.7929
73.7928
73.7928
73.7927
73.7927
73.7927
73.7926
73.7926
73.7926
73.7335
73.7335
73.7335
73.7335
73.7335
73.7334
73.7334
73.7334
73.7333
73.7333
73.7332
73.7332
73.7331
73.7331
73.7331
73.733
73.733
73.733
73.7329
73.7329
73.799
73.799
73.799
73.799
73.799
73.799
73.7989
73.7989
73.7989
73.7988
73.7988
73.7988
73.7987
73.7987
73.7987
73.7986
73.7986
73.7986
73.7986
73.7986
74.2828
74.2828
74.2828
74.2828
74.2828
74.2828
74.2828
74.2827
74.2827
74.2827
74.2826
74.2826
74.2826
74.2825
74.2825
74.2825
74.2825
74.2824
74.2824
74.2824
74.2276
74.2276
74.2276
74.2276
74.2276
74.2276
74.2276
74.2276
74.2276
74.2276
74.2276
74.2275
74.2275
74.2275
74.2275
74.2275
74.2275
74.2274
74.2274
74.2274
75.3336
75.3336
75.3336
75.3336
75.3336
75.3336
75.3336
75.3336
75.3336
75.3336
75.3335
75.3335
75.3335
75.3335
75.3335
75.3335
75.3334
75.3334
75.3334
75.3334
75.1022
75.1022
75.1022
75.1022
75.1022
75.1023
75.1023
75.1023
75.1023
75.1023
75.1023
75.1023
75.1024
75.1024
75.1024
75.1024
75.1024
75.1024
75.1024
75.1024
76.9858
76.9858
76.9858
76.9858
76.9858
76.9858
76.9858
76.9859
76.9859
76.9859
76.9859
76.9859
76.9859
76.986
76.986
76.986
76.986
76.986
76.986
76.986
76.4848
76.4848
76.4848
76.4848
76.4849
76.4849
76.4849
76.485
76.485
76.4851
76.4851
76.4852
76.4852
76.4853
76.4853
76.4854
76.4854
76.4854
76.4854
76.4854
79.3592
79.3592
79.3593
79.3593
79.3593
79.3594
79.3594
79.3595
79.3596
79.3596
79.3597
79.3598
79.3598
79.3599
79.3599
79.36
79.36
79.3601
79.3601
79.3601
78.4572
78.4573
78.4573
78.4573
78.4574
78.4575
78.4576
78.4577
78.4578
78.4579
78.458
78.4581
78.4582
78.4583
78.4584
78.4585
78.4585
78.4586
78.4586
78.4586
82.5557
82.5558
82.5558
82.5559
82.556
82.5561
82.5562
82.5563
82.5565
82.5566
82.5568
82.5569
82.557
82.5572
82.5573
82.5574
82.5575
82.5575
82.5576
82.5576
91.852
91.852
91.852
91.8521
91.8521
91.8521
91.8522
91.8522
91.8522
91.8523
91.8523
91.8524
91.8524
91.8524
91.8525
91.8525
91.8525
91.8526
91.8526
91.8526
88.917
88.917
88.917
88.917
88.917
88.9171
88.9171
88.9171
88.9171
88.9171
88.9171
88.9172
88.9172
88.9172
88.9172
88.9172
88.9172
88.9172
88.9172
88.9172
89.6933
89.6933
89.6933
89.6933
89.6933
89.6933
89.6933
89.6933
89.6932
89.6932
89.6932
89.6932
89.6932
89.6932
89.6932
89.6932
89.6931
89.6931
89.6931
89.6931
87.621
87.621
87.621
87.621
87.621
87.621
87.621
87.6209
87.6209
87.6209
87.6209
87.6209
87.6208
87.6208
87.6208
87.6208
87.6208
87.6207
87.6207
87.6207
88.1544
88.1544
88.1544
88.1544
88.1544
88.1543
88.1543
88.1542
88.1542
88.1542
88.1541
88.1541
88.154
88.154
88.154
88.1539
88.1539
88.1539
88.1538
88.1538
86.8595
86.8595
86.8595
86.8595
86.8594
86.8594
86.8594
86.8593
86.8593
86.8593
86.8592
86.8592
86.8591
86.8591
86.8591
86.859
86.859
86.859
86.859
86.8589
87.1894
87.1894
87.1894
87.1894
87.1893
87.1893
87.1892
87.1892
87.1892
87.1891
87.189
87.189
87.1889
87.1889
87.1889
87.1888
87.1888
87.1888
87.1887
87.1887
86.5796
86.5796
86.5796
86.5796
86.5795
86.5795
86.5795
86.5794
86.5794
86.5793
86.5793
86.5792
86.5792
86.5791
86.5791
86.579
86.579
86.579
86.579
86.579
86.7625
86.7625
86.7624
86.7624
86.7624
86.7624
86.7623
86.7623
86.7622
86.7622
86.7621
86.7621
86.762
86.762
86.762
86.7619
86.7619
86.7619
86.7618
86.7618
86.7194
86.7194
86.7194
86.7194
86.7193
86.7193
86.7193
86.7192
86.7192
86.7191
86.7191
86.7191
86.719
86.719
86.7189
86.7189
86.7189
86.7188
86.7188
86.7188
86.7875
86.7875
86.7874
86.7874
86.7874
86.7874
86.7874
86.7873
86.7873
86.7873
86.7872
86.7872
86.7872
86.7871
86.7871
86.7871
86.7871
86.787
86.787
86.787
87.3282
87.3282
87.3282
87.3282
87.3281
87.3281
87.3281
87.3281
87.328
87.328
87.328
87.3279
87.3279
87.3279
87.3278
87.3278
87.3278
87.3278
87.3278
87.3278
87.2652
87.2652
87.2652
87.2652
87.2652
87.2652
87.2652
87.2652
87.2652
87.2652
87.2651
87.2651
87.2651
87.2651
87.2651
87.2651
87.2651
87.2651
87.2651
87.2651
88.4666
88.4666
88.4666
88.4666
88.4666
88.4666
88.4666
88.4666
88.4666
88.4666
88.4666
88.4665
88.4665
88.4665
88.4665
88.4665
88.4665
88.4665
88.4665
88.4665
88.2139
88.2139
88.2139
88.2139
88.2139
88.2139
88.2139
88.2139
88.2139
88.2139
88.214
88.214
88.214
88.214
88.214
88.214
88.214
88.214
88.214
88.214
90.2179
90.2179
90.2179
90.2179
90.2179
90.2179
90.2179
90.2179
90.218
90.218
90.218
90.218
90.218
90.218
90.218
90.218
90.2181
90.2181
90.2181
90.2181
89.6828
89.6828
89.6828
89.6829
89.6829
89.6829
89.683
89.683
89.6831
89.6831
89.6832
89.6832
89.6833
89.6833
89.6833
89.6834
89.6834
89.6834
89.6835
89.6835
92.6754
92.6754
92.6754
92.6754
92.6755
92.6755
92.6756
92.6756
92.6757
92.6758
92.6758
92.6759
92.676
92.676
92.6761
92.6761
92.6762
92.6762
92.6762
92.6762
91.739
91.739
91.7391
91.7391
91.7392
91.7393
91.7393
91.7394
91.7395
91.7397
91.7398
91.7399
91.74
91.7401
91.7401
91.7402
91.7403
91.7403
91.7403
91.7403
95.892
95.892
95.892
95.8921
95.8922
95.8923
95.8924
95.8925
95.8927
95.8928
95.8929
95.8931
95.8932
95.8933
95.8934
95.8935
95.8936
95.8936
95.8936
95.8936
104.695
104.695
104.695
104.695
104.695
104.695
104.695
104.695
104.695
104.695
104.695
104.695
104.695
104.695
104.695
104.696
104.696
104.696
104.696
104.696
101.75
101.75
101.75
101.75
101.75
101.75
101.75
101.75
101.75
101.75
101.75
101.75
101.75
101.75
101.75
101.75
101.75
101.75
101.75
101.75
102.537
102.537
102.537
102.537
102.537
102.537
102.537
102.537
102.537
102.537
102.537
102.537
102.537
102.537
102.537
102.537
102.537
102.537
102.537
102.537
100.436
100.436
100.436
100.436
100.436
100.436
100.436
100.436
100.436
100.436
100.436
100.436
100.436
100.436
100.436
100.435
100.435
100.435
100.435
100.435
100.979
100.979
100.979
100.979
100.979
100.979
100.979
100.978
100.978
100.978
100.978
100.978
100.978
100.978
100.978
100.978
100.978
100.978
100.978
100.978
99.6584
99.6584
99.6584
99.6584
99.6583
99.6583
99.6583
99.6582
99.6582
99.6582
99.6581
99.6581
99.6581
99.658
99.658
99.658
99.6579
99.6579
99.6579
99.6579
99.995
99.995
99.995
99.995
99.9949
99.9949
99.9948
99.9948
99.9948
99.9947
99.9947
99.9946
99.9946
99.9945
99.9945
99.9945
99.9944
99.9944
99.9944
99.9944
99.381
99.381
99.381
99.381
99.381
99.3809
99.3809
99.3808
99.3808
99.3808
99.3807
99.3807
99.3806
99.3806
99.3805
99.3805
99.3805
99.3804
99.3804
99.3804
99.5679
99.5679
99.5679
99.5679
99.5679
99.5678
99.5678
99.5678
99.5677
99.5677
99.5676
99.5676
99.5676
99.5675
99.5675
99.5674
99.5674
99.5674
99.5674
99.5674
99.5442
99.5442
99.5442
99.5442
99.5442
99.5441
99.5441
99.5441
99.544
99.544
99.5439
99.5439
99.5438
99.5438
99.5438
99.5437
99.5437
99.5437
99.5437
99.5437
99.6121
99.6121
99.6121
99.6121
99.6121
99.6121
99.612
99.612
99.612
99.6119
99.6119
99.6119
99.6118
99.6118
99.6118
99.6118
99.6117
99.6117
99.6117
99.6117
100.203
100.203
100.203
100.203
100.203
100.203
100.203
100.203
100.203
100.203
100.202
100.202
100.202
100.202
100.202
100.202
100.202
100.202
100.202
100.202
100.13
100.13
100.13
100.13
100.13
100.13
100.13
100.13
100.13
100.13
100.13
100.13
100.13
100.13
100.13
100.13
100.13
100.13
100.13
100.13
101.408
101.408
101.408
101.408
101.408
101.408
101.408
101.408
101.408
101.408
101.408
101.408
101.408
101.408
101.408
101.408
101.408
101.408
101.408
101.408
101.134
101.134
101.134
101.134
101.134
101.134
101.134
101.134
101.134
101.134
101.134
101.134
101.134
101.134
101.134
101.134
101.134
101.134
101.134
101.134
103.224
103.224
103.224
103.224
103.224
103.224
103.224
103.224
103.224
103.224
103.224
103.224
103.224
103.224
103.224
103.224
103.224
103.224
103.224
103.224
102.661
102.661
102.661
102.661
102.661
102.661
102.661
102.661
102.661
102.661
102.661
102.661
102.661
102.661
102.661
102.661
102.661
102.661
102.661
102.661
105.714
105.714
105.714
105.714
105.714
105.714
105.714
105.714
105.714
105.714
105.714
105.714
105.714
105.714
105.714
105.714
105.714
105.714
105.714
105.714
104.754
104.754
104.754
104.754
104.754
104.755
104.755
104.755
104.755
104.755
104.755
104.755
104.755
104.755
104.755
104.755
104.755
104.755
104.755
104.755
108.901
108.901
108.901
108.901
108.901
108.901
108.901
108.901
108.901
108.902
108.902
108.902
108.902
108.902
108.902
108.902
108.902
108.902
108.902
108.902
117.355
117.355
117.355
117.355
117.355
117.355
117.355
117.355
117.355
117.355
117.355
117.356
117.356
117.356
117.356
117.356
117.356
117.356
117.356
117.356
114.401
114.401
114.401
114.401
114.401
114.401
114.401
114.401
114.401
114.401
114.401
114.401
114.401
114.401
114.401
114.401
114.401
114.401
114.401
114.401
115.193
115.193
115.193
115.193
115.193
115.193
115.193
115.193
115.193
115.193
115.193
115.193
115.193
115.193
115.193
115.193
115.193
115.193
115.193
115.193
113.074
113.074
113.074
113.074
113.074
113.074
113.074
113.074
113.074
113.074
113.074
113.074
113.074
113.074
113.074
113.074
113.074
113.074
113.074
113.074
113.621
113.621
113.621
113.621
113.621
113.621
113.621
113.621
113.621
113.621
113.621
113.621
113.621
113.621
113.621
113.621
113.621
113.621
113.621
113.621
112.289
112.289
112.289
112.289
112.289
112.289
112.289
112.289
112.289
112.289
112.289
112.289
112.289
112.288
112.288
112.288
112.288
112.288
112.288
112.288
112.629
112.629
112.629
112.629
112.629
112.629
112.629
112.629
112.629
112.629
112.629
112.629
112.628
112.628
112.628
112.628
112.628
112.628
112.628
112.628
112.019
112.019
112.019
112.019
112.019
112.019
112.019
112.019
112.019
112.019
112.019
112.018
112.018
112.018
112.018
112.018
112.018
112.018
112.018
112.018
112.207
112.207
112.207
112.207
112.207
112.207
112.207
112.207
112.207
112.207
112.207
112.207
112.207
112.207
112.207
112.207
112.207
112.207
112.207
112.207
112.204
112.204
112.204
112.204
112.204
112.204
112.204
112.204
112.204
112.204
112.204
112.204
112.204
112.204
112.204
112.204
112.204
112.204
112.204
112.204
112.27
112.27
112.27
112.27
112.27
112.27
112.27
112.27
112.27
112.27
112.27
112.27
112.27
112.27
112.27
112.27
112.27
112.27
112.27
112.27
112.905
112.905
112.905
112.905
112.905
112.905
112.905
112.905
112.905
112.905
112.905
112.905
112.905
112.904
112.904
112.904
112.904
112.904
112.904
112.904
112.821
112.821
112.821
112.821
112.82
112.82
112.82
112.82
112.82
112.82
112.82
112.82
112.82
112.82
112.82
112.82
112.82
112.82
112.82
112.82
114.163
114.163
114.163
114.163
114.163
114.163
114.163
114.163
114.163
114.163
114.163
114.163
114.163
114.162
114.162
114.162
114.162
114.162
114.162
114.162
113.868
113.868
113.868
113.868
113.868
113.868
113.868
113.868
113.868
113.868
113.868
113.868
113.868
113.868
113.868
113.868
113.868
113.868
113.868
113.868
116.028
116.028
116.028
116.028
116.028
116.028
116.028
116.028
116.028
116.028
116.028
116.028
116.028
116.028
116.028
116.028
116.028
116.028
116.028
116.028
115.438
115.438
115.438
115.438
115.438
115.438
115.438
115.438
115.438
115.438
115.438
115.438
115.438
115.438
115.438
115.438
115.438
115.438
115.438
115.438
118.542
118.542
118.542
118.543
118.543
118.543
118.543
118.543
118.543
118.543
118.543
118.543
118.543
118.543
118.543
118.543
118.543
118.543
118.543
118.543
117.562
117.562
117.563
117.563
117.563
117.563
117.563
117.563
117.563
117.563
117.563
117.563
117.563
117.563
117.563
117.563
117.563
117.563
117.563
117.563
121.715
121.715
121.715
121.715
121.715
121.715
121.715
121.715
121.715
121.715
121.715
121.715
121.715
121.715
121.716
121.716
121.716
121.716
121.716
121.716
129.824
129.824
129.824
129.824
129.824
129.824
129.824
129.824
129.824
129.824
129.824
129.824
129.824
129.824
129.824
129.824
129.824
129.824
129.824
129.824
126.867
126.867
126.867
126.867
126.867
126.867
126.867
126.867
126.867
126.867
126.867
126.867
126.867
126.867
126.867
126.867
126.867
126.867
126.867
126.867
127.662
127.662
127.662
127.662
127.662
127.662
127.662
127.662
127.662
127.662
127.662
127.662
127.662
127.662
127.662
127.662
127.662
127.662
127.662
127.662
125.536
125.536
125.536
125.536
125.536
125.536
125.536
125.536
125.536
125.536
125.536
125.536
125.536
125.536
125.536
125.536
125.536
125.536
125.536
125.536
126.086
126.086
126.086
126.086
126.086