/*--------------------------------*- C++ -*----------------------------------*\
| =========                 |                                                 |
| \\      /  F ield         | OpenFOAM: The Open Source CFD Toolbox           |
|  \\    /   O peration     | Version:  2212                                  |
|   \\  /    A nd           | Website:  www.openfoam.com                      |
|    \\/     M anipulation  |                                                 |
\*---------------------------------------------------------------------------*/
FoamFile
{
    version     2.0;
    format      ascii;
    arch        "LSB;label=32;scalar=64";
    class       volVectorField;
    location    "0.000282";
    object      U;
}
// * * * * * * * * * * * * * * * * * * * * * * * * * * * * * * * * * * * * * //

dimensions      [0 1 -1 0 0 0 0];

internalField   nonuniform List<vector> 
37872
(
(1.88373e-07 1.71279 629.781)
(3.68261e-07 2.74022 629.79)
(5.55727e-07 4.05422 629.798)
(7.20151e-07 5.37267 629.799)
(8.21734e-07 6.75873 629.785)
(7.89402e-07 8.09365 629.762)
(5.92537e-07 9.33944 629.731)
(1.84145e-07 10.6353 629.689)
(-5.03949e-07 11.9882 629.632)
(-1.41901e-06 13.3158 629.561)
(-2.4959e-06 14.6409 629.472)
(-3.62971e-06 15.9744 629.359)
(-4.599e-06 17.2695 629.221)
(-5.29862e-06 18.5358 629.058)
(-5.67375e-06 19.7948 628.891)
(-5.70224e-06 21.0419 628.723)
(-5.33926e-06 22.2056 628.553)
(-4.6488e-06 23.2441 628.457)
(-4.03425e-06 24.2145 628.432)
(-3.48526e-06 24.9873 628.606)
(-2.72983e-06 25.708 629.006)
(-1.98215e-06 26.5991 629.659)
(-1.44125e-06 27.6028 630.415)
(-1.01854e-06 28.8104 631.047)
(-6.6606e-07 30.2018 631.123)
(-4.35385e-07 32.0037 629.589)
(-2.77854e-07 34.1675 625.899)
(-1.63629e-07 36.4359 619.485)
(-7.91548e-08 38.9684 609.735)
(-2.27001e-08 41.3691 596.8)
(1.06284e-08 43.5548 581.53)
(2.75013e-08 45.5316 563.589)
(3.18393e-08 47.2686 541.254)
(2.60775e-08 48.6874 513.061)
(1.5648e-08 49.4061 479.443)
(6.49257e-09 49.1112 441.406)
(1.30391e-09 47.5752 399.81)
(-3.78634e-10 44.791 355.703)
(-2.65198e-10 41.1296 310.301)
(1.07627e-10 36.9874 264.804)
(2.06847e-10 32.6419 221.108)
(1.75012e-10 28.3789 180.814)
(1.17417e-10 24.2017 144.66)
(7.38198e-11 19.9239 112.739)
(4.35273e-11 15.0649 84.82)
(2.25068e-11 10.6227 58.3818)
(6.60825e-12 3.44031 26.8014)
(2.25435e-07 1.71014 629.243)
(4.42706e-07 2.74583 629.249)
(6.75989e-07 4.06362 629.256)
(9.00747e-07 5.38666 629.253)
(1.08213e-06 6.77414 629.24)
(1.13871e-06 8.10934 629.217)
(1.03021e-06 9.35634 629.186)
(7.04941e-07 10.6538 629.142)
(7.92459e-08 12.0086 629.084)
(-8.17165e-07 13.3386 629.011)
(-1.93139e-06 14.6665 628.919)
(-3.16773e-06 16.0047 628.802)
(-4.29712e-06 17.305 628.658)
(-5.18642e-06 18.5707 628.496)
(-5.75663e-06 19.8292 628.334)
(-5.96728e-06 21.0835 628.165)
(-5.70636e-06 22.2562 628.002)
(-5.03163e-06 23.3192 627.894)
(-4.43857e-06 24.3129 627.854)
(-3.90518e-06 25.0977 627.991)
(-3.12491e-06 25.8495 628.352)
(-2.3019e-06 26.7692 628.922)
(-1.67672e-06 27.7943 629.578)
(-1.18058e-06 29.0127 630.038)
(-7.77001e-07 30.4334 629.844)
(-5.10401e-07 32.2522 628.054)
(-3.31777e-07 34.305 624.019)
(-2.04682e-07 36.437 617.191)
(-1.1045e-07 38.8756 607.06)
(-4.57482e-08 41.2195 593.81)
(-5.2888e-09 43.3325 578.265)
(1.77685e-08 45.2359 560.08)
(2.71823e-08 46.9136 537.508)
(2.5014e-08 48.2844 509.097)
(1.63348e-08 48.9869 475.262)
(7.48092e-09 48.699 437.024)
(1.99044e-09 47.169 395.241)
(-1.00221e-10 44.3419 350.914)
(-2.7849e-10 40.584 305.238)
(5.06084e-11 36.3184 259.365)
(2.02287e-10 31.8056 214.863)
(1.78773e-10 27.4281 173.717)
(1.20242e-10 23.2021 136.78)
(9.23452e-11 18.9648 104.233)
(5.7483e-11 14.2694 75.9316)
(2.42531e-11 9.86008 49.8424)
(7.28937e-12 3.14641 21.4164)
(2.56317e-07 1.71351 629.507)
(5.0556e-07 2.75443 629.51)
(7.79491e-07 4.0762 629.517)
(1.06155e-06 5.40351 629.516)
(1.32357e-06 6.79269 629.505)
(1.47489e-06 8.12901 629.485)
(1.46777e-06 9.37812 629.454)
(1.24505e-06 10.6775 629.411)
(7.10421e-07 12.0346 629.354)
(-1.33523e-07 13.3678 629.283)
(-1.23695e-06 14.7009 629.197)
(-2.51487e-06 16.0465 629.092)
(-3.7925e-06 17.3517 628.952)
(-4.87586e-06 18.6167 628.798)
(-5.66356e-06 19.8716 628.643)
(-6.08272e-06 21.1298 628.484)
(-5.95389e-06 22.3188 628.333)
(-5.35678e-06 23.421 628.222)
(-4.80773e-06 24.442 628.171)
(-4.29021e-06 25.2283 628.327)
(-3.51084e-06 26.0148 628.747)
(-2.63734e-06 26.9789 629.405)
(-1.92704e-06 28.0452 630.179)
(-1.345e-06 29.277 630.752)
(-8.97881e-07 30.7208 630.801)
(-5.97102e-07 32.5831 629.45)
(-3.9742e-07 34.5623 625.834)
(-2.58812e-07 36.5506 619.356)
(-1.55156e-07 38.8449 609.513)
(-8.10439e-08 41.0826 596.543)
(-3.13524e-08 43.0686 581.215)
(4.34106e-10 44.8373 563.182)
(1.78914e-08 46.3945 540.72)
(2.19691e-08 47.6586 512.371)
(1.66701e-08 48.2969 478.505)
(8.92651e-09 47.9998 440.198)
(3.05607e-09 46.4483 398.201)
(3.71417e-10 43.4754 353.304)
(-1.60322e-10 39.506 306.522)
(5.86695e-11 35.0107 259.575)
(2.46948e-10 30.4473 214.44)
(2.03135e-10 25.8858 172.751)
(1.2034e-10 21.5009 135.323)
(7.41041e-11 17.2894 102.364)
(4.43268e-11 12.8677 73.6589)
(2.25355e-11 8.56234 47.3864)
(6.27349e-12 2.86795 19.3429)
(2.77312e-07 1.72331 629.588)
(5.50332e-07 2.76669 629.591)
(8.59245e-07 4.09211 629.597)
(1.19693e-06 5.42354 629.597)
(1.54607e-06 6.81464 629.587)
(1.81106e-06 8.15262 629.567)
(1.94188e-06 9.40491 629.536)
(1.87095e-06 10.7068 629.493)
(1.49513e-06 12.067 629.437)
(7.79802e-07 13.4051 629.367)
(-2.28832e-07 14.746 629.275)
(-1.44341e-06 16.1012 629.154)
(-2.83186e-06 17.4091 629.015)
(-4.08898e-06 18.6689 628.868)
(-5.11921e-06 19.914 628.716)
(-5.79527e-06 21.1769 628.557)
(-5.90369e-06 22.4011 628.398)
(-5.5285e-06 23.5617 628.266)
(-5.04214e-06 24.5944 628.203)
(-4.54364e-06 25.3638 628.377)
(-3.78563e-06 26.1807 628.805)
(-2.89002e-06 27.1839 629.485)
(-2.10899e-06 28.3022 630.283)
(-1.4739e-06 29.5666 630.967)
(-9.92816e-07 31.0394 631.108)
(-6.56997e-07 32.911 629.852)
(-4.43607e-07 34.862 626.425)
(-2.97398e-07 36.7678 620.143)
(-1.88428e-07 38.9435 610.474)
(-1.08498e-07 41.0866 597.677)
(-5.29526e-08 42.981 582.497)
(-1.51835e-08 44.6529 564.575)
(8.32737e-09 46.1206 542.206)
(1.75558e-08 47.302 513.925)
(1.56286e-08 47.8756 480.075)
(9.25611e-09 47.5317 441.75)
(3.62273e-09 45.9642 399.686)
(6.71625e-10 43.0217 354.959)
(-1.23055e-10 39.0094 308.606)
(-8.09173e-12 34.3483 261.432)
(1.49523e-10 29.419 215.503)
(1.64892e-10 24.6128 173.014)
(1.18959e-10 19.9687 135.105)
(7.47207e-11 15.5576 101.554)
(4.37781e-11 11.2993 72.3651)
(2.09119e-11 7.235 45.9478)
(3.50955e-12 2.42628 18.1168)
(2.63715e-07 1.73833 629.615)
(5.28295e-07 2.77965 629.618)
(8.39148e-07 4.10763 629.624)
(1.19423e-06 5.44177 629.624)
(1.5776e-06 6.83326 629.615)
(1.91889e-06 8.17317 629.595)
(2.14319e-06 9.42743 629.562)
(2.2024e-06 10.7306 629.52)
(1.98491e-06 12.0925 629.463)
(1.41988e-06 13.4341 629.392)
(4.74185e-07 14.7773 629.301)
(-8.32628e-07 16.1255 629.186)
(-2.16262e-06 17.4289 629.054)
(-3.43087e-06 18.682 628.913)
(-4.50249e-06 19.9274 628.758)
(-5.25193e-06 21.2051 628.59)
(-5.55749e-06 22.4562 628.413)
(-5.35282e-06 23.6363 628.265)
(-4.92176e-06 24.6572 628.247)
(-4.45772e-06 25.4176 628.441)
(-3.73712e-06 26.2497 628.877)
(-2.86758e-06 27.2776 629.591)
(-2.10297e-06 28.4421 630.401)
(-1.4816e-06 29.7656 631.093)
(-1.00181e-06 31.2649 631.315)
(-6.65453e-07 33.1489 630.154)
(-4.5846e-07 35.0828 626.866)
(-3.17406e-07 36.9356 620.786)
(-2.11107e-07 39.0276 611.328)
(-1.3083e-07 41.0873 598.737)
(-7.23483e-08 42.8947 583.731)
(-3.02431e-08 44.4625 565.993)
(-1.66676e-09 45.8327 543.805)
(1.2561e-08 46.9297 515.71)
(1.42264e-08 47.4457 482.051)
(9.62693e-09 47.0763 443.903)
(4.34134e-09 45.5241 401.978)
(1.12156e-09 42.5754 357.015)
(3.34579e-11 38.4807 310.057)
(1.32676e-11 33.682 262.567)
(1.54558e-10 28.5659 216.59)
(1.96413e-10 23.4763 173.748)
(1.40981e-10 18.7332 135.06)
(7.5877e-11 14.3741 100.71)
(4.4843e-11 10.2248 71.0254)
(3.14326e-11 6.37445 44.5671)
(1.30358e-11 2.10554 17.1173)
(2.27663e-07 1.75241 629.625)
(4.57282e-07 2.7905 629.629)
(7.48792e-07 4.11969 629.635)
(1.09674e-06 5.45491 629.635)
(1.48466e-06 6.8464 629.627)
(1.86931e-06 8.18904 629.606)
(2.17284e-06 9.44598 629.576)
(2.33748e-06 10.7511 629.535)
(2.25821e-06 12.1156 629.479)
(1.84708e-06 13.4609 629.41)
(1.09369e-06 14.8102 629.32)
(2.18975e-08 16.1687 629.206)
(-1.31851e-06 17.4728 629.078)
(-2.65859e-06 18.7284 628.937)
(-3.86298e-06 19.9801 628.775)
(-4.8466e-06 21.2703 628.596)
(-5.39029e-06 22.5459 628.405)
(-5.30761e-06 23.7384 628.27)
(-4.94082e-06 24.7306 628.263)
(-4.53425e-06 25.5215 628.476)
(-3.83759e-06 26.3873 628.889)
(-2.96503e-06 27.465 629.596)
(-2.1773e-06 28.6933 630.403)
(-1.51447e-06 30.016 631.157)
(-1.01119e-06 31.5317 631.433)
(-6.84271e-07 33.476 630.333)
(-4.74995e-07 35.3781 627.154)
(-3.35466e-07 37.1667 621.194)
(-2.30979e-07 39.165 611.886)
(-1.50548e-07 41.1357 599.429)
(-9.03767e-08 42.8525 584.586)
(-4.51149e-08 44.3214 566.978)
(-1.22372e-08 45.5991 544.894)
(6.63514e-09 46.6121 516.864)
(1.20102e-08 47.0557 483.23)
(9.4911e-09 46.629 445.089)
(4.85672e-09 45.0657 403.219)
(1.51871e-09 42.1422 358.483)
(2.40191e-10 38.0511 311.841)
(7.32646e-11 33.133 264.243)
(1.76996e-10 27.8563 217.591)
(1.8899e-10 22.6983 174.008)
(1.18616e-10 17.8936 134.64)
(7.48608e-11 13.506 99.8345)
(4.3093e-11 9.45683 69.8138)
(2.2357e-11 5.80034 43.3868)
(7.61774e-12 1.91022 16.3632)
(1.76423e-07 1.76641 629.635)
(3.67836e-07 2.80004 629.641)
(6.31361e-07 4.13159 629.647)
(9.63668e-07 5.46805 629.647)
(1.3627e-06 6.86122 629.64)
(1.7889e-06 8.20677 629.62)
(2.15037e-06 9.46531 629.588)
(2.42733e-06 10.7717 629.546)
(2.50344e-06 12.1379 629.491)
(2.26834e-06 13.486 629.421)
(1.65971e-06 14.8371 629.332)
(6.58583e-07 16.1901 629.222)
(-5.19922e-07 17.4918 629.096)
(-1.76471e-06 18.7484 628.956)
(-2.95144e-06 20.006 628.791)
(-3.95396e-06 21.3096 628.599)
(-4.59781e-06 22.6006 628.396)
(-4.78193e-06 23.7854 628.263)
(-4.59958e-06 24.7581 628.296)
(-4.16419e-06 25.5649 628.527)
(-3.50704e-06 26.4561 628.924)
(-2.76715e-06 27.5561 629.642)
(-2.04813e-06 28.8283 630.46)
(-1.44887e-06 30.2046 631.214)
(-9.83479e-07 31.7854 631.53)
(-6.54079e-07 33.7302 630.531)
(-4.63e-07 35.6335 627.465)
(-3.36514e-07 37.3748 621.627)
(-2.41246e-07 39.2816 612.531)
(-1.65447e-07 41.1647 600.267)
(-1.05981e-07 42.7936 585.615)
(-5.90638e-08 44.1653 568.215)
(-2.28819e-08 45.3549 546.365)
(2.02787e-10 46.2928 518.567)
(9.30574e-09 46.6785 485.109)
(9.01531e-09 46.2059 447.06)
(5.22729e-09 44.6476 405.179)
(1.91914e-09 41.7424 360.208)
(4.05498e-10 37.604 313.092)
(9.09728e-11 32.6613 265.127)
(1.28721e-10 27.3587 218.13)
(1.58184e-10 22.1347 174.14)
(1.4102e-10 17.2633 134.305)
(9.29485e-11 12.8368 99.0601)
(4.48802e-11 8.85866 68.7724)
(1.94207e-11 5.36736 42.3928)
(3.97098e-12 1.77283 15.783)
(1.28416e-07 1.77545 629.641)
(2.87207e-07 2.8072 629.651)
(4.96401e-07 4.14169 629.658)
(7.66384e-07 5.47926 629.658)
(1.1267e-06 6.87296 629.649)
(1.53054e-06 8.21986 629.629)
(1.9299e-06 9.48025 629.599)
(2.27703e-06 10.7879 629.557)
(2.47766e-06 12.1558 629.502)
(2.41102e-06 13.5066 629.433)
(2.01876e-06 14.8613 629.346)
(1.25755e-06 16.2203 629.237)
(1.69514e-07 17.5243 629.112)
(-1.04455e-06 18.7874 628.967)
(-2.24024e-06 20.0572 628.796)
(-3.33832e-06 21.3775 628.591)
(-4.14609e-06 22.6757 628.39)
(-4.43748e-06 23.8396 628.285)
(-4.40253e-06 24.7865 628.327)
(-4.01825e-06 25.6497 628.542)
(-3.44986e-06 26.5877 628.929)
(-2.71135e-06 27.7262 629.612)
(-2.01278e-06 29.0513 630.431)
(-1.3966e-06 30.4354 631.254)
(-9.25779e-07 32.0442 631.566)
(-6.27873e-07 34.044 630.684)
(-4.4718e-07 35.9561 627.734)
(-3.31669e-07 37.6329 622.027)
(-2.4542e-07 39.4388 613.064)
(-1.75502e-07 41.223 600.964)
(-1.18714e-07 42.7512 586.488)
(-7.17945e-08 44.02 569.192)
(-3.34432e-08 45.1215 547.351)
(-6.80175e-09 45.9881 519.52)
(5.82285e-09 46.315 486.109)
(7.96898e-09 45.819 448.114)
(5.38516e-09 44.2629 406.232)
(2.3304e-09 41.3904 361.367)
(5.63772e-10 37.2974 314.364)
(9.8283e-11 32.3373 266.182)
(1.3014e-10 26.9775 218.811)
(1.85765e-10 21.6826 174.334)
(1.64078e-10 16.745 134.058)
(9.7245e-11 12.2942 98.4169)
(6.05541e-11 8.38179 67.896)
(4.21755e-11 5.0283 41.5653)
(1.46832e-11 1.66749 15.3276)
(8.55251e-08 1.77938 629.641)
(2.28577e-07 2.81073 629.655)
(4.08624e-07 4.14662 629.663)
(6.25961e-07 5.48701 629.668)
(9.46873e-07 6.88444 629.66)
(1.33729e-06 8.23345 629.641)
(1.72418e-06 9.49774 629.611)
(2.13158e-06 10.8078 629.57)
(2.46519e-06 12.178 629.515)
(2.57998e-06 13.5313 629.446)
(2.3837e-06 14.888 629.358)
(1.82377e-06 16.2446 629.25)
(9.75508e-07 17.5505 629.124)
(-4.91726e-08 18.818 628.973)
(-1.14712e-06 20.0963 628.8)
(-2.19515e-06 21.4247 628.597)
(-3.01337e-06 22.7176 628.407)
(-3.48824e-06 23.8637 628.317)
(-3.73997e-06 24.8144 628.368)
(-3.37922e-06 25.7035 628.577)
(-2.89642e-06 26.6746 628.939)
(-2.34033e-06 27.83 629.618)
(-1.76358e-06 29.1853 630.439)
(-1.25927e-06 30.6504 631.243)
(-8.41106e-07 32.3204 631.607)
(-5.57909e-07 34.3082 630.829)
(-4.04678e-07 36.2632 628.036)
(-3.10001e-07 37.9063 622.49)
(-2.3913e-07 39.6133 613.672)
(-1.79146e-07 41.2816 601.738)
(-1.27623e-07 42.732 587.389)
(-8.26441e-08 43.9604 570.205)
(-4.35836e-08 45.0068 548.537)
(-1.42096e-08 45.7753 520.912)
(1.85309e-09 45.9981 487.616)
(6.65541e-09 45.4381 449.693)
(5.35939e-09 43.9 407.845)
(2.6432e-09 41.0732 362.824)
(8.44457e-10 36.9885 315.538)
(2.56674e-10 32.0197 267.133)
(1.66013e-10 26.6286 219.466)
(1.5232e-10 21.2927 174.611)
(1.41725e-10 16.314 133.905)
(9.46213e-11 11.8519 97.8978)
(4.73703e-11 8.00127 67.1736)
(2.66544e-11 4.7624 40.8873)
(8.76817e-12 1.58475 14.9664)
(3.40325e-08 1.77749 629.637)
(4.04314e-08 2.81377 629.643)
(8.79859e-08 4.15896 629.653)
(2.38026e-07 5.50468 629.66)
(4.91558e-07 6.90435 629.649)
(8.4485e-07 8.25435 629.628)
(1.26795e-06 9.51775 629.601)
(1.72603e-06 10.8277 629.561)
(2.16279e-06 12.1986 629.507)
(2.44711e-06 13.5544 629.439)
(2.47912e-06 14.9146 629.354)
(2.15522e-06 16.2761 629.247)
(1.49298e-06 17.5876 629.118)
(6.0064e-07 18.8625 628.964)
(-3.96379e-07 20.1484 628.789)
(-1.39535e-06 21.484 628.598)
(-2.33073e-06 22.7657 628.424)
(-2.9646e-06 23.8946 628.349)
(-3.14134e-06 24.8598 628.393)
(-2.95852e-06 25.8051 628.568)
(-2.59802e-06 26.8167 628.933)
(-2.10867e-06 28.0017 629.586)
(-1.59047e-06 29.3968 630.415)
(-1.10132e-06 30.8865 631.241)
(-7.25994e-07 32.5827 631.652)
(-4.83831e-07 34.6014 630.955)
(-3.53928e-07 36.5884 628.317)
(-2.78841e-07 38.2325 622.899)
(-2.24124e-07 39.858 614.22)
(-1.75974e-07 41.4228 602.422)
(-1.31689e-07 42.8102 588.181)
(-9.05193e-08 43.9449 571.078)
(-5.24525e-08 44.8658 549.49)
(-2.15149e-08 45.5444 521.939)
(-2.65573e-09 45.7035 488.721)
(4.70174e-09 45.0953 450.845)
(4.96639e-09 43.5423 409.016)
(2.80154e-09 40.7568 364.105)
(9.88616e-10 36.7249 316.869)
(2.72033e-10 31.7662 268.282)
(1.65233e-10 26.3461 220.272)
(1.77604e-10 20.9683 174.982)
(1.45445e-10 15.9594 133.851)
(9.76494e-11 11.4933 97.5011)
(5.69487e-11 7.69555 66.5939)
(2.40314e-11 4.55181 40.342)
(4.48124e-12 1.51885 14.6804)
(-5.10671e-08 1.78862 629.63)
(-7.13504e-08 2.8242 629.639)
(-6.76652e-08 4.16594 629.647)
(4.68209e-09 5.51613 629.652)
(1.76481e-07 6.91699 629.644)
(4.86571e-07 8.26594 629.621)
(8.795e-07 9.53241 629.591)
(1.36746e-06 10.8473 629.55)
(1.89945e-06 12.2219 629.495)
(2.33518e-06 13.5796 629.427)
(2.575e-06 14.9414 629.341)
(2.53465e-06 16.3058 629.231)
(2.15615e-06 17.6236 629.098)
(1.51662e-06 18.9013 628.951)
(6.95979e-07 20.1844 628.778)
(-2.41102e-07 21.516 628.591)
(-1.10881e-06 22.7919 628.427)
(-1.8072e-06 23.9191 628.355)
(-2.04977e-06 24.912 628.391)
(-2.09142e-06 25.8719 628.541)
(-1.89727e-06 26.911 628.927)
(-1.58779e-06 28.1128 629.576)
(-1.22915e-06 29.5431 630.418)
(-8.84667e-07 31.0996 631.252)
(-5.79155e-07 32.8374 631.729)
(-3.75651e-07 34.8733 631.084)
(-2.81687e-07 36.9122 628.581)
(-2.33242e-07 38.5695 623.324)
(-1.98872e-07 40.1232 614.821)
(-1.65307e-07 41.5893 603.165)
(-1.30587e-07 42.8946 589.076)
(-9.51093e-08 43.9768 572.151)
(-5.95593e-08 44.8123 550.698)
(-2.82778e-08 45.3847 523.28)
(-7.16344e-09 45.4562 490.18)
(2.60371e-09 44.7882 452.381)
(4.43546e-09 43.227 410.575)
(2.94271e-09 40.4744 365.535)
(1.20133e-09 36.4737 318.106)
(3.29473e-10 31.5294 269.331)
(1.40563e-10 26.0986 221.064)
(1.42e-10 20.694 175.418)
(1.20671e-10 15.6639 133.882)
(8.21973e-11 11.1965 97.2099)
(5.88293e-11 7.44075 66.1299)
(3.44465e-11 4.37713 39.899)
(1.28951e-11 1.46369 14.4479)
(-1.37802e-07 1.78958 629.621)
(-2.26871e-07 2.82708 629.632)
(-2.91002e-07 4.17543 629.64)
(-3.11335e-07 5.52667 629.645)
(-2.15665e-07 6.93751 629.64)
(8.5422e-09 8.29167 629.617)
(3.47035e-07 9.55621 629.587)
(8.26088e-07 10.8695 629.546)
(1.41631e-06 12.2445 629.491)
(1.99552e-06 13.6052 629.422)
(2.43869e-06 14.9722 629.335)
(2.60794e-06 16.343 629.225)
(2.46667e-06 17.658 629.095)
(2.02798e-06 18.9391 628.941)
(1.37364e-06 20.234 628.764)
(6.05062e-07 21.5654 628.572)
(-1.58919e-07 22.8263 628.414)
(-7.38546e-07 23.9527 628.333)
(-1.18346e-06 24.9687 628.366)
(-1.42184e-06 25.9639 628.49)
(-1.37382e-06 27.028 628.886)
(-1.18554e-06 28.2615 629.531)
(-9.16244e-07 29.7173 630.394)
(-6.29976e-07 31.3038 631.256)
(-4.0528e-07 33.1001 631.784)
(-2.58374e-07 35.169 631.196)
(-1.99657e-07 37.2298 628.804)
(-1.77726e-07 38.9254 623.72)
(-1.64577e-07 40.4511 615.346)
(-1.47128e-07 41.8383 603.816)
(-1.23649e-07 43.0465 589.825)
(-9.56124e-08 44.055 573.015)
(-6.43279e-08 44.8006 551.666)
(-3.41548e-08 45.2605 524.352)
(-1.18586e-08 45.2413 491.358)
(6.39104e-12 44.5103 453.628)
(3.64717e-09 42.9243 411.883)
(2.97949e-09 40.2056 366.947)
(1.37657e-09 36.2589 319.546)
(4.34701e-10 31.3426 270.624)
(1.67144e-10 25.9048 222.063)
(1.44833e-10 20.4714 176.02)
(1.21437e-10 15.4174 134.043)
(8.11681e-11 10.9463 97.0311)
(4.71355e-11 7.22337 65.7726)
(2.50449e-11 4.2275 39.5437)
(7.94509e-12 1.41586 14.2599)
(-1.80327e-07 1.80079 629.615)
(-3.37503e-07 2.83943 629.625)
(-4.94971e-07 4.18702 629.633)
(-5.81286e-07 5.54108 629.637)
(-5.79697e-07 6.95054 629.627)
(-4.29897e-07 8.30427 629.61)
(-1.18233e-07 9.57303 629.581)
(3.45827e-07 10.8915 629.54)
(9.76596e-07 12.2702 629.484)
(1.65724e-06 13.6331 629.414)
(2.29082e-06 15.0017 629.327)
(2.76382e-06 16.3739 629.218)
(2.91775e-06 17.7009 629.085)
(2.77235e-06 18.989 628.925)
(2.36348e-06 20.2774 628.757)
(1.73295e-06 21.5972 628.568)
(9.82238e-07 22.8604 628.405)
(3.02264e-07 23.978 628.328)
(-1.46042e-07 25.013 628.341)
(-4.44137e-07 26.0307 628.477)
(-5.86037e-07 27.1049 628.87)
(-5.69985e-07 28.3564 629.529)
(-4.70375e-07 29.8489 630.384)
(-3.3838e-07 31.4923 631.248)
(-2.051e-07 33.3445 631.831)
(-1.17061e-07 35.4463 631.308)
(-1.02795e-07 37.5494 629.005)
(-1.11825e-07 39.2757 624.09)
(-1.22048e-07 40.7844 615.91)
(-1.22282e-07 42.1092 604.555)
(-1.11496e-07 43.2244 590.712)
(-9.23123e-08 44.1619 574.064)
(-6.66369e-08 44.833 552.881)
(-3.88331e-08 45.1872 525.691)
(-1.61448e-08 45.0782 492.79)
(-2.55192e-09 44.2817 455.152)
(2.57384e-09 42.6666 413.426)
(2.76428e-09 39.9669 368.401)
(1.5011e-09 36.0556 320.865)
(5.31514e-10 31.1658 271.789)
(1.93595e-10 25.7341 223.007)
(1.4794e-10 20.2881 176.659)
(1.43935e-10 15.2196 134.308)
(9.93134e-11 10.742 96.9501)
(4.68424e-11 7.04367 65.511)
(2.18016e-11 4.10319 39.2678)
(3.96745e-12 1.37541 14.1122)
(-2.5126e-07 1.80221 629.604)
(-4.67091e-07 2.84409 629.617)
(-6.44315e-07 4.19899 629.628)
(-8.02445e-07 5.55712 629.634)
(-8.82051e-07 6.97031 629.63)
(-8.07323e-07 8.32891 629.607)
(-5.93457e-07 9.59977 629.577)
(-1.72521e-07 10.9178 629.535)
(4.70552e-07 12.2981 629.479)
(1.23894e-06 13.6643 629.409)
(2.01109e-06 15.0376 629.321)
(2.64655e-06 16.4166 629.21)
(3.04342e-06 17.7455 629.075)
(3.12768e-06 19.0301 628.925)
(2.92529e-06 20.3255 628.748)
(2.49627e-06 21.6555 628.563)
(1.88721e-06 22.8935 628.404)
(1.32071e-06 24.017 628.327)
(7.87348e-07 25.0753 628.326)
(3.71759e-07 26.1114 628.457)
(8.42336e-08 27.2065 628.833)
(-4.83567e-08 28.4871 629.499)
(-6.25273e-08 30.0141 630.35)
(-2.07406e-08 31.6725 631.234)
(1.37701e-08 33.5765 631.854)
(2.95931e-08 35.7279 631.401)
(-6.49526e-10 37.8583 629.191)
(-3.99123e-08 39.624 624.413)
(-7.33654e-08 41.1489 616.366)
(-9.15448e-08 42.4453 605.114)
(-9.40348e-08 43.4686 591.345)
(-8.4689e-08 44.3063 574.796)
(-6.60423e-08 44.9065 553.737)
(-4.19311e-08 45.1626 526.657)
(-1.98211e-08 44.9575 493.839)
(-5.24287e-09 44.0888 456.273)
(1.3103e-09 42.4296 414.622)
(2.50117e-09 39.7457 369.681)
(1.5803e-09 35.8777 322.158)
(6.27164e-10 31.0185 272.962)
(2.59546e-10 25.5914 223.939)
(1.76147e-10 20.134 177.273)
(1.25158e-10 15.0568 134.58)
(8.74476e-11 10.5768 96.9198)
(5.84333e-11 6.89486 65.3118)
(3.27118e-11 3.99854 39.0462)
(1.24342e-11 1.34022 13.99)
(-2.55278e-07 1.81187 629.586)
(-4.83848e-07 2.85395 629.608)
(-7.46663e-07 4.20838 629.617)
(-9.78033e-07 5.56706 629.624)
(-1.14102e-06 6.9877 629.621)
(-1.16621e-06 8.34781 629.601)
(-9.9334e-07 9.61975 629.572)
(-6.1808e-07 10.9429 629.53)
(6.53148e-09 12.3266 629.474)
(8.17045e-07 13.695 629.405)
(1.7311e-06 15.0705 629.318)
(2.62045e-06 16.4537 629.208)
(3.26809e-06 17.7875 629.074)
(3.62287e-06 19.083 628.917)
(3.67552e-06 20.3746 628.739)
(3.41053e-06 21.6827 628.561)
(2.92001e-06 22.9308 628.425)
(2.34187e-06 24.0574 628.311)
(1.80635e-06 25.1258 628.311)
(1.30667e-06 26.1776 628.438)
(8.6898e-07 27.2779 628.821)
(5.75811e-07 28.5769 629.477)
(4.03557e-07 30.1448 630.317)
(3.03169e-07 31.8411 631.215)
(2.3788e-07 33.7862 631.872)
(1.83949e-07 35.987 631.504)
(1.06683e-07 38.1576 629.385)
(3.59668e-08 39.963 624.73)
(-2.06131e-08 41.5035 616.854)
(-5.65843e-08 42.7848 605.789)
(-7.27076e-08 43.7335 592.176)
(-7.38296e-08 44.4717 575.757)
(-6.2935e-08 45.0083 554.852)
(-4.35e-08 45.1844 527.908)
(-2.29122e-08 44.8895 495.199)
(-7.75145e-09 43.948 457.695)
(6.63963e-12 42.2406 416.05)
(2.10978e-09 39.5601 371.048)
(1.60292e-09 35.7223 323.424)
(7.07102e-10 30.89 274.094)
(2.57474e-10 25.469 224.864)
(1.52825e-10 20.0009 177.912)
(1.2289e-10 14.9162 134.89)
(8.6992e-11 10.4374 96.931)
(6.23946e-11 6.76673 65.158)
(3.62347e-11 3.90505 38.8617)
(9.51499e-12 1.30772 13.8838)
(-2.78883e-07 1.81276 629.566)
(-5.6057e-07 2.85485 629.599)
(-8.15661e-07 4.21865 629.611)
(-1.06583e-06 5.58171 629.621)
(-1.26907e-06 7.00272 629.614)
(-1.34048e-06 8.3687 629.598)
(-1.26092e-06 9.64523 629.567)
(-9.6034e-07 10.968 629.526)
(-3.64757e-07 12.3531 629.47)
(4.65586e-07 13.7246 629.401)
(1.43414e-06 15.1043 629.313)
(2.42143e-06 16.4936 629.201)
(3.27062e-06 17.8341 629.068)
(3.84555e-06 19.1273 628.916)
(4.11061e-06 20.4173 628.745)
(4.09858e-06 21.7204 628.565)
(3.78772e-06 22.9689 628.409)
(3.26533e-06 24.113 628.308)
(2.72801e-06 25.1906 628.293)
(2.14499e-06 26.2495 628.417)
(1.5838e-06 27.3679 628.778)
(1.14276e-06 28.7012 629.438)
(8.44626e-07 30.2891 630.271)
(6.38073e-07 31.9946 631.196)
(4.68489e-07 33.9782 631.887)
(3.378e-07 36.2416 631.604)
(2.15095e-07 38.4509 629.583)
(1.1477e-07 40.3148 625.043)
(3.60438e-08 41.8854 617.268)
(-1.73736e-08 43.1563 606.329)
(-4.7066e-08 44.0537 592.84)
(-5.90218e-08 44.69 576.479)
(-5.67972e-08 45.1444 555.699)
(-4.31371e-08 45.2481 528.889)
(-2.50907e-08 44.8624 496.296)
(-1.00307e-08 43.8386 458.881)
(-1.294e-09 42.0737 417.321)
(1.65601e-09 39.392 372.398)
(1.57219e-09 35.5917 324.787)
(7.86653e-10 30.792 275.353)
(3.37765e-10 25.3747 225.895)
(1.90252e-10 19.8858 178.623)
(1.24735e-10 14.7841 135.253)
(8.65251e-11 10.3083 96.9863)
(5.22004e-11 6.64864 65.0426)
(2.6947e-11 3.81497 38.7023)
(4.30112e-12 1.27538 13.7855)
(-2.57502e-07 1.81125 629.559)
(-4.92241e-07 2.8582 629.586)
(-7.8015e-07 4.22682 629.6)
(-1.08443e-06 5.59147 629.61)
(-1.35849e-06 7.01779 629.611)
(-1.51715e-06 8.38355 629.592)
(-1.48887e-06 9.66232 629.564)
(-1.24593e-06 10.9894 629.524)
(-7.16682e-07 12.3779 629.469)
(9.43211e-08 13.752 629.4)
(1.13607e-06 15.135 629.313)
(2.29089e-06 16.527 629.203)
(3.32239e-06 17.8685 629.074)
(4.1148e-06 19.1697 628.92)
(4.61392e-06 20.4603 628.745)
(4.76907e-06 21.7556 628.57)
(4.56105e-06 23.0015 628.402)
(4.1369e-06 24.1501 628.298)
(3.58375e-06 25.2408 628.281)
(2.98668e-06 26.3143 628.404)
(2.33446e-06 27.4344 628.769)
(1.74841e-06 28.7811 629.403)
(1.30864e-06 30.4051 630.239)
(9.70433e-07 32.1377 631.185)
(6.98229e-07 34.1572 631.902)
(4.91316e-07 36.4797 631.701)
(3.24077e-07 38.7295 629.791)
(1.95427e-07 40.6683 625.37)
(9.61114e-08 42.2798 617.765)
(2.59783e-08 43.5392 607.023)
(-1.75201e-08 44.4053 593.753)
(-4.09596e-08 44.9494 577.567)
(-4.82685e-08 45.3078 556.945)
(-4.15049e-08 45.3519 530.317)
(-2.67053e-08 44.8899 497.853)
(-1.2324e-08 43.7872 460.547)
(-3.01335e-09 41.9592 419.028)
(9.3007e-10 39.2633 374.076)
(1.46975e-09 35.4914 326.397)
(8.87043e-10 30.726 276.844)
(3.76584e-10 25.3173 227.172)
(1.73875e-10 19.8015 179.57)
(1.46587e-10 14.6641 135.801)
(1.04976e-10 10.1779 97.1537)
(5.19104e-11 6.5293 64.9824)
(2.48995e-11 3.72322 38.571)
(8.08182e-12 1.2415 13.6959)
(-2.47317e-07 1.8105 629.558)
(-4.82127e-07 2.8541 629.574)
(-7.42713e-07 4.23233 629.591)
(-1.02808e-06 5.59855 629.604)
(-1.2943e-06 7.02825 629.603)
(-1.47336e-06 8.40197 629.588)
(-1.51658e-06 9.68327 629.559)
(-1.35822e-06 11.0103 629.52)
(-8.90301e-07 12.4006 629.465)
(-1.20587e-07 13.7782 629.397)
(8.95346e-07 15.1647 629.31)
(2.07857e-06 16.5605 629.201)
(3.24677e-06 17.9111 629.069)
(4.22083e-06 19.2138 628.913)
(4.91502e-06 20.4969 628.746)
(5.29489e-06 21.7936 628.567)
(5.32303e-06 23.0464 628.406)
(5.00831e-06 24.1982 628.296)
(4.49552e-06 25.2973 628.267)
(3.81168e-06 26.3759 628.384)
(3.04857e-06 27.5266 628.73)
(2.3316e-06 28.8997 629.353)
(1.76103e-06 30.5188 630.208)
(1.30614e-06 32.2742 631.18)
(9.24915e-07 34.3389 631.917)
(6.388e-07 36.7147 631.782)
(4.29912e-07 39.0176 629.984)
(2.75801e-07 41.0489 625.675)
(1.57864e-07 42.702 618.218)
(7.26452e-08 43.9503 607.63)
(1.62187e-08 44.7961 594.515)
(-1.86281e-08 45.2732 578.468)
(-3.59803e-08 45.527 557.955)
(-3.70784e-08 45.501 531.499)
(-2.70515e-08 44.9625 499.189)
(-1.42057e-08 43.7697 462.031)
(-4.53127e-09 41.872 420.633)
(2.32332e-10 39.154 375.78)
(1.33137e-09 35.4097 328.132)
(8.78211e-10 30.6837 278.497)
(3.86802e-10 25.2894 228.611)
(1.85001e-10 19.7454 180.671)
(1.26672e-10 14.559 136.492)
(9.31084e-11 10.0454 97.4502)
(6.44658e-11 6.40567 64.992)
(3.58837e-11 3.62976 38.474)
(1.37752e-11 1.20566 13.6158)
(-2.21576e-07 1.81078 629.56)
(-4.0289e-07 2.85722 629.57)
(-6.31796e-07 4.23646 629.585)
(-9.01171e-07 5.60685 629.597)
(-1.19114e-06 7.04009 629.598)
(-1.42372e-06 8.41447 629.583)
(-1.51312e-06 9.69902 629.557)
(-1.42126e-06 11.0303 629.519)
(-1.05123e-06 12.4242 629.466)
(-3.55439e-07 13.8044 629.398)
(6.57105e-07 15.1941 629.312)
(1.90367e-06 16.5945 629.203)
(3.16322e-06 17.9475 629.07)
(4.27569e-06 19.2524 628.917)
(5.14616e-06 20.5384 628.749)
(5.70814e-06 21.8276 628.579)
(5.8615e-06 23.0747 628.406)
(5.62143e-06 24.2387 628.292)
(5.17339e-06 25.351 628.259)
(4.52165e-06 26.4444 628.362)
(3.70198e-06 27.5971 628.701)
(2.86718e-06 28.9666 629.343)
(2.17807e-06 30.6102 630.193)
(1.60901e-06 32.4079 631.18)
(1.13009e-06 34.526 631.947)
(7.68636e-07 36.9373 631.85)
(5.24158e-07 39.2937 630.158)
(3.50078e-07 41.4134 626.001)
(2.17833e-07 43.1188 618.735)
(1.20019e-07 44.382 608.344)
(5.20647e-08 45.2107 595.441)
(6.31287e-09 45.6382 579.634)
(-2.13396e-08 45.793 559.3)
(-3.08739e-08 45.69 533.053)
(-2.61057e-08 45.0921 500.945)
(-1.55452e-08 43.8199 463.926)
(-6.08781e-09 41.8533 422.589)
(-7.34559e-10 39.0956 377.738)
(9.94913e-10 35.3611 330.047)
(8.91845e-10 30.6687 280.313)
(4.39701e-10 25.2954 230.228)
(2.05863e-10 19.728 181.956)
(1.30746e-10 14.4835 137.347)
(9.42935e-11 9.92417 97.8716)
(7.03249e-11 6.28512 65.0843)
(3.88614e-11 3.53699 38.4171)
(9.39393e-12 1.16872 13.5458)
(-1.71251e-07 1.81552 629.566)
(-3.31492e-07 2.86013 629.57)
(-5.00041e-07 4.24026 629.585)
(-7.23948e-07 5.61301 629.597)
(-9.64001e-07 7.04928 629.594)
(-1.18574e-06 8.42884 629.58)
(-1.3132e-06 9.71612 629.553)
(-1.28892e-06 11.0494 629.514)
(-9.98469e-07 12.4455 629.461)
(-3.92768e-07 13.8291 629.395)
(5.25345e-07 15.2228 629.31)
(1.72528e-06 16.6288 629.202)
(3.03306e-06 17.9894 629.071)
(4.25792e-06 19.2948 628.923)
(5.28036e-06 20.5688 628.762)
(6.01463e-06 21.8646 628.582)
(6.35269e-06 23.1273 628.403)
(6.27546e-06 24.2899 628.271)
(5.84716e-06 25.4102 628.241)
(5.16868e-06 26.5077 628.348)
(4.27901e-06 27.6684 628.688)
(3.35011e-06 29.0604 629.304)
(2.55217e-06 30.7053 630.164)
(1.87521e-06 32.5259 631.165)
(1.30358e-06 34.7117 631.974)
(8.75215e-07 37.1571 631.908)
(6.01312e-07 39.5615 630.316)
(4.13031e-07 41.7759 626.295)
(2.71448e-07 43.5446 619.184)
(1.64802e-07 44.8208 608.957)
(8.78018e-08 45.6379 596.197)
(3.28923e-08 46.0418 580.558)
(-4.09131e-09 46.1125 560.374)
(-2.21511e-08 45.9055 534.278)
(-2.35106e-08 45.2495 502.368)
(-1.60703e-08 43.9151 465.512)
(-7.35808e-09 41.8775 424.323)
(-1.61356e-09 39.0707 379.586)
(6.64984e-10 35.3367 331.934)
(8.62139e-10 30.672 282.136)
(5.1675e-10 25.3213 231.862)
(2.85372e-10 19.7361 183.274)
(1.59722e-10 14.4349 138.254)
(9.60829e-11 9.82433 98.3479)
(6.32765e-11 6.17638 65.2267)
(4.20233e-11 3.44969 38.3899)
(1.6457e-11 1.13325 13.4808)
(-1.10863e-07 1.81912 629.571)
(-2.01219e-07 2.86829 629.57)
(-3.39264e-07 4.24564 629.585)
(-5.00824e-07 5.62236 629.594)
(-7.15132e-07 7.06099 629.593)
(-9.52221e-07 8.44025 629.579)
(-1.10666e-06 9.73093 629.553)
(-1.14257e-06 11.067 629.515)
(-9.5349e-07 12.4645 629.462)
(-4.53946e-07 13.8497 629.395)
(3.89177e-07 15.2471 629.31)
(1.54715e-06 16.6567 629.202)
(2.84594e-06 18.0166 629.073)
(4.11091e-06 19.3216 628.924)
(5.2195e-06 20.6073 628.755)
(6.07761e-06 21.9051 628.574)
(6.54391e-06 23.1668 628.4)
(6.52931e-06 24.3329 628.275)
(6.21922e-06 25.4467 628.24)
(5.58612e-06 26.5596 628.334)
(4.68754e-06 27.7353 628.659)
(3.70313e-06 29.12 629.279)
(2.83186e-06 30.772 630.139)
(2.08181e-06 32.622 631.143)
(1.43532e-06 34.867 631.995)
(9.51759e-07 37.359 631.967)
(6.57071e-07 39.8047 630.472)