/*--------------------------------*- C++ -*----------------------------------*\
| =========                 |                                                 |
| \\      /  F ield         | OpenFOAM: The Open Source CFD Toolbox           |
|  \\    /   O peration     | Version:  2212                                  |
|   \\  /    A nd           | Website:  www.openfoam.com                      |
|    \\/     M anipulation  |                                                 |
\*---------------------------------------------------------------------------*/
FoamFile
{
    version     2.0;
    format      ascii;
    arch        "LSB;label=32;scalar=64";
    class       volScalarField;
    location    "0.2275";
    object      s;
}
// * * * * * * * * * * * * * * * * * * * * * * * * * * * * * * * * * * * * * //

dimensions      [0 0 0 0 0 0 0];

internalField   nonuniform List<scalar> 
24240
(
4.34412e-92
4.28259e-92
4.33903e-92
4.22825e-92
4.28749e-92
4.305e-92
4.30265e-92
4.18539e-92
4.22838e-92
4.33426e-92
4.24617e-92
4.35103e-92
4.24228e-92
4.33383e-92
4.20793e-92
4.3683e-92
4.1965e-92
4.2506e-92
4.27366e-92
4.15864e-92
2.61128e-89
2.5743e-89
2.60765e-89
2.54223e-89
2.57672e-89
2.58805e-89
2.58638e-89
2.51618e-89
2.54204e-89
2.60552e-89
2.55298e-89
2.61527e-89
2.55094e-89
2.60553e-89
2.53018e-89
2.62602e-89
2.52344e-89
2.55577e-89
2.5689e-89
2.50066e-89
8.36884e-87
8.25038e-87
8.35538e-87
8.14942e-87
8.25637e-87
8.29523e-87
8.28906e-87
8.06496e-87
8.14793e-87
8.3507e-87
8.18364e-87
8.38084e-87
8.17802e-87
8.35145e-87
8.11107e-87
8.41629e-87
8.08995e-87
8.19287e-87
8.23249e-87
8.01693e-87
1.53487e-84
1.51317e-84
1.53207e-84
1.49499e-84
1.51394e-84
1.52154e-84
1.52026e-84
1.47934e-84
1.49458e-84
1.53163e-84
1.50125e-84
1.53696e-84
1.50039e-84
1.53191e-84
1.48803e-84
1.54365e-84
1.48427e-84
1.503e-84
1.50981e-84
1.47088e-84
2.02859e-82
1.99996e-82
2.02443e-82
1.97637e-82
2.00053e-82
2.01119e-82
2.0093e-82
1.95547e-82
1.97565e-82
2.02438e-82
1.98458e-82
2.03114e-82
1.98365e-82
2.02492e-82
1.96719e-82
2.04019e-82
1.96241e-82
1.98695e-82
1.99532e-82
1.94472e-82
1.86834e-80
1.84205e-80
1.8641e-80
1.82072e-80
1.84215e-80
1.85254e-80
1.85064e-80
1.80131e-80
1.81996e-80
1.86456e-80
1.82828e-80
1.87053e-80
1.8276e-80
1.86522e-80
1.81231e-80
1.87902e-80
1.80813e-80
1.83046e-80
1.83757e-80
1.79184e-80
1.19456e-78
1.17783e-78
1.19158e-78
1.16444e-78
1.17761e-78
1.1846e-78
1.18331e-78
1.15194e-78
1.16394e-78
1.19218e-78
1.16929e-78
1.19584e-78
1.16894e-78
1.19271e-78
1.15906e-78
1.20132e-78
1.1566e-78
1.17063e-78
1.17477e-78
1.1462e-78
5.07862e-77
5.00822e-77
5.06487e-77
4.95224e-77
5.00588e-77
5.03703e-77
5.03139e-77
4.89889e-77
4.95068e-77
5.06862e-77
4.97321e-77
5.08363e-77
4.9718e-77
5.07135e-77
4.92921e-77
5.10679e-77
4.92027e-77
4.97833e-77
4.99406e-77
4.87649e-77
5.7354e-76
5.65818e-76
5.71911e-76
5.59587e-76
5.65331e-76
5.68982e-76
5.68413e-76
5.53591e-76
5.59684e-76
5.72429e-76
5.62102e-76
5.74102e-76
5.61851e-76
5.72792e-76
5.56924e-76
5.76565e-76
5.56309e-76
5.6247e-76
5.64012e-76
5.51502e-76
3.50749e-76
3.5089e-76
3.51512e-76
3.4611e-76
3.4858e-76
3.49493e-76
3.52052e-76
3.4414e-76
3.53423e-76
3.49334e-76
3.51082e-76
3.5226e-76
3.46985e-76
3.49499e-76
3.42195e-76
3.48486e-76
3.49376e-76
3.4575e-76
3.46432e-76
3.49732e-76
5.49102e-76
5.53538e-76
5.58272e-76
5.49369e-76
5.4592e-76
5.48359e-76
5.5478e-76
5.43504e-76
5.60512e-76
5.55978e-76
5.59022e-76
5.56475e-76
5.52929e-76
5.4681e-76
5.42735e-76
5.48437e-76
5.44869e-76
5.45671e-76
5.49605e-76
5.51519e-76
6.32348e-76
6.37076e-76
6.40034e-76
6.28609e-76
6.28028e-76
6.1678e-76
6.30603e-76
6.20277e-76
6.35275e-76
6.49533e-76
6.43202e-76
6.27642e-76
6.42873e-76
6.33073e-76
6.323e-76
6.36394e-76
6.10982e-76
6.32968e-76
6.22651e-76
6.24936e-76
7.26601e-76
7.38672e-76
7.37016e-76
7.32928e-76
7.37182e-76
7.42906e-76
7.60708e-76
7.36884e-76
7.39103e-76
7.29541e-76
7.32334e-76
7.33248e-76
7.40198e-76
7.41528e-76
7.27795e-76
7.36928e-76
7.41011e-76
7.30534e-76
7.26629e-76
7.29076e-76
7.95404e-76
7.94049e-76
7.98924e-76
8.14088e-76
8.07463e-76
8.15936e-76
8.01986e-76
8.16737e-76
8.02269e-76
7.79121e-76
7.86992e-76
7.90805e-76
7.94626e-76
7.81563e-76
7.78309e-76
7.86681e-76
7.79905e-76
7.95242e-76
7.87034e-76
8.03145e-76
8.12144e-76
8.10809e-76
8.25609e-76
8.17283e-76
8.10197e-76
8.23843e-76
8.2158e-76
8.34246e-76
8.12217e-76
8.25271e-76
8.21169e-76
8.22773e-76
8.26529e-76
8.24399e-76
8.17721e-76
8.39421e-76
8.17092e-76
8.07757e-76
8.17372e-76
8.17878e-76
8.18895e-76
8.04002e-76
8.08108e-76
8.04516e-76
8.15951e-76
8.21873e-76
8.21994e-76
8.15992e-76
7.9852e-76
8.03935e-76
7.95823e-76
8.201e-76
8.18425e-76
8.29688e-76
8.26541e-76
8.25454e-76
8.17914e-76
8.19306e-76
8.09607e-76
8.129e-76
7.50333e-76
7.60512e-76
7.50498e-76
7.76973e-76
7.54475e-76
7.72055e-76
7.57581e-76
7.6787e-76
7.57052e-76
7.6114e-76
7.59236e-76
7.73958e-76
7.59421e-76
7.8112e-76
7.55613e-76
7.69407e-76
7.67771e-76
7.46565e-76
7.70536e-76
7.69951e-76
6.77466e-76
7.03523e-76
6.94989e-76
6.88645e-76
6.81301e-76
7.10943e-76
6.98722e-76
7.00913e-76
6.95392e-76
6.83459e-76
6.93588e-76
7.0674e-76
6.91315e-76
7.19203e-76
6.92536e-76
7.05049e-76
7.0933e-76
6.96864e-76
7.09655e-76
7.10867e-76
6.21923e-76
6.21363e-76
6.19563e-76
6.2888e-76
6.32988e-76
6.32034e-76
6.19339e-76
6.26399e-76
6.38872e-76
6.19667e-76
6.33185e-76
6.35815e-76
6.17646e-76
6.4069e-76
6.37179e-76
6.49991e-76
6.30138e-76
6.40722e-76
6.32587e-76
6.48464e-76
4.4019e-76
4.43474e-76
4.41592e-76
4.37886e-76
4.44823e-76
4.42246e-76
4.45839e-76
4.42811e-76
4.4454e-76
4.50089e-76
4.40627e-76
4.52014e-76
4.40132e-76
4.55964e-76
4.41177e-76
4.41503e-76
4.44659e-76
4.52858e-76
4.45445e-76
4.57043e-76
1.57687e-90
1.55452e-90
1.57475e-90
1.53516e-90
1.55603e-90
1.56288e-90
1.56186e-90
1.51945e-90
1.53502e-90
1.57348e-90
1.54164e-90
1.57937e-90
1.54042e-90
1.57342e-90
1.5279e-90
1.58584e-90
1.52372e-90
1.54333e-90
1.55132e-90
1.50995e-90
9.57495e-88
9.43928e-88
9.56005e-88
9.32387e-88
9.44648e-88
9.49098e-88
9.4838e-88
9.22732e-88
9.3219e-88
9.55481e-88
9.36292e-88
9.5893e-88
9.35662e-88
9.55526e-88
9.28009e-88
9.62977e-88
9.25517e-88
9.37353e-88
9.41932e-88
9.17145e-88
3.05681e-85
3.01355e-85
3.0514e-85
2.97738e-85
3.0152e-85
3.03035e-85
3.02775e-85
2.94622e-85
2.97644e-85
3.05056e-85
2.98978e-85
3.06117e-85
2.98812e-85
3.05098e-85
2.96353e-85
3.07447e-85
2.95577e-85
2.9933e-85
3.00702e-85
2.92902e-85
5.6749e-83
5.59471e-83
5.66366e-83
5.5288e-83
5.59654e-83
5.62642e-83
5.62104e-83
5.47035e-83
5.5265e-83
5.66361e-83
5.55169e-83
5.68252e-83
5.54923e-83
5.66487e-83
5.50326e-83
5.70786e-83
5.48927e-83
5.55843e-83
5.58218e-83
5.43958e-83
7.4549e-81
7.34981e-81
7.43853e-81
7.26483e-81
7.35054e-81
7.39207e-81
7.38429e-81
7.18729e-81
7.26119e-81
7.44044e-81
7.29472e-81
7.46424e-81
7.29227e-81
7.44271e-81
7.23141e-81
7.49828e-81
7.21376e-81
7.30376e-81
7.33263e-81
7.14848e-81
6.8055e-79
6.70989e-79
6.78911e-79
6.63377e-79
6.70902e-79
6.749e-79
6.74131e-79
6.5624e-79
6.63008e-79
6.79269e-79
6.66101e-79
6.81349e-79
6.65943e-79
6.79533e-79
6.60338e-79
6.8451e-79
6.58809e-79
6.6693e-79
6.69344e-79
6.52847e-79
4.28491e-77
4.22505e-77
4.27367e-77
4.178e-77
4.22345e-77
4.24991e-77
4.24476e-77
4.13276e-77
4.17565e-77
4.27704e-77
4.1952e-77
4.28955e-77
4.19451e-77
4.27905e-77
4.15885e-77
4.30964e-77
4.14998e-77
4.20026e-77
4.21398e-77
4.1125e-77
1.80048e-75
1.77559e-75
1.79539e-75
1.75616e-75
1.77443e-75
1.78605e-75
1.78383e-75
1.73709e-75
1.75537e-75
1.79724e-75
1.76351e-75
1.80229e-75
1.76326e-75
1.79824e-75
1.74807e-75
1.81067e-75
1.74487e-75
1.76543e-75
1.77054e-75
1.72927e-75
2.0045e-74
1.9776e-74
1.99861e-74
1.9563e-74
1.97554e-74
1.98894e-74
1.9867e-74
1.93516e-74
1.95636e-74
2.00098e-74
1.96498e-74
2.00653e-74
1.96439e-74
2.00228e-74
1.94706e-74
2.0153e-74
1.94487e-74
1.96639e-74
1.97127e-74
1.92796e-74
1.20614e-74
1.20661e-74
1.20899e-74
1.19049e-74
1.19866e-74
1.20208e-74
1.21063e-74
1.18353e-74
1.21551e-74
1.20145e-74
1.20752e-74
1.21135e-74
1.19349e-74
1.20196e-74
1.17712e-74
1.19822e-74
1.20152e-74
1.18913e-74
1.19148e-74
1.20277e-74
1.89598e-74
1.911e-74
1.92753e-74
1.89665e-74
1.8848e-74
1.893e-74
1.91484e-74
1.8763e-74
1.9349e-74
1.91942e-74
1.93e-74
1.92081e-74
1.90907e-74
1.88798e-74
1.874e-74
1.8933e-74
1.88079e-74
1.88393e-74
1.89735e-74
1.90372e-74
2.17054e-74
2.1866e-74
2.19681e-74
2.1574e-74
2.15586e-74
2.11758e-74
2.16489e-74
2.12983e-74
2.18036e-74
2.22904e-74
2.20713e-74
2.15442e-74
2.20627e-74
2.17296e-74
2.17016e-74
2.18421e-74
2.09747e-74
2.17213e-74
2.13713e-74
2.14481e-74
2.49765e-74
2.53822e-74
2.53302e-74
2.51948e-74
2.53389e-74
2.55365e-74
2.61376e-74
2.5333e-74
2.54044e-74
2.50732e-74
2.51683e-74
2.52013e-74
2.54414e-74
2.54923e-74
2.50212e-74
2.53303e-74
2.54691e-74
2.51143e-74
2.49786e-74
2.50635e-74
2.71163e-74
2.7064e-74
2.72274e-74
2.77452e-74
2.75217e-74
2.78085e-74
2.73323e-74
2.78395e-74
2.73362e-74
2.6564e-74
2.68245e-74
2.69596e-74
2.70843e-74
2.66438e-74
2.65318e-74
2.68193e-74
2.65822e-74
2.71058e-74
2.68269e-74
2.73743e-74
2.77512e-74
2.77019e-74
2.82066e-74
2.79198e-74
2.76814e-74
2.81525e-74
2.80674e-74
2.85038e-74
2.7754e-74
2.82017e-74
2.80596e-74
2.8116e-74
2.82373e-74
2.81752e-74
2.79452e-74
2.86792e-74
2.79198e-74
2.76001e-74
2.79284e-74
2.79376e-74
2.77038e-74
2.72027e-74
2.73307e-74
2.72166e-74
2.76039e-74
2.78041e-74
2.78044e-74
2.76015e-74
2.7015e-74
2.71947e-74
2.69181e-74
2.77377e-74
2.76868e-74
2.80647e-74
2.79608e-74
2.79178e-74
2.76685e-74
2.77187e-74
2.73901e-74
2.75006e-74
2.54817e-74
2.58323e-74
2.54888e-74
2.63843e-74
2.56156e-74
2.62128e-74
2.5721e-74
2.60768e-74
2.57101e-74
2.58519e-74
2.57852e-74
2.62845e-74
2.5788e-74
2.65234e-74
2.56613e-74
2.61245e-74
2.60725e-74
2.53564e-74
2.61677e-74
2.61485e-74
2.28212e-74
2.36912e-74
2.34086e-74
2.31898e-74
2.29477e-74
2.39389e-74
2.35266e-74
2.36033e-74
2.34176e-74
2.30183e-74
2.33538e-74
2.37959e-74
2.3281e-74
2.42115e-74
2.332e-74
2.37399e-74
2.38797e-74
2.34691e-74
2.38942e-74
2.39374e-74
2.11022e-74
2.10828e-74
2.10255e-74
2.13394e-74
2.14738e-74
2.14421e-74
2.10105e-74
2.12608e-74
2.16754e-74
2.10285e-74
2.1483e-74
2.15748e-74
2.09538e-74
2.17371e-74
2.16184e-74
2.2053e-74
2.13815e-74
2.17354e-74
2.14594e-74
2.19955e-74
1.48866e-74
1.49985e-74
1.49362e-74
1.48092e-74
1.50396e-74
1.49557e-74
1.50733e-74
1.49757e-74
1.50262e-74
1.52178e-74
1.48961e-74
1.52808e-74
1.48818e-74
1.54152e-74
1.49163e-74
1.49277e-74
1.50321e-74
1.53098e-74
1.50605e-74
1.54499e-74
5.97032e-89
5.88561e-89
5.96123e-89
5.81372e-89
5.89028e-89
5.91807e-89
5.91352e-89
5.75357e-89
5.81235e-89
5.95806e-89
5.83803e-89
5.97956e-89
5.83415e-89
5.95813e-89
5.78646e-89
6.00474e-89
5.77053e-89
5.84464e-89
5.87341e-89
5.71828e-89
3.58551e-86
3.5347e-86
3.57932e-86
3.49233e-86
3.53675e-86
3.55456e-86
3.55146e-86
3.4558e-86
3.49111e-86
3.57839e-86
3.50683e-86
3.59081e-86
3.50492e-86
3.57873e-86
3.4761e-86
3.60639e-86
3.46672e-86
3.51096e-86
3.52719e-86
3.43528e-86
1.124e-83
1.1081e-83
1.12183e-83
1.09507e-83
1.1085e-83
1.11443e-83
1.11334e-83
1.08349e-83
1.09456e-83
1.12184e-83
1.09958e-83
1.12558e-83
1.09912e-83
1.12205e-83
1.09002e-83
1.1306e-83
1.08715e-83
1.10093e-83
1.10568e-83
1.07728e-83
2.06489e-81
2.03574e-81
2.06048e-81
2.01225e-81
2.03602e-81
2.04756e-81
2.04536e-81
1.99077e-81
2.01113e-81
2.06107e-81
2.02049e-81
2.06765e-81
2.01987e-81
2.0616e-81
2.00304e-81
2.0771e-81
1.99792e-81
2.02304e-81
2.03115e-81
1.97977e-81
2.66643e-79
2.6289e-79
2.66019e-79
2.59914e-79
2.62866e-79
2.64438e-79
2.64128e-79
2.57114e-79
2.59747e-79
2.66165e-79
2.60971e-79
2.66977e-79
2.6092e-79
2.66255e-79
2.58729e-79
2.68223e-79
2.58094e-79
2.61309e-79
2.62271e-79
2.55749e-79
2.40659e-77
2.37287e-77
2.40048e-77
2.34652e-77
2.3721e-77
2.38703e-77
2.38402e-77
2.32105e-77
2.34488e-77
2.40246e-77
2.35604e-77
2.40945e-77
2.35582e-77
2.40346e-77
2.33587e-77
2.42088e-77
2.33043e-77
2.35911e-77
2.367e-77
2.30924e-77
1.49106e-75
1.47029e-75
1.48696e-75
1.45427e-75
1.46945e-75
1.47915e-75
1.47717e-75
1.43839e-75
1.45325e-75
1.48858e-75
1.46018e-75
1.49271e-75
1.46016e-75
1.48931e-75
1.44766e-75
1.49984e-75
1.44457e-75
1.46203e-75
1.46641e-75
1.43144e-75
6.17947e-74
6.09437e-74
6.16133e-74
6.02918e-74
6.08918e-74
6.13113e-74
6.12275e-74
5.96314e-74
6.02559e-74
6.1695e-74
6.05407e-74
6.18589e-74
6.0541e-74
6.17306e-74
6.0016e-74
6.21523e-74
5.99059e-74
6.06103e-74
6.07693e-74
5.93667e-74
6.77731e-73
6.68677e-73
6.75679e-73
6.61638e-73
6.6785e-73
6.7261e-73
6.71764e-73
6.54431e-73
6.61561e-73
6.76679e-73
6.64535e-73
6.78446e-73
6.64434e-73
6.77123e-73
6.5854e-73
6.81471e-73
6.57785e-73
6.65053e-73
6.66529e-73
6.52025e-73
4.00747e-73
4.00901e-73
4.01775e-73
3.95653e-73
3.98253e-73
3.99484e-73
4.02238e-73
3.93279e-73
4.03923e-73
3.99252e-73
4.0129e-73
4.02485e-73
3.96648e-73
3.99398e-73
3.9124e-73
3.9807e-73
3.99246e-73
3.95158e-73
3.95941e-73
3.99669e-73
6.32703e-73
6.37615e-73
6.43193e-73
6.3284e-73
6.28905e-73
6.3157e-73
6.38738e-73
6.26018e-73
6.45524e-73
6.40421e-73
6.43973e-73
6.40775e-73
6.37023e-73
6.30002e-73
6.2537e-73
6.31678e-73
6.27443e-73
6.2861e-73
6.33036e-73
6.35079e-73
7.20537e-73
7.25808e-73
7.29221e-73
7.16072e-73
7.15708e-73
7.03113e-73
7.18767e-73
7.0727e-73
7.23717e-73
7.39793e-73
7.32453e-73
7.15197e-73
7.32256e-73
7.21317e-73
7.20336e-73
7.25e-73
6.96364e-73
7.20882e-73
7.0941e-73
7.119e-73
8.30479e-73
8.43656e-73
8.42095e-73
8.3776e-73
8.42478e-73
8.49074e-73
8.68692e-73
8.42429e-73
8.44642e-73
8.33564e-73
8.36688e-73
8.37831e-73
8.45855e-73
8.47726e-73
8.32095e-73
8.42209e-73
8.46762e-73
8.35151e-73
8.30584e-73
8.33433e-73
8.9569e-73
8.93758e-73
8.99061e-73
9.1619e-73
9.08891e-73
9.18292e-73
9.0255e-73
9.19435e-73
9.02478e-73
8.77536e-73
8.85877e-73
8.90515e-73
8.94443e-73
8.80062e-73
8.76323e-73
8.85879e-73
8.77857e-73
8.95174e-73
8.85995e-73
9.04007e-73
9.19007e-73
9.17222e-73
9.33891e-73
9.2433e-73
9.16594e-73
9.32326e-73
9.29267e-73
9.43814e-73
9.19087e-73
9.33947e-73
9.29183e-73
9.31103e-73
9.34885e-73
9.33219e-73
9.25515e-73
9.49553e-73
9.24565e-73
9.1394e-73
9.24792e-73
9.24828e-73
9.10424e-73
8.94057e-73
8.97925e-73
8.94433e-73
9.07126e-73
9.13692e-73
9.13571e-73
9.06968e-73
8.87838e-73
8.93658e-73
8.84506e-73
9.11297e-73
9.09833e-73
9.22129e-73
9.18812e-73
9.17209e-73
9.09177e-73
9.10947e-73
9.00141e-73
9.03731e-73
8.40858e-73
8.52551e-73
8.411e-73
8.70474e-73
8.45035e-73
8.64727e-73
8.48507e-73
8.6042e-73
8.48345e-73
8.53124e-73
8.50835e-73
8.67336e-73
8.50867e-73
8.75057e-73
8.46792e-73
8.61864e-73
8.60273e-73
8.36802e-73
8.63438e-73
8.62835e-73
7.48239e-73
7.76497e-73
7.67402e-73
7.60091e-73
7.52296e-73
7.84544e-73
7.71006e-73
7.73621e-73
7.67533e-73
7.54548e-73
7.65339e-73
7.79811e-73
7.63094e-73
7.9329e-73
7.64288e-73
7.78001e-73
7.8244e-73
7.6928e-73
7.83031e-73
7.84524e-73
6.96671e-73
6.9606e-73
6.94286e-73
7.04544e-73
7.08799e-73
7.07824e-73
6.93549e-73
7.02167e-73
7.15527e-73
6.94352e-73
7.09208e-73
7.1234e-73
6.91696e-73
7.17599e-73
7.13666e-73
7.27999e-73
7.05954e-73
7.17413e-73
7.0834e-73
7.25921e-73
4.8775e-73
4.91416e-73
4.89429e-73
4.85239e-73
4.92653e-73
4.89985e-73
4.93693e-73
4.90671e-73
4.9208e-73
4.98462e-73
4.87886e-73
5.0046e-73
4.87477e-73
5.04888e-73
4.88614e-73
4.89011e-73
4.92308e-73
5.01441e-73
4.93306e-73
5.0598e-73
2.19146e-87
2.16037e-87
2.18776e-87
2.1345e-87
2.16169e-87
2.17259e-87
2.17067e-87
2.1122e-87
2.1337e-87
2.18724e-87
2.14335e-87
2.19483e-87
2.14221e-87
2.18737e-87
2.12461e-87
2.20433e-87
2.11872e-87
2.14588e-87
2.15588e-87
2.09949e-87
1.33288e-84
1.314e-84
1.33037e-84
1.29857e-84
1.31452e-84
1.32157e-84
1.32026e-84
1.28485e-84
1.29793e-84
1.33041e-84
1.30391e-84
1.33484e-84
1.30337e-84
1.33059e-84
1.2926e-84
1.34078e-84
1.28909e-84
1.30551e-84
1.3112e-84
1.27736e-84
4.13101e-82
4.07263e-82
4.12239e-82
4.02571e-82
4.07333e-82
4.09647e-82
4.09199e-82
3.98275e-82
4.02329e-82
4.12365e-82
4.04213e-82
4.13681e-82
4.04097e-82
4.12456e-82
4.00734e-82
4.15572e-82
3.99673e-82
4.04729e-82
4.06367e-82
3.96031e-82
7.49355e-80
7.38794e-80
7.47646e-80
7.30448e-80
7.38755e-80
7.43188e-80
7.42299e-80
7.22581e-80
7.29937e-80
7.4808e-80
7.33405e-80
7.50359e-80
7.33283e-80
7.48301e-80
7.27136e-80
7.53871e-80
7.2527e-80
7.34373e-80
7.37113e-80
7.1865e-80
9.5129e-78
9.37933e-78
9.48934e-78
9.27543e-78
9.37665e-78
9.43589e-78
9.42366e-78
9.17464e-78
9.26813e-78
9.49741e-78
9.3127e-78
9.52497e-78
9.3122e-78
9.50092e-78
9.23351e-78
9.57043e-78
9.21078e-78
9.32528e-78
9.35704e-78
9.12664e-78
8.47439e-76
8.35597e-76
8.45177e-76
8.26523e-76
8.35163e-76
8.40702e-76
8.39537e-76
8.17477e-76
8.25827e-76
8.46129e-76
8.29835e-76
8.48465e-76
8.29876e-76
8.46505e-76
8.22803e-76
8.52577e-76
8.20883e-76
8.30965e-76
8.33516e-76
8.13375e-76
5.16642e-74
5.09474e-74
5.15164e-74
5.04048e-74
5.0908e-74
5.12614e-74
5.11865e-74
4.98498e-74
5.03619e-74
5.1588e-74
5.06069e-74
5.17231e-74
5.06135e-74
5.16146e-74
5.01776e-74
5.19755e-74
5.00699e-74
5.06743e-74
5.08119e-74
4.96122e-74
2.10973e-72
2.08081e-72
2.10333e-72
2.05906e-72
2.07862e-72
2.09365e-72
2.09052e-72
2.03633e-72
2.05753e-72
2.10675e-72
2.06744e-72
2.11202e-72
2.06777e-72
2.108e-72
2.04971e-72
2.12223e-72
2.04594e-72
2.06996e-72
2.07482e-72
2.02739e-72
2.27936e-71
2.24906e-71
2.27227e-71
2.22594e-71
2.24584e-71
2.26262e-71
2.25947e-71
2.2015e-71
2.22535e-71
2.27631e-71
2.23555e-71
2.28188e-71
2.23556e-71
2.27782e-71
2.2156e-71
2.29225e-71
2.21302e-71
2.23744e-71
2.24181e-71
2.19348e-71
1.32364e-71
1.32413e-71
1.3273e-71
1.30716e-71
1.31537e-71
1.31975e-71
1.32855e-71
1.29911e-71
1.33432e-71
1.31891e-71
1.3257e-71
1.3294e-71
1.31043e-71
1.31931e-71
1.29268e-71
1.31464e-71
1.31878e-71
1.30538e-71
1.30798e-71
1.32021e-71
2.09961e-71
2.11557e-71
2.13428e-71
2.09977e-71
2.08679e-71
2.09539e-71
2.11878e-71
2.07705e-71
2.1416e-71
2.12488e-71
2.13672e-71
2.1257e-71
2.11378e-71
2.09055e-71
2.07527e-71
2.09577e-71
2.08151e-71
2.08578e-71
2.10028e-71
2.10679e-71
2.37962e-71
2.39683e-71
2.40818e-71
2.36455e-71
2.36383e-71
2.32262e-71
2.37414e-71
2.33664e-71
2.38984e-71
2.44266e-71
2.41821e-71
2.36202e-71
2.41785e-71
2.38213e-71
2.37872e-71
2.39412e-71
2.30008e-71
2.38015e-71
2.34277e-71
2.3508e-71
2.74802e-71
2.79057e-71
2.78596e-71
2.77219e-71
2.78754e-71
2.80947e-71
2.87312e-71
2.78788e-71
2.79466e-71
2.75779e-71
2.76799e-71
2.77192e-71
2.7986e-71
2.80537e-71
2.75378e-71
2.78669e-71
2.80157e-71
2.76377e-71
2.74846e-71
2.75799e-71
2.94779e-71
2.94076e-71
2.9579e-71
3.01433e-71
2.99059e-71
3.02131e-71
2.96945e-71
3.02545e-71
2.96854e-71
2.88836e-71
2.91492e-71
2.93077e-71
2.94305e-71
2.89629e-71
2.88387e-71
2.91551e-71
2.88848e-71
2.94553e-71
2.91544e-71
2.97447e-71
3.03317e-71
3.02678e-71
3.08163e-71
3.04987e-71
3.02487e-71
3.07722e-71
3.06632e-71
3.11465e-71
3.03339e-71
3.08256e-71
3.06662e-71
3.07313e-71
3.08484e-71
3.08065e-71
3.05497e-71
3.13337e-71
3.05143e-71
3.01628e-71
3.05199e-71
3.05122e-71
2.9878e-71
2.93442e-71
2.94599e-71
2.93542e-71
2.97694e-71
2.9984e-71
2.9976e-71
2.97616e-71
2.91386e-71
2.93268e-71
2.90244e-71
2.98984e-71
2.98573e-71
3.02569e-71
3.01516e-71
3.00922e-71
2.98341e-71
2.98968e-71
2.95414e-71
2.96577e-71
2.77137e-71
2.81037e-71
2.77223e-71
2.8685e-71
2.78434e-71
2.84923e-71
2.79579e-71
2.8356e-71
2.79591e-71
2.81202e-71
2.80417e-71
2.85865e-71
2.80407e-71
2.88354e-71
2.79096e-71
2.83995e-71
2.83514e-71
2.75825e-71
2.84566e-71
2.84376e-71
2.45611e-71
2.54796e-71
2.51867e-71
2.49416e-71
2.46912e-71
2.57413e-71
2.52963e-71
2.53854e-71
2.51857e-71
2.47625e-71
2.511e-71
2.55845e-71
2.50411e-71
2.60221e-71
2.50779e-71
2.55262e-71
2.56669e-71
2.52452e-71
2.56899e-71
2.57418e-71
2.30245e-71
2.30045e-71
2.295e-71
2.3286e-71
2.34208e-71
2.339e-71
2.29174e-71
2.32141e-71
2.36454e-71
2.29513e-71
2.34375e-71
2.35441e-71
2.28571e-71
2.37143e-71
2.35847e-71
2.40578e-71
2.33326e-71
2.37045e-71
2.34053e-71
2.39829e-71
1.60718e-71
1.61933e-71
1.61295e-71
1.59899e-71
1.62295e-71
1.61449e-71
1.62627e-71
1.61685e-71
1.62062e-71
1.64207e-71
1.60705e-71
1.64842e-71
1.60595e-71
1.6631e-71
1.60965e-71
1.61101e-71
1.62156e-71
1.65172e-71
1.62506e-71
1.66652e-71
8.32313e-86
8.20509e-86
8.30771e-86
8.10881e-86
8.20856e-86
8.25265e-86
8.24438e-86
8.02325e-86
8.10463e-86
8.30814e-86
8.14209e-86
8.33581e-86
8.13885e-86
8.30899e-86
8.07159e-86
8.37284e-86
8.04909e-86
8.15209e-86
8.1879e-86
7.97579e-86
4.98371e-83
4.9132e-83
4.97352e-83
4.85667e-83
4.91419e-83
4.94217e-83
4.93668e-83
4.80488e-83
4.85358e-83
4.97514e-83
4.87641e-83
4.991e-83
4.87508e-83
4.97603e-83
4.83453e-83
5.01378e-83
4.82134e-83
4.88265e-83
4.9026e-83
4.77732e-83
1.51699e-80
1.49559e-80
1.5136e-80
1.47872e-80
1.49555e-80
1.50455e-80
1.50272e-80
1.46279e-80
1.47762e-80
1.51452e-80
1.48468e-80
1.51912e-80
1.48446e-80
1.5149e-80
1.47203e-80
1.52623e-80
1.46812e-80
1.48666e-80
1.49227e-80
1.45468e-80
2.71525e-78
2.67708e-78
2.70869e-78
2.64748e-78
2.67642e-78
2.69337e-78
2.68982e-78
2.61872e-78
2.64525e-78
2.71108e-78
2.65807e-78
2.71893e-78
2.65801e-78
2.71196e-78
2.63559e-78
2.73195e-78
2.6288e-78
2.66173e-78
2.67093e-78
2.60468e-78
3.38754e-76
3.34012e-76
3.37872e-76
3.30393e-76
3.33851e-76
3.36073e-76
3.35596e-76
3.26773e-76
3.30086e-76
3.38262e-76
3.31704e-76
3.39192e-76
3.31735e-76
3.38396e-76
3.28913e-76
3.40846e-76
3.28101e-76
3.32172e-76
3.33212e-76
3.25086e-76
2.97578e-74
2.93436e-74
2.96749e-74
2.90321e-74
2.93225e-74
2.95269e-74
2.94823e-74
2.87117e-74
2.90034e-74
2.97174e-74
2.91468e-74
2.97949e-74
2.91527e-74
2.97313e-74
2.89025e-74
2.99423e-74
2.88349e-74
2.91884e-74
2.92699e-74
2.85694e-74
1.78454e-72
1.75989e-72
1.77925e-72
1.74158e-72
1.75818e-72
1.77098e-72
1.76817e-72
1.72225e-72
1.73984e-72
1.78226e-72
1.74846e-72
1.78665e-72
1.74896e-72
1.78321e-72
1.73379e-72
1.79554e-72
1.73006e-72
1.75091e-72
1.75517e-72
1.71413e-72
7.17346e-71
7.07561e-71
7.15102e-71
7.00339e-71
7.06677e-71
7.12029e-71
7.10873e-71
6.9255e-71
6.99719e-71
7.16486e-71
7.0315e-71
7.18161e-71
7.03369e-71
7.16917e-71
6.97187e-71
7.21698e-71
6.95898e-71
7.04054e-71
7.0551e-71
6.89539e-71
7.63308e-70
7.53222e-70
7.60881e-70
7.45666e-70
7.51997e-70
7.57871e-70
7.56714e-70
7.37419e-70
7.45357e-70
7.6246e-70
7.48836e-70
7.64204e-70
7.48957e-70
7.62968e-70
7.42228e-70
7.67737e-70
7.41353e-70
7.49524e-70
7.50782e-70
7.34748e-70
4.35027e-70
4.35188e-70
4.36321e-70
4.29724e-70
4.32301e-70
4.33839e-70
4.36637e-70
4.27013e-70
4.38603e-70
4.33543e-70
4.35791e-70
4.36927e-70
4.30799e-70
4.33649e-70
4.25e-70
4.32019e-70
4.33465e-70
4.29096e-70
4.29952e-70
4.33943e-70
6.93466e-70
6.98629e-70
7.04869e-70
6.93422e-70
6.89158e-70
6.91922e-70
6.99513e-70
6.85894e-70
7.07155e-70
7.01706e-70
7.05628e-70
7.01856e-70
6.98091e-70
6.90445e-70
6.85426e-70
6.92056e-70
6.87277e-70
6.88816e-70
6.93546e-70
6.95601e-70
7.82563e-70
7.88152e-70
7.91909e-70
7.77498e-70
7.77416e-70
7.6399e-70
7.8087e-70
7.68702e-70
7.85825e-70
8.0311e-70
7.94993e-70
7.76781e-70
7.94973e-70
7.83364e-70
7.82182e-70
7.87251e-70
7.56497e-70
7.82533e-70
7.70417e-70
7.72984e-70
9.05658e-70
9.19331e-70
9.17994e-70
9.13643e-70
9.18616e-70
9.25876e-70
9.46433e-70
9.18889e-70
9.20947e-70
9.08741e-70
9.12048e-70
9.1339e-70
9.22225e-70
9.24643e-70
9.07688e-70
9.18354e-70
9.23194e-70
9.10938e-70
9.05824e-70
9.08997e-70
9.67162e-70
9.64636e-70
9.70159e-70
9.88688e-70
9.80995e-70
9.91001e-70
9.73972e-70
9.92479e-70
9.7345e-70
9.47769e-70
9.56184e-70
9.61578e-70
9.65394e-70
9.50242e-70
9.46134e-70
9.56567e-70
9.47505e-70
9.6624e-70
9.56406e-70
9.7568e-70
9.98231e-70
9.9597e-70
1.01396e-69
1.00345e-69
9.95398e-70
1.01276e-69
1.00891e-69
1.02492e-69
9.98299e-70
1.01451e-69
1.00919e-69
1.01139e-69
1.015e-69
1.01404e-69
1.00551e-69
1.031e-69
1.00421e-69
9.92625e-70
1.00434e-69
1.00379e-69
9.7862e-70
9.61283e-70
9.64715e-70
9.61534e-70
9.75051e-70
9.8207e-70
9.8167e-70
9.74755e-70
9.54501e-70
9.6058e-70
9.50609e-70
9.79046e-70
9.77926e-70
9.90857e-70
9.87522e-70
9.85396e-70
9.77097e-70
9.79287e-70
9.67663e-70
9.71418e-70
9.11874e-70
9.24823e-70
9.12145e-70
9.43613e-70
9.15869e-70
9.37195e-70
9.19637e-70
9.32892e-70
9.19872e-70
9.25289e-70
9.22596e-70
9.4057e-70
9.22518e-70
9.48578e-70
9.18331e-70
9.34188e-70
9.32762e-70
9.07639e-70
9.36238e-70
9.35642e-70
8.0552e-70
8.35342e-70
8.25924e-70
8.1774e-70
8.09687e-70
8.43845e-70
8.29227e-70
8.32259e-70
8.25712e-70
8.11945e-70
8.23114e-70
8.38653e-70
8.21015e-70
8.52848e-70
8.22139e-70
8.36779e-70
8.41235e-70
8.27731e-70
8.42101e-70
8.43893e-70
7.6047e-70
7.59834e-70
7.58168e-70
7.69149e-70
7.73401e-70
7.72455e-70
7.56821e-70
7.67012e-70
7.80895e-70
7.58176e-70
7.74068e-70
7.77699e-70
7.54858e-70
7.83207e-70
7.78922e-70
7.94522e-70
7.70709e-70
7.82744e-70
7.72901e-70
7.91848e-70
5.29648e-70
5.33661e-70
5.31614e-70
5.26975e-70
5.3472e-70
5.32028e-70
5.35758e-70
5.32842e-70
5.33808e-70
5.40997e-70
5.29416e-70
5.43015e-70
5.29124e-70
5.47882e-70
5.3034e-70
5.30812e-70
5.34166e-70
5.44137e-70
5.35392e-70
5.48957e-70
3.15459e-84
3.10989e-84
3.14825e-84
3.07415e-84
3.11062e-84
3.12835e-84
3.12484e-84
3.0414e-84
3.07212e-84
3.14934e-84
3.08663e-84
3.15937e-84
3.08582e-84
3.14979e-84
3.06017e-84
3.17376e-84
3.0516e-84
3.09058e-84
3.10331e-84
3.0237e-84
1.862e-81
1.83569e-81
1.85791e-81
1.81502e-81
1.83571e-81
1.84678e-81
1.8445e-81
1.79549e-81
1.81361e-81
1.85908e-81
1.82231e-81
1.86473e-81
1.82207e-81
1.85948e-81
1.80682e-81
1.87345e-81
1.80187e-81
1.82474e-81
1.8317e-81
1.78534e-81
5.56574e-79
5.48739e-79
5.55254e-79
5.42684e-79
5.48621e-79
5.52105e-79
5.51367e-79
5.36789e-79
5.42202e-79
5.55757e-79
5.44845e-79
5.57366e-79
5.44844e-79
5.55917e-79
5.40251e-79
5.60035e-79
5.3881e-79
5.45602e-79
5.47511e-79
5.33853e-79
9.81829e-77
9.68065e-77
9.79328e-77
9.57601e-77
9.67636e-77
9.74095e-77
9.72688e-77
9.47108e-77
9.56654e-77
9.80491e-77
9.61382e-77
9.83183e-77
9.615e-77
9.8084e-77
9.53335e-77
9.87993e-77
9.50872e-77
9.62766e-77
9.65824e-77
9.42098e-77
1.20355e-74
1.18676e-74
1.20027e-74
1.17419e-74
1.18595e-74
1.19425e-74
1.1924e-74
1.16122e-74
1.17293e-74
1.20203e-74
1.17879e-74
1.20515e-74
1.17908e-74
1.20253e-74
1.16898e-74
1.21115e-74
1.16609e-74
1.18053e-74
1.18389e-74
1.1553e-74
1.04134e-72
1.02691e-72
1.03833e-72
1.01626e-72
1.02597e-72
1.03347e-72
1.03178e-72
1.00496e-72
1.01511e-72
1.04014e-72
1.02022e-72
1.04269e-72
1.02058e-72
1.04065e-72
1.01177e-72
1.04795e-72
1.00939e-72
1.02175e-72
1.02431e-72
1.00003e-72
6.14129e-71
6.0569e-71
6.12249e-71
5.99536e-71
6.04978e-71
6.09593e-71
6.08545e-71
5.92834e-71
5.98851e-71
6.13478e-71
6.01872e-71
6.1489e-71
6.02136e-71
6.13814e-71
5.96877e-71
6.18008e-71
5.95591e-71
6.02756e-71
6.04054e-71
5.90063e-71
2.42835e-69
2.39543e-69
2.42056e-69
2.37157e-69
2.39195e-69
2.41089e-69
2.40666e-69
2.345e-69
2.36912e-69
2.42599e-69
2.38094e-69
2.43127e-69
2.38206e-69
2.42747e-69
2.36097e-69
2.44346e-69
2.3566e-69
2.38417e-69
2.38843e-69
2.33487e-69
2.54452e-68
2.51112e-68
2.53628e-68
2.48655e-68
2.50654e-68
2.52698e-68
2.52278e-68
2.45886e-68
2.48515e-68
2.54231e-68
2.49696e-68
2.5477e-68
2.49777e-68
2.544e-68
2.47517e-68
2.55968e-68
2.47222e-68
2.49944e-68
2.50295e-68
2.44998e-68
1.42243e-68
1.42295e-68
1.42696e-68
1.40546e-68
1.41349e-68
1.41884e-68
1.42767e-68
1.39639e-68
1.43433e-68
1.41782e-68
1.42522e-68
1.42867e-68
1.40898e-68
1.41807e-68
1.39013e-68
1.41243e-68
1.41743e-68
1.40326e-68
1.40608e-68
1.41902e-68
2.27922e-68
2.29583e-68
2.31654e-68
2.27876e-68
2.26483e-68
2.27366e-68
2.29817e-68
2.25395e-68
2.32362e-68
2.30596e-68
2.31887e-68
2.30606e-68
2.29423e-68
2.2692e-68
2.25279e-68
2.27412e-68
2.25819e-68
2.26366e-68
2.27901e-68
2.28545e-68
2.56187e-68
2.57993e-68
2.59232e-68
2.54494e-68
2.54517e-68
2.50164e-68
2.5567e-68
2.51741e-68
2.57221e-68
2.62853e-68
2.60171e-68
2.54296e-68
2.60196e-68
2.56443e-68
2.56036e-68
2.57696e-68
2.47686e-68
2.56111e-68
2.52204e-68
2.5302e-68
2.97179e-68
3.0155e-68
3.01172e-68
2.99807e-68
3.01408e-68
3.03805e-68
3.10406e-68
3.01552e-68
3.02169e-68
2.98147e-68
2.99213e-68
2.99668e-68
3.0258e-68
3.03434e-68
2.97888e-68
3.01328e-68
3.02895e-68
2.98942e-68
2.97239e-68
2.98293e-68
3.1621e-68
3.15312e-68
3.17085e-68
3.23146e-68
3.20662e-68
3.23911e-68
3.18338e-68
3.24433e-68
3.18094e-68
3.09905e-68
3.12557e-68
3.14384e-68
3.15561e-68
3.1067e-68
3.09318e-68
3.12745e-68
3.09719e-68
3.15849e-68
3.12648e-68
3.18916e-68
3.27414e-68
3.2662e-68
3.32498e-68
3.29032e-68
3.26453e-68
3.3219e-68
3.30836e-68
3.36126e-68
3.27434e-68
3.32757e-68
3.30988e-68
3.31731e-68
3.32833e-68
3.32663e-68
3.29833e-68
3.38089e-68
3.29365e-68
3.25559e-68
3.29386e-68
3.29114e-68
3.1992e-68
3.14307e-68
3.15311e-68
3.14362e-68
3.1875e-68
3.21043e-68
3.20865e-68
3.18643e-68
3.12073e-68
3.14033e-68
3.10752e-68
3.19984e-68
3.19692e-68
3.23863e-68
3.22811e-68
3.2206e-68
3.19396e-68
3.20155e-68
3.16365e-68
3.17575e-68
2.99445e-68
3.03734e-68
2.99527e-68
3.0979e-68
3.00666e-68
3.07658e-68
3.01903e-68
3.06305e-68
3.02043e-68
3.03861e-68
3.02938e-68
3.08859e-68
3.02899e-68
3.11429e-68
3.0157e-68
3.06685e-68
3.06271e-68
2.98081e-68
3.07416e-68
3.07229e-68
2.63998e-68
2.73669e-68
2.70647e-68
2.67919e-68
2.6533e-68
2.76431e-68
2.71634e-68
2.72662e-68
2.70517e-68
2.66043e-68
2.69629e-68
2.74713e-68
2.68994e-68
2.79313e-68
2.69336e-68
2.74113e-68
2.7552e-68
2.71202e-68
2.75839e-68
2.76457e-68
2.50914e-68
2.50716e-68
2.5021e-68
2.53792e-68
2.55127e-68
2.54842e-68
2.49676e-68
2.53166e-68
2.57625e-68
2.50198e-68
2.55387e-68
2.56622e-68
2.49038e-68
2.58401e-68
2.56986e-68
2.62122e-68
2.54316e-68
2.582e-68
2.54968e-68
2.61175e-68
1.73968e-68
1.75288e-68
1.74636e-68
1.73101e-68
1.75596e-68
1.74741e-68
1.75915e-68
1.7502e-68
1.75248e-68
1.77647e-68
1.73832e-68
1.78286e-68
1.73757e-68
1.79893e-68
1.74159e-68
1.74322e-68
1.7538e-68
1.78666e-68
1.75807e-68
1.80231e-68
1.19528e-82
1.17837e-82
1.1927e-82
1.16512e-82
1.17842e-82
1.18553e-82
1.18406e-82
1.15259e-82
1.16418e-82
1.19347e-82
1.16979e-82
1.1971e-82
1.16965e-82
1.19369e-82
1.15986e-82
1.20268e-82
1.1566e-82
1.17135e-82
1.17585e-82
1.14598e-82
6.94036e-80
6.84254e-80
6.92417e-80
6.76715e-80
6.84128e-80
6.88482e-80
6.87549e-80
6.69368e-80
6.76089e-80
6.93061e-80
6.79401e-80
6.95064e-80
6.79408e-80
6.93233e-80
6.73685e-80
6.98389e-80
6.71833e-80
6.80346e-80
6.82751e-80
6.65639e-80
2.03705e-77
2.00846e-77
2.03195e-77
1.98679e-77
2.00763e-77
2.02106e-77
2.0181e-77
1.96502e-77