/*--------------------------------*- C++ -*----------------------------------*\
| =========                 |                                                 |
| \\      /  F ield         | OpenFOAM: The Open Source CFD Toolbox           |
|  \\    /   O peration     | Version:  2212                                  |
|   \\  /    A nd           | Website:  www.openfoam.com                      |
|    \\/     M anipulation  |                                                 |
\*---------------------------------------------------------------------------*/
FoamFile
{
    version     2.0;
    format      ascii;
    arch        "LSB;label=32;scalar=64";
    class       volVectorField;
    location    "0.002";
    object      U;
}
// * * * * * * * * * * * * * * * * * * * * * * * * * * * * * * * * * * * * * //

dimensions      [0 1 -1 0 0 0 0];

internalField   nonuniform List<vector> 
12075
(
(-0.201 -0.23 0)
(-0.482 -0.206 -1.05e-18)
(-0.962 -0.292 1.05e-18)
(-1.08 -0.425 0)
(-1.19 -0.284 2.07e-18)
(-1.47 -0.0985 -5.48e-21)
(-1.75 0.0261 2.05e-18)
(-1.96 0.126 -4.2e-18)
(-2.05 0.203 4.14e-18)
(-2.03 0.251 -4.18e-18)
(-1.88 0.265 -3.25e-20)
(-1.63 0.249 0)
(-1.28 0.217 -4.19e-18)
(-0.832 0.174 4.16e-18)
(-0.298 0.126 8.34e-18)
(0.315 0.064 -8.3e-18)
(1.01 0.00767 -3.24e-20)
(1.76 -0.0522 0)
(2.55 -0.0683 0)
(3.33 -0.0816 -8.33e-18)
(4.1 -0.072 8.29e-18)
(4.81 -0.0443 -3.24e-20)
(5.44 0.00768 0)
(5.96 0.068 -3.24e-20)
(6.39 0.146 0)
(-0.193 -0.63 0)
(-0.535 -0.553 0)
(-0.883 -0.602 -1.07e-18)
(-1.25 -0.796 1.07e-18)
(-1.6 -0.492 2.18e-18)
(-1.83 -0.0952 -2.16e-18)
(-2.03 0.171 3.38e-20)
(-2.15 0.391 4.32e-18)
(-2.22 0.593 -4.31e-18)
(-2.22 0.749 0)
(-2.13 0.838 4.38e-18)
(-1.93 0.871 -4.37e-18)
(-1.62 0.842 4.41e-18)
(-1.21 0.764 -4.39e-18)
(-0.715 0.655 4.36e-18)
(-0.122 0.513 4.55e-18)
(0.553 0.361 -8.82e-18)
(1.33 0.219 0)
(2.14 0.0983 0)
(2.95 0.0303 1.75e-19)
(3.77 -0.0128 0)
(4.54 -0.00685 1.76e-19)
(5.25 0.0482 -9.03e-18)
(5.87 0.165 9.09e-18)
(6.37 0.345 9.09e-18)
(-0.215 -0.811 8.04e-19)
(-0.577 -0.813 -8.07e-19)
(-0.827 -0.793 2.7e-19)
(-1.21 -0.756 -1.9e-18)
(-1.56 -0.53 2.18e-18)
(-1.75 -0.24 -2.45e-18)
(-1.88 0.0631 -2.67e-19)
(-1.99 0.332 1.92e-18)
(-2.09 0.586 0)
(-2.16 0.783 4.42e-18)
(-2.13 0.934 -4.03e-21)
(-2.01 1.02 -9.19e-18)
(-1.79 1.03 9.23e-18)
(-1.45 0.967 -4.49e-18)
(-0.997 0.844 0)
(-0.44 0.674 1.42e-19)
(0.231 0.48 -9.1e-18)
(0.997 0.293 2.82e-19)
(1.86 0.0905 8.89e-18)
(2.74 -0.0446 -1.44e-19)
(3.62 -0.134 2.9e-19)
(4.49 -0.146 -1.45e-19)
(5.29 -0.0679 -9.35e-18)
(6 0.112 2.89e-19)
(6.6 0.391 -3.09e-21)
(-0.188 -0.739 -2.7e-19)
(-0.489 -0.823 2.71e-19)
(-0.745 -0.745 -2.72e-19)
(-0.985 -0.638 -2.45e-18)
(-1.18 -0.382 4.92e-18)
(-1.35 -0.0977 2.71e-19)
(-1.48 0.217 -1.93e-18)
(-1.61 0.508 2.77e-19)
(-1.76 0.767 0)
(-1.89 0.987 5.57e-19)
(-1.94 1.17 0)
(-1.91 1.28 8.42e-19)
(-1.8 1.32 -4.79e-18)
(-1.58 1.28 4.53e-18)
(-1.22 1.16 -4.55e-18)
(-0.742 0.969 1.34e-17)
(-0.12 0.736 -9.18e-18)
(0.62 0.485 -2.88e-19)
(1.48 0.221 2.89e-19)
(2.41 0.00143 0)
(3.37 -0.143 8.47e-18)
(4.34 -0.195 -9.39e-18)
(5.28 -0.145 0)
(6.14 0.0562 -8.88e-19)
(6.88 0.402 0)
(-0.126 -0.643 1.08e-18)
(-0.37 -0.661 -1.65e-21)
(-0.595 -0.56 0)
(-0.745 -0.409 -2.19e-18)
(-0.883 -0.179 1.65e-18)
(-1.01 0.0707 0)
(-1.16 0.33 0)
(-1.32 0.558 0)
(-1.5 0.77 -4.47e-18)
(-1.66 0.956 8.42e-18)
(-1.77 1.11 -4.51e-18)
(-1.83 1.2 -5.66e-19)
(-1.81 1.23 0)
(-1.69 1.17 0)
(-1.44 1.05 -4.59e-18)
(-1.05 0.849 4.61e-18)
(-0.505 0.598 -9.26e-18)
(0.193 0.298 1.86e-17)
(1.05 -0.0104 -9.34e-18)
(2.03 -0.283 0)
(3.09 -0.491 1e-17)
(4.17 -0.6 -9.47e-18)
(5.26 -0.576 -5.95e-19)
(6.31 -0.386 -8.96e-18)
(7.25 0.0381 1.02e-17)
(-0.0978 -0.278 -1.65e-21)
(-0.267 -0.236 1.09e-18)
(-0.41 -0.0837 -1.1e-18)
(-0.495 0.0855 -2.21e-18)
(-0.584 0.305 3.33e-18)
(-0.713 0.504 -4.45e-18)
(-0.871 0.711 1.12e-18)
(-1.06 0.882 0)
(-1.26 1.05 0)
(-1.46 1.19 3.4e-18)
(-1.64 1.29 -9.1e-18)
(-1.79 1.33 1.03e-17)
(-1.86 1.32 -1.03e-17)
(-1.83 1.23 4.61e-18)
(-1.69 1.07 -4.63e-18)
(-1.39 0.843 4.65e-18)
(-0.928 0.546 0)
(-0.293 0.201 9.39e-18)
(0.525 -0.204 -9.42e-18)
(1.52 -0.588 0)
(2.66 -0.939 9.52e-18)
(3.88 -1.16 -9.56e-18)
(5.13 -1.21 1.02e-17)
(6.44 -1.05 -1.81e-17)
(7.66 -0.563 1.03e-17)
(-0.0454 0.3 -5.48e-19)
(-0.104 0.336 -5.55e-19)
(-0.174 0.483 0)
(-0.233 0.639 0)
(-0.329 0.82 4.46e-18)
(-0.477 0.954 -3.36e-18)
(-0.657 1.09 1.13e-18)
(-0.872 1.19 0)
(-1.1 1.29 -4.55e-18)
(-1.33 1.33 1.03e-17)
(-1.56 1.36 -4.59e-18)
(-1.78 1.32 -1.15e-18)
(-1.94 1.23 1.16e-18)
(-2.02 1.05 0)
(-1.97 0.804 -5.84e-18)
(-1.78 0.463 5.86e-18)
(-1.43 0.0528 -9.43e-18)
(-0.898 -0.432 9.46e-18)
(-0.165 -0.983 -1.07e-17)
(0.806 -1.52 9.55e-18)
(2.02 -2.04 -9.6e-18)
(3.39 -2.45 9.64e-18)
(4.88 -2.59 0)
(6.51 -2.48 -2.43e-18)
(8.1 -1.92 -1.22e-18)
(0.00921 1.12 1.11e-18)
(0.0527 1.16 -1.11e-18)
(0.04 1.31 0)
(-0.0107 1.44 -2.24e-18)
(-0.129 1.59 3.37e-18)
(-0.315 1.68 -3.39e-18)
(-0.527 1.75 2.27e-18)
(-0.781 1.77 -4.57e-18)
(-1.05 1.78 4.58e-18)
(-1.34 1.76 -1.15e-18)
(-1.61 1.7 0)
(-1.9 1.61 0)
(-2.15 1.45 0)
(-2.33 1.22 0)
(-2.43 0.891 1.18e-18)
(-2.37 0.441 -1.18e-18)
(-2.15 -0.141 0)
(-1.73 -0.841 -1.19e-18)
(-1.08 -1.65 1.2e-18)
(-0.152 -2.45 0)
(1.07 -3.27 -1.21e-18)
(2.62 -3.95 0)
(4.42 -4.37 -9.76e-18)
(6.51 -4.39 1.24e-18)
(8.56 -3.82 8.63e-18)
(0.0551 2.18 7.91e-33)
(0.182 2.15 0)
(0.234 2.25 0)
(0.177 2.29 0)
(0.0368 2.36 0)
(-0.209 2.35 -1.14e-18)
(-0.481 2.33 0)
(-0.773 2.26 0)
(-1.03 2.2 0)
(-1.34 2.1 4.65e-18)
(-1.67 1.99 3.49e-21)
(-2.02 1.8 -3.52e-18)
(-2.36 1.55 0)
(-2.67 1.2 -4.73e-18)
(-2.92 0.725 2.2e-22)
(-3.08 0.0818 1.43e-17)
(-3.09 -0.721 -9.6e-18)
(-2.88 -1.71 9.64e-18)
(-2.38 -2.82 -9.68e-18)
(-1.52 -4.01 0)
(-0.287 -5.23 1.1e-17)
(1.38 -6.31 -9.81e-18)
(3.52 -7.18 0)
(6.26 -7.18 0)
(9.04 -6.86 1.25e-18)
(0.0798 3.37 -1.69e-18)
(0.243 3.29 -5.64e-19)
(0.31 3.31 2.27e-18)
(0.211 3.28 -4.56e-18)
(0.0182 3.25 2.29e-18)
(-0.281 3.18 1.15e-18)
(-0.569 3.11 2.32e-18)
(-0.857 3.04 2.33e-18)
(-1.16 2.97 -7.01e-18)
(-1.52 2.86 1.06e-17)
(-1.91 2.71 -7.08e-18)
(-2.36 2.48 -1.18e-18)
(-2.81 2.18 -4.76e-18)
(-3.28 1.75 7.18e-18)
(-3.74 1.17 -4.8e-18)
(-4.12 0.394 4.82e-18)
(-4.39 -0.61 0)
(-4.42 -1.84 1.34e-17)
(-4.17 -3.3 -1.95e-17)
(-3.52 -4.97 9.82e-18)
(-2.33 -6.78 -7.38e-18)
(-0.572 -8.57 9.91e-18)
(2.32 -10.2 -9.98e-18)
(5.92 -10.8 1.27e-17)
(9.66 -10.7 0)
(0.0912 4.58 2.83e-18)
(0.244 4.41 -5.69e-19)
(0.304 4.35 -4.58e-18)
(0.183 4.22 4.6e-18)
(2.67e-05 4.12 4.96e-21)
(-0.291 3.99 -4.65e-18)
(-0.555 3.92 6.6e-21)
(-0.848 3.82 -4.69e-18)
(-1.16 3.73 7.08e-18)
(-1.56 3.57 4.53e-21)
(-2.01 3.36 -2.38e-18)
(-2.53 3.07 4.79e-18)
(-3.1 2.67 6.46e-22)
(-3.77 2.12 -4.82e-18)
(-4.46 1.4 0)
(-5.15 0.444 9.74e-18)
(-5.76 -0.725 -1.96e-17)
(-6.21 -2.2 1.72e-17)
(-6.37 -3.94 -9.87e-18)
(-6.12 -6.03 2.48e-18)
(-5.25 -8.48 -2.49e-18)
(-3.66 -11.1 0)
(0.144 -14.2 0)
(5.89 -15.5 -1.38e-17)
(11.5 -16.7 1.15e-17)
(0.0661 5.69 0)
(0.141 5.54 0)
(0.165 5.45 2.31e-18)
(0.0117 5.28 2.33e-18)
(-0.156 5.15 9.61e-21)
(-0.424 5 2.34e-18)
(-0.669 4.92 5.19e-21)
(-0.975 4.8 2.37e-18)
(-1.34 4.71 0)
(-1.83 4.56 0)
(-2.39 4.36 4.81e-18)
(-3.06 4.08 -4.83e-18)
(-3.82 3.7 0)
(-4.67 3.2 -2.43e-18)
(-5.66 2.49 0)
(-6.62 1.56 0)
(-7.59 0.311 0)
(-8.38 -1.32 -2.48e-18)
(-8.97 -3.49 9.95e-18)
(-9.29 -6.15 -1.25e-17)
(-8.85 -9.6 -1.27e-17)
(-7.6 -13.6 1.07e-17)
(-2.35 -19.1 -2.87e-18)
(3.19 -24.3 -1.17e-17)
(5.94 -26 1.18e-17)
(0.0433 6.64 5.79e-19)
(0.0605 6.52 2.92e-18)
(0.0688 6.43 1.18e-18)
(-0.103 6.27 2.36e-18)
(-0.256 6.14 -2.36e-18)
(-0.489 5.97 4.76e-18)
(-0.69 5.86 -4.76e-18)
(-0.983 5.7 4.8e-18)
(-1.32 5.6 -9.63e-18)
(-1.82 5.44 4.84e-18)
(-2.41 5.24 2.44e-18)
(-3.13 4.93 0)
(-3.93 4.55 7.37e-18)
(-4.95 3.98 -1.23e-17)
(-6.08 3.26 4.95e-18)
(-7.37 2.28 0)
(-8.79 1 0)
(-10.4 -0.691 2.5e-18)
(-11.9 -2.83 -1.01e-17)
(-13.4 -5.66 1.02e-17)
(-13.6 -10.2 2.68e-18)
(-13.2 -17 2.9e-18)
(-13.1 -24.9 1.47e-17)
(-12.2 -27.2 -6.82e-20)
(-10.3 -27.4 -2.3e-17)
(0.0236 7.4 -1.77e-18)
(-0.0293 7.35 -2.94e-18)
(-0.0475 7.27 -2.36e-18)
(-0.251 7.12 -2.37e-18)
(-0.425 7 0)
(-0.658 6.84 -2.39e-18)
(-0.871 6.72 0)
(-1.15 6.59 0)
(-1.51 6.5 4.87e-18)
(-2.08 6.39 -4.89e-18)
(-2.8 6.25 -7.37e-18)
(-3.65 6.08 4.94e-18)
(-4.71 5.82 2.48e-18)
(-5.99 5.5 -1.25e-21)
(-7.52 5.06 0)
(-9.27 4.49 1e-17)
(-11.3 3.67 -1.01e-17)
(-13.5 2.48 0)
(-15.6 0.459 1.28e-17)
(-17.8 -3.22 -1.06e-17)
(-19.3 -8.84 0)
(-22.1 -14.7 6.53e-21)
(-26.1 -19.6 0)
(-25.2 -24.2 0)
(-25.8 -27.9 0)
(0.0126 7.87 5.77e-19)
(-0.0962 7.89 5.96e-19)
(-0.141 7.85 -1.2e-18)
(-0.368 7.74 4.82e-18)
(-0.516 7.65 -2.42e-18)
(-0.741 7.54 2.43e-18)
(-0.909 7.45 -2.43e-18)
(-1.15 7.37 9.8e-18)
(-1.42 7.32 1.3e-21)
(-1.96 7.24 -7.42e-18)
(-2.58 7.19 -4.97e-18)
(-3.4 7.1 -2.5e-18)
(-4.32 7.01 1e-17)
(-5.49 6.83 -2.52e-18)
(-6.83 6.61 -1.26e-17)
(-8.37 6.2 -5.06e-18)
(-10.1 5.61 7.65e-18)
(-12 4.78 0)
(-14.1 3.48 -1.03e-17)
(-17.2 1.09 1.08e-17)
(-20.4 -2.52 8.65e-18)
(-27.7 -9.84 -5.97e-18)
(-32.5 -19.2 -2.32e-17)
(-33.1 -23.5 8.69e-18)
(-38 -25.5 -2.91e-18)
(0.0182 8.09 2.99e-18)
(-0.105 8.18 -6.02e-19)
(-0.179 8.17 2.42e-18)
(-0.434 8.13 -2.42e-18)
(-0.593 8.11 2.45e-18)
(-0.813 8.08 2.46e-18)
(-0.985 8.05 -2.46e-18)
(-1.21 8.03 4.73e-21)
(-1.52 7.99 -7.46e-18)
(-2.03 7.97 2.49e-18)
(-2.71 7.95 7.53e-18)
(-3.54 7.97 -7.38e-23)
(-4.57 8 5.07e-18)
(-5.86 8.04 -2.54e-18)
(-7.42 8 5.11e-18)
(-9.3 7.93 1.28e-17)
(-11.5 7.69 -5.17e-18)
(-13.9 7.32 2.6e-18)
(-16.6 7.01 -2.64e-18)
(-19.7 6.4 2.81e-18)
(-23.2 4.49 1.79e-17)
(-29.4 -2.42 -6.02e-18)
(-34.5 -9.13 -8.75e-18)
(-39.2 -13.1 1.75e-17)
(-45.9 -17.5 2.91e-18)
(0.0231 7.98 3.03e-18)
(-0.123 8.14 6.08e-19)
(-0.174 8.16 -3.66e-18)
(-0.407 8.19 2.45e-18)
(-0.542 8.23 -7.4e-18)
(-0.751 8.27 3.33e-21)
(-0.877 8.35 -2.49e-18)
(-1.12 8.4 0)
(-1.38 8.49 2.51e-18)
(-1.84 8.55 0)
(-2.35 8.71 7.71e-21)
(-3.07 8.89 -7.64e-18)
(-3.91 9.22 1.02e-17)
(-5.09 9.53 -1.29e-17)
(-6.6 10 2.59e-18)
(-8.42 10.5 -2.59e-18)
(-10.9 11 -2.6e-18)
(-13.6 11.4 7.87e-18)
(-17.1 11.5 -3.27e-20)
(-20.5 11.1 -1.43e-17)
(-23.9 8.47 1.22e-20)
(-29.6 2.5 -3.04e-18)
(-35.1 -3.86 -1.48e-17)
(-39.1 -5.96 -2.88e-18)
(-46.6 -8.51 1.18e-17)
(0.033 7.43 -1.83e-18)
(-0.0927 7.64 -6.14e-19)
(-0.151 7.73 4.93e-18)
(-0.35 7.85 0)
(-0.482 7.97 -2.49e-18)
(-0.652 8.09 0)
(-0.788 8.24 -1.66e-21)
(-0.964 8.41 2.52e-18)
(-1.22 8.59 2.53e-21)
(-1.56 8.86 5.1e-18)
(-2.02 9.14 2.57e-18)
(-2.53 9.56 4.78e-21)
(-3.29 10 1.04e-17)
(-4.25 10.7 -1.04e-17)
(-5.41 11.5 0)
(-7.08 12.5 1.57e-17)
(-9.28 13.9 -1.58e-17)
(-12 15.3 5.31e-18)
(-15.5 16.8 -1.08e-17)
(-19.4 17 1.16e-17)
(-24.1 14.5 3.03e-18)
(-32.4 10.5 -6.16e-18)
(-38.8 5.53 0)
(-43.1 1.63 5.99e-18)
(-49.9 -0.121 5.97e-18)
(0.0687 6.6 -6.16e-19)
(0.0121 6.87 6.19e-19)
(-0.00375 7.03 -1.4e-20)
(-0.158 7.23 2.5e-18)
(-0.244 7.46 2.51e-18)
(-0.404 7.67 0)
(-0.453 7.91 -5.07e-18)
(-0.617 8.13 5.09e-18)
(-0.714 8.44 4.02e-21)
(-1 8.78 -1.03e-17)
(-1.27 9.32 5.18e-18)
(-1.69 9.88 -1.56e-17)
(-2.09 10.7 -1.04e-17)
(-2.72 11.6 1.58e-17)
(-3.55 12.8 5.28e-18)
(-4.63 14.3 -2.12e-17)
(-6.09 16.1 2.13e-17)
(-8.14 18.6 9.69e-21)
(-10.9 21.2 -5.42e-18)
(-14.4 24 0)
(-18.7 23.6 2.46e-17)
(-27.8 17.3 -2.5e-17)
(-36.6 13 6.12e-18)
(-39.9 10.3 1.63e-20)
(-49.3 7.17 -6.13e-18)
(0.0923 5.64 8.82e-33)
(0.146 5.92 0)
(0.178 6.08 -5.02e-18)
(0.106 6.33 2.52e-18)
(-0.000268 6.62 -2.53e-18)
(-0.145 6.93 2.55e-18)
(-0.246 7.24 2.56e-18)
(-0.289 7.58 0)
(-0.34 7.93 0)
(-0.347 8.43 5.19e-18)
(-0.464 8.96 5.22e-18)
(-0.557 9.81 3.37e-21)
(-0.782 10.7 5.28e-18)
(-1.01 11.9 -1.06e-17)
(-1.49 13.4 -1.07e-17)
(-1.91 15.1 5.35e-18)
(-2.73 17.4 -5.37e-18)
(-3.71 19.9 -1.08e-17)
(-4.73 23.3 1.63e-17)
(-7.18 27.5 -1.11e-17)
(-9.37 31 5.87e-18)
(-14.6 30.2 -1.27e-17)
(-24.9 22.2 6.31e-18)
(-34.1 19.3 -1.87e-17)
(-40.3 19.6 -6.25e-18)
(0.113 4.73 -4.99e-18)
(0.253 4.97 0)
(0.374 5.13 0)
(0.398 5.34 0)
(0.413 5.64 5.09e-18)
(0.293 5.97 0)
(0.301 6.41 0)
(0.197 6.84 -5.19e-18)
(0.33 7.37 5.21e-18)
(0.327 7.9 -5.24e-18)
(0.541 8.64 -5.27e-18)
(0.61 9.33 5.29e-18)
(0.826 10.4 1.06e-17)
(0.799 11.7 -5.35e-18)
(1.03 13 1.08e-17)
(0.887 15.1 1.08e-17)
(0.786 17.2 -5.44e-18)
(0.451 20 5.45e-18)
(0.115 23.3 0)
(-0.518 26.8 0)
(-0.811 31.7 1.12e-17)
(-3.35 36 -6.05e-18)
(-8.36 36.3 -6.41e-18)
(-18.6 30.2 1.3e-17)
(-26.1 24.8 1.29e-17)
(0.124 3.92 5.05e-18)
(0.352 4.11 0)
(0.511 4.26 0)
(0.65 4.45 -2.56e-18)
(0.719 4.72 2.55e-18)
(0.745 5.06 7.75e-18)
(0.783 5.46 -2.6e-18)
(0.893 5.97 1.04e-17)
(0.975 6.53 -6.39e-21)
(1.25 7.24 -1.51e-20)
(1.39 7.93 5.29e-18)
(1.79 8.85 5.32e-18)
(2.06 9.93 1.07e-17)
(2.75 11 -7.62e-21)
(3 12.7 -1.31e-20)
(3.68 14.3 5.44e-18)
(3.85 16.7 -1.09e-20)
(4.57 19.1 0)
(4.65 22.1 5.52e-18)
(5.18 26 -1.11e-17)
(5.85 30.5 -5.6e-18)
(5.45 34.8 1.14e-17)
(5.69 41.5 -2.45e-17)
(0.462 44.2 -6.46e-18)
(-9.5 41.6 6.62e-18)
(0.133 3.15 -4.44e-18)
(0.421 3.32 -4.46e-18)
(0.653 3.46 -1.28e-18)
(0.854 3.63 7.73e-18)
(1.08 3.89 -1.3e-17)
(1.14 4.18 -5.22e-18)
(1.39 4.59 -7.85e-18)
(1.49 5.04 -2.64e-18)
(1.85 5.65 -5.3e-18)
(2.06 6.24 -1.07e-17)
(2.58 7.07 5.33e-18)
(2.93 7.96 -2.22e-20)
(3.75 8.84 -5.44e-18)
(4.16 10.4 -1.38e-20)
(5.23 11.4 -5.48e-18)
(5.87 13.4 -5.51e-18)
(7.01 15 5.51e-18)
(7.66 17.6 -5.57e-18)
(8.83 20.2 5.58e-18)
(9.92 23.3 0)
(11.1 27.5 1.69e-17)
(12.3 30.5 -1.14e-17)
(14.3 37.7 1.16e-17)
(16.7 41.9 -6.17e-18)
(15.4 50.2 0)
(0.135 2.49 5.13e-18)
(0.503 2.59 6.44e-18)
(0.77 2.7 -6.46e-18)
(1.07 2.87 -2.61e-18)
(1.3 3.09 2.62e-18)
(1.54 3.36 7.87e-18)
(1.77 3.73 2.65e-18)
(2.14 4.15 5.31e-18)
(2.42 4.67 -5.33e-18)
(2.96 5.31 -1.35e-20)
(3.4 6.01 5.37e-18)
(4.21 6.77 -5.44e-18)
(4.8 8.06 -2.38e-20)
(5.95 8.84 0)
(6.8 10.5 0)
(8.18 11.7 0)
(9.13 14 1.11e-17)
(10.4 16 -2.24e-17)
(12 17.7 1.13e-17)
(13.7 20.8 -1.13e-17)
(14.7 24.5 1.14e-17)
(17.9 26.4 -1.14e-17)
(20 31.5 -5.75e-18)
(24.1 35.3 0)
(27.9 41.8 0)
(0.155 1.91 -4.51e-18)
(0.574 1.96 -6.49e-19)
(0.897 2.04 5.22e-18)
(1.23 2.18 -5.24e-18)
(1.59 2.36 0)
(1.84 2.59 -7.95e-18)
(2.27 2.91 2.66e-18)
(2.59 3.23 -5.36e-18)
(3.15 3.73 1.08e-17)
(3.6 4.17 -1.08e-17)
(4.41 4.81 -1.09e-17)
(5.01 5.73 0)
(6.29 6.17 -5.53e-18)
(7.08 7.66 1.11e-17)
(8.56 8.4 -1.11e-17)
(9.9 10.2 0)
(11.2 11.3 1.12e-17)
(13.1 13.1 -5.64e-18)
(14.2 14.8 1.14e-17)
(16.4 18.1 3.42e-21)
(17.6 19.9 5.75e-18)
(21.6 21 -1.15e-17)
(22.9 26 0)
(26.8 27.6 -1.75e-17)
(30.2 33.7 1.19e-17)
(0.151 1.38 5.21e-18)
(0.617 1.38 0)
(0.932 1.44 0)
(1.34 1.55 5.29e-18)
(1.68 1.69 5.31e-18)
(2.09 1.85 2.67e-18)
(2.45 2.13 -1.36e-21)
(3.01 2.39 8.1e-18)
(3.47 2.77 -5.43e-18)
(4.21 3.19 -5.46e-18)
(4.91 3.81 1.65e-17)
(5.92 4.14 -5.52e-18)
(6.94 5.27 -8.45e-21)
(8.15 5.77 -7.37e-21)
(9.71 6.9 5.62e-18)
(11 7.99 -5.65e-18)
(13.1 8.94 1.7e-17)
(14.1 10.7 1.56e-20)
(16.1 11.9 5.75e-18)
(17.8 14.5 -1.73e-17)
(21 15.5 -1.16e-17)
(23.3 16.8 -5.84e-18)
(26 21.5 5.85e-18)
(28.9 22.8 -1.18e-17)
(33 28.3 -5.94e-18)
(0.153 0.913 -5.26e-18)
(0.625 0.905 5.28e-18)
(1 0.921 -6.64e-18)
(1.41 1.04 -1.33e-18)
(1.84 1.14 -8.05e-18)
(2.25 1.26 -5.4e-18)
(2.76 1.46 -5.42e-18)
(3.26 1.56 3.99e-21)
(3.93 1.93 1.92e-21)
(4.54 2.09 -1.1e-17)
(5.61 2.46 -7.15e-21)
(6.3 3.09 1.11e-17)
(7.84 3.23 -5.59e-18)
(8.75 4.17 -5.64e-18)
(10.7 4.65 -5.65e-18)
(11.8 5.63 -1.71e-17)
(14 5.75 1.72e-17)
(15.1 7.73 -5.75e-18)
(17.6 7.95 5.8e-18)
(19.5 9.52 -5.82e-18)
(22.3 10.2 1.76e-17)
(24.3 11.3 -5.89e-18)
(27.5 15.5 -1.55e-21)
(30.4 15.9 5.96e-18)
(34.4 19.8 -6e-18)
(0.163 0.554 5.31e-18)
(0.636 0.459 -5.34e-18)
(1 0.468 5.36e-18)
(1.46 0.56 2.7e-18)
(1.81 0.585 5.42e-18)
(2.32 0.647 8.9e-22)
(2.67 0.779 8.21e-18)
(3.41 0.858 5.5e-18)
(3.81 1.11 5.53e-18)
(4.81 1.1 -5.55e-18)
(5.47 1.61 -6.17e-21)
(6.64 1.48 -5.62e-18)
(7.76 2.29 5.66e-18)
(9.22 2.1 0)
(10.6 3.09 5.72e-18)
(12.1 3.03 -1.15e-17)
(14.1 3.7 1.15e-17)
(15.3 4.65 1.16e-17)
(17.9 4.3 0)
(19.8 6.02 5.89e-18)
(22.2 7.1 0)
(25 6.71 -1.19e-17)
(27.7 10.3 6e-18)
(31.9 10.4 1.81e-17)
(35.6 14.2 0)
(0.194 0.289 5.36e-18)
(0.676 0.228 -6.73e-18)
(1.06 0.158 1.35e-18)
(1.5 0.323 2.72e-18)
(1.85 0.34 -8.21e-18)
(2.28 0.377 5.5e-18)
(2.78 0.273 -8.29e-18)
(3.29 0.293 2.78e-18)
(4.03 0.367 1.12e-17)
(4.63 0.227 -5.61e-18)
(5.69 0.543 -1.13e-17)
(6.49 0.532 1.13e-17)
(7.95 0.424 -5.7e-18)
(9.01 0.701 -5.74e-18)
(10.7 1.03 -2.09e-22)
(12 0.688 1.16e-17)
(13.9 0.937 -1.17e-17)
(15.3 1.74 -5.88e-18)
(17.8 0.511 1.18e-17)
(19.2 2.08 -1.78e-17)
(22.7 1.96 -5.99e-18)
(24.8 2.55 5.36e-21)
(28.9 2.97 6.07e-18)
(32.4 5.2 -6.1e-18)
(36.8 6.01 0)
(0.129 -0.0256 -5.41e-18)
(0.628 -0.107 5.44e-18)
(0.903 -0.125 0)
(1.38 0.0279 2.75e-18)
(1.95 -0.0404 9.62e-22)
(2.49 -0.202 6.14e-22)
(3.06 -0.3 -2.79e-18)
(3.57 -0.421 5.61e-18)
(4.23 -0.481 -1.69e-17)
(4.88 -0.583 5.67e-18)
(5.69 -0.638 1.05e-21)
(6.71 -0.749 5.73e-18)
(7.81 -0.803 0)
(9.04 -0.933 -5.79e-18)
(10.5 -0.985 1.16e-17)
(12.1 -1.15 -1.76e-17)
(13.6 -1.26 2.36e-17)
(15.5 -1.36 -1.78e-17)
(17.4 -1.53 5.96e-18)
(19.5 -1.61 -6e-18)
(22.5 -1.58 -6.04e-18)
(25.7 -1.54 0)
(29.5 -1.31 6.1e-18)
(34.1 -0.747 -6.12e-18)
(40.8 0.442 6.14e-18)
(0.0329 -0.0324 0)
(0.383 0.0303 -5.49e-18)
(0.428 -0.0459 1.38e-18)
(0.886 -0.121 -1.39e-18)
(1.17 -0.0266 2.78e-18)
(1.67 0.147 2.8e-18)
(1.95 0.229 8.43e-18)
(2.52 0.326 -2.82e-18)
(2.9 0.34 5.67e-18)
(3.65 0.445 4.82e-21)
(4.18 0.456 1.14e-17)
(5.1 0.575 0)
(5.76 0.566 -5.77e-18)
(6.7 0.668 5.8e-18)
(7.32 0.646 -5.83e-18)
(8.31 0.716 5.86e-18)
(9.19 0.7 -5.9e-18)
(10.4 0.728 1.19e-17)
(12 0.68 -1.54e-21)
(14 0.539 -5.99e-18)
(16.6 0.267 -6.02e-18)
(19.8 -0.631 1.21e-17)
(26.1 -1.97 6.04e-18)
(29.8 -5.75 -6.14e-18)
(46.6 -10.3 -1.22e-19)
(0.0826 -0.173 0)
(0.362 -0.116 4.08e-18)
(0.512 -0.156 1.37e-18)
(0.811 -0.276 8.23e-18)
(0.954 -0.263 -2.76e-18)
(1.37 -0.157 -2.77e-18)
(1.69 -0.109 -1.39e-17)
(2.34 -0.0455 0)
(2.79 -0.0945 -5.61e-18)
(3.63 -0.0256 -5.64e-18)
(4.2 -0.113 -4.62e-21)
(5.18 -0.0406 -1.14e-17)
(5.79 -0.227 1.14e-17)
(6.79 -0.172 -5.75e-18)
(7.33 -0.534 5.78e-18)
(8.45 -0.554 0)
(9.18 -0.953 5.84e-18)
(10.7 -1.16 -5.87e-18)
(11.9 -1.82 5.91e-18)
(14.1 -2.27 1.19e-17)
(16 -2.72 -2.98e-17)
(18.8 -5.43 2.4e-17)
(21.5 -6.68 -6.04e-18)
(24.9 -11.9 0)
(25.7 -17.7 -6.03e-18)
(0.071 -0.218 5.36e-18)
(0.329 -0.183 0)
(0.488 -0.228 0)
(0.789 -0.251 -5.43e-18)
(0.932 -0.284 0)
(1.35 -0.274 2.74e-18)
(1.66 -0.345 1.1e-17)
(2.33 -0.326 -8.31e-18)
(2.76 -0.461 -5.55e-18)
(3.59 -0.463 1.68e-17)
(4.11 -0.695 -5.61e-18)
(5.06 -0.733 -5.63e-18)
(5.59 -1.14 4.52e-21)
(6.53 -1.23 5.69e-18)
(7 -1.85 0)
(8.06 -2 0)
(8.66 -2.9 0)
(10.1 -3.11 -1.16e-17)
(10.9 -4.33 1.17e-17)
(13.1 -5.07 0)
(14 -6.73 -1.18e-17)
(17 -9.08 1.19e-17)
(17.1 -11.2 -1.19e-17)
(20.6 -15.6 1.2e-17)
(18 -17.1 0)
(0.088 -0.255 -5.31e-18)
(0.309 -0.301 -1.33e-18)
(0.459 -0.352 1.34e-18)
(0.736 -0.399 -5.39e-18)
(0.938 -0.476 5.42e-18)
(1.35 -0.526 2.72e-18)
(1.69 -0.659 -2.72e-18)
(2.31 -0.725 5.48e-18)
(2.77 -0.941 0)
(3.56 -1.03 -1.11e-17)
(4.08 -1.35 0)
(4.96 -1.5 -1.12e-17)
(5.44 -2.01 5.61e-18)
(6.32 -2.22 0)
(6.75 -2.94 0)
(7.75 -3.23 0)
(8.36 -4.18 0)
(9.57 -4.63 -1.15e-17)
(10.4 -6.05 1.16e-17)
(11.9 -6.94 0)
(12.8 -8.64 -5.84e-18)
(15.1 -10.5 0)
(15.1 -12.3 0)
(18.3 -15.2 0)
(15.7 -16.5 5.93e-18)
(0.0895 -0.313 -5.27e-18)
(0.288 -0.356 -1.32e-18)
(0.391 -0.409 1.33e-18)
(0.659 -0.463 5.33e-18)
(0.811 -0.574 -5.36e-18)
(1.2 -0.676 0)
(1.51 -0.882 -5.41e-18)
(2.1 -1.03 0)
(2.52 -1.34 -5.45e-18)
(3.27 -1.5 5.49e-18)
(3.71 -1.92 1.1e-17)
(4.51 -2.14 -8.17e-21)
(4.86 -2.74 -5.56e-18)
(5.67 -3.08 -5.58e-18)
(5.98 -3.88 5.61e-18)
(6.87 -4.32 -1.13e-17)
(7.21 -5.36 1.13e-17)
(8.24 -6.1 -5.7e-18)
(8.62 -7.5 0)
(9.88 -8.68 0)
(10.2 -10.5 1.16e-17)
(12.4 -12.2 0)
(12.4 -13.8 0)
(15.3 -16.9 -1.75e-17)
(15.6 -18.7 3.1e-20)
(0.083 -0.474 5.22e-18)
(0.232 -0.543 0)
(0.333 -0.597 -3.96e-18)
(0.541 -0.686 -1.32e-18)
(0.687 -0.828 2.66e-18)
(0.993 -0.974 -4.61e-21)
(1.3 -1.24 -2.69e-18)
(1.83 -1.45 0)
(2.3 -1.83 -5.4e-18)
(2.97 -2.06 1.09e-17)
(3.45 -2.53 -5.46e-18)
(4.08 -2.82 0)
(4.48 -3.48 -6.51e-21)
(5.04 -3.88 -5.53e-18)
(5.5 -4.78 0)
(6.04 -5.33 0)
(6.56 -6.46 0)
(7.13 -7.26 5.64e-18)
(7.65 -8.71 5.67e-18)
(8.55 -9.97 -1.14e-17)
(8.79 -11.9 -1.15e-20)
(10.8 -14.1 -2.3e-17)
(10.7 -15.9 5.8e-18)
(14.1 -20.6 1.16e-17)
(13.8 -20.4 5.76e-18)
(0.0601 -0.729 -5.19e-18)
(0.179 -0.8 -6.51e-18)
(0.243 -0.851 2.6e-18)
(0.392 -0.951 -3.95e-18)
(0.47 -1.11 -3.67e-21)
(0.715 -1.29 2.65e-18)
(0.947 -1.58 -2.66e-18)
(1.43 -1.84 2.67e-18)
(1.86 -2.23 5.37e-18)
(2.5 -2.54 0)
(2.88 -3.03 -8.12e-21)
(3.44 -3.42 -5.43e-18)
(3.66 -4.07 5.44e-18)
(4.13 -4.62 -1.1e-17)
(4.34 -5.45 2.57e-21)
(4.84 -6.23 -5.53e-18)
(4.99 -7.3 -5.55e-18)
(5.48 -8.33 1.12e-17)
(5.32 -9.86 -1.12e-17)
(6.07 -11.3 1.13e-17)
(5.35 -13.6 -5.67e-18)
(6.98 -16.1 -5.68e-18)
(5.32 -18.6 7.93e-21)
(8.68 -22.3 -5.75e-18)
(5.9 -24.5 -5.86e-18)
(0.0617 -1.11 5.77e-18)
(0.143 -1.2 4.51e-18)
(0.203 -1.27 -9.27e-21)
(0.263 -1.39 5.2e-18)
(0.314 -1.57 -5.23e-18)
(0.457 -1.74 -2.62e-18)
(0.667 -2.04 -7.92e-18)
(1.06 -2.29 0)
(1.5 -2.72 -1.06e-17)
(2.04 -3.05 1.07e-17)
(2.45 -3.59 -1.03e-20)
(2.85 -3.97 0)
(3.09 -4.66 1.08e-17)
(3.33 -5.13 1.08e-17)
(3.57 -6.02 -4.92e-21)
(3.78 -6.66 1.64e-17)
(3.93 -7.85 -5.5e-18)
(3.96 -8.72 1.66e-17)
(3.8 -10.3 5.54e-18)
(3.67 -11.6 -2.23e-17)
(2.91 -14 2.24e-17)
(3.12 -15.8 5.58e-18)
(1.07 -18.7 -5.68e-18)
(2.73 -21.3 0)
(-1 -24.6 5.86e-18)
(0.0424 -1.59 0)
(0.0747 -1.68 0)
(0.0884 -1.76 6.42e-18)
(0.0844 -1.91 -3.87e-18)
(0.0913 -2.08 7.78e-18)
(0.179 -2.25 0)
(0.315 -2.51 1.05e-17)
(0.642 -2.77 0)
(0.97 -3.14 0)
(1.47 -3.51 0)
(1.78 -4.01 -5.31e-18)
(2.13 -4.45 0)
(2.21 -5.03 -1.75e-21)
(2.4 -5.56 -1.08e-17)
(2.36 -6.26 5.39e-18)
(2.46 -7 -2.72e-21)
(2.26 -7.91 0)
(2.13 -8.88 1.71e-21)
(1.49 -10.1 0)
(0.979 -11.4 5.52e-18)
(-0.56 -13.2 0)
(-1.39 -15 0)
(-4.12 -17.6 0)
(-4.12 -20 1.13e-17)
(-8.93 -23.3 -1.77e-17)
(0.0115 -2.13 6.31e-19)
(-0.0177 -2.26 -6.34e-19)
(-0.00134 -2.39 -1.27e-18)
(-0.0608 -2.55 1.28e-18)
(-0.0479 -2.74 2.56e-18)
(-0.0146 -2.88 2.58e-18)
(0.0872 -3.11 -5.18e-18)
(0.335 -3.29 -5.2e-18)
(0.644 -3.64 5.21e-18)
(1 -3.94 -5.25e-18)
(1.3 -4.44 1.05e-17)
(1.58 -4.81 -5.29e-18)
(1.67 -5.37 5.3e-18)
(1.71 -5.77 -5.33e-18)
(1.65 -6.46 0)
(1.57 -6.95 -2.15e-17)
(1.35 -7.82 1.08e-17)
(0.95 -8.36 -5.42e-18)
(0.288 -9.4 0)
(-0.66 -9.96 -5.47e-18)
(-2.16 -11.3 0)
(-3.81 -12.2 -1.1e-17)
(-6.73 -14.4 2.22e-17)
(-9.28 -15.9 -1.13e-17)
(-14.5 -19.7 5.81e-18)
(-0.0542 -2.65 6.25e-19)
(-0.181 -2.8 4.39e-18)
(-0.195 -2.96 0)
(-0.275 -3.15 0)
(-0.236 -3.35 -5.09e-18)
(-0.202 -3.48 0)
(-0.121 -3.66 2.56e-18)
(0.0605 -3.81 2.58e-18)
(0.229 -4.08 0)
(0.515 -4.36 0)
(0.724 -4.74 0)
(0.979 -5.12 0)
(0.989 -5.54 0)
(0.961 -5.92 5.27e-18)
(0.752 -6.38 5.29e-18)
(0.585 -6.85 1.06e-17)
(0.175 -7.37 -5.35e-18)
(-0.342 -7.89 0)
(-1.21 -8.39 5.4e-18)
(-2.41 -8.84 0)
(-3.88 -9.26 -1.09e-17)
(-5.96 -9.43 1.64e-17)
(-8.92 -9.94 1.1e-17)
(-12 -10.1 -5.56e-18)
(-17.4 -12 1.15e-17)
(-0.119 -3.23 6.19e-19)
(-0.357 -3.36 -4.36e-18)
(-0.399 -3.52 -1.25e-18)
(-0.489 -3.71 0)
(-0.396 -3.9 0)
(-0.331 -4.03 -2.52e-18)
(-0.24 -4.16 2.54e-18)
(-0.114 -4.27 -5.1e-18)
(0.00134 -4.46 0)
(0.197 -4.66 0)
(0.368 -4.97 0)
(0.553 -5.22 -2.59e-18)
(0.615 -5.59 0)
(0.548 -5.79 0)
(0.378 -6.13 0)
(0.126 -6.29 1.32e-17)
(-0.228 -6.65 -2.65e-17)
(-0.751 -6.73 1.33e-17)
(-1.57 -6.96 -5.34e-18)
(-2.71 -6.82 2.69e-18)
(-4.16 -6.76 2.7e-18)
(-6.02 -6.26 -1.63e-17)
(-8.34 -5.72 1.36e-17)
(-11 -4.37 -5.47e-18)
(-15.2 -3.6 -8.35e-18)
(-0.162 -3.87 6.12e-19)
(-0.498 -3.94 1.84e-18)
(-0.591 -4.05 0)
(-0.702 -4.19 -2.48e-18)
(-0.581 -4.35 2.49e-18)
(-0.466 -4.45 2.51e-18)
(-0.353 -4.54 2.51e-18)
(-0.252 -4.57 2.58e-21)
(-0.213 -4.66 0)
(-0.108 -4.76 0)
(-0.0117 -4.98 -5.11e-18)
(0.162 -5.18 7.71e-18)
(0.204 -5.42 0)
(0.175 -5.56 0)
(-0.0469 -5.68 5.2e-18)
(-0.301 -5.73 -1.05e-17)
(-0.682 -5.77 0)
(-1.14 -5.74 8.07e-21)
(-1.85 -5.58 1.33e-17)
(-2.83 -5.23 -1.33e-17)
(-4.05 -4.68 1.04e-20)
(-5.63 -3.77 0)
(-7.35 -2.54 1.08e-17)
(-9.48 -0.579 -1.09e-17)
(-11.8 1.6 -2.73e-18)
(-0.166 -4.47 2.42e-18)
(-0.559 -4.5 -2.44e-18)
(-0.676 -4.53 2.44e-18)
(-0.82 -4.56 3.21e-21)
(-0.679 -4.62 -2.47e-18)
(-0.54 -4.66 2.48e-18)
(-0.365 -4.73 2.49e-18)
(-0.241 -4.72 2.5e-18)
(-0.22 -4.73 -5.02e-18)
(-0.213 -4.73 -2.52e-18)
(-0.187 -4.82 -5.06e-18)
(-0.0454 -4.9 5.09e-18)
(0.0768 -5.05 -2.55e-18)
(0.105 -5.06 2.57e-18)
(-0.0164 -5.07 -5.16e-18)
(-0.24 -4.89 -3.89e-21)
(-0.565 -4.73 -2.61e-18)
(-0.934 -4.42 8.47e-21)
(-1.5 -4.08 -2.62e-18)
(-2.24 -3.4 -2.65e-18)
(-3.19 -2.63 7.97e-18)
(-4.28 -1.37 -1.07e-17)
(-5.43 0.13 8.05e-18)
(-6.66 2.32 -1.08e-17)
(-7.7 4.91 0)
(-0.135 -4.98 -2.4e-18)
(-0.504 -4.94 -2.4e-18)
(-0.628 -4.86 -1.22e-18)
(-0.79 -4.76 6.08e-18)
(-0.688 -4.7 -2.45e-18)
(-0.575 -4.66 2.45e-18)
(-0.408 -4.67 -2.47e-18)
(-0.241 -4.66 7.43e-18)
(-0.223 -4.65 -4.97e-18)
(-0.235 -4.62 2.5e-18)
(-0.257 -4.59 5.02e-18)
(-0.166 -4.56 -2.52e-18)
(-0.0488 -4.57 5.06e-18)
(0.0698 -4.53 2.54e-18)
(0.0325 -4.42 5.11e-18)
(-0.0774 -4.19 7.71e-18)
(-0.331 -3.85 -7.74e-18)
(-0.625 -3.41 8.42e-21)
(-0.986 -2.86 0)
(-1.5 -2.12 5.24e-18)
(-2.11 -1.19 -1.05e-17)
(-2.8 0.122 -4.73e-23)
(-3.43 1.65 1.33e-17)
(-4.07 3.68 0)
(-4.38 6 1.08e-17)
(-0.0715 -5.21 5.93e-19)
(-0.35 -5.1 1.79e-18)
(-0.414 -4.95 -1.2e-18)
(-0.583 -4.73 -3.62e-18)
(-0.549 -4.57 2.42e-18)
(-0.505 -4.45 -4.86e-18)
(-0.372 -4.4 2.44e-18)
(-0.233 -4.38 0)
(-0.183 -4.39 -2.46e-18)
(-0.16 -4.32 0)
(-0.141 -4.24 0)
(-0.0588 -4.1 -2.5e-18)
(0.0619 -4 2.49e-21)
(0.221 -3.86 2.52e-18)
(0.31 -3.7 0)
(0.33 -3.39 -7.65e-18)
(0.239 -3 7.67e-18)
(0.0731 -2.42 8.4e-21)
(-0.187 -1.78 0)
(-0.488 -0.945 1.11e-20)
(-0.81 0.00753 0)
(-1.15 1.26 1.05e-17)
(-1.41 2.7 -1.05e-17)
(-1.57 4.46 -2.66e-18)
(-1.36 6.46 0)
(-0.00515 -5.11 2.92e-18)
(-0.164 -4.98 -5.89e-19)
(-0.141 -4.81 1.18e-18)
(-0.29 -4.55 -1.2e-18)
(-0.323 -4.34 2.39e-18)
(-0.362 -4.16 4.81e-18)
(-0.336 -4.06 2.41e-18)
(-0.254 -4.03 -7.28e-18)
(-0.178 -4.03 7.32e-18)
(-0.0802 -3.97 0)
(-0.0118 -3.86 4.93e-18)
(0.0963 -3.69 -7.43e-18)
(0.22 -3.51 4.93e-21)
(0.403 -3.31 -5e-18)
(0.557 -3.08 2.52e-18)
(0.693 -2.78 1.01e-17)
(0.76 -2.37 -7.61e-18)
(0.748 -1.83 7.68e-18)
(0.651 -1.16 -1.03e-17)
(0.528 -0.339 1.03e-20)
(0.408 0.583 1.04e-17)
(0.329 1.71 -2.09e-17)
(0.375 2.96 2.1e-17)
(0.555 4.45 5.27e-18)
(1.13 6.11 -2.12e-17)
(0.069 -4.74 -1.75e-18)
(0.0396 -4.62 5.84e-19)
(0.134 -4.45 -3.52e-18)
(0.0139 -4.22 0)
(-0.0575 -4.01 -2.38e-18)
(-0.165 -3.83 -7.7e-21)
(-0.231 -3.71 -1.34e-21)
(-0.212 -3.64 -4.81e-18)
(-0.134 -3.61 2.42e-18)
(0.0259 -3.53 0)
(0.179 -3.4 -2.45e-18)
(0.351 -3.22 2.45e-18)
(0.521 -3.02 -4.94e-18)
(0.736 -2.76 7.45e-18)
(0.95 -2.49 -7.48e-18)
(1.17 -2.16 7.54e-18)
(1.36 -1.77 -1.01e-17)
(1.5 -1.29 0)
(1.56 -0.673 0)
(1.6 0.0792 -2.56e-18)
(1.64 0.904 -1.03e-17)
(1.74 1.9 -1.03e-20)
(1.99 2.96 1.82e-17)
(2.45 4.19 -1.31e-17)
(3.24 5.52 0)
(0.124 -4.27 5.74e-19)
(0.207 -4.19 -5.77e-19)
(0.348 -4.08 -1.16e-18)
(0.256 -3.93 -1.17e-18)
(0.159 -3.77 -8.41e-21)
(0.00117 -3.62 0)
(-0.125 -3.48 2.37e-18)
(-0.151 -3.37 4.78e-18)
(-0.0633 -3.25 -2.39e-18)
(0.155 -3.13 -4.81e-18)
(0.355 -2.99 2.42e-18)
(0.579 -2.82 0)
(0.797 -2.6 2.45e-18)
(1.05 -2.34 -2.47e-18)
(1.32 -2.06 4.96e-18)
(1.59 -1.73 -4.98e-18)
(1.85 -1.33 0)
(2.11 -0.904 7.55e-18)
(2.32 -0.379 -1.01e-17)
(2.48 0.235 1.02e-17)
(2.65 0.911 -1.02e-17)
(2.91 1.71 0)
(3.32 2.59 -2.59e-18)
(3.96 3.58 0)
(4.89 4.62 0)
(0.146 -3.73 0)
(0.288 -3.68 -1.14e-18)
(0.443 -3.65 -2.3e-18)
(0.392 -3.58 1.15e-18)
(0.313 -3.5 -2.31e-21)
(0.174 -3.39 2.33e-18)
(0.0693 -3.25 0)
(0.0615 -3.08 0)
(0.154 -2.88 0)
(0.345 -2.72 0)
(0.568 -2.56 2.41e-18)
(0.852 -2.37 -4.84e-18)
(1.14 -2.14 4.86e-18)
(1.43 -1.87 7.34e-18)
(1.74 -1.57 2.47e-18)
(2.09 -1.24 2.48e-18)
(2.41 -0.833 -7.44e-18)
(2.7 -0.442 2.49e-18)
(2.96 -0.0014 -1e-17)
(3.22 0.481 -5.96e-21)
(3.51 1.01 1.01e-17)
(3.92 1.62 0)
(4.48 2.33 1.54e-17)
(5.26 3.11 -1.03e-17)
(6.28 3.93 0)
(0.145 -3.23 0)
(0.285 -3.23 0)
(0.433 -3.28 2.28e-18)
(0.421 -3.29 -1.15e-18)
(0.37 -3.27 2.3e-18)
(0.291 -3.21 -4.64e-18)
(0.248 -3.08 2.32e-18)
(0.295 -2.92 0)
(0.388 -2.7 0)
(0.57 -2.48 0)
(0.817 -2.25 -2.38e-18)
(1.13 -2.01 0)
(1.44 -1.78 -1.21e-18)
(1.79 -1.51 0)
(2.16 -1.19 -3.66e-18)
(2.54 -0.86 -7.37e-18)
(2.88 -0.49 7.4e-18)
(3.19 -0.147 0)
(3.48 0.234 -9.97e-18)
(3.78 0.632 1e-17)
(4.16 1.07 -1.26e-18)
(4.69 1.56 0)
(5.37 2.11 -2.54e-18)
(6.26 2.72 0)
(7.33 3.32 -1.28e-18)
(0.123 -2.98 5.61e-19)
(0.231 -3 -1.69e-18)
(0.354 -3.08 -1.13e-18)
(0.386 -3.14 -2.87e-21)
(0.398 -3.14 -3.43e-18)
(0.399 -3.08 1.14e-18)
(0.432 -2.94 2.31e-18)
(0.541 -2.74 -2.32e-18)
(0.702 -2.5 -4.68e-18)
(0.92 -2.22 -1.99e-20)
(1.17 -1.94 9.46e-18)
(1.46 -1.66 -4.75e-18)
(1.79 -1.39 1.2e-18)
(2.19 -1.1 4.82e-18)
(2.61 -0.772 1.22e-18)
(2.99 -0.468 -4.86e-18)
(3.33 -0.134 1.22e-18)
(3.65 0.158 0)
(3.96 0.474 1.23e-18)
(4.32 0.821 0)
(4.78 1.2 -8.73e-18)
(5.39 1.63 1e-17)
(6.15 2.09 1.26e-18)
(7.1 2.58 1.01e-17)
(8.2 3.05 -8.89e-18)
(0.0799 -3 0)
(0.132 -3.04 -1.12e-18)
(0.245 -3.11 0)
(0.33 -3.14 3.39e-18)
(0.428 -3.12 -2.27e-18)
(0.531 -3.01 1.14e-18)
(0.667 -2.83 0)
(0.85 -2.6 0)
(1.05 -2.33 -1.16e-18)
(1.29 -2.04 1.16e-18)
(1.55 -1.74 1.17e-18)
(1.84 -1.43 -4.72e-18)
(2.19 -1.13 -1.78e-20)
(2.61 -0.812 5.95e-18)
(3.02 -0.505 1.2e-18)
(3.37 -0.246 8.45e-18)
(3.71 0.0426 9.56e-21)
(4.02 0.281 -9.74e-18)
(4.35 0.553 -1.22e-17)
(4.78 0.849 1.97e-17)
(5.31 1.18 -1.85e-17)
(5.99 1.54 8.68e-18)
(6.81 1.93 -1.3e-21)
(7.8 2.33 0)
(8.89 2.72 1.01e-17)
(0.0556 -3.22 0)
(0.0936 -3.19 -3.41e-21)
(0.229 -3.18 6.85e-22)
(0.371 -3.12 -1.12e-18)
(0.553 -3.01 2.25e-18)
(0.757 -2.83 0)
(0.961 -2.61 -1.14e-18)
(1.18 -2.35 0)
(1.41 -2.08 -1.24e-21)
(1.66 -1.8 4.26e-23)
(1.94 -1.51 -9.07e-22)
(2.26 -1.2 0)
(2.62 -0.881 0)
(3.01 -0.569 -1.18e-18)
(3.39 -0.309 3.57e-18)
(3.72 -0.0947 -3.58e-18)
(4.04 0.129 -4.64e-21)
(4.37 0.319 0)
(4.74 0.563 1.21e-18)
(5.22 0.838 0)
(5.81 1.15 -1.22e-18)
(6.55 1.49 2.7e-21)
(7.42 1.84 8.65e-18)
(8.42 2.19 -9.93e-18)
(9.52 2.52 -1.25e-18)
(0.0729 -3.44 5.52e-19)
(0.151 -3.37 -1.11e-18)
(0.34 -3.26 0)
(0.547 -3.08 2.23e-18)
(0.793 -2.88 -1.12e-18)
(1.04 -2.65 0)
(1.28 -2.4 1.13e-18)
(1.52 -2.15 -3.97e-18)
(1.75 -1.88 5.7e-18)
(2.02 -1.62 -5.72e-19)
(2.32 -1.34 -1.15e-18)
(2.66 -1.05 5.79e-19)