/*--------------------------------*- C++ -*----------------------------------*\
| =========                 |                                                 |
| \\      /  F ield         | OpenFOAM: The Open Source CFD Toolbox           |
|  \\    /   O peration     | Version:  2212                                  |
|   \\  /    A nd           | Website:  www.openfoam.com                      |
|    \\/     M anipulation  |                                                 |
\*---------------------------------------------------------------------------*/
FoamFile
{
    version     2.0;
    format      ascii;
    arch        "LSB;label=32;scalar=64";
    class       surfaceScalarField;
    location    "0.0029";
    object      phi;
}
// * * * * * * * * * * * * * * * * * * * * * * * * * * * * * * * * * * * * * //

dimensions      [1 0 -1 0 0 0 0];

oriented        oriented;

internalField   nonuniform List<scalar> 
4475
(
-4.14547e-07
4.17053e-07
-5.29625e-07
5.34856e-07
-6.42185e-08
4.16846e-07
-6.46795e-09
-3.3719e-07
-1.15194e-06
1.31197e-06
-3.98847e-08
-1.17238e-07
1.57088e-07
-4.25701e-07
-1.17754e-07
3.9782e-07
3.57673e-07
-3.2491e-07
-3.41698e-07
3.1564e-07
-2.97814e-07
2.51109e-07
3.34895e-07
-2.81964e-07
7.91329e-08
-6.68972e-08
-4.47812e-07
4.43881e-07
2.91782e-07
3.61737e-07
-3.35407e-07
-3.11657e-07
-3.3527e-07
3.76832e-07
3.22755e-07
2.64473e-07
2.60938e-09
-2.9469e-08
-2.28643e-07
4.31704e-08
-3.69536e-08
2.68693e-07
3.08049e-07
-4.46231e-08
2.57198e-08
-2.783e-07
3.23777e-07
-1.53191e-08
1.04626e-08
3.37402e-07
-8.48186e-09
5.35245e-09
3.48136e-07
-5.7242e-09
4.98375e-09
3.54928e-07
-4.09172e-09
6.66848e-09
-4.39139e-09
3.49204e-07
1.86701e-08
-3.43075e-07
2.7857e-08
3.40577e-07
-1.81235e-08
-3.55398e-07
1.61733e-08
-3.48479e-07
-1.50613e-09
-3.37364e-07
-6.59666e-09
-3.24607e-07
-1.04248e-08
-3.12801e-07
-1.56451e-08
-3.26356e-07
-1.85051e-08
-2.75679e-07
4.73698e-09
-2.50459e-07
-1.24236e-08
-3.03176e-07
-4.02599e-08
1.0375e-07
-2.75703e-07
-2.62053e-09
-1.32862e-08
-4.58277e-07
4.65745e-07
8.13272e-08
3.4806e-07
3.6854e-08
-2.61204e-07
-1.04038e-09
-3.19667e-09
-2.49459e-07
-6.65529e-10
-1.44957e-09
-2.39115e-07
-2.71372e-10
-7.03705e-10
-2.28749e-07
-6.48834e-10
-4.67811e-10
-2.18975e-07
8.93185e-11
-6.35703e-10
-2.08827e-07
-2.11357e-10
-6.98333e-10
-1.98831e-07
-7.98322e-11
-6.56971e-10
-1.88951e-07
2.15921e-10
-8.52633e-10
-1.79235e-07
4.02299e-10
-9.46701e-10
-1.69508e-07
1.57035e-10
-8.67921e-10
-1.60171e-07
3.02219e-10
-8.12876e-10
-1.50853e-07
2.65793e-10
-8.61541e-10
-1.41278e-07
2.80271e-10
-8.0686e-10
-1.30846e-07
7.59626e-10
-4.21031e-10
1.75941e-09
-1.16626e-07
8.46511e-10
1.30123e-07
-1.14621e-07
5.02739e-09
1.41099e-07
1.41769e-09
1.50288e-07
4.80458e-10
1.59724e-07
-3.53093e-10
1.69064e-07
-2.20996e-10
1.78417e-07
-1.98484e-10
1.87707e-07
2.61453e-10
1.98358e-07
-1.21e-09
2.08042e-07
-5.16445e-10
2.17624e-07
-5.70011e-10
2.28373e-07
-1.4434e-09
2.38285e-07
-1.33946e-09
2.48996e-07
-1.64253e-09
2.59969e-07
-2.05765e-09
2.74597e-07
-5.49937e-09
3.00478e-07
-1.71822e-08
2.44986e-07
-5.50424e-08
1.2081e-07
2.66941e-07
-4.20248e-08
2.67718e-07
-2.85001e-08
2.82423e-07
-1.13016e-08
5.45426e-09
3.1114e-07
6.61253e-09
3.26018e-07
5.95939e-09
3.38779e-07
2.89085e-09
3.48984e-07
4.69742e-09
3.53463e-07
1.15865e-08
3.59141e-07
2.18947e-08
2.87259e-09
3.14477e-09
-8.63076e-08
1.34545e-08
-8.49299e-08
-3.57024e-07
3.34722e-08
3.49264e-07
-3.49377e-07
9.42976e-10
-3.3866e-07
-6.71665e-09
-3.26248e-07
-1.17339e-08
-3.17208e-07
-1.30799e-08
-3.10851e-07
-1.2929e-08
-2.8705e-07
-7.34917e-09
-2.75273e-07
-1.29566e-08
-2.83812e-07
-2.08753e-08
-2.73443e-07
-1.30523e-08
-2.60451e-07
-6.1694e-09
-2.49172e-07
-3.1165e-09
-2.38641e-07
-1.89558e-09
-2.28645e-07
-1.20096e-09
-2.18674e-07
-1.38187e-09
-2.08461e-07
-1.67229e-09
-1.98683e-07
-1.17995e-09
-1.88738e-07
-1.54774e-09
-1.78928e-07
-1.58135e-09
-1.69231e-07
-1.53964e-09
-1.59985e-07
-1.20745e-09
-1.50681e-07
-1.31343e-09
-1.41134e-07
-8.26255e-10
-1.30161e-07
7.13101e-10
-1.1455e-07
4.64408e-09
4.07238e-08
3.48524e-07
-4.14709e-08
1.42514e-08
-8.39958e-08
7.16186e-08
3.24202e-07
3.58739e-07
4.56732e-08
1.06015e-07
-6.62501e-08
3.58665e-08
1.26307e-07
1.31873e-08
1.38718e-07
4.48695e-09
1.49363e-07
7.09479e-10
1.58578e-07
-3.01197e-10
1.67793e-07
-5.01984e-10
1.77293e-07
-7.30626e-10
1.87693e-07
-1.04188e-09
1.9684e-07
-1.16986e-09
2.06608e-07
-1.07896e-09
2.17138e-07
-1.89138e-09
2.27007e-07
-2.11515e-09
2.37198e-07
-2.32417e-09
2.47647e-07
-2.82534e-09
2.594e-07
-4.31257e-09
2.71945e-07
-8.22153e-09
2.82471e-07
-1.75534e-08
2.69205e-07
-3.16362e-08
2.69217e-07
-3.19346e-08
2.7797e-07
-2.73228e-08
2.90995e-07
-1.43508e-08
3.10705e-07
-2.97471e-09
3.27327e-07
-3.474e-10
3.40451e-07
-1.07947e-11
3.5273e-07
2.40146e-09
3.61555e-07
1.23849e-08
3.66197e-07
2.65085e-08
3.60058e-07
-4.89961e-07
4.29611e-07
-2.08694e-07
3.71394e-07
1.42135e-07
-2.99786e-07
2.47418e-07
2.09246e-07
-2.66668e-07
-1.85112e-07
-2.54251e-07
-4.11473e-07
-3.15571e-08
6.66748e-08
3.8731e-07
-3.66764e-07
8.03941e-11
-3.53518e-07
-1.53313e-09
-3.40199e-07
-9.06829e-09
-3.28647e-07
-1.19473e-08
-3.17654e-07
-1.2407e-08
-3.07274e-07
-1.14584e-08
-2.92891e-07
-1.00488e-08
-2.82028e-07
-1.24749e-08
-2.77729e-07
-1.43821e-08
-2.69396e-07
-1.10453e-08
-2.58835e-07
-6.85559e-09
-2.48264e-07
-4.15493e-09
-2.38222e-07
-2.61476e-09
-2.27807e-07
-2.38202e-09
-2.17872e-07
-2.10621e-09
-2.08137e-07
-2.17536e-09
-1.97832e-07
-2.2395e-09
-1.87909e-07
-2.24132e-09
-1.781e-07
-2.24187e-09
-1.68897e-07
-1.71401e-09
-1.59291e-07
-1.83375e-09
-1.49609e-07
-1.5981e-09
-1.39318e-07
1.84518e-10
-1.26313e-07
3.9709e-09
-1.05277e-07
1.37324e-08
-6.35721e-08
3.7793e-08
-3.43804e-08
3.01909e-08
8.85649e-08
-7.87056e-09
-8.1143e-09
5.8534e-09
-7.39586e-09
3.14607e-08
-1.06358e-08
3.27801e-07
-3.15012e-07
3.56197e-07
2.78383e-08
8.32485e-08
4.04464e-07
4.22209e-07
-4.5663e-07
3.13159e-07
-5.39935e-07
-2.58121e-07
4.92961e-07
8.95077e-08
3.48679e-07
-3.82321e-07
3.01475e-07
-4.20622e-07
5.0865e-07
-3.36261e-07
-3.22836e-07
3.41424e-07
4.45315e-07
3.77108e-09
-9.21197e-08
3.74773e-07
4.60853e-08
-7.04073e-08
1.85182e-07
2.13984e-07
-1.53586e-08
1.60806e-07
1.0575e-08
1.72596e-07
6.41414e-08
1.56613e-07
1.74585e-07
2.05734e-07
-1.16584e-07
3.91498e-07
3.71789e-07
1.44976e-08
1.82786e-07
8.29423e-08
8.15998e-08
1.16147e-07
3.26023e-08
1.35017e-07
1.09629e-08
1.4715e-07
2.98586e-09
1.57168e-07
2.86451e-10
1.66332e-07
-4.38986e-10
1.75755e-07
-1.19284e-09
1.85557e-07
-1.82695e-09
1.95393e-07
-1.90052e-09
2.05534e-07
-2.05915e-09
2.1529e-07
-2.47779e-09
2.25335e-07
-3.00282e-09
2.35495e-07
-3.33293e-09
2.45672e-07
-3.81929e-09
2.56671e-07
-5.97846e-09
2.66895e-07
-8.83532e-09
2.74108e-07
-1.48211e-08
2.74395e-07
-2.17486e-08
2.78776e-07
-2.59497e-08
2.83262e-07
-2.13467e-08
2.95567e-07
-1.62524e-08
3.12071e-07
-9.03e-09
3.27067e-07
-4.93555e-09
3.41873e-07
-4.45325e-09
3.55362e-07
-8.96732e-10
3.68946e-07
8.7036e-09
2.58249e-08
3.79211e-07
-3.14797e-08
2.77717e-08
4.13126e-07
-4.00247e-07
-4.77335e-07
5.99044e-07
-5.29484e-07
4.14228e-07
-3.27964e-07
3.18752e-07
-3.25754e-07
-4.1627e-07
-3.36245e-09
-6.29765e-08
-4.3624e-07
-5.62921e-08
8.34128e-08
-4.35436e-07
-5.95155e-08
-4.22444e-07
-4.88747e-08
4.48381e-08
-4.07513e-07
-3.69011e-08
-3.97875e-07
-3.01334e-08
3.05162e-08
-3.94803e-07
-2.40628e-08
-3.72151e-07
-1.16861e-08
-3.55497e-07
-7.1905e-09
-3.42069e-07
-1.12787e-08
-3.30232e-07
-1.22652e-08
-3.18195e-07
-1.26642e-08
-3.07045e-07
-1.07388e-08
-2.94209e-07
-1.11901e-08
-2.83826e-07
-1.15842e-08
-2.75845e-07
-1.16049e-08
-2.66913e-07
-9.71672e-09
-2.56692e-07
-7.26942e-09
-2.46312e-07
-5.06389e-09
-2.36672e-07
-2.9507e-09
-2.26277e-07
-3.54369e-09
-2.16576e-07
-2.61153e-09
-2.06502e-07
-3.05482e-09
-1.9657e-07
-2.98122e-09
-1.86636e-07
-3.00662e-09
-1.77558e-07
-2.20587e-09
-1.67764e-07
-2.4119e-09
-1.57917e-07
-2.3066e-09
-1.47889e-07
-7.52554e-10
-1.35335e-07
2.87008e-09
-1.15747e-07
1.14528e-08
-8.03771e-08
3.44363e-08
-9.01242e-09
8.69569e-08
1.25479e-07
1.93571e-07
4.10357e-07
3.87372e-07
-1.86158e-07
-1.27531e-06
1.03352e-06
4.29349e-07
4.12668e-07
-3.81575e-07
7.45963e-07
-7.5245e-07
-2.18354e-07
2.30704e-07
2.14834e-08
-3.75294e-07
-2.86578e-08
3.93562e-07
1.27586e-06
2.89272e-07
-5.60735e-07
-1.001e-06
3.98941e-07
3.45025e-07
8.31623e-08
3.89974e-07
4.00695e-07
4.45873e-08
-4.08815e-07
-3.31084e-07
7.73208e-07
7.72411e-07
-9.65548e-08
3.66171e-07
2.88214e-08
1.64204e-07
9.38168e-08
7.02493e-08
1.25736e-07
2.629e-08
1.43315e-07
8.24806e-09
1.55243e-07
1.74466e-09
1.65399e-07
-4.31975e-10
1.75112e-07
-1.7123e-09
1.84382e-07
-2.05786e-09
1.94006e-07
-2.4475e-09
2.03874e-07
-2.80055e-09
2.13465e-07
-2.93498e-09
2.23669e-07
-4.07802e-09
2.33709e-07
-4.23568e-09
2.44266e-07
-5.18162e-09
2.53829e-07
-6.26408e-09
2.633e-07
-8.78734e-09
2.70804e-07
-1.2355e-08
2.75969e-07
-1.6664e-08
2.81222e-07
-2.06835e-08
2.87511e-07
-1.69932e-08
2.99264e-07
-1.73196e-08
3.14136e-07
-1.31673e-08
3.288e-07
-8.91785e-09
3.4347e-07
-8.61451e-09
3.58003e-07
-5.10751e-09
3.71904e-07
4.87453e-09
3.9018e-07
1.74741e-08
4.24055e-08
3.92346e-07
3.68738e-07
3.36056e-07
-3.97094e-07
2.20145e-07
5.24678e-07
-5.16328e-07
-2.19476e-07
-4.43854e-07
-3.92438e-08
4.88098e-07
-4.42563e-07
-4.93743e-08
-4.36587e-07
-5.68366e-08
-4.23779e-07
-5.24924e-08
-4.1101e-07
-3.99849e-08
-3.99764e-07
-3.12403e-08
-3.89116e-07
-2.41687e-08
-3.73049e-07
-1.69031e-08
-3.56126e-07
-1.30351e-08
-3.43578e-07
-1.2479e-08
-3.30377e-07
-1.3829e-08
-3.18829e-07
-1.23603e-08
-3.06627e-07
-1.10398e-08
-2.94758e-07
-1.13705e-08
-2.84056e-07
-1.10206e-08
-2.74416e-07
-1.05052e-08
-2.64881e-07
-9.03516e-09
-2.5539e-07
-6.96501e-09
-2.4582e-07
-5.10416e-09
-2.35102e-07
-4.30844e-09
-2.25439e-07
-3.9355e-09
-2.14898e-07
-3.94624e-09
-2.04961e-07
-3.83527e-09
-1.95058e-07
-3.76108e-09
-1.86125e-07
-2.83076e-09
-1.76253e-07
-2.95422e-09
-1.66309e-07
-3.02162e-09
-1.5644e-07
-1.70299e-09
-1.44307e-07
1.43458e-09
-1.25316e-07
8.39149e-09
-9.11291e-08
2.79829e-08
-2.27186e-08
7.5667e-08
1.07439e-07
1.75436e-07
3.51121e-07
3.87098e-07
8.03635e-07
8.09499e-07
-8.14795e-07
1.57607e-06
1.58724e-06
-3.64366e-07
9.0178e-07
-1.32275e-07
6.35313e-07
-2.48974e-08
5.71189e-07
1.48337e-08
6.22216e-07
1.20698e-07
5.6142e-07
3.4852e-07
6.19089e-07
7.87657e-07
8.75303e-07
1.54724e-06
1.52402e-06
7.88921e-07
2.39748e-07
-2.77643e-07
-2.09667e-08
-1.64622e-08
1.16698e-06
-1.12584e-06
2.48958e-07
-1.52386e-07
1.30581e-07
-2.26901e-07
4.93738e-07
3.26541e-07
-4.67194e-07
-4.85418e-07
5.45929e-07
1.40119e-07
-2.18996e-07
-4.13973e-07
4.03468e-07
3.88289e-08
6.83396e-08
4.16381e-07
3.34908e-07
3.6864e-07
-3.29077e-07
3.98422e-07
2.84769e-07
-1.82382e-07
5.50509e-07
-3.25367e-07
3.94518e-07
-6.13325e-07
-3.09515e-07
-3.47452e-07
-4.52724e-07
4.63176e-07
-4.18908e-08
-4.38699e-07
-5.49995e-08
-4.31457e-07
-5.52257e-08
-4.21761e-07
-5.28359e-08
-4.10502e-07
-4.14163e-08
-3.98877e-07
-3.26147e-08
-3.86284e-07
-2.61509e-08
-3.71976e-07
-2.02962e-08
-3.57308e-07
-1.65114e-08
-3.43564e-07
-1.47513e-08
-3.31428e-07
-1.42263e-08
-3.18873e-07
-1.2988e-08
-3.06392e-07
-1.15905e-08
-2.94717e-07
-1.13499e-08
-2.83665e-07
-1.08037e-08
-2.73409e-07
-9.99801e-09
-2.63596e-07
-8.5864e-09
-2.53891e-07
-6.81261e-09
-2.43534e-07
-5.88184e-09
-2.33249e-07
-5.19326e-09
-2.2313e-07
-4.76946e-09
-2.13299e-07
-4.57492e-09
-2.03378e-07
-4.62443e-09
-1.94459e-07
-3.58971e-09
-1.84696e-07
-3.49948e-09
-1.74525e-07
-3.87527e-09
-1.64975e-07
-2.51641e-09
-1.53433e-07
-2.24131e-10
-1.35708e-07
5.06732e-09
-1.03804e-07
2.03086e-08
-3.86675e-08
5.97654e-08
9.02964e-08
1.4486e-07
3.32776e-07
3.291e-07
7.96333e-07
7.12529e-07
1.60691e-06
1.44661e-06
2.90274e-06
2.72224e-06
-2.83791e-06
4.73296e-06
4.78254e-06
-1.49144e-06
2.86652e-06
-6.51353e-07
1.87943e-06
-2.20556e-07
1.57548e-06
-3.52147e-08
1.54162e-06
1.29554e-08
1.67368e-06
1.98008e-07
1.51872e-06
6.26516e-07
1.53838e-06
1.45249e-06
1.83337e-06
2.77231e-06
2.81089e-06
-2.82373e-06
4.68816e-06
4.61706e-06
-1.54745e-06
2.62901e-06
-7.56388e-07
1.38023e-06
-3.08992e-07
6.73502e-07
-7.752e-08
3.07347e-07
4.50418e-08
1.34476e-07
1.06114e-07
5.51573e-08
1.3578e-07
1.90564e-08
1.52013e-07
5.31102e-09
1.63944e-07
-2.99959e-11
1.73825e-07
-1.77705e-09
1.83372e-07
-2.42626e-09
1.92749e-07
-2.73681e-09
2.02607e-07
-3.54562e-09
2.12421e-07
-3.61065e-09
2.22041e-07
-4.5559e-09
2.3186e-07
-4.92652e-09
2.41873e-07
-5.99043e-09
2.51722e-07
-6.77615e-09
2.61023e-07
-8.55494e-09
2.69357e-07
-1.09052e-08
2.76755e-07
-1.3778e-08
2.84662e-07
-1.78735e-08
2.92803e-07
-1.41115e-08
3.04385e-07
-1.78916e-08
3.16545e-07
-1.42304e-08
3.30481e-07
-1.17304e-08
3.44851e-07
-1.20751e-08
3.60006e-07
-9.62515e-09
3.78228e-07
-2.87224e-09
1.21914e-08
3.938e-07
3.81404e-07
3.54148e-07
-3.93144e-07
5.9852e-08
4.21178e-07
4.77961e-07
6.86558e-08
-1.20761e-07
1.9069e-08
3.35318e-07
4.03905e-07
-4.4779e-07
4.20584e-07
3.18933e-07
-4.22221e-07
3.08416e-07
2.97802e-07
-3.6804e-07
4.68459e-07
2.56218e-07
-4.94262e-07
-3.32623e-08
-3.55183e-08
-4.72117e-07
-2.81472e-08
4.74398e-07
-4.50382e-07
-5.54021e-08
-4.36178e-07
-6.05547e-08
-4.25025e-07
-5.73178e-08
-4.17689e-07
-5.06763e-08
-4.07388e-07
-4.17589e-08
-3.96569e-07
-3.30627e-08
-3.83333e-07
-2.86807e-08
-3.70114e-07
-2.25073e-08
-3.56526e-07
-1.88069e-08
-3.43318e-07
-1.63909e-08
-3.31021e-07
-1.47044e-08
-3.18397e-07
-1.36433e-08
-3.05918e-07
-1.21248e-08
-2.94009e-07
-1.15628e-08
-2.82841e-07
-1.06813e-08
-2.7241e-07
-9.63363e-09
-2.61955e-07
-8.73028e-09
-2.5192e-07
-6.93234e-09
-2.41705e-07
-6.44957e-09
-2.31577e-07
-5.85625e-09
-2.21627e-07
-5.39059e-09
-2.11929e-07
-5.05334e-09
-2.02692e-07
-4.72248e-09
-1.93007e-07
-4.18376e-09
-1.8289e-07
-4.46294e-09
-1.73716e-07
-3.36734e-09
-1.62805e-07
-1.6911e-09
-1.46692e-07
1.89251e-09
-1.18553e-07
1.26555e-08
-6.04316e-08
4.2312e-08
6.08945e-08
1.09678e-07
2.88615e-07
2.55018e-07
7.44832e-07
5.71627e-07
1.57173e-06
1.20379e-06
2.95077e-06
2.3452e-06
5.01157e-06
4.23117e-06
7.7391e-06
7.00409e-06
-7.54785e-06
1.08672e-05
1.05823e-05
-4.68675e-06
7.271e-06
-2.47761e-06
4.86404e-06
-1.0339e-06
3.69289e-06
-2.86512e-07
3.51082e-06
-2.16463e-08
3.62088e-06
-2.85055e-08
3.89921e-06
2.50023e-07
3.55804e-06
9.98897e-07
3.43074e-06
2.43457e-06
3.60413e-06
4.62348e-06
4.76359e-06
7.44048e-06
7.15273e-06
-7.56151e-06
1.06773e-05
1.04231e-05
-4.86418e-06
6.82727e-06
-2.83655e-06
4.07521e-06
-1.49395e-06
2.23357e-06
-6.94577e-07
1.13054e-06
-2.61916e-07
5.31824e-07
-4.91754e-08
2.35122e-07
6.65903e-08
1.0072e-07
1.20645e-07
3.84502e-08
1.46825e-07
1.19031e-08
1.6139e-07
2.22229e-09
1.7251e-07
-1.66765e-09
1.82364e-07
-2.73129e-09
1.92021e-07
-3.23186e-09
2.01442e-07
-3.84675e-09
2.11245e-07
-4.26669e-09
2.20695e-07
-4.82422e-09
2.30863e-07
-5.89923e-09
2.40432e-07
-6.3245e-09
2.5021e-07
-7.18001e-09
2.59703e-07
-8.45155e-09
2.68846e-07
-1.01183e-08
2.77725e-07
-1.23935e-08
2.85562e-07
-1.51465e-08
2.96797e-07
-1.44601e-08
3.06873e-07
-1.68579e-08
3.19341e-07
-1.54388e-08
3.31846e-07
-1.2964e-08
3.45407e-07
-1.45667e-08
3.60107e-07
-1.33799e-08
3.76515e-07
-8.45041e-09
2.94678e-09
3.96359e-07
4.09538e-07
3.30092e-08
3.66008e-07
3.90131e-07
3.66817e-07
4.02037e-07
-4.08283e-07
-1.29492e-07
-5.41555e-07
5.26663e-07
1.44675e-07
4.21506e-07
5.7336e-08
4.35127e-07
2.25368e-07
-1.27979e-07
4.557e-07
2.84411e-07
4.49127e-07
3.2233e-07
1.17993e-08
1.37756e-07
3.35214e-07
1.61607e-07
3.72232e-07
-2.96466e-08
4.33442e-07
6.51595e-08
3.49519e-07
4.12304e-07
4.15561e-07
3.59627e-07
-1.09802e-05
1.45472e-05
1.397e-05
-7.04498e-06
1.03293e-05
-3.68142e-06
7.85967e-06
-1.36526e-06
6.85148e-06
-2.54948e-07
7.1441e-06
7.91518e-08
7.44634e-06
-1.61662e-07
7.997e-06
2.05049e-07
7.32763e-06
1.33977e-06
6.9812e-06
3.66884e-06
6.66528e-06
7.01516e-06
7.67188e-06
1.09239e-05
1.01628e-05
1.44407e-05
1.38219e-05
-1.48158e-05
1.65891e-05
1.77428e-05
-1.12183e-05
1.27726e-05
-7.67317e-06
8.95684e-06
-4.72818e-06
5.65965e-06
-2.63818e-06
3.26532e-06
-1.3219e-06
1.72374e-06
-5.76232e-07
8.39964e-07
-1.91925e-07
3.82584e-07
-6.74678e-09
1.64186e-07
9.16552e-08
6.83261e-08
1.3604e-07
2.34307e-08
1.57826e-07
5.77551e-09
1.70757e-07
-5.07211e-10
1.81304e-07
-2.90766e-09
1.91079e-07
-3.64957e-09
2.00458e-07
-4.06901e-09
2.10213e-07
-4.84607e-09
2.20017e-07
-5.38615e-09
2.2943e-07
-6.01255e-09
2.39364e-07
-6.91634e-09
2.49166e-07
-7.56189e-09
2.58872e-07
-8.50605e-09
2.68498e-07
-9.74225e-09
2.77906e-07
-1.14437e-08
2.86947e-07
-1.347e-08
2.9631e-07
-1.28048e-08
3.09021e-07
-1.84971e-08
3.19363e-07
-1.45995e-08
3.33305e-07
-1.57222e-08
3.45138e-07
-1.52306e-08
3.58671e-07
-1.58638e-08
3.75268e-07
-1.40562e-08
-8.60507e-09
3.97838e-07
2.4749e-08
4.14977e-07
-3.39015e-07
2.97564e-07
3.66764e-07
3.44557e-07
4.31307e-07
-3.41917e-07
1.08218e-07
-1.23165e-07
3.67183e-07
-1.25966e-06
8.36359e-08
1.24131e-06
-6.21897e-08
-4.40595e-07
-6.8136e-08
4.62135e-07
-4.29197e-07
-6.29986e-08
-4.20701e-07
-5.6539e-08
-4.12649e-07
-4.90523e-08
-4.02665e-07
-4.1651e-08
-3.92027e-07
-3.32206e-08
-3.80004e-07
-2.9908e-08
-3.67604e-07
-2.38031e-08
-3.54896e-07
-2.01353e-08
-3.42227e-07
-1.74197e-08
-3.29674e-07
-1.53951e-08
-3.17572e-07
-1.37543e-08
-3.05208e-07
-1.25304e-08
-2.93335e-07
-1.17201e-08
-2.81953e-07
-1.07365e-08
-2.7112e-07
-9.63202e-09
-2.61063e-07
-8.40989e-09
-2.50404e-07
-7.58844e-09
-2.40193e-07
-6.9268e-09
-2.30152e-07
-6.3546e-09
-2.20298e-07
-5.86126e-09
-2.10679e-07
-5.43448e-09
-2.01257e-07
-5.01464e-09
-1.91737e-07
-4.58354e-09
-1.82577e-07
-4.20288e-09
-1.71711e-07
-3.54287e-09
-1.57771e-07
-5.97964e-10
-1.34292e-07
6.11427e-09
-8.60846e-08
2.61515e-08
2.33584e-08
7.52865e-08
2.1867e-07
1.80613e-07
6.30873e-07
4.16037e-07
1.41368e-06
9.10348e-07
2.78095e-06
1.83999e-06
4.93396e-06
3.42979e-06
7.93575e-06
5.87437e-06
1.14865e-05
9.20041e-06
1.50277e-05
1.29743e-05
1.78678e-05
1.66829e-05
3.73997e-07
4.25971e-07
-4.26801e-07
3.95733e-07
4.02682e-07
-1.09214e-06
2.71817e-08
-9.04344e-08
1.15716e-06
3.7347e-07
7.91698e-08
3.04718e-07
4.22812e-07
7.27901e-08
-1.86436e-05
2.08309e-05
1.67537e-05
-1.51548e-05
1.38917e-05
-1.10175e-05
1.04085e-05
-7.19538e-06
7.04301e-06
-4.22357e-06
4.27873e-06
-2.24306e-06
2.37752e-06
-1.06185e-06
1.20576e-06
-4.25221e-07
5.66606e-07
-1.12883e-07
2.49682e-07
4.15592e-08
1.05212e-07
1.16731e-07
4.04296e-08
1.50877e-07
1.17517e-08
1.68492e-07
1.15241e-09
1.80063e-07
-2.50504e-09
1.90196e-07
-3.99321e-09
1.9993e-07
-4.5317e-09
2.09381e-07
-5.06644e-09
2.19031e-07
-5.73472e-09
2.28827e-07
-6.41499e-09
2.3851e-07
-7.11828e-09
2.48442e-07
-7.90173e-09
2.58333e-07
-8.63244e-09
2.6823e-07
-9.58347e-09
2.78036e-07
-1.07855e-08
2.87726e-07
-1.23193e-08
2.99803e-07
-1.37007e-08
3.08488e-07
-1.59625e-08
3.19353e-07
-1.41998e-08
3.31646e-07
-1.68499e-08
3.44252e-07
-1.66788e-08
3.56276e-07
-1.67857e-08
3.71269e-07
-1.78787e-08
3.94417e-07
-2.03172e-08
1.06846e-08
4.22939e-07
-3.31096e-07
2.77529e-07
-2.78874e-07
4.56317e-07
3.05976e-07
-1.82405e-05
1.9608e-05
1.96654e-05
-1.44951e-05
1.67744e-05
-9.50088e-06
1.39128e-05
-4.76729e-06
1.21438e-05
-1.42553e-06
1.18782e-05
8.72816e-09
1.29345e-05
2.44708e-07
1.33477e-05
-3.96356e-07
1.41074e-05
-1.06204e-07
1.31759e-05
1.4164e-06
1.26259e-05
4.82224e-06
1.15123e-05
9.51571e-06
1.18652e-05
1.44832e-05
1.36839e-05
1.82458e-05
1.66382e-05
1.96569e-05
1.96414e-05
1.83817e-05
2.15723e-05
-4.1384e-07
3.05154e-07
4.12882e-07
-4.82911e-07
3.64666e-07
-4.72514e-07
3.1954e-07
-4.58081e-07
2.77778e-07
2.44182e-07
3.15053e-07
-2.89557e-07
-3.28093e-07
1.48857e-07
4.79603e-07
3.46596e-07
-3.23499e-07
-6.56503e-09
-1.18608e-08
1.49437e-07
3.71969e-07
-3.5317e-07
-4.2498e-07
-6.53847e-08
4.31191e-07
-4.19645e-07
-5.92424e-08
-4.13609e-07
-5.31542e-08
-4.05993e-07
-4.68502e-08
-3.97462e-07
-3.9965e-08
-3.86199e-07
-3.39054e-08
-3.76327e-07
-2.8897e-08
-3.64669e-07
-2.4275e-08
-3.52709e-07
-2.06569e-08
-3.40597e-07
-1.78516e-08
-3.28418e-07
-1.56851e-08
-3.16176e-07
-1.39914e-08
-3.04126e-07
-1.26138e-08
-2.92423e-07
-1.1686e-08
-2.8121e-07
-1.05888e-08
-2.70296e-07
-9.65016e-09
-2.59564e-07
-8.7008e-09
-2.49142e-07
-7.93134e-09
-2.38962e-07
-7.28762e-09
-2.28971e-07
-6.72519e-09
-2.1917e-07
-6.22257e-09
-2.09572e-07
-5.76694e-09
-2.00113e-07
-5.32507e-09
-1.90601e-07
-4.86558e-09
-1.80614e-07
-4.26005e-09
-1.6869e-07
-2.88587e-09
-1.49628e-07
1.36512e-09
-1.12312e-07
1.3316e-08
-2.98151e-08
4.54349e-08
1.36549e-07
1.16584e-07
4.76877e-07
2.7456e-07
1.15453e-06
6.22655e-07
2.40408e-06
1.30383e-06
4.48051e-06
2.52868e-06
7.53537e-06
4.50125e-06
1.13821e-05
7.32044e-06
1.54762e-05
1.06739e-05
1.88913e-05
1.40285e-05
2.09334e-05
1.67761e-05
2.14735e-05
1.83057e-05
-7.81975e-08
-1.067e-06
5.47138e-08
6.35406e-08
4.18603e-07
2.76496e-07
-1.52058e-07
3.74602e-07
4.60102e-07
-4.54523e-07
3.71328e-07
4.61882e-07
4.03175e-07
4.31687e-07
1.15533e-06
8.38237e-08
-1.21008e-06
-1.19669e-06
-1.06711e-07
1.11917e-06
-3.55861e-07
7.13525e-08
4.39138e-07
-3.68677e-08
4.54559e-07
-3.38547e-07
-2.43305e-07
2.61135e-07
2.45462e-07
8.38052e-07
-2.89926e-07
-2.10392e-07
3.1731e-07
3.07572e-07
-4.04496e-07
-5.9707e-08
1.22012e-06
1.37182e-07
-1.29446e-06
-2.26181e-05
2.20389e-05
1.54406e-05
-2.15594e-05
1.5032e-05
-1.86574e-05
1.34077e-05
-1.44985e-05
1.08344e-05
-1.00131e-05
7.82056e-06
-6.20321e-06
5.05559e-06
-3.45374e-06
2.93597e-06
-1.73472e-06
1.56147e-06
-7.66371e-07
7.61689e-07
-2.69378e-07
3.44891e-07
-3.77671e-08
1.46966e-07
8.47948e-08
6.02596e-08
1.39293e-07
1.97885e-08
1.64385e-07
3.65293e-09
1.78654e-07
-2.04806e-09
1.89287e-07
-4.03868e-09
1.99092e-07
-4.85802e-09
2.08764e-07
-5.43695e-09
2.18418e-07
-6.01708e-09
2.28082e-07
-6.59376e-09
2.37972e-07
-7.40225e-09
2.47838e-07
-8.01907e-09
2.57889e-07
-8.73424e-09
2.68069e-07
-9.52161e-09
2.78152e-07
-1.02704e-08
2.8798e-07
-1.12057e-08
2.98439e-07
-1.29497e-08
3.09675e-07
-1.58668e-08
3.2046e-07
-1.36109e-08
3.31515e-07
-1.66889e-08
3.42689e-07
-1.67577e-08
3.54663e-07
-1.76982e-08
3.68571e-07
-2.06238e-08
3.82937e-07
-2.33593e-08
-3.93481e-08
3.97106e-07
-3.95844e-07
2.65587e-07
7.07254e-07
-6.25713e-07
3.43131e-07
-4.6131e-07
3.41366e-07
8.34706e-07
-2.12412e-05
1.86681e-05
2.085e-05
-2.0905e-05
2.05014e-05
-1.72234e-05
1.9275e-05
-1.12837e-05
1.80328e-05
-5.23302e-06
1.77987e-05
-9.9411e-07
1.86596e-05
5.42182e-07
2.0102e-05
5.06851e-07
1.99907e-05
-6.78029e-07
2.10289e-05
-6.2918e-07
1.9807e-05
9.90588e-07
1.97334e-05
5.34057e-06
1.81091e-05
1.14509e-05
1.73444e-05
1.74032e-05
1.76939e-05
2.10963e-05
1.91457e-05
2.14618e-05
2.05748e-05
1.89531e-05
2.10326e-05
1.5188e-05
2.06494e-05
2.99768e-07
-5.15148e-07
3.57897e-07
-4.89112e-07
3.01198e-07
-4.61146e-07
2.5763e-07
-4.22121e-07
2.13099e-07
2.3566e-07
-3.92595e-07
-9.52199e-08
1.14682e-07
-4.59939e-07
5.39236e-07
-4.24653e-07
-7.66824e-08
4.24475e-07
8.49892e-08
-4.17124e-07
-6.423e-08
-4.11708e-07
-5.55693e-08
-4.0626e-07
-4.90924e-08
-3.99858e-07
-4.33093e-08
-3.91748e-07
-3.77344e-08
-3.82376e-07
-3.2582e-08
-3.72409e-07
-2.78736e-08
-3.61518e-07
-2.39328e-08
-3.50248e-07
-2.04646e-08
-3.38693e-07
-1.77159e-08
-3.26896e-07
-1.55875e-08
-3.14946e-07
-1.39255e-08
-3.03026e-07
-1.25472e-08
-2.91384e-07
-1.15562e-08
-2.80024e-07
-1.05523e-08
-2.69085e-07
-9.64823e-09
-2.58445e-07
-8.83919e-09
-2.48093e-07
-8.13319e-09
-2.37953e-07
-7.53577e-09
-2.27993e-07
-6.99624e-09
-2.18228e-07
-6.49517e-09
-2.08639e-07
-6.04852e-09
-1.99148e-07
-5.59934e-09
-1.89423e-07
-5.10724e-09
-1.78546e-07
-4.24553e-09
-1.63555e-07
-2.06455e-09
-1.36064e-07
4.47601e-09
-7.58133e-08
2.27119e-08
5.55184e-08
6.75555e-08
3.11465e-07
1.63184e-07
8.4848e-07
3.82071e-07
1.88769e-06
8.32663e-07
3.70844e-06
1.68227e-06
6.56692e-06
3.12215e-06
1.04466e-05
5.31787e-06
1.49397e-05
8.08803e-06
1.90292e-05
1.10254e-05
2.16754e-05
1.3541e-05
2.25638e-05
1.49336e-05
2.18499e-05
1.52948e-05
2.03491e-05
1.4921e-05
-4.30452e-07
3.09488e-07
4.32777e-07
7.3909e-08
4.23149e-07
-4.18123e-07
4.98888e-07
4.67007e-07
-4.58875e-07
3.34156e-07
-3.36047e-07
4.74098e-07
3.4851e-07
-3.49533e-07
3.68687e-07
4.85963e-07
4.22488e-07
7.81179e-08
5.08001e-07
4.67621e-07
4.01706e-07
4.57351e-07
4.42456e-07
-1.26636e-06
1.23693e-06
-2.69611e-08
-5.52168e-07
3.88085e-07
-3.04089e-07
4.734e-07
1.23933e-06
-1.10158e-06
1.54601e-07
-3.27518e-07
2.05029e-07
-3.76605e-07
-1.67521e-08
2.17089e-07
-4.03957e-07
-2.03373e-07
-1.11973e-06
1.1359e-06
-1.04734e-07
-1.08269e-07
-1.08776e-06
-3.7711e-07
-2.83506e-08
-3.63721e-07
-2.58339e-08
-3.52202e-07
-2.12304e-08
-3.41023e-07
-1.79405e-08
-3.30993e-07
-1.57508e-08
-3.21149e-07
-1.53321e-08
-3.08653e-07
-1.47366e-08
-2.99733e-07
-1.33752e-08
-2.89071e-07
-1.22473e-08
-2.78309e-07
-1.08281e-08
-2.67821e-07
-9.95943e-09
-2.57461e-07
-9.45153e-09
-2.47253e-07
-8.8203e-09
-2.37244e-07
-8.13723e-09
-2.27452e-07
-7.46784e-09
-2.17639e-07
-6.83726e-09
-2.07995e-07
-6.23151e-09
-1.98284e-07
-5.75492e-09
-1.88226e-07
-5.09702e-09
-1.7635e-07
-4.04246e-09
-1.58117e-07
-1.32388e-09
-1.21431e-07
6.70973e-09
-3.88657e-08
2.84738e-08
1.31269e-07
7.78873e-08
4.83849e-07
1.86659e-07
1.2095e-06
4.29374e-07
2.57299e-06
9.18943e-07
4.89064e-06
1.81308e-06
8.37277e-06
3.27281e-06
1.28589e-05
5.36388e-06
1.75577e-05
7.79513e-06
2.12595e-05
1.01305e-05
2.30956e-05
1.17114e-05
2.30095e-05
1.22909e-05
2.16789e-05
1.21541e-05
1.99073e-05
1.16719e-05
-8.53282e-08
-1.0573e-06
7.73134e-08
-1.8115e-05
1.42065e-05
1.85431e-05
-2.14402e-05
1.96986e-05
-2.19101e-05
2.07679e-05
-1.82899e-05
2.15216e-05
-1.16014e-05
2.23883e-05
-4.61403e-06
2.38301e-05
-1.64363e-07
2.52553e-05
9.35519e-07
2.65049e-05
5.45577e-07
2.50297e-05
-7.49346e-07
2.67896e-05
-1.03239e-06
2.48389e-05
2.04545e-07
2.61708e-05
4.81448e-06
2.46658e-05
1.19611e-05
2.3211e-05
1.86912e-05
2.19504e-05
2.23177e-05
2.13695e-05
2.18927e-05
2.08313e-05
1.85215e-05
1.99669e-05
1.45723e-05
1.88706e-05
1.12495e-05
1.80643e-05
-4.31168e-07
2.72843e-07
1.22242e-07
4.18475e-07
3.19641e-07
-4.47935e-07
-3.24138e-07
-2.42763e-07
-1.26169e-06
1.00191e-06
5.03666e-07
-1.75209e-07
1.08983e-06
-1.36878e-07
1.12086e-06
-1.3686e-07
1.13777e-06
-1.12073e-06
-1.40539e-07
1.12623e-06
-1.09198e-06
-1.31548e-07
-1.07304e-06
-1.2525e-07
1.36661e-07
-1.89152e-07
-1.01871e-06
-4.0111e-07
2.19212e-07
-3.59587e-08
-1.01242e-06
1.02375e-06
2.64303e-08
-2.79613e-07
-5.3882e-07
2.71513e-07
-2.67531e-07
-6.63825e-07
7.36628e-07
2.00409e-07
-6.25862e-07
4.8546e-07
3.27373e-07
-4.72649e-07
4.96497e-07
3.43292e-07
3.59345e-07
5.11493e-07
8.48251e-08
4.17492e-07
-4.30089e-07
3.07799e-07
4.38476e-07
2.90618e-08
-8.19205e-08
-5.62191e-07
3.0198e-07
-5.18381e-07
2.6496e-07
-4.78243e-07
2.25002e-07
-4.63594e-07
2.0592e-07
2.04515e-07
-4.24892e-07
3.50401e-07
-5.06231e-07
-2.2802e-07
-2.38512e-07
1.35725e-07
3.85649e-07
-2.7828e-07
-4.2283e-07
-1.07964e-07
1.11553e-07
4.27057e-07
-4.15951e-07
-7.53945e-08
-4.10781e-07
-6.08119e-08
-4.05643e-07
-5.16209e-08
-3.99991e-07
-4.51623e-08
-3.93582e-07
-3.96809e-08
-3.86182e-07
-3.46968e-08
-3.77763e-07
-3.02206e-08
-3.68364e-07
-2.62287e-08
-3.58408e-07
-2.26377e-08
-3.47755e-07
-1.96629e-08
-3.36742e-07
-1.70504e-08
-3.25338e-07
-1.50995e-08
-3.13658e-07
-1.35758e-08
-3.01892e-07
-1.22957e-08
-2.90362e-07
-1.12705e-08
-2.7905e-07
-1.04144e-08
-2.68117e-07
-9.58332e-09
-2.57514e-07
-8.87925e-09
-2.47232e-07
-8.20391e-09
-2.37105e-07
-7.71029e-09
-2.27156e-07
-7.20568e-09
-2.17439e-07
-6.6749e-09
-2.07832e-07
-6.29436e-09
-1.98286e-07
-5.79779e-09
-1.88132e-07
-5.32582e-09
-1.75798e-07
-4.12896e-09
-1.5609e-07
-1.02744e-09
-1.1535e-07
8.12636e-09
-2.3719e-08
3.26335e-08
1.61324e-07
8.64706e-08
5.48843e-07
2.07688e-07
1.33732e-06
4.73175e-07
2.79908e-06
1.00046e-06
5.24188e-06
1.9498e-06
8.83449e-06
3.48158e-06
1.33781e-05
5.61333e-06
1.80176e-05
8.00927e-06
2.15022e-05
1.02768e-05
2.31467e-05
1.17127e-05
2.28454e-05
1.21571e-05
2.14102e-05
1.19965e-05
1.95628e-05
1.14549e-05
1.76983e-05
1.09734e-05
-5.32277e-07
-3.16629e-07
5.49537e-07
-5.09571e-07
-2.97112e-07
2.51673e-07
-2.81157e-07
-4.74723e-07
1.14323e-06
6.14301e-09
-1.16212e-06
1.68857e-08
-4.79482e-07
1.97332e-07
9.16265e-08
4.19494e-07
-3.79886e-08
-1.14715e-06
3.60437e-08
-2.67952e-07
-4.30747e-07
2.24119e-07
-8.79674e-08
-1.07961e-06
1.38379e-07
1.03209e-06
4.89604e-07
4.41395e-07
4.96577e-07
3.95666e-07
4.97817e-07
-3.15056e-07
5.19108e-07
-4.95747e-07
-5.01475e-07
3.28993e-07
5.21282e-07
-4.83419e-07
-1.03459e-06
5.36618e-07
-1.22449e-06
-1.45581e-08
-2.35988e-08
1.11047e-06
-2.71894e-07
-1.02548e-06
-5.60204e-07
4.96795e-07
6.68314e-07
5.87833e-07
1.81538e-07
-5.66578e-07
2.39027e-07
1.13078e-06
-1.43367e-07
1.14615e-06
-1.44771e-07
1.13986e-06
-1.32269e-07
-3.68351e-07
-2.45241e-08
-3.60454e-07
-2.29775e-08
-3.50498e-07
-2.04229e-08
-3.4042e-07
-1.72044e-08
-3.30105e-07
-1.5104e-08
-3.20616e-07
-1.36395e-08
-3.09933e-07
-1.40082e-08
-2.99995e-07
-1.17624e-08
-2.88843e-07
-1.18799e-08
-2.77842e-07
-1.05239e-08
-2.66873e-07
-9.95777e-09
-2.56654e-07
-9.068e-09
-2.4649e-07
-8.69847e-09
-2.36558e-07
-8.03772e-09
-2.26703e-07
-7.49361e-09
-2.16931e-07
-6.97132e-09
-2.07281e-07
-6.4047e-09
-1.97545e-07
-5.97282e-09
-1.86998e-07
-5.31153e-09
-1.7328e-07
-4.04031e-09
-1.493e-07
-6.12439e-10
-9.69205e-08
9.29849e-09
2.55479e-08
3.49128e-08
2.51326e-07
8.8868e-08
7.46171e-07
2.12548e-07
1.73065e-06
4.76899e-07
3.51432e-06
9.8974e-07
6.40878e-06
1.88647e-06
1.05157e-05
3.27152e-06
1.53971e-05
5.09011e-06
1.98696e-05
7.03204e-06
2.28205e-05
8.59111e-06
2.36768e-05
9.37328e-06
2.2789e-05
9.4956e-06
2.11755e-05
9.19612e-06
1.93523e-05
8.90537e-06
1.77809e-05
8.81153e-06
4.88849e-07
1.77283e-07
-4.54901e-07
5.21151e-07
1.80822e-07
5.56644e-07
1.96766e-07
6.08949e-07
2.19982e-07
6.70915e-07
2.47293e-07
7.4946e-07
2.71788e-07
1.04461e-06
-6.51504e-07
-9.49722e-07
2.14126e-07
-4.21701e-07
4.01199e-07
-3.85057e-07
3.10653e-07
-4.57387e-07
-2.98483e-07
-4.72745e-07
7.61376e-08
-1.0227e-06
-7.03338e-08
-6.53683e-08
-1.02594e-06
-3.11872e-07
6.03623e-07
2.62204e-07
3.41339e-07
5.44628e-07
-4.36838e-07
1.53346e-07
-1.03126e-07
3.95005e-07
-9.83359e-08
1.09893e-06
-1.45607e-07
3.83471e-07
-4.46289e-07
2.96079e-07
-1.47232e-07
3.17826e-08
1.05017e-06
-9.33541e-07