/*--------------------------------*- C++ -*----------------------------------*\
| =========                 |                                                 |
| \\      /  F ield         | OpenFOAM: The Open Source CFD Toolbox           |
|  \\    /   O peration     | Version:  2212                                  |
|   \\  /    A nd           | Website:  www.openfoam.com                      |
|    \\/     M anipulation  |                                                 |
\*---------------------------------------------------------------------------*/
FoamFile
{
    version     2.0;
    format      ascii;
    arch        "LSB;label=32;scalar=64";
    class       volScalarField;
    location    "0.00031";
    object      k;
}
// * * * * * * * * * * * * * * * * * * * * * * * * * * * * * * * * * * * * * //

dimensions      [0 2 -2 0 0 0 0];

internalField   nonuniform List<scalar> 
2681
(
923.632
923.632
923.631
923.632
923.632
923.632
923.632
923.632
923.632
923.632
923.632
923.632
923.632
923.632
923.632
923.632
923.632
923.632
923.632
923.632
923.632
923.632
923.632
923.632
923.632
923.632
923.632
923.632
923.632
923.632
923.632
923.632
923.632
923.632
923.632
923.632
923.632
923.632
923.632
923.632
923.632
923.632
923.632
923.632
923.632
923.632
923.632
923.632
923.632
923.632
923.632
923.632
923.632
923.632
923.632
923.632
923.632
923.632
923.632
923.632
923.632
923.632
923.632
923.632
923.632
923.632
923.632
923.632
923.632
923.63
923.632
923.632
923.632
923.632
923.632
923.632
914.208
923.632
923.632
923.632
923.632
923.632
923.632
923.632
923.632
923.632
923.632
923.632
923.632
923.632
923.632
923.632
923.632
923.632
923.632
923.632
923.632
923.632
923.632
923.632
923.632
923.632
923.632
923.632
923.632
923.632
923.632
923.632
923.632
923.632
923.632
923.632
923.632
923.632
923.632
923.632
923.632
923.632
923.632
923.632
923.632
923.632
923.632
923.632
923.632
923.632
923.632
923.632
923.632
923.632
923.632
923.632
923.632
923.632
923.632
923.632
923.632
923.632
923.632
923.632
923.632
923.632
923.632
923.632
923.632
923.632
923.632
923.632
923.632
923.632
923.632
923.632
923.632
923.632
923.632
923.632
923.632
923.632
923.632
923.632
923.632
923.632
923.632
923.632
923.632
923.632
923.632
923.632
923.632
923.632
923.632
923.632
923.632
923.632
923.632
923.632
923.632
923.632
923.632
923.632
923.632
923.632
923.632
923.632
923.632
923.632
923.632
923.632
923.632
923.632
923.632
923.632
923.632
923.632
923.632
923.632
923.632
923.632
923.632
923.632
923.632
923.632
923.632
923.632
923.632
923.632
923.632
923.632
923.632
923.632
923.632
923.632
923.632
923.632
923.632
923.632
923.632
923.632
923.632
923.632
923.632
923.632
923.632
923.632
923.632
923.632
923.632
923.632
923.632
923.632
923.632
923.632
923.632
923.632
923.632
923.632
923.632
923.632
923.632
923.632
923.632
923.632
923.632
923.632
923.632
923.632
923.632
923.632
923.632
923.632
923.632
923.632
923.632
923.632
923.632
923.632
923.632
923.632
923.632
923.632
923.632
923.632
923.632
923.632
923.632
923.632
923.632
923.632
923.632
923.632
923.632
923.632
923.632
923.632
923.632
923.632
923.632
923.632
923.632
923.632
923.632
923.632
923.632
923.632
923.632
923.632
923.632
923.632
923.632
923.632
923.632
923.632
923.632
923.632
923.632
923.632
923.632
923.632
923.632
923.632
923.632
923.632
923.632
923.632
923.632
923.632
923.632
923.632
923.632
923.632
923.632
923.632
923.632
923.632
923.632
923.632
923.632
923.632
923.632
923.632
923.632
923.632
923.632
923.631
923.632
923.632
923.632
923.632
923.632
923.632
923.632
923.632
923.632
923.632
923.632
923.632
923.632
923.632
923.632
923.632
923.632
923.632
923.632
923.632
923.632
923.632
923.632
923.632
923.632
923.632
923.529
923.632
923.632
923.632
923.632
923.632
923.632
923.632
923.632
923.632
923.632
923.632
923.632
923.632
923.632
923.632
923.632
923.632
923.632
923.632
923.632
923.632
923.632
923.632
923.632
923.632
923.632
923.632
923.632
923.632
923.632
923.632
923.632
923.632
923.632
923.632
923.632
923.632
923.632
923.632
923.632
923.632
923.632
923.632
923.632
923.632
923.632
923.632
923.632
923.632
923.632
923.632
923.632
923.632
923.632
923.632
923.632
923.632
923.632
923.632
923.632
923.632
923.632
923.632
923.632
923.632
923.632
923.632
923.632
923.632
923.632
923.632
923.632
923.632
923.632
923.632
923.632
923.632
923.632
923.632
923.632
923.632
923.632
923.632
923.632
923.632
923.632
923.632
923.632
923.632
923.632
923.632
923.632
923.632
923.632
923.632
923.632
923.632
923.632
923.632
923.632
923.632
923.632
923.632
923.632
923.632
923.632
923.632
923.632
923.632
923.632
923.632
923.632
923.632
923.632
923.632
923.632
923.632
923.632
923.632
923.632
923.632
923.632
923.632
923.632
923.632
923.632
923.632
923.632
923.632
923.632
923.632
923.632
923.632
923.632
923.632
923.632
923.632
923.632
923.632
923.632
923.632
923.632
923.632
923.632
923.632
923.632
923.632
923.632
923.632
923.632
923.632
923.632
923.632
923.632
923.632
923.632
923.632
923.632
923.632
923.632
923.632
923.632
923.632
923.632
923.632
923.632
923.632
923.632
923.632
923.632
923.632
923.632
923.632
923.632
923.632
923.632
923.632
923.577
923.632
923.632
923.632
923.632
923.632
923.632
923.632
923.632
923.632
923.632
923.632
923.632
923.632
923.632
923.632
923.632
923.632
923.632
923.632
923.632
923.632
923.632
923.632
923.632
923.632
923.632
923.632
923.632
923.632
923.632
923.632
923.632
923.632
923.632
923.632
923.632
923.632
923.632
923.632
923.632
923.632
923.632
923.632
923.632
923.632
923.632
923.632
923.632
923.632
923.632
923.632
923.632
923.632
923.632
923.632
923.632
923.632
923.632
923.632
923.632
923.629
923.629
923.629
923.632
923.629
923.629
923.632
923.632
923.632
923.632
923.632
923.632
923.632
923.632
923.632
923.632
923.632
923.632
923.632
923.632
923.632
923.632
923.632
923.632
923.632
923.632
923.632
923.632
923.632
923.632
923.632
923.632
923.632
923.632
923.632
923.632
923.632
923.632
923.632
923.632
923.632
923.632
923.632
923.632
923.632
923.632
923.632
923.632
923.632
923.632
923.632
923.632
923.632
923.632
923.632
923.632
923.632
923.632
923.632
923.632
923.632
923.632
923.632
923.632
923.632
923.632
923.632
923.632
923.632
923.632
923.632
923.632
923.632
923.632
923.632
923.632
923.632
923.632
923.632
923.632
923.632
923.632
923.632
923.632
923.632
923.632
923.632
923.632
923.632
923.632
923.632
923.632
923.632
923.632
923.632
923.632
923.632
923.632
923.632
923.632
923.632
923.632
923.632
923.632
923.632
923.632
923.632
923.632
923.632
923.632
923.632
923.632
923.632
923.632
923.632
923.632
923.632
923.632
923.632
923.629
923.632
923.632
923.632
923.632
923.632
923.632
923.632
923.632
923.632
923.632
923.632
923.632
923.632
923.632
923.632
923.632
923.632
923.632
923.62
923.632
923.632
923.632
923.632
923.632
923.632
923.632
923.632
923.632
923.632
923.632
923.632
923.632
923.632
923.597
923.629
923.597
923.632
923.632
923.632
923.632
923.632
923.632
923.632
923.632
923.632
923.632
923.632
923.632
923.632
923.632
923.632
923.632
923.632
923.632
923.632
923.632
923.632
923.632
923.632
923.632
923.632
923.632
923.632
923.632
923.632
923.632
923.632
923.632
923.632
923.632
923.632
923.632
923.632
923.632
923.632
923.632
923.632
923.632
923.632
923.632
923.632
923.632
923.632
923.632
923.632
923.632
923.632
923.632
923.632
923.632
923.632
923.632
923.632
923.632
923.632
923.632
923.632
923.632
923.632
923.632
923.632
923.632
923.632
923.632
923.632
923.632
923.632
923.632
923.632
923.632
923.632
923.598
923.629
923.597
923.597
923.598
923.598
923.598
923.632
923.632
923.632
923.632
923.632
923.632
923.632
923.632
923.632
923.632
923.632
923.632
923.632
923.632
923.632
923.632
923.632
923.632
923.632
923.632
923.632
923.632
923.632
923.632
923.632
923.632
923.632
923.632
923.632
923.632
923.632
923.632
923.632
923.632
923.632
923.632
923.632
923.632
923.632
923.632
923.632
923.632
923.632
923.632
923.632
923.632
923.632
923.632
923.632
923.632
923.632
923.632
923.632
923.632
923.632
923.632
923.632
923.632
923.632
923.632
923.632
923.632
923.632
923.632
923.632
923.632
923.632
923.632
923.632
923.632
923.632
923.632
923.632
923.632
923.632
923.632
923.632
923.632
923.632
923.632
923.632
923.632
923.632
923.632
923.632
923.632
923.632
923.632
923.632
923.632
923.632
923.632
923.632
923.632
923.632
923.632
923.632
923.632
923.632
923.632
923.632
923.632
923.632
923.632
923.632
923.632
923.632
923.632
923.632
923.632
923.629
923.597
923.632
923.632
923.632
923.632
923.632
923.632
923.632
923.632
923.632
923.632
923.632
923.632
923.632
923.632
923.632
923.632
923.632
923.632
923.632
923.632
923.632
923.629
923.597
923.496
923.495
923.632
923.632
923.632
923.632
923.632
923.302
923.632
923.632
923.632
923.632
923.632
923.632
923.632
923.632
923.632
923.632
923.632
923.632
923.632
923.632
923.632
923.632
923.632
923.632
923.632
923.632
923.632
923.632
923.632
923.632
923.632
923.632
923.632
923.632
923.632
923.632
923.632
923.632
923.632
923.632
923.632
923.632
923.632
923.632
923.632
923.632
923.632
923.632
923.632
923.632
923.632
923.632
923.632
923.632
923.632
923.632
923.632
923.632
923.632
923.632
923.632
923.632
923.632
923.632
923.632
923.632
923.632
923.632
923.632
923.632
923.632
923.632
923.632
923.632
923.632
923.632
923.632
923.632
923.632
923.632
923.632
923.632
923.632
923.632
923.496
923.495
923.496
923.496
923.496
923.496
923.632
923.632
923.632
923.632
923.632
923.632
923.632
923.632
923.632
923.632
923.632
923.632
923.632
923.632
923.632
923.632
923.632
923.632
923.632
923.632
923.632
923.632
923.632
923.632
923.632
923.632
923.632
923.632
923.632
923.632
923.632
923.632
923.632
923.632
923.632
923.632
923.632
923.632
923.632
923.632
923.632
923.632
923.632
923.632
923.632
923.632
923.632
923.632
923.632
923.632
923.632
923.632
923.632
923.632
923.632
923.632
923.632
923.632
923.632
923.632
923.632
923.632
923.632
923.632
923.632
923.632
923.632
923.632
923.632
923.632
923.632
923.632
923.632
923.632
923.632
923.632
923.632
923.632
923.632
923.632
923.632
923.632
923.632
923.632
923.632
923.632
923.632
923.632
923.632
923.632
923.495
923.632
923.632
923.632
923.632
923.632
923.632
923.632
923.632
923.632
923.632
923.632
923.632
923.632
923.632
923.632
923.632
923.632
923.632
923.632
923.632
923.632
923.632
923.632
923.632
923.632
923.632
923.632
923.632
923.632
923.495
923.632
923.632
923.632
923.632
923.632
923.632
923.632
923.632
923.632
923.632
923.632
923.632
923.632
923.632
923.632
922.482
922.48
923.632
923.632
923.632
923.632
923.632
923.632
923.632
923.632
923.632
923.632
923.632
923.632
923.632
923.632
923.632
923.632
923.632
923.632
923.632
923.632
923.632
923.632
923.632
923.632
923.632
923.632
923.632
923.632
923.632
923.632
923.632
923.632
923.632
923.632
923.632
923.632
923.632
923.632
923.632
923.632
923.632
923.632
923.632
923.632
923.632
923.632
923.632
923.632
923.632
923.632
923.632
923.632
923.632
923.632
923.632
923.632
923.632
923.632
923.632
923.632
923.632
923.632
923.632
923.632
923.632
923.632
923.632
923.632
923.632
923.632
923.632
923.632
923.632
923.632
923.632
923.629
923.495
923.597
923.632
923.632
923.632
923.632
923.632
923.632
923.632
923.632
923.632
923.632
923.632
923.632
923.632
923.632
923.632
923.632
923.632
922.486
922.484
922.487
922.487
922.485
922.486
922.48
922.482
923.632
923.632
923.632
923.632
923.632
923.632
923.632
923.632
923.632
923.632
923.632
923.632
923.632
923.632
923.632
923.632
923.632
923.632
923.632
923.632
923.629
923.632
923.495
923.597
923.632
923.632
923.632
923.63
923.632
923.632
923.632
923.632
923.632
923.632
923.632
923.632
923.632
923.632
923.632
923.632
923.632
923.632
923.632
923.632
923.632
923.632
923.632
923.632
923.632
923.632
923.632
923.632
923.632
923.632
923.632
923.632
923.632
923.632
923.632
923.632
923.632
923.632
923.632
923.632
923.632
923.632
923.632
923.632
923.632
923.632
923.632
923.632
923.632
923.632
923.632
923.632
923.632
923.632
923.632
923.632
923.632
923.632
923.632
923.632
923.632
923.632
923.632
923.632
923.632
923.632
923.632
923.632
923.632
923.632
923.632
923.632
923.632
923.632
923.632
923.632
923.632
923.632
923.632
923.632
923.632
923.632
923.632
923.632
923.632
923.632
923.632
923.632
923.632
923.632
923.632
923.632
923.632
923.632
923.632
923.632
923.632
920.395
923.632
923.632
923.632
923.632
923.632
923.632
923.632
923.632
923.632
923.632
923.632
923.632
923.632
923.632
922.478
922.478
923.62
923.632
923.632
923.632
923.632
923.632
923.553
923.632
923.632
923.632
923.632
923.632
923.632
923.632
923.632
923.632
923.632
923.632
923.632
923.632
923.632
923.632
923.632
923.632
923.632
923.632
923.486
923.632
923.632
923.632
923.632
923.632
923.632
923.632
923.632
923.632
923.632
923.632
923.632
923.632
923.632
923.632
923.632
923.632
923.632
923.632
923.632
923.632
923.632
923.632
923.632
923.632
923.632
923.632
923.632
923.632
923.632
923.632
923.632
923.632
923.632
923.632
923.632
923.632
923.632
923.632
923.632
923.632
923.632
923.632
923.632
923.632
923.632
923.632
923.632
923.632
923.632
923.632
923.632
923.632
923.632
923.632
923.632
923.632
923.632
923.632
923.632
923.632
923.632
923.632
923.632
923.632
923.632
923.632
923.632
923.632
923.632
923.632
923.632
923.632
923.632
922.479
923.494
923.597
923.629
923.631
923.632
923.632
923.632
923.632
923.632
923.632
923.632
923.632
923.632
923.632
923.632
923.632
923.632
923.632
923.632
923.632
923.632
923.632
923.632
923.632
923.632
923.574
923.631
923.631
920.412
920.415
920.422
920.428
920.432
920.434
920.434
920.432
920.428
920.421
920.415
920.413
920.418
923.632
923.632
923.632
923.632
923.632
923.632
923.632
923.632
923.632
923.632
923.632
923.632
923.632
923.632
923.632
923.632
923.632
923.632
923.632
923.632
923.632
923.631
923.629
923.597
923.494
922.478
920.414
923.632
923.632
923.578
923.632
923.632
923.627
923.484
923.632
923.632
923.632
923.632
923.632
923.632
923.632
923.632
923.632
923.632
923.632
923.631
923.632
923.628
923.632
923.632
923.632
923.632
923.632
923.632
923.632
923.632
923.632
923.632
923.632
923.632
923.632
923.632
923.632
923.632
923.632
923.632
923.632
923.632
923.631
923.631
923.632
923.632
923.632
923.632
923.632
923.632
923.63
923.632
923.632
923.632
923.632
923.632
923.632
923.632
923.632
923.632
923.632
923.632
923.632
923.632
923.632
923.632
923.632
923.632
923.632
923.629
923.632
923.632
923.632
923.632
923.632
923.632
923.632
923.632
923.632
923.632
923.632
923.632
923.632
923.632
923.632
923.632
923.632
923.632
923.632
923.632
923.632
923.632
923.632
923.632
923.632
923.632
923.632
923.632
923.632
923.632
923.632
923.632
923.632
923.632
923.632
923.632
923.632
923.632
923.632
923.632
923.632
923.632
923.632
923.632
923.632
923.632
923.632
923.632
923.632
923.632
923.632
923.632
923.632
923.632
923.632
923.632
923.632
923.632
923.632
923.632
923.632
923.632
906.324
906.372
922.479
920.496
923.595
923.632
923.602
923.632
923.632
923.632
923.632
923.583
923.589
923.592
923.595
923.597
923.598
923.598
923.598
923.598
923.597
923.597
923.596
923.595
923.594
923.593
923.592
923.594
923.593
923.564
923.596
923.601
923.599
923.598
923.598
923.598
923.598
923.599
923.599
923.6
923.6
923.6
923.6
923.6
923.6
923.599
923.599
923.598
923.596
923.593
923.589
923.586
923.586
923.589
923.597
923.594
923.632
923.601
923.591
923.588
923.589
923.593
923.596
923.598
923.599
923.6
923.6
923.6
923.6
923.6
923.6
923.6
923.6
923.6
923.6
923.599
923.598
923.597
923.596
923.595
923.595
923.591
923.596
923.628
923.589
923.594
923.594
923.593
923.594
923.596
923.597
923.597
923.598
923.598
923.598
923.597
923.595
923.593
923.59
923.586
923.576
923.58
923.632
923.591
923.601
923.6
923.597
923.597
923.597
923.597
923.598
923.598
923.599
923.599
923.599
923.599
923.599
923.599
923.599
923.599
923.598
923.598
923.598
923.598
923.598
923.598
923.599
923.599
923.599
923.599
923.599
923.599
923.599
923.599
923.6
923.6
923.6
923.601
923.601
923.6
923.6
923.6
923.6
923.6
923.6
923.6
923.6
923.599
923.599
923.599
923.598
923.598
923.597
923.597
923.596
923.596
923.595
923.595
923.594
923.593
923.592
923.591
923.591
923.591
923.594
923.599
923.604
923.632
923.632
923.572
920.942
923.632
923.574
923.569
923.575
923.584
923.59
923.594
923.589
923.569
923.599
923.595
923.597
923.598
923.598
923.599
923.599
923.6
923.6
923.6
923.6
923.6
923.6
923.6
923.6
923.6
923.599
923.599
923.599
923.599
923.599
923.599
923.596
922.477
923.465
923.565
923.632
923.632
923.632
923.632
923.374
923.632
923.632
923.595
923.592
923.591
923.581
923.577
923.632
923.632
923.632
923.632
906.33
906.318
906.336
906.354
906.367
906.373
906.372
906.366
906.354
906.336
906.315
923.632
923.632
923.605
923.604
923.542
923.632
923.632
923.632
923.604
923.591
923.591
923.632
923.554
923.576
923.577
923.582
923.583
923.585
923.588
923.592
923.594
923.596
923.597
923.598
923.599
923.599
923.599
923.599
923.599
923.599
923.599
923.599
923.599
923.599
923.599
923.599
923.599
923.596
923.565
923.465
923.632
923.632
923.632
923.632
923.631
923.632
923.632
923.632
923.632
923.632
923.561
906.384
920.492
923.632
923.632
923.632
923.632
907.018
907.03
921.316
923.632
923.632
923.632
923.632
923.632
923.632
921.459
921.017
923.632
921.995
923.632
923.632
923.632
858.668
923.632
923.632
921.754
918.896
920.798
921.88
921.85
921.883
921.882
921.883
921.883
921.884
921.884
921.884
921.884
921.881
921.883
921.869
921.877
921.836
921.857
921.754
921.804
921.606
921.689
921.407
921.518
921.452
921.403
921.415
921.438
921.257
921.394
921.532
920.86
921.746
921.937
922.175
921.776
922.126
922.201
921.65
922.23
923.058
896.512
896.687
896.557
896.562
896.538
896.587
896.58
896.581
896.587
896.538
896.562
896.566
896.516
898.095
905.945
898.113
896.703
923.632
923.632
923.169
923.632
923.632
923.632
923.632
905.937
920.797
918.894
921.85
921.753
921.882
921.88
921.883
921.883
921.884
921.883
921.886
921.885
921.89
921.888
921.895
921.892
921.894
921.895
921.885
921.891
921.857
921.872
921.818
921.832
921.887
921.813
923.632
922.092
921.271
923.632
921.66
921.679
921.192
921.464
920.985
920.977
921.693
921.531
921.447
921.534
921.214
920.435
920.683
921.714
921.026
921.68
921.808
921.588
921.611
921.626
921.597
921.692
921.652
921.742
921.717
921.776
921.759
921.808
921.789
921.842
921.823
921.872
921.856
921.893
921.882
921.907
921.9
921.913
921.91
921.916
921.914
921.92
921.918
921.915
921.919
921.898
921.908
921.874
921.886
921.859
921.863
921.859
921.857
921.855
921.857
921.846
921.85
921.844
921.841
921.85
921.846
921.856
921.854
921.862
921.859
921.861
921.862
921.852
921.859
921.831
921.846
921.797
921.821
921.834
921.804
922.03
921.932
923.632
921.817
923.632
921.247
921.09
921.533
921.396
921.724
921.647
921.81
921.777
921.826
921.823
921.792
921.816
921.71
921.755
921.682
921.681
921.61
921.729
923.624
920.672
923.632
921.825
921.671
921.723
921.749
921.778
921.742
921.852
921.818
921.894
921.875
921.906
921.899
921.917
921.911
921.909
921.93
921.896
921.908
921.828
921.872
921.614
921.738
921.678
921.533
922.115
922.003
922.113
921.456
921.612
921.38
921.374
921.577
921.444
921.799
921.718
921.871
921.844
921.901
921.889
921.912
921.911
921.895
921.904
921.868
921.888
921.848
921.87
921.834
921.84
921.903
921.845
921.881
922.009
920.845
923.632
920.798
921.684
920.83
921.682
921.736
921.695
921.681
921.754
921.727
921.8
921.779
921.826
921.82
921.803
921.824
921.696
921.764
921.501
921.607
923.632
921.172
919.327
836.064
897.674
897.686
923.632
923.632
862.938
865.505
851.86
853.712
855.111
856.799
858.07
858.866
859.23
859.348
859.227
858.909
858.464
857.994
857.489
856.966
856.622
856.894
858.66
858.735
849.205
851.118
923.632
923.632
851.122
864.778
865.013
861.603
860.024
859.657
859.815
860.124
860.261
860.64
860.567
860.799
860.914
861.066
861.098
860.951
860.678
860.277
859.717
858.8
857.018
853.521
850.098
848.195
847.553
847.997
850.629
861.819
866.933
860.37
857.504
853.279
852.378
854.14
857.096
859.444
860.443
860.881
861.097
861.238
861.304
861.238
861.178
861.068
860.893
860.67
860.333
859.837
859.228
858.537
857.848
857.547
858.349
860.787
858.886
837.611
923.59
840.602
846.276
857.709
858.532
856.904
856.731
857.338
858.151
858.817
859.2
859.333
859.357
859.148
858.586
857.56
856.082
854.173
851.463
850.55
851.483
923.632
845.305
863.207
865.852
862.366
859.966
859.201
859.13
859.365
859.624
859.821
859.953
860.069
860.127
860.159
860.162
860.131
860.09
860.044
859.978
859.856
859.802
859.843
859.885
859.954
860.042
860.096
860.113
860.094
860.131
860.242
860.423
860.641
860.867
861.063
861.199
861.275
861.295
861.272
861.229
861.192
861.158
861.115
861.039
860.922
860.774
860.598
860.368
860.089
859.79
859.465
859.146
858.845
858.563
858.212
857.846
857.419
856.899
856.293
855.689
855.157
854.805
855.014
856.684
860.254
860.904
853.69
847.4
847.619
850.501
852.108
845.875
841.826
850.491
849.387
848.125
844.561
838.754
840.735
846.815
853.214
857.679
858.104
852.525
862.958
868.562
862.265
861.426
859.584
859.33
859.622
859.989
860.319
860.551
860.712
860.793
860.814
860.791
860.752
860.712
860.679
860.651
860.624
860.602
860.586
860.581
860.577
860.575
860.575
860.559
860.517
859.918
858.978
849.87
845.517
923.632
923.632
923.632
923.632
923.565
923.632
923.632
937.212
938.711
933.856
933.101
932.735
932.691
932.667
932.66
932.661
932.661
932.66
932.665
932.686
932.733
933.104
933.865
938.722
937.22
853.553
923.632
852.471
862.805
861.669
861.216
859.827
853.681
853.568
856.932
854.564
851.174
853.427
856.076
856.479
856.412
855.273
853.092
852.589
853.821
855.398
856.837
858.042
858.965
859.608
860.021
860.277
860.44
860.533
860.579
860.595
860.6
860.597
860.592
860.588
860.584
860.581
860.578
860.577
860.56
860.515
859.916
858.978
849.875
845.523
853.562
923.632
923.632
923.632
923.632
923.632
923.632
923.632
923.632
850.263
923.632
923.632
918.596
923.375
923.632
913.966
755.439
923.618
917.788
741.71
923.63
910.25
916.106
923.632
923.632
923.632
923.632
923.552
923.632
923.632
923.632
923.476
923.632
923.632
923.632
923.632
778.408
923.632
923.632
923.632
923.632
923.632
923.63
923.632
923.632
742.869
923.632
923.632
923.632
915.955
923.632
914.822
923.513
923.632
923.518
923.628
920.04
923.632
923.632
923.632
923.631
923.632
923.632
923.632
923.632
917.923
923.632
923.632
923.632
923.632
923.632
923.632
)
;

boundaryField
{
    wall
    {
        type            kqRWallFunction;
        value           nonuniform List<scalar> 
264
(
858.668
836.064
862.938
865.505
851.86
853.712
855.111
856.799
858.07
858.866
859.23
859.348
859.227
858.909
858.464
857.994
857.489
856.966
856.622
856.894
858.66
858.735
849.205
851.118
851.122
864.778
865.013
861.603
860.024
859.657
859.815
860.124
860.261
860.64
860.567
860.799
860.914
861.066
861.098
860.951
860.678
860.277
859.717
858.8
857.018
853.521
850.098
848.195
847.553
847.997
850.629
861.819
866.933
860.37
857.504
853.279
852.378
854.14
857.096
859.444
860.443
860.881
861.097
861.238
861.304
861.238
861.178
861.068
860.893
860.67
860.333
859.837
859.228
858.537
857.848
857.547
858.349
860.787
858.886
837.611
840.602
846.276
857.709
858.532
856.904
856.731
857.338
858.151
858.817
859.2
859.333
859.357
859.148
858.586
857.56
856.082
854.173
851.463
850.55
851.483
845.305
863.207
865.852
862.366
859.966
859.201
859.13
859.365
859.624
859.821
859.953
860.069
860.127
860.159
860.162
860.131
860.09
860.044
859.978
859.856
859.802
859.843
859.885
859.954
860.042
860.096
860.113
860.094
860.131
860.242
860.423
860.641
860.867
861.063
861.199
861.275
861.295
861.272
861.229
861.192
861.158
861.115
861.039
860.922
860.774
860.598
860.368
860.089
859.79
859.465
859.146
858.845
858.563
858.212
857.846
857.419
856.899
856.293
855.689
855.157
854.805
855.014
856.684
860.254
860.904
853.69
847.4
847.619
850.501
852.108
845.875
841.826
850.491
849.387
848.125
844.561
838.754
840.735
846.815
853.214
857.679
858.104
852.525
862.958
868.562
862.265
861.426
859.584
859.33
859.622
859.989
860.319
860.551
860.712
860.793
860.814
860.791
860.752
860.712
860.679
860.651
860.624
860.602
860.586
860.581
860.577
860.575
860.575
860.559
860.517
859.918
858.978
849.87
845.517
853.553
852.471
862.805
861.669
861.216
859.827
853.681
853.568
856.932
854.564
851.174
853.427
856.076
856.479
856.412
855.273
853.092
852.589
853.821
855.398
856.837
858.042
858.965
859.608
860.021
860.277
860.44
860.533
860.579
860.595
860.6
860.597
860.592
860.588
860.584
860.581
860.578
860.577
860.56
860.515
859.916
858.978
849.875
845.523
853.562
850.263
755.439
741.71
778.408
742.869
)
;
    }
    outlet
    {
        type            inletOutlet;
        inletValue      uniform 1000;
        value           nonuniform List<scalar> 
20
(
937.212
938.711
933.856
933.101
932.735
932.691
932.667
932.66
932.661
932.661
932.66
932.665
932.686
932.733
933.104
933.865
938.722
937.22
853.553
853.562
)
;
    }
    frontAndBackPlanes
    {
        type            empty;
    }
}


// ************************************************************************* //
