/*--------------------------------*- C++ -*----------------------------------*\
| =========                 |                                                 |
| \\      /  F ield         | OpenFOAM: The Open Source CFD Toolbox           |
|  \\    /   O peration     | Version:  2212                                  |
|   \\  /    A nd           | Website:  www.openfoam.com                      |
|    \\/     M anipulation  |                                                 |
\*---------------------------------------------------------------------------*/
FoamFile
{
    version     2.0;
    format      ascii;
    arch        "LSB;label=32;scalar=64";
    class       volScalarField;
    location    "0.0034";
    object      nut;
}
// * * * * * * * * * * * * * * * * * * * * * * * * * * * * * * * * * * * * * //

dimensions      [0 2 -1 0 0 0 0];

internalField   nonuniform List<scalar> 
31661
(
0.203446
0.317654
0.317608
0.317625
0.318182
0.318151
0.318161
0.318699
0.31867
0.318683
0.028335
0.328854
0.05148
0.337405
0.315573
0.283149
0.300933
0.258485
0.329494
0.286794
0.325535
0.325869
0.0888864
0.214892
0.321708
0.324766
0.0602939
0.11677
0.328865
0.328794
0.230031
0.223386
0.241388
0.33026
0.32609
0.264363
0.32815
0.276854
0.23137
0.259685
0.302165
0.316041
0.332565
0.330887
0.331058
0.32931
0.330981
0.33079
0.328292
0.328431
0.315975
0.299232
0.329553
0.330399
0.276422
0.328935
0.329748
0.329892
0.29992
0.329492
0.329275
0.329271
0.331031
0.312684
0.326396
0.102078
0.0437677
0.300163
0.300425
0.300693
0.328423
0.301112
0.301406
0.30172
0.302049
0.302394
0.302754
0.303126
0.303505
0.303887
0.304268
0.30464
0.305
0.305346
0.30537
0.305027
0.304669
0.304298
0.303919
0.303539
0.303162
0.302795
0.302439
0.302097
0.301775
0.301472
0.301193
0.300935
0.300671
0.300422
0.300183
0.299962
0.299751
0.299573
0.299533
0.299354
0.299321
0.299133
0.299107
0.298912
0.298891
0.298693
0.298675
0.298473
0.298458
0.298252
0.298239
0.29803
0.298019
0.297808
0.297797
0.297583
0.297574
0.297358
0.29735
0.297132
0.297124
0.296905
0.296898
0.296678
0.296672
0.29645
0.296445
0.296223
0.296218
0.295996
0.295992
0.29577
0.295766
0.295544
0.295541
0.29532
0.295317
0.295097
0.295094
0.294875
0.294872
0.294654
0.294652
0.294435
0.294433
0.294217
0.294215
0.294001
0.293999
0.293786
0.293784
0.293572
0.29357
0.29336
0.293358
0.293148
0.293147
0.292938
0.292937
0.292729
0.292728
0.292521
0.29252
0.292313
0.292314
0.292315
0.292522
0.29273
0.292939
0.293149
0.29336
0.293573
0.293786
0.294002
0.294218
0.294437
0.294656
0.294877
0.295099
0.295323
0.295548
0.295773
0.296
0.296227
0.296455
0.296683
0.296911
0.297138
0.297365
0.297591
0.297816
0.29804
0.298263
0.298485
0.298707
0.29893
0.299155
0.299385
0.299624
0.299875
0.300143
0.300424
0.300712
0.301015
0.301335
0.301659
0.301996
0.302346
0.30271
0.303085
0.303467
0.305699
0.305678
0.303852
0.304234
0.304607
0.30497
0.30532
0.305996
0.306014
0.306033
0.305719
0.30539
0.305048
0.304691
0.304322
0.303947
0.303569
0.303194
0.302828
0.302473
0.302132
0.301809
0.301504
0.301216
0.300943
0.300681
0.30043
0.300192
0.299965
0.299743
0.299521
0.299303
0.299088
0.298874
0.298659
0.298443
0.298226
0.298007
0.297786
0.297564
0.297341
0.297116
0.296891
0.296665
0.296439
0.296213
0.295987
0.295762
0.295538
0.295314
0.295091
0.29487
0.29465
0.294431
0.294214
0.293997
0.293783
0.293569
0.293357
0.293146
0.292936
0.292727
0.29252
0.292313
0.292107
0.292107
0.292108
0.292109
0.29211
0.292316
0.292523
0.292731
0.29294
0.29315
0.293361
0.293574
0.293788
0.294003
0.29422
0.294438
0.294658
0.294879
0.295101
0.295325
0.29555
0.295777
0.296003
0.296231
0.296459
0.296687
0.296915
0.297143
0.29737
0.297596
0.297822
0.298046
0.298269
0.298492
0.298714
0.298938
0.299164
0.299394
0.299628
0.299872
0.30013
0.300399
0.300681
0.300975
0.301284
0.301608
0.301947
0.3023
0.302665
0.303043
0.303427
0.303813
0.304196
0.305656
0.304573
0.30494
0.305293
0.306336
0.306318
0.305979
0.306303
0.306631
0.306649
0.306354
0.30605
0.305735
0.305406
0.305064
0.304708
0.304341
0.303966
0.303589
0.303214
0.302846
0.30249
0.302148
0.301823
0.301515
0.301222
0.300944
0.30068
0.30043
0.300192
0.299962
0.299735
0.299513
0.299294
0.299077
0.298861
0.298646
0.29843
0.298214
0.297995
0.297776
0.297554
0.297332
0.297108
0.296884
0.296658
0.296433
0.296208
0.295982
0.295758
0.295534
0.295311
0.295089
0.294868
0.294648
0.29443
0.294212
0.293996
0.293782
0.293568
0.293356
0.293145
0.292936
0.292727
0.292519
0.292312
0.292107
0.291902
0.291902
0.291902
0.291903
0.291903
0.291904
0.291906
0.292111
0.292317
0.292524
0.292732
0.292941
0.293151
0.293362
0.293575
0.293789
0.294004
0.294221
0.29444
0.294659
0.294881
0.295103
0.295327
0.295552
0.295778
0.296005
0.296233
0.29646
0.296688
0.296916
0.297144
0.297371
0.297596
0.297821
0.298045
0.298268
0.298491
0.298713
0.298937
0.299162
0.299391
0.299624
0.299864
0.300114
0.300377
0.300651
0.30094
0.301245
0.301566
0.301902
0.302255
0.302622
0.302999
0.303384
0.303771
0.304157
0.304538
0.305634
0.304908
0.305266
0.306614
0.30694
0.306922
0.30596
0.306289
0.306601
0.307232
0.307253
0.30696
0.306667
0.306369
0.306063
0.305747
0.305417
0.30507
0.304711
0.304341
0.303965
0.303587
0.303212
0.302843
0.302487
0.302146
0.30182
0.301512
0.301219
0.300941
0.300677
0.300427
0.300186
0.299954
0.299727
0.299504
0.299285
0.299067
0.298851
0.298635
0.298419
0.298202
0.297984
0.297765
0.297545
0.297323
0.297101
0.296877
0.296652
0.296427
0.296203
0.295978
0.295754
0.295531
0.295308
0.295087
0.294866
0.294646
0.294428
0.294211
0.293995
0.293781
0.293567
0.293355
0.293144
0.292935
0.292726
0.292519
0.292312
0.292107
0.291902
0.291699
0.291698
0.291698
0.291698
0.291698
0.291699
0.2917
0.291701
0.291702
0.291907
0.292112
0.292318
0.292525
0.292733
0.292942
0.293152
0.293363
0.293576
0.29379
0.294005
0.294222
0.294441
0.29466
0.294881
0.295104
0.295327
0.295552
0.295778
0.296005
0.296232
0.29646
0.296687
0.296915
0.297142
0.297368
0.297593
0.297817
0.298041
0.298263
0.298485
0.298706
0.298929
0.299153
0.299379
0.29961
0.299848
0.300094
0.300352
0.300622
0.300907
0.301208
0.301525
0.301859
0.30221
0.302576
0.302954
0.303339
0.303728
0.304118
0.304502
0.304876
0.305611
0.305237
0.306907
0.307213
0.305942
0.307548
0.307527
0.306276
0.306591
0.306896
0.307851
0.307876
0.307572
0.307274
0.306979
0.306682
0.306381
0.306072
0.305751
0.305418
0.305071
0.304711
0.30434
0.303963
0.303585
0.303209
0.302841
0.302484
0.302142
0.301816
0.301506
0.301213
0.300934
0.30067
0.300418
0.300177
0.299944
0.299716
0.299494
0.299275
0.299058
0.298842
0.298626
0.29841
0.298193
0.297975
0.297756
0.297537
0.297315
0.297093
0.29687
0.296647
0.296422
0.296198
0.295974
0.295751
0.295528
0.295306
0.295084
0.294864
0.294645
0.294427
0.29421
0.293994
0.29378
0.293567
0.293355
0.293144
0.292934
0.292726
0.292519
0.292312
0.292107
0.291903
0.2917
0.291498
0.291497
0.291496
0.291495
0.291495
0.291495
0.291495
0.291496
0.291497
0.291499
0.291704
0.291908
0.292113
0.292319
0.292526
0.292734
0.292943
0.293153
0.293364
0.293577
0.29379
0.294006
0.294223
0.294441
0.29466
0.294881
0.295103
0.295327
0.295552
0.295777
0.296003
0.29623
0.296457
0.296684
0.296911
0.297137
0.297362
0.297586
0.29781
0.298032
0.298254
0.298474
0.298695
0.298916
0.299138
0.299363
0.299593
0.299828
0.300072
0.300327
0.300594
0.300875
0.301172
0.301485
0.301817
0.302165
0.302529
0.302906
0.303292
0.303684
0.304077
0.304464
0.304841
0.305586
0.305208
0.2915
0.30556
0.3072
0.305921
0.307509
0.306261
0.30783
0.306582
0.308191
0.308165
0.306888
0.307191
0.308518
0.308547
0.308219
0.307903
0.307596
0.307295
0.306996
0.306697
0.306393
0.30608
0.305756
0.305419
0.30507
0.304708
0.304337
0.303959
0.30358
0.303204
0.302835
0.302478
0.302134
0.301807
0.301495
0.301201
0.300922
0.300657
0.300405
0.300163
0.29993
0.299704
0.299482
0.299263
0.299047
0.298832
0.298617
0.298401
0.298185
0.297967
0.297749
0.297529
0.297308
0.297087
0.296865
0.296642
0.296418
0.296194
0.295971
0.295748
0.295525
0.295303
0.295082
0.294862
0.294643
0.294425
0.294209
0.293993
0.293779
0.293566
0.293354
0.293144
0.292934
0.292726
0.292519
0.292312
0.292107
0.291904
0.291701
0.291498
0.291297
0.291296
0.291295
0.291294
0.291294
0.291293
0.291293
0.291293
0.291293
0.291294
0.291296
0.291297
0.291502
0.291705
0.29191
0.292114
0.29232
0.292527
0.292735
0.292943
0.293153
0.293364
0.293577
0.293791
0.294006
0.294223
0.294441
0.29466
0.294881
0.295103
0.295326
0.29555
0.295775
0.296001
0.296227
0.296453
0.296679
0.296905
0.29713
0.297354
0.297577
0.297799
0.298021
0.298241
0.298461
0.29868
0.2989
0.299121
0.299344
0.299572
0.299806
0.300048
0.3003
0.300564
0.300841
0.301135
0.301445
0.301773
0.302119
0.302481
0.302857
0.303244
0.303638
0.304032
0.304422
0.304805
0.305176
0.305533
0.291299
0.305877
0.305899
0.307497
0.306244
0.307814
0.306572
0.308145
0.306883
0.308493
0.307185
0.30889
0.308861
0.30749
0.291096
0.291095
0.291094
0.291093
0.291092
0.291092
0.291091
0.291091
0.291091
0.291092
0.291093
0.291095
0.291097
0.291301
0.291504
0.291707
0.291911
0.292115
0.292321
0.292528
0.292735
0.292944
0.293154
0.293365
0.293577
0.293791
0.294006
0.294223
0.294441
0.29466
0.29488
0.295102
0.295324
0.295548
0.295772
0.295997
0.296222
0.296447
0.296672
0.296897
0.29712
0.297344
0.297566
0.297787
0.298007
0.298226
0.298444
0.298662
0.29888
0.2991
0.299323
0.299549
0.299781
0.300021
0.300271
0.300532
0.300806
0.301096
0.301403
0.301728
0.302071
0.302431
0.302806
0.303194
0.303588
0.303984
0.304378
0.304764
0.30514
0.305503
0.305853
0.306208
0.30619
0.291099
0.30925
0.309282
0.308922
0.308578
0.308248
0.307929
0.307619
0.307315
0.307013
0.30671
0.306402
0.306085
0.305757
0.305418
0.305066
0.304702
0.304329
0.30395
0.303569
0.303192
0.302822
0.302464
0.30212
0.301792
0.30148
0.301185
0.300906
0.300641
0.300389
0.300148
0.299915
0.299689
0.299467
0.29925
0.299034
0.29882
0.298606
0.298391
0.298176
0.297959
0.297741
0.297522
0.297302
0.297081
0.296859
0.296637
0.296414
0.296191
0.295968
0.295745
0.295523
0.295301
0.29508
0.294861
0.294642
0.294424
0.294208
0.293992
0.293778
0.293565
0.293354
0.293143
0.292934
0.292726
0.292519
0.292313
0.292108
0.291904
0.291701
0.291499
0.291298
0.291097
0.306227
0.307803
0.306516
0.30653
0.30656
0.30813
0.306877
0.308475
0.307182
0.308838
0.307486
0.309223
0.307797
0.30966
0.309629
0.291102
0.291303
0.291506
0.291708
0.291912
0.292117
0.292322
0.292528
0.292736
0.292945
0.293154
0.293365
0.293578
0.293791
0.294006
0.294222
0.29444
0.294659
0.294879
0.2951
0.295322
0.295544
0.295768
0.295992
0.296216
0.29644
0.296664
0.296887
0.29711
0.297331
0.297552
0.297772
0.297991
0.298208
0.298425
0.298642
0.298859
0.299078
0.299299
0.299523
0.299754
0.299992
0.30024
0.300498
0.300769
0.301056
0.301359
0.301681
0.302022
0.30238
0.302754
0.303141
0.303536
0.303935
0.304331
0.304723
0.305103
0.30547
0.305826
0.306167
0.306497
0.309698
0.309319
0.308957
0.308609
0.308275
0.307952
0.307638
0.30733
0.307024
0.306717
0.306406
0.306085
0.305755
0.305413
0.305058
0.304692
0.304316
0.303936
0.303554
0.303176
0.302806
0.302447
0.302103
0.301774
0.301462
0.301167
0.300888
0.300623
0.300371
0.30013
0.299897
0.299672
0.299451
0.299234
0.29902
0.298807
0.298594
0.29838
0.298166
0.29795
0.297733
0.297515
0.297296
0.297075
0.296854
0.296632
0.29641
0.296187
0.295965
0.295742
0.29552
0.295299
0.295079
0.294859
0.29464
0.294423
0.294206
0.293991
0.293777
0.293564
0.293353
0.293143
0.292933
0.292725
0.292519
0.292313
0.292108
0.291905
0.291702
0.2915
0.291299
0.291098
0.290898
0.290897
0.290896
0.290895
0.290894
0.290893
0.290892
0.290891
0.29089
0.29089
0.29089
0.290891
0.290892
0.290893
0.290896
0.290898
0.310095
0.290901
0.306835
0.306821
0.310058
0.306545
0.308121
0.290701
0.290698
0.290695
0.290693
0.290691
0.29069
0.290689
0.290689
0.29069
0.290691
0.290692
0.290693
0.290694
0.290695
0.290696
0.290697
0.290698
0.306844
0.306869
0.308462
0.310511
0.310555
0.310138
0.309738
0.309356
0.308989
0.308638
0.308299
0.307972
0.307654
0.307342
0.307032
0.306721
0.306405
0.306083
0.30575
0.305404
0.305047
0.304679
0.304302
0.30392
0.303537
0.303158
0.302787
0.302428
0.302083
0.301754
0.301442
0.301147
0.300868
0.300603
0.300351
0.30011
0.299878
0.299653
0.299433
0.299218
0.299004
0.298792
0.29858
0.298367
0.298154
0.29794
0.297724
0.297507
0.297289
0.297069
0.296848
0.296627
0.296405
0.296183
0.295961
0.295739
0.295518
0.295297
0.295077
0.294857
0.294639
0.294421
0.294205
0.29399
0.293776
0.293564
0.293352
0.293142
0.292933
0.292725
0.292519
0.292313
0.292108
0.291905
0.291702
0.2915
0.291299
0.291099
0.290899
0.290699
0.307139
0.307149
0.30718
0.308822
0.307485
0.309203
0.307795
0.309605
0.308117
0.310029
0.310476
0.31099
0.310948
0.312538
0.311971
0.290704
0.290904
0.291104
0.291305
0.291507
0.29171
0.291913
0.292118
0.292323
0.292529
0.292737
0.292945
0.293155
0.293366
0.293578
0.293791
0.294006
0.294222
0.294439
0.294657
0.294877
0.295097
0.295318
0.29554
0.295763
0.295986
0.296209
0.296432
0.296654
0.296876
0.297098
0.297318
0.297537
0.297756
0.297973
0.29819
0.298405
0.298621
0.298837
0.299054
0.299273
0.299496
0.299725
0.299962
0.300206
0.300461
0.300729
0.301013
0.301314
0.301634
0.301971
0.302327
0.3027
0.303086
0.303482
0.303883
0.304284
0.304678
0.305063
0.305436
0.305797
0.306142
0.306476
0.306804
0.307126
0.290501
0.307458
0.30745
0.331915
0.290504
0.306856
0.308454
0.290498
0.290495
0.290492
0.290491
0.29049
0.290489
0.290489
0.29049
0.290491
0.290492
0.290493
0.290494
0.290496
0.290497
0.290498
0.290499
0.2905
0.307157
0.307176
0.30881
0.312044
0.311043
0.310605
0.310183
0.309779
0.309391
0.309019
0.308663
0.308319
0.307988
0.307666
0.307349
0.307036
0.306722
0.306404
0.306078
0.305742
0.305394
0.305034
0.304664
0.304285
0.303901
0.303517
0.303137
0.302766
0.302406
0.302061
0.301733
0.301421
0.301126
0.300847
0.300582
0.30033
0.30009
0.299858
0.299634
0.299414
0.299199
0.298987
0.298775
0.298564
0.298353
0.298141
0.297928
0.297714
0.297498
0.29728
0.297062
0.296842
0.296622
0.2964
0.296179
0.295958
0.295736
0.295515
0.295294
0.295074
0.294855
0.294637
0.29442
0.294204
0.293989
0.293775
0.293563
0.293351
0.293141
0.292933
0.292725
0.292518
0.292313
0.292109
0.291905
0.291703
0.291501
0.2913
0.2911
0.2909
0.2907
0.290501
0.307466
0.307486
0.309188
0.307778
0.307784
0.307796
0.309586
0.308116
0.310008
0.30845
0.310451
0.310917
0.311406
0.312463
0.290301
0.290305
0.313299
0.313831
0.290507
0.290706
0.290906
0.291106
0.291307
0.291509
0.291711
0.291915
0.292119
0.292324
0.29253
0.292737
0.292945
0.293155
0.293366
0.293578
0.293791
0.294005
0.294221
0.294437
0.294655
0.294874
0.295094
0.295315
0.295536
0.295758
0.29598
0.296202
0.296423
0.296645
0.296865
0.297085
0.297304
0.297522
0.297739
0.297955
0.29817
0.298384
0.298598
0.298813
0.299028
0.299246
0.299469
0.299696
0.29993
0.300172
0.300424
0.30069
0.300971
0.301269
0.301585
0.30192
0.302273
0.302644
0.30303
0.303427
0.30383
0.304233
0.304631
0.305022
0.305401
0.305765
0.306116
0.306455
0.306787
0.307114
0.30744
0.30777
0.313928
0.313027
0.308113
0.308109
0.330958
0.307166
0.308804
0.290298
0.290295
0.290293
0.290291
0.29029
0.29029
0.29029
0.29029
0.290291
0.290292
0.290293
0.290295
0.290296
0.290298
0.290299
0.2903
0.290301
0.290303
0.307472
0.307484
0.309178
0.31999
0.311566
0.311103
0.310657
0.310228
0.309817
0.309423
0.309046
0.308684
0.308337
0.308002
0.307675
0.307355
0.307039
0.306722
0.306401
0.306072
0.305733
0.305382
0.30502
0.304647
0.304266
0.303881
0.303496
0.303115
0.302743
0.302383
0.302038
0.30171
0.301398
0.301103
0.300824
0.30056
0.300308
0.300068
0.299837
0.299613
0.299394
0.29918
0.298968
0.298758
0.298548
0.298338
0.298127
0.297915
0.297701
0.297487
0.29727
0.297053
0.296834
0.296615
0.296395
0.296174
0.295953
0.295732
0.295512
0.295291
0.295072
0.294853
0.294635
0.294418
0.294202
0.293988
0.293774
0.293562
0.293351
0.293141
0.292932
0.292725
0.292518
0.292313
0.292109
0.291905
0.291703
0.291501
0.291301
0.2911
0.290901
0.290701
0.290502
0.290304
0.307789
0.307797
0.309574
0.308117
0.308117
0.309992
0.308459
0.30846
0.308451
0.310433
0.308801
0.310895
0.311378
0.311885
0.290103
0.290106
0.312415
0.312968
0.329756
0.313521
0.290308
0.29031
0.290509
0.290708
0.290908
0.291108
0.291309
0.29151
0.291712
0.291916
0.29212
0.292325
0.29253
0.292737
0.292946
0.293155
0.293365
0.293577
0.29379
0.294004
0.294219
0.294436
0.294653
0.294871
0.295091
0.29531
0.295531
0.295752
0.295973
0.296194
0.296414
0.296634
0.296854
0.297072
0.29729
0.297507
0.297722
0.297936
0.29815
0.298362
0.298574
0.298788
0.299002
0.29922
0.29944
0.299665
0.299897
0.300137
0.300387
0.30065
0.300929
0.301223
0.301536
0.301868
0.302219
0.302588
0.302973
0.303371
0.303774
0.30418
0.304584
0.304978
0.305361
0.305731
0.306088
0.306433
0.306769
0.307101
0.30743
0.307765
0.308107
0.308458
0.322721
0.308822
0.308823
0.323819
0.329431
0.307477
0.309173
0.290099
0.290096
0.290094
0.290092
0.290091
0.290091
0.290091
0.290091
0.290091
0.290093
0.290094
0.290095
0.290097
0.290099
0.2901
0.290101
0.290103
0.290104
0.290105
0.307791
0.307798
0.309566
0.329464
0.319858
0.312163
0.311652
0.311167
0.310707
0.310268
0.30985
0.309451
0.309069
0.308703
0.308352
0.308013
0.307683
0.307361
0.307042
0.306722
0.306397
0.306065
0.305723
0.305369
0.305004
0.304628
0.304245
0.303858
0.303472
0.303091
0.302718
0.302359
0.302014
0.301685
0.301374
0.301079
0.3008
0.300536
0.300285
0.300045
0.299814
0.299591
0.299373
0.299159
0.298948
0.298739
0.29853
0.298321
0.298111
0.2979
0.297688
0.297474
0.297259
0.297043
0.296825
0.296607
0.296388
0.296168
0.295948
0.295728
0.295508
0.295288
0.295069
0.29485
0.294633
0.294416
0.294201
0.293986
0.293773
0.293561
0.29335
0.29314
0.292932
0.292724
0.292518
0.292313
0.292109
0.291906
0.291703
0.291502
0.291301
0.291101
0.290901
0.290702
0.290503
0.290305
0.290106
0.30812
0.308119
0.309982
0.308462
0.308452
0.31042
0.308822
0.308802
0.310879
0.309204
0.309202
0.309171
0.311359
0.31186
0.289904
0.289907
0.312382
0.312925
0.313481
0.314009
0.290109
0.290112
0.290313
0.290511
0.29071
0.29091
0.29111
0.29131
0.291512
0.291714
0.291917
0.29212
0.292325
0.292531
0.292738
0.292945
0.293154
0.293365
0.293576
0.293789
0.294002
0.294217
0.294433
0.29465
0.294868
0.295087
0.295306
0.295525
0.295745
0.295965
0.296185
0.296405
0.296624
0.296842
0.29706
0.297276
0.297491
0.297705
0.297918
0.29813
0.298341
0.298551
0.298763
0.298977
0.299193
0.29941
0.299633
0.299864
0.300101
0.30035
0.300612
0.300886
0.301178
0.301488
0.301817
0.302166
0.302534
0.302917
0.303314
0.303719
0.304127
0.304534
0.304932
0.30532
0.305696
0.306058
0.306409
0.30675
0.307086
0.307421
0.307759
0.308101
0.308455
0.308824
0.309205
0.314378
0.309602
0.309604
0.314438
0.290114
0.307794
0.309562
0.2899
0.289897
0.289895
0.289893
0.289892
0.289892
0.289891
0.289891
0.289892
0.289893
0.289895
0.289896
0.289898
0.2899
0.289901
0.289902
0.289904
0.289905
0.289907
0.289908
0.308121
0.308122
0.309975
0.313804
0.313277
0.312755
0.312225
0.311701
0.311208
0.310742
0.310299
0.309876
0.309473
0.309088
0.308719
0.308365
0.308023
0.307691
0.307366
0.307044
0.306721
0.306393
0.306058
0.305712
0.305355
0.304986
0.304608
0.304223
0.303834
0.303447
0.303065
0.302692
0.302332
0.301987
0.301659
0.301348
0.301054
0.300775
0.300512
0.300261
0.300022
0.299791
0.299568
0.299351
0.299138
0.298927
0.298719
0.29851
0.298302
0.298094
0.297884
0.297673
0.29746
0.297247
0.297031
0.296815
0.296598
0.296379
0.296161
0.295941
0.295722
0.295503
0.295284
0.295065
0.294847
0.29463
0.294414
0.294199
0.293984
0.293771
0.293559
0.293349
0.293139
0.292931
0.292724
0.292518
0.292313
0.292109
0.291906
0.291704
0.291502
0.291302
0.291102
0.290902
0.290703
0.290504
0.290306
0.290108
0.289909
0.308464
0.308455
0.310411
0.308822
0.308803
0.310868
0.314345
0.309201
0.309171
0.311345
0.309599
0.30956
0.311842
0.289706
0.289709
0.310021
0.310019
0.312358
0.312893
0.313445
0.313994
0.314494
0.28991
0.289913
0.289916
0.290116
0.290315
0.290513
0.290712
0.290912
0.291111
0.291312
0.291513
0.291715
0.291917
0.292121
0.292325
0.292531
0.292737
0.292945
0.293154
0.293364
0.293575
0.293787
0.294
0.294215
0.29443
0.294647
0.294864
0.295082
0.2953
0.295519
0.295738
0.295957
0.296176
0.296395
0.296613
0.29683
0.297046
0.297261
0.297475
0.297688
0.2979
0.29811
0.29832
0.29853
0.29874
0.298952
0.299165
0.299381
0.299604
0.299831
0.300068
0.300315
0.300574
0.300845
0.301134
0.301442
0.301769
0.302116
0.302481
0.302863
0.30326
0.303665
0.304075
0.304484
0.304886
0.305279
0.30566
0.306028
0.306385
0.306732
0.307072
0.307411
0.307751
0.308098
0.308456
0.308824
0.309207
0.309606
0.310023
0.310458
0.314967
0.310461
0.314926
0.289918
0.308122
0.309971
0.289702
0.289699
0.289696
0.289694
0.289693
0.289693
0.289692
0.289692
0.289693
0.289694
0.289695
0.289697
0.289699
0.2897
0.289702
0.289704
0.289705
0.289707
0.289708
0.28971
0.289711
0.308463
0.308458
0.310405
0.313781
0.313244
0.312721
0.312204
0.311706
0.311224
0.310762
0.310319
0.309895
0.30949
0.309103
0.308733
0.308377
0.308033
0.307699
0.307371
0.307046
0.30672
0.306388
0.306049
0.305699
0.305339
0.304967
0.304586
0.304199
0.303809
0.30342
0.303037
0.302664
0.302304
0.30196
0.301632
0.301321
0.301027
0.300749
0.300486
0.300236
0.299997
0.299767
0.299544
0.299327
0.299115
0.298905
0.298697
0.29849
0.298283
0.298075
0.297866
0.297656
0.297445
0.297232
0.297018
0.296803
0.296587
0.29637
0.296152
0.295934
0.295715
0.295497
0.295279
0.295061
0.294843
0.294627
0.294411
0.294196
0.293982
0.29377
0.293558
0.293348
0.293138
0.29293
0.292723
0.292518
0.292313
0.292109
0.291906
0.291704
0.291503
0.291302
0.291102
0.290903
0.290704
0.290505
0.290307
0.290109
0.289911
0.289712
0.308821
0.308807
0.31086
0.314326
0.314896
0.309199
0.309173
0.311335
0.309596
0.309561
0.311829
0.289507
0.289511
0.310015
0.30997
0.310455
0.312341
0.31287
0.310917
0.310914
0.313415
0.31397
0.314506
0.315005
0.289712
0.289715
0.289717
0.289719
0.289919
0.290118
0.290316
0.290515
0.290714
0.290913
0.291113
0.291313
0.291514
0.291715
0.291918
0.292121
0.292325
0.292531
0.292737
0.292944
0.293153
0.293362
0.293573
0.293785
0.293998
0.294212
0.294427
0.294643
0.294859
0.295077
0.295294
0.295512
0.295731
0.295949
0.296167
0.296384
0.296601
0.296817
0.297032
0.297246
0.297459
0.29767
0.297881
0.29809
0.298299
0.298507
0.298716
0.298926
0.299138
0.299354
0.299574
0.2998
0.300035
0.300279
0.300534
0.300805
0.301092
0.301397
0.301723
0.302068
0.302431
0.302813
0.303208
0.303614
0.304025
0.304435
0.304841
0.305239
0.305625
0.305999
0.306361
0.306713
0.307058
0.307401
0.307745
0.308096
0.308453
0.308825
0.309208
0.309609
0.310027
0.310465
0.310923
0.311394
0.315474
0.311401
0.315503
0.289721
0.308461
0.310402
0.289504
0.289501
0.289498
0.289496
0.289494
0.289494
0.289494
0.289493
0.289494
0.289495
0.289496
0.289498
0.2895
0.289501
0.289503
0.289505
0.289507
0.289508
0.28951
0.289511
0.289513
0.289514
0.308819
0.308811
0.310855
0.314319
0.313774
0.313238
0.312714
0.312204
0.311711
0.311234
0.310774
0.310332
0.309909
0.309504
0.309116
0.308745
0.308388
0.308042
0.307706
0.307376
0.307048
0.306718
0.306382
0.306039
0.305686
0.305321
0.304947
0.304563
0.304173
0.303781
0.303392
0.303008
0.302635
0.302275
0.301931
0.301603
0.301293
0.301
0.300722
0.300459
0.30021
0.299971
0.299741
0.299519
0.299303
0.299091
0.298882
0.298674
0.298468
0.298261
0.298055
0.297847
0.297638
0.297428
0.297217
0.297004
0.29679
0.296575
0.296359
0.296142
0.295925
0.295708
0.29549
0.295273
0.295056
0.294839
0.294623
0.294408
0.294193
0.29398
0.293768
0.293557
0.293346
0.293137
0.29293
0.292723
0.292517
0.292313
0.292109
0.291906
0.291704
0.291503
0.291303
0.291103
0.290904
0.290705
0.290506
0.290308
0.29011
0.289912
0.289714
0.289515
0.315447
0.309195
0.309177
0.311329
0.314876
0.314869
0.309593
0.309563
0.311821
0.289309
0.289312
0.310011
0.309971
0.310401
0.31045
0.31233
0.312855
0.310909
0.313393
0.311387
0.313947
0.311893
0.311886
0.314495
0.315021
0.315528
0.289514
0.289516
0.289518
0.28952
0.289522
0.289722
0.28992
0.290119
0.290317
0.290516
0.290715
0.290914
0.291114
0.291314
0.291515
0.291716
0.291918
0.292121
0.292325
0.29253
0.292736
0.292943
0.293151
0.293361
0.293571
0.293782
0.293995
0.294208
0.294423
0.294638
0.294854
0.295071
0.295288
0.295505
0.295722
0.29594
0.296157
0.296373
0.296589
0.296804
0.297017
0.29723
0.297442
0.297652
0.297861
0.298069
0.298277
0.298484
0.298692
0.2989
0.299112
0.299326
0.299544
0.299769
0.300002
0.300243
0.300497
0.300767
0.301052
0.301356
0.301679
0.30202
0.302382
0.302763
0.303159
0.303565
0.303976
0.304389
0.304798
0.3052
0.305591
0.30597
0.306337
0.306693
0.307043
0.30739
0.307739
0.308091
0.308453
0.308824
0.309211
0.309611
0.310031
0.310471
0.310931
0.311409
0.311902
0.312399
0.316039
0.316017
0.312412
0.289523
0.308815
0.310852
0.289306
0.289302
0.289299
0.289297
0.289296
0.289295
0.289295
0.289294
0.289294
0.289295
0.289297
0.289299
0.2893
0.289302
0.289304
0.289306
0.289308
0.289309
0.289311
0.289313
0.289314
0.289315
0.289317
0.315993
0.309191
0.309181
0.316554
0.316532
0.311324
0.315426
0.315419
0.315425
0.314874
0.314325
0.313781
0.313247
0.312724
0.312215
0.311721
0.311244
0.310785
0.310343
0.30992
0.309515
0.309128
0.308756
0.308398
0.308051
0.307713
0.30738
0.307048
0.306715
0.306375
0.306028
0.305671
0.305303
0.304924
0.304538
0.304146
0.303752
0.303361
0.302977
0.302604
0.302244
0.3019
0.301573
0.301263
0.300971
0.300694
0.300431
0.300182
0.299944
0.299715
0.299493
0.299277
0.299065
0.298857
0.29865
0.298445
0.298239
0.298033
0.297827
0.297619
0.29741
0.2972
0.296988
0.296776
0.296562
0.296347
0.296131
0.295915
0.295699
0.295483
0.295266
0.29505
0.294834
0.294619
0.294404
0.29419
0.293977
0.293766
0.293555
0.293345
0.293136
0.292929
0.292722
0.292517
0.292312
0.292109
0.291907
0.291705
0.291504
0.291304
0.291104
0.290905
0.290706
0.290507
0.290309
0.290111
0.289913
0.289715
0.289516
0.289318
0.309587
0.309566
0.311815
0.289111
0.289114
0.310005
0.309973
0.310401
0.310444
0.312322
0.312845
0.310903
0.310852
0.31338
0.311381
0.313926
0.311878
0.31448
0.312392
0.31502
0.312933
0.312921
0.315544
0.316055
0.289315
0.289318
0.28932
0.289322
0.289323
0.289325
0.289326
0.289525
0.289723
0.289922
0.29012
0.290318
0.290517
0.290716
0.290915
0.291115
0.291315
0.291515
0.291717
0.291919
0.292121
0.292325
0.29253
0.292735
0.292942
0.29315
0.293359
0.293569
0.29378
0.293992
0.294205
0.294419
0.294633
0.294848
0.295064
0.29528
0.295497
0.295713
0.29593
0.296146
0.296361
0.296575
0.296789
0.297002
0.297213
0.297424
0.297633
0.297841
0.298048
0.298254
0.29846
0.298667
0.298874
0.299084
0.299297
0.299514
0.299738
0.299969
0.30021
0.300463
0.300731
0.301015
0.301317
0.301636
0.301976
0.302337
0.302717
0.303112
0.303517
0.303931
0.304346
0.304757
0.305162
0.305557
0.30594
0.306312
0.306673
0.307027
0.307379
0.30773
0.308087
0.308449
0.308825
0.30921
0.309612
0.310035
0.310477
0.31094
0.31142
0.311922
0.31244
0.312959
0.313463
0.313479
0.314013
0.316569
0.317085
0.309186
0.314402
0.314937
0.317077
0.317059
0.315973
0.315964
0.31597
0.316512
0.316503
0.31651
0.31704
0.317034
0.317041
0.317554
0.317556
0.317561
0.317573
0.31807
0.318062
0.318058
0.311322
0.289108
0.289104
0.289101
0.289099
0.289097
0.289096
0.289095
0.289095
0.289095
0.289096
0.289098
0.289099
0.289101
0.289103
0.289105
0.289107
0.289109
0.28911
0.289112
0.289114
0.289115
0.289116
0.289118
0.289119
0.313566
0.313027
0.312481
0.311946
0.311432
0.310946
0.310484
0.310039
0.309612
0.309207
0.308816
0.308442
0.308075
0.307718
0.307363
0.307009
0.30665
0.306284
0.305909
0.305522
0.305123
0.304716
0.304302
0.303886
0.303472
0.303067
0.302675
0.302298
0.301938
0.301598
0.301278
0.300979
0.300697
0.30043
0.300178
0.299937
0.299707
0.299485
0.299268
0.299056
0.298847
0.298641
0.298435
0.29823
0.298025
0.297819
0.297612
0.297405
0.297195
0.296985
0.296774
0.296561
0.296348
0.296133
0.295919
0.295703
0.295488
0.295272
0.295057
0.294842
0.294628
0.294414
0.2942
0.293988
0.293777
0.293566
0.293356
0.293148
0.292941
0.292734
0.292529
0.292325
0.292121
0.291919
0.291717
0.291516
0.291315
0.291115
0.290916
0.290717
0.290518
0.29032
0.290121
0.289923
0.289724
0.289526
0.289327
0.309581
0.309571
0.311811
0.289117
0.289119
0.289121
0.289123
0.289124
0.289126
0.289127
0.289128
0.318085
0.317577
0.317056
0.316524
0.315984
0.315438
0.314888
0.314339
0.313796
0.313262
0.312739
0.31223
0.311736
0.311258
0.310798
0.310356
0.309933
0.309528
0.30914
0.308768
0.308409
0.30806
0.30772
0.307383
0.307048
0.306711
0.306367
0.306016
0.305654
0.305282
0.304901
0.304511
0.304117
0.303722
0.30333
0.302945
0.302572
0.302212
0.301869
0.301542
0.301233
0.300941
0.300664
0.300403
0.300154
0.299916
0.299687
0.299466
0.29925
0.299039
0.298831
0.298625
0.29842
0.298215
0.29801
0.297805
0.297598
0.29739
0.297181
0.296971
0.29676
0.296547
0.296334
0.296119
0.295905
0.295689
0.295474
0.295258
0.295043
0.294828
0.294614
0.2944
0.294187
0.293974
0.293763
0.293553
0.293343
0.293135
0.292928
0.292722
0.292516
0.292312
0.292109
0.291907
0.291705
0.291504
0.291304
0.291105
0.290905
0.290707
0.290508
0.29031
0.290112
0.289914
0.289716
0.289517
0.289319
0.28912
0.309998
0.309976
0.310404
0.310437
0.312317
0.312838
0.310896
0.310853
0.288912
0.288915
0.313371
0.311374
0.311322
0.313914
0.31187
0.314466
0.312384
0.315013
0.312912
0.315546
0.313453
0.316069
0.314002
0.31658
0.314523
0.317088
0.317587
0.318581
0.318565
0.318073
0.319085
0.319067
0.309576
0.321172
0.31712
0.318554
0.318548
0.31181
0.314851
0.314261
0.313658
0.313072
0.312507
0.311962
0.311443
0.310954
0.310491
0.310043
0.309611
0.309199
0.308809
0.30843
0.308064
0.307702
0.307345
0.306986
0.306624
0.306254
0.305875
0.305484
0.305082
0.304673
0.304257
0.303841
0.303429
0.303024
0.302633
0.302259
0.301901
0.301562
0.301243
0.300944
0.300663
0.300398
0.300146
0.299906
0.299676
0.299454
0.299239
0.299028
0.298819
0.298614
0.298409
0.298205
0.298001
0.297796
0.297591
0.297384
0.297176
0.296967
0.296757
0.296545
0.296333
0.29612
0.295907
0.295692
0.295478
0.295264
0.295049
0.294835
0.294621
0.294408
0.294196
0.293984
0.293773
0.293563
0.293354
0.293146
0.292939
0.292733
0.292528
0.292324
0.292121
0.291919
0.291717
0.291516
0.291316
0.291116