/*--------------------------------*- C++ -*----------------------------------*\
| =========                 |                                                 |
| \\      /  F ield         | OpenFOAM: The Open Source CFD Toolbox           |
|  \\    /   O peration     | Version:  2212                                  |
|   \\  /    A nd           | Website:  www.openfoam.com                      |
|    \\/     M anipulation  |                                                 |
\*---------------------------------------------------------------------------*/
FoamFile
{
    version     2.0;
    format      ascii;
    arch        "LSB;label=32;scalar=64";
    class       volVectorField;
    location    "0.00867";
    object      U;
}
// * * * * * * * * * * * * * * * * * * * * * * * * * * * * * * * * * * * * * //

dimensions      [0 1 -1 0 0 0 0];

internalField   nonuniform List<vector> 
2681
(
(4.03762 -7.89765 -1.96104e-18)
(9.33082 -10.7433 0)
(9.70889 -9.00911 -2.91233e-18)
(-0.0924602 -0.127995 -8.59166e-18)
(13.7212 -7.28966 1.99565e-18)
(-10.7406 -10.173 4.82793e-18)
(-0.0210455 -0.0456499 -2.13693e-18)
(0.0984268 -0.14379 2.77832e-19)
(0.116603 -0.188992 5.50832e-19)
(0.134596 -0.216665 -1.38696e-19)
(-0.069816 -0.117289 0)
(-0.323644 -0.559089 -1.47285e-19)
(-0.289106 -0.475534 -1.43012e-19)
(1.25552 -2.197 0)
(-0.459595 -0.736336 -6.53631e-19)
(0.621506 -0.945668 1.0708e-18)
(0.903828 -1.45838 0)
(-0.106924 -0.160506 -6.84726e-19)
(-0.126055 -0.175679 3.03452e-18)
(-0.139411 -0.19826 -3.50492e-18)
(-0.187943 -0.282199 -1.12855e-17)
(-0.313566 -0.442316 8.309e-19)
(-0.267978 -0.372169 -3.32008e-18)
(-0.228897 -0.321829 2.2371e-18)
(-0.413967 -0.643389 -1.24133e-18)
(-0.361628 -0.528534 0)
(-0.0743847 -0.151644 -2.60117e-18)
(-0.0434777 -0.104327 2.4372e-19)
(-0.0721094 -0.129223 1.10745e-18)
(-0.121231 -0.20923 1.32796e-18)
(-0.0994209 -0.17126 -6.27745e-19)
(-0.162014 -0.24731 1.30154e-18)
(-0.143746 -0.229735 -1.13615e-18)
(-0.216109 -0.344333 5.75671e-19)
(-0.187591 -0.294675 0)
(-0.252398 -0.405103 -8.51898e-19)
(0.276776 -0.426847 2.15262e-18)
(0.338707 -0.502082 2.57903e-19)
(0.395132 -0.592254 -5.14236e-19)
(0.30763 -0.533789 -5.21503e-19)
(0.344534 -0.628821 9.59732e-19)
(0.233534 -0.364516 0)
(0.270652 -0.441958 -2.72222e-19)
(0.180756 -0.295484 0)
(0.206849 -0.331754 0)
(-3.80977 -8.14608 0)
(0.153428 -0.248097 1.40488e-19)
(0.0982932 -0.164908 -1.0949e-18)
(-0.0337628 -0.0819951 0)
(0.058293 -0.121347 -2.78254e-19)
(0.0785854 -0.142363 6.2239e-23)
(0.449864 -0.702958 2.04845e-18)
(0.830713 -1.28809 1.53036e-19)
(0.118812 -0.144972 -2.77151e-19)
(0.0942236 -0.122957 5.64145e-19)
(-0.224267 -0.427706 1.43116e-19)
(-0.249197 -0.496747 -4.29324e-19)
(-0.0327091 -0.0908687 -2.89494e-19)
(0.0389236 -0.102344 0)
(0.0400087 -0.117426 5.52126e-19)
(0.0224351 -0.0982607 1.38363e-19)
(-0.159505 -0.197109 0)
(-0.134365 -0.165444 2.43337e-18)
(-0.214812 -0.257949 2.89073e-18)
(-0.187625 -0.232336 -4.95507e-19)
(-0.33124 -0.398853 -2.39797e-22)
(-0.280871 -0.326087 0)
(-0.45838 -0.578769 0)
(-0.391457 -0.484461 5.31921e-19)
(-0.0148981 -0.0352601 0)
(-0.492087 -0.677742 1.09757e-18)
(0.498261 -0.651938 2.50375e-19)
(0.563324 -0.793307 -9.01901e-19)
(0.324806 -0.396204 -1.61086e-18)
(0.426737 -0.51824 -4.82898e-19)
(-0.348004 -0.645355 5.93111e-19)
(-0.0218064 -0.0243992 0)
(1.14671 -1.97909 7.57187e-18)
(11.1322 -8.53653 4.8443e-18)
(-0.0561363 -0.139688 1.19378e-18)
(-0.0275381 -0.104477 -6.64889e-19)
(-0.0454422 -0.121571 1.68964e-18)
(-0.0923705 -0.187715 0)
(-0.0759293 -0.161757 1.23863e-18)
(-0.126312 -0.240255 1.24677e-18)
(-0.105336 -0.211312 -1.19994e-19)
(-0.172189 -0.318594 0)
(-0.150054 -0.2773 -5.9732e-19)
(-0.198942 -0.368922 8.59857e-19)
(0.235766 -0.461648 0)
(0.237465 -0.52233 0)
(0.175944 -0.345636 1.1503e-18)
(0.204222 -0.401556 -1.13086e-18)
(0.140899 -0.270299 2.90496e-19)
(0.151185 -0.302538 0)
(0.10991 -0.209824 0)
(0.125547 -0.237758 -2.81987e-19)
(0.0772085 -0.161012 0)
(0.0946378 -0.184551 0)
(0.0590325 -0.138632 5.48643e-19)
(0.0705203 -0.103965 -7.07698e-20)
(0.0547466 -0.103036 7.06659e-20)
(-0.270439 -0.568307 5.65939e-19)
(-0.603236 -0.968715 4.59083e-18)
(-0.498875 -0.829156 0)
(0.478686 -0.84041 -2.07838e-18)
(-0.0136972 -0.0854518 0)
(0.0210846 -0.109754 -1.37055e-19)
(0.00569659 -0.0912098 -6.85046e-19)
(-0.711665 -0.949241 -6.75438e-18)
(-0.850462 -1.21131 4.41201e-18)
(-0.668967 -1.12288 0)
(0.662331 -1.11473 0)
(0.20932 -0.523531 -1.97522e-18)
(0.293324 -0.682555 4.41172e-18)
(0.224769 -0.576639 4.87357e-18)
(0.086896 -0.103845 -5.6209e-19)
(0.0490867 -0.0874019 1.14246e-18)
(0.0628632 -0.0872432 5.7293e-19)
(-0.233968 -0.807145 -2.20273e-18)
(-1.19535 -1.92811 1.36855e-18)
(0.772603 -1.06406 -3.02113e-19)
(-7.08599 -11.4832 -1.02874e-17)
(-0.296533 -0.653669 1.11676e-18)
(-0.38411 -0.748282 -1.17217e-18)
(0.352625 -0.705275 0)
(-0.00328402 -0.0740127 0)
(8.96143 -11.4733 7.35443e-18)
(-0.0178522 -0.0781351 4.91626e-20)
(0.664973 -5.97792 0)
(1.25706 -2.39826 2.30986e-18)
(-0.117476 -0.138097 3.17663e-18)
(-0.0922191 -0.11534 -1.03266e-18)
(-0.188535 -0.195903 -2.65314e-19)
(-0.152289 -0.159309 2.71434e-19)
(-0.271611 -0.287252 -1.5201e-18)
(-0.230333 -0.231165 5.17857e-19)
(-0.402765 -0.425433 0)
(-0.330634 -0.342875 1.01955e-18)
(-0.57419 -0.666614 5.04539e-19)
(-0.486548 -0.528464 5.80212e-19)
(-0.649822 -0.824705 9.49051e-19)
(0.611465 -0.723305 2.47862e-19)
(0.695353 -0.88484 -6.0485e-19)
(0.42526 -0.473372 1.20873e-19)
(0.515714 -0.582904 5.38235e-23)
(0.989097 -1.41927 1.08188e-18)
(0.0761338 -0.122304 2.82082e-19)
(-1.26743 -43.1879 2.37194e-17)
(0.13971 -0.145027 -2.73837e-19)
(0.113026 -0.123374 0)
(-0.00893027 -0.0945654 1.36163e-19)
(0.00923813 -0.0684985 1.03632e-18)
(0.00184461 -0.0787021 0)
(-0.0348987 -0.129486 -5.94817e-19)
(-0.0215433 -0.111649 -1.11786e-18)
(-0.0659158 -0.175923 3.05735e-19)
(-0.0508253 -0.15166 -3.00974e-19)
(-0.0972762 -0.224247 -6.02555e-19)
(-0.0803647 -0.19868 5.73587e-19)
(-0.132539 -0.291807 0)
(-0.116227 -0.256326 -2.95548e-19)
(-0.171256 -0.380477 0)
(-0.153793 -0.33333 -2.84863e-19)
(-0.205959 -0.495023 -5.52823e-19)
(-0.189641 -0.434589 0)
(-1.2149 -2.15011 0)
(-0.224272 -0.565811 1.07307e-18)
(0.173545 -0.408616 -5.71651e-19)
(0.193905 -0.476891 1.24057e-18)
(0.134466 -0.314382 -5.67635e-19)
(0.153601 -0.359338 1.14543e-18)
(0.107752 -0.254194 -2.84685e-19)
(0.118061 -0.28115 0)
(0.0851126 -0.200693 6.81468e-20)
(0.0977261 -0.226247 0)
(0.0556588 -0.153078 -1.08592e-18)
(0.0722463 -0.176611 6.11393e-19)
(0.0384896 -0.13063 5.46798e-19)
(0.0217203 -0.0857897 4.20495e-19)
(-0.00640701 -0.0758522 1.35867e-18)
(0.00744915 -0.0816441 1.37518e-19)
(0.0355397 -0.0866639 -5.6509e-19)
(-0.0288539 -0.0286767 2.37613e-18)
(-0.0419342 -0.0709246 -3.33794e-18)
(-0.0516406 -0.0636432 -6.75419e-18)
(0.966781 -1.21058 -8.91901e-19)
(-0.899361 -1.44854 -2.37244e-18)
(-0.927561 -1.68882 1.23751e-18)
(-0.538285 -0.991466 2.39044e-18)
(-0.322633 -0.75473 -3.34583e-18)
(0.51491 -0.977964 0)
(0.0223055 -0.0584338 1.9423e-18)
(0.309066 -0.769009 -2.19383e-18)
(0.236636 -0.660905 2.2086e-18)
(0.103245 -0.103417 5.59739e-19)
(0.0771595 -0.0868756 -7.08542e-19)
(-0.707528 -1.30566 1.18076e-18)
(0.691874 -1.27357 2.45317e-18)
(0.002524 -0.0638455 0)
(0.010792 -0.0582105 -5.15484e-19)
(0.11716 -6.17566 3.15807e-21)
(0.10577 -6.87718 -4.19263e-21)
(-0.128037 -6.87901 -3.40797e-20)
(-0.140475 -6.1764 3.39337e-20)
(-0.0136626 -0.0641387 -5.40409e-19)
(-0.0182265 -0.0694989 -5.37813e-19)
(-0.0219666 -0.0602977 0)
(-0.203607 -0.648002 5.39304e-18)
(-1.11964 -1.63505 0)
(-0.0305068 -0.0339512 -2.54015e-18)
(-0.0314131 -0.0693159 1.09101e-18)
(1.40188 -42.3385 -9.78101e-18)
(6.00297 -7.82071 7.03516e-18)
(-11.7817 -8.00159 -2.70123e-18)
(-0.421046 -0.871366 0)
(0.41212 -0.85883 0)
(11.8971 -13.3821 1.15168e-17)
(-0.00901179 -0.066393 -1.11584e-18)
(-2.05875 -3.80118 4.45525e-18)
(-0.0836876 -0.0976988 -1.03352e-18)
(-0.0623183 -0.0812878 1.05264e-18)
(-0.142753 -0.137553 0)
(-0.110947 -0.115885 1.04187e-18)
(-0.220585 -0.198022 2.60762e-19)
(-0.179157 -0.164737 -5.25853e-19)
(-0.325238 -0.290171 5.1204e-19)
(-0.268045 -0.238618 -2.16515e-22)
(-0.484714 -0.450951 0)
(-0.397598 -0.358613 -2.54257e-19)
(-0.693175 -0.708694 0)
(-0.586483 -0.567343 -6.37568e-20)
(-0.902627 -1.10185 -1.0138e-18)
(-0.809394 -0.87507 0)
(-1.0174 -1.33137 -5.40142e-19)
(0.75402 -0.800457 4.95951e-19)
(0.8552 -0.994213 7.33399e-19)
(0.525657 -0.496631 -6.13182e-19)
(0.637958 -0.632435 -4.87718e-19)
(0.344841 -0.308491 1.27283e-19)
(0.425211 -0.38999 3.10543e-19)
(0.230847 -0.203285 -6.57819e-20)
(0.279338 -0.247407 0)
(0.160632 -0.145082 -5.2626e-19)
(0.192665 -0.17117 6.72681e-19)
(0.13125 -0.122725 0)
(0.0935533 -7.55048 1.04947e-21)
(0.0797656 -8.27952 -1.04859e-21)
(0.0672615 -9.02366 -1.62824e-20)
(0.0547532 -9.83846 5.02797e-20)
(0.0482212 -10.6823 -2.49419e-20)
(0.0479973 -11.5751 -4.12235e-21)
(0.0460035 -12.4792 -7.05938e-20)
(0.0372471 -13.4348 -1.28265e-19)
(0.0568908 -14.4096 -4.08482e-21)
(0.120588 -15.4774 -6.55633e-20)
(-0.205373 -15.4349 0)
(0.291814 -16.4832 1.2874e-19)
(0.529947 -17.3241 4.44919e-19)
(-0.542084 -17.2678 7.5325e-19)
(-0.288103 -16.3672 -2.5939e-19)
(-0.0780743 -13.418 1.36785e-19)
(-0.114836 -14.3721 2.59446e-19)
(-0.0423259 -11.5784 2.50634e-20)
(-0.0558469 -12.4733 0)
(-0.0556599 -9.83919 1.66772e-20)
(-0.0398919 -10.6828 2.48184e-24)
(-0.095123 -8.28305 1.78734e-20)
(-0.0760946 -9.02696 -3.77081e-20)
(-0.113369 -7.55321 -1.04951e-21)
(0.00672945 -0.0851437 0)
(0.013282 -0.0712861 0)
(-0.0148132 -0.11682 5.80253e-19)
(-0.00301104 -0.10018 0)
(-0.0415284 -0.159217 -2.9761e-19)
(-0.0282694 -0.137037 -2.94276e-19)
(-0.0694761 -0.206172 2.99772e-19)
(-0.0559237 -0.181468 -2.62455e-19)
(-0.0984297 -0.266102 -5.75996e-19)
(-0.086604 -0.235258 -2.91736e-19)
(-0.127495 -0.33908 0)
(-0.115092 -0.30105 5.65168e-19)
(-0.153166 -0.430703 -5.41984e-19)
(-0.141493 -0.382867 2.75064e-19)
(3.18501 -23.0663 1.08941e-17)
(-0.162191 -0.484827 7.33026e-19)
(-0.159439 -0.59381 1.1872e-19)
(0.171445 -0.57636 0)
(0.248817 -0.749729 -8.56433e-18)
(0.16842 -0.699537 -8.58351e-18)
(0.18557 -0.644224 -1.92089e-18)
(0.146905 -0.450207 5.88538e-19)
(0.161767 -0.506637 0)
(0.129402 -0.363829 -5.72963e-19)
(0.14171 -0.409602 -2.94724e-19)
(0.101065 -0.287743 -2.82144e-19)
(0.114837 -0.323564 5.65178e-19)
(0.080482 -0.23354 8.32833e-19)
(0.0899272 -0.258408 0)
(0.0616572 -0.185686 4.75961e-19)
(0.0726785 -0.2094 -2.7504e-19)
(0.0340055 -0.139325 -5.41028e-19)
(0.049335 -0.16231 -5.94217e-19)
(0.00297271 -0.0983896 1.36009e-19)
(0.0180275 -0.117576 2.71518e-19)
(-0.00953858 -0.0821048 1.35712e-19)
(0.00861731 -0.0720188 -5.59557e-19)
(-0.0029628 -0.068292 -5.48684e-19)
(0.0312216 -0.0735197 -1.78525e-18)
(0.0201041 -0.0731298 6.35456e-19)
(0.0542682 -0.0732173 5.74331e-19)
(0.0424114 -0.0734264 0)
(1.70994 -11.0621 0)
(-6.33115 -55.3401 -4.68675e-18)
(-0.554536 -1.14979 -1.1654e-18)
(-0.336087 -0.862018 4.36051e-18)
(0.326049 -0.867551 -4.40819e-18)
(0.543613 -1.12664 -2.32414e-18)
(0.0191656 -0.0567763 -4.87876e-19)
(-1.33988 -1.72218 4.36214e-18)
(0.126458 -5.52671 4.19723e-21)
(-0.150334 -5.5267 0)
(0.0269556 -0.0620174 -2.25062e-18)
(-22.6209 -98.4556 0)
(0.444518 -15.2529 2.59971e-19)
(0.846807 -16.0481 2.57319e-19)
(-0.733708 -1.50585 -4.79051e-18)
(-2.02872 -15.0305 2.8703e-18)
(0.241226 -0.853251 8.77507e-18)
(0.724039 -1.48112 2.517e-18)
(-0.028057 -0.0598924 1.15334e-18)
(-0.0384766 -0.060042 3.82304e-18)
(0.393597 -5.54403 -1.67424e-20)
(0.134574 -4.8154 -5.25628e-21)
(0.418751 -4.82667 3.36498e-20)
(-0.0161702 -0.0563574 -3.3765e-20)
(-0.021727 -0.0546512 2.16393e-19)
(-0.0272939 -0.0648501 -8.94563e-24)
(-0.0280844 -0.0581899 0)
(-0.799722 -17.328 7.27052e-19)
(1.22005 -17.8904 -4.90705e-19)
(-0.139999 -0.704924 1.52582e-18)
(-0.204348 -0.842054 1.67428e-18)
(-0.949367 -1.94614 0)
(0.931153 -1.66132 2.7547e-18)
(0.144203 -0.736229 1.25198e-18)
(0.214457 -0.844532 -7.19398e-18)
(-11.0079 -9.23627 5.28387e-18)
(-1.51394 -2.5565 4.82153e-18)
(-1.75538 -3.29331 4.31245e-18)
(-0.0155764 -0.0146848 -4.85246e-18)
(0.0658583 -0.0724353 -4.27567e-19)
(0.0359601 -0.0621068 -5.76337e-19)
(0.0452676 -0.0614786 5.77127e-19)
(-0.432058 -1.00283 -1.7029e-21)
(0.424494 -0.988799 2.24552e-18)
(0.0165976 -0.0518997 1.07755e-18)
(0.00566172 -0.0552986 -5.35545e-19)
(0.0122629 -0.0520726 1.06512e-18)
(-0.01138 -0.0592293 1.0966e-18)
(-0.00256995 -0.0572273 -5.10367e-19)
(-0.019767 -0.0597961 -1.11728e-18)
(-0.100412 -0.0968308 -5.12049e-19)
(-0.0724659 -0.0820118 4.82021e-19)
(-0.167117 -0.13475 0)
(-0.131619 -0.113457 5.18687e-19)
(-0.255605 -0.195053 -2.59649e-19)
(-0.20782 -0.160373 0)
(-0.383469 -0.295733 2.57689e-19)
(-0.31258 -0.237781 3.87445e-19)
(-0.580452 -0.469672 -1.27132e-19)
(-0.471739 -0.370245 -7.63711e-19)
(-0.84162 -0.759005 -1.03829e-18)
(-0.705951 -0.597925 8.90144e-19)
(-1.11701 -1.18489 1.009e-18)
(-0.979392 -0.954221 -1.01184e-18)
(-1.25987 -1.45004 7.7389e-19)
(0.963403 -1.90061 -2.6998e-18)
(1.59897 -2.95917 -1.02686e-17)
(1.21986 -1.37876 -9.40104e-19)
(1.36169 -1.69065 6.74437e-19)
(0.929992 -0.861342 -9.82858e-19)
(1.08272 -1.08688 1.21158e-18)
(0.637466 -0.527637 0)
(0.778522 -0.675163 4.83118e-19)
(0.409349 -0.317087 1.27082e-19)
(0.511764 -0.40749 -6.24296e-20)
(0.265813 -0.201565 2.58096e-19)
(0.326877 -0.249679 0)
(0.181919 -0.140087 -1.68454e-20)
(0.218959 -0.166099 -2.62504e-19)
(0.11918 -0.101963 5.58061e-19)
(0.149122 -0.119199 -6.80833e-19)
(0.0908881 -0.0861969 4.22274e-19)
(0.32444 -6.90245 0)
(0.362476 -6.19753 -1.78287e-20)
(0.239524 -8.30494 0)
(0.282955 -7.57679 0)
(0.165629 -9.85674 5.24642e-22)
(0.200367 -9.04689 -5.23817e-22)
(0.117376 -11.5861 -1.67546e-20)
(0.137401 -10.6983 3.66072e-21)
(0.156959 -13.3944 0)
(0.123716 -12.4758 1.49733e-19)
(0.25244 -14.3114 -2.63848e-19)
(-0.416819 -5.54451 -3.36683e-20)
(-0.441308 -4.82669 -3.35843e-20)
(-0.157952 -4.81536 9.44603e-21)
(-0.41325 -17.6021 2.62001e-18)
(-5.71465 -16.3111 1.60818e-18)
(-15.4587 -70.6384 4.29977e-18)
(-1.29512 -16.8143 -1.16365e-18)
(-2.4833 -16.1455 -1.04296e-18)
(-0.484681 -15.3176 -2.62423e-19)
(-0.816886 -16.1343 0)
(-0.178921 -13.358 -1.32727e-19)
(-0.296177 -14.2797 -1.3195e-19)
(-0.120598 -11.5644 -4.98536e-20)
(-0.125621 -12.4332 -1.65897e-20)
(-0.172493 -9.8618 -2.5081e-20)
(-0.144549 -10.691 5.0236e-20)
(-0.258979 -8.31137 -2.09752e-21)
(-0.212384 -9.05356 2.09916e-20)
(-0.34877 -6.90556 1.73599e-20)
(-0.306147 -7.58173 -1.57117e-20)
(-0.386825 -6.19913 3.33044e-20)
(0.020431 -0.0756989 -2.83215e-19)
(0.0246118 -0.0675914 5.60998e-19)
(0.0041816 -0.102507 -1.4454e-19)
(0.0137556 -0.087727 -2.84491e-19)
(-0.018962 -0.140907 1.46343e-19)
(-0.00684624 -0.12049 -7.2876e-20)
(-0.0448793 -0.186118 -2.88156e-19)
(-0.0317377 -0.162285 2.64197e-19)
(-0.0696253 -0.238582 -2.86033e-19)
(-0.0582892 -0.211877 0)
(-0.0927113 -0.300186 0)
(-0.081913 -0.268319 0)
(-0.110699 -0.372383 -3.37248e-19)
(-0.102146 -0.335272 6.83704e-20)
(-0.123282 -0.457433 -5.19105e-19)
(-0.115557 -0.414448 -1.8983e-22)
(-0.134753 -0.548989 -1.60206e-18)
(-0.121814 -0.511037 9.02821e-19)
(-0.144567 -0.748733 -5.83423e-19)
(-0.10526 -0.625541 5.57408e-19)
(-0.1114 -0.580758 0)
(0.141485 -0.774103 4.13265e-18)
(0.0813285 -0.632067 -7.57725e-19)
(0.0751777 -0.832076 2.64362e-18)
(0.046075 -0.693611 3.07086e-19)
(0.109425 -0.663859 1.11022e-18)
(0.144753 -0.569635 3.80541e-18)
(0.0967335 -0.611288 1.15006e-18)
(0.123263 -0.483417 -1.56167e-18)
(0.112196 -0.521878 1.18041e-19)
(0.104631 -0.391725 1.40221e-18)
(0.113405 -0.434444 1.0965e-18)
(0.0905787 -0.319842 -2.80836e-19)
(0.0981022 -0.356298 -8.50026e-19)
(0.0730312 -0.258744 2.78505e-19)
(0.0815683 -0.287891 5.60382e-19)
(0.0566869 -0.210642 -4.12064e-19)
(0.0646385 -0.233361 6.92391e-19)
(0.0387086 -0.165622 0)
(0.0489469 -0.188065 -4.10061e-19)
(0.0130989 -0.122215 0)
(0.0268517 -0.143417 -1.69529e-20)
(-0.0128421 -0.0868766 -3.38373e-19)
(-0.000689758 -0.102984 2.70433e-19)
(-0.0218042 -0.0741232 1.34925e-19)
(-8.75911e-05 -0.0612804 -1.74179e-20)
(-0.00877511 -0.0584457 7.68044e-20)
(0.0178765 -0.0627591 4.99407e-19)
(0.00891494 -0.0622818 -4.83062e-19)
(0.0267113 -0.0623663 0)
(-8.93378 -9.7255 -1.04927e-17)
(-3.96931 -10.1236 -1.11487e-17)
(1.55454 -16.6082 3.47921e-21)
(-0.57432 -1.3207 2.34692e-18)
(-0.329974 -0.992484 4.502e-18)
(0.335838 -0.98614 0)
(0.56961 -1.29821 -7.14863e-18)
(-0.0423285 -0.0598717 -3.43722e-19)
(-6.96201 -12.3158 -2.5043e-17)
(-1.60814 -2.95653 -2.36833e-18)
(0.101701 -0.834912 -4.48082e-18)
(0.657543 -5.57919 3.36506e-20)
(0.700423 -4.85398 1.05026e-21)
(0.0127643 -0.0474067 -1.37842e-18)
(-4.50613 -29.9774 6.13223e-18)
(0.0278684 -0.0475923 9.21175e-18)
(0.019891 -0.0467131 -4.05654e-23)
(0.0157227 -0.0462689 0)
(-0.0260697 -0.0553728 7.70705e-19)
(0.0768239 -0.0699767 -7.06581e-19)
(0.0542448 -0.0599244 9.68171e-23)
(1.99775 -16.8586 -3.70847e-18)
(2.32362 -3.84288 4.35392e-18)
(2.32052 -4.75684 4.33301e-18)
(-3.8719 -7.23913 5.40462e-18)
(-0.0243077 -0.0369699 0)
(0.789169 -14.8918 -5.26426e-19)
(1.3906 -15.4764 -3.94239e-21)
(-2.51995 -4.8758 4.68134e-18)
(-3.44109 -5.238 2.01398e-18)
(-2.40977 -6.00554 4.44685e-18)
(-0.289575 -0.973652 -5.00772e-18)
(-0.749385 -1.72149 0)
(0.759901 -1.70542 0)
(0.259836 -0.9589 0)
(1.66978 -3.40217 1.32115e-17)
(-0.67955 -5.57831 1.05042e-21)
(-0.721314 -4.85239 2.10083e-21)
(5.47713 -23.2284 5.26747e-18)
(-16.6528 -8.85124 -1.90911e-18)
(-14.5628 -6.77254 -2.06409e-20)
(-1.96623 -4.3099 -4.46543e-18)
(-0.981991 -2.29616 0)
(-0.187371 -0.893306 -5.9989e-19)
(-0.0901576 -0.663988 0)
(-0.123221 -0.801799 0)
(0.042067 -0.714709 1.14371e-18)
(0.0517752 -0.854013 1.72836e-21)
(0.190158 -0.929299 4.51835e-18)
(0.9912 -2.2358 0)
(0.856795 -4.30051 -1.01577e-17)
(2.823 -16.2286 -1.52685e-18)
(0.0127185 -0.0129499 1.81651e-17)
(-1.25063 -3.31719 9.57853e-18)
(-3.57203 -12.3938 6.39911e-18)
(-0.446808 -1.14668 -2.29207e-18)
(0.442723 -1.13606 0)
(0.00602618 -0.0494748 3.56109e-23)
(0.0102624 -0.0480686 -8.1262e-19)
(-0.00561339 -0.0520117 -5.47924e-19)
(0.000460416 -0.0510557 4.22191e-21)
(-0.0180704 -0.0535073 0)
(-0.0117095 -0.0533098 5.62565e-19)
(-0.0265784 -0.0513962 0)
(-0.0239656 -0.0538393 -1.21938e-18)
(-0.0344053 -0.051091 0)
(-0.0714992 -0.0697402 9.53124e-23)
(-0.0486094 -0.0597687 -3.23631e-19)
(-0.11886 -0.0900788 0)
(-0.0827963 -0.0725109 -2.3975e-18)
(-0.191597 -0.131032 1.39216e-19)
(-0.151516 -0.109179 -1.38437e-19)
(-0.292403 -0.191373 -2.59923e-19)
(-0.237476 -0.157596 1.3013e-19)
(-0.446123 -0.295109 0)
(-0.360125 -0.235972 2.66727e-23)
(-0.685126 -0.479969 7.6604e-19)
(-0.55314 -0.37365 1.28195e-19)
(-1.00738 -0.788551 -1.60726e-20)
(-0.837854 -0.617579 -3.83458e-19)
(-1.37939 -1.29038 -9.97592e-19)
(-1.18459 -1.00623 0)
(-1.7155 -2.07366 1.3856e-18)
(-1.56831 -1.65452 7.3455e-19)
(-1.79573 -2.389 -3.7309e-18)
(1.84014 -2.53328 1.74855e-18)
(2.00942 -2.94936 -3.60383e-18)
(1.53314 -1.55593 0)
(1.74999 -2.00141 -1.602e-18)
(1.12127 -0.912514 4.74765e-19)
(1.32687 -1.19667 0)
(0.754731 -0.535427 -2.45268e-19)
(0.928918 -0.698259 0)
(0.477425 -0.31778 0)
(0.60204 -0.411397 0)
(0.302495 -0.196403 5.13779e-19)
(0.376911 -0.246937 -5.08826e-19)
(0.203354 -0.133965 2.66938e-19)
(0.246133 -0.16014 1.29425e-19)
(0.134026 -0.095722 -2.75864e-19)
(0.166596 -0.113295 -6.75913e-19)
(0.10377 -0.0817345 5.57178e-19)
(0.552114 -6.95194 -1.47234e-20)
(0.609763 -6.24011 -3.14444e-20)
(0.42319 -8.36018 1.68102e-20)
(0.489736 -7.63141 2.09434e-20)
(0.301547 -9.89947 0)
(0.35991 -9.09802 -1.67171e-20)
(0.240769 -11.5943 -3.35477e-20)
(0.261445 -10.7266 -2.08982e-21)
(0.309282 -13.3117 -1.33523e-19)
(0.250911 -12.4535 -6.68133e-20)
(0.472031 -14.1278 3.96609e-19)
(0.140294 -4.21192 0)
(-0.455917 -4.21853 3.15211e-20)
(-0.162941 -4.21165 -2.30874e-20)
(0.127898 -0.976016 -2.45105e-18)
(0.731539 -4.24047 -2.09895e-21)
(0.434416 -4.21869 2.09867e-21)
(-10.2338 -6.90336 0)
(-13.0811 -6.28531 3.09847e-18)
(-5.96288 -12.9514 -1.14415e-18)
(-8.1966 -8.9357 2.6639e-18)
(-2.33442 -16.0551 -9.31672e-19)
(-3.99372 -15.5122 1.30615e-18)
(-0.911567 -14.9552 1.3169e-19)
(-1.51131 -15.6553 1.31922e-19)
(-0.367929 -13.2632 -1.33014e-19)
(-0.569343 -14.0993 -6.27039e-22)
(-0.250227 -11.5752 -6.6957e-20)
(-0.279791 -12.4085 2.66832e-19)
(-0.320219 -9.91504 -8.30669e-21)
(-0.268466 -10.7308 -8.33802e-21)
(-0.448447 -8.37027 -1.466e-20)
(-0.384928 -9.11332 1.68107e-20)
(-0.576805 -6.95395 1.67686e-20)
(-0.515531 -7.63646 7.36455e-21)
(-0.63297 -6.2403 -1.68332e-20)
(0.0240909 -0.0516316 4.20551e-18)
(0.0174012 -0.0446688 2.41641e-18)
(0.0220526 -0.0470309 -7.36714e-18)
(0.0304431 -0.0524118 -3.22242e-19)
(0.0278353 -0.0522616 -1.04075e-18)
(0.0310232 -0.0658895 -1.26756e-19)
(0.0323222 -0.0585033 4.42606e-19)
(0.0204548 -0.0871612 7.21631e-20)
(0.0271213 -0.0753401 -1.79544e-20)
(0.00182335 -0.119483 7.63682e-20)
(0.0120982 -0.101907 -2.03842e-24)
(-0.0209749 -0.160817 -7.1323e-20)
(-0.00896101 -0.139032 -8.93089e-21)
(-0.0435065 -0.209305 4.22617e-19)
(-0.031921 -0.184311 1.42197e-19)
(-0.0635286 -0.263062 1.37358e-19)
(-0.0538505 -0.235939 5.08085e-24)
(-0.0778914 -0.320808 3.37497e-19)
(-0.0705733 -0.291515 -4.09635e-19)
(-0.0876545 -0.386747 6.57823e-20)
(-0.0816145 -0.353316 -4.69732e-19)
(-0.0845679 -0.455026 -1.86051e-18)
(-0.0869124 -0.424103 3.95986e-19)
(-0.0739362 -0.516586 -5.43477e-19)
(-0.0778609 -0.48251 1.08142e-18)
(-0.0778013 -0.699493 0)
(-0.0553642 -0.574735 -5.38051e-19)
(-0.0621892 -0.547823 5.41464e-19)
(-0.0378793 -0.59798 0)
(-0.0259932 -0.609601 -1.32306e-19)
(0.0191134 -0.743054 0)
(0.0146168 -0.610216 2.70983e-19)
(-0.00424223 -0.620148 0)
(0.0438042 -0.567997 -3.53061e-20)
(0.031261 -0.592555 2.78283e-19)
(0.065432 -0.537625 0)
(0.0677189 -0.555626 3.43353e-20)
(0.090142 -0.477524 7.93597e-19)
(0.0731734 -0.497132 -1.34717e-19)
(0.081131 -0.402991 3.56549e-23)
(0.0820548 -0.445889 5.16346e-19)
(0.0702979 -0.33339 -2.74176e-19)
(0.0763301 -0.367402 0)
(0.0604418 -0.276995 2.78124e-19)
(0.0652798 -0.30493 -5.56319e-19)
(0.0482791 -0.227076 1.37614e-19)
(0.0544432 -0.251233 1.38566e-19)
(0.0346106 -0.184035 -6.82448e-19)
(0.0417128 -0.20501 4.11835e-19)
(0.0172585 -0.142767 -2.71021e-19)
(0.0269099 -0.163281 4.08438e-19)
(-0.00516669 -0.104827 0)
(0.00642265 -0.122976 0)
(-0.0248559 -0.0765247 6.07773e-19)
(-0.016063 -0.0890819 -2.0245e-19)
(-0.0327502 -0.060523 2.00312e-23)
(-0.0301995 -0.0672304 -2.69426e-19)
(-0.0314742 -0.0485251 -9.53574e-19)
(-0.0300843 -0.0552241 1.04618e-18)
(-0.0204932 -0.0508516 7.74777e-19)
(-0.0246756 -0.0491127 1.44529e-18)
(-0.0151172 -0.0511261 6.78737e-20)
(-0.0186778 -0.0512112 -3.82714e-19)
(-0.00419388 -0.0533474 -3.47573e-20)
(-0.0102698 -0.0516797 3.75714e-19)
(0.00929812 -0.0545426 -7.10027e-20)
(0.00246808 -0.0540989 5.60465e-19)
(0.0229405 -0.053558 0)
(0.0159633 -0.0539794 7.152e-20)
(0.0369504 -0.05197 5.23616e-19)
(0.0300306 -0.0528705 -5.40818e-19)
(-10.874 -13.5347 -4.75747e-18)
(3.42323 -14.0198 -4.18287e-18)
(0.353742 -0.366799 -9.78511e-19)
(-4.324 -6.93895 9.10345e-18)
(2.29746 -15.5997 -5.24901e-19)
(-7.51955 -79.8703 9.50002e-18)
(-2.80808 -7.40313 -5.21478e-18)
(-3.53297 -18.0134 -5.44576e-20)
(-2.47372 -13.7268 6.86238e-18)
(-2.00771 -10.6326 -7.36712e-18)
(-0.347511 -1.1171 2.32614e-18)
(-0.576589 -1.50614 -2.31233e-18)
(-0.00732332 -0.759879 -5.30172e-19)
(-0.0535868 -0.728842 1.83772e-22)
(0.584601 -1.48762 9.74661e-18)
(0.341331 -1.1182 0)
(1.78044 -4.25027 -1.43717e-17)
(-2.81676 -3.66244 -3.75223e-18)
(2.70977 -5.897 -8.49852e-19)
(0.0168108 -0.0173269 -4.42891e-18)
(0.640741 -11.079 -1.57452e-17)
(2.89348 -4.61914 2.55804e-19)
(2.45322 -2.73844 1.83712e-18)
(-0.75163 -4.2391 -3.35689e-20)
(-12.953 -9.00376 2.72292e-18)
(-13.8925 -6.99645 -3.88631e-20)
(0.013036 -0.0424615 5.95451e-19)
(0.0148447 -0.038806 -1.08957e-22)
(0.0183417 -0.0413022 3.04927e-18)
(1.76165 -6.25936 1.24883e-17)
(-1.76449 -5.16113 -9.81718e-18)
(-0.754205 -1.97639 0)
(-0.252801 -1.06776 2.38256e-18)
(-0.103622 -0.847218 -6.86143e-20)
(0.0211629 -0.90729 0)
(0.248804 -1.08865 3.24776e-21)
(0.772201 -1.95775 -7.85031e-18)
(1.30227 -3.25387 -5.16818e-18)
(-0.0186027 -0.0472395 -4.50734e-19)
(-0.0226036 -0.0471989 1.50391e-19)
(5.23551 -14.1992 4.60893e-19)
(-3.79745 -19.0914 2.63855e-18)
(-2.98895 -78.26 -6.26742e-18)
(-13.2765 -11.9149 1.53928e-17)
(0.162409 -1.03235 0)
(-1.325 -10.7039 5.97062e-18)
(-3.46214 -9.72549 -1.25942e-17)
(15.6493 -11.7701 -3.9977e-18)
(-1.38578 -3.95204 -9.89859e-18)
(-6.10787 -15.1184 -3.19534e-19)
(-0.973639 -2.61754 -1.5045e-17)
(-0.166147 -0.966253 5.69248e-19)
(0.0821268 -1.04512 -2.21048e-18)
(1.01352 -2.5503 -3.03387e-18)
(0.0249923 -0.0458701 7.24175e-20)
(0.0435561 -0.0495409 -2.70517e-19)
(0.0298828 -0.0443477 2.17152e-19)
(0.761239 -3.53792 0)
(1.00425 -4.27398 3.36271e-20)
(1.04697 -3.56761 0)
(4.08147 -14.5705 2.06912e-18)
(-0.017524 -0.0478895 2.66353e-19)
(-1.01378 -2.80659 -2.23679e-20)
(0.408378 -4.31526 -4.65573e-18)
(-2.25708 -9.30191 -3.44936e-18)
(0.190188 -0.256474 -1.08921e-18)
(0.277466 -0.346514 7.04943e-19)
(-0.450018 -1.30057 2.29067e-18)
(-0.036898 -0.744626 6.6164e-19)
(0.449211 -1.29346 -4.67268e-18)
(1.65902 -4.78234 1.92731e-20)
(0.00868456 -0.0450774 1.11943e-18)
(0.0105854 -0.0446524 -5.75449e-19)
(0.00452795 -0.0457717 4.7592e-19)
(0.00705692 -0.045311 0)
(-0.00287858 -0.0469007 -1.36587e-23)
(0.0010896 -0.0466187 -2.0405e-19)
(-0.0115522 -0.0477795 0)
(-0.00708185 -0.047871 -2.79249e-19)
(-0.0158197 -0.047646 -2.95157e-19)
(-0.0402235 -0.0501161 3.0165e-19)
(-0.079949 -0.06371 2.25407e-18)
(-0.0567855 -0.0562807 0)
(-0.133138 -0.0869234 -4.13627e-23)
(-0.102881 -0.0775437 -2.6448e-19)
(-0.214563 -0.122891 -8.23553e-21)
(-0.170528 -0.103193 1.35793e-19)
(-0.329771 -0.182494 6.52495e-20)
(-0.266455 -0.148378 1.35101e-19)
(-0.511353 -0.287515 6.45835e-20)
(-0.409317 -0.226797 -4.52617e-19)
(-0.795556 -0.473984 -7.67435e-19)
(-0.639311 -0.368348 3.87567e-19)
(-1.18355 -0.794749 2.09742e-18)
(-0.977995 -0.613033 -1.02639e-18)
(-1.66301 -1.33939 0)
(-1.4069 -1.03243 -1.0112e-18)
(-2.2487 -2.2625 1.43872e-18)
(-1.92829 -1.73569 0)
(-2.42158 -3.0204 3.57492e-18)
(-0.481648 -11.0255 -5.56412e-18)
(2.63233 -3.64832 7.28145e-21)
(1.83948 -1.57958 0)
(2.12865 -2.09015 0)
(1.30054 -0.913445 -9.61527e-19)
(1.55389 -1.19961 0)
(0.870084 -0.53084 -1.01115e-22)
(1.07442 -0.696267 1.21864e-18)
(0.546085 -0.308493 0)
(0.693259 -0.40404 3.12018e-20)
(0.339987 -0.187992 0)
(0.428149 -0.238675 1.27354e-19)
(0.224067 -0.124823 -1.31599e-19)
(0.273926 -0.151462 1.2916e-19)
(0.147422 -0.0894746 0)
(0.182923 -0.105054 5.37155e-19)
(0.0868201 -0.0656352 3.50288e-19)
(0.115394 -0.0765609 -1.38373e-19)
(0.0625637 -0.0566698 -3.03804e-19)
(0.896126 -5.62546 0)
(0.957269 -4.89269 -3.46015e-20)
(0.759645 -7.01368 -3.57377e-20)
(0.832953 -6.29395 1.0497e-21)
(0.597063 -8.42654 -2.09291e-20)
(0.681182 -7.69806 4.19059e-20)
(0.445863 -9.95006 2.29179e-21)
(0.51796 -9.15926 3.36006e-20)
(0.360208 -11.5962 5.8799e-20)
(0.390653 -10.76 -3.54597e-20)
(0.469554 -13.1752 -2.66817e-19)
(0.377965 -12.4048 1.34498e-19)
(1.1082 -14.3866 5.35463e-19)
(0.688369 -13.849 -1.3411e-19)
(3.06839 -14.168 5.23516e-19)
(1.82739 -14.6121 -1.59077e-18)
(-0.469755 -3.51761 2.09708e-21)
(-1.02149 -4.27115 0)
(-1.0634 -3.56617 4.19602e-21)
(-0.781042 -3.53719 -6.24349e-21)
(0.144476 -3.51136 2.09658e-21)
(-0.166803 -3.51146 1.67828e-20)
(0.44968 -3.5177 -2.09667e-21)
(-10.3268 -6.82951 0)
(-11.35 -7.40084 -2.69151e-18)
(-7.66435 -9.93707 -1.13313e-18)
(-9.4661 -7.50831 0)
(-3.25973 -14.4369 -6.64539e-19)
(-5.19538 -12.833 -2.7084e-19)
(-1.28339 -14.3497 4.01051e-19)
(-2.06246 -14.6644 1.57215e-19)
(-0.540155 -13.0737 6.73918e-20)
(-0.808658 -13.7406 -1.3256e-19)
(-0.396235 -11.573 -8.37842e-20)
(-0.423795 -12.335 6.65456e-20)
(-0.48219 -9.96552 0)
(-0.428547 -10.7634 5.02874e-20)
(-0.630388 -8.43578 8.36417e-21)
(-0.5531 -9.17489 -1.67733e-20)
(-0.784242 -7.0133 -2.09949e-21)
(-0.709901 -7.70104 -8.41126e-21)
(-0.916128 -5.62254 -3.40811e-20)
(-0.855002 -6.29177 1.05013e-21)
(-0.97576 -4.88956 3.1538e-20)
(0.0267795 -0.0452062 0)
(0.0222481 -0.0435111 1.86794e-18)
(0.0356276 -0.0493149 -6.24114e-19)
(0.032338 -0.0461865 -3.22317e-19)
(0.0379791 -0.057496 0)
(0.0374065 -0.0527502 5.97977e-19)
(0.0328952 -0.0725183 2.90173e-19)
(0.0366303 -0.0639673 -2.24974e-23)
(0.0197393 -0.0978848 6.71581e-20)
(0.0273769 -0.0837681 1.42787e-19)
(0.00100821 -0.132824 1.41898e-19)
(0.0110372 -0.114208 -1.42149e-19)
(-0.0196543 -0.175884 -1.39735e-19)
(-0.00891262 -0.153459 0)
(-0.0378373 -0.223757 -2.711e-23)
(-0.0289696 -0.199735 -2.76589e-19)
(-0.0507068 -0.272211 1.51907e-19)
(-0.0442986 -0.247996 4.08948e-19)
(-0.0577424 -0.324318 6.64049e-20)
(-0.054397 -0.298315 -2.85238e-19)
(-0.0539549 -0.375971 2.65616e-19)
(-0.0571223 -0.352417 -1.33079e-19)
(-0.0483455 -0.421792 0)
(-0.0509986 -0.396902 -1.33873e-19)
(-0.0360258 -0.46574 -5.34067e-19)
(-0.040794 -0.445232 0)
(-0.0166591 -0.492067 -1.33466e-19)
(-0.0257416 -0.483363 5.99847e-19)
(0.009949 -0.492205 -5.39506e-19)
(-0.00279315 -0.498409 2.68405e-19)
(0.0304746 -0.461931 -6.8675e-19)
(0.0220624 -0.479611 2.73431e-19)
(0.0472023 -0.432859 -2.02669e-19)
(0.0382039 -0.448818 3.06967e-19)
(0.0526819 -0.386337 -1.33106e-22)
(0.0508035 -0.404265 -1.3449e-19)
(0.0534819 -0.332266 1.0176e-22)
(0.0555196 -0.361932 -1.06082e-18)
(0.0444494 -0.279536 -1.08748e-18)
(0.0492439 -0.305428 1.08007e-18)
(0.0363805 -0.234639 -6.88382e-20)
(0.0401282 -0.256631 5.45547e-19)
(0.0269789 -0.193778 1.36642e-19)
(0.0319777 -0.213985 -1.37447e-19)
(0.0147596 -0.156098 -2.71863e-19)
(0.0213217 -0.174633 -2.73052e-19)
(-0.00145611 -0.120081 -3.38312e-20)
(0.0072936 -0.137801 2.71614e-19)
(-0.0200131 -0.0888012 -4.58841e-23)
(-0.0107649 -0.103503 2.70577e-19)
(-0.0340914 -0.0668237 0)
(-0.028158 -0.076436 -3.71194e-19)
(-0.0375763 -0.0548021 2.55195e-23)
(-0.0370937 -0.0598889 -4.05661e-19)
(-0.0333096 -0.050682 4.37121e-18)
(-0.0352007 -0.0524459 -5.4242e-19)
(-0.0119631 -0.0477375 -6.79573e-20)
(-0.0146348 -0.0481879 6.71328e-19)