/*--------------------------------*- C++ -*----------------------------------*\
| =========                 |                                                 |
| \\      /  F ield         | OpenFOAM: The Open Source CFD Toolbox           |
|  \\    /   O peration     | Version:  2212                                  |
|   \\  /    A nd           | Website:  www.openfoam.com                      |
|    \\/     M anipulation  |                                                 |
\*---------------------------------------------------------------------------*/
FoamFile
{
    version     2.0;
    format      ascii;
    arch        "LSB;label=32;scalar=64";
    class       volVectorField;
    location    "0.000168";
    object      U;
}
// * * * * * * * * * * * * * * * * * * * * * * * * * * * * * * * * * * * * * //

dimensions      [0 1 -1 0 0 0 0];

internalField   nonuniform List<vector> 
10556
(
(-1.68769e-09 5.06858 633.056)
(-9.0669e-10 8.03081 633.008)
(-4.89257e-10 11.3791 632.964)
(-3.02115e-10 14.5159 632.865)
(-2.10707e-10 17.6195 632.774)
(-1.58538e-10 20.6096 632.646)
(-1.25022e-10 23.552 632.503)
(-9.87182e-11 26.4379 632.347)
(-7.81322e-11 29.4045 632.135)
(-5.40789e-11 32.4722 631.895)
(-3.58091e-11 35.5094 631.663)
(-2.7148e-11 38.5131 631.467)
(-2.71564e-11 41.4008 631.328)
(-3.71637e-11 44.211 631.609)
(-2.93436e-11 47.6912 632.385)
(-4.02009e-11 52.1993 632.775)
(-3.72141e-11 58.2204 629.942)
(-5.52844e-11 64.8913 617.714)
(-6.37168e-11 69.0659 589.567)
(-6.21004e-11 70.841 543.257)
(-5.7603e-11 69.9904 481.282)
(2.10418e-11 66.8434 404.274)
(1.15503e-09 59.356 316.822)
(1.58697e-08 49.3537 221.754)
(1.03264e-07 20.1899 108.642)
(-1.67273e-09 4.97364 631.297)
(-9.05119e-10 8.02139 631.284)
(-4.88738e-10 11.3899 631.234)
(-3.01514e-10 14.5288 631.158)
(-2.10161e-10 17.6282 631.072)
(-1.57949e-10 20.6219 630.926)
(-1.2454e-10 23.5502 630.773)
(-9.78682e-11 26.4468 630.633)
(-7.72688e-11 29.4398 630.407)
(-5.3274e-11 32.5048 630.153)
(-3.49731e-11 35.5353 629.917)
(-2.64061e-11 38.5828 629.679)
(-2.66279e-11 41.4676 629.499)
(-3.70588e-11 44.1974 629.728)
(-2.89415e-11 47.6579 630.218)
(-3.99164e-11 52.1349 630.074)
(-3.70314e-11 57.9582 626.146)
(-5.53361e-11 64.493 612.366)
(-6.38867e-11 68.5575 582.381)
(-6.20758e-11 69.7155 534.053)
(-6.28533e-11 67.8039 469.511)
(-1.38444e-10 63.3293 388.786)
(9.11911e-11 54.9231 294.89)
(6.17755e-09 43.7539 191.203)
(7.48066e-08 17.7453 77.6001)
(-1.66183e-09 4.93105 632.027)
(-9.02475e-10 8.00724 632.011)
(-4.87527e-10 11.3908 631.959)
(-3.00588e-10 14.5328 631.887)
(-2.19176e-10 17.6386 631.794)
(-1.66913e-10 20.6376 631.631)
(-1.23959e-10 23.5559 631.479)
(-9.69881e-11 26.461 631.334)
(-7.64046e-11 29.4736 631.143)
(-5.24633e-11 32.5404 630.931)
(-3.41372e-11 35.5763 630.699)
(-2.56649e-11 38.6525 630.444)
(-2.60626e-11 41.5169 630.324)
(-3.6806e-11 44.1998 630.6)
(-2.86112e-11 47.6505 631.062)
(-4.03195e-11 52.1075 631.222)
(-3.78041e-11 57.8408 628.09)
(-5.52696e-11 64.2952 615.963)
(-6.4e-11 68.2919 587.33)
(-6.16677e-11 69.028 539.647)
(-6.02446e-11 66.2282 474.642)
(-3.76465e-11 60.2919 391.962)
(-2.58573e-10 50.3653 295.075)
(-2.31768e-09 37.0112 189.407)
(4.85624e-10 15.5401 72.3722)
(-1.65359e-09 4.903 632.217)
(-9.00321e-10 7.99281 632.195)
(-4.86528e-10 11.3877 632.143)
(-3.00078e-10 14.5314 632.071)
(-2.0797e-10 17.6483 631.974)
(-1.55768e-10 20.6546 631.81)
(-1.23274e-10 23.5629 631.66)
(-9.60166e-11 26.4778 631.51)
(-7.54165e-11 29.5081 631.301)
(-5.15529e-11 32.5718 631.053)
(-3.32085e-11 35.6193 630.802)
(-2.49335e-11 38.7082 630.54)
(-2.5547e-11 41.5331 630.442)
(-3.65788e-11 44.1983 630.715)
(-2.86799e-11 47.6376 631.275)
(-1.35884e-10 52.0813 631.577)
(-1.44401e-10 57.7912 628.762)
(-5.65738e-11 64.2735 616.891)
(-6.3865e-11 68.3042 588.747)
(-6.10255e-11 68.9313 541.306)
(-6.34455e-11 65.819 476.288)
(-5.60156e-11 59.4056 393.242)
(1.74347e-10 48.6542 295.479)
(8.70468e-10 34.0061 188.563)
(1.1369e-10 13.2215 70.0321)
(-1.65354e-09 4.92345 632.262)
(-8.98709e-10 7.97952 632.244)
(-4.85771e-10 11.3834 632.181)
(-3.00529e-10 14.5254 632.091)
(-2.10043e-10 17.655 631.99)
(-1.56524e-10 20.6658 631.834)
(-1.22457e-10 23.5656 631.691)
(-9.51336e-11 26.4917 631.526)
(-7.44601e-11 29.5419 631.323)
(-5.0711e-11 32.5976 631.078)
(-3.24234e-11 35.6541 630.821)
(-2.45107e-11 38.7307 630.558)
(-2.52422e-11 41.5305 630.474)
(-3.64943e-11 44.1981 630.736)
(-2.7145e-11 47.6223 631.296)
(-4.61537e-11 52.0374 631.702)
(-1.86976e-11 57.751 629.159)
(-5.56349e-11 64.218 617.772)
(-6.26846e-11 68.2368 590.476)
(-5.84745e-11 68.8803 543.637)
(-6.12037e-11 65.5803 478.841)
(-6.7064e-11 58.497 395.588)
(-2.03498e-10 46.9004 297.458)
(-3.17556e-10 32.1239 188.895)
(-4.7603e-11 12.2024 68.4089)
(-1.65648e-09 5.06536 632.279)
(-8.94983e-10 7.96142 632.231)
(-4.83686e-10 11.3828 632.146)
(-3.01352e-10 14.5168 632.062)
(-2.11454e-10 17.6639 631.952)
(-1.55521e-10 20.6695 631.834)
(-1.21564e-10 23.5673 631.704)
(-9.41737e-11 26.5059 631.502)
(-7.37658e-11 29.5653 631.299)
(-4.96374e-11 32.6292 631.057)
(-3.16807e-11 35.6893 630.787)
(-2.394e-11 38.7537 630.539)
(-2.43743e-11 41.5337 630.477)
(-3.64898e-11 44.2083 630.674)
(-2.6517e-11 47.5933 631.235)
(-4.67886e-11 51.9626 631.728)
(-3.50402e-11 57.7076 629.43)
(-5.49686e-11 64.2316 618.328)
(-6.19635e-11 68.194 591.41)
(-5.73083e-11 68.846 544.968)
(-6.02425e-11 65.4462 480.431)
(-4.08345e-11 57.8709 397.283)
(5.52108e-11 46.069 298.549)
(7.45577e-11 31.2795 188.964)
(4.44019e-12 11.6846 67.7074)
(-1.66844e-09 5.3277 632.285)
(-8.92458e-10 7.98192 632.173)
(-4.83083e-10 11.4031 632.106)
(-3.16073e-10 14.5287 632.06)
(-2.23341e-10 17.663 631.953)
(-1.65433e-10 20.6578 631.865)
(-1.31605e-10 23.5729 631.733)
(-9.39269e-11 26.5131 631.508)
(-7.32261e-11 29.5697 631.286)
(-4.8925e-11 32.6557 631.055)
(-3.09009e-11 35.7346 630.786)
(-2.30526e-11 38.7939 630.537)
(-2.37864e-11 41.5643 630.456)
(-3.70899e-11 44.2522 630.602)
(-2.51829e-11 47.616 631.199)
(-4.9514e-11 51.9378 631.733)
(-3.27579e-11 57.6716 629.628)
(-5.43781e-11 64.1604 619.137)
(-6.50085e-11 68.1216 592.808)
(-2.48206e-10 68.7817 546.97)
(-2.21074e-10 65.3264 482.795)
(-7.18685e-11 57.6614 399.476)
(-1.05274e-10 45.8497 299.864)
(-8.07726e-11 30.9872 189.531)
(-1.66426e-11 11.4518 67.4371)
(-1.68168e-09 5.54101 632.215)
(-8.90374e-10 8.01751 632.124)
(-4.8076e-10 11.3893 632.088)
(-2.7971e-10 14.5348 632.05)
(-1.89902e-10 17.6485 631.944)
(-1.48961e-10 20.6353 631.839)
(-1.16536e-10 23.6088 631.685)
(-9.23537e-11 26.572 631.484)
(-7.14027e-11 29.5956 631.242)
(-4.74155e-11 32.7143 631.005)
(-2.95864e-11 35.7997 630.739)
(-2.23917e-11 38.812 630.496)
(-2.32118e-11 41.6119 630.374)
(-3.66428e-11 44.2925 630.529)
(-2.56833e-11 47.6108 631.088)
(-5.33097e-11 51.8901 631.72)
(-3.23347e-11 57.6397 629.739)
(-5.38987e-11 64.1975 619.607)
(-5.34826e-11 68.1099 593.748)
(7.94662e-11 68.7278 548.125)
(6.6144e-11 65.4021 483.956)
(-3.44465e-11 57.9394 400.546)
(-7.68851e-12 46.0929 300.615)
(-5.34999e-12 30.9378 189.893)
(-8.39556e-12 11.3713 67.358)
(-1.68121e-09 5.59932 632.079)
(-8.88591e-10 8.03946 632.032)
(-4.79679e-10 11.36 631.969)
(-3.1133e-10 14.5281 631.865)
(-2.21019e-10 17.6623 631.766)
(-1.62405e-10 20.6584 631.596)
(-1.26266e-10 23.6443 631.424)
(-9.10796e-11 26.6145 631.289)
(-7.08527e-11 29.6482 631.097)
(-4.68514e-11 32.7292 630.849)
(-2.92319e-11 35.8091 630.602)
(-2.1732e-11 38.8748 630.342)
(-2.18558e-11 41.6789 630.204)
(-3.64323e-11 44.354 630.318)
(-2.09478e-10 47.6656 630.893)
(-1.60702e-10 51.8688 631.653)
(-3.24894e-11 57.5462 629.682)
(-5.42133e-11 64.0778 619.857)
(-7.18577e-11 68.2021 594.498)
(-1.68817e-10 68.9723 549.261)
(-1.5187e-10 65.7009 485.305)
(-7.4022e-11 58.1697 401.778)
(-6.72102e-11 46.3039 301.663)
(-4.16203e-11 31.0356 190.514)
(-1.21593e-11 11.3409 67.4166)
(-1.66896e-09 5.51051 631.899)
(-8.83237e-10 8.03587 631.836)
(-4.7588e-10 11.4236 631.757)
(-2.84286e-10 14.5571 631.649)
(-1.96193e-10 17.7097 631.545)
(-1.4542e-10 20.7282 631.409)
(-1.08902e-10 23.6476 631.259)
(-8.99212e-11 26.5958 631.086)
(-6.93401e-11 29.6815 630.917)
(-4.56199e-11 32.7805 630.693)
(-2.80066e-11 35.8895 630.44)
(-2.08481e-11 38.9431 630.193)
(-2.1443e-11 41.7336 630.059)
(-3.13036e-11 44.4114 630.165)
(1.34878e-10 47.5926 630.688)
(5.6045e-13 51.8658 631.335)
(-3.29539e-11 57.5654 629.599)
(-5.36557e-11 64.0957 619.995)
(-4.92428e-11 68.0628 594.868)
(2.40831e-11 68.8565 549.769)
(9.01247e-12 65.7307 485.934)
(-3.81786e-11 58.3392 402.462)
(-3.10912e-11 46.5062 302.223)
(-2.35828e-11 31.1647 190.873)
(-9.55285e-12 11.365 67.5097)
(-1.64694e-09 5.36336 631.733)
(-8.79216e-10 8.07767 631.656)
(-4.74311e-10 11.4369 631.607)
(-3.02992e-10 14.5885 631.553)
(-2.11654e-10 17.7143 631.445)
(-1.5864e-10 20.7135 631.309)
(-1.24367e-10 23.6976 631.173)
(-8.88537e-11 26.6503 630.998)
(-6.82747e-11 29.6846 630.78)
(-4.4756e-11 32.8182 630.564)
(-2.75104e-11 35.9161 630.305)
(-2.07546e-11 38.9883 630.055)
(-2.16935e-11 41.8421 629.916)
(-3.94068e-11 44.4941 630.042)
(-1.67567e-10 47.6412 630.575)
(-5.31207e-11 51.8663 631.156)
(-3.23468e-11 57.5256 629.533)
(-5.56123e-11 64.0024 620.242)
(-7.0982e-11 68.1996 595.478)
(-1.21598e-10 69.0584 550.655)
(-1.0203e-10 65.9156 486.923)
(-6.60309e-11 58.5272 403.344)
(-5.14893e-11 46.7046 302.932)
(-3.16964e-11 31.3533 191.315)
(-1.04654e-11 11.4266 67.6328)
(-1.63656e-09 5.19818 631.559)
(-8.74142e-10 8.07803 631.516)
(-4.71076e-10 11.4107 631.464)
(-2.84705e-10 14.5636 631.387)
(-1.99515e-10 17.7545 631.296)
(-1.45816e-10 20.771 631.17)
(-1.11081e-10 23.7113 631.026)
(-8.75299e-11 26.6878 630.879)
(-6.72188e-11 29.7553 630.691)
(-4.38064e-11 32.8639 630.45)
(-2.67273e-11 35.9955 630.182)
(-2.02927e-11 39.0569 629.896)
(-2.16425e-11 41.8689 629.774)
(-2.99578e-11 44.5537 629.875)
(1.02082e-10 47.6624 630.401)
(-4.47327e-11 51.878 631.119)
(-3.23783e-11 57.5017 629.478)
(-5.49905e-11 63.9652 620.371)
(-5.14335e-11 68.1456 595.826)
(-1.78315e-11 69.0224 551.171)
(-1.95929e-10 65.9512 487.461)
(-1.91968e-10 58.6335 403.89)
(-4.33358e-11 46.8412 303.363)
(-2.74758e-11 31.5002 191.583)
(-1.0024e-11 11.4737 67.7168)
(-1.61759e-09 5.07172 631.348)
(-8.70453e-10 8.0976 631.347)
(-4.69983e-10 11.4562 631.337)
(-3.1562e-10 14.59 631.298)
(-2.27644e-10 17.73 631.175)
(-1.53713e-10 20.7533 631.084)
(-1.18051e-10 23.7139 630.944)
(-8.65316e-11 26.6732 630.752)
(-6.62184e-11 29.7587 630.566)
(-4.31541e-11 32.9095 630.321)
(-2.62496e-11 36.0528 630.066)
(-2.03128e-11 39.1038 629.811)
(-2.24563e-11 41.953 629.665)
(-4.47878e-11 44.6233 629.729)
(-1.70498e-10 47.6795 630.266)
(-2.998e-11 51.8833 631.035)
(-3.20903e-11 57.4995 629.409)
(-5.72313e-11 63.9037 620.526)
(-6.94523e-11 68.2616 596.395)
(-8.99346e-11 69.2052 552.125)
(5.78483e-11 66.1455 488.574)
(5.26869e-11 58.8239 404.924)
(-3.63149e-11 47.024 304.163)
(-2.86533e-11 31.6786 192.045)
(-1.00536e-11 11.5385 67.8222)
(-1.60276e-09 4.92037 631.199)
(-8.67789e-10 8.0172 631.247)
(-4.67158e-10 11.3875 631.234)
(-2.86934e-10 14.5949 631.168)
(-2.14318e-10 17.7504 631.066)
(-1.83403e-10 20.7548 630.921)
(-1.28741e-10 23.7438 630.771)
(-8.51076e-11 26.7131 630.616)
(-6.52106e-11 29.7967 630.411)
(-4.22181e-11 32.9405 630.187)
(-2.54457e-11 36.0894 629.93)
(-1.94646e-11 39.1683 629.676)
(-2.09145e-11 42.0181 629.516)
(-2.51889e-11 44.6758 629.582)
(-7.79483e-11 47.6369 630.074)
(-2.05961e-10 51.896 630.772)
(-3.24697e-11 57.5087 629.341)
(-5.61545e-11 63.8534 620.752)
(-5.24236e-11 68.1204 596.942)
(-3.94266e-11 69.1478 552.992)
(-1.49032e-10 66.229 489.599)
(-1.32714e-10 58.9754 405.982)
(-5.26079e-11 47.1928 305.061)
(-2.92556e-11 31.8573 192.653)
(-1.00294e-11 11.6238 68.0541)
(-1.58557e-09 4.82631 631.082)
(-8.63261e-10 7.98047 631.063)
(-4.65713e-10 11.403 631.026)
(-2.91227e-10 14.6031 630.911)
(-1.87767e-10 17.7754 630.833)
(-1.1652e-10 20.7916 630.702)
(-9.85464e-11 23.7518 630.56)
(-8.36198e-11 26.7365 630.421)
(-6.40795e-11 29.8171 630.246)
(-4.15624e-11 32.9648 630.031)
(-2.49535e-11 36.1264 629.772)
(-1.92014e-11 39.1973 629.518)
(-2.12288e-11 42.0775 629.355)
(-4.24919e-11 44.7721 629.396)
(2.90577e-11 47.702 629.907)
(1.27278e-10 51.9027 630.553)
(-3.3377e-11 57.4975 629.272)
(-5.84137e-11 63.8094 621.002)
(-6.86877e-11 68.211 597.691)
(-7.31144e-11 69.239 554.204)
(1.78042e-11 66.4029 491.056)
(8.18663e-12 59.1966 407.386)
(-3.2169e-11 47.4024 306.193)
(-2.68007e-11 32.055 193.356)
(-9.7164e-12 11.7159 68.2892)
(-1.56611e-09 4.86242 630.899)
(-8.58942e-10 7.98727 630.845)
(-4.62428e-10 11.4118 630.816)
(-2.84693e-10 14.5895 630.765)
(-2.36483e-10 17.7476 630.677)
(-2.01811e-10 20.7826 630.574)
(-1.26336e-10 23.7472 630.442)
(-8.22327e-11 26.7144 630.272)
(-6.31976e-11 29.8197 630.086)
(-4.08459e-11 32.9945 629.852)
(-2.41755e-11 36.1699 629.593)
(-1.81836e-11 39.2734 629.334)
(-1.9034e-11 42.1767 629.159)
(-2.7582e-11 44.8087 629.219)
(-9.34644e-11 47.6647 629.726)
(-2.04852e-10 51.9399 630.353)
(-3.15253e-11 57.5038 629.19)
(-5.5729e-11 63.7984 621.316)
(-5.30447e-11 68.0442 598.326)
(-5.12547e-11 69.1226 555.127)
(-1.12345e-10 66.447 492.229)
(-9.73598e-11 59.3571 408.645)
(-5.2143e-11 47.585 307.297)
(-2.97304e-11 32.2334 194.111)
(-1.00748e-11 11.8034 68.5607)
(-1.56065e-09 4.94727 630.754)
(-8.75604e-10 7.97533 630.746)
(-4.82328e-10 11.3633 630.704)
(-2.89831e-10 14.5628 630.655)
(-1.63738e-10 17.7405 630.552)
(-9.35384e-11 20.7829 630.43)
(-9.64665e-11 23.7748 630.289)
(-8.12544e-11 26.755 630.106)
(-6.22776e-11 29.8481 629.895)
(-4.02389e-11 33.0327 629.671)
(-2.39724e-11 36.2183 629.417)
(-1.8926e-11 39.3065 629.165)
(-2.17412e-10 42.215 628.997)
(-2.26463e-10 44.8846 629.034)
(3.31787e-11 47.7493 629.487)
(1.06176e-10 51.9333 630.161)
(-3.19504e-11 57.4375 629.097)
(-5.7215e-11 63.757 621.521)
(-6.61886e-11 68.373 599.161)
(-6.29316e-11 69.2488 556.396)
(-8.91601e-12 66.5139 493.757)
(-1.70352e-11 59.5328 410.198)
(-3.34636e-11 47.8024 308.621)
(-2.61589e-11 32.436 195.001)
(-9.56001e-12 11.8932 68.897)
(-1.57022e-09 5.0469 630.674)
(-8.31902e-10 7.93802 630.601)
(-4.38214e-10 11.3669 630.539)
(-2.82463e-10 14.5908 630.46)
(-2.34371e-10 17.7726 630.367)
(-2.17211e-10 20.7935 630.236)
(-1.44269e-10 23.7853 630.093)
(-8.07621e-11 26.7759 629.952)
(-6.16882e-11 29.8727 629.776)
(-3.97157e-11 33.0557 629.559)
(-2.34771e-11 36.2574 629.305)
(-1.19928e-11 39.3683 629.041)
(1.70706e-10 42.3218 628.854)
(1.52276e-10 44.9687 628.858)
(-9.93132e-11 47.7183 629.305)
(-1.75485e-10 51.9484 629.953)
(-3.02412e-11 57.4207 629.006)
(-5.32889e-11 63.6384 621.753)
(-5.39691e-11 68.1685 599.924)
(-5.70144e-11 69.2291 557.495)
(-8.8471e-11 66.5192 494.997)
(-7.74825e-11 59.5947 411.496)
(-4.91895e-11 47.9328 309.8)
(-2.93053e-11 32.5938 195.842)
(-9.96032e-12 11.9669 69.2366)
(-1.57275e-09 5.1869 630.499)
(-8.66897e-10 8.0122 630.427)
(-4.75575e-10 11.3894 630.361)
(-2.857e-10 14.5714 630.284)
(-1.6396e-10 17.7631 630.201)
(-7.83595e-11 20.8124 630.097)
(-7.6765e-11 23.7766 629.971)
(-8.05863e-11 26.756 629.82)
(-6.11568e-11 29.8871 629.635)
(-3.91282e-11 33.0899 629.396)
(-2.34181e-11 36.3105 629.136)
(-2.48875e-11 39.4294 628.86)
(-2.08513e-10 42.3816 628.666)
(-2.04246e-10 45.0622 628.679)
(4.04392e-11 47.8113 629.092)
(1.01588e-10 51.899 629.74)
(-3.03795e-11 57.3826 628.916)
(-5.46812e-11 63.6099 621.923)
(-6.25373e-11 68.4521 600.596)
(-5.78957e-11 69.4708 558.859)
(-2.5484e-11 66.6667 496.614)
(-3.14304e-11 59.7087 413.056)
(-3.56313e-11 48.0573 311.118)
(-2.61532e-11 32.7402 196.742)
(-9.37689e-12 12.0346 69.583)
(-1.57683e-09 5.20807 630.343)
(-8.27542e-10 7.98771 630.3)
(-4.36633e-10 11.3688 630.244)
(-2.81516e-10 14.5653 630.176)
(-2.2948e-10 17.743 630.075)
(-2.28402e-10 20.7843 629.948)
(-1.60114e-10 23.7917 629.8)
(-8.01772e-11 26.7983 629.625)
(-6.07001e-11 29.9163 629.435)
(-3.88712e-11 33.12 629.218)
(-2.27125e-11 36.3489 628.968)
(-5.48764e-12 39.4831 628.703)
(1.58804e-10 42.466 628.509)
(1.30452e-10 45.141 628.486)
(-9.91585e-11 47.7965 628.883)
(-1.78809e-10 51.9564 629.584)
(-2.86433e-11 57.3732 628.818)
(-5.2858e-11 63.5083 622.118)
(-5.40967e-11 68.1372 601.275)
(-6.25468e-11 69.3728 559.95)
(-2.64316e-10 66.7547 498.019)
(-2.28827e-10 59.7933 414.502)
(-5.26682e-11 48.1138 312.367)
(-2.86376e-11 32.8094 197.596)
(-9.71094e-12 12.0729 69.8908)
(-1.56693e-09 5.13915 630.218)
(-8.58194e-10 7.99985 630.156)
(-4.68931e-10 11.3691 630.104)
(-2.82951e-10 14.5611 630.035)
(-1.66536e-10 17.7691 629.939)
(-6.80533e-11 20.8226 629.813)
(-6.10779e-11 23.8036 629.674)
(-7.97568e-11 26.7807 629.531)
(-6.02302e-11 29.9007 629.321)
(-3.86373e-11 33.1177 629.096)
(-2.33061e-11 36.3731 628.836)
(-2.9554e-11 39.5151 628.563)
(-1.92075e-10 42.5311 628.351)
(-1.82993e-10 45.2356 628.318)
(-1.65115e-10 47.8485 628.728)
(-1.03339e-10 51.8703 629.375)
(-2.93359e-11 57.3137 628.712)
(-5.30271e-11 63.5491 622.385)
(-6.02505e-11 68.5149 602.113)
(-4.29389e-11 69.5524 561.334)
(1.11365e-10 66.891 499.827)
(8.53398e-11 59.9578 416.357)
(-2.24595e-11 48.223 313.931)
(-2.44985e-11 32.8719 198.64)
(-9.14537e-12 12.1058 70.2522)
(-1.54851e-09 5.08699 630.017)
(-8.24964e-10 7.99078 629.975)
(-4.36391e-10 11.3528 629.919)
(-2.80367e-10 14.5486 629.858)
(-2.26122e-10 17.7389 629.785)
(-2.16791e-10 20.7821 629.689)
(-1.51383e-10 23.7819 629.571)
(-7.86007e-11 26.805 629.424)
(-5.98324e-11 29.9415 629.201)
(-3.83924e-11 33.1503 628.957)
(-2.21113e-11 36.4056 628.678)
(-7.71875e-14 39.5686 628.399)
(1.4529e-10 42.5939 628.157)
(1.17724e-10 45.2805 628.113)
(9.44056e-11 47.848 628.48)
(3.86736e-11 51.9621 629.104)
(-2.94302e-11 57.2483 628.598)
(-4.78345e-11 63.3696 622.643)
(-5.53725e-11 68.2771 603.044)
(-7.2375e-11 69.5228 562.584)
(-1.8486e-10 66.9214 501.398)
(-1.50027e-10 60.0631 418.074)
(-5.85764e-11 48.3064 315.443)
(-3.01203e-11 32.8797 199.671)
(-9.9838e-12 12.1086 70.5926)
(-1.54041e-09 5.1159 629.837)
(-8.73427e-10 7.99395 629.809)
(-4.86582e-10 11.3321 629.772)
(-2.81515e-10 14.4957 629.714)
(-1.6664e-10 17.6975 629.641)
(-7.23895e-11 20.7586 629.525)
(-6.50579e-11 23.7666 629.385)
(-7.87824e-11 26.7972 629.225)
(-5.95933e-11 29.9464 629.042)
(-3.83815e-11 33.1722 628.808)
(-2.40646e-11 36.434 628.551)
(-3.53644e-11 39.6002 628.25)
(-1.83801e-10 42.6689 628.02)
(-1.72759e-10 45.3834 627.958)
(-1.59143e-10 47.9278 628.29)
(-1.13738e-10 51.8546 628.908)
(-2.74533e-11 57.1277 628.493)
(-4.18608e-11 63.2687 622.899)
(-5.71552e-11 68.6965 603.831)
(-3.58402e-11 69.9176 564.205)
(5.18486e-11 67.1231 503.333)
(2.97402e-11 60.2506 420.079)
(-2.23265e-11 48.4855 317.217)
(-2.3476e-11 32.9488 200.911)
(-8.94034e-12 12.1294 71.0283)
(-1.52685e-09 5.16207 629.689)
(-7.97738e-10 7.94405 629.681)
(-4.11939e-10 11.3064 629.643)
(-2.79796e-10 14.4938 629.569)
(-2.48355e-10 17.6985 629.467)
(-2.36746e-10 20.7658 629.346)
(-1.49817e-10 23.7692 629.206)
(-7.73698e-11 26.7863 629.021)
(-5.93223e-11 29.9471 628.859)
(-3.80211e-11 33.1848 628.635)
(-2.13885e-11 36.4876 628.374)
(5.55764e-12 39.671 628.093)
(1.42761e-10 42.7311 627.842)
(1.10639e-10 45.4556 627.766)
(8.51273e-11 47.969 628.081)
(3.95009e-11 51.9657 628.675)
(-2.7686e-11 57.068 628.394)
(-3.77861e-11 63.0866 623.021)
(-5.58731e-11 68.3368 604.516)
(-7.41262e-11 69.9787 565.444)
(-1.3781e-10 67.3131 504.891)
(-1.0837e-10 60.391 421.715)
(-5.51017e-11 48.6096 318.715)
(-3.01051e-11 33.0082 201.993)
(-9.95171e-12 12.145 71.4298)
(-1.52925e-09 5.23666 629.538)
(-8.66891e-10 7.93601 629.494)
(-4.82401e-10 11.3131 629.445)
(-2.98477e-10 14.5035 629.378)
(-1.61758e-10 17.7116 629.291)
(-4.90715e-11 20.7715 629.173)
(-6.37311e-11 23.8003 629.031)
(-7.79483e-11 26.8109 628.865)
(-5.90921e-11 29.9556 628.661)
(-3.79724e-11 33.2007 628.425)
(-2.45403e-11 36.4942 628.148)
(-4.0409e-11 39.7191 627.886)
(-1.82403e-10 42.8308 627.636)
(-1.66622e-10 45.5746 627.556)
(-1.41692e-10 48.0718 627.867)
(-9.58384e-11 51.8635 628.48)
(-2.69024e-11 57.0036 628.265)
(-3.88359e-11 63.1075 623.143)
(-5.50586e-11 68.606 605.091)
(-3.43696e-11 70.2537 566.839)
(1.64198e-11 67.6772 506.698)
(6.17449e-13 60.6757 423.526)
(-2.56895e-11 48.822 320.298)
(-2.36205e-11 33.1446 203.124)
(-8.90901e-12 12.1936 71.8677)
(-1.52894e-09 5.32244 629.338)
(-7.92252e-10 7.93838 629.251)
(-4.09995e-10 11.2843 629.196)
(-2.59035e-10 14.4715 629.138)
(-2.26303e-10 17.6953 629.057)
(-2.3093e-10 20.7803 628.951)
(-1.45847e-10 23.8108 628.822)
(-7.62406e-11 26.8456 628.689)
(-5.88234e-11 30.0008 628.495)
(-3.76834e-11 33.2644 628.267)
(-2.07278e-11 36.5612 627.997)
(9.70848e-12 39.7607 627.689)
(1.34803e-10 42.8883 627.427)
(9.93974e-11 45.6333 627.338)
(6.40969e-11 48.1116 627.653)
(1.90722e-11 51.9822 628.239)
(-2.74179e-11 56.9623 628.066)
(-4.36341e-11 63.0663 623.237)
(-5.73055e-11 68.3817 605.873)
(-7.17093e-11 70.1133 567.72)
(-1.06465e-10 67.845 508.04)
(-8.3418e-11 60.9323 424.987)
(-5.02585e-11 49.01 321.585)
(-2.94284e-11 33.2547 204.016)
(-9.97069e-12 12.2284 72.1873)
(-1.52621e-09 5.3088 629.069)
(-8.54795e-10 7.97205 629.041)
(-4.72806e-10 11.2942 628.991)
(-2.92074e-10 14.4674 628.931)
(-1.62881e-10 17.6784 628.847)
(-6.12864e-11 20.7519 628.733)
(-6.96926e-11 23.783 628.607)
(-7.64953e-11 26.8182 628.442)
(-5.84756e-11 30.0001 628.272)
(-3.77263e-11 33.2608 628.048)
(-2.5123e-11 36.6071 627.79)
(-4.21064e-11 39.8621 627.508)
(-1.62053e-10 42.9901 627.231)
(-1.4445e-10 45.7205 627.139)
(-1.17876e-10 48.2026 627.442)
(-8.04015e-11 51.9235 627.959)
(-2.72718e-11 56.8727 627.835)
(-5.53362e-11 62.9173 623.326)
(-5.54462e-11 68.625 606.673)
(-3.69415e-11 70.4063 569.092)
(-9.70162e-12 68.0647 509.742)
(-1.8206e-11 61.2509 426.793)
(-2.96577e-11 49.3085 323.176)
(-2.44318e-11 33.448 205.126)
(-9.09537e-12 12.2972 72.5897)
(-1.51481e-09 5.22841 628.866)
(-7.91566e-10 7.91632 628.866)
(-4.11926e-10 11.252 628.84)
(-2.60749e-10 14.4373 628.778)
(-2.2187e-10 17.6766 628.704)
(-2.14741e-10 20.7645 628.58)
(-1.37006e-10 23.8049 628.439)
(-7.48556e-11 26.8403 628.275)
(-5.80599e-11 30.0154 628.068)
(-3.73883e-11 33.3 627.841)
(-2.03804e-11 36.615 627.578)
(9.64162e-12 39.8675 627.316)
(1.11156e-10 43.0295 627.068)
(7.57331e-11 45.7592 626.994)
(4.16564e-11 48.2799 627.241)
(2.05066e-12 52.0813 627.695)
(-1.39154e-10 56.7797 627.633)
(-2.82317e-10 62.5822 623.411)
(-5.91307e-11 68.3211 607.149)
(-6.63194e-11 70.5368 570.169)
(-8.3624e-11 68.2607 511.119)
(-6.62394e-11 61.516 428.28)
(-4.51854e-11 49.5707 324.532)
(-2.84336e-11 33.6316 206.105)
(-9.81563e-12 12.36 72.9694)
(-1.50947e-09 5.14612 628.726)
(-8.45121e-10 7.89964 628.715)
(-4.65793e-10 11.254 628.664)
(-2.87673e-10 14.4337 628.591)
(-1.63377e-10 17.6689 628.508)
(-6.88714e-11 20.7632 628.419)
(-7.28224e-11 23.8058 628.295)
(-7.48951e-11 26.8637 628.139)
(-5.7492e-11 30.0396 627.942)
(-3.75197e-11 33.3044 627.702)
(-2.57824e-11 36.6498 627.444)
(-4.32697e-11 39.9186 627.171)
(-1.46662e-10 43.0792 626.914)
(-1.3086e-10 45.8485 626.816)
(-1.0833e-10 48.4223 627.029)
(-6.91915e-11 52.0847 627.428)
(-3.0262e-11 56.6587 627.499)
(1.24694e-10 62.3421 623.475)
(-5.29931e-11 68.4582 607.555)
(-3.9191e-11 70.6856 571.381)
(-2.55286e-11 68.561 512.682)
(-2.94111e-11 61.8629 429.932)
(-3.28752e-11 49.8981 326.011)
(-2.53943e-11 33.9021 207.206)
(-9.30883e-12 12.4624 73.4353)
(-1.49643e-09 5.12523 628.592)
(-7.84076e-10 7.89147 628.542)
(-4.07321e-10 11.2548 628.493)
(-2.5885e-10 14.4316 628.432)
(-2.19679e-10 17.6487 628.346)
(-2.10681e-10 20.7388 628.236)
(-1.34227e-10 23.8134 628.105)
(-7.30992e-11 26.8787 627.953)
(-5.70264e-11 30.0795 627.783)
(-3.68309e-11 33.3617 627.56)
(-1.96715e-11 36.6745 627.291)
(1.18596e-11 39.951 627.007)
(1.06679e-10 43.1415 626.755)
(7.11753e-11 45.9166 626.636)
(3.95866e-11 48.5629 626.804)
(-3.95549e-12 52.2842 627.217)
(-3.2615e-11 56.5876 627.393)
(-8.61134e-11 62.1847 623.515)
(-5.7178e-11 68.1496 607.921)
(-6.15569e-11 70.6388 572.126)
(-7.594e-11 68.691 513.778)
(-2.41445e-10 62.1051 431.182)
(-1.87908e-10 50.1586 327.151)
(-3.44177e-11 34.146 208.06)
(-9.73462e-12 12.5586 73.8356)
(-1.49064e-09 5.18996 628.43)
(-8.36775e-10 7.9027 628.374)
(-4.61081e-10 11.2421 628.333)
(-2.83916e-10 14.4324 628.289)
(-1.59554e-10 17.6795 628.214)
(-6.77446e-11 20.7815 628.094)
(-7.13888e-11 23.8292 627.959)
(-7.32922e-11 26.8759 627.806)
(-5.65852e-11 30.0681 627.62)
(-3.68345e-11 33.3707 627.412)
(-2.62235e-11 36.7385 627.168)
(-4.68973e-11 40.0163 626.876)
(-1.49413e-10 43.2127 626.589)
(-1.33311e-10 46.0493 626.428)
(-1.09413e-10 48.7114 626.554)
(-5.96373e-11 52.2567 627.021)
(-3.16388e-11 56.5337 627.269)
(-3.17832e-12 62.1646 623.534)
(-5.3365e-11 68.2841 608.379)
(-3.88093e-11 70.7257 573.159)
(-2.01244e-11 68.9172 515.129)
(1.11633e-10 62.3805 432.649)
(7.70378e-11 50.4517 328.47)
(-7.48883e-12 34.4296 209.016)
(-6.18782e-12 12.6746 74.2361)
(-1.47862e-09 5.19871 628.252)
(-7.76334e-10 7.88712 628.236)
(-4.0367e-10 11.2145 628.191)
(-2.57747e-10 14.3847 628.119)
(-2.20662e-10 17.638 628.042)
(-2.30017e-10 20.7508 627.937)
(-1.54369e-10 23.836 627.811)
(-7.22145e-11 26.9191 627.654)
(-5.63742e-11 30.1195 627.46)
(-3.58656e-11 33.3918 627.219)
(-1.85264e-11 36.7465 626.947)
(1.55209e-11 40.0853 626.665)
(1.08288e-10 43.3281 626.379)
(7.40027e-11 46.1633 626.221)
(3.82557e-11 48.8231 626.33)
(-1.55082e-11 52.3684 626.897)
(-3.2592e-11 56.5443 627.113)
(-4.47223e-11 62.1055 623.585)
(-5.82809e-11 67.894 608.952)
(-5.91103e-11 70.7258 573.96)
(-8.04742e-11 68.9838 516.335)
(-1.72188e-10 62.5633 434.044)
(-1.23199e-10 50.6689 329.763)
(-4.28632e-11 34.6569 209.961)
(-1.16881e-11 12.7774 74.6458)
(-1.48729e-09 5.1159 628.094)
(-8.26788e-10 7.87639 628.072)
(-4.53529e-10 11.2414 628.02)
(-2.78817e-10 14.4227 627.958)
(-1.55809e-10 17.6637 627.875)
(-6.93888e-11 20.77 627.769)
(-7.30998e-11 23.8296 627.635)
(-7.26369e-11 26.9004 627.472)
(-5.57547e-11 30.1292 627.279)
(-3.62345e-11 33.4582 627.053)
(-2.7074e-11 36.8147 626.777)
(-5.00727e-11 40.1111 626.476)
(-1.46376e-10 43.3706 626.196)
(-1.29235e-10 46.2907 626.042)
(-1.02879e-10 48.8843 626.155)
(-5.95726e-11 52.2972 626.738)
(-3.20537e-11 56.5295 626.934)
(-3.65159e-11 62.0847 623.674)
(-5.08645e-11 68.014 609.678)
(-3.71647e-11 70.81 575.285)
(-1.76952e-11 69.1014 517.963)
(5.42314e-11 62.7569 435.753)
(2.97376e-11 50.89 331.307)
(-6.84632e-12 34.8766 211.078)
(-5.49249e-12 12.8819 75.1081)
(-1.46918e-09 5.06065 627.924)
(-7.9235e-10 7.86192 627.886)
(-4.23443e-10 11.2 627.844)
(-2.56964e-10 14.3671 627.795)
(-2.17856e-10 17.6239 627.726)
(-2.02064e-10 20.7483 627.618)
(-1.26183e-10 23.8613 627.478)
(-7.03992e-11 26.9533 627.316)
(-5.44012e-11 30.1522 627.115)
(-3.51243e-11 33.4475 626.868)
(-1.76101e-11 36.8411 626.605)
(1.70748e-11 40.1957 626.318)
(1.01125e-10 43.451 626.029)
(6.61602e-11 46.3621 625.868)
(3.50689e-11 48.948 626.009)
(-1.27871e-11 52.3534 626.539)
(-3.22128e-11 56.528 626.715)
(-3.72489e-11 61.9572 623.719)
(-5.91628e-11 67.9528 610.341)
(-5.64568e-11 71.0083 576.317)
(-7.63122e-11 69.2709 519.42)
(-1.21725e-10 62.96 437.315)
(-8.45335e-11 51.0589 332.716)
(-3.80167e-11 35.0241 212.097)
(-1.09458e-11 12.953 75.5508)
(-1.46521e-09 5.08998 627.763)
(-7.94973e-10 7.86434 627.729)
(-4.25054e-10 11.2107 627.684)
(-2.73802e-10 14.3764 627.618)
(-1.56805e-10 17.6331 627.531)
(-9.66216e-11 20.766 627.416)
(-9.77041e-11 23.8511 627.291)
(-6.9923e-11 26.9549 627.135)
(-5.28214e-11 30.2162 626.937)
(-3.56692e-11 33.5346 626.703)
(-2.74078e-11 36.8812 626.426)
(-5.10132e-11 40.2117 626.139)
(-1.37377e-10 43.5107 625.861)
(-1.18918e-10 46.4644 625.688)
(-9.61722e-11 49.0366 625.801)
(-5.99245e-11 52.4274 626.279)
(-3.19817e-11 56.5235 626.536)
(-3.40409e-11 61.7937 623.747)
(-5.105e-11 67.9248 610.703)
(-3.6682e-11 71.1654 577.5)
(-2.17001e-11 69.4376 520.956)
(1.47903e-11 63.1821 438.947)
(1.85668e-12 51.2519 334.152)
(-1.21767e-11 35.1709 213.102)
(-6.4497e-12 13.0122 75.9661)
(-1.45669e-09 5.07131 627.571)
(-7.83772e-10 7.84974 627.532)
(-4.1794e-10 11.1963 627.478)
(-2.55923e-10 14.3723 627.417)
(-2.33618e-10 17.6365 627.34)
(-1.91219e-10 20.756 627.234)
(-1.21368e-10 23.8731 627.09)
(-9.10489e-11 26.9801 626.928)
(-5.21792e-11 30.2025 626.741)
(-3.41006e-11 33.5318 626.514)
(-1.70026e-11 36.9352 626.245)
(1.62072e-11 40.2898 625.946)
(8.89942e-11 43.5822 625.643)
(5.47448e-11 46.5449 625.456)
(2.6664e-11 49.1272 625.549)
(-6.5552e-12 52.5072 625.963)
(-3.23381e-11 56.513 626.385)
(-3.50098e-11 61.7074 623.647)
(-5.90508e-11 67.9109 610.957)
(-5.38808e-11 71.353 578.444)
(-6.96418e-11 69.6868 522.298)
(-9.1121e-11 63.4062 440.446)
(-6.27379e-11 51.4302 335.461)
(-3.22118e-11 35.2723 213.984)
(-1.00651e-11 13.0419 76.2912)
(-1.45585e-09 5.04791 627.351)
(-7.86568e-10 7.8695 627.324)
(-4.20269e-10 11.2073 627.276)
(-2.6872e-10 14.3546 627.21)
(-1.38649e-10 17.6178 627.131)
(-8.23683e-11 20.767 627.018)
(-7.74306e-11 23.8713 626.888)
(-4.86167e-11 26.9827 626.728)
(-5.31204e-11 30.2502 626.527)
(-3.46342e-11 33.5804 626.29)
(-2.75582e-11 36.9524 626.017)
(-5.10797e-11 40.3173 625.719)
(-1.27099e-10 43.6459 625.428)
(-1.1103e-10 46.6384 625.243)
(-9.0878e-11 49.2422 625.328)
(-6.24922e-11 52.5739 625.709)
(-3.23139e-11 56.5218 626.255)
(-3.28949e-11 61.7128 623.499)
(-5.40558e-11 67.8378 611.315)
(-3.66685e-11 71.2971 579.536)
(-2.59291e-11 69.8328 523.897)
(-6.78271e-12 63.6172 442.228)
(-1.19439e-11 51.6609 337.027)
(-1.56751e-11 35.4059 215.039)
(-7.24753e-12 13.0828 76.6515)
(-1.44549e-09 5.03586 627.167)
(-7.78327e-10 7.82486 627.136)
(-4.37229e-10 11.1814 627.096)
(-2.78332e-10 14.349 627.045)
(-2.25813e-10 17.6068 626.962)
(-1.80357e-10 20.73 626.849)
(-1.16958e-10 23.8645 626.71)
(-8.75371e-11 26.9943 626.545)
(-5.36829e-11 30.236 626.347)
(-3.29721e-11 33.578 626.111)
(-1.60286e-11 36.992 625.846)
(1.6239e-11 40.3621 625.55)
(7.96769e-11 43.6807 625.249)
(4.73115e-11 46.6855 625.055)
(2.12406e-11 49.3533 625.111)
(-1.34366e-11 52.6505 625.508)
(-3.33772e-11 56.5397 626.007)
(-3.27776e-11 61.7439 623.4)
(-5.83804e-11 67.6801 611.769)
(-5.17519e-11 71.2333 580.555)
(-6.42966e-11 69.9374 525.464)
(-7.39066e-11 63.7996 444.022)
(-5.06843e-11 51.889 338.635)
(-2.83842e-11 35.5292 216.119)
(-1.01797e-11 13.1187 76.994)
(-1.44655e-09 5.03893 627.009)