/*--------------------------------*- C++ -*----------------------------------*\
| =========                 |                                                 |
| \\      /  F ield         | OpenFOAM: The Open Source CFD Toolbox           |
|  \\    /   O peration     | Version:  2212                                  |
|   \\  /    A nd           | Website:  www.openfoam.com                      |
|    \\/     M anipulation  |                                                 |
\*---------------------------------------------------------------------------*/
FoamFile
{
    version     2.0;
    format      ascii;
    arch        "LSB;label=32;scalar=64";
    class       volVectorField;
    location    "0.305";
    object      U_0;
}
// * * * * * * * * * * * * * * * * * * * * * * * * * * * * * * * * * * * * * //

dimensions      [0 1 -1 0 0 0 0];

internalField   nonuniform List<vector> 
24240
(
(9.06453 0.765313 1.48808e-06)
(9.06473 0.765331 6.39774e-07)
(9.06473 0.765329 1.8571e-06)
(9.06473 0.765327 2.06071e-06)
(9.06472 0.765324 2.75896e-06)
(9.06472 0.765321 3.07091e-06)
(9.06472 0.765318 3.44049e-06)
(9.06471 0.765315 3.60304e-06)
(9.06471 0.765311 3.70882e-06)
(9.06471 0.765307 3.67054e-06)
(9.0647 0.765304 3.56043e-06)
(9.0647 0.7653 3.33751e-06)
(9.06469 0.765297 3.07207e-06)
(9.06469 0.765294 2.69971e-06)
(9.06469 0.765291 2.38167e-06)
(9.06469 0.765289 1.88234e-06)
(9.06468 0.765287 1.66526e-06)
(9.06468 0.765286 8.66561e-07)
(9.06468 0.765285 9.59842e-07)
(9.06448 0.765267 -1.02308e-06)
(9.0465 0.769375 -6.45359e-07)
(9.0467 0.769394 -9.52428e-07)
(9.0467 0.769393 -1.19118e-06)
(9.0467 0.769393 -1.70686e-06)
(9.0467 0.769393 -1.94196e-06)
(9.0467 0.769393 -2.26644e-06)
(9.0467 0.769393 -2.42139e-06)
(9.0467 0.769393 -2.56661e-06)
(9.0467 0.769393 -2.60146e-06)
(9.0467 0.769393 -2.5967e-06)
(9.0467 0.769393 -2.51138e-06)
(9.0467 0.769393 -2.39133e-06)
(9.04669 0.769393 -2.20031e-06)
(9.04669 0.769393 -2.00955e-06)
(9.04669 0.769393 -1.72818e-06)
(9.04669 0.769393 -1.52538e-06)
(9.04669 0.769393 -1.1387e-06)
(9.04669 0.769393 -9.45703e-07)
(9.04669 0.769393 -4.22131e-07)
(9.04649 0.769375 1.24367e-07)
(9.07767 0.524801 -1.93706e-07)
(9.07788 0.524814 6.92514e-07)
(9.07788 0.524813 1.63604e-06)
(9.07788 0.524813 2.15392e-06)
(9.07788 0.524812 2.83462e-06)
(9.07788 0.524812 3.20692e-06)
(9.07788 0.524811 3.56348e-06)
(9.07787 0.52481 3.73479e-06)
(9.07787 0.524809 3.82153e-06)
(9.07787 0.524808 3.77192e-06)
(9.07787 0.524807 3.64028e-06)
(9.07787 0.524806 3.40359e-06)
(9.07787 0.524805 3.11662e-06)
(9.07787 0.524805 2.74808e-06)
(9.07787 0.524804 2.40741e-06)
(9.07787 0.524803 1.94672e-06)
(9.07787 0.524803 1.68339e-06)
(9.07787 0.524802 1.16728e-06)
(9.07787 0.524802 9.59105e-07)
(9.07766 0.524789 6.79414e-07)
(9.02592 0.520915 -6.71399e-07)
(9.02613 0.520928 -1.3722e-06)
(9.02613 0.520928 -1.8586e-06)
(9.02613 0.520928 -2.55182e-06)
(9.02613 0.520928 -3.09481e-06)
(9.02613 0.520928 -3.55982e-06)
(9.02613 0.520928 -3.86888e-06)
(9.02613 0.520927 -4.08945e-06)
(9.02613 0.520927 -4.17224e-06)
(9.02613 0.520927 -4.15966e-06)
(9.02613 0.520926 -4.03735e-06)
(9.02614 0.520926 -3.83621e-06)
(9.02614 0.520926 -3.54436e-06)
(9.02614 0.520925 -3.21577e-06)
(9.02614 0.520925 -2.80451e-06)
(9.02614 0.520925 -2.40421e-06)
(9.02614 0.520925 -1.92398e-06)
(9.02614 0.520924 -1.47771e-06)
(9.02614 0.520924 -7.00923e-07)
(9.02594 0.520911 -5.08387e-08)
(9.04915 0.319048 -4.54402e-09)
(9.04935 0.319056 7.23915e-07)
(9.04935 0.319056 1.57252e-06)
(9.04935 0.319055 2.10469e-06)
(9.04936 0.319054 2.58278e-06)
(9.04936 0.319053 2.92496e-06)
(9.04936 0.319052 3.18878e-06)
(9.04936 0.319051 3.3111e-06)
(9.04936 0.319049 3.34177e-06)
(9.04936 0.319048 3.2565e-06)
(9.04936 0.319046 3.09523e-06)
(9.04936 0.319045 2.84814e-06)
(9.04936 0.319044 2.56053e-06)
(9.04936 0.319043 2.21785e-06)
(9.04936 0.319042 1.88704e-06)
(9.04937 0.319041 1.51256e-06)
(9.04937 0.31904 1.18719e-06)
(9.04937 0.31904 8.25807e-07)
(9.04937 0.319039 7.08895e-07)
(9.04916 0.319031 4.47085e-07)
(9.00442 0.311228 -7.79822e-07)
(9.00462 0.311236 -1.92662e-06)
(9.00462 0.311235 -2.91265e-06)
(9.00463 0.311233 -3.91062e-06)
(9.00463 0.31123 -4.69376e-06)
(9.00463 0.311228 -5.38681e-06)
(9.00464 0.311225 -5.87147e-06)
(9.00464 0.311221 -6.20657e-06)
(9.00465 0.311218 -6.34686e-06)
(9.00465 0.311214 -6.33065e-06)
(9.00466 0.311211 -6.14495e-06)
(9.00466 0.311208 -5.82726e-06)
(9.00466 0.311205 -5.36951e-06)
(9.00467 0.311202 -4.83224e-06)
(9.00467 0.3112 -4.18082e-06)
(9.00467 0.311198 -3.51683e-06)
(9.00468 0.311196 -2.72359e-06)
(9.00468 0.311195 -1.99164e-06)
(9.00468 0.311194 -1.06743e-06)
(9.00448 0.311186 -2.23378e-07)
(9.01753 0.145177 -5.03885e-07)
(9.01774 0.145181 -8.59068e-07)
(9.01774 0.145181 -1.06456e-06)
(9.01774 0.145181 -1.41498e-06)
(9.01775 0.145181 -1.70642e-06)
(9.01775 0.145181 -1.97772e-06)
(9.01775 0.145181 -2.17815e-06)
(9.01776 0.145181 -2.3412e-06)
(9.01776 0.145181 -2.43235e-06)
(9.01777 0.145181 -2.47362e-06)
(9.01777 0.145181 -2.44182e-06)
(9.01778 0.14518 -2.35933e-06)
(9.01778 0.14518 -2.20408e-06)
(9.01779 0.14518 -2.0122e-06)
(9.01779 0.14518 -1.75048e-06)
(9.01779 0.14518 -1.48288e-06)
(9.01779 0.14518 -1.14779e-06)
(9.0178 0.14518 -8.27537e-07)
(9.0178 0.14518 -2.87652e-07)
(9.01759 0.145176 1.15759e-07)
(8.99618 0.131972 -7.44668e-07)
(8.99639 0.131976 -1.90571e-06)
(8.99639 0.131975 -2.90204e-06)
(8.99639 0.131974 -3.8924e-06)
(8.99639 0.131973 -4.69454e-06)
(8.9964 0.131972 -5.40209e-06)
(8.9964 0.131971 -5.91612e-06)
(8.99641 0.131969 -6.27862e-06)
(8.99641 0.131968 -6.44728e-06)
(8.99642 0.131967 -6.45164e-06)
(8.99643 0.131965 -6.27434e-06)
(8.99643 0.131964 -5.95128e-06)
(8.99644 0.131962 -5.47214e-06)
(8.99644 0.131961 -4.89774e-06)
(8.99644 0.13196 -4.20287e-06)
(8.99645 0.131959 -3.48851e-06)
(8.99645 0.131959 -2.66111e-06)
(8.99645 0.131958 -1.89268e-06)
(8.99645 0.131958 -9.67054e-07)
(8.99625 0.131955 -1.8925e-07)
(9.00172 -0.0116655 -6.77804e-07)
(9.00192 -0.0116656 -1.51925e-06)
(9.00193 -0.0116647 -2.20555e-06)
(9.00193 -0.0116634 -2.93916e-06)
(9.00193 -0.0116617 -3.55464e-06)
(9.00194 -0.0116598 -4.10014e-06)
(9.00194 -0.0116576 -4.50955e-06)
(9.00194 -0.0116552 -4.80945e-06)
(9.00195 -0.0116528 -4.96543e-06)
(9.00195 -0.0116504 -4.9974e-06)
(9.00196 -0.011648 -4.88762e-06)
(9.00196 -0.0116457 -4.66272e-06)
(9.00197 -0.0116436 -4.30935e-06)
(9.00197 -0.0116417 -3.87431e-06)
(9.00197 -0.01164 -3.33364e-06)
(9.00198 -0.0116386 -2.76902e-06)
(9.00198 -0.0116375 -2.10437e-06)
(9.00198 -0.0116366 -1.47861e-06)
(9.00198 -0.0116361 -6.54762e-07)
(9.00178 -0.0116353 -4.7043e-09)
(9.00987 -0.0291065 -4.24842e-07)
(9.01007 -0.0291081 -8.09708e-07)
(9.01007 -0.0291087 -1.06309e-06)
(9.01008 -0.0291096 -1.40168e-06)
(9.01008 -0.0291107 -1.66844e-06)
(9.01008 -0.0291121 -1.93014e-06)
(9.01008 -0.0291136 -2.12276e-06)
(9.01008 -0.0291152 -2.2786e-06)
(9.01008 -0.0291168 -2.36256e-06)
(9.01008 -0.0291185 -2.39609e-06)
(9.01008 -0.0291201 -2.35528e-06)
(9.01008 -0.0291216 -2.26489e-06)
(9.01009 -0.0291229 -2.10082e-06)
(9.01009 -0.0291241 -1.90445e-06)
(9.01009 -0.0291252 -1.63506e-06)
(9.01009 -0.029126 -1.36515e-06)
(9.01009 -0.0291266 -1.00938e-06)
(9.01009 -0.029127 -7.0048e-07)
(9.01009 -0.0291273 -2.58468e-07)
(9.00988 -0.0291261 7.41305e-08)
(9.00686 -0.170702 -8.7028e-07)
(9.00706 -0.170707 -2.3029e-06)
(9.00707 -0.170706 -3.5189e-06)
(9.00707 -0.170705 -4.70964e-06)
(9.00707 -0.170703 -5.69479e-06)
(9.00707 -0.170702 -6.54543e-06)
(9.00707 -0.1707 -7.174e-06)
(9.00708 -0.170698 -7.60499e-06)
(9.00708 -0.170696 -7.80398e-06)
(9.00708 -0.170694 -7.79115e-06)
(9.00708 -0.170692 -7.55794e-06)
(9.00709 -0.17069 -7.13802e-06)
(9.00709 -0.170688 -6.53263e-06)
(9.00709 -0.170687 -5.80321e-06)
(9.00709 -0.170686 -4.94022e-06)
(9.0071 -0.170684 -4.04965e-06)
(9.0071 -0.170684 -3.04095e-06)
(9.0071 -0.170683 -2.10617e-06)
(9.0071 -0.170682 -9.95758e-07)
(9.00689 -0.170677 -1.54785e-07)
(9.04735 -0.185972 -1.80362e-07)
(9.04755 -0.185978 1.04491e-07)
(9.04755 -0.185978 4.93915e-07)
(9.04755 -0.185979 6.97598e-07)
(9.04755 -0.185979 8.73811e-07)
(9.04755 -0.18598 9.79174e-07)
(9.04755 -0.185981 1.05013e-06)
(9.04755 -0.185982 1.05961e-06)
(9.04755 -0.185983 1.03838e-06)
(9.04754 -0.185984 9.705e-07)
(9.04754 -0.185985 8.87887e-07)
(9.04754 -0.185986 7.74267e-07)
(9.04754 -0.185987 6.68469e-07)
(9.04754 -0.185988 5.42608e-07)
(9.04754 -0.185988 4.49393e-07)
(9.04753 -0.185989 3.40421e-07)
(9.04753 -0.185989 2.88511e-07)
(9.04753 -0.185989 2.17073e-07)
(9.04753 -0.185989 3.02322e-07)
(9.04733 -0.185984 3.04048e-07)
(9.03453 -0.347102 -1.01395e-06)
(9.03473 -0.347112 -2.78578e-06)
(9.03473 -0.347111 -4.31952e-06)
(9.03473 -0.34711 -5.79017e-06)
(9.03473 -0.347109 -6.97415e-06)
(9.03474 -0.347107 -8.01593e-06)
(9.03474 -0.347105 -8.77902e-06)
(9.03474 -0.347104 -9.29492e-06)
(9.03474 -0.347102 -9.52299e-06)
(9.03474 -0.3471 -9.48362e-06)
(9.03474 -0.347098 -9.17299e-06)
(9.03474 -0.347096 -8.62889e-06)
(9.03474 -0.347094 -7.86435e-06)
(9.03474 -0.347093 -6.95272e-06)
(9.03475 -0.347091 -5.89281e-06)
(9.03475 -0.34709 -4.81457e-06)
(9.03475 -0.347089 -3.5844e-06)
(9.03475 -0.347089 -2.47997e-06)
(9.03475 -0.347088 -1.20815e-06)
(9.03454 -0.347078 -2.31309e-07)
(9.10422 -0.357086 5.95357e-08)
(9.10442 -0.357097 9.85394e-07)
(9.10442 -0.357097 2.02814e-06)
(9.10442 -0.357097 2.74644e-06)
(9.10442 -0.357098 3.33183e-06)
(9.10441 -0.357098 3.79222e-06)
(9.10441 -0.357098 4.12684e-06)
(9.1044 -0.357098 4.30481e-06)
(9.1044 -0.357099 4.35667e-06)
(9.10439 -0.357099 4.26162e-06)
(9.10439 -0.357099 4.06234e-06)
(9.10438 -0.357099 3.74444e-06)
(9.10438 -0.3571 3.36357e-06)
(9.10438 -0.3571 2.90057e-06)
(9.10437 -0.3571 2.42748e-06)
(9.10437 -0.3571 1.9189e-06)
(9.10437 -0.3571 1.42719e-06)
(9.10437 -0.3571 9.679e-07)
(9.10436 -0.3571 7.50002e-07)
(9.10416 -0.357089 4.75636e-07)
(9.08036 -0.557009 -1.08263e-06)
(9.08057 -0.557024 -2.94246e-06)
(9.08056 -0.557023 -4.58925e-06)
(9.08056 -0.557022 -6.15835e-06)
(9.08056 -0.557021 -7.36386e-06)
(9.08056 -0.557019 -8.47472e-06)
(9.08056 -0.557018 -9.27408e-06)
(9.08056 -0.557016 -9.8121e-06)
(9.08056 -0.557014 -1.00356e-05)
(9.08056 -0.557012 -9.97319e-06)
(9.08056 -0.55701 -9.62017e-06)
(9.08056 -0.557008 -9.02366e-06)
(9.08056 -0.557007 -8.20379e-06)
(9.08056 -0.557005 -7.24463e-06)
(9.08056 -0.557004 -6.14427e-06)
(9.08056 -0.557003 -5.04828e-06)
(9.08056 -0.557002 -3.74394e-06)
(9.08056 -0.557002 -2.62017e-06)
(9.08056 -0.557002 -1.30093e-06)
(9.08035 -0.556986 -2.43261e-07)
(9.16763 -0.560452 2.92095e-07)
(9.16783 -0.560467 1.88783e-06)
(9.16783 -0.560467 3.60923e-06)
(9.16782 -0.560467 4.79638e-06)
(9.16782 -0.560466 5.74192e-06)
(9.16781 -0.560465 6.53471e-06)
(9.16781 -0.560464 7.13896e-06)
(9.1678 -0.560463 7.47644e-06)
(9.16779 -0.560462 7.60187e-06)
(9.16778 -0.560461 7.46844e-06)
(9.16778 -0.56046 7.13994e-06)
(9.16777 -0.560459 6.59361e-06)
(9.16776 -0.560458 5.91612e-06)
(9.16775 -0.560458 5.08553e-06)
(9.16775 -0.560457 4.22154e-06)
(9.16774 -0.560456 3.29278e-06)
(9.16774 -0.560456 2.34325e-06)
(9.16774 -0.560455 1.51985e-06)
(9.16774 -0.560455 1.07463e-06)
(9.16753 -0.56044 6.03896e-07)
(9.13065 -0.816437 -9.20966e-07)
(9.13085 -0.816458 -2.40493e-06)
(9.13085 -0.816457 -3.52833e-06)
(9.13085 -0.816456 -4.89509e-06)
(9.13085 -0.816455 -6.14458e-06)
(9.13084 -0.816454 -7.11514e-06)
(9.13084 -0.816453 -7.80808e-06)
(9.13084 -0.816452 -8.26245e-06)
(9.13083 -0.816451 -8.4307e-06)
(9.13083 -0.816449 -8.36404e-06)
(9.13083 -0.816448 -8.04615e-06)
(9.13082 -0.816447 -7.5417e-06)
(9.13082 -0.816446 -6.85549e-06)
(9.13082 -0.816445 -6.08526e-06)
(9.13082 -0.816444 -5.2274e-06)
(9.13081 -0.816443 -4.38825e-06)
(9.13081 -0.816443 -3.55744e-06)
(9.13081 -0.816443 -2.66129e-06)
(9.13081 -0.816443 -1.28329e-06)
(9.13061 -0.816422 -2.61255e-07)
(9.21143 -0.811302 4.72344e-07)
(9.21163 -0.811322 2.70759e-06)
(9.21163 -0.811321 4.50864e-06)
(9.21162 -0.811319 5.8832e-06)
(9.21162 -0.811317 7.40774e-06)
(9.21161 -0.811314 8.39771e-06)
(9.2116 -0.811312 9.25533e-06)
(9.21159 -0.811308 9.69767e-06)
(9.21158 -0.811305 9.88538e-06)
(9.21157 -0.811302 9.71068e-06)
(9.21155 -0.811299 9.27765e-06)
(9.21154 -0.811296 8.54054e-06)
(9.21153 -0.811293 7.63687e-06)
(9.21153 -0.811291 6.51176e-06)
(9.21152 -0.811289 5.41786e-06)
(9.21151 -0.811287 4.15614e-06)
(9.21151 -0.811286 3.2206e-06)
(9.2115 -0.811285 2.00895e-06)
(9.2115 -0.811285 1.04888e-06)
(9.2113 -0.811264 6.62384e-07)
(9.15797 -1.12974 -2.91367e-07)
(9.15817 -1.12977 -4.76641e-07)
(9.15817 -1.12977 -1.13746e-06)
(9.15817 -1.12977 -1.93335e-06)
(9.15816 -1.12977 -2.33161e-06)
(9.15816 -1.12977 -2.79338e-06)
(9.15815 -1.12977 -3.01068e-06)
(9.15814 -1.12977 -3.20289e-06)
(9.15814 -1.12977 -3.23904e-06)
(9.15813 -1.12977 -3.2302e-06)
(9.15812 -1.12977 -3.11048e-06)
(9.15812 -1.12977 -2.96467e-06)
(9.15811 -1.12977 -2.7361e-06)
(9.1581 -1.12977 -2.54562e-06)
(9.1581 -1.12977 -2.25884e-06)
(9.1581 -1.12977 -2.11244e-06)
(9.15809 -1.12977 -1.75107e-06)
(9.15809 -1.12977 -1.65183e-06)
(9.15809 -1.12978 -1.23794e-06)
(9.15788 -1.12975 -2.80518e-07)
(9.19641 -1.10725 3.89359e-06)
(9.19659 -1.10727 3.71771e-06)
(9.19658 -1.10727 5.09121e-06)
(9.19657 -1.10726 5.66939e-06)
(9.19656 -1.10726 7.0066e-06)
(9.19655 -1.10725 7.82515e-06)
(9.19654 -1.10725 8.64888e-06)
(9.19653 -1.10724 9.05764e-06)
(9.19652 -1.10723 9.25494e-06)
(9.1965 -1.10722 9.08782e-06)
(9.19649 -1.10722 8.67121e-06)
(9.19648 -1.10721 7.93554e-06)
(9.19647 -1.1072 7.04093e-06)
(9.19646 -1.1072 5.91016e-06)
(9.19645 -1.10719 4.84496e-06)
(9.19644 -1.10719 3.53363e-06)
(9.19643 -1.10719 2.59018e-06)
(9.19643 -1.10718 7.68747e-07)
(9.19644 -1.10719 -3.62418e-07)
(9.19625 -1.10716 -2.87207e-06)
(8.78566 0.760668 1.36827e-06)
(8.78586 0.760684 1.29006e-06)
(8.78585 0.760681 3.07229e-06)
(8.78585 0.760678 3.78968e-06)
(8.78585 0.760675 4.98843e-06)
(8.78585 0.76067 5.67042e-06)
(8.78585 0.760665 6.36759e-06)
(8.78585 0.760659 6.73935e-06)
(8.78585 0.760653 6.98697e-06)
(8.78585 0.760647 6.98607e-06)
(8.78585 0.760642 6.84488e-06)
(8.78585 0.760636 6.49727e-06)
(8.78585 0.760631 6.06012e-06)
(8.78584 0.760626 5.4344e-06)
(8.78584 0.760622 4.85657e-06)
(8.78584 0.760618 4.01364e-06)
(8.78584 0.760615 3.49665e-06)
(8.78584 0.760613 2.28084e-06)
(8.78584 0.760611 1.94702e-06)
(8.78565 0.760594 -3.24826e-07)
(8.78243 0.763536 -7.63382e-07)
(8.78263 0.763553 -1.20421e-06)
(8.78263 0.763552 -1.52921e-06)
(8.78263 0.763552 -2.11663e-06)
(8.78263 0.763552 -2.37882e-06)
(8.78263 0.763552 -2.75753e-06)
(8.78263 0.763552 -2.91999e-06)
(8.78263 0.763552 -3.08402e-06)
(8.78263 0.763552 -3.10331e-06)
(8.78263 0.763552 -3.08604e-06)
(8.78263 0.763552 -2.96314e-06)
(8.78263 0.763552 -2.81269e-06)
(8.78263 0.763551 -2.56488e-06)
(8.78263 0.763551 -2.33558e-06)
(8.78264 0.763551 -1.97687e-06)
(8.78264 0.763551 -1.73527e-06)
(8.78264 0.763551 -1.24934e-06)
(8.78264 0.763551 -1.0056e-06)
(8.78264 0.763551 -4.19614e-07)
(8.78244 0.763534 1.70647e-07)
(8.80727 0.549827 1.64305e-07)
(8.80747 0.549839 1.53168e-06)
(8.80747 0.549838 2.7858e-06)
(8.80747 0.549837 3.7782e-06)
(8.80747 0.549835 4.96844e-06)
(8.80747 0.549833 5.69839e-06)
(8.80747 0.549831 6.36808e-06)
(8.80747 0.549829 6.743e-06)
(8.80747 0.549826 6.9599e-06)
(8.80747 0.549824 6.94075e-06)
(8.80747 0.549821 6.76876e-06)
(8.80747 0.549819 6.39981e-06)
(8.80747 0.549816 5.92778e-06)
(8.80747 0.549814 5.30501e-06)
(8.80747 0.549812 4.69919e-06)
(8.80747 0.549811 3.90085e-06)
(8.80747 0.549809 3.37526e-06)
(8.80747 0.549808 2.45384e-06)
(8.80746 0.549808 1.64517e-06)
(8.80727 0.549795 8.65568e-07)
(8.79944 0.546538 -8.90845e-07)
(8.79964 0.54655 -2.19035e-06)
(8.79965 0.546549 -3.2616e-06)
(8.79965 0.546547 -4.44452e-06)
(8.79965 0.546545 -5.45445e-06)
(8.79965 0.546543 -6.28152e-06)
(8.79965 0.54654 -6.85124e-06)
(8.79965 0.546537 -7.25423e-06)
(8.79965 0.546534 -7.42123e-06)
(8.79965 0.546531 -7.41485e-06)
(8.79966 0.546528 -7.21468e-06)
(8.79966 0.546525 -6.8672e-06)
(8.79966 0.546522 -6.35366e-06)
(8.79966 0.54652 -5.76704e-06)
(8.79966 0.546517 -5.03586e-06)
(8.79966 0.546515 -4.30622e-06)
(8.79966 0.546513 -3.48584e-06)
(8.79967 0.546512 -2.63648e-06)
(8.79967 0.546512 -1.45595e-06)
(8.79947 0.546499 -3.5482e-07)
(8.81951 0.346692 -9.20554e-08)
(8.81971 0.3467 3.23114e-07)
(8.81971 0.346699 8.22477e-07)
(8.81971 0.346699 1.11479e-06)
(8.81971 0.346698 1.37601e-06)
(8.81971 0.346697 1.55169e-06)
(8.81971 0.346696 1.71273e-06)
(8.81972 0.346695 1.76442e-06)
(8.81972 0.346694 1.78004e-06)
(8.81972 0.346693 1.70823e-06)
(8.81972 0.346692 1.60803e-06)
(8.81972 0.34669 1.44266e-06)
(8.81973 0.346689 1.27927e-06)
(8.81973 0.346688 1.06646e-06)
(8.81973 0.346687 9.04197e-07)
(8.81973 0.346686 6.84198e-07)
(8.81973 0.346686 5.27917e-07)
(8.81973 0.346685 3.3467e-07)
(8.81973 0.346685 3.62317e-07)
(8.81953 0.346677 3.07094e-07)
(8.81115 0.337778 -9.77574e-07)
(8.81136 0.337785 -2.6523e-06)
(8.81136 0.337784 -4.22055e-06)
(8.81136 0.337781 -5.67388e-06)
(8.81136 0.337779 -6.81695e-06)
(8.81136 0.337775 -7.8461e-06)
(8.81136 0.337772 -8.57818e-06)
(8.81136 0.337768 -9.10247e-06)
(8.81136 0.337764 -9.34534e-06)
(8.81136 0.337759 -9.36649e-06)
(8.81136 0.337755 -9.13827e-06)
(8.81137 0.337751 -8.71968e-06)
(8.81137 0.337748 -8.08754e-06)
(8.81137 0.337744 -7.33579e-06)
(8.81137 0.337741 -6.39888e-06)
(8.81137 0.337739 -5.42945e-06)
(8.81137 0.337737 -4.23973e-06)
(8.81137 0.337735 -3.11181e-06)
(8.81137 0.337734 -1.83643e-06)
(8.81117 0.337726 -5.28604e-07)
(8.82099 0.156194 -7.0573e-07)
(8.82119 0.156197 -1.58947e-06)
(8.82119 0.156197 -2.35446e-06)
(8.82119 0.156197 -3.14801e-06)
(8.82119 0.156197 -3.8296e-06)
(8.8212 0.156197 -4.42463e-06)
(8.8212 0.156197 -4.86345e-06)
(8.8212 0.156197 -5.19649e-06)
(8.8212 0.156196 -5.36873e-06)
(8.8212 0.156196 -5.42245e-06)
(8.82121 0.156196 -5.32195e-06)
(8.82121 0.156195 -5.11375e-06)
(8.82121 0.156195 -4.76454e-06)
(8.82121 0.156195 -4.34187e-06)
(8.82121 0.156195 -3.79363e-06)
(8.82121 0.156194 -3.22464e-06)
(8.82122 0.156194 -2.54534e-06)
(8.82122 0.156194 -1.86121e-06)
(8.82122 0.156194 -9.76578e-07)
(8.82102 0.15619 -1.48184e-07)
(8.82027 0.141676 -9.8298e-07)
(8.82047 0.141679 -2.71093e-06)
(8.82047 0.141679 -4.32649e-06)
(8.82047 0.141678 -5.81326e-06)
(8.82048 0.141678 -7.01985e-06)
(8.82048 0.141677 -8.09846e-06)
(8.82048 0.141676 -8.89037e-06)
(8.82048 0.141675 -9.46349e-06)
(8.82048 0.141674 -9.74642e-06)
(8.82048 0.141672 -9.78961e-06)
(8.82048 0.141671 -9.56004e-06)
(8.82049 0.14167 -9.11759e-06)
(8.82049 0.141669 -8.4405e-06)
(8.82049 0.141668 -7.62199e-06)
(8.82049 0.141667 -6.61292e-06)
(8.82049 0.141667 -5.56117e-06)
(8.82049 0.141666 -4.31308e-06)
(8.82049 0.141666 -3.11502e-06)
(8.8205 0.141666 -1.80016e-06)
(8.82029 0.141663 -5.08377e-07)
(8.82269 -0.0263909 -8.36609e-07)
(8.8229 -0.0263911 -2.10869e-06)
(8.8229 -0.0263899 -3.26607e-06)
(8.8229 -0.0263878 -4.36814e-06)
(8.8229 -0.0263854 -5.29193e-06)
(8.8229 -0.0263825 -6.11368e-06)
(8.8229 -0.0263793 -6.72795e-06)
(8.8229 -0.0263758 -7.1833e-06)
(8.8229 -0.0263722 -7.41997e-06)
(8.8229 -0.0263685 -7.47725e-06)
(8.8229 -0.0263649 -7.3244e-06)
(8.82291 -0.0263615 -7.01048e-06)
(8.82291 -0.0263582 -6.51171e-06)
(8.82291 -0.0263553 -5.90216e-06)
(8.82291 -0.0263526 -5.13688e-06)
(8.82291 -0.0263504 -4.33265e-06)
(8.82291 -0.0263486 -3.36964e-06)
(8.82291 -0.0263473 -2.43226e-06)
(8.82291 -0.0263463 -1.32853e-06)
(8.82271 -0.0263449 -2.81185e-07)
(8.83398 -0.0428682 -4.89155e-07)
(8.83418 -0.04287 -1.07317e-06)
(8.83418 -0.0428702 -1.58303e-06)
(8.83418 -0.0428707 -2.0987e-06)
(8.83419 -0.0428712 -2.50551e-06)
(8.83419 -0.0428718 -2.90915e-06)
(8.83419 -0.0428724 -3.20537e-06)
(8.83419 -0.0428731 -3.45048e-06)
(8.83419 -0.0428739 -3.58171e-06)
(8.83419 -0.0428746 -3.63869e-06)
(8.83419 -0.0428753 -3.57906e-06)
(8.83419 -0.042876 -3.44645e-06)
(8.83419 -0.0428766 -3.2022e-06)
(8.8342 -0.0428772 -2.91257e-06)
(8.8342 -0.0428777 -2.51491e-06)
(8.8342 -0.042878 -2.11395e-06)
(8.8342 -0.0428783 -1.59246e-06)
(8.8342 -0.0428785 -1.11695e-06)
(8.8342 -0.0428786 -5.7755e-07)
(8.834 -0.042877 -6.99261e-08)
(8.8305 -0.212702 -8.82027e-07)
(8.8307 -0.212707 -2.45146e-06)
(8.8307 -0.212706 -3.88027e-06)
(8.8307 -0.212704 -5.2073e-06)
(8.8307 -0.212702 -6.28692e-06)
(8.8307 -0.2127 -7.25913e-06)
(8.8307 -0.212697 -7.98478e-06)
(8.8307 -0.212695 -8.51202e-06)
(8.8307 -0.212692 -8.7804e-06)
(8.8307 -0.212689 -8.82377e-06)
(8.8307 -0.212686 -8.61875e-06)
(8.8307 -0.212683 -8.21479e-06)
(8.8307 -0.21268 -7.59923e-06)
(8.8307 -0.212678 -6.85291e-06)
(8.8307 -0.212676 -5.93591e-06)
(8.8307 -0.212674 -4.98045e-06)
(8.8307 -0.212672 -3.83351e-06)
(8.8307 -0.212671 -2.74833e-06)
(8.8307 -0.21267 -1.53519e-06)
(8.8305 -0.212664 -4.09711e-07)
(8.85555 -0.225265 -9.20784e-08)
(8.85576 -0.225272 2.4582e-07)
(8.85576 -0.225272 6.39868e-07)
(8.85576 -0.225272 9.0491e-07)
(8.85576 -0.225272 1.14035e-06)
(8.85576 -0.225272 1.29101e-06)
(8.85576 -0.225273 1.4098e-06)
(8.85576 -0.225273 1.45088e-06)
(8.85576 -0.225273 1.46593e-06)
(8.85576 -0.225273 1.42197e-06)
(8.85576 -0.225274 1.36797e-06)
(8.85576 -0.225274 1.26834e-06)
(8.85576 -0.225274 1.17618e-06)
(8.85576 -0.225274 1.04152e-06)
(8.85576 -0.225274 9.3065e-07)
(8.85576 -0.225274 7.76406e-07)
(8.85576 -0.225274 6.60662e-07)
(8.85576 -0.225274 5.12047e-07)
(8.85576 -0.225274 4.44349e-07)
(8.85556 -0.225268 3.08724e-07)
(8.84377 -0.411419 -9.0721e-07)
(8.84397 -0.411429 -2.58553e-06)
(8.84397 -0.411428 -4.16351e-06)
(8.84397 -0.411426 -5.58234e-06)
(8.84397 -0.411424 -6.66146e-06)
(8.84397 -0.411421 -7.68754e-06)
(8.84397 -0.411418 -8.44143e-06)
(8.84397 -0.411415 -8.98436e-06)
(8.84397 -0.411412 -9.25022e-06)
(8.84397 -0.411409 -9.27087e-06)
(8.84396 -0.411405 -9.02875e-06)
(8.84396 -0.411402 -8.57474e-06)
(8.84396 -0.411399 -7.90644e-06)
(8.84396 -0.411397 -7.10997e-06)
(8.84396 -0.411394 -6.14474e-06)
(8.84396 -0.411392 -5.16202e-06)
(8.84396 -0.411391 -3.92769e-06)
(8.84396 -0.41139 -2.81837e-06)
(8.84396 -0.411389 -1.63775e-06)
(8.84376 -0.411378 -4.77804e-07)
(8.87896 -0.417989 3.7628e-07)
(8.87916 -0.417999 1.72078e-06)
(8.87916 -0.417999 3.13302e-06)
(8.87916 -0.417999 4.24851e-06)
(8.87916 -0.417999 5.16531e-06)
(8.87916 -0.417999 5.9266e-06)
(8.87916 -0.417998 6.51299e-06)
(8.87916 -0.417998 6.87488e-06)
(8.87916 -0.417997 7.05796e-06)
(8.87916 -0.417997 7.02318e-06)
(8.87916 -0.417996 6.83146e-06)
(8.87916 -0.417996 6.45118e-06)
(8.87916 -0.417995 5.95628e-06)
(8.87916 -0.417995 5.30955e-06)
(8.87915 -0.417994 4.59796e-06)
(8.87915 -0.417994 3.7868e-06)
(8.87915 -0.417994 2.92031e-06)
(8.87915 -0.417993 2.07444e-06)
(8.87915 -0.417993 1.39118e-06)
(8.87895 -0.417982 6.28088e-07)
(8.85632 -0.630353 -8.38221e-07)
(8.85652 -0.630368 -2.36682e-06)
(8.85652 -0.630367 -3.88813e-06)
(8.85652 -0.630365 -5.20323e-06)
(8.85651 -0.630363 -6.09232e-06)
(8.85651 -0.63036 -7.03557e-06)
(8.85651 -0.630357 -7.70342e-06)
(8.85651 -0.630354 -8.18313e-06)
(8.8565 -0.630351 -8.39686e-06)
(8.8565 -0.630347 -8.38651e-06)
(8.8565 -0.630344 -8.13441e-06)
(8.8565 -0.630341 -7.69886e-06)
(8.8565 -0.630338 -7.08083e-06)
(8.85649 -0.630335 -6.37155e-06)
(8.85649 -0.630333 -5.52596e-06)
(8.85649 -0.630331 -4.69884e-06)
(8.85649 -0.63033 -3.54009e-06)
(8.85649 -0.630329 -2.58204e-06)
(8.85649 -0.630328 -1.57722e-06)
(8.85629 -0.630312 -4.71464e-07)
(8.89088 -0.629005 8.56922e-07)
(8.89108 -0.62902 3.25943e-06)
(8.89108 -0.629019 5.74068e-06)
(8.89108 -0.629019 7.68614e-06)
(8.89107 -0.629017 9.23658e-06)
(8.89107 -0.629016 1.06068e-05)
(8.89107 -0.629014 1.16924e-05)
(8.89107 -0.629012 1.23763e-05)
(8.89107 -0.62901 1.27359e-05)
(8.89107 -0.629008 1.26927e-05)
(8.89107 -0.629006 1.23412e-05)
(8.89106 -0.629004 1.16375e-05)
(8.89106 -0.629003 1.07012e-05)
(8.89106 -0.629001 9.48952e-06)
(8.89106 -0.629 8.15656e-06)
(8.89106 -0.628998 6.65519e-06)
(8.89106 -0.628997 4.98621e-06)
(8.89106 -0.628996 3.45325e-06)
(8.89105 -0.628995 2.21573e-06)
(8.89085 -0.62898 8.95864e-07)
(8.85493 -0.870465 -5.05251e-07)
(8.85513 -0.870484 -1.36193e-06)
(8.85513 -0.870483 -1.88846e-06)
(8.85513 -0.870482 -2.7432e-06)
(8.85513 -0.87048 -3.65685e-06)
(8.85513 -0.870479 -4.27679e-06)
(8.85512 -0.870477 -4.7059e-06)
(8.85512 -0.870475 -4.99757e-06)
(8.85512 -0.870473 -5.09274e-06)
(8.85511 -0.870471 -5.06372e-06)
(8.85511 -0.870468 -4.87023e-06)
(8.85511 -0.870466 -4.59367e-06)
(8.8551 -0.870465 -4.21061e-06)
(8.8551 -0.870463 -3.82567e-06)
(8.8551 -0.870461 -3.4034e-06)
(8.8551 -0.87046 -3.02772e-06)
(8.8551 -0.870459 -2.75847e-06)
(8.8551 -0.870459 -2.24195e-06)
(8.8551 -0.870459 -1.24286e-06)
(8.8549 -0.870439 -4.17712e-07)
(8.87584 -0.858561 1.12827e-06)
(8.87604 -0.85858 4.35509e-06)
(8.87604 -0.858578 6.82037e-06)
(8.87604 -0.858576 9.13608e-06)
(8.87603 -0.858573 1.16954e-05)
(8.87603 -0.85857 1.34302e-05)
(8.87603 -0.858567 1.49574e-05)
(8.87603 -0.858563 1.58562e-05)
(8.87603 -0.858559 1.63661e-05)
(8.87602 -0.858555 1.63173e-05)
(8.87602 -0.85855 1.58646e-05)
(8.87602 -0.858547 1.49306e-05)
(8.87602 -0.858543 1.3712e-05)
(8.87601 -0.85854 1.21129e-05)
(8.87601 -0.858537 1.04832e-05)
(8.87601 -0.858534 8.52505e-06)
(8.87601 -0.858532 6.97444e-06)
(8.876 -0.858531 4.87755e-06)
(8.876 -0.85853 2.62169e-06)
(8.8758 -0.85851 1.10532e-06)
(8.82726 -1.12007 1.5171e-07)
(8.82746 -1.12009 8.22591e-07)
(8.82746 -1.12009 9.12278e-07)
(8.82745 -1.12009 8.89026e-07)
(8.82745 -1.12009 1.20659e-06)
(8.82745 -1.12009 1.30607e-06)
(8.82745 -1.12009 1.56069e-06)
(8.82744 -1.12009 1.66569e-06)
(8.82744 -1.12009 1.80849e-06)
(8.82744 -1.1201 1.83238e-06)
(8.82743 -1.1201 1.84408e-06)
(8.82743 -1.1201 1.73052e-06)
(8.82743 -1.1201 1.61007e-06)
(8.82742 -1.1201 1.33063e-06)
(8.82742 -1.1201 1.10057e-06)
(8.82742 -1.1201 6.63014e-07)
(8.82742 -1.1201 4.48069e-07)
(8.82741 -1.1201 -3.95519e-08)
(8.82741 -1.1201 -4.1465e-07)
(8.82721 -1.12008 -1.01681e-07)
(8.8468 -1.09479 4.69434e-06)
(8.84697 -1.09481 5.25108e-06)
(8.84696 -1.0948 7.1727e-06)
(8.84696 -1.0948 8.53386e-06)
(8.84696 -1.09479 1.06939e-05)
(8.84696 -1.09479 1.21621e-05)
(8.84696 -1.09478 1.35707e-05)
(8.84696 -1.09477 1.438e-05)
(8.84695 -1.09476 1.48648e-05)
(8.84695 -1.09476 1.48099e-05)
(8.84695 -1.09475 1.43891e-05)
(8.84695 -1.09474 1.35002e-05)
(8.84695 -1.09473 1.2362e-05)
(8.84694 -1.09473 1.0851e-05)
(8.84694 -1.09472 9.3617e-06)
(8.84694 -1.09472 7.49923e-06)
(8.84694 -1.09472 5.96551e-06)
(8.84693 -1.09471 3.39752e-06)
(8.84694 -1.09471 1.05644e-06)
(8.84677 -1.09469 -2.70225e-06)
(8.7591 0.736292 8.52736e-07)
(8.75929 0.736309 8.89958e-07)
(8.75929 0.736307 3.01538e-06)
(8.75929 0.736304 3.94265e-06)
(8.75929 0.7363 5.25957e-06)
(8.75929 0.736295 6.02864e-06)
(8.75929 0.736289 6.79586e-06)
(8.75929 0.736283 7.22206e-06)
(8.75929 0.736277 7.51529e-06)
(8.75929 0.736271 7.54625e-06)
(8.75929 0.736265 7.4319e-06)
(8.75929 0.736259 7.10192e-06)
(8.75929 0.736253 6.68108e-06)
(8.75929 0.736248 6.06051e-06)
(8.75929 0.736243 5.48779e-06)
(8.75929 0.736239 4.64397e-06)
(8.75929 0.736236 4.12752e-06)
(8.75929 0.736233 2.96151e-06)
(8.75929 0.736232 2.78305e-06)
(8.7591 0.736212 3.64821e-07)
(8.75274 0.737206 -1.06075e-06)
(8.75294 0.737225 -1.53975e-06)
(8.75294 0.737224 -1.75495e-06)
(8.75294 0.737224 -2.32111e-06)
(8.75294 0.737223 -2.57895e-06)
(8.75294 0.737222 -2.96691e-06)
(8.75294 0.737222 -3.12838e-06)
(8.75294 0.737221 -3.29217e-06)
(8.75294 0.73722 -3.29949e-06)
(8.75294 0.737219 -3.26919e-06)
(8.75295 0.737218 -3.12356e-06)
(8.75295 0.737217 -2.95167e-06)
(8.75295 0.737216 -2.67284e-06)
(8.75295 0.737215 -2.41207e-06)
(8.75295 0.737214 -2.01176e-06)
(8.75295 0.737213 -1.73018e-06)
(8.75295 0.737213 -1.18473e-06)
(8.75295 0.737212 -8.82201e-07)
(8.75295 0.737212 -1.16783e-07)
(8.75275 0.737194 4.86649e-07)
(8.77972 0.524342 -1.42797e-07)
(8.77992 0.524354 1.09337e-06)
(8.77992 0.524353 2.23909e-06)
(8.77992 0.524352 3.11631e-06)
(8.77992 0.524351 4.24645e-06)
(8.77992 0.524349 4.89584e-06)
(8.77992 0.524347 5.51387e-06)
(8.77992 0.524345 5.85581e-06)
(8.77992 0.524342 6.06806e-06)
(8.77992 0.52434 6.07087e-06)
(8.77992 0.524338 5.94665e-06)
(8.77992 0.524335 5.64962e-06)
(8.77992 0.524333 5.27618e-06)
(8.77992 0.524331 4.76219e-06)
(8.77992 0.524329 4.29139e-06)
(8.77992 0.524327 3.62653e-06)
(8.77992 0.524326 3.27498e-06)
(8.77992 0.524325 2.48198e-06)
(8.77992 0.524324 1.81759e-06)
(8.77972 0.524311 1.1058e-06)
(8.75326 0.519145 -1.0268e-06)
(8.75346 0.519158 -2.27466e-06)
(8.75346 0.519156 -3.22217e-06)
(8.75346 0.519154 -4.37355e-06)
(8.75346 0.519152 -5.36499e-06)
(8.75346 0.519149 -6.17988e-06)
(8.75346 0.519146 -6.74457e-06)
(8.75346 0.519143 -7.15036e-06)
(8.75346 0.519139 -7.32517e-06)
(8.75347 0.519136 -7.33917e-06)
(8.75347 0.519132 -7.15938e-06)
(8.75347 0.519128 -6.84293e-06)
(8.75347 0.519125 -6.35624e-06)
(8.75347 0.519122 -5.79191e-06)
(8.75347 0.519119 -5.07659e-06)
(8.75347 0.519117 -4.34981e-06)
(8.75347 0.519115 -3.52236e-06)
(8.75347 0.519113 -2.65556e-06)
(8.75347 0.519112 -1.35985e-06)
(8.75327 0.519099 -2.07614e-07)
(8.77375 0.32739 -4.39027e-07)
(8.77395 0.327397 -3.04826e-07)
(8.77395 0.327397 -5.11931e-08)
(8.77395 0.327397 -3.63229e-08)
(8.77395 0.327396 7.83713e-09)
(8.77395 0.327395 -1.22775e-08)
(8.77395 0.327393 4.33903e-09)
(8.77395 0.327392 -4.30586e-08)
(8.77396 0.327391 -7.45237e-08)
(8.77396 0.327389 -1.45599e-07)
(8.77396 0.327388 -1.95325e-07)
(8.77396 0.327386 -2.708e-07)
(8.77396 0.327385 -3.01263e-07)
(8.77396 0.327383 -3.52029e-07)
(8.77396 0.327382 -3.17959e-07)
(8.77396 0.327381 -3.25814e-07)
(8.77396 0.32738 -2.2613e-07)
(8.77396 0.327379 -1.78483e-07)
(8.77396 0.327379 1.72218e-07)
(8.77376 0.32737 3.9731e-07)
(8.75449 0.318254 -1.14643e-06)
(8.75469 0.318261 -2.82725e-06)
(8.75469 0.31826 -4.35538e-06)
(8.75469 0.318257 -5.84854e-06)
(8.7547 0.318255 -7.02374e-06)
(8.7547 0.318252 -8.10025e-06)
(8.7547 0.318248 -8.87861e-06)
(8.7547 0.318245 -9.45159e-06)
(8.7547 0.318241 -9.73829e-06)
(8.7547 0.318237 -9.80281e-06)
(8.7547 0.318233 -9.60866e-06)
(8.7547 0.318229 -9.22178e-06)
(8.7547 0.318225 -8.60717e-06)
(8.7547 0.318222 -7.86228e-06)
(8.7547 0.318219 -6.91045e-06)