/*--------------------------------*- C++ -*----------------------------------*\
| =========                 |                                                 |
| \\      /  F ield         | OpenFOAM: The Open Source CFD Toolbox           |
|  \\    /   O peration     | Version:  2212                                  |
|   \\  /    A nd           | Website:  www.openfoam.com                      |
|    \\/     M anipulation  |                                                 |
\*---------------------------------------------------------------------------*/
FoamFile
{
    version     2.0;
    format      ascii;
    arch        "LSB;label=32;scalar=64";
    class       volScalarField;
    location    "4.5e-05";
    object      p;
}
// * * * * * * * * * * * * * * * * * * * * * * * * * * * * * * * * * * * * * //

dimensions      [1 -1 -2 0 0 0 0];

internalField   nonuniform List<scalar> 
25920
(
100.056
101.303
100.772
100.033
99.1461
97.9327
96.5529
95.2008
94.0014
92.8377
91.3548
89.6663
88.3369
87.3956
87.1748
87.6522
89.2887
93.9287
108.935
154.189
287.508
548.562
718.951
802.47
925.121
1047.84
1168.8
1311.98
1594.22
1875.66
1799.25
1486.01
1546.13
1500.58
1452.49
1342.36
1261.85
1111.01
889.834
736.005
656.711
615.954
616.82
633.921
640.687
614.364
587.942
93.905
94.8007
94.3909
93.724
92.852
91.7644
90.555
89.3412
88.2209
87.1008
85.9387
84.5437
83.3211
82.3907
82.1037
82.3512
83.5276
87.1542
97.5008
126.373
217.281
430.939
607.055
719.313
821.358
937.591
1032.42
1142.34
1278.69
1417.35
1594.26
1400.7
1417.96
1367.31
1312.12
1242.85
1166.92
1066.52
919.03
733.923
648.3
595.91
562.384
553.43
565.925
565.743
561.431
92.9936
93.6503
93.2742
92.6208
91.7392
90.673
89.5078
88.3352
87.2342
86.1097
85.0259
83.7989
82.6264
81.6945
81.3728
81.5131
82.462
85.5526
93.4642
114.786
184.867
376.306
564.606
692.283
783.856
896.274
980.223
1070.58
1148.83
1220.38
1419.52
1390.15
1358.49
1306.9
1250.57
1200.47
1128.01
1049.08
963.945
809.444
663.689
596.403
547.382
522.606
529.723
543.352
550.579
92.7882
93.3506
92.9849
92.334
91.4489
90.3828
89.2334
88.0731
86.9775
85.8566
84.7617
83.6279
82.4825
81.5501
81.2203
81.3204
82.1768
85.0475
91.74
109.203
170.547
350.806
548.434
686.163
768.372
877.537
960.053
1038.88
1087.58
1127.3
1217.38
1389.46
1304.08
1276.14
1221.55
1170.47
1108.23
1042.65
981.231
871.756
685.168
597.794
542.955
510.156
510.349
527.015
541.994
93.89
94.7142
94.4276
93.7462
92.864
91.7044
90.5492
89.3858
88.2264
87.0039
85.6969
84.181
82.681
81.6359
81.219
81.3143
82.1519
84.9815
91.277
106.896
154.474
302.468
545.081
685.363
762.123
869.104
954.011
1025.16
1060.08
1084.88
1122.56
1387.05
1243.53
1241.57
1207.11
1154.17
1096.31
1040.05
989.442
919.146
742.828
607.81
542.522
505.66
496.08
510.744
530.983
96.054
97.0298
96.9128
96.3511
95.4891
94.4298
93.1148
91.8678
90.6277
89.4135
88.1027
86.6598
85.321
84.2045
83.472
83.4252
83.7373
85.2556
91.2336
106.195
148.213
283.708
514.382
675.431
756.566
866.345
953.159
1019.3
1049.19
1065.53
1081.14
1283.59
1211.87
1212.93
1186
1138.34
1090.29
1040.04
992.789
944.824
812.699
635.105
545.792
504.676
486.348
493.443
518.757
100.879
101.294
100.683
99.5568
98.4861
97.0687
95.6743
94.4237
93.3076
92.1394
90.7922
89.3011
87.7804
86.458
85.7561
85.6659
86.1205
87.7895
91.6731
106.007
138.376
250.123
477.102
671.844
754.533
863.077
953.374
1016.02
1045.58
1056.92
1062.62
1136.05
1198.28
1187.19
1161.01
1124.95
1086
1040.07
995.132
956.255
874.798
688.84
561.249
504.864
479.177
477.462
504.178
103.428
104.254
103.87
103.103
101.851
100.749
99.3586
97.9746
96.552
95.0655
93.6865
92.0852
90.6169
89.3466
88.4144
88.0394
88.1467
89.0155
93.0713
105.818
132.747
233.893
464.643
649.155
753.287
852.392
948.277
1012.55
1044.42
1053.64
1052.64
1065.58
1192.52
1148.1
1143.09
1115.58
1083.31
1040.05
996.424
961.566
910.102
762.61
596.601
511.187
477.812
464.082
486.285
107.352
108.066
107.318
105.878
104.78
103.299
101.813
100.369
99.0269
97.6837
96.4651
94.8278
93.0031
91.4868
90.5568
90.4327
90.7579
91.7486
95.1701
105.615
127.915
195.734
415.34
621.426
748.194
846.931
946.246
1007.53
1043.18
1052.53
1048.05
1037.45
1183.42
1089.63
1110.53
1098.55
1080.88
1050.09
1008.29
967.462
930.8
833.801
654.827
527.398
477.413
452.603
467.686
110.866
111.401
111.073
110.073
108.741
107.249
105.637
104.054
102.49
100.873
99.2935
97.5036
95.8712
94.3046
93.2007
92.6091
92.616
93.2557
96.134
105.569
125.039
176.569
377.218
584.416
735.593
843.454
945.948
1000.06
1040.6
1050.68
1046.65
1024.77
1074.34
1063.96
1077.45
1091.39
1081.24
1057.73
1026.38
984.519
950.173
893.114
734.575
557.02
479.921
449.432
452.383
113.847
114.274
113.607
112.551
111.359
109.856
108.25
106.697
105.324
103.935
102.162
100.203
98.2981
96.745
95.5845
95.3156
95.4744
96.091
98.2449
105.694
123.675
164.207
323.44
546.575
729.282
838.351
930.605
1000.71
1041.24
1050.14
1044.6
1018.97
1035.42
1054.86
1071.38
1089.91
1081.85
1068.18
1044.03
1010.48
974.701
929.182
824.715
611.299
488.725
449.003
440.419
117.772
118.244
117.785
116.692
115.278
113.599
111.875
110.264
108.697
107.097
105.342
103.33
101.384
99.6648
98.2732
97.4098
97.4258
97.8327
99.9838
105.824
123.27
157.132
268.316
506.037
711.649
824.202
914.087
1002.2
1049.3
1055.01
1049.18
1017.72
1023.56
1051.67
1068.99
1097.15
1084.06
1078.59
1071.72
1050.56
1014.65
969.21
903.869
704.059
513.83
450.133
433.785
121.324
121.757
121.282
120.094
118.859
117.393
115.779
114.109
112.52
110.783
109.031
107.011
104.918
103.029
101.561
100.73
100.776
101.325
103.29
108.416
123.192
153.291
240.511
454.234
639.681
802.454
886.329
1000.34
1059.43
1085.67
1088.42
1032.01
1023.37
1049.96
1074.87
1098.2
1090.52
1093
1102.87
1095.15
1076.27
1029.45
972.863
843.362
576.176
456.63
433.5
125.527
125.991
125.333
124.137
122.691
120.926
119.133
117.527
115.923
114.277
112.42
110.319
108.293
106.416
104.889
103.704
103.538
103.862
105.319
109.813
123.162
151.393
226.378
398.161
596.017
775.085
869.722
991.703
1061.85
1110.44
1124.12
1070.59
1039.9
1049.32
1075.12
1095.19
1103.29
1109.43
1123.35
1123.64
1113.05
1100.71
1070.09
992.605
722.756
480.537
437.45
129.78
130.225
129.767
128.565
127.234
125.585
123.776
121.969
120.23
118.417
116.522
114.313
112.124
110.107
108.491
107.292
106.995
107.25
108.504
112.156
123.444
150.232
215.683
373.625
576.951
754.273
852.14
982.181
1061.51
1118.05
1138.87
1092.8
1047.25
1048.99
1065.91
1097.03
1112.6
1124.58
1138.56
1150.84
1152.96
1155.44
1166.35
1154.52
1021.28
571.957
452.292
134.037
134.446
133.77
132.411
130.96
129.171
127.257
125.454
123.731
121.94
120.054
117.855
115.632
113.571
111.803
110.444
110.015
110.18
111.206
114.718
124.111
149.464
209.631
359.233
569.507
738.66
845.717
977.515
1058.78
1119.42
1144.41
1137.81
1053.98
1055.92
1067.28
1100.2
1120.43
1137.94
1155.44
1169.47
1183.02
1199.77
1212.14
1223.31
1223.5
903.225
510.643
138.66
139.061
138.542
137.235
135.764
133.932
131.998
130.099
128.28
126.337
124.285
121.94
119.62
117.427
115.505
114.021
113.478
113.678
114.58
117.624
126.032
149.138
205.578
350.197
561.035
729.915
840.246
972.273
1057.13
1115.18
1148.37
1159.23
1113.85
1080.99
1070.74
1103.01
1129.71
1152.08
1166.38
1179.13
1196.83
1223.26
1239.31
1255.26
1298.94
1293.35
753.671
143.677
144.069
143.41
141.967
140.432
138.497
136.467
134.485
132.564
130.533
128.384
125.937
123.461
121.143
119.188
117.533
116.852
116.92
117.746
120.549
128.12
149.118
199.877
345.796
550.032
729.69
830.739
967.393
1052.86
1093.62
1151.33
1173.06
1164.64
1122.77
1082.95
1112.33
1142.16
1161.18
1183.13
1184.91
1203.28
1234.88
1256.82
1274.49
1317.47
1443.81
1277.96
148.989
149.433
148.788
147.329
145.714
143.697
141.573
139.475
137.466
135.375
133.083
130.415
127.792
125.328
123.206
121.452
120.405
120.457
121.152
123.723
130.929
149.425
195.784
319.969
538.601
727.735
834.169
938.609
1036.28
1091.96
1154.78
1182.82
1189.19
1173
1116.7
1131.39
1169.46
1173.91
1198.24
1190.73
1206.56
1242.34
1272.03
1301.02
1319.52
1481.34
1454.88
154.308
154.784
154.057
152.532
150.894
148.82
146.653
144.48
142.366
140.084
137.709
134.948
132.153
129.514
127.221
125.341
124.117
124.072
124.67
126.931
133.348
150.295
190.61
294.212
530.271
688.532
814.543
904.655
1023.9
1090.59
1162.74
1195.52
1200.68
1200.77
1160.06
1164.71
1204.95
1195.92
1196.29
1197.37
1210.11
1260.28
1273.55
1312.59
1318.86
1485.74
1492.9
159.458
160.008
159.225
157.655
155.935
153.85
151.623
149.34
147.197
144.941
142.472
139.565
136.608
133.831
131.432
129.308
127.933
127.968
128.542
130.355
135.886
151.763
187.684
280.97
484.839
656.537
790.523
888.631
1014.82
1087.23
1165.39
1209.35
1222.07
1215.95
1224.66
1182.45
1221.48
1213.35
1200.04
1204.3
1215.08
1263.69
1270.31
1318.05
1322.92
1484.01
1497.55
164.271
164.886
164.1
162.533
160.843
158.675
156.388
154.108
151.858
149.459
146.888
143.863
140.801
137.909
135.375
133.178
131.44
131.031
131.37
133.271
138.919
153.031
185.669
271.134
454.741
640.561
777.054
883.958
1009.24
1086.59
1165.71
1214.73
1236.03
1222.66
1262.26
1194.44
1229.02
1227.09
1211.29
1213.46
1223.21
1260.84
1266.8
1319.36
1318.1
1455.82
1496.34
169.206
169.821
168.964
167.356
165.616
163.401
161.019
158.657
156.395
154.025
151.482
148.476
145.401
142.358
139.616
137.206
135.363
135.269
135.554
137.006
141.532
153.431
184.198
253.693
418.036
604.954
760.64
879.584
997.088
1088.87
1165.28
1216.31
1242.5
1238.34
1279.85
1210.33
1232.17
1236.68
1223.54
1225.23
1249.31
1261.66
1266.69
1317.99
1295.52
1357.94
1474.12
174.202
174.769
173.893
172.175
170.304
168.067
165.692
163.31
161.037
158.537
155.821
152.616
149.44
146.497
143.886
141.46
139.447
138.586
138.81
140.153
144.359
155.271
183.361
237.487
370.936
543.955
727.736
869.676
986.145
1088.94
1161.68
1216.7
1249.51
1259.55
1287.22
1231.06
1233.39
1242.77
1234.48
1240.3
1265.44
1263.09
1264.25
1302.66
1288.31
1311.11
1406.57
179.821
180.388
179.401
177.694
175.852
173.49
170.926
168.427
166.038
163.521
160.834
157.649
154.369
151.178
148.363
145.865
143.796
143.002
143.191
144.297
148.069
157.701
183.072
229.279
336.038
517.597
691.39
860.555
980.741
1087.63
1160.62
1217.04
1252.82
1268.57
1289.65
1268.9
1234.02
1251.68
1245.27
1255.89
1263.71
1264.7
1264.08
1297.6
1283.13
1289.85
1325.74
185.966
186.485
185.354
183.402
181.327
178.728
176.042
173.417
170.969
168.369
165.568
162.238
158.945
155.813
153.034
150.487
148.375
147.143
147.286
148.177
151.397
160.124
182.906
224.368
319.567
499.955
680.091
847.723
978.291
1087.96
1159.7
1223.45
1255.65
1271.92
1288.66
1303.34
1234.35
1258.94
1254.69
1271.36
1266.12
1265.57
1263.66
1291.25
1280.72
1284.06
1293.18
192.641
193.066
191.85
189.805
187.6
184.905
182.099
179.309
176.659
173.855
170.927
167.476
164.039
160.796
157.948
155.284
152.955
151.692
151.87
152.657
155.412
163.007
183.028
221.559
313.147
491.954
667.119
831.629
975.881
1086.42
1158.26
1227.14
1259.31
1272.14
1271.86
1318.89
1238.63
1266.23
1263.33
1285.52
1269.77
1268.53
1263.49
1286.01
1280.03
1283.55
1280.13
199.348
199.675
198.412
196.25
193.88
190.896
187.837
184.842
182.08
179.179
176.131
172.609
169.147
165.871
162.891
160.106
157.698
156.241
156.453
157.153
159.53
166.559
184.101
219.606
299.615
494.101
655.219
798.734
957.712
1078.53
1149.35
1227.9
1260.99
1272.19
1266.54
1324.02
1261.56
1270.04
1270.12
1297.48
1274.41
1274.46
1265.4
1284.15
1279.47
1281.47
1275.38
205.94
206.075
204.81
202.489
200.042
197.077
194.027
190.96
188.042
184.911
181.635
177.873
174.282
170.861
167.807
164.921
162.341
160.697
160.958
161.699
164.03
170.29
185.368
218.405
287.035
465.935
647.275
786.494
923.911
1054.21
1144.91
1226.53
1264.68
1279.32
1273.07
1320
1263.01
1273.43
1276.19
1310.47
1281.55
1282.24
1269.75
1284.11
1279.39
1277.87
1274.04
212.449
212.604
211.486
209.293
206.849
203.775
200.541
197.38
194.349
191.093
187.694
183.738
179.884
176.268
173.04
170.026
167.379
165.495
165.739
166.355
168.273
173.884
187.527
217.196
278.339
423.875
646.911
780.076
898.876
1049.9
1146.79
1226.63
1273.95
1288.33
1291.35
1304.89
1266.03
1284.72
1286.86
1313.18
1289.47
1292.46
1276.53
1284.44
1280.26
1280.47
1274.05
218.774
218.898
217.804
215.475
213.062
210.114
206.979
203.782
200.776
197.484
193.986
189.887
185.866
182.04
178.59
175.34
172.442
170.287
170.474
171.032
172.881
177.918
189.657
216.708
265.917
384.139
594.775
784.267
889.642
1028.61
1144.66
1225.17
1278.82
1298.28
1300.96
1298.31
1282.11
1303.37
1309.44
1311.56
1299.01
1305.51
1291.64
1287.51
1281.62
1282.41
1276.86
225.115
225.488
224.663
222.466
220.088
217.112
213.968
210.851
207.773
204.318
200.639
196.349
192.189
188.177
184.579
181.148
178
175.546
175.559
175.906
177.365
181.719
192.633
215.804
259.66
357.937
549.49
746.876
891.03
1013.24
1131.98
1226.52
1281.99
1309.25
1319.36
1295.51
1326.89
1309.29
1324.07
1313.02
1311.63
1311.65
1319.22
1293.17
1284.17
1285.75
1283.76
232.282
232.558
232.019
229.853
227.438
224.463
221.314
218.094
215.026
211.618
207.982
203.581
199.175
194.962
191.138
187.407
183.888
181.074
180.708
180.954
182.19
185.834
194.862
215.444
256.265
343.1
530.341
721.021
871.487
988.695
1128.49
1227.93
1284.73
1317.12
1327.81
1293.5
1353.71
1320.17
1336.3
1321.67
1324.75
1333.06
1320.46
1301
1290.9
1291.97
1291.33
240.722
241.544
240.421
238.167
235.559
232.383
229.044
225.736
222.56
219.012
215.244
210.747
206.265
201.821
197.729
193.769
190.061
186.896
185.961
186.081
186.945
189.876
197.782
215.572
255.014
336.583
502.722
700.345
859.502
979.066
1129.12
1221.33
1288.44
1329.6
1345.52
1310.96
1366.17
1343.01
1345.87
1335.55
1333.68
1344.12
1323.73
1311.85
1301.04
1310.08
1302.18
252.554
252.97
251.537
248.405
245.286
241.726
238.037
234.347
230.856
227.012
222.967
218.177
213.405
208.764
204.502
200.304
196.27
192.733
191.128
191.178
191.9
194.458
201.434
218.242
254.95
329.914
478.501
669.385
852.263
978.143
1115.06
1223.9
1290.09
1341.67
1357.61
1328.65
1369.6
1353.13
1350.54
1345.62
1342.73
1343.73
1329.37
1322.29
1313.02
1325.03
1314.57
267.169
266.863
264.932
261.112
257.192
252.553
248.01
243.795
239.857
235.628
231.218
226.047
220.953
216.011
211.537
207.189
203.018
199.172
196.826
196.715
197.207
199.339
205.564
220.82
255.118
326.403
463.283
630.706
824.529
965.93
1103.27
1214.95
1289.69
1347.74
1370.71
1343.3
1368.05
1359.8
1352.84
1351.95
1347.83
1346.24
1334.71
1337.25
1324.47
1328.98
1329.31
282.63
281.354
278.639
274.404
269.796
264.637
259.474
254.594
250.002
245.131
240.105
234.378
228.854
223.588
218.859
214.243
209.739
205.576
202.789
202.444
202.932
204.965
210.635
224.36
256.44
325.108
441.653
613.871
775.389
936.559
1070.57
1209.18
1285.65
1350.07
1381.84
1384.53
1374.71
1363.69
1353.86
1359.29
1351.45
1350.78
1341.53
1362.88
1333.78
1334.86
1346.57
297.544
295.971
292.287
288.031
283.288
277.599
271.678
266.143
260.952
255.488
249.756
243.277
237.079
231.29
226.201
221.346
216.65
212.197
208.965
208.348
208.802
210.781
216.218
229.19
258.323
324.846
433.831
607.14
756.486
918.115
1055.93
1207.32
1284.36
1350.75
1386.69
1401.21
1384.89
1379.85
1355.3
1371.68
1354.41
1356.04
1348.69
1363.27
1341.33
1341.44
1346.34
312.43
310.94
307.319
302.493
296.88
290.692
284.349
278.257
272.468
266.372
259.956
252.7
245.769
239.365
233.822
228.572
223.53
218.784
215.198
214.457
214.954
216.97
222.246
234.824
263.015
324.873
430.324
608.739
749.657
889.769
1042.54
1193.51
1283.14
1351.22
1388.31
1405.88
1387.92
1405.66
1359.82
1374.17
1357.73
1360.95
1354.68
1363.82
1347.87
1346.37
1346.87
326.985
325.613
321.301
316.236
310.712
304.219
297.46
290.957
284.78
278.223
271.171
263.179
255.45
248.342
242.207
236.425
230.956
225.802
221.8
220.81
221.383
223.497
228.636
240.742
267.754
324.646
424.472
593.384
750.608
871.636
999.019
1170.65
1280.86
1351.32
1388.73
1407.49
1384.42
1419.15
1371.34
1377.31
1361.88
1364.74
1361.68
1365.21
1353.65
1349.86
1348.31
340.468
339.611
335.12
330.234
324.35
317.677
310.782
304.074
297.649
290.82
283.434
274.803
266.33
258.433
251.569
245.144
239.13
233.52
229.061
227.582
228.184
230.338
235.152
246.489
272.2
325.114
408.98
561.281
738.599
865.25
981.121
1114.38
1264.67
1347.35
1388.52
1408.2
1382.82
1424.01
1376.65
1378.34
1369.14
1368.18
1369.17
1367.21
1359.02
1352.82
1349.95
353.989
353.627
348.865
343.639
337.617
330.767
323.64
316.727
310.11
303.058
295.455
286.439
277.41
268.882
261.394
254.332
247.667
241.399
236.379
234.284
234.911
236.982
241.353
251.647
275.377
324.247
401.086
538.07
722.579
863.951
974.433
1084.25
1209.04
1319.79
1379.59
1404.19
1387.72
1424.77
1385.56
1378.35
1376.77
1372.72
1374.87
1370.3
1364.73
1356.47
1351.82
366.29
365.282
360.264
355.098
348.93
342.022
334.879
327.998
321.381
314.279
306.654
297.439
288.129
279.121
271.062
263.437
256.152
249.218
243.523
240.813
241.178
242.989
247.038
256.467
278.345
322.999
395.299
520.455
693.475
858.757
968.529
1072.47
1181.71
1294.39
1365.25
1401.3
1402.2
1417.08
1388.95
1378.13
1381.49
1377.85
1379.17
1374.68
1372.03
1361.39
1354.49
377.51
375.779
371.071
365.666
359.399
352.411
345.246
338.366
331.762
324.612
317.02
307.835
298.513
289.288
280.953
272.915
265.083
257.488
251.066
247.603
247.647
248.92
252.473
261.003
279.276
321.773
390.945
502.779
672.551
833.136
952.221
1055.39
1160.6
1276.09
1358.53
1400.83
1413.67
1413.79
1403.2
1378.1
1386.28
1381.8
1383.9
1380.67
1387.89
1368.18
1358.72
388.989
386.717
382.134
376.709
370.372
363.251
356.023
349.186
342.62
335.411
327.746
318.56
309.244
299.881
291.306
282.904
274.611
266.412
259.3
254.947
254.783
255.444
258.451
265.825
282.895
321.321
387.873
491.103
655.88
814.348
928.33
1033.63
1148.54
1265.83
1351.38
1399.65
1418.52
1412.94
1438.55
1382.3
1395.9
1385.38
1390.53
1388.38
1394.28
1376.56
1364.55
402.304
400.072
395.403
389.598
382.94
375.548
368.062
361.061
354.379
347.04
339.197
329.794
320.396
310.931
302.282
293.679
285.04
276.325
268.46
263.04
262.298
262.763
265.046
271.726
287.414
321.563
387.708
484.092
627.291
800.99
914.71
1025.12
1132.79
1258.65
1348.34
1398.78
1420.3
1413.31
1453.87
1401.66
1409.82
1392.98
1398.26
1395.39
1396.54
1385.63
1371.81
418.534
416.389
411.498
405.352
398.206
390.326
382.269
374.876
367.868
360.199
351.957
342.201
332.482
322.805
313.966
305.116
296.231
287.138
278.693
272.378
270.722
270.985
272.828
278.554
292.927
325.264
387.798
481.913
616.237
783.934
906.317
1017.96
1126.38
1246.98
1342.86
1397.05
1423.44
1413.66
1458.63
1425.29
1423.9
1405.59
1405.66
1402.33
1401.42
1395.2
1380.39
438.051
435.566
430.23
423.646
415.937
407.529
398.956
391.111
383.668
375.496
366.626
356.186
345.954
335.885
326.778
317.723
308.625
299.28
290.423
283.407
280.608
280.685
282.035
287.199
301.061
331.181
389.662
481.119
602.453
775.714
902.831
1013.63
1118.28
1232.8
1310.91
1391.62
1424.5
1421.98
1459.18
1442.27
1436.66
1418.37
1412.49
1409.72
1407.39
1405.31
1390.25
459.598
457.111
451.483
444.428
436.241
427.212
417.915
409.348
401.309
392.586
383.232
372.103
361.141
350.503
340.936
331.584
322.264
312.652
303.427
295.899
292.018
291.878
292.91
297.217
309.357
337.022
392.247
479.968
593.487
755.439
902.425
1011.46
1112.17
1216.12
1297.45
1376.02
1424.66
1438.73
1457.7
1453.46
1442.98
1429.93
1418.31
1417.33
1413.53
1415.62
1400.86
482.481
480.069
474.233
466.844
458.141
448.575
438.741
429.638
421.05
411.647
401.58
389.557
377.658
366.214
355.968
346.071
336.383
326.508
317.082
309.268
304.524
304.058
305.016
308.964
319.912
344.76
395.793
479.648
589.727
737.272
903.172
1009.31
1108.99
1205.64
1292.05
1371.67
1424.89
1446.32
1457.68
1467.45
1446.11
1440.94
1424.01
1424.4
1420.36
1424.96
1411.25
506.541
504.104
497.809
490.03
480.929
470.813
460.321
450.515
441.352
431.44
420.813
407.898
395.058
382.783
371.807
361.199
350.943
340.569
330.782
322.597
317.588
316.732
317.683
321.494
331.893
354.889
402.941
479.63
588.372
728.029
891.815
1008.38
1108.47
1201.45
1290.3
1371.75
1423.92
1448.83
1459.84
1482.67
1447.48
1449.68
1429.67
1431.14
1428.13
1433.37
1421.06
530.894
528.728
522.015
513.706
504.011
493.391
482.33
471.966
462.251
451.761
440.471
426.717
412.931
399.759
387.939
376.585
365.652
354.555
344.145
335.55
330.233
329.171
330.215
333.891
343.714
365.853
411.092
481.252
587.75
722.041
881.06
1003.76
1108.55
1199.59
1289.97
1373.65
1417.38
1449.4
1460.15
1490.13
1455.37
1464.94
1436.35
1437.75
1435.55
1440.88
1430.95
556.464
554.347
546.858
538.21
528.02
516.864
505.125
494.216
484.016
473.047
461.15
446.492
431.759
417.709
405.111
393.044
381.306
369.36
358.162
348.968
342.894
341.725
342.891
346.723
356.229
377.635
420.831
486.038
586.883
710.827
862.517
999.556
1108.76
1197.81
1291.02
1375.12
1414.49
1448.12
1459.15
1492.77
1469.37
1475.06
1445.73
1444
1441.8
1445.05
1441.17
583.339
581.301
573.051
563.796
552.873
541.207
528.769
517.284
506.548
495.081
482.668
467.292
451.813
437.069
423.8
411.058
398.506
385.569
373.338
363.23
356.319
354.808
356.122
360.308
369.651
391.373
432.411
490.226
585.443
702.84
853.201
984.321
1105.48
1188.62
1290.54
1375.14
1412.67
1445.98
1458.98
1492.52
1475.64
1475.72
1458.55
1449.58
1447.32
1450.46
1449.02
612.086
609.905
600.885
591.09
579.443
567.128
553.852
541.858
530.649
518.669
505.646
489.495
473.236
457.785
443.824
430.41
417.142
403.26
390.017
378.856
371.028
368.817
370.211
374.775
384.325
403.941
441.258
495.651
583.594
697.335
845.17
958.634
1088.51
1183.34
1283.86
1371.74
1411.57
1445.19
1459.27
1492.11
1484.6
1476.25
1475.62
1455
1452.39
1454.18
1452.95
644.683
642.315
632.213
621.554
608.833
595.721
581.327
568.534
556.662
544.11
530.498
513.541
496.486
480.296
465.565
451.49
437.551
422.759
408.472
396.2
387.34
384.021
385.259
389.903
399.138
418.625
455.29
505.256
582.908
689.919
824.378
949.064
1065.5
1180.95
1279.05
1367.7
1411.4
1444.94
1458.23
1474.58
1493.83
1476.85
1482.15
1461.2
1456.58
1457.18
1457.54
682.537
680.21
668.753
657.293
643.227
628.963
613.069
599.255
586.442
573.077
558.592
540.533
522.351
505.178
489.608
474.875
460.152
444.42
429.104
415.728
405.665
400.503
401.591
405.725
414.366
432.358
466.034
513.554
583.012
686.671
809.576
946.157
1059.51
1177.93
1277.37
1366.94
1418.63
1448.67
1458.13
1467.01
1497.73
1477.4
1485.48
1468.14
1461.67
1460.94
1460.64
722.757
720.563
707.753
695.38
680.046
664.731
647.369
632.347
618.436
604.208
588.874
569.755
550.417
532.121
515.488
499.943
484.305
467.684
451.361
436.877
425.705
418.632
419.388
423.119
431.361
449.002
480.417
524.603
587.108
682.99
797.902
944.791
1057.3
1177.14
1276.93
1365.78
1425.99
1453.42
1462.73
1464.67
1498.52
1477.83
1486.36
1476.67
1468.87
1465.47
1463.57
760.025
757.482
744.318
731.375
715.113
698.814
680.412
664.35
649.448
634.315
618.126
597.95
577.574
558.274
540.671
524.308
507.786
490.409
473.243
457.849
445.725
437.483
437.345
441.086
448.348
463.931
492.13
533.075
592.395
677.44
786.225
934.961
1051.48
1169.76
1275.9
1364.64
1431.1
1455.48
1466.33
1468.36
1497.11
1477.64
1486.63
1484.75
1476.52
1472.41
1467.79
792.867
790.031
776.883
763.722
747.217
730.396
711.531
694.756
679.166
663.213
646.251
625.176
603.944
583.545
565.332
547.995
530.704
512.498
494.514
478.306
465.291
456.35
455.735
458.675
464.934
479.028
505.421
545.203
597.38
674.232
774.024
904.39
1035.98
1159.8
1270.97
1360.92
1433.2
1464.03
1482.45
1487.82
1497.2
1479.43
1486.92
1493.31
1484.95
1482.47
1473.78
823.337
820.407
807.645
794.484
777.893
760.81
741.778
724.604
708.562
691.91
674.268
652.317
630.279
608.99
589.938
571.663
553.566
534.504
515.71
498.769
485.099
475.517
474.361
476.49
482.084
494.444
518.308
555.559
604.278
673.502
761.549
885.977
1026.91
1153.07
1267.11
1358.56
1433.34
1471.78
1497.76
1505.95
1499.09
1507.7
1492.75
1501.41
1495.02
1497.21
1484.29
853.517
850.301
838.043
825.116
808.862
791.731
772.794
755.408
739.117
721.836
703.552
680.662
657.773
635.627
615.722
596.419
577.432
557.306
537.524
519.669
505.12
494.782
493.297
494.92
499.538
510.373
532.195
568.591
613.568
674.552
755.908
866.978
1007.11
1146.65
1266.06
1358.76
1432.24
1481.57
1509.63
1518.42
1506.61
1536.37
1511.37
1520.46
1507.43
1504.98
1500.17
885.556
881.636
869.957
857.07
841.069
824.013
805.286
787.792
771.449
753.641
734.841
711.156
687.384
664.133
643.245
622.894
602.893
581.67
560.761
541.795
526.213
515.098
512.764
513.993
518.146
528.365
548.305
583.455
627.251
678.607
754.329
854.894
986.235
1128.3
1266.05
1363.26
1432.62
1491.6
1517.06
1524.25
1510.7
1549.56
1529.71
1529.88
1514.08
1511.17
1505.05
922.401
917.895
906.178
893.36
877.383
860.215
841.43
823.766
807.333
789.06
769.784
745.171
720.255
695.84
673.752
652.066
630.859
608.417
586.267
566.05
549.237
536.753
532.888
533.842
537.47
546.64
565.647
599.68
642.759
691.558
754.839
850.448
970.576
1120.88
1264.46
1376.53
1441.54
1499.2
1524.05
1531.82
1523.63
1555.35
1541.16
1542.45
1525.59
1516.99
1510.72
967.341
962.021
949.496
936.224
919.721
902.249
882.995
864.974
848.153
829.389
809.544
784.052
757.868
732.038
708.628
685.564
662.876
638.954
615.317
593.488
575.042
560.965
554.925
555.741
559.014
567.293
584.96
617.433
659.733
703.428
762.361
849.706
963.747
1104.94
1264.23
1387.78
1454.84
1508.22
1535.78
1549.93
1545.54
1558.89
1547.14
1550.62
1537.39
1524.53
1517.19
1022.19
1015.96
1002.07
987.732
969.797
951.303
930.882
912.029
894.208
874.692
854.163
827.55
800.159
773.055
748.428
724.116
699.922
674.208
648.669
624.972
604.675
588.791
580.268
580.884
583.679
591.288
607.617
639.065
682.568
721.184
775.18
850.273
961.131
1091.65
1260.18
1405.03
1468.19
1519.73
1541.81
1565.85
1575.31
1581.86
1563.31
1563.16
1555.62
1535.05
1524.7
1088.35
1080.79
1064.83
1048.71
1028.59
1008.42
985.855
965.45
946.355
925.513
903.917
875.957
847.208
818.588
792.619
766.916
741.393
713.878
686.221
660.442
638.081
619.989
608.18
608.388
610.357
616.77
631.877
662.379
705.318
740.208
789.041
857.21
960.6
1084.8
1258.06
1414.59
1498.68
1541.39
1553.77
1579.05
1589.85
1593.5
1596.3
1578.66
1591.82
1553.71
1538.53
1164.21
1155.46
1137.19
1118.74
1095.66
1072.82
1047.19
1024.3
1003.47
980.768
957.608
928.002
897.697
867.521
840.109
812.833
785.767
756.654
727.171
699.274
674.653
654.147
639.644
638.214
639.743
645.63
659.665
687.973
730.258
762.454
808.84
871.496
960.611
1077.74
1253.14
1418.25
1534.4
1569.38
1580.52
1593.86
1597.62
1598.23
1634.39
1596.59
1626.26
1589.6
1565.27
1245.01
1235.26
1214.65
1193.97
1168.02
1142.27
1113.36
1087.57
1064.27
1039.19
1013.84
982.042
949.557
917.632
888.837
860.273
831.789
801.034
769.733
739.851
713.184
690.452
674.119
669.242
670.592
675.903
688.255
712.327
741.537
787.557
834.84
882.091
961.434
1074.54
1233.21
1418.22
1550.76
1598.06
1611.72
1617.11
1618.9
1601.57
1651.76
1618.36
1642.17
1636.02
1603.63
1323.49
1313.18
1290.77
1268.33
1239.96
1211.47
1179.71
1151.03
1124.93
1097.3
1069.51
1035.21
1000.38
966.361
935.913
905.86
876.138
843.914
810.988
779.353
750.854
726.221
707.605
699.58
700.804
705.53
716.608
735.928
765.141
815.002
865.771
899.623
969.271
1072.53
1216.55
1417.88
1559.5
1618.71
1638.18
1641.54
1644.78
1626.4
1658.94
1640.95
1656.12
1675.65
1644.92
1393.27
1382.72
1359.51
1336.15
1306.46
1276.21
1242.58
1211.58
1183.07
1152.87
1122.5
1085.5
1048.16
1011.95
979.683
947.861
916.537
883.028
848.818
815.883
785.942
759.589
739.455
728.133
729.278
733.569
743.344
760.131
796.559
840.877
878.233
916.295
977.781
1070.88
1202.88
1400.75
1566.69
1654.46
1672.72
1675.38
1683.58
1657.33
1665.98
1657.04
1662.68
1696.78
1685.8
1455.86
1445.15
1421.96
1398.56
1368.54
1337.54
1303.16
1270.78
1240.62
1208.26
1175.49
1135.85
1095.8
1057.2
1022.92
989.271
956.225
920.977
885.358
851.176
820.062
792.53
770.709
757.185
758.133
761.419
769.041
785.148
809.583
852.004
883.678
935.371
985.213
1069.99
1194.61
1382.9
1567.45
1677.48
1708.71
1716.33
1727.28
1694.74
1689.06
1672.79
1671.07
1707.53
1722.69
1518.48
1507.46
1484.99
1462.04
1432.48
1401.65
1367.54
1334.64
1303.68
1269.71
1235.03
1192.87
1150.13
1108.56
1071.41
1035.09
999.88
962.522
925.061
889.398
857.035
828.242
804.777
788.884
789.45
791.771
798.162
810.911
826.532
865.356
898.912
954.114
1002.15
1070.78
1187.66
1357.45
1561.85
1689.38
1746.32
1766.46
1777.74
1740.45
1717.12
1701.23
1686.73
1715.42
1725.05
1591.65
1579.92
1557.74
1535.2
1505.92
1475.4
1441.58
1408.6
1377.58
1342.59
1306.98
1262.47
1216.92
1171.86
1131.39
1091.25
1052.25
1011.9
972.114
934.39
900.215
869.841
844.684
827.016
826.686
828.431
834.219
846.878
881.565
905.897
926.497
974.465
1024.5
1080.39
1184.71
1342.2
1539.34
1695.58
1781.73
1804.43
1806.59
1777.49
1749.38
1749.49
1713.42
1719.27
1718.95
1683.79
1670.84
1647.19
1624.02
1593.51
1562.54
1527.76
1494.33
1462.98
1427.27
1391.34
1344.48
1296.18
1247.4
1202.96
1159.18
1116.44
1071.28
1026.89
985.492
948.482
915.961
888.837
869.71
867.543
869.623
877.744
894.313
929.617
952.813
989.097
1003.81
1048.81
1105.18
1185.89
1338.05
1533.06
1700.01
1813.58
1840.75
1833.48
1816.78
1785.74
1797.55
1744.48
1732.93
1719.53
1798.79
1783.36
1755.66
1729.92
1695.85
1662.67
1625.1
1590.22
1557.71
1521.18
1484.04
1435.18
1384.12
1332.02
1283.81
1235.1
1187.19
1136.97
1087.66
1041.84
1001.08
965.233
935.518
914.085
909.23
910.81
918.646
939.363
949.392
980.594
1023.37
1062.53
1083.82
1129.41
1205.8
1339.8
1532.56
1703.85
1830.09
1875.04
1860.96
1862.93
1830.27
1842.02
1781.26
1759.86
1732.68
1938.61
1919.51
1885.67
1855.12
1814.94
1777.17
1734.53
1696.32
1661.44
1623.05
1582.91
1532.05
1478.75
1424
1372.86
1320.85
1268.5
1212.36
1156.79
1105.16
1059.36
1019.22
986.253
962.06
951.438
953.877
958.549
958.921
975.967
1007.39
1049.85
1099.19
1130.7
1171.97
1238.82
1355
1532.38
1705.57
1837.96
1906.26
1898.22
1901.37
1866.17
1876.91
1821.75
1789.35
1757.34
2108.04
2084.03
2042.67
2005.18
1956.57
1911.56
1861.3
1817.35
1778.01
1735.11
1690.76
1636.23
1580.48
1523.55
1469.98
1414.91
1359.24
1298.35
1236.82
1178.91
1127.03
1081.65
1044.21
1015.55
999.227
999.806
1004.89
1015.97
1048.33
1076.19
1101.07
1136.94
1178.53
1208.97
1268.45
1372.15
1532.38
1704.58
1840.28
1922.52
1947.49
1948.4
1903.31
1903.83
1866.22
1827.15
1789.65
2307.34
2277.86
2229.09
2183.56
2125.45
2070.92
2010.64
1958.28
1911.83
1861.61
1811.62
1750.83
1690.95
1631.29
1575.73
1518.38
1459.74
1395.05
1328.59
1264.65
1206.15
1154.3