/*--------------------------------*- C++ -*----------------------------------*\
| =========                 |                                                 |
| \\      /  F ield         | OpenFOAM: The Open Source CFD Toolbox           |
|  \\    /   O peration     | Version:  2212                                  |
|   \\  /    A nd           | Website:  www.openfoam.com                      |
|    \\/     M anipulation  |                                                 |
\*---------------------------------------------------------------------------*/
FoamFile
{
    version     2.0;
    format      ascii;
    arch        "LSB;label=32;scalar=64";
    class       volScalarField;
    location    "0.0178";
    object      k;
}
// * * * * * * * * * * * * * * * * * * * * * * * * * * * * * * * * * * * * * //

dimensions      [0 2 -2 0 0 0 0];

internalField   nonuniform List<scalar> 
31661
(
1727.89
539.199
529.689
532.679
541.624
531.905
534.993
544.093
534.083
537.304
1950.41
605.242
4808.9
1036.58
1434.66
1658.74
1504.06
1753.9
690.337
1639.3
229.841
226.656
962.113
1855.17
543.149
223.606
1078.06
837.541
614.373
738.658
1822.64
38.3504
39.7913
677.3
618.063
1705.93
499.321
1650.4
1180.07
47.4889
61.625
540.794
1235.17
879.583
853.387
646.104
867.932
686.637
531.449
1108.79
88.0752
1351.61
660.996
681.6
1084.64
659.446
641.873
737.618
548.821
615.17
609.471
601.498
878.489
586.092
687.304
1715.43
1581.97
550.621
552.585
554.601
590.115
557.674
559.67
561.752
563.876
566.041
568.255
570.518
572.826
575.185
577.587
580.024
582.485
584.978
584.808
582.318
579.852
577.409
575.01
572.653
570.346
568.091
565.879
563.719
561.617
559.574
557.662
555.914
554.055
552.195
550.378
548.705
547.143
546.139
545.511
544.451
543.896
542.821
542.298
541.217
540.728
539.652
539.189
538.129
537.688
536.649
536.225
535.208
534.797
533.805
533.406
532.439
532.051
531.106
530.727
529.804
529.433
528.531
528.166
527.282
526.923
526.057
525.702
524.851
524.501
523.662
523.317
522.486
522.145
521.32
520.983
520.159
519.826
519.002
518.674
517.845
517.52
516.684
516.363
515.515
515.198
514.336
514.022
513.144
512.833
511.935
511.628
510.705
510.403
509.452
509.153
508.172
507.877
506.862
506.572
505.52
505.234
504.144
503.862
502.457
502.733
502.635
504.042
505.416
506.755
508.062
509.339
510.589
511.816
513.021
514.21
515.385
516.55
517.708
518.861
520.015
521.172
522.335
523.508
524.694
525.897
527.12
528.367
529.64
530.942
532.277
533.647
535.056
536.508
538.005
539.549
541.145
542.808
544.576
546.451
548.349
550.37
552.493
554.694
556.815
558.979
561.121
563.286
565.485
567.723
570.003
572.323
587.325
587.496
574.687
577.083
579.506
581.961
584.448
590.043
589.874
588.993
586.444
583.922
581.43
578.971
576.538
574.149
571.805
569.508
567.268
565.073
562.928
560.841
558.806
556.822
554.915
553.078
551.25
549.457
547.721
546.053
544.436
542.835
541.254
539.702
538.186
536.704
535.26
533.847
532.472
531.131
529.82
528.539
527.285
526.053
524.844
523.654
522.48
521.32
520.17
519.025
517.883
516.74
515.594
514.44
513.276
512.097
510.902
509.688
508.45
507.185
505.891
504.565
503.204
501.811
500.376
501.01
501.28
501.183
500.718
502.159
503.558
504.921
506.25
507.547
508.814
510.053
511.269
512.465
513.642
514.806
515.959
517.105
518.248
519.39
520.535
521.687
522.85
524.025
525.218
526.431
527.668
528.932
530.226
531.554
532.919
534.324
535.775
537.273
538.825
540.435
542.112
543.866
545.69
547.568
549.507
551.533
553.609
555.699
557.806
559.939
562.104
564.308
566.548
568.835
571.156
573.509
575.888
586.965
578.302
580.75
583.23
591.573
592.451
589.519
592.624
594.186
592.581
589.965
587.38
584.827
582.305
579.814
577.361
574.939
572.557
570.227
567.941
565.705
563.519
561.382
559.296
557.257
555.255
553.32
551.473
549.655
547.866
546.119
544.425
542.804
541.216
539.653
538.12
536.624
535.164
533.741
532.351
530.996
529.675
528.384
527.122
525.885
524.672
523.482
522.311
521.156
520.014
518.882
517.755
516.632
515.507
514.379
513.244
512.098
510.938
509.762
508.565
507.345
506.099
504.823
503.516
502.174
500.799
499.383
497.915
498.889
499.51
499.775
499.679
499.223
498.405
499.883
501.307
502.688
504.035
505.346
506.625
507.874
509.095
510.293
511.47
512.629
513.774
514.908
516.035
517.158
518.281
519.407
520.54
521.683
522.84
524.015
525.209
526.427
527.672
528.948
530.258
531.606
532.994
534.429
535.913
537.452
539.05
540.714
542.441
544.226
546.063
547.95
549.909
551.923
553.971
556.04
558.147
560.292
562.483
564.723
567.002
569.307
571.64
574.006
576.411
585.742
578.846
581.313
595.061
595.23
596.829
588.287
592.097
595.236
597.914
595.561
592.873
590.218
587.595
585.004
582.447
579.922
577.432
574.981
572.572
570.206
567.889
565.617
563.392
561.219
559.091
557.009
554.975
552.984
551.061
549.213
547.401
545.622
543.881
542.195
540.582
539.01
537.471
535.964
534.492
533.056
531.658
530.296
528.969
527.675
526.411
525.175
523.965
522.777
521.612
520.468
519.339
518.222
517.115
516.016
514.918
513.82
512.718
511.609
510.489
509.355
508.204
507.033
505.839
504.618
503.368
502.086
500.769
499.42
498.029
496.588
495.092
496.393
497.348
497.956
498.215
498.12
497.672
496.87
495.712
497.224
498.677
500.076
501.432
502.754
504.04
505.293
506.516
507.711
508.883
510.033
511.165
512.284
513.391
514.49
515.585
516.681
517.78
518.885
520.001
521.131
522.277
523.443
524.633
525.85
527.098
528.38
529.7
531.06
532.467
533.923
535.433
537.003
538.636
540.33
542.078
543.877
545.723
547.631
549.591
551.593
553.628
555.704
557.824
559.996
562.221
564.475
566.754
569.07
571.425
573.818
576.228
583.817
578.678
597.705
599.509
586.352
598.282
600.631
590.864
594.705
597.878
601.04
597.901
595.141
592.412
589.717
587.054
584.423
581.824
579.261
576.741
574.264
571.829
569.438
567.092
564.793
562.54
560.335
558.181
556.071
554.006
551.984
550.012
548.119
546.282
544.486
542.728
541.011
539.347
537.75
536.2
534.687
533.21
531.77
530.367
529.002
527.672
526.378
525.117
523.887
522.686
521.511
520.358
519.227
518.115
517.021
515.938
514.865
513.798
512.735
511.672
510.604
509.528
508.443
507.343
506.226
505.089
503.927
502.739
501.522
500.273
498.989
497.671
496.314
494.906
493.441
491.928
493.548
494.826
495.762
496.357
496.609
496.515
496.074
495.287
494.151
494.196
495.675
497.094
498.461
499.785
501.074
502.327
503.547
504.735
505.896
507.033
508.148
509.245
510.328
511.399
512.462
513.522
514.582
515.645
516.714
517.793
518.886
519.995
521.125
522.278
523.458
524.67
525.913
527.197
528.52
529.889
531.308
532.782
534.313
535.902
537.549
539.252
541.011
542.814
544.673
546.582
548.538
550.535
552.576
554.666
556.81
559.001
561.222
563.476
565.775
568.116
570.476
572.862
581.162
575.296
492.665
577.757
600.386
583.684
602.228
588.916
603.388
593.474
600.698
603.833
597.351
600.561
603.53
599.559
596.725
593.923
591.155
588.417
585.71
583.039
580.407
577.817
575.27
572.767
570.31
567.897
565.53
563.209
560.935
558.708
556.532
554.403
552.32
550.282
548.286
546.349
544.485
542.671
540.9
539.17
537.489
535.857
534.288
532.766
531.285
529.845
528.443
527.08
525.754
524.464
523.21
521.99
520.801
519.642
518.51
517.401
516.313
515.243
514.19
513.151
512.12
511.096
510.075
509.054
508.029
506.996
505.952
504.895
503.82
502.724
501.604
500.457
499.28
498.071
496.827
495.549
494.231
492.863
491.437
489.962
488.44
490.371
491.962
493.216
494.135
494.718
494.963
494.867
494.434
493.66
492.545
491.087
490.823
492.315
493.754
495.131
496.457
497.742
498.99
500.201
501.378
502.525
503.643
504.736
505.807
506.861
507.899
508.926
509.944
510.959
511.974
512.992
514.015
515.049
516.096
517.159
518.243
519.351
520.486
521.651
522.851
524.087
525.366
526.691
528.067
529.495
530.975
532.511
534.105
535.753
537.457
539.211
541.016
542.873
544.78
546.73
548.73
550.781
552.885
555.033
557.215
559.443
561.721
564.023
566.346
568.717
571.123
573.559
489.281
576.037
580.252
603.106
586.237
604.984
591.522
606.179
596.121
606.665
600.037
602.43
606.4
603.283
486.871
488.766
490.328
491.559
492.461
493.032
493.271
493.175
492.746
491.986
490.891
489.461
487.691
487.124
488.62
490.065
491.456
492.783
494.06
495.296
496.495
497.656
498.783
499.878
500.944
501.985
503.004
504.004
504.989
505.962
506.926
507.887
508.847
509.81
510.779
511.757
512.749
513.758
514.788
515.841
516.921
518.032
519.177
520.359
521.584
522.856
524.175
525.543
526.965
528.441
529.974
531.56
533.201
534.895
536.643
538.44
540.288
542.181
544.132
546.135
548.19
550.29
552.431
554.627
556.86
559.115
561.414
563.751
566.129
568.545
571.01
578.56
573.507
485.579
605.34
600.481
597.573
594.7
591.857
589.044
586.267
583.529
580.831
578.175
575.562
572.993
570.47
567.993
565.563
563.179
560.843
558.553
556.311
554.117
551.973
549.878
547.831
545.83
543.872
541.978
540.148
538.366
536.627
534.934
533.296
531.706
530.176
528.691
527.251
525.853
524.496
523.179
521.901
520.66
519.454
518.283
517.144
516.034
514.952
513.894
512.858
511.84
510.838
509.849
508.87
507.897
506.928
505.958
504.984
504.002
503.01
502.002
500.978
499.932
498.862
497.764
496.637
495.476
494.28
493.049
491.778
490.457
489.077
487.646
486.167
484.641
582.792
605.865
576.036
581.116
588.83
607.781
594.166
609.014
598.807
609.537
602.763
609.314
606.046
603.428
608.291
483.12
484.612
486.054
487.444
488.775
490.047
491.266
492.445
493.585
494.688
495.755
496.789
497.794
498.773
499.73
500.668
501.59
502.499
503.4
504.297
505.193
506.092
506.996
507.911
508.838
509.783
510.748
511.737
512.754
513.8
514.88
515.998
517.16
518.365
519.617
520.918
522.273
523.681
525.141
526.653
528.221
529.848
531.534
533.263
535.039
536.875
538.764
540.71
542.71
544.759
546.857
549.007
551.18
553.396
555.659
557.965
560.31
562.696
565.136
567.614
570.106
597.635
594.693
591.78
588.898
586.056
583.255
580.495
577.777
575.102
572.471
569.887
567.348
564.857
562.413
560.018
557.67
555.369
553.117
550.914
548.76
546.656
544.601
542.596
540.639
538.73
536.884
535.094
533.353
531.653
530.012
528.422
526.885
525.399
523.961
522.569
521.221
519.917
518.654
517.431
516.246
515.098
513.984
512.903
511.851
510.828
509.829
508.853
507.895
506.954
506.025
505.106
504.194
503.285
502.376
501.462
500.541
499.608
498.66
497.695
496.708
495.696
494.657
493.586
492.482
491.342
490.165
488.949
487.683
486.358
484.979
483.551
482.074
480.545
483.062
485.25
487.109
488.642
489.851
490.735
491.295
491.528
491.433
491.01
490.262
489.188
487.784
486.049
483.981
600.617
481.574
578.611
572.651
606.421
585.374
608.666
479.973
482.329
484.356
486.056
487.432
488.487
489.222
489.639
489.733
489.505
488.956
488.088
486.903
485.399
483.574
481.428
478.959
583.71
591.463
610.617
603.648
596.873
593.863
590.89
587.945
585.042
582.181
579.363
576.588
573.857
571.17
568.528
565.933
563.385
560.884
558.432
556.028
553.672
551.366
549.108
546.9
544.742
542.634
540.576
538.569
536.613
534.705
532.851
531.059
529.318
527.627
525.981
524.395
522.863
521.382
519.95
518.568
517.233
515.944
514.699
513.499
512.339
511.218
510.135
509.087
508.072
507.087
506.131
505.201
504.293
503.404
502.532
501.673
500.824
499.981
499.141
498.301
497.457
496.605
495.742
494.863
493.966
493.047
492.102
491.129
490.125
489.086
488.01
486.896
485.743
484.54
483.278
481.959
480.588
479.169
477.697
476.167
575.216
581.214
596.85
611.889
601.534
612.452
605.53
612.268
608.851
611.292
609.468
599.943
606.745
594.08
598.689
477.284
478.826
480.311
481.742
483.122
484.448
485.713
486.918
488.072
489.185
490.258
491.292
492.29
493.255
494.19
495.098
495.983
496.849
497.698
498.535
499.363
500.186
501.009
501.833
502.664
503.505
504.359
505.23
506.121
507.037
507.978
508.951
509.955
511.002
512.089
513.22
514.397
515.623
516.898
518.224
519.604
521.034
522.533
524.088
525.689
527.336
529.042
530.808
532.633
534.513
536.449
538.438
540.488
542.581
544.706
546.888
549.101
551.367
553.659
556.012
558.425
560.856
563.314
565.824
568.342
478.316
577.829
570.944
787.671
475.683
587.983
611.507
480.623
482.607
484.273
485.625
486.661
487.383
487.792
487.885
487.661
487.122
486.271
485.108
483.632
481.842
479.738
477.316
474.578
586.342
594.141
613.494
590.357
592.248
589.203
586.198
583.23
580.308
577.432
574.6
571.814
569.072
566.377
563.728
561.126
558.572
556.067
553.61
551.202
548.844
546.535
544.276
542.068
539.91
537.802
535.747
533.742
531.79
529.89
528.039
526.247
524.512
522.829
521.197
519.615
518.092
516.622
515.203
513.835
512.517
511.247
510.025
508.849
507.718
506.629
505.58
504.569
503.595
502.654
501.745
500.865
500.01
499.179
498.368
497.574
496.793
496.022
495.258
494.497
493.735
492.97
492.196
491.411
490.61
489.79
488.948
488.08
487.183
486.253
485.288
484.285
483.242
482.159
481.027
479.837
478.586
477.282
475.927
474.519
473.052
471.525
583.853
599.576
614.801
573.561
580.496
604.303
615.406
608.337
615.269
611.696
614.343
612.575
609.93
602.376
476.603
474.024
584.626
587.899
472.724
474.26
475.735
477.152
478.515
479.825
481.078
482.268
483.4
484.48
485.518
486.515
487.472
488.392
489.278
490.133
490.961
491.765
492.549
493.316
494.071
494.817
495.557
496.297
497.038
497.786
498.544
499.316
500.103
500.912
501.744
502.602
503.491
504.418
505.378
506.38
507.425
508.521
509.66
510.849
512.088
513.379
514.735
516.154
517.617
519.131
520.696
522.316
524.009
525.757
527.558
529.427
531.349
533.335
535.371
537.445
539.596
541.773
543.973
546.217
548.535
550.887
553.264
555.693
558.168
560.638
563.193
565.767
597.511
598.756
576.212
568.381
877.754
590.646
614.387
478.862
480.808
482.443
483.767
484.781
485.49
485.891
485.983
485.762
485.234
484.399
483.258
481.81
480.054
477.99
475.615
472.93
469.937
589.022
596.858
616.412
550.491
587.014
583.843
580.753
577.725
574.76
571.852
568.996
566.192
563.438
560.734
558.08
555.474
552.919
550.413
547.956
545.55
543.194
540.888
538.633
536.429
534.277
532.176
530.127
528.13
526.187
524.296
522.459
520.674
518.948
517.276
515.658
514.092
512.581
511.126
509.724
508.375
507.078
505.832
504.635
503.487
502.386
501.331
500.32
499.35
498.419
497.525
496.666
495.839
495.042
494.272
493.525
492.799
492.09
491.396
490.711
490.034
489.36
488.685
488.007
487.32
486.622
485.908
485.174
484.417
483.634
482.82
481.974
481.091
480.17
479.207
478.203
477.149
476.039
474.865
473.635
472.353
471.015
469.618
468.16
466.64
586.55
602.342
617.758
583.187
607.112
618.406
571.029
578.898
611.186
618.316
614.581
617.446
615.751
613.223
474.832
472.307
609.981
606.498
684.849
603.2
471.127
467.914
469.441
470.904
472.307
473.65
474.936
476.168
477.341
478.449
479.497
480.496
481.451
482.363
483.234
484.067
484.865
485.632
486.371
487.085
487.779
488.456
489.12
489.775
490.424
491.072
491.722
492.379
493.046
493.726
494.423
495.141
495.881
496.65
497.451
498.283
499.151
500.066
501.02
502.018
503.064
504.161
505.311
506.523
507.791
509.109
510.48
511.906
513.377
514.922
516.53
518.183
519.909
521.689
523.544
525.454
527.425
529.448
531.542
533.67
535.811
538.023
540.294
542.563
544.889
547.275
549.716
552.15
554.634
557.171
559.749
562.334
1303.91
573.69
564.941
170.918
636.054
593.346
617.308
477.046
478.952
480.554
481.852
482.849
483.545
483.937
484.025
483.808
483.29
482.471
481.35
479.93
478.209
476.183
473.854
471.222
468.288
465.056
591.753
599.618
619.37
651.867
542.273
581.85
578.109
574.709
571.484
568.407
565.434
562.542
559.718
556.954
554.247
551.594
548.994
546.445
543.947
541.5
539.104
536.758
534.464
532.22
530.028
527.887
525.799
523.763
521.78
519.85
517.974
516.151
514.383
512.671
511.014
509.412
507.865
506.372
504.936
503.555
502.227
500.953
499.733
498.563
497.445
496.376
495.356
494.383
493.454
492.567
491.722
490.914
490.142
489.403
488.695
488.014
487.358
486.724
486.107
485.505
484.914
484.331
483.751
483.17
482.586
481.994
481.39
480.77
480.13
479.467
478.776
478.055
477.3
476.508
475.675
474.8
473.882
472.916
471.892
470.804
469.657
468.453
467.194
465.874
464.492
463.045
461.535
589.294
605.15
620.757
585.921
609.962
621.448
581.625
614.075
621.41
567.59
576.392
617.505
620.602
619
473.004
470.53
616.652
613.768
610.647
606.512
469.469
466.324
464.393
465.843
467.229
468.552
469.813
471.017
472.163
473.248
474.265
475.223
476.133
476.997
477.816
478.593
479.332
480.034
480.705
481.347
481.965
482.561
483.14
483.705
484.262
484.813
485.363
485.915
486.475
487.044
487.627
488.227
488.847
489.493
490.167
490.87
491.605
492.383
493.204
494.061
494.959
495.908
496.912
497.975
499.097
500.258
501.477
502.764
504.088
505.482
506.942
508.448
510.014
511.645
513.351
515.117
516.951
518.852
520.805
522.832
524.897
526.988
529.143
531.358
533.566
535.842
538.163
540.557
542.938
545.372
547.864
550.366
552.905
555.462
558.039
590.377
570.253
560.635
600.258
462.878
596.094
620.269
475.172
477.041
478.611
479.884
480.861
481.543
481.927
482.013
481.8
481.291
480.486
479.388
477.994
476.305
474.319
472.035
469.454
466.578
463.41
459.959
594.515
602.418
622.368
576.905
574.105
573.244
570.367
567.135
563.936
560.886
557.951
555.101
552.317
549.59
546.918
544.297
541.726
539.205
536.734
534.313
531.941
529.619
527.347
525.126
522.955
520.835
518.767
516.752
514.788
512.878
511.021
509.218
507.469
505.776
504.138
502.555
501.027
499.556
498.139
496.779
495.474
494.224
493.028
491.886
490.797
489.759
488.772
487.835
486.945
486.101
485.301
484.542
483.823
483.141
482.493
481.877
481.29
480.728
480.188
479.668
479.163
478.67
478.185
477.704
477.224
476.74
476.248
475.744
475.225
474.685
474.122
473.531
472.909
472.252
471.557
470.821
470.041
469.216
468.343
467.413
466.418
465.36
464.243
463.068
461.833
460.533
459.167
457.735
456.236
592.065
607.996
623.795
588.695
612.849
624.532
579.609
584.388
617
624.548
579.136
620.467
623.814
471.119
468.695
563.281
572.975
622.33
620.194
617.594
614.215
609.388
467.751
464.67
461.296
459.145
460.58
461.949
463.25
464.486
465.66
466.776
467.829
468.817
469.738
470.6
471.413
472.18
472.9
473.577
474.214
474.815
475.383
475.922
476.436
476.929
477.405
477.867
478.32
478.769
479.216
479.667
480.124
480.593
481.076
481.576
482.098
482.646
483.221
483.826
484.466
485.149
485.871
486.635
487.438
488.295
489.209
490.179
491.203
492.262
493.402
494.587
495.827
497.137
498.496
499.904
501.374
502.926
504.539
506.229
507.982
509.795
511.686
513.632
515.635
517.662
519.76
521.905
524.056
526.281
528.54
530.878
533.191
535.569
538.014
540.417
542.911
545.402
547.891
550.411
552.975
565.955
603.241
555.584
593.212
457.641
598.881
623.267
473.244
475.074
476.612
477.858
478.816
479.485
479.863
479.947
479.737
479.236
478.447
477.369
476.001
474.344
472.395
470.156
467.624
464.804
461.7
458.318
454.67
597.323
605.259
625.404
565.525
563.104
561.297
558.617
555.621
552.594
549.682
546.879
544.159
541.5
538.892
536.332
533.818
531.349
528.926
526.55
524.22
521.938
519.703
517.516
515.378
513.289
511.25
509.261
507.324
505.438
503.605
501.825
500.098
498.426
496.808
495.245
493.737
492.284
490.887
489.546
488.261
487.031
485.857
484.737
483.672
482.66
481.701
480.794
479.937
479.129
478.368
477.652
476.979
476.347
475.753
475.195
474.671
474.176
473.709
473.265
472.841
472.435
472.041
471.656
471.277
470.898
470.517
470.129
469.729
469.314
468.879
468.42
467.934
467.416
466.863
466.271
465.636
464.957
464.231
463.457
462.626
461.73
460.768
459.742
458.659
457.514
456.302
455.023
453.675
452.258
450.773
594.875
610.882
626.872
568.161
582.401
591.508
615.776
627.656
587.19
619.965
627.731
469.178
466.802
581.924
623.468
575.731
627.08
625.722
558.254
568.692
623.754
621.185
617.465
612.434
465.972
462.953
459.647
456.069
453.727
455.147
456.497
457.778
458.989
460.134
461.215
462.236
463.192
464.078
464.898
465.659
466.371
467.034
467.65
468.222
468.754
469.249
469.711
470.144
470.551
470.938
471.308
471.665
472.013
472.357
472.701
473.05
473.406
473.774
474.158
474.56
474.986
475.437
475.916
476.429
476.978
477.567
478.197
478.872
479.588
480.361
481.186
482.065
482.996
483.983
485.033
486.118
487.286
488.498
489.76
491.078
492.48
493.944
495.485
497.087
498.748
500.498
502.303
504.173
506.09
508.063
510.099
512.164
514.258
516.426
518.616
520.886
523.125
525.442
527.815
530.189
532.599
534.998
537.391
539.832
542.304
544.837
547.438
560.961
596.293
550.114
606.414
452.237
601.711
626.301
471.261
473.054
474.56
475.781
476.721
477.377
477.746
477.827
477.619
477.126
476.352
475.294
473.952
472.325
470.414
468.217
465.735
462.97
459.926
456.611
453.037
449.219
600.171
608.139
628.476
556.401
553.853
551.44
549.207
546.688
543.934
541.102
538.34
535.658
533.054
530.513
528.023
525.577
523.175
520.814
518.497
516.222
513.991
511.805
509.663
507.567
505.517
503.513
501.558
499.651
497.794
495.986
494.23
492.525
490.872
489.273
487.726
486.234
484.796
483.412
482.084
480.811
479.594
478.432
477.326
476.275
475.279
474.336
473.448
472.611
471.827
471.092
470.406
469.766
469.172
468.619
468.107
467.633
467.193
466.786
466.407
466.055
465.724
465.411
465.114
464.827
464.547
464.269
463.99
463.705
463.409
463.099
462.769
462.416
462.036
461.625
461.178
460.692
460.163
459.588
458.965
458.293
457.565
456.773
455.911
454.984
453.996
452.945
451.826
450.638
449.38
448.051
446.651
445.18
585.368
597.732
613.808
629.987
570.905
559.037
594.37
618.742
630.819
467.18
464.85
590.046
622.966
626.504
584.76
630.957
630.393
578.53
629.14
571.452
627.31
552.794
563.701
624.559
620.651
615.644
464.132
461.174
457.936
454.431
450.677
448.178
449.582
450.914
452.174
453.363
454.48
455.529
456.514
457.435
458.289
459.07
459.786
460.444
461.051
461.609
462.118
462.584
463.008
463.396
463.751
464.078
464.38
464.661
464.927
465.18
465.427
465.67
465.915
466.166
466.426
466.7
466.991
467.303
467.639
468.001
468.396
468.827
469.292
469.8
470.353
470.948
471.592
472.289
473.037
473.838
474.698
475.615
476.582
477.604
478.694
479.811
481
482.263
483.586
484.987
486.447
487.964
489.554
491.227
492.967
494.76
496.605
498.513
500.471
502.47
504.495
506.603
508.727
510.923
513.09
515.323
517.634
519.963
522.28
524.617
526.907
529.249
531.624
534.073
536.582
539.18
541.795
555.493
609.695
599.496
544.488
446.701
604.582
629.373
469.223
470.981
472.455
473.653
474.573
475.214
475.574
475.652
475.447
474.963
474.203
473.164
471.847
470.251
468.375
466.22
463.785
461.073
458.089
454.839
451.336
447.595
443.638
588.455
603.056
611.059
602.75
591.594
631.585
573.77
561.797
549.911
547.279
544.749
542.261
539.844
537.49
535.035
532.472
529.861
527.277
524.718
522.24
519.822
517.45
515.12
512.83
510.578
508.366
506.194
504.062
501.97
499.92
497.912
495.948
494.027
492.151
490.321
488.537
486.801
485.113
483.474
481.886
480.348
478.862
477.428
476.046
474.719
473.445
472.226
471.061
469.952
468.898
467.899
466.955
466.066
465.231
464.45
463.721
463.044
462.417
461.838
461.306
460.819
460.374
459.969
459.601
459.268
458.967
458.694
458.445
458.217
458.007
457.809
457.621
457.437
457.254
457.067
456.871
456.661
456.434
456.184
455.909
455.602
455.261
454.881
454.458
453.988
453.47
452.901
452.278
451.59
450.833
450.008
449.118
448.164
447.141
446.047
444.882
443.644
442.333
440.949
439.492
600.635
616.772
633.138
465.125
462.839
597.274
621.745
626.004
592.943
634.021
634.223
587.632
629.576
633.74
581.373
632.57
574.265
630.742
566.494
627.863
547.27
558.328
623.909
618.972
462.234
459.334
456.161
452.726
449.049
445.154
441.073
442.536
443.925
445.24
446.482
447.648
448.743
449.764
450.716
451.602
452.421
453.17
453.846
454.457
455.013
455.515
455.967
456.372
456.732
457.052
457.336
457.587
457.812
458.013
458.195
458.363
458.521
458.673
458.825
458.982
459.146
459.322
459.515
459.727
459.962
460.224
460.516
460.844
461.208
461.61
462.058
462.55
463.089
463.68
464.321
465.015
465.764
466.576
467.435
468.351
469.326
470.351
471.419
472.564
473.772
475.051
476.394
477.786
479.248
480.792
482.405
484.075
485.797
487.583
489.417
491.309
493.243
495.209
497.247
499.305
501.417
503.525
505.689
507.925
510.163
512.413
514.664
516.915
519.143
521.441
523.812
526.228
528.685
531.217
533.874
536.561
550.098
539.36
542.451
613.042
530.434
607.49
534.212
536.197
606.065
594.785
576.736
564.634
552.601
579.741
567.49
555.299
582.792
570.385
558.032
573.34
585.909
560.824
598.047
563.696
576.381
589.12
632.481
467.13
468.854
470.3
471.474
472.374
473
473.351
473.427
473.224
472.748
472
470.979
469.686
468.119
466.278
464.164
461.775
459.115
456.188
453.003
449.569
445.903
442.025
437.962
530.405
527.304
524.537
521.887
519.398
517.026
514.676
512.372
510.121
507.945
505.764
503.571
501.402
499.232
497.091
494.981
492.925
490.894
488.894
486.926
485.006
483.126
481.295
479.514
477.783
476.101
474.487
472.918
471.402
469.956
468.586
467.278
466.024
464.832
463.706
462.644
461.647
460.694
459.794
458.952
458.165
457.431
456.758
456.14
455.574
455.059
454.596
454.181
453.811
453.485
453.199
452.951
452.739
452.556
452.401
452.268
452.156
452.06
451.975
451.897
451.823
451.747
451.663
451.568
451.457
451.325
451.168
450.98
450.758
450.496
450.192
449.84
449.438
448.983
448.473
447.899
447.255
446.536
445.748
444.893
443.969
442.97
441.897
440.747
439.522
438.221
436.844
605.987
614.016
634.73
460.273
457.431
454.32
450.953
447.35
443.534
439.535
435.391
551.713
549.004
546.374
543.803
541.265
538.746
536.25
533.816
531.397
529.02
526.677
524.308
521.889
519.461
517.042
514.642
512.299
510.005
507.751
505.535
503.353
501.204
499.091
497.015
494.974
492.969
491.001
489.072
487.182
485.331
483.522
481.754
480.028
478.347
476.71
475.12
473.576
472.079
470.632
469.234
467.887
466.591
465.347
464.157
463.02
461.937
460.909
459.936
459.018
458.156
457.348
456.595
455.895
455.249
454.655
454.112
453.618
453.171
452.77
452.412
452.094
451.814
451.569
451.356
451.171
451.01
450.87
450.747
450.636
450.532
450.433
450.332
450.225
450.107
449.974
449.821
449.643
449.436
449.195
448.916
448.595
448.228
447.813
447.346
446.825
446.242
445.589
444.865
444.073
443.218
442.292
441.295
440.224
439.078
437.858
436.563
435.193
433.748
603.578
619.774
624.785
600.221
636.325
637.26
595.881
629.079
463.013
460.769
637.526
590.548
632.684
637.109
584.264
636.038
577.137
634.111
569.369
631.188
561.168
627.27
552.903
622.381
544.657
616.452
609.444
554.529
566.667
601.406
546.274
557.498
610.436
542.216
536.838
579.529
592.434
635.623
527.634
525.749
522.833
519.793
516.962
514.338
511.887
509.569
507.32
505.084
502.87
500.722
498.584
496.461
494.348
492.255
490.175
488.129
486.112
484.138
482.188
480.268
478.385
476.54
474.74
472.987
471.278
469.61
468.001
466.447
464.93
463.474
462.08
460.754
459.486
458.272
457.118
456.026
454.996
454.02
453.096
452.225
451.412
450.656
449.955
449.315
448.73
448.2
447.722
447.297
446.922
446.595
446.313
446.073
445.873
445.71
445.578
445.475
445.397
445.34
445.3
445.272
445.252
445.235
445.215
445.188
445.149
445.092
445.014
444.908
444.771
444.597
444.382
444.121
443.811
443.449
443.033
442.555
442.009
441.388
440.695
439.934
439.103
438.197
437.216
436.157
435.022
433.809
432.518
431.148
464.98
466.673
468.093
469.244
470.125
470.737
471.079
471.151
470.951
470.482
469.747
468.742
467.471
465.932
464.125
462.05
459.706
457.096
454.226
451.102
447.736
444.143
440.342
436.36
432.23
608.957
617.013
548.972
617.585
622.814
606.563
637.91
639.549
543.681
541.158
538.686
536.244
533.85
531.465
529.114
526.75
524.396
522.068
519.769
517.494
515.224
512.94
510.65
508.386
506.141
503.925
501.75
499.607
497.496
495.412
493.356
491.329
489.334
487.369
485.434
483.531
481.661
479.824
478.022
476.255
474.525
472.832
471.178
469.565
467.992
466.462
464.976
463.534
462.139
460.791
459.492
458.242
457.044
455.897
454.803
453.763
452.778
451.847
450.972
450.153
449.39
448.682
448.029
447.431
446.887
446.395
445.953
445.561
445.216
444.915
444.657
444.439
444.256
444.107
443.986
443.891
443.818
443.761
443.717
443.68
443.647
443.611
443.569
443.515
443.443
443.351
443.232
443.081
442.894
442.667
442.396
442.077
441.706
441.282
440.798
440.246
439.621
438.927
438.167
437.337
436.435
435.458
434.405
433.275
432.069
430.787
429.428
427.993
603.211
627.862
458.252
455.464
452.414
449.114
445.583
441.843
437.924
433.862
429.701
460.844
458.642
560.638
564.2
569.793
640.534
598.863
632.187
640.867
593.514
635.825
640.495
587.215
639.447
580.095
637.494
572.243
634.572
563.937
630.719
555.375
625.863
546.524
619.916
528.16
612.898
604.847
613.423
542.937
544.347
620.05
611.967
641.125
462.776
464.439
465.834
466.963
467.827
468.425
468.758
468.825
468.627
468.166
467.441
466.451
465.201
463.691
461.917
459.879
457.578
455.017
452.202
449.139
445.839
442.316
438.59
434.687
430.638
426.483
869.83
538.93
536.163
533.607
531.154
528.78
526.46
524.179
521.907
519.641
517.389
515.159
512.952
510.765
508.596
506.429
504.269
502.13
500.012
497.915
495.844
493.795
491.77
489.765
487.782
485.821
483.883
481.969
480.078
478.212
476.372
474.558
472.771
471.013
469.284
467.587
465.922
464.291
462.695
461.136
459.615
458.135
456.695
455.299
453.948
452.644
451.387
450.181
449.025
447.922
446.872
445.877
444.939
444.056
443.231
442.464
441.754
441.102
440.507
439.968
439.484
439.054
438.677
438.349
438.07
437.836
437.644
437.491
437.374
437.289
437.231
437.196
437.18
437.178
437.184
437.195
437.203
437.206
437.196
437.169
437.119
437.042
436.933
436.786
436.597
436.362
436.078
435.742
435.347
434.888
434.357
433.755
433.085
432.346
431.534
430.647
429.683
428.642
427.523
426.326
425.052
423.699
422.27
609.589
625.89
525.907
523.578
521.34
519.1
516.54
513.969
511.458
509.064
506.772
504.558
502.405
500.272
498.127
496.008
493.922
491.846
489.796
487.752
485.723
483.716
481.734
479.782
477.852
475.948
474.073
472.23
470.423
468.652
466.92
465.226
463.579
461.981
460.417
458.904
457.447
456.04
454.696
453.407
452.169
450.99
449.868
448.804
447.796
446.841
445.941
445.101
444.32
443.599
442.938
442.335
441.789
441.3
440.867
440.487
440.157
439.877
439.643
439.453
439.301
439.185
439.101
439.045
439.013
439
439.001
439.012
439.026
439.039
439.046
439.041
439.019
438.975
438.903
438.798
438.656
438.471
438.24
437.959
437.624
437.232
436.773
436.241
435.638
434.963
434.219
433.401
432.508
431.536
430.486
429.357
428.149
426.862
425.496
456.171
453.436
450.444
447.209
443.747