/*--------------------------------*- C++ -*----------------------------------*\
| =========                 |                                                 |
| \\      /  F ield         | OpenFOAM: The Open Source CFD Toolbox           |
|  \\    /   O peration     | Version:  2212                                  |
|   \\  /    A nd           | Website:  www.openfoam.com                      |
|    \\/     M anipulation  |                                                 |
\*---------------------------------------------------------------------------*/
FoamFile
{
    version     2.0;
    format      ascii;
    arch        "LSB;label=32;scalar=64";
    class       volScalarField;
    location    "0.0375";
    object      alphat;
}
// * * * * * * * * * * * * * * * * * * * * * * * * * * * * * * * * * * * * * //

dimensions      [1 -1 -1 0 0 0 0];

internalField   nonuniform List<scalar> 
2308
(
7.57151e-05
0.000272251
0.00044477
0.000105112
9.3604e-05
7.04435e-05
6.52822e-05
7.44531e-05
0.000100724
4.53066e-05
4.49232e-05
4.47444e-05
4.51161e-05
4.62317e-05
4.78295e-05
4.96882e-05
5.17746e-05
5.42656e-05
5.1939e-05
4.9762e-05
4.77674e-05
4.60443e-05
4.48213e-05
4.45985e-05
4.45951e-05
4.48533e-05
4.5592e-05
4.70539e-05
6.96318e-05
5.40712e-05
5.02521e-05
5.70873e-05
7.13426e-05
9.96075e-05
0.000137458
0.00020838
0.000236307
0.00023707
0.00024351
0.000264859
0.000317002
0.000398842
0.000409693
0.000400624
0.000384518
0.000370893
0.000384249
0.000392573
0.000397048
0.000353722
0.000285948
0.000244368
0.000216474
0.000180185
0.000144058
0.000122982
0.000100655
7.7973e-05
6.19162e-05
5.30833e-05
4.87664e-05
4.69628e-05
4.64844e-05
4.61284e-05
4.59922e-05
4.59523e-05
4.60197e-05
4.67096e-05
4.79751e-05
4.96652e-05
5.17272e-05
0.000358642
0.000348349
5.12492e-05
4.89832e-05
4.70493e-05
4.54952e-05
4.45498e-05
4.45169e-05
4.46229e-05
4.50689e-05
4.60597e-05
4.8348e-05
5.36412e-05
6.44497e-05
8.33932e-05
9.99007e-05
0.000116207
0.000136369
0.000171274
0.000208493
0.000234489
0.000278687
0.000353904
0.000395115
0.000390734
0.00038327
0.000370531
5.67454e-05
0.000348479
5.65086e-05
5.40959e-05
0.000315236
0.00033422
0.000344235
0.000349226
0.000351699
0.000337056
0.000299033
0.000196115
0.000142218
0.000115468
0.000102535
9.60275e-05
9.06038e-05
8.46316e-05
7.5422e-05
6.21305e-05
5.43747e-05
5.04845e-05
4.90344e-05
4.82805e-05
4.78735e-05
4.76179e-05
4.74949e-05
4.75036e-05
4.81142e-05
4.94664e-05
5.12549e-05
7.09699e-05
6.25831e-05
6.52174e-05
6.48659e-05
5.29446e-05
5.01219e-05
4.77573e-05
4.60056e-05
4.49314e-05
4.47286e-05
4.48668e-05
4.52968e-05
4.64593e-05
4.8855e-05
5.41342e-05
6.35547e-05
7.9193e-05
8.54989e-05
8.93609e-05
9.28766e-05
9.83348e-05
0.00011014
0.000135069
0.000185139
0.000282687
0.00032853
0.000343282
0.000341675
0.000337939
0.000330349
0.000314414
0.000286401
0.000313225
0.000322229
0.000311975
8.3081e-05
0.00028335
6.59839e-05
5.41666e-05
5.68622e-05
9.68593e-05
8.8147e-05
5.98791e-05
5.34837e-05
0.000255571
0.000278254
0.000287549
0.00027762
0.000254914
0.000239714
0.000263008
0.000288224
0.000315263
0.000336994
0.000347238
0.00034994
0.000313503
0.000195231
0.000130626
0.000103842
9.19686e-05
8.65242e-05
8.39351e-05
8.22396e-05
8.18635e-05
8.06034e-05
7.68994e-05
6.62039e-05
5.79727e-05
5.33017e-05
5.08461e-05
4.9526e-05
4.8865e-05
4.85086e-05
4.83929e-05
4.83626e-05
4.90466e-05
5.03499e-05
5.84584e-05
0.000165006
8.58811e-05
6.59801e-05
6.28709e-05
6.01073e-05
5.73888e-05
5.46169e-05
5.21028e-05
4.98324e-05
4.7704e-05
4.59811e-05
4.49528e-05
4.49757e-05
4.52254e-05
4.5926e-05
4.74791e-05
5.08597e-05
5.71403e-05
6.75246e-05
7.5573e-05
7.89467e-05
7.9647e-05
7.98049e-05
8.07681e-05
8.30746e-05
8.79126e-05
9.85126e-05
0.000122666
0.000180667
0.000291836
0.000336631
0.000335342
0.00032928
0.000315438
0.000289301
0.000262994
0.000238666
0.000642483
7.86958e-05
8.7647e-05
0.000156139
0.000165745
6.1823e-05
5.61758e-05
6.14462e-05
0.000240373
0.000264219
0.000292512
0.000329872
0.000360523
0.000374496
0.000371363
0.000226841
0.00014357
0.000109656
9.47242e-05
8.60695e-05
8.06859e-05
7.7945e-05
7.69717e-05
7.70505e-05
7.76836e-05
7.77965e-05
7.56569e-05
6.96814e-05
6.07658e-05
5.52134e-05
5.18868e-05
5.01303e-05
4.92633e-05
4.88455e-05
4.8667e-05
4.85976e-05
4.91025e-05
5.21586e-05
0.000110399
4.90689e-05
5.8238e-05
5.58088e-05
5.38019e-05
5.17803e-05
4.9755e-05
4.78799e-05
4.62405e-05
4.50374e-05
4.4401e-05
4.46379e-05
4.50971e-05
4.61179e-05
4.82715e-05
5.23503e-05
5.91791e-05
6.92552e-05
7.31832e-05
7.42428e-05
7.3865e-05
7.33149e-05
7.32847e-05
7.43299e-05
7.70678e-05
8.1802e-05
8.94509e-05
0.00010318
0.000133913
0.00021191
0.000348596
0.000366609
0.000356929
0.000331811
0.000293314
0.000263538
0.000238843
0.000217003
0.000216527
0.000229702
0.00024859
0.000257036
0.000248619
0.000230422
0.000218427
0.000219045
0.000101734
0.000433498
0.000625779
7.37456e-05
8.55882e-05
0.00030774
5.02285e-05
5.44895e-05
0.000111445
8.85122e-05
0.00013556
8.28367e-05
4.98691e-05
4.83531e-05
4.70593e-05
4.58723e-05
4.47202e-05
4.37095e-05
4.30706e-05
4.31401e-05
4.36547e-05
4.45663e-05
4.626e-05
4.94489e-05
5.4803e-05
6.33829e-05
6.86298e-05
7.06693e-05
7.09044e-05
7.05425e-05
7.04014e-05
7.07932e-05
7.19743e-05
7.43161e-05
7.85258e-05
8.48799e-05
9.34665e-05
0.000106444
0.000128722
0.000176149
0.000286864
0.000438665
0.000426416
0.000387931
0.000332199
0.000289579
0.000257481
0.000231811
0.000210396
0.000197664
0.000196969
0.000207765
0.000223456
0.00023086
0.000223909
0.000209147
0.000199378
0.000200135
0.000210708
0.000230664
0.000254563
0.000284234
0.000323644
0.00037507
0.000409002
0.000419256
0.000309096
0.000189188
0.000136582
0.000112372
9.87038e-05
8.9631e-05
8.27394e-05
7.85312e-05
7.62678e-05
7.51424e-05
7.47615e-05
7.48697e-05
7.49253e-05
7.40106e-05
7.08697e-05
6.39273e-05
5.69445e-05
5.27057e-05
5.02818e-05
4.90685e-05
4.8452e-05
4.81397e-05
4.80244e-05
0.000123195
5.19743e-05
5.74577e-05
6.17474e-05
0.000107714
8.02603e-05
6.72352e-05
5.79804e-05
5.47562e-05
5.1436e-05
4.79053e-05
4.62378e-05
4.47211e-05
4.34547e-05
4.25559e-05
4.20091e-05
4.17842e-05
4.23787e-05
4.32798e-05
4.48102e-05
4.75383e-05
5.21253e-05
5.94754e-05
6.55469e-05
6.80006e-05
6.89085e-05
6.91452e-05
6.95516e-05
7.03964e-05
7.18262e-05
7.40423e-05
7.74009e-05
8.22686e-05
8.92834e-05
9.83188e-05
0.000109419
0.000123685
0.000146271
0.000186444
0.000271979
0.000422697
0.000436052
0.00041458
0.000374865
0.000320918
0.000281434
0.000252514
0.000229838
0.000211385
0.000192362
0.000180808
0.000179956
0.000188927
0.000201973
0.000208401
0.000202742
0.000190775
0.000182767
0.000183772
0.000193905
0.000211254
0.0002279
0.000248428
0.000274794
0.000310372
0.000359079
0.000401144
0.000423987
0.000420581
0.000280028
0.000192555
0.00015097
0.000128095
0.000114261
0.000103363
9.39666e-05
8.6654e-05
8.18309e-05
7.86549e-05
7.65961e-05
7.52654e-05
7.4435e-05
7.3972e-05
7.33594e-05
7.14547e-05
6.68863e-05
5.91862e-05
5.39559e-05
5.07379e-05
4.90082e-05
4.80622e-05
4.75751e-05
4.81018e-05
0.000128331
0.000133559
0.000398104
4.90019e-05
5.07725e-05
5.46705e-05
6.15213e-05
6.06937e-05
6.87452e-05
6.5177e-05
5.43506e-05
9.98542e-05
7.29595e-05
0.000196203
0.000177176
0.000166338
0.000165263
0.000172733
0.000183574
0.000189158
0.000184616
0.000174972
0.000168517
0.000169877
0.000179822
0.000197557
0.000223225
0.000235336
0.000250702
0.000271019
0.000298736
0.000336691
0.000376513
0.000403525
0.00041541
0.000392414
0.000285848
0.00021935
0.000180499
0.000156894
0.000140905
0.000127064
0.000114752
0.000103958
9.57872e-05
8.97641e-05
8.54233e-05
8.21396e-05
7.97036e-05
7.78626e-05
7.64379e-05
7.54447e-05
7.41518e-05
7.14763e-05
6.58912e-05
5.86047e-05
5.40023e-05
5.12511e-05
4.97234e-05
4.73676e-05
8.69852e-05
0.000129848
0.000167083
0.000192793
4.58949e-05
4.43433e-05
4.33244e-05
4.28365e-05
4.32666e-05
4.40527e-05
4.53787e-05
4.77442e-05
5.17663e-05
5.83903e-05
6.42764e-05
6.75022e-05
6.90006e-05
6.9786e-05
7.0873e-05
7.23338e-05
7.44326e-05
7.72002e-05
8.08836e-05
8.56587e-05
9.20014e-05
9.98635e-05
0.000110138
0.000122967
0.000138094
0.000155506
0.000179328
0.000217881
0.000284076
0.000396591
0.000437669
0.000425708
0.00039659
0.000353594
0.000309883
0.000278079
0.000254782
0.000237007
0.000223051
0.000141395
0.000143014
0.000705012
5.71641e-05
9.0049e-05
5.05976e-05
0.000258993
0.000268999
0.000281959
0.000300375
0.000326387
0.000359218
0.000382017
0.000398184
0.000404692
0.000380614
0.000313116
0.000258529
0.000221853
0.000197134
0.000178064
0.000161372
0.000145692
0.000131736
0.000120206
0.000110956
0.000103612
9.78407e-05
9.31894e-05
8.95153e-05
8.65315e-05
8.44277e-05
8.27318e-05
8.13663e-05
8.00272e-05
7.72766e-05
7.15826e-05
6.43161e-05
5.97329e-05
4.88532e-05
7.81443e-05
0.000127462
0.00021163
0.000183866
0.000164717
0.000154235
0.000152768
0.000158849
0.000167869
0.000172749
0.000169137
0.000161493
0.000156454
0.000158291
0.000168289
0.000186427
0.000213163
0.000250457
8.58517e-05
6.77082e-05
5.79962e-05
5.36391e-05
5.23473e-05
7.67272e-05
6.72633e-05
0.000242558
0.000144621
5.14762e-05
5.01643e-05
4.99941e-05
5.0277e-05
5.12662e-05
5.33611e-05
5.70566e-05
6.28897e-05
6.82443e-05
7.14558e-05
7.30123e-05
7.44413e-05
7.6208e-05
7.83391e-05
8.11789e-05
8.47422e-05
8.90785e-05
9.44018e-05
0.000100806
0.000108611
0.000117717
0.000128919
0.000143027
0.000160293
0.00017952
0.00020022
0.000225356
0.00026178
0.000317816
0.000395549
0.000429153
0.000422912
0.000404455
0.000378232
0.000342097
0.000311256
0.000289054
0.00027321
0.000260955
0.000250837
0.000666445
4.7403e-05
6.07627e-05
0.000145014
0.000148544
0.00015619
7.80768e-05
0.000683473
0.000540038
7.06896e-05
5.2938e-05
5.6922e-05
7.39687e-05
0.000126439
0.000148256
0.000544693
0.000303836
0.000308325
0.000314908
0.000323387
0.0003365
0.000356176
0.000372403
0.000385439
0.00039564
0.000400304
0.000385802
0.00034793
0.000307015
0.000271085
0.000244552
0.00022337
0.00020482
0.000186887
0.000170357
0.000155779
0.000143827
0.000133706
0.000125238
0.000118047
0.000112057
0.000107009
0.000102818
9.97832e-05
9.79208e-05
9.61513e-05
9.4758e-05
9.35529e-05
9.12299e-05
8.7026e-05
8.23319e-05
7.60851e-05
7.19801e-05
8.83884e-05
0.000243007
0.000201671
0.000173546
0.000154458
0.000144083
0.000142144
0.000146933
0.000154404
0.000158648
0.00015585
0.000149893
0.000146169
0.000148601
0.00015871
0.000176971
0.000204003
0.000243814
0.00030188
7.38656e-05
6.33929e-05
5.74384e-05
5.6598e-05
5.90439e-05
6.72484e-05
0.000176598
0.00017358
7.48077e-05
7.18815e-05
7.01887e-05
6.98734e-05
7.12755e-05
7.50692e-05
7.93896e-05
8.28144e-05
8.48064e-05
8.58203e-05
8.73564e-05
8.94735e-05
9.21244e-05
9.56174e-05
9.98776e-05
0.000104889
0.00011073
0.000117526
0.000125374
0.000134325
0.00014466
0.00015641
0.000170805
0.00018832
0.00020887
0.000230025
0.000252973
0.000279803
0.000315795
0.000359668
0.000406387
0.000426635
0.000422077
0.000409707
0.000393628
0.00037451
0.000350875
0.000333826
0.000322372
0.000313454
0.000307285
0.000304539
8.18998e-05
4.8387e-05
9.85156e-05
9.89737e-05
0.000119922
0.000143622
4.7957e-05
0.000147503
0.000165341
0.000167969
0.000431083
7.435e-05
0.000257833
6.42162e-05
0.000115815
6.81722e-05
0.00070566
0.000666611
0.00011814
0.000118541
0.000119334
0.000120186
0.000121366
0.000123548
0.000126547
0.00013032
0.000135108
0.000141233
0.000148473
0.000156616
0.000165706
0.000175928
0.000187397
0.000201039
0.000216759
0.000234372
0.000252961
0.00027251
0.000294423
0.00031997
0.000348019
0.000375569
0.00039434
0.000400157
0.000397275
0.00039111
0.000386109
0.000381777
0.00037561
0.000372287
0.000370928
0.000371472
0.000372958
0.000374095
0.000625152
0.000304091
0.000238394
0.000193712
0.00016477
0.00014614
0.000135791
0.000133308
0.000136857
0.000143012
0.000146726
0.000144571
0.000140007
0.000137492
0.000140527
0.000150536
0.000168669
0.000196969
0.000240001
0.000300988
0.000374833
7.11086e-05
5.52421e-05
8.18883e-05
0.000702945
0.000726889
0.00074422
0.000745095
0.00073841
0.000698335
0.000657632
0.000617078
0.000185059
0.000580693
6.78514e-05
9.11643e-05
7.84268e-05
8.93844e-05
0.000110869
0.000137139
4.92664e-05
7.58866e-05
0.000597581
6.4008e-05
6.19289e-05
6.54818e-05
7.39076e-05
8.67388e-05
8.56577e-05
0.0001751
0.000115022
0.000112551
0.000112115
0.000112282
0.00011269
0.000113395
0.00011407
0.000114413
0.000114668
0.000115624
0.00011709
0.000119616
0.000123281
0.000127873
0.000133075
0.000138833
0.000145192
0.000152801
0.000161677
0.00017138
0.000181935
0.000193438
0.000206599
0.000222075
0.000241518
0.000263112
0.000285023
0.000308013
0.000333868
0.000363373
0.000393507
0.000417111
0.000425513
0.000422418
0.000414921
0.000408176
0.000401773
0.000393554
0.000386913
0.000382852
0.000382072
0.000383259
0.00038463
0.000385877
7.79626e-05
6.70176e-05
6.10258e-05
0.000278729
6.45818e-05
4.81186e-05
0.000402616
6.5755e-05
0.000520927
0.000183936
0.000174512
0.000169004
7.14391e-05
9.90907e-05
7.94682e-05
0.000625713
8.70808e-05
0.000379113
0.000574416
0.000213089
7.59674e-05
7.47167e-05
0.000614757
0.000654884
0.000694139
0.000156642
0.000157786
0.000159964
0.000162991
0.000166413
0.00017017
0.000173612
0.000177879
0.000183349
0.000190453
0.000198586
0.000207221
0.000216152
0.000225723
0.00023639
0.000248871
0.000263841
0.000280373
0.000296957
0.000314102
0.000332675
0.000352374
0.000371356
0.000386915
0.000394131
0.000395823
0.000394855
0.00039464
0.000397517
0.000404511
0.000412639
0.000419891
0.000428325
0.000435527
0.000441246
0.000445398
0.000448394
0.000118984
9.88288e-05
8.44483e-05
7.4938e-05
7.18503e-05
7.4093e-05
0.00022538
6.30091e-05
7.05832e-05
7.35685e-05
6.199e-05
0.000577734
0.000585508
9.764e-05
0.000125744
6.37181e-05
0.00033818
0.000300705
8.21715e-05
6.50955e-05
0.000748513
0.000600888
0.000650673
8.09162e-05
0.000387302
0.000304337
0.000236477
0.000188454
0.000157625
0.000138678
0.000128585
0.00012573
0.000128234
0.000133203
0.000136395
0.000134792
0.000131382
0.000129834
0.000133151
0.000143263
0.000162086
0.000192255
0.000237712
0.000300408
0.000375462
0.000450162
0.000768906
0.000776199
0.000786125
0.000786299
0.000779174
0.000733068
0.000485821
5.16792e-05
6.89436e-05
5.95062e-05
7.66444e-05
0.000204657
0.000504766
0.000539963
0.000198728
0.00027853
9.69125e-05
0.000166573
0.000477677
4.82795e-05
0.000453403
0.000679423
0.000194563
0.000183685
0.000174256
0.000168812
0.00016621
0.000164481
0.000163192
0.00016216
0.00016152
0.000161399
0.000161939
0.000163491
0.000166066
0.000169596
0.000173957
0.000178999
0.000184084
0.000189065
0.000194921
0.000201828
0.000209961
0.000218867
0.000228192
0.000238048
0.000248719
0.000260812
0.000275214
0.000293147
0.000312156
0.000330715
0.000349732
0.000369834
0.000390205
0.000407869
0.000417113
0.000419462
0.000418147
0.000417458
0.000419362
0.00042542
0.000432825
0.000439066
0.000446798
0.000454203
0.00046014
0.00046468
0.00046834
0.000470856
0.000655809
0.000136702
0.000434385
6.64285e-05
0.000584762
0.000111238
0.000482265
0.00021183
8.09168e-05
0.000485596
5.72019e-05
4.76264e-05
0.000202764
0.000169103
0.00014061
0.000118618
0.000102007
9.1529e-05
8.8802e-05
9.05878e-05
9.32395e-05
9.54813e-05
0.00021558
9.35544e-05
0.000209793
0.000140694
0.000199192
0.000205313
0.000210002
0.000214208
0.000219148
0.000224578
0.000229757
0.000233544
0.000235768
0.000238621
0.000242689
0.000247558
0.000252838
0.000258142
0.000263526
0.00026944
0.000276299
0.000284742
0.00029563
0.000308122
0.000320289
0.00033305
0.000346744
0.000360095
0.000370972
0.000377193
0.000378817
0.00037907
0.000381237
0.000388033
0.000399962
0.000416377
0.000434828
0.00045223
0.000466936
0.000478535
0.00048701
0.0004929
0.000496562
0.000497812
0.000515405
0.000548062
0.000581441
0.000618279
0.000305137
0.000486182
0.000114764
0.000100501
9.1131e-05
0.000116867
9.5888e-05
0.000104818
6.0203e-05
0.0002289
0.000121591
6.10456e-05
6.27237e-05
5.71053e-05
9.23792e-05
0.000145243
0.000535095
0.000544856
0.000116676
0.000208137
6.32771e-05
0.00037752
6.28979e-05
0.000305625
0.000246808
0.000118655
0.000157166
0.00043471
4.88662e-05
5.40066e-05
0.000153638
0.000112479
0.000203873
0.00023767
0.000369813
0.000107766
0.000144837
0.000743399
0.000805599
0.000830155
0.000841757
0.000844153
0.000841009
0.000832023
0.000784454
0.000676385
5.96627e-05
5.01827e-05
0.000198909
0.00021752
0.000465973
0.000197529
0.000255177
0.000237677
0.000230761
0.000225997
0.000223525
0.000222924
0.000223454
0.000224578
0.000226038
0.000227849
0.000230371
0.000234047
0.000238668
0.000243765
0.000248227
0.000251637
0.000254592
0.0002579
0.000261581
0.00026567
0.000270245
0.000275282
0.000280463
0.000286113
0.000292573
0.000300528
0.000310838
0.000324051
0.000337405
0.000350661
0.000364576
0.000378429
0.000390347
0.000397955
0.000400322
0.000400569
0.000402341
0.000409011
0.000420935
0.000437649
0.00045688
0.000475345
0.000490968
0.000503447
0.000512535
0.000519102
0.000523373
0.000525207
0.000523545
0.000471379
0.000388507
0.000305287
0.000236485
0.000186272
0.000153213
0.000133086
0.000122585
0.000119284
0.000121024
0.000125033
0.000127776
0.000126563
0.000123981
0.00012325
0.000127157
0.00013786
0.000157707
0.000189534
0.000236511
0.000299761
0.000375174
0.000449688
0.000495805
6.45408e-05
0.000498618
0.000103919
0.000115021
0.000120167
0.000281547
0.000665581
0.000393945
7.11729e-05
5.13385e-05
0.000265593
0.000239443
0.000202986
0.000172714
0.000149667
0.000130747
0.000121671
0.000120648
0.000124466
0.000128998
0.000138341
0.000118472
0.000132428
8.25159e-05
5.84295e-05
0.000119679
0.000543554
0.000163345
5.95282e-05
0.000194475
0.000148787
0.000174848
0.000140151
0.000393556
5.06575e-05
0.000337101
0.000125563
0.000130365
0.000120351
0.000117824
0.000124669
0.000142293
0.000164259
0.000190054
0.000254268
0.000583546
8.01841e-05
0.000329665
0.000351272
0.000374196
0.000400052
0.000437855
0.000496849
5.38364e-05
4.95336e-05
0.000450424
0.000231078
0.000774644
0.000838271
0.0008719
0.000895965
0.000902309
0.000904591
0.000903299
0.000900509
0.000899783
0.000873539
0.000793422
0.000610549
0.000192543
0.0004299
0.000116527
0.000115565
6.93024e-05
0.000423049
9.54377e-05
0.000285472
0.000284175
0.00028347
0.000283701
0.000285509
0.000289079
0.000293057
0.000296909
0.00030028
0.000303379
0.000307047
0.000310938
0.000314121
0.000315786
0.000314923
0.000313399
0.000310987
0.00030785
0.00030444
0.000301203
0.000298727
0.000297438
0.000297585
0.000299002
0.000301824
0.000306465
0.000313195
0.000322041
0.000330886
0.000339556
0.000347996
0.000355169
0.000359739
0.000360819
0.000359917
0.000360272
0.00036583
0.000378278
0.000396475
0.000419084
0.00044357
0.000466204
0.000484594
0.00049795
0.000506125
0.000509594
0.000509237
0.000505282
0.000496878
0.000484327
0.000517998
0.000469223
0.000388612
0.00030619
0.000237164
0.000185934
0.000150811
0.000129075
0.000117613
0.000113625
0.000114602
0.000117813
0.000120107
0.000119247
0.000117414
0.000117484
0.000122107
0.000133644
0.000154753
0.000187955
0.000235481
0.000298215
0.000373206
0.000446571
0.000490179
0.000454407
0.000466333
0.000474428
0.000478537
0.000479403
0.000476694
0.000469537
0.000457671
0.000441193
0.000420641
0.000398019
0.000376679
0.000359309
0.000347317
0.000341688
0.000341345
0.000342646
0.000342365
0.000338687
0.000332073
0.000323955
0.000315597
0.000307291
0.000298709
0.000291749
0.000286721
0.000283428
0.000281632
0.000281095
0.000281919
0.000283817
0.000286354
0.000289191
0.000292009
0.000294268
0.000296553
0.000295501
0.00029273
0.000288951
0.000285119
0.000280378
0.000276357
0.000267018
0.000273694
0.000267256
0.000142379
0.000201021
0.000121665
0.000278467
0.000266903
5.82321e-05
0.00027623
0.000235484
0.000167156
5.63256e-05
9.54265e-05
5.72294e-05
5.58697e-05
0.000103435
7.39896e-05
0.000503582
0.000495542
0.00015823
0.000290489
0.000153462
0.000161607
0.000295475
0.000194816
0.000150756
0.000458127
0.000377728
0.000182706
4.93115e-05
0.000418801
0.000178777
0.000225119
0.00021736
0.000241751
0.000209466
0.000502848
8.8421e-05
5.468e-05
6.95891e-05
0.000189723
0.000193417
0.000185735
0.000179212
0.000182115
0.00020177
0.000225266
0.00025342
0.000285036
0.000297514
0.000293812
0.000246759
0.00017239
5.87535e-05
0.000281631
0.000274272
0.000240454
0.000211669
0.000187328
0.000167199
0.000162336
0.000169709
0.000228409
5.14796e-05
0.000244129
0.000275107
0.0003044
0.000334678
7.82044e-05
0.000298399
5.27162e-05
0.000327239
9.22476e-05
0.000391301
0.000277448
0.000211333
0.000228906
0.000248162
0.000276481
0.000316433
0.000371963
0.000448155
5.32082e-05
5.32959e-05
0.000276017
0.000286037
0.000295035
0.00030194
0.000305312
0.000313042
0.000319382
0.000325944
0.00032873
0.000327883
0.000325229
0.000320503
0.000313334
0.000304794
0.000296603
0.000288634
0.000281209
0.000274694
0.000269996
0.000267209
0.000266286
0.000266983
0.00026879
0.000271264
0.000274327
0.000277866
0.000281652
0.00028449
0.000286621
0.000287727
0.000287155
0.000284597
0.000280644
0.000277359
0.000277381
0.00028283
0.000293593
0.000307953
0.000324386
0.000340513
0.000353636
0.000362332
0.00036624
0.000365655
0.000361249
0.000354201
0.000344765
0.000332834
0.000319197
0.000202116
0.000236242
0.000469806
0.000511196
0.000465403
0.000386718
0.00030665
0.000238493
0.000187021
0.000150949
0.000127493
0.000114563
0.000109473
0.000109581
0.000112108
0.000114086
0.000113458
0.000112255
0.000113209
0.000118875
0.000131672
0.000154041
0.000187917
0.000234989
0.000296257
0.000369461
0.000442578
0.000483538
0.000440669
0.000304931
0.000323828
0.000882773
0.000951414
0.000959465
0.000950404
0.000938127
0.000931648
0.000930856
0.0009312
0.000938356
0.000938405
0.000896102
0.000710662
0.000501133
0.000444409
0.000520111
0.000662952
0.000786868
0.000277402
0.000277112
0.000284641
0.000293937
0.000303572
0.000313706
0.000323429
0.000331524
0.000337423
0.000340643
0.000341441
0.000340661
0.000337896
0.000332619
0.000324792
0.000316641
0.000308209
0.000300136
0.000292465
0.000286081
0.000281343
0.000278392
0.000277191
0.000277564
0.000279063
0.000281281
0.000284263
0.000287965
0.000292202
0.000295577
0.000298196
0.000299859
0.000299936
0.000298078
0.00029473
0.000291745
0.000291952
0.000297825
0.00030952
0.000325185
0.000343274
0.000361473
0.000376727
0.000387204
0.000392413
0.000392366
0.000388056
0.00038057
0.000370309
0.000357242
0.00034219
0.000326345
0.000346631
0.000217699
0.000462426
0.000456271
7.86163e-05
6.18474e-05
5.40895e-05
8.57824e-05
0.000289677
0.000259609
0.000231512
0.0002815
9.26834e-05
0.000241282
0.000275894
0.000311644
0.000329502
0.000317085
0.000297488
0.000280366
0.00026645
0.000275023
0.000422621
5.52188e-05
0.00034129
0.00036281
0.000398446
0.0004205
0.000254038
0.000320699
0.000327278
0.000307741
0.000295671
0.000301327
0.000315455
0.000334203
0.000345968
0.000326391
0.000289926
6.42184e-05
5.52323e-05
6.93132e-05
0.000462597
0.000267605
0.000287947
0.000266398
0.000229495
0.000211563
0.000213815
0.000222736
0.000239126
0.000248168
0.000261043
0.000275782
0.000285764
0.000291847
0.000292776
0.000290377
0.000286928
0.00028329
0.000279495
0.000275716
0.000273023
0.000271257
0.00026997
0.00026927
0.0002688
0.00026863
0.000268296
0.000267595
0.000266332
0.000264378
0.000261366
0.000257363
0.00025232
0.000246286
0.000239276
0.000231616
0.00022342
0.000214813
0.000206139
0.000198224
0.000192403
0.000189825
0.00019089
0.000196007
0.000203514
0.000212356
0.000221073
0.000228449
0.000233984
0.000237802
0.000240235
0.000241665
0.000242473
0.0002427
0.000242334
0.00024176
0.000241094
0.000329218
0.000334971
0.000345037
0.000349577
0.00035364
0.000365711
0.000397514
0.000423496
0.000370032
7.16336e-05
0.000416336
0.000277384
0.000373498
0.000421638
6.39979e-05
5.23941e-05
0.000397743
0.000437683
0.000517185
0.000617468
0.000106537
0.000157093
0.000535209
0.000521688
0.000525861
0.000513806
0.000506983
0.000504492
0.000509095
0.000511559
0.000512495
0.000515216
0.00052088
0.000529395
0.000459835
0.000383898
0.000453788
0.000639646
0.000310274
0.000453757
0.000503738
0.0004621
0.000383962
0.000305522
0.000239261
0.000188126
0.000151637
0.000127266
0.000112886
0.000106538
0.000105537
0.000107172
0.00010872
0.000108488
0.000108111
0.000110146
0.000116955
0.000131063
0.000154407
0.000188135
0.000234225
0.00029426
0.000366697
0.000439153
0.000476222
0.000425577
0.000290586
0.000240192
0.000222132
0.000224518
0.000232381
0.00024564
0.000260785
0.000276442
0.000288123
0.000294608
0.000296806
0.000296029
0.000293774
0.00029123
0.000288271
0.00028483
0.000281481
0.00027915
0.000277385
0.000276203
0.000275296
0.000274653
0.000274109
0.000273431
0.00027244
0.000270999
0.000269002
0.00026613
0.000262484
0.000258018
0.000252618
0.000246132
0.000238942
0.00023115
0.000222887
0.00021448
0.000206704
0.000200893
0.000198371
0.000199667
0.000205266
0.000213403
0.000222998
0.000232614
0.000240817
0.000246893
0.000250934
0.000253222
0.000254239
0.000254494
0.000254051
0.000252937
0.000251592
0.000250125
0.000248368
0.000286126
0.000325297
0.000421895
5.86487e-05
5.89077e-05
0.000375451
0.000360422
0.000222255
0.000159514
0.000388344
0.000409743
0.000238747
0.000277033
0.000435573
0.000467604
0.000292603
0.000364729
0.000187802
0.000233191
0.000131022
0.000154284
0.000108911
0.000116695
0.000105418
0.000105813
0.000104136
0.000105366
0.000105477
0.000103317
0.000127465
0.000112867
0.000188802
0.000152042
0.000304091
0.000239019
0.000458596
0.000381707
0.000436816
0.000494913
0.000380598
0.000392469
0.000246063
0.00029496
0.000350502
0.000366357
0.000314003
0.000332802
0.00027443
0.00029466
0.000229383
0.000252536
0.000182449
0.000205719
0.000143196
0.000161085
0.000123547
0.000130312
0.000129819
0.000123433
0.00015698
0.000141592
0.00019373
0.000174645
0.000234412
0.000213773
0.000276538
0.000255423
0.000315048
0.000296808
0.00034575
0.000331149
0.000370544
0.000359013
0.000387127
0.000379986
0.00039362
0.000391726
0.000389056
0.000392926
0.000371237
0.000381671
0.000342311
0.000358147
0.000302306
0.000323977
0.000248368
0.00027686
0.000189646
0.00021846
0.000152372
0.000164319
0.000150661
0.000151817
0.0001553
0.000149713
0.00021739
0.000172497
0.000358893
0.000283547
0.000483533
0.000431442
0.000529975
0.000520203
0.000620671
0.000548147
0.000887824
0.000761517
0.000939726
0.000906346
0.00090683
0.000960272
0.000843467
0.00086466
0.000871861
0.000841048
0.000823927
0.000440355
0.000390932
0.000458766
0.00047037
0.000447724
0.000447873
0.000448085
0.000448164
0.000444577
0.000446987
0.000445084
0.00044287
0.000464482
0.000454727
0.000535707
0.000476313
0.000591333
0.000578178
0.000781368
0.000418907
0.000878007
0.000792274
0.000920033
0.000936546
0.000987042
0.000910971
0.000980186
0.00100899
0.000888733
0.000934204
0.000680385
0.000786607
0.000536335
0.00059264
0.000508946
0.000523652
0.000417052
0.000468736
0.000283471
0.000351131
0.000172631
0.000220614
0.000146786
0.000149592
0.00014829
0.000148093
0.000156399
0.000149622
0.000198797
0.000172335
0.000263219
0.000230531
0.00031451
0.000291668
0.000348783
0.000332901
0.000373626
0.000362253
0.000388228
0.000382465
0.000389661
0.000390449
0.000379095
0.000385926
0.000357645
0.00036956
0.000328506
0.000343795
0.000292417
0.000311583
0.00025015
0.000271471
0.000208818
0.000229232
0.000170288
0.00018906
0.000138089
0.000153002
0.000121149
0.000126914
0.000128671
0.000121715
0.000158962
0.000141469
0.00020204
0.000179651
0.000247077
0.000224782
0.000288233
0.000268341
0.000326118
0.000307322
0.000344068
0.00076493
0.000386961
0.000381843
5.43005e-05
0.000402981
0.000313019
0.000405632
0.000616801
0.000423643
0.000697164
0.000717756
0.000616106
0.000603084
0.000406229
0.000413685
5.5892e-05
0.000167739
0.000380914
0.000337277
0.000337818
5.54989e-05
6.36625e-05
5.80878e-05
0.000115671
9.68775e-05
0.000106709
0.000122108
9.74066e-05
0.000109852
0.000125523
9.50152e-05
0.000109812
0.000124922
8.96081e-05
0.000106142
0.000160929
5.64759e-05
0.000462668
5.58456e-05
0.000539994
4.97059e-05
8.84096e-05
0.000147909
4.94358e-05
5.39543e-05
0.000164435
6.69019e-05
5.35443e-05
0.000149143
0.000283277
6.78282e-05
0.000258967
0.000371311
0.00028052
0.000700797
0.00014582
6.15361e-05
0.000221379
7.41196e-05
0.000425683
6.76873e-05
0.000217064
6.01216e-05
6.20761e-05
7.09146e-05
9.87637e-05
0.00046615
0.000652356
0.000146821
0.000280637
0.000210456
0.000362029
0.000650939
0.000547445
7.50316e-05
0.000668451
0.000213469
8.10033e-05
0.000155799
0.000124367
5.87993e-05
0.0005682
0.000195014
0.000122708
7.19516e-05
4.48887e-05
4.58581e-05
0.000201542
)
;

boundaryField
{
    wall
    {
        type            compressible::alphatWallFunction;
        value           uniform 0;
    }
    outlet
    {
        type            calculated;
        value           nonuniform List<scalar> 
33
(
0.000403513
0.000235292
0.00027291
0.000428997
0.000460482
0.000288212
0.000359249
0.000185022
0.0002297
0.000129115
0.000152034
0.000107306
0.00011499
0.000103846
0.000104242
0.000102586
0.000103791
0.000103929
0.000101788
0.000125613
0.000111223
0.000186017
0.000149829
0.000299504
0.000235399
0.000451763
0.000375987
0.000430332
0.000487561
0.000242373
0.000290559
0.000397253
0.000399591
)
;
    }
    inlet
    {
        type            calculated;
        value           uniform 0.00164249;
    }
    frontAndBackPlanes
    {
        type            empty;
    }
}


// ************************************************************************* //
