/*--------------------------------*- C++ -*----------------------------------*\
| =========                 |                                                 |
| \\      /  F ield         | OpenFOAM: The Open Source CFD Toolbox           |
|  \\    /   O peration     | Version:  2212                                  |
|   \\  /    A nd           | Website:  www.openfoam.com                      |
|    \\/     M anipulation  |                                                 |
\*---------------------------------------------------------------------------*/
FoamFile
{
    version     2.0;
    format      ascii;
    arch        "LSB;label=32;scalar=64";
    class       volVectorField;
    location    "0.81";
    object      U;
}
// * * * * * * * * * * * * * * * * * * * * * * * * * * * * * * * * * * * * * //

dimensions      [0 1 -1 0 0 0 0];

internalField   nonuniform List<vector> 
2308
(
(-178.085 449.46 -1.85423e-16)
(14.5393 -21.8192 0)
(165.309 466.49 1.19007e-17)
(242.8 508.576 -4.83658e-17)
(9.84133 542.054 0)
(48.5091 546.199 -2.36256e-18)
(-46.6387 553.082 5.45687e-19)
(-50.4011 544.771 -7.60701e-17)
(-3.15235 538.519 1.38305e-16)
(13.8238 587.789 -1.48929e-17)
(16.5194 585.296 2.58259e-17)
(16.4211 581.775 -3.86931e-17)
(14.3147 580.238 1.9836e-17)
(14.5668 577.327 -9.73142e-18)
(13.4195 575.184 1.72761e-18)
(13.7892 572.305 1.49183e-17)
(12.9087 570.078 2.68508e-18)
(-3.25716 568.166 4.56173e-18)
(-4.47848 570.902 6.07774e-18)
(-3.17582 573.186 4.45805e-19)
(-4.10011 576.167 3.18875e-18)
(-2.17313 578.18 -9.80192e-18)
(-2.86431 581.25 1.18679e-17)
(0.354235 582.698 -5.81441e-18)
(0.33904 585.762 -2.3171e-17)
(-2.06556 588.073 -1.06718e-17)
(4.12179 589.677 5.6669e-18)
(5.29344 592.02 -6.09173e-18)
(-27.4181 552.811 0)
(12.4678 567.194 -4.23992e-17)
(6.0264 594.069 3.18047e-19)
(6.46321 595.991 8.04479e-20)
(7.1773 597.852 -1.34358e-18)
(7.49996 599.682 1.30674e-18)
(8.22139 601.488 -1.32203e-18)
(8.5634 603.184 1.27828e-18)
(9.23535 604.876 -6.07961e-19)
(9.58348 606.457 6.2452e-19)
(10.2254 607.978 -5.95318e-19)
(10.5478 609.469 3.19529e-19)
(11.0658 610.825 6.04791e-19)
(11.3245 612.191 8.76126e-19)
(11.6207 613.387 -1.76519e-18)
(11.7314 614.549 1.17918e-18)
(11.7978 615.674 5.71364e-19)
(19.0419 615.619 -5.88856e-19)
(19.7718 614.315 5.79266e-19)
(20.0189 613.429 -8.90447e-19)
(20.7076 612.041 -9.91435e-19)
(20.8378 610.957 1.47398e-18)
(21.4523 609.449 -3.02563e-19)
(21.4033 608.157 6.19855e-19)
(21.8346 606.527 1.75168e-19)
(21.7263 605.08 -9.19312e-19)
(22.0437 603.327 -3.30382e-19)
(21.7388 601.755 6.24162e-19)
(22.0326 599.912 0)
(21.5827 598.242 -7.88305e-20)
(21.805 596.346 -2.7507e-18)
(21.3152 594.573 -9.66747e-18)
(21.8742 592.477 1.09853e-17)
(22.4475 590.254 1.23123e-17)
(29.4 588.35 1.30663e-17)
(28.4753 586.254 2.57106e-19)
(31.6685 583.97 1.58114e-17)
(30.2085 581.791 -2.92356e-17)
(29.6531 579.89 -6.86952e-18)
(29.0911 577.384 0)
(28.7874 574.95 0)
(28.2588 572.228 0)
(27.5508 569.693 0)
(11.6489 616.689 -2.94615e-19)
(18.3825 616.198 2.89116e-19)
(-21.7027 570.178 -2.09607e-17)
(-21.798 573.181 -4.21034e-19)
(-21.0378 575.559 1.63245e-18)
(-20.4936 578.383 0)
(-19.1653 580.467 -3.04201e-18)
(-18.4884 583.089 -2.94726e-18)
(-17.0584 584.956 1.45524e-18)
(-17.7406 587.347 5.7428e-18)
(-14.9623 589.506 0)
(-13.6805 591.47 -1.69659e-20)
(-12.7293 593.467 1.00927e-20)
(-12.3398 595.137 -1.30753e-18)
(-11.5196 597.065 1.94531e-18)
(-11.1773 598.728 -4.97635e-20)
(-10.3088 600.508 -1.14536e-18)
(-9.86701 602.229 0)
(-8.92361 603.85 -1.57064e-19)
(-8.51522 605.497 9.20365e-19)
(-7.52021 607.051 -1.22744e-18)
(-7.14407 608.552 2.13606e-20)
(-6.18261 610.007 1.21758e-18)
(-5.84605 611.436 0)
(-4.97324 612.773 1.18233e-18)
(-4.66558 614.117 -4.85667e-21)
(-3.94802 615.373 -5.93321e-19)
(-6.90147 565.908 -1.88082e-17)
(-3.63504 616.541 -5.77861e-19)
(9.95007 564.819 1.92077e-17)
(26.205 566.936 2.83313e-20)
(29.8225 613.427 -5.96181e-19)
(31.5703 614.106 7.37646e-19)
(33.1605 612.611 0)
(34.2047 612.206 -2.30407e-19)
(35.1172 610.485 5.18769e-19)
(35.884 609.811 6.12628e-19)
(36.6423 608.07 -6.0352e-19)
(37.1701 607.267 0)
(37.75 605.459 -1.56176e-19)
(38.0885 604.448 3.15449e-19)
(38.3965 602.533 3.54045e-21)
(38.4292 601.337 -3.13872e-19)
(38.6807 599.317 0)
(38.5691 597.938 5.09129e-19)
(38.8983 595.815 -1.951e-18)
(38.9598 594.228 -1.37939e-18)
(39.91 591.947 5.51611e-18)
(41.2764 590.086 2.09297e-17)
(45.4187 587.623 1.60967e-18)
(46.0066 585.195 1.54566e-17)
(48.6978 583.2 -6.83839e-18)
(47.7273 580.694 0)
(48.3969 578.698 0)
(47.6323 575.88 0)
(48.3056 573.498 2.50488e-17)
(47.4647 570.416 -2.79933e-17)
(47.0917 567.83 3.03952e-17)
(-72.151 540.29 -5.80975e-17)
(71.9522 544.841 0)
(47.4925 550.931 0)
(55.0368 549.175 0)
(-36.7016 566.868 4.31474e-17)
(-35.9799 570.492 1.16357e-17)
(-35.7995 573.713 -9.96782e-20)
(-34.4551 576.561 -1.9251e-19)
(-33.6389 579.008 1.98403e-19)
(-31.9797 581.728 1.55149e-18)
(-31.0904 583.659 -2.89531e-18)
(-29.7428 586.328 2.94995e-20)
(-29.0541 587.9 0)
(-27.5359 590.495 6.23971e-18)
(-25.9197 592.087 4.07962e-18)
(-24.9817 594.303 -6.50043e-19)
(-23.9865 595.852 6.6019e-19)
(-23.3048 597.805 0)
(-22.6325 599.396 0)
(-21.6922 601.287 -7.99207e-20)
(-21.2873 602.815 0)
(-19.9576 604.736 4.70395e-19)
(-19.741 606.132 -4.53367e-21)
(-18.2077 607.989 -3.12141e-19)
(-18.0289 609.278 0)
(-16.6881 610.947 -2.89997e-19)
(-16.3639 612.169 4.51594e-19)
(-15.1752 613.685 -7.39732e-19)
(-14.6457 614.741 0)
(-13.5416 616.076 -1.18163e-18)
(-12.5105 616.781 2.88997e-19)
(-10.3171 617.417 -1.08058e-21)
(-2.8728 617.659 0)
(11.4223 617.625 -1.44921e-19)
(16.823 617.103 -4.71247e-19)
(-33.2076 543.126 6.46457e-17)
(27.282 614.515 3.61364e-20)
(-91.1343 533.379 -1.91854e-16)
(-121.624 519.895 -4.63326e-17)
(23.6702 564.318 0)
(-56.8102 532.568 6.45011e-17)
(-10.7547 544.765 -1.27967e-16)
(-7.78515 562.704 7.12597e-18)
(45.2096 564.693 -4.55616e-17)
(-8.53891 617.092 -2.91308e-19)
(-2.01793 617.973 -2.88457e-19)
(10.6564 618.075 -3.64077e-20)
(15.3708 616.743 5.79132e-19)
(24.3182 613.489 3.64279e-20)
(20.8417 608.995 0)
(30.9996 611.85 3.32269e-19)
(35.7354 612.184 5.97325e-19)
(39.163 612.75 -1.47386e-19)
(41.8375 611.863 -5.99235e-19)
(44.0305 611.863 -6.75463e-19)
(45.664 610.421 9.00809e-19)
(47.0061 609.813 3.08397e-19)
(48.0582 608.137 -6.13068e-19)
(49.0629 607.417 4.58338e-19)
(50.1242 605.652 -1.34023e-19)
(50.9295 604.805 0)
(51.9737 602.942 0)
(52.7163 601.856 0)
(53.8105 599.711 6.60805e-19)
(54.4086 598.323 -3.10239e-19)
(55.4853 595.95 2.58216e-20)
(56.2234 594.303 -2.68164e-18)
(57.6289 591.759 0)
(59.2673 589.854 -2.97841e-18)
(61.9262 587.085 3.00002e-18)
(63.4041 585.044 6.28807e-18)
(65.4828 582.333 3.34033e-18)
(65.6367 580.122 1.36481e-17)
(66.6794 577.401 -1.30806e-17)
(66.3465 574.852 0)
(67.1732 571.906 3.43802e-18)
(66.4296 569.064 -6.85925e-18)
(66.1171 566.007 -1.41316e-17)
(-41.6421 560.44 6.79884e-18)
(-103.527 484.182 0)
(21.4148 545.151 -9.9784e-20)
(-77.774 544.006 8.35198e-17)
(-75.2067 547.974 -1.70697e-17)
(-70.8785 552.41 1.91213e-17)
(-67.7405 556.293 -3.24933e-18)
(-65.2329 560.151 7.28325e-18)
(-63.0923 563.42 -3.12408e-18)
(-61.0242 566.642 0)
(-59.0154 569.933 -3.12329e-18)
(-58.606 573.012 -3.12254e-18)
(-56.6546 575.966 0)
(-55.6264 578.65 0)
(-53.8729 581 1.82964e-19)
(-52.5177 583.661 -1.64461e-18)
(-51.263 585.511 0)
(-49.6915 588.003 0)
(-48.4332 589.589 -2.14711e-18)
(-46.4065 591.812 -1.3685e-18)
(-45.3819 593.414 2.72479e-18)
(-43.8041 595.313 6.78712e-19)
(-42.9796 596.957 1.64771e-19)
(-41.7099 598.458 6.4104e-19)
(-40.7458 600.429 -7.37848e-19)
(-39.7029 601.486 0)
(-38.5848 603.703 -3.15288e-19)
(-37.5667 604.52 0)
(-36.2245 606.698 0)
(-35.1937 607.529 0)
(-33.6606 609.6 -1.22315e-18)
(-32.2637 610.253 0)
(-30.6708 612.345 -6.8186e-19)
(-28.8556 612.553 1.13468e-19)
(-26.4114 614.515 2.35349e-18)
(-23.5681 613.345 0)
(-20.2759 614.723 -1.24415e-18)
(-16.2502 613.232 1.89067e-20)
(-192.286 405.872 0)
(-73.0302 533.664 1.0877e-16)
(39.284 469.121 2.37305e-16)
(248.326 496.768 0)
(51.0059 546.952 -3.92082e-17)
(-102.528 527.192 2.16983e-16)
(42.847 562.205 -1.61526e-18)
(-26.0991 559.549 1.51056e-17)
(-22.8093 585.106 -6.36207e-20)
(12.3292 599.874 -2.93024e-19)
(32.5456 603.49 3.91767e-19)
(43.7779 606.539 0)
(49.1564 606.41 0)
(53.5431 607.136 4.04614e-20)
(56.2917 605.974 -1.58205e-19)
(59.1399 606.06 -5.40563e-19)
(60.7705 604.481 3.79545e-20)
(62.8785 603.869 -8.17517e-20)
(64.1166 602.048 -9.88433e-20)
(65.8785 601.184 4.42965e-19)
(67.3599 599.228 5.04545e-20)
(68.991 598.138 -3.20725e-19)
(70.6682 596.128 0)
(71.9532 594.839 1.35554e-18)
(73.5099 592.736 3.07096e-20)
(74.5194 591.199 6.94437e-18)
(76.0903 588.981 -5.53701e-18)
(77.2493 587.196 0)
(79.2506 584.854 6.16308e-18)
(80.5938 582.879 -1.88064e-17)
(82.0251 580.485 9.40268e-18)
(82.9175 578.323 1.32427e-17)
(83.8624 575.731 6.25619e-19)
(84.0935 573.224 -1.28481e-17)
(84.9867 570.278 1.37169e-17)
(84.7232 567.406 1.49456e-17)
(84.4975 564.317 -1.28896e-17)
(63.7413 563.149 -2.9659e-17)
(-35.0581 528.99 -2.05476e-18)
(-176.123 495.874 -7.225e-18)
(-94.0676 541.292 -1.4182e-17)
(-90.8607 546.862 -1.8385e-18)
(-87.9271 551.215 -5.4789e-18)
(-84.1553 556.127 -1.78059e-18)
(-81.7428 559.909 0)
(-78.9068 564.071 3.26575e-18)
(-77.332 567.108 -1.55592e-18)
(-75.6831 570.705 -1.50703e-18)
(-74.2998 573.45 8.31e-19)
(-73.2191 576.577 7.78537e-19)
(-71.2192 579.264 1.47994e-18)
(-70.1746 581.603 0)
(-68.0456 584.141 1.46126e-18)
(-66.9607 586.03 -1.39673e-18)
(-64.6778 588.309 -2.24739e-20)
(-63.3213 590.078 -4.17502e-18)
(-61.3068 591.943 3.35168e-19)
(-59.725 593.71 -1.69393e-18)
(-58.1883 595.332 0)
(-56.6295 597.177 -5.28381e-19)
(-55.4011 598.563 5.20195e-20)
(-53.7362 600.849 7.29936e-19)
(-52.6001 601.848 0)
(-51.0935 604.301 0)
(-49.7915 605.088 -1.93542e-20)
(-48.5887 607.407 -6.03124e-19)
(-47.0966 607.99 6.23412e-19)
(-45.6954 610.211 7.50407e-19)
(-43.7463 610.418 -1.54256e-19)
(-41.4893 612.255 4.39631e-19)
(-38.5612 611.766 -1.50206e-19)
(-34.9567 612.963 -1.14933e-18)
(-30.4536 611.411 1.30648e-18)
(-24.1772 611.974 2.79127e-18)
(-12.1471 607.716 1.5287e-18)
(8.64996 603.777 0)
(-10.6233 613.909 -5.85793e-19)
(-5.69064 617.488 3.02862e-20)
(-0.877774 618.178 6.56898e-19)
(10.0567 618.162 2.18822e-19)
(13.1199 617.26 -2.8448e-19)
(19.8085 613.772 6.5633e-19)
(2.61151 604.032 -5.62492e-19)
(-61.4469 557.632 -4.82245e-19)
(44.836 482.6 -7.67153e-17)
(-146.058 474.718 -2.29139e-17)
(-229.308 246.325 -4.83812e-17)
(-93.8586 525.629 -9.91335e-17)
(-139.505 478.863 -6.08027e-17)
(118.063 530.752 2.05632e-17)
(82.5058 561.32 0)
(61.8829 560.145 5.8806e-17)
(-53.5153 525.601 1.62509e-16)
(-77.8078 525.288 6.34371e-17)
(-95.464 498.684 -8.09578e-17)
(6.97225 546.283 1.30884e-16)
(-118.116 534.559 0)
(-114.298 541.115 1.84659e-18)
(-111.087 546.874 -4.28117e-19)
(-107.331 552.392 -7.89807e-18)
(-104.374 556.962 1.70446e-18)
(-102.096 561.409 0)
(-99.297 565.119 5.32032e-20)
(-98.0634 568.619 -3.77852e-19)
(-95.2928 571.854 0)
(-94.3488 574.581 -7.31926e-19)
(-91.2978 577.792 -7.39758e-19)
(-89.756 579.919 0)
(-87.0247 582.528 1.76066e-19)
(-84.9839 584.434 -1.63108e-19)
(-82.5295 586.393 1.72447e-19)
(-79.8057 588.514 2.59687e-18)
(-77.7082 590 0)
(-74.7533 592.283 3.37935e-19)
(-73.0357 593.337 -1.67912e-19)
(-70.3989 595.9 4.12931e-20)
(-68.7338 596.718 1.22415e-19)
(-66.3193 599.263 -7.31153e-19)
(-64.3383 600.008 0)
(-62.1382 602.519 1.60728e-19)
(-59.7693 603.077 3.14777e-19)
(-57.7754 605.412 3.05333e-19)
(-54.8706 605.6 2.40807e-20)
(-52.3106 607.73 -1.54131e-19)
(-48.7873 606.909 -4.95846e-19)
(-44.828 608.676 -3.09951e-19)
(-39.8513 607.173 -3.70957e-19)
(-33.1929 608.226 0)
(-20.1243 603.529 -1.17747e-18)
(1.83491 600.29 -1.14888e-18)
(39.9177 581.54 -7.72904e-19)
(70.0375 556.427 -2.35072e-18)
(93.5595 549.323 8.4705e-19)
(45.7123 585.003 -9.44964e-19)
(0.191391 609.583 0)
(-3.16041 616.8 2.9223e-19)
(0.0301671 618.088 2.87456e-19)
(9.16586 618.171 -5.61133e-19)
(11.0748 616.61 6.03353e-19)
(10.8293 610.563 3.06511e-20)
(-28.741 589.509 -4.09508e-19)
(-86.0231 543.145 1.30638e-18)
(-99.0017 539.51 -1.24157e-18)
(-96.5698 538.641 1.53693e-19)
(-80.7124 539.165 -1.75798e-19)
(-56.2958 551.642 3.02359e-19)
(-15.701 579.984 -8.60366e-19)
(20.4402 596.404 3.3668e-19)
(42.7494 599.042 0)
(55.6283 603.499 5.20378e-20)
(62.113 602.961 5.74215e-19)
(66.6838 604.575 -7.82012e-20)
(69.9261 602.633 2.00294e-19)
(73.3171 603.348 -3.38981e-22)
(75.4323 601.212 8.18103e-20)
(78.134 601.005 -3.95037e-20)
(79.7742 598.671 2.87494e-19)
(81.9654 598.287 -9.68297e-19)
(83.6509 595.939 -1.73617e-20)
(85.504 595.495 6.46288e-19)
(87.3695 593.103 -6.68938e-19)
(88.9827 592.412 -5.45162e-18)
(91.2459 589.869 5.53365e-18)
(92.8378 588.669 0)
(95.6081 585.857 -1.17232e-17)
(97.4972 584.205 8.91635e-18)
(99.907 581.225 -9.12744e-18)
(101.953 579.027 0)
(104.007 575.795 0)
(105.464 573.137 0)
(107.42 569.556 -1.58041e-18)
(108.308 566.504 2.61198e-19)
(108.743 562.823 2.73219e-17)
(-22.076 527.647 -7.07309e-17)
(80.1891 558.208 3.01869e-17)
(57.0575 557.196 -2.71277e-17)
(-45.9767 556.985 3.60666e-18)
(-75.7844 521.58 7.93941e-17)
(-103.231 513.183 7.10012e-17)
(-114.935 513.221 5.94042e-18)
(-123.708 511.214 -6.86225e-17)
(-206.465 469.785 -5.49364e-17)
(-121.151 527.78 -4.64195e-17)
(-144.287 518.852 1.57645e-17)
(-141.585 526.828 -4.76103e-18)
(-136.866 534.472 -7.50054e-18)
(-133.374 541.452 0)
(-129.419 547.752 6.89685e-18)
(-125.815 553.147 0)
(-123.443 558.002 0)
(-120.185 562.677 1.58857e-18)
(-118.177 565.991 3.8969e-19)
(-115.179 570.367 0)
(-113.157 572.549 7.26167e-19)
(-110.434 576.495 -3.03334e-20)
(-107.863 578.313 -1.52611e-20)
(-105.512 581.826 7.03759e-19)
(-102.75 583.194 7.92934e-19)
(-101.018 586.196 -7.73928e-19)
(-98.116 587.582 -1.40792e-18)
(-96.5338 589.769 4.26291e-20)
(-93.704 591.484 -2.47902e-19)
(-92.017 593.201 8.61322e-20)
(-89.4483 595.099 3.26266e-19)
(-87.5036 596.57 -2.45306e-19)
(-85.1822 598.384 3.19382e-19)
(-82.7155 599.933 -8.65412e-21)
(-80.017 601.844 -7.70806e-19)
(-76.97 602.952 3.09872e-19)
(-73.7083 604.504 3.12992e-19)
(-70.3683 603.35 -4.386e-19)
(-65.6254 605.656 6.56027e-19)
(-59.9169 602.651 6.10056e-19)
(-51.1 604.415 0)
(-36.2863 597.975 2.32921e-18)
(-10.2778 595.972 6.56761e-19)
(31.625 575.312 3.39126e-19)
(61.2686 550.211 0)
(86.2105 545.573 0)
(94.8286 545.677 1.09721e-18)
(97.6244 546.417 -9.63481e-21)
(98.5669 548.825 -2.16715e-19)
(103.113 549.224 2.03217e-19)
(76.2292 560.684 0)
(20.8679 605.607 0)
(1.8805 616.33 -1.39595e-19)
(1.50757 618.208 4.35894e-19)
(8.08768 618.077 0)
(6.88576 616.204 -2.85671e-19)
(-6.85796 606.465 -2.93283e-19)
(-65.6125 562.301 7.86546e-19)
(-100.26 542.337 -4.23507e-19)
(-99.4841 541.001 1.26571e-18)
(-90.3756 541.797 1.99694e-19)
(-92.7617 538.895 2.15912e-19)
(-93.7241 536.468 4.3417e-19)
(-93.8352 534.077 0)
(-91.7916 532.944 -1.55971e-19)
(-78.0322 532.857 -4.16233e-20)
(-51.5532 542.152 2.08166e-19)
(-11.0022 571.534 -1.31388e-19)
(29.3082 591.168 -1.07863e-19)
(54.4403 592.759 -7.06184e-19)
(69.557 598.389 1.57915e-19)
(77.7142 597.131 -4.05527e-19)
(82.9509 599.413 2.01523e-19)
(87.0293 597.263 -7.94729e-20)
(90.6278 597.7 0)
(93.2891 595.469 0)
(96.2598 595.053 0)
(97.9523 592.69 -3.34056e-19)
(100.811 591.863 0)
(102.808 589.349 -2.07798e-20)
(105.737 588.271 2.70821e-18)
(108.325 585.63 -1.44033e-18)
(111.408 584.35 2.78425e-18)
(114.563 581.466 8.831e-18)
(117.661 579.79 8.15714e-20)
(120.587 576.743 -2.98383e-18)
(123.445 574.572 -6.2125e-18)
(125.812 571.351 1.22696e-17)
(127.497 568.779 -6.07126e-18)
(129.563 565.234 8.32016e-20)
(130.12 562.2 3.43715e-18)
(130.987 558.602 9.1987e-19)
(107.744 559.725 -3.99439e-17)
(-36.1082 521.086 -7.47571e-17)
(-6.66039 527.231 1.44562e-16)
(246.603 236.293 0)
(105.336 556.174 -2.94178e-17)
(-156.691 499.175 1.17798e-16)
(-150.125 490.206 -7.20408e-17)
(-135.058 496.427 -1.29196e-16)
(54.3543 553.82 -9.19291e-18)
(-54.3206 549.096 -9.02595e-18)
(-29.5294 556.35 -3.56635e-18)
(76.231 555.293 4.70366e-19)
(-89.5876 515.001 -8.07514e-17)
(-127.668 496.195 7.45964e-17)
(98.381 551.269 -2.07939e-19)
(106.023 549.815 -2.0209e-19)
(99.7791 553.439 0)
(58.5329 585.36 -1.48592e-19)
(13.248 611.918 1.78748e-19)
(3.51537 617.437 -1.37766e-19)
(6.59935 617.563 1.378e-19)
(-2.7447 612.524 3.4885e-19)
(-41.088 589.915 -2.94687e-19)
(-89.6681 549.003 8.93411e-19)
(-103.511 543.222 -1.20061e-18)
(-99.1237 543.108 0)
(-88.606 543.642 -1.28784e-20)
(-77.3914 544.95 0)
(-78.7373 543.32 -1.30934e-18)
(-80.7854 540.817 4.39977e-19)
(-82.8924 538.667 0)
(-85.8525 535.467 0)
(-87.9405 532.139 1.11215e-19)
(-88.7882 528.873 -1.32068e-20)
(-88.2349 527.241 0)
(-76.1828 525.412 -7.46888e-20)
(-49.23 533.013 6.29506e-20)
(-9.68204 562.376 1.64878e-19)
(33.4299 585.059 1.42938e-19)
(62.1375 586.203 1.6633e-19)
(80.1398 592.574 1.60159e-21)
(90.2315 591.091 -3.37779e-19)
(95.7403 593.866 8.90113e-20)
(100.769 591.155 3.35845e-19)
(104.597 592.249 8.09546e-20)
(108.254 589.576 -1.7451e-19)
(111.908 589.304 3.37823e-19)
(114.733 586.713 -1.01674e-18)
(118.126 586.05 -1.3773e-18)
(120.98 583.293 6.83931e-19)
(124.503 582.44 -1.40124e-18)
(127.62 579.621 0)
(131.28 578.582 -4.35571e-18)
(134.406 575.64 8.85388e-18)
(138.304 574.225 0)
(141.196 570.805 0)
(144.656 568.614 0)
(147.575 564.301 2.32182e-18)
(150.551 561.415 1.64013e-19)
(153.146 556.32 1.53964e-19)
(129.513 555.366 -2.66431e-17)
(35.775 539.539 -6.93918e-17)
(-53.9847 518.301 4.3876e-18)
(258.319 456.804 6.07965e-17)
(85.513 525.01 0)
(-170.741 516.676 -3.62552e-18)
(-165.333 526.333 0)
(-160.212 533.641 0)
(-155.425 540.646 1.62984e-18)
(-150.244 546.416 -3.31234e-18)
(-146.256 550.953 0)
(-141.252 555.936 1.56606e-18)
(-137.416 559.01 0)
(-132.808 563.072 -3.80838e-19)
(-128.745 565.949 3.66568e-19)
(-124.496 569.131 -1.86719e-18)
(-120.137 571.954 1.48036e-20)
(-116.416 574.573 -7.29012e-19)
(-112.401 577.672 1.43884e-18)
(-109.802 579.34 1.06244e-18)
(-106.376 582.547 -1.05996e-18)
(-103.996 583.738 0)
(-101.224 586.879 -6.40551e-21)
(-98.5594 587.832 -5.19379e-19)
(-96.1651 590.794 0)
(-92.7326 591.819 0)
(-90.6726 594.426 1.6958e-19)
(-86.3661 595.076 4.97426e-19)
(-83.4646 597.631 -3.24281e-19)
(-78.6245 597.582 3.2866e-19)
(-74.0528 599.872 -6.53991e-19)
(-67.7991 598.857 -1.53542e-19)
(-57.2283 599.027 -1.25938e-18)
(-41.0474 593.242 6.4114e-19)
(-15.5502 590.332 0)
(27.545 567.48 -1.27292e-18)
(57.2731 542.234 -6.46663e-19)
(80.6501 540.755 0)
(88.2166 541.871 8.529e-19)
(89.6166 543.386 2.94338e-20)
(89.3251 546.779 1.26344e-18)
(88.5557 549.878 1.24521e-18)
(86.5129 552.249 0)
(84.977 554.149 -3.98349e-19)
(18.4129 520.243 -7.40073e-17)
(-25.4719 518.639 -1.46168e-16)
(-35.8318 577.308 1.61694e-17)
(73.2983 551.996 -2.90539e-17)
(-113.491 501.97 1.33064e-16)
(101.731 553.329 -1.25233e-18)
(-66.3039 545.42 2.20282e-19)
(-66.7667 544.222 1.1043e-18)
(-67.8047 542.206 -8.87048e-19)
(-68.9194 540.433 0)
(-70.8123 537.971 0)
(-73.2162 535.583 0)
(-76.9969 532.014 0)
(-80.9816 527.368 2.37947e-19)
(-83.0518 523.265 -1.10456e-19)
(-83.7998 520.48 6.12113e-20)
(-76.3187 518.73 -3.64247e-19)
(-47.9833 520.522 2.86149e-19)
(-12.0592 550.991 9.47158e-20)
(39.2283 576.872 -1.46074e-19)
(70.251 578.052 0)
(91.4128 585.431 3.69009e-21)
(104.503 584.337 -8.78933e-20)
(112.456 587.364 8.02317e-20)
(119.57 584.786 1.63609e-19)
(124.35 586.857 -1.94846e-19)
(128.867 584.136 1.92394e-19)
(133.101 583.401 -5.08628e-19)
(137.068 580.499 -1.04643e-18)
(140.751 579.365 6.78345e-19)
(144.313 575.999 0)
(148.024 574.126 -1.08674e-20)
(152.105 570.354 -4.43907e-18)
(156.268 567.506 3.65195e-18)
(161.025 563.562 -7.4949e-19)
(165.609 559.952 0)
(171.039 555.635 -7.63382e-19)
(176.011 551.059 1.0771e-17)
(181.438 545.668 -5.82953e-18)
(154.765 552.705 2.38491e-17)
(48.6045 539.684 1.46529e-16)
(-77.5683 511.276 5.16652e-18)
(83.096 556.908 -9.17244e-20)
(95.6576 554.329 5.99716e-19)
(106.937 552.11 9.81675e-20)
(108.923 553.118 0)
(86.1982 562.151 -1.52919e-19)
(32.8562 605.609 2.12545e-19)
(8.86333 615.451 -2.09484e-19)
(3.08843 616.308 -5.49073e-19)
(-18.3814 607.33 5.56807e-19)
(-74.1252 563.926 0)
(-103.41 547.866 -4.0713e-19)
(-104.393 544.593 1.22117e-18)
(-97.2021 545.67 -8.45128e-19)
(-86.8917 545.996 -4.32326e-19)
(-76.0781 547.147 6.47673e-19)
(-65.9214 547.258 -8.57989e-19)
(57.774 532.726 1.40476e-16)
(-155.399 471.685 -6.04099e-17)
(-164.071 469.069 6.3685e-17)
(-173.993 468.972 1.27825e-16)
(-192.375 474.074 5.50652e-17)
(18.8514 549.959 -2.54103e-18)
(62.4316 542.507 3.85741e-17)
(-56.4064 112.416 0)
(254.437 491.847 0)
(-201.801 507.707 0)
(-194.387 518.941 8.43156e-19)
(-186.833 527.773 -1.63032e-18)
(-181.095 534.537 8.05119e-20)
(-174.66 540.98 4.85885e-18)
(-170.115 545.401 -3.17312e-18)
(-164.999 550.901 1.89027e-20)
(-160.578 554.638 1.49937e-18)
(-156.633 559.073 -2.62258e-18)
(-152.097 562.401 4.23507e-19)
(-148.634 565.674 1.48339e-18)
(-144.018 569.245 -3.61633e-19)
(-140.625 571.382 3.42033e-19)
(-135.839 575.416 -1.05394e-18)
(-131.912 577.14 3.52494e-19)
(-127.669 580.549 1.01649e-18)
(-123.432 582.033 -6.83071e-19)
(-119.814 584.688 6.80298e-19)
(-115.425 586.23 2.52423e-19)
(-111.714 588.281 5.73212e-19)
(-106.979 589.674 -7.53522e-19)
(-102.265 590.602 4.98913e-19)
(-96.7893 590.886 -9.1112e-19)
(-89.6036 590.923 -6.74738e-19)
(-80.6411 590.708 6.70742e-19)
(-66.9703 589.363 3.16814e-19)
(-43.004 585.474 -5.20594e-19)
(-15.3803 582.379 0)
(34.0641 558.749 -1.07039e-18)
(56.9236 531.956 4.57517e-19)
(82.7129 533.518 -8.51565e-19)
(83.6404 534.742 -1.22123e-18)
(83.0818 537.565 -8.35762e-19)
(81.5136 541.922 -1.67022e-18)
(78.093 545.852 4.13968e-19)
(74.923 548.853 -4.25159e-19)
(73.6027 551.252 -8.29308e-19)
(72.4922 553.867 0)
(72.3416 555.08 0)
(71.9126 556.667 0)
(-42.6808 557.689 0)
(127.64 551.923 -1.80661e-18)
(69.7207 548.502 1.4255e-16)
(33.9117 512.361 6.98891e-17)
(-43.9781 513.404 7.69414e-17)
(-1.8838 516.323 1.40466e-16)
(37.3057 545.858 -7.06551e-17)
(-107.451 513.901 -2.19287e-17)
(-212.747 411.439 0)
(39.6866 549.453 -7.9143e-17)
(98.0568 549.757 -3.07933e-17)
(185.999 539.636 -1.10879e-17)
(6.84808 552.58 -2.00193e-16)
(15.9504 505.1 9.22954e-17)
(263.823 430.757 6.53951e-17)
(-197.686 424.519 -1.27543e-17)
(-56.8726 545.533 -4.33857e-19)
(-56.4411 543.972 -1.09469e-19)
(-55.9413 543.226 -3.18335e-19)
(-55.4002 541.913 -1.04056e-20)
(-54.807 540.474 0)
(-54.5067 539.115 0)
(-54.4091 537.686 0)
(-55.3484 535.823 -5.78498e-20)
(-57.6675 533.384 -7.51399e-20)
(-62.5114 529.978 6.7713e-20)
(-68.1951 524.779 -6.19237e-20)
(-72.2918 518.543 1.41706e-19)
(-74.4285 514.479 -1.61418e-19)
(-74.3278 512.07 0)
(-45.3697 509.577 0)
(-18.1098 542.262 0)
(36.1194 567.011 0)
(66.4116 571.911 0)
(92.4285 576.214 0)
(110.565 577.592 -5.34014e-20)
(123.621 578.31 1.64851e-19)
(131.333 575.742 0)
(138.817 577.116 -4.59414e-19)
(143.387 573.977 7.84623e-19)
(148.881 572.701 7.02361e-19)
(153.015 568.108 0)
(159.096 566.489 2.19378e-18)
(163.271 561.267 -2.2449e-18)
(169.37 559.85 -7.39468e-19)
(173.866 554.548 1.53416e-18)
(180.019 552.692 -2.26817e-18)
(185.493 547.217 1.11905e-18)
(191.548 544.292 -3.01736e-18)
(198.503 538.473 7.37126e-19)
(205.1 533.916 2.33666e-17)
(65.4974 536.714 7.52446e-17)
(-187.965 432.333 1.16209e-16)
(-189.359 435.641 6.34785e-17)
(71.5536 558.189 0)
(81.8561 559.537 3.16925e-21)
(93.6415 557.347 -2.03566e-19)
(106.161 554.499 -1.02687e-19)
(112.212 553.749 -2.37113e-20)
(108.144 555.674 2.54557e-20)
(65.104 586.258 0)
(15.2142 609.911 0)
(-1.66329 612.869 2.16438e-19)
(-48.1353 592.075 -8.94726e-19)
(-98.2191 552.145 8.5366e-19)
(-107.045 547.435 0)
(-104.231 545.905 -8.3666e-19)
(-95.8818 547.104 8.37738e-19)
(-85.4061 547.456 2.09378e-19)
(-75.1661 548.457 2.15232e-19)
(-65.7603 548.35 0)
(-57.2974 546.486 0)
(-36.8616 547.881 0)
(-179.495 448.64 6.33211e-17)
(-182.264 443.508 0)
(-192.423 445.601 -1.2575e-16)
(-206.527 438.829 6.60737e-17)
(-224.098 445.095 1.06245e-16)
(53.0749 534.881 -1.31069e-17)
(-70.8147 495.835 7.04335e-17)
(-235.547 472.473 1.0248e-18)
(-226.481 488.522 -1.51054e-17)
(-218.221 501.922 6.02758e-18)
(-207.76 512.733 -7.11502e-18)
(-199.39 521.328 -2.89531e-18)
(-190.825 528.643 4.25208e-18)
(-184.022 534.27 7.83644e-19)
(-177.434 539.191 -4.05572e-18)
(-171.518 544.18 2.42635e-18)
(-166.366 547.743 0)
(-161.219 552.387 -1.91481e-18)
(-156.623 555.014 1.18711e-18)
(-152.001 559.461 1.88421e-18)
(-147.229 562.074 3.50582e-19)
(-142.812 566.04 -1.49318e-18)
(-137.845 569.139 -7.40613e-19)
(-133.537 572.385 0)
(-128.769 575.774 0)
(-124.102 577.539 -1.72266e-19)
(-118.859 580.374 -8.40454e-20)
(-113.198 580.594 8.78467e-19)
(-106.78 582.827 1.8096e-19)
(-98.9285 582.918 -5.90244e-19)
(-86.9471 584.084 -2.3098e-20)
(-70.3432 579.813 0)
(-42.0726 578.303 0)
(-13.1144 566.588 -9.42202e-19)
(30.9347 540.562 1.09506e-18)
(51.3758 524.469 -4.77255e-19)
(76.4353 527.5 -1.53601e-19)
(76.5175 529.691 4.51103e-19)
(74.9497 532.824 4.5667e-19)
(70.8493 538.395 2.66654e-18)
(66.0034 541.659 0)
(62.3676 544.36 1.29796e-18)
(59.6589 546.803 -1.28967e-18)
(58.2138 548.946 8.34254e-19)
(58.2717 550.088 -8.47246e-19)
(59.1674 551.554 8.49297e-19)
(59.9487 552.729 0)
(60.2196 555.008 0)
(60.1774 557.029 -4.05434e-19)
(72.0762 528.567 1.41599e-16)
(154.598 547.599 -2.52191e-17)
(-162.319 457.729 -6.30083e-17)
(89.1351 511.105 1.43847e-16)
(76.568 509.131 -4.55457e-18)
(59.251 504.398 1.48293e-16)
(121.996 549.363 2.81161e-17)
(-63.8032 508.552 -1.53907e-16)
(18.237 509.604 0)
(-24.4744 508.736 0)
(-176.601 448.205 -1.38535e-17)
(132.562 410.788 -9.02039e-17)
(83.0714 532.056 6.85662e-18)
(36.3282 554.28 -1.20147e-16)
(238.304 511.969 -1.28127e-17)
(78.7938 537.15 -8.73214e-17)
(-0.9809 580.844 0)
(10.4972 564.792 -8.84487e-18)
(229.36 521.77 0)
(220.594 526.613 3.99412e-19)
(212.955 535.605 7.52397e-19)
(204.319 539.742 2.78281e-19)
(198.164 546.913 4.80829e-20)
(190.576 549.741 0)
(184.849 554.071 9.55948e-19)
(177.643 556.133 -9.64634e-19)
(170.371 556.683 3.66618e-19)
(161.969 558.723 -7.34574e-19)
(151.537 558.615 1.63123e-19)
(142.206 561.762 0)
(127.243 560.134 3.58331e-19)
(110.366 564.385 -2.50588e-19)
(91.4489 556.921 2.16772e-19)
(52.9852 560.076 -3.77593e-19)
(8.93538 539.145 4.94687e-19)
(-35.6392 513.232 5.80601e-20)
(-62.0649 497.578 -2.63053e-19)
(-80.8489 502.134 1.19908e-19)
(-77.4891 504.896 -1.36069e-19)
(-69.1309 510.926 0)
(-59.7718 518.693 6.39341e-20)
(-49.6291 523.521 -3.1622e-20)
(-43.7128 526.983 -1.16451e-19)
(-40.6995 528.53 1.03525e-19)
(-40.8333 530.003 1.45601e-20)
(-42.124 530.416 -5.95022e-20)
(-44.0592 531.149 0)
(-45.8781 531.981 0)
(-47.0667 533.667 -2.29402e-19)
(-48.1081 535.043 1.25076e-18)
(-48.8569 536.765 -2.20167e-19)
(-49.3748 538.108 0)
(-49.7298 539.791 8.79838e-19)
(-49.9816 540.826 -2.975e-21)
(-90.1799 514.2 6.52771e-17)
(60.0039 559.552 4.10755e-19)
(70.4994 560.67 0)
(79.9361 562.639 -9.60517e-20)
(91.0521 560.882 1.00825e-19)
(103.598 558.23 2.4705e-19)
(112.107 555.331 -1.97396e-19)
(115.12 554.885 4.84393e-20)
(95.0411 562.623 1.00923e-19)
(35.8618 600.998 5.11367e-19)
(-17.6515 607.156 -7.87313e-19)
(-82.7271 562.475 -8.67565e-19)
(-107.884 549.193 7.4044e-19)
(-108.369 548.332 -1.00928e-19)
(-103.303 548.332 2.04275e-19)
(-94.1904 549.448 -8.30775e-19)
(-84.0618 549.532 -2.15113e-19)
(-74.3181 550.356 8.40356e-19)
(-65.6673 549.917 0)
(-57.6748 547.839 4.24766e-19)
(-50.2046 542.415 -2.16208e-19)
(80.5672 531.417 7.285e-17)
(188.968 533.539 -2.0807e-17)
(104.982 509.754 -7.20847e-17)
(-57.352 534.878 0)
(-27.4471 557.428 0)
(-9.77927 586.779 -1.34761e-17)
(2.26901 590.831 -3.02947e-18)
(17.7919 581.613 -4.44777e-18)
(52.9524 560.993 -2.00792e-17)
(106.055 508.228 1.61141e-17)
(162.21 451.844 9.14339e-18)
(254.644 454.322 0)
(-168.053 431.071 -1.05419e-17)
(105.187 379.229 1.36793e-17)
(5.02882 425.892 7.59499e-17)
(38.1347 441.651 -7.32552e-17)
(113.08 496.342 -7.08522e-17)
(97.8755 499.488 0)
(81.6844 495.8 0)
(118.797 545.868 6.22506e-17)
(93.4119 522.153 1.40487e-16)
(-205.114 413.492 -1.53838e-17)
(-181.023 422.249 6.29852e-17)
(-172.945 392.69 -7.59341e-17)
(-188.856 382.962 0)
(-208.153 370.868 -1.57e-16)
(-226.52 370.279 8.37425e-17)
(-236.278 428.165 -1.04467e-16)
(-113.493 164.703 -9.66151e-17)
(-247.884 414.807 1.79252e-17)
(-250.075 440.975 -1.92528e-17)
(-245.201 463.848 7.69717e-18)
(-240.189 481.68 -7.59577e-18)
(-233.098 497.601 0)
(-225.741 508.963 -4.22584e-19)
(-216.685 520.073 -6.06046e-19)
(-208.313 527.785 2.35989e-18)
(-200.149 534.102 7.21711e-19)
(-192.644 539.485 -3.8494e-18)
(-185.666 543.477 1.55245e-18)
(-179.01 547.648 1.86458e-18)
(-172.743 550.481 -1.51613e-18)
(-166.576 553.047 9.38234e-19)
(-160.058 555.881 -9.43718e-19)
(-152.881 556.245 -3.8204e-19)
(-145.275 559.973 1.10482e-18)
(-137.154 559.459 2.0943e-19)
(-129.112 564.112 7.47938e-19)
(-120.444 563.207 -7.63022e-19)
(-111.149 567.582 0)
(-98.3395 566.756 -2.04803e-19)
(-86.6593 570.336 -8.61476e-20)
(-66.7587 564.742 -1.0781e-18)
(-38.429 567.319 8.29821e-19)
(3.7463 546.974 -1.44547e-19)
(34.9694 520.165 9.81192e-19)
(61.3859 516.469 -1.80583e-18)
(70.5771 520.081 9.13848e-19)
(68.1745 522.128 4.4243e-19)
(64.2888 526.385 2.21771e-19)
(57.6597 533.019 -4.36623e-19)
(51.07 538.072 1.36351e-18)
(47.5248 541.476 -1.3419e-18)
(45.5301 542.467 -4.54759e-19)
(45.5748 543.994 -1.32045e-18)
(46.4811 544.737 1.69669e-18)
(48.4503 544.704 -1.30315e-18)
(50.0908 545.291 8.43051e-19)
(50.9638 547.814 -1.69057e-18)
(51.4293 550.26 0)
(51.9509 552.733 8.27992e-19)
(52.563 554.343 -4.34948e-19)
(52.8645 556.212 -4.18422e-19)
(191.251 423.116 -1.70463e-16)
(185.191 415.323 8.59792e-17)
(187.57 401.412 -8.74495e-17)
(-85.7465 523.166 2.86056e-17)
(124.532 340.655 -1.15031e-16)
(148.889 545.11 0)
(132.264 488.147 -2.21429e-17)
(147.434 324.729 -1.24735e-16)
(-169.761 444.632 5.58698e-17)
(-4.6221 504.251 2.2712e-16)
(-46.4598 503.171 -1.53258e-16)
(42.8688 500.74 -7.14543e-17)
(180.553 444.658 0)
(138.974 474.817 -8.06387e-17)
(153.213 470.071 7.63196e-17)
(16.6066 525.438 -3.25177e-17)
(180.376 443.405 -8.24851e-17)