/*--------------------------------*- C++ -*----------------------------------*\
| =========                 |                                                 |
| \\      /  F ield         | OpenFOAM: The Open Source CFD Toolbox           |
|  \\    /   O peration     | Version:  2212                                  |
|   \\  /    A nd           | Website:  www.openfoam.com                      |
|    \\/     M anipulation  |                                                 |
\*---------------------------------------------------------------------------*/
FoamFile
{
    version     2.0;
    format      ascii;
    arch        "LSB;label=32;scalar=64";
    class       volScalarField;
    location    "0.0936";
    object      alphat;
}
// * * * * * * * * * * * * * * * * * * * * * * * * * * * * * * * * * * * * * //

dimensions      [1 -1 -1 0 0 0 0];

internalField   nonuniform List<scalar> 
31661
(
0.00100566
0.000102561
0.000108196
0.000104864
0.000102385
0.000106911
0.000104127
0.000102385
0.000105978
0.000103647
0.000125919
0.00012566
0.000340768
0.00102627
0.00127269
0.00136389
0.00122859
0.00129971
8.5228e-05
0.00137857
2.33324e-05
2.39183e-05
8.19561e-05
0.00115782
0.00010638
2.21877e-05
6.45241e-05
8.05165e-05
0.000129395
0.000156291
0.00120376
3.26382e-05
3.24636e-05
9.01193e-05
0.000104511
0.00127473
3.02853e-05
0.00128305
0.00034458
2.99149e-05
2.95123e-05
0.000101913
0.00121171
0.00029485
0.000305876
0.000139199
0.000299323
0.000115185
3.18581e-05
0.000897198
2.61175e-05
0.000735965
0.000146257
9.76138e-05
0.000347574
9.61741e-05
0.000141324
0.000168095
0.000297013
0.000111388
0.000129487
0.000120892
0.000254192
9.5327e-05
4.83848e-05
0.000557004
0.000193747
0.000260394
0.000231179
0.000203329
0.000116716
0.000173211
0.000152423
0.00013861
0.000125842
0.000116312
0.000108168
0.000102028
9.69724e-05
9.31568e-05
9.01015e-05
8.78335e-05
8.60868e-05
8.48418e-05
8.53014e-05
8.66461e-05
8.84977e-05
9.09101e-05
9.40913e-05
9.80865e-05
0.000103246
0.000109563
0.000117635
0.000127293
0.000139422
0.000153494
0.00016982
0.000187866
0.000207385
0.000230922
0.000256895
0.000283997
0.000310916
0.000341578
0.000338927
0.000374685
0.000368907
0.000406097
0.00039855
0.000434986
0.000426482
0.00046079
0.000452041
0.000483245
0.000474816
0.000502347
0.000494617
0.000518318
0.000511501
0.000531508
0.000525682
0.000542319
0.000537458
0.000551156
0.000547166
0.000558404
0.000555161
0.000564388
0.000561758
0.000569385
0.000567243
0.000573622
0.000571858
0.000577277
0.000575799
0.0005805
0.000579232
0.000583413
0.000582296
0.000586111
0.000585104
0.000588688
0.000587755
0.000591213
0.000590332
0.000593752
0.000592909
0.000596376
0.000595557
0.00059915
0.000598349
0.000602147
0.000601362
0.000605443
0.000604671
0.000609124
0.000608363
0.000613296
0.000612534
0.000618059
0.000617316
0.000623566
0.000622841
0.00062999
0.000629282
0.00063756
0.00063687
0.000646614
0.000645941
0.000657076
0.000657738
0.00065772
0.000646532
0.000637412
0.000629781
0.000623301
0.000617743
0.000612931
0.000608724
0.000605009
0.000601683
0.000598658
0.000595857
0.000593205
0.000590636
0.000588079
0.000585464
0.000582707
0.000579728
0.000576419
0.000572652
0.000568269
0.000563078
0.000556846
0.000549288
0.000540062
0.000528793
0.000515073
0.000498515
0.000478803
0.000455738
0.000429338
0.000399834
0.000367566
0.000332835
0.000298217
0.000262667
0.000230285
0.000200858
0.00017705
0.000157249
0.000141449
0.000128383
0.000118076
0.000109656
0.000103122
9.78857e-05
8.43314e-05
8.39494e-05
9.38697e-05
9.07144e-05
8.83406e-05
8.65196e-05
8.51968e-05
8.3441e-05
8.37449e-05
8.46485e-05
8.5458e-05
8.66595e-05
8.82862e-05
9.04436e-05
9.32364e-05
9.68262e-05
0.000101335
0.000106988
0.000113913
0.000122363
0.000132486
0.000144438
0.000158228
0.000173942
0.000191213
0.000209877
0.000230395
0.000252563
0.000275679
0.000299673
0.000325501
0.000352253
0.000379181
0.000405525
0.000430686
0.000454112
0.000475424
0.000494339
0.000510779
0.000524806
0.00053661
0.00054644
0.000554578
0.000561319
0.000566921
0.000571622
0.000575629
0.000579119
0.000582242
0.000585123
0.000587867
0.000590571
0.000593317
0.000596188
0.000599265
0.000602638
0.000606396
0.000610639
0.000615491
0.000621095
0.000627624
0.000635307
0.000644475
0.000655694
0.000670056
0.000671402
0.000672073
0.000672101
0.00067151
0.000657041
0.000645713
0.000636444
0.000628669
0.000622059
0.000616385
0.000611471
0.000607174
0.000603376
0.000599973
0.000596873
0.000593992
0.000591256
0.000588582
0.000585894
0.000583109
0.00058013
0.000576851
0.00057314
0.000568841
0.000563764
0.000557682
0.000550331
0.000541408
0.000530581
0.000517526
0.000501936
0.000483582
0.000462367
0.000438375
0.000411878
0.000383333
0.00035336
0.000322665
0.000292026
0.000260862
0.000232326
0.000206459
0.000183782
0.000164302
0.000148101
0.000134429
0.000123245
0.000114102
0.000106779
0.00010096
9.64081e-05
9.28556e-05
8.4248e-05
9.01098e-05
8.80003e-05
8.64168e-05
8.41227e-05
8.33878e-05
8.36819e-05
8.31321e-05
8.38623e-05
8.49631e-05
8.53971e-05
8.6226e-05
8.74028e-05
8.90004e-05
9.10979e-05
9.38051e-05
9.72394e-05
0.000101564
0.000106905
0.000113443
0.000121279
0.000130522
0.000141163
0.000153239
0.000166605
0.000181256
0.000196666
0.000212761
0.000229755
0.000247578
0.000266158
0.000285577
0.000306645
0.000328979
0.00035221
0.000376002
0.000399877
0.000423418
0.000445997
0.000467115
0.000486331
0.000503412
0.000518266
0.00053093
0.000541584
0.000550466
0.000557809
0.000563901
0.000568998
0.000573323
0.000577079
0.000580435
0.000583538
0.000586513
0.000589471
0.000592512
0.000595735
0.00059924
0.000603126
0.000607502
0.000612493
0.000618247
0.000624938
0.000632794
0.000642141
0.000653513
0.000667947
0.000687692
0.000689944
0.000691381
0.000692099
0.000692123
0.000691475
0.000690075
0.000670229
0.000655642
0.000644108
0.00063461
0.000626615
0.000619802
0.000613946
0.000608869
0.000604423
0.000600486
0.000596949
0.000593712
0.000590682
0.000587766
0.000584878
0.000581916
0.00057877
0.000575317
0.000571411
0.000566874
0.000561504
0.000555063
0.000547281
0.000537872
0.000526547
0.000513044
0.00049718
0.000478864
0.000458188
0.000435404
0.000410939
0.000385306
0.000359102
0.000332893
0.000307105
0.00028174
0.00025673
0.000233373
0.000211483
0.000191737
0.000173739
0.000157865
0.000143893
0.000131916
0.000121728
0.000113355
0.000106565
0.000101143
9.68185e-05
9.34137e-05
8.52643e-05
9.0756e-05
8.87152e-05
8.32176e-05
8.46504e-05
8.37027e-05
8.4499e-05
8.33403e-05
8.29933e-05
8.44953e-05
8.56767e-05
8.59957e-05
8.65553e-05
8.73946e-05
8.86436e-05
9.03216e-05
9.25087e-05
9.53074e-05
9.88377e-05
0.000103236
0.000108638
0.000115147
0.000122837
0.000131731
0.000141746
0.000152761
0.000164626
0.000177066
0.000189972
0.000202882
0.000215867
0.000229055
0.000242542
0.000256461
0.000271095
0.000287064
0.000304429
0.000323175
0.000343264
0.000364521
0.000386622
0.000409084
0.000431332
0.000452718
0.000472707
0.000490907
0.000507054
0.00052106
0.000532985
0.000542984
0.0005513
0.000558204
0.000563973
0.000568854
0.000573081
0.000576851
0.000580341
0.0005837
0.000587063
0.000590553
0.000594292
0.000598395
0.000602983
0.000608192
0.000614173
0.000621105
0.000629214
0.00063881
0.000650392
0.000664917
0.000684439
0.000713583
0.000717728
0.000720608
0.000722418
0.00072325
0.00072315
0.000722129
0.00072011
0.000716917
0.00068777
0.00066811
0.00065339
0.000641599
0.000631806
0.000623522
0.000616436
0.000610327
0.000605017
0.000600352
0.000596202
0.000592449
0.000588973
0.000585679
0.000582445
0.000579156
0.000575681
0.000571871
0.000567551
0.000562523
0.000556556
0.000549393
0.000540757
0.000530373
0.000517992
0.000503438
0.000486631
0.000467647
0.000446743
0.000424373
0.000401075
0.000377507
0.000354202
0.000331645
0.000310154
0.000289773
0.000270274
0.000251453
0.000233695
0.000216533
0.000200181
0.000184521
0.000169855
0.000156202
0.00014376
0.000132657
0.000123127
0.000115073
0.000108371
0.00010288
9.84619e-05
9.49707e-05
8.7169e-05
9.2209e-05
8.31805e-05
8.38001e-05
8.60417e-05
8.54748e-05
8.46186e-05
8.40244e-05
8.3176e-05
8.30144e-05
8.55911e-05
8.66173e-05
8.68576e-05
8.72858e-05
8.78662e-05
8.88706e-05
9.02562e-05
9.20951e-05
9.44742e-05
9.74914e-05
0.000101267
0.000105926
0.000111579
0.000118302
0.000126117
0.000134978
0.000144743
0.000155191
0.000166061
0.000177096
0.000188044
0.000198707
0.000208856
0.000218672
0.000228276
0.000237912
0.000247731
0.000258098
0.000269514
0.000282202
0.000296346
0.000312104
0.000329542
0.000348594
0.000369027
0.000390441
0.000412244
0.000433865
0.000454668
0.000474067
0.00049165
0.000507223
0.000520679
0.000532105
0.000541704
0.000549721
0.000556439
0.000562128
0.000567052
0.000571444
0.000575513
0.000579441
0.000583392
0.000587519
0.000591969
0.00059688
0.000602401
0.000608698
0.000615953
0.000624387
0.000634293
0.000646125
0.000660732
0.000679942
0.000707937
0.000753718
0.000762153
0.000768489
0.000772941
0.000775696
0.000776841
0.000776388
0.000774382
0.000770723
0.000765237
0.000712298
0.000684322
0.000664939
0.000650089
0.000638011
0.000627872
0.000619232
0.000611805
0.000605368
0.000599741
0.000594767
0.000590299
0.000586201
0.000582346
0.000578595
0.000574802
0.000570809
0.000566438
0.000561483
0.00055571
0.000548864
0.000540668
0.000530844
0.000519139
0.000505378
0.000489453
0.000471445
0.000451584
0.000430274
0.000408085
0.000385717
0.000363756
0.000342779
0.00032316
0.000305096
0.000288574
0.00027342
0.000259311
0.000245914
0.00023317
0.000220524
0.000207942
0.000195283
0.000182654
0.000170122
0.000157945
0.00014646
0.000135986
0.000126607
0.000118413
0.000111452
0.000105734
0.000101053
9.00774e-05
9.72629e-05
0.000757701
9.42585e-05
8.33978e-05
8.84422e-05
8.40173e-05
8.52534e-05
8.48405e-05
8.37726e-05
8.66574e-05
8.57846e-05
8.31552e-05
8.32568e-05
8.68243e-05
8.78152e-05
8.78669e-05
8.82029e-05
8.86325e-05
8.94703e-05
9.0596e-05
9.21695e-05
9.42344e-05
9.68777e-05
0.000100208
0.000104338
0.000109379
0.000115416
0.000122496
0.000130588
0.000139575
0.000149264
0.000159366
0.000169584
0.000179624
0.000189203
0.000198189
0.000206426
0.000213918
0.000220863
0.000227446
0.00023394
0.000240419
0.000247396
0.00025514
0.00026391
0.000273937
0.000285457
0.000298668
0.000313702
0.000330581
0.000349186
0.000369227
0.00039027
0.000411739
0.00043297
0.000453353
0.000472322
0.000489498
0.00050466
0.00051776
0.00052892
0.000538339
0.00054629
0.000553058
0.000558934
0.000564184
0.000569057
0.000573772
0.000578524
0.000583519
0.000588908
0.00059487
0.000601586
0.000609248
0.000618074
0.000628336
0.000640432
0.000655096
0.000673896
0.000700493
0.000742947
0.000818234
0.000836059
0.00085052
0.000861697
0.000869699
0.000874624
0.000876486
0.000875274
0.000870922
0.00086347
0.000852834
0.000838946
0.000747891
0.000705944
0.000679392
0.000660406
0.000645469
0.000633093
0.000622577
0.000613529
0.000605686
0.000598837
0.000592793
0.000587384
0.000582446
0.000577811
0.000573335
0.000568828
0.000564099
0.000558931
0.000553089
0.000546306
0.000538299
0.000528781
0.000517494
0.000504231
0.00048888
0.000471515
0.000452321
0.000431686
0.0004102
0.000388449
0.000367106
0.0003468
0.00032795
0.000310849
0.000295556
0.000282015
0.000270056
0.000259393
0.000249707
0.000240668
0.000231981
0.00022324
0.000214216
0.000204723
0.000194657
0.000184034
0.000173036
0.000161961
0.000151155
0.000140827
0.000131313
0.000122917
0.000115654
0.000109431
0.000104321
0.000100143
0.000821744
9.67851e-05
9.19133e-05
8.36779e-05
8.7228e-05
8.43828e-05
8.48543e-05
8.52238e-05
8.36262e-05
8.6159e-05
8.33714e-05
8.79291e-05
8.71583e-05
8.35725e-05
0.000955962
0.000987091
0.00101314
0.00103376
0.00104871
0.00105788
0.00106114
0.00105831
0.00104934
0.00103428
0.00101355
0.00098736
0.000956063
0.000801203
0.000735534
0.000697468
0.000672563
0.000654111
0.000639171
0.000626529
0.000615618
0.000606118
0.000597787
0.000590419
0.00058382
0.000577794
0.000572134
0.000566702
0.000561237
0.000555519
0.000549296
0.000542292
0.000534214
0.000524765
0.000513666
0.0005007
0.000485735
0.000468795
0.000450064
0.000429925
0.000408898
0.000387595
0.000366683
0.000346781
0.000328326
0.000311645
0.000296866
0.000283975
0.000272874
0.000263354
0.000255167
0.000248044
0.00024172
0.000236024
0.000230382
0.000224716
0.000218705
0.000212103
0.000204722
0.000196482
0.000187371
0.000177575
0.000167298
0.000156827
0.000146684
0.000137138
0.000128322
0.000120557
0.000113825
0.000108141
0.000103448
9.41178e-05
9.96535e-05
0.00092017
8.82077e-05
8.91092e-05
8.90377e-05
8.92439e-05
8.96382e-05
9.02759e-05
9.11852e-05
9.25472e-05
9.43586e-05
9.67037e-05
9.9678e-05
0.00010339
0.000107949
0.000113453
0.000119957
0.000127463
0.00013589
0.000145066
0.000154741
0.000164601
0.000174313
0.000183563
0.000192115
0.00019981
0.000206625
0.000212544
0.000217707
0.000222296
0.000226556
0.000230604
0.000234812
0.000239111
0.000244032
0.000249739
0.000256413
0.000264291
0.000273592
0.000284526
0.000297264
0.000311912
0.00032847
0.000346789
0.000366568
0.000387347
0.000408523
0.000429469
0.000449532
0.000468192
0.000485074
0.00049998
0.000512911
0.000523992
0.000533459
0.00054159
0.000548693
0.000555069
0.000561002
0.000566753
0.000572546
0.000578668
0.000585251
0.000592519
0.000600686
0.000609967
0.000620613
0.000632965
0.000647631
0.000665904
0.000690879
0.000729561
0.000796996
0.000920096
9.00921e-05
8.41255e-05
9.66429e-05
9.20606e-05
8.64285e-05
8.48452e-05
8.45573e-05
8.5695e-05
8.37479e-05
8.66176e-05
8.36595e-05
8.75919e-05
8.40345e-05
8.92988e-05
8.86087e-05
0.000880426
0.00077741
0.000720327
0.000686423
0.000663363
0.000645591
0.000630756
0.000617914
0.000606623
0.000596629
0.000587721
0.000579695
0.000572333
0.000565383
0.000558741
0.000552051
0.00054507
0.000537507
0.000529054
0.0005194
0.000508251
0.000495363
0.000480589
0.000463915
0.000445506
0.000425707
0.000405037
0.000384082
0.000363534
0.000343943
0.000325775
0.00030939
0.000294948
0.000282414
0.000271747
0.000262751
0.000255222
0.000248951
0.000243693
0.000239271
0.000235489
0.000231903
0.000228622
0.000225167
0.000221468
0.000217234
0.000212297
0.00020646
0.000199599
0.000191714
0.000182839
0.000173265
0.000163339
0.000153257
0.000143544
0.000134328
0.000126043
0.000118716
0.000112429
0.000107176
0.000102916
9.03398e-05
9.03714e-05
9.07046e-05
9.12483e-05
9.19608e-05
9.31465e-05
9.47366e-05
9.68387e-05
9.95159e-05
0.000102878
0.000107033
0.000112082
0.000118099
0.00012511
0.000133063
0.000141826
0.000151175
0.00016082
0.000170422
0.000179648
0.000188205
0.000195886
0.000202578
0.000208268
0.000213029
0.000216955
0.000220234
0.000223028
0.000225542
0.000227869
0.00023035
0.000232921
0.000235759
0.000239084
0.000243194
0.00024821
0.000254294
0.000261664
0.000270528
0.000281087
0.000293499
0.000307854
0.000324149
0.000342219
0.000361767
0.000382302
0.000403245
0.000423939
0.000443767
0.000462212
0.000478919
0.00049374
0.00050669
0.00051793
0.000527707
0.000536331
0.000544119
0.000551393
0.000558453
0.000565543
0.000573059
0.000581081
0.000589877
0.000599684
0.000610733
0.000623307
0.00063789
0.000655503
0.000678656
0.000713255
0.000772336
0.000879989
0.00106586
0.00112906
0.00118642
0.00123666
0.00127884
0.00131231
0.00133657
0.00135125
0.00135616
0.0013511
0.00133596
0.0013107
0.00127579
0.0012321
0.00118033
0.00112159
9.04506e-05
0.00105761
9.42638e-05
9.94581e-05
8.96607e-05
8.87284e-05
8.4632e-05
0.00130944
0.00139637
0.0014746
0.00154229
0.00159833
0.00164214
0.00167339
0.00169209
0.00169856
0.00169298
0.00167547
0.00164603
0.00160474
0.00155153
0.00148697
0.00141195
0.00132753
9.0478e-05
8.58903e-05
8.54093e-05
9.0744e-05
9.16651e-05
9.16265e-05
9.18287e-05
9.22903e-05
9.28686e-05
9.39203e-05
9.53156e-05
9.71882e-05
9.96156e-05
0.000102671
0.000106479
0.000111133
0.000116719
0.000123282
0.000130805
0.000139189
0.000148246
0.00015771
0.000167257
0.000176545
0.000185255
0.000193132
0.000200013
0.000205835
0.000210616
0.000214455
0.000217477
0.000219822
0.000221666
0.00022314
0.000224376
0.000225528
0.000226627
0.000228011
0.000229518
0.000231276
0.000233453
0.000236248
0.000239856
0.000244424
0.000250104
0.000257108
0.000265639
0.000275885
0.000288008
0.0003021
0.000318141
0.000335984
0.000355296
0.00037562
0.000396358
0.000416866
0.00043654
0.000454886
0.00047159
0.000486526
0.000499749
0.000511435
0.000521864
0.00053136
0.000540265
0.000548906
0.000557537
0.000566676
0.000576305
0.00058675
0.000598229
0.000610982
0.000625377
0.000642188
0.000663373
0.000693753
0.000744325
0.000836372
0.000998175
0.00123578
9.67672e-05
9.24377e-05
8.44191e-05
8.6273e-05
8.39639e-05
8.71942e-05
8.41058e-05
8.81473e-05
8.45631e-05
8.91294e-05
9.01323e-05
9.18534e-05
9.11511e-05
9.43014e-05
9.32652e-05
0.00121624
0.000990216
0.000837721
0.000750507
0.000701998
0.000672334
0.000651269
0.000634331
0.000619738
0.000606776
0.00059513
0.000584595
0.000574975
0.000566073
0.000557587
0.000549482
0.000541293
0.000532762
0.00052357
0.000513385
0.000501895
0.000488838
0.000474037
0.000457453
0.000439214
0.00041964
0.000399212
0.00037854
0.000358245
0.000338953
0.000321067
0.000304974
0.000290763
0.000278536
0.000268171
0.000259516
0.000252377
0.000246564
0.000241831
0.000238036
0.000235074
0.000232635
0.000230498
0.000228441
0.000226708
0.000224886
0.000222853
0.000220428
0.000217406
0.000213678
0.000209005
0.000203267
0.00019638
0.000188443
0.000179599
0.000169972
0.000160075
0.000150206
0.000140805
0.000131943
0.00012401
0.000117178
0.00011137
0.000106533
0.000102668
0.00156547
9.4615e-05
9.94803e-05
0.000196959
0.00146106
8.77331e-05
8.5252e-05
0.00165972
0.00174207
0.00181147
0.00186747
0.00191042
0.00194075
0.00195878
0.00196516
0.0019601
0.0019436
0.00191532
0.00187477
0.0018216
0.00175577
0.00167722
0.00158663
0.00148545
8.93393e-05
8.55708e-05
8.60497e-05
9.42251e-05
9.29384e-05
9.30056e-05
9.33961e-05
9.39577e-05
9.48097e-05
9.60196e-05
9.77146e-05
9.99195e-05
0.000102721
0.000106225
0.000110531
0.000115728
0.000121879
0.000128994
0.000137007
0.000145768
0.000155041
0.000164522
0.000173873
0.000182759
0.000190896
0.000198075
0.000204186
0.000209211
0.00021321
0.000216287
0.000218589
0.000220248
0.00022141
0.000222194
0.000222722
0.000223079
0.000223346
0.00022361
0.000223911
0.000224431
0.000225232
0.000226161
0.000227448
0.000229191
0.000231607
0.000234857
0.000239087
0.000244447
0.000251147
0.000259386
0.000269354
0.000281213
0.000295051
0.000310854
0.000328467
0.000347578
0.000367716
0.000388304
0.000408714
0.000428359
0.000446783
0.000463702
0.000479024
0.000492823
0.000505312
0.000516787
0.000527582
0.000538033
0.000548379
0.000559252
0.00057055
0.000582547
0.000595461
0.000609578
0.000625471
0.000644614
0.000670815
0.000713091
0.000789879
0.000927643
0.00113902
0.00137545
9.10576e-05
8.45507e-05
8.69269e-05
9.70371e-05
9.29949e-05
8.43406e-05
8.78434e-05
8.46157e-05
8.8788e-05
8.51964e-05
8.97454e-05
9.07155e-05
9.16885e-05
9.36319e-05
0.00174402
0.00164236
9.61008e-05
9.62472e-05
0.00134898
0.00111951
0.00092102
0.00079266
0.000720601
0.00068029
0.000654777
0.00063578
0.000619832
0.0006056
0.000592598
0.000580588
0.000569401
0.000558835
0.00054866
0.000538884
0.000528948
0.000518597
0.000507501
0.000495331
0.000481802
0.000466716
0.00045
0.000431754
0.00041226
0.00039198
0.000371489
0.00035141
0.000332315
0.000314701
0.000298846
0.000284927
0.000272941
0.000262879
0.000254503
0.000247676
0.000242171
0.000237812
0.000234402
0.000231854
0.000229936
0.000228376
0.000227229
0.000226162
0.00022544
0.000224739
0.000224035
0.000223169
0.000222025
0.000220483
0.000218387
0.000215553
0.000211817
0.000207023
0.00020108
0.00019398
0.000185709
0.000176662
0.00016709
0.000157186
0.000147405
0.000138287
0.000129885
0.000122421
0.000115969
0.000110615
0.000106125
0.00010257
9.56569e-05
9.45495e-05
9.51131e-05
9.96879e-05
0.000247009
8.71685e-05
8.59253e-05
0.00183358
0.00191029
0.00197389
0.00202475
0.00206334
0.00209028
0.00210644
0.00211224
0.00210791
0.00209298
0.00206761
0.00203105
0.00198246
0.00192139
0.00184756
0.00176105
0.00166247
0.001553
8.85568e-05
8.53861e-05
8.67656e-05
0.000103797
9.42427e-05
9.45482e-05
9.50765e-05
9.57298e-05
9.68786e-05
9.83981e-05
0.000100411
0.000102988
0.000106218
0.000110215
0.000115064
0.000120838
0.000127567
0.000135215
0.000143667
0.000152721
0.000162099
0.000171475
0.00018051
0.000188897
0.000196393
0.000202848
0.000208204
0.000212485
0.000215779
0.00021821
0.000219913
0.000221028
0.000221676
0.000221968
0.000221996
0.000221836
0.000221558
0.00022121
0.000220847
0.000220512
0.000220243
0.000220091
0.000220246
0.000220591
0.000221161
0.000222124
0.000223563
0.000225673
0.000228645
0.000232603
0.000237701
0.000244135
0.000252118
0.000261839
0.000273451
0.000287052
0.00030263
0.000320045
0.000338989
0.000359014
0.000379549
0.000399994
0.000419797
0.000438524
0.000455924
0.000471936
0.000486655
0.000500299
0.000513161
0.000525546
0.000537657
0.000550111
0.000562948
0.000576122
0.000589971
0.000604917
0.000622053
0.00064429
0.000678862
0.000741281
0.000855904
0.00103983
0.00125923
0.00143436
9.01311e-05
8.47764e-05
8.76568e-05
9.17841e-05
8.48022e-05
8.85788e-05
9.74586e-05
9.36956e-05
8.52358e-05
8.95118e-05
8.58834e-05
9.0451e-05
9.13878e-05
9.23235e-05
0.00183078
0.00173532
9.325e-05
9.41572e-05
7.47563e-05
9.50231e-05
0.00153038
0.00140972
0.00123216
0.001022
0.000851494
0.000745896
0.000687824
0.000654998
0.000633392
0.000616466
0.000601591
0.000587799
0.000574743
0.000562261
0.000550086
0.000538287
0.000526738
0.00051489
0.000502515
0.000489306
0.00047497
0.000459296
0.000442187
0.000423712
0.000404123
0.000383846
0.000363435
0.000343489
0.000324574
0.000307142
0.00029151
0.000277824
0.000266104
0.000256271
0.000248171
0.000241585
0.000236342
0.00023227
0.000229176
0.000226942
0.000225365
0.000224157
0.00022348
0.00022289
0.000222632
0.000222586
0.000222626
0.000222697
0.000222741
0.000222687
0.00022246
0.000221952
0.000221057
0.000219641
0.000217536
0.000214587
0.000210622
0.000205525
0.000199189
0.000191731
0.00018328
0.000173959
0.000164198
0.00015451
0.000144962
0.000136097
0.000128001
0.000121062
0.000115033
0.000110027
0.000105909
0.000102654
0.0012337
9.57482e-05
0.000100055
2.28445e-05
0.000138734
8.67442e-05
8.66793e-05
0.00191414
0.00198515
0.00204409
0.00209086
0.00212641
0.00215109
0.0021655
0.00217056
0.00216648
0.00215313
0.00212986
0.00209574
0.00205029
0.0019932
0.0019236
0.00184187
0.00174805
0.0016427
0.0015268
8.80558e-05
8.54956e-05
8.75432e-05
0.00014333
0.000104415
9.56555e-05
9.61544e-05
9.68193e-05
9.77992e-05
9.91534e-05
0.000101016
0.000103407
0.000106417
0.000110131
0.000114674
0.000120104
0.000126474
0.000133768
0.000141904
0.000150712
0.000159946
0.000169296
0.000178428
0.000187023
0.000194812
0.000201608
0.000207317
0.000211931
0.000215511
0.000218166
0.000220026
0.000221224
0.000221889
0.000222129
0.000222041
0.000221701
0.000221172
0.000220506
0.000219746
0.000218931
0.000218102
0.00021728
0.000216503
0.000215795
0.000215171
0.000214735
0.000214613
0.000214659
0.000214975
0.000215708
0.000216934
0.000218793
0.000221545
0.000225261
0.000230152
0.000236376
0.000244137
0.000253633
0.000265032
0.000278428
0.000293825
0.000311094
0.00032995
0.000349959
0.000370581
0.00039124
0.000411411
0.000430687
0.000448834
0.000465793
0.00048165
0.000496599
0.00051086
0.000524584
0.000538153
0.000552007
0.000565901
0.000580069
0.000595423
0.000614136
0.000641886
0.000691441
0.000784589
0.000941018
0.00113997
0.00130899
0.00140201
8.94757e-05
8.51607e-05
8.84513e-05
9.10682e-05
8.53728e-05
8.93762e-05
9.27055e-05
8.59109e-05
9.03068e-05
9.80381e-05
9.45389e-05
8.66478e-05
9.12329e-05
9.21527e-05
0.00185536
0.00176434
9.30585e-05
9.39459e-05
9.48158e-05
9.56613e-05
0.00162816
0.00151062
0.00128324
0.00111382
0.000926122
0.000782998
0.000698079
0.000652324
0.000626068
0.000607948
0.000592951
0.000579101
0.000565647
0.000552282
0.000538902
0.000525822
0.000512575
0.000498808
0.000484341
0.000468936
0.000452395
0.000434622
0.000415675
0.000395779
0.000375335
0.000354866
0.00033495
0.000316127
0.000298839
0.000283379
0.00026989
0.000258376
0.000248747
0.000240859
0.000234509
0.000229483
0.000225634
0.00022277
0.000220797
0.000219454
0.000218565
0.000218133
0.000217893
0.000217922
0.000218261
0.000218713
0.000219253
0.000219863
0.000220475
0.00022107
0.000221604
0.000222002
0.00022222
0.000222176
0.000221775
0.000220894
0.000219396
0.000217113
0.0002139
0.000209588
0.000204103
0.000197432
0.000189572
0.000180783
0.000171429
0.000161621
0.000151984
0.000142618
0.000134207
0.000126518
0.000119881
0.000114312
0.000109689
0.000105929
0.000102933
9.67754e-05
9.65054e-05
0.000100565
9.6501e-05
0.00138461
8.64925e-05
8.74813e-05
0.00193433
0.00200125
0.00205654
0.0021008
0.00213448
0.00215793
0.00217176
0.00217634
0.00217227
0.00215932
0.00213679
0.00210399
0.00206045
0.00200571
0.00193936
0.00186098
0.00177049
0.00166831
0.00155523
0.00143247
8.77202e-05
8.56999e-05
8.838e-05
9.72098e-05
9.74138e-05
9.72814e-05
9.77754e-05
9.86718e-05
9.99173e-05
0.000101687
0.000103942
0.000106768
0.000110267
0.000114518
0.00011965
0.000125681
0.000132639
0.000140459
0.000149003
0.000158053
0.000167324
0.000176494
0.000185239
0.000193271
0.000200376
0.000206425
0.000211378
0.000215271
0.000218194
0.000220266
0.000221619
0.00022238
0.000222663
0.000222566
0.000222171
0.000221543
0.000220734
0.000219785
0.000218732
0.000217604
0.000216428
0.000215226
0.000214024
0.000212849
0.000211718
0.000210669
0.000209718
0.000208866
0.000208229
0.000207907
0.000207785
0.00020793
0.000208506
0.000209595
0.000211293
0.000213842
0.000217395
0.000222087
0.000228138
0.000235727
0.000245042
0.000256272
0.000269523
0.000284806
0.000302007
0.000320869
0.000340986
0.00036184
0.000382877
0.000403581
0.000423547
0.000442523
0.00046041
0.000477232
0.000493074
0.000508041
0.000522226
0.000536113
0.000549999
0.000564188
0.000580161
0.000602319
0.000640862
0.000714985
0.000845178
0.00102122
0.00118027
0.00127156
0.00130292
8.90675e-05
8.56372e-05
8.93046e-05
9.05148e-05
8.6014e-05
9.02386e-05
9.74816e-05
9.20461e-05
8.66653e-05
9.11679e-05
9.36847e-05
8.74588e-05
9.20875e-05
0.00184319
0.00175284
9.87277e-05
9.54647e-05
9.29911e-05
9.38781e-05
9.4748e-05
9.55937e-05
9.63683e-05
0.00166152
0.00154754
0.00142366
0.00125398
0.0011546
0.000997433
0.000834081
0.000716617
0.000649716
0.000614294
0.000593463
0.00057822
0.000564751
0.000551442
0.000537889
0.000524201
0.000510278
0.000495623
0.000480148
0.000463731
0.000446258
0.000427682
0.000408083
0.000387696
0.000366914
0.000346243
0.000326233
0.000307407
0.000290182
0.000274833
0.00026148
0.000250127
0.000240675
0.000232953
0.000226775
0.000221945
0.000218266
0.000215601
0.000213801
0.00021261
0.000211931
0.000211684
0.000211666
0.0002119
0.000212454
0.000213192
0.000214032
0.000214948
0.000215962
0.000216974
0.000218016
0.000219032
0.000219984
0.000220847
0.00022158
0.000222143
0.000222459
0.000222452
0.000222013
0.000221024
0.000219329
0.000216771
0.000213201
0.000208509
0.000202596
0.000195511
0.000187381
0.000178302
0.00016879
0.000158963
0.000149608
0.00014055
0.000132418
0.000125276
0.000119007
0.000113884
0.000109623
0.000106171
0.000103387
9.73424e-05
9.70934e-05
0.000101193
9.72608e-05
0.00129345
8.65422e-05
8.83442e-05
0.00192162
0.00198818
0.00204315
0.00208722
0.0021208
0.00214426
0.00215805
0.0021626
0.00215846
0.00214541
0.00212275
0.00208988
0.00204635
0.0019917
0.00192557
0.00184747
0.0017574
0.00165576
0.00154338
0.00142161
0.00129321
8.76784e-05
8.60748e-05
8.9268e-05
9.88341e-05
9.93253e-05
9.99205e-05
0.000100895
0.000102433
0.000104546
0.000107239
0.000110564
0.000114606
0.000119442
0.000125182
0.000131813
0.000139321
0.000147586
0.000156421
0.000165565
0.000174713
0.000183541
0.000191757
0.00019912
0.000205473
0.000210748
0.000214952
0.000218155
0.000220466
0.00022201
0.000222911
0.000223288
0.000223243
0.00022286
0.000222208
0.000221342
0.000220308
0.000219136
0.000217858
0.000216501
0.000215083
0.000213621
0.000212131
0.000210638
0.000209154
0.000207705
0.000206312
0.000204984
0.000203751
0.000202644
0.000201659
0.000200895
0.000200432
0.00020025
0.000200305
0.000200799
0.000201817
0.000203441
0.000205833
0.000209225
0.000213801
0.000219698
0.000227185
0.0002364
0.000247514
0.000260669
0.0002759
0.000293107
0.000312049
0.000332343
0.000353483
0.000374909
0.000396082
0.00041655
0.000435991
0.000454212
0.000471136
0.000486771
0.000501174
0.000514556
0.000527544
0.000541617
0.000559638
0.000589567
0.000647812
0.000754223
0.000906437
0.00105209
0.00113935
0.00116985
0.00116115
8.88768e-05
8.62187e-05
9.02114e-05
9.8666e-05
9.77078e-05
9.0167e-05
8.67346e-05
9.11546e-05
9.15859e-05
8.74681e-05
9.20882e-05
0.00182365
0.00173451
9.31157e-05
8.83292e-05
9.47099e-05
9.30047e-05
9.39023e-05
9.95094e-05
9.646e-05
9.47789e-05
9.56299e-05
9.64352e-05
9.71914e-05
0.00165083
0.00153799
0.00141689
0.00128943
0.00115968
0.00112129
0.00102743
0.000886093
0.000747466
0.000652779
0.000600715
0.000573433
0.000556662
0.000543392
0.000530804
0.000518093
0.000504795
0.000490441
0.000474901
0.000458155
0.000440185
0.000421043
0.000400887
0.000380006
0.000358825
0.000337867
0.000317678
0.000298768
0.000281532
0.00026622
0.000252947
0.000241706
0.000232357
0.000224741
0.00021869
0.000213994
0.000210475
0.000207977
0.000206262
0.000205161
0.000204585
0.000204448
0.000204541
0.000204925
0.000205615
0.000206524
0.000207547
0.000208682
0.000209906
0.000211218
0.000212549
0.000213903
0.000215274
0.000216594
0.000217864
0.000219081
0.000220208
0.000221206
0.000222038
0.000222644
0.000222959
0.000222892
0.000222336
0.000221151
0.000219208
0.000216321
0.000212384
0.000207282
0.000200987
0.000193455
0.000185032
0.000175743
0.000166305
0.00015665
0.000147387
0.000138733
0.000131025
0.00012427
0.000118599
0.000113757
0.000109793
0.00010653
0.00010391
9.82332e-05
9.79476e-05
0.000101839
9.79537e-05
0.00115781
8.67116e-05
8.92498e-05
0.00190108
0.0019668
0.00202111
0.00206466
0.00209791
0.00212122
0.00213493
0.00213947
0.0021352
0.00212197
0.00209922
0.00206644
0.00202316
0.00196888
0.00190326
0.00182584
0.00173662
0.00163598
0.00152481
0.00140474
0.00127816
0.00114786
8.77912e-05
8.65405e-05
9.02048e-05
0.000100622
0.000101343
0.000102301