/*--------------------------------*- C++ -*----------------------------------*\
| =========                 |                                                 |
| \\      /  F ield         | OpenFOAM: The Open Source CFD Toolbox           |
|  \\    /   O peration     | Version:  2212                                  |
|   \\  /    A nd           | Website:  www.openfoam.com                      |
|    \\/     M anipulation  |                                                 |
\*---------------------------------------------------------------------------*/
FoamFile
{
    version     2.0;
    format      ascii;
    arch        "LSB;label=32;scalar=64";
    class       volScalarField;
    location    "0.0302";
    object      p;
}
// * * * * * * * * * * * * * * * * * * * * * * * * * * * * * * * * * * * * * //

dimensions      [1 -1 -2 0 0 0 0];

internalField   nonuniform List<scalar> 
31661
(
504.072
89.1446
93.2306
91.1931
88.4113
92.5488
90.4757
87.7082
91.9045
89.7883
475.193
81.452
684.191
320.607
459.897
446.846
473.346
469.378
101.254
436.608
118.215
118.947
244.473
410.396
90.1759
118.181
240.703
209.771
79.0581
64.6894
402.861
120.901
121.003
93.9991
118.323
386.39
110.907
383.865
226.72
120.398
122.619
89.5357
361.475
99.2253
102.522
75.2812
100.738
88.5027
109.781
258.729
122.909
245.19
74.0236
88.5163
191.582
98.857
76.6691
74.8768
176.338
88.909
80.0142
84.6879
93.2569
88.2121
93.2424
389.732
615.589
179.74
183.291
186.756
85.9008
191.603
194.954
198.303
201.568
204.775
207.915
210.972
213.932
216.781
219.505
222.094
224.553
226.911
227.078
224.732
222.281
219.703
217
214.181
211.256
208.244
205.157
202.007
198.828
195.624
192.444
189.422
186.387
183.186
179.93
176.796
173.875
171.624
171.042
168.485
168.045
165.377
165.014
162.328
162.031
159.355
159.111
156.45
156.258
153.645
153.486
150.927
150.794
148.292
148.185
145.748
145.662
143.297
143.228
140.938
140.881
138.669
138.622
136.488
136.45
134.395
134.363
132.39
132.361
130.47
130.445
128.632
128.612
126.876
126.858
125.199
125.183
123.599
123.586
122.074
122.063
120.624
120.618
119.249
119.249
117.948
117.951
116.72
116.724
115.563
115.568
114.476
114.482
113.458
113.464
112.508
112.515
111.626
111.634
110.81
110.82
110.062
110.074
109.394
109.38
109.41
110.091
110.838
111.652
112.534
113.482
114.499
115.585
116.741
117.967
119.265
120.636
122.081
123.602
125.198
126.873
128.628
130.463
132.382
134.386
136.477
138.656
140.924
143.283
145.733
148.278
150.92
153.664
156.507
159.437
162.474
165.605
168.852
172.314
175.931
179.541
183.296
187.025
190.745
194.249
197.686
201.048
204.329
207.528
210.635
213.637
229.349
229.197
216.521
219.27
221.88
224.367
226.758
231.359
231.484
231.651
229.527
227.244
224.884
222.43
219.864
217.17
214.359
211.431
208.415
205.324
202.172
198.989
195.799
192.595
189.383
186.213
183.033
179.848
176.714
173.649
170.62
167.611
164.627
161.69
158.814
156.004
153.267
150.606
148.024
145.527
143.113
140.783
138.539
136.378
134.302
132.311
130.403
128.578
126.833
125.165
123.575
122.061
120.623
119.257
117.964
116.742
115.591
114.51
113.498
112.555
111.679
110.87
110.128
109.453
108.845
108.781
108.765
108.797
108.874
109.484
110.16
110.903
111.713
112.589
113.534
114.546
115.627
116.778
117.998
119.29
120.654
122.092
123.605
125.194
126.864
128.611
130.44
132.352
134.349
136.433
138.605
140.867
143.221
145.669
148.213
150.855
153.597
156.438
159.373
162.414
165.566
168.844
172.239
175.688
179.248
182.875
186.498
190.07
193.609
197.083
200.497
203.835
207.088
210.249
213.298
216.219
219.004
229.079
221.658
224.19
226.623
233.038
232.959
231.292
232.906
233.633
233.647
233.123
231.844
229.716
227.406
225.019
222.548
219.959
217.219
214.365
211.42
208.388
205.285
202.124
198.932
195.726
192.489
189.239
186.011
182.803
179.603
176.436
173.317
170.244
167.22
164.247
161.329
158.479
155.698
152.992
150.361
147.808
145.337
142.947
140.639
138.415
136.271
134.212
132.237
130.344
128.531
126.799
125.144
123.565
122.064
120.634
119.279
117.995
116.783
115.64
114.568
113.565
112.629
111.762
110.961
110.226
109.558
108.957
108.423
108.304
108.236
108.218
108.25
108.332
108.463
108.999
109.601
110.27
111.006
111.807
112.676
113.612
114.615
115.688
116.829
118.041
119.323
120.676
122.103
123.604
125.183
126.839
128.574
130.39
132.289
134.272
136.341
138.498
140.745
143.085
145.52
148.05
150.679
153.409
156.239
159.169
162.206
165.351
168.599
171.93
175.334
178.813
182.346
185.9
189.445
192.967
196.457
199.9
203.281
206.591
209.802
212.898
215.868
218.712
221.427
228.99
224.017
226.508
233.61
233.723
233.751
231.266
232.9
233.601
231.753
231.161
233.666
233.648
233.214
232.061
229.919
227.564
225.131
222.613
219.959
217.191
214.321
211.356
208.302
205.177
201.995
198.766
195.507
192.223
188.942
185.683
182.447
179.23
176.046
172.909
169.826
166.802
163.837
160.936
158.103
155.344
152.662
150.058
147.535
145.095
142.734
140.453
138.253
136.133
134.095
132.141
130.268
128.474
126.758
125.12
123.558
122.07
120.656
119.314
118.045
116.845
115.716
114.655
113.663
112.739
111.882
111.092
110.368
109.71
109.118
108.593
108.135
107.956
107.831
107.759
107.74
107.773
107.858
107.995
108.185
108.644
109.171
109.763
110.422
111.147
111.937
112.795
113.719
114.71
115.77
116.898
118.096
119.364
120.704
122.115
123.601
125.164
126.803
128.52
130.318
132.197
134.159
136.207
138.342
140.567
142.884
145.294
147.802
150.407
153.113
155.919
158.827
161.84
164.954
168.159
171.445
174.805
178.232
181.711
185.222
188.744
192.26
195.76
199.228
202.654
206.012
209.276
212.431
215.474
218.397
221.184
223.842
228.948
226.409
233.762
232.161
231.289
224.133
225.751
232.924
233.622
233.778
209.423
204.874
221.837
230.322
233.534
233.686
233.318
232.275
230.147
227.723
225.22
222.631
219.931
217.129
214.213
211.193
208.086
204.91
201.68
198.407
195.107
191.797
188.496
185.218
181.964
178.739
175.552
172.416
169.337
166.322
163.372
160.491
157.681
154.947
152.29
149.713
147.22
144.809
142.478
140.228
138.058
135.967
133.956
132.026
130.177
128.406
126.712
125.095
123.553
122.085
120.689
119.365
118.112
116.93
115.817
114.771
113.794
112.884
112.041
111.264
110.553
109.907
109.328
108.814
108.366
107.984
107.743
107.557
107.425
107.349
107.328
107.362
107.451
107.594
107.792
108.426
108.875
109.39
109.97
110.616
111.327
112.104
112.946
113.855
114.832
115.875
116.987
118.168
119.418
120.739
122.131
123.598
125.139
126.756
128.451
130.225
132.079
134.016
136.037
138.143
140.34
142.625
145.004
147.48
150.053
152.723
155.494
158.366
161.339
164.406
167.563
170.803
174.118
177.502
180.943
184.425
187.933
191.449
194.962
198.462
201.93
205.338
208.663
211.898
215.031
218.044
220.913
223.663
228.927
226.322
108.043
228.932
232.428
231.337
226.833
232.969
212.666
233.668
179.354
185.925
233.81
232.583
152.345
144.79
171.054
198.786
218.672
229.137
233.264
233.78
233.453
232.465
230.399
227.896
225.302
222.625
219.86
216.983
213.994
210.904
207.734
204.5
201.217
197.901
194.566
191.23
187.912
184.62
181.357
178.132
174.952
171.826
168.762
165.764
162.836
159.981
157.2
154.496
151.871
149.326
146.863
144.482
142.183
139.966
137.831
135.774
133.795
131.895
130.074
128.33
126.663
125.07
123.553
122.107
120.734
119.432
118.2
117.037
115.943
114.917
113.958
113.065
112.238
111.477
110.781
110.151
109.585
109.085
108.649
108.278
107.974
107.669
107.42
107.226
107.09
107.011
106.989
107.023
107.114
107.263
107.468
107.728
108.348
108.72
109.155
109.656
110.221
110.852
111.547
112.307
113.132
114.023
114.981
116.005
117.096
118.256
119.485
120.784
122.153
123.596
125.112
126.703
128.37
130.114
131.939
133.844
135.833
137.906
140.066
142.316
144.656
147.091
149.623
152.252
154.98
157.804
160.722
163.734
166.837
170.026
173.295
176.639
180.047
183.506
187.002
190.522
194.056
197.588
201.098
204.562
207.963
211.291
214.522
217.627
220.602
223.467
226.234
228.948
108.044
231.524
231.412
227.488
233.04
214.834
233.723
190.784
233.86
158.819
232.642
127.598
132.752
227.816
107.733
107.418
107.161
106.962
106.82
106.738
106.715
106.751
106.845
106.998
107.21
107.479
107.805
108.415
108.707
109.064
109.485
109.97
110.518
111.131
111.808
112.548
113.353
114.224
115.159
116.161
117.229
118.364
119.568
120.841
122.184
123.598
125.084
126.644
128.279
129.99
131.779
133.648
135.599
137.632
139.75
141.958
144.254
146.641
149.124
151.702
154.374
157.139
159.998
162.953
165.999
169.134
172.357
175.659
179.035
182.471
185.954
189.475
193.026
196.589
200.147
203.676
207.165
210.591
213.921
217.141
220.249
223.237
226.136
228.99
231.669
233.233
233.323
108.187
117.663
114.092
122.362
136.808
161.288
190.929
214.344
227.446
232.824
233.863
233.588
232.661
230.669
228.082
225.378
222.605
219.74
216.767
213.689
210.517
207.272
203.972
200.632
197.27
193.899
190.538
187.2
183.896
180.629
177.409
174.24
171.133
168.09
165.118
162.219
159.396
156.65
153.983
151.395
148.888
146.463
144.12
141.858
139.677
137.577
135.557
133.614
131.749
129.96
128.247
126.61
125.047
123.557
122.139
120.792
119.516
118.308
117.168
116.097
115.093
114.154
113.282
112.474
111.732
111.054
110.44
109.891
109.405
108.984
108.626
108.333
108.103
233.136
216.104
234.007
233.968
233.799
194.06
233.912
163.853
232.649
137.341
227.829
121.138
216.651
108.558
111.281
108.624
108.84
109.118
109.46
109.864
110.332
110.861
111.454
112.11
112.829
113.611
114.458
115.368
116.344
117.386
118.494
119.669
120.912
122.224
123.606
125.059
126.583
128.181
129.854
131.604
133.432
135.338
137.326
139.397
141.554
143.799
146.132
148.559
151.076
153.685
156.387
159.186
162.078
165.061
168.137
171.306
174.568
177.909
181.314
184.78
188.303
191.869
195.465
199.071
202.674
206.254
209.78
213.228
216.59
219.838
222.986
226.048
229.058
231.858
233.416
234.017
105.967
110.745
117.506
129.138
150.585
181.092
208.438
224.956
232.064
233.896
233.694
232.854
230.966
228.285
225.454
222.557
219.574
216.49
213.307
210.04
206.709
203.332
199.928
196.513
193.104
189.715
186.36
183.045
179.779
176.567
173.417
170.333
167.319
164.379
161.516
158.731
156.026
153.402
150.859
148.396
146.015
143.715
141.496
139.357
137.298
135.317
133.415
131.588
129.837
128.16
126.558
125.028
123.57
122.183
120.866
119.618
118.438
117.325
116.279
115.299
114.385
113.535
112.75
112.028
111.371
110.776
110.245
109.776
109.37
109.027
108.747
108.528
108.376
107.941
107.561
107.24
106.976
106.772
106.628
106.546
106.524
106.557
106.652
106.809
107.026
107.302
107.636
108.027
102.016
108.474
234.112
234.058
104.122
233.893
195.952
108.407
107.948
107.545
107.2
106.914
106.689
106.526
106.426
106.384
106.413
106.499
106.648
106.859
107.131
107.464
107.855
108.303
234.116
233.98
167.355
98.5342
97.1595
100.246
103.733
107.856
113.342
122.386
139.835
169.272
200.401
221.216
230.838
233.809
233.704
233.008
231.315
228.525
225.538
222.49
219.365
216.149
212.845
209.467
206.037
202.574
199.098
195.627
192.177
188.76
185.388
182.067
178.805
175.608
172.48
169.426
166.447
163.547
160.727
157.988
155.331
152.756
150.262
147.85
145.519
143.269
141.099
139.008
136.995
135.06
133.201
131.417
129.708
128.072
126.508
125.015
123.593
122.241
120.957
119.741
118.592
117.509
116.491
115.539
114.651
113.826
113.065
112.367
111.732
111.158
110.646
110.196
109.807
109.479
109.213
109.007
108.865
108.805
230.261
231.254
232.585
141.052
227.638
124.214
216.547
113.886
196.643
106.356
100.23
94.363
95.3657
87.7283
89.397
108.921
108.975
109.114
109.317
109.58
109.906
110.293
110.741
111.25
111.821
112.454
113.149
113.906
114.727
115.61
116.558
117.57
118.647
119.79
121
122.277
123.623
125.038
126.524
128.081
129.712
131.417
133.198
135.056
136.993
139.011
141.111
143.297
145.573
147.935
150.387
152.93
155.566
158.294
161.115
164.031
167.045
170.166
173.38
176.668
180.033
183.483
187.003
190.584
194.21
197.868
201.545
205.215
208.856
212.446
215.958
219.381
222.7
225.943
229.167
232.084
233.52
234.035
233.891
228.792
108.412
218.767
214.268
97.8309
108.926
234.063
169.364
107.951
107.547
107.2
106.912
106.684
106.518
106.414
106.371
106.398
106.488
106.641
106.855
107.13
107.464
107.857
108.306
108.81
231.886
232.449
143.707
89.5426
93.815
96.239
98.9391
101.987
105.536
110.01
116.883
130.174
155.981
189.665
215.622
228.837
233.521
233.656
233.14
231.703
228.814
225.64
222.407
219.112
215.74
212.293
208.788
205.246
201.689
198.137
194.607
191.113
187.668
184.282
180.96
177.708
174.531
171.433
168.414
165.478
162.624
159.854
157.168
154.565
152.046
149.609
147.254
144.979
142.785
140.669
138.631
136.671
134.785
132.975
131.239
129.576
127.984
126.462
125.011
123.629
122.314
121.067
119.886
118.771
117.721
116.734
115.812
114.953
114.156
113.422
112.749
112.137
111.586
111.095
110.665
110.294
109.982
109.731
109.539
109.408
109.361
109.367
221.889
227.187
126.691
186.092
194.764
215.859
116.167
196.251
108.509
169.975
102.077
96.6807
92.4457
87.3636
108.436
108.953
87.0078
85.5766
109.493
109.486
109.528
109.656
109.845
110.094
110.402
110.77
111.198
111.686
112.233
112.841
113.51
114.24
115.032
115.886
116.802
117.782
118.825
119.933
121.107
122.346
123.653
125.027
126.47
127.982
129.567
131.223
132.952
134.757
136.637
138.596
140.637
142.762
144.969
147.261
149.642
152.114
154.674
157.33
160.078
162.926
165.885
168.945
172.089
175.324
178.65
182.07
185.585
189.171
192.821
196.53
200.278
204.045
207.814
211.558
215.243
218.852
222.379
225.862
229.317
232.245
233.653
234.126
233.421
226.483
207.913
175.172
84.2732
85.9517
151.144
140.568
91.5783
232.255
145.192
107.974
107.567
107.218
106.929
106.701
106.534
106.43
106.388
106.415
106.504
106.657
106.871
107.147
107.483
107.877
108.329
108.835
109.394
224.066
226.501
128.429
86.1533
91.5094
93.6186
95.8087
98.1604
100.772
103.811
107.499
112.69
122.56
142.49
175.968
207.378
225.603
232.743
233.737
233.308
231.972
229.171
225.78
222.311
218.807
215.25
211.639
207.99
204.326
200.667
197.034
193.444
189.908
186.438
183.041
179.723
176.488
173.338
170.275
167.3
164.413
161.614
158.901
156.275
153.735
151.278
148.904
146.612
144.4
142.267
140.211
138.232
136.328
134.499
132.742
131.057
129.443
127.9
126.425
125.018
123.678
122.405
121.198
120.055
118.977
117.962
117.01
116.12
115.292
114.525
113.819
113.173
112.587
112.059
111.591
111.181
110.829
110.535
110.298
110.12
110
109.966
109.973
110.002
201.372
214.55
117.975
161.305
194.814
110.407
121.2
126.921
169.272
103.904
145.542
98.1729
93.3921
89.7716
108.502
109.021
87.2062
85.4455
90.1157
84.3706
109.521
110.138
110.109
110.101
110.131
110.247
110.422
110.656
110.947
111.295
111.702
112.166
112.689
113.271
113.913
114.614
115.375
116.196
117.079
118.024
119.031
120.101
121.235
122.434
123.697
125.027
126.423
127.888
129.422
131.025
132.7
134.447
136.267
138.164
140.141
142.193
144.328
146.551
148.854
151.241
153.724
156.302
158.978
161.763
164.647
167.625
170.706
173.888
177.167
180.562
184.053
187.629
191.302
195.054
198.874
202.743
206.645
210.548
214.418
218.246
222.03
225.785
229.484
232.41
233.779
234.19
232.496
222.798
198.886
161.874
131.442
116.455
370.566
111.617
109.091
120.19
75.6998
225.548
129.378
108.037
107.627
107.276
106.985
106.754
106.586
106.482
106.441
106.466
106.555
106.708
106.924
107.202
107.54
107.938
108.392
108.901
109.462
110.072
206.444
212.637
119.231
74.3355
88.4379
89.9714
91.7983
93.6807
95.6924
97.8402
100.124
102.671
105.715
109.741
116.784
131.116
159.934
195.615
220.263
231.078
233.713
233.407
232.217
229.582
225.954
222.201
218.443
214.669
210.871
207.062
203.264
199.498
195.782
192.131
188.556
185.065
181.664
178.356
175.145
172.03
169.011
166.087
163.258
160.521
157.874
155.316
152.844
150.457
148.153
145.93
143.787
141.721
139.73
137.815
135.973
134.203
132.504
130.875
129.315
127.823
126.398
125.039
123.746
122.518
121.353
120.252
119.213
118.236
117.32
116.465
115.67
114.934
114.258
113.64
113.08
112.578
112.133
111.745
111.412
111.136
110.914
110.75
110.641
110.618
110.626
110.657
110.728
170.326
192.313
111.921
133.582
167.309
105.556
114.87
144.801
99.7054
104.895
106.482
129.542
94.5419
90.3335
108.637
109.159
87.2695
85.0463
83.6286
82.9227
109.591
110.209
110.802
110.771
110.762
110.781
110.886
111.047
111.266
111.538
111.867
112.251
112.692
113.19
113.744
114.357
115.027
115.755
116.543
117.391
118.298
119.267
120.296
121.388
122.543
123.76
125.042
126.389
127.802
129.281
130.829
132.444
134.13
135.888
137.719
139.622
141.603
143.669
145.814
148.033
150.338
152.736
155.233
157.836
160.538
163.326
166.227
169.243
172.355
175.599
178.954
182.401
185.971
189.654
193.45
197.337
201.308
205.344
209.411
213.486
217.562
221.634
225.715
229.706
232.565
233.845
234.158
230.713
216.964
186.694
147.815
124.23
112.845
107.232
103.78
84.3298
101.622
101.041
82.858
110.874
210.092
119.902
108.168
107.755
107.399
107.104
106.87
106.7
106.595
106.556
106.579
106.667
106.821
107.039
107.32
107.663
108.064
108.523
109.036
109.601
110.214
110.872
177.934
188.718
112.975
86.979
88.2748
89.3912
90.7747
92.4139
94.1167
95.897
97.7989
99.8955
102.114
104.605
107.768
112.761
123.06
143.842
179.885
211.587
228.011
233.327
233.247
232.353
230.076
226.175
222.076
218.014
213.984
209.974
205.989
202.049
198.17
194.37
190.661
187.051
183.546
180.149
176.86
173.681
170.61
167.644
164.781
162.018
159.351
156.778
154.295
151.9
149.59
147.362
145.215
143.145
141.151
139.232
137.384
135.609
133.903
132.266
130.697
129.194
127.757
126.387
125.079
123.835
122.653
121.534
120.476
119.479
118.542
117.664
116.846
116.086
115.383
114.738
114.15
113.618
113.141
112.72
112.353
112.04
111.782
111.575
111.424
111.328
111.313
111.323
111.354
111.426
111.571
140.752
164.119
106.907
118.81
143.027
101.141
85.8034
108.528
128.944
95.7841
102.656
119.985
91.1492
108.855
109.375
98.6336
98.8614
87.503
84.8397
83.0145
81.9237
81.5064
109.733
110.354
111.02
111.581
111.508
111.476
111.466
111.477
111.57
111.717
111.921
112.175
112.484
112.846
113.262
113.733
114.26
114.842
115.48
116.175
116.927
117.737
118.606
119.533
120.52
121.568
122.676
123.845
125.076
126.37
127.727
129.15
130.637
132.191
133.813
135.504
137.264
139.096
141.004
142.989
145.051
147.191
149.413
151.729
154.14
156.649
159.25
161.95
164.781
167.708
170.766
173.949
177.237
180.645
184.193
187.89
191.716
195.672
199.74
203.905
208.147
212.449
216.798
221.203
225.683
230.031
232.652
233.715
233.846
227.615
207.899
171.099
135.989
118.494
110.178
106.01
103.191
100.822
98.6273
96.3929
81.5866
96.6878
83.0882
111.727
184.008
113.534
108.388
107.975
107.62
107.325
107.091
106.92
106.814
106.774
106.797
106.885
107.039
107.257
107.538
107.88
108.281
108.739
109.25
109.813
110.422
111.076
111.769
147.773
159.718
107.865
88.4661
89.6151
90.7592
92.0192
93.4038
94.8914
96.457
98.1207
99.9099
101.929
104.086
106.612
110.09
117.285
131.562
161.274
198.472
222.531
232.042
233.062
232.398
230.437
226.427
221.943
217.514
213.183
208.932
204.756
200.665
196.672
192.791
189.029
185.391
181.88
178.496
175.237
172.101
169.083
166.181
163.388
160.7
158.113
155.621
153.222
150.911
148.684
146.538
144.472
142.481
140.565
138.72
136.946
135.241
133.603
132.032
130.526
129.084
127.706
126.392
125.138
123.946
122.814
121.743
120.731
119.777
118.882
118.045
117.264
116.54
115.872
115.259
114.701
114.197
113.747
113.35
113.005
112.712
112.471
112.279
112.141
112.056
112.049
112.059
112.092
112.164
112.307
112.499
123.221
140.286
102.352
87.3558
84.6573
111.018
127.62
96.9986
104.091
119.494
92.1004
109.137
109.652
99.4365
113.588
96.4108
87.9774
84.8621
94.9186
94.3962
82.5778
81.1045
80.3342
80.1635
109.946
110.563
111.225
111.926
112.471
112.327
112.253
112.22
112.209
112.214
112.295
112.43
112.618
112.855
113.144
113.483
113.875
114.32
114.817
115.369
115.974
116.634
117.349
118.121
118.948
119.833
120.775
121.776
122.835
123.953
125.132
126.371
127.669
129.031
130.456
131.945
133.5
135.119
136.807
138.565
140.393
142.295
144.274
146.329
148.466
150.694
153.008
155.418
157.924
160.549
163.271
166.115
169.099
172.186
175.408
178.776
182.31
186
189.859
193.868
198.022
202.328
206.753
211.294
215.949
220.743
225.686
230.355
232.68
233.491
232.816
222.334
194.812
153.912
127.441
114.559
108.465
105.36
102.977
100.819
98.9465
97.237
95.6532
93.2822
81.9167
94.1707
80.3378
112.663
154.218
108.375
108.674
108.265
107.913
107.62
107.388
107.217
107.112
107.071
107.094
107.182
107.334
107.551
107.83
108.169
108.567
109.02
109.527
110.084
110.687
111.333
112.017
112.737
127.868
136.71
103.231
88.9756
90.0099
91.0714
92.1575
93.3116
94.5434
95.856
97.2437
98.7168
100.286
101.994
103.929
106.073
108.735
113.519
123.353
143.668
180.865
213.218
228.852
232.738
232.27
230.532
226.764
221.839
216.948
212.255
207.73
203.346
199.099
194.994
191.036
187.229
183.574
180.068
176.709
173.491
170.409
167.457
164.628
161.916
159.313
156.814
154.413
152.104
149.883
147.746
145.689
143.709
141.803
139.968
138.203
136.506
134.875
133.309
131.806
130.367
128.99
127.674
126.416
125.22
124.082
123.003
121.981
121.017
120.109
119.258
118.462
117.72
117.034
116.401
115.821
115.293
114.818
114.394
114.021
113.698
113.424
113.2
113.023
112.897
112.823
112.821
112.831
112.864
112.938
113.076
113.261
113.488
83.5546
113.905
125.638
98.0593
86.2892
87.9771
105.912
118.457
93.0806
109.481
109.988
100.429
113.143
108.412
96.6554
88.6378
85.0269
94.1311
82.321
92.5732
80.4513
92.7928
91.7646
79.3266
78.8524
78.8348
110.216
110.827
111.481
112.173
112.9
113.431
113.247
113.108
113.033
112.999
112.988
112.989
113.059
113.181
113.355
113.575
113.844
114.162
114.529
114.947
115.415
115.935
116.507
117.132
117.81
118.541
119.327
120.167
121.063
122.015
123.023
124.087
125.21
126.391
127.632
128.93
130.289
131.71
133.193
134.74
136.352
138.031
139.777
141.595
143.486
145.452
147.499
149.627
151.844
154.153
156.569
159.083
161.703
164.464
167.334
170.327
173.485
176.814
180.308
183.99
187.85
191.888
196.138
200.579
205.197
209.999
215.018
220.305
225.777
230.43
232.628
233.28
230.037
213.58
177.795
139.409
121.001
111.922
107.65
105.124
102.981
101.169
99.5162
97.9902
96.5659
95.2279
93.9687
91.4949
79.152
80.7946
92.7493
113.658
132.474
103.703
109.025
108.622
108.276
107.987
107.757
107.589
107.484
107.444
107.466
107.553
107.704
107.917
108.192
108.526
108.919
109.366
109.865
110.413
111.006
111.641
112.314
113.021
113.758
82.4943
117.024
123.102
79.7301
81.4867
98.8505
85.2507
86.9968
88.7843
89.7086
90.6465
91.6124
92.6023
93.6174
94.6796
95.8001
96.9777
98.2177
99.5297
100.924
102.416
104.052
105.923
108.139
111.283
118.103
131.526
160.29
198.724
222.893
231.588
231.531
230.312
227.119
221.726
216.301
211.188
206.353
201.745
197.339
193.125
189.1
185.26
181.601
178.114
174.792
171.629
168.615
165.741
162.997
160.375
157.867
155.465
153.161
150.95
148.827
146.785
144.822
142.933
141.116
139.367
137.686
136.069
134.515
133.024
131.594
130.225
128.914
127.663
126.467
125.328
124.247
123.221
122.251
121.336
120.476
119.669
118.915
118.214
117.565
116.967
116.421
115.924
115.478
115.08
114.731
114.429
114.174
113.966
113.802
113.688
113.624
113.624
113.635
113.669
113.742
113.875
114.05
114.266
114.521
108.047
116.922
93.9709
109.888
110.384
101.79
112.226
107.979
97.246
89.3712
85.3894
94.1636
103.727
82.2764
92.0748
79.9809
90.8899
78.4718
90.3424
77.673
91.5902
90.2535
77.4249
77.5744
110.544
111.145
111.788
112.468
113.183
113.927
114.696
114.442
114.227
114.052
113.919
113.844
113.81
113.798
113.798
113.857
113.968
114.128
114.332
114.582
114.878
115.222
115.613
116.052
116.541
117.079
117.668
118.307
118.998
119.741
120.536
121.384
122.285
123.241
124.251
125.317
126.438
127.617
128.849
130.141
131.491
132.9
134.37
135.904
137.5
139.163
140.893
142.692
144.566
146.514
148.542
150.656
152.866
155.17
157.575
160.101
162.744
165.506
168.419
171.504
174.758
178.208
181.85
185.689
189.766
194.092
198.66
203.468
208.552
213.993
219.854
225.882
230.155
232.028
232.422
224.886
200.188
158.566
129.952
116.949
110.354
107.352
105.125
103.369
101.768
100.297
98.9261
97.6366
96.4183
95.2384
94.0899
92.9839
90.4912
91.9129
90.9603
78.0229
91.9006
120.168
92.1004
91.1981
78.7126
80.5224
84.2478
86.0473
87.8879
83.2902
85.1359
87.0204
82.3702
84.2559
86.1774
83.4048
81.4837
85.3561
79.5953
84.5573
82.5787
80.6244
99.2771
109.441
109.047
108.707
108.424
108.199
108.035
107.932
107.892
107.914
107.999
108.146
108.355
108.625
108.952
109.337
109.775
110.264
110.8
111.381
112.002
112.66
113.35
114.07
114.815
93.3027
94.4462
95.5158
96.5996
97.7072
98.8353
100.01
101.259
102.583
104.005
105.559
107.325
109.77
114.231
123.287
143.031
182.677
216.289
230.24
230.778
229.488
225.948
219.326
212.854
206.959
201.561
196.575
191.91
187.522
183.41
179.576
175.992
172.616
169.438
166.454
163.633
160.972
158.447
156.04
153.742
151.551
149.454
147.445
145.521
143.674
141.898
140.192
138.554
136.98
135.468
134.018
132.625
131.291
130.014
128.792
127.625
126.511
125.452
124.445
123.491
122.589
121.739
120.939
120.19
119.491
118.841
118.24
117.688
117.183
116.726
116.315
115.949
115.63
115.354
115.122
114.933
114.787
114.686
114.635
114.636
114.647
114.682
114.755
114.881
115.046
115.248
115.486
110.377
114.974
94.6505
110.929
111.517
112.146
112.812
113.51
114.237
114.988
115.759
86.5547
87.3338
88.1303
88.9379
89.766
90.609
91.4772
92.3621
93.2683
94.1949
95.144
96.126
97.1523
98.2251
99.3451
100.523
101.768
103.092
104.519
106.094
107.959
110.381
114.739
123.744
142.544
179.731
212.728
228.022
230.652
229.802
227.113
221.579
215.592
209.986
204.794
199.943
195.376
191.061
186.981
183.123
179.472
176.021
172.754
169.661
166.728
163.944
161.298
158.777
156.373
154.076
151.878
149.772
147.751
145.81
143.945
142.151
140.427
138.768
137.173
135.64
134.168
132.755
131.4
130.102
128.86
127.673
126.541
125.464
124.44
123.471
122.554
121.689
120.876
120.115
119.404
118.744
118.133
117.571
117.058
116.592
116.174
115.802
115.476
115.195
114.958
114.765
114.614
114.51
114.455
114.456
114.467
114.5
114.571
114.698
114.863
115.066
115.306
115.581
103.463
110.888
107.111
98.2139
90.0687
85.8667
94.4204
103.305
110.357
110.841
82.3541
91.8292
99.2916
79.6599
90.1917
77.7788
89.3184
76.636
88.9964
76.1153
89.0765
76.0662
89.4488
76.3674
90.1784
76.943
77.7356
85.79
83.7754
78.695
87.0384
85.0454
112.741
89.3446
89.8861
81.7715
79.7887
95.0201
93.1036
93.8981
94.8555
95.934
97.0105
98.0632
99.1081
100.161
101.239
102.373
103.579
104.859
106.236
107.764
109.667
112.909
119.344
133.601
163.092
203.404
224.935
229.332
228.348
225.181
218.656
211.621
205.217
199.475
194.276
189.521
185.102
180.998
177.187
173.656
170.374
167.3
164.417
161.714
159.165
156.759
154.474
152.299
150.222
148.24
146.343
144.525
142.783
141.111
139.503
137.959
136.476
135.051
133.683
132.371
131.114
129.911
128.761
127.66
126.613
125.616
124.67
123.773
122.926
122.127
121.377
120.674
120.019
119.41
118.848
118.331
117.86
117.432
117.049
116.709
116.412
116.156
115.942
115.767
115.632
115.54
115.495
115.497
115.508
115.541
115.61
115.729
115.883
116.071
116.292
116.547
109.922
109.539
109.208
108.933
108.714
108.554
108.454
108.415
108.437
108.52
108.663
108.867
109.129
109.448
109.822
110.248
110.723
111.245
111.81
112.414
113.053
113.725
114.425
115.148
115.893
105.351
109.212
86.3892
96.0016
105.869
99.4992
90.6171
86.3535
87.7995
88.5667
89.3326
90.1025
90.8769
91.6625
92.461
93.2787
94.1149
94.9676
95.8371
96.7262
97.6395
98.5861
99.5711
100.594
101.661
102.782
103.968
105.231
106.603
108.13
110.126
112.988
119.264
131.608
158.585
197.173
221.266
229.009
228.521
226.321
221.378
214.848
208.657
203.052
197.936
193.208
188.803
184.683
180.824
177.203
173.804
170.608
167.6
164.763
162.083
159.545
157.136
154.845
152.661
150.574
148.578
146.664
144.828
143.066
141.372
139.744
138.178
136.674
135.228
133.838
132.505
131.226
130.001
128.831
127.71
126.643
125.629
124.665
123.751
122.888
122.075
121.311
120.595
119.928
119.308
118.735
118.209
117.729
117.294
116.903
116.556
116.253
115.991
115.772
115.592
115.454
115.359
115.311
115.311
115.322
115.354
115.422
115.541
115.696
115.885
116.107
116.364
116.653
95.0132
102.479
111.371
111.943
112.555
113.203
113.882
114.589
115.319
116.069
116.834
110.89
111.357
84.2824
83.4666
82.999
82.5647
91.8696
98.89
79.4999
89.7044
95.0267
77.2421
88.4472
75.7357
87.8389
74.9102
87.7191
74.6356
87.9576
74.7642
88.5042
75.2107
89.3506
75.9068
92.6384
76.7901
77.8237
107.318
88.2808
87.8938
104.354
101.029
86.7504
110.469
110.098
109.779
109.513
109.302
109.148
109.052
109.015
109.036
109.116
109.255
109.452
109.705
110.013
110.373
110.785
111.244
111.748
112.294
112.878
113.496
114.145
114.821
115.521
116.24
116.976
93.7049
89.0524
89.8674
90.6077
91.3442
92.081
92.8246
93.5705
94.3311
95.1071
95.8971
96.701
97.5192
98.3542
99.2079
100.087
100.997
101.938
102.915
103.934
105.005
106.138
107.354
108.677
110.219
112.474
116.441
124.683
142.221
177.731
210.228
224.795
226.129
224.779
220.962
214.039
207.238
201.159
195.745
190.847
186.359
182.215
178.374
174.803
171.476
168.37
165.463
162.737
160.173
157.754
155.465
153.294
151.229
149.261
147.379
145.579
143.853
142.196
140.605
139.075
137.605
136.191
134.833
133.528
132.276
131.076
129.926
128.829
127.778
126.777
125.824
124.92
124.064
123.255
122.493
121.778
121.108
120.484
119.905
119.37
118.879
118.431
118.025
117.662
117.339
117.057
116.814
116.611
116.444
116.316
116.23
116.186
116.186
116.196
116.226
116.289
116.399
116.542
116.717
116.922
117.159
117.426
117.723
95.9453
101.328
93.371
94.1723
94.9864
95.8111
96.7044
97.6552
98.6389
99.6261
100.607
101.593
102.593
103.622
104.722
105.894
107.138
108.484
110.022
112.472
117.063
126.704
147.219
187.242
216.525
226.492
226.001
223.556
217.947
210.327
203.316
197.196
191.786
186.93
182.504
178.433
174.692
171.231
168.043
165.091
162.333
159.751
157.331
155.048
152.891
150.843
148.89
147.027
145.246
143.541
141.906
140.337
138.83
137.381
135.99
134.654
133.371
132.141
130.963
129.835
128.759
127.728
126.746
125.812
124.927
124.087
123.295
122.548
121.847
121.19
120.579
120.011
119.486
119.005
118.566
118.169
117.813
117.497
117.221
116.984
116.785
116.623
116.498
116.416
116.375
116.376
116.387
116.417
116.481
116.591
116.734
116.907
117.111
117.346
117.61
111.87