/*--------------------------------*- C++ -*----------------------------------*\
| =========                 |                                                 |
| \\      /  F ield         | OpenFOAM: The Open Source CFD Toolbox           |
|  \\    /   O peration     | Version:  2212                                  |
|   \\  /    A nd           | Website:  www.openfoam.com                      |
|    \\/     M anipulation  |                                                 |
\*---------------------------------------------------------------------------*/
FoamFile
{
    version     2.0;
    format      ascii;
    arch        "LSB;label=32;scalar=64";
    class       volSymmTensorField;
    location    "0.269";
    object      UPrime2Mean;
}
// * * * * * * * * * * * * * * * * * * * * * * * * * * * * * * * * * * * * * //

dimensions      [0 2 -2 0 0 0 0];

internalField   nonuniform List<symmTensor> 
24240
(
(0.0770129 -0.0254941 -6.9839e-08 0.00877148 2.4375e-08 2.06982e-13)
(0.076986 -0.0254907 -1.67285e-08 0.00877232 9.60091e-09 1.19083e-12)
(0.0769862 -0.0254906 -6.85836e-08 0.00877221 2.89275e-08 3.26345e-12)
(0.0769863 -0.0254904 -5.94858e-08 0.0087721 2.82585e-08 5.94043e-12)
(0.0769864 -0.0254902 -8.92409e-08 0.00877195 4.03777e-08 8.99482e-12)
(0.0769865 -0.02549 -9.78402e-08 0.00877178 4.50223e-08 1.19063e-11)
(0.0769866 -0.0254898 -1.1501e-07 0.00877158 5.23074e-08 1.4429e-11)
(0.0769868 -0.0254896 -1.23699e-07 0.00877138 5.63213e-08 1.62499e-11)
(0.076987 -0.0254893 -1.33009e-07 0.00877116 6.02505e-08 1.72632e-11)
(0.0769871 -0.0254891 -1.37861e-07 0.00877095 6.22888e-08 1.73975e-11)
(0.0769873 -0.0254888 -1.41494e-07 0.00877073 6.35995e-08 1.67187e-11)
(0.0769875 -0.0254886 -1.41398e-07 0.00877053 6.32722e-08 1.53358e-11)
(0.0769877 -0.0254884 -1.40109e-07 0.00877034 6.22743e-08 1.34494e-11)
(0.0769879 -0.0254882 -1.33842e-07 0.00877016 5.92339e-08 1.12466e-11)
(0.0769881 -0.0254881 -1.30585e-07 0.00877001 5.70521e-08 8.98238e-12)
(0.0769883 -0.0254879 -1.1451e-07 0.00876987 5.02779e-08 6.76985e-12)
(0.0769885 -0.0254878 -1.15883e-07 0.00876976 4.92792e-08 4.83669e-12)
(0.0769886 -0.0254877 -7.40373e-08 0.00876966 3.34973e-08 2.98902e-12)
(0.0769885 -0.0254877 -7.96165e-08 0.00876963 3.22995e-08 1.46232e-12)
(0.0770155 -0.0254911 3.86846e-08 0.00876872 -1.05287e-08 2.09662e-13)
(0.00205421 -0.00387145 9.39385e-09 0.00797403 -1.89593e-08 6.84969e-14)
(0.0020497 -0.00386707 1.85533e-08 0.00797496 -3.76168e-08 3.79739e-13)
(0.0020497 -0.00386708 2.73037e-08 0.007975 -5.5529e-08 9.23243e-13)
(0.00204969 -0.0038671 3.80454e-08 0.00797508 -7.75065e-08 1.72775e-12)
(0.00204968 -0.00386712 4.46738e-08 0.00797518 -9.10781e-08 2.49873e-12)
(0.00204967 -0.00386714 5.10785e-08 0.0079753 -1.04212e-07 3.28368e-12)
(0.00204965 -0.00386717 5.44816e-08 0.00797544 -1.11247e-07 3.86201e-12)
(0.00204964 -0.0038672 5.66145e-08 0.00797558 -1.15697e-07 4.2599e-12)
(0.00204962 -0.00386723 5.65223e-08 0.00797573 -1.15621e-07 4.38839e-12)
(0.0020496 -0.00386726 5.50327e-08 0.00797589 -1.12684e-07 4.28809e-12)
(0.00204958 -0.00386728 5.1911e-08 0.00797604 -1.0641e-07 3.9627e-12)
(0.00204956 -0.00386731 4.7757e-08 0.00797618 -9.80015e-08 3.48238e-12)
(0.00204954 -0.00386733 4.25009e-08 0.00797632 -8.73332e-08 2.8946e-12)
(0.00204952 -0.00386734 3.69637e-08 0.00797644 -7.60524e-08 2.28835e-12)
(0.00204949 -0.00386736 3.0525e-08 0.00797655 -6.29348e-08 1.68945e-12)
(0.00204947 -0.00386737 2.49673e-08 0.00797665 -5.16034e-08 1.1887e-12)
(0.00204945 -0.00386737 1.76973e-08 0.00797673 -3.67834e-08 7.35902e-13)
(0.00204944 -0.00386737 1.29299e-08 0.00797679 -2.70851e-08 4.11816e-13)
(0.00204941 -0.00386737 4.42446e-09 0.00797685 -9.65051e-09 1.37344e-13)
(0.00205392 -0.00387177 -2.08265e-09 0.00797597 3.91752e-09 1.81701e-14)
(0.00144214 -0.00366 -1.77528e-09 0.0121514 7.56588e-09 1.39471e-14)
(0.00143861 -0.00365439 -1.33146e-08 0.0121522 4.93395e-08 2.90013e-13)
(0.00143861 -0.00365441 -2.54359e-08 0.0121522 9.3205e-08 9.69185e-13)
(0.00143861 -0.00365442 -3.35726e-08 0.0121522 1.23961e-07 1.75621e-12)
(0.00143861 -0.00365445 -4.24398e-08 0.0121521 1.56805e-07 2.79343e-12)
(0.0014386 -0.00365448 -4.82545e-08 0.0121521 1.79617e-07 3.71568e-12)
(0.0014386 -0.00365451 -5.32154e-08 0.0121521 1.99179e-07 4.60136e-12)
(0.0014386 -0.00365455 -5.60018e-08 0.012152 2.11353e-07 5.25152e-12)
(0.0014386 -0.0036546 -5.74138e-08 0.012152 2.18529e-07 5.69063e-12)
(0.00143859 -0.00365464 -5.71215e-08 0.0121519 2.19699e-07 5.85236e-12)
(0.00143859 -0.00365469 -5.55389e-08 0.0121518 2.16042e-07 5.76691e-12)
(0.00143859 -0.00365474 -5.26038e-08 0.0121518 2.0739e-07 5.43403e-12)
(0.00143859 -0.00365479 -4.87646e-08 0.0121517 1.94984e-07 4.91863e-12)
(0.00143858 -0.00365484 -4.39198e-08 0.0121517 1.78597e-07 4.24839e-12)
(0.00143858 -0.00365488 -3.89544e-08 0.0121516 1.6083e-07 3.53761e-12)
(0.00143858 -0.00365492 -3.27412e-08 0.0121516 1.38469e-07 2.75346e-12)
(0.00143857 -0.00365495 -2.78781e-08 0.0121515 1.19384e-07 2.10071e-12)
(0.00143856 -0.00365498 -2.04431e-08 0.0121515 9.10502e-08 1.34816e-12)
(0.00143855 -0.003655 -1.51078e-08 0.0121515 6.77852e-08 7.46037e-13)
(0.00144207 -0.00366061 -7.5785e-09 0.0121506 3.21914e-08 1.4567e-13)
(0.00201494 0.00462509 -9.23713e-09 0.0116576 -2.38342e-08 5.964e-14)
(0.0020194 0.00463091 -2.2255e-08 0.0116584 -5.68067e-08 3.60995e-13)
(0.00201942 0.00463093 -3.33745e-08 0.0116584 -8.48983e-08 8.41897e-13)
(0.00201945 0.00463096 -4.53875e-08 0.0116583 -1.15518e-07 1.55627e-12)
(0.00201949 0.00463101 -5.50347e-08 0.0116583 -1.40244e-07 2.30628e-12)
(0.00201954 0.00463107 -6.29233e-08 0.0116582 -1.60516e-07 3.02791e-12)
(0.0020196 0.00463113 -6.80683e-08 0.0116582 -1.73831e-07 3.57614e-12)
(0.00201966 0.0046312 -7.12167e-08 0.0116581 -1.82122e-07 3.9483e-12)
(0.00201973 0.00463127 -7.19945e-08 0.011658 -1.8439e-07 4.08114e-12)
(0.0020198 0.00463135 -7.09019e-08 0.011658 -1.81911e-07 4.00662e-12)
(0.00201987 0.00463142 -6.7999e-08 0.0116579 -1.74792e-07 3.73776e-12)
(0.00201994 0.0046315 -6.36816e-08 0.0116578 -1.64044e-07 3.32965e-12)
(0.00202 0.00463157 -5.81001e-08 0.0116578 -1.49994e-07 2.82293e-12)
(0.00202007 0.00463164 -5.18609e-08 0.0116577 -1.34227e-07 2.29332e-12)
(0.00202012 0.00463171 -4.4823e-08 0.0116576 -1.16303e-07 1.75919e-12)
(0.00202018 0.00463177 -3.80231e-08 0.0116576 -9.89325e-08 1.29822e-12)
(0.00202023 0.00463182 -3.05819e-08 0.0116575 -7.9855e-08 8.81119e-13)
(0.00202027 0.00463187 -2.36497e-08 0.0116575 -6.18959e-08 5.47515e-13)
(0.00202031 0.00463192 -1.25518e-08 0.0116574 -3.3015e-08 2.049e-13)
(0.00201589 0.00462613 -2.26542e-09 0.0116566 -5.9696e-09 2.18641e-14)
(0.00389499 0.00426769 3.50416e-09 0.0055208 4.38016e-09 2.37432e-14)
(0.00390102 0.00427174 1.94543e-08 0.00552116 2.53391e-08 2.95045e-13)
(0.003901 0.00427173 3.65774e-08 0.00552117 4.8416e-08 9.08812e-13)
(0.00390098 0.00427174 4.89899e-08 0.0055212 6.50279e-08 1.66162e-12)
(0.00390096 0.00427174 6.02571e-08 0.00552123 8.01159e-08 2.51551e-12)
(0.00390094 0.00427174 6.89253e-08 0.00552127 9.18081e-08 3.32443e-12)
(0.00390091 0.00427175 7.58127e-08 0.00552131 1.01174e-07 4.03405e-12)
(0.00390088 0.00427175 8.00291e-08 0.00552135 1.06982e-07 4.53507e-12)
(0.00390085 0.00427175 8.21287e-08 0.0055214 1.10012e-07 4.81293e-12)
(0.00390081 0.00427175 8.18479e-08 0.00552144 1.09856e-07 4.83543e-12)
(0.00390078 0.00427175 7.95848e-08 0.00552148 1.07076e-07 4.63159e-12)
(0.00390074 0.00427175 7.54358e-08 0.00552152 1.01724e-07 4.22789e-12)
(0.00390071 0.00427175 6.98076e-08 0.00552156 9.44134e-08 3.6864e-12)
(0.00390068 0.00427175 6.27608e-08 0.00552159 8.51298e-08 3.05407e-12)
(0.00390066 0.00427175 5.4977e-08 0.00552161 7.48954e-08 2.41048e-12)
(0.00390064 0.00427175 4.59081e-08 0.00552164 6.28347e-08 1.77398e-12)
(0.00390063 0.00427175 3.67513e-08 0.00552166 5.06518e-08 1.21456e-12)
(0.00390063 0.00427175 2.63638e-08 0.00552167 3.66525e-08 7.09353e-13)
(0.00390063 0.00427176 1.90602e-08 0.00552168 2.67661e-08 3.41682e-13)
(0.00389461 0.00426774 9.01866e-09 0.00552133 1.26468e-08 5.75697e-14)
(0.00689821 0.00607533 -1.24131e-08 0.00548973 -1.13819e-08 4.32766e-14)
(0.00690683 0.00607942 -2.99449e-08 0.00549006 -2.72426e-08 3.02852e-13)
(0.00690687 0.00607942 -4.50928e-08 0.00549003 -4.08994e-08 7.54541e-13)
(0.00690694 0.00607943 -6.07411e-08 0.00548999 -5.50379e-08 1.38479e-12)
(0.00690703 0.00607944 -7.29762e-08 0.00548993 -6.60635e-08 2.05901e-12)
(0.00690714 0.00607945 -8.36786e-08 0.00548987 -7.57302e-08 2.73848e-12)
(0.00690727 0.00607946 -9.09034e-08 0.0054898 -8.22342e-08 3.30439e-12)
(0.0069074 0.00607948 -9.57103e-08 0.00548972 -8.65609e-08 3.73073e-12)
(0.00690755 0.0060795 -9.74384e-08 0.00548964 -8.80866e-08 3.96106e-12)
(0.00690769 0.00607951 -9.67463e-08 0.00548956 -8.74229e-08 4.0009e-12)
(0.00690784 0.00607953 -9.3551e-08 0.00548948 -8.448e-08 3.85005e-12)
(0.00690799 0.00607955 -8.84371e-08 0.0054894 -7.98029e-08 3.54553e-12)
(0.00690814 0.00607957 -8.13704e-08 0.00548933 -7.33427e-08 3.11464e-12)
(0.00690828 0.00607959 -7.33471e-08 0.00548926 -6.60307e-08 2.62087e-12)
(0.0069084 0.00607962 -6.38321e-08 0.0054892 -5.73489e-08 2.08769e-12)
(0.00690852 0.00607964 -5.46335e-08 0.00548915 -4.89817e-08 1.58524e-12)
(0.00690863 0.00607966 -4.36624e-08 0.00548911 -3.89847e-08 1.09839e-12)
(0.00690872 0.00607968 -3.36659e-08 0.00548907 -2.99474e-08 6.77795e-13)
(0.0069088 0.0060797 -1.86147e-08 0.00548905 -1.63454e-08 2.83871e-13)
(0.00690024 0.00607562 -3.79845e-09 0.0054887 -3.13184e-09 3.42755e-14)
(0.00904324 0.00316806 -1.84227e-09 0.00118135 -7.11791e-10 2.22692e-14)
(0.00905299 0.00316998 8.03842e-09 0.00118143 3.21192e-09 1.98729e-13)
(0.00905298 0.00316999 1.98924e-08 0.00118143 7.96863e-09 5.66401e-13)
(0.00905298 0.00317 2.72239e-08 0.00118144 1.0963e-08 1.05607e-12)
(0.00905299 0.00317002 3.39418e-08 0.00118145 1.37297e-08 1.61906e-12)
(0.009053 0.00317004 3.88057e-08 0.00118147 1.57864e-08 2.18085e-12)
(0.00905301 0.00317006 4.26397e-08 0.00118148 1.74513e-08 2.68861e-12)
(0.00905302 0.00317008 4.4684e-08 0.0011815 1.84178e-08 3.08544e-12)
(0.00905303 0.0031701 4.54991e-08 0.00118152 1.89052e-08 3.34321e-12)
(0.00905304 0.00317012 4.48246e-08 0.00118153 1.87987e-08 3.44111e-12)
(0.00905305 0.00317015 4.30751e-08 0.00118155 1.82582e-08 3.38219e-12)
(0.00905307 0.00317016 4.0182e-08 0.00118156 1.72386e-08 3.17784e-12)
(0.00905308 0.00317018 3.66737e-08 0.00118157 1.59493e-08 2.8578e-12)
(0.0090531 0.0031702 3.23399e-08 0.00118158 1.42867e-08 2.45199e-12)
(0.00905312 0.00317021 2.80174e-08 0.00118159 1.25885e-08 2.00509e-12)
(0.00905313 0.00317022 2.28974e-08 0.0011816 1.05158e-08 1.54279e-12)
(0.00905316 0.00317024 1.84579e-08 0.00118161 8.65311e-09 1.10069e-12)
(0.00905318 0.00317024 1.32954e-08 0.00118161 6.41434e-09 6.79612e-13)
(0.00905321 0.00317025 1.22716e-08 0.00118162 5.68925e-09 3.1807e-13)
(0.00904348 0.00316835 8.31755e-09 0.00118154 3.61703e-09 5.01758e-14)
(0.0101053 0.00323496 -9.64579e-09 0.00105622 -3.19071e-09 3.52756e-14)
(0.0101158 0.00323677 -2.36193e-08 0.00105628 -7.72106e-09 2.78304e-13)
(0.0101159 0.00323676 -3.49205e-08 0.00105627 -1.13461e-08 7.15941e-13)
(0.0101159 0.00323676 -4.71372e-08 0.00105626 -1.52778e-08 1.32067e-12)
(0.010116 0.00323675 -5.67513e-08 0.00105625 -1.8346e-08 1.99395e-12)
(0.0101161 0.00323674 -6.56581e-08 0.00105623 -2.11922e-08 2.68192e-12)
(0.0101162 0.00323673 -7.21297e-08 0.00105621 -2.32358e-08 3.28994e-12)
(0.0101164 0.00323673 -7.7e-08 0.0010562 -2.47614e-08 3.7708e-12)
(0.0101165 0.00323672 -7.95568e-08 0.00105618 -2.55281e-08 4.06955e-12)
(0.0101166 0.00323671 -8.0275e-08 0.00105616 -2.57e-08 4.17265e-12)
(0.0101168 0.00323671 -7.8841e-08 0.00105614 -2.51702e-08 4.07225e-12)
(0.0101169 0.0032367 -7.57657e-08 0.00105612 -2.41152e-08 3.79522e-12)
(0.0101171 0.0032367 -7.07172e-08 0.0010561 -2.24219e-08 3.36952e-12)
(0.0101172 0.0032367 -6.46708e-08 0.00105609 -2.04219e-08 2.85473e-12)
(0.0101173 0.0032367 -5.68014e-08 0.00105607 -1.78364e-08 2.28763e-12)
(0.0101174 0.0032367 -4.89067e-08 0.00105606 -1.52714e-08 1.73225e-12)
(0.0101175 0.0032367 -3.86198e-08 0.00105605 -1.19365e-08 1.19542e-12)
(0.0101176 0.00323671 -2.90346e-08 0.00105605 -8.88331e-09 7.21329e-13)
(0.0101177 0.00323671 -1.54643e-08 0.00105604 -4.55674e-09 3.09309e-13)
(0.0101073 0.0032349 -3.32178e-09 0.00105598 -8.46815e-10 4.02365e-14)
(0.0110246 -0.000353061 -5.20657e-09 1.41407e-05 2.81687e-10 3.27255e-14)
(0.0110355 -0.000353254 -3.68626e-09 1.41409e-05 3.75188e-10 2.54896e-13)
(0.0110355 -0.000353248 -8.05249e-11 1.414e-05 3.65162e-10 6.67504e-13)
(0.0110355 -0.000353237 9.00624e-10 1.41387e-05 4.43416e-10 1.2288e-12)
(0.0110356 -0.000353224 2.29414e-09 1.41371e-05 4.82176e-10 1.86424e-12)
(0.0110356 -0.000353209 2.78888e-09 1.41351e-05 5.33495e-10 2.50361e-12)
(0.0110356 -0.000353192 3.33051e-09 1.4133e-05 5.54811e-10 3.07175e-12)
(0.0110357 -0.000353173 3.32721e-09 1.41307e-05 5.72324e-10 3.51253e-12)
(0.0110357 -0.000353155 3.24869e-09 1.41283e-05 5.64978e-10 3.78032e-12)
(0.0110358 -0.000353136 2.79177e-09 1.4126e-05 5.4871e-10 3.85649e-12)
(0.0110358 -0.000353118 2.312e-09 1.41236e-05 5.10263e-10 3.74027e-12)
(0.0110359 -0.0003531 1.54661e-09 1.41214e-05 4.65629e-10 3.45588e-12)
(0.0110359 -0.000353084 9.6446e-10 1.41194e-05 3.98671e-10 3.04019e-12)
(0.0110359 -0.000353068 1.20396e-10 1.41176e-05 3.35171e-10 2.54498e-12)
(0.011036 -0.000353055 1.42652e-10 1.4116e-05 2.37694e-10 2.02041e-12)
(0.011036 -0.000353043 6.24558e-12 1.41146e-05 1.56234e-10 1.50967e-12)
(0.011036 -0.000353032 1.6704e-09 1.41135e-05 1.80982e-11 1.03818e-12)
(0.011036 -0.000353023 2.39841e-09 1.41126e-05 -6.63661e-11 6.2018e-13)
(0.0110361 -0.000353016 6.01702e-09 1.4112e-05 -2.61356e-10 2.75718e-13)
(0.0110252 -0.000352816 6.32361e-09 1.41111e-05 -2.73133e-10 4.11546e-14)
(0.011444 -0.000593855 -8.10163e-09 3.25121e-05 4.22216e-10 2.82932e-14)
(0.0114552 -0.000594202 -1.54279e-08 3.25171e-05 7.33659e-10 2.22529e-13)
(0.0114552 -0.000594237 -2.04388e-08 3.25206e-05 9.1431e-10 5.79517e-13)
(0.0114552 -0.000594288 -2.72455e-08 3.25258e-05 1.2067e-09 1.06492e-12)
(0.0114551 -0.000594354 -3.27807e-08 3.25324e-05 1.43463e-09 1.61559e-12)
(0.0114551 -0.000594431 -3.83029e-08 3.25403e-05 1.67443e-09 2.17198e-12)
(0.0114551 -0.000594518 -4.26194e-08 3.25491e-05 1.85783e-09 2.66889e-12)
(0.0114551 -0.000594611 -4.62283e-08 3.25585e-05 2.01648e-09 3.05538e-12)
(0.0114551 -0.000594708 -4.85099e-08 3.25684e-05 2.11461e-09 3.29034e-12)
(0.0114551 -0.000594805 -4.97562e-08 3.25783e-05 2.17128e-09 3.35506e-12)
(0.0114551 -0.000594901 -4.95279e-08 3.2588e-05 2.16023e-09 3.24737e-12)
(0.0114551 -0.000594992 -4.8226e-08 3.25973e-05 2.10617e-09 2.9882e-12)
(0.0114551 -0.000595076 -4.54122e-08 3.26058e-05 1.98143e-09 2.61211e-12)
(0.0114551 -0.000595152 -4.192e-08 3.26135e-05 1.83278e-09 2.16907e-12)
(0.0114551 -0.000595217 -3.67336e-08 3.26201e-05 1.59975e-09 1.70183e-12)
(0.0114551 -0.000595272 -3.1414e-08 3.26257e-05 1.36792e-09 1.25629e-12)
(0.0114551 -0.000595316 -2.37725e-08 3.26301e-05 1.01241e-09 8.46249e-13)
(0.0114551 -0.000595348 -1.66884e-08 3.26332e-05 6.95895e-10 4.95624e-13)
(0.0114552 -0.00059537 -7.40118e-09 3.26353e-05 2.59817e-10 2.10568e-13)
(0.011444 -0.000595049 2.91631e-10 3.26331e-05 -7.92143e-11 2.82182e-14)
(0.0101496 -0.00421704 -1.65935e-08 0.00184557 7.24081e-09 4.34684e-14)
(0.0101601 -0.00421942 -4.53531e-08 0.00184568 1.95179e-08 3.39954e-13)
(0.0101601 -0.00421941 -6.98365e-08 0.00184566 2.98285e-08 8.42471e-13)
(0.0101601 -0.00421938 -9.35713e-08 0.00184564 3.98764e-08 1.52956e-12)
(0.0101601 -0.00421935 -1.13239e-07 0.00184561 4.81453e-08 2.27641e-12)
(0.0101601 -0.00421932 -1.29874e-07 0.00184557 5.51468e-08 3.02549e-12)
(0.0101602 -0.00421928 -1.42017e-07 0.00184554 6.0209e-08 3.66577e-12)
(0.0101602 -0.00421923 -1.50049e-07 0.00184549 6.35234e-08 4.14602e-12)
(0.0101603 -0.00421919 -1.53507e-07 0.00184545 6.48682e-08 4.4079e-12)
(0.0101603 -0.00421915 -1.52695e-07 0.00184541 6.43896e-08 4.43971e-12)
(0.0101604 -0.0042191 -1.4765e-07 0.00184536 6.20893e-08 4.24345e-12)
(0.0101604 -0.00421906 -1.39036e-07 0.00184532 5.82677e-08 3.86087e-12)
(0.0101605 -0.00421902 -1.27028e-07 0.00184528 5.29868e-08 3.33358e-12)
(0.0101605 -0.00421899 -1.12782e-07 0.00184525 4.67704e-08 2.73742e-12)
(0.0101605 -0.00421896 -9.60193e-08 0.00184522 3.94833e-08 2.11139e-12)
(0.0101606 -0.00421893 -7.85679e-08 0.00184519 3.19663e-08 1.5299e-12)
(0.0101606 -0.00421891 -5.87651e-08 0.00184517 2.34615e-08 9.94442e-13)
(0.0101606 -0.00421889 -4.01788e-08 0.00184516 1.5638e-08 5.67375e-13)
(0.0101606 -0.00421888 -1.98691e-08 0.00184514 7.07556e-09 2.33956e-13)
(0.0101501 -0.00421648 -4.43601e-09 0.00184503 1.16932e-09 3.12951e-14)
(0.0111674 -0.00448402 -2.25109e-09 0.00189324 9.56145e-10 1.4395e-14)
(0.0111783 -0.00448647 8.09042e-09 0.00189337 -3.76326e-09 1.31427e-13)
(0.0111783 -0.00448647 1.94326e-08 0.00189338 -9.01873e-09 3.77504e-13)
(0.0111782 -0.00448648 2.6868e-08 0.0018934 -1.25294e-08 6.9975e-13)
(0.0111781 -0.00448648 3.31279e-08 0.00189343 -1.55508e-08 1.06768e-12)
(0.0111779 -0.00448648 3.73717e-08 0.00189346 -1.76846e-08 1.43112e-12)
(0.0111778 -0.00448649 4.02088e-08 0.00189349 -1.92038e-08 1.75528e-12)
(0.0111776 -0.00448649 4.12171e-08 0.00189352 -1.98997e-08 2.00089e-12)
(0.0111775 -0.0044865 4.0886e-08 0.00189356 -1.99882e-08 2.15014e-12)
(0.0111773 -0.0044865 3.9075e-08 0.0018936 -1.93824e-08 2.18708e-12)
(0.0111772 -0.00448651 3.63519e-08 0.00189363 -1.83355e-08 2.11857e-12)
(0.011177 -0.00448651 3.24928e-08 0.00189366 -1.67278e-08 1.95265e-12)
(0.0111769 -0.00448652 2.83214e-08 0.00189369 -1.49271e-08 1.71863e-12)
(0.0111768 -0.00448652 2.34493e-08 0.00189372 -1.275e-08 1.43957e-12)
(0.0111767 -0.00448652 1.93508e-08 0.00189375 -1.08376e-08 1.15219e-12)
(0.0111766 -0.00448652 1.52882e-08 0.00189377 -8.85849e-09 8.70599e-13)
(0.0111765 -0.00448652 1.31994e-08 0.00189378 -7.6339e-09 6.13527e-13)
(0.0111764 -0.00448652 1.11819e-08 0.00189379 -6.34545e-09 3.82294e-13)
(0.0111764 -0.00448653 8.7509e-09 0.0018938 -4.94836e-09 1.84325e-13)
(0.0111654 -0.00448407 6.28209e-09 0.00189368 -3.24516e-09 3.10072e-14)
(0.00731495 -0.00720013 -1.79763e-08 0.00739284 1.9033e-08 6.29692e-14)
(0.00732383 -0.00720489 -5.27293e-08 0.00739328 5.51046e-08 5.2022e-13)
(0.00732383 -0.00720488 -8.3059e-08 0.00739325 8.64564e-08 1.29481e-12)
(0.00732385 -0.00720486 -1.11849e-07 0.00739321 1.16246e-07 2.34531e-12)
(0.00732386 -0.00720484 -1.35373e-07 0.00739315 1.4048e-07 3.44684e-12)
(0.00732388 -0.00720482 -1.55419e-07 0.00739308 1.61145e-07 4.55018e-12)
(0.00732391 -0.0072048 -1.69964e-07 0.00739301 1.76066e-07 5.45944e-12)
(0.00732394 -0.00720477 -1.79447e-07 0.00739293 1.85727e-07 6.10815e-12)
(0.00732397 -0.00720475 -1.83378e-07 0.00739284 1.89593e-07 6.41032e-12)
(0.00732401 -0.00720472 -1.82128e-07 0.00739275 1.88066e-07 6.36212e-12)
(0.00732405 -0.0072047 -1.7588e-07 0.00739267 1.8132e-07 5.97908e-12)
(0.00732408 -0.00720467 -1.65382e-07 0.00739258 1.70146e-07 5.33582e-12)
(0.00732411 -0.00720465 -1.51069e-07 0.00739251 1.54987e-07 4.50618e-12)
(0.00732414 -0.00720463 -1.34143e-07 0.00739244 1.37131e-07 3.60738e-12)
(0.00732417 -0.00720461 -1.14656e-07 0.00739238 1.1662e-07 2.69773e-12)
(0.00732419 -0.00720459 -9.43341e-08 0.00739233 9.53587e-08 1.8868e-12)
(0.00732421 -0.00720458 -7.1179e-08 0.00739229 7.12189e-08 1.15346e-12)
(0.00732422 -0.00720457 -4.94174e-08 0.00739226 4.88068e-08 6.19069e-13)
(0.00732425 -0.00720457 -2.71193e-08 0.00739224 2.57961e-08 2.36689e-13)
(0.00731535 -0.00719979 -8.52269e-09 0.00739177 7.52729e-09 3.14878e-14)
(0.00792753 -0.00716335 2.20107e-09 0.00720678 -2.09429e-09 1.28978e-14)
(0.00793651 -0.00716806 2.35961e-08 0.00720727 -2.41995e-08 1.91771e-13)
(0.00793642 -0.00716803 4.60569e-08 0.00720729 -4.78475e-08 6.15634e-13)
(0.00793628 -0.00716798 6.27982e-08 0.00720732 -6.53366e-08 1.13611e-12)
(0.00793611 -0.00716792 7.70561e-08 0.00720736 -8.03119e-08 1.71512e-12)
(0.00793591 -0.00716785 8.82486e-08 0.00720741 -9.22286e-08 2.27517e-12)
(0.00793568 -0.00716777 9.65471e-08 0.00720746 -1.01238e-07 2.75892e-12)
(0.00793543 -0.00716769 1.01391e-07 0.00720751 -1.06687e-07 3.0992e-12)
(0.00793518 -0.0071676 1.0318e-07 0.00720757 -1.09017e-07 3.27674e-12)
(0.00793491 -0.0071675 1.01699e-07 0.00720763 -1.07912e-07 3.26559e-12)
(0.00793465 -0.00716741 9.74868e-08 0.00720768 -1.03987e-07 3.09031e-12)
(0.0079344 -0.00716732 9.04232e-08 0.00720774 -9.70398e-08 2.76358e-12)
(0.00793416 -0.00716723 8.15136e-08 0.00720779 -8.81568e-08 2.34988e-12)
(0.00793394 -0.00716716 7.07381e-08 0.00720783 -7.72169e-08 1.88182e-12)
(0.00793375 -0.00716709 5.97431e-08 0.00720787 -6.59197e-08 1.43402e-12)
(0.00793358 -0.00716703 4.85583e-08 0.00720791 -5.41655e-08 1.02461e-12)
(0.00793345 -0.00716698 3.86789e-08 0.00720793 -4.33328e-08 6.82079e-13)
(0.00793335 -0.00716694 2.93325e-08 0.00720795 -3.28065e-08 4.03765e-13)
(0.0079333 -0.00716692 1.94981e-08 0.00720796 -2.22465e-08 1.90009e-13)
(0.00792425 -0.00716218 9.9076e-09 0.00720749 -1.12021e-08 3.59407e-14)
(0.00320797 -0.00730481 -1.50862e-08 0.0177514 3.79672e-08 1.03448e-13)
(0.00321374 -0.00731209 -4.3085e-08 0.0177525 1.07021e-07 8.05627e-13)
(0.00321375 -0.00731209 -6.77162e-08 0.0177524 1.67918e-07 1.99571e-12)
(0.00321377 -0.0073121 -9.10365e-08 0.0177524 2.25605e-07 3.5963e-12)
(0.00321379 -0.00731211 -1.09506e-07 0.0177523 2.71123e-07 5.21134e-12)
(0.00321381 -0.00731212 -1.25766e-07 0.0177523 3.11346e-07 6.86227e-12)
(0.00321384 -0.00731214 -1.37477e-07 0.0177522 3.40242e-07 8.19194e-12)
(0.00321388 -0.00731215 -1.45179e-07 0.0177521 3.59207e-07 9.12113e-12)
(0.00321391 -0.00731217 -1.48338e-07 0.017752 3.66843e-07 9.50655e-12)
(0.00321395 -0.00731218 -1.47359e-07 0.0177519 3.64167e-07 9.35897e-12)
(0.00321399 -0.0073122 -1.42384e-07 0.0177518 3.5149e-07 8.70686e-12)
(0.00321402 -0.00731221 -1.34029e-07 0.0177517 3.3037e-07 7.67338e-12)
(0.00321406 -0.00731222 -1.22724e-07 0.0177516 3.01845e-07 6.38072e-12)
(0.00321409 -0.00731223 -1.09379e-07 0.0177515 2.68272e-07 5.00823e-12)
(0.00321413 -0.00731225 -9.40387e-08 0.0177514 2.29766e-07 3.64835e-12)
(0.00321416 -0.00731225 -7.78956e-08 0.0177513 1.89521e-07 2.46296e-12)
(0.00321418 -0.00731226 -5.87362e-08 0.0177512 1.41898e-07 1.39332e-12)
(0.0032142 -0.00731226 -4.04059e-08 0.0177511 9.70366e-08 6.66448e-13)
(0.00321423 -0.00731229 -2.07239e-08 0.0177511 4.8914e-08 1.91866e-13)
(0.00320845 -0.00730498 -5.43671e-09 0.0177499 1.19859e-08 1.90248e-14)
(0.00188578 -0.00405501 1.05525e-09 0.0174079 -4.12124e-09 1.47692e-14)
(0.00188902 -0.00406206 1.1557e-08 0.017409 -4.91274e-08 2.7043e-13)
(0.00188896 -0.00406198 2.35881e-08 0.017409 -1.01568e-07 9.54022e-13)
(0.00188887 -0.00406186 3.31229e-08 0.0174091 -1.39148e-07 1.7721e-12)
(0.00188876 -0.00406171 4.18147e-08 0.0174091 -1.71983e-07 2.68924e-12)
(0.00188863 -0.00406154 4.91389e-08 0.0174091 -2.00022e-07 3.61784e-12)
(0.00188848 -0.00406134 5.53231e-08 0.0174091 -2.23448e-07 4.47552e-12)
(0.00188831 -0.00406112 5.97929e-08 0.0174091 -2.394e-07 5.11527e-12)
(0.00188813 -0.00406088 6.28194e-08 0.0174091 -2.49457e-07 5.52319e-12)
(0.00188794 -0.00406063 6.4121e-08 0.0174091 -2.52014e-07 5.62009e-12)
(0.00188775 -0.00406038 6.38833e-08 0.0174091 -2.48508e-07 5.44379e-12)
(0.00188756 -0.00406014 6.19866e-08 0.0174091 -2.38136e-07 4.9883e-12)
(0.00188737 -0.0040599 5.87557e-08 0.0174091 -2.23036e-07 4.35407e-12)
(0.0018872 -0.00405968 5.41632e-08 0.0174091 -2.0248e-07 3.57476e-12)
(0.00188704 -0.00405948 4.89366e-08 0.0174091 -1.80118e-07 2.79824e-12)
(0.0018869 -0.0040593 4.30826e-08 0.0174091 -1.54821e-07 2.05168e-12)
(0.00188678 -0.00405916 3.75608e-08 0.0174091 -1.28963e-07 1.42093e-12)
(0.00188668 -0.00405905 3.27746e-08 0.0174091 -1.05307e-07 9.58218e-13)
(0.00188661 -0.00405897 2.64025e-08 0.017409 -8.21923e-08 5.76333e-13)
(0.0018833 -0.00405184 1.21956e-08 0.0174079 -3.8804e-08 1.20148e-13)
(0.000274834 0.000395721 7.18251e-10 0.0287075 5.54672e-08 1.51737e-13)
(0.000274542 0.000386836 1.33945e-09 0.0287095 1.45153e-07 1.09387e-12)
(0.00027455 0.000386833 1.5541e-09 0.0287094 2.14646e-07 2.55239e-12)
(0.000274563 0.000386841 2.087e-09 0.0287094 2.88822e-07 4.66327e-12)
(0.000274579 0.000386836 2.62817e-09 0.0287094 3.5251e-07 7.0138e-12)
(0.000274598 0.000386827 2.93863e-09 0.0287094 4.03746e-07 9.27535e-12)
(0.00027462 0.000386816 3.08225e-09 0.0287094 4.39161e-07 1.11062e-11)
(0.000274643 0.000386802 3.08892e-09 0.0287094 4.61194e-07 1.23837e-11)
(0.000274668 0.000386788 2.92026e-09 0.0287094 4.67534e-07 1.2904e-11)
(0.000274694 0.000386771 2.63666e-09 0.0287093 4.60642e-07 1.27022e-11)
(0.00027472 0.000386753 2.21735e-09 0.0287093 4.40541e-07 1.17972e-11)
(0.000274746 0.000386734 1.73816e-09 0.0287092 4.10218e-07 1.03736e-11)
(0.00027477 0.000386714 1.19546e-09 0.0287091 3.70668e-07 8.58603e-12)
(0.000274793 0.000386693 6.94412e-10 0.028709 3.2601e-07 6.70062e-12)
(0.000274813 0.000386669 2.20071e-10 0.028709 2.76476e-07 4.86189e-12)
(0.000274831 0.000386645 -1.38971e-10 0.0287089 2.26175e-07 3.27308e-12)
(0.000274846 0.00038662 -3.57272e-10 0.0287088 1.70172e-07 1.93979e-12)
(0.000274857 0.000386588 -5.14452e-10 0.0287087 1.06888e-07 9.11513e-13)
(0.000274865 0.000386553 -8.61333e-10 0.0287087 3.83441e-08 2.17334e-13)
(0.000275168 0.000395475 -5.83227e-10 0.0287067 3.76763e-09 1.52237e-14)
(0.0118605 0.0182948 -1.65165e-09 0.0294741 -4.7396e-09 5.65635e-14)
(0.0118493 0.0182865 -3.78658e-08 0.029476 -6.86606e-08 7.35341e-13)
(0.0118494 0.0182865 -7.01902e-08 0.0294759 -1.28457e-07 2.24524e-12)
(0.0118496 0.0182867 -9.13769e-08 0.0294759 -1.70299e-07 4.30498e-12)
(0.0118498 0.0182868 -1.20044e-07 0.0294758 -2.23721e-07 7.04057e-12)
(0.01185 0.018287 -1.3921e-07 0.0294757 -2.61816e-07 9.88457e-12)
(0.0118502 0.0182873 -1.58883e-07 0.0294756 -2.99996e-07 1.28423e-11)
(0.0118505 0.0182876 -1.71903e-07 0.0294755 -3.26987e-07 1.54711e-11)
(0.0118508 0.0182878 -1.82144e-07 0.0294753 -3.48583e-07 1.76735e-11)
(0.0118511 0.0182882 -1.86653e-07 0.0294752 -3.60083e-07 1.91618e-11)
(0.0118514 0.0182885 -1.87516e-07 0.0294751 -3.64488e-07 1.9874e-11)
(0.0118517 0.0182888 -1.83065e-07 0.029475 -3.59146e-07 1.96866e-11)
(0.011852 0.0182891 -1.7588e-07 0.0294749 -3.47856e-07 1.86933e-11)
(0.0118523 0.0182894 -1.63557e-07 0.0294748 -3.26906e-07 1.68984e-11)
(0.0118526 0.0182897 -1.51042e-07 0.0294747 -3.03755e-07 1.4592e-11)
(0.0118528 0.01829 -1.31691e-07 0.0294746 -2.68108e-07 1.17607e-11)
(0.011853 0.0182902 -1.16647e-07 0.0294746 -2.37382e-07 8.92612e-12)
(0.0118531 0.0182904 -8.92985e-08 0.0294745 -1.854e-07 5.87041e-12)
(0.0118532 0.0182905 -6.33081e-08 0.0294746 -1.33751e-07 3.13117e-12)
(0.0118645 0.0182989 -3.20639e-08 0.0294727 -6.46871e-08 5.55316e-13)
(0.0160248 0.0154778 2.21752e-08 0.0152556 2.16142e-08 1.38488e-13)
(0.0160117 0.0154724 5.88286e-08 0.0152574 5.83379e-08 1.1478e-12)
(0.0160118 0.0154725 1.15094e-07 0.0152574 1.14645e-07 3.31292e-12)
(0.0160119 0.0154726 1.70589e-07 0.0152576 1.70035e-07 6.3835e-12)
(0.016012 0.0154727 2.06232e-07 0.0152578 2.05785e-07 9.55827e-12)
(0.0160121 0.0154729 2.38875e-07 0.015258 2.38471e-07 1.27793e-11)
(0.0160123 0.0154731 2.58177e-07 0.0152582 2.58016e-07 1.53821e-11)
(0.0160124 0.0154733 2.71037e-07 0.0152585 2.7111e-07 1.72752e-11)
(0.0160126 0.0154735 2.73315e-07 0.0152588 2.73736e-07 1.81146e-11)
(0.0160127 0.0154738 2.68326e-07 0.0152591 2.69076e-07 1.79338e-11)
(0.0160129 0.015474 2.54881e-07 0.0152594 2.56003e-07 1.67315e-11)
(0.016013 0.0154742 2.35956e-07 0.0152597 2.37376e-07 1.47619e-11)
(0.0160131 0.0154744 2.10723e-07 0.01526 2.12423e-07 1.22412e-11)
(0.0160132 0.0154746 1.83989e-07 0.0152603 1.85826e-07 9.59328e-12)
(0.0160133 0.0154747 1.53403e-07 0.0152605 1.55354e-07 7.0189e-12)
(0.0160134 0.0154749 1.2809e-07 0.0152607 1.29925e-07 4.87166e-12)
(0.0160134 0.015475 9.7889e-08 0.0152609 9.96533e-08 3.03939e-12)
(0.0160134 0.015475 8.09701e-08 0.015261 8.23889e-08 1.71319e-12)
(0.0160134 0.0154751 6.36853e-08 0.0152612 6.4549e-08 7.47088e-13)
(0.0160265 0.0154806 2.14977e-08 0.0152595 2.19821e-08 1.08236e-13)
(0.215762 0.0576814 -1.15447e-07 0.0160261 -3.93999e-08 5.76491e-13)
(0.215719 0.0576779 -1.18867e-07 0.0160275 -4.23048e-08 2.6624e-12)
(0.215722 0.0576777 -7.18984e-08 0.0160271 -3.24756e-08 6.90255e-12)
(0.215722 0.0576775 3.65647e-08 0.016027 -7.65788e-09 1.27683e-11)
(0.215723 0.0576772 2.05791e-08 0.0160267 -1.64216e-08 1.95922e-11)
(0.215724 0.0576769 3.23774e-08 0.0160264 -1.74091e-08 2.65568e-11)
(0.215725 0.0576765 7.324e-09 0.0160261 -2.81574e-08 3.29218e-11)
(0.215726 0.0576761 -1.04825e-08 0.0160257 -3.62678e-08 3.80163e-11)
(0.215728 0.0576757 -4.2001e-08 0.0160253 -4.753e-08 4.13439e-11)
(0.215729 0.0576753 -7.14036e-08 0.0160249 -5.73711e-08 4.26148e-11)
(0.215731 0.0576749 -1.06493e-07 0.0160245 -6.80021e-08 4.18093e-11)
(0.215732 0.0576745 -1.36956e-07 0.0160242 -7.64264e-08 3.91236e-11)
(0.215734 0.0576741 -1.70531e-07 0.0160238 -8.48698e-08 3.49738e-11)
(0.215735 0.0576738 -1.89913e-07 0.0160234 -8.83934e-08 2.98517e-11)
(0.215736 0.0576735 -2.14551e-07 0.0160231 -9.26192e-08 2.42944e-11)
(0.215738 0.0576733 -1.96893e-07 0.0160228 -8.4323e-08 1.86099e-11)
(0.215739 0.0576731 -2.0453e-07 0.0160226 -8.18808e-08 1.32488e-11)
(0.21574 0.0576729 -7.88882e-08 0.0160224 -4.21164e-08 8.21452e-12)
(0.215738 0.0576729 2.31373e-09 0.0160224 -1.18785e-08 4.34945e-12)
(0.215781 0.0576762 7.00781e-08 0.0160209 1.86159e-08 7.43215e-13)
(0.0082242 -0.00583397 -1.74569e-08 0.00630628 2.10775e-08 3.24154e-13)
(0.00821876 -0.0058305 -2.7577e-08 0.00630692 1.90831e-08 2.16467e-12)
(0.00821882 -0.00583047 -4.80904e-08 0.0063068 3.57184e-08 6.01094e-12)
(0.00821882 -0.00583038 -6.06757e-08 0.00630668 4.13849e-08 1.10913e-11)
(0.00821881 -0.00583026 -7.98619e-08 0.00630652 5.69141e-08 1.70076e-11)
(0.00821881 -0.00583011 -9.34108e-08 0.00630632 6.57049e-08 2.28229e-11)
(0.00821881 -0.00582995 -1.07523e-07 0.0063061 7.68171e-08 2.80608e-11)
(0.0082188 -0.00582977 -1.18121e-07 0.00630585 8.42877e-08 3.21138e-11)