/*--------------------------------*- C++ -*----------------------------------*\
| =========                 |                                                 |
| \\      /  F ield         | OpenFOAM: The Open Source CFD Toolbox           |
|  \\    /   O peration     | Version:  2212                                  |
|   \\  /    A nd           | Website:  www.openfoam.com                      |
|    \\/     M anipulation  |                                                 |
\*---------------------------------------------------------------------------*/
FoamFile
{
    version     2.0;
    format      ascii;
    arch        "LSB;label=32;scalar=64";
    class       volScalarField;
    location    "0.0185";
    object      nut;
}
// * * * * * * * * * * * * * * * * * * * * * * * * * * * * * * * * * * * * * //

dimensions      [0 2 -1 0 0 0 0];

internalField   nonuniform List<scalar> 
7220
(
0.0528696
0.378878
0.36745
0.354536
0.378218
0.367205
0.194279
0.241097
0.222527
0.230697
0.0397999
0.114111
0.386167
0.109827
0.0584148
0.088678
0.126359
0.10399
0.242904
0.0693371
0.128306
0.0846574
0.355229
0.0832621
0.294423
0.060685
0.162805
0.10824
0.0712953
0.407901
0.256446
0.41858
0.395045
0.400211
0.0504596
0.100258
0.347379
0.0409483
0.0403563
0.157681
0.15835
0.161931
0.161269
0.0934056
0.0933277
0.0963467
0.0965756
0.0962822
0.158863
0.15917
0.162612
0.162398
0.159214
0.158932
0.161997
0.162503
0.158255
0.157111
0.159469
0.161013
0.15542
0.153095
0.154413
0.157293
0.150087
0.146441
0.146442
0.150791
0.142353
0.138249
0.136275
0.141482
0.134388
0.130272
0.126548
0.13144
0.121271
0.0957307
0.0945507
0.118338
0.0671731
0.0716973
0.0647694
0.0629387
0.0936426
0.0826863
0.0883763
0.0976394
0.0995166
0.0918124
0.156897
0.160464
0.160326
0.159757
0.0926159
0.0958749
0.0994028
0.0989789
0.104243
0.0869107
0.0976268
0.13752
0.0994955
0.147605
0.147787
0.148139
0.147602
0.150682
0.149307
0.152658
0.151853
0.153257
0.153107
0.152886
0.153168
0.151882
0.152446
0.150494
0.151224
0.160876
0.160716
0.160295
0.160752
0.158331
0.159499
0.154682
0.156741
0.149046
0.152114
0.142349
0.145626
0.136135
0.139479
0.0972382
0.127039
0.0755989
0.0723773
0.0861484
0.104234
0.149712
0.159057
0.0904129
0.0911856
0.0920053
0.0985733
0.103004
0.101882
0.107975
0.0901347
0.101075
0.10444
0.12273
0.114583
0.115448
0.124982
0.126484
0.103591
0.155567
0.153543
0.152004
0.153893
0.149466
0.150395
0.148218
0.148851
0.146621
0.147465
0.14483
0.145732
0.143045
0.143931
0.141316
0.142175
0.14888
0.139543
0.140435
0.15956
0.156031
0.152808
0.15227
0.158263
0.153637
0.153273
0.15393
0.153866
0.153492
0.153799
0.152407
0.15303
0.150667
0.151618
0.148567
0.149595
0.147634
0.147742
0.1483
0.147904
0.0976921
0.133043
0.0966658
0.0923249
0.0946921
0.0881879
0.0890306
0.0890704
0.095594
0.147996
0.138686
0.143086
0.142825
0.0954499
0.0874509
0.0915115
0.100542
0.115735
0.0831576
0.0841055
0.102523
0.0866602
0.108499
0.130045
0.124501
0.12544
0.130102
0.107758
0.113641
0.151942
0.136793
0.150239
0.152246
0.145237
0.147741
0.141442
0.143193
0.138252
0.139812
0.135429
0.136784
0.133067
0.134193
0.131014
0.132025
0.129188
0.130058
0.158596
0.155113
0.151685
0.15741
0.143505
0.143318
0.143702
0.143636
0.14363
0.143697
0.14347
0.143548
0.143467
0.143419
0.144333
0.143738
0.14558
0.145089
0.139204
0.145761
0.0979962
0.110831
0.108468
0.104907
0.104754
0.085242
0.128404
0.142547
0.0982591
0.0868291
0.0823269
0.0951409
0.104216
0.0925832
0.100482
0.0856619
0.101443
0.118679
0.118031
0.151077
0.142266
0.100224
0.0911463
0.0816188
0.0863298
0.0755839
0.0760128
0.0810634
0.0980584
0.107448
0.120946
0.114232
0.123807
0.124231
0.118337
0.121471
0.104586
0.113443
0.138564
0.109544
0.142694
0.144959
0.13767
0.140271
0.132424
0.13489
0.128312
0.13025
0.125046
0.126582
0.122482
0.123688
0.120332
0.121357
0.119442
0.127703
0.147095
0.137873
0.157604
0.154169
0.156529
0.131284
0.131276
0.131269
0.13135
0.131303
0.131524
0.131421
0.13183
0.131667
0.132446
0.132074
0.133863
0.13301
0.136448
0.135063
0.136694
0.137081
0.115522
0.132714
0.0974982
0.0950198
0.103171
0.101095
0.103869
0.0800934
0.0820845
0.0775878
0.0786854
0.0767151
0.101862
0.117492
0.131322
0.0940684
0.0956889
0.0883084
0.0708675
0.100814
0.0949692
0.0908118
0.0806643
0.100013
0.0698129
0.11029
0.0858849
0.102748
0.104561
0.0751203
0.115761
0.114613
0.111907
0.114429
0.105753
0.108854
0.099052
0.10285
0.109121
0.0950245
0.131253
0.129357
0.127713
0.129657
0.122451
0.125187
0.117929
0.119993
0.114727
0.116203
0.112285
0.113446
0.110335
0.111229
0.108989
0.109592
0.108158
0.108515
0.107907
0.127087
0.117053
0.146213
0.137114
0.156613
0.153219
0.150468
0.15565
0.131387
0.141992
0.119876
0.11919
0.119512
0.118692
0.118915
0.118432
0.118527
0.118507
0.118419
0.119037
0.118716
0.120166
0.119493
0.122616
0.121172
0.125955
0.124408
0.126026
0.126836
0.0918056
0.115378
0.0895291
0.0878505
0.0927562
0.0909956
0.0945929
0.077375
0.0817457
0.0729265
0.0746927
0.0717017
0.0999466
0.100566
0.0979695
0.0998145
0.086316
0.0852077
0.0858872
0.100558
0.100463
0.131478
0.120277
0.0948124
0.0904079
0.0855129
0.0688223
0.0632088
0.0621393
0.0680981
0.0983634
0.100449
0.0802736
0.0999655
0.0966448
0.0744695
0.0997139
0.10596
0.103808
0.103819
0.105641
0.09851
0.101311
0.0926674
0.095602
0.0879787
0.0900337
0.0873011
0.0862169
0.117888
0.105681
0.11847
0.11951
0.113739
0.116391
0.109035
0.11115
0.106008
0.107367
0.103769
0.104838
0.102134
0.102873
0.101085
0.10154
0.10076
0.107749
0.126553
0.116705
0.145375
0.136419
0.155649
0.152287
0.149878
0.154795
0.141738
0.108716
0.107611
0.108137
0.106762
0.10715
0.106255
0.106459
0.106225
0.106169
0.106873
0.106449
0.108373
0.107477
0.111303
0.109654
0.113971
0.112799
0.11133
0.11495
0.0797809
0.090194
0.0791484
0.0787342
0.0818054
0.0802485
0.0835525
0.0769219
0.0823878
0.0690036
0.0722214
0.0656528
0.0669224
0.0648441
0.0998554
0.0954856
0.100455
0.109338
0.0745864
0.0757721
0.0946952
0.097476
0.0979826
0.094421
0.0900931
0.0852019
0.0613331
0.067513
0.0491835
0.0739359
0.30076
0.079841
0.0920237
0.0894425
0.0950494
0.0927135
0.0946134
0.0956278
0.0904752
0.0927197
0.0856686
0.0880761
0.0809465
0.0832737
0.0772172
0.0788092
0.077252
0.0765509
0.103374
0.0832659
0.111979
0.111861
0.107919
0.110319
0.103139
0.105348
0.100063
0.101422
0.0979579
0.0989127
0.0965116
0.0971636
0.0956282
0.0959999
0.095288
0.0953945
0.0953814
0.0952935
0.0955485
0.10767
0.100528
0.1261
0.116438
0.144598
0.135796
0.154734
0.151399
0.149322
0.153986
0.131595
0.141513
0.109988
0.120701
0.10046
0.0989835
0.099702
0.0976955
0.0983066
0.0967248
0.0971646
0.0961645
0.0963864
0.0961519
0.0960773
0.0969603
0.096427
0.0989188
0.0977607
0.101923
0.100441
0.103459
0.103018
0.0894275
0.101456
0.0705319
0.0744473
0.0699763
0.0696593
0.0720924
0.0709054
0.0733303
0.0751007
0.0766834
0.0768008
0.0669399
0.0712863
0.0609829
0.0634125
0.0577829
0.0593303
0.0553991
0.0565141
0.0530968
0.0537325
0.0606747
0.0545107
0.0994771
0.30121
0.0895664
0.0860183
0.0975894
0.35342
0.0927848
0.0930416
0.110658
0.101253
0.0942277
0.0601342
0.0898969
0.0670315
0.0734914
0.0849133
0.079449
0.252554
0.307673
0.308984
0.309077
0.272448
0.298291
0.0934879
0.0967958
0.296307
0.0927169
0.0476071
0.0484763
0.100613
0.100316
0.088018
0.297793
0.0832035
0.262253
0.0870566
0.0812758
0.263506
0.0707944
0.0800004
0.073689
0.0720904
0.0788791
0.0760012
0.083955
0.0817896
0.0846336
0.084964
0.0818838
0.0835008
0.0781878
0.0800637
0.0746083
0.0763549
0.071473
0.0729709
0.069269
0.0701681
0.0702104
0.0691079
0.0851349
0.0738205
0.108295
0.103896
0.105444
0.107257
0.100807
0.103207
0.0972963
0.0988207
0.0951367
0.0960997
0.0936935
0.0943413
0.0928484
0.0931944
0.0925931
0.0926534
0.0926344
0.0958062
0.107664
0.100676
0.125728
0.116253
0.143893
0.135248
0.153883
0.150575
0.148815
0.153238
0.131739
0.141323
0.121147
0.0928496
0.0913737
0.0920877
0.0901326
0.0907139
0.0892584
0.0896439
0.0888464
0.0889887
0.0890172
0.0888468
0.0901033
0.0894071
0.0926989
0.0911986
0.0959268
0.0944587
0.0964521
0.0968173
0.072956
0.0892422
0.0636851
0.0660281
0.0631903
0.0630305
0.0644045
0.0637364
0.0658043
0.0650893
0.0672863
0.0665529
0.0681403
0.0678988
0.0652983
0.0674816
0.0585627
0.0619291
0.053497
0.0557162
0.0505663
0.0518345
0.0494108
0.310213
0.308894
0.30523
0.0990547
0.0997692
0.312671
0.074673
0.0555319
0.0539462
0.0933794
0.0936649
0.305773
0.0963948
0.100521
0.100938
0.0976465
0.0597244
0.311148
0.0921931
0.0451449
0.0443344
0.0467319
0.0941795
0.0666345
0.0731297
0.0863863
0.137237
0.0897515
0.108579
0.0791218
0.310079
0.0846489
0.0791142
0.312481
0.315242
0.0537628
0.305722
0.309777
0.366541
0.0685854
0.0661191
0.0732555
0.0711748
0.0746989
0.0744498
0.0731125
0.0741358
0.0706466
0.0719196
0.0681876
0.0693865
0.0661514
0.0670962
0.0648445
0.0653919
0.0645364
0.0645353
0.0665087
0.0650656
0.0767464
0.0696496
0.104111
0.092522
0.105601
0.106189
0.101591
0.10377
0.0975186
0.0993448
0.0949846
0.0960986
0.0934129
0.0941008
0.0925927
0.0929121
0.0924177
0.092437
0.0927577
0.092525
0.0935263
0.0931022
0.0940163
0.0961254
0.0937779
0.107734
0.100888
0.125437
0.116148
0.143267
0.13478
0.153112
0.149831
0.148365
0.15256
0.131912
0.141176
0.111347
0.121613
0.0945129
0.10207
0.0891139
0.0875369
0.0883034
0.0861863
0.0868251
0.0851295
0.0856197
0.0844716
0.0847413
0.0843334
0.0843326
0.0848382
0.0844914
0.0863655
0.0854313
0.0894714
0.0877382
0.0920974
0.090979
0.0895628
0.0924655
0.0659234
0.0763279
0.0598713
0.06167
0.0588908
0.0591148
0.0590311
0.058914
0.0594157
0.0591961
0.0600108
0.0596889
0.060684
0.0603581
0.0606093
0.0608548
0.0573219
0.0594907
0.0516794
0.0545286
0.0474917
0.0492602
0.0461914
0.283018
0.297299
0.0622895
0.277155
0.301116
0.0989576
0.100026
0.296454
0.0598377
0.0595388
0.28448
0.288568
0.223551
0.0961681
0.0434007
0.0423679
0.0435535
0.0978267
0.100845
0.101328
0.282575
0.0663339
0.377632
0.0962993
0.0969454
0.0953819
0.0899596
0.072829
0.256861
0.0918511
0.0454462
0.285876
0.351783
0.327101
0.288045
0.270349
0.0942157
0.202581
0.20406
0.267439
0.0475007
0.217422
0.23508
0.085876
0.0487026
0.366293
0.383187
0.394759
0.384106
0.260971
0.0896417
0.0788467
0.0782507
0.313563
0.0844148
0.224059
0.236382
0.203121
0.0694011
0.317591
0.210302
0.313249
0.301044
0.0597261
0.362646
0.0532321
0.265287
0.0627053
0.0604627
0.0649171
0.0642084
0.0646925
0.0650511
0.0633754
0.0640918
0.0620699
0.0626999
0.061118
0.0615363
0.0607983
0.0608595
0.0613989
0.0609696
0.0630612
0.0620901
0.0663925
0.064406
0.0750473
0.0695164
0.100181
0.0858733
0.107124
0.106193
0.104102
0.106039
0.099677
0.101768
0.096737
0.0980084
0.0951391
0.0957972
0.094527
0.0947267
0.0946122
0.0944977
0.0952534
0.0948678
0.0957353
0.094568
0.0964892
0.0942239
0.107864
0.101152
0.125228
0.116115
0.142727
0.134399
0.152428
0.149175
0.147981
0.151967
0.132117
0.141076
0.112048
0.122098
0.1029
0.0860563
0.084601
0.0853004
0.0834114
0.0839655
0.0825462
0.0829396
0.0820779
0.0822504
0.0821855
0.0820489
0.0830935
0.0825188
0.0852266
0.0839743
0.0885396
0.0868421
0.0902857
0.0899221
0.0823347
0.0891366
0.063514
0.070187
0.0587216
0.0604121
0.0570091
0.0576965
0.056048
0.0564791
0.0554487
0.055702
0.0551776
0.0552769
0.0551536
0.0551379
0.0551916
0.0551938
0.054382
0.0549983
0.051287
0.0531332
0.0466764
0.0489647
0.0448057
0.29854
0.239183
0.194119
0.215863
0.277441
0.288956
0.26971
0.0990772
0.0411489
0.0415361
0.100342
0.225974
0.214299
0.206217
0.259072
0.22663
0.242797
0.283852
0.325231
0.0658506
0.066144
0.0601696
0.399091
0.0976816
0.0868644
0.0725825
0.311597
0.238274
0.288829
0.270786
0.306284
0.0961775
0.373067
0.0426052
0.315639
0.343535
0.275602
0.319048
0.279395
0.0980482
0.101239
0.101748
0.20182
0.251492
0.210566
0.221743
0.355104
0.348825
0.341577
0.35443
0.351229
0.267169
0.254734
0.339711
0.363195
0.30223
0.312866
0.243621
0.0916927
0.0447866
0.2728
0.36823
0.0829162
0.094267
0.21556
0.354116
0.347268
0.353452
0.0786194
0.0854095
0.0611057
0.0480933
0.293091
0.39345
0.207911
0.145759
0.183837
0.158194
0.313659
0.0895452
0.257042
0.243883
0.325096
0.336951
0.0939017
0.0475903
0.0842021
0.07728
0.318794
0.293563
0.278457
0.310897
0.207318
0.067808
0.317048
0.354461
0.339053
0.220451
0.306088
0.310464
0.0593555
0.0660421
0.128938
0.273567
0.262468
0.0526022
0.158312
0.0570323
0.0564349
0.0573926
0.0573499
0.0570839
0.0572797
0.0567354
0.0568856
0.0567763
0.0566983
0.0574084
0.0570069
0.0588369
0.0580089
0.0612626
0.0599162
0.0647027
0.0628646
0.0693521
0.0668047
0.0776071
0.0727019
0.0974302
0.0858319
0.107854
0.105406
0.106411
0.107992
0.102582
0.104558
0.0996501
0.1009
0.0983851
0.0988295
0.0983377
0.0982471
0.0989809
0.0985867
0.100156
0.0995164
0.10171
0.100886
0.103713
0.102645
0.104931
0.0951831
0.0985193
0.0968849
0.0947105
0.108044
0.101452
0.125099
0.116148
0.142283
0.134107
0.151839
0.148617
0.14767
0.151464
0.132358
0.141031
0.11276
0.122603
0.0962657
0.103738
0.0877212
0.0908345
0.087047
0.0853636
0.0861705
0.0839593
0.0846267
0.0828402
0.0833623
0.0820499
0.0824052
0.0816074
0.0817736
0.0817577
0.081588
0.0828602
0.0821635
0.0852763
0.0838984
0.0882062
0.086848
0.088535
0.0889552
0.0777528
0.0859131
0.064314
0.0690751
0.0598841
0.061657
0.0574208
0.0585519
0.0554549
0.0563951
0.0538925
0.0546157
0.0527764
0.0532832
0.0520196
0.0523583
0.0515176
0.051748
0.0510104
0.0512951
0.0498705
0.0505874
0.0472126
0.0487776
0.0436487
0.0453876
0.0422225
0.072411
0.0552731
0.378911
0.308652
0.333579
0.30275
0.253702
0.166444
0.215057
0.190405
0.259351
0.24052
0.288873
0.27544
0.299728
0.0993337
0.0407898
0.129733
0.270291
0.100691
0.20387
0.236146
0.352801
0.269131
0.0947737
0.219299
0.0543751
0.353752
0.363741
0.392558
0.378304
0.227168
0.182705
0.125776
0.185049
0.269966
0.285769
0.33225
0.317584
0.313539
0.255084
0.297194
0.28329
0.293645
0.0963373
0.041951
0.296342
0.34884
0.385115
0.298099
0.0983013
0.101689
0.102214
0.211085
0.251055
0.215173
0.224015
0.357996
0.0784383
0.337799
0.112771
0.114581
0.0886293
0.0879953
0.30428
0.262933
0.0916606
0.0756452
0.0442085
0.319877
0.383452
0.17463
0.126948
0.312862
0.0943216
0.234366
0.346733
0.0522887
0.0840204
0.0690467
0.0849915
0.0474583
0.3499
0.318824
0.089472
0.265919
0.325469
0.214426
0.0762809
0.318554
0.345383
0.350832
0.297842
0.214787
0.0664895
0.311791
0.327984
0.0589362
0.0658473
0.297856
0.292538
0.072294
0.399422
0.252458
0.285025
0.263037
0.0519359
0.256291
0.286368
0.113538
0.281677
0.0525451
0.0487227
0.0507874
0.0504585
0.051553
0.0512143
0.0520328
0.0517988
0.0525778
0.0522695
0.0535092
0.0529816
0.0550207
0.0541825
0.0572667
0.0560452
0.0603495
0.0586975
0.0643463
0.062234
0.0691463
0.0666639
0.0747221
0.0717926
0.0827947
0.0782124
0.0982979
0.0895699
0.107841
0.105269
0.107868
0.108505
0.105278
0.106555
0.103121
0.10401
0.102769
0.102721
0.103709
0.103149
0.105294
0.104436
0.107324
0.106263
0.109745
0.108477
0.111167
0.106316
0.0958664
0.09947
0.0973032
0.0952342
0.108261
0.101776
0.125041
0.116235
0.141933
0.133899
0.151347
0.148157
0.147436
0.151053
0.132634
0.141041
0.113481
0.123128
0.0971648
0.104583
0.0917405
0.0887816
0.086922
0.0878088
0.0853965
0.0861193
0.0841717
0.0847485
0.083237
0.0836644
0.0825636
0.0828594
0.0824263
0.0823969
0.0833492
0.0827251
0.0855128
0.0843116
0.0875998
0.0866433
0.0868838
0.0877297
0.0770603
0.0837321
0.0671363
0.0708819
0.0628947
0.0647245
0.0599105
0.0613514
0.0571711
0.058515
0.054747
0.0559051
0.0527926
0.0537092
0.0513093
0.0519981
0.0501943
0.0507119
0.0493124
0.0497365
0.0484691
0.0489035
0.0473104
0.0479711
0.045201
0.0463872
0.0427375
0.0439278
0.0417224
0.105208
0.177432
0.138098
0.252098
0.217353
0.297936
0.294595
0.278098
0.356515
0.344991
0.336823
0.340271
0.333282
0.371004
0.368334
0.385872
0.356222
0.368934
0.305766
0.335382
0.268585
0.134348
0.169456
0.0578504
0.301797
0.30781
0.268689
0.102474
0.0815568
0.089582
0.14183
0.120124
0.192667
0.166613
0.239964
0.217968
0.274862
0.259024
0.286595
0.099686
0.0402333
0.325482
0.0584531
0.388111
0.292031
0.101081
0.210869
0.236448
0.364072
0.361307
0.366815
0.0783151
0.0469233
0.103308
0.0425461
0.244242
0.116614
0.0898426
0.0489428
0.136442
0.3372
0.319846
0.347484
0.0634282
0.140191
0.20777
0.234669
0.303762
0.281937
0.310333
0.272708
0.303764
0.294281
0.2717
0.0965789
0.039423
0.0414618
0.3348
0.370065
0.0470532
0.0508394
0.395369
0.387703
0.301854
0.310214
0.0482304
0.0501213
0.0985727
0.102179
0.102725
0.228342
0.0555809
0.0597548
0.0545643
0.254974
0.227148
0.232916
0.354981
0.0491223
0.252497
0.258929
0.120742
0.0838685
0.0857724
0.0402505
0.102274
0.078426
0.281361
0.276924
0.0916715
0.0436788
0.351502
0.391013
0.144843
0.30286
0.306101
0.317893
0.0944126
0.256335
0.337885
0.0473365
0.228369
0.0894142
0.0845647
0.137587
0.13264
0.0468492
0.141693
0.138416
0.367141
0.367236
0.318718
0.324313
0.35759
0.286622
0.314568
0.21942
0.0753671
0.128913
0.137788
0.351203
0.359921
0.314182
0.344475
0.0585623
0.0655183
0.131563
0.0647167
0.0728261
0.0802221
0.0906645
0.100466
0.110977
0.121829
0.305074
0.313264
0.072149
0.400179
0.23452
0.2916
0.272259
0.0782496
0.0667052
0.279531
0.309497
0.0513206
0.0468549
0.0454825
0.0440883
0.0463883
0.0452859
0.0478029
0.0472547
0.0488764
0.0483192
0.0501375
0.0494719
0.0518215
0.0509138
0.0541076
0.0528801
0.057081
0.0555034
0.0607996
0.0588493
0.0652136
0.0629208
0.0702659
0.0676684
0.0757411
0.0729708
0.0815465
0.0785683
0.0890262
0.0848958
0.100685
0.0945464
0.107458
0.105471
0.107937
0.108021
0.10695
0.107356
0.106485
0.106555
0.107793
0.106934
0.11023
0.108933
0.11314
0.111638
0.116436
0.114734
0.120194
0.118246
0.124698
0.122331
0.130195
0.127313
0.133366
0.107887
0.118892
0.0966249
0.100546
0.0977407
0.0957978
0.108503
0.102116
0.12505
0.116368
0.141686
0.133777
0.150965
0.147809
0.147294
0.150748
0.13296
0.141122
0.114219
0.123682
0.098087
0.105444
0.0895947
0.0926848
0.0909954
0.0890206
0.0952611
0.0926547
0.0939094
0.0904258
0.0914943
0.0885504
0.0894463
0.0869764
0.0877306
0.0856306
0.0862769
0.0844495
0.085024
0.0836595
0.083965
0.0839518
0.0836346
0.0851909
0.0845611
0.0863121
0.0858893
0.0855605
0.086282
0.0783871
0.0829843
0.0709235
0.0739237
0.0671292
0.0688366
0.0640671
0.0655895
0.0609806
0.062529
0.057977
0.0594506
0.0552982
0.056585
0.0530864
0.0541353
0.0513234
0.0521561
0.0499187
0.0505825
0.0487777
0.0493168
0.0478253
0.0482845
0.0468199
0.0473643
0.0453029
0.0461261
0.0443908
0.175543
0.135764
0.2503
0.215622
0.292039
0.275963
0.305303
0.302217
0.299929
0.358134
0.351979
0.33304
0.342439
0.318007
0.324859
0.311319
0.265792
0.295592
0.35018
0.351506
0.32618
0.342845
0.266516
0.300569
0.183158
0.226081
0.140862
0.0549937
0.176584
0.258895
0.309475
0.283552
0.0840349
0.0663341
0.0730498
0.11955
0.0995637
0.168548
0.143223
0.216795
0.193594
0.253761
0.237179
0.265489
0.100085
0.0398272
0.352787
0.065364
0.0570188
0.393399
0.306095
0.0475235
0.0492091
0.101515
0.0665642
0.225797
0.0494893
0.0511345
0.24268
0.361968
0.0515386
0.0483785
0.18266
0.133579
0.100187
0.0554616
0.0703718
0.0837593
0.320886
0.0719258
0.398553
0.0585281
0.105001
0.0403802
0.0572998
0.0615321
0.0635726
0.233134
0.29024
0.396441
0.157946
0.262723
0.235865
0.294713
0.284585
0.301564
0.297687
0.0968504
0.0391806
0.0410488
0.361507
0.382311
0.0493677
0.398625
0.387369
0.309526
0.315856
0.0523483
0.0988714
0.102703
0.103278
0.0820922
0.0679306
0.0539827
0.249618
0.0582702
0.26145
0.243505
0.245987
0.348636
0.0520322
0.0475352
0.24416
0.0567734
0.089361
0.119534
0.145833
0.149915
0.0922403
0.0967092
0.232825
0.200768
0.206848
0.242118
0.278334
0.0916854
0.0431972
0.0617286
0.144983
0.141326
0.370808
0.25963
0.0428568
0.0440336
0.37697
0.308363
0.317866
0.289383
0.356107
0.0945245
0.100941
0.277731
0.0705844
0.372392
0.329104
0.0464899
0.231036
0.0471154
0.0462464
0.0748616
0.08418
0.0462928
0.145154
0.368216
0.301673
0.304693
0.314719
0.357335
0.253776
0.304902
0.0890078
0.0584107
0.0650962
0.074567
0.0519779
0.13315
0.364311
0.307766
0.334036
0.111798
0.0719466
0.397648
0.225414
0.360212
0.364459
0.298373
0.294865
0.0781787
0.252754
0.133962
0.28704
0.0836714
0.394977
0.267253
0.0688155
0.0931184
0.0668142
0.0417326
0.0437445
0.0452872
0.0445023
0.0467716
0.0460445
0.0484065
0.0475524
0.0502821
0.0493037
0.0525633
0.0513747
0.0553797
0.0538839
0.0588928
0.0570422
0.0630776
0.0609054
0.0677985
0.065383
0.072864
0.0702966
0.0781161
0.0754794
0.0833111
0.0807363
0.088437
0.0858492
0.0945534
0.0912542
0.102367
0.0984714
0.105998
0.105
0.106271
0.1062
0.106853
0.106383
0.108969
0.107779
0.11255
0.110567
0.117018
0.114749
0.121677
0.119322
0.126629
0.124091
0.132181
0.129321
0.138502
0.135222
0.142034
0.13685
0.109659
0.121439
0.0974681
0.101759
0.0982025
0.0964073
0.108774
0.102473
0.125139
0.116552
0.141575
0.133763
0.15072
0.147592
0.147274
0.150576
0.133369
0.141308
0.115002
0.124299
0.0990406
0.106338
0.0906171
0.0936694
0.090122
0.100977
0.0979102
0.0994022
0.0951703
0.0965004
0.0927353
0.0939169
0.090557
0.0916191
0.0885325
0.0895335
0.086566
0.0875451
0.0847628
0.0856073
0.0838693
0.0841605
0.0838057
0.0838038
0.0841328
0.0839805
0.0839458
0.084235
0.0797278
0.0824695
0.0746161
0.0768165
0.0716783
0.0730148
0.0691472
0.0704285
0.0663556
0.0677907
0.0633346
0.0648599
0.0603174
0.0618063
0.0575486
0.0588926
0.0551571
0.0562986
0.0531534
0.0541114
0.0515197
0.05229
0.0502506
0.0508369
0.0493275
0.049763
0.048383
0.0488837
0.0477842
0.0647463
0.105078
0.0802102
0.17918
0.139308
0.251601
0.218387
0.290582
0.275785
0.299127
0.29753
0.30093
0.297228
0.298168
0.365913
0.362595
0.346305
0.356116
0.321655
0.334351
0.298235
0.309476
0.274167
0.287113
0.257002
0.263919
0.320229
0.324715
0.289308
0.309369
0.223266
0.260106
0.142128
0.182419
0.0802206
0.106894
0.0628434
0.133119
0.20879
0.301071
0.291753
0.0572182
0.0563598
0.0552486
0.0701154
0.0620416
0.0981571
0.0820176
0.140574
0.118065
0.185168
0.163444
0.220257
0.204582
0.237194
0.231311
0.048328
0.100511
0.0395135
0.372688
0.0643951
0.0559093
0.394186
0.312885
0.0511384
0.101975
0.0745664
0.0537737
0.0509912
0.245158
0.0537708
0.25254
0.357968
0.0490956
0.0549978
0.256796
0.0893324
0.125406
0.28009
0.0658138
0.103178
0.314712
0.316793
0.16225
0.154298
0.10263
0.201024
0.17169
0.2467
0.0651417
0.113273
0.209736
0.182116
0.264314
0.283123
0.284444
0.286805
0.180311
0.189619
0.0971347
0.0390124
0.0407241
0.0543142
0.0681334
0.0582654
0.0551086
0.376698
0.389377
0.0481771
0.385636
0.311267
0.31622
0.239374
0.343104
0.0991893
0.103256
0.103873
0.091719
0.100169
0.0550235
0.0495966
0.075631
0.068555
0.271417
0.069719
0.0624452
0.260608
0.368818
0.341955
0.0584437
0.0462275
0.244417
0.0530093
0.0525936
0.0455963
0.194794
0.257167
0.0511861
0.0489671
0.0524195
0.0917354
0.0427988
0.0459938
0.0586292
0.11435
0.149318
0.113288
0.37668
0.115805
0.0429038
0.37587
0.307363
0.31425
0.0741383
0.297055
0.363427
0.247691
0.0946527
0.110075
0.36529
0.359075
0.36142
0.297057
0.0609756
0.0592636
0.12626
0.0777383
0.108668
0.08333
0.248776
0.0646615
0.321009
0.0838448
0.0573913
0.053209
0.0458273
0.045657
0.144076
0.0772661
0.109471
0.0430755
0.0407032
0.370242
0.303709
0.3089
0.299142
0.298034
0.304849
0.370484
0.352651
0.369654
0.413534
0.0998024
0.29242
0.0716819
0.390405
0.0491072
0.130523
0.0738227
0.129692
0.0903059
0.100768
0.124585
0.226527
0.368627
0.298295
0.302062
0.30148
0.302679
0.227654
0.319076
0.0780994
0.239648
0.131267
0.368976
0.293153
0.274922
0.0835844
0.0893354
0.128803
0.368427
0.285174
0.155985
0.138898
0.0969331
0.0433786
0.0533281
0.0400307
0.0351752
0.0379306
0.0425709
0.0494125
0.0496169
0.0493902
0.0504848
0.0499913
0.0517919
0.0510719
0.0538605
0.0527194
0.0565387
0.0551355
0.0597457
0.0580704
0.0634916
0.0615272
0.0678271
0.0655919
0.0725457
0.0701617
0.0773331
0.0749478
0.0819562
0.0796744
0.0862583
0.0841582
0.0900826
0.0882339
0.0935638
0.0918333
0.0973657
0.0953788
0.101294
0.0994896
0.102225
0.102179
0.102205
0.102077
0.104335
0.102876
0.109273
0.106598
0.115681
0.112349
0.122427
0.119073
0.129128
0.125765
0.135995
0.132522
0.143396
0.139611
0.151448
0.147338
0.16023
0.155744
0.169808
0.164918
0.174884
0.140661
0.158982
0.11165
0.124274
0.0984044
0.103123
0.0986928
0.0970692
0.10908
0.102854
0.125323
0.116797
0.141615
0.133882
0.150643
0.147531
0.14741
0.150571
0.133888
0.141627
0.115854
0.125004
0.100039
0.107286
0.091688
0.0946967
0.093558
0.0912835
0.104352
0.0982369
0.109651
0.106175
0.107903
0.102816
0.104477
0.0996134
0.101195
0.096561
0.0980696
0.0936341
0.0950844
0.0907608
0.0921989
0.0878113
0.0893011
0.0848056
0.0862955
0.0823956
0.0834739
0.0809025
0.0814787
0.0808057
0.080702
0.0813046
0.0811048
0.0797186
0.0808948
0.0770013
0.0782414
0.0753345
0.0760723
0.073948
0.0746616
0.0722202
0.0731431
0.0700157
0.0711757
0.0674364
0.0687605
0.0646779
0.0660661
0.0619948
0.063313
0.0595703
0.0607438
0.0574951
0.0584812
0.0558294
0.0565985
0.0546554
0.0551909
0.0537964
0.054199
0.0534124
0.0701353
0.0602544
0.11419
0.0875491
0.18787
0.149099
0.255505
0.224937
0.289992
0.277222
0.295975
0.295435
0.292784
0.294283
0.293368
0.341647
0.35239
0.312099
0.327798
0.279674
0.295768
0.245832
0.26334
0.225555
0.138261
0.190007
0.160845
0.220029
0.279357
0.283918
0.244165
0.266224
0.177294
0.213544
0.106908
0.140191
0.0640691
0.0811768
0.0537654
0.055517
0.0663111
0.156439
0.277831
0.286081
0.0523452
0.0512349
0.0599317
0.0550517
0.0783744
0.0675728
0.109146
0.0924143
0.145192
0.127199
0.174762
0.161377
0.189052
0.184392
0.192329
0.100956
0.0392862
0.0612474
0.0559956
0.38377
0.0635383
0.0547397
0.392498
0.313954
0.219746
0.123277
0.270543
0.31562
0.190619
0.106949
0.058535
0.0522782
0.0561172
0.0517674
0.109069
0.0528442
0.102483
0.0832906
0.050879
0.0515657
0.0623907
0.265418
0.0546506
0.0562007
0.264202
0.362431
0.353499
0.0469861
0.0623003
0.11727
0.168883
0.254165
0.118141
0.121056
0.0539199
0.248775
0.0500221
0.0686867
0.0530166
0.0520656
0.0850649
0.22178
0.0454564
0.0551117
0.077519
0.219118
0.258294
0.254722
0.0553111
0.0974568
0.0404432
0.0390049
0.0404977
0.0744913
0.107547
0.149039
0.130838
0.381207
0.0488226
0.384795
0.277299
0.0937525
0.0521691
0.0470643
0.382629
0.309634
0.313137
0.306441
0.299521
0.307854
0.315103
0.0676482
0.203672
0.207844
0.2443
0.302285
0.359023
0.238493
0.0638533
0.0444396
0.0995199
0.103836
0.104514
0.100869
0.359793
0.136239
0.143601
0.0556518
0.0837595
0.0759676
0.062663
0.396957
0.291824
0.0738863
0.0582783
0.0676924
0.245444
0.0643369
0.0543754
0.27496
0.374929
0.049576
0.0839119
0.335004
0.357128
0.131268
0.121603
0.17652
0.181136
0.106137
0.111414
0.116788
0.10437
0.0902361
0.199494
0.160672
0.210422
0.212983
0.0918421
0.0501959
0.0634357
0.0451989
0.0424277
0.0489754
0.0996459
0.153108
0.133997
0.39319
0.0418036
0.0782581
0.394337
0.375742
0.305786
0.309164
0.312769
0.0553606
0.293012
0.28134
0.365962
0.203131
0.0950139
0.0725918
0.0948061
0.117331
0.36439
0.0641121
0.0626201
0.314191
0.0870402
0.0563669
0.0713955
0.104655
0.2462
0.126301
0.14452
0.0835687
0.049083
0.0455834
0.044802
0.0344083
0.0365498
0.114868
0.138329
0.131702
0.234953
0.0398098
0.372595
0.304436
0.303471
0.309531
0.37434
0.249442
0.342623
0.100122
0.124557
0.12007
0.256065
0.112812
0.0779919
0.118783
0.0731588
0.0480004
0.0472417
0.236108
0.0497595
0.0423125
0.12431
0.371716
0.306185
0.297289
0.219641
0.300332
0.230396
0.0834614
0.0893352
0.128901
0.370906
0.291305
0.258237
0.0546267
0.123589
0.0551703
0.0715441
0.302772
0.0674246
0.0370673
0.0430967
0.0345964
0.0346011
0.035443
0.0404114
0.0365464
0.050577
0.0635594
0.061237
0.0621133
0.0606277
0.0607683
0.0610813
0.060761
0.0624875
0.0616666
0.064951
0.0635825
0.0681126
0.0664604
0.0717526
0.0698854
0.0757566
0.0737177
0.0799311
0.0778461
0.0838761
0.0819546
0.0873088
0.0856653
0.0901446
0.0888023
0.0923487
0.0913297
0.0939062
0.0932017
0.0949811
0.094488
0.0959514
0.0954538
0.096435
0.0963891
0.0951329
0.0959057
0.0948582
0.0946703
0.0982841
0.0959746
0.105789
0.101712
0.114725
0.110209
0.123563
0.119185
0.132174
0.127885
0.140655
0.136422
0.149305
0.144938
0.158218
0.15374
0.167302
0.16274
0.171898
0.180116
0.144812
0.163964
0.113878
0.127413
0.0994386
0.104649
0.0991993
0.0977812
0.109386
0.103234
0.125569
0.117066
0.141796
0.134105
0.150794
0.147667
0.147764
0.150797
0.134546
0.142133
0.116744
0.125794
0.101031
0.108241
0.092771
0.0957208
0.094934
0.0924793
0.0998386
0.110107
0.107182
0.108674
0.104058
0.105641
0.100787
0.102439
0.0973911
0.0991041
0.0938797
0.0956489
0.0902524
0.0920831
0.0864237
0.0883717
0.0823471
0.0844076
0.0785222
0.0803388
0.0759755
0.0769757
0.0757943
0.075619
0.0770404
0.0763373
0.0775619
0.0775259
0.0770181
0.0772877
0.0768794
0.0768902
0.0769853
0.0769336
0.0768952
0.0769855
0.0763499
0.07669
0.0752337
0.0758651
0.0735433
0.0744539
0.0714658
0.0725348
0.0692884
0.0703708
0.067223
0.0682283
0.0654308
0.0662821
0.0640704
0.0646997
0.0631361
0.0635535
0.0624537
0.0627832
0.0616419
0.0620941
0.0805927
0.0673647
0.130016
0.101275
0.201409
0.164851
0.261497
0.234773
0.289934
0.279772
0.292771
0.293489
0.288078
0.290237
0.289341
0.287882
0.293071
0.317549
0.34414
0.334406
0.338999
0.328091
0.354054
0.348168
0.355271
0.356739
0.338395
0.349142
0.305872
0.323645
0.265482
0.286209
0.221638
0.24401
0.172238
0.197833
0.145089
0.141999
0.117928
0.167282
0.221897
0.226588
0.188152
0.20899
0.130089
0.160373
0.0790878
0.101872
0.0533052
0.0631688
0.0477848
0.0510462
0.122266
0.174429
0.237216
0.257662
0.0506421
0.0536076
0.0517431
0.0502859
0.0501281
0.0535308
0.0513132
0.0629532
0.057277
0.0803849
0.0707124
0.103354
0.0914775
0.124831
0.114869
0.135809
0.131865
0.136557
0.101419
0.0391888
0.092217
0.143069
0.385575
0.0619538
0.147259
0.0627771
0.0536302
0.0645044
0.311575
0.324597
0.115732
0.340226
0.2173
0.22798
0.0603319
0.0580755
0.0607527
0.145274
0.0557366
0.0575171
0.0600793
0.061096
0.0512823
0.103028
0.0920876
0.129905
0.209479
0.0517894
0.0688633
0.0831442
0.0552564
0.0595874
0.0525794
0.275656
0.369782
0.14526
0.172997
0.346993
0.106379
0.15147
0.294256
0.0689929
0.0941196
0.0572026
0.0658384
0.110601
0.185698
0.111477
0.0612328
0.0686444
0.0881044
0.0542506
0.0596503
0.135034
0.166946
0.213016
0.20436
0.0977952
0.087643
0.0453147
0.0407017
0.0391819
0.0403541
0.0615901
0.0898025