/*--------------------------------*- C++ -*----------------------------------*\
| =========                 |                                                 |
| \\      /  F ield         | OpenFOAM: The Open Source CFD Toolbox           |
|  \\    /   O peration     | Version:  2212                                  |
|   \\  /    A nd           | Website:  www.openfoam.com                      |
|    \\/     M anipulation  |                                                 |
\*---------------------------------------------------------------------------*/
FoamFile
{
    version     2.0;
    format      ascii;
    arch        "LSB;label=32;scalar=64";
    class       surfaceScalarField;
    location    "0.000216";
    object      phi;
}
// * * * * * * * * * * * * * * * * * * * * * * * * * * * * * * * * * * * * * //

dimensions      [1 0 -1 0 0 0 0];

oriented        oriented;

internalField   nonuniform List<scalar> 
68983
(
-5.84897e-09
4.06272e-09
1.81357e-09
-7.50907e-09
1.70692e-09
-8.36753e-09
8.95657e-10
-9.04376e-09
8.52506e-10
-9.39118e-09
5.23185e-10
-9.53669e-09
2.71342e-10
-9.58216e-09
9.46174e-11
-9.30617e-09
6.40953e-12
-8.79507e-09
-8.27787e-11
-8.37399e-09
-1.21243e-10
-7.94001e-09
-1.48606e-10
-7.3798e-09
-2.06276e-10
-6.76582e-09
-2.36016e-10
-6.20035e-09
-2.23633e-10
-5.55514e-09
-2.3894e-10
-4.92291e-09
-2.63323e-10
-4.35125e-09
-2.50699e-10
-3.90196e-09
-2.44693e-10
-3.52733e-09
-2.52098e-10
-3.18409e-09
-2.28426e-10
-2.84085e-09
-2.07613e-10
-2.62782e-09
-2.48032e-10
-2.51813e-09
-2.58753e-10
-2.45932e-09
-2.57523e-10
-2.42365e-09
-2.60369e-10
-2.46427e-09
-2.41326e-10
-2.58874e-09
-2.08516e-10
-2.75241e-09
-2.08054e-10
-2.92427e-09
-2.06565e-10
-3.13351e-09
-2.10552e-10
-3.43291e-09
-2.4958e-10
-3.8807e-09
-3.06127e-10
-4.41562e-09
-3.22399e-10
-5.00056e-09
-3.38593e-10
-5.53501e-09
-3.47545e-10
-5.9998e-09
-3.40654e-10
-6.36872e-09
-3.43015e-10
-6.68655e-09
-3.47102e-10
-6.80668e-09
-2.73368e-10
-6.78336e-09
-2.37387e-10
-6.66158e-09
-1.83944e-10
-6.43715e-09
-1.60169e-10
-6.22767e-09
-1.92667e-10
-5.89801e-09
-1.54246e-10
-5.26999e-09
-1.16734e-10
-4.36442e-09
-1.13751e-10
-3.27344e-09
-1.30509e-10
-2.04926e-09
-1.87746e-10
-6.76136e-10
-2.48204e-10
8.53078e-10
-3.3193e-10
2.58833e-09
-3.90543e-10
4.51551e-09
-3.6118e-10
6.79345e-09
-3.66782e-10
9.35616e-09
-3.51465e-10
1.21328e-08
-3.97279e-10
1.52358e-08
-4.29926e-10
1.84617e-08
-4.34538e-10
2.13957e-08
-3.37867e-10
2.42374e-08
-4.31119e-10
2.67501e-08
-3.40673e-10
2.91387e-08
-3.68131e-10
3.14509e-08
-3.67058e-10
3.36319e-08
-4.20384e-10
3.55582e-08
-3.99196e-10
3.7168e-08
-3.54688e-10
3.84956e-08
-3.08857e-10
3.9594e-08
-3.5977e-10
4.04968e-08
-4.06488e-10
4.12276e-08
-3.56056e-10
4.17211e-08
-2.211e-10
4.19898e-08
-1.3239e-10
4.22662e-08
-2.89044e-10
4.25306e-08
-3.23993e-10
4.23121e-08
2.09902e-10
4.01561e-08
2.12638e-09
3.2248e-08
7.95226e-09
1.71876e-08
1.50367e-08
9.03673e-09
-5.82435e-09
1.19019e-08
-6.05624e-09
-1.75199e-09
-1.39149e-07
1.6002e-07
-2.1001e-08
-2.48449e-07
1.08984e-07
-2.29886e-07
-1.88068e-08
-2.19745e-07
-1.02155e-08
-2.0794e-07
-1.15612e-08
-1.91682e-07
-1.62636e-08
-1.74792e-07
-1.70636e-08
-1.61812e-07
-1.29926e-08
-1.48522e-07
-1.33273e-08
-1.38043e-07
-1.04209e-08
-1.27243e-07
-1.06241e-08
-1.18679e-07
-8.49412e-09
-1.10372e-07
-8.29239e-09
-1.03158e-07
-7.27277e-09
-9.61631e-08
-7.07723e-09
-8.94809e-08
-6.74329e-09
-8.30111e-08
-6.54317e-09
-7.72462e-08
-5.86164e-09
-7.20078e-08
-5.33305e-09
-6.72094e-08
-4.90782e-09
-6.29811e-08
-4.357e-09
-5.87641e-08
-4.28691e-09
-5.53354e-08
-3.43663e-09
-5.16672e-08
-3.63959e-09
-4.87003e-08
-2.9447e-09
-4.59395e-08
-2.78795e-09
-4.346e-08
-2.56404e-09
-4.11863e-08
-2.38582e-09
-3.8956e-08
-2.35771e-09
-3.68716e-08
-2.2172e-09
-3.51267e-08
-1.87976e-09
-3.33417e-08
-1.90303e-09
-3.18278e-08
-1.62009e-09
-3.03928e-08
-1.53155e-09
-2.91536e-08
-1.32179e-09
-2.78565e-08
-1.35538e-09
-2.66969e-08
-1.17233e-09
-2.56195e-08
-1.07099e-09
-2.45901e-08
-1.0236e-09
-2.36889e-08
-9.04033e-10
-2.27925e-08
-9.16325e-10
-2.20415e-08
-7.81555e-10
-2.13829e-08
-6.94364e-10
-2.07823e-08
-6.33765e-10
-2.03063e-08
-4.85637e-10
-2.0031e-08
-2.4775e-10
-1.98187e-08
-1.54084e-10
-1.93676e-08
-3.78568e-10
-1.74848e-08
-1.81689e-09
-5.53074e-09
5.6611e-08
1.03276e-07
6.88442e-08
-1.22584e-08
1.53306e-07
-8.46052e-08
1.35089e-07
1.84137e-08
1.12749e-07
2.23759e-08
9.36764e-08
1.90536e-08
7.62342e-08
1.74425e-08
6.13858e-08
1.48239e-08
4.83939e-08
1.30102e-08
3.7436e-08
1.09555e-08
2.93859e-08
8.0533e-09
2.3887e-08
5.47807e-09
1.96407e-08
4.27287e-09
1.64479e-08
3.1314e-09
1.43865e-08
2.10182e-09
1.23933e-08
1.90903e-09
1.07666e-08
1.65472e-09
9.68245e-09
1.10919e-09
8.3745e-09
1.22198e-09
7.51072e-09
9.38357e-10
6.70845e-09
7.44712e-10
5.84438e-09
9.08686e-10
5.53653e-09
3.30487e-10
4.76307e-09
7.52796e-10
4.44742e-09
2.89415e-10
3.93841e-09
5.74846e-10
3.6765e-09
2.38946e-10
3.30431e-09
2.94104e-10
3.07868e-09
1.54974e-10
2.80084e-09
3.99649e-10
2.66361e-09
7.95865e-11
2.3953e-09
2.77511e-10
2.31474e-09
7.71029e-11
2.09923e-09
1.66275e-10
2.00283e-09
1.03193e-11
1.83048e-09
1.69831e-10
1.75707e-09
6.01274e-11
1.63143e-09
2.87564e-10
1.6134e-09
2.03122e-10
1.52437e-09
1.44777e-10
1.41206e-09
-1.36237e-10
1.27734e-09
-6.82746e-11
1.18953e-09
2.04917e-10
1.12564e-09
1.0601e-10
1.0201e-09
1.46636e-10
9.44692e-10
1.12327e-10
8.55798e-10
1.47835e-10
7.75962e-10
1.45093e-10
7.02663e-10
1.47001e-10
6.54836e-10
1.73449e-10
6.37409e-10
5.01059e-10
6.29804e-10
1.41068e-09
7.45063e-10
1.70193e-09
9.11939e-10
1.83358e-09
9.77273e-10
1.49369e-09
9.7531e-10
1.24006e-09
9.57755e-10
7.66223e-10
8.83599e-10
4.86333e-10
8.80673e-10
4.37157e-10
8.70249e-10
3.37013e-10
8.17457e-10
4.50814e-10
7.67537e-10
4.89146e-10
7.08557e-10
4.45328e-10
6.59746e-10
3.49477e-10
6.53612e-10
4.74836e-10
6.50542e-10
5.75376e-10
5.76829e-10
6.5109e-10
5.20739e-10
4.94301e-10
5.24843e-10
4.11115e-10
4.98356e-10
5.13288e-10
4.53137e-10
8.13701e-10
4.82117e-10
8.55867e-10
5.38439e-10
5.56907e-10
5.05889e-10
7.00514e-11
4.98742e-10
9.6462e-11
5.01294e-10
4.91267e-11
5.08557e-10
2.53242e-11
5.26808e-10
4.86869e-11
5.60437e-10
1.89795e-10
6.01824e-10
3.52134e-10
6.29376e-10
5.64234e-10
6.1985e-10
7.49483e-10
6.07501e-10
7.17333e-10
6.42745e-10
6.75924e-10
6.90974e-10
5.93791e-10
7.46698e-10
5.48005e-10
7.90492e-10
4.80827e-10
8.25098e-10
3.97994e-10
7.34496e-10
2.15623e-10
6.88618e-10
5.79206e-10
6.71597e-10
6.11037e-10
6.87444e-10
6.77686e-10
7.46389e-10
6.08919e-10
8.60922e-10
4.08449e-10
8.98492e-10
-4.36043e-10
8.56296e-10
-5.29739e-10
8.52656e-10
-6.04069e-10
8.1496e-10
-6.18455e-10
7.6419e-10
-5.12688e-10
7.12672e-10
-3.73212e-10
6.63032e-10
-2.07402e-10
6.27404e-10
-1.20603e-11
6.1727e-10
1.39058e-10
6.27801e-10
2.60314e-10
6.64004e-10
3.35991e-10
7.07088e-10
4.01259e-10
7.51319e-10
4.46624e-10
7.83079e-10
5.19505e-10
8.16761e-10
6.36917e-10
8.74901e-10
6.8514e-10
9.28883e-10
5.91919e-10
9.66318e-10
4.13168e-10
9.73577e-10
2.87504e-10
9.92883e-10
2.52974e-10
1.02342e-09
3.08481e-10
1.11057e-09
3.44648e-10
1.24537e-09
3.78792e-10
1.46506e-09
3.34387e-10
2.17341e-09
-1.71812e-10
-3.14567e-09
5.92873e-09
1.12365e-07
-1.965e-07
1.87251e-07
1.16331e-07
-1.62635e-08
2.14453e-07
-1.8269e-07
2.01746e-07
3.09068e-08
1.91661e-07
3.23758e-08
1.7396e-07
3.67215e-08
1.47632e-07
4.3758e-08
1.21776e-07
4.06475e-08
1.02527e-07
3.22782e-08
8.53176e-08
2.8152e-08
7.02862e-08
2.30853e-08
5.9739e-08
1.59865e-08
5.0886e-08
1.31685e-08
4.4103e-08
9.84412e-09
3.91373e-08
7.13061e-09
3.41747e-08
6.77002e-09
3.01992e-08
5.64827e-09
2.71765e-08
4.16197e-09
2.37885e-08
4.51361e-09
2.15833e-08
3.22252e-09
1.90888e-08
3.18609e-09
1.71488e-08
2.88422e-09
1.592e-08
1.59141e-09
1.41194e-08
2.53357e-09
1.29642e-08
1.40493e-09
1.1757e-08
1.85151e-09
1.08569e-08
1.10516e-09
9.93878e-09
1.16437e-09
9.16705e-09
8.35055e-10
8.48903e-09
1.19664e-09
7.96522e-09
6.09574e-10
7.32678e-09
8.90895e-10
6.93484e-09
4.43512e-10
6.43483e-09
6.36715e-10
6.05e-09
3.2575e-10
5.63563e-09
5.67145e-10
5.34312e-09
3.23409e-10
5.0405e-09
7.41577e-10
4.92606e-09
5.16059e-10
4.62778e-09
5.25962e-10
4.28945e-09
-1.79184e-11
3.91943e-09
9.64752e-11
3.67369e-09
5.54475e-10
3.44664e-09
3.69924e-10
3.16714e-09
4.68024e-10
2.93778e-09
3.81316e-10
2.70023e-09
4.50203e-10
2.4685e-09
4.49488e-10
2.25572e-09
4.34488e-10
2.1153e-09
4.29836e-10
2.09632e-09
9.66634e-10
2.05508e-09
2.77636e-09
2.32081e-09
3.19057e-09
2.72182e-09
3.40371e-09
2.86846e-09
3.0158e-09
2.86081e-09
2.5948e-09
2.7876e-09
1.72815e-09
2.64508e-09
1.15847e-09
2.6482e-09
9.44117e-10
2.59378e-09
7.60064e-10
2.46088e-09
9.6948e-10
2.29297e-09
1.08192e-09
2.12289e-09
1.05229e-09
2.01473e-09
8.14975e-10
1.98737e-09
9.96009e-10
1.93194e-09
1.20481e-09
1.68949e-09
1.4614e-09
1.5734e-09
1.07249e-09
1.58368e-09
8.53684e-10
1.53159e-09
1.07743e-09
1.43059e-09
1.6984e-09
1.52215e-09
1.66851e-09
1.63002e-09
1.04643e-09
1.5454e-09
2.73872e-10
1.53392e-09
2.08263e-10
1.54239e-09
1.00935e-10
1.57804e-09
3.03591e-11
1.65537e-09
4.98031e-11
1.77391e-09
3.16057e-10
1.88494e-09
6.36989e-10
1.94833e-09
1.10224e-09
1.93515e-09
1.53737e-09
1.9256e-09
1.45944e-09
2.03765e-09
1.30032e-09
2.18311e-09
1.11545e-09
2.34244e-09
1.02037e-09
2.45257e-09
9.39378e-10
2.50173e-09
7.82415e-10
2.27222e-09
5.80805e-10
2.17848e-09
1.22037e-09
2.13599e-09
1.26802e-09
2.18835e-09
1.31336e-09
2.34832e-09
1.1651e-09
2.58449e-09
6.13565e-10
2.65332e-09
-7.14681e-10
2.50125e-09
-1.05679e-09
2.46133e-09
-1.18314e-09
2.35337e-09
-1.18725e-09
2.2228e-09
-9.68308e-10
2.09466e-09
-6.88563e-10
1.9795e-09
-3.64339e-10
1.90592e-09
2.70684e-12
1.89335e-09
2.81896e-10
1.93539e-09
4.96698e-10
2.03745e-09
6.19681e-10
2.16266e-09
7.38203e-10
2.29665e-09
8.23762e-10
2.40687e-09
9.82249e-10
2.52874e-09
1.20901e-09
2.68493e-09
1.29993e-09
2.8165e-09
1.13397e-09
2.89387e-09
8.12743e-10
2.92066e-09
5.77984e-10
2.97189e-09
4.91485e-10
3.07555e-09
5.60463e-10
3.31087e-09
5.59456e-10
3.67009e-09
5.56372e-10
4.23437e-09
3.47326e-10
5.74795e-09
-1.12707e-09
-5.73049e-09
8.94631e-09
-1.76101e-07
-4.14462e-08
-2.6117e-07
1.93624e-07
-2.31327e-07
-4.88946e-08
-2.28938e-07
-1.27152e-08
-2.19454e-07
-2.08873e-08
-2.07439e-07
-2.8305e-08
-1.94036e-07
-3.05958e-08
-1.83701e-07
-2.33625e-08
-1.7333e-07
-2.37828e-08
-1.64646e-07
-1.89558e-08
-1.55981e-07
-1.90974e-08
-1.48583e-07
-1.582e-08
-1.41495e-07
-1.53782e-08
-1.34576e-07
-1.42734e-08
-1.28192e-07
-1.3559e-08
-1.2193e-07
-1.30533e-08
-1.16891e-07
-1.16519e-08
-1.1188e-07
-1.09707e-08
-1.07697e-07
-9.61381e-09
-1.02816e-07
-9.90518e-09
-9.92146e-08
-8.08871e-09
-9.48091e-08
-8.76798e-09
-9.11448e-08
-7.10054e-09
-8.74773e-08
-7.27697e-09
-8.45438e-08
-5.86027e-09
-8.14607e-08
-5.90178e-09
-7.88484e-08
-5.262e-09
-7.59837e-08
-5.36376e-09
-7.32009e-08
-5.27279e-09
-7.04279e-08
-5.12699e-09
-6.83038e-08
-4.14299e-09
-6.58608e-08
-4.46891e-09
-6.39182e-08
-3.67344e-09
-6.19349e-08
-3.6154e-09
-6.02483e-08
-3.09371e-09
-5.82924e-08
-3.36634e-09
-5.66496e-08
-2.82748e-09
-5.49335e-08
-2.78034e-09
-5.33343e-08
-2.61831e-09
-5.19321e-08
-2.3083e-09
-5.03939e-08
-2.4747e-09
-4.90735e-08
-2.13328e-09
-4.78834e-08
-1.92157e-09
-4.66327e-08
-1.91908e-09
-4.55062e-08
-1.62234e-09
-4.45172e-08
-1.21035e-09
-4.31527e-08
-1.45747e-09
-4.08979e-08
-2.55819e-09
-3.67106e-08
-5.9357e-09
-2.89898e-08
-1.31978e-08
-2.19896e-08
-1.30339e-08
-2.06506e-08
-3.08065e-09
-2.40493e-08
5.23918e-09
-2.74951e-08
5.20063e-09
-2.94501e-08
2.89076e-09
-3.09899e-08
2.57239e-09
-3.18642e-08
1.58167e-09
-3.23472e-08
8.86923e-10
-3.26361e-08
4.36677e-10
-3.25259e-08
1.89714e-10
-3.21574e-08
-5.217e-12
-3.18756e-08
-9.01411e-11
-3.15757e-08
-1.50443e-10
-3.11469e-08
-2.6738e-10
-3.06749e-08
-3.1559e-10
-3.02197e-08
-3.246e-10
-2.96524e-08
-3.84116e-10
-2.91109e-08
-4.21582e-10
-2.86726e-08
-3.57621e-10
-2.83695e-08
-3.36307e-10
-2.81542e-08
-3.40514e-10
-2.7976e-08
-2.85505e-10
-2.7793e-08
-2.499e-10
-2.77693e-08
-3.07788e-10
-2.78217e-08
-3.60717e-10
-2.78912e-08
-3.94656e-10
-2.79839e-08
-4.00909e-10
-2.81918e-08
-3.25246e-10
-2.84863e-08
-2.60151e-10
-2.8807e-08
-2.72077e-10
-2.91257e-08
-2.80185e-10
-2.94864e-08
-2.86229e-10
-2.99476e-08
-3.59058e-10
-3.05721e-08
-4.62116e-10
-3.12855e-08
-4.95533e-10
-3.20508e-08
-5.33576e-10
-3.27477e-08
-5.67874e-10
-3.33371e-08
-5.874e-10
-3.38004e-08
-6.17759e-10
-3.41943e-08
-6.41142e-10
-3.44184e-08
-4.55626e-10
-3.44978e-08
-3.78751e-10
-3.4478e-08
-2.6667e-10
-3.43326e-08
-2.38527e-10
-3.42355e-08
-2.71151e-10
-3.40218e-08
-1.8562e-10
-3.34927e-08
-1.14523e-10
-3.26984e-08
-8.6696e-11
-3.17281e-08
-1.0444e-10
-3.0627e-08
-2.15931e-10
-2.93479e-08
-3.59202e-10
-2.79037e-08
-5.33145e-10
-2.62454e-08
-6.51617e-10
-2.44467e-08
-5.33709e-10
-2.23027e-08
-5.26175e-10
-1.99018e-08
-4.55812e-10
-1.73256e-08
-5.03199e-10
-1.44869e-08
-4.91799e-10
-1.15581e-08
-4.64602e-10
-8.88213e-09
-3.20789e-10
-6.29958e-09
-5.10839e-10
-3.93737e-09
-4.50854e-10
-1.76276e-09
-4.46082e-10
2.67313e-10
-3.79925e-10
2.13975e-09
-4.68797e-10
3.78517e-09
-4.62751e-10
5.09434e-09
-3.65713e-10
6.10998e-09
-2.69908e-10
6.90844e-09
-3.97679e-10
7.56323e-09
-5.49583e-10
8.08979e-09
-4.97579e-10
8.39036e-09
-2.45808e-10
8.49941e-09
-1.04824e-10
8.58966e-09
-4.01115e-10
8.69897e-09
-5.10501e-10
8.20924e-09
6.61032e-10
5.80256e-09
4.50132e-09
-8.45298e-10
1.464e-08
-9.57729e-09
2.3744e-08
1.30037e-08
-4.14608e-08
3.82324e-08
8.49728e-09
-4.46441e-08
8.43174e-09
-4.66345e-08
4.92281e-09
-4.82501e-08
4.37371e-09
-4.91722e-08
2.69714e-09
-4.97564e-08
1.60698e-09
-5.01496e-08
8.8932e-10
-5.01591e-08
5.03893e-10
-4.99269e-08
2.28666e-10
-4.97914e-08
1.00883e-10
-4.96308e-08
1.69368e-12
-4.9362e-08
-1.55638e-10
-4.90288e-08
-2.38611e-10
-4.86743e-08
-3.11904e-10
-4.82031e-08
-4.15886e-10
-4.77859e-08
-4.38568e-10
-4.75008e-08
-2.9914e-10
-4.73316e-08
-2.84847e-10
-4.7272e-08
-2.69137e-10
-4.72432e-08
-1.86366e-10
-4.71949e-08
-1.53344e-10
-4.73029e-08
-2.36231e-10
-4.74488e-08
-3.74703e-10
-4.76224e-08
-4.35297e-10
-4.78522e-08
-4.12411e-10
-4.82159e-08
-2.62666e-10
-4.86378e-08
-1.98702e-10
-4.90875e-08
-2.19829e-10
-4.9538e-08
-2.40054e-10
-5.00339e-08
-2.44263e-10
-5.06394e-08
-3.46757e-10
-5.14189e-08
-4.89297e-10
-5.2293e-08
-5.37932e-10
-5.32054e-08
-6.11638e-10
-5.40306e-08
-6.95725e-10
-5.47311e-08
-7.50698e-10
-5.53052e-08
-8.07389e-10
-5.58248e-08
-8.33873e-10
-5.61998e-08
-4.97048e-10
-5.63994e-08
-4.06897e-10
-5.64866e-08
-2.41012e-10
-5.6448e-08
-2.06898e-10
-5.648e-08
-2.18051e-10
-5.64006e-08
-7.74221e-11
-5.59913e-08
2.7978e-11
-5.53127e-08
8.55162e-11
-5.44393e-08
5.17474e-11
-5.3403e-08
-1.35299e-10
-5.2171e-08
-3.79008e-10
-5.07834e-08
-6.26559e-10
-4.91884e-08
-7.92739e-10
-4.74782e-08
-5.49608e-10
-4.54014e-08
-5.47392e-10
-4.30713e-08
-4.01708e-10
-4.05687e-08
-4.39602e-10
-3.77957e-08
-3.83376e-10
-3.49039e-08
-3.46781e-10
-3.21448e-08
-2.83329e-10
-2.94678e-08
-5.87858e-10
-2.7118e-08
-4.62921e-10
-2.49424e-08
-4.41058e-10
-2.29107e-08
-3.18436e-10
-2.10131e-08
-4.72342e-10
-1.93928e-08
-4.39844e-10
-1.81227e-08
-2.87956e-10
-1.71397e-08
-1.57019e-10
-1.63236e-08
-4.23101e-10
-1.56459e-08
-6.95184e-10
-1.51337e-08
-6.07075e-10
-1.48695e-08
-2.21586e-10
-1.47998e-08
-3.26565e-11
-1.46941e-08
-5.24505e-10
-1.46209e-08
-6.73711e-10
-1.49554e-08
9.6506e-10
-1.62379e-08
5.75869e-09
-1.82194e-08
1.66611e-08
-1.96203e-08
2.51261e-08
1.37886e-08
-3.80416e-08
4.20229e-08
-1.69911e-08
-2.87637e-09
-1.99477e-07
2.02794e-07
-4.47944e-08
-2.53383e-07
2.47758e-07
-2.33984e-07
-6.78174e-08
-2.28519e-07
-1.81581e-08
-2.21519e-07
-2.83298e-08
-2.0924e-07
-4.06134e-08
-1.97665e-07
-4.21959e-08
-1.87575e-07
-3.34989e-08
-1.78188e-07
-3.32566e-08
-1.70091e-07
-2.69269e-08
-1.62194e-07
-2.6977e-08
-1.55291e-07
-2.28389e-08
-1.48845e-07
-2.19118e-08
-1.42502e-07
-2.06997e-08
-1.36779e-07
-1.9314e-08
-1.31338e-07
-1.85294e-08
-1.26922e-07
-1.61325e-08
-1.2251e-07
-1.54822e-08
-1.18705e-07
-1.35202e-08
-1.14386e-07
-1.43436e-08
-1.10798e-07
-1.17972e-08
-1.06912e-07
-1.27353e-08
-1.03799e-07
-1.02085e-08
-1.00367e-07
-1.06918e-08
-9.78645e-08
-8.35837e-09
-9.48839e-08
-8.92052e-09
-9.24814e-08
-7.75352e-09
-8.95197e-08
-8.44131e-09
-8.69262e-08
-7.99784e-09
-8.42416e-08
-7.95109e-09
-8.23151e-08
-6.21214e-09
-8.0029e-08
-6.8824e-09
-7.83636e-08
-5.45455e-09
-7.64525e-08
-5.63076e-09
-7.47746e-08
-4.85986e-09
-7.27606e-08
-5.43702e-09
-7.11251e-08
-4.47541e-09
-6.92322e-08
-4.66667e-09
-6.76609e-08
-4.18504e-09
-6.60913e-08
-3.87974e-09
-6.42928e-08
-4.29212e-09
-6.28613e-08
-3.59599e-09
-6.14078e-08
-3.41358e-09
-5.97901e-08
-3.57283e-09
-5.8334e-08
-3.08848e-09
-5.67908e-08
-2.72653e-09
-5.45591e-08
-3.62562e-09
-5.15477e-08
-5.49154e-09
-4.74846e-08
-9.92788e-09
-1.86047e-08
1.53556e-07
2.36207e-07
1.46249e-07
-8.99263e-09
2.24667e-07
-2.6106e-07
2.18637e-07
3.67126e-08
2.1635e-07
3.45569e-08
2.08579e-07
4.44311e-08
1.90949e-07
6.13887e-08
1.73095e-07
5.84615e-08
1.52887e-07
5.25027e-08
1.31698e-07
4.93506e-08
1.13314e-07
4.14731e-08
9.65752e-08
3.26769e-08
8.20165e-08
2.76841e-08
7.07445e-08
2.11006e-08
6.17917e-08
1.61998e-08
5.37285e-08
1.46618e-08
4.78714e-08
1.15273e-08
4.30362e-08
9.04203e-09
3.80993e-08
9.32482e-09
3.47551e-08
6.66802e-09
3.0854e-08
7.01641e-09
2.80189e-08
5.76366e-09
2.59487e-08
3.70485e-09
2.33752e-08
5.0958e-09
2.14444e-08
3.28563e-09
1.96264e-08
3.7301e-09
1.81185e-08
2.56876e-09
1.67316e-08
2.52527e-09
1.54244e-08
2.0298e-09
1.43741e-08
2.36793e-09
1.34361e-08
1.58367e-09
1.25008e-08
1.80555e-09
1.17491e-08
1.16564e-09
1.10137e-08
1.33793e-09
1.03395e-08
9.50565e-10
9.69638e-09
1.18316e-09
9.15633e-09
8.21186e-10
8.6788e-09
1.35393e-09
8.40459e-09
9.94518e-10
7.91705e-09
1.06275e-09
7.35891e-09
3.56706e-10
6.75581e-09
4.75189e-10
6.34429e-09
1.05617e-09
5.94444e-09
7.94374e-10
5.50062e-09
9.50135e-10
5.12153e-09
7.99177e-10
4.75237e-09
8.89369e-10
4.38325e-09
9.03684e-10
4.03772e-09
8.55756e-10
3.76147e-09
8.08313e-10
3.74201e-09
1.36441e-09
3.67806e-09
3.98528e-09
3.98689e-09
4.46432e-09
4.50469e-09
4.72903e-09
4.74287e-09
4.53576e-09
4.74339e-09
4.08484e-09
4.6348e-09
2.94829e-09
4.47237e-09
2.06229e-09
4.47794e-09
1.59589e-09
4.39826e-09
1.27892e-09
4.20184e-09
1.53328e-09
3.93298e-09
1.72053e-09
3.65104e-09
1.84502e-09
3.47656e-09
1.45349e-09
3.39728e-09
1.60892e-09
3.26768e-09
1.89682e-09
2.85121e-09
2.38857e-09
2.69517e-09
1.72594e-09
2.71184e-09
1.35148e-09
2.64146e-09
1.69522e-09
2.49855e-09
2.62373e-09
2.63207e-09
2.43456e-09
2.78018e-09
1.48597e-09
2.72099e-09
5.9824e-10
2.68617e-09
3.29566e-10
2.71111e-09
1.53714e-10
2.78398e-09
1.50359e-11
2.92871e-09
1.91105e-11
3.12474e-09
3.98055e-10
3.28659e-09
8.71736e-10
3.37346e-09
1.61818e-09
3.36791e-09
2.34365e-09
3.38365e-09
2.20023e-09
3.56451e-09
1.86907e-09
3.8077e-09
1.5772e-09
4.06237e-09
1.42364e-09
4.22843e-09
1.38659e-09
4.26442e-09
1.20063e-09
3.94714e-09
1.05752e-09
3.81932e-09
1.90044e-09
3.74302e-09
1.98931e-09
3.79958e-09
1.93431e-09
4.04179e-09
1.67025e-09
4.34775e-09
6.86302e-10
4.45341e-09
-8.42659e-10
4.18196e-09
-1.52267e-09
4.10204e-09
-1.70645e-09
3.93631e-09
-1.71197e-09
3.74262e-09
-1.38299e-09
3.55704e-09
-9.65668e-10
3.39597e-09
-4.93355e-10
3.29952e-09
3.21994e-11
3.29068e-09
4.20264e-10
3.3639e-09
7.06053e-10
3.52523e-09
8.55348e-10
3.72716e-09
1.01493e-09
3.9514e-09
1.12997e-09
4.14594e-09
1.38169e-09
4.35612e-09
1.7152e-09
4.59357e-09
1.85897e-09
4.78654e-09
1.64132e-09
4.89567e-09
1.21047e-09
4.94648e-09
8.70185e-10
5.03008e-09
7.19927e-10
5.20124e-09
7.64398e-10
5.55979e-09
6.70301e-10
6.07924e-09
5.99356e-10
6.89919e-09
1.29921e-10
8.66043e-09
-2.29834e-09
-7.29186e-09
1.08446e-08
1.93476e-07
-2.33714e-07
2.76219e-07
1.77794e-07
6.62844e-09
2.25793e-07
-3.08971e-07
2.25773e-07
3.66667e-08
2.21408e-07
3.89038e-08
2.18002e-07
4.78172e-08
2.07098e-07
7.23108e-08
1.9558e-07
6.99593e-08
1.82442e-07
6.55971e-08
1.68372e-07
6.33903e-08
1.53081e-07
5.67724e-08
1.36176e-07
4.95246e-08
1.19283e-07
4.46057e-08
1.05116e-07
3.50899e-08
9.27913e-08
2.8873e-08
8.07265e-08
2.64229e-08
7.09813e-08
2.1282e-08
6.20841e-08
1.793e-08
5.43835e-08
1.69085e-08
4.87916e-08
1.23814e-08
4.31112e-08
1.25945e-08
3.91326e-08
9.794e-09
3.60777e-08
6.848e-09
3.27955e-08
8.36964e-09
3.00105e-08
6.01039e-09
2.76086e-08
6.16838e-09
2.54769e-08
4.65666e-09
2.3663e-08
4.32602e-09
2.1814e-08
3.72134e-09
2.04198e-08
3.87607e-09
1.90775e-08
2.95803e-09
1.78715e-08
3.02744e-09
1.67954e-08
2.23685e-09
1.58002e-08
2.28231e-09
1.48598e-08
1.83418e-09
1.39832e-08
2.04736e-09
1.31863e-08
1.55884e-09
1.25222e-08
2.12734e-09
1.20611e-08
1.6586e-09
1.13868e-08
1.7597e-09
1.062e-08
9.77312e-10
9.77768e-09
1.08811e-09
9.19071e-09
1.72219e-09
8.61066e-09
1.3815e-09
8.00497e-09
1.58834e-09
7.48201e-09
1.35922e-09
6.99802e-09
1.45485e-09
6.51931e-09
1.48449e-09
6.05158e-09
1.40142e-09
5.61927e-09
1.32668e-09
5.54996e-09
1.72863e-09
5.52061e-09
4.93706e-09
5.77249e-09
5.56358e-09
6.26571e-09
5.86535e-09
6.61321e-09
5.93402e-09
6.63919e-09
5.67183e-09
6.51694e-09
4.4247e-09
6.35087e-09
3.24188e-09
6.37265e-09
2.44565e-09
6.29821e-09
1.91378e-09
6.06962e-09
2.13125e-09
5.72897e-09
2.36329e-09
5.34103e-09
2.81943e-09
5.07863e-09
2.31914e-09
4.90917e-09
2.37381e-09
4.68405e-09
2.66481e-09
4.09223e-09
3.39961e-09
3.89494e-09
2.4609e-09
3.91535e-09
1.92166e-09
3.8294e-09
2.38375e-09
3.68625e-09
3.52242e-09
3.81432e-09
3.16108e-09
4.02118e-09
1.89908e-09
4.0705e-09
9.84526e-10
3.9775e-09
4.88165e-10
4.02623e-09
2.16356e-10
4.13528e-09
-7.55793e-12
4.34508e-09
-1.23466e-12
4.60594e-09
4.5646e-10
4.80646e-09
1.08032e-09
4.90583e-09
2.10797e-09
4.90944e-09
3.14573e-09
4.95722e-09
2.92785e-09
5.1943e-09
2.39937e-09
5.54092e-09
1.98144e-09
5.88485e-09
1.75789e-09
6.10038e-09
1.81407e-09
6.11585e-09
1.68873e-09
5.74516e-09
1.61645e-09
5.58697e-09
2.60478e-09
5.46775e-09
2.78748e-09
5.51193e-09
2.56259e-09
5.82234e-09
2.07875e-09
6.17431e-09
7.2703e-10
6.30942e-09
-8.89318e-10
5.94054e-09
-1.87226e-09
5.82465e-09
-2.16332e-09
5.61323e-09
-2.19483e-09
5.36968e-09
-1.76881e-09
5.13953e-09
-1.21732e-09
4.94382e-09
-6.08491e-10
4.83102e-09
6.5681e-11
4.82702e-09
5.50506e-10
4.92688e-09
8.89531e-10
5.13901e-09
1.04987e-09
5.40897e-09
1.23906e-09
5.71743e-09
1.37105e-09
5.99202e-09
1.72192e-09
6.28221e-09
2.16111e-09
6.58785e-09
2.37376e-09
6.83484e-09
2.11936e-09
6.97529e-09
1.60717e-09
7.05504e-09
1.16458e-09
7.17043e-09
9.44773e-10
7.3991e-09
9.34688e-10
7.85504e-09
7.05888e-10
8.47008e-09
5.75857e-10
9.48146e-09
-2.51058e-10
1.11203e-08
-3.30838e-09
-8.39957e-09
1.28633e-08
-2.22397e-07
-5.61244e-08
-2.48846e-07
2.74406e-07
-2.32617e-07
-8.36999e-08
-2.26807e-07
-2.38704e-08
-2.20906e-07
-3.45088e-08
-2.09171e-07
-5.22871e-08
-1.98357e-07
-5.2809e-08
-1.88883e-07
-4.28852e-08
-1.79881e-07
-4.22738e-08
-1.72236e-07
-3.46572e-08
-1.64766e-07
-3.45325e-08
-1.58139e-07
-2.95282e-08
-1.52075e-07
-2.81408e-08
-1.45955e-07
-2.69509e-08
-1.40507e-07
-2.47983e-08
-1.35223e-07
-2.38138e-08
-1.31017e-07
-2.03902e-08
-1.26809e-07
-1.97933e-08
-1.23152e-07
-1.72803e-08
-1.18985e-07
-1.86318e-08
-1.15532e-07
-1.53506e-08
-1.11824e-07
-1.64988e-08
-1.08887e-07
-1.31581e-08
-1.05681e-07
-1.38893e-08
-1.03339e-07
-1.07083e-08
-1.00526e-07
-1.17792e-08
-9.81486e-08
-1.02244e-08
-9.51843e-08
-1.15217e-08
-9.27365e-08
-1.05791e-08
-9.02577e-08
-1.0574e-08
-8.84407e-08
-8.17022e-09
-8.63569e-08
-9.0975e-09
-8.47811e-08
-7.15078e-09
-8.29587e-08
-7.56077e-09
-8.12764e-08
-6.6332e-09
-7.92843e-08
-7.48812e-09
-7.768e-08
-6.09298e-09
-7.56832e-08
-6.65785e-09
-7.41777e-08
-5.68661e-09
-7.2478e-08
-5.58066e-09
-7.05458e-08
-6.24134e-09
-6.9088e-08
-5.08467e-09
-6.7462e-08
-5.07881e-09
-6.56311e-08
-5.44115e-09
-6.40336e-08
-4.69628e-09
-6.22671e-08
-4.46567e-09
-5.98169e-08
-6.01298e-09
-5.68975e-08
-8.32997e-09
-5.35842e-08
-1.31683e-08
-5.00642e-08
-2.20695e-08
-4.82827e-08
-1.87469e-08
-4.96947e-08
-1.44827e-09
-5.242e-08
1.12533e-08
-5.46084e-08
1.06655e-08
-5.62324e-08
6.5875e-09
-5.75878e-08
5.92169e-09
-5.83711e-08
3.68319e-09
-5.89074e-08
2.28636e-09
-5.92843e-08
1.33128e-09
-5.9288e-08
8.21943e-10
-5.90578e-08
4.82123e-10
-5.89484e-08
3.31738e-10
-5.88136e-08
1.91597e-10
-5.85721e-08
-1.98734e-12
-5.82492e-08
-1.3679e-10
-5.7875e-08
-3.05154e-10
-5.73929e-08
-4.39906e-10
-5.70087e-08
-4.05134e-10
-5.67619e-08
-1.91999e-10
-5.66265e-08
-1.91794e-10
-5.66131e-08
-1.46346e-10
-5.66201e-08
-4.74675e-11
-5.65964e-08
-3.05496e-11
-5.67218e-08
-1.47757e-10
-5.68571e-08
-4.06978e-10
-5.70338e-08
-4.87614e-10
-5.73218e-08
-3.74733e-10
-5.77437e-08
-1.51101e-10
-5.8211e-08
-1.10938e-10
-5.86998e-08
-1.37175e-10
-5.91837e-08
-1.82176e-10
-5.97173e-08
-1.83609e-10
-6.03721e-08
-3.08957e-10
-6.12172e-08
-4.77151e-10
-6.21589e-08
-5.44827e-10
-6.31204e-08
-6.73368e-10
-6.3979e-08
-8.22712e-10
-6.46884e-08
-9.28351e-10
-6.52642e-08
-1.02158e-09
-6.58378e-08
-9.98431e-10
-6.62653e-08
-4.98613e-10
-6.65006e-08
-4.05217e-10
-6.66121e-08
-1.92194e-10
-6.65922e-08
-1.55596e-10
-6.66458e-08
-1.40858e-10
-6.65879e-08
5.64138e-11
-6.61869e-08
1.98626e-10
-6.5512e-08
2.92009e-10
-6.46242e-08
2.33236e-10
-6.35532e-08
-5.55102e-11
-6.22694e-08
-4.08177e-10
-6.08293e-08
-7.22115e-10
-5.92147e-08
-8.96136e-10
-5.74829e-08
-5.25169e-10
-5.53611e-08
-5.32229e-10
-5.29856e-08
-3.04716e-10
-5.04275e-08
-3.38812e-10
-4.7583e-08
-2.4172e-10
-4.45913e-08
-2.20466e-10
-4.16944e-08
-2.79249e-10
-3.88914e-08
-6.90929e-10
-3.64633e-08
-4.68248e-10
-3.42328e-08
-4.04743e-10
-3.21309e-08
-2.48917e-10
-3.01716e-08
-4.66715e-10
-2.85134e-08
-3.9209e-10
-2.721e-08
-1.94977e-10
-2.61794e-08
-5.29316e-11
-2.53152e-08
-4.57232e-10
-2.46054e-08
-8.51311e-10
-2.40815e-08
-7.11708e-10
-2.37889e-08
-2.14369e-10
-2.36777e-08
-1.02603e-11
-2.35959e-08
-6.1099e-10
-2.35815e-08
-8.08208e-10
-2.37086e-08
1.0145e-09
-2.37976e-08
5.8342e-09
-2.37964e-08
1.66968e-08
-2.28244e-08
2.41439e-08
1.34964e-08
-5.84036e-08
5.61562e-08
1.35314e-08
-5.98607e-08
1.21672e-08
-6.12282e-08
7.99562e-09
-6.23053e-08
7.19256e-09
-6.29503e-08
4.53965e-09
-6.34074e-08
2.89341e-09
-6.37472e-08
1.74089e-09
-6.37284e-08
1.11886e-09
-6.34884e-08
7.42959e-10
-6.33835e-08
5.78519e-10
-6.32337e-08
3.77756e-10
-6.29739e-08
1.4929e-10
-6.2619e-08
-5.2471e-11
-6.22142e-08
-3.12323e-10
-6.17165e-08
-4.62654e-10
-6.13134e-08
-3.76692e-10
-6.10589e-08
-8.21837e-11
-6.09077e-08
-1.06013e-10
-6.0889e-08
-2.25651e-11
-6.08992e-08
9.98439e-11
-6.08686e-08
8.58156e-11
-6.09864e-08
-6.9723e-11
-6.11234e-08
-4.43086e-10
-6.13078e-08
-5.40849e-10
-6.1601e-08
-3.4158e-10
-6.20346e-08
-3.84168e-11
-6.2489e-08
-5.0749e-11
-6.29845e-08
-6.38361e-11
-6.34984e-08
-1.1255e-10
-6.40662e-08
-1.09801e-10
-6.47477e-08
-2.69876e-10
-6.56149e-08
-4.72001e-10
-6.65857e-08
-5.59027e-10
-6.75718e-08
-7.45686e-10
-6.84436e-08
-9.76686e-10
-6.91754e-08
-1.11562e-09
-6.97852e-08
-1.22971e-09
-7.03625e-08
-1.18264e-09
-7.08091e-08
-4.9738e-10
-7.10358e-08
-4.21403e-10
-7.1126e-08
-1.68946e-10
-7.10999e-08
-1.12728e-10
-7.11585e-08
-5.20395e-11
-7.11065e-08
1.99097e-10
-7.06936e-08
3.75992e-10
-6.99953e-08
5.05492e-10
-6.9087e-08
4.28784e-10
-6.79751e-08
3.2138e-11
-6.66292e-08
-4.57379e-10
-6.51274e-08
-8.28079e-10
-6.34391e-08
-1.01783e-09
-6.16555e-08
-4.85018e-10
-5.94595e-08
-5.19374e-10
-5.69949e-08
-2.08727e-10
-5.4353e-08
-2.21899e-10
-5.14279e-08
-7.34225e-11
-4.83398e-08
-8.09739e-11
-4.53126e-08
-2.98064e-10
-4.23755e-08
-8.27551e-10
-3.9871e-08
-4.6532e-10
-3.75436e-08
-3.78799e-10
-3.53641e-08
-1.7973e-10
-3.33178e-08
-4.76622e-10
-3.15948e-08
-3.47095e-10
-3.02622e-08
-7.77056e-11
-2.92136e-08
7.59713e-11
-2.82902e-08
-5.20791e-10
-2.75209e-08
-1.04295e-09
-2.69875e-08
-8.08313e-10
-2.67578e-08
-1.35313e-10
-2.67334e-08
1.18846e-10
-2.66594e-08
-6.66561e-10
-2.66335e-08
-9.81157e-10
-2.65515e-08
8.92205e-10
-2.63104e-08
5.58642e-09
-2.56973e-08
1.61178e-08
-2.41536e-08
2.26024e-08
1.29885e-08
-5.44598e-08
5.51472e-08
-1.94071e-08
2.66805e-10
-2.44618e-07
2.60498e-07
-7.19178e-08
-2.41091e-07
2.70848e-07
-2.33737e-07
-9.08043e-08
-2.22491e-07
-3.49027e-08
-2.18301e-07
-3.82962e-08
-2.07001e-07
-6.3565e-08
-1.97395e-07
-6.22215e-08
-1.88567e-07
-5.17499e-08
-1.80436e-07
-5.04794e-08
-1.73145e-07
-4.19811e-08
-1.6625e-07
-4.16022e-08
-1.59757e-07
-3.63044e-08
-1.54044e-07
-3.40903e-08
-1.48051e-07
-3.30968e-08
-1.42763e-07
-3.00719e-08
-1.37595e-07
-2.89759e-08
-1.33572e-07
-2.44599e-08
-1.29602e-07
-2.38666e-08
-1.26063e-07
-2.09236e-08
-1.21919e-07
-2.2889e-08
-1.1856e-07
-1.88014e-08
-1.14943e-07
-2.01633e-08
-1.11973e-07
-1.61426e-08
-1.08924e-07
-1.69389e-08
-1.06666e-07
-1.29871e-08
-1.03986e-07
-1.45092e-08
-1.01619e-07
-1.26862e-08
-9.86292e-08
-1.46287e-08
-9.61271e-08
-1.32132e-08
-9.37018e-08
-1.31424e-08
-9.19765e-08
-1.00404e-08
-8.9923e-08
-1.12845e-08
-8.83375e-08
-8.85972e-09
-8.65819e-08
-9.42642e-09
-8.49258e-08
-8.38246e-09
-8.28769e-08
-9.59733e-09
-8.12496e-08
-7.73629e-09
-7.92348e-08
-8.66933e-09
-7.77106e-08
-7.20821e-09
-7.59672e-08
-7.32455e-09
-7.3937e-08
-8.28599e-09
-7.24518e-08
-6.59989e-09
-7.07458e-08
-6.8246e-09
-6.88077e-08
-7.41829e-09
-6.71701e-08
-6.34407e-09
-6.53974e-08
-6.21196e-09
-6.29775e-08
-8.36862e-09
-6.02796e-08
-1.09442e-08
-5.75276e-08
-1.58463e-08
-2.43951e-08
2.34045e-07
3.02492e-07
2.11628e-07
2.90405e-08
2.27782e-07
-3.25175e-07
2.26093e-07
3.84064e-08
2.22295e-07
4.27564e-08
2.19188e-07
5.09189e-08
2.09872e-07
8.16561e-08
2.0072e-07
7.90628e-08
1.91535e-07
7.48407e-08
1.81856e-07
7.30398e-08
1.71191e-07
6.7496e-08
1.5937e-07
6.12855e-08
1.47858e-07
5.60878e-08
1.34736e-07
4.82136e-08
1.22711e-07
4.10721e-08
1.10304e-07
3.87394e-08
9.98503e-08
3.13738e-08
8.76699e-08
3.01751e-08
7.76192e-08
2.69638e-08
6.85288e-08
2.16509e-08
5.99011e-08
2.10319e-08
5.35272e-08
1.62693e-08
4.80973e-08
1.2394e-08
4.37951e-08
1.26931e-08
4.00168e-08
9.79792e-09
3.63908e-08
9.72915e-09
3.34642e-08
7.55467e-09
3.10496e-08
6.75782e-09
2.85983e-08
5.94551e-09
2.68083e-08
5.77429e-09
2.50516e-08
4.76515e-09
2.35238e-08
4.5789e-09
2.21336e-08
3.6491e-09
2.08406e-08
3.52119e-09
1.96216e-08
2.9854e-09
1.85119e-08
3.1558e-09
1.74487e-08
2.54108e-09
1.65827e-08
3.06503e-09
1.59196e-08
2.52582e-09
1.50438e-08
2.66148e-09
1.40762e-08