/*--------------------------------*- C++ -*----------------------------------*\
| =========                 |                                                 |
| \\      /  F ield         | OpenFOAM: The Open Source CFD Toolbox           |
|  \\    /   O peration     | Version:  2212                                  |
|   \\  /    A nd           | Website:  www.openfoam.com                      |
|    \\/     M anipulation  |                                                 |
\*---------------------------------------------------------------------------*/
FoamFile
{
    version     2.0;
    format      ascii;
    arch        "LSB;label=32;scalar=64";
    class       volScalarField;
    location    "0.0765";
    object      nut;
}
// * * * * * * * * * * * * * * * * * * * * * * * * * * * * * * * * * * * * * //

dimensions      [0 2 -1 0 0 0 0];

internalField   nonuniform List<scalar> 
2308
(
0.0731757
0.313556
0.193795
0.10203
0.122212
0.104395
0.100985
0.103769
0.125823
0.0943018
0.0944246
0.0952882
0.0960357
0.0969765
0.098019
0.0991297
0.100288
0.102191
0.100798
0.0995177
0.0983069
0.0971534
0.0960841
0.0951174
0.0945266
0.0943266
0.0943147
0.094485
0.106547
0.101505
0.0951243
0.0967711
0.100477
0.108022
0.120928
0.134992
0.148995
0.158868
0.158936
0.157185
0.155245
0.152948
0.15089
0.149245
0.147932
0.145936
0.14751
0.14918
0.150615
0.15179
0.152453
0.149976
0.142725
0.134299
0.128243
0.121902
0.113454
0.104571
0.0989213
0.0961133
0.0948499
0.0943401
0.0939306
0.0938759
0.0940953
0.0945282
0.0951748
0.0960239
0.097006
0.0980856
0.099258
0.146855
0.144522
0.0989262
0.097669
0.0965193
0.0954675
0.0945363
0.0938288
0.0934496
0.0934087
0.0936175
0.0940516
0.0951869
0.0979774
0.103588
0.111845
0.118985
0.123262
0.128166
0.136045
0.144143
0.148479
0.148457
0.147454
0.146148
0.144609
0.143144
0.103547
0.14184
0.102772
0.100557
0.136797
0.138193
0.139291
0.140052
0.140245
0.137064
0.129528
0.122411
0.117383
0.114957
0.114064
0.114032
0.114188
0.111235
0.104784
0.0991256
0.0958885
0.0943629
0.0935674
0.0929878
0.0928413
0.0929666
0.0933432
0.0939672
0.0948058
0.0957925
0.0969238
0.0961099
0.095141
0.102455
0.0998046
0.0969366
0.0955019
0.0942422
0.0932003
0.0923496
0.0917223
0.0914891
0.0915596
0.091819
0.092526
0.0940017
0.0972645
0.102819
0.108036
0.109496
0.108918
0.108444
0.108715
0.110402
0.114665
0.121557
0.129913
0.134817
0.135254
0.134709
0.133792
0.132553
0.131394
0.14073
0.14585
0.14333
0.112178
0.135504
0.0871565
0.0715886
0.1021
0.11601
0.119536
0.105135
0.0982286
0.130443
0.13973
0.144794
0.142273
0.134449
0.125661
0.126608
0.127342
0.127769
0.127558
0.124114
0.116524
0.109375
0.104515
0.102233
0.101534
0.101868
0.102887
0.104415
0.106187
0.107625
0.107656
0.103978
0.0987883
0.0950762
0.0929736
0.0918373
0.091211
0.0907733
0.0906103
0.0907218
0.0911925
0.0919152
0.0928908
0.0987438
0.136113
0.117026
0.0941196
0.0938219
0.0934932
0.0929311
0.0922416
0.0915291
0.090841
0.0898522
0.0889438
0.088289
0.0879154
0.0879299
0.0882304
0.0887566
0.0898057
0.0919285
0.0956903
0.100709
0.103455
0.10261
0.100834
0.0988864
0.0972357
0.0960809
0.0955286
0.0958854
0.097686
0.101944
0.108769
0.117002
0.121908
0.122589
0.122428
0.121874
0.121053
0.231641
0.0994176
0.0766954
0.139053
0.0871416
0.0795467
0.099843
0.103636
0.118467
0.118543
0.118289
0.115525
0.108174
0.100839
0.0957659
0.0931094
0.0919088
0.0916347
0.0919618
0.0926682
0.0937541
0.0952383
0.0969767
0.098962
0.100802
0.101953
0.100722
0.0968734
0.0928016
0.0899811
0.0883498
0.087466
0.0869211
0.0865856
0.086426
0.0866218
0.0872492
0.0940782
0.126876
0.0634277
0.0837392
0.0837206
0.0838773
0.0838842
0.0836939
0.0834175
0.0830959
0.0826761
0.0823543
0.0823627
0.0826906
0.083299
0.0842298
0.0858718
0.0887743
0.0929386
0.0963403
0.0967661
0.0952985
0.0933313
0.0913962
0.0897187
0.0883012
0.0872895
0.0866357
0.0863271
0.0865224
0.0875217
0.0897969
0.0943588
0.101517
0.109599
0.113726
0.114235
0.114199
0.113891
0.120312
0.129663
0.138799
0.143642
0.141288
0.133627
0.124894
0.118135
0.0799389
0.198085
0.168708
0.0898735
0.0837316
0.131071
0.0882718
0.0955591
0.12346
0.101806
0.122278
0.116755
0.0716631
0.0723138
0.0730499
0.0736852
0.074107
0.0744039
0.0746605
0.0749463
0.0754591
0.076211
0.0772228
0.0787345
0.0812096
0.0847563
0.0883417
0.0900184
0.0893544
0.0879403
0.0864328
0.0851135
0.0838676
0.0828093
0.082115
0.0817769
0.0817481
0.0819459
0.0823481
0.0830234
0.0840913
0.0858196
0.0887469
0.0939014
0.10144
0.108833
0.111246
0.111472
0.111571
0.113458
0.119813
0.129087
0.137929
0.14247
0.140352
0.133031
0.124393
0.117738
0.115166
0.115025
0.114927
0.113218
0.106395
0.0988471
0.0935051
0.0903382
0.0884969
0.0874256
0.0868298
0.086542
0.0864797
0.0866468
0.0871325
0.0880154
0.0892025
0.0905069
0.0918902
0.09341
0.0946852
0.0948652
0.092686
0.0889019
0.085615
0.0833663
0.0820768
0.0813195
0.0806688
0.0802312
0.0801917
0.134991
0.0895523
0.0975092
0.0998017
0.115941
0.0899337
0.0794892
0.0723398
0.0675187
0.0711693
0.0657035
0.0655138
0.0656003
0.0658832
0.0663029
0.0667464
0.0672464
0.0679111
0.0687738
0.0698766
0.0713924
0.0736589
0.0768936
0.0805455
0.0829924
0.0832667
0.0826469
0.0818591
0.0811552
0.0804859
0.0799823
0.0797589
0.0797698
0.0800242
0.0805183
0.0812299
0.0821567
0.0832386
0.0844068
0.0856919
0.0871225
0.0888118
0.0911032
0.0945911
0.100269
0.108029
0.114403
0.115819
0.115904
0.111613
0.113201
0.119614
0.128674
0.137122
0.141391
0.139506
0.132613
0.1242
0.11761
0.11533
0.118373
0.117892
0.116794
0.111143
0.103432
0.0976349
0.0940274
0.091751
0.0901576
0.088899
0.0877998
0.0868226
0.0859491
0.0852108
0.084676
0.0843854
0.084343
0.0845346
0.0849645
0.0855758
0.0862387
0.0869169
0.0876461
0.0880633
0.0871512
0.0843878
0.0808043
0.0779834
0.076102
0.0749577
0.0740081
0.073436
0.0806586
0.134827
0.140013
0.110771
0.0815765
0.0642637
0.0666655
0.0713859
0.099422
0.101661
0.104995
0.0913481
0.104966
0.0792541
0.116284
0.111755
0.113235
0.119559
0.128394
0.136462
0.140513
0.13882
0.132304
0.124146
0.117748
0.115608
0.118905
0.12606
0.124861
0.120423
0.1124
0.106153
0.102162
0.0997172
0.0980743
0.0967669
0.0955268
0.0942601
0.0929176
0.0915477
0.0902655
0.0890709
0.0879116
0.0868274
0.0858583
0.0850245
0.0843639
0.0838991
0.0836498
0.0835431
0.0834391
0.0833024
0.0831757
0.0826992
0.0809177
0.0777696
0.074533
0.072047
0.0704337
0.0692449
0.0732127
0.114872
0.131635
0.154235
0.090467
0.0623605
0.0620794
0.0620267
0.0622095
0.062637
0.0633521
0.0643978
0.0658223
0.0678878
0.0708118
0.0742656
0.0771151
0.0782801
0.0784802
0.078517
0.0785841
0.0786425
0.0788529
0.0793357
0.0800478
0.0809859
0.082103
0.0833584
0.0847239
0.0861731
0.0876637
0.0892386
0.0908661
0.0925109
0.0940858
0.0956097
0.0971682
0.0989525
0.101408
0.105245
0.111259
0.119409
0.124762
0.12616
0.142026
0.142838
0.249983
0.0933647
0.0921741
0.0830245
0.136621
0.130235
0.120225
0.11392
0.110408
0.108392
0.107088
0.106118
0.105262
0.10437
0.103321
0.102138
0.100944
0.0997434
0.0983905
0.0969181
0.0953534
0.0937314
0.0920992
0.0905123
0.0890307
0.0877094
0.0865635
0.0856226
0.0848442
0.0840846
0.0832999
0.0825357
0.0814489
0.07945
0.0764707
0.0735911
0.0714755
0.0685826
0.10774
0.125428
0.126736
0.116823
0.112091
0.113403
0.119523
0.128137
0.135939
0.139839
0.13826
0.132013
0.124127
0.117962
0.116028
0.119451
0.126449
0.137634
0.110008
0.0721267
0.0665113
0.0643145
0.064575
0.112356
0.09852
0.251177
0.132253
0.065387
0.0644428
0.0639039
0.0638741
0.0643369
0.0653007
0.0669307
0.0693476
0.0723637
0.0750998
0.0766822
0.0775157
0.0783336
0.0791597
0.0799757
0.0809581
0.0822073
0.0836922
0.0854024
0.0872782
0.0892619
0.0912926
0.0933191
0.0953017
0.0971995
0.0989733
0.100588
0.102115
0.103629
0.105043
0.106276
0.107379
0.108532
0.109926
0.111878
0.11504
0.120684
0.12996
0.138104
0.141259
0.246861
0.0735115
0.0960042
0.140155
0.142067
0.148748
0.110766
0.246327
0.201243
0.107294
0.0850091
0.0699166
0.111911
0.0889753
0.141759
0.218873
0.153397
0.150022
0.140236
0.130303
0.12406
0.120154
0.117802
0.116426
0.115661
0.115226
0.114915
0.114559
0.114197
0.113865
0.113389
0.112633
0.111573
0.110213
0.108583
0.106724
0.104695
0.102574
0.100447
0.0983926
0.0964974
0.0947865
0.0932898
0.0920737
0.0910766
0.0898982
0.0888724
0.0877381
0.0860998
0.0838156
0.0819517
0.102209
0.0687453
0.075861
0.140936
0.12717
0.117301
0.112475
0.113595
0.119528
0.127886
0.135462
0.139252
0.137753
0.131776
0.124182
0.118206
0.116407
0.119811
0.126556
0.136961
0.152459
0.107218
0.0670505
0.06528
0.0665536
0.0705743
0.0790104
0.088305
0.146247
0.0850816
0.0811873
0.0785125
0.0769086
0.0763028
0.0766368
0.0779624
0.0798996
0.0816458
0.0827135
0.0836764
0.084829
0.0861118
0.0875242
0.0891969
0.0911368
0.0933238
0.0957463
0.0983116
0.100953
0.103581
0.106122
0.108501
0.110652
0.112536
0.114104
0.115336
0.116241
0.116907
0.117509
0.118097
0.118598
0.11912
0.119851
0.121051
0.123067
0.126339
0.131679
0.140108
0.15219
0.158564
0.158294
0.102685
0.0683023
0.0869318
0.105983
0.119733
0.13426
0.0745593
0.136158
0.150738
0.152274
0.177016
0.0724388
0.128488
0.103892
0.105974
0.0957728
0.250537
0.247144
0.105899
0.10614
0.106418
0.107138
0.108057
0.109112
0.110389
0.112031
0.113929
0.116138
0.118534
0.120958
0.123291
0.125407
0.127193
0.128561
0.12946
0.129872
0.129823
0.12936
0.128571
0.127589
0.126633
0.125975
0.125681
0.125765
0.126413
0.127859
0.130394
0.134451
0.140574
0.149191
0.160566
0.170478
0.17444
0.174154
0.242875
0.156424
0.139761
0.127096
0.117607
0.112869
0.113866
0.119593
0.127668
0.135
0.138713
0.137299
0.131624
0.124347
0.118524
0.1167
0.119788
0.125885
0.135432
0.150326
0.171683
0.0941482
0.0688044
0.0940905
0.245674
0.250756
0.253128
0.253787
0.252424
0.24897
0.245122
0.241211
0.171172
0.237006
0.0719423
0.0936646
0.0768133
0.094853
0.108697
0.124698
0.0761081
0.0937209
0.225979
0.0673626
0.0698317
0.0755838
0.0848841
0.0984027
0.0964836
0.185841
0.120457
0.114822
0.110325
0.106868
0.10494
0.104052
0.10354
0.103216
0.103114
0.10343
0.104274
0.105294
0.106772
0.108667
0.1109
0.113433
0.116208
0.119133
0.122096
0.124941
0.12757
0.129877
0.131775
0.133186
0.134088
0.134474
0.134383
0.133888
0.133097
0.132197
0.131455
0.13103
0.13093
0.131283
0.132307
0.134287
0.137613
0.142895
0.150484
0.160653
0.172617
0.179694
0.180512
0.178376
0.0756005
0.0706333
0.0689867
0.139374
0.0733666
0.0685646
0.185815
0.0763088
0.223726
0.158732
0.151635
0.148151
0.0752664
0.0963613
0.0839837
0.243267
0.0844594
0.16491
0.228867
0.161267
0.0863876
0.0803673
0.232825
0.236548
0.239843
0.138238
0.13804
0.138766
0.140112
0.141624
0.14324
0.144894
0.146912
0.148936
0.151032
0.152905
0.154373
0.155208
0.155338
0.154734
0.153445
0.151582
0.149283
0.146725
0.144081
0.141542
0.139319
0.137686
0.136935
0.137136
0.138278
0.140494
0.143981
0.149021
0.156138
0.165448
0.176337
0.187964
0.19715
0.201017
0.200992
0.198625
0.132467
0.111363
0.0958897
0.0839527
0.0763995
0.0720834
0.136317
0.0873644
0.0788128
0.0840552
0.0701074
0.237008
0.238603
0.0865334
0.112355
0.106402
0.157173
0.171389
0.107085
0.0849869
0.247873
0.234936
0.240522
0.0710068
0.1749
0.153393
0.137486
0.125951
0.117508
0.113192
0.114279
0.119812
0.127555
0.134618
0.13825
0.136948
0.13162
0.124625
0.118876
0.116778
0.119017
0.124169
0.132966
0.147284
0.168205
0.195085
0.251952
0.254709
0.256222
0.256541
0.25523
0.242538
0.199197
0.067231
0.0843205
0.0697289
0.0871316
0.19025
0.21929
0.231229
0.163187
0.130987
0.0804758
0.141178
0.216645
0.0693516
0.152612
0.232015
0.160424
0.18412
0.172668
0.16346
0.15795
0.153692
0.15024
0.147347
0.144799
0.1429
0.141997
0.1421
0.142994
0.144429
0.146105
0.148014
0.150234
0.152632
0.155125
0.157559
0.159737
0.161463
0.162585
0.162999
0.16267
0.161629
0.159941
0.157693
0.155111
0.152337
0.149557
0.146978
0.144861
0.143511
0.143096
0.143625
0.145178
0.147937
0.15217
0.158318
0.166741
0.177008
0.188464
0.199495
0.205843
0.206878
0.204887
0.201434
0.172033
0.0894572
0.176569
0.0755314
0.238909
0.0987515
0.188109
0.224798
0.114264
0.20792
0.0778088
0.0628599
0.22223
0.189601
0.158344
0.134334
0.115186
0.100699
0.0905212
0.0834628
0.0740661
0.0790397
0.209999
0.106201
0.194786
0.149548
0.182148
0.183752
0.185286
0.187142
0.189377
0.19184
0.194006
0.195336
0.196033
0.196461
0.196303
0.195331
0.193347
0.190332
0.186401
0.181784
0.176763
0.171633
0.166656
0.162051
0.158014
0.15469
0.152224
0.150768
0.150531
0.151701
0.154231
0.157983
0.16299
0.169387
0.177469
0.187589
0.198909
0.210242
0.22044
0.227041
0.22916
0.228576
0.226438
0.223554
0.200235
0.20282
0.205088
0.207978
0.135633
0.223165
0.132128
0.114822
0.102147
0.085279
0.08875
0.0860999
0.104071
0.243654
0.115545
0.072226
0.0759913
0.0677322
0.103167
0.152637
0.23122
0.233689
0.0901531
0.163635
0.104469
0.184497
0.0916777
0.16179
0.143002
0.0967668
0.129773
0.20905
0.0706784
0.0758313
0.152449
0.127114
0.115465
0.125839
0.180768
0.118927
0.158502
0.236873
0.250904
0.255042
0.257546
0.258541
0.258542
0.257206
0.244915
0.212511
0.0767129
0.066652
0.157474
0.16952
0.213227
0.112944
0.263819
0.240612
0.230721
0.22282
0.216511
0.211532
0.207627
0.204656
0.202699
0.201813
0.201913
0.202901
0.204571
0.20644
0.208041
0.209072
0.209694
0.209981
0.20965
0.208452
0.206243
0.203
0.198866
0.193996
0.188638
0.183068
0.177588
0.172305
0.167558
0.163465
0.160182
0.157873
0.156741
0.156992
0.15868
0.161684
0.165973
0.171642
0.178941
0.188252
0.199244
0.210601
0.221519
0.230146
0.23397
0.233954
0.232069
0.229156
0.2266
0.197853
0.170991
0.149744
0.134337
0.123787
0.116733
0.113238
0.114642
0.120122
0.127595
0.134362
0.137939
0.13676
0.131722
0.124856
0.118976
0.116561
0.117661
0.121801
0.129923
0.143781
0.164557
0.191636
0.221112
0.0747929
0.225457
0.0771062
0.0826042
0.0912509
0.303762
0.213984
0.152927
0.11072
0.078044
0.296098
0.272622
0.234738
0.202251
0.174572
0.151003
0.13279
0.119838
0.109854
0.100793
0.0857934
0.0793164
0.0917047
0.0872235
0.0700766
0.130487
0.234056
0.122504
0.101948
0.106145
0.0908923
0.111484
0.114463
0.201587
0.0726469
0.17518
0.130791
0.112808
0.118576
0.12885
0.145801
0.168155
0.194232
0.221843
0.278313
0.206586
0.0908312
0.139125
0.140763
0.142728
0.144906
0.14964
0.155659
0.0712218
0.0665739
0.0973531
0.171858
0.204972
0.227853
0.242452
0.25178
0.255587
0.25849
0.259078
0.258368
0.25641
0.246418
0.219303
0.164476
0.1256
0.207872
0.117836
0.104148
0.107916
0.147612
0.119024
0.305322
0.298649
0.292267
0.286303
0.28159
0.278663
0.276672
0.275473
0.274886
0.274789
0.274992
0.274989
0.274111
0.271888
0.26861
0.264685
0.259799
0.253646
0.246164
0.237693
0.228696
0.219642
0.21095
0.202981
0.195806
0.189734
0.184784
0.180964
0.178296
0.176784
0.176468
0.17739
0.179651
0.183321
0.188291
0.194272
0.201115
0.208848
0.217716
0.22768
0.237526
0.245994
0.252315
0.255316
0.254523
0.251876
0.249271
0.247127
0.245846
0.245551
0.225449
0.195563
0.167662
0.146202
0.131328
0.121382
0.115421
0.113029
0.114694
0.120283
0.127757
0.134385
0.137915
0.136848
0.131835
0.124864
0.118804
0.116023
0.116073
0.119553
0.127148
0.140616
0.161476
0.1896
0.220011
0.240181
0.240879
0.242313
0.244382
0.24683
0.249339
0.251018
0.249688
0.244626
0.236952
0.227591
0.217493
0.2082
0.200052
0.192818
0.186376
0.180817
0.176388
0.17331
0.171544
0.170998
0.171618
0.17336
0.176243
0.180269
0.185451
0.191752
0.199057
0.207152
0.215691
0.224217
0.23218
0.23919
0.244951
0.249602
0.253474
0.256174
0.257633
0.258023
0.257868
0.257658
0.257748
0.251686
0.262064
0.259015
0.107765
0.203321
0.129383
0.298448
0.291471
0.0837353
0.325762
0.174082
0.103798
0.069293
0.0979686
0.0683811
0.0704086
0.111702
0.0840494
0.228385
0.225859
0.110857
0.161861
0.100243
0.111225
0.172474
0.14911
0.113032
0.219535
0.206553
0.14247
0.0668079
0.213854
0.134389
0.142403
0.130444
0.166782
0.144181
0.228857
0.0980301
0.067258
0.0781773
0.136169
0.160356
0.17774
0.194569
0.217582
0.247573
0.280121
0.311946
0.335876
0.346297
0.339393
0.174538
0.177745
0.0885264
0.334818
0.325564
0.296813
0.266814
0.233633
0.201521
0.175927
0.158614
0.239927
0.067272
0.118179
0.124652
0.130826
0.136661
0.113998
0.260669
0.0673923
0.191836
0.0992558
0.201231
0.27815
0.0948844
0.097431
0.100498
0.104263
0.110728
0.116853
0.122141
0.0669565
0.0667201
0.307977
0.308875
0.316696
0.317564
0.311685
0.311902
0.31031
0.310944
0.308811
0.303797
0.296504
0.287207
0.276691
0.266188
0.256257
0.246897
0.238389
0.230445
0.223464
0.217781
0.213497
0.210579
0.208904
0.208338
0.208739
0.209967
0.211943
0.214612
0.21793
0.221943
0.226606
0.231901
0.237672
0.243554
0.249209
0.254478
0.259497
0.26422
0.267571
0.268483
0.266778
0.262432
0.255819
0.248569
0.242667
0.238452
0.235352
0.232383
0.228803
0.139013
0.168912
0.245974
0.225703
0.194023
0.164992
0.143219
0.128621
0.119224
0.113955
0.112506
0.114531
0.120239
0.127882
0.134751
0.138367
0.137174
0.131852
0.124695
0.118509
0.115138
0.114536
0.117539
0.124733
0.137995
0.159053
0.188024
0.220044
0.239926
0.224264
0.231006
0.215063
0.237849
0.249152
0.254757
0.257128
0.260218
0.260848
0.26026
0.258376
0.252419
0.2324
0.178274
0.128557
0.162261
0.171229
0.178084
0.18952
0.317508
0.312928
0.312274
0.31381
0.316441
0.319467
0.321938
0.323177
0.322818
0.320756
0.317128
0.311793
0.304417
0.295088
0.284809
0.274576
0.264785
0.255356
0.246683
0.238483
0.231249
0.225228
0.22049
0.217004
0.214684
0.213423
0.213128
0.213698
0.215056
0.217159
0.219984
0.223578
0.227805
0.232751
0.238308
0.244267
0.249904
0.255332
0.260474
0.26544
0.269535
0.271421
0.270722
0.267437
0.261632
0.254292
0.247653
0.243004
0.240023
0.237686
0.234959
0.23123
0.19084
0.139153
0.222824
0.220253
0.0878263
0.0724947
0.0680162
0.091841
0.185701
0.181783
0.27479
0.186886
0.120351
0.300677
0.353358
0.396647
0.420673
0.422284
0.405158
0.378361
0.331771
0.293079
0.181908
0.101098
0.203932
0.188035
0.18982
0.189621
0.311155
0.24089
0.295067
0.326993
0.359048
0.398855
0.42271
0.437939
0.434703
0.403614
0.360058
0.0747118
0.0674077
0.079558
0.223338
0.170564
0.170034
0.168744
0.159595
0.249848
0.246578
0.251876
0.263992
0.274934
0.282955
0.288886
0.290477
0.290023
0.286955
0.282917
0.278688
0.274685
0.27148
0.269681
0.269309
0.270208
0.272281
0.275353
0.279013
0.283151
0.287685
0.292479
0.297397
0.302332
0.307212
0.311955
0.316518
0.320821
0.324807
0.328334
0.331604
0.334038
0.335583
0.335855
0.334478
0.331283
0.326291
0.319551
0.310597
0.298814
0.284562
0.268742
0.252275
0.236391
0.222882
0.213048
0.206853
0.203096
0.201003
0.200302
0.200962
0.163431
0.157081
0.153953
0.1479
0.140303
0.132984
0.129569
0.122144
0.100998
0.0811492
0.213855
0.184742
0.205413
0.216937
0.0748421
0.0671555
0.151288
0.149907
0.159013
0.168469
0.127444
0.0870942
0.201161
0.216336
0.231974
0.235569
0.237431
0.238667
0.242135
0.242924
0.242298
0.240981
0.239127
0.233877
0.192116
0.148446
0.134318
0.173449
0.226446
0.246183
0.226842
0.193347
0.163368
0.141115
0.126528
0.117501
0.112699
0.11176
0.114318
0.120263
0.128224
0.13548
0.139249
0.137856
0.132064
0.12456
0.118108
0.114127
0.113289
0.115946
0.122909
0.136174
0.157609
0.187401
0.220806
0.239235
0.218919
0.202774
0.256421
0.25228
0.255414
0.265442
0.277865
0.287779
0.292431
0.292616
0.290073
0.286431
0.282764
0.279218
0.275933
0.273465
0.272326
0.272455
0.273745
0.276009
0.279062
0.282486
0.286291
0.290406
0.294732
0.299191
0.303714
0.308264
0.312773
0.317189
0.321445
0.325484
0.329204
0.33286
0.335203
0.337213
0.338061
0.33738
0.334831
0.330457
0.324347
0.316229
0.30537
0.291754
0.276286
0.259889
0.24356
0.228858
0.217612
0.210377
0.20616
0.203804
0.20278
0.203029
0.204375
0.182872
0.192225
0.217221
0.0702794
0.070832
0.267828
0.242341
0.254809
0.175423
0.294558
0.236051
0.204068
0.212186
0.186531
0.220021
0.134548
0.15619
0.114568
0.121323
0.113184
0.112248
0.123888
0.117367
0.137431
0.131498
0.135066
0.138836
0.119686
0.127705
0.110871
0.113704
0.11603
0.111642
0.13935
0.124764
0.192662
0.161906
0.243729
0.226535
0.259352
0.286063
0.205133
0.21981
0.212988
0.234158
0.191593
0.198084
0.209424
0.195145
0.261894
0.23271
0.329795
0.294685
0.401771
0.366004
0.461862
0.434263
0.50685
0.485628
0.539507
0.525075
0.557316
0.550127
0.56324
0.56152
0.560751
0.562857
0.552381
0.557176
0.539405
0.546391
0.522707
0.531506
0.502069
0.51291
0.47609
0.489927
0.444444
0.460915
0.408137
0.426842
0.367595
0.38834
0.323608
0.346256
0.270661
0.298532
0.213101
0.241623
0.163618
0.186505
0.154042
0.154311
0.173693
0.158418
0.28792
0.212855
0.484988
0.380321
0.695594
0.59415
0.772914
0.761443
0.637977
0.714152
0.585047
0.617793
0.473935
0.50081
0.446551
0.473349
0.330989
0.385794
0.265464
0.287435
0.210947
0.21794
0.178643
0.249898
0.248927
0.249383
0.247528
0.251942
0.251175
0.250144
0.2519
0.247854
0.24836
0.247507
0.249331
0.171392
0.240135
0.154709
0.191715
0.197977
0.111387
0.245075
0.211188
0.316836
0.29336
0.42224
0.355211
0.475214
0.479028
0.5065
0.474878
0.582326
0.54347
0.718202
0.644118
0.746146
0.762375
0.58695
0.682298
0.387134
0.484907
0.212437
0.29723
0.1573
0.167521
0.154811
0.154865
0.185436
0.167437
0.230492
0.204523
0.293253
0.261696
0.343969
0.320923
0.384422
0.364416
0.422714
0.403969
0.457471
0.440535
0.48839
0.473532
0.513229
0.5016
0.532598
0.523548
0.54716
0.540442
0.556907
0.552678
0.561031
0.559771
0.557707
0.560461
0.543941
0.552361
0.516314
0.53204
0.475066
0.497019
0.421573
0.450475
0.352307
0.388064
0.282639
0.316723
0.224329
0.251268
0.194496
0.204574
0.203725
0.194555
0.22032
0.197221
0.106534
0.210318
0.0804768
0.324151
0.195529
0.315888
0.240993
0.09319
0.13594
0.138173
0.106319
0.104597
0.0645978
0.0655128
0.0870745
0.0998618
0.210289
0.200451
0.199545
0.0977453
0.106796
0.102194
0.13263
0.121975
0.128102
0.134552
0.118749
0.127167
0.133088
0.112568
0.12297
0.128167
0.104058
0.115728
0.10293
0.0689934
0.109251
0.0685321
0.151495
0.067406
0.0788713
0.1002
0.0660921
0.0693481
0.158725
0.107381
0.100506
0.0862386
0.283495
0.109023
0.300774
0.14884
0.297748
0.244323
0.140776
0.0846639
0.114209
0.112439
0.146905
0.108841
0.15895
0.0938822
0.0993207
0.101331
0.113796
0.11089
0.244316
0.118711
0.321776
0.25334
0.197702
0.201043
0.226987
0.0865772
0.173484
0.199128
0.0814709
0.139918
0.142898
0.104055
0.232447
0.198026
0.118228
0.101903
0.094863
0.0943412
0.212482
)
;

boundaryField
{
    wall
    {
        type            nutkWallFunction;
        blending        stepwise;
        value           uniform 0;
    }
    outlet
    {
        type            calculated;
        value           nonuniform List<scalar> 
33
(
0.236051
0.204068
0.212186
0.186531
0.220021
0.134548
0.15619
0.114568
0.121323
0.113184
0.112248
0.123888
0.117367
0.137431
0.131498
0.135066
0.138836
0.119686
0.127705
0.110871
0.113704
0.11603
0.111642
0.13935
0.124764
0.192662
0.161906
0.243729
0.226535
0.205133
0.21981
0.324151
0.315888
)
;
    }
    inlet
    {
        type            calculated;
        value           uniform 0.338346;
    }
    frontAndBackPlanes
    {
        type            empty;
    }
}


// ************************************************************************* //
