/*--------------------------------*- C++ -*----------------------------------*\
| =========                 |                                                 |
| \\      /  F ield         | OpenFOAM: The Open Source CFD Toolbox           |
|  \\    /   O peration     | Version:  2212                                  |
|   \\  /    A nd           | Website:  www.openfoam.com                      |
|    \\/     M anipulation  |                                                 |
\*---------------------------------------------------------------------------*/
FoamFile
{
    version     2.0;
    format      ascii;
    arch        "LSB;label=32;scalar=64";
    class       volScalarField;
    location    "2.4e-05";
    object      p;
}
// * * * * * * * * * * * * * * * * * * * * * * * * * * * * * * * * * * * * * //

dimensions      [1 -1 -2 0 0 0 0];

internalField   nonuniform List<scalar> 
10556
(
140857
140891
140898
141018
140897
141053
140860
140885
140819
141023
141048
141303
141126
141089
140745
140746
140366
140404
140010
140075
139849
140126
139967
139250
135668
133057
133124
133175
133318
133322
133472
133391
133401
133376
133464
133414
133532
133351
133278
132999
132958
132667
132641
132351
132360
132131
132264
132194
132454
131543
131245
131320
131392
131531
131602
131723
131713
131715
131689
131688
131566
131588
131368
131303
131016
130974
130684
130647
130353
130357
130099
130132
129992
130888
131104
130365
130443
130523
130658
130760
130864
130892
130891
130858
130811
130646
130618
130372
130316
130020
129982
129684
129646
129343
129350
129073
129057
128846
129197
129322
130001
130081
130166
130296
130416
130506
130563
130558
130516
130440
130248
130186
129924
129880
129572
129543
129236
129201
128887
128903
128616
128578
128309
128371
128431
129844
129924
130010
130139
130268
130350
130426
130417
130369
130276
130070
129987
129716
129682
129367
129346
129031
129000
128678
128703
128412
128366
128060
127989
127999
129782
129863
129950
130078
130212
130289
130378
130363
130312
130211
129999
129905
129629
129602
129282
129267
128948
128920
128594
128624
128330
128284
127960
127844
127823
129763
129843
129930
130059
130195
130269
130365
130345
130295
130190
129977
129882
129604
129579
129258
129243
128924
128896
128568
128600
128305
128259
127931
127805
127766
129959
130026
130122
130217
130363
130399
130520
130530
130538
130441
130260
130210
129991
129935
129657
129581
129298
129184
128868
128814
128503
128375
128017
127836
127757
130977
131028
131102
131159
131199
131296
131365
131445
131437
131434
131286
131281
131092
131038
130778
130665
130365
130224
129896
129800
129463
129284
128874
128650
128335
132326
132348
132385
132440
132480
132557
132604
132656
132674
132726
132595
132617
132402
132380
132099
131965
131613
131501
131135
131020
130632
130446
129981
129867
129311
133945
133952
133974
134021
134057
134126
134148
134199
134206
134268
134105
134130
133847
133863
133529
133402
132981
132922
132484
132384
131922
131772
131223
131210
130490
135752
135750
135759
135803
135826
135880
135903
135945
135919
135980
135772
135808
135473
135504
135119
135014
134519
134509
133991
133918
133376
133258
132634
132701
131910
137736
137738
137743
137783
137777
137837
137842
137912
137839
137905
137653
137698
137324
137371
136934
136870
136319
136323
135745
135709
135088
135028
134333
134388
133594
139976
139968
139960
139995
139982
140039
140024
140083
139989
140055
139794
139842
139457
139503
139017
139011
138417
138427
137800
137784
137106
137091
136341
136359
135585
142411
142393
142357
142394
142359
142424
142386
142460
142341
142420
142123
142183
141775
141823
141304
141340
140720
140742
140068
140077
139347
139363
138548
138575
137762
145015
144986
144941
144972
144919
144981
144937
145008
144876
144954
144650
144717
144307
144363
143826
143870
143229
143260
142550
142569
141815
141833
140986
141005
140155
147695
147666
147610
147638
147570
147638
147578
147662
147511
147601
147272
147354
146912
146992
146417
146474
145803
145857
145111
145157
144362
144410
143492
143575
142649
150502
150475
150405
150432
150347
150420
150348
150445
150269
150372
150009
150117
149642
149742
149122
149204
148476
148569
147770
147847
147028
147082
146154
146196
145278
153383
153355
153268
153299
153188
153274
153176
153298
153085
153206
152795
152940
152413
152558
151873
152002
151216
151325
150501
150573
149738
149792
148872
148921
147969
156286
156255
156168
156198
156086
156156
156082
156179
155985
156078
155687
155810
155298
155419
154733
154831
154075
154150
153316
153386
152554
152582
151696
151706
150751
159124
159098
159013
159047
158930
159001
158935
159025
158840
158929
158541
158668
158148
158285
157576
157690
156922
156984
156164
156211
155391
155416
154538
154547
153597
161960
161940
161860
161901
161776
161857
161794
161895
161687
161817
161393
161562
161012
161189
160439
160607
159776
159892
159016
159093
158257
158297
157403
157411
156452
164838
164823
164750
164790
164668
164752
164689
164804
164571
164744
164279
164502
163886
164138
163325
163585
162636
162869
161875
162050
161114
161243
160294
160331
159376
167896
167886
167811
167857
167707
167806
167734
167850
167628
167762
167329
167510
166933
167160
166355
166629
165621
165920
164843
165079
164044
164234
163236
163281
162325
171117
171102
171026
171060
170915
171017
170926
171045
170806
170929
170497
170663
170092
170301
169511
169771
168739
169065
167950
168170
167134
167310
166274
166324
165346
174405
174384
174296
174326
174184
174286
174179
174300
174024
174152
173712
173875
173304
173494
172723
172933
171941
172263
171071
171346
170271
170428
169393
169415
168414
177650
177629
177540
177565
177424
177534
177402
177517
177231
177341
176927
177054
176508
176659
175927
176079
175171
175392
174283
174489
173447
173571
172529
172552
171482
180900
180874
180776
180789
180669
180751
180633
180718
180431
180517
180123
180225
179699
179797
179109
179204
178390
178473
177479
177588
176594
176685
175660
175670
174561
184232
184202
184085
184090
183973
184039
183901
183970
183676
183743
183344
183433
182899
182974
182286
182372
181567
181587
180664
180682
179747
179782
178771
178780
177640
187730
187696
187550
187545
187409
187473
187289
187360
187042
187106
186677
186764
186207
186268
185560
185643
184810
184820
183890
183892
182937
182972
181938
181942
180819
191308
191272
191097
191084
190918
190992
190764
190849
190495
190568
190096
190183
189598
189666
188934
189009
188140
188170
187210
187222
186243
186271
185182
185205
184077
194983
194948
194742
194722
194531
194611
194365
194454
194080
194151
193646
193725
193121
193185
192438
192504
191620
191650
190664
190698
189675
189724
188573
188617
187467
198668
198625
198391
198367
198165
198240
197994
198072
197683
197747
197225
197294
196675
196730
195981
196036
195143
195174
194178
194206
193167
193215
192036
192099
190887
202457
202398
202139
202117
201904
201975
201719
201792
201379
201446
200899
200970
200317
200392
199620
199667
198747
198797
197761
197795
196723
196768
195582
195647
194385
206231
206159
205882
205870
205635
205714
205434
205523
205054
205153
204555
204664
203950
204057
203227
203309
202340
202430
201325
201402
200265
200325
199141
199184
197913
210031
209945
209660
209646
209422
209487
209215
209283
208822
208895
208306
208405
207683
207772
206928
206988
206049
206084
205031
205060
203927
203962
202795
202823
201564
213724
213631
213345
213346
213133
213190
212931
212981
212531
212589
212030
212094
211406
211468
210636
210679
209747
209770
208734
208751
207630
207646
206484
206503
205237
217449
217365
217086
217098
216899
216950
216705
216749
216309
216359
215817
215872
215214
215267
214442
214486
213540
213587
212533
212564
211439
211463
210293
210309
209041
221127
221056
220792
220821
220631
220675
220444
220486
220053
220104
219568
219633
218979
219050
218226
218282
217321
217399
216327
216372
215251
215279
214110
214124
212836
224962
224915
224674
224713
224527
224562
224335
224379
223952
224007
223478
223563
222883
222980
222143
222215
221254
221332
220268
220321
219192
219234
218058
218082
216788
228744
228722
228517
228552
228358
228388
228173
228221
227812
227878
227366
227453
226776
226874
226046
226123
225200
225246
224232
224260
223167
223189
222041
222056
220778
232573
232571
232424
232444
232285
232301
232112
232145
231803
231859
231410
231463
230846
230904
230147
230200
229314
229346
228380
228396
227355
227373
226257
226275
225033
236220
236235
236143
236158
236053
236063
235892
235917
235647
235687
235326
235373
234803
234843
234147
234182
233359
233382
232469
232484
231504
231519
230454
230469
229276
239993
240011
239989
240004
239953
239968
239832
239857
239625
239671
239390
239443
238930
238974
238325
238355
237599
237617
236767
236775
235862
235873
234857
234875
233740
243775
243797
243816
243845
243839
243862
243764
243789
243595
243640
243423
243487
243018
243071
242452
242497
241775
241807
240994
241015
240163
240172
239216
239220
238161
247831
247864
247918
247964
248001
248035
247973
248001
247842
247899
247726
247804
247391
247449
246870
246912
246229
246262
245477
245499
244669
244684
243724
243739
242757
251936
251987
252049
252108
252161
252196
252166
252204
252062
252126
251981
252066
251696
251763
251208
251259
250602
250630
249874
249894
249108
249119
248167
248172
247206
256379
256430
256501
256562
256628
256675
256665
256710
256572
256641
256508
256588
256267
256329
255808
255849
255226
255248
254530
254544
253736
253753
252811
252821
251839
260655
260709
260783
260844
260915
260977
260988
261049
260905
260989
260846
260929
260638
260701
260198
260237
259638
259657
258966
258983
258194
258210
257299
257306
256271
265008
265063
265145
265207
265277
265350
265389
265454
265337
265422
265245
265354
265065
265159
264660
264728
264119
264164
263478
263502
262738
262757
261873
261884
260848
268996
269077
269168
269241
269316
269399
269465
269537
269469
269556
269413
269510
269265
269350
268908
268962
268406
268440
267814
267828
267127
267125
266309
266309
265331
272913
273038
273152
273247
273349
273456
273551
273634
273663
273736
273666
273746
273583
273654
273299
273339
272870
272884
272330
272331
271692
271682
270922
270929
270039
276792
276960
277098
277213
277354
277508
277636
277738
277815
277885
277880
277967
277878
277955
277647
277698
277292
277319
276822
276829
276264
276244
275566
275570
274757
281129
281317
281482
281628
281795
281973
282122
282263
282362
282434
282485
282586
282539
282612
282346
282394
282034
282061
281592
281605
281058
281069
280393
280405
279598
285728
285901
286081
286235
286411
286600
286742
286907
287001
287131
287160
287293
287220
287321
287044
287130
286750
286816
286335
286376
285831
285845
285187
285197
284371
290738
290871
291072
291236
291417
291597
291753
291923
292024
292155
292196
292297
292236
292307
292052
292111
291754
291797
291321
291359
290801
290826
290159
290169
289344
295606
295772
295967
296135
296313
296485
296650
296824
296945
297077
297116
297228
297156
297248
297000
297072
296703
296747
296296
296322
295797
295814
295155
295165
294350
300704
300908
301115
301305
301496
301684
301869
302049
302181
302306
302362
302442
302425
302483
302287
302343
301985
302032
301586
301624
301094
301118
300466
300476
299718
305846
306073
306298
306513
306723
306923
307115
307311
307460
307586
307645
307721
307734
307791
307633
307683
307353
307395
306976
307001
306493
306509
305878
305889
305141
311511
311734
311969
312202
312432
312643
312839
313042
313204
313328
313389
313458
313472
313542
313379
313444
313121
313161
312736
312768
312238
312259
311628
311638
310899
317109
317295
317546
317809
318053
318272
318468
318673
318848
318983
319062
319131
319157
319234
319081
319154
318843
318887
318467
318496
317976
317987
317361
317371
316628
323012
323186
323446
323716
323974
324200
324399
324598
324771
324934
325005
325104
325119
325200
325038
325120
324803
324867
324424
324478
323944
323984
323346
323367
322633
328823
328995
329271
329547
329822
330056
330264
330470
330642
330835
330899
331057
331026
331150
330970
331063
330757
330832
330392
330439
329930
329958
329332
329345
328614
334822
335015
335302
335591
335875
336123
336346
336559
336751
336953
337052
337210
337186
337328
337150
337259
336952
337025
336602
336652
336156
336188
335572
335589
334865
340692
340877
341194
341505
341808
342074
342314
342539
342752
342968
343097
343256
343271
343403
343251
343370
343082
343161
342761
342807
342339
342366
341786
341801
341115
346899
347082
347423
347751
348069
348347
348603
348850
349069
349317
349435
349635
349624
349807
349606
349789
349460
349589
349169
349238
348753
348796
348215
348240
347560
353223
353398
353779
354092
354432
354702
354970
355245
355433
355750
355777
356088
355945
356282
355925
356261
355821
356040
355536
355673
355121
355203
354607
354637
353955
359872
360056
360429
360741
361069
361348
361608
361865
362074
362356
362411
362680
362537
362840
362501
362841
362275
362683
361910
362279
361514
361712
361021
361085
360347
366378
366581
366938
367252
367566
367836
368085
368328
368544
368796
368873
369090
368975
369189
368935
369153
368685
368983
368269
368605
367791
368020
367279
367341
366583
373025
373246
373575
373879
374170
374423
374654
374885
375098
375321
375414
375568
375483
375589
375409
375511
375136
375275
374711
374876
374160
374316
373542
373611
372821
379913
380126
380426
380706
380968
381193
381403
381618
381814
382008
382088
382196
382100
382161
381973
382033
381665
381732
381220
381270
380643
380686
379954
379985
379172
387177
387367
387645
387890
388118
388314
388498
388693
388848
389030
389058
389154
389006
389083
388818
388907
388459
388535
387970
388014
387366
387383
386628
386656
385800
394582
394738
395034
395233
395437
395599
395753
395955
396047
396269
396174
396353
396086
396290
395852
396082
395448
395654
394955
395067
394362
394379
393593
393621
392738
402044
402209
402494
402671
402859
403002
403129
403337
403372
403620
403469
403673
403381
403603
403136
403335
402760
402871
402222
402326
401547
401617
400775
400808
399903
409745
409861
410105
410269
410429
410570
410692
410846
410919
411069
410977
411075
410869
410994
410584
410720
410126
410251
409561
409681
408877
408967
408047
408092
407147
417705
417796
417977
418109
418236
418357
418463
418593
418646
418718
418652
418704
418489
418549
418161
418203
417677
417703
417058
417084
416323
416336
415431
415444
414455
425819
425895
426031
426133
426227
426326
426398
426502
426520
426590
426515
426565
426300
426330
425905
425919
425384
425393
424726
424734
423937
423947
423016
423023
421991
433893
434000
434104
434180
434259
434344
434407
434487
434497
434560
434492
434533
434256
434271
433839
433840
433295
433292
432603
432607
431814
431819
430875
430882
429832
441845
441957
442070
442144
442226
442326
442398
442463
442454
442523
442462
442523
442250
442298
441837
441866
441278
441299
440589
440609
439816
439832
438894
438904
437844
449621
449766
449906
450002
450091
450186
450267
450348
450362
450436
450368
450440
450195
450256
449808
449852
449270
449300
448590
448614
447830
447846
446932
446940
445883
457216
457399
457575
457699
457810
457921
458023
458124
458153
458233
458160
458240
458017
458088
457668
457717
457155
457189
456510
456530
455768
455777
454889
454892
453859
464725
464955
465167
465328
465466
465594
465712
465831
465882
465963
465924
466008
465806
465879
465476
465531
464999
465038
464385
464408
463673
463680
462818
462818
461818
472340
472617
472858
473050
473216
473368
473509
473647
473718
473807
473800
473887
473705
473782
473403
473466
472953
473002
472370
472401
471689
471699
470864
470866
469895
480270
480590
480857
481060
481256
481425
481584
481751
481834
481960
481932
482049
481842
481962
481570
481685
481134
481224
480583
480630
479928
479951
479127
479136
478179
488618
488960
489264
489439
489671
489846
489993
490223
490237
490485
490301
490584
490209
490509
489930
490233
489500
489740
489000
489099
488378
488417
487584
487600
486638
497327
497660
497960
498147
498377
498558
498729
498939
498968
499234
499001
499320
498919
499230
498621
498968
498130
498485
497597
497833
497031
497086
496242
496267
495302
506284
506606
506904
507083
507319
507503
507681
507899
507923
508205
507967
508299
507867
508216
507542
507905
507082
507402
506551
506761
505937
506019
505151
505191
504230
515434
515740
516025
516204
516439
516632
516814
517019
517066
517331
517143
517435
517038
517348
516701
517022
516213
516528
515656
515923
515021
515140
514228
514320
513341
524762
524995
525263
525447
525654
525847
526025
526191
526297
526452
526420
526565
526307
526460
525943
526134
525369
525654
524762
525101
524058
524248
523241
523445
522401
534314
534414
534662
534822
534991
535151
535293
535407
535485
535571
535605
535681
535464
535490
535050
535058
534434
534470
533775
533944
533031
533001
532031
532248
531141
544147
544147
544337
544457
544574
544664
544703
544716
544722
544761
544803
544853
544573
544478
544048
543878
543296
543106
542446
542653
541848
541393
540505
540689
539542
554002
553972
554084
554162
554216
554238
554190
554176
554048
554086
553931
554043
553664
553499
552979
552810
552157
551830
551127
551342
550512
549922
548962
549126
547916
563629
563658
563723
563748
563765
563760
563650
563630
563436
563478
563190
563282
562812
562674
562035
561988
561245
560891
560113
560243
559327
558950
557842
557896
556710
573416
573494
573545
573540
573532
573491
573357
573300
573075
573134
572815
572869
572346
572119
571443
571500
570717
570369
569513
569524
568560
568407
567248
567176
565921
583565
583599
583620
583589
583582
583506
583354
583263
583015
583073
582706
582723
582176
581888
581197
581260
580447
580106
579176
579139
578097
578110
576912
576753
575447
593671
593682
593692
593649
593641
593543
593390
593266
592996
593099
592643
592643
592034
591832
591058
591138
590187
589998
588960
588952
587861
587925
586649
586534
585190
603948
603945
603956
603889
603878
603767
603632
603496
603221
603342
602842
602832
602195
601990
601167
601316
600308
600146
599060
599086
598007
598053
596747
596679
595298
614636
614626
614643
614560
614525
614410
614295
614184
613903
614028
613478
613502
612816
612622
611793
611929
610978
610796
609688
609731
608692
608696
607370
607367
605916
625247
625234
625264
625196
625155
625066
624978
624915
624671
624751
624315
624294
623700
623396
622672
622804
621885
621711
620656
620788
619703
619697
618427
618416
616990
635469
635461
635529
635524
635531
635470
635423
635440
635271
635335
634993
634994
634492
634200
633560
633728
632854
632738
631780
631914
630883
630858
629711
629700
628389
645582
645619
645766
645818
645886
645898
645897
645938
645876
645952
645719
645733
645312
645132
644637
644683
643961
643845
643017
643142
642255
642169
641173
641159
639997
656050
656093
656287
656450
656576
656634
656681
656716
656740
656835
656713
656720
656372
656300
655861
655919
655294
655172
654441
654537
653799
653687
652802
652777
651707
667211
667214
667448
667678
667864
667907
667975
668051
668083
668139
668048
668065
667783
667768
667325
667408
666779
666714
666011
666101
665337
665411
664456
664382
663303
679175
679246
679453
679650
679827
679839
679895
679913
679905
679876
679786
679718
679486
679403
679005
678971
678426
678223
677553
677549
676819
676948
675893
675742
674651
691970
692094
692262
692339
692425
692417
692402
692359
692286
692178
692019
691830
691573
691328
690946
690724
690180
689942
689229
689112
688337
688426
687382
687034
685890
705280
705418
705532
705538
705539
705487
705411
705305
705155
704965
704726
704452
704124
703782
703340
703022
702453
702071
701346
701072
700217
700326
699317
698836
697614
718673
718770
718829
718820
718785
718708
718594
718440
718244
718012
717722
717407
717011
716636
716100
715815
715171
714754
713990
713632
712676
712772
711763
711358
710029
731887
731938
731981
731972
731949
731860
731727
731557
731341
731108
730796
730519
730066
729639
729037
728914
728168
727635
726744
726813
725773
725567
724491
724345
722927
745185
745217
745243
745226
745175
745073
744919
744725
744489
744234
743908
743617
743136
742633
742023
741878
741163
740543
739632
739674
738665
738463
737272
737206
735712
759005
758995
758948
758866
758744
758581
758377
758130
757834
757502
757107
756707
756164
755640
754985
754631
753821
753310
752294
752364
751384
750824
749570
749672
747955
773374
773274
773119
772936
772713
772455
772157
771810
771408
770960
770455
769930
769294
768673
767938
767351
766434
765959
764966
764737
763759
762930
761561
761771
759897
787847
787711
787429
787139
786816
786472
786087
785646
785127
784557
783932
783304
782590
781878
781025
780274
779266
778763
777682
777265
776206
775273
773788
773993
772079
802084
801955
801591
801224
800823
800413
799975
799490
798917
798268
797541
796823
796044
795356
794443
793476
792386
792032
790860
790247
789109
788172
786622
786760
784928
816182
816022
815635
815247
814803
814341
813859
813354
812779
812145
811384
810572
809718
809038
808060
807197
806041
805625
804445
803661
802418
801792
800029
800216
798400
830195
829972
829580
829177
828717
828247
827743
827217
826608
825966
825182
824367
823465
822831
821758
820935
819745
819322
818049
817303
815914
815488
813654
813832
811926
844179
843856
843413
842959
842461
841965
841438
840880
840225
839518
838668
837841
836883
836265
835167
834217
832968
832543
831174
830528
829046
828585
826732
826797
824823
858238
857780
857246
856727
856150
855587
854999
854379
853672
852920
851980
851019
849967
849374
848194
847144
845759
845423
844089
843056
841474
841230
839311
839108
837172
872224
871655
871046
870491
869835
869186
868501
867793
866997
866220
865237
864188
863048
862300
860953
860136
858684
857991
856564
855678
853804
853837
851871
851389
849262
885833
885356
884667
884130
883387
882710
881953
881256
880345
879611
878546
877649
876381
875557
874055
873405
871896
871128
869416
868972
867053
866761
864830
864438
862151
899208
898778
898134
897622
896940
896257
895524
894894
894014
893273
892241
891437
890260
889394
887967
887344
885882
885122
883473
883088
881294
880864
878903
878738
876471
912540
912133
911554
911102
910492
909868
909196
908628
907807
907130
906144
905433
904285
903588
902235
901596
900128
899625
898023
897612
895880
895570
893649
893515
891360
926002
925623
925086
924659
924089
923556
922923
922387
921608
920990
920046
919396
918276
917670
916372
915781
914347
913921
912361
912005
910315
910053
908187
908087
906010
939328
938989
938480
938061
937512
937044
936431
935943
935195
934620
933717
933105
932028
931465
930224
929670
928311
927878
926387
926060
924440
924189
922404
922294
920307
951888
951611
951149
950772
950259
949873
949303
948876
948190
947684
946858
946294
945312
944792
943654
943151
941917
941481
940136
939792
938336
938065
936440
936311
934470
963627
963402
963020
962724
962288
961978
961492
961139
960546
960136
959415
958952
958102
957631
956632
956219
955137
954741
953559
953257
951967
951726
950274
950161
948509
974818
974644
974346
974118
973770
973513
973116
972829
972333
972000
971385
971024
970298
969907
969047
968701
967764
967435
966403
966163
965021
964840
963547
963462
962003
985511
985385
985152
984970
984692
984479
984153
983914
983500
983223
982697
982404
981775
981464
980721
980438
979609
979366
978443
978257
977245
977114
975977
975909
974635
995565
995470
995280
995138
994908
994735
994461
994267
993914
993682
993237
992984
992448
992185
991550
991297
990588
990383
989602
989422
988564
988441
987469
987398
986299
1.00465e+06
1.00456e+06
1.00442e+06
1.00429e+06
1.00412e+06
1.00396e+06
1.00376e+06
1.00357e+06
1.00331e+06
1.00309e+06
1.00274e+06
1.0025e+06
1.00208e+06
1.00183e+06
1.00132e+06
1.00108e+06
1.0005e+06
1.0003e+06
999659
999483
998774
998650
997838
997765
996831
1.01226e+06
1.0122e+06
1.01209e+06
1.012e+06
1.01187e+06
1.01175e+06
1.01159e+06
1.01145e+06
1.01124e+06
1.01107e+06
1.0108e+06
1.01061e+06
1.01028e+06
1.01008e+06
1.00968e+06
1.00948e+06
1.00903e+06
1.00885e+06
1.00835e+06
1.0082e+06
1.00764e+06
1.00752e+06
1.00687e+06
1.00681e+06
1.00605e+06
1.01821e+06
1.01817e+06
1.01811e+06
1.01805e+06
1.01796e+06
1.01788e+06
1.01778e+06
1.01768e+06
1.01754e+06
1.01742e+06
1.01724e+06
1.0171e+06
1.01688e+06
1.01673e+06
1.01645e+06
1.0163e+06
1.01598e+06
1.01585e+06
1.01549e+06
1.01537e+06
1.01497e+06
1.01488e+06
1.0144e+06
1.01435e+06
1.01379e+06
1.02276e+06
1.02274e+06
1.02271e+06
1.02268e+06
1.02263e+06
1.02259e+06
1.02252e+06
1.02247e+06
1.02238e+06
1.02231e+06
1.02219e+06
1.02211e+06
1.02196e+06
1.02187e+06
1.02169e+06
1.02159e+06
1.02137e+06
1.02129e+06
1.02105e+06
1.02097e+06
1.0207e+06
1.02064e+06
1.02031e+06
1.02028e+06
1.01989e+06
1.0262e+06
1.0262e+06
1.02619e+06
1.02617e+06
1.02615e+06
1.02613e+06
1.0261e+06
1.02607e+06
1.02602e+06
1.02598e+06
1.02591e+06
1.02586e+06
1.02577e+06
1.02571e+06
1.0256e+06
1.02553e+06
1.0254e+06
1.02535e+06
1.02519e+06
1.02514e+06
1.02496e+06
1.02493e+06
1.02472e+06
1.02469e+06
1.02444e+06
1.02876e+06
1.02876e+06
1.02876e+06
1.02875e+06
1.02875e+06
1.02873e+06
1.02872e+06
1.0287e+06
1.02867e+06
1.02864e+06
1.02861e+06
1.02857e+06
1.02852e+06
1.02848e+06
1.02841e+06
1.02837e+06
1.02829e+06
1.02825e+06
1.02816e+06
1.02812e+06
1.02801e+06
1.02798e+06
1.02785e+06
1.02783e+06
1.02767e+06
1.03059e+06
1.03059e+06
1.03059e+06
1.03059e+06
1.03058e+06
1.03057e+06
1.03056e+06
1.03055e+06
1.03053e+06
1.03051e+06
1.03049e+06
1.03046e+06
1.03043e+06
1.03039e+06
1.03036e+06
1.03032e+06
1.03027e+06
1.03023e+06
1.03018e+06
1.03014e+06
1.03008e+06
1.03005e+06
1.02997e+06
1.02995e+06
1.02984e+06
1.03185e+06
1.03185e+06
1.03184e+06
1.03184e+06
1.03183e+06
1.03182e+06
1.03181e+06
1.0318e+06
1.03178e+06
1.03177e+06
1.03175e+06
1.03173e+06
1.0317e+06
1.03167e+06
1.03165e+06
1.03161e+06
1.03158e+06
1.03155e+06
1.03151e+06
1.03148e+06
1.03144e+06
1.03142e+06
1.03136e+06
1.03134e+06
1.03127e+06
1.03267e+06
1.03267e+06
1.03266e+06
1.03266e+06
1.03265e+06
1.03264e+06
1.03263e+06
1.03262e+06
1.03261e+06
1.0326e+06
1.03258e+06
1.03256e+06
1.03254e+06
1.03252e+06
1.0325e+06
1.03248e+06
1.03246e+06
1.03243e+06
1.03241e+06
1.03239e+06
1.03235e+06
1.03234e+06
1.03229e+06
1.03228e+06
1.03223e+06
1.03319e+06
1.03319e+06
1.03318e+06
1.03318e+06
1.03317e+06
1.03317e+06
1.03316e+06
1.03315e+06
1.03315e+06
1.03314e+06
1.03313e+06
1.03311e+06
1.0331e+06
1.03309e+06
1.03307e+06
1.03306e+06
1.03304e+06
1.03303e+06
1.03301e+06
1.03299e+06
1.03297e+06
1.03296e+06
1.03293e+06
1.03292e+06
1.03288e+06
1.03352e+06
1.03352e+06
1.03352e+06
1.03351e+06
1.03351e+06
1.03351e+06
1.0335e+06
1.0335e+06
1.03349e+06
1.03348e+06
1.03348e+06
1.03347e+06
1.03346e+06
1.03345e+06
1.03344e+06
1.03343e+06
1.03342e+06
1.03341e+06
1.0334e+06
1.03339e+06
1.03337e+06
1.03337e+06
1.03335e+06
1.03334e+06
1.03332e+06
1.03373e+06
1.03373e+06
1.03373e+06
1.03372e+06
1.03372e+06
1.03372e+06
1.03371e+06
1.03371e+06
1.03371e+06
1.0337e+06
1.0337e+06
1.03369e+06
1.03369e+06
1.03368e+06
1.03367e+06
1.03367e+06
1.03366e+06
1.03365e+06
1.03364e+06
1.03364e+06
1.03363e+06
1.03362e+06
1.03361e+06
1.03361e+06
1.03359e+06
1.03385e+06
1.03385e+06
1.03385e+06
1.03385e+06
1.03384e+06
1.03384e+06
1.03384e+06
1.03384e+06
1.03383e+06
1.03383e+06
1.03383e+06
1.03382e+06
1.03382e+06
1.03382e+06
1.03381e+06
1.03381e+06
1.0338e+06
1.0338e+06
1.03379e+06
1.03379e+06
1.03378e+06
1.03378e+06
1.03377e+06
1.03377e+06
1.03376e+06
1.03392e+06
1.03392e+06
1.03392e+06
1.03392e+06
1.03392e+06
1.03391e+06
1.03391e+06
1.03391e+06
1.03391e+06
1.03391e+06
1.0339e+06
1.0339e+06
1.0339e+06
1.0339e+06
1.03389e+06
1.03389e+06
1.03389e+06
1.03389e+06
1.03388e+06
1.03388e+06
1.03387e+06
1.03387e+06
1.03387e+06
1.03387e+06
1.03386e+06
1.03396e+06
1.03396e+06
1.03396e+06
1.03395e+06
1.03395e+06
1.03395e+06
1.03395e+06
1.03395e+06
1.03395e+06
1.03395e+06
1.03395e+06
1.03395e+06
1.03394e+06
1.03394e+06
1.03394e+06
1.03394e+06
1.03394e+06
1.03394e+06
1.03393e+06
1.03393e+06
1.03393e+06
1.03393e+06
1.03392e+06
1.03392e+06
1.03392e+06
1.03398e+06
1.03398e+06
1.03397e+06
1.03397e+06
1.03397e+06
1.03397e+06
1.03397e+06
1.03397e+06
1.03397e+06
1.03397e+06
1.03397e+06
1.03397e+06
1.03397e+06
1.03397e+06
1.03397e+06
1.03397e+06
1.03396e+06
1.03396e+06
1.03396e+06
1.03396e+06
1.03396e+06
1.03396e+06
1.03396e+06
1.03396e+06
1.03395e+06
1.03399e+06
1.03399e+06
1.03399e+06
1.03399e+06
1.03399e+06
1.03398e+06
1.03398e+06
1.03398e+06
1.03398e+06
1.03398e+06
1.03398e+06
1.03398e+06
1.03398e+06
1.03398e+06
1.03398e+06
1.03398e+06
1.03398e+06
1.03398e+06
1.03398e+06
1.03398e+06
1.03398e+06
1.03398e+06
1.03398e+06
1.03398e+06
1.03398e+06
1.03399e+06
1.03399e+06
1.03399e+06
1.03399e+06
1.03399e+06
1.03399e+06
1.03399e+06
1.03399e+06
1.03399e+06
1.03399e+06
1.03399e+06
1.03399e+06
1.03399e+06
1.03399e+06
1.03399e+06
1.03399e+06
1.03399e+06
1.03399e+06
1.03399e+06
1.03399e+06
1.03399e+06
1.03399e+06
1.03399e+06
1.03399e+06
1.03399e+06
1.03399e+06
1.03399e+06
1.03399e+06
1.03399e+06
1.03399e+06
1.03399e+06
1.03399e+06
1.03399e+06
1.03399e+06
1.03399e+06
1.03399e+06
1.03399e+06
1.03399e+06
1.03399e+06
1.03399e+06
1.03399e+06
1.03399e+06
1.03399e+06
1.03399e+06
1.03399e+06
1.03399e+06
1.03399e+06
1.03399e+06
1.03399e+06
1.03399e+06
1.034e+06
1.034e+06
1.034e+06
1.034e+06
1.034e+06
1.034e+06
1.034e+06
1.034e+06
1.034e+06
1.034e+06
1.034e+06
1.034e+06
1.034e+06
1.034e+06
1.034e+06
1.034e+06
1.034e+06
1.034e+06
1.034e+06
1.034e+06
1.034e+06
1.034e+06
1.034e+06
1.034e+06
1.034e+06
1.034e+06
1.034e+06
1.034e+06
1.034e+06
1.034e+06
1.034e+06
1.034e+06
1.034e+06
1.034e+06
1.034e+06
1.034e+06
1.034e+06
1.034e+06
1.034e+06
1.034e+06
1.034e+06
1.034e+06
1.034e+06
1.034e+06
1.034e+06
1.034e+06
1.034e+06
1.034e+06
1.034e+06
1.034e+06
1.034e+06
1.034e+06
1.034e+06
1.034e+06
1.034e+06
1.034e+06
1.034e+06
1.034e+06
1.034e+06
1.034e+06
1.034e+06
1.034e+06
1.034e+06
1.034e+06
1.034e+06
1.034e+06
1.034e+06
1.034e+06
1.034e+06
1.034e+06
1.034e+06
1.034e+06
1.034e+06
1.034e+06
1.034e+06
1.034e+06
1.034e+06
1.034e+06
1.034e+06
1.034e+06
1.034e+06
1.034e+06
1.034e+06
1.034e+06
1.034e+06
1.034e+06
1.034e+06
1.034e+06
1.034e+06