/*--------------------------------*- C++ -*----------------------------------*\
| =========                 |                                                 |
| \\      /  F ield         | OpenFOAM: The Open Source CFD Toolbox           |
|  \\    /   O peration     | Version:  2212                                  |
|   \\  /    A nd           | Website:  www.openfoam.com                      |
|    \\/     M anipulation  |                                                 |
\*---------------------------------------------------------------------------*/
FoamFile
{
    version     2.0;
    format      ascii;
    arch        "LSB;label=32;scalar=64";
    class       volScalarField;
    location    "0.00016";
    object      alphat;
}
// * * * * * * * * * * * * * * * * * * * * * * * * * * * * * * * * * * * * * //

dimensions      [1 -1 -1 0 0 0 0];

internalField   nonuniform List<scalar> 
2681
(
0.00163802
0.00163802
0.00163802
0.00163802
0.00163802
0.00163802
0.00163802
0.00163802
0.00163802
0.00163802
0.00163802
0.00163802
0.00163802
0.00163802
0.00163802
0.00163802
0.00163802
0.00163802
0.00163802
0.00163802
0.00163802
0.00163802
0.00163802
0.00163802
0.00163802
0.00163802
0.00163802
0.00163802
0.00163802
0.00163802
0.00163802
0.00163802
0.00163802
0.00163802
0.00163802
0.00163802
0.00163802
0.00163802
0.00163802
0.00163802
0.00163802
0.00163802
0.00163802
0.00163802
0.00163802
0.00163802
0.00163802
0.00163802
0.00163802
0.00163802
0.00163802
0.00163802
0.00163802
0.00163802
0.00163802
0.00163802
0.00163802
0.00163802
0.00163802
0.00163802
0.00163802
0.00163802
0.00163802
0.00163802
0.00163802
0.00163802
0.00163802
0.00163802
0.00163802
0.00163802
0.00163802
0.00163802
0.00163802
0.00163802
0.00163802
0.00163802
0.00153553
0.00163802
0.00163802
0.00163802
0.00163802
0.00163802
0.00163802
0.00163802
0.00163802
0.00163802
0.00163802
0.00163802
0.00163802
0.00163802
0.00163802
0.00163802
0.00163802
0.00163802
0.00163802
0.00163802
0.00163802
0.00163802
0.00163802
0.00163802
0.00163802
0.00163802
0.00163802
0.00163802
0.00163802
0.00163802
0.00163802
0.00163802
0.00163802
0.00163802
0.00163802
0.00163802
0.00163802
0.00163802
0.00163802
0.00163802
0.00163802
0.00163802
0.00163802
0.00163802
0.00163802
0.00163802
0.00163802
0.00163802
0.00163802
0.00163802
0.00163802
0.00163802
0.00163802
0.00163802
0.00163802
0.00163802
0.00163802
0.00163802
0.00163802
0.00163802
0.00163802
0.00163802
0.00163802
0.00163802
0.00163802
0.00163802
0.00163802
0.00163802
0.00163802
0.00163802
0.00163802
0.00163802
0.00163802
0.00163802
0.00163802
0.00163802
0.00163802
0.00163802
0.00163802
0.00163802
0.00163802
0.00163802
0.00163802
0.00163802
0.00163802
0.00163802
0.00163802
0.00163802
0.00163802
0.00163802
0.00163802
0.00163802
0.00163802
0.00163802
0.00163802
0.00163802
0.00163802
0.00163802
0.00163802
0.00163802
0.00163802
0.00163802
0.00163802
0.00163802
0.00163802
0.00163802
0.00163802
0.00163802
0.00163802
0.00163802
0.00163802
0.00163802
0.00163802
0.00163802
0.00163802
0.00163802
0.00163802
0.00163802
0.00163802
0.00163802
0.00163802
0.00163802
0.00163802
0.00163802
0.00163802
0.00163802
0.00163802
0.00163802
0.00163802
0.00163802
0.00163802
0.00163802
0.00163802
0.00163802
0.00163802
0.00163802
0.00163802
0.00163802
0.00163802
0.00163802
0.00163802
0.00163802
0.00163802
0.00163802
0.00163802
0.00163802
0.00163802
0.00163802
0.00163802
0.00163802
0.00163802
0.00163802
0.00163802
0.00163802
0.00163802
0.00163802
0.00163802
0.00163802
0.00163802
0.00163802
0.00163802
0.00163802
0.00163802
0.00163802
0.00163802
0.00163802
0.00163802
0.00163802
0.00163802
0.00163802
0.00163802
0.00163802
0.00163802
0.00163802
0.00163802
0.00163802
0.00163802
0.00163802
0.00163802
0.00163802
0.00163802
0.00163802
0.00163802
0.00163802
0.00163802
0.00163802
0.00163802
0.00163802
0.00163802
0.00163802
0.00163802
0.00163802
0.00163802
0.00163802
0.00163802
0.00163802
0.00163802
0.00163802
0.00163802
0.00163802
0.00163802
0.00163802
0.00163802
0.00163802
0.00163802
0.00163802
0.00163802
0.00163802
0.00163802
0.00163802
0.00163802
0.00163802
0.00163802
0.00163802
0.00163802
0.00163802
0.00163802
0.00163802
0.00163802
0.00163802
0.00163802
0.00163802
0.00163802
0.00163802
0.00163802
0.00163802
0.00163802
0.00163802
0.00163802
0.00163802
0.00163802
0.00163802
0.00163802
0.00163802
0.00163802
0.00163802
0.00163802
0.00163802
0.00163802
0.00163802
0.00163802
0.00163802
0.00163802
0.00163802
0.00163802
0.00163802
0.00163802
0.00163802
0.00163802
0.00163802
0.00163802
0.00163802
0.00163802
0.00163802
0.00163802
0.00163802
0.00163802
0.00163802
0.00163802
0.00163802
0.00163802
0.00163802
0.00163802
0.00163802
0.00163802
0.00163802
0.00163802
0.00163802
0.00163802
0.00163802
0.00163802
0.00163802
0.00163802
0.00163802
0.00163783
0.00163802
0.00163802
0.00163802
0.00163802
0.00163802
0.00163802
0.00163802
0.00163802
0.00163802
0.00163802
0.00163802
0.00163802
0.00163802
0.00163802
0.00163802
0.00163802
0.00163802
0.00163802
0.00163802
0.00163802
0.00163802
0.00163802
0.00163802
0.00163802
0.00163802
0.00163802
0.00163802
0.00163802
0.00163802
0.00163802
0.00163802
0.00163802
0.00163802
0.00163802
0.00163802
0.00163802
0.00163802
0.00163802
0.00163802
0.00163802
0.00163802
0.00163802
0.00163802
0.00163802
0.00163802
0.00163802
0.00163802
0.00163802
0.00163802
0.00163802
0.00163802
0.00163802
0.00163802
0.00163802
0.00163802
0.00163802
0.00163802
0.00163802
0.00163802
0.00163802
0.00163802
0.00163802
0.00163802
0.00163802
0.00163802
0.00163802
0.00163802
0.00163802
0.00163802
0.00163802
0.00163802
0.00163802
0.00163802
0.00163802
0.00163802
0.00163802
0.00163802
0.00163802
0.00163802
0.00163802
0.00163802
0.00163802
0.00163802
0.00163802
0.00163802
0.00163802
0.00163802
0.00163802
0.00163802
0.00163802
0.00163802
0.00163802
0.00163802
0.00163802
0.00163802
0.00163802
0.00163802
0.00163802
0.00163802
0.00163802
0.00163802
0.00163802
0.00163802
0.00163802
0.00163802
0.00163802
0.00163802
0.00163802
0.00163802
0.00163802
0.00163802
0.00163802
0.00163802
0.00163802
0.00163802
0.00163802
0.00163802
0.00163802
0.00163802
0.00163802
0.00163802
0.00163802
0.00163802
0.00163802
0.00163802
0.00163802
0.00163802
0.00163802
0.00163802
0.00163802
0.00163802
0.00163802
0.00163802
0.00163802
0.00163802
0.00163802
0.00163802
0.00163802
0.00163802
0.00163802
0.00163802
0.00163802
0.00163802
0.00163802
0.00163802
0.00163802
0.00163802
0.00163802
0.00163802
0.00163802
0.00163802
0.00163802
0.00163802
0.00163802
0.00163802
0.00163802
0.00163802
0.00163802
0.00163802
0.00163802
0.00163802
0.00163802
0.00163802
0.00163802
0.00163802
0.00163802
0.00163802
0.00163802
0.00163802
0.00163802
0.00163802
0.00163802
0.00163802
0.00163802
0.00163802
0.00163802
0.00163802
0.00163775
0.00163802
0.00163802
0.00163802
0.00163802
0.00163802
0.00163802
0.00163802
0.00163802
0.00163802
0.00163802
0.00163802
0.00163802
0.00163802
0.00163802
0.00163802
0.00163802
0.00163802
0.00163802
0.00163802
0.00163802
0.00163802
0.00163802
0.00163802
0.00163802
0.00163802
0.00163802
0.00163802
0.00163802
0.00163802
0.00163802
0.00163802
0.00163802
0.00163802
0.00163802
0.00163802
0.00163802
0.00163802
0.00163802
0.00163802
0.00163802
0.00163802
0.00163802
0.00163802
0.00163802
0.00163802
0.00163802
0.00163802
0.00163802
0.00163802
0.00163802
0.00163802
0.00163802
0.00163802
0.00163802
0.00163802
0.00163802
0.00163802
0.00163802
0.00163802
0.00163802
0.00163802
0.00163802
0.00163802
0.00163802
0.00163802
0.00163802
0.00163802
0.00163802
0.00163802
0.00163802
0.00163802
0.00163802
0.00163802
0.00163802
0.00163802
0.00163802
0.00163802
0.00163802
0.00163802
0.00163802
0.00163802
0.00163802
0.00163802
0.00163802
0.00163802
0.00163802
0.00163802
0.00163802
0.00163802
0.00163802
0.00163802
0.00163802
0.00163802
0.00163802
0.00163802
0.00163802
0.00163802
0.00163802
0.00163802
0.00163802
0.00163802
0.00163802
0.00163802
0.00163802
0.00163802
0.00163802
0.00163802
0.00163802
0.00163802
0.00163802
0.00163802
0.00163802
0.00163802
0.00163802
0.00163802
0.00163802
0.00163802
0.00163802
0.00163802
0.00163802
0.00163802
0.00163802
0.00163802
0.00163802
0.00163802
0.00163802
0.00163802
0.00163802
0.00163802
0.00163802
0.00163802
0.00163802
0.00163802
0.00163802
0.00163802
0.00163802
0.00163802
0.00163802
0.00163802
0.00163802
0.00163802
0.00163802
0.00163802
0.00163802
0.00163802
0.00163802
0.00163802
0.00163802
0.00163802
0.00163802
0.00163802
0.00163802
0.00163802
0.00163802
0.00163802
0.00163802
0.00163802
0.00163802
0.00163802
0.00163802
0.00163802
0.00163802
0.00163802
0.00163802
0.00163802
0.00163802
0.00163802
0.00163802
0.00163802
0.00163802
0.00163802
0.00163802
0.00163802
0.00163802
0.00163802
0.00163802
0.00163802
0.00163802
0.00163802
0.00163802
0.00163802
0.00163802
0.00163802
0.00163802
0.00163802
0.00163802
0.00163802
0.00163802
0.00163802
0.00163802
0.00163802
0.00163802
0.00163802
0.00163802
0.00163802
0.00163802
0.00163802
0.00163802
0.001638
0.00163802
0.00163802
0.00163802
0.00163802
0.00163802
0.00163802
0.00163802
0.00163802
0.00163802
0.00163802
0.00163802
0.00163802
0.00163802
0.00163802
0.00163802
0.00163802
0.00163802
0.00163802
0.00163802
0.00163802
0.00163802
0.00163802
0.00163802
0.00163802
0.00163802
0.00163802
0.00163802
0.00163802
0.00163802
0.00163802
0.00163802
0.00163802
0.00163802
0.00163802
0.00163802
0.00163802
0.00163802
0.00163802
0.00163802
0.00163802
0.00163802
0.00163802
0.00163802
0.00163802
0.00163802
0.00163802
0.00163802
0.00163802
0.00163802
0.00163802
0.00163802
0.00163802
0.00163802
0.00163802
0.00163802
0.00163802
0.00163802
0.00163802
0.00163802
0.00163802
0.00163802
0.00163802
0.00163802
0.00163802
0.00163802
0.00163802
0.00163802
0.00163802
0.00163802
0.00163802
0.00163802
0.00163802
0.00163802
0.00163802
0.00163802
0.00163802
0.00163802
0.00163802
0.00163802
0.00163802
0.00163802
0.00163802
0.00163802
0.00163802
0.00163802
0.00163802
0.00163802
0.00163802
0.00163802
0.00163802
0.00163802
0.00163802
0.00163802
0.00163802
0.00163802
0.00163802
0.00163802
0.00163802
0.00163802
0.00163802
0.00163802
0.00163802
0.00163802
0.00163802
0.00163802
0.00163802
0.00163802
0.00163802
0.00163802
0.00163802
0.00163802
0.00163802
0.00163802
0.00163802
0.00163802
0.00163802
0.00163802
0.00163802
0.00163802
0.00163802
0.00163802
0.00163802
0.00163802
0.00163802
0.00163802
0.00163802
0.00163802
0.00163802
0.00163802
0.00163802
0.00163802
0.00163802
0.00163802
0.00163802
0.00163802
0.00163802
0.00163802
0.00163802
0.00163802
0.00163802
0.00163802
0.00163802
0.00163802
0.00163802
0.00163802
0.00163802
0.00163802
0.00163802
0.00163802
0.00163802
0.00163802
0.00163802
0.00163802
0.00163802
0.00163802
0.00163802
0.00163802
0.00163802
0.00163802
0.00163802
0.00163802
0.00163802
0.00163802
0.00163802
0.00163802
0.00163802
0.00163802
0.00163802
0.00163802
0.00163802
0.00163802
0.00163802
0.00163802
0.00163802
0.00163802
0.00163802
0.00163802
0.00163802
0.00163802
0.00163802
0.00163802
0.00163802
0.00163802
0.00163802
0.00163802
0.00163802
0.00163802
0.00163802
0.00163802
0.00163802
0.00163802
0.00163802
0.00163802
0.00163802
0.00163802
0.00163802
0.00163802
0.00163802
0.00163802
0.00163802
0.00163802
0.00163802
0.00163802
0.00163802
0.00163802
0.00163802
0.00163802
0.00163802
0.00163802
0.00163802
0.00163802
0.00163802
0.00163802
0.00163802
0.00163802
0.00163802
0.00163802
0.00163802
0.00163802
0.00163802
0.00163802
0.00163802
0.00163802
0.00163802
0.00163802
0.00163802
0.00163802
0.00163802
0.00163802
0.00163802
0.00163802
0.00163802
0.00163802
0.00163802
0.00163801
0.00163801
0.00163802
0.00163802
0.00163802
0.00163802
0.00163802
0.00163692
0.00163802
0.00163802
0.00163802
0.00163802
0.00163802
0.00163802
0.00163802
0.00163802
0.00163802
0.00163802
0.00163802
0.00163802
0.00163802
0.00163802
0.00163802
0.00163802
0.00163802
0.00163802
0.00163802
0.00163802
0.00163802
0.00163802
0.00163802
0.00163802
0.00163802
0.00163802
0.00163802
0.00163802
0.00163802
0.00163802
0.00163802
0.00163802
0.00163802
0.00163802
0.00163802
0.00163802
0.00163802
0.00163802
0.00163802
0.00163802
0.00163802
0.00163802
0.00163802
0.00163802
0.00163802
0.00163802
0.00163802
0.00163802
0.00163802
0.00163802
0.00163802
0.00163802
0.00163802
0.00163802
0.00163802
0.00163802
0.00163802
0.00163802
0.00163802
0.00163802
0.00163802
0.00163802
0.00163802
0.00163802
0.00163802
0.00163802
0.00163802
0.00163802
0.00163802
0.00163802
0.00163802
0.00163802
0.00163802
0.00163802
0.00163802
0.00163802
0.00163802
0.00163802
0.00163801
0.00163801
0.00163801
0.00163801
0.00163801
0.00163801
0.00163802
0.00163802
0.00163802
0.00163802
0.00163802
0.00163802
0.00163802
0.00163802
0.00163802
0.00163802
0.00163802
0.00163802
0.00163802
0.00163802
0.00163802
0.00163802
0.00163802
0.00163802
0.00163802
0.00163802
0.00163802
0.00163802
0.00163802
0.00163802
0.00163802
0.00163802
0.00163802
0.00163802
0.00163802
0.00163802
0.00163802
0.00163802
0.00163802
0.00163802
0.00163802
0.00163802
0.00163802
0.00163802
0.00163802
0.00163802
0.00163802
0.00163802
0.00163802
0.00163802
0.00163802
0.00163802
0.00163802
0.00163802
0.00163802
0.00163802
0.00163802
0.00163802
0.00163802
0.00163802
0.00163802
0.00163802
0.00163802
0.00163802
0.00163802
0.00163802
0.00163802
0.00163802
0.00163802
0.00163802
0.00163802
0.00163802
0.00163802
0.00163802
0.00163802
0.00163802
0.00163802
0.00163802
0.00163802
0.00163802
0.00163802
0.00163802
0.00163802
0.00163802
0.00163802
0.00163802
0.00163802
0.00163802
0.00163802
0.00163802
0.00163802
0.00163802
0.00163802
0.00163802
0.00163802
0.00163802
0.00163801
0.00163802
0.00163802
0.00163802
0.00163802
0.00163802
0.00163802
0.00163802
0.00163802
0.00163802
0.00163802
0.00163802
0.00163802
0.00163802
0.00163802
0.00163802
0.00163802
0.00163802
0.00163802
0.00163802
0.00163802
0.00163802
0.00163802
0.00163802
0.00163802
0.00163802
0.00163802
0.00163802
0.00163802
0.00163802
0.00163801
0.00163802
0.00163802
0.00163802
0.00163802
0.00163802
0.00163802
0.00163802
0.00163802
0.00163802
0.00163802
0.00163802
0.00163802
0.00163802
0.00163802
0.00163802
0.00163786
0.00163785
0.00163802
0.00163802
0.00163802
0.00163802
0.00163802
0.00163802
0.00163802
0.00163802
0.00163802
0.00163802
0.00163802
0.00163802
0.00163802
0.00163802
0.00163802
0.00163802
0.00163802
0.00163802
0.00163802
0.00163802
0.00163802
0.00163802
0.00163802
0.00163802
0.00163802
0.00163802
0.00163802
0.00163802
0.00163802
0.00163802
0.00163802
0.00163802
0.00163802
0.00163802
0.00163802
0.00163802
0.00163802
0.00163802
0.00163802
0.00163802
0.00163802
0.00163802
0.00163802
0.00163802
0.00163802
0.00163802
0.00163802
0.00163802
0.00163802
0.00163802
0.00163802
0.00163802
0.00163802
0.00163802
0.00163802
0.00163802
0.00163802
0.00163802
0.00163802
0.00163802
0.00163802
0.00163802
0.00163802
0.00163802
0.00163802
0.00163802
0.00163802
0.00163802
0.00163802
0.00163802
0.00163802
0.00163802
0.00163802
0.00163802
0.00163802
0.00163802
0.00163801
0.00163802
0.00163802
0.00163802
0.00163802
0.00163802
0.00163802
0.00163802
0.00163802
0.00163802
0.00163802
0.00163802
0.00163802
0.00163802
0.00163802
0.00163802
0.00163802
0.00163802
0.00163802
0.00163786
0.00163786
0.00163786
0.00163786
0.00163786
0.00163786
0.00163785
0.00163786
0.00163802
0.00163802
0.00163802
0.00163802
0.00163802
0.00163802
0.00163802
0.00163802
0.00163802
0.00163802
0.00163802
0.00163802
0.00163802
0.00163802
0.00163802
0.00163802
0.00163802
0.00163802
0.00163802
0.00163802
0.00163802
0.00163802
0.00163801
0.00163802
0.00163802
0.00163802
0.00163802
0.00163802
0.00163802
0.00163802
0.00163802
0.00163802
0.00163802
0.00163802
0.00163802
0.00163802
0.00163802
0.00163802
0.00163802
0.00163802
0.00163802
0.00163802
0.00163802
0.00163802
0.00163802
0.00163802
0.00163802
0.00163802
0.00163802
0.00163802
0.00163802
0.00163802
0.00163802
0.00163802
0.00163802
0.00163802
0.00163802
0.00163802
0.00163802
0.00163802
0.00163802
0.00163802
0.00163802
0.00163802
0.00163802
0.00163802
0.00163802
0.00163802
0.00163802
0.00163802
0.00163802
0.00163802
0.00163802
0.00163802
0.00163802
0.00163802
0.00163802
0.00163802
0.00163802
0.00163802
0.00163802
0.00163802
0.00163802
0.00163802
0.00163802
0.00163802
0.00163802
0.00163802
0.00163802
0.00163802
0.00163802
0.00163802
0.00163802
0.00163802
0.00163802
0.00163802
0.00163802
0.00163802
0.00163802
0.00163802
0.00163802
0.00163802
0.00163802
0.00163802
0.00163802
0.00163802
0.00163802
0.00163802
0.00163802
0.00163802
0.00163802
0.00163802
0.00163802
0.00163802
0.00163802
0.00163802
0.00163802
0.00163802
0.00163802
0.00163802
0.00163802
0.00160415
0.00163802
0.00163802
0.00163802
0.00163802
0.00163802
0.00163802
0.00163802
0.00163802
0.00163802
0.00163802
0.00163802
0.00163802
0.00163802
0.00163802
0.00163785
0.00163785
0.001638
0.00163802
0.00163802
0.00163802
0.00163802
0.00163802
0.0016376
0.00163802
0.00163802
0.00163802
0.00163802
0.00163802
0.00163802
0.00163802
0.00163802
0.00163802
0.00163802
0.00163802
0.00163802
0.00163802
0.00163802
0.00163802
0.00163802
0.00163802
0.00163802
0.00163802
0.00163719
0.00163802
0.00163802
0.00163802
0.00163802
0.00163802
0.00163802
0.00163802
0.00163802
0.00163802
0.00163802
0.00163802
0.00163802
0.00163802
0.00163802
0.00163802
0.00163802
0.00163802
0.00163802
0.00163802
0.00163802
0.00163802
0.00163802
0.00163802
0.00163802
0.00163802
0.00163802
0.00163802
0.00163802
0.00163802
0.00163802
0.00163802
0.00163802
0.00163802
0.00163802
0.00163802
0.00163802
0.00163802
0.00163802
0.00163802
0.00163802
0.00163802
0.00163802
0.00163802
0.00163802
0.00163802
0.00163802
0.00163802
0.00163802
0.00163802
0.00163802
0.00163802
0.00163802
0.00163802
0.00163802
0.00163802
0.00163802
0.00163802
0.00163802
0.00163802
0.00163802
0.00163802
0.00163802
0.00163802
0.00163802
0.00163802
0.00163802
0.00163802
0.00163802
0.00163802
0.00163802
0.00163802
0.00163802
0.00163802
0.00163802
0.00163785
0.00163801
0.00163802
0.00163802
0.00163802
0.00163802
0.00163802
0.00163802
0.00163802
0.00163802
0.00163802
0.00163802
0.00163802
0.00163802
0.00163802
0.00163802
0.00163802
0.00163802
0.00163802
0.00163802
0.00163802
0.00163802
0.00163802
0.00163802
0.00163802
0.00163802
0.00163773
0.00163802
0.00163802
0.00163742
0.00163742
0.00163742
0.00163742
0.00163742
0.00163742
0.00163742
0.00163742
0.00163742
0.00163742
0.00163742
0.00163742
0.00163741
0.00163802
0.00163802
0.00163802
0.00163802
0.00163802
0.00163802
0.00163802
0.00163802
0.00163802
0.00163802
0.00163802
0.00163802
0.00163802
0.00163802
0.00163802
0.00163802
0.00163802
0.00163802
0.00163802
0.00163802
0.00163802
0.00163802
0.00163802
0.00163802
0.00163801
0.00163785
0.00163741
0.00163802
0.00163802
0.00163777
0.00163802
0.00163802
0.00163801
0.00163737
0.00163802
0.00163802
0.00163802
0.00163802
0.00163802
0.00163802
0.00163802
0.00163802
0.00163802
0.00163802
0.00163802
0.00163802
0.00163802
0.00163801
0.00163802
0.00163802
0.00163802
0.00163802
0.00163802
0.00163802
0.00163802
0.00163802
0.00163802
0.00163802
0.00163802
0.00163802
0.00163802
0.00163802
0.00163802
0.00163802
0.00163802
0.00163802
0.00163802
0.00163802
0.00163802
0.00163802
0.00163802
0.00163802
0.00163802
0.00163802
0.00163802
0.00163802
0.00163802
0.00163802
0.00163802
0.00163802
0.00163802
0.00163802
0.00163802
0.00163802
0.00163802
0.00163802
0.00163802
0.00163802
0.00163802
0.00163802
0.00163802
0.00163802
0.00163802
0.00163802
0.00163802
0.00163801
0.00163802
0.00163802
0.00163802
0.00163802
0.00163802
0.00163802
0.00163802
0.00163802
0.00163802
0.00163802
0.00163802
0.00163802
0.00163802
0.00163802
0.00163802
0.00163802
0.00163802
0.00163802
0.00163802
0.00163802
0.00163802
0.00163802
0.00163802
0.00163802
0.00163802
0.00163802
0.00163802
0.00163802
0.00163802
0.00163802
0.00163802
0.00163802
0.00163802
0.00163802
0.00163802
0.00163802
0.00163802
0.00163802
0.00163802
0.00163802
0.00163802
0.00163802
0.00163802
0.00163802
0.00163802
0.00163802
0.00163802
0.00163802
0.00163802
0.00163802
0.00163802
0.00163802
0.00163802
0.00163802
0.00163802
0.00163802
0.00163802
0.00163802
0.00163802
0.00163802
0.00163802
0.00163802
0.00162774
0.00162772
0.00163769
0.00163726
0.00163795
0.00163802
0.00163786
0.00163802
0.00163802
0.00163802
0.00163802
0.0016378
0.00163781
0.00163782
0.00163784
0.00163784
0.00163785
0.00163785
0.00163785
0.00163785
0.00163785
0.00163784
0.00163784
0.00163784
0.00163783
0.00163783
0.00163783
0.00163783
0.00163783
0.00163769
0.00163784
0.00163787
0.00163786
0.00163785
0.00163785
0.00163785
0.00163785
0.00163785
0.00163786
0.00163786
0.00163786
0.00163786
0.00163786
0.00163786
0.00163786
0.00163786
0.00163785
0.00163785
0.00163784
0.00163782
0.00163779
0.00163778
0.00163779
0.0016378
0.00163784
0.00163783
0.00163802
0.00163788
0.00163776
0.00163779
0.00163781
0.00163783
0.00163784
0.00163785
0.00163786
0.00163786
0.00163786
0.00163786
0.00163786
0.00163786
0.00163786
0.00163786
0.00163786
0.00163786
0.00163786
0.00163786
0.00163785
0.00163785
0.00163784
0.00163784
0.00163784
0.00163782
0.00163784
0.00163801
0.0016378
0.00163783
0.00163783
0.00163783
0.00163783
0.00163784
0.00163785
0.00163785
0.00163785
0.00163785
0.00163785
0.00163785
0.00163784
0.00163783
0.00163782
0.0016378
0.00163775
0.00163777
0.00163802
0.00163782
0.00163787
0.00163786
0.00163785
0.00163784
0.00163784
0.00163785
0.00163785
0.00163785
0.00163785
0.00163785
0.00163786
0.00163786
0.00163786
0.00163785
0.00163785
0.00163785
0.00163785
0.00163785
0.00163785
0.00163785
0.00163785
0.00163785
0.00163785
0.00163785
0.00163785
0.00163785
0.00163785
0.00163786
0.00163786
0.00163786
0.00163786
0.00163786
0.00163786
0.00163786
0.00163786
0.00163786
0.00163786
0.00163786
0.00163786
0.00163786
0.00163786
0.00163786
0.00163786
0.00163786
0.00163786
0.00163785
0.00163785
0.00163785
0.00163785
0.00163785
0.00163784
0.00163784
0.00163784
0.00163784
0.00163783
0.00163783
0.00163782
0.00163782
0.00163781
0.00163781
0.00163783
0.00163786
0.00163792
0.00163802
0.00163802
0.00163778
0.00160894
0.00163802
0.00163773
0.00163768
0.00163772
0.00163777
0.00163781
0.00163785
0.00163785
0.001638
0.00163786
0.00163784
0.00163785
0.00163785
0.00163785
0.00163786
0.00163786
0.00163786
0.00163786
0.00163786
0.00163786
0.00163786
0.00163786
0.00163786
0.00163786
0.00163786
0.00163786
0.00163786
0.00163786
0.00163786
0.00163786
0.00163786
0.00163786
0.00163769
0.00163785
0.00163786
0.00163802
0.00163802
0.00163802
0.00163802
0.0016366
0.00163802
0.00163802
0.00163782
0.00163782
0.00163782
0.00163774
0.00163767
0.00163802
0.00163802
0.00163802
0.00163802
0.00162774
0.00162776
0.00162777
0.00162778
0.00162779
0.0016278
0.0016278
0.00162779
0.00162778
0.00162777
0.00162776
0.00163802
0.00163802
0.00163786
0.00163787
0.00163765
0.00163802
0.00163802
0.00163802
0.0016379
0.0016378
0.00163776
0.00163802
0.00163757
0.00163774
0.00163775
0.00163777
0.00163778
0.00163779
0.00163781
0.00163782
0.00163783
0.00163784
0.00163785
0.00163785
0.00163786
0.00163786
0.00163786
0.00163786
0.00163786
0.00163786
0.00163786
0.00163786
0.00163786
0.00163786
0.00163786
0.00163786
0.00163786
0.00163786
0.00163786
0.00163785
0.00163802
0.00163802
0.00163802
0.00163802
0.00163802
0.00163802
0.00163802
0.00163802
0.00163802
0.00163802
0.00163767
0.00162773
0.00163726
0.00163802
0.00163802
0.00163802
0.00163802
0.00162768
0.00162768
0.00161474
0.00163802
0.00163802
0.00163802
0.00163802
0.00163802
0.00163802
0.00161381
0.00160988
0.00163802
0.00162018
0.00163802
0.00163802
0.00163802
0.000803408
0.00163802
0.00163802
0.00161919
0.00161863
0.00161904
0.0016192
0.0016192
0.0016192
0.0016192
0.0016192
0.0016192
0.00161921
0.00161921
0.00161921
0.00161921
0.00161918
0.0016192
0.00161905
0.00161913
0.00161869
0.00161892
0.0016178
0.00161834
0.00161618
0.00161709
0.00161402
0.00161523
0.00161453
0.00161396
0.00161412
0.00161437
0.00161247
0.00161393
0.00161525
0.00160795
0.00161763
0.00161979
0.00162237
0.00161803
0.00162179
0.00162268
0.00161601
0.00162297
0.00163465
0.00161966
0.00161961
0.00161963
0.00161971
0.00161969
0.00161973
0.00161973
0.00161973
0.00161973
0.00161969
0.00161971
0.00161964
0.00161966
0.00161977
0.00160919
0.00161979
0.00161962
0.00163802
0.00163802
0.00163559
0.00163802
0.00163802
0.00163802
0.00163802
0.00160918
0.00161904
0.00161862
0.0016192
0.00161919
0.00161919
0.0016192
0.0016192
0.0016192
0.00161921
0.0016192
0.00161923
0.00161922
0.00161927
0.00161925
0.00161933
0.0016193
0.00161932
0.00161933
0.00161922
0.00161929
0.00161892
0.00161908
0.0016185
0.00161865
0.00161926
0.00161842
0.00163802
0.00162176
0.00161254
0.00163802
0.00161682
0.00161698
0.00161162
0.00161465
0.00160936
0.00160923
0.0016171
0.00161531
0.00161446
0.00161538
0.00161185
0.00160329
0.00160629
0.00161742
0.00160996
0.00161698
0.00161845
0.00161599
0.00161623
0.00161641
0.00161609
0.00161712
0.00161669
0.00161766
0.0016174
0.00161804
0.00161785
0.00161838
0.00161818
0.00161876
0.00161855
0.00161908
0.00161891
0.00161931
0.00161919
0.00161946
0.00161938
0.00161952
0.0016195
0.00161955
0.00161953
0.0016196
0.00161958
0.00161955
0.00161959
0.00161937
0.00161948
0.0016191
0.00161923
0.00161893
0.00161898
0.00161894
0.00161892
0.0016189
0.00161892
0.0016188
0.00161884
0.00161878
0.00161874
0.00161884
0.00161879
0.00161891
0.00161888
0.00161897
0.00161894
0.00161896
0.00161897
0.00161886
0.00161894
0.00161863
0.0016188
0.00161827
0.00161853
0.00161865
0.00161834
0.0016209
0.00161973
0.00163802
0.00161881
0.00163802
0.00161229
0.0016106
0.0016154
0.0016139
0.00161747
0.00161663
0.00161841
0.00161804
0.00161858
0.00161855
0.00161821
0.00161847
0.00161732
0.00161781
0.001617
0.001617
0.00161647
0.00161755
0.00163801
0.00160677
0.00163802
0.0016186
0.00161713
0.00161746
0.00161773
0.00161806
0.00161767
0.00161886
0.00161849
0.00161932
0.00161911
0.00161945
0.00161938
0.00161957
0.0016195
0.00161947
0.00161971
0.00161934
0.00161947
0.00161862
0.00161909
0.00161623
0.00161762
0.0016169
0.00161534
0.00162169
0.00162049
0.00162147
0.00161454
0.00161615
0.00161369
0.00161364
0.00161585
0.00161438
0.00161828
0.0016174
0.00161907
0.00161877
0.00161939
0.00161926
0.00161951
0.0016195
0.00161933
0.00161942
0.00161904
0.00161925
0.00161882
0.00161905
0.00161866
0.00161873
0.00161941
0.00161877
0.00161944
0.00162062
0.00160844
0.00163802
0.00160755
0.00161706
0.00160853
0.001617
0.00161763
0.00161716
0.00161701
0.0016178
0.00161751
0.0016183
0.00161807
0.00161859
0.00161852
0.00161833
0.00161856
0.00161717
0.00161791
0.00161505
0.00161619
0.00163802
0.00161172
0.00159128
0.000680663
0.00160131
0.00160132
0.00163802
0.00163802
0.000846802
0.000863717
0.00076969
0.000782337
0.000791295
0.000802404
0.000810955
0.000816392
0.000818894
0.000819715
0.000818863
0.000816665
0.000813614
0.000810416
0.000807003
0.000803502
0.000801188
0.000802854
0.000815371
0.000816354
0.000753854
0.000763545
0.00163802
0.00163802
0.000769364
0.000860178
0.000861035
0.000835473
0.000824258
0.000821794
0.000822913
0.000825025
0.000826012
0.000828623
0.000828143
0.000829771
0.00083058
0.000831648
0.000831884
0.000830816
0.000828872
0.000826044
0.000822135
0.000815838
0.000803822
0.000780674
0.000759162
0.000747789
0.000744135
0.000746778
0.000762101
0.000830778
0.000875037
0.000826078
0.000806835
0.000778798
0.000773115
0.000784572
0.000804242
0.00082042
0.000827343
0.000830394
0.000831908
0.000832906
0.000833392
0.000832923
0.000832494
0.000831721
0.000830487
0.00082892
0.000826559
0.000823103
0.000818882
0.000814122
0.000809444
0.000807306
0.000812637
0.000830292
0.000818105
0.000691827
0.00163783
0.000705492
0.000736909
0.000809575
0.000814481
0.000802919
0.000801912
0.000805976
0.000811455
0.000816017
0.000818661
0.000819583
0.000819744
0.000818305
0.000814443
0.000807452
0.000797574
0.000785146
0.000768104
0.000762349
0.000768348
0.00163802
0.000734344
0.000848658
0.000867687
0.00084105
0.000823872
0.000818577
0.000818169
0.000819798
0.000821584
0.000822959
0.000823875
0.000824695
0.000825093
0.000825314
0.000825333
0.000825113
0.000824827
0.000824499
0.000824037
0.000823196
0.000822804
0.000823088
0.000823385
0.000823863
0.000824487
0.000824872
0.000824987
0.000824848
0.000825092
0.000825873
0.000827155
0.000828701
0.000830308
0.000831702
0.00083267
0.00083321
0.000833351
0.000833179
0.000832877
0.000832611
0.000832371
0.000832067
0.000831531
0.000830697
0.000829655
0.00082841
0.000826791
0.00082484
0.000822753
0.000820493
0.000818282
0.000816213
0.000814277
0.000811891
0.000809402
0.000806519
0.000803034
0.000799003
0.000795018
0.000791549
0.000789267
0.000790498
0.000801476
0.0008268
0.000831371
0.000782339
0.000743307
0.000745058
0.000762791
0.000772343
0.000726645
0.0007116
0.000761971
0.000755206
0.000747849
0.000726914
0.000694751
0.000705023
0.000739555
0.000778967
0.000808771
0.000811376
0.000773888
0.000843933
0.000888122
0.000840448
0.000834484
0.000821156
0.000819567
0.000821609
0.000824155
0.00082646
0.000828086
0.000829218
0.00082979
0.000829933
0.000829771
0.000829493
0.000829206
0.000828974
0.000828771
0.000828581
0.000828425
0.000828318
0.000828278
0.000828254
0.000828242
0.000828245
0.000828264
0.000828297
0.000828296
0.000828242
0.000825433
0.000823403
0.00163802
0.00163802
0.00163802
0.00163802
0.00163768
0.00163802
0.00163802
0.00159235
0.00161513
0.00161113
0.00161098
0.00161095
0.00161097
0.001611
0.00161102
0.00161103
0.00161103
0.00161102
0.001611
0.00161097
0.00161094
0.00161097
0.00161111
0.00161511
0.00159233
0.00081412
0.00163802
0.000764041
0.000844686
0.000835821
0.000833137
0.000823233
0.000782012
0.000780634
0.000803682
0.000787243
0.000765388
0.000780293
0.000797926
0.00080032
0.000799987
0.000792432
0.000777971
0.000774938
0.000782827
0.000793026
0.000802567
0.000810709
0.000817033
0.000821483
0.000824361
0.000826149
0.000827294
0.000827949
0.000828269
0.000828379
0.000828412
0.000828393
0.000828361
0.000828329
0.000828302
0.000828278
0.000828263
0.00082826
0.000828267
0.000828286
0.000828279
0.000828239
0.000825452
0.000823428
0.000814146
0.00163802
0.00163802
0.00163802
0.00163802
0.00163802
0.00163802
0.00163802
0.00163802
0.00076264
0.00163802
0.00163802
0.00157882
0.00163674
0.00163802
0.00152682
0.000407339
0.00163798
0.00157417