/*--------------------------------*- C++ -*----------------------------------*\
| =========                 |                                                 |
| \\      /  F ield         | OpenFOAM: The Open Source CFD Toolbox           |
|  \\    /   O peration     | Version:  2212                                  |
|   \\  /    A nd           | Website:  www.openfoam.com                      |
|    \\/     M anipulation  |                                                 |
\*---------------------------------------------------------------------------*/
FoamFile
{
    version     2.0;
    format      ascii;
    arch        "LSB;label=32;scalar=64";
    class       volScalarField;
    location    "0.00474";
    object      p;
}
// * * * * * * * * * * * * * * * * * * * * * * * * * * * * * * * * * * * * * //

dimensions      [1 -1 -2 0 0 0 0];

internalField   nonuniform List<scalar> 
2681
(
190.991
214.624
215.812
190.185
252.095
218.095
190.112
190.191
190.208
190.22
190.173
190.304
190.289
190.545
190.345
190.355
190.438
190.191
190.202
190.216
190.238
190.294
190.277
190.258
190.327
190.311
190.18
190.164
190.172
190.199
190.189
190.223
190.209
190.257
190.24
190.273
190.269
190.285
190.302
190.296
190.308
190.27
190.283
190.244
190.256
217.76
190.232
190.197
190.153
190.174
190.185
190.318
190.41
190.193
190.184
190.265
190.278
190.155
190.163
190.163
190.153
190.215
190.2
190.252
190.232
190.295
190.275
190.333
190.314
190.138
190.353
190.313
190.333
190.274
190.294
190.32
190.138
190.506
230.505
190.169
190.154
190.162
190.186
190.177
190.206
190.195
190.235
190.22
190.25
190.284
190.295
190.26
190.273
190.235
190.247
190.21
190.222
190.186
190.198
190.174
190.174
190.17
190.292
190.379
190.364
190.337
190.146
190.15
190.142
190.391
190.414
190.4
190.382
190.279
190.309
190.288
190.176
190.164
190.167
190.323
190.489
190.383
285.565
190.308
190.337
190.323
190.14
215.945
190.147
190.855
190.593
190.194
190.18
190.229
190.211
190.27
190.249
190.311
190.291
190.351
190.331
190.371
190.336
190.358
190.293
190.315
190.454
190.181
201.581
190.194
190.185
190.145
190.134
190.139
190.159
190.152
190.173
190.166
190.19
190.181
190.214
190.201
190.241
190.228
190.265
190.253
190.527
190.277
190.264
190.272
190.241
190.254
190.216
190.229
190.193
190.204
190.171
190.182
190.16
190.153
190.134
190.144
190.16
190.11
190.155
190.158
190.417
190.438
190.465
190.383
190.324
190.36
190.128
190.324
190.299
190.178
190.17
190.422
190.411
190.135
190.13
228.239
231.127
231.125
228.238
190.129
190.126
190.123
190.273
190.457
190.11
190.15
191.476
220.122
233.648
190.356
190.343
212.91
190.141
190.709
190.175
190.164
190.204
190.188
190.242
190.222
190.285
190.264
190.324
190.305
190.364
190.344
190.405
190.384
190.429
190.364
190.388
190.32
190.343
190.272
190.297
190.225
190.247
190.196
190.208
190.187
234.389
238.132
242.413
247.284
252.731
258.681
264.951
271.228
277.083
282.073
282.084
285.764
286.71
286.702
285.736
271.247
277.111
258.688
264.96
247.282
252.734
238.127
242.408
234.385
190.137
190.132
190.149
190.143
190.162
190.156
190.176
190.169
190.195
190.185
190.219
190.207
190.239
190.229
191.321
190.248
190.268
190.267
190.312
190.291
190.274
190.252
190.259
190.237
190.245
190.215
190.227
190.193
190.204
190.174
190.183
190.155
190.164
190.138
190.146
190.131
190.144
190.136
190.155
190.15
190.161
190.159
191.107
191.56
190.402
190.341
190.343
190.388
190.125
190.494
225.68
225.679
190.124
192.869
282.217
285.86
190.445
283.428
190.331
190.443
190.147
190.15
225.566
223.443
223.343
190.124
190.119
190.121
190.118
286.724
286.701
190.276
190.312
190.495
190.474
190.276
190.314
219.97
190.56
190.679
190.108
190.164
190.153
190.156
190.375
190.368
190.123
190.131
190.127
190.139
190.135
190.143
190.182
190.169
190.214
190.197
190.255
190.234
190.297
190.277
190.334
190.316
190.374
190.354
190.421
190.396
190.453
190.507
190.639
190.46
190.507
190.39
190.419
190.347
190.368
190.298
190.324
190.243
190.27
190.203
190.22
190.181
190.191
190.172
231.024
228.12
238.131
234.325
247.435
242.485
258.939
252.952
271.48
265.216
277.284
225.564
223.343
223.443
286.357
286.743
191.632
286.792
286.976
282.153
285.736
271.476
277.256
258.934
265.218
247.422
252.937
238.121
242.475
231.02
234.318
228.118
190.131
190.127
190.141
190.136
190.153
190.147
190.164
190.158
190.179
190.171
190.199
190.189
190.217
190.208
190.231
190.224
190.243
190.238
190.284
190.252
190.247
190.285
190.249
190.287
190.25
190.249
190.242
190.242
190.234
190.241
190.222
190.229
190.207
190.215
190.189
190.198
190.171
190.179
190.156
190.163
190.141
190.148
190.128
190.135
190.124
190.136
190.13
190.146
190.142
190.15
214.984
191.024
286.712
190.424
190.362
190.367
190.42
190.152
209.409
190.614
190.305
225.395
223.187
190.12
191.382
190.121
190.119
190.117
190.116
190.167
190.159
286.247
190.759
190.811
211.779
190.11
282.471
286.01
190.789
190.861
190.888
190.348
190.472
190.478
190.355
190.692
225.395
223.188
191.263
218.425
229.132
190.758
190.527
190.323
190.258
190.292
190.257
190.296
190.332
190.539
190.733
286.692
190.108
190.638
191.102
190.396
190.396
190.127
190.124
190.134
190.131
190.141
190.138
190.146
190.143
190.148
190.164
190.156
190.189
190.174
190.225
190.206
190.267
190.246
190.306
190.288
190.342
190.324
190.385
190.362
190.445
190.411
190.542
190.49
190.609
190.628
190.693
190.497
190.561
190.404
190.443
190.359
190.379
190.317
190.34
190.262
190.29
190.214
190.236
190.185
190.197
190.175
230.876
227.945
238.122
234.235
247.625
242.575
259.308
253.238
271.881
265.63
277.628
221.416
221.334
221.416
190.331
221.195
221.335
278.962
254.379
287.123
285.459
287.294
287.347
282.409
286.013
271.9
277.605
259.313
265.654
247.612
253.225
238.113
242.564
230.874
234.229
227.944
190.117
190.114
190.116
190.121
190.119
190.126
190.124
190.134
190.13
190.144
190.139
190.155
190.15
190.166
190.16
190.183
190.174
190.199
190.191
190.211
190.205
190.22
190.216
190.228
190.224
190.263
190.235
190.231
190.237
190.238
190.263
190.233
190.237
190.223
190.228
190.219
190.221
190.213
190.215
190.206
190.211
190.195
190.201
190.182
190.189
190.167
190.174
190.153
190.16
190.142
190.148
190.132
190.137
190.122
190.126
190.117
190.119
190.114
190.115
190.114
190.112
190.121
190.117
190.13
190.126
190.139
190.135
190.146
190.143
190.152
190.149
211.931
281.508
190.272
190.919
286.783
191.777
190.956
191.243
191.207
191.106
190.385
190.448
190.268
190.267
190.454
190.395
190.746
190.755
190.894
190.109
191.123
190.83
190.684
221.196
217.066
226.39
190.113
190.111
190.112
214.757
190.823
190.501
190.364
190.3
190.306
190.381
190.512
190.648
190.14
190.142
286.125
191.208
197.909
212.988
190.356
191.128
224.873
223.583
190.702
275.966
190.561
190.334
190.347
190.571
190.146
190.155
190.148
219.61
221.042
219.452
286.751
190.113
190.609
190.722
191.027
190.236
190.257
190.42
190.268
190.428
190.795
190.118
190.115
190.124
190.121
190.13
190.127
190.136
190.133
190.138
190.151
190.169
190.159
190.197
190.182
190.234
190.215
190.276
190.255
190.313
190.295
190.349
190.33
190.4
190.373
190.477
190.433
190.6
190.533
190.678
191.136
190.762
190.53
190.605
190.415
190.464
190.358
190.381
190.322
190.341
190.276
190.301
190.225
190.249
190.19
190.205
190.169
190.179
190.161
225.275
223.053
230.803
227.844
238.155
234.199
247.883
242.707
259.794
253.623
272.411
266.166
282.824
278.085
286.898
286.211
219.732
221.044
219.453
219.609
219.796
219.795
219.732
277.874
246.659
286.828
285.41
287.077
287.081
282.751
286.19
272.409
278.055
259.792
266.169
247.878
253.625
238.149
242.699
230.805
234.197
225.28
227.848
223.057
190.115
190.114
190.119
190.117
190.123
190.121
190.129
190.126
190.138
190.133
190.147
190.142
190.157
190.152
190.17
190.163
190.183
190.177
190.194
190.189
190.203
190.199
190.209
190.206
190.214
190.212
190.216
190.216
190.212
190.215
190.205
190.208
190.199
190.202
190.193
190.196
190.185
190.189
190.175
190.18
190.164
190.17
190.152
190.158
190.142
190.147
190.134
190.138
190.125
190.129
190.119
190.122
190.116
190.117
190.112
190.114
190.119
190.115
190.126
190.122
190.134
190.13
190.14
190.137
190.143
190.111
200.86
208.003
190.11
191.036
190.894
191.02
190.473
190.405
190.306
190.311
190.426
190.487
190.695
190.24
190.144
190.827
191.475
214.929
190.916
281.334
190.111
191.175
190.938
220.89
219.277
209.915
224.353
190.382
211.578
191.039
190.763
248.745
241.521
190.534
190.379
190.344
190.364
190.409
190.543
190.608
190.112
190.111
190.157
190.151
190.141
190.143
220.886
219.276
218.094
217.917
191.021
286.174
190.112
190.111
286.859
190.137
190.661
190.109
190.96
190.251
190.442
190.309
190.461
190.741
190.116
190.114
190.121
190.118
190.127
190.124
190.132
190.129
190.136
190.134
190.139
190.137
190.142
190.154
190.147
190.174
190.163
190.203
190.187
190.242
190.222
190.283
190.263
190.317
190.301
190.358
190.335
190.419
190.386
190.511
190.459
190.651
190.575
190.736
191.131
190.746
190.835
190.567
190.654
190.432
190.492
190.359
190.389
190.319
190.337
190.28
190.301
190.234
190.257
190.195
190.213
190.172
190.182
190.164
225.204
222.949
230.78
227.794
238.236
234.22
248.08
242.852
260.12
253.871
272.906
266.594
283.268
278.575
287.175
286.503
218.22
217.916
218.093
218.278
218.278
218.221
275.003
237.413
286.925
285.119
287.28
287.264
283.212
286.51
272.919
278.564
260.137
266.617
248.08
253.867
238.238
242.855
230.789
234.225
225.213
227.804
222.956
261.552
190.114
190.112
190.117
190.115
190.121
190.119
190.126
190.124
190.132
190.129
190.141
190.136
190.15
190.145
190.16
190.154
190.171
190.166
190.18
190.176
190.188
190.184
190.194
190.192
190.198
190.197
190.2
190.2
190.197
190.199
190.191
190.194
190.185
190.188
190.178
190.182
190.171
190.175
190.163
190.167
190.154
190.159
190.144
190.149
190.136
190.14
190.128
190.132
190.122
190.125
190.118
190.12
190.115
190.116
190.112
190.113
190.111
190.117
190.114
190.123
190.12
190.13
190.126
190.135
190.133
190.138
191.377
191.391
217.711
207.728
208.491
210.996
191.352
191.014
190.405
209.104
190.956
190.822
190.934
259.704
191.89
232.211
190.499
190.423
190.353
190.368
190.457
190.518
190.646
190.231
190.11
190.136
190.138
190.876
214.305
191.084
190.992
190.145
217.712
191.164
190.964
281.585
190.11
191.498
286.312
287.146
190.437
210.728
190.944
190.707
191.645
190.559
190.392
190.574
216.801
216.578
206.39
190.621
191.911
190.137
190.422
205.729
207.264
190.885
190.223
191.743
202.366
190.464
190.36
190.493
190.686
190.109
190.111
190.11
190.115
190.113
190.119
190.117
190.124
190.122
190.129
190.127
190.132
190.131
190.134
190.144
190.14
190.157
190.15
190.178
190.166
190.209
190.192
190.249
190.228
190.288
190.269
190.321
190.305
190.368
190.341
190.439
190.402
190.542
190.485
190.694
190.612
190.786
191.223
190.797
190.894
190.601
190.695
190.456
190.52
190.37
190.407
190.318
190.341
190.279
190.298
190.238
190.259
190.2
190.218
190.174
190.185
190.159
190.166
190.147
190.153
220.756
217.553
219.129
225.163
222.873
230.841
227.801
238.414
234.336
248.405
243.095
260.626
254.293
273.466
267.141
283.766
279.11
287.401
286.836
191.336
217.106
216.988
217.152
217.152
216.99
217.107
216.581
216.803
272.077
233.398
286.886
284.619
287.394
287.349
283.751
286.848
273.475
279.114
260.636
267.146
248.417
254.311
238.426
243.105
230.857
234.351
225.174
227.815
220.76
222.881
217.551
219.13
190.111
190.11
190.11
191.588
190.109
190.109
190.108
190.25
190.113
190.112
190.116
190.114
190.12
190.118
190.124
190.122
190.128
190.126
190.136
190.132
190.144
190.14
190.152
190.148
190.162
190.157
190.17
190.166
190.177
190.173
190.182
190.179
190.186
190.184
190.187
190.187
190.186
190.187
190.181
190.184
190.175
190.178
190.169
190.172
190.163
190.166
190.156
190.16
190.148
190.152
190.139
190.144
190.132
190.135
190.126
190.129
190.121
190.123
190.117
190.119
190.115
190.116
190.112
190.113
190.11
190.111
190.108
190.109
190.111
190.11
190.115
190.113
190.121
190.118
190.126
190.123
190.131
190.129
190.136
190.134
190.14
190.138
215.369
211.631
207.144
209.187
214.46
219.095
191.13
286.731
287.361
190.461
207.839
190.87
190.755
190.856
191.815
190.108
192.135
191.837
282.844
190.524
190.44
190.405
190.429
190.487
190.548
190.606
190.677
190.109
191.577
190.142
216.405
216.401
199.335
205.29
204.507
223.892
190.657
190.585
190.136
190.108
190.499
191.241
190.936
194.865
195.897
196.132
195.172
204.141
286.904
190.788
190.481
205.748
190.807
190.782
191.978
192.036
211.106
208.93
190.108
206.407
284.47
284.14
208.237
190.485
190.419
190.523
190.641
190.11
190.109
190.113
190.112
190.118
190.115
190.122
190.12
190.126
190.124
190.129
190.128
190.133
190.131
190.135
190.146
190.142
190.159
190.152
190.181
190.169
190.213
190.196
190.253
190.233
190.292
190.274
190.326
190.309
190.379
190.348
190.456
190.416
190.565
190.504
190.734
190.642
190.943
190.842
191.055
191.05
191.179
191.362
190.836
190.941
190.628
190.728
190.476
190.543
190.387
190.425
190.329
190.356
190.283
190.305
190.242
190.262
190.203
190.222
190.176
190.188
190.161
190.168
190.149
190.154
190.144
216.285
217.419
219.003
220.656
222.823
225.129
227.799
230.869
234.392
238.513
243.254
248.608
254.473
260.762
267.329
273.753
279.478
284.212
287.303
287.859
287.817
287.353
284.928
272.194
236.413
222.724
212.426
191.289
207.17
215.168
215.375
215.607
215.787
215.896
215.937
215.937
215.897
215.79
215.611
215.378
215.173
215.014
192.352
234.767
271.277
284.974
287.369
287.815
287.855
287.33
284.272
279.535
273.802
267.371
260.779
254.48
248.62
243.27
238.53
234.411
230.887
227.814
225.14
222.829
220.658
219.002
217.415
216.281
215.008
204.498
203.5
210.212
190.57
190.673
193.169
192.981
190.789
190.693
190.616
192.796
190.212
197.271
190.29
200.349
192.392
192.045
211.711
192.078
196.924
194.577
261.458
223.313
271.925
205.842
202.927
194.336
197.477
196.296
195.317
191.238
190.548
190.492
190.457
190.514
190.634
190.577
212.575
210.137
208.013
206.166
204.46
202.84
190.302
190.913
230.78
190.146
191.989
192.458
190.14
190.138
190.136
190.134
190.132
190.13
190.128
190.125
190.123
190.121
190.118
190.116
190.114
190.112
190.11
190.109
190.108
190.107
190.107
190.107
190.108
190.108
190.109
190.11
190.111
190.112
190.113
190.115
190.116
190.118
190.119
190.12
190.122
190.125
190.127
190.13
190.133
190.136
190.14
190.144
190.148
190.152
190.156
190.159
190.161
190.164
190.166
190.169
190.171
190.173
190.175
190.176
190.177
190.177
190.177
190.176
190.174
190.172
190.17
190.168
190.165
190.162
190.159
190.154
190.15
190.146
190.143
190.139
190.135
190.132
190.129
190.127
190.125
190.123
190.121
190.119
190.116
190.115
190.113
190.112
190.111
190.111
214.765
214.589
216.215
214.882
190.109
202.824
191.762
190.11
190.109
191.328
190.859
190.107
190.107
190.107
190.108
190.109
190.111
190.112
190.115
190.117
190.119
190.121
190.123
190.125
190.127
190.129
190.135
190.133
190.131
190.141
190.145
190.15
190.156
190.162
190.17
190.179
190.191
190.206
190.225
190.245
190.268
190.292
190.317
190.343
190.371
190.399
190.434
190.483
190.552
190.639
190.742
190.856
190.971
191.101
191.476
191.255
191.03
191.836
191.205
191.029
190.903
190.773
190.668
190.583
190.518
190.468
190.425
190.387
190.355
190.33
190.313
190.296
190.277
190.257
190.236
190.217
190.199
190.184
190.171
190.161
190.154
190.143
190.148
205.214
190.134
190.132
190.131
190.129
190.127
190.126
190.124
190.123
190.121
190.119
190.117
190.114
190.113
190.111
190.11
190.109
190.108
190.108
190.162
190.108
190.108
190.109
190.11
190.111
190.112
190.113
190.114
190.116
190.118
190.119
190.121
190.122
190.124
190.127
190.129
190.131
190.134
190.137
190.141
190.145
190.149
190.153
190.156
190.159
190.161
190.163
190.165
190.167
190.168
190.169
190.17
190.17
190.17
190.169
190.169
190.168
190.166
190.164
190.162
190.159
190.156
190.153
190.149
190.145
190.142
190.138
190.135
190.133
190.13
190.127
190.126
190.124
190.122
190.119
190.117
190.116
190.114
190.113
190.112
190.111
190.111
190.11
190.109
190.863
192.279
190.109
190.108
201.326
200.949
202.418
204.02
205.594
207.239
209.029
210.993
213.641
220.999
233.908
268.087
284.785
287.76
288.319
288.383
287.978
284.971
280.169
274.422
268.049
261.467
254.986
248.92
243.453
238.649
234.491
230.951
227.863
225.148
222.812
220.614
216.211
217.331
218.937
190.606
190.55
190.474
190.507
192.631
191.493
194.489
197.434
196.181
195.243
194.359
193.662
201.916
191.614
236.876
269.396
214.771
214.985
215.22
215.395
215.501
215.54
215.541
215.5
215.392
215.216
214.98
191.36
256.912
195.465
196.579
192.388
190.985
190.564
190.169
200.721
202.219
203.818
193.439
207.001
208.413
215.802
221.983
234.518
269.434
284.829
287.775
288.334
288.397
287.958
284.91
280.114
274.378
268.016
261.429
254.957
248.899
243.432
238.627
234.469
230.932
227.847
225.138
222.807
220.613
218.938
217.334
210.232
209.045
192.326
192.231
192.672
198.384
190.725
190.735
190.201
190.257
190.137
214.595
214.877
190.643
200.094
192.732
216.535
214.441
214.446
190.107
204.099
198.554
193.215
190.798
190.577
190.536
193.703
190.108
190.212
191.9
190.202
199.532
190.679
192.933
192.534
211.992
217.295
214.799
216.188
220.593
218.91
225.148
222.81
230.964
227.874
238.648
234.507
248.989
243.469
261.414
255.053
274.556
267.931
284.962
280.52
289.031
288.176
288.472
288.99
266.408
285.396
220.792
232.531
211.925
215.069
208.014
209.751
205.084
206.485
201.97
203.542
199.091
200.492
196.453
197.885
194.418
195.365
193.499
213.784
213.407
213.613
214.167
214.001
214.332
214.282
214.282
214.332
214.005
214.169
213.618
213.789
213.328
214.372
213.333
213.413
234.542
191.087
190.138
193.781
193
190.531
190.577
214.368
216.184
214.795
218.909
217.292
222.815
220.595
227.889
225.158
234.531
230.984
243.497
238.674
255.086
249.018
267.991
261.452
280.589
274.622
288.216
285.048
288.96
289.006
285.229
288.423
231.644
265.062
216.12
220.32
209.899
191.22
206.627
208.212
203.65
205.09
200.627
202.112
197.842
198.982
195.416
196.46
194.522
190.109
190.108
190.109
190.109
190.111
190.11
190.112
190.111
190.114
190.113
190.117
190.115
190.121
190.119
190.125
190.123
190.129
190.127
190.133
190.131
190.139
190.136
190.145
190.142
190.152
190.149
190.158
190.155
190.162
190.16
190.164
190.163
190.165
190.165
190.165
190.165
190.165
190.165
190.163
190.164
190.159
190.161
190.153
190.156
190.145
190.149
190.138
190.142
190.133
190.135
190.129
190.131
190.125
190.127
190.121
190.123
190.118
190.119
190.114
190.116
190.112
190.113
190.11
190.111
190.109
190.109
190.159
190.108
191.427
190.108
190.108
190.109
190.108
190.112
190.11
190.116
190.113
190.12
190.118
190.123
190.121
190.126
190.124
190.129
190.127
190.132
190.131
193.436
190.134
193.775
190.149
190.144
190.163
190.155
190.185
190.173
190.219
190.201
190.26
190.239
190.299
190.28
190.333
190.316
190.39
190.357
190.475
190.43
190.597
190.528
190.808
190.69
191.121
190.955
191.585
191.336
191.95
191.307
191.574
190.997
191.135
190.758
190.877
190.558
190.65
190.435
190.487
190.37
190.397
190.32
190.345
190.272
190.296
190.227
190.249
190.193
190.208
190.171
190.181
190.156
190.163
190.146
190.151
190.142
190.203
190.14
190.133
190.135
190.129
190.131
190.125
190.127
190.121
190.123
190.118
190.12
190.114
190.116
190.11
190.112
190.108
190.109
190.107
190.107
205.858
190.107
192.682
190.108
213.403
213.407
190.225
198.995
190.108
190.107
190.107
190.107
190.107
190.108
190.108
190.11
190.111
190.113
190.115
190.117
190.119
190.12
190.122
190.124
190.127
190.129
190.131
190.133
190.134
190.136
190.215
204.013
190.143
190.147
190.151
190.157
190.163
190.172
190.182
190.194
190.209
190.228
190.249
190.27
190.291
190.311
190.33
190.352
190.379
190.416
190.466
190.533
190.62
190.72
190.841
190.967
191.12
191.325
191.652
192.163
192.264
191.7
191.391
191.142
190.982
190.817
190.7
190.605
190.535
190.478
190.43
190.387
190.355
190.334
190.318
190.301
190.282
190.261
190.24
190.219
190.201
190.186
190.173
190.163
190.155
190.149
190.145
190.141
199.286
190.135
190.133
190.132
190.13
190.128
190.126
190.125
190.123
190.122
190.121
190.119
190.117
190.115
190.113
190.111
190.11
190.109
190.108
190.108
190.108
191.62
190.108
190.109
190.109
190.11
190.11
190.111
190.112
190.113
190.114
190.116
190.117
190.119
190.122
190.124
190.126
190.127
190.129
190.131
190.133
190.135
190.137
190.14
190.144
190.147
190.151
190.154
190.157
190.159
190.161
190.162
190.163
190.163
190.163
190.162
190.162
190.162
190.161
190.161
190.159
190.157
190.155
190.153
190.15
190.147
190.143
190.14
190.137
190.135
190.132
190.13
190.128
190.126
190.124
190.122
190.12
190.118
190.117
190.115
190.114
190.113
190.112
190.111
190.111
190.11
190.11
190.109
190.109
190.109
190.108
190.108
193.175
194.169
195.237
196.055
197.51
199.112
200.917
202.481
203.97
205.325
206.7
208.1
209.788
211.606
214.682
219.082
229.235
255.972
285.749
290.231
290.509
290.353
288.733
285.781
281.484
275.813
269.138
262.084
255.288
249.063
243.506
238.669
234.513
230.979
227.902
225.161
222.822
220.601
218.909
217.281
216.211
214.756
214.356
213.412
190.596
190.558
201.341
193.665
190.14
199.945
222.816
213.627
213.602
213.753
213.996
214.179
214.394
214.572
214.705
214.766
214.766
214.705
214.57
214.39
214.174
213.991
213.748
213.598
213.623
213.562
191.644
194.021
195.281
196.025
197.556
199.069
200.838
202.409
203.878
205.301
206.606
208.036
209.57
211.492
214.266
218.993
228.997
256.18
285.853
290.324
290.6
290.436
288.768
285.775
281.451
275.772
269.09
262.038
255.248
249.028
243.475
238.64
234.487
230.957
227.886
225.15
222.816
220.599
218.909
217.283
216.214
214.759
214.36
213.416
213.565
193.129
192.674
190.559
190.599
219.395
194.136
192.919
202.67
190.138
190.629
191.192
192.909
190.109
190.593
190.108
190.142
192.234
211.619
190.108
190.109
193.61
190.139
191.037
190.926
222.718
190.301
191.458
191.033
214.482
190.65
190.108
190.592
190.59
190.519
221.44
190.136
190.259
190.363
281.601
190.112
191.345
213.055
225.202
191.038
190.139
217.362
190.181
190.472
190.136
192.824
190.135
194.216
190.443
205.615
198.439
215.53
192.533
190.109
198.282
225.499
191.152
216.659
190.839
190.277
190.107
190.268
190.122
190.607
190.159
190.223
190.298
)
;

boundaryField
{
    wall
    {
        type            zeroGradient;
    }
    outlet
    {
        type            inletOutlet;
        inletValue      uniform 1e-05;
        value           nonuniform List<scalar> 
20
(
213.627
213.602
213.753
213.996
214.179
214.394
214.572
214.705
214.766
214.766
214.705
214.57
214.39
214.174
213.991
213.748
213.598
213.623
213.562
213.565
)
;
    }
    frontAndBackPlanes
    {
        type            empty;
    }
}


// ************************************************************************* //
