/*--------------------------------*- C++ -*----------------------------------*\
| =========                 |                                                 |
| \\      /  F ield         | OpenFOAM: The Open Source CFD Toolbox           |
|  \\    /   O peration     | Version:  2212                                  |
|   \\  /    A nd           | Website:  www.openfoam.com                      |
|    \\/     M anipulation  |                                                 |
\*---------------------------------------------------------------------------*/
FoamFile
{
    version     2.0;
    format      ascii;
    arch        "LSB;label=32;scalar=64";
    class       volScalarField;
    location    "0.0484";
    object      T;
}
// * * * * * * * * * * * * * * * * * * * * * * * * * * * * * * * * * * * * * //

dimensions      [0 0 0 1 0 0 0];

internalField   nonuniform List<scalar> 
31661
(
271.639
211.46
213.228
212.247
211.384
212.978
212.09
211.362
212.788
211.975
268.422
217.655
274.034
266.064
272.445
271.256
272.409
271.474
219.084
271.06
232.83
232.977
256.207
268.386
213.257
233.276
257.837
251.766
217.85
219.593
268.327
261.988
262.278
221.101
229.113
268.037
224.205
268.218
252.897
261.37
257.317
211.095
268.459
233.008
233.863
219.629
233.389
226.705
223.748
258.976
249.138
256.016
220.882
225.726
248.583
218.055
221.276
223.183
229.294
218.96
218.918
218.522
230.828
208.527
224.847
265.5
272.567
227.7
225.748
223.826
216.636
221.227
219.372
217.44
215.769
214.163
212.699
211.372
210.19
209.159
208.271
207.523
206.899
206.39
206.502
207.024
207.661
208.423
209.319
210.349
211.518
212.817
214.251
215.804
217.458
219.124
220.808
222.389
223.967
225.579
227.195
228.599
229.842
231.215
231.045
232.449
232.172
233.475
233.173
234.327
234.031
235.025
234.755
235.593
235.358
236.051
235.854
236.42
236.258
236.716
236.587
236.954
236.852
237.146
237.067
237.302
237.241
237.43
237.383
237.536
237.5
237.625
237.597
237.699
237.678
237.763
237.746
237.818
237.804
237.866
237.855
237.909
237.9
237.949
237.941
237.985
237.979
238.021
238.016
238.056
238.052
238.092
238.088
238.13
238.127
238.17
238.168
238.215
238.214
238.266
238.265
238.323
238.323
238.388
238.389
238.464
238.465
238.551
238.553
238.655
238.652
238.662
238.559
238.471
238.394
238.328
238.27
238.219
238.173
238.132
238.093
238.057
238.021
237.985
237.947
237.907
237.863
237.813
237.757
237.691
237.614
237.523
237.412
237.278
237.114
236.912
236.661
236.349
235.961
235.478
234.883
234.155
233.272
232.209
230.926
229.485
227.711
225.721
223.708
221.717
219.745
217.827
216.096
214.444
212.948
211.589
210.385
206.078
205.979
209.333
208.429
207.666
207.027
206.503
205.661
205.747
206.009
206.381
206.845
207.41
208.087
208.883
209.807
210.853
212.02
213.296
214.667
216.128
217.635
219.187
220.728
222.213
223.672
225.108
226.495
227.784
228.994
230.186
231.32
232.349
233.264
234.067
234.759
235.347
235.839
236.247
236.58
236.851
237.072
237.25
237.396
237.515
237.612
237.693
237.762
237.82
237.872
237.917
237.959
237.999
238.038
238.078
238.119
238.163
238.211
238.264
238.324
238.393
238.472
238.563
238.668
238.789
238.773
238.77
238.781
238.806
238.683
238.578
238.486
238.407
238.338
238.277
238.224
238.176
238.132
238.092
238.053
238.015
237.976
237.935
237.891
237.843
237.788
237.725
237.65
237.561
237.454
237.323
237.163
236.965
236.72
236.417
236.042
235.581
235.019
234.342
233.537
232.596
231.512
230.287
228.883
227.27
225.541
223.759
221.962
220.113
218.354
216.643
215.036
213.535
212.163
210.93
209.845
208.903
206.079
208.096
207.413
206.844
205.76
205.512
205.748
205.438
205.498
205.843
206.134
206.466
206.9
207.427
208.057
208.796
209.646
210.61
211.679
212.843
214.089
215.394
216.737
218.093
219.448
220.775
222.044
223.274
224.478
225.645
226.764
227.86
228.967
230.057
231.096
232.068
232.961
233.769
234.484
235.105
235.633
236.076
236.442
236.742
236.987
237.185
237.345
237.475
237.582
237.67
237.744
237.808
237.863
237.914
237.96
238.005
238.05
238.096
238.145
238.198
238.256
238.321
238.394
238.478
238.574
238.684
238.812
238.959
238.93
238.911
238.906
238.919
238.949
238.991
238.842
238.713
238.601
238.505
238.42
238.347
238.282
238.224
238.172
238.124
238.079
238.036
237.993
237.949
237.902
237.851
237.793
237.726
237.648
237.555
237.441
237.302
237.13
236.918
236.655
236.331
235.933
235.45
234.871
234.188
233.397
232.497
231.496
230.403
229.228
227.946
226.558
225.109
223.621
222.08
220.493
218.932
217.375
215.866
214.412
213.054
211.809
210.69
209.693
208.821
206.38
208.07
207.434
205.314
205.678
205.372
206.01
205.514
205.253
205.508
205.893
206.107
206.351
206.694
207.119
207.635
208.246
208.959
209.773
210.688
211.695
212.782
213.928
215.116
216.316
217.51
218.676
219.802
220.878
221.895
222.87
223.824
224.759
225.684
226.618
227.588
228.58
229.574
230.554
231.505
232.408
233.248
234.01
234.686
235.271
235.77
236.188
236.533
236.815
237.044
237.229
237.38
237.503
237.604
237.69
237.763
237.828
237.887
237.942
237.996
238.05
238.106
238.166
238.231
238.304
238.384
238.476
238.58
238.699
238.835
238.991
239.171
239.128
239.093
239.07
239.064
239.079
239.114
239.164
239.224
239.041
238.882
238.744
238.624
238.519
238.428
238.347
238.275
238.211
238.152
238.098
238.046
237.995
237.944
237.89
237.832
237.767
237.692
237.604
237.498
237.37
237.213
237.018
236.778
236.481
236.117
235.675
235.145
234.52
233.798
232.982
232.082
231.11
230.085
229.027
227.944
226.829
225.678
224.512
223.323
222.089
220.829
219.519
218.19
216.838
215.498
214.199
212.97
211.822
210.767
209.822
208.991
206.903
208.268
205.185
205.247
206.471
205.762
205.418
205.763
205.321
205.119
205.662
206.057
206.229
206.405
206.693
207.031
207.463
207.983
208.596
209.304
210.106
210.997
211.967
212.999
214.074
215.168
216.256
217.314
218.323
219.275
220.164
220.992
221.763
222.501
223.224
223.943
224.672
225.427
226.232
227.084
227.974
228.894
229.831
230.769
231.687
232.564
233.379
234.118
234.774
235.341
235.823
236.226
236.558
236.829
237.05
237.229
237.376
237.498
237.6
237.688
237.766
237.838
237.906
237.972
238.04
238.111
238.186
238.268
238.359
238.461
238.576
238.706
238.854
239.023
239.216
239.437
239.377
239.324
239.281
239.255
239.248
239.265
239.305
239.363
239.435
239.29
239.093
238.922
238.771
238.64
238.525
238.423
238.332
238.251
238.177
238.109
238.044
237.981
237.919
237.854
237.784
237.707
237.619
237.515
237.391
237.24
237.055
236.827
236.546
236.202
235.784
235.283
234.692
234.008
233.234
232.381
231.464
230.504
229.523
228.541
227.575
226.632
225.706
224.792
223.891
222.983
222.047
221.083
220.057
218.982
217.847
216.677
215.493
214.318
213.173
212.084
211.082
210.168
207.651
209.347
239.516
208.628
205.097
207.134
205.192
206.148
205.377
205.506
205.963
205.624
205.188
205.052
205.916
206.309
206.436
206.564
206.83
207.081
207.451
207.901
208.438
209.065
209.783
210.588
211.471
212.419
213.415
214.435
215.455
216.45
217.396
218.278
219.087
219.823
220.49
221.099
221.659
222.199
222.728
223.265
223.81
224.396
225.031
225.722
226.469
227.271
228.123
229.016
229.934
230.856
231.761
232.625
233.429
234.156
234.799
235.355
235.827
236.22
236.545
236.811
237.029
237.208
237.356
237.481
237.589
237.686
237.775
237.859
237.943
238.028
238.117
238.213
238.317
238.433
238.561
238.706
238.869
239.054
239.263
239.501
239.771
239.688
239.614
239.55
239.499
239.468
239.462
239.481
239.527
239.594
239.678
239.774
239.602
239.358
239.145
238.957
238.792
238.646
238.517
238.402
238.298
238.204
238.118
238.036
237.957
237.879
237.798
237.712
237.618
237.51
237.385
237.235
237.053
236.831
236.559
236.227
235.824
235.341
234.77
234.11
233.363
232.536
231.647
230.717
229.769
228.828
227.912
227.036
226.209
225.43
224.694
223.994
223.32
222.651
221.971
221.26
220.5
219.679
218.785
217.824
216.804
215.74
214.653
213.584
212.552
211.569
210.662
209.842
239.878
209.11
208.009
205.068
206.707
205.184
205.851
205.373
205.38
205.62
205.102
206.248
205.911
205.03
240.077
239.976
239.886
239.81
239.752
239.716
239.709
239.731
239.783
239.86
239.957
240.069
240.192
239.99
239.693
239.429
239.196
238.989
238.806
238.642
238.496
238.365
238.245
238.135
238.031
237.931
237.833
237.732
237.625
237.508
237.375
237.221
237.037
236.816
236.547
236.22
235.826
235.353
234.795
234.149
233.418
232.608
231.737
230.824
229.893
228.969
228.074
227.223
226.43
225.699
225.029
224.417
223.855
223.338
222.845
222.364
221.88
221.382
220.841
220.248
219.584
218.843
218.019
217.116
216.157
215.162
214.148
213.147
212.181
211.27
210.43
208.47
209.678
240.325
206.237
206.616
206.699
206.824
207.014
207.233
207.553
207.946
208.421
208.982
209.63
210.365
211.18
212.063
212.999
213.966
214.941
215.898
216.813
217.665
218.441
219.135
219.749
220.289
220.77
221.199
221.598
221.98
222.356
222.741
223.143
223.572
224.053
224.586
225.177
225.83
226.549
227.33
228.168
229.051
229.962
230.878
231.778
232.636
233.434
234.155
234.792
235.341
235.808
236.197
236.519
236.785
237.004
237.187
237.342
237.476
237.596
237.707
237.813
237.918
238.026
238.139
238.26
238.392
238.538
238.7
238.881
239.085
239.314
239.572
239.863
240.19
207.483
205.066
209.017
207.927
206.362
205.201
205.693
205.404
205.255
205.652
205.072
205.936
205.03
206.59
206.249
240.47
240.112
239.792
239.506
239.25
239.021
238.817
238.633
238.466
238.315
238.175
238.044
237.917
237.793
237.666
237.533
237.386
237.222
237.031
236.804
236.534
236.207
235.815
235.347
234.796
234.157
233.434
232.634
231.772
230.868
229.946
229.031
228.146
227.307
226.528
225.816
225.173
224.597
224.082
223.622
223.213
222.841
222.487
222.153
221.815
221.472
221.103
220.691
220.224
219.684
219.061
218.352
217.56
216.691
215.765
214.798
213.825
212.867
211.947
211.092
210.315
207.016
207.11
207.281
207.455
207.743
208.074
208.497
209.003
209.594
210.27
211.026
211.855
212.741
213.667
214.609
215.542
216.441
217.284
218.053
218.739
219.338
219.854
220.297
220.677
221.01
221.303
221.581
221.834
222.096
222.369
222.661
222.967
223.308
223.699
224.144
224.647
225.215
225.85
226.556
227.329
228.162
229.042
229.952
230.868
231.767
232.625
233.421
234.14
234.775
235.323
235.788
236.177
236.502
236.772
236.998
237.191
237.358
237.508
237.647
237.78
237.912
238.048
238.191
238.343
238.51
238.692
238.895
239.12
239.372
239.653
239.967
240.317
240.707
240.557
240.423
240.304
240.199
240.11
240.043
240.004
239.995
240.021
240.079
240.166
240.277
240.405
240.547
240.7
206.965
240.866
208.445
209.625
206.588
207.046
205.107
241.305
241.12
240.947
240.787
240.643
240.519
240.422
240.356
240.328
240.337
240.381
240.456
240.557
240.677
240.815
240.968
241.138
207.471
206.12
205.261
206.957
207.369
207.441
207.586
207.721
207.996
208.266
208.648
209.105
209.645
210.269
210.974
211.753
212.595
213.484
214.398
215.313
216.203
217.046
217.82
218.514
219.12
219.638
220.075
220.439
220.744
221.002
221.222
221.42
221.597
221.777
221.944
222.122
222.325
222.55
222.786
223.055
223.367
223.734
224.158
224.645
225.199
225.826
226.526
227.297
228.13
229.012
229.925
230.846
231.748
232.609
233.408
234.13
234.768
235.318
235.787
236.183
236.515
236.796
237.036
237.245
237.433
237.607
237.775
237.941
238.111
238.29
238.482
238.689
238.916
239.166
239.443
239.75
240.089
240.463
240.875
241.326
209.024
207.962
205.519
205.468
205.199
205.717
205.07
205.998
205.078
206.304
206.632
207.345
206.977
208.088
207.725
241.504
241.047
240.629
240.249
239.904
239.593
239.312
239.059
238.83
238.622
238.432
238.255
238.09
237.931
237.774
237.615
237.447
237.265
237.059
236.822
236.543
236.211
235.816
235.347
234.796
234.159
233.437
232.639
231.779
230.879
229.959
229.048
228.164
227.33
226.558
225.856
225.225
224.666
224.174
223.742
223.367
223.041
222.754
222.484
222.238
222.007
221.792
221.554
221.312
221.036
220.722
220.349
219.907
219.385
218.772
218.068
217.275
216.413
215.501
214.552
213.6
212.685
211.817
211.016
210.297
241.788
208.506
209.652
231.099
242.002
206.715
205.177
241.587
241.397
241.221
241.062
240.925
240.817
240.745
240.714
240.723
240.772
240.856
240.968
241.103
241.257
241.427
241.614
241.819
207.094
205.908
205.344
208.15
207.8
207.906
208.055
208.263
208.513
208.858
209.273
209.768
210.345
211.002
211.736
212.536
213.389
214.275
215.172
216.055
216.9
217.684
218.393
219.015
219.549
219.996
220.366
220.668
220.914
221.115
221.282
221.423
221.547
221.661
221.77
221.887
221.996
222.122
222.26
222.431
222.616
222.826
223.074
223.369
223.72
224.132
224.608
225.157
225.78
226.48
227.252
228.09
228.979
229.899
230.827
231.739
232.608
233.415
234.145
234.79
235.349
235.829
236.237
236.584
236.884
237.146
237.382
237.601
237.811
238.019
238.232
238.455
238.693
238.949
239.228
239.532
239.866
240.232
240.631
241.065
241.536
242.042
207.564
205.428
205.56
209.1
208.071
205.191
205.809
205.111
206.086
205.151
206.384
206.701
207.035
207.726
242.317
242.54
208.769
208.741
242.231
241.721
241.247
240.808
240.404
240.034
239.696
239.388
239.107
238.85
238.614
238.394
238.187
237.987
237.791
237.591
237.38
237.152
236.895
236.6
236.256
235.851
235.375
234.818
234.176
233.45
232.648
231.784
230.878
229.955
229.04
228.156
227.32
226.55
225.85
225.226
224.676
224.196
223.779
223.422
223.121
222.864
222.642
222.432
222.245
222.089
221.944
221.794
221.65
221.49
221.316
221.111
220.868
220.57
220.207
219.763
219.229
218.605
217.891
217.091
216.219
215.311
214.387
213.468
212.589
211.764
211.01
210.335
208.408
208.049
208.636
209.746
230.259
206.412
205.274
242.104
241.903
241.713
241.541
241.393
241.276
241.199
241.164
241.174
241.227
241.318
241.44
241.587
241.754
241.939
242.138
242.354
242.586
206.839
205.771
205.455
211.671
208.251
208.412
208.553
208.832
209.109
209.489
209.945
210.48
211.095
211.786
212.547
213.364
214.222
215.1
215.973
216.819
217.613
218.337
218.98
219.535
220.002
220.388
220.7
220.95
221.149
221.307
221.433
221.535
221.619
221.692
221.757
221.819
221.879
221.956
222.029
222.112
222.204
222.322
222.466
222.627
222.821
223.055
223.339
223.681
224.085
224.558
225.104
225.729
226.432
227.211
228.058
228.957
229.889
230.831
231.756
232.639
233.459
234.203
234.863
235.439
235.937
236.366
236.739
237.068
237.364
237.639
237.903
238.163
238.428
238.704
238.995
239.307
239.643
240.006
240.399
240.824
241.28
241.767
242.286
242.836
207.235
205.386
205.676
207.743
205.207
205.926
209.242
208.247
205.18
206.2
205.253
206.492
206.8
207.12
242.897
243.124
207.447
207.771
224.523
208.077
242.777
243.028
242.478
241.958
241.468
241.01
240.582
240.186
239.82
239.482
239.17
238.88
238.609
238.351
238.103
237.857
237.607
237.343
237.056
236.735
236.37
235.946
235.454
234.884
234.231
233.494
232.681
231.806
230.89
229.957
229.032
228.14
227.299
226.524
225.824
225.199
224.652
224.179
223.772
223.427
223.139
222.898
222.695
222.52
222.363
222.238
222.127
222.032
221.933
221.845
221.757
221.662
221.555
221.43
221.277
221.086
220.847
220.545
220.17
219.71
219.159
218.512
217.775
216.966
216.098
215.19
214.279
213.395
212.554
211.767
211.055
210.432
268.757
208.825
209.893
237.008
220
206.239
205.395
242.68
242.471
242.273
242.093
241.937
241.813
241.731
241.694
241.705
241.761
241.857
241.986
242.141
242.317
242.51
242.716
242.936
243.17
243.418
206.566
205.67
205.586
220.374
212.189
208.731
208.9
209.133
209.395
209.751
210.174
210.671
211.247
211.898
212.62
213.402
214.231
215.087
215.947
216.789
217.59
218.328
218.99
219.568
220.058
220.465
220.795
221.058
221.265
221.426
221.549
221.644
221.716
221.772
221.815
221.85
221.879
221.905
221.932
221.96
222
222.045
222.092
222.159
222.239
222.34
222.462
222.61
222.793
223.018
223.296
223.633
224.035
224.507
225.057
225.687
226.399
227.189
228.049
228.964
229.914
230.875
231.819
232.722
233.564
234.33
235.014
235.617
236.145
236.608
237.019
237.39
237.734
238.063
238.386
238.712
239.049
239.402
239.775
240.171
240.593
241.042
241.519
242.022
242.551
243.104
243.684
207.012
205.381
205.813
207.442
205.266
206.065
207.98
205.277
206.336
209.437
208.478
205.377
206.623
206.922
243.538
243.759
207.231
207.544
207.852
208.171
243.36
243.609
243.296
242.744
242.217
241.713
241.236
240.785
240.362
239.966
239.595
239.246
238.916
238.6
238.293
237.987
237.674
237.343
236.985
236.585
236.133
235.615
235.022
234.348
233.593
232.761
231.869
230.936
229.986
229.046
228.14
227.287
226.502
225.795
225.168
224.619
224.146
223.742
223.403
223.123
222.894
222.706
222.551
222.414
222.305
222.219
222.145
222.085
222.022
221.975
221.928
221.883
221.832
221.775
221.703
221.614
221.499
221.35
221.157
220.907
220.59
220.195
219.71
219.132
218.463
217.711
216.882
216.008
215.118
214.23
213.368
212.567
211.829
211.166
210.591
208.8
209.062
210.096
208.499
243.874
206.061
205.536
243.324
243.117
242.919
242.737
242.579
242.453
242.369
242.331
242.341
242.398
242.495
242.626
242.784
242.961
243.153
243.357
243.572
243.799
244.039
244.297
206.436
205.631
205.738
209.224
209.295
209.328
209.453
209.686
210.026
210.429
210.9
211.444
212.061
212.747
213.496
214.294
215.126
215.971
216.806
217.608
218.357
219.036
219.634
220.147
220.576
220.927
221.208
221.428
221.598
221.727
221.824
221.894
221.944
221.978
221.999
222.013
222.019
222.02
222.019
222.017
222.018
222.021
222.029
222.047
222.07
222.104
222.16
222.231
222.326
222.438
222.578
222.755
222.977
223.252
223.589
223.995
224.473
225.03
225.672
226.398
227.205
228.084
229.021
229.995
230.982
231.954
232.887
233.76
234.56
235.28
235.922
236.493
237.003
237.466
237.896
238.303
238.7
239.097
239.502
239.922
240.356
240.811
241.287
241.784
242.301
242.838
243.393
243.97
244.576
206.816
205.41
205.969
207.271
205.349
206.222
209.208
207.7
205.398
206.492
208.232
205.521
206.774
244.259
244.462
209.679
208.755
207.067
207.366
207.667
207.972
208.284
243.988
244.229
244.486
244.16
243.584
243.031
242.498
241.982
241.487
241.014
240.562
240.132
239.722
239.325
238.944
238.568
238.191
237.802
237.391
236.944
236.448
235.893
235.265
234.56
233.775
232.916
231.997
231.039
230.065
229.103
228.177
227.306
226.506
225.786
225.148
224.593
224.116
223.711
223.372
223.095
222.87
222.69
222.545
222.427
222.329
222.251
222.191
222.149
222.114
222.084
222.066
222.05
222.037
222.023
222.006
221.983
221.951
221.906
221.844
221.758
221.642
221.485
221.279
221.013
220.674
220.251
219.739
219.135
218.435
217.661
216.832
215.963
215.084
214.225
213.401
212.64
211.953
211.339
210.803
209.351
208.622
210.342
208.874
244.765
205.967
205.695
244.063
243.87
243.685
243.514
243.363
243.242
243.16
243.122
243.132
243.185
243.277
243.401
243.549
243.715
243.894
244.082
244.28
244.49
244.714
244.957
245.226
206.308
205.627
205.906
209.834
209.971
210.134
210.372
210.713
211.155
211.677
212.268
212.925
213.642
214.411
215.218
216.043
216.867
217.666
218.42
219.111
219.727
220.261
220.712
221.083
221.383
221.62
221.803
221.942
222.045
222.118
222.17
222.201
222.219
222.223
222.221
222.212
222.195
222.175
222.152
222.128
222.106
222.084
222.066
222.053
222.051
222.057
222.064
222.091
222.141
222.211
222.299
222.406
222.546
222.722
222.946
223.225
223.569
223.982
224.473
225.045
225.704
226.45
227.281
228.187
229.154
230.161
231.183
232.194
233.169
234.086
234.932
235.702
236.398
237.026
237.6
238.13
238.63
239.111
239.588
240.064
240.552
241.046
241.552
242.071
242.603
243.148
243.706
244.281
244.883
245.529
206.693
205.475
206.142
209.73
209.216
207.095
205.459
206.397
207.564
205.538
206.665
245.101
245.269
208.024
205.682
208.541
206.945
207.231
209.955
209.062
207.523
207.819
208.12
208.432
244.674
244.9
245.144
245.415
245.074
244.471
243.897
243.342
242.802
242.276
241.763
241.264
240.78
240.308
239.843
239.391
238.938
238.479
238
237.49
236.938
236.329
235.653
234.902
234.075
233.177
232.222
231.228
230.222
229.23
228.275
227.38
226.558
225.818
225.164
224.595
224.107
223.695
223.351
223.072
222.847
222.668
222.526
222.413
222.32
222.248
222.196
222.163
222.148
222.133
222.129
222.134
222.142
222.154
222.165
222.177
222.184
222.187
222.185
222.169
222.146
222.103
222.04
221.949
221.824
221.656
221.432
221.143
220.777
220.326
219.781
219.149
218.435
217.652
216.813
215.953
215.102
214.278
213.507
212.787
212.136
211.555
211.046
209.674
208.966
210.615
208.747
245.721
205.921
205.87
244.942
244.787
244.637
244.497
244.371
244.268
244.198
244.165
244.171
244.214
244.289
244.389
244.509
244.642
244.785
244.937
245.1
245.276
245.471
245.691
245.944
246.241
206.248
205.658
206.089
210.423
210.614
210.838
211.131
211.499
211.956
212.507
213.137
213.831
214.576
215.358
216.163
216.971
217.763
218.517
219.215
219.844
220.395
220.865
221.257
221.576
221.829
222.028
222.178
222.291
222.371
222.427
222.46
222.48
222.481
222.477
222.461
222.438
222.408
222.375
222.339
222.299
222.257
222.216
222.177
222.14
222.106
222.079
222.056
222.044
222.045
222.052
222.076
222.118
222.19
222.28
222.389
222.533
222.716
222.948
223.237
223.593
224.023
224.532
225.126
225.81
226.584
227.447
228.388
229.395
230.446
231.516
232.578
233.608
234.583
235.491
236.327
237.091
237.791
238.438
239.045
239.619
240.181
240.727
241.28
241.83
242.378
242.928
243.483
244.046
244.624
245.228
245.877
246.593
209.264
206.61
205.566
206.33
209.679
210.285
207.003
205.59
206.587
246.142
246.243
207.423
205.697
205.859
207.882
206.855
207.131
208.359
207.414
208.887
207.702
210.254
209.391
207.994
208.291
208.589
245.449
245.648
245.87
246.127
246.427
246.073
245.421
244.815
244.238
243.679
243.132
242.591
242.057
241.527
240.996
240.465
239.94
239.403
238.852
238.268
237.646
236.97
236.231
235.42
234.537
233.585
232.579
231.539
230.489
229.456
228.464
227.535
226.683
225.917
225.24
224.652
224.146
223.719
223.363
223.075
222.843
222.659
222.515
222.401
222.31
222.236
222.187
222.161
222.152
222.147
222.153
222.169
222.19
222.217
222.246
222.277
222.308
222.336
222.365
222.388
222.407
222.416
222.419
222.408
222.382
222.337
222.269
222.169
222.031
221.844
221.6
221.285
220.89
220.411
219.846
219.193
218.455
217.666
216.842
216.014
215.196
214.412
213.666
212.972
212.345
211.792
211.32
210.019
208.901
209.083
210.913
246.782
205.915
206.06
246.053
245.972
245.895
245.821
245.752
245.693
245.652
245.631
245.633
245.652
245.688
245.736
245.794
245.858
245.929
246.011
246.105
246.221
246.363
246.543
246.767
247.046
247.392
209.334
206.238
205.723
209.222
209.436
206.286
209.666
210.184
210.888
211.032
211.298
211.573
211.93
212.347
212.84
213.414
214.064
214.778
215.539
216.326
217.119
217.9
218.649
219.349
219.986
220.55
221.036
221.445
221.782
222.052
222.265
222.429
222.552
222.641
222.703
222.742
222.764
222.768
222.763
222.748
222.721
222.686
222.649
222.606
222.558
222.506
222.453
222.399
222.344
222.291
222.239
222.19
222.146
222.106
222.073
222.046
222.033
222.033
222.044
222.069
222.115
222.186
222.289
222.409
222.562
222.762
223.012
223.317
223.69
224.141
224.676
225.301
226.018
226.83
227.736
228.725
229.784
230.892
232.024
233.152
234.251
235.3
236.284
237.196
238.038
238.816
239.54
240.216
240.861
241.481
242.083
242.681
243.268
243.844
244.42
245.007
245.621
246.283
247.014
247.819
206.586
205.681
206.532
247.499
247.484
206.957
205.742
205.872
207.355
206.79
207.058
207.782
206.05
207.333
208.241
207.614
208.717
207.898
209.251
208.186
210.579
209.747
208.475
208.77
246.363
246.512
246.696
246.923
247.203
247.548
247.969
247.206
246.485
245.818
245.2
244.615
244.047
243.485
242.922
242.35
241.767
241.182
240.581
239.959
239.305
238.607
237.856
237.042
236.159
235.205
234.186
233.115
232.013
230.905
229.819
228.778
227.805
226.912
226.11
225.402
224.783
224.255
223.807
223.436
223.134
222.885
222.687
222.532
222.411
222.311
222.235
222.187
222.16
222.148
222.146
222.157
222.179
222.207
222.242
222.281
222.324
222.369
222.415
222.461
222.507
222.549
222.587
222.621
222.651
222.675
222.684
222.687
222.674
222.645
222.594
222.516
222.403
222.25
222.043
221.775
221.437
221.021
220.517
219.925
219.255
218.525
217.744
216.948
216.146
215.346
214.572
213.845
213.182
212.573
212.032
211.567
210.318
211.178
210.904
209.069
212.439
205.94
211.694
211.478
209.38
209.557
209.676
210.136
210.733
209.73
210.13
210.65
209.806
210.148
210.613
210.205
209.911
210.607
209.7
210.628
210.282
210.033
206.261
247.539
247.589
247.641
247.686
247.719
247.742
247.755
247.758
247.751
247.732
247.701
247.658
247.604
247.546
247.489
247.441
247.418
247.426
247.476
247.574
247.735
247.968
248.279
248.68
212.165
212.76
213.371
214.04
214.76
215.512
216.292
217.096
217.892
218.656
219.38
220.045
220.645
221.164
221.606
221.965
222.253
222.477
222.647
222.774
222.862
222.924
222.958
222.977
222.975
222.968
222.944
222.913
222.876
222.834
222.787
222.734
222.679
222.622
222.565
222.507
222.45
222.395
222.342
222.294
222.25
222.213
222.183
222.161
222.153
222.158
222.176
222.213
222.267
222.355
222.465
222.605
222.774
222.991
223.262
223.591
223.988
224.464
225.027
225.682
226.436
227.286
228.231
229.262
230.365
231.518
232.697
233.874
235.022
236.12
237.153
238.115
239.005
239.826
240.59
241.297
241.976
242.611
243.235
243.845
244.442
245.034
245.64
246.279
246.971
247.714
248.48
206.25
205.816
206.495
247.5
247.557
247.661
247.825
248.055
248.357
248.742
249.218
211.099
211.137
211.218
211.347
211.514
211.729
212.005
212.356
212.767
213.242
213.78
214.382
215.051
215.774
216.53
217.304
218.074
218.816
219.515
220.155
220.726
221.225
221.648
221.999
222.285
222.512
222.689
222.823
222.922
222.992
223.037
223.064
223.072
223.069
223.056
223.028
222.994
222.954
222.909
222.857
222.8
222.74
222.678
222.615
222.55
222.485
222.421
222.358
222.298
222.241
222.189
222.141
222.1
222.068
222.044
222.034
222.039
222.06
222.09
222.151
222.234
222.345
222.488
222.659
222.879
223.152
223.486
223.889
224.369
224.94
225.604
226.368
227.233
228.193
229.243
230.368
231.547
232.754
233.961
235.142
236.273
237.339
238.331
239.249
240.096
240.882
241.609
242.305
242.954
243.589
244.211
244.824
245.436
246.074
246.763
247.521
248.34
249.182
206.587
205.818
205.909
206.951
206.745
207.005
207.337
206.061
249.317
249.113
207.274
207.739
206.253
207.548
208.165
207.827
208.618
208.108
209.093
208.391
209.62
208.676
210.148
208.962
210.732
209.255
209.554
211.091
210.681
209.859
211.573
211.108
206.003
212.844
211.566
210.384
210.176
206.475
212.544
212.898
213.399
214.124
214.892
215.68
216.477
217.269
218.046
218.81
219.543
220.214
220.813
221.342
221.792
222.169
222.473
222.715
222.9
223.04
223.14
223.211
223.253
223.281
223.282
223.277
223.256
223.226
223.188
223.146
223.097
223.041
222.982
222.92
222.855
222.789
222.723
222.656
222.591
222.526
222.465
222.407
222.353
222.304
222.261
222.227
222.201
222.187
222.186
222.202
222.229
222.286
222.36
222.464
222.595
222.756
222.957
223.202
223.504
223.87
224.303
224.819
225.427
226.132
226.938
227.85
228.861
229.962
231.139
232.37
233.63
234.889
236.12
237.299
238.41
239.443
240.393
241.272
242.071
242.828
243.526
244.186
244.832
245.477
246.131
246.815
247.547
248.321
249.094
249.797
249.551
249.797
250.037
250.252
250.433
250.571
250.661
250.699
250.686
250.618
250.495
250.328
250.121
249.886
249.639
249.397
249.184
249.015
248.899
248.861
248.898
249.021
249.242
249.564
249.993
206.307
205.933
211.575
216.093
205.974
206.633
206.715
206.969
211.62
211.705
211.85
211.978
212.229
212.471
212.801
213.191
213.65
214.174
214.757
215.393
216.075
216.799
217.544
218.289
219.017
219.709
220.349
220.925
221.431
221.864
222.228
222.527
222.767
222.956
223.101
223.21
223.288
223.342
223.373
223.388
223.386
223.377
223.352
223.319
223.279
223.234
223.181
223.122
223.059
222.993
222.924
222.853
222.781
222.709
222.636
222.564
222.493
222.425
222.36
222.298
222.241
222.19
222.145
222.109
222.083
222.068
222.068
222.084
222.112
222.169
222.248
222.353
222.487
222.652
222.857
223.109
223.417
223.79
224.232
224.756
225.373
226.089
226.909
227.836
228.866
229.989
231.19
232.45
233.74
235.033
236.298
237.511
238.653
239.716
240.692
241.593
242.409
243.183
243.893
244.566
245.226
245.895
246.588
247.327
248.127
248.972
249.797
250.537
206.977
206.092
248.955
248.851
248.821
248.862
248.982
249.19
249.489
249.884
250.383
251.619
251.178
211.16
211.191
210.755
207.232
207.342
206.262
207.501
207.734
206.468
207.775
208.144
208.052
208.564
208.331
209.017
208.61
209.495
208.888
210.01
209.171
210.606
209.455
212.699
209.742
210.035
206.092
212.274
212.324
206.071
206.389
206.945
252.083
252.54
252.965
253.338
253.646
253.88
254.034
254.104
254.089
253.986
253.798
253.534
253.195
252.793
252.349
251.891
251.447
251.044
250.698
250.442
250.273
250.22
250.273
250.447
250.74
251.169
230.838
212.187
212.336
212.499
212.711
212.963
213.289
213.663
214.098
214.598
215.158
215.772
216.432
217.124
217.838
218.555
219.262
219.941
220.573
221.148
221.656
222.097
222.469
222.778
223.029
223.229
223.384
223.503
223.589
223.651
223.688
223.711
223.711
223.707
223.685
223.657
223.616
223.573
223.521
223.461
223.397
223.329
223.258
223.184
223.108
223.031
222.952
222.874
222.796
222.718
222.642
222.568
222.497
222.43
222.367
222.31
222.258
222.214
222.18
222.154
222.142
222.143
222.161
222.198
222.242
222.324
222.434
222.565
222.731
222.937
223.189
223.487
223.842
224.268
224.767
225.349
226.024
226.801
227.689
228.687
229.792
230.996
232.279
233.621
234.994
236.366
237.707
238.989
240.193
241.304
242.325
243.25
244.099
244.901
245.639
246.375
247.137
247.964
248.84
249.723
250.532
251.209
251.718
206.706
206.147
213.007
213.415
213.872
214.404
215.034
215.778
216.595
217.428
218.239
219.014
219.733
220.395
221.005
221.548
222.01
222.394
222.71
222.962
223.162
223.313
223.426
223.505
223.558
223.59
223.6
223.596
223.583
223.553
223.515
223.474
223.426
223.37
223.309
223.245
223.177
223.107
223.035
222.962
222.889
222.816
222.744
222.674
222.606
222.541
222.48
222.425
222.375
222.332
222.297
222.271
222.257
222.258
222.273
222.306
222.35
222.428
222.534
222.661
222.818
223.018
223.263
223.551
223.897
224.313
224.8
225.37
226.031
226.796
227.669
228.65
229.736
230.915
232.172
233.486
234.828
236.168
237.477
238.727
239.901
240.986
241.984
242.89
243.721
244.506
245.224
245.933
246.651
247.414
248.219
249.041
249.823
250.491
251
250.784
250.451
250.207
250.048