/*--------------------------------*- C++ -*----------------------------------*\
| =========                 |                                                 |
| \\      /  F ield         | OpenFOAM: The Open Source CFD Toolbox           |
|  \\    /   O peration     | Version:  2212                                  |
|   \\  /    A nd           | Website:  www.openfoam.com                      |
|    \\/     M anipulation  |                                                 |
\*---------------------------------------------------------------------------*/
FoamFile
{
    version     2.0;
    format      ascii;
    arch        "LSB;label=32;scalar=64";
    class       volVectorField;
    location    "0.0392";
    object      U;
}
// * * * * * * * * * * * * * * * * * * * * * * * * * * * * * * * * * * * * * //

dimensions      [0 1 -1 0 0 0 0];

internalField   nonuniform List<vector> 
2308
(
(-3.7581 9.07173 -1.00542e-15)
(1.99263 7.56019 0)
(0.591043 5.62594 7.16483e-17)
(-3.38319 9.74047 -3.53678e-16)
(-2.02909 11.164 0)
(-0.561487 12.0814 -1.33548e-19)
(0.0237395 7.76704 1.69105e-19)
(-1.74913 8.59781 -4.89622e-16)
(-2.47276 11.0618 8.91284e-16)
(0.360667 7.69299 -1.17513e-16)
(0.714661 7.89175 2.08937e-16)
(1.59868 7.98795 -3.0829e-16)
(2.30581 8.48966 1.52655e-16)
(2.78929 8.98544 -7.7341e-17)
(3.2126 9.52214 1.31435e-17)
(3.45723 9.99906 1.09479e-16)
(3.5217 10.3822 1.48737e-17)
(3.50636 10.3941 3.38483e-17)
(3.97122 10.2956 4.53634e-17)
(3.81419 10.0866 3.35737e-18)
(3.57932 9.79689 2.56774e-17)
(3.17447 9.43274 -7.51648e-17)
(2.56581 9.04777 9.6463e-17)
(1.83697 8.70724 -4.44965e-17)
(1.15496 8.22309 -1.9129e-16)
(0.545865 7.96754 -9.07813e-17)
(0.134099 7.85406 4.63758e-17)
(-0.15099 6.98399 -5.10203e-17)
(0.193369 8.74795 0)
(3.32353 10.6025 -3.12473e-16)
(-0.0299651 6.43785 2.71822e-18)
(0.265682 5.66797 6.95461e-19)
(0.74258 4.96166 -1.18956e-17)
(1.31046 4.43081 1.12392e-17)
(1.88292 4.12586 -1.19351e-17)
(2.39752 4.08497 1.12537e-17)
(2.82393 4.38194 -5.60461e-18)
(3.16861 5.10442 5.62015e-18)
(3.45537 6.27114 -5.58918e-18)
(3.69914 7.75516 2.82263e-18)
(3.88881 9.33874 5.61127e-18)
(3.99624 10.863 8.41174e-18)
(3.99275 12.3279 -1.6849e-17)
(3.87991 13.9149 1.12552e-17)
(3.71354 15.879 5.62579e-18)
(0.365727 15.5103 -5.6471e-18)
(1.02161 13.4871 5.62918e-18)
(1.69822 11.9378 -8.43815e-18)
(2.31225 10.5705 -9.13933e-18)
(2.84392 9.16351 1.40303e-17)
(3.28563 7.68296 -2.8034e-18)
(3.61199 6.29479 5.63388e-18)
(3.78656 5.23908 1.42578e-18)
(3.7732 4.66147 -8.43454e-18)
(3.53261 4.52286 -2.82729e-18)
(3.07101 4.70059 5.63928e-18)
(2.44631 5.07693 0)
(1.74264 5.58523 -6.99584e-19)
(1.07518 6.15728 -2.30913e-17)
(0.53549 6.72112 -7.95122e-17)
(0.239979 7.28826 9.36977e-17)
(0.338373 7.10003 9.63629e-17)
(0.413073 7.5149 1.11097e-16)
(0.647303 7.4008 -2.47283e-19)
(0.948663 7.55101 1.24791e-16)
(1.33292 7.72544 -2.3123e-16)
(1.79041 8.08552 -5.3016e-17)
(2.20846 8.61405 0)
(2.59109 9.25588 0)
(2.84046 9.91535 0)
(2.93375 10.45 0)
(3.56719 18.2837 -2.82857e-18)
(-0.184053 18.0747 2.82329e-18)
(3.3499 9.82479 -1.56555e-16)
(3.70156 10.0841 -3.17376e-18)
(3.68212 10.0592 1.24409e-17)
(3.35933 9.88047 0)
(2.80488 9.63878 -2.37989e-17)
(2.14672 9.35257 -2.34637e-17)
(1.43684 9.01008 1.16718e-17)
(0.713527 8.60122 4.69593e-17)
(0.100443 8.1133 0)
(-0.225557 7.25021 9.61487e-20)
(-0.374545 6.3331 8.68817e-20)
(-0.319946 5.35386 -1.12384e-17)
(-0.0765693 4.48942 1.68527e-17)
(0.302883 3.87473 -2.50995e-21)
(0.770126 3.55061 -9.85013e-18)
(1.28395 3.52194 0)
(1.83695 3.83037 -1.40587e-18)
(2.44865 4.55154 8.40918e-18)
(3.14308 5.70598 -1.12153e-17)
(3.91776 7.19224 2.46046e-20)
(4.73621 8.81239 1.12372e-17)
(5.53571 10.415 0)
(6.2406 11.993 1.12335e-17)
(6.78308 13.6914 -6.78651e-21)
(7.14811 15.711 -5.63105e-18)
(3.00062 10.2107 -1.33769e-16)
(7.38455 18.0818 -5.63793e-18)
(3.04407 10.6134 1.36778e-16)
(2.87808 10.8618 -2.27284e-19)
(-3.71488 17.4417 -5.66894e-18)
(-2.71531 14.6658 7.07844e-18)
(-1.61763 12.553 0)
(-0.483608 10.9819 -2.12378e-18)
(0.632761 9.66026 4.93349e-18)
(1.69466 8.31899 5.66358e-18)
(2.70071 6.95029 -5.63884e-18)
(3.58152 5.73667 0)
(4.22922 4.91778 -1.40891e-18)
(4.57157 4.61502 2.82849e-18)
(4.56752 4.77687 -1.00243e-21)
(4.22396 5.21715 -2.83355e-18)
(3.61433 5.76976 0)
(2.85307 6.33104 4.2604e-18)
(2.07278 6.83978 -1.69261e-17)
(1.40445 7.23114 -1.13276e-17)
(0.961569 7.45802 4.605e-17)
(0.764153 7.43295 1.70752e-16)
(0.641696 7.34378 1.28815e-17)
(0.672528 7.21334 1.22413e-16)
(0.757213 7.18548 -5.5476e-17)
(0.935285 7.35558 0)
(1.22385 7.77666 0)
(1.5342 8.36513 0)
(1.78675 9.08704 1.8393e-16)
(2.03734 9.85548 -2.13659e-16)
(2.15249 10.5495 2.17947e-16)
(-2.25858 8.11593 -3.93286e-16)
(-1.03466 12.8733 0)
(0.127682 12.0285 0)
(-0.509928 12.58 0)
(2.83398 9.21813 3.13765e-16)
(3.77111 9.85525 8.84408e-17)
(3.76343 10.0394 -6.81619e-20)
(3.65423 10.2242 -1.50403e-18)
(3.36089 10.2632 1.49792e-18)
(2.88424 10.1807 1.19109e-17)
(2.28688 9.99259 -2.35026e-17)
(1.62913 9.67733 -2.67167e-20)
(0.946353 9.19467 0)
(0.341218 8.52951 5.1724e-17)
(-0.120861 7.59154 3.40553e-17)
(-0.436694 6.46593 -5.62635e-18)
(-0.60245 5.29753 5.63134e-18)
(-0.613297 4.25796 0)
(-0.463495 3.48508 0)
(-0.155713 3.02887 -7.04638e-19)
(0.305086 2.89589 0)
(0.93505 3.0867 4.22323e-18)
(1.74311 3.66171 -3.57052e-21)
(2.7646 4.65843 -2.81903e-18)
(4.00357 6.01131 0)
(5.42382 7.5631 -2.79008e-18)
(6.93601 9.19742 4.22241e-18)
(8.41103 10.9163 -7.03679e-18)
(9.69327 12.8268 0)
(10.6555 15.0451 -1.12678e-17)
(11.2453 17.5469 2.81773e-18)
(11.4544 20.0522 -4.00751e-23)
(7.56083 20.5488 0)
(3.55153 20.9463 -1.41372e-18)
(-0.521906 21.0644 -4.59488e-18)
(-1.87297 9.45998 4.27445e-16)
(-4.47641 20.7775 3.5359e-19)
(-2.81346 7.58336 -1.23257e-15)
(-2.9883 6.30262 -2.83812e-16)
(2.67588 11.0999 0)
(-3.05822 10.3678 4.08893e-16)
(-1.68884 10.4817 -8.55134e-16)
(2.928 10.414 5.54826e-17)
(2.14928 11.11 -3.29342e-16)
(11.3382 22.1578 -2.82629e-18)
(7.80812 22.7562 -2.82644e-18)
(3.87223 23.5042 -3.54041e-19)
(-0.413614 24.1775 5.65961e-18)
(-4.76479 24.4987 3.54006e-19)
(-9.15058 24.4389 0)
(-8.37423 20.0414 2.84931e-18)
(-7.06651 16.2901 5.6872e-18)
(-5.53101 13.3381 -1.41358e-18)
(-3.9427 11.1424 -5.67971e-18)
(-2.38502 9.54524 -6.37981e-18)
(-0.857036 8.24748 8.51217e-18)
(0.632267 6.95856 2.85611e-18)
(2.07581 5.66807 -5.68592e-18)
(3.40419 4.64235 4.26213e-18)
(4.47216 4.13519 -1.24247e-18)
(5.16858 4.22725 0)
(5.42773 4.80183 0)
(5.25393 5.61064 0)
(4.73317 6.42148 5.70978e-18)
(4.00535 7.10469 -2.85856e-18)
(3.20377 7.60648 3.25408e-20)
(2.46321 7.88305 -2.30621e-17)
(1.8686 7.92596 0)
(1.42054 7.77412 -2.43082e-17)
(1.07844 7.48778 2.50886e-17)
(0.829163 7.21803 5.16377e-17)
(0.64612 7.08146 2.63406e-17)
(0.567203 7.20181 1.05396e-16)
(0.614129 7.6018 -1.04288e-16)
(0.747973 8.22573 0)
(0.890709 8.97832 2.58381e-17)
(1.07033 9.81357 -5.20879e-17)
(1.20167 10.6432 -1.05588e-16)
(1.7814 8.27021 5.03165e-17)
(-3.17319 11.0189 0)
(-1.50889 11.4571 -5.38235e-19)
(-1.79542 7.18555 5.43567e-16)
(-1.17575 6.73898 -1.15965e-16)
(-0.309233 6.77405 1.31933e-16)
(0.569923 7.01734 -2.48762e-17)
(1.35161 7.4808 4.9296e-17)
(2.0307 8.08502 -2.38193e-17)
(2.64885 8.72802 0)
(3.10723 9.4264 -2.31962e-17)
(3.33661 9.91155 -2.35297e-17)
(3.32801 10.288 0)
(3.125 10.5271 0)
(2.75329 10.6057 1.47226e-18)
(2.25873 10.5163 -1.31499e-17)
(1.69537 10.2416 0)
(1.1144 9.74379 0)
(0.564703 8.99232 -1.73933e-17)
(0.08222 7.97063 -1.14227e-17)
(-0.325678 6.73894 2.27121e-17)
(-0.648754 5.4346 5.66446e-18)
(-0.855903 4.23081 1.41554e-18)
(-0.909208 3.28907 5.667e-18)
(-0.769131 2.62388 -6.3734e-18)
(-0.39016 2.25696 0)
(0.256692 2.20112 -2.82666e-18)
(1.19625 2.51412 0)
(2.45281 3.22077 0)
(4.05904 4.29725 0)
(5.99527 5.6447 -1.12982e-17)
(8.17157 7.20115 0)
(10.4419 9.01045 -6.35826e-18)
(12.571 11.1918 1.0573e-18)
(14.2694 13.8063 2.22093e-17)
(15.2896 16.7062 0)
(15.4732 19.54 -1.12866e-17)
(14.7851 21.9139 1.76054e-19)
(0.733542 -0.309553 0)
(-3.17147 9.16175 6.70044e-16)
(-5.47921 5.35285 1.07938e-15)
(-4.04355 8.3664 0)
(-1.57741 8.34642 -3.25495e-16)
(-3.42455 7.73029 1.40424e-15)
(2.0742 11.4229 -5.04088e-19)
(1.91958 9.05341 1.06373e-16)
(-13.5307 24.0678 -3.57335e-19)
(-12.2101 18.8388 -2.84602e-18)
(-10.2582 14.6194 2.85876e-18)
(-8.06056 11.4572 0)
(-5.89179 9.23601 0)
(-3.86628 7.69398 3.57131e-19)
(-1.99465 6.4313 -1.42431e-18)
(-0.195834 5.17411 -4.97843e-18)
(1.53019 3.9625 3.54639e-19)
(3.16504 3.13179 -7.36985e-19)
(4.55078 2.96346 -8.7487e-19)
(5.54269 3.50275 3.92771e-18)
(6.06473 4.56184 3.50583e-19)
(6.1045 5.81907 -2.86934e-18)
(5.73872 6.94794 0)
(5.11261 7.81321 1.14963e-17)
(4.35528 8.36466 1.64979e-20)
(3.5783 8.59278 5.82515e-17)
(2.85375 8.52805 -4.70935e-17)
(2.19765 8.24971 0)
(1.61286 7.86708 4.94643e-17)
(1.08289 7.49418 -1.51447e-16)
(0.607677 7.26684 7.67716e-17)
(0.229417 7.29714 1.02364e-16)
(-0.00691535 7.61861 9.98689e-20)
(-0.103604 8.18966 -1.01463e-16)
(-0.0946211 8.93319 1.01545e-16)
(-0.0243614 9.78795 1.01985e-16)
(0.118288 10.6755 -1.02131e-16)
(1.23114 11.3565 -2.09549e-16)
(-3.22701 11.1786 5.08509e-19)
(-3.49651 4.33714 7.06166e-19)
(-2.07821 6.07665 -9.58793e-17)
(-1.35149 5.68087 -1.26881e-17)
(-0.643038 5.73628 -3.76012e-17)
(0.0842052 6.08656 -1.22977e-17)
(0.786781 6.66146 0)
(1.43147 7.3793 2.37909e-17)
(1.99759 8.18176 -1.175e-17)
(2.43095 8.9852 -1.16684e-17)
(2.68982 9.68444 5.91734e-18)
(2.76677 10.256 5.90091e-18)
(2.66807 10.6681 1.17622e-17)
(2.41801 10.8841 0)
(2.06119 10.8854 1.16873e-17)
(1.63948 10.656 -1.14374e-17)
(1.19329 10.1678 -1.81069e-19)
(0.743562 9.38953 -3.46403e-17)
(0.31489 8.33245 2.87501e-18)
(-0.101155 7.05535 -1.4301e-17)
(-0.496481 5.67662 0)
(-0.826822 4.34938 -4.62576e-18)
(-1.02314 3.21499 3.49548e-19)
(-0.999809 2.29782 6.39265e-18)
(-0.689148 1.63559 0)
(-0.0570379 1.24572 0)
(0.959147 1.18931 -1.77209e-19)
(2.36477 1.50809 -5.50119e-18)
(4.22471 2.1897 5.6852e-18)
(6.55353 3.19859 7.06688e-18)
(9.30276 4.53636 -1.41577e-18)
(12.3257 6.3231 4.22523e-18)
(15.3236 8.75221 -1.40884e-18)
(17.8496 11.8574 -1.12776e-17)
(19.4226 15.3753 1.13248e-17)
(19.6454 18.8384 2.54046e-17)
(18.3445 21.7651 1.12888e-17)
(15.5959 23.7237 0)
(13.2493 23.3766 -5.80695e-18)
(10.9486 23.5091 3.92439e-21)
(8.24759 24.4066 6.37062e-18)
(4.68351 25.6446 2.12595e-18)
(0.354865 27.0288 -2.83014e-18)
(-4.28318 28.1321 5.68673e-18)
(-8.98684 28.9747 -5.67074e-18)
(-13.6379 29.6593 -2.85021e-18)
(-5.19456 5.41094 -4.00698e-16)
(-0.707543 2.93849 -9.28927e-17)
(0.378943 -1.52079 -1.62581e-16)
(-3.46049 9.08217 -6.83318e-16)
(-3.4859 10.0191 -3.37779e-16)
(0.405055 -3.77624 9.85036e-17)
(0.233748 11.4681 0)
(1.0665 11.8628 4.18905e-16)
(-3.42824 11.3124 9.93341e-16)
(-3.74053 10.3118 4.07693e-16)
(-3.06324 11.2344 -4.07372e-16)
(-1.04421 10.8912 8.74053e-16)
(-2.18647 5.03287 0)
(-1.65853 4.71914 1.24646e-17)
(-1.07801 4.78232 -3.0667e-18)
(-0.473871 5.20019 -5.74622e-17)
(0.137323 5.86301 1.1987e-17)
(0.70808 6.67667 0)
(1.21385 7.593 -2.14913e-21)
(1.62441 8.52831 -2.92933e-18)
(1.8998 9.38719 0)
(2.03456 10.1198 -5.85226e-18)
(2.02815 10.6723 -5.8548e-18)
(1.90127 11.0022 0)
(1.68105 11.0785 1.45484e-18)
(1.40584 10.8849 -1.43027e-18)
(1.11728 10.4124 1.45136e-18)
(0.819657 9.64099 2.16654e-17)
(0.501657 8.59121 0)
(0.15152 7.32371 2.8642e-18)
(-0.224975 5.92706 -1.42922e-18)
(-0.582826 4.51804 3.58299e-19)
(-0.831582 3.1928 1.07216e-18)
(-0.859997 2.00489 -6.433e-18)
(-0.583626 1.00632 0)
(0.0640259 0.228651 1.42697e-18)
(1.11093 -0.239701 2.84775e-18)
(2.59951 -0.350186 2.84041e-18)
(4.60999 -0.139905 2.4981e-20)
(7.22395 0.408803 -1.41893e-18)
(10.4478 1.37773 -4.27472e-18)
(14.136 3.00164 -2.83504e-18)
(17.982 5.56549 -2.85381e-18)
(21.3606 9.09172 0)
(23.5554 13.2581 -1.12964e-17)
(23.9243 17.448 -1.12888e-17)
(22.1339 21.0467 -8.44913e-18)
(18.2451 23.6328 -1.55243e-17)
(12.7685 25.2193 7.04115e-18)
(11.5865 24.5207 -5.64684e-18)
(11.0453 23.6393 0)
(10.5107 23.6545 2.81659e-18)
(9.13959 25.25 2.83639e-18)
(6.12439 27.3496 -5.66231e-18)
(1.93216 29.5981 5.68416e-18)
(-2.88324 31.6426 4.17851e-21)
(-7.72939 33.4298 -2.84261e-18)
(-12.3554 35.1162 8.53323e-18)
(-16.667 36.6331 -8.57737e-18)
(-18.2092 30.2087 1.43315e-18)
(-17.9868 23.4709 -1.06846e-18)
(-16.106 17.2653 2.14732e-18)
(-13.3515 12.457 -7.12819e-18)
(-10.3156 9.04609 2.67694e-18)
(-7.42386 6.84046 0)
(-4.85998 5.43839 3.60048e-19)
(-2.64087 4.32259 5.01426e-18)
(-0.647132 3.15339 -7.15087e-19)
(1.19533 2.02383 1.7894e-18)
(2.96359 1.34813 -1.37543e-21)
(4.54379 1.50397 7.23822e-19)
(5.74315 2.49186 -3.58199e-19)
(6.49499 4.04385 2.50658e-18)
(6.77314 5.77809 -8.61799e-18)
(6.61446 7.27729 1.3679e-20)
(6.13671 8.38097 5.77652e-18)
(5.46861 9.04833 -5.79054e-18)
(4.69718 9.31349 -4.67026e-17)
(3.87939 9.23123 4.70887e-17)
(3.04519 8.904 0)
(2.2164 8.46659 -9.73181e-17)
(1.39597 8.00585 7.36765e-17)
(0.617192 7.71727 -7.47873e-17)
(-0.0789333 7.64633 0)
(-0.6185 7.84762 0)
(-0.964406 8.29946 0)
(-1.11967 8.96191 -1.24265e-17)
(-1.12981 9.77204 -5.37462e-20)
(-1.02927 10.667 1.98105e-16)
(-3.22427 11.7604 -4.46387e-16)
(0.303409 12.0651 2.10077e-16)
(0.717416 12.0488 -1.96855e-16)
(0.962766 7.94658 2.51031e-17)
(-3.47325 11.1538 4.78076e-16)
(-3.85792 10.0372 4.07312e-16)
(-3.82322 8.91722 -1.36672e-18)
(-3.68296 7.74038 -4.2506e-16)
(-3.72108 3.9977 -2.95446e-16)
(-2.87117 5.62924 -2.94134e-16)
(-3.00259 4.62356 1.06202e-16)
(-2.45976 4.05871 -2.46817e-17)
(-1.9805 3.777 -4.86758e-17)
(-1.52419 3.92255 0)
(-1.05126 4.40095 4.79789e-17)
(-0.559591 5.11691 0)
(-0.0835744 6.01049 0)
(0.353093 7.00962 1.1741e-17)
(0.735602 8.04061 2.92839e-18)
(1.0259 9.01898 0)
(1.21041 9.87486 5.8376e-18)
(1.28843 10.5404 -1.87588e-20)
(1.26621 10.9568 -8.32484e-21)
(1.17445 11.0867 5.80638e-18)
(1.04665 10.9173 6.53365e-18)
(0.914594 10.4547 -6.51638e-18)
(0.775678 9.69874 -1.19444e-17)
(0.605111 8.68345 3.60245e-19)
(0.380964 7.4581 -2.16863e-18)
(0.104708 6.08368 7.1785e-19)
(-0.183921 4.62198 2.87481e-18)
(-0.39178 3.13581 -2.15356e-18)
(-0.404343 1.683 2.87367e-18)
(-0.119032 0.332929 3.75106e-21)
(0.543965 -0.828889 -7.15615e-18)
(1.60475 -1.68555 2.86344e-18)
(3.14482 -2.23738 2.86479e-18)
(5.26529 -2.53045 -4.26313e-18)
(8.09687 -2.5172 5.71194e-18)
(11.697 -2.01403 5.68358e-18)
(15.9592 -0.730773 0)
(20.5481 1.71202 1.70903e-17)
(24.7689 5.4163 2.8696e-18)
(27.5888 9.95576 2.83918e-18)
(28.1753 14.624 0)
(26.0835 18.771 0)
(21.3018 21.9002 8.44756e-18)
(14.6532 24.3167 1.54265e-21)
(6.15119 25.6133 -1.40891e-18)
(5.81028 25.5304 1.40639e-18)
(6.56942 23.95 0)
(8.45564 22.3109 0)
(10.6163 22.6799 -1.40584e-18)
(10.8255 25.3627 4.23998e-18)
(8.49076 28.7084 0)
(4.40809 31.951 -2.8416e-18)
(-0.565768 34.86 -2.84111e-18)
(-5.49049 37.3544 5.68923e-18)
(-9.8674 39.5724 -2.85001e-18)
(-13.5707 41.3047 8.56173e-18)
(-15.9772 41.4988 1.42288e-18)
(-20.5189 37.2938 1.43162e-18)
(-22.6836 30.2543 2.86847e-18)
(-22.5854 22.5556 0)
(-20.1613 15.33 -1.07495e-18)
(-16.4255 9.79643 -2.68287e-19)
(-12.3302 6.09808 1.61471e-18)
(-8.57643 3.96021 -3.60032e-19)
(-5.40483 2.82379 -7.16738e-19)
(-2.82817 1.99051 -5.73426e-18)
(-0.667114 1.0396 1.437e-18)
(1.21023 0.0252634 -3.58886e-18)
(2.90082 -0.549817 1.79513e-18)
(4.48445 -0.136237 -7.16939e-19)
(5.84131 1.25666 0)
(6.79019 3.26133 0)
(7.30865 5.45141 0)
(7.38809 7.36568 -2.88576e-18)
(7.08279 8.758 0)
(6.51832 9.61537 -2.83876e-21)
(5.76772 10.0006 2.33138e-17)
(4.8782 9.98779 -1.17862e-17)
(3.88432 9.69728 2.36934e-17)
(2.82124 9.27947 7.22884e-17)
(1.71077 8.7969 6.84961e-20)
(0.627629 8.44725 -2.44063e-17)
(-0.372373 8.25369 -4.8871e-17)
(-1.19911 8.28447 9.69103e-17)
(-1.79161 8.55203 -4.8644e-17)
(-2.13283 9.04715 3.19747e-21)
(-2.24229 9.73487 2.42487e-17)
(-2.15705 10.5562 -9.94278e-21)
(-0.884469 11.5325 -3.02025e-16)
(-3.34706 11.8519 -4.59428e-16)
(-3.1999 12.0789 8.63955e-16)
(-2.43089 -5.76432 0)
(-0.724407 12.228 -2.05998e-16)
(-3.78686 6.14655 7.625e-16)
(-3.75292 7.27291 -4.05479e-16)
(-3.95311 8.569 -7.78233e-16)
(0.854127 12.5796 -6.58333e-17)
(-0.957338 7.75446 -6.28677e-17)
(1.28112 8.95664 -2.51154e-17)
(0.376886 12.4303 1.46727e-19)
(-3.59971 10.8565 -4.67635e-16)
(-3.96871 9.54145 3.8936e-16)
(-2.50816 27.4836 -1.40994e-18)
(-1.76556 25.8505 -1.41019e-18)
(0.842368 22.4712 0)
(5.64038 19.2096 -1.41134e-18)
(11.6155 20.0711 1.41471e-18)
(14.0686 25.3114 -1.42088e-18)
(12.1115 30.7347 1.41692e-18)
(7.8235 35.0845 2.84375e-18)
(2.48822 38.5627 -2.83687e-18)
(-2.72477 41.3063 5.68653e-18)
(-7.05214 43.33 -8.54764e-18)
(-10.2258 44.2869 0)
(-11.3474 43.4166 5.43694e-21)
(-9.59756 39.8917 0)
(-16.9568 39.0574 -8.60746e-18)
(-23.9812 35.8716 2.87221e-18)
(-27.2784 28.7569 0)
(-27.3821 20.7122 0)
(-24.3367 12.7832 7.18065e-19)
(-19.4099 6.62354 -8.97725e-20)
(-14.0826 2.6954 0)
(-9.39503 0.722539 -3.61738e-19)
(-5.58523 -0.047579 3.60468e-19)
(-2.62132 -0.499996 1.43623e-18)
(-0.33006 -1.14841 7.19795e-19)
(1.49342 -1.89428 1.44014e-18)
(3.01313 -2.31051 1.59726e-21)
(4.4665 -1.82766 -2.87849e-18)
(5.87665 -0.194857 7.30168e-19)
(7.00246 2.21905 2.8856e-18)
(7.74239 4.83352 7.08067e-19)
(8.05431 7.18 -1.45423e-18)
(7.93597 8.93574 2.89124e-18)
(7.45732 10.0604 -8.70346e-18)
(6.72045 10.6527 -1.16413e-17)
(5.75481 10.8074 5.81283e-18)
(4.60096 10.6417 -1.17625e-17)
(3.31127 10.2842 0)
(1.9526 9.80835 -3.59735e-17)
(0.602503 9.41093 7.26511e-17)
(-0.663248 9.07506 0)
(-1.7365 8.90444 0)
(-2.54339 8.9345 0)
(-3.04406 9.19228 1.79057e-17)
(-3.25152 9.67077 1.64126e-20)
(-3.18534 10.316 -8.28832e-23)
(-1.93898 11.3945 -1.94396e-16)
(-1.85626 11.7426 -4.57367e-16)
(-3.44563 11.7735 -7.0119e-19)
(-1.79168 8.19167 3.79096e-16)
(-0.484128 6.41174 0)
(-2.69256 3.19562 -2.32037e-17)
(-2.35775 3.00526 0)
(-2.00179 3.20761 0)
(-1.63409 3.71521 1.18379e-17)
(-1.26783 4.45899 -2.36812e-17)
(-0.88672 5.38726 0)
(-0.508431 6.42963 1.1761e-17)
(-0.153615 7.52458 0)
(0.142901 8.58446 -2.925e-18)
(0.365174 9.52802 2.90794e-18)
(0.508201 10.2755 -1.45954e-17)
(0.585355 10.7551 7.80158e-21)
(0.615848 10.9224 -5.80859e-18)
(0.622958 10.7635 1.15998e-17)
(0.632763 10.2967 8.69884e-18)
(0.645315 9.54887 -8.69063e-18)
(0.630893 8.57162 0)
(0.566527 7.4023 3.65378e-21)
(0.447017 6.0659 -4.32437e-18)
(0.299549 4.58184 0)
(0.204034 2.97344 0)
(0.266047 1.29072 1.43974e-18)
(0.589768 -0.371706 4.31752e-18)
(1.24946 -1.87746 -2.87805e-18)
(2.32232 -3.10842 2.86487e-18)
(3.89688 -4.0798 -5.72737e-18)
(6.11333 -4.8424 -1.42988e-18)
(9.11795 -5.34477 -1.14387e-17)
(13.013 -5.37352 5.7156e-18)
(17.7436 -4.60075 0)
(22.9232 -2.6362 -1.13702e-17)
(27.8066 0.70476 -5.66805e-18)
(31.0966 5.02891 0)
(31.8934 9.57772 5.72938e-18)
(29.6848 13.8144 1.57539e-20)
(24.4555 17.2636 8.48973e-18)
(17.0465 20.4914 8.47704e-18)
(7.41493 22.8671 0)
(-1.85131 26.6356 -2.81301e-18)
(-3.21125 12.1607 -4.2603e-16)
(-3.25133 12.1611 -8.76428e-16)
(1.78293 0.68537 1.33528e-16)
(0.329521 12.676 -1.83467e-16)
(-3.92586 10.3091 7.92706e-16)
(-0.70111 12.666 -8.53156e-20)
(-6.0941 34.9232 1.42909e-18)
(-16.8478 32.8254 7.17523e-18)
(-27.4383 30.9 -5.74925e-18)
(-32.339 23.9592 0)
(-32.7449 16.4144 0)
(-28.8588 8.75873 0)
(-22.3782 2.64372 0)
(-15.6625 -1.09161 1.4409e-18)
(-9.88457 -2.68306 -7.21306e-19)
(-5.40744 -3.02348 3.61712e-19)
(-2.1226 -3.00065 -2.16377e-18)
(0.2111 -3.20532 1.44178e-18)
(1.91264 -3.65037 7.21275e-19)
(3.29269 -3.94731 -1.0804e-18)
(4.60592 -3.459 0)
(5.94521 -1.75031 -1.05457e-21)
(7.18606 0.931537 -7.24666e-19)
(8.09903 3.94322 7.2203e-19)
(8.5933 6.72801 1.44557e-18)
(8.63268 8.92323 -1.62852e-18)
(8.22947 10.4085 1.62951e-18)
(7.47087 11.2818 -4.35744e-18)
(6.43068 11.6841 -8.74168e-18)
(5.12988 11.709 5.89265e-18)
(3.64561 11.4657 0)
(2.06129 11.0206 5.92515e-20)
(0.505324 10.5574 -3.60308e-17)
(-0.933931 10.0626 2.97772e-17)
(-2.16899 9.66323 -5.96298e-18)
(-3.13889 9.42029 0)
(-3.78261 9.39918 -5.90904e-18)
(-4.06237 9.60889 8.15668e-17)
(-3.95759 9.99187 -4.5247e-17)
(-2.91392 11.0312 1.83852e-16)
(-1.48023 11.7551 9.36267e-16)
(-3.51742 11.5573 -6.83577e-19)
(-13.118 27.3261 -6.94964e-19)
(-12.3326 27.2259 4.2316e-18)
(-10.4391 23.4892 7.0357e-19)
(-6.22712 17.2725 0)
(2.89083 11.482 -1.41058e-18)
(15.0779 13.7335 1.41514e-18)
(19.8348 22.831 -2.12708e-18)
(17.6065 31.7014 -4.961e-18)
(11.963 37.976 5.65492e-18)
(5.72008 41.9782 0)
(0.0603558 44.6182 -2.84367e-18)
(-4.51012 45.8838 8.53394e-18)
(-8.15638 45.5716 -5.66222e-18)
(-9.47921 40.1178 -2.81785e-18)
(-4.24761 29.4351 4.23861e-18)
(5.92814 19.3347 -5.6961e-18)
(-2.26978 12.0549 8.89516e-16)
(-3.83342 9.20676 -3.62971e-16)
(-3.9813 8.16699 3.69453e-16)
(-3.98005 6.92379 7.38588e-16)
(-3.95827 5.56296 3.51247e-16)
(-0.524118 11.328 -9.8349e-19)
(-1.40457 12.6648 2.68464e-16)
(-3.60455 2.73555 0)
(-2.92638 8.55053 0)
(-3.07754 2.28845 0)
(-2.72907 2.25595 5.87976e-18)
(-2.46844 2.53971 -1.18068e-17)
(-2.20482 3.09674 5.70534e-20)
(-1.93192 3.86693 3.54392e-17)
(-1.62652 4.79847 -2.35795e-17)
(-1.30108 5.85948 4.14445e-20)
(-0.975263 6.98715 1.16811e-17)
(-0.67567 8.09791 -2.04714e-17)
(-0.421039 9.10035 2.97435e-18)
(-0.218238 9.89855 1.16911e-17)
(-0.0595222 10.4128 -2.91539e-18)
(0.0670673 10.5977 2.90333e-18)
(0.186308 10.435 -8.70728e-18)
(0.319336 9.9542 2.90165e-18)
(0.469221 9.20737 8.70036e-18)
(0.602983 8.2588 -5.79426e-18)
(0.70527 7.13734 5.78719e-18)
(0.763488 5.84427 2.17089e-18)
(0.790472 4.36076 5.07213e-18)
(0.84338 2.67152 -6.49218e-18)
(1.00474 0.818199 4.34477e-18)
(1.3649 -1.08094 -7.92546e-18)
(2.01228 -2.87074 -5.77566e-18)
(3.05993 -4.42748 5.75237e-18)
(4.64033 -5.75529 2.8717e-18)
(6.92139 -6.91065 -2.87444e-18)
(10.0634 -7.85928 0)
(14.1914 -8.43108 -5.73658e-18)
(19.2898 -8.32944 2.8607e-18)
(24.9462 -7.22746 -5.70662e-18)
(30.2588 -4.95877 -8.57298e-18)
(33.6962 -1.77052 -5.68648e-18)
(34.5228 1.70853 -1.13287e-17)
(32.2949 5.36422 2.82937e-18)
(27.0875 8.89573 -2.84036e-18)
(19.5333 13.0315 -5.66395e-18)
(9.63011 16.6327 0)
(0.423183 22.9326 0)
(-13.3056 24.3311 0)
(1.77598 1.66502 0)
(-1.66673 12.1421 -3.67256e-20)
(-0.464277 12.9533 9.8785e-16)
(-3.31785 11.9803 4.24693e-16)
(-3.2851 12.0984 4.35138e-16)
(-3.18093 12.2675 8.56871e-16)
(-1.08926 11.8793 -4.59914e-16)
(1.62566 0.869794 -1.14541e-16)
(0.562152 -0.358853 0)
(0.0200842 11.6476 -5.22794e-16)
(-0.854475 12.8953 -2.12179e-16)
(-3.53561 10.3883 -8.13184e-17)
(0.185682 10.5254 -1.37064e-15)
(-4.60632 5.453 4.19457e-16)
(-1.01379 8.44334 3.7308e-16)
(0.453609 1.26597 -6.13979e-17)
(15.805 8.86773 -2.84633e-18)
(-3.20773 27.3894 -7.1412e-19)
(-16.8571 21.7994 -2.15277e-18)
(-30.683 20.9199 -4.57277e-21)
(-37.2424 14.5334 0)
(-37.8674 8.33623 0)
(-33.2199 2.04323 0)
(-25.1266 -2.76809 -3.60783e-19)
(-16.8977 -5.438 -4.51067e-19)
(-9.99308 -6.23778 4.50464e-19)
(-4.90744 -5.87403 -3.59511e-19)
(-1.45096 -5.26687 9.00734e-19)
(0.845582 -5.03503 -1.08201e-18)
(2.43471 -5.21512 0)
(3.68876 -5.43584 0)
(4.88189 -4.99894 0)
(6.15117 -3.32928 0)
(7.40312 -0.494358 0)
(8.39568 2.87027 0)
(8.98372 6.0921 -3.62267e-19)
(9.09707 8.75589 1.4476e-18)
(8.73347 10.6876 0)
(7.93269 11.9187 -3.62351e-18)
(6.79407 12.6169 6.55285e-18)
(5.38033 12.887 5.84652e-18)
(3.75292 12.7764 0)
(2.03335 12.3834 1.7756e-17)
(0.340281 11.8317 -1.78025e-17)
(-1.22108 11.1551 -5.9175e-18)
(-2.54435 10.5062 1.18775e-17)
(-3.57511 9.95629 -1.77289e-17)
(-4.26668 9.5986 8.77003e-18)
(-4.63919 9.47249 -2.31008e-17)
(-4.73478 9.56826 5.68895e-18)
(-4.53067 9.89021 1.75577e-16)
(-2.06989 12.3255 4.9779e-16)
(-3.29165 8.69867 6.73817e-16)
(-2.87208 9.05916 3.26551e-16)
(-20.4346 35.5346 0)
(-21.8206 35.6184 4.98128e-21)
(-22.1148 34.1502 -1.4057e-18)
(-20.7474 28.0047 -7.03528e-19)
(-13.546 14.9556 -1.76283e-19)
(2.91981 -1.82812 1.76864e-19)
(22.4894 3.96671 0)
(29.4784 27.0577 0)
(26.9247 39.7679 2.10938e-18)
(18.6999 46.1017 -5.68977e-18)
(9.90633 49.0088 7.07024e-18)
(1.84497 50.2616 0)
(-5.06988 50.7508 -5.68746e-18)
(-11.1896 49.6543 5.60091e-18)
(-16.1672 43.9566 1.39938e-18)
(-11.4495 33.3098 1.40579e-18)
(2.44049 24.0276 0)
(17.2737 22.0035 0)
(-1.03675 8.76561 0)
(-3.90675 8.43049 3.48429e-16)
(-3.9989 7.58538 0)
(-4.01852 6.4966 -7.28929e-16)
(-4.02501 5.32212 3.6532e-16)
(-4.20056 4.23652 6.64488e-16)
(-1.27713 7.06043 -1.02682e-16)
(-2.93367 11.6843 4.0693e-16)
(-3.35032 1.79691 1.25194e-17)
(-3.22295 1.5895 -9.58221e-17)
(-3.06829 1.60195 4.16173e-17)
(-2.88584 1.94534 -4.75856e-17)
(-2.7081 2.5463 -2.06783e-17)
(-2.5006 3.32531 2.96278e-17)
(-2.25315 4.25232 5.85625e-18)
(-1.97043 5.30851 -2.93854e-17)
(-1.66798 6.44035 1.76277e-17)
(-1.36473 7.56977 0)
(-1.07661 8.60061 -1.45798e-17)
(-0.81541 9.42903 8.78639e-18)
(-0.584915 9.96728 1.45766e-17)
(-0.374293 10.1593 2.90066e-18)
(-0.16602 9.98106 -1.16294e-17)
(0.0584389 9.47148 -5.8127e-18)
(0.307108 8.71422 0)
(0.559397 7.77955 0)
(0.808393 6.68711 -1.44997e-18)
(1.03551 5.43273 -7.2471e-19)
(1.23855 3.96873 7.25396e-18)
(1.44317 2.25207 1.47261e-18)
(1.69869 0.312388 -5.0516e-18)
(2.07379 -1.73345 -1.82877e-22)
(2.67395 -3.72444 0)
(3.63745 -5.53031 0)
(5.1492 -7.14443 -5.77205e-18)
(7.41613 -8.60646 8.63411e-18)
(10.6125 -9.91371 -2.87775e-18)
(14.8902 -11.0177 -6.00267e-21)
(20.2588 -11.7539 2.86335e-18)
(26.3025 -11.9345 2.86345e-18)
(31.9803 -11.4357 1.71167e-17)
(35.0861 -10.3014 0)
(35.7872 -8.69613 8.5194e-18)
(33.6175 -6.28812 -8.54427e-18)
(29.04 -2.79264 5.66813e-18)
(22.2335 2.46626 -5.68293e-18)
(13.3162 7.57413 5.65716e-18)
(4.79017 16.9501 0)
(-11.3131 18.1347 0)
(-15.8548 33.8869 -2.78467e-18)
(-2.57829 11.9629 8.71298e-16)
(-2.50721 11.8293 -1.87349e-16)
(-3.62658 9.55263 -3.45075e-16)
(-3.61096 11.1453 8.4486e-16)
(-3.64145 11.3167 8.15759e-20)
(-3.53696 11.5392 8.4757e-16)
(-1.43468 12.6246 2.05563e-16)
(-3.31396 11.8104 -9.21577e-16)
(-3.19155 12.1297 0)
(-3.09978 12.2522 0)
(0.255323 0.741158 -6.75199e-17)
(-5.57444 6.47793 -4.18958e-16)
(-1.31413 7.80599 2.89411e-17)
(0.642321 11.0369 -8.24112e-16)
(-3.92804 9.18015 -9.43318e-17)
(-1.78055 12.5252 -5.54509e-16)
(1.96686 0.806653 0)
(1.81306 1.9606 -5.91633e-17)
(-4.42357 9.10231 0)
(-4.82143 9.16015 2.93281e-18)
(-4.85485 9.35713 5.84802e-18)
(-4.50977 9.82274 2.20047e-18)
(-3.8079 10.5245 3.66549e-19)
(-2.77711 11.3835 0)
(-1.44969 12.2937 7.3326e-18)
(0.108388 13.1553 -7.34412e-18)
(1.82025 13.8196 2.92156e-18)
(3.59139 14.188 -5.83238e-18)
(5.28597 14.1366 1.45935e-18)
(6.77963 13.6246 0)
(8.01175 12.6052 2.90495e-18)
(8.86584 10.951 -1.44857e-18)
(9.26652 8.54694 1.45214e-18)
(9.17899 5.39285 -2.53675e-18)
(8.60272 1.72347 2.94195e-18)
(7.62663 -1.94697 1.13667e-20)
(6.42338 -4.87589 -1.53293e-18)
(5.21787 -6.4502 7.22556e-19)
(4.10347 -6.7621 -8.13758e-19)
(2.96272 -6.52942 0)
(1.53371 -6.50258 3.60914e-19)
(-0.582095 -7.10615 -1.80428e-19)
(-4.03151 -8.36383 -7.22431e-19)
(-9.42153 -9.70259 6.25398e-19)
(-17.0901 -10.3171 9.00908e-20)
(-26.5822 -9.62931 -3.60611e-19)
(-36.0891 -7.39278 0)
(-41.1666 -3.8934 0)
(-41.1326 -0.0791321 -1.43744e-18)
(-33.3768 5.29715 7.90442e-18)
(-18.8006 5.28625 -1.4368e-18)
(-1.36005 14.7469 0)
(23.0352 -5.71023 5.77557e-18)
(29.4252 22.3846 4.22736e-20)
(1.41689 2.68638 3.17841e-16)
(-32.0084 19.8064 2.79445e-18)
(-31.3606 24.4142 0)
(-30.1463 25.5465 -6.88332e-19)
(-29.3794 22.0209 6.92053e-19)
(-28.5129 8.74225 1.76064e-18)
(-21.1795 -11.4212 -1.40644e-18)
(4.72237 -30.4368 3.53978e-19)
(31.1003 -19.5413 7.09484e-19)
(36.5524 6.47125 4.93331e-18)
(27.992 33.7519 -6.97241e-18)
(20.384 49.6283 -5.67185e-18)
(10.9532 54.5541 5.62428e-18)
(3.34542 55.8996 -7.07353e-19)
(-2.83715 54.3876 1.41099e-18)
(-7.68918 47.349 -5.5799e-18)
(-10.2568 26.6091 -1.38888e-18)
(-5.4459 -7.37835 5.68258e-18)
(13.5897 -20.211 0)
(40.1684 -24.8923 2.9274e-18)
(54.0655 -31.3647 -1.47143e-18)
(-2.31057 12.1361 4.56279e-16)
(-3.21233 11.2684 -1.63712e-16)
(-3.41236 11.0607 -4.20209e-16)
(1.58394 -0.22999 0)
(1.78547 -0.261753 0)
(1.93204 -0.300636 -1.10019e-16)
(2.044 -0.362646 -2.75112e-17)
(2.05351 -0.378471 -3.43232e-17)
(1.96312 0.93456 -8.41842e-17)
(1.77731 2.20582 1.17647e-16)
(1.47301 3.44128 6.35937e-17)
(-2.43801 7.85879 0)
(0.80949 3.01756 -6.27242e-17)
(-5.26827 6.64181 1.16629e-20)
(-5.05611 4.46704 3.7382e-16)
(-5.51322 5.64059 -3.57885e-16)
(-4.00516 10.4778 -4.23264e-16)
(-4.03903 10.645 0)
(-3.89264 10.8753 0)
(-1.29523 12.864 4.29798e-16)
(-2.84153 11.613 8.50874e-16)
(0.812397 0.490955 -8.43835e-17)
(-3.68964 7.86714 3.48767e-16)
(-3.89953 7.01719 -3.60803e-16)
(-3.97704 6.13094 0)
(-4.01682 5.19481 -7.67225e-16)
(-4.06797 4.30082 3.84407e-16)
(-3.38561 2.68829 -5.17381e-16)
(-3.71351 3.12928 -3.1771e-16)
(-3.67848 1.53865 1.00501e-16)
(-3.57421 1.11207 -1.11578e-16)
(-3.43283 0.919688 4.8995e-17)
(-3.31364 1.0475 -4.83116e-17)
(-3.19959 1.46642 0)
(-3.08233 2.09708 -2.97421e-18)
(-2.9293 2.86172 -4.4441e-18)
(-2.72733 3.76076 1.76747e-17)
(-2.4769 4.78787 5.80828e-18)
(-2.18539 5.90048 -2.93351e-17)
(-1.87204 7.02267 1.17446e-17)
(-1.55476 8.05655 1.45795e-17)
(-1.24108 8.89769 -1.16992e-17)
(-0.94597 9.44728 7.28291e-18)
(-0.667925 9.64164 -7.29062e-18)
(-0.394049 9.45268 -2.91265e-18)
(-0.10881 8.91899 8.72384e-18)
(0.202388 8.13918 1.45404e-18)
(0.537399 7.19163 5.81443e-18)
(0.898837 6.10706 -5.80006e-18)
(1.26429 4.88106 0)
(1.61507 3.45169 -1.45055e-18)
(1.9445 1.76047 -7.24767e-19)
(2.2675 -0.1754 -7.25928e-18)
(2.62582 -2.25663 6.50073e-18)
(3.12749 -4.33755 -7.23367e-19)
(3.92706 -6.28926 5.78783e-18)
(5.26307 -8.09566 -1.08311e-17)
(7.38248 -9.77044 5.76757e-18)
(10.4646 -11.3578 2.88187e-18)
(14.7041 -12.9851 1.43899e-18)
(20.1061 -14.7174 -2.87462e-18)
(26.2115 -16.4962 8.59703e-18)
(31.9241 -18.3582 -8.54856e-18)
(34.719 -19.6214 -2.84117e-18)
(35.3852 -20.1885 -8.53442e-18)
(34.043 -19.4285 1.1378e-17)
(31.1188 -16.1647 -8.55412e-18)
(26.2269 -10.1051 5.66723e-18)
(19.1596 -3.61992 -1.13861e-17)
(9.5354 8.32462 0)
(-9.02005 8.45188 5.66442e-18)
(-12.1698 31.1036 -2.8184e-18)
(-34.111 9.35851 -2.81931e-18)
(-5.43487 7.82553 -9.51665e-16)
(-5.15594 7.70748 4.42203e-16)
(-4.64267 7.81516 -4.42335e-16)
(-1.52024 2.60189 2.00018e-16)
(-4.59165 6.8351 -4.60301e-16)
(-2.06966 12.3295 0)
(-0.0412304 6.68017 -1.06946e-16)
(-3.94128 7.25512 -4.87375e-16)