/*--------------------------------*- C++ -*----------------------------------*\
| =========                 |                                                 |
| \\      /  F ield         | OpenFOAM: The Open Source CFD Toolbox           |
|  \\    /   O peration     | Version:  2212                                  |
|   \\  /    A nd           | Website:  www.openfoam.com                      |
|    \\/     M anipulation  |                                                 |
\*---------------------------------------------------------------------------*/
FoamFile
{
    version     2.0;
    format      ascii;
    arch        "LSB;label=32;scalar=64";
    class       volScalarField;
    location    "0.0342";
    object      p;
}
// * * * * * * * * * * * * * * * * * * * * * * * * * * * * * * * * * * * * * //

dimensions      [1 -1 -2 0 0 0 0];

internalField   nonuniform List<scalar> 
2308
(
602.679
607.169
611.155
609.282
606.173
607.483
600.816
601.263
605.372
609.729
607.482
604.333
602.554
601.29
600.675
600.631
601.001
601.487
601.227
601.264
601.729
602.769
604.445
606.525
608.637
611.01
612.211
612.653
602.423
601.594
612.04
610.478
608.295
605.7
603.232
601.097
599.588
598.851
598.97
599.823
601.281
603.287
605.711
608.358
611.031
605.012
603.005
601.404
600.19
599.322
598.794
598.711
599.226
600.376
602.099
604.278
606.643
608.901
610.674
611.761
611.902
610.68
608.555
606.329
603.986
602.206
600.836
600.015
599.808
600.164
600.895
613.618
607.39
601.485
601.932
602.844
604.331
606.26
608.374
610.452
612.125
612.887
612.761
611.714
609.843
607.372
604.7
602.225
600.3
599.2
599.133
600.081
601.911
604.586
607.864
611.357
614.628
617.355
601.885
619.467
602.26
601.809
602.26
600.536
599.437
598.851
598.596
598.563
598.744
599.214
600.116
601.442
603.246
605.273
607.338
609.112
610.366
610.837
610.347
608.904
606.67
604.264
602.177
600.51
599.455
599.026
599.2
599.913
600.939
599.857
608.15
606.59
607.413
601.148
601.61
602.532
603.965
605.846
607.923
609.929
611.697
612.805
613.023
612.384
610.978
608.847
606.257
603.635
601.349
599.799
599.336
600.135
602.064
605.133
609.065
613.332
617.291
620.341
622.261
623.206
623.692
621.13
616.079
610.043
602.538
604.55
598.546
596.385
602.716
601.943
604.84
602.433
602.127
624.128
622.569
618.423
612.834
607.241
602.857
600.753
599.142
598.112
597.719
597.867
598.325
598.899
599.527
600.324
601.362
602.77
604.379
606.073
607.691
608.871
609.445
609.266
608.316
606.623
604.442
602.341
600.453
599.087
598.388
598.316
598.837
599.821
601.11
600.87
604.965
606.828
599.123
599.081
599.24
599.478
599.741
600.136
600.772
601.723
603.121
605.043
607.245
609.385
611.213
612.58
613.069
612.717
611.628
609.872
607.594
605.038
602.578
600.645
599.67
600.048
601.797
604.927
609.234
614.06
618.645
622.06
623.857
624.223
624.032
623.831
623.84
605.419
600.215
606.171
608.288
612.437
597.822
603.278
601.947
600.447
598.96
597.881
597.416
597.636
598.333
599.224
600.106
600.958
601.846
602.903
604.114
605.405
606.633
607.614
608.062
607.904
607.129
605.815
604.065
602.188
600.414
598.903
597.942
597.596
597.859
598.694
599.905
601.386
602.501
603.679
595.043
597.587
597.601
597.788
598.127
598.62
599.337
600.374
601.794
603.683
606.038
608.469
610.598
612.22
613.097
612.967
612.058
610.543
608.524
606.138
603.718
601.551
600.126
599.928
601.235
604.066
608.436
613.621
618.75
622.558
624.438
624.487
623.944
623.417
623.056
623.034
623.378
624.096
624.698
623.891
620.602
615.534
610.05
605.35
602.288
605.026
602.389
611.34
599.393
602.136
612.163
602.917
603.812
602.975
600.864
603.893
605.605
596.099
596.182
596.449
596.897
597.579
598.579
599.984
601.83
604.164
606.876
609.467
611.523
612.951
613.249
612.547
611.132
609.252
606.979
604.583
602.313
600.539
599.751
600.44
602.717
606.753
612.111
617.66
622.084
624.45
624.507
623.64
622.838
622.343
622.287
622.648
623.389
624.777
624.096
624.612
625.354
625.028
622.418
617.869
612.587
607.821
604.395
602.69
601.001
599.684
598.713
598.245
598.396
599.042
599.989
601.02
601.985
602.846
603.691
604.551
605.437
606.253
606.84
607.008
606.645
605.801
604.583
603.096
601.545
600.024
598.669
597.62
597.069
597.053
597.604
598.667
600.104
601.748
605.168
604.329
604.932
600.899
602.306
600.405
598.875
597.485
594.896
596.309
595.166
595.019
595.083
595.352
595.866
596.696
597.93
599.646
601.857
604.568
607.546
610.207
612.196
613.321
613.084
611.879
610.063
607.856
605.347
602.949
600.862
599.518
599.446
601.001
604.321
609.442
615.326
620.607
623.978
624.551
623.421
622.235
621.618
621.66
622.229
623.161
624.659
627.127
630.658
626.945
625.152
625.28
625.885
625.795
623.666
619.551
614.556
609.808
606.317
604.353
603.905
602.457
601.258
600.388
599.917
600.056
600.67
601.544
602.519
603.472
604.321
605.067
605.693
606.224
606.623
606.795
606.546
605.829
604.718
603.343
601.875
600.468
599.205
598.102
597.221
596.635
596.445
596.723
597.518
598.773
600.374
602.18
603.408
604.398
606.52
613.017
604.91
596.042
597.274
598.732
605.836
600.614
602.225
605.547
601.892
600.284
635.049
629.994
626.982
626.585
626.817
626.7
624.764
620.902
616.197
611.614
608.011
605.907
605.261
605.371
604.45
603.59
602.845
602.389
602.42
602.978
603.843
604.766
605.62
606.343
606.948
607.426
607.727
607.794
607.544
606.864
605.724
604.204
602.498
600.798
599.29
598.081
597.182
596.541
596.117
595.927
596.041
596.557
597.508
598.921
600.685
602.656
603.971
607.996
603.708
611.053
613.521
594.292
594.297
594.549
595.098
596.039
597.458
599.422
601.926
604.927
608.06
610.73
612.615
613.34
612.654
611.057
608.92
606.383
603.728
601.311
599.409
598.501
599.114
601.466
605.785
611.672
617.738
622.474
624.036
623.426
622.146
620.895
620.795
621.606
622.915
624.628
627.106
630.804
635.753
641.491
607.671
605.721
607.627
606.557
601.836
606.194
605.026
605.005
605.097
605.105
605.359
605.839
606.605
607.509
608.321
608.944
609.362
609.61
609.737
609.622
609.104
608.072
606.518
604.534
602.375
600.258
598.422
597.031
596.127
595.621
595.388
595.349
595.469
595.827
596.504
597.595
599.113
601.015
603.158
604.605
608.344
603.201
645.667
638.343
631.585
626.496
624.833
624.302
624.05
622.511
619.329
615.351
611.475
608.526
606.783
606.069
605.876
605.065
609.117
600.425
598.787
597.285
595.974
606.187
608.374
595.532
610.09
593.879
593.866
594.094
594.652
595.662
597.21
599.355
602.073
605.254
608.441
611.034
612.802
613.079
612.037
610.145
607.749
604.973
602.189
599.762
598.029
597.511
598.689
601.745
606.857
613.182
619.206
622.722
623.114
622.003
620.701
619.902
620.337
621.975
624.083
626.573
629.923
634.733
640.952
647.617
650.607
607.18
605.561
607.165
608.554
604.992
606.862
607.298
606.479
604.888
606.508
607.277
605.354
605.103
603.998
611.011
603.736
602.605
603.253
604.432
606.065
607.518
608.757
609.619
610.405
611.16
611.769
612.136
612.22
612.089
611.788
611.18
610.037
608.247
605.897
603.256
600.628
598.311
596.519
595.335
594.727
594.558
594.641
594.873
595.218
595.745
596.545
597.721
599.325
601.314
603.526
605.718
609.38
603.324
604.801
648.776
647.686
642.295
636.723
631.922
629.823
629.245
629.356
628.337
625.68
621.856
617.159
612.447
608.92
607.141
606.437
605.492
603.908
602.15
600.936
599.222
597.66
596.338
595.353
613.099
605.096
593.923
593.749
593.739
593.95
594.51
595.559
597.19
599.449
602.307
605.58
608.729
611.21
612.751
612.632
611.308
609.203
606.623
603.665
600.798
598.376
596.786
596.577
598.183
601.788
607.414
613.948
619.513
621.96
621.556
620.266
619.156
618.954
620.116
622.433
625.167
628.363
632.48
638.058
644.645
650.404
649.033
642.528
610.066
606.294
604.244
610.472
609.856
609.103
606.888
604.41
607.746
606.104
602.943
608.021
611.493
605.701
607.955
609.369
608.753
608.351
605.996
603.815
601.581
599.537
597.861
596.618
595.746
595.118
594.644
594.26
593.996
593.958
594.337
595.302
596.956
599.287
602.142
605.215
608.132
610.553
612.286
613.404
614.135
614.634
614.834
614.703
614.339
613.848
613.192
611.991
609.538
606.183
602.11
599.464
597.989
601.509
606.737
632.758
640.846
644.254
640.649
634.092
623.732
620.344
618.282
617.478
615.726
612.245
607.908
604.085
601.761
601.285
601.769
602.619
602.559
601.431
598.974
610.235
607.136
610.905
606.329
607.205
608.138
609.139
610.168
609.873
609.522
609.085
610.636
605.256
608.59
606.284
607.098
610.638
610.046
609.299
607.97
610.756
604.59
601.581
599.843
598.286
596.991
596.018
594.792
595.61
594.331
594.065
593.92
593.897
594.086
594.64
595.708
597.386
599.7
602.63
605.914
608.965
611.319
612.512
612.093
610.542
608.285
605.573
602.507
599.594
597.2
595.726
595.742
597.643
601.61
607.476
613.983
618.904
620.515
619.663
618.288
617.432
617.853
619.684
622.457
625.781
629.781
634.641
640.485
646.179
647.7
642.785
634.378
623.383
608.891
609.411
609.741
601.306
608.973
607.645
610.747
609.159
603.832
606.979
605.489
608.288
610.059
609.925
610.491
607.898
609.527
602.112
610.311
605.808
608.226
607.783
610.711
610.992
611.196
606.366
604.127
601.842
599.738
597.997
596.696
595.778
595.107
594.59
594.169
593.863
593.767
594.054
594.873
596.366
598.586
601.44
604.666
607.876
610.692
612.874
614.442
615.57
616.378
616.808
616.837
616.717
616.507
616.02
614.538
611.09
605.97
599.59
595.464
592.83
599.078
594.065
596.671
597.666
598.978
600.529
602.22
603.853
612.763
610.159
608.242
611.028
610.376
608.651
606.255
608.207
609.18
603.863
601.561
613.602
601.305
610.862
606.732
604.704
605.46
605.343
618.008
624.406
632.344
637.525
637.077
632.939
627.332
624.658
628.197
636.09
640.391
640.461
638.701
634.743
629.054
623.811
619.905
617.177
614.661
614.534
616.561
621.961
607.249
607.898
608.675
609.533
610.435
611.343
611.567
608.482
611.142
609.866
609.138
610.906
609.77
604.689
606.352
612.022
606.773
608.467
603.309
608.694
611.744
606.287
607.501
595.131
594.836
594.573
594.39
594.272
594.247
594.424
594.968
596.033
597.723
600.064
603.019
606.257
609.162
611.393
612.208
611.53
609.795
607.435
604.629
601.534
598.611
596.256
594.874
595.046
597.133
601.293
607.239
613.522
617.864
618.791
617.611
616.153
615.532
616.386
618.689
621.971
626.088
631.052
636.652
642.531
645.726
643.292
635.912
626.279
617.901
614.54
610.179
602.434
611.768
610.836
607.433
608.784
603.895
608.353
603.512
602.989
610.765
594.527
596.391
597.158
598.228
599.587
601.172
602.871
604.527
606.055
606.604
607.377
610.371
608.433
611.065
595.177
609.911
608.532
606.651
604.418
602.096
599.934
598.125
596.763
595.807
595.131
594.639
594.29
594.062
594.051
594.377
595.166
596.554
598.613
601.3
604.402
607.618
610.562
612.987
614.863
616.303
617.353
617.952
618.086
618.11
618.103
617.8
616.153
612.208
606.014
598.811
594.082
589.822
603.2
590.674
636.553
611.906
612.098
612.206
612.219
612.47
611.734
607.714
607.541
607.033
603.23
605.313
604.223
603.42
595.886
610.72
609.384
611.22
610.502
609.034
609.053
608.319
605.825
606.005
605.951
604.78
602.141
609.203
602.162
602.534
607.355
608.325
603.069
609.478
610.508
610.446
608.234
610.168
610.803
610.241
595.41
596.019
607.254
607.604
608.032
608.568
609.21
609.926
610.696
611.472
612.211
611.199
609.442
607.642
606.839
609.362
600.594
609.216
595.28
595.089
594.94
594.829
594.742
594.723
594.892
595.419
596.47
598.143
600.485
603.434
606.593
609.36
611.408
611.91
610.999
609.122
606.692
603.814
600.726
597.846
595.537
594.235
594.518
596.705
600.932
606.809
612.874
616.707
617.07
615.565
613.993
613.449
614.521
617.168
621.027
626.124
632.335
638.925
644.515
644.614
639.625
631.14
620.602
614.693
614.412
590.226
585.087
602.478
615.9
625.094
628.151
619.611
609.573
609.346
608.755
607.196
605.063
601.103
594.179
587.231
581.069
578.09
578.159
580.476
583.685
587.27
588.162
587.035
581.465
584.506
609.844
604.326
608.45
607.606
605.74
596.001
607.024
604.508
603.984
608.824
596.591
597.462
598.622
600.051
601.682
603.418
605.14
606.748
608.182
609.344
610.67
609.216
610.193
610.17
610.986
608.936
607.024
605.807
604.24
601.268
609.704
603.156
607.924
603.064
610.049
609.675
610.127
603.401
604.528
605.55
606.33
606.837
607.125
607.309
607.478
605.911
594.264
612.813
613.033
613.121
613.082
613.002
612.863
611.123
610.104
611.948
606.927
608.154
608.156
608.259
608.505
608.826
609.251
609.76
610.337
610.968
611.604
612.181
612.686
600.872
608.923
610.929
603.698
605.564
612.1
602.878
595.64
595.469
595.397
595.36
595.321
595.269
595.257
595.41
595.909
596.934
598.57
600.897
603.819
606.896
609.541
611.395
611.642
610.55
608.57
606.081
603.161
600.108
597.276
595.018
593.786
594.148
596.38
600.611
606.377
612.24
615.697
615.626
613.719
611.933
611.289
612.412
615.314
619.747
625.814
633.339
641.501
646.275
644.534
638.515
629.431
616.809
609.025
615.716
562.26
786.939
712.57
625.325
616.715
617.026
619.608
625.245
614.442
596.242
563.566
572.741
591.669
643.776
682.791
670.327
667.147
662.217
660.719
661.086
655.924
655.062
648.925
649.295
651.25
658.32
681.113
650.872
545.221
633.348
585.949
602.112
592.121
594.339
600.082
607.048
613.131
616.989
618.446
618.655
618.588
618.527
618.35
617.643
616.383
614.727
612.712
610.286
607.482
604.504
601.682
599.245
597.347
595.995
595.123
594.635
594.444
594.485
594.713
595.143
595.813
596.812
598.245
600.129
602.349
604.701
606.927
608.795
610.129
610.817
610.951
610.702
602.373
609.835
594.714
608.147
607.722
609.92
606.975
606.407
611.709
610.168
611.072
610.502
611.255
609.858
609.77
605.442
607.971
606.943
609.181
608.317
604.774
603.496
607.457
606.409
604.131
604.286
601.584
610.541
604.121
607.013
603.995
608.78
606.344
606.557
606.646
609.74
611
610.743
611.034
610.073
608.829
607.283
605.604
603.801
602.003
600.333
598.865
597.657
596.747
606.255
609.41
608.826
606.891
606.799
606.637
606.315
605.771
604.958
603.897
602.702
608.741
611.018
600.817
601.41
602.305
603.35
604.363
601.165
611.197
604.448
610.705
608.467
609.82
613.822
613.965
613.957
613.827
613.62
613.349
613.056
611.115
594.091
607.878
608.555
609.267
609.919
610.508
610.834
610.776
610.16
608.908
607.114
604.926
602.568
600.3
598.346
596.838
595.788
595.124
594.77
594.69
594.867
595.307
596.031
597.064
598.456
600.24
602.411
604.887
607.491
609.984
612.239
614.244
616.007
617.397
618.18
618.366
618.454
618.597
618.445
617.203
613.86
608.21
602.898
600.388
600.633
606.196
611.836
628.376
648.213
760.456
605.517
606.674
290.207
594.409
537.65
604.752
646.864
656.245
640.572
629.16
652.171
656.121
634.718
615.434
590.568
559.696
562.459
548.034
541.376
534.315
529.791
536.098
534.682
554.215
552.675
549.867
525.49
480.985
396.546
194.22
600.369
609.27
609.273
609.314
609.452
609.673
609.978
610.349
610.773
611.233
611.704
612.13
612.487
612.753
605.708
606.795
608.093
609.365
595.993
595.702
595.654
595.696
595.759
595.786
595.768
595.76
595.89
596.359
597.34
598.941
601.238
604.123
607.123
609.669
611.382
611.444
610.228
608.179
605.648
602.699
599.679
596.877
594.675
593.505
593.916
596.154
600.353
606.006
611.713
614.931
614.473
612.26
610.167
609.292
610.321
613.37
618.26
625.124
633.81
643.618
648.344
646.414
640.418
631.813
620.039
595.449
614.991
510.199
655.833
307.871
608.108
607.544
605.189
607.598
610.509
610.447
610.655
611.1
606.473
606.443
596.235
606.273
603.926
606.626
606.549
606.469
606.307
605.985
605.428
604.596
603.514
602.303
603.16
601.451
600.102
600.317
600.978
601.972
596.826
612.349
611.237
609.656
607.904
605.969
604.052
602.214
600.473
598.942
597.716
610.995
610.948
610.425
606.316
606.916
607.857
604.835
606.183
606.893
607.236
607.739
608.354
609.057
609.759
610.379
610.758
610.743
610.194
608.995
607.252
605.087
602.721
600.416
598.403
596.83
595.732
595.069
594.783
594.839
595.203
595.867
596.81
598.015
599.477
601.183
603.13
605.304
607.546
609.712
611.752
613.686
615.491
616.956
617.779
617.976
618.046
618.245
618.196
617.185
614.324
608.892
604.839
603.856
606.81
613.712
621.043
629.774
648.313
712.834
135.828
614.199
614.5
614.626
614.572
614.354
614.034
613.665
613.275
612.906
611.023
607.254
606.114
607.022
605.134
610.928
610.948
605.052
606.459
607.848
609.423
604.485
611.588
610.449
610.406
610.362
610.375
610.449
610.58
610.764
610.99
611.25
611.525
611.81
612.067
612.283
612.44
612.493
612.266
17.1866
16.7724
17.0142
18.2608
19.1324
21.5435
20.4479
18.9865
16.9162
15.5903
15.3979
15.3064
15.3444
16.2863
16.676
16.8391
16.8818
17.0143
16.8679
16.6969
16.5389
16.6109
16.4846
17.0368
16.8111
17.0698
15.9102
16.9915
14.437
19.4651
595.881
595.746
595.783
595.917
596.058
596.137
596.148
596.149
596.267
596.699
597.625
599.176
601.441
604.289
607.237
609.762
611.325
611.33
610.059
607.972
605.416
602.465
599.422
596.643
594.48
593.356
593.763
595.974
600.117
605.707
611.315
614.333
613.68
611.261
608.944
607.787
608.587
611.666
616.803
624.121
633.575
644.441
650.725
649.857
646.237
637.117
626.036
602.564
600.428
547.282
618.284
405.369
27.069
605.552
606.991
606.073
610.896
611.072
278.091
511.86
607.401
608.12
25.2923
5156.33
5204.64
4623.84
4843.41
4618.05
4629.85
4593.27
4627.39
4485.11
4625.39
4566.67
4629.72
4620.61
4582.3
4614.7
4533.15
4556.6
4437.36
4490.26
4360.64
4393.15
4129.85
4224.61
4073.78
3904.75
4147.28
3870
4239.59
3922.16
510.771
35.6159
3922.29
3548.66
554.504
545.147
613.395
599.189
642.319
630.637
653.412
649.004
642.817
652.11
622.581
632.008
610.365
615.309
607.002
607.511
610.869
608.414
613.835
613.339
605.524
610.906
595.782
599.908
593.344
593.632
596.666
594.538
602.426
599.398
607.947
605.376
611.237
610.057
609.737
611.173
604.288
607.225
599.233
601.467
596.882
597.74
596.441
596.509
596.415
596.456
596.096
596.275
595.825
595.92
596.181
595.898
597.542
596.722
600.16
598.702
603.691
601.852
607.594
605.617
611.268
609.512
613.541
612.674
614.788
614.331
614.865
614.955
614.198
614.593
613.306
613.74
612.331
612.138
612.191
612.014
612.085
611.842
611.932
611.662
611.75
611.522
611.585
611.448
611.477
611.47
611.445
611.253
611.515
612.607
610.687
611.608
611.885
610.131
611.089
607.449
608.906
604.26
605.861
601.84
603.096
600.129
600.824
600.29
599.929
602.298
601.144
604.595
603.516
605.936
605.409
606.352
606.219
606.478
606.412
606.844
606.605
607.711
607.201
609.03
608.333
610.379
609.748
610.774
610.777
609.071
610.245
605.166
607.332
600.45
602.785
596.78
598.396
594.987
595.651
594.854
594.735
596.131
595.327
598.555
597.227
601.716
600.062
605.47
603.539
609.421
607.452
613.248
611.346
616.677
615.106
617.766
617.576
617.883
617.76
616.581
617.728
608.509
613.572
604.693
604.802
617.207
608.818
629.307
625.21
590.488
612.15
612.057
605.179
609.478
4122.04
605.963
3179.34
605.716
612.022
612.014
611.971
611.991
612.005
612.002
611.997
608.161
601.732
606.014
606.271
605.272
600.912
602.98
601.656
605.978
607.464
606.774
607.324
608.675
608.066
608.463
609.703
609.157
609.323
610.462
609.976
601.357
611.088
611.839
594.389
612.79
610.739
607.627
601.911
595.506
596.498
610.649
604.869
601.448
610.847
610.178
603.14
607.413
604.166
608.692
605.999
611.101
597.502
600.775
603.531
612.354
604.302
605.965
607.8
606.545
600.325
601.72
612.05
606.25
605.019
596.297
606.682
603.49
607.158
609.719
608.536
610.857
610.869
607.253
609.434
607.763
602.775
604.428
595.412
602.942
608.598
605.586
611.137
608.044
)
;

boundaryField
{
    wall
    {
        type            zeroGradient;
    }
    outlet
    {
        type            fixedValue;
        value           uniform 1e-05;
    }
    inlet
    {
        type            fixedValue;
        value           uniform 612;
    }
    frontAndBackPlanes
    {
        type            empty;
    }
}


// ************************************************************************* //
