/*--------------------------------*- C++ -*----------------------------------*\
| =========                 |                                                 |
| \\      /  F ield         | OpenFOAM: The Open Source CFD Toolbox           |
|  \\    /   O peration     | Version:  2212                                  |
|   \\  /    A nd           | Website:  www.openfoam.com                      |
|    \\/     M anipulation  |                                                 |
\*---------------------------------------------------------------------------*/
FoamFile
{
    version     2.0;
    format      ascii;
    arch        "LSB;label=32;scalar=64";
    class       volVectorField;
    location    "0.00402";
    object      U;
}
// * * * * * * * * * * * * * * * * * * * * * * * * * * * * * * * * * * * * * //

dimensions      [0 1 -1 0 0 0 0];

internalField   nonuniform List<vector> 
7220
(
(44.1202 58.2937 -3.71083e-17)
(47.4868 12.8764 2.26267e-17)
(42.7046 9.28893 1.12948e-17)
(35.8973 10.6564 1.40475e-17)
(43.9845 17.7418 -2.2122e-17)
(39.8121 13.9016 -5.81993e-20)
(-45.0187 22.6019 0)
(-43.6551 29.646 2.30056e-17)
(-38.5394 21.3954 0)
(-41.0679 25.2961 0)
(62.7141 50.7867 -6.68493e-19)
(57.5256 -70.834 -2.03097e-16)
(22.1602 209.588 1.02849e-17)
(-70.6809 114.755 1.50198e-16)
(109.134 116.292 1.53007e-16)
(-31.8757 -136.827 9.47006e-17)
(-66.3421 307.058 0)
(-0.312068 64.0582 -4.13747e-16)
(-43.6755 301.336 3.74099e-17)
(31.1558 60.7572 -2.09984e-16)
(1.50134 300.444 4.10675e-17)
(-47.74 177.142 2.94951e-16)
(9.97914 18.9081 1.6677e-16)
(42.7203 159.451 2.19538e-16)
(-27.3619 49.3375 1.53992e-16)
(26.675 -87.245 -3.20455e-16)
(-50.5738 -71.7472 1.05432e-16)
(-50.8148 77.912 1.4683e-16)
(7.10115 300.687 -4.02263e-17)
(7.88242 281.144 7.0762e-17)
(52.7648 98.3086 9.35034e-17)
(22.3675 252.878 -2.11183e-17)
(45.3152 59.2089 3.9836e-16)
(1.74026 291.753 -3.89018e-17)
(-46.0102 -80.0273 -1.6911e-16)
(-18.5014 72.9837 -2.97367e-16)
(42.1503 -3.90671 5.6045e-18)
(66.3091 49.0643 0)
(61.5389 52.3574 6.70365e-21)
(-1.66165 80.7649 -1.09333e-21)
(-1.68374 78.404 -4.3725e-21)
(2.34299 78.4239 -2.79246e-19)
(2.36374 80.7836 2.46665e-19)
(7.0029 84.2039 -7.23496e-17)
(6.84043 81.7332 -2.92328e-16)
(0.681467 81.3727 -5.46889e-17)
(0.526082 82.9543 1.11781e-17)
(1.24616 84.6703 -1.03424e-16)
(-1.70997 76.3691 5.53159e-19)
(-1.74258 74.7467 -5.52982e-19)
(2.31193 74.7678 -5.22359e-19)
(2.325 76.3894 5.61704e-19)
(-1.78699 73.6439 5.58211e-19)
(-1.83374 73.2512 -1.67169e-18)
(2.31269 73.2734 5.70812e-19)
(2.30758 73.6668 -5.91739e-19)
(-1.89355 73.4845 -1.34665e-20)
(-1.95989 74.5376 2.25146e-18)
(2.36303 74.5561 1.12999e-18)
(2.33072 73.5046 -5.6524e-19)
(-2.03641 76.5408 -1.11621e-18)
(-2.12256 79.4827 1.14061e-18)
(2.48296 79.499 -5.81846e-19)
(2.41404 76.5576 -1.12771e-18)
(-2.21766 83.1974 -1.12128e-18)
(-2.32062 87.2975 0)
(2.6508 87.3255 1.12352e-18)
(2.56526 83.2167 -2.28075e-20)
(-2.43096 91.1753 0)
(-2.55413 94.2681 -1.05624e-19)
(2.77016 94.3308 3.51904e-20)
(2.72399 91.2186 1.77546e-20)
(-2.67175 95.5333 2.40671e-18)
(-2.76949 95.2257 2.90398e-19)
(2.74339 95.2911 -2.14036e-18)
(2.77125 95.6024 2.12214e-18)
(-2.87906 94.135 -1.82885e-22)
(-3.00352 92.8653 -1.15078e-17)
(2.65748 92.9049 3.43847e-18)
(2.70352 94.1907 5.72172e-19)
(-3.16489 91.453 9.21902e-18)
(-3.37701 89.9075 -2.78394e-17)
(2.45644 89.9089 9.23298e-18)
(2.58221 91.4738 -2.06043e-21)
(1.82518 86.403 6.87525e-21)
(2.21693 88.1969 -9.28493e-18)
(-3.66134 88.2193 9.43053e-18)
(-4.04517 86.441 2.17178e-17)
(-4.45946 84.6766 3.74334e-17)
(7.73672 86.0566 3.63057e-17)
(-1.64451 83.4288 0)
(2.38536 83.4452 3.50351e-20)
(6.36129 78.4406 -8.7378e-21)
(6.37975 80.8068 8.73538e-21)
(7.24184 80.0241 -1.85287e-17)
(1.07703 79.8276 -9.46082e-20)
(-4.91515 82.9395 2.06358e-17)
(-5.09561 81.2726 4.0646e-17)
(-9.40854 88.0717 -9.43557e-18)
(-8.84063 91.3573 5.79077e-18)
(-9.11058 89.7923 -1.16575e-18)
(-8.42492 94.0344 0)
(-8.6145 92.7728 0)
(-8.10335 95.3888 0)
(-8.25855 95.1123 -5.73269e-19)
(-7.58327 90.967 0)
(-7.87351 94.0802 7.05386e-20)
(-6.98416 82.9951 -1.1442e-18)
(-7.28357 87.0858 1.12399e-18)
(-6.45594 76.3821 -5.63649e-19)
(-6.70391 79.2995 0)
(-6.07675 73.3781 -1.14115e-18)
(-6.24628 74.4056 1.12581e-18)
(-5.84393 73.5753 -5.62256e-19)
(-5.94546 73.163 5.59092e-19)
(-5.70846 76.3375 8.75575e-21)
(-5.75981 74.7002 5.74456e-19)
(-5.65421 80.7525 0)
(-5.67521 78.3829 4.37651e-21)
(6.36147 74.7616 -3.57646e-23)
(6.35282 76.3966 0)
(6.45806 73.2285 -1.73796e-20)
(6.39871 73.6406 3.4667e-20)
(6.68867 74.4602 -4.39516e-21)
(6.55357 73.4394 0)
(7.10276 79.3442 1.10334e-21)
(6.8724 76.4301 0)
(7.65234 87.1602 -5.61618e-19)
(7.36997 83.0465 5.76273e-19)
(8.13015 94.2533 -1.11685e-18)
(7.91693 91.0838 1.12828e-18)
(8.27491 95.3135 1.42778e-19)
(8.24233 95.5914 -4.40498e-21)
(8.32639 92.9133 1.14342e-18)
(8.30129 94.2174 -5.71418e-19)
(8.29392 89.7791 1.82757e-17)
(8.33606 91.4321 -4.57091e-18)
(8.12159 87.9502 1.81881e-17)
(-9.77368 86.2562 -1.54012e-20)
(-5.64439 83.4255 0)
(6.40584 83.4733 0)
(12.9267 83.8261 -7.90975e-17)
(13.4105 85.7666 8.73198e-18)
(7.53384 78.3742 0)
(-5.11653 79.6428 9.90885e-20)
(-10.1643 84.4753 -9.80953e-18)
(-10.5709 82.7343 9.93921e-18)
(-15.6906 84.1726 -1.23185e-20)
(12.8096 82.163 0)
(-10.8786 81.0224 9.8937e-18)
(-16.131 82.3883 9.73042e-18)
(-14.9105 87.8393 7.0766e-18)
(-15.2824 85.9862 -1.4344e-17)
(-14.2745 91.1808 0)
(-14.5782 89.5963 -2.33718e-18)
(-13.7783 93.8786 -1.14817e-18)
(-14.006 92.6104 2.30993e-18)
(-13.3475 95.1681 2.82397e-19)
(-13.5642 94.9463 0)
(-12.5406 90.5899 5.73911e-19)
(-12.9994 93.761 -2.78094e-19)
(-11.5543 82.6029 0)
(-12.0509 86.6846 -3.54169e-20)
(-10.6793 76.0747 3.30257e-21)
(-11.0888 78.9424 0)
(-10.0663 73.1792 -2.79211e-19)
(-10.3376 74.1539 -8.77471e-21)
(-9.71305 73.4632 5.44138e-19)
(-9.86852 73.0039 2.79473e-19)
(-9.5266 76.2951 5.40951e-19)
(-9.5932 74.6286 -5.79015e-19)
(-9.47099 80.7479 2.23473e-18)
(-9.48923 78.3616 -1.67839e-18)
(-5.64622 86.4115 0)
(-9.48643 86.4388 0)
(-9.47017 83.4373 -1.1212e-18)
(2.40694 86.4193 1.73801e-20)
(-1.63355 86.4059 2.96598e-19)
(10.2905 83.5129 0)
(10.3301 86.4996 -6.98997e-20)
(6.43735 86.4505 1.04762e-19)
(10.2493 78.4538 2.87757e-19)
(10.2629 80.8344 -2.89002e-19)
(10.2854 74.7275 3.51848e-20)
(10.2533 76.3901 0)
(10.4847 73.1109 -3.46965e-20)
(10.3662 73.5665 -6.90709e-20)
(10.8929 74.2418 0)
(10.6518 73.2796 0)
(11.6049 79.0091 -4.40197e-21)
(11.2114 76.1494 0)
(12.5426 86.7942 -2.21135e-21)
(12.0594 82.6774 -4.42626e-21)
(13.3945 94.0361 0)
(13.003 90.7681 0)
(13.7173 95.2879 -9.95647e-19)
(13.6289 95.5041 1.13434e-18)
(13.8384 92.8911 4.55455e-18)
(13.7841 94.2053 0)
(13.8343 89.6734 -1.8114e-17)
(13.8653 91.38 6.84305e-22)
(13.6904 87.7592 2.66527e-21)
(13.7982 78.4229 -3.61671e-17)
(13.4771 80.1157 5.27461e-17)
(18.9482 83.7656 1.70525e-17)
(19.0312 85.6079 1.52825e-17)
(-5.65932 89.7006 -3.4892e-20)
(-9.51823 89.7389 3.495e-20)
(13.8761 83.5564 5.59919e-19)
(13.9211 86.559 -5.22987e-19)
(1.16233 78.1929 3.80486e-17)
(14.0591 76.7612 2.77188e-17)
(7.74626 76.7219 -9.30791e-18)
(-11.1075 79.3773 2.91391e-17)
(-20.8221 83.801 -2.87508e-17)
(20.0447 76.6886 1.37202e-17)
(19.7501 78.344 0)
(-16.5661 80.6022 9.6952e-18)
(19.0345 81.9751 1.91318e-17)
(-21.2932 81.967 9.60293e-18)
(-19.995 87.5402 0)
(-20.3872 85.6544 -9.50071e-18)
(-19.307 90.9411 6.97721e-18)
(-19.63 89.3329 -7.801e-21)
(-18.7529 93.6719 2.29593e-18)
(-19.0129 92.3895 -3.46866e-18)
(-18.2378 94.8591 2.82499e-19)
(-18.5118 94.7257 -1.71069e-18)
(-17.11 90.0439 5.68753e-19)
(-17.7522 93.3033 -5.62352e-19)
(-15.7316 82.0284 0)
(-16.4239 86.0975 -2.51071e-19)
(-14.527 75.6295 2.82535e-19)
(-15.0875 78.4213 -2.7988e-19)
(-13.7071 72.8972 2.91323e-19)
(-14.0663 73.7933 -2.66213e-19)
(-13.247 73.3168 2.96424e-19)
(-13.4496 72.7817 -2.59525e-19)
(-13.0254 76.2443 -2.98096e-19)
(-13.1016 74.536 2.79017e-19)
(-12.9756 80.7508 2.1838e-20)
(-12.9877 78.3409 0)
(-13.0171 86.4856 -1.19005e-18)
(-12.9853 83.4629 1.11654e-18)
(2.42716 89.6976 -6.99087e-20)
(-1.62875 89.6877 -2.79669e-19)
(10.3783 89.7826 -6.97501e-20)
(6.47302 89.729 -2.7892e-19)
(13.841 78.4574 0)
(13.8488 80.8593 -5.57826e-19)
(13.9116 74.6633 -1.39429e-19)
(13.8578 76.3655 1.40258e-19)
(14.2083 72.9191 3.5332e-20)
(14.0315 73.4491 3.41046e-20)
(14.7804 73.9061 8.83136e-20)
(14.4426 73.0265 0)
(15.7756 78.5006 4.41652e-21)
(15.2251 75.7226 -6.98647e-20)
(17.0972 86.2254 -6.61765e-21)
(16.4136 82.114 -8.81615e-21)
(18.3425 93.6501 0)
(17.7599 90.2595 -8.85656e-21)
(18.8749 95.1727 -7.02609e-19)
(18.7261 95.2937 5.58344e-19)
(19.0582 92.772 1.13546e-18)
(18.9745 94.1023 1.13801e-18)
(19.1413 89.5338 0)
(19.1157 91.2502 -6.79647e-18)
(19.1116 87.6059 1.11373e-17)
(19.3925 80.1043 -1.74314e-17)
(-13.0675 89.8002 0)
(13.98 89.8521 1.74471e-18)
(-5.17634 78.0504 1.2997e-19)
(14.3084 75.1553 -1.40712e-17)
(20.2936 75.0918 -1.39911e-17)
(1.28482 76.564 9.41461e-18)
(-21.7764 80.1185 2.87542e-17)
(24.3288 83.5722 8.69989e-18)
(24.2272 85.4474 -1.87696e-17)
(24.534 81.73 -3.27322e-18)
(-16.99 78.8762 -1.92489e-17)
(-16.1821 86.551 1.08213e-19)
(-16.2514 89.8829 1.11915e-18)
(10.4293 93.3154 3.47959e-20)
(14.0444 93.3885 -1.18741e-18)
(-11.3681 77.7593 1.31327e-19)
(8.00114 75.1257 0)
(20.4546 73.563 -1.45381e-17)
(14.543 73.604 4.81674e-18)
(25.9428 70.6323 -4.55324e-17)
(25.8561 71.9753 -2.08668e-17)
(20.5833 72.0691 5.19418e-19)
(-5.2076 76.3465 -4.70702e-17)
(-26.6173 79.6166 9.515e-18)
(-25.5688 83.3518 -9.47526e-18)
(-26.0808 81.4839 9.51491e-18)
(-24.673 87.1692 1.40423e-17)
(-25.0986 85.2446 2.95884e-20)
(-23.9223 90.643 0)
(-24.2783 89.0013 -9.31166e-18)
(-23.303 93.4229 -5.74821e-19)
(-23.5955 92.1202 -1.1511e-18)
(-22.6761 94.4431 -1.39341e-19)
(-23.0194 94.4409 5.66103e-19)
(-21.2049 89.3105 -1.40822e-19)
(-22.0387 92.6783 0)
(-19.4226 81.2714 -1.42927e-19)
(-20.3121 85.3158 2.12967e-19)
(-17.9083 75.0574 -1.40926e-19)
(-18.6069 77.7425 1.39913e-19)
(-16.9152 72.5447 -1.32403e-19)
(-17.3449 73.3362 1.30897e-19)
(-16.3741 73.1439 0)
(-16.6124 72.5109 -1.74429e-20)
(-16.1413 76.1913 2.80627e-19)
(-16.2181 74.4293 -2.78996e-19)
(-16.109 80.7636 1.06615e-18)
(-16.11 78.3249 -5.23081e-19)
(-16.133 83.503 -1.6716e-18)
(-13.1275 93.3554 1.04674e-19)
(-5.67941 93.2433 -2.79966e-19)
(-9.55857 93.2871 5.23022e-19)
(2.44451 93.2322 1.0452e-19)
(-1.62925 93.2257 -2.77718e-19)
(6.5081 93.262 3.49115e-19)
(17.2114 89.936 -5.93856e-19)
(17.0884 83.6045 -4.35682e-21)
(17.1412 86.6284 5.22688e-19)
(17.0516 78.4545 0)
(17.0581 80.8833 0)
(17.1435 74.5729 -1.4034e-19)
(17.0754 76.3269 0)
(17.5168 72.664 3.434e-20)
(17.2892 73.2957 1.65815e-20)
(18.2297 73.4624 -2.20149e-20)
(17.8094 72.6897 3.48892e-20)
(19.4821 77.8261 4.36952e-21)
(18.7867 75.1594 -6.94271e-23)
(21.1782 85.4527 8.87597e-21)
(20.2955 81.36 2.64685e-20)
(22.8308 93.0796 7.01137e-20)
(22.0486 89.5514 8.89432e-21)
(23.605 94.9886 -1.1242e-18)
(23.3846 94.9722 0)
(23.8437 92.6051 -2.26495e-18)
(23.7295 93.9489 5.68426e-19)
(24.0408 89.3668 4.5004e-18)
(23.9402 91.0819 4.53307e-18)
(24.1351 87.4433 -1.67721e-17)
(25.2699 78.1276 8.93919e-18)
(24.8903 79.8932 -1.32552e-17)
(25.8614 74.8894 -6.92063e-18)
(25.5959 76.4783 -2.27041e-18)
(25.9747 73.3959 1.42836e-17)
(-22.2242 78.3051 9.56786e-18)
(-16.3306 93.4461 -6.99019e-20)
(17.2896 93.4785 0)
(29.1391 83.3156 -8.87493e-18)
(28.8989 85.2331 -4.46699e-18)
(29.4427 81.439 9.95083e-18)
(31.434 71.3789 1.47833e-16)
(-17.4849 77.1936 3.97336e-17)
(1.5779 75.0369 0)
(8.30373 73.5659 -1.93921e-17)
(20.7751 70.6809 4.42117e-17)
(-11.3766 76.0094 -1.17776e-16)
(31.3129 68.8733 0)
(-31.0693 79.0898 -1.89297e-17)
(14.8012 72.1179 -2.05541e-17)
(-27.1438 77.7956 -1.891e-17)
(-31.6984 77.2838 -2.75598e-20)
(26.7239 69.2735 -3.20125e-19)
(-29.9097 82.8381 0)
(-30.4696 80.9497 2.81132e-20)
(-28.9273 86.7349 -9.3064e-18)
(-29.3972 84.7664 9.36787e-18)
(-28.1041 90.2889 2.30339e-18)
(-28.4964 88.6063 9.25658e-18)
(-27.4023 93.1216 -5.71087e-19)
(-27.7399 91.8004 -2.29788e-18)
(-26.6017 93.8936 1.4018e-19)
(-27.0604 94.0796 5.6414e-19)
(-24.723 88.3667 0)
(-25.7641 91.8471 0)
(-22.534 80.3339 -7.00271e-20)
(-23.6169 84.3294 1.06407e-19)
(-20.7435 74.375 -5.51232e-22)
(-21.5605 76.9173 7.99818e-20)
(-19.6219 72.1405 0)
(-20.1003 72.802 4.40053e-21)
(-19.0386 72.9592 6.94513e-20)
(-19.2918 72.2115 0)
(-18.8256 76.1461 3.50018e-20)
(-18.8901 74.3229 -5.27129e-20)
(-18.8265 80.7913 2.80157e-19)
(-18.81 78.321 -2.78956e-19)
(-18.938 86.635 -5.94587e-19)
(-18.8691 83.5601 5.70716e-19)
(-19.1253 93.5565 1.11591e-18)
(-19.0273 89.9853 -3.48604e-20)
(-19.222 97.3129 -1.04774e-18)
(-13.1905 97.1088 0)
(-16.4114 97.2018 1.04598e-18)
(-5.70309 96.9912 5.57947e-19)
(-9.60236 97.0379 -5.58554e-19)
(2.45906 96.9754 -1.41725e-19)
(-1.63305 96.9713 2.44293e-19)
(10.4793 97.0547 0)
(6.5412 97.0027 0)
(17.3677 97.2172 -5.92394e-19)
(14.1091 97.1273 -5.22601e-19)
(20.2098 97.3202 1.11577e-18)
(20.0285 90.0324 6.11076e-19)
(20.12 93.5819 -5.57531e-19)
(19.8821 83.6594 5.61611e-19)
(19.9455 86.7078 -1.11646e-18)
(19.8322 78.4512 0)
(19.844 80.9108 3.48463e-20)
(19.9245 74.4677 0)
(19.8535 76.2824 0)
(20.3385 72.366 0)
(20.0789 73.1148 1.74495e-20)
(21.1586 72.9278 3.48987e-20)
(20.6756 72.2852 -3.52569e-20)
(22.6291 76.9979 1.80136e-20)
(21.8067 74.4751 -1.75258e-20)
(24.682 84.474 -3.43157e-20)
(23.6049 80.4216 3.6256e-20)
(26.7626 92.307 -6.98818e-20)
(25.767 88.6331 6.788e-22)
(27.8384 94.7308 6.33444e-19)
(27.5135 94.5133 -3.45383e-20)
(28.1707 92.4076 -1.33951e-19)
(28.0111 93.7582 7.10454e-20)
(28.4974 89.1514 -4.52457e-18)
(28.32 90.8764 0)
(28.6927 87.2258 9.01114e-18)
(30.2728 77.8328 -4.46443e-18)
(29.841 79.6076 4.45087e-18)
(31.0582 74.4812 2.04552e-17)
(30.6768 76.1446 -3.38128e-18)
(31.3759 72.8895 -1.82011e-17)
(-27.6833 76.0225 -3.80534e-20)
(-22.6257 76.5 7.46414e-20)
(-5.10029 74.8449 -4.47674e-18)
(-32.3682 75.5418 0)
(33.349 82.9916 -4.47286e-18)
(33.0072 84.9456 -2.23248e-18)
(33.7317 81.0913 4.46476e-18)
(-21.5014 93.683 0)
(-21.6118 97.4372 1.11549e-18)
(17.4413 101.131 3.57005e-20)
(20.2924 101.228 -5.93047e-19)
(1.98916 73.4576 -5.89541e-17)
(8.69496 72.112 4.00012e-17)
(15.0369 70.7128 1.76701e-17)
(32.1145 67.68 0)
(37.1113 67.462 -3.21042e-19)
(37.6876 66.0607 3.84437e-17)
(32.7546 66.336 3.98565e-17)
(-28.3258 74.365 1.83375e-17)
(-17.8316 75.4107 -1.11335e-16)
(21.1268 69.359 -1.01984e-17)
(-11.0569 74.6438 -1.47447e-17)
(-33.0893 73.9082 -3.36214e-20)
(27.1429 67.8333 7.85115e-17)
(-36.5638 74.9569 4.72487e-18)
(-35.0902 78.5069 1.88269e-17)
(-35.8075 76.7017 -9.41889e-18)
(-33.8118 82.2701 4.66866e-18)
(-34.4257 80.3588 3.40507e-20)
(-32.7331 86.2414 6.93281e-18)
(-33.2494 84.2327 -4.64439e-18)
(-31.8173 89.8768 2.29542e-18)
(-32.2553 88.1569 -4.60812e-18)
(-31.0039 92.7441 1.71452e-18)
(-31.4028 91.414 -1.1445e-18)
(-29.9672 93.1707 0)
(-30.5867 93.606 -5.66223e-19)
(-27.6175 87.1988 -3.53372e-20)
(-28.882 90.7908 0)
(-25.0291 79.2263 -1.05671e-19)
(-26.294 83.1372 -4.87659e-22)
(-23.009 73.6059 6.98047e-20)
(-23.9184 75.9642 -7.61573e-21)
(-21.8116 71.7093 -4.35098e-21)
(-22.3135 72.2155 0)
(-21.2311 72.7821 0)
(-21.4751 71.9063 -8.65005e-21)
(-21.0688 76.1208 0)
(-21.1081 74.2331 -1.7508e-20)
(-21.1187 80.8393 1.40052e-19)
(-21.0784 78.3378 -1.74327e-19)
(-21.2754 86.7385 5.66346e-19)
(-21.1842 83.6371 -6.0136e-23)
(-21.3855 90.1063 -5.24082e-19)
(-19.313 101.235 6.96525e-20)
(-13.2538 101.038 5.52895e-19)
(-16.4903 101.128 -1.67423e-18)
(-5.72892 100.921 -2.96333e-19)
(-9.64821 100.968 2.17865e-20)
(2.47163 100.903 2.17903e-21)
(-1.63969 100.901 6.96693e-20)
(10.527 100.977 -4.35802e-21)
(6.572 100.928 -1.34894e-19)
(14.1708 101.045 5.58021e-19)
(22.6254 97.4324 -5.58181e-19)
(22.4207 90.141 5.39137e-19)
(22.5255 93.6966 -1.08306e-21)
(22.2452 83.7252 -5.40597e-19)
(22.3231 86.7993 2.79388e-19)
(22.1687 78.4562 1.74127e-20)
(22.1935 80.9479 2.43609e-19)
(22.2371 74.3636 -1.74271e-20)
(22.1773 76.2437 0)
(22.6474 72.0467 -1.73457e-20)
(22.3809 72.925 0)
(23.5305 72.3252 7.06361e-20)
(23.0084 71.8366 0)
(25.1647 76.0351 2.12147e-19)
(24.2422 73.6927 -1.23037e-19)
(27.541 83.2915 0)
(26.2815 79.3115 -1.57582e-19)
(30.0595 91.3069 0)
(28.8406 87.494 -3.5299e-20)
(31.5243 94.3832 -5.60439e-19)
(31.0473 93.8894 -2.77706e-19)
(31.9939 92.1683 2.83826e-18)
(31.7737 93.5181 0)
(32.455 88.8711 0)
(32.2063 90.6207 -5.66274e-19)
(32.7244 86.9435 -2.25181e-18)
(34.6157 77.4689 4.49285e-18)
(34.1652 79.2575 -4.48879e-18)
(35.3394 73.9922 6.67825e-18)
(35.0216 75.7307 -1.12515e-18)
(35.46 70.5903 -1.99905e-17)
(35.4936 72.2423 4.39254e-18)
(36.3968 69.4146 -4.82336e-17)
(-23.0158 74.7111 -1.73329e-17)
(-37.3362 73.3197 -2.37029e-17)
(-21.7117 101.353 -2.30187e-18)
(22.7142 101.332 5.92e-19)
(36.5496 84.5775 2.26037e-18)
(36.9585 82.5854 -2.65587e-21)
(-33.8456 72.3663 1.90293e-17)
(-29.1436 72.8807 1.86844e-17)
(-4.37043 73.3926 -4.01894e-17)
(2.52942 72.0665 4.07699e-17)
(8.97541 70.7008 1.5252e-19)
(15.2744 69.3803 -3.04532e-17)
(38.2435 64.6175 2.27444e-18)
(33.2405 64.9513 3.70834e-19)
(48.488 56.3902 -1.03463e-16)
(27.4832 66.5007 3.56622e-19)
(-37.6855 69.589 0)
(21.481 67.9691 3.51514e-17)
(-38.1123 71.7564 0)
(-41.9185 71.0407 -4.77854e-18)
(-40.2615 74.2587 4.69978e-18)
(-41.0866 72.6053 1.89701e-17)
(-38.6517 77.8386 -4.7126e-18)
(-39.4402 76.0227 -9.39304e-18)
(-37.2449 81.6497 -2.31852e-18)
(-37.9215 79.7043 7.25986e-21)
(-36.0609 85.6959 0)
(-36.6281 83.6464 2.30992e-18)
(-35.0438 89.4062 0)
(-35.5336 87.6504 0)
(-34.0991 92.2761 -5.72417e-19)
(-34.5711 90.9589 1.1426e-18)
(-32.7403 92.2098 3.09642e-20)
(-33.5893 92.9828 1.05423e-19)
(-29.8905 85.8007 3.56235e-20)
(-31.3887 89.5042 4.46866e-21)
(-26.9305 77.9684 6.65838e-22)
(-28.3568 81.7477 -1.74351e-20)
(-24.7399 72.7789 1.10204e-21)
(-25.7108 74.9094 3.99049e-20)
(-23.5227 71.2746 4.36666e-21)
(-24.0215 71.6044 0)
(-22.9843 72.6339 -7.00701e-20)
(-23.1974 71.6168 7.7928e-20)
(-22.8988 76.126 -7.00037e-20)
(-22.9018 74.1747 6.96858e-20)
(-23.0106 80.9125 -1.04873e-19)
(-22.9414 78.3825 1.39291e-19)
(-23.2191 86.863 2.88061e-19)
(-23.1025 83.7373 -2.96013e-19)
(-23.4851 93.8237 -1.64059e-20)
(-23.3513 90.2452 -5.61748e-19)
(-23.7149 101.476 -6.96205e-20)
(-23.6082 97.5713 5.58381e-19)
(-23.8024 105.502 -1.04464e-18)
(-19.3957 105.291 0)
(-21.7987 105.395 1.60369e-18)
(-13.3137 105.115 -5.5778e-19)
(-16.5639 105.196 5.57827e-19)
(-5.75422 105.012 1.56573e-19)
(-9.69167 105.053 -1.74254e-20)
(2.48189 104.994 -6.95812e-20)
(-1.6465 104.993 -3.48452e-20)
(10.5699 105.055 -4.34829e-21)
(6.59934 105.014 2.12555e-22)
(17.507 105.188 1.11467e-18)
(14.2264 105.114 4.35737e-21)
(22.7886 105.36 -3.56208e-20)
(20.3645 105.272 0)
(24.8125 105.448 3.48857e-20)
(24.6459 97.5502 5.57964e-19)
(24.7391 101.438 -5.22831e-20)
(24.4175 90.2626 2.79022e-19)
(24.5363 93.8207 -8.316e-19)
(24.2051 83.8069 1.04825e-19)
(24.3024 86.9059 0)
(24.0889 78.4784 4.34363e-20)
(24.1341 81.0014 -2.09088e-19)
(24.1088 74.2771 1.74992e-20)
(24.0745 76.2232 0)
(24.4717 71.7317 -6.92277e-20)
(24.2244 72.7452 7.00723e-20)
(25.3686 71.6846 8.72145e-20)
(24.8355 71.3713 -7.00982e-20)
(27.1027 74.9652 1.57322e-19)
(26.1129 72.8424 -1.41536e-19)
(29.7508 81.9137 -1.39957e-19)
(28.3304 78.0499 1.42459e-19)
(32.7151 90.0721 2.85529e-19)
(31.2625 86.128 3.55805e-20)
(34.6776 93.9111 5.63517e-19)
(33.9791 93.0465 3.3068e-21)
(35.3043 91.8704 1.13287e-18)
(35.0143 93.2011 0)
(35.883 88.5385 -1.13046e-18)
(35.5836 90.3063 -9.01809e-22)
(36.2061 86.5999 4.49684e-18)
(38.3613 77.0014 -1.12626e-18)
(37.401 80.6619 -4.51676e-21)
(37.8761 78.8096 2.24548e-18)
(39.2212 73.499 -1.41681e-18)
(38.8201 75.2295 1.39921e-18)
(39.9881 70.2501 2.56657e-17)
(39.5697 71.7701 1.03686e-18)
(41.4661 67.144 -1.32536e-17)
(40.757 68.8561 1.70953e-17)
(42.8065 64.1479 1.52842e-17)
(42.1444 65.641 1.33661e-17)
(44.8968 59.6198 3.23248e-17)
(44.178 61.1996 -4.48025e-18)
(38.7687 63.2035 2.27861e-17)
(43.4657 62.6684 -1.78132e-17)
(-23.9942 73.3157 3.51724e-17)
(-45.0893 50.8253 3.91624e-16)
(-38.9084 70.2487 1.95139e-17)
(-42.7728 69.5624 0)
(-3.43735 71.8697 -2.24426e-17)
(38.3127 6.37558 -1.13132e-17)
(-25.3753 101.6 6.98169e-20)
(-25.4617 105.606 -1.11425e-18)
(22.8412 109.511 -5.57547e-19)
(24.8615 109.573 5.21957e-19)
(2.82192 70.6611 1.55526e-19)
(39.2053 61.7935 -2.69894e-17)
(9.1639 69.3772 -2.02055e-17)
(33.6343 63.5826 3.83243e-19)
(27.7997 65.1654 -7.6682e-17)
(15.503 68.0473 2.49055e-17)
(21.7621 66.6557 -3.90889e-17)
(-46.2743 34.4394 0)
(-41.5016 68.9488 8.75818e-17)
(-44.681 68.5311 0)
(-44.7488 70.4446 -8.58554e-17)
(-51.3547 117.279 -2.9762e-16)
(-53.0434 69.3644 -6.08015e-17)
(-34.6333 70.8083 -2.36225e-18)
(-29.9906 71.2339 -2.88023e-17)
(-51.7002 58.937 1.46102e-16)
(-35.4162 69.3789 2.45285e-18)
(48.8367 58.6594 0)
(48.0655 60.3125 -4.40092e-18)
(-14.5373 71.5566 6.80453e-17)
(-19.6649 71.6105 8.05814e-17)
(-39.7194 68.8405 9.83864e-18)
(-48.2399 55.272 -1.85235e-16)
(-43.6462 68.1658 -2.21922e-17)
(-42.2038 119.297 3.08057e-16)
(-40.4943 67.5095 1.50052e-17)
(-44.4904 66.8742 -7.57698e-18)
(-48.8758 39.0701 0)
(-50.9503 62.6192 5.73859e-18)
(-45.2992 65.5585 2.55602e-17)
(-48.8863 64.8813 -2.02257e-17)
(-49.6516 63.7063 -5.48431e-18)
(-47.1293 67.348 4.63569e-20)
(-48.0342 66.0934 0)
(-45.2673 70.2164 4.77958e-18)
(-46.1937 68.7406 -4.80728e-18)
(-43.4773 73.4546 -9.38554e-18)
(-44.3661 71.7897 -4.73405e-18)
(-41.7392 77.0794 -5.55754e-21)
(-42.5895 75.2434 1.63736e-17)
(-40.2022 80.9662 -2.30233e-18)
(-40.9442 78.9815 -2.31823e-18)
(-38.9013 85.1007 0)
(-39.5235 83.0061 0)
(-37.7865 88.88 0)
(-38.3249 87.0931 1.14028e-18)
(-36.7171 91.7117 0)
(-37.2571 90.4376 -5.72203e-19)
(-34.9131 90.9602 6.11114e-20)
(-36.0779 92.1735 -2.03369e-19)
(-31.5715 84.1779 -7.01332e-20)
(-33.3038 87.9758 -3.62927e-20)
(-28.2925 76.5896 0)
(-29.8481 80.1818 4.48467e-20)
(-26.0014 71.925 -7.02544e-20)
(-26.9995 73.7854 3.05004e-20)
(-24.8161 70.8564 -3.71674e-20)
(-25.2888 70.9949 7.01376e-20)
(-24.3525 72.523 -4.35444e-21)
(-24.5162 71.3702 0)
(-24.361 76.1697 2.61165e-20)
(-24.319 74.1585 4.35252e-21)
(-24.5468 81.0147 -6.96011e-20)
(-24.4438 78.4606 -1.75546e-20)
(-24.8148 87.0106 2.61017e-19)
(-24.6695 83.8637 6.98241e-20)
(-25.1251 93.9777 1.31056e-20)
(-24.9718 90.4027 -2.74692e-19)
(-25.2619 97.7128 0)
(-23.8679 109.645 1.04566e-18)
(-19.461 109.483 5.6109e-19)
(-21.8661 109.565 -1.07965e-18)
(-13.3614 109.34 -3.48016e-20)
(-16.6225 109.407 1.30807e-20)
(-5.77408 109.255 -2.08824e-19)
(-9.72619 109.289 1.7383e-20)
(2.48833 109.237 1.04419e-19)
(-1.65276 109.239 -1.30359e-20)
(10.6012 109.281 1.73839e-20)
(6.61845 109.251 2.04486e-19)
(17.5563 109.381 -5.48687e-19)
(14.2679 109.325 -2.61107e-20)
(20.4175 109.445 0)
(26.4934 105.532 -3.47644e-20)
(26.3232 97.6731 2.83159e-19)
(26.4216 101.544 1.7439e-20)
(26.0663 90.3996 1.7382e-20)
(26.2022 93.9555 -2.82683e-19)
(25.807 83.9097 -1.217e-19)
(25.9295 87.0317 1.39502e-19)
(25.6372 78.5264 1.71412e-20)
(25.71 81.0774 -6.98317e-20)
(25.5867 74.2236 8.70405e-20)
(25.59 76.2327 -3.15976e-22)
(25.8666 71.4457 1.74626e-20)
(25.6611 72.5934 0)
(26.73 71.0368 -1.58534e-19)
(26.2128 70.9128 0)
(28.495 73.8229 -1.221e-19)
(27.475 71.9587 2.80859e-19)
(31.3524 80.3589 0)
(29.7985 76.6664 -3.50211e-20)
(34.7541 88.5969 2.8609e-19)
(33.0579 84.5345 -3.51709e-20)
(37.3335 93.2702 -2.80426e-19)
(36.3072 91.9113 -5.60979e-19)
(38.129 91.5105 0)
(37.7766 92.7959 0)
(38.7925 88.1746 -1.69806e-18)
(38.4637 89.9472 5.66007e-19)
(39.5447 84.1451 -2.2585e-18)
(39.1528 86.2058 1.10591e-18)
(40.4978 80.1555 2.25533e-18)
(39.9999 82.1124 5.59637e-19)
(41.5676 76.45 0)
(41.0266 78.2723 0)
(42.628 72.976 -4.47536e-18)
(42.0974 74.6729 -2.23879e-18)
(43.8099 69.7854 0)
(43.1883 71.3137 -6.6476e-18)
(45.2419 66.5952 -2.22665e-18)
(44.5222 68.2145 0)
(46.6965 63.4809 5.63184e-19)
(45.9911 65.0212 0)
(47.4025 61.9212 -4.47238e-18)
(-41.6055 65.419 -8.89978e-20)
(-45.7204 64.5848 -8.3611e-17)
(-48.5311 68.5877 -1.41071e-16)
(-25.0087 71.493 0)
(-9.09532 71.7001 -2.42361e-17)
(-40.7548 62.0478 -1.73925e-16)
(-64.2305 65.2824 -1.44016e-16)
(14.8314 15.1467 -2.99929e-16)
(44.539 57.3411 7.83682e-17)
(-25.523 109.72 1.11546e-18)
(26.5372 109.627 6.96178e-20)
(-41.7268 71.0065 -1.83503e-16)
(-30.7633 69.7926 9.83054e-18)
(-20.497 70.2368 0)
(-15.0159 70.3638 0)
(-3.27878 70.5973 1.05361e-17)
(39.4335 60.3232 0)
(-43.6181 72.1725 0)
(-36.131 68.031 9.9997e-18)
(51.9045 59.5348 0)
(53.0442 58.0632 3.59475e-17)
(50.9199 57.8516 0)
(2.94806 69.357 -4.1096e-17)
(33.9452 62.2015 -3.71076e-17)
(28.0581 63.8372 3.80994e-17)
(-41.2633 66.1687 -1.50921e-17)
(41.8466 232.468 -8.72705e-17)
(9.30598 68.0715 0)
(-65.097 102.338 9.04679e-19)
(-46.1415 64.3209 1.58123e-17)
(-42.3669 72.6442 7.0724e-17)
(15.6898 66.7452 -3.08841e-19)
(22.0027 65.3297 0)
(-41.245 53.1673 1.9328e-16)
(-39.1408 58.5748 -1.80086e-16)
(44.987 56.0231 -4.88936e-20)
(-37.982 66.2601 -9.09822e-17)
(-36.6403 63.1833 -2.23634e-19)
(45.303 3.99122 5.71885e-18)
(-52.8301 63.8061 -3.42139e-17)
(-53.9668 62.8533 1.92774e-16)
(-50.2643 66.442 -1.96106e-20)
(-51.4365 65.1408 9.6473e-18)
(-48.1581 69.3196 4.70627e-18)
(-49.1813 67.8371 -4.74826e-18)
(-46.2254 72.5724 -2.33067e-18)
(-47.1766 70.9008 2.33303e-18)
(-44.3783 76.2399 1.15388e-18)
(-45.2851 74.3802 -2.3259e-18)
(-42.7102 80.2085 2.30152e-18)
(-43.5182 78.1829 -1.15194e-18)
(-41.2889 84.4543 -5.71454e-19)
(-41.9661 82.3077 5.72411e-19)
(-40.0709 88.3035 0)
(-40.6611 86.4914 -1.71377e-18)
(-38.8718 91.0287 0)
(-39.4888 89.8607 -2.83913e-19)
(-36.491 89.4028 -7.00961e-20)
(-38.0201 91.119 1.06346e-19)
(-32.6852 82.3489 0)
(-34.6379 86.2032 1.82423e-20)
(-29.1642 75.1274 0)
(-30.807 78.4718 4.49356e-21)
(-26.8505 71.0754 -2.72636e-22)
(-27.8393 72.6287 2.18358e-21)
(-25.7419 70.4735 3.71987e-20)
(-26.1718 70.4099 -3.48601e-20)
(-25.3799 72.4607 6.55292e-21)
(-25.483 71.1771 -2.16899e-21)
(-25.4944 76.2597 8.74019e-21)
(-25.4003 74.1923 -4.37334e-21)
(-25.7671 81.1507 -8.70987e-20)
(-25.6247 78.5786 1.73241e-20)
(-26.1055 87.1856 0)
(-25.9263 84.0211 6.97727e-20)
(-26.4663 94.1468 -2.74471e-19)
(-26.2909 90.5816 2.78322e-19)
(-26.7403 101.725 5.75064e-19)
(-26.6191 97.8621 -5.59034e-19)
(-26.8816 109.785 -5.22641e-19)
(-26.8264 105.704 5.22142e-19)
(-26.8906 114.008 5.56638e-19)
(-23.9 113.942 0)
(-25.5447 113.982 0)
(-19.5056 113.834 -8.0927e-19)
(-21.9065 113.891 5.48631e-19)
(-13.3984 113.724 -1.74116e-20)
(-16.6658 113.776 -1.56448e-19)
(-5.79092 113.654 3.48645e-20)
(-9.75355 113.683 1.73774e-20)
(2.4895 113.634 -5.00187e-20)
(-1.6598 113.638 -1.73566e-20)
(10.6196 113.661 0)
(6.62836 113.641 -1.41313e-19)
(17.5868 113.729 1.30384e-19)
(14.2937 113.69 0)
(22.8674 113.814 -1.84621e-20)
(20.4485 113.772 2.87968e-19)
(26.5428 113.873 -5.91229e-19)
(24.8784 113.849 5.14143e-20)
(27.9086 113.883 5.91733e-19)
(27.8764 105.611 5.91368e-19)
(27.9151 109.673 -1.18304e-18)
(27.6986 97.8036 -4.35766e-21)
(27.805 101.65 0)
(27.405 90.5573 -6.24519e-23)
(27.5623 94.1048 0)
(27.0859 84.0409 0)
(27.2409 87.1832 0)
(26.8473 78.6086 -1.74224e-20)
(26.9551 81.1833 0)
(26.7074 74.2147 -1.7488e-20)
(26.7583 76.2826 0)
(26.8808 71.2046 -1.73567e-20)
(26.7315 72.486 8.69869e-21)
(27.667 70.4098 1.40759e-19)
(27.1893 70.4848 -1.73658e-20)
(29.3945 72.6469 1.72723e-20)
(28.3824 71.0766 -1.39435e-19)
(32.3745 78.6523 2.44381e-19)
(30.7306 75.1969 -2.48681e-19)
(36.186 86.8577 5.66213e-19)
(34.2475 82.7211 -2.50071e-19)
(39.4771 92.3851 5.63408e-19)
(38.0175 90.4308 -8.46487e-19)
(40.5093 91.1096 5.66856e-19)
(40.1054 92.2948 -1.69109e-18)
(41.2367 87.7879 -5.64266e-18)
(40.8788 89.5648 1.13175e-18)
(42.0537 83.6669 -1.13012e-18)
(41.6236 85.7816 -3.40314e-18)
(43.103 79.5794 5.63971e-19)
(42.5518 81.5829 -3.11392e-21)
(44.3013 75.8265 4.51459e-18)
(43.6908 77.6624 -2.26379e-18)
(45.5845 72.3758 4.4639e-18)
(44.9321 74.0621 -5.6207e-18)
(47.0075 69.1409 -8.97841e-18)
(46.2834 70.7369 -1.12471e-18)
(48.4782 65.884 -2.24088e-18)
(47.7434 67.5012 8.87605e-18)
(50.1129 62.6772 1.81882e-17)
(49.2846 64.2482 0)
(50.9786 61.0914 -1.78462e-17)
(-36.1461 73.166 0)
(-38.91 71.8912 0)
(-55.1732 60.1487 2.13964e-16)
(-56.4288 54.8486 2.62674e-16)
(-50.5272 64.2334 -7.47593e-17)
(-25.7841 70.0763 0)
(-9.23898 70.5264 0)
(-34.4384 67.4619 2.82073e-16)
(39.5123 57.8373 -4.04334e-17)
(39.481 58.7817 3.83191e-17)
(-37.8408 74.7701 -2.21921e-16)
(-28.537 65.5364 1.5846e-16)
(-51.0349 32.2655 0)
(-31.4236 68.4357 -1.00507e-17)
(55.1008 58.6077 0)
(56.3695 57.0929 -1.85618e-17)
(54.5575 56.8411 4.01216e-19)
(-3.23673 69.2819 2.51195e-18)
(-21.0048 68.9325 0)
(-15.3536 69.0628 0)
(-33.9507 71.7114 -1.63657e-16)
(34.1093 60.7836 -1.89013e-17)
(50.6041 7.1639 -4.29689e-20)
(-27.9643 109.838 -5.57296e-19)
(-27.957 114.016 0)
(26.5216 118.223 5.74277e-19)
(27.8698 118.203 3.47269e-20)
(28.2519 62.4909 0)
(-12.7532 31.2308 -1.78831e-16)
(-36.8276 66.6954 9.39337e-20)
(52.3488 55.4418 -2.11913e-17)
(-43.7975 40.6544 -2.57049e-17)
(40.4379 1.48966 -5.66603e-18)
(37.3293 -5.39243 3.33081e-17)
(33.4614 -11.0159 -4.16361e-20)
(-21.288 68.1889 -4.77319e-17)
(2.99864 68.0667 -1.80175e-19)
(-24.2307 102.782 0)
(-17.0276 103.994 -1.55184e-16)
(-33.8565 75.4504 1.78965e-16)
(-79.733 -161.572 4.29553e-17)
(-31.4719 100.819 0)
(-36.1332 104.125 -2.23338e-19)
(-42.0577 64.9299 -2.055e-17)
(49.3858 55.2077 6.2793e-17)
(73.375 58.4688 2.05599e-17)
(71.521 46.9391 0)
(63.7842 50.1016 -2.0561e-17)
(65.1936 59.6626 -2.15434e-17)
(41.1552 98.5426 -3.20506e-19)
(9.41123 66.7851 1.97635e-17)
(22.1807 64.0172 -3.90976e-17)
(-47.2189 63.1255 1.451e-19)
(-39.0712 49.4171 -1.02985e-16)
(15.8484 65.4348 3.94511e-17)
(-10.1339 104.684 -1.05394e-18)
(-7.08103 109.318 3.13799e-16)
(-21.2243 108.034 1.5642e-16)
(-52.6548 61.4435 -1.24161e-16)
(-37.3346 54.7857 9.5055e-17)
(-14.0101 108.913 -3.15238e-16)
(-35.0716 59.5925 8.78506e-17)
(-32.7845 64.4019 0)
(39.9774 56.686 -9.64553e-18)
(47.4673 -1.88586 -5.70704e-18)
(45.7444 55.0767 1.01399e-17)
(-46.8649 126.646 -1.4016e-16)
(-55.0405 62.4862 4.75437e-18)
(-56.145 61.0493 0)
(-52.8061 65.4182 -2.35909e-18)
(-53.9379 64.0322 0)
(-50.5978 68.3455 -7.0349e-18)