/*--------------------------------*- C++ -*----------------------------------*\
| =========                 |                                                 |
| \\      /  F ield         | OpenFOAM: The Open Source CFD Toolbox           |
|  \\    /   O peration     | Version:  2212                                  |
|   \\  /    A nd           | Website:  www.openfoam.com                      |
|    \\/     M anipulation  |                                                 |
\*---------------------------------------------------------------------------*/
FoamFile
{
    version     2.0;
    format      ascii;
    arch        "LSB;label=32;scalar=64";
    class       volScalarField;
    location    "0.0146";
    object      k;
}
// * * * * * * * * * * * * * * * * * * * * * * * * * * * * * * * * * * * * * //

dimensions      [0 2 -2 0 0 0 0];

internalField   nonuniform List<scalar> 
31661
(
1710.19
566.082
544.259
555.26
564.909
542.754
553.919
563.798
541.262
552.61
1926.45
569.252
4785.48
974.791
1426
1641.54
1493.86
1734.31
661.596
1620.44
185.29
184.631
940.594
1828.22
524.095
178.558
1044.18
830.045
576.125
662.837
1795.4
56.1538
54.4393
662.184
535.929
1680.73
440.28
1627.13
1147.27
52.3281
84.8764
579.295
1201.47
782.594
786.797
603.107
787.479
660.648
473.211
1054.39
108.339
1307.6
612.161
659.556
1061.99
609.573
601.459
664.568
477.41
593.06
576.388
572.508
803.958
615.563
641.712
1692.62
1575.92
484.252
491.393
498.412
552.305
508.488
514.857
521.221
527.47
533.58
539.565
545.424
551.139
556.719
562.148
567.404
572.459
577.326
577.334
572.493
567.456
562.222
556.841
551.326
545.689
539.947
534.081
528.117
522.095
516.003
510.017
504.135
497.755
491.212
484.637
478.367
472.249
466.968
465.665
460.012
458.968
452.996
452.134
445.963
445.24
438.927
438.307
431.902
431.366
424.902
424.437
417.935
417.528
411.014
410.656
404.152
403.832
397.355
397.067
390.627
390.365
383.979
383.74
377.412
377.189
370.935
370.726
364.56
364.357
358.284
358.091
352.109
351.928
346.038
345.864
340.073
339.904
334.217
334.055
328.475
328.316
322.845
322.691
317.325
317.175
311.919
311.771
306.627
306.481
301.448
301.305
296.38
296.242
291.422
291.288
286.572
286.442
281.828
281.703
277.191
277.069
272.656
272.539
268.111
268.222
268.256
272.694
277.232
281.873
286.62
291.474
296.436
301.509
306.693
311.988
317.397
322.917
328.551
334.298
340.156
346.125
352.2
358.382
364.667
371.053
377.539
384.121
390.789
397.538
404.364
411.26
418.219
425.242
432.315
439.439
446.615
453.853
461.196
468.701
476.191
483.89
491.604
499.198
506.346
513.424
520.083
526.51
532.761
538.85
544.79
550.577
581.988
581.995
556.212
561.676
566.955
572.051
576.96
586.483
586.471
586.348
581.878
577.225
572.384
567.358
562.138
556.767
551.261
545.627
539.889
534.026
528.066
522.046
515.978
509.905
503.73
497.419
490.981
484.515
478.079
471.576
464.907
458.172
451.377
444.539
437.673
430.793
423.922
417.057
410.228
403.442
396.705
390.028
383.424
376.886
370.439
364.081
357.822
351.668
345.614
339.662
333.819
328.084
322.462
316.952
311.553
306.264
301.091
296.031
291.081
286.24
281.505
276.876
272.35
267.928
263.61
263.786
263.891
263.919
263.865
268.204
272.645
277.186
281.829
286.579
291.436
296.401
301.476
306.662
311.959
317.369
322.889
328.524
334.271
340.131
346.1
352.175
358.357
364.644
371.032
377.519
384.101
390.771
397.526
404.365
411.287
418.276
425.334
432.452
439.627
446.852
454.134
461.456
468.794
476.086
483.573
491.034
498.326
505.349
512.289
519.015
525.539
531.878
538.041
544.058
549.9
555.567
561.053
581.681
566.371
571.509
576.456
590.636
590.772
586.239
590.801
594.745
594.402
590.316
586.047
581.595
576.963
572.143
567.143
561.946
556.588
551.098
545.471
539.725
533.869
527.917
521.892
515.805
509.631
503.369
497.015
490.583
484.096
477.566
470.942
464.228
457.472
450.68
443.858
437.027
430.183
423.35
416.527
409.734
402.982
396.271
389.62
383.029
376.507
370.077
363.736
357.486
351.338
345.293
339.351
333.512
327.782
322.166
316.661
311.267
305.981
300.81
295.753
290.806
285.968
281.238
276.614
272.092
267.675
263.361
259.152
259.394
259.565
259.663
259.684
259.627
259.489
263.73
268.068
272.509
277.051
281.696
286.449
291.308
296.274
301.352
306.542
311.84
317.252
322.774
328.408
334.156
340.015
345.984
352.06
358.244
364.531
370.92
377.406
383.986
390.655
397.411
404.252
411.172
418.157
425.214
432.334
439.506
446.726
453.987
461.264
468.521
475.762
483.058
490.314
497.449
504.422
511.282
517.999
524.547
530.926
537.153
543.205
549.076
554.765
560.288
565.647
581.224
570.819
575.799
594.903
598.309
598.673
585.817
590.606
594.948
602.044
601.455
597.739
593.842
589.764
585.504
581.063
576.446
571.651
566.673
561.516
556.201
550.75
545.154
539.427
533.591
527.642
521.595
515.456
509.222
502.917
496.52
490.06
483.539
476.959
470.292
463.561
456.796
450.004
443.191
436.367
429.543
422.731
415.936
409.177
402.455
395.771
389.141
382.571
376.064
369.646
363.319
357.084
350.942
344.902
338.968
333.138
327.414
321.801
316.301
310.911
305.632
300.463
295.408
290.464
285.629
280.902
276.281
271.764
267.351
263.042
258.839
254.741
255.048
255.282
255.445
255.536
255.552
255.491
255.35
255.129
259.27
263.509
267.848
272.287
276.83
281.476
286.228
291.088
296.056
301.135
306.325
311.626
317.038
322.562
328.194
333.941
339.798
345.766
351.842
358.023
364.307
370.689
377.169
383.74
390.402
397.149
403.975
410.88
417.855
424.896
431.996
439.143
446.335
453.557
460.781
467.985
475.167
482.351
489.485
496.527
503.444
510.257
516.946
523.488
529.886
536.135
542.204
548.091
553.816
559.382
564.777
569.963
580.603
574.97
598.864
602.433
585.229
604.997
605.606
590.238
594.789
598.921
608.367
607.519
604.17
600.644
596.937
593.048
588.977
584.723
580.29
575.683
570.906
565.95
560.82
555.537
550.108
544.539
538.838
533.019
527.08
521.031
514.876
508.634
502.311
495.903
489.422
482.877
476.271
469.6
462.866
456.103
449.315
442.51
435.697
428.885
422.085
415.306
408.565
401.86
395.197
388.591
382.042
375.556
369.149
362.832
356.607
350.477
344.443
338.514
332.692
326.975
321.366
315.869
310.483
305.209
300.046
294.992
290.051
285.217
280.494
275.875
271.362
266.954
262.652
258.454
254.359
250.365
250.745
251.047
251.275
251.43
251.511
251.521
251.454
251.31
251.088
254.826
258.965
263.202
267.54
271.979
276.52
281.167
285.919
290.778
295.747
300.826
306.015
311.316
316.729
322.251
327.883
333.628
339.483
345.448
351.518
357.694
363.97
370.344
376.815
383.374
390.022
396.755
403.559
410.445
417.402
424.413
431.483
438.599
445.751
452.917
460.081
467.229
474.353
481.457
488.51
495.484
502.363
509.137
515.79
522.325
528.726
534.97
541.045
546.957
552.715
558.314
563.716
568.928
579.798
573.965
250.785
578.807
602.658
584.452
606.026
589.674
609.005
594.472
610.695
611.571
598.805
602.733
613.699
612.551
609.575
606.423
603.092
599.58
595.885
592.006
587.944
583.701
579.28
574.687
569.929
564.993
559.886
554.626
549.221
543.677
538.004
532.204
526.282
520.247
514.1
507.865
501.542
495.136
488.654
482.103
475.496
468.826
462.106
455.351
448.573
441.78
434.979
428.18
421.393
414.628
407.894
401.199
394.55
387.961
381.432
374.969
368.579
362.27
356.054
349.933
343.909
337.986
332.168
326.458
320.856
315.362
309.98
304.71
299.551
294.501
289.561
284.73
280.008
275.394
270.885
266.482
262.184
257.989
253.897
249.905
246.01
246.469
246.846
247.146
247.369
247.517
247.59
247.591
247.519
247.372
247.146
246.841
250.398
254.439
258.575
262.808
267.143
271.582
276.123
280.768
285.52
290.379
295.347
300.425
305.613
310.913
316.324
321.846
327.476
333.218
339.07
345.029
351.093
357.26
363.527
369.89
376.35
382.896
389.526
396.241
403.026
409.886
416.815
423.801
430.839
437.913
445.002
452.102
459.204
466.294
473.361
480.406
487.396
494.318
501.149
507.885
514.515
521.03
527.415
533.653
539.73
545.664
551.444
557.04
562.449
567.698
572.753
577.608
246.456
582.294
583.472
606.283
588.92
609.456
593.955
612.238
598.521
614.606
602.648
615.354
616.536
606.383
242.211
242.668
243.044
243.34
243.559
243.702
243.77
243.762
243.682
243.53
243.302
242.996
242.612
245.989
249.927
253.962
258.097
262.327
266.659
271.095
275.635
280.28
285.03
289.889
294.855
299.932
305.119
310.416
315.825
321.344
326.972
332.711
338.558
344.51
350.566
356.723
362.98
369.333
375.777
382.309
388.919
395.613
402.38
409.209
416.105
423.058
430.047
437.063
444.094
451.139
458.184
465.212
472.227
479.203
486.146
493.015
499.804
506.494
513.093
519.579
525.942
532.168
538.251
544.193
549.959
555.552
560.991
566.238
571.307
576.181
580.886
586.797
585.398
242.149
617.991
616.489
613.89
611.12
608.173
605.046
601.737
598.244
594.567
590.705
586.66
582.435
578.035
573.464
568.725
563.814
558.733
553.499
548.119
542.603
536.955
531.18
525.282
519.268
513.145
506.926
500.615
494.22
487.745
481.211
474.607
467.955
461.246
454.507
447.744
440.966
434.18
427.398
420.626
413.875
407.154
400.473
393.837
387.258
380.742
374.295
367.921
361.627
355.419
349.306
343.291
337.377
331.565
325.86
320.264
314.776
309.397
304.13
298.974
293.928
288.991
284.163
279.443
274.832
270.327
265.927
261.633
257.441
253.351
249.36
245.467
241.669
587.964
609.743
589.709
591.116
593.221
612.723
598.042
615.308
602.391
617.48
606.322
619.211
609.868
618.922
620.466
241.6
245.436
249.369
253.399
257.528
261.757
266.086
270.519
275.057
279.701
284.45
289.306
294.271
299.346
304.53
309.825
315.231
320.746
326.372
332.105
337.945
343.89
349.937
356.085
362.331
368.671
375.098
381.608
388.204
394.868
401.611
408.408
415.269
422.172
429.112
436.068
443.056
450.042
457.022
463.988
470.937
477.866
484.759
491.567
498.301
504.958
511.513
517.972
524.305
530.514
536.59
542.514
548.268
553.875
559.304
564.575
569.643
574.51
579.22
583.733
588.025
617.043
614.656
612.099
609.368
606.457
603.363
600.085
596.621
592.971
589.136
585.119
580.922
576.55
572.007
567.298
562.418
557.368
552.164
546.815
541.331
535.712
529.964
524.093
518.106
512.011
505.816
499.527
493.152
486.698
480.176
473.595
466.955
460.27
453.551
446.807
440.046
433.279
426.515
419.761
413.027
406.321
399.654
393.034
386.468
379.963
373.528
367.169
360.889
354.694
348.59
342.584
336.678
330.875
325.176
319.585
314.102
308.729
303.465
298.312
293.269
288.335
283.51
278.794
274.185
269.684
265.287
260.995
256.805
252.717
248.728
244.837
241.041
237.339
237.965
238.504
238.959
239.334
239.628
239.843
239.983
240.046
240.034
239.947
239.79
239.559
239.251
238.867
238.407
619.268
237.864
593.827
592.132
621.196
592.275
613.038
234.223
234.763
235.223
235.606
235.914
236.149
236.311
236.401
236.416
236.356
236.22
236.007
235.714
235.343
234.89
234.352
233.73
595.223
597.335
615.826
621.339
618.953
616.947
614.782
612.452
609.948
607.267
604.403
601.354
598.118
594.696
591.086
587.291
583.313
579.154
574.82
570.314
565.643
560.801
555.789
550.62
545.308
539.858
534.273
528.557
522.718
516.761
510.697
504.532
498.271
491.923
485.496
478.998
472.437
465.823
459.163
452.467
445.746
439.007
432.261
425.516
418.782
412.067
405.38
398.73
392.126
385.576
379.086
372.665
366.318
360.052
353.871
347.779
341.782
335.884
330.089
324.398
318.813
313.336
307.968
302.709
297.559
292.519
287.588
282.767
278.054
273.449
268.95
264.556
260.266
256.079
251.993
248.006
244.117
240.323
236.624
233.019
596.014
597.72
601.938
618.218
606.084
620.194
609.826
621.727
613.185
622.785
623.32
620.815
623.266
619.235
621.145
233.597
237.232
240.964
244.793
248.72
252.745
256.87
261.096
265.424
269.852
274.388
279.029
283.776
288.631
293.594
298.665
303.847
309.138
314.54
320.051
325.671
331.398
337.231
343.168
349.206
355.343
361.577
367.901
374.308
380.802
387.369
394.008
400.711
407.486
414.302
421.157
428.049
434.962
441.881
448.805
455.722
462.625
469.536
476.42
483.23
489.97
496.649
503.263
509.784
516.203
522.5
528.687
534.733
540.637
546.381
551.99
557.428
562.68
567.731
572.604
577.303
581.783
586.057
590.134
593.983
230.68
599.686
597.649
746.89
230.056
596.39
616.168
231.217
231.674
232.056
232.368
232.607
232.77
232.862
232.879
232.821
232.686
232.475
232.186
231.817
231.365
230.831
230.213
229.505
599.14
601.255
618.765
617.688
617.92
616.135
614.203
612.111
609.85
607.413
604.794
601.991
599.001
595.822
592.454
588.898
585.155
581.227
577.118
572.832
568.373
563.748
558.952
553.985
548.86
543.588
538.178
532.631
526.954
521.152
515.232
509.203
503.07
496.842
490.526
484.131
477.662
471.131
464.545
457.913
451.245
444.549
437.836
431.114
424.393
417.68
410.987
404.321
397.691
391.106
384.574
378.1
371.694
365.362
359.109
352.942
346.863
340.878
334.989
329.203
323.52
317.942
312.471
307.108
301.854
296.709
291.673
286.747
281.929
277.219
272.617
268.121
263.73
259.442
255.258
251.174
247.19
243.303
239.512
235.817
232.215
228.706
601.421
605.646
620.963
601.09
603.174
609.599
622.745
613.158
624.087
616.334
624.954
625.3
625.064
622.704
227.232
226.61
614.316
615.263
229.341
232.877
236.506
240.232
244.055
247.976
251.997
256.118
260.342
264.666
269.093
273.626
278.263
283.007
287.859
292.819
297.887
303.065
308.352
313.749
319.255
324.869
330.589
336.414
342.342
348.369
354.495
360.714
367.019
373.411
379.878
386.414
393.029
399.708
406.434
413.202
420.012
426.853
433.703
440.575
447.435
454.297
461.165
468.024
474.826
481.572
488.253
494.867
501.431
507.901
514.267
520.528
526.673
532.686
538.565
544.302
549.891
555.311
560.54
565.585
570.445
575.1
579.546
583.798
587.843
591.656
595.27
598.658
619.654
621.007
604.316
601.839
797.942
600.315
619.132
227.768
228.225
228.611
228.922
229.157
229.323
229.415
229.433
229.375
229.241
229.032
228.746
228.379
227.931
227.401
226.785
226.081
225.286
602.867
604.976
621.54
559.805
616.164
614.575
612.866
611.014
609.004
606.824
604.466
601.926
599.198
596.282
593.175
589.876
586.387
582.71
578.845
574.797
570.569
566.168
561.598
556.855
551.942
546.867
541.642
536.278
530.777
525.144
519.385
513.507
507.517
501.424
495.233
488.954
482.594
476.161
469.664
463.111
456.511
449.874
443.208
436.523
429.829
423.134
416.447
409.779
403.136
396.529
389.965
383.452
376.997
370.609
364.293
358.055
351.902
345.836
339.863
333.986
328.209
322.535
316.965
311.502
306.146
300.897
295.757
290.726
285.804
280.99
276.285
271.685
267.192
262.804
258.52
254.338
250.257
246.276
242.393
238.606
234.915
231.317
227.813
224.398
604.935
609.169
623.547
606.447
612.939
625.142
604.802
607.333
616.317
626.297
619.314
626.979
627.146
626.742
223.876
223.257
625.723
624.295
662.225
622.615
225.897
225.089
228.527
232.057
235.683
239.403
243.221
247.138
251.154
255.272
259.491
263.812
268.237
272.765
277.399
282.14
286.987
291.943
297.008
302.181
307.464
312.855
318.355
323.962
329.674
335.49
341.407
347.423
353.534
359.736
366.025
372.394
378.833
385.35
391.934
398.569
405.248
411.991
418.747
425.519
432.308
439.126
445.943
452.773
459.587
466.361
473.092
479.781
486.396
492.965
499.469
505.862
512.178
518.384
524.487
530.457
536.302
542.013
547.561
552.951
558.162
563.173
567.992
572.605
577.019
581.225
585.228
588.993
592.541
595.875
598.994
601.876
1289.39
607.54
604.532
143.219
595.228
604.047
621.928
224.412
224.869
225.253
225.562
225.801
225.968
226.059
226.075
226.017
225.885
225.678
225.392
225.028
224.585
224.058
223.445
222.745
221.956
221.073
606.391
608.506
624.151
605.656
549.654
613.827
612.284
610.729
609.09
607.325
605.411
603.33
601.07
598.626
595.993
593.168
590.149
586.936
583.53
579.931
576.143
572.169
568.012
563.678
559.173
554.495
549.643
544.626
539.457
534.147
528.699
523.116
517.406
511.576
505.632
499.583
493.436
487.199
480.879
474.486
468.027
461.511
454.948
448.346
441.714
435.061
428.398
421.732
415.075
408.434
401.817
395.235
388.694
382.203
375.77
369.401
363.103
356.882
350.744
344.692
338.733
332.869
327.103
321.439
315.878
310.423
305.073
299.832
294.698
289.673
284.755
279.946
275.244
270.649
266.16
261.775
257.494
253.316
249.239
245.261
241.382
237.6
233.914
230.321
226.822
223.413
220.095
608.242
612.51
625.976
609.513
616.102
627.386
610.147
619.305
628.359
606.98
610.072
622.123
628.865
628.864
220.613
219.995
628.316
627.239
625.794
623.66
222.546
221.743
224.181
227.614
231.139
234.76
238.478
242.289
246.201
250.213
254.326
258.54
262.857
267.277
271.802
276.433
281.169
286.013
290.964
296.024
301.192
306.469
311.855
317.347
322.946
328.648
334.453
340.359
346.361
352.457
358.642
364.911
371.255
377.676
384.166
390.708
397.302
403.958
410.659
417.364
424.077
430.816
437.578
444.355
451.137
457.853
464.551
471.245
477.846
484.427
490.949
497.355
503.679
509.927
516.083
522.125
528.049
533.845
539.504
545.007
550.355
555.521
560.486
565.25
569.816
574.179
578.327
582.269
585.97
589.45
592.714
595.729
598.528
601.098
603.435
615.625
609.206
605.55
620.253
220.84
607.573
624.559
221.146
221.603
221.987
222.296
222.534
222.699
222.788
222.804
222.748
222.616
222.409
222.126
221.766
221.325
220.801
220.192
219.497
218.712
217.836
216.865
609.724
611.848
626.602
609.985
609.436
609.478
608.66
607.448
606.109
604.643
603.032
601.26
599.313
597.18
594.858
592.341
589.628
586.716
583.606
580.299
576.795
573.098
569.211
565.137
560.883
556.455
551.851
547.072
542.122
537.019
531.771
526.383
520.858
515.204
509.428
503.538
497.539
491.441
485.251
478.978
472.629
466.213
459.739
453.216
446.653
440.059
433.442
426.813
420.181
413.556
406.945
400.358
393.802
387.288
380.821
374.411
368.064
361.786
355.584
349.462
343.427
337.482
331.631
325.878
320.224
314.674
309.228
303.887
298.653
293.526
288.507
283.595
278.791
274.094
269.504
265.019
260.639
256.362
252.188
248.115
244.142
240.268
236.491
232.811
229.224
225.731
222.329
219.019
215.797
611.351
615.669
628.247
612.376
619.087
629.48
610.302
612.756
622.118
630.279
612.398
624.764
630.618
217.44
216.824
607.462
611.239
630.463
629.8
628.658
626.963
624.371
219.287
218.485
217.587
219.837
223.173
226.602
230.121
233.737
237.449
241.257
245.163
249.17
253.277
257.485
261.798
266.214
270.735
275.361
280.092
284.931
289.878
294.932
300.095
305.365
310.743
316.227
321.816
327.508
333.301
339.193
345.18
351.259
357.424
363.671
369.996
376.392
382.847
389.36
395.927
402.542
409.186
415.855
422.529
429.229
435.945
442.653
449.356
455.998
462.665
469.261
475.822
482.344
488.774
495.093
501.342
507.529
513.618
519.605
525.466
531.195
536.792
542.239
547.529
552.624
557.524
562.223
566.728
571.025
575.102
578.966
582.58
585.975
589.14
592.051
594.75
597.198
599.408
601.392
603.164
609.169
620.798
604.734
615.996
216.59
610.922
627.026
217.972
218.427
218.807
219.114
219.351
219.515
219.606
219.623
219.565
219.433
219.227
218.947
218.588
218.15
217.629
217.026
216.336
215.557
214.687
213.723
212.663
612.864
615.002
628.894
604.042
603.839
603.756
603.07
602.085
600.913
599.608
598.16
596.547
594.755
592.772
590.593
588.214
585.633
582.848
579.86
576.669
573.277
569.686
565.901
561.925
557.764
553.425
548.907
544.211
539.34
534.313
529.136
523.817
518.359
512.769
507.055
501.223
495.282
489.239
483.103
476.881
470.582
464.214
457.787
451.309
444.789
438.236
431.66
425.069
418.474
411.884
405.306
398.751
392.226
385.739
379.3
372.915
366.591
360.335
354.153
348.051
342.033
336.104
330.268
324.528
318.887
313.348
307.911
302.58
297.355
292.236
287.224
282.319
277.521
272.83
268.245
263.765
259.39
255.118
250.949
246.882
242.915
239.046
235.276
231.602
228.023
224.537
221.144
217.841
214.629
211.504
614.255
618.65
630.366
604.188
610.53
615.045
621.899
631.428
615.161
624.762
632.063
214.356
213.74
614.533
627.24
613.073
632.244
631.95
606.114
610.693
631.171
629.882
627.897
625.029
216.116
215.316
214.421
213.432
215.495
218.734
222.065
225.488
229.001
232.61
236.316
240.12
244.021
248.021
252.122
256.326
260.633
265.044
269.559
274.18
278.906
283.74
288.68
293.728
298.883
304.146
309.515
314.99
320.568
326.248
332.027
337.904
343.876
349.936
356.08
362.306
368.607
374.971
381.399
387.885
394.415
400.984
407.592
414.219
420.857
427.517
434.17
440.817
447.444
454.062
460.64
467.149
473.674
480.07
486.405
492.668
498.861
504.97
510.994
516.905
522.683
528.353
533.877
539.247
544.457
549.463
554.282
558.903
563.328
567.539
571.525
575.291
578.8
582.084
585.14
587.947
590.507
592.817
594.87
596.708
598.32
599.731
600.955
607.307
616.378
601.999
621.327
212.345
614.074
629.33
214.888
215.341
215.718
216.022
216.258
216.422
216.511
216.526
216.467
216.335
216.131
215.852
215.496
215.06
214.544
213.946
213.26
212.486
211.623
210.667
209.615
208.466
615.801
617.972
631.029
597.237
597.305
597.28
597.189
596.757
596.021
595.064
593.953
592.686
591.252
589.634
587.822
585.808
583.588
581.159
578.522
575.674
572.618
569.355
565.888
562.221
558.358
554.304
550.067
545.649
541.048
536.267
531.326
526.23
520.99
515.607
510.09
504.446
498.681
492.804
486.823
480.747
474.582
468.339
462.025
455.649
449.22
442.748
436.241
429.708
423.16
416.605
410.053
403.512
396.992
390.499
384.044
377.634
371.276
364.978
358.746
352.586
346.505
340.506
334.594
328.774
323.049
317.421
311.894
306.469
301.148
295.932
290.822
285.818
280.921
276.131
271.446
266.868
262.394
258.025
253.76
249.597
245.536
241.575
237.714
233.951
230.285
226.714
223.237
219.853
216.56
213.358
210.244
207.218
610.742
616.967
621.454
632.336
604.268
597.095
617.517
624.54
633.237
211.358
210.743
617.379
627.238
629.551
616.478
633.716
633.752
614.721
633.326
612.028
632.423
602.849
608.325
630.936
628.697
625.66
213.034
212.236
211.347
210.362
209.283
211.16
214.301
217.531
220.853
224.268
227.776
231.378
235.077
238.874
242.769
246.764
250.859
255.057
259.358
263.763
268.272
272.886
277.607
282.434
287.368
292.408
297.555
302.81
308.169
313.633
319.199
324.864
330.629
336.491
342.444
348.484
354.608
360.809
367.08
373.417
379.817
386.269
392.762
399.297
405.862
412.445
419.047
425.649
432.248
438.835
445.419
451.963
458.45
464.921
471.336
477.633
483.891
490.098
496.216
502.255
508.185
513.986
519.685
525.278
530.726
536.01
541.121
546.04
550.76
555.282
559.603
563.709
567.582
571.229
574.613
577.766
580.696
583.366
585.777
587.932
589.821
591.477
592.909
594.144
595.182
596.045
596.716
603.533
621.811
616.724
597.254
208.108
617.032
631.477
211.89
212.341
212.715
213.019
213.252
213.413
213.5
213.512
213.453
213.322
213.119
212.841
212.488
212.055
211.543
210.948
210.268
209.501
208.644
207.694
206.652
205.514
204.278
610.918
618.545
620.762
617.017
611.038
633.015
604.284
596.915
588.627
589.044
589.419
589.693
589.856
589.869
589.661
589.195
588.505
587.632
586.571
585.342
583.925
582.308
580.482
578.443
576.189
573.719
571.032
568.13
565.015
561.689
558.156
554.422
550.491
546.37
542.065
537.571
532.894
528.049
523.046
517.894
512.597
507.161
501.595
495.905
490.1
484.188
478.177
472.077
465.894
459.639
453.32
446.945
440.525
434.068
427.584
421.082
414.57
408.06
401.559
395.076
388.619
382.197
375.819
369.491
363.22
357.014
350.878
344.818
338.84
332.947
327.145
321.435
315.823
310.309
304.897
299.587
294.382
289.282
284.287
279.399
274.616
269.94
265.369
260.903
256.541
252.283
248.128
244.074
240.121
236.268
232.513
228.856
225.295
221.828
218.455
215.174
211.983
208.883
205.87
202.944
619.488
624.084
634.162
208.443
207.828
619.802
627.011
629.55
619.412
634.912
635.246
618.238
631.705
635.148
616.195
634.592
613.201
633.544
609.191
631.847
597.676
604.121
629.426
626.256
210.039
209.245
208.359
207.381
206.309
205.144
203.884
206.837
209.877
213.007
216.227
219.539
222.945
226.445
230.039
233.73
237.519
241.407
245.395
249.484
253.675
257.969
262.367
266.869
271.477
276.19
281.01
285.936
290.968
296.107
301.351
306.7
312.151
317.703
323.355
329.105
334.948
340.881
346.901
353
359.175
365.418
371.726
378.093
384.508
390.969
397.465
403.985
410.528
417.081
423.631
430.175
436.713
443.227
449.696
456.134
462.52
468.827
475.067
481.259
487.374
493.413
499.355
505.17
510.886
516.509
522.001
527.34
532.514
537.524
542.335
546.94
551.341
555.537
559.516
563.257
566.76
570.002
573.013
575.781
578.289
580.531
582.514
584.227
585.679
586.921
587.961
588.796
589.435
589.919
590.287
590.55
597.987
590.804
590.888
622.251
556.698
619.8
582.313
581.117
617.284
611.126
604.258
596.689
588.16
604.192
596.407
587.628
604.101
596.103
587.072
595.815
604.008
586.535
611.211
586.058
595.564
603.941
633.473
208.975
209.426
209.8
210.101
210.331
210.488
210.572
210.585
210.524
210.394
210.19
209.914
209.562
209.132
208.624
208.034
207.359
206.598
205.746
204.806
203.773
202.646
201.423
200.104
583.015
582.692
582.598
582.436
582.18
581.786
581.177
580.354
579.315
578.067
576.551
574.763
572.71
570.388
567.798
564.957
561.868
558.533
554.947
551.119
547.065
542.8
538.326
533.648
528.764
523.704
518.506
513.138
507.616
501.975
496.246
490.421
484.481
478.449
472.346
466.168
459.937
453.64
447.279
440.865
434.422
427.948
421.454
414.958
408.457
401.961
395.482
389.029
382.607
376.226
369.894
363.617
357.403
351.255
345.181
339.185
333.272
327.449
321.717
316.08
310.541
305.103
299.767
294.534
289.405
284.382
279.465
274.653
269.948
265.348
260.853
256.463
252.177
247.993
243.912
239.932
236.052
232.273
228.591
225.005
221.516
218.121
214.821
211.612
208.495
205.467
202.529
621.104
623.375
634.856
207.127
206.336
205.455
204.483
203.42
202.265
201.018
199.678
575.508
576.264
577.077
577.906
578.712
579.455
580.13
580.744
581.233
581.598
581.826
581.84
581.641
581.23
580.618
579.806
578.81
577.619
576.22
574.606
572.772
570.713
568.431
565.925
563.197
560.248
557.08
553.7
550.11
546.317
542.327
538.148
533.776
529.214
524.478
519.578
514.526
509.324
503.978
498.498
492.891
487.166
481.33
475.393
469.362
463.246
457.055
450.798
444.483
438.119
431.716
425.284
418.831
412.367
405.902
399.443
393
386.582
380.196
373.851
367.555
361.314
355.135
349.025
342.989
337.033
331.16
325.376
319.685
314.088
308.589
303.19
297.893
292.7
287.611
282.626
277.748
272.975
268.307
263.745
259.287
254.934
250.685
246.538
242.493
238.549
234.706
230.961
227.314
223.763
220.308
216.948
213.679
210.503
207.416
204.419
201.51
198.686
621.828
626.544
629.318
621.908
635.855
636.461
621.27
631.703
205.61
204.995
636.661
619.831
633.705
636.433
617.51
635.749
614.228
634.533
609.935
632.669
604.564
630.113
598.108
626.815
590.488
622.66
617.539
574.851
585.679
611.324
562.678
574.317
622.391
533.85
567.278
595.377
603.914
635.322
572.192
573.733
573.812
574.002
574.15
574.244
574.274
574.161
573.817
573.238
572.413
571.371
570.066
568.49
566.644
564.524
562.132
559.478
556.566
553.409
549.999
546.34
542.448
538.336
534.012
529.483
524.75
519.822
514.744
509.522
504.123
498.595
492.95
487.217
481.39
475.457
469.436
463.345
457.185
450.964
444.683
438.344
431.961
425.551
419.119
412.674
406.228
399.783
393.35
386.939
380.56
374.216
367.919
361.675
355.49
349.372
343.324
337.352
331.462
325.658
319.945
314.325
308.802
303.378
298.054
292.833
287.716
282.703
277.795
272.993
268.296
263.705
259.219
254.837
250.56
246.385
242.313
238.342
234.473
230.703
227.031
223.457
219.98
216.598
213.31
210.115
207.013
204.002
201.079
198.245
206.141
206.592
206.966
207.267
207.494
207.648
207.729
207.74
207.679
207.548
207.346
207.069
206.718
206.29
205.786
205.201
204.531
203.775
202.931
201.999
200.976
199.861
198.652
197.348
195.948
623.488
625.817
561.799
524.619
628.839
623.994
636.56
637.419
563.396
564.3
565.318
566.376
567.466
568.52
569.551
570.477
571.304
572.023
572.618
573.072
573.351
573.421
573.282
572.949
572.411
571.67
570.727
569.568
568.187
566.577
564.734
562.66
560.355
557.819
555.053
552.063
548.85
545.421
541.782
537.938
533.9
529.661
525.228
520.612
515.827
510.884
505.787
500.542
495.157
489.641
484.003
478.25
472.392
466.437
460.395
454.274
448.083
441.831
435.529
429.185
422.808
416.408
409.995
403.577
397.164
390.764
384.386
378.039
371.73
365.467
359.257
353.108
347.025
341.014
335.081
329.23
323.466
317.793
312.214
306.731
301.347
296.063
290.883
285.806
280.833
275.965
271.202
266.545
261.993
257.545
253.202
248.962
244.826
240.791
236.858
233.025
229.291
225.656
222.118
218.677
215.33
212.077
208.916
205.846
202.866
199.975
197.17
194.452
623.845
631.465
204.296
203.51
202.634
201.669
200.615
199.471
198.237
196.912
195.496
202.855
202.243
573.89
574.077
585.418
637.892
622.964
633.702
637.966
621.269
635.558
637.611
618.681
636.801
615.133
635.43
610.528
633.429
604.825
630.766
597.96
627.346
589.701
623.047
558.161
617.792
611.458
624.808
546.581
544.482
628.093
625.701
638.134
203.386
203.837
204.211
204.511
204.737
204.889
204.968
204.976
204.914
204.784
204.582
204.302
203.952
203.528
203.028
202.447
201.782
201.032
200.197
199.274
198.261
197.158
195.963
194.674
193.293
191.818
804.042
551.723
552.166
553.077
554.158
555.345
556.593
557.852
559.069
560.206
561.251
562.2
563.03
563.722
564.255
564.598
564.738
564.686
564.429
563.963
563.284
562.381
561.249
559.88
558.272
556.423
554.335
552.008
549.444
546.646
543.618
540.366
536.894
533.211
529.325
525.234
520.942
516.458
511.798
506.975
501.992
496.856
491.575
486.158
480.614
474.952
469.18
463.307
457.343
451.297
445.178
438.995
432.758
426.475
420.158
413.814
407.454
401.088
394.722
388.368
382.032
375.725
369.454
363.226
357.05
350.931
344.877
338.892
332.984
327.156
321.413
315.759
310.198
304.732
299.364
294.095
288.929
283.865
278.904
274.048
269.297
264.651
260.11
255.674
251.342
247.114
242.989
238.966
235.045
231.224
227.504
223.882
220.359
216.932
213.601
210.365
207.222
204.171
201.21
198.339
195.556
192.861
190.25
625.995
630.973
559.625
560.977
562.416
563.664
564.208
564.687
565.12
565.481
565.741
565.877
565.862
565.609
565.012
564.175
563.093
561.738
560.121
558.22
556.04
553.593
550.879
547.912
544.686
541.212
537.5
533.561
529.405
525.036
520.458
515.687
510.748
505.659
500.398
494.998
489.478
483.828
478.096
472.272
466.347
460.339
454.262
448.115
441.912
435.652
429.34
422.993
416.622
410.236
403.842
397.451
391.068
384.703
378.364
372.062
365.801
359.591
353.438
347.349
341.328
335.382
329.515
323.733
318.039
312.437
306.93
301.52
296.211
291.002
285.897
280.895
275.998
271.206
266.519
261.938
257.461
253.09
248.822
244.658
240.596
236.636
232.778
229.02
225.36
221.799
218.335
214.967
211.695
208.516
205.431
202.437
199.534
196.718