/*--------------------------------*- C++ -*----------------------------------*\
| =========                 |                                                 |
| \\      /  F ield         | OpenFOAM: The Open Source CFD Toolbox           |
|  \\    /   O peration     | Version:  2212                                  |
|   \\  /    A nd           | Website:  www.openfoam.com                      |
|    \\/     M anipulation  |                                                 |
\*---------------------------------------------------------------------------*/
FoamFile
{
    version     2.0;
    format      ascii;
    arch        "LSB;label=32;scalar=64";
    class       volVectorField;
    location    "0.092";
    object      U;
}
// * * * * * * * * * * * * * * * * * * * * * * * * * * * * * * * * * * * * * //

dimensions      [0 1 -1 0 0 0 0];

internalField   nonuniform List<vector> 
24240
(
(9.44103 0.597221 1.07656e-06)
(9.44109 0.597225 -5.00296e-09)
(9.44109 0.597225 5.8486e-07)
(9.44109 0.597224 5.26484e-07)
(9.44109 0.597223 7.03705e-07)
(9.44108 0.597222 7.42052e-07)
(9.44108 0.597221 7.8109e-07)
(9.44107 0.59722 7.64805e-07)
(9.44107 0.597218 7.20596e-07)
(9.44107 0.597217 6.45105e-07)
(9.44106 0.597216 5.47015e-07)
(9.44106 0.597215 4.32786e-07)
(9.44105 0.597214 3.06378e-07)
(9.44105 0.597213 1.77593e-07)
(9.44105 0.597213 6.11693e-08)
(9.44105 0.597212 -5.99236e-08)
(9.44104 0.597212 -8.11801e-08)
(9.44104 0.597212 -3.30224e-07)
(9.44104 0.597212 4.94758e-08)
(9.44098 0.597207 -1.13703e-06)
(9.13788 0.59863 -2.15445e-07)
(9.13795 0.598635 -4.27793e-07)
(9.13795 0.598635 -5.66754e-07)
(9.13795 0.598635 -7.96229e-07)
(9.13795 0.598634 -9.26002e-07)
(9.13795 0.598634 -1.06019e-06)
(9.13795 0.598633 -1.14109e-06)
(9.13794 0.598632 -1.19664e-06)
(9.13794 0.598632 -1.21649e-06)
(9.13794 0.598631 -1.20789e-06)
(9.13794 0.59863 -1.17378e-06)
(9.13794 0.59863 -1.1175e-06)
(9.13794 0.598629 -1.04279e-06)
(9.13794 0.598628 -9.52341e-07)
(9.13793 0.598628 -8.50752e-07)
(9.13793 0.598627 -7.50331e-07)
(9.13793 0.598627 -6.19179e-07)
(9.13793 0.598626 -5.30884e-07)
(9.13793 0.598626 -3.0657e-07)
(9.13787 0.598621 -7.3523e-08)
(9.17136 0.296743 -1.44228e-07)
(9.17143 0.296746 -2.46096e-08)
(9.17143 0.296745 7.95562e-08)
(9.17142 0.296745 4.8395e-08)
(9.17142 0.296745 4.63315e-08)
(9.17142 0.296744 -2.3753e-08)
(9.17142 0.296744 -1.04949e-07)
(9.17142 0.296743 -2.15467e-07)
(9.17141 0.296742 -3.34544e-07)
(9.17141 0.296742 -4.5584e-07)
(9.17141 0.296741 -5.67399e-07)
(9.17141 0.29674 -6.59106e-07)
(9.17141 0.29674 -7.25058e-07)
(9.17141 0.296739 -7.5764e-07)
(9.1714 0.296739 -7.57644e-07)
(9.1714 0.296738 -7.28575e-07)
(9.1714 0.296738 -6.46715e-07)
(9.1714 0.296738 -5.6257e-07)
(9.1714 0.296738 -3.33971e-07)
(9.17133 0.296735 -2.76627e-08)
(8.95007 0.294682 -2.04294e-07)
(8.95013 0.294685 -6.1596e-07)
(8.95013 0.294685 -9.58377e-07)
(8.95013 0.294685 -1.30155e-06)
(8.95014 0.294685 -1.57249e-06)
(8.95014 0.294684 -1.80446e-06)
(8.95014 0.294684 -1.97048e-06)
(8.95014 0.294684 -2.08176e-06)
(8.95014 0.294684 -2.13178e-06)
(8.95014 0.294684 -2.12552e-06)
(8.95014 0.294684 -2.0656e-06)
(8.95015 0.294684 -1.95617e-06)
(8.95015 0.294684 -1.80408e-06)
(8.95015 0.294684 -1.61645e-06)
(8.95015 0.294684 -1.40239e-06)
(8.95015 0.294684 -1.17597e-06)
(8.95015 0.294684 -9.27798e-07)
(8.95015 0.294684 -6.79229e-07)
(8.95015 0.294684 -3.90527e-07)
(8.95009 0.294681 -1.51542e-07)
(8.96969 0.149455 -7.12611e-08)
(8.96976 0.149456 -4.23128e-08)
(8.96976 0.149457 -2.73459e-08)
(8.96976 0.149457 -5.73841e-08)
(8.96976 0.149457 -9.62928e-08)
(8.96976 0.149457 -1.66582e-07)
(8.96976 0.149458 -2.50795e-07)
(8.96976 0.149458 -3.4987e-07)
(8.96975 0.149459 -4.52846e-07)
(8.96975 0.149459 -5.51295e-07)
(8.96975 0.149459 -6.36693e-07)
(8.96975 0.14946 -6.99135e-07)
(8.96975 0.14946 -7.35055e-07)
(8.96975 0.14946 -7.35724e-07)
(8.96975 0.14946 -7.03058e-07)
(8.96975 0.149461 -6.35064e-07)
(8.96975 0.149461 -5.32414e-07)
(8.96975 0.149461 -3.98215e-07)
(8.96975 0.149461 -2.21822e-07)
(8.96969 0.14946 -3.79332e-08)
(8.83636 0.144558 -1.26253e-07)
(8.83642 0.144559 -3.79306e-07)
(8.83642 0.144559 -5.94458e-07)
(8.83643 0.144558 -8.11313e-07)
(8.83643 0.144558 -9.90368e-07)
(8.83643 0.144557 -1.14771e-06)
(8.83643 0.144557 -1.26922e-06)
(8.83643 0.144556 -1.35791e-06)
(8.83643 0.144556 -1.40869e-06)
(8.83643 0.144555 -1.42206e-06)
(8.83644 0.144555 -1.39733e-06)
(8.83644 0.144555 -1.33517e-06)
(8.83644 0.144554 -1.23855e-06)
(8.83644 0.144554 -1.11063e-06)
(8.83644 0.144554 -9.56421e-07)
(8.83644 0.144553 -7.8472e-07)
(8.83644 0.144553 -5.92603e-07)
(8.83644 0.144553 -4.00616e-07)
(8.83645 0.144553 -2.02156e-07)
(8.83638 0.144551 -7.14789e-08)
(8.8481 0.0647368 -1.15684e-07)
(8.84816 0.0647374 -2.77805e-07)
(8.84816 0.0647375 -4.34465e-07)
(8.84816 0.0647375 -6.0135e-07)
(8.84816 0.0647375 -7.5595e-07)
(8.84816 0.0647376 -9.03179e-07)
(8.84816 0.0647376 -1.03627e-06)
(8.84816 0.0647377 -1.15127e-06)
(8.84816 0.0647378 -1.24403e-06)
(8.84817 0.0647378 -1.31101e-06)
(8.84817 0.0647379 -1.34728e-06)
(8.84817 0.0647379 -1.3489e-06)
(8.84817 0.064738 -1.31375e-06)
(8.84817 0.064738 -1.24025e-06)
(8.84817 0.064738 -1.13037e-06)
(8.84817 0.064738 -9.85874e-07)
(8.84817 0.064738 -8.08928e-07)
(8.84817 0.064738 -6.04361e-07)
(8.84817 0.0647379 -3.64409e-07)
(8.84811 0.0647372 -1.13098e-07)
(8.78504 0.05732 -1.0759e-07)
(8.78511 0.0573206 -3.30611e-07)
(8.78511 0.0573207 -5.30488e-07)
(8.78511 0.0573209 -7.27995e-07)
(8.78511 0.0573212 -8.93663e-07)
(8.78511 0.0573215 -1.0358e-06)
(8.78511 0.0573219 -1.14619e-06)
(8.78511 0.0573222 -1.22669e-06)
(8.78512 0.0573226 -1.27572e-06)
(8.78512 0.057323 -1.29278e-06)
(8.78512 0.0573234 -1.27828e-06)
(8.78512 0.0573238 -1.23256e-06)
(8.78512 0.0573241 -1.1563e-06)
(8.78512 0.0573243 -1.05218e-06)
(8.78512 0.0573245 -9.22927e-07)
(8.78513 0.0573247 -7.78771e-07)
(8.78513 0.0573247 -6.15996e-07)
(8.78513 0.0573248 -4.56456e-07)
(8.78513 0.0573248 -2.70839e-07)
(8.78506 0.0573242 -9.72812e-08)
(8.79668 0.00365687 -4.83086e-08)
(8.79675 0.00365698 -9.06475e-08)
(8.79675 0.0036571 -1.40964e-07)
(8.79675 0.00365728 -2.08448e-07)
(8.79675 0.0036575 -2.79732e-07)
(8.79675 0.00365777 -3.54178e-07)
(8.79675 0.00365807 -4.31291e-07)
(8.79675 0.00365839 -5.09798e-07)
(8.79675 0.00365872 -5.91167e-07)
(8.79675 0.00365904 -6.68969e-07)
(8.79675 0.00365934 -7.38808e-07)
(8.79675 0.00365962 -7.99491e-07)
(8.79675 0.00365986 -8.41241e-07)
(8.79675 0.00366006 -8.58341e-07)
(8.79675 0.00366021 -8.43335e-07)
(8.79675 0.00366033 -7.97414e-07)
(8.79675 0.0036604 -7.05558e-07)
(8.79675 0.00366046 -5.79709e-07)
(8.79675 0.00366049 -3.7772e-07)
(8.79668 0.00366049 -1.14576e-07)
(8.78799 -0.0115299 -6.20069e-08)
(8.78806 -0.0115306 -1.88812e-07)
(8.78806 -0.0115316 -2.98554e-07)
(8.78806 -0.011533 -4.10603e-07)
(8.78806 -0.0115349 -5.08599e-07)
(8.78806 -0.011537 -5.94231e-07)
(8.78806 -0.0115394 -6.66475e-07)
(8.78806 -0.011542 -7.25923e-07)
(8.78806 -0.0115446 -7.7494e-07)
(8.78806 -0.0115472 -8.12446e-07)
(8.78806 -0.0115497 -8.3736e-07)
(8.78806 -0.011552 -8.46381e-07)
(8.78806 -0.0115542 -8.3482e-07)
(8.78806 -0.0115561 -8.00335e-07)
(8.78806 -0.0115577 -7.36291e-07)
(8.78806 -0.0115591 -6.52143e-07)
(8.78806 -0.0115602 -5.33344e-07)
(8.78806 -0.0115611 -4.10375e-07)
(8.78806 -0.0115617 -2.23778e-07)
(8.788 -0.0115618 -5.66671e-08)
(8.80379 -0.0557698 -4.45133e-07)
(8.80385 -0.0557706 -1.33658e-06)
(8.80386 -0.0557712 -2.17563e-06)
(8.80386 -0.0557721 -2.93637e-06)
(8.80386 -0.0557732 -3.58359e-06)
(8.80386 -0.0557745 -4.10698e-06)
(8.80387 -0.055776 -4.49602e-06)
(8.80387 -0.0557776 -4.74974e-06)
(8.80387 -0.0557792 -4.87169e-06)
(8.80388 -0.055781 -4.86729e-06)
(8.80388 -0.0557827 -4.74669e-06)
(8.80389 -0.0557843 -4.52223e-06)
(8.80389 -0.0557859 -4.20479e-06)
(8.80389 -0.0557873 -3.81214e-06)
(8.80389 -0.0557885 -3.35552e-06)
(8.8039 -0.0557896 -2.86252e-06)
(8.8039 -0.0557905 -2.32492e-06)
(8.8039 -0.0557912 -1.76385e-06)
(8.8039 -0.0557917 -1.10201e-06)
(8.80384 -0.0557914 -3.68563e-07)
(8.84696 -0.0727851 -3.27824e-07)
(8.84703 -0.0727859 -9.30802e-07)
(8.84703 -0.0727859 -1.50783e-06)
(8.84703 -0.0727859 -2.04382e-06)
(8.84703 -0.0727859 -2.51688e-06)
(8.84703 -0.0727859 -2.91694e-06)
(8.84703 -0.0727859 -3.23593e-06)
(8.84704 -0.0727859 -3.46946e-06)
(8.84704 -0.0727859 -3.61598e-06)
(8.84704 -0.0727859 -3.67385e-06)
(8.84704 -0.0727858 -3.64435e-06)
(8.84705 -0.0727858 -3.52848e-06)
(8.84705 -0.0727858 -3.32873e-06)
(8.84705 -0.0727857 -3.05386e-06)
(8.84705 -0.0727857 -2.70645e-06)
(8.84705 -0.0727856 -2.31403e-06)
(8.84705 -0.0727855 -1.86728e-06)
(8.84705 -0.0727853 -1.3983e-06)
(8.84705 -0.0727852 -8.3822e-07)
(8.84699 -0.0727843 -2.45342e-07)
(8.86384 -0.132024 -4.30789e-07)
(8.8639 -0.132025 -1.35124e-06)
(8.8639 -0.132025 -2.18603e-06)
(8.8639 -0.132025 -2.94739e-06)
(8.86391 -0.132025 -3.59497e-06)
(8.86391 -0.132025 -4.12193e-06)
(8.86391 -0.132025 -4.5156e-06)
(8.86391 -0.132025 -4.77369e-06)
(8.86392 -0.132025 -4.89707e-06)
(8.86392 -0.132025 -4.89072e-06)
(8.86392 -0.132025 -4.76258e-06)
(8.86392 -0.132025 -4.52224e-06)
(8.86393 -0.132025 -4.18087e-06)
(8.86393 -0.132025 -3.75523e-06)
(8.86393 -0.132025 -3.25785e-06)
(8.86393 -0.132025 -2.72332e-06)
(8.86393 -0.132025 -2.1453e-06)
(8.86393 -0.132025 -1.57156e-06)
(8.86394 -0.132025 -9.07561e-07)
(8.86387 -0.132024 -2.9087e-07)
(8.97297 -0.143278 -3.47243e-07)
(8.97304 -0.14328 -9.12719e-07)
(8.97304 -0.14328 -1.46364e-06)
(8.97304 -0.14328 -1.98596e-06)
(8.97304 -0.14328 -2.45802e-06)
(8.97304 -0.14328 -2.8679e-06)
(8.97304 -0.14328 -3.2057e-06)
(8.97304 -0.14328 -3.4652e-06)
(8.97304 -0.14328 -3.64199e-06)
(8.97305 -0.14328 -3.73215e-06)
(8.97305 -0.14328 -3.73259e-06)
(8.97305 -0.14328 -3.64173e-06)
(8.97305 -0.14328 -3.45815e-06)
(8.97305 -0.14328 -3.18733e-06)
(8.97305 -0.14328 -2.83034e-06)
(8.97305 -0.14328 -2.41575e-06)
(8.97305 -0.14328 -1.93586e-06)
(8.97305 -0.14328 -1.42266e-06)
(8.97305 -0.14328 -8.21887e-07)
(8.97299 -0.143278 -2.09008e-07)
(8.98117 -0.24695 -4.19948e-07)
(8.98123 -0.246952 -1.38809e-06)
(8.98123 -0.246952 -2.24406e-06)
(8.98124 -0.246952 -3.03338e-06)
(8.98124 -0.246952 -3.6997e-06)
(8.98124 -0.246952 -4.24653e-06)
(8.98124 -0.246952 -4.65326e-06)
(8.98124 -0.246952 -4.9178e-06)
(8.98125 -0.246952 -5.03874e-06)
(8.98125 -0.246952 -5.02024e-06)
(8.98125 -0.246952 -4.86971e-06)
(8.98125 -0.246952 -4.59766e-06)
(8.98126 -0.246952 -4.21725e-06)
(8.98126 -0.246952 -3.7478e-06)
(8.98126 -0.246953 -3.20872e-06)
(8.98126 -0.246953 -2.64273e-06)
(8.98126 -0.246953 -2.04326e-06)
(8.98126 -0.246953 -1.47793e-06)
(8.98126 -0.246953 -8.4305e-07)
(8.9812 -0.246951 -2.93458e-07)
(9.18038 -0.249767 -3.91804e-07)
(9.18045 -0.249769 -9.05385e-07)
(9.18045 -0.249769 -1.4356e-06)
(9.18045 -0.249769 -1.96999e-06)
(9.18045 -0.249769 -2.45785e-06)
(9.18045 -0.24977 -2.89893e-06)
(9.18045 -0.24977 -3.27106e-06)
(9.18045 -0.24977 -3.57134e-06)
(9.18045 -0.24977 -3.78907e-06)
(9.18045 -0.24977 -3.91869e-06)
(9.18045 -0.24977 -3.95391e-06)
(9.18045 -0.24977 -3.8911e-06)
(9.18045 -0.24977 -3.72746e-06)
(9.18045 -0.24977 -3.46808e-06)
(9.18045 -0.24977 -3.11752e-06)
(9.18045 -0.24977 -2.69977e-06)
(9.18045 -0.24977 -2.20418e-06)
(9.18045 -0.24977 -1.66643e-06)
(9.18045 -0.24977 -9.97495e-07)
(9.18038 -0.249768 -2.3792e-07)
(9.16851 -0.459735 -4.35387e-07)
(9.16857 -0.459739 -1.44109e-06)
(9.16857 -0.459739 -2.31813e-06)
(9.16857 -0.459739 -3.15656e-06)
(9.16858 -0.459739 -3.85753e-06)
(9.16858 -0.459739 -4.43964e-06)
(9.16858 -0.459739 -4.86901e-06)
(9.16858 -0.459739 -5.14945e-06)
(9.16858 -0.459739 -5.27518e-06)
(9.16858 -0.459739 -5.2515e-06)
(9.16859 -0.459739 -5.08613e-06)
(9.16859 -0.459739 -4.79183e-06)
(9.16859 -0.459739 -4.38633e-06)
(9.16859 -0.459739 -3.89554e-06)
(9.16859 -0.459739 -3.34203e-06)
(9.16859 -0.459739 -2.77677e-06)
(9.16859 -0.459739 -2.17569e-06)
(9.16859 -0.459739 -1.61178e-06)
(9.16859 -0.459739 -9.23303e-07)
(9.16853 -0.459735 -3.21358e-07)
(9.48295 -0.453868 -5.25287e-07)
(9.48302 -0.453872 -9.79251e-07)
(9.48302 -0.453872 -1.43005e-06)
(9.48302 -0.453871 -2.00853e-06)
(9.48302 -0.453871 -2.4767e-06)
(9.48302 -0.45387 -2.94146e-06)
(9.48302 -0.453869 -3.32213e-06)
(9.48301 -0.453868 -3.64275e-06)
(9.48301 -0.453867 -3.87878e-06)
(9.48301 -0.453866 -4.0302e-06)
(9.48301 -0.453865 -4.08866e-06)
(9.48301 -0.453864 -4.05195e-06)
(9.483 -0.453863 -3.91821e-06)
(9.483 -0.453862 -3.69358e-06)
(9.483 -0.453862 -3.37668e-06)
(9.483 -0.453861 -2.99688e-06)
(9.483 -0.453861 -2.48117e-06)
(9.48299 -0.453861 -1.94965e-06)
(9.48299 -0.453861 -1.13769e-06)
(9.48292 -0.453857 -1.9935e-07)
(9.43946 -0.895433 -4.04672e-07)
(9.43952 -0.89544 -1.07124e-06)
(9.43952 -0.89544 -1.62483e-06)
(9.43952 -0.89544 -2.25555e-06)
(9.43952 -0.895439 -2.71198e-06)
(9.43952 -0.895438 -3.13149e-06)
(9.43952 -0.895438 -3.42659e-06)
(9.43952 -0.895437 -3.63235e-06)
(9.43952 -0.895436 -3.73078e-06)
(9.43952 -0.895435 -3.73389e-06)
(9.43951 -0.895434 -3.64464e-06)
(9.43951 -0.895433 -3.47385e-06)
(9.43951 -0.895433 -3.2296e-06)
(9.43951 -0.895432 -2.9319e-06)
(9.43951 -0.895431 -2.5796e-06)
(9.43951 -0.895431 -2.22428e-06)
(9.43951 -0.895431 -1.76455e-06)
(9.43951 -0.89543 -1.39339e-06)
(9.43951 -0.895431 -7.76792e-07)
(9.43944 -0.895423 -1.89507e-07)
(9.84879 -0.882165 7.41303e-07)
(9.84885 -0.882171 -9.08194e-07)
(9.84884 -0.88217 -7.70283e-07)
(9.84884 -0.882169 -1.43132e-06)
(9.84884 -0.882169 -1.67931e-06)
(9.84884 -0.882168 -2.02392e-06)
(9.84883 -0.882168 -2.26739e-06)
(9.84883 -0.882167 -2.4937e-06)
(9.84882 -0.882166 -2.66841e-06)
(9.84882 -0.882166 -2.80684e-06)
(9.84881 -0.882165 -2.90358e-06)
(9.84881 -0.882165 -2.96136e-06)
(9.84881 -0.882165 -2.97021e-06)
(9.8488 -0.882165 -2.93057e-06)
(9.8488 -0.882165 -2.80063e-06)
(9.84879 -0.882165 -2.63905e-06)
(9.84879 -0.882165 -2.24315e-06)
(9.84879 -0.882166 -2.17425e-06)
(9.84879 -0.882167 -1.12898e-06)
(9.84873 -0.882161 -1.50128e-06)
(8.73558 0.685056 6.84917e-07)
(8.73564 0.68506 1.05592e-06)
(8.73564 0.685059 1.91325e-06)
(8.73564 0.685058 2.42006e-06)
(8.73564 0.685056 3.00723e-06)
(8.73563 0.685054 3.38664e-06)
(8.73563 0.685051 3.67394e-06)
(8.73563 0.685049 3.80817e-06)
(8.73563 0.685047 3.82839e-06)
(8.73562 0.685045 3.73038e-06)
(8.73562 0.685042 3.5348e-06)
(8.73562 0.685041 3.26015e-06)
(8.73561 0.685039 2.91355e-06)
(8.73561 0.685037 2.5192e-06)
(8.73561 0.685036 2.10714e-06)
(8.73561 0.685035 1.67553e-06)
(8.7356 0.685034 1.30449e-06)
(8.7356 0.685034 7.70051e-07)
(8.7356 0.685034 4.58897e-07)
(8.73554 0.685029 -2.81042e-07)
(8.83325 0.694803 -2.25772e-08)
(8.83332 0.694809 -1.69573e-07)
(8.83332 0.694809 -2.09856e-07)
(8.83331 0.694809 -3.02543e-07)
(8.83331 0.694809 -2.72651e-07)
(8.83331 0.694809 -2.52313e-07)
(8.83331 0.694809 -1.78203e-07)
(8.83331 0.694808 -9.65989e-08)
(8.83331 0.694808 -6.80193e-11)
(8.8333 0.694808 9.17667e-08)
(8.8333 0.694807 1.7376e-07)
(8.8333 0.694807 2.38773e-07)
(8.8333 0.694806 2.79773e-07)
(8.8333 0.694806 2.99428e-07)
(8.83329 0.694805 2.93702e-07)
(8.83329 0.694805 2.54736e-07)
(8.83329 0.694804 2.23723e-07)
(8.83329 0.694804 1.10704e-07)
(8.83329 0.694804 7.3834e-08)
(8.83323 0.694798 -5.2337e-08)
(8.8696 0.43943 3.32262e-07)
(8.86966 0.439433 1.03815e-06)
(8.86966 0.439433 1.79235e-06)
(8.86966 0.439432 2.34545e-06)
(8.86966 0.439431 2.8347e-06)
(8.86966 0.43943 3.1335e-06)
(8.86966 0.439429 3.30465e-06)
(8.86966 0.439428 3.32535e-06)
(8.86965 0.439426 3.22922e-06)
(8.86965 0.439425 3.03274e-06)
(8.86965 0.439423 2.76177e-06)
(8.86965 0.439421 2.44294e-06)
(8.86965 0.43942 2.09434e-06)
(8.86965 0.439419 1.74337e-06)
(8.86965 0.439417 1.3996e-06)
(8.86965 0.439416 1.075e-06)
(8.86964 0.439415 7.96863e-07)
(8.86964 0.439415 5.12658e-07)
(8.86964 0.439414 3.20534e-07)
(8.86958 0.43941 5.48829e-08)
(8.79457 0.434551 -2.37698e-07)
(8.79463 0.434554 -7.38168e-07)
(8.79463 0.434554 -1.15044e-06)
(8.79463 0.434553 -1.55833e-06)
(8.79463 0.434551 -1.8721e-06)
(8.79463 0.43455 -2.13466e-06)
(8.79463 0.434548 -2.30968e-06)
(8.79463 0.434546 -2.41751e-06)
(8.79463 0.434544 -2.44901e-06)
(8.79463 0.434542 -2.41426e-06)
(8.79463 0.43454 -2.31978e-06)
(8.79463 0.434539 -2.17241e-06)
(8.79463 0.434537 -1.98367e-06)
(8.79463 0.434536 -1.76239e-06)
(8.79463 0.434535 -1.51961e-06)
(8.79463 0.434534 -1.27035e-06)
(8.79463 0.434533 -9.96454e-07)
(8.79463 0.434532 -7.2821e-07)
(8.79463 0.434532 -4.09386e-07)
(8.79457 0.434528 -1.70637e-07)
(8.81632 0.254301 1.06194e-08)
(8.81638 0.254303 1.24445e-07)
(8.81638 0.254303 2.64789e-07)
(8.81638 0.254303 3.36227e-07)
(8.81638 0.254303 3.86088e-07)
(8.81638 0.254303 3.79158e-07)
(8.81638 0.254303 3.37969e-07)
(8.81638 0.254302 2.5847e-07)
(8.81638 0.254302 1.56379e-07)
(8.81638 0.254302 4.28214e-08)
(8.81638 0.254302 -7.14491e-08)
(8.81638 0.254302 -1.71616e-07)
(8.81638 0.254302 -2.53556e-07)
(8.81638 0.254301 -3.03334e-07)
(8.81638 0.254301 -3.25392e-07)
(8.81638 0.254301 -3.08455e-07)
(8.81638 0.254301 -2.56461e-07)
(8.81638 0.254301 -1.72964e-07)
(8.81638 0.254301 -6.14171e-08)
(8.81631 0.254298 -2.40063e-08)
(8.73717 0.247056 -2.47774e-07)
(8.73724 0.247058 -7.21033e-07)
(8.73724 0.247057 -1.15351e-06)
(8.73724 0.247057 -1.56427e-06)
(8.73724 0.247056 -1.90368e-06)
(8.73724 0.247055 -2.19246e-06)
(8.73724 0.247054 -2.40582e-06)
(8.73724 0.247053 -2.55143e-06)
(8.73724 0.247052 -2.62184e-06)
(8.73724 0.24705 -2.62025e-06)
(8.73724 0.247049 -2.55208e-06)
(8.73724 0.247048 -2.41985e-06)
(8.73724 0.247047 -2.23366e-06)
(8.73725 0.247047 -2.00206e-06)
(8.73725 0.247046 -1.7328e-06)
(8.73725 0.247045 -1.44299e-06)
(8.73725 0.247045 -1.12015e-06)
(8.73725 0.247044 -7.98543e-07)
(8.73725 0.247044 -4.56723e-07)
(8.73719 0.247042 -1.58301e-07)
(8.74926 0.113692 -1.71495e-07)
(8.74932 0.113693 -4.0707e-07)
(8.74932 0.113693 -6.28179e-07)
(8.74932 0.113693 -8.56271e-07)
(8.74932 0.113693 -1.06529e-06)
(8.74932 0.113693 -1.26095e-06)
(8.74932 0.113694 -1.43242e-06)
(8.74932 0.113694 -1.5774e-06)
(8.74932 0.113694 -1.68999e-06)
(8.74932 0.113694 -1.76207e-06)
(8.74932 0.113694 -1.79291e-06)
(8.74932 0.113694 -1.77637e-06)
(8.74932 0.113694 -1.71355e-06)
(8.74932 0.113694 -1.60189e-06)
(8.74933 0.113694 -1.44528e-06)
(8.74933 0.113694 -1.24571e-06)
(8.74933 0.113694 -1.00156e-06)
(8.74933 0.113694 -7.24108e-07)
(8.74933 0.113694 -4.07395e-07)
(8.74926 0.113693 -1.14711e-07)
(8.70861 0.100821 -2.16027e-07)
(8.70867 0.100822 -6.55137e-07)
(8.70867 0.100822 -1.05494e-06)
(8.70867 0.100822 -1.43147e-06)
(8.70867 0.100822 -1.74726e-06)
(8.70867 0.100822 -2.01274e-06)
(8.70867 0.100821 -2.21221e-06)
(8.70868 0.100821 -2.34886e-06)
(8.70868 0.100821 -2.41924e-06)
(8.70868 0.100821 -2.42368e-06)
(8.70868 0.100821 -2.36689e-06)
(8.70868 0.100821 -2.25115e-06)
(8.70868 0.100821 -2.08304e-06)
(8.70868 0.100821 -1.87101e-06)
(8.70868 0.100821 -1.61974e-06)
(8.70868 0.100821 -1.34918e-06)
(8.70868 0.100821 -1.04405e-06)
(8.70868 0.100821 -7.46829e-07)
(8.70868 0.100821 -4.11922e-07)
(8.70862 0.10082 -1.31098e-07)
(8.71778 0.000980553 -1.77423e-07)
(8.71784 0.000980525 -4.29516e-07)
(8.71784 0.000980387 -6.78067e-07)
(8.71784 0.000980207 -9.20118e-07)
(8.71785 0.000979971 -1.14003e-06)
(8.71785 0.0009797 -1.33541e-06)
(8.71785 0.000979396 -1.50126e-06)
(8.71785 0.000979072 -1.63815e-06)
(8.71785 0.000978736 -1.74382e-06)
(8.71785 0.000978395 -1.81163e-06)
(8.71785 0.000978058 -1.84466e-06)
(8.71785 0.00097773 -1.83934e-06)
(8.71785 0.000977418 -1.79165e-06)
(8.71786 0.000977131 -1.70261e-06)
(8.71786 0.000976872 -1.56362e-06)
(8.71786 0.000976655 -1.38358e-06)
(8.71786 0.000976474 -1.14029e-06)
(8.71786 0.000976352 -8.65025e-07)
(8.71786 0.000976261 -4.93048e-07)
(8.71779 0.000976242 -1.13282e-07)
(8.71571 -0.0240002 -2.82556e-07)
(8.71578 -0.0240009 -8.31055e-07)
(8.71578 -0.0240019 -1.3372e-06)
(8.71578 -0.0240034 -1.80231e-06)
(8.71578 -0.0240052 -2.20127e-06)
(8.71578 -0.0240073 -2.53013e-06)
(8.71578 -0.0240097 -2.77842e-06)
(8.71578 -0.0240122 -2.94721e-06)
(8.71579 -0.0240148 -3.03598e-06)
(8.71579 -0.0240174 -3.04481e-06)
(8.71579 -0.0240199 -2.97964e-06)
(8.71579 -0.0240223 -2.84338e-06)
(8.71579 -0.0240244 -2.64062e-06)
(8.71579 -0.0240264 -2.38265e-06)
(8.71579 -0.0240281 -2.07e-06)
(8.7158 -0.0240295 -1.731e-06)
(8.7158 -0.0240307 -1.3413e-06)
(8.7158 -0.0240316 -9.61477e-07)
(8.7158 -0.0240322 -5.04579e-07)
(8.71573 -0.0240322 -1.19082e-07)
(8.72766 -0.111479 -5.58649e-07)
(8.72773 -0.11148 -1.66083e-06)
(8.72773 -0.11148 -2.69772e-06)
(8.72773 -0.111481 -3.64015e-06)
(8.72773 -0.111482 -4.44785e-06)
(8.72773 -0.111482 -5.10664e-06)
(8.72773 -0.111483 -5.60115e-06)
(8.72773 -0.111485 -5.92829e-06)
(8.72773 -0.111486 -6.09056e-06)
(8.72773 -0.111487 -6.09344e-06)
(8.72773 -0.111488 -5.94857e-06)
(8.72773 -0.111489 -5.66982e-06)
(8.72773 -0.11149 -5.27192e-06)
(8.72773 -0.111491 -4.77653e-06)
(8.72773 -0.111492 -4.19417e-06)
(8.72773 -0.111493 -3.56004e-06)
(8.72773 -0.111493 -2.84827e-06)
(8.72773 -0.111494 -2.11209e-06)
(8.72773 -0.111494 -1.25307e-06)
(8.72767 -0.111493 -3.85423e-07)
(8.76641 -0.137464 -4.96816e-07)
(8.76648 -0.137466 -1.37039e-06)
(8.76648 -0.137466 -2.2017e-06)
(8.76648 -0.137466 -2.96301e-06)
(8.76648 -0.137466 -3.62792e-06)
(8.76648 -0.137466 -4.17918e-06)
(8.76648 -0.137466 -4.604e-06)
(8.76648 -0.137466 -4.89648e-06)
(8.76648 -0.137466 -5.05516e-06)
(8.76648 -0.137467 -5.07939e-06)
(8.76648 -0.137467 -4.97482e-06)
(8.76648 -0.137467 -4.74802e-06)
(8.76648 -0.137467 -4.40735e-06)
(8.76648 -0.137467 -3.97313e-06)
(8.76648 -0.137467 -3.44944e-06)
(8.76648 -0.137467 -2.87915e-06)
(8.76648 -0.137467 -2.2383e-06)
(8.76648 -0.137466 -1.59709e-06)
(8.76648 -0.137466 -8.79407e-07)
(8.76642 -0.137465 -2.06171e-07)
(8.77538 -0.24919 -5.57439e-07)
(8.77544 -0.249192 -1.74242e-06)
(8.77544 -0.249192 -2.82915e-06)
(8.77544 -0.249191 -3.81856e-06)
(8.77544 -0.249191 -4.6588e-06)
(8.77544 -0.249191 -5.34677e-06)
(8.77544 -0.24919 -5.85871e-06)
(8.77544 -0.24919 -6.19252e-06)
(8.77544 -0.24919 -6.3467e-06)
(8.77544 -0.249189 -6.32748e-06)
(8.77544 -0.249189 -6.14681e-06)
(8.77544 -0.249188 -5.8188e-06)
(8.77544 -0.249188 -5.36195e-06)
(8.77544 -0.249188 -4.80048e-06)
(8.77544 -0.249188 -4.15082e-06)
(8.77544 -0.249187 -3.45288e-06)
(8.77544 -0.249187 -2.68275e-06)
(8.77544 -0.249187 -1.92722e-06)
(8.77544 -0.249187 -1.08169e-06)
(8.77538 -0.249185 -3.33043e-07)
(8.8606 -0.264863 -4.69494e-07)
(8.86067 -0.264865 -1.199e-06)
(8.86067 -0.264865 -1.89504e-06)
(8.86067 -0.264865 -2.54789e-06)
(8.86067 -0.264865 -3.12655e-06)
(8.86067 -0.264865 -3.61766e-06)
(8.86067 -0.264865 -4.00534e-06)
(8.86067 -0.264864 -4.28367e-06)
(8.86067 -0.264864 -4.44708e-06)
(8.86067 -0.264864 -4.4935e-06)
(8.86067 -0.264864 -4.42363e-06)
(8.86067 -0.264863 -4.24091e-06)
(8.86067 -0.264863 -3.9504e-06)
(8.86066 -0.264863 -3.56742e-06)
(8.86066 -0.264862 -3.09522e-06)
(8.86066 -0.264862 -2.57086e-06)
(8.86066 -0.264862 -1.97326e-06)
(8.86066 -0.264862 -1.3727e-06)
(8.86066 -0.264861 -7.17457e-07)
(8.8606 -0.264859 -1.26208e-07)
(8.85917 -0.431717 -5.20412e-07)
(8.85924 -0.43172 -1.68413e-06)
(8.85924 -0.43172 -2.71808e-06)
(8.85924 -0.43172 -3.66518e-06)
(8.85924 -0.431719 -4.45053e-06)
(8.85924 -0.431719 -5.1009e-06)
(8.85924 -0.431718 -5.57535e-06)
(8.85924 -0.431717 -5.87633e-06)
(8.85924 -0.431717 -5.99801e-06)
(8.85924 -0.431716 -5.94856e-06)
(8.85924 -0.431716 -5.73978e-06)
(8.85924 -0.431715 -5.38833e-06)
(8.85924 -0.431715 -4.91716e-06)
(8.85924 -0.431714 -4.3509e-06)
(8.85924 -0.431714 -3.71342e-06)
(8.85924 -0.431714 -3.04233e-06)
(8.85924 -0.431713 -2.30409e-06)
(8.85924 -0.431713 -1.60454e-06)
(8.85924 -0.431713 -8.35357e-07)
(8.85917 -0.431709 -2.56932e-07)
(8.98507 -0.434826 -3.88583e-07)
(8.98513 -0.43483 -9.30623e-07)
(8.98513 -0.43483 -1.41103e-06)
(8.98513 -0.434829 -1.91485e-06)
(8.98513 -0.434829 -2.36328e-06)
(8.98513 -0.434828 -2.76326e-06)
(8.98513 -0.434828 -3.08637e-06)
(8.98513 -0.434827 -3.33794e-06)
(8.98513 -0.434827 -3.50389e-06)
(8.98513 -0.434826 -3.58322e-06)
(8.98513 -0.434825 -3.56991e-06)
(8.98512 -0.434824 -3.46499e-06)
(8.98512 -0.434824 -3.2667e-06)
(8.98512 -0.434823 -2.9854e-06)
(8.98512 -0.434822 -2.6237e-06)
(8.98512 -0.434822 -2.2086e-06)
(8.98512 -0.434821 -1.71583e-06)
(8.98512 -0.434821 -1.1997e-06)
(8.98512 -0.434821 -5.81424e-07)
(8.98505 -0.434817 -8.06752e-08)
(8.96497 -0.680816 -4.46738e-07)
(8.96503 -0.680822 -1.48189e-06)
(8.96503 -0.680822 -2.30485e-06)
(8.96503 -0.680821 -3.10058e-06)
(8.96503 -0.68082 -3.74599e-06)
(8.96503 -0.680819 -4.27561e-06)
(8.96503 -0.680817 -4.64008e-06)
(8.96503 -0.680816 -4.85716e-06)
(8.96503 -0.680814 -4.9161e-06)
(8.96503 -0.680813 -4.83072e-06)
(8.96502 -0.680811 -4.61283e-06)
(8.96502 -0.68081 -4.28129e-06)
(8.96502 -0.680809 -3.85837e-06)
(8.96502 -0.680808 -3.37372e-06)
(8.96502 -0.680807 -2.84304e-06)
(8.96502 -0.680806 -2.31214e-06)
(8.96502 -0.680806 -1.72069e-06)
(8.96502 -0.680806 -1.15184e-06)
(8.96502 -0.680806 -4.9779e-07)
(8.96495 -0.6808 -1.55209e-07)
(9.06841 -0.671397 -1.56978e-07)
(9.06847 -0.671402 -2.81248e-07)
(9.06847 -0.671401 -2.79983e-07)
(9.06847 -0.6714 -4.42628e-07)
(9.06847 -0.671399 -5.25025e-07)
(9.06847 -0.671397 -6.75924e-07)
(9.06846 -0.671395 -8.05161e-07)
(9.06846 -0.671393 -9.55773e-07)
(9.06846 -0.671391 -1.09752e-06)
(9.06846 -0.671389 -1.23434e-06)
(9.06846 -0.671387 -1.35047e-06)
(9.06845 -0.671385 -1.44042e-06)
(9.06845 -0.671383 -1.4848e-06)
(9.06845 -0.671381 -1.48546e-06)
(9.06845 -0.671379 -1.41129e-06)
(9.06845 -0.671378 -1.2991e-06)
(9.06844 -0.671377 -1.05124e-06)
(9.06844 -0.671376 -8.29971e-07)
(9.06844 -0.671375 -4.12154e-07)
(9.06838 -0.671369 -8.98856e-08)
(9.01483 -1.0329 -1.02411e-07)
(9.01489 -1.0329 -5.53337e-07)
(9.01489 -1.0329 -7.90961e-07)
(9.01489 -1.0329 -1.1107e-06)
(9.01488 -1.0329 -1.23802e-06)
(9.01488 -1.0329 -1.36825e-06)
(9.01488 -1.0329 -1.39924e-06)
(9.01488 -1.0329 -1.39158e-06)
(9.01487 -1.0329 -1.3264e-06)
(9.01487 -1.0329 -1.22681e-06)
(9.01487 -1.0329 -1.09841e-06)
(9.01486 -1.0329 -9.53476e-07)
(9.01486 -1.03289 -7.95226e-07)
(9.01486 -1.03289 -6.42053e-07)
(9.01485 -1.03289 -4.69423e-07)
(9.01485 -1.03289 -3.43963e-07)
(9.01485 -1.03289 -1.2297e-07)
(9.01485 -1.03289 -9.34997e-08)
(9.01485 -1.03289 1.4713e-07)
(9.01478 -1.03288 6.17634e-08)
(8.84339 -0.985404 -8.28038e-07)
(8.84345 -0.985411 1.38038e-08)
(8.84344 -0.985409 4.4187e-07)
(8.84344 -0.985409 4.58798e-07)
(8.84344 -0.985408 6.75091e-07)
(8.84344 -0.985406 7.36918e-07)
(8.84343 -0.985405 8.11386e-07)
(8.84343 -0.985404 8.04948e-07)
(8.84342 -0.985402 7.55898e-07)
(8.84342 -0.985401 6.44081e-07)
(8.84341 -0.9854 4.8358e-07)
(8.84341 -0.985399 2.78124e-07)
(8.84341 -0.985399 5.64831e-08)
(8.8434 -0.985398 -1.68379e-07)
(8.8434 -0.985398 -3.24962e-07)
(8.84339 -0.985398 -4.72668e-07)
(8.84339 -0.985398 -4.29466e-07)
(8.84339 -0.985399 -6.06082e-07)
(8.84339 -0.9854 -3.22856e-07)
(8.84333 -0.985393 6.47595e-07)
(8.90503 0.752734 8.30599e-07)
(8.90509 0.75274 1.28353e-06)
(8.90509 0.752739 2.7751e-06)
(8.90509 0.752737 3.68524e-06)
(8.90509 0.752735 4.63832e-06)
(8.90509 0.752733 5.29298e-06)
(8.90509 0.752731 5.81356e-06)
(8.90508 0.752728 6.11694e-06)
(8.90508 0.752726 6.25075e-06)
(8.90508 0.752723 6.20604e-06)
(8.90508 0.752721 6.00459e-06)
(8.90508 0.752718 5.67212e-06)
(8.90507 0.752716 5.22506e-06)
(8.90507 0.752714 4.68423e-06)
(8.90507 0.752712 4.09544e-06)
(8.90507 0.75271 3.43709e-06)
(8.90507 0.752709 2.85081e-06)
(8.90507 0.752708 2.05094e-06)
(8.90507 0.752707 1.62853e-06)
(8.90501 0.752701 7.35243e-08)
(8.7632 0.759276 -1.84075e-07)
(8.76326 0.759281 1.87821e-07)
(8.76326 0.759281 6.45142e-07)
(8.76326 0.75928 9.2985e-07)
(8.76326 0.759279 1.23809e-06)
(8.76326 0.759277 1.4429e-06)
(8.76326 0.759276 1.62312e-06)
(8.76326 0.759274 1.73793e-06)
(8.76326 0.759272 1.80717e-06)
(8.76325 0.75927 1.81949e-06)
(8.76325 0.759268 1.78152e-06)
(8.76325 0.759267 1.69647e-06)
(8.76325 0.759265 1.56401e-06)
(8.76325 0.759263 1.3947e-06)
(8.76325 0.759262 1.20334e-06)
(8.76325 0.75926 9.7677e-07)
(8.76325 0.759259 7.85372e-07)
(8.76325 0.759258 5.59539e-07)
(8.76325 0.759258 4.5926e-07)
(8.76319 0.759252 3.2256e-07)
(8.80078 0.478709 2.42541e-08)
(8.80085 0.478712 8.0524e-07)
(8.80085 0.478711 1.50499e-06)
(8.80085 0.47871 2.02928e-06)
(8.80085 0.478709 2.51689e-06)
(8.80085 0.478707 2.82712e-06)
(8.80085 0.478705 3.03887e-06)
(8.80085 0.478702 3.12007e-06)
(8.80085 0.4787 3.10081e-06)
(8.80085 0.478698 2.99033e-06)
(8.80085 0.478695 2.80596e-06)
(8.80085 0.478693 2.56968e-06)
(8.80085 0.478691 2.29084e-06)
(8.80085 0.478689 1.9914e-06)
(8.80084 0.478687 1.68365e-06)
(8.80084 0.478686 1.37092e-06)
(8.80084 0.478684 1.10375e-06)
(8.80084 0.478683 8.0111e-07)
(8.80084 0.478683 5.53206e-07)
(8.80078 0.478679 3.55213e-07)
(8.70412 0.47763 -3.01311e-07)
(8.70418 0.477633 -6.79004e-07)
(8.70418 0.477633 -1.0049e-06)
(8.70418 0.477632 -1.33995e-06)
(8.70418 0.477631 -1.61241e-06)
(8.70418 0.47763 -1.85289e-06)
(8.70418 0.477628 -2.02601e-06)
(8.70418 0.477627 -2.14763e-06)
(8.70418 0.477625 -2.20584e-06)
(8.70418 0.477623 -2.20689e-06)
(8.70418 0.477622 -2.15467e-06)
(8.70418 0.47762 -2.05385e-06)
(8.70418 0.477619 -1.91411e-06)
(8.70418 0.477618 -1.74197e-06)
(8.70418 0.477616 -1.54117e-06)
(8.70418 0.477615 -1.32267e-06)
(8.70418 0.477615 -1.05189e-06)
(8.70418 0.477614 -7.4612e-07)
(8.70418 0.477614 -4.0316e-07)
(8.70412 0.47761 -1.0201e-07)
(8.72442 0.275838 -4.11055e-08)
(8.72448 0.27584 1.42711e-07)
(8.72448 0.27584 3.19486e-07)
(8.72448 0.27584 4.34484e-07)
(8.72448 0.27584 5.17418e-07)
(8.72448 0.275839 5.39677e-07)
(8.72448 0.275839 5.232e-07)
(8.72448 0.275839 4.64436e-07)
(8.72448 0.275838 3.79029e-07)
(8.72448 0.275838 2.79281e-07)
(8.72448 0.275838 1.73031e-07)
(8.72448 0.275837 7.58161e-08)
(8.72448 0.275837 -1.18743e-08)
(8.72448 0.275836 -7.3791e-08)
(8.72448 0.275836 -1.13099e-07)
(8.72448 0.275836 -1.11845e-07)
(8.72448 0.275836 -6.82784e-08)
(8.72448 0.275835 4.00272e-09)
(8.72448 0.275835 7.3115e-08)
(8.72442 0.275833 7.53268e-08)
(8.66217 0.269846 -2.79384e-07)
(8.66223 0.269848 -7.54647e-07)
(8.66223 0.269847 -1.20403e-06)