/*--------------------------------*- C++ -*----------------------------------*\
| =========                 |                                                 |
| \\      /  F ield         | OpenFOAM: The Open Source CFD Toolbox           |
|  \\    /   O peration     | Version:  2212                                  |
|   \\  /    A nd           | Website:  www.openfoam.com                      |
|    \\/     M anipulation  |                                                 |
\*---------------------------------------------------------------------------*/
FoamFile
{
    version     2.0;
    format      ascii;
    arch        "LSB;label=32;scalar=64";
    class       volVectorField;
    location    "0.000138";
    object      U;
}
// * * * * * * * * * * * * * * * * * * * * * * * * * * * * * * * * * * * * * //

dimensions      [0 1 -1 0 0 0 0];

internalField   nonuniform List<vector> 
56928
(
(1.96956e-11 8.32385e-05 0.325869)
(9.68042e-12 -5.03659e-05 0.32806)
(1.90859e-11 2.75147e-05 0.327939)
(-2.79137e-11 -1.38364e-05 0.328025)
(-3.01534e-11 1.38639e-05 0.328011)
(-1.1106e-12 -4.51247e-06 0.32804)
(2.59839e-11 2.20733e-06 0.328068)
(8.55364e-12 -6.55967e-07 0.328079)
(2.44495e-11 -5.18459e-07 0.328112)
(-8.23542e-13 3.81593e-07 0.328123)
(-2.80657e-11 2.43115e-06 0.32815)
(-1.01091e-11 4.81439e-06 0.328163)
(-3.93769e-11 3.52862e-06 0.328188)
(-4.62448e-11 3.0961e-06 0.328205)
(-4.06148e-11 -4.0098e-06 0.328227)
(2.08102e-12 -5.85916e-06 0.328247)
(7.63778e-11 -1.21689e-06 0.328273)
(7.47839e-11 -1.89566e-06 0.328298)
(1.6178e-11 -4.07917e-06 0.328327)
(3.19142e-11 -2.83811e-06 0.328352)
(2.21768e-13 -2.38141e-06 0.328379)
(-5.7607e-12 -1.35973e-06 0.328405)
(-3.31466e-11 -1.36608e-06 0.328432)
(4.55844e-11 -1.34509e-06 0.328457)
(5.27429e-11 -6.30259e-07 0.328483)
(1.47501e-11 -1.28719e-06 0.328509)
(2.02912e-12 -6.81197e-06 0.328532)
(-3.46037e-11 -8.31771e-06 0.328551)
(2.77432e-11 -5.05219e-06 0.328569)
(-6.93935e-11 -6.16013e-06 0.328586)
(-7.36355e-11 3.88007e-07 0.328605)
(-1.21725e-11 1.48257e-05 0.328619)
(-5.5073e-12 2.13565e-05 0.328631)
(-2.50469e-11 2.08986e-05 0.328639)
(-1.0202e-10 1.12273e-05 0.328641)
(-1.19829e-10 2.34275e-06 0.328652)
(-9.62319e-11 5.49937e-06 0.328664)
(5.07451e-11 1.1442e-05 0.328678)
(-9.31111e-11 1.28149e-05 0.328686)
(-9.08664e-14 7.75277e-06 0.328696)
(1.11716e-10 3.17797e-06 0.328706)
(5.27342e-12 3.60674e-06 0.328712)
(1.73154e-11 7.03665e-06 0.328721)
(1.37014e-10 9.57063e-06 0.32873)
(7.60975e-10 5.22532e-06 0.328734)
(7.2009e-10 2.38748e-05 0.328755)
(5.29417e-10 -7.59909e-06 0.328701)
(1.38552e-12 0.000220109 0.332263)
(-1.48377e-12 -0.000122892 0.334348)
(-3.68718e-12 5.2604e-05 0.334349)
(-2.56054e-11 -5.72585e-05 0.334394)
(-8.5877e-12 9.6159e-07 0.334442)
(-2.57828e-12 -3.52201e-05 0.33447)
(3.93888e-12 -2.17232e-05 0.33453)
(-4.46709e-12 -2.60915e-05 0.334556)
(-2.17776e-11 -2.78225e-05 0.334617)
(-4.05206e-12 -2.28469e-05 0.334648)
(9.60741e-13 -2.39125e-05 0.334696)
(2.45878e-11 -2.03173e-05 0.334731)
(-8.34714e-14 -2.42619e-05 0.334776)
(-6.246e-12 -2.32616e-05 0.334814)
(-1.06752e-11 -3.14922e-05 0.334857)
(-2.91897e-11 -3.35449e-05 0.334896)
(-2.85884e-13 -3.03567e-05 0.334943)
(-2.07911e-11 -3.12044e-05 0.334989)
(-7.9748e-12 -3.37856e-05 0.335039)
(-3.60719e-11 -3.10625e-05 0.335087)
(-3.82983e-11 -3.04556e-05 0.335136)
(-3.90737e-12 -2.95742e-05 0.335184)
(-2.93941e-12 -2.97858e-05 0.335233)
(3.7157e-11 -2.96059e-05 0.335282)
(1.48405e-11 -2.86057e-05 0.335331)
(5.37651e-11 -2.85116e-05 0.335378)
(6.64989e-11 -3.24651e-05 0.335424)
(5.68688e-11 -3.22907e-05 0.335465)
(5.36863e-12 -2.78039e-05 0.3355)
(-4.30951e-11 -2.9008e-05 0.335533)
(5.28906e-11 -2.17948e-05 0.335563)
(7.54546e-11 -6.3545e-06 0.335594)
(4.65408e-12 2.19562e-06 0.335626)
(-7.15531e-11 9.29732e-06 0.33566)
(-1.00521e-10 2.57748e-06 0.335691)
(-1.08032e-10 -1.00398e-05 0.335724)
(-3.2205e-11 -8.11137e-06 0.335758)
(-8.34927e-11 -3.97654e-07 0.335791)
(-3.4069e-11 3.56732e-06 0.335824)
(-1.33815e-11 -1.83562e-07 0.335855)
(-1.36771e-10 -2.7821e-06 0.335888)
(-1.80497e-10 -2.31555e-06 0.335914)
(-1.47971e-11 1.84266e-07 0.335944)
(2.96622e-11 6.88655e-06 0.33597)
(1.61218e-10 -1.00766e-06 0.335998)
(4.94227e-10 5.65393e-05 0.336021)
(2.02484e-10 -6.45397e-06 0.336011)
(-3.87151e-12 0.000177137 0.343616)
(-2.11512e-11 -0.00016255 0.34559)
(-5.91832e-12 7.67977e-06 0.345736)
(-4.15442e-12 -0.000105225 0.34572)
(-4.46421e-12 -4.82243e-05 0.345828)
(-1.76952e-11 -7.66872e-05 0.34584)
(1.60748e-11 -6.78721e-05 0.345924)
(-1.91077e-11 -7.09369e-05 0.345953)
(-5.81452e-12 -7.88154e-05 0.346031)
(-1.01075e-12 -6.51301e-05 0.346071)
(1.61021e-13 -7.06111e-05 0.34613)
(1.98897e-12 -6.44207e-05 0.346176)
(-1.95622e-12 -7.11987e-05 0.346228)
(-1.23368e-12 -7.01861e-05 0.346277)
(-6.2739e-13 -7.87832e-05 0.34633)
(-6.54201e-13 -8.01075e-05 0.346378)
(3.02458e-13 -7.8626e-05 0.346433)
(-1.14626e-12 -7.89862e-05 0.346489)
(-6.98699e-12 -8.11195e-05 0.34655)
(-3.00755e-11 -7.83048e-05 0.346607)
(-7.62883e-12 -7.74693e-05 0.346668)
(2.24417e-11 -7.62752e-05 0.346725)
(-3.75958e-11 -7.69064e-05 0.346785)
(-4.55304e-11 -7.66253e-05 0.346842)
(-3.72033e-11 -7.55247e-05 0.346903)
(1.11316e-11 -7.50775e-05 0.34696)
(5.17526e-11 -7.88658e-05 0.347017)
(1.41276e-11 -7.66412e-05 0.34707)
(-2.13182e-12 -6.93842e-05 0.347115)
(-2.53555e-12 -6.64185e-05 0.347154)
(1.78563e-11 -5.87401e-05 0.347187)
(6.26908e-11 -4.47727e-05 0.347225)
(1.93006e-11 -3.5716e-05 0.347264)
(5.56702e-11 -2.655e-05 0.347308)
(-3.28997e-12 -2.91814e-05 0.347354)
(-6.61585e-11 -3.97997e-05 0.347399)
(7.01301e-11 -3.64376e-05 0.34744)
(1.95588e-14 -2.90954e-05 0.347479)
(-7.73713e-11 -2.5046e-05 0.347524)
(8.52111e-11 -2.90923e-05 0.347563)
(-3.1712e-11 -2.74596e-05 0.347611)
(-1.4177e-10 -2.56961e-05 0.34764)
(1.36979e-10 -2.48636e-05 0.347683)
(7.04333e-12 -1.83279e-05 0.347709)
(-9.23646e-14 -1.96289e-05 0.347758)
(1.12384e-10 4.69391e-05 0.347763)
(3.55104e-10 -3.83522e-06 0.347831)
(-2.6854e-13 -0.000121288 0.363299)
(-1.05739e-12 -0.000148075 0.365298)
(-2.2753e-12 -0.000132467 0.365517)
(-2.31363e-12 -0.00016079 0.365408)
(-9.19167e-13 -0.000148579 0.365539)
(1.7998e-13 -0.000137949 0.36548)
(2.01582e-11 -0.000149015 0.365553)
(7.20532e-13 -0.000143479 0.365537)
(1.86194e-12 -0.000163546 0.365584)
(1.78201e-12 -0.000136705 0.365593)
(-2.09524e-12 -0.000148372 0.365618)
(-5.19456e-12 -0.000136188 0.365638)
(-2.52111e-11 -0.000145577 0.365655)
(-6.13102e-12 -0.000146426 0.365675)
(5.89002e-12 -0.000153774 0.365695)
(2.73943e-11 -0.000152727 0.365711)
(8.39498e-12 -0.000151095 0.365732)
(2.17332e-11 -0.000153455 0.365747)
(-1.61071e-11 -0.000155391 0.365778)
(4.5527e-11 -0.000151077 0.365792)
(-2.75973e-11 -0.000149912 0.365821)
(-3.4598e-11 -0.000147284 0.365837)
(-1.44133e-11 -0.000148496 0.365862)
(-3.64817e-11 -0.000148347 0.365879)
(3.24366e-11 -0.000146751 0.365907)
(4.41963e-11 -0.00014649 0.365921)
(9.66828e-12 -0.000154686 0.365941)
(-1.26328e-11 -0.000150811 0.365965)
(-5.21755e-11 -0.000135651 0.365987)
(-1.82083e-11 -0.000120304 0.365995)
(-2.25021e-11 -0.000112285 0.365998)
(-6.78391e-11 -0.000102879 0.366004)
(-6.75014e-11 -9.36158e-05 0.366013)
(4.36692e-12 -8.83915e-05 0.366025)
(6.70882e-11 -8.82719e-05 0.366042)
(1.42052e-11 -9.13649e-05 0.366052)
(9.43476e-11 -8.29899e-05 0.366057)
(7.9854e-11 -7.80175e-05 0.36606)
(-9.01355e-11 -7.29563e-05 0.366068)
(-1.67161e-11 -8.11558e-05 0.366061)
(-1.24348e-10 -7.4671e-05 0.366087)
(-4.84787e-11 -6.87946e-05 0.366073)
(-6.14106e-11 -6.81148e-05 0.366087)
(-2.61797e-10 -6.807e-05 0.36606)
(-2.94453e-10 -5.91699e-05 0.366097)
(-4.28416e-11 -2.40932e-05 0.36605)
(6.44838e-11 -1.39313e-05 0.366147)
(1.27967e-12 -0.000335934 0.390794)
(1.21845e-11 -0.00010646 0.393072)
(-2.0117e-11 -0.000201385 0.39324)
(-2.25179e-11 -0.000142034 0.393076)
(-6.0983e-12 -0.000185885 0.393172)
(-2.08422e-11 -0.00011166 0.393037)
(-6.11071e-12 -0.000169343 0.3931)
(-1.49166e-11 -0.000131424 0.393014)
(2.51406e-11 -0.00017682 0.393018)
(2.43768e-11 -0.000133623 0.39297)
(-1.96826e-11 -0.000157896 0.392961)
(-2.62362e-12 -0.000140171 0.392932)
(-3.27891e-12 -0.000146913 0.392907)
(-2.2792e-11 -0.000150888 0.392879)
(2.03281e-11 -0.000150419 0.392857)
(3.92359e-12 -0.000151191 0.392827)
(-3.97004e-12 -0.00014784 0.392805)
(-2.80321e-11 -0.000157269 0.392765)
(-6.27418e-12 -0.000157249 0.392747)
(3.2574e-12 -0.000151563 0.392705)
(-3.19948e-12 -0.000154467 0.392686)
(-6.58519e-12 -0.000146741 0.392648)
(-4.6543e-12 -0.000148805 0.392622)
(-3.66772e-11 -0.000152563 0.392587)
(1.65758e-12 -0.000147522 0.392563)
(6.94145e-12 -0.00013779 0.392522)
(-7.63131e-12 -0.000156686 0.392493)
(-5.24683e-11 -0.000163283 0.392467)
(-1.96997e-11 -0.000136398 0.39245)
(-1.79624e-11 -0.000101594 0.392421)
(-5.65778e-11 -9.11278e-05 0.39239)
(-1.6268e-11 -8.78467e-05 0.392356)
(-4.74843e-12 -8.67548e-05 0.392323)
(1.497e-11 -8.61631e-05 0.392289)
(6.03942e-11 -8.27384e-05 0.392255)
(-5.02927e-11 -7.58633e-05 0.392215)
(4.88179e-12 -6.41184e-05 0.392173)
(-4.16779e-12 -6.17345e-05 0.392127)
(-8.0599e-11 -4.58545e-05 0.392086)
(7.87914e-11 -6.96239e-05 0.392026)
(-1.69856e-11 -6.43113e-05 0.391998)
(-7.66364e-11 -4.3805e-05 0.391936)
(-3.37287e-10 -3.12964e-05 0.391917)
(-5.28936e-11 -5.1439e-05 0.391829)
(2.3567e-10 -4.52146e-05 0.391822)
(1.4149e-10 -4.19942e-05 0.391727)
(5.99841e-10 -4.24587e-06 0.39178)
(-1.93324e-11 -0.000299818 0.424295)
(-2.44129e-11 -0.000134229 0.426912)
(-3.63703e-12 -0.000238048 0.427043)
(1.90038e-11 -0.000131948 0.426869)
(2.22708e-11 -0.00020216 0.426931)
(-1.12644e-12 -0.000125592 0.426767)
(-1.7188e-11 -0.00021622 0.426861)
(2.13034e-11 -0.000124655 0.426729)
(3.19048e-11 -0.000194941 0.426738)
(2.60809e-11 -0.000147398 0.426649)
(-1.64461e-11 -0.000188417 0.426653)
(2.85232e-11 -0.000151782 0.42659)
(4.71342e-11 -0.000161431 0.426566)
(-1.92582e-11 -0.000166394 0.426512)
(-9.42921e-12 -0.000167754 0.426483)
(-2.64103e-11 -0.000167923 0.426436)
(-9.18648e-12 -0.000162625 0.426411)
(-2.91201e-11 -0.000171273 0.426352)
(-7.44036e-12 -0.00017061 0.426314)
(-1.65736e-12 -0.000165981 0.426258)
(-5.23672e-12 -0.000171377 0.426223)
(-3.02759e-11 -0.000159691 0.426166)
(2.74031e-11 -0.000164443 0.426127)
(7.40947e-12 -0.00016627 0.426076)
(4.34024e-11 -0.000158655 0.426031)
(4.59411e-11 -0.00014835 0.425977)
(1.8777e-12 -0.000168322 0.425937)
(-4.94524e-11 -0.000174635 0.42589)
(-1.16192e-11 -0.000150678 0.425851)
(2.6876e-12 -0.000108697 0.425817)
(1.10556e-11 -9.23973e-05 0.425781)
(5.78939e-11 -8.65146e-05 0.425739)
(2.55625e-11 -8.67911e-05 0.425691)
(6.44749e-11 -8.68949e-05 0.425638)
(1.83854e-11 -8.30735e-05 0.425583)
(1.04453e-11 -7.50699e-05 0.425528)
(7.88512e-11 -5.95217e-05 0.425473)
(8.37859e-12 -5.87668e-05 0.425412)
(-8.51085e-13 -3.73922e-05 0.425358)
(-1.10505e-11 -5.95928e-05 0.425285)
(-1.40412e-10 -4.96863e-05 0.425223)
(-1.68408e-10 -4.81976e-05 0.425145)
(-5.83119e-11 -2.0558e-05 0.425136)
(-5.11075e-11 -2.22825e-05 0.425033)
(-5.16221e-11 -1.93955e-05 0.424994)
(-3.27278e-10 -3.94211e-05 0.424878)
(2.50632e-10 -1.79801e-05 0.424893)
(-6.05794e-12 -0.000273875 0.4644)
(-2.4449e-11 -0.000190358 0.467218)
(-1.01619e-11 -0.000320701 0.46744)
(-1.9045e-11 -0.000143533 0.46719)
(-5.43201e-13 -0.000241106 0.467277)
(-1.66431e-12 -0.000197816 0.46707)
(-1.44987e-12 -0.000312965 0.46718)
(3.64836e-12 -0.000150679 0.467007)
(3.14731e-12 -0.000251904 0.467031)
(-1.5885e-12 -0.000201019 0.466907)
(-2.34023e-11 -0.000262178 0.466909)
(-4.49642e-12 -0.000201818 0.466811)
(-2.13287e-11 -0.000221037 0.466798)
(-9.18809e-12 -0.000214811 0.466715)
(-2.22093e-11 -0.000224349 0.466678)
(2.20699e-11 -0.000232222 0.466608)
(8.13902e-12 -0.000225109 0.466583)
(2.2732e-11 -0.000218679 0.466505)
(-2.54636e-11 -0.000223954 0.466446)
(-6.81399e-12 -0.000222732 0.466379)
(-3.91348e-12 -0.000224301 0.466327)
(-3.41134e-11 -0.00021036 0.46625)
(-2.55948e-12 -0.000222616 0.466193)
(-1.427e-13 -0.000217887 0.466126)
(1.98692e-12 -0.000207915 0.466063)
(1.07409e-11 -0.000202169 0.465996)
(4.09532e-11 -0.000217637 0.465939)
(7.67048e-13 -0.000212059 0.465877)
(6.9278e-12 -0.000200394 0.465817)
(5.09796e-11 -0.000166147 0.465768)
(1.40862e-11 -0.000141037 0.465728)
(5.56753e-12 -0.000127731 0.465673)
(7.62037e-12 -0.000123156 0.465615)
(8.34856e-12 -0.000121931 0.465547)
(4.34524e-12 -0.000118772 0.465476)
(1.28652e-11 -0.00011259 0.4654)
(7.29794e-11 -9.70549e-05 0.465331)
(-4.66513e-11 -9.77283e-05 0.465252)
(7.71968e-11 -6.85346e-05 0.465182)
(5.53019e-12 -7.92192e-05 0.465091)
(-4.28459e-12 -6.11557e-05 0.465016)
(-4.79512e-12 -0.000101808 0.464915)
(9.75138e-11 -6.62229e-05 0.464893)
(-3.93265e-10 -2.86501e-05 0.464774)
(-1.7088e-10 -1.16613e-05 0.464733)
(-4.56646e-10 -5.06544e-05 0.464575)
(-1.1502e-10 -3.87362e-05 0.464604)
(-3.91546e-12 -0.000496615 0.51293)
(-1.98432e-11 -0.000216198 0.515891)
(-4.77787e-12 -0.000524394 0.516209)
(1.24173e-12 -0.000174996 0.515783)
(1.71526e-11 -0.000366605 0.515929)
(-1.52138e-11 -0.000302559 0.515605)
(-5.98169e-14 -0.000459316 0.515609)
(1.82244e-11 -0.00023871 0.515342)
(3.40809e-12 -0.000373129 0.515342)
(2.69001e-12 -0.00028913 0.515128)
(2.27961e-11 -0.000366328 0.515046)
(2.5793e-11 -0.000306032 0.514865)
(7.67729e-12 -0.00033942 0.514791)
(2.42354e-11 -0.000302955 0.514634)
(8.88157e-12 -0.000324794 0.514528)
(3.11731e-11 -0.00034429 0.51438)
(1.0856e-11 -0.000342686 0.514277)
(2.77891e-11 -0.000307918 0.514118)
(-4.06132e-12 -0.000323045 0.513974)
(-2.44418e-11 -0.000327982 0.513821)
(2.56025e-11 -0.000320994 0.513687)
(1.95264e-12 -0.000301226 0.513528)
(1.59531e-12 -0.000320537 0.513378)
(-8.00514e-12 -0.000314453 0.513218)
(-3.68933e-11 -0.000305795 0.513076)
(-5.41901e-12 -0.000297861 0.51293)
(-4.29425e-12 -0.000310196 0.512783)
(-5.86268e-11 -0.0002936 0.512654)
(-6.22371e-11 -0.000278435 0.512529)
(-1.69175e-11 -0.00026267 0.512405)
(-1.2886e-11 -0.000238284 0.5123)
(-3.89451e-11 -0.000212903 0.512184)
(4.84945e-11 -0.000207917 0.512062)
(1.74026e-11 -0.000201354 0.511926)
(9.61858e-12 -0.000194534 0.511777)
(8.86273e-12 -0.000189529 0.511621)
(3.38829e-11 -0.000172542 0.511468)
(8.09388e-11 -0.000173837 0.511304)
(9.61059e-12 -0.000139775 0.511149)
(-8.12769e-11 -0.000151699 0.510974)
(8.20948e-11 -0.000122122 0.510838)
(-9.17403e-11 -0.000179559 0.510655)
(1.5645e-10 -0.000140303 0.510535)
(1.23186e-11 -9.62695e-05 0.510333)
(-5.88516e-11 -5.2401e-05 0.510246)
(-4.34887e-10 -0.000128031 0.509994)
(-1.6767e-10 -6.85021e-05 0.510047)
(2.25219e-12 -0.000948329 0.569852)
(1.71303e-11 -0.000112058 0.573245)
(4.02838e-12 -0.000717711 0.573426)
(2.67065e-12 -0.000209112 0.572842)
(1.84437e-11 -0.000567163 0.572983)
(-1.66957e-13 -0.000283031 0.572467)
(-4.04245e-12 -0.000502805 0.5723)
(-2.1309e-11 -0.000325406 0.571864)
(-8.59196e-12 -0.000495199 0.571753)
(-2.74653e-11 -0.000310348 0.57139)
(-2.88206e-11 -0.000416743 0.571166)
(-2.78569e-11 -0.000363324 0.570861)
(-7.44095e-12 -0.000416385 0.570622)
(-2.06889e-11 -0.00035469 0.570348)
(1.48861e-12 -0.000380196 0.570109)
(2.79241e-11 -0.000401725 0.569829)
(7.2579e-12 -0.000407664 0.569559)
(-1.01386e-12 -0.000356128 0.56925)
(-2.77596e-11 -0.000374169 0.568956)
(-5.80789e-12 -0.000385842 0.568636)
(5.38636e-12 -0.000380578 0.568342)
(8.052e-12 -0.000345357 0.568038)
(2.86164e-11 -0.000356032 0.567723)
(-3.02416e-11 -0.00036088 0.567394)
(-7.83955e-12 -0.00036783 0.56709)
(4.34817e-12 -0.000345611 0.566794)
(3.2575e-11 -0.000354626 0.56649)
(-4.00924e-11 -0.000339942 0.566227)
(-2.61937e-11 -0.000308258 0.565985)
(-5.33157e-11 -0.000292862 0.565742)
(-1.69058e-12 -0.000279544 0.565507)
(5.18729e-11 -0.000255793 0.565275)
(2.62946e-11 -0.000252431 0.565027)
(7.3945e-11 -0.00024246 0.56476)
(7.7986e-11 -0.000230225 0.564468)
(4.45755e-11 -0.00022047 0.564167)
(1.62357e-10 -0.000198896 0.563859)
(3.8488e-11 -0.000201592 0.563547)
(1.25645e-11 -0.000164315 0.563237)
(-5.37829e-12 -0.000196445 0.562906)
(4.71735e-12 -0.000159442 0.562631)
(-1.42697e-11 -0.000198561 0.562303)
(5.19891e-11 -0.000146705 0.562039)
(2.58415e-10 -0.000135848 0.561688)
(2.90266e-10 -6.80333e-05 0.561474)
(-7.63037e-11 -0.000241554 0.561092)
(-5.84235e-10 -0.000115416 0.561084)
(-1.33729e-11 -0.00122515 0.632174)
(-2.7515e-12 7.89731e-05 0.636396)
(-5.71186e-12 -0.000670815 0.636348)
(-2.56895e-11 -0.000233703 0.635753)
(-2.49146e-11 -0.000665775 0.635737)
(-2.44782e-11 -0.000119299 0.63511)
(-8.61565e-12 -0.000422353 0.634891)
(-2.50558e-11 -0.00027391 0.634336)
(-5.57889e-12 -0.000492621 0.634092)
(-1.8719e-12 -0.00021835 0.63363)
(1.41404e-11 -0.000371964 0.63334)
(-1.69513e-11 -0.000280638 0.632945)
(2.51152e-11 -0.000353219 0.632588)
(2.81381e-11 -0.000305318 0.632223)
(4.73555e-12 -0.000324143 0.631898)
(6.17535e-12 -0.000324104 0.631525)
(2.22855e-11 -0.000330317 0.631135)
(-1.0886e-12 -0.000295109 0.630716)
(-2.47708e-12 -0.000306193 0.630329)
(4.615e-12 -0.000311915 0.629893)
(3.5058e-11 -0.000326688 0.629475)
(3.48915e-11 -0.000279114 0.629063)
(7.54346e-12 -0.0002673 0.62865)
(-2.09541e-12 -0.00027493 0.628213)
(-7.28656e-13 -0.000305772 0.627777)
(1.03213e-12 -0.000276807 0.627367)
(8.03582e-12 -0.000281677 0.626956)
(3.98434e-11 -0.000279693 0.626601)
(3.71557e-12 -0.000235912 0.626278)
(-4.74677e-12 -0.000198162 0.625959)
(-2.48236e-12 -0.000187138 0.62564)
(-6.72931e-12 -0.000174725 0.625322)
(-4.9392e-11 -0.000176187 0.62498)
(-1.49183e-12 -0.000169764 0.624614)
(1.97122e-11 -0.000159096 0.62422)
(8.88425e-11 -0.000142623 0.623817)
(1.03507e-10 -0.000112746 0.623407)
(3.32364e-11 -0.000120153 0.622993)
(9.10104e-11 -7.31541e-05 0.622578)
(1.32057e-11 -0.000127681 0.622141)
(-1.93348e-11 -8.77257e-05 0.621744)
(-1.37938e-10 -0.000122902 0.621313)
(-1.89806e-11 -5.19518e-05 0.620982)
(3.74114e-11 -5.291e-05 0.620528)
(3.58654e-11 2.12165e-05 0.620203)
(1.20142e-11 -0.000267141 0.619754)
(9.11403e-12 -0.000147591 0.619596)
(1.52048e-11 -0.00108807 0.699222)
(5.17784e-12 4.36336e-05 0.704341)
(-1.59329e-12 -0.000644687 0.704268)
(-1.76757e-11 -0.000224081 0.703728)
(1.45591e-11 -0.000661322 0.703539)
(1.11091e-13 -7.41441e-05 0.702932)
(-5.86113e-12 -0.000433855 0.702837)
(-2.42182e-11 -0.000210082 0.702266)
(-1.07046e-11 -0.000481589 0.701976)
(-2.70735e-11 -0.000200865 0.701499)
(-2.40635e-11 -0.000391618 0.701275)
(-3.61238e-12 -0.000223589 0.700863)
(3.19221e-12 -0.00030852 0.700531)
(-2.22644e-12 -0.000286958 0.700151)
(-2.77682e-11 -0.000308243 0.699835)
(-1.79326e-11 -0.000269491 0.69946)
(-6.3339e-11 -0.000274371 0.699079)
(-6.04219e-11 -0.000271654 0.698658)
(-6.81404e-12 -0.000284359 0.698288)
(2.2944e-12 -0.000255675 0.69786)
(1.49987e-12 -0.000281418 0.697431)
(-2.73138e-11 -0.000253894 0.697006)
(-6.67701e-12 -0.000234058 0.696617)
(-1.34751e-12 -0.000209111 0.696201)
(3.66611e-14 -0.000242284 0.695761)
(-2.61505e-12 -0.000225514 0.695331)
(-3.54148e-11 -0.00024176 0.694921)
(-1.11025e-11 -0.0002544 0.694566)
(-4.8827e-11 -0.000200051 0.69425)
(-1.85351e-11 -0.000143992 0.693947)
(-2.08797e-12 -0.000123295 0.693637)
(1.30679e-11 -0.000106622 0.693321)
(4.94164e-11 -0.000109815 0.692976)
(1.39755e-11 -0.000112288 0.692601)
(9.58134e-12 -0.000109182 0.692204)
(6.94007e-11 -9.47661e-05 0.691802)
(2.54126e-11 -5.88479e-05 0.691405)
(6.89808e-12 -6.53445e-05 0.690995)
(9.05381e-12 -1.24668e-05 0.69059)
(1.87783e-12 -6.43723e-05 0.690151)
(-2.10461e-12 -9.56197e-06 0.689745)
(-8.31581e-12 -9.57864e-05 0.689308)
(3.08883e-11 -9.00749e-06 0.689002)
(1.98975e-10 2.99773e-05 0.688552)
(6.89889e-11 9.83504e-05 0.688231)
(1.65044e-10 -0.00022991 0.687789)
(7.77188e-10 -0.000177488 0.68751)
(2.09982e-11 -0.000860967 0.773552)
(2.92432e-11 -0.000162364 0.779361)
(2.709e-11 -0.000745636 0.779442)
(8.66663e-12 -0.000169805 0.77886)
(2.21252e-11 -0.000615632 0.778673)
(5.0322e-13 -0.000218352 0.778059)
(-2.09282e-11 -0.00061255 0.778109)
(-8.01136e-12 -0.000166962 0.777544)
(-2.12277e-11 -0.000489865 0.777292)
(-1.03783e-14 -0.000288619 0.776823)
(2.52224e-11 -0.000525379 0.776638)
(3.23857e-11 -0.000250985 0.776234)
(3.00002e-11 -0.000361351 0.775975)
(6.54679e-12 -0.000327501 0.775613)
(-6.30228e-12 -0.000362966 0.775313)
(-3.02132e-11 -0.000302341 0.774967)
(-3.16894e-11 -0.000307166 0.774635)
(2.03901e-11 -0.000329437 0.774251)
(3.51793e-11 -0.000349585 0.7739)
(3.80014e-11 -0.000276378 0.773508)
(3.5728e-11 -0.000293908 0.773117)
(-2.17239e-12 -0.00030102 0.772712)
(-3.44789e-11 -0.00030565 0.772345)
(-6.71079e-12 -0.000244236 0.771979)
(9.09273e-12 -0.000245358 0.771588)
(4.8203e-11 -0.000226394 0.771181)
(5.51053e-11 -0.000266086 0.770797)
(5.23271e-11 -0.000304353 0.77045)
(-1.12144e-11 -0.000265981 0.770149)
(-9.52631e-11 -0.000194513 0.769889)
(-1.6343e-11 -0.000149401 0.769611)
(3.47721e-11 -0.000121454 0.769325)
(-3.10279e-11 -0.000113025 0.769008)
(3.52195e-11 -0.000117342 0.768656)
(-5.60228e-11 -0.000129309 0.768282)
(-4.99675e-11 -0.000131568 0.767903)
(6.06521e-11 -9.39829e-05 0.767544)
(1.22657e-11 -9.96301e-05 0.767162)
(7.68058e-12 -2.81892e-05 0.766796)
(9.82807e-13 -7.39252e-05 0.766378)
(-2.57277e-12 -5.94838e-06 0.766016)
(-1.00429e-11 -0.000138112 0.765598)
(1.17853e-12 -4.93355e-05 0.765317)
(1.45395e-11 1.47453e-05 0.764889)
(1.43231e-11 9.13099e-05 0.764646)
(1.63953e-10 -0.00016519 0.764179)
(7.55771e-10 -0.000174623 0.763876)
(1.69083e-11 -0.000936195 0.856012)
(1.02439e-11 -0.000289809 0.862244)
(2.35844e-11 -0.000967642 0.862592)
(1.07078e-11 -0.000126753 0.861723)
(2.15006e-11 -0.000651218 0.861787)
(6.99178e-13 -0.00042049 0.861011)
(-1.7621e-11 -0.000900617 0.861005)
(1.57529e-11 -0.000210283 0.860356)
(5.21788e-12 -0.000594881 0.860199)
(2.16928e-11 -0.000389171 0.859679)
(3.41833e-12 -0.000666897 0.859379)
(3.00902e-12 -0.000370119 0.858936)
(6.62754e-12 -0.000512758 0.858659)
(2.77552e-11 -0.000409841 0.858261)
(9.16944e-12 -0.000465779 0.857914)
(1.96477e-11 -0.000412695 0.857537)
(-2.45525e-12 -0.000425071 0.85717)
(2.56483e-12 -0.000433946 0.856752)
(8.29717e-12 -0.000452369 0.856321)
(8.68948e-12 -0.000369101 0.855887)
(3.01694e-11 -0.00037539 0.855461)
(-1.02334e-12 -0.000381303 0.855021)
(-3.893e-11 -0.000419857 0.854573)
(-3.13633e-11 -0.000362386 0.854152)
(4.23499e-11 -0.000330604 0.853727)
(5.4418e-11 -0.000292979 0.853299)
(5.78404e-11 -0.000320806 0.852874)
(6.36422e-11 -0.000361347 0.85247)
(5.57673e-11 -0.000381146 0.852105)
(3.55073e-12 -0.000328197 0.851803)
(-1.27558e-11 -0.000249964 0.851499)
(-5.12976e-11 -0.000210452 0.851184)
(-1.43229e-11 -0.000188255 0.850839)
(3.14292e-12 -0.000185549 0.850456)
(1.15263e-11 -0.000195939 0.850043)
(6.57269e-11 -0.000216229 0.849609)
(1.18915e-11 -0.000184577 0.849202)
(6.50799e-12 -0.000191645 0.848769)
(7.57917e-11 -0.000105902 0.848359)
(1.57919e-12 -0.000151881 0.847899)
(-2.34201e-11 -6.77143e-05 0.847508)
(-1.34975e-10 -0.000223973 0.847044)
(-1.76801e-11 -0.000129392 0.846707)
(-3.7725e-11 -0.000102137 0.846214)
(-2.1075e-10 1.52516e-05 0.846021)
(1.55547e-10 -0.000104479 0.845423)
(-6.1999e-10 -0.000107789 0.845156)
(1.11703e-11 -0.00123842 0.942681)
(-1.45909e-11 -0.000132307 0.94925)
(2.24985e-12 -0.00120357 0.949831)
(1.99443e-11 -0.000120365 0.948521)
(4.24736e-12 -0.000923017 0.948938)
(6.61827e-13 -0.000385215 0.947896)
(2.68309e-13 -0.00102374 0.947607)
(1.78624e-12 -0.000327816 0.946784)
(1.3855e-13 -0.000817189 0.946635)
(-5.30232e-12 -0.00036912 0.945968)
(-4.75494e-11 -0.000707769 0.945507)
(-1.55362e-11 -0.000455677 0.94495)
(-2.11506e-11 -0.000627221 0.944506)
(2.15922e-11 -0.000464493 0.943993)
(-3.10047e-12 -0.000540992 0.943519)
(-3.49351e-11 -0.000486111 0.943028)
(-5.7588e-11 -0.00050201 0.94251)
(4.28992e-14 -0.000480587 0.94195)
(5.76805e-11 -0.000492281 0.941348)
(3.35639e-12 -0.000428892 0.940767)
(-2.6694e-11 -0.00043817 0.940192)
(-2.83637e-12 -0.000415552 0.939615)
(-5.32601e-12 -0.000448214 0.939003)
(7.53342e-12 -0.000420109 0.938403)
(7.62748e-11 -0.000403032 0.937815)
(8.88721e-12 -0.000351503 0.937262)
(-4.63725e-11 -0.00033982 0.936703)
(-4.86934e-11 -0.000348778 0.936176)
(-6.99064e-12 -0.000398246 0.935683)
(-1.38252e-12 -0.000392378 0.93523)
(-1.88956e-12 -0.000316487 0.93481)
(-4.68853e-12 -0.000272416 0.934386)
(6.48519e-14 -0.000244715 0.933929)
(1.27969e-11 -0.000231314 0.933427)
(7.61036e-11 -0.000226215 0.932882)
(7.82459e-11 -0.000248313 0.932305)
(-7.46636e-11 -0.000222196 0.931746)
(-1.15305e-10 -0.000236553 0.931167)
(-1.10164e-10 -0.0001477 0.930607)
(-1.27939e-10 -0.000207519 0.930008)
(-2.47182e-11 -0.000103399 0.92948)
(6.38135e-12 -0.000257528 0.928881)
(1.91656e-10 -0.000138088 0.928395)
(3.04863e-11 -0.000232761 0.927743)
(-4.51386e-11 -4.75555e-05 0.927498)
(-4.22502e-11 -3.37271e-05 0.92669)
(-2.91554e-10 6.46437e-05 0.926457)
(-1.32825e-11 -0.00186815 1.03041)
(-6.43769e-12 0.000304681 1.03747)
(-2.42665e-12 -0.00146442 1.03811)
(-4.47458e-12 -0.000253572 1.03643)
(-2.12591e-11 -0.00149935 1.0369)
(-2.77747e-13 -0.000161453 1.03554)
(2.1744e-11 -0.00102605 1.03504)
(4.54097e-12 -0.000508574 1.03401)
(4.5822e-12 -0.00108558 1.03355)
(2.13379e-11 -0.000373554 1.03268)
(-5.74077e-12 -0.00079502 1.03207)
(-2.82433e-11 -0.000510006 1.03132)
(-8.65018e-12 -0.000703191 1.03062)
(-4.81942e-12 -0.000535665 1.02992)
(-2.92032e-11 -0.000634225 1.02923)
(-1.41111e-11 -0.000564864 1.02854)
(-7.07212e-12 -0.000567107 1.02778)
(6.79394e-12 -0.000527655 1.02699)
(3.39506e-11 -0.000534216 1.02615)
(-2.34133e-11 -0.000488773 1.02533)
(1.81676e-13 -0.000501246 1.0245)
(2.7482e-11 -0.000460561 1.02369)
(-2.68996e-11 -0.000469897 1.02284)
(-3.36274e-12 -0.000444839 1.02199)
(5.51288e-12 -0.000464063 1.02113)
(-1.11885e-11 -0.000427583 1.02034)
(-5.39634e-11 -0.000383893 1.01956)
(-1.61135e-11 -0.00036422 1.01883)
(-3.17795e-12 -0.00039483 1.01816)
(-5.26303e-13 -0.000406007 1.01751)
(-2.24537e-13 -0.000365259 1.01689)
(-3.52305e-13 -0.000332021 1.01628)
(1.92086e-13 -0.000306414 1.01564)
(2.19503e-12 -0.000287065 1.01493)
(1.35548e-11 -0.000270598 1.01417)
(7.5538e-11 -0.000283761 1.01337)
(-1.11912e-11 -0.000257932 1.01258)
(-9.36993e-11 -0.000281544 1.01177)
(5.3914e-11 -0.000194765 1.01098)
(-1.08572e-10 -0.000273536 1.01015)
(-3.57978e-11 -0.000151358 1.00939)
(-8.87073e-11 -0.000295861 1.00857)
(3.38053e-10 -0.000139487 1.00787)
(1.68847e-11 -0.000385329 1.00699)
(-3.07772e-10 -0.000122228 1.00656)
(-8.3736e-11 -5.52271e-05 1.00552)
(-4.96829e-11 0.000265232 1.00525)
(9.64441e-12 -0.00295615 1.11952)
(-1.79789e-11 0.000838442 1.12759)
(-1.02553e-11 -0.00177818 1.12815)
(-2.76953e-11 -0.000329822 1.1263)
(-2.70033e-11 -0.00199129 1.12622)
(-2.76039e-12 2.3433e-05 1.1246)
(2.18347e-11 -0.00115532 1.12406)
(2.60146e-12 -0.000495025 1.12275)
(7.27802e-13 -0.00117237 1.12179)
(1.69866e-12 -0.000428848 1.12071)
(-5.29256e-12 -0.000915699 1.11983)
(-2.81901e-11 -0.000510558 1.11886)
(-8.01157e-12 -0.000723369 1.11787)
(-2.6843e-12 -0.000564309 1.11694)
(-1.62092e-11 -0.000664799 1.11596)
(-5.73571e-11 -0.000592018 1.115)
(-5.87829e-12 -0.000586284 1.11396)
(3.24339e-11 -0.000540837 1.11288)
(3.70923e-11 -0.000541504 1.11174)
(5.74501e-12 -0.000500713 1.11062)
(3.54804e-11 -0.000508041 1.10948)
(1.40345e-11 -0.000462517 1.10835)
(3.14206e-11 -0.000458207 1.10719)
(-1.25757e-13 -0.000423981 1.10605)
(-1.09563e-11 -0.000458258 1.10489)
(-5.23246e-11 -0.000447864 1.10376)
(-6.13936e-11 -0.000396757 1.10268)
(-1.24034e-11 -0.000359309 1.1017)
(1.78129e-12 -0.000364839 1.1008)
(9.00313e-13 -0.000365217 1.09992)
(6.02139e-14 -0.000349228 1.09907)
(-2.3587e-13 -0.00033472 1.09823)
(4.68309e-14 -0.000318387 1.09734)
(-5.27908e-12 -0.000300974 1.09637)
(-6.50321e-11 -0.000283116 1.09532)
(-1.29598e-11 -0.00028854 1.09424)
(-2.63845e-11 -0.000261796 1.09316)
(-9.41067e-11 -0.000292596 1.09207)
(8.39035e-11 -0.000206299 1.09098)
(3.71407e-12 -0.000302802 1.08986)
(4.09362e-12 -0.000166668 1.08879)
(-2.01717e-11 -0.000316823 1.08771)
(2.78867e-11 -0.000121588 1.08674)
(-5.05236e-11 -0.000501915 1.08561)
(-3.41805e-10 -0.00016088 1.08489)
(-1.15184e-10 -0.000146228 1.08362)
(-7.89061e-12 0.000453326 1.08318)
(2.17646e-12 -0.00403149 1.20871)
(-2.12587e-12 0.00109282 1.21854)
(-6.1745e-12 -0.00225453 1.21875)
(-2.51381e-11 -3.45187e-05 1.21704)
(-1.16202e-11 -0.00198246 1.2161)
(-2.42629e-11 1.99126e-05 1.21449)
(-4.92549e-12 -0.00137169 1.21377)
(-1.92095e-11 -0.000246927 1.21229)
(-2.54421e-12 -0.0010622 1.21097)
(1.78853e-12 -0.000393582 1.20975)
(-8.45782e-13 -0.000920903 1.20856)
(-7.41154e-12 -0.000434867 1.20742)
(-2.28205e-11 -0.000646419 1.2062)
(1.40587e-11 -0.000495109 1.20508)
(-2.85282e-11 -0.000573529 1.20388)
(-1.27177e-11 -0.000502066 1.2027)
(-4.07483e-12 -0.000497816 1.20141)
(5.20985e-12 -0.000455923 1.2001)
(1.31101e-12 -0.000446966 1.19871)
(-2.3177e-11 -0.000406869 1.19734)
(3.52594e-11 -0.00040211 1.19594)
(9.82301e-12 -0.000355047 1.19456)
(-1.22786e-12 -0.000351099 1.19315)
(-4.24698e-11 -0.000320524 1.19177)
(-4.73834e-11 -0.000338384 1.19037)
(-2.46071e-11 -0.000335027 1.18897)
(-5.29744e-11 -0.000304238 1.18764)
(-4.88687e-12 -0.000262389 1.18644)
(4.7196e-11 -0.000250027 1.18534)
(7.20302e-12 -0.000238042 1.18428)
(-8.37396e-13 -0.000228437 1.18326)
(-3.06949e-12 -0.00021954 1.18223)
(1.05048e-11 -0.000217656 1.18113)
(6.06983e-11 -0.000212062 1.17994)
(-7.94134e-12 -0.000203518 1.17866)
(-8.0944e-11 -0.000202474 1.17734)
(-1.09618e-10 -0.000174283 1.17601)
(-1.21417e-10 -0.000211564 1.17469)
(-1.65414e-11 -0.000124205 1.17334)
(1.09562e-11 -0.000238512 1.172)
(9.15235e-11 -9.40072e-05 1.17068)
(-1.22029e-10 -0.000265662 1.16938)
(-3.75017e-11 -3.44657e-05 1.16819)
(-2.25285e-11 -0.00051813 1.16687)
(-9.28135e-11 -0.000114362 1.16586)
(-3.44756e-10 -0.000201045 1.16449)
(1.14385e-10 0.000636919 1.16375)
(1.62875e-11 -0.00443837 1.29468)
(4.14137e-12 0.000949119 1.30698)
(-1.49348e-13 -0.00261751 1.30633)
(-3.58535e-12 0.000394753 1.30507)
(-5.76782e-12 -0.00169175 1.30369)
(-2.44053e-11 -5.0826e-05 1.30232)
(-1.22732e-12 -0.0014664 1.30124)
(2.03315e-11 -6.39752e-06 1.29984)
(7.92435e-12 -0.000935894 1.29847)
(2.56764e-11 -0.000278647 1.29727)
(4.74171e-12 -0.000815932 1.29592)