/*--------------------------------*- C++ -*----------------------------------*\
| =========                 |                                                 |
| \\      /  F ield         | OpenFOAM: The Open Source CFD Toolbox           |
|  \\    /   O peration     | Version:  2212                                  |
|   \\  /    A nd           | Website:  www.openfoam.com                      |
|    \\/     M anipulation  |                                                 |
\*---------------------------------------------------------------------------*/
FoamFile
{
    version     2.0;
    format      ascii;
    arch        "LSB;label=32;scalar=64";
    class       surfaceScalarField;
    location    "0.062";
    object      phi;
}
// * * * * * * * * * * * * * * * * * * * * * * * * * * * * * * * * * * * * * //

dimensions      [1 0 -1 0 0 0 0];

oriented        oriented;

internalField   nonuniform List<scalar> 
88550
(
-5.14263e-05
-0.000167364
6.93039e-05
0.000149486
-0.000169766
-0.000150214
0.000152431
0.000167549
-0.00014409
0.000168742
-0.000176019
0.000151367
0.000113299
0.00015933
-0.000240119
-3.251e-05
-0.000200558
0.000133172
0.000139046
-0.000119388
-0.00015283
-0.000270949
0.000236646
-2.10083e-05
5.5312e-05
-0.000122943
-0.000182085
9.25067e-05
0.000212522
-0.000147302
-0.000148752
0.000159631
0.000136424
-0.00049179
0.000492012
-4.46999e-05
4.44774e-05
-0.000165777
-0.00013447
0.000136642
0.000163605
-6.06895e-05
-4.79784e-05
2.90217e-05
7.96465e-05
4.25342e-05
3.10824e-05
-0.000269452
0.000195835
0.000117788
0.000189441
-0.00019008
-0.000117148
-2.325e-05
2.0567e-05
-1.30019e-05
1.56866e-05
-7.29382e-05
5.27606e-05
-4.05117e-05
2.91723e-05
5.59221e-06
-1.00113e-05
-2.47517e-05
3.38664e-06
4.16701e-05
-6.2456e-06
-3.88096e-05
-6.561e-05
0.000454474
8.05926e-05
-0.000469457
-1.18073e-05
2.9084e-05
0.000245029
-0.000262306
-3.77342e-05
-0.000504927
0.000476103
6.65582e-05
3.41651e-05
-1.14362e-05
6.44472e-06
0.000470024
-5.4623e-05
-0.000469346
5.39444e-05
0.000448395
-0.000377019
-0.000172261
0.000100885
5.14649e-05
0.000404154
-4.54137e-05
-0.000410205
-0.000355724
-5.68901e-05
0.0003957
1.69141e-05
3.66673e-05
0.000253264
-5.04752e-06
-0.000284884
-0.000237639
0.000269205
0.000181596
-0.000213162
0.000150775
2.88977e-05
-2.95849e-05
-0.000150088
0.000178656
-0.000294705
-0.000176812
0.000292861
1.33346e-05
-8.4307e-06
-4.54847e-05
4.0581e-05
1.72097e-05
-0.000512125
0.000508926
-1.40115e-05
-2.72788e-05
2.35226e-05
8.11655e-06
-4.35994e-06
0.000147332
-0.000251358
-0.000152768
0.000256794
0.000198564
-0.000260233
-1.14441e-05
7.31134e-05
1.68052e-05
0.000433354
1.77971e-06
-0.000451939
-1.19541e-05
-0.000114328
0.000131041
-4.75891e-06
0.000125579
-0.000112899
-2.46342e-05
-5.74057e-05
0.000454803
-0.000475308
7.79112e-05
0.000138897
-0.000150085
0.000162058
-0.000150869
-0.000120063
-0.000188976
0.00014058
0.000168459
-0.000118669
0.000122632
0.000103756
-0.000107719
-0.000483329
0.000576943
0.000215178
-0.000308791
-3.02543e-05
-0.000350205
0.000359144
2.13152e-05
-2.80036e-05
-0.00045916
0.000453562
3.36009e-05
3.26449e-05
0.000217926
-4.78055e-05
-0.000202765
-3.55975e-05
3.51073e-05
0.000488082
-0.000487591
0.000406239
8.92185e-06
-4.22016e-05
-0.000372959
0.000108861
0.000481637
-7.92225e-05
-0.000511275
-4.47804e-05
-0.000344424
0.00035895
-0.000136993
0.000147531
0.000155065
-0.000165602
-0.000503217
-5.29985e-06
0.000472919
0.000256906
-0.000108775
-0.000254144
0.000106013
0.000151006
1.46422e-05
-9.41277e-05
-7.15203e-05
-0.000526747
-3.32202e-05
6.81778e-05
-0.000206646
-7.31501e-05
0.000212108
6.76877e-05
-0.000211528
-0.000123443
0.000222159
0.000112813
0.000129747
-0.000406614
0.000386643
-0.000109776
-0.000226648
0.000212467
0.000114043
-9.98626e-05
0.000107407
-8.3766e-05
-0.000252314
0.000228673
-8.43962e-05
0.000144586
-0.000220547
0.000160357
-0.000208834
8.68805e-06
-1.60259e-05
0.000216172
-0.000443366
-0.000141349
6.73297e-05
0.000517385
-0.000119355
-0.000237643
0.000123956
0.000233042
0.000482554
7.3056e-06
-0.000495324
5.46439e-06
-0.000208201
0.000157561
-0.000115137
-0.000147192
0.000343566
0.000169377
-0.00036575
0.00014001
0.000349569
-0.000145961
-0.000343619
-9.12572e-05
-0.000302168
9.64845e-05
0.000296941
0.000238234
-0.000160133
-0.000344103
0.000266002
-0.000198124
-4.60453e-05
0.00017645
6.77202e-05
-0.000309732
0.000123554
0.000320971
-0.000134793
3.23158e-05
-7.52297e-05
-0.000459979
0.000502892
-8.43882e-05
8.56202e-05
-0.000171021
0.000169789
0.000301755
-0.000312625
0.000249103
3.37138e-05
0.000142171
-2.34729e-05
-0.000152412
-2.74134e-05
1.18449e-05
0.000254366
-0.000238797
0.000114994
-0.000234234
-4.21522e-05
0.000243064
-0.000284678
-0.000331847
0.000116785
0.000320398
-0.000105337
-6.60111e-05
0.000191029
6.2791e-05
-0.000187809
0.000309965
-0.000248699
0.000240489
-0.000157003
0.000139059
-0.000123745
0.000141689
0.000522551
-0.000110762
6.49898e-05
-0.000476779
0.000187364
-6.59634e-05
-0.000187412
-0.000128421
0.000163925
0.000159296
-0.0001948
0.000295969
-0.000221041
0.000235037
9.68641e-05
-0.000105702
0.000209857
-0.000201019
0.000506753
-0.000505288
-1.09152e-05
9.45097e-06
0.000234211
-0.000176523
-0.000167841
0.000110152
0.00034288
-8.10555e-05
0.000118191
-0.000380015
-0.000204174
0.000256338
0.000243804
-9.07675e-05
-0.000400904
0.000123333
0.000368338
0.000203021
-0.000257882
3.0219e-05
2.4642e-05
-0.000475251
-2.93093e-06
0.000450178
0.000478308
-0.000498234
-2.94074e-05
4.93331e-05
0.000167823
0.000330225
-0.000159178
-0.00033887
4.47678e-05
0.00047328
-0.000468942
-4.91055e-05
9.46286e-05
-0.000545388
-3.85874e-05
0.000489347
-0.000198406
-0.000173768
0.00021253
0.000159645
-0.000143841
-2.40123e-06
0.000143385
2.85769e-06
-0.000110417
0.000116879
-0.000159977
0.000153515
-0.000136313
0.000163907
0.000160602
-0.000188196
0.00026113
-0.000172427
0.000145044
-0.000233746
6.13013e-05
-0.000223511
0.000204744
7.25377e-05
-9.78956e-05
-0.000348382
0.00037374
6.4422e-05
-0.000210678
0.000207557
-5.5981e-05
6.01618e-05
-0.000210826
0.000236919
-0.000181453
-0.000224598
0.000169132
0.00016452
5.75711e-05
-0.000133476
-8.86149e-05
5.92693e-05
0.000212657
-0.000207504
-0.000126627
0.000145014
-0.000150158
0.000131772
0.000221822
-8.6601e-05
-0.000167576
3.23551e-05
-0.000317743
-0.000269311
0.00020543
0.000381625
0.00021796
-0.000191607
0.000161356
-0.000187709
7.77026e-05
0.000214488
-0.000232922
6.06461e-07
-0.000295758
0.000253
-0.000100016
0.000110859
-0.000172584
0.000161742
7.7297e-05
-0.00023368
0.000226989
-7.06057e-05
8.53664e-05
-0.000210644
0.000202981
0.000150968
-0.000119918
-0.000154104
0.000123055
-0.000142896
0.000173794
-0.000179776
0.000148878
-0.000190946
0.000151717
-0.000164381
0.00020361
7.67695e-05
-0.000190802
0.000199399
-0.000144836
0.000178201
-0.000176261
0.00017426
4.52812e-05
-3.22509e-05
-0.00018729
6.46761e-05
-0.000187009
0.000199102
-0.000150261
0.000186972
-0.000181547
-9.06612e-05
9.21867e-05
-0.000176964
0.000175439
5.75272e-05
-0.000191767
0.000198916
-0.00015224
0.000184372
-0.000182393
0.000147355
-0.000268196
0.000270776
-0.000149936
-0.000182733
-0.000107395
0.00020574
-0.000191297
-0.000227194
0.000153702
0.000264789
5.27114e-05
-0.000196064
0.00020088
-0.000144474
-0.00017646
0.000168694
-0.000244594
0.000203896
-8.0433e-05
0.000121131
7.68559e-05
-4.13813e-05
-0.000280069
4.5762e-05
-0.000194785
0.000201735
-0.000170555
0.000147732
-0.000121651
0.000191432
-0.000240639
-0.000203057
0.000252264
4.41566e-05
-0.000197623
0.000199228
-4.05668e-05
3.63669e-05
0.000409655
-0.000405455
0.00040869
-0.000398825
-5.04316e-05
-0.000201402
0.000197782
4.77766e-05
-0.000169378
0.000174389
-9.56718e-05
-0.000132556
0.000126688
0.000124913
-0.000119047
-8.96094e-05
-0.000188797
0.000145847
0.000185954
1.03852e-05
-6.47919e-06
-0.00018986
-0.000161695
0.000214981
-0.000198293
0.000145007
-0.000153057
0.000136372
0.000155582
-0.00019696
-0.000104406
7.37078e-05
0.000227659
-4.51561e-05
0.000192222
-0.000207858
6.07915e-05
0.000455678
-0.000284361
-0.000496286
0.000324969
0.000178166
-3.92704e-05
3.57377e-05
-0.000174633
-5.54857e-06
-0.000187817
0.000178183
1.51823e-05
0.000154177
-9.23636e-05
0.000131488
-0.000193301
0.000142305
-0.000141716
2.34161e-06
-2.93095e-06
0.000143329
-2.85576e-06
1.83187e-06
0.000144349
-2.0817e-06
1.06151e-06
0.000146111
-1.84046e-06
7.83047e-08
0.000147561
-7.33804e-07
-7.16055e-07
0.000149884
-4.69021e-07
-1.85383e-06
0.000152163
1.03866e-07
-2.38193e-06
0.000155013
3.56262e-07
-3.20619e-06
0.000158625
1.43967e-07
-3.75614e-06
0.000163057
-1.99663e-07
-4.23221e-06
0.000168549
-6.6113e-07
-4.83057e-06
0.000174922
-1.19875e-06
-5.17355e-06
0.000182378
-1.68856e-06
-5.76772e-06
0.000190698
-1.99889e-06
-6.32043e-06
0.000199952
-2.29989e-06
-6.95427e-06
0.000209932
-2.53173e-06
-7.44744e-06
0.000220486
-2.69327e-06
-7.86048e-06
0.000231373
-2.78094e-06
-8.105e-06
0.000242313
-2.7792e-06
-8.16039e-06
0.000253009
-2.70716e-06
-7.9889e-06
0.000263238
-2.57144e-06
-7.65695e-06
0.000272739
-2.37658e-06
-7.12349e-06
0.000281402
-2.27197e-06
-6.39061e-06
0.0002892
-2.36967e-06
-5.42797e-06
0.000296136
-2.6679e-06
-4.26683e-06
0.000302267
-2.955e-06
-3.17514e-06
0.000307569
-2.94036e-06
-2.36151e-06
0.000312025
-2.24069e-06
-2.21512e-06
0.000315764
-1.76704e-06
-1.97117e-06
0.00031818
-3.93709e-07
-2.02134e-06
0.000320308
5.04851e-07
-2.63221e-06
0.000321529
1.81388e-06
-3.03408e-06
0.000322305
2.14314e-06
-2.91854e-06
0.000322956
1.75684e-06
-2.40751e-06
0.000323904
1.15149e-06
-2.09869e-06
0.000324669
6.335e-07
-1.39691e-06
0.000325389
3.52162e-07
-1.07179e-06
0.000325898
2.31465e-07
-7.39501e-07
0.000326306
2.14006e-07
-6.20979e-07
0.000326573
2.93315e-07
-5.58853e-07
0.00032675
3.30655e-07
-5.06201e-07
0.000326756
5.99105e-07
-6.03667e-07
0.000326766
7.278e-07
-7.36505e-07
0.000326675
1.08806e-06
-9.95593e-07
0.000326415
1.74071e-06
-1.47834e-06
0.000325931
2.47462e-06
-1.98893e-06
0.00032528
2.96078e-06
-2.30794e-06
0.000324594
2.51539e-06
-1.82627e-06
1.62096e-06
0.000323678
-7.02971e-07
0.000324243
-0.000325208
3.48263e-06
0.000324158
1.70818e-06
-0.000325747
3.50198e-06
0.000158054
-0.000140571
4.19163e-05
-5.93987e-05
2.42036e-06
-0.00014117
-2.96608e-06
-0.000141874
0.000142739
1.47662e-06
2.13689e-06
-0.00014159
0.000323517
-5.28417e-07
6.92679e-07
-2.56352e-06
1.94819e-06
0.000324135
-0.000323865
0.000324047
-2.74166e-06
-2.32679e-07
0.000326102
-0.000326422
2.06236e-06
2.83148e-06
0.000326614
-0.000326527
6.4221e-07
1.28166e-06
0.000326502
-0.000326514
3.44316e-07
5.76032e-07
0.000326246
-0.000325874
-1.56795e-07
2.56573e-08
0.000325367
-0.00032473
-2.84534e-07
-2.73726e-07
0.000323964
-0.000323116
3.04857e-07
-1.31565e-07
0.0003221
-0.000320885
9.28364e-07
7.41515e-07
0.000318668
-0.000317038
-1.12537e-06
-4.01693e-07
0.000313966
-0.00031076
-4.97304e-06
-3.46428e-06
0.000306356
-0.000301219
-8.07671e-06
-6.64343e-06
0.000295284
-0.000288236
-9.71555e-06
-8.88981e-06
0.000280389
-0.000271737
-1.0923e-05
-1.02164e-05
0.000262317
-0.000252319
-1.25696e-05
-1.17956e-05
0.00024184
-0.000231149
-1.3469e-05
-1.31855e-05
0.000220534
-0.000210187
-1.30398e-05
-1.33959e-05
0.000200385
-0.00019128
-1.14049e-05
-1.23331e-05
0.000182995
-0.000175655
-9.02875e-06
-1.02831e-05
0.000169197
-0.000163688
-6.17022e-06
-7.65605e-06
0.000159132
-0.000155487
-3.50083e-06
-4.7555e-06
0.000152473
-0.000149993
-2.37598e-06
-2.65751e-06
0.000148117
-0.000146124
-2.72685e-06
-2.34439e-06
0.000144637
-0.000143357
-3.36186e-06
-3.32781e-06
-3.64953e-06
-0.000142563
-0.000143738
0.000145005
-2.05274e-07
8.32786e-07
-0.000146531
0.00014838
-2.56472e-06
-1.44776e-06
-0.000150368
0.000153019
-5.03324e-06
-3.84187e-06
-0.000156148
0.000159902
-7.50946e-06
-6.33497e-06
-0.000164455
0.000169911
-1.02861e-05
-8.78549e-06
-0.000176438
0.000183731
-1.30605e-05
-1.17e-05
-0.000191929
0.000200831
-1.5856e-05
-1.45181e-05
-0.000210463
0.000220472
-1.78691e-05
-1.70793e-05
-0.000230763
0.000241088
-1.84848e-05
-1.83952e-05
-0.000251242
0.000260931
-1.7345e-05
-1.81429e-05
-0.000270077
0.000278545
-1.48579e-05
-1.6269e-05
-0.00028634
0.000293334
-1.12606e-05
-1.32225e-05
-0.000299671
0.000305161
-7.85051e-06
-9.51142e-06
-0.000309655
0.00031347
-5.78528e-06
-6.70892e-06
-0.00031663
0.000318876
-4.87773e-06
-5.18076e-06
-0.000320431
0.000321591
-4.07725e-06
-4.58837e-06
-0.000322785
0.000323439
-2.75239e-06
-3.60062e-06
-0.000324361
0.000324979
-1.68882e-06
-2.31822e-06
-0.000325629
0.000326038
-1.02878e-06
-1.38813e-06
-0.000326346
0.00032661
-7.69335e-07
-8.65383e-07
-0.000326692
0.000326744
-7.8682e-07
-6.8453e-07
-0.000326597
0.000326398
-1.27699e-06
-8.46577e-07
-0.000325867
0.000325285
-1.72318e-06
-1.4567e-06
-0.000324587
0.000324203
-3.16888e-07
-1.12607e-06
-0.00032416
1.44069e-06
0.000324671
7.38612e-07
0.000325007
-0.000325548
4.02651e-06
0.000324465
2.25256e-06
-0.000325785
3.74078e-06
-6.07509e-05
9.36891e-05
0.000130364
-0.000163302
0.00016956
3.60675e-05
-4.75738e-05
-0.000142731
0.000143719
4.88264e-07
-0.000141989
1.39539e-06
-3.4932e-06
3.14516e-06
0.000324398
0.000323655
-0.000324453
-1.94018e-06
-4.42599e-06
0.000324591
0.000325085
-0.000324856
1.21555e-06
2.05019e-06
-2.39624e-06
0.00032502
0.000325741
1.39676e-06
-2.24598e-06
2.10362e-06
-0.000141448
-1.49538e-06
-0.00014192
-2.18144e-07
0.000326
-0.000326294
2.35894e-06
3.04801e-06
0.00032629
-0.000326537
8.90135e-07
1.27936e-06
0.000326404
-0.00032615
9.18322e-08
4.4495e-07
0.000325822
-0.000325367
-6.10249e-07
-3.01734e-07
0.000324766
-0.000324029
-1.02062e-06
-8.74051e-07
0.000323034
-0.000322019
-7.09672e-07
-1.12531e-06
0.000320545
-0.000318765
-8.50736e-07
-7.31534e-07
0.000317193
-0.00031395
-4.3679e-06
-1.97289e-06
0.000311039
-0.000306704
-9.30754e-06
-6.3742e-06
0.000302058
-0.000296442
-1.36913e-05
-1.12892e-05
0.000290198
-0.000283237
-1.66764e-05
-1.51333e-05
0.000275517
-0.000267254
-1.91857e-05
-1.79357e-05
0.000258537
-0.000249323
-2.17833e-05
-2.05116e-05
0.000239817
-0.000230192
-2.30933e-05
-2.26914e-05
0.000220563
-0.000211151
-2.24519e-05
-2.30241e-05
0.000202069
-0.000193517
-1.99567e-05
-2.1414e-05
0.000185542
-0.00017836
-1.62112e-05
-1.82577e-05
0.000171884
-0.000166338
-1.1716e-05
-1.41312e-05
0.000161508
-0.000157544
-7.46455e-06
-9.58511e-06
0.000154279
-0.000151406
-5.24959e-06
-5.9223e-06
0.000149234
-0.000147189
-4.7717e-06
-4.51616e-06
0.000145625
-0.000144209
-4.77747e-06
-4.89206e-06
-4.35683e-06
-0.000143502
-3.58946e-05
0.000155864
3.08049e-05
0.000324888
-0.000144901
0.000146366
-1.67075e-06
-3.48936e-07
-0.00014801
0.000150045
-4.59947e-06
-3.09167e-06
-0.000152446
0.000155298
-7.88489e-06
-6.243e-06
-0.000158789
0.000162887
-1.16065e-05
-9.82615e-06
-0.000167767
0.000173337
-1.58554e-05
-1.36661e-05
-0.000179726
0.000186908
-2.02421e-05
-1.80887e-05
-0.000194677
0.000202911
-2.4089e-05
-2.22871e-05
-0.000211528
0.000220466
-2.6807e-05
-2.56963e-05
-0.000229454
0.000238457
-2.74872e-05
-2.73828e-05
-0.000247387
0.000256063
-2.60211e-05
-2.70715e-05
-0.000264431
0.000272372
-2.27985e-05
-2.46361e-05
-0.00027999
0.000287157
-1.84262e-05
-2.08403e-05
-0.000293631
0.000299522
-1.37413e-05
-1.59848e-05
-0.00030471
0.000309107
-1.01818e-05
-1.18959e-05
-0.000312755
0.00031558
-7.70189e-06
-8.828e-06
-0.000317835
0.000319608
-5.84931e-06
-6.84285e-06
-0.000321034
0.0003222
-3.91712e-06
-5.02626e-06
-0.000323318
0.000324144
-2.51414e-06
-3.43545e-06
-0.000324848
0.000325442
-1.62195e-06
-2.09098e-06
-0.000325877
0.000326159
-1.05023e-06
-1.29896e-06
-0.000326409
0.000326476
-8.51859e-07
-9.32854e-07
-0.000326407
0.000326256
-1.12336e-06
-7.76691e-07
-0.000325872
0.000325435
-1.28447e-06
-1.07067e-06
-0.000324975
0.000324877
-2.1633e-07
-6.6325e-07
7.61998e-07
-0.000141662
1.77642e-06
-0.000324419
0.000324437
-4.4404e-06
-0.000324848
-1.5081e-06
0.000325449
-0.000325548
4.12807e-06
0.000324995
2.70894e-06
-0.000325694
3.88962e-06
1.73212e-06
-2.5e-06
0.000325792
1.29789e-06
0.00032618
2.18837e-07
-0.000144017
0.000142303
-1.71315e-06
-0.000141867
1.91883e-06
-6.83297e-07
-0.000142478
-2.15344e-07
-0.000142388
-4.58645e-06
3.98539e-06
0.000325042
0.000324971
-0.000324864
-4.54398e-06
0.000325148
-4.7594e-06
1.77218e-06
-1.68986e-06
-0.00014256
2.27228e-06
-0.000142367
-6.79474e-08
0.000325954
-0.000325772
2.17877e-06
3.30953e-06
0.000326288
-0.000326228
8.32396e-07
1.79702e-06
0.000325945
-0.000325602
-2.49505e-07
1.63279e-07
0.000325094
-0.000324397
-1.30582e-06
-8.08721e-07
0.00032354
-0.000322504
-2.05494e-06
-1.73069e-06
0.000321157
-0.00031946
-2.40581e-06
-2.47187e-06
0.000317727
-0.000315379
-3.19809e-06
-2.46366e-06
0.000312817
-0.000308633
-8.55117e-06
-4.53402e-06
0.000305364
-0.000300698
-1.39733e-05
-9.64182e-06
0.000294851
-0.000288714
-1.98278e-05
-1.71359e-05
0.000282218
-0.000275335
-2.35585e-05
-2.16286e-05
0.000268037
-0.000260519
-2.67035e-05
-2.5233e-05
0.000252736
-0.000244788
-2.9731e-05
-2.82937e-05
0.000236769
-0.00022871
-3.11524e-05
-3.07097e-05
0.000220617
-0.000212587
-3.04815e-05
-3.11162e-05
0.000204677
-0.000197004
-2.76293e-05
-2.93243e-05
0.000189633
-0.000182711
-2.31327e-05
-2.56283e-05
0.000176359
-0.000170562
-1.75131e-05
-2.04827e-05
0.000165616
-0.000161268
-1.18117e-05
-1.45306e-05
0.000157606
-0.000154631
-8.2241e-06
-9.58459e-06
0.000151616
-0.000149133
-7.2546e-06
-7.53118e-06
0.000147344
-0.00014613
-5.99231e-06
-6.6807e-06
6.15132e-05
0.000480842
-0.000524352
-1.8003e-05
-5.12751e-06
-0.000145359
2.96337e-06
-3.62285e-06
0.000325061
0.000325355
0.000324958
0.000142863
-0.000142809
2.21815e-06
-0.000142959
0.00014356
1.1757e-06
1.82261e-06
-0.000144403
0.000145315
-4.23724e-07
5.52298e-07
-0.000146758
0.000148519
-3.4312e-06
-1.79179e-06
-0.000150497
0.000152914
-7.01608e-06
-5.06997e-06
-0.000155818
0.000159173
-1.12394e-05
-9.1473e-06
-0.000163085
0.000167599
-1.61195e-05
-1.37383e-05
-0.000172736
0.000178486
-2.16059e-05
-1.88031e-05
-0.000184726
0.000191375
-2.68905e-05
-2.4328e-05
-0.0001984
0.000205695
-3.13833e-05
-2.9312e-05
-0.000213013
0.000220349
-3.41425e-05
-3.30148e-05
-0.000227766
0.000235108
-3.48291e-05
-3.47989e-05
-0.000242435
0.000249794
-3.33795e-05
-3.43983e-05
-0.000257082
0.000264291
-3.00065e-05
-3.1924e-05
-0.000271305
0.000278278
-2.53987e-05
-2.78536e-05
-0.000284988
0.000291344
-2.00957e-05
-2.26947e-05
-0.000297091
0.000302202
-1.52922e-05
-1.76422e-05
-0.000306672
0.00031044
-1.14692e-05
-1.32974e-05
-0.000313402
0.00031597
-8.41604e-06
-9.8042e-06
-0.000318063
0.000319961
-5.81345e-06
-7.11916e-06
-0.000321295
0.000322622
-3.84064e-06
-4.76869e-06
-0.000323574
0.000324364
-2.40995e-06
-3.04211e-06
-0.000324998
0.000325496
-1.5473e-06
-1.93162e-06
-0.000325783
0.000325983
-1.04942e-06
-1.21889e-06
-0.000326087
0.000325937
-9.71144e-07
-8.79709e-07
-0.000325896
0.000325388
-7.73903e-07
-1.02752e-06
-0.000325285
0.000325268
-1.96955e-07
-5.57614e-07
-0.000325361
0.000325678
9.02203e-07
6.71431e-07
-0.000326106
9.75746e-07
0.000326432
9.72291e-07
2.28925e-06
-1.05202e-06
-0.000143605
-0.000143131
2.61152e-06
-2.34395e-07
-0.000143388
-0.000324395
-1.97308e-06
-1.21612e-06
-0.000143016
-3.71231e-06
3.43054e-06
0.000325328
-4.28461e-06
0.000325725
0.000325232
-0.000325553
-4.21916e-06
0.000325496
-5.01913e-06
0.000326635
-0.00032626
6.05084e-07
5.91017e-07
-8.60066e-07
0.000326706
0.000326825
4.05624e-07
-9.8797e-07
-0.00014309
-5.45505e-07
-0.000143067
2.27442e-06
-1.80516e-06
-0.000144074
0.000325923
-0.000325919
3.88811e-06
0.000325856
4.19753e-06
0.000325691
2.87657e-06
2.86176e-06
-0.000143719
9.00229e-07
-1.01724e-06
-0.000146359
0.000146476
-0.000144564
0.000145229
1.23145e-06
0.000326018
-0.000326143
2.30532e-06
3.41054e-06
0.000325764
-0.00032555
6.20581e-07
1.42008e-06
0.000325071
-0.000324441
-8.78128e-07
-3.14423e-07
0.000323767
-0.000322793
-2.27885e-06
-1.4811e-06
0.000321539
-0.000319936
-3.65665e-06
-2.98384e-06
0.000318188
-0.00031609
-4.50307e-06
-4.21856e-06
0.000313261
-0.000310182
-6.27579e-06
-5.29219e-06
0.000306141
-0.000303238
-1.14537e-05
-8.57465e-06
0.000296445
-0.000291409
-1.90086e-05
-1.64336e-05
0.000285614
-0.000279385
-2.60564e-05
-2.29303e-05
0.000272505
-0.00026598
-3.00833e-05
-2.85076e-05
0.00025955
-0.000252945
-3.33077e-05
-3.16627e-05
0.000246339
-0.000239894
-3.61765e-05
-3.48988e-05
0.000233475
-0.000227071
-3.75559e-05
-3.7128e-05
0.000220659
-0.000214242
-3.68977e-05
-3.75281e-05
0.000207757
-0.000201205
-3.41819e-05
-3.58086e-05
0.000194733
-0.000188348
-2.95177e-05
-3.20996e-05
0.000182294
-0.000176639
-2.31676e-05
-2.65362e-05
0.00017148
-0.0001666
-1.66921e-05
-1.96892e-05
0.000162364
-0.000158435
-1.21531e-05
-1.38203e-05
0.00015483
-0.000152323
-9.7612e-06
-1.11357e-05
0.000150233
-0.000148671
-7.55352e-06
-8.77106e-06
-9.26225e-05
0.000171351
-0.000178744
-5.90881e-06
-0.00014789
0.000199675
6.38256e-05
-0.000156572
-0.000106929
1.21641e-06
-1.67243e-06
0.000326252
0.00032654
2.19655e-06
-2.65111e-06
0.000325521
0.000325883
0.000325742
0.000144265
-0.000144404
3.00034e-06
-0.000144159
0.000144211
2.16615e-06
2.71781e-06
-0.000144745
0.000145434
4.86776e-07
1.28852e-06
-0.000146555
0.000148039
-1.90701e-06
-5.68468e-07
-0.000149699
0.000151672
-5.40486e-06
-3.45179e-06
-0.000154216
0.000157163
-9.96319e-06
-7.61367e-06
-0.000160446
0.000164405
-1.51979e-05
-1.24295e-05
-0.000168775
0.000173744
-2.10883e-05
-1.81089e-05
-0.000179019
0.000184696
-2.7282e-05
-2.40777e-05
-0.000190664
0.000196628
-3.2854e-05
-3.02962e-05
-0.000202685
0.000208629
-3.73266e-05
-3.53693e-05
-0.000214577
0.000220307
-3.98717e-05
-3.89629e-05
-0.000226004
0.000231736
-4.05605e-05
-4.04957e-05
-0.00023749
0.000243347
-3.92366e-05
-4.0152e-05
-0.000249397
0.000255607
-3.62166e-05
-3.79729e-05
-0.000261943
0.000268372
-3.18269e-05
-3.41887e-05
-0.000274881
0.000281278
-2.64918e-05
-2.92033e-05
-0.000287497
0.000293328
-2.11225e-05
-2.38609e-05
-0.000298535
0.000303089
-1.60224e-05
-1.85038e-05
-0.000307288
0.0003107
-1.1827e-05
-1.40021e-05
-0.00031358
0.00031617
-8.40237e-06
-9.99896e-06
-0.000318264
0.000320082
-5.65811e-06
-6.86123e-06
-0.000321554
0.000322716
-3.57033e-06
-4.51293e-06
-0.000323649
0.000324366
-2.26312e-06
-2.86335e-06
-0.000324932
0.000325338
-1.45369e-06
-1.78311e-06
-0.000325564
0.000325695
-1.10042e-06
-1.10392e-06
-0.000325591
0.000325493
-6.73956e-07
-9.20906e-07
-0.000325412
0.000325415
-1.97359e-07
-4.7361e-07
-0.000325585
0.000325926
5.64746e-07
5.0465e-07
6.41649e-07
3.21134e-06
-2.71926e-06
-0.000144211
-0.0001447
3.50721e-06
-4.42853e-07
-0.000144161
-0.000325856
-1.66623e-06
0.000326218
-0.000325912
3.89402e-06
0.000326306
2.79252e-06
-0.000325885
3.86288e-06
0.000325642
-4.42621e-06
3.13125e-07
-4.45171e-07
0.000326842
1.70614e-07
0.000326972
-0.00014854
0.000149191
-1.66909e-06
9.24037e-08
-7.6063e-07
-0.000145691
-0.000148363
-8.37438e-08
3.36565e-08
-0.000144038
5.46957e-07
-0.000144183
-1.17391e-06
-0.000143698
-2.55367e-06
-0.000144239
3.55053e-06
-2.76641e-06
-0.000144995
4.08237e-06
-0.000145232
-0.000145767
1.68434e-06
0.000325702
-0.000325384
1.98882e-06
3.23051e-06
0.000325307
-0.000324229
-4.5596e-07
1.3452e-06
0.000323705
-0.000322768
-1.81311e-06
-8.36565e-07
0.000321676
-0.000320281
-3.67199e-06
-2.57219e-06
0.000318504
-0.000316398
-5.76099e-06
-4.7602e-06
0.000313689
-0.000310528
-7.66346e-06
-6.92656e-06
0.000307036
-0.000302959
-1.03521e-05
-8.78331e-06
0.000298591
-0.000292723
-1.73209e-05
-1.2942e-05
0.000288367
-0.000281775
-2.55999e-05
-2.07889e-05
0.000275276
-0.000269017
-3.23148e-05
-2.94287e-05
0.000262907
-0.000257027
-3.59636e-05
-3.46161e-05
0.000251266
-0.000245793
-3.87813e-05
-3.74225e-05
0.000240423
-0.000235327
-4.12721e-05
-4.02677e-05
0.000230446
-0.00022562
-4.23824e-05
-4.20085e-05
0.000220825
-0.000215917
-4.18058e-05
-4.23227e-05
0.000210869
-0.000205633
-3.94179e-05
-4.08554e-05
0.000200222
-0.000194721
-3.50187e-05
-3.75105e-05
0.000189062
-0.00018361
-2.86202e-05
-3.21943e-05
0.000178089
-0.000173265
-2.15157e-05
-2.52094e-05
0.000168672
-0.000163695
-1.71298e-05
-1.84138e-05
0.000161224
-0.000157278
-1.37073e-05
-1.36064e-05
0.00015475
-0.000152446
-9.85708e-06
-1.12989e-05
0.000151082
-0.000150069
-5.6656e-06
4.65316e-06
-7.27294e-06
-3.58449e-06
2.70687e-06
7.30532e-07
-1.02062e-06
0.000326547
0.00032683
1.43924e-06
-1.94943e-06
0.000326035
0.000326306
2.34405e-06
-2.73429e-06
0.000325723
0.000326141
3.1116e-06
0.000326246
-3.70991e-06
0.000326107
0.000145976
-0.000146235
4.3415e-06
-0.000145615
0.000145697
2.91816e-06
3.86783e-06
-0.0001458
0.000146425
1.54105e-06
2.61561e-06
-0.000147087
0.000148243
-6.69138e-07
6.26353e-07
-0.000149519
0.000151345
-3.73304e-06
-1.8446e-06
-0.000153603
0.000156124
-7.92557e-06
-5.7093e-06
-0.000159073
0.000162594
-1.34838e-05
-1.05628e-05
-0.000166629
0.000171006
-1.95746e-05
-1.64646e-05
-0.000175824
0.000180857
-2.61202e-05
-2.29272e-05
-0.000186245
0.000191457
-3.24936e-05
-2.94664e-05
-0.000196746
0.000202077
-3.81855e-05
-3.55845e-05
-0.000206923
0.000211641
-4.20449e-05
-4.02145e-05
-0.000216087
0.000220457
-4.42411e-05
-4.34085e-05
-0.000224646
0.000228858
-4.47723e-05
-4.46845e-05
-0.000233165
0.000237703
-4.37744e-05
-4.44587e-05
-0.000242443
0.000247515
-4.12881e-05
-4.2712e-05
-0.000252865
0.000258582
-3.75433e-05
-3.95384e-05
-0.000264526
0.000270642
-3.26066e-05
-3.5147e-05
-0.000276811
0.000282865
-2.7176e-05
-3.00292e-05
-0.000288687
0.000294126
-2.14607e-05
-2.43251e-05
-0.000299054
0.000303469
-1.62418e-05
-1.8929e-05
-0.000307486
0.000310845
-1.17601e-05
-1.40145e-05
-0.000313908
0.000316352
-8.10085e-06
-9.92342e-06
-0.000318447
0.000320211
-5.33301e-06
-6.60704e-06
-0.000321604
0.000322738
-3.3948e-06
-4.25546e-06
-0.000323618
0.000324244
-2.07838e-06
-2.66166e-06
-0.000324746
0.000324999
-1.3508e-06
-1.60426e-06
-0.000325184
0.000325297
-7.8432e-07
-1.10387e-06
-0.000325353
0.000325246
-8.77784e-08
-5.26567e-07
-0.000325795
0.000326033
3.30292e-07
-4.06485e-08
-0.000326324
0.000326601
3.3304e-07
3.5415e-07
-0.000326812
-1.99954e-08
0.000327008
1.98505e-07
4.50153e-06
-3.75871e-06
-0.000145975
-0.000146689
4.95533e-06
-2.14595e-06
2.09289e-06
-0.00014831
-8.26585e-07
-0.00014701
1.1217e-06
-0.000145249
0.000326242
-0.000326052
-4.40572e-06
0.000325961
-4.73285e-06
-0.000326061
-1.65348e-06
1.11757e-06
-0.000144608
-2.44805e-06
2.22171e-06
0.000326479
0.00032625
-0.00032618
-3.77418e-06
-2.9569e-06
0.000326765
0.000327032
-0.000326821
-2.25034e-07
-2.17252e-07
1.59967e-08
0.000327216
0.000327298
-4.76991e-07
-0.000150471
0.000150674
1.89054e-06
5.34351e-06
-4.57086e-06
-0.000149083
-0.000150368
5.2402e-06
-1.04701e-06
-0.00014431
-1.6427e-06
-0.000144609
-1.54374e-06
-0.000145462
-2.25849e-06
-0.000146495
4.82574e-06
-4.09445e-06
-0.000146706
-0.000325501
0.000325979
2.31756e-06
-0.000325338
3.73487e-06
-0.000324941
3.46832e-06
5.15401e-06
-0.000147017
-0.000145472
-4.63956e-06
1.60595e-06
0.000324619
-0.000324437
1.80921e-06
2.91029e-06
0.00032346
-0.000322971
-9.43463e-07
3.70594e-07
0.000321803
-0.000320486
-3.12777e-06
-2.00318e-06
0.000318754
-0.000316641
-5.78362e-06
-4.30261e-06
0.000314087
-0.000311043
-8.80372e-06
-7.31347e-06
0.00030755
-0.000303622
-1.15908e-05
-1.0418e-05
0.00029899
-0.000294113
-1.52281e-05
-1.34144e-05
0.000288656
-0.000283157
-2.28188e-05
-1.83982e-05
0.000277344
-0.00027118
-3.17631e-05
-2.66013e-05
0.000264917
-0.000259168
-3.80633e-05
-3.56913e-05
0.000253819
-0.00024887
-4.09125e-05
-3.99643e-05
0.000244039
-0.000239581
-4.32391e-05
-4.22529e-05
0.000235576
-0.000231758
-4.50893e-05
-4.42725e-05
0.000228113
-0.000224595
-4.58999e-05
-4.56531e-05
0.000221153
-0.000217561
-4.53974e-05
-4.57648e-05
0.000213795
-0.00020981
-4.34031e-05
-4.4621e-05
0.000205539
-0.000200958
-3.95996e-05
-4.17807e-05
0.000196154
-0.000191029
-3.37451e-05
-3.69985e-05
0.000186127
-0.000181013
-2.66287e-05
-3.01111e-05
0.00017625
-0.000172339
-2.10403e-05
-2.31772e-05
0.000166844
-0.000163546
-1.70055e-05
-1.91008e-05
0.000159993
-0.000157459
-1.23916e-05
-1.48515e-05
0.000155343
-0.000153727
-7.28141e-06
-9.38832e-06
0.000152269
-0.000151217
-2.72031e-06
-5.04302e-06
-6.27107e-07
1.10658e-07
-3.28337e-07
0.000327065
0.000327105
3.77367e-07
-4.73599e-07
0.000326648
0.000326884
7.65948e-07
-1.14996e-06
0.000326424
0.000326603
1.2283e-06
-1.97751e-06
0.000326477
0.000326224
0.000326357
0.000147478
-0.000147753
5.42939e-06
-0.000147516
0.000147326
4.53233e-06
4.91682e-06
-0.00014738
0.000147505
2.79338e-06
3.81343e-06
-0.000148079
0.000148949
6.70826e-07
2.04157e-06
-0.00015008
0.000151435
-2.0243e-06
-5.03936e-07
-0.000153464
0.000155812
-6.08142e-06
-3.87331e-06
-0.000158598
0.000161809
-1.11369e-05
-8.49512e-06
-0.000165411
0.000169429
-1.75011e-05
-1.41645e-05
-0.000173903
0.000178716
-2.43878e-05
-2.09387e-05
-0.000183576
0.000188727
-3.12709e-05
-2.77867e-05
-0.000193606
0.000198472
-3.73591e-05
-3.43455e-05
-0.000202894
0.000206934
-4.22247e-05
-4.00067e-05
-0.000210869
0.000214375
-4.55508e-05
-4.41492e-05
-0.000217579
0.000220731
-4.73924e-05
-4.66126e-05
-0.000223717
0.000226746
-4.78004e-05
-4.76708e-05
-0.000229892
0.000233224
-4.71064e-05
-4.76043e-05
-0.000236878
0.000240827
-4.52369e-05
-4.6366e-05
-0.000245185
0.000249846
-4.22032e-05
-4.38958e-05
-0.000254931
0.00026042
-3.80946e-05
-4.02317e-05
-0.000266097
0.000271979
-3.30572e-05
-3.5706e-05
-0.000277901
0.000283777
-2.73357e-05
-3.02462e-05
-0.000289246
0.000294646
-2.16408e-05
-2.43974e-05
-0.000299445
0.000303887
-1.6201e-05
-1.8813e-05
-0.000307679
0.000311144
-1.15639e-05
-1.37144e-05
-0.000314054
0.000316521
-7.79815e-06
-9.51643e-06
-0.00031858
0.000320242
-5.05536e-06
-6.31322e-06
-0.000321601
0.000322658
-3.13382e-06
-4.01868e-06
-0.000323529
0.000324061
-1.88053e-06
-2.47318e-06
-0.00032449
0.000324759
-1.04993e-06
-1.53082e-06
-0.000325123
0.000325426
-3.87237e-07
-8.88126e-07
-0.000325678
0.000325993
1.91227e-08
-2.89979e-07
-0.000326295
0.00032655
8.28996e-08
5.64023e-08
-6.73023e-08
5.5663e-06
-4.61917e-06
-0.000147964
-0.000148121
5.93366e-06
-2.75748e-06
-0.000148823
1.3635e-06
-0.000145495
0.000326219
-0.000326259
-4.36137e-06
0.000326325
-4.83348e-06
-0.000326298
-1.60992e-06
0.000325643
-0.000324808
2.90348e-06