/*--------------------------------*- C++ -*----------------------------------*\
| =========                 |                                                 |
| \\      /  F ield         | OpenFOAM: The Open Source CFD Toolbox           |
|  \\    /   O peration     | Version:  2212                                  |
|   \\  /    A nd           | Website:  www.openfoam.com                      |
|    \\/     M anipulation  |                                                 |
\*---------------------------------------------------------------------------*/
FoamFile
{
    version     2.0;
    format      ascii;
    arch        "LSB;label=32;scalar=64";
    class       volScalarField;
    location    "0.068";
    object      T;
}
// * * * * * * * * * * * * * * * * * * * * * * * * * * * * * * * * * * * * * //

dimensions      [0 0 0 1 0 0 0];

internalField   nonuniform List<scalar> 
2308
(
236.309
260.239
260.681
234.365
228.234
224.628
223.429
226.429
229.519
212.575
212.602
213.162
213.704
214.425
215.221
216.069
216.985
217.906
216.994
216.081
215.217
214.376
213.652
212.94
212.497
212.525
212.728
213.006
223.828
217.928
213.5
214.447
216.155
219.115
225.313
230.541
236.901
242.068
242.007
241.486
241.018
240.031
239.157
238.616
238.336
238.454
239.065
239.629
239.833
240.101
240.328
238.819
235.631
233.375
230.273
226.808
221.962
217.638
215.59
214.281
213.655
213.299
213.156
213.1
213.369
213.639
214.061
214.699
215.421
216.236
217.118
238.173
238.015
217.206
216.238
215.346
214.503
213.775
213.154
212.914
212.975
213.185
213.546
214.184
215.646
217.774
222.427
227.025
229.936
232.479
234.588
237.862
240.376
240.441
240.088
239.876
239.347
238.66
218.805
238.198
218.903
218.07
238.418
239.073
239.32
239.602
239.834
237.702
234.425
232.007
230.33
229.113
228.158
227.011
225.924
223.057
218.783
216.579
215.144
214.626
214.373
214.306
214.332
214.491
214.712
215.207
215.857
216.616
217.452
227.233
223.86
223.055
223.577
218.642
217.506
216.462
215.559
214.8
214.175
213.888
214.002
214.135
214.557
215.225
216.695
219.479
223.589
225.872
226.922
228.003
228.679
229.76
231.244
233.627
236.946
240.092
240.08
239.655
239.439
238.814
238.04
237.893
238.055
237.719
227.294
237.732
227.936
227.383
219.092
230.569
227.219
219.869
218.381
237.556
237.66
237.913
237.515
237.282
238.087
238.747
239.007
239.301
239.48
237.225
233.802
231.183
229.62
228.43
227.902
227.403
227.071
226.821
226.534
226
224.668
221.336
218.493
217.273
216.552
216.296
216.075
215.969
215.844
216.035
216.523
217.149
217.901
220.95
241.29
227.047
225.784
224.413
223.215
222.07
220.974
219.866
218.809
217.777
216.832
216.055
215.466
215.273
215.36
215.688
216.082
217.215
218.608
222.18
225.434
226.322
226.671
226.911
227.06
227.264
227.686
228.195
229.151
230.681
233.052
236.544
239.766
239.721
239.311
239.062
238.456
266.398
229.278
238.614
243.058
252.412
228.653
219.397
221.114
239.114
239.261
239.516
237.448
233.865
230.995
229.337
228.106
227.522
227.065
226.778
226.609
226.663
226.733
226.797
226.951
226.841
226.362
224.45
221.599
219.779
218.838
218.191
217.873
217.69
217.582
217.627
217.985
218.555
218.725
231.9
226.889
225.457
224.248
223.185
222.16
221.085
220.07
219.101
218.245
217.496
217.057
216.947
217.119
217.476
218.289
219.537
222.009
225.279
226.87
227.229
227.18
226.976
226.847
226.634
226.589
226.626
226.906
227.214
227.853
228.765
230.39
232.988
236.79
239.61
239.55
239.283
239.082
237.744
237.251
237.465
237.698
237.334
237.017
237.456
238.859
241.738
258.805
268.042
230.218
236.216
260.082
219.234
219.645
232.933
231.782
238.771
226.156
225.196
224.217
223.225
222.252
221.32
220.435
219.695
219.083
218.83
218.928
219.223
219.77
220.851
222.68
225.685
227.935
228.352
228.267
228.106
227.931
227.575
227.059
226.689
226.499
226.504
226.547
226.676
226.942
227.294
228.016
229.059
230.948
233.875
237.995
240.103
240.021
239.961
238.545
237.388
237.101
237.288
237.444
237.175
236.951
237.188
238.292
240.069
240.122
240.379
238.695
234.737
231.658
229.756
228.506
227.666
227.185
226.858
226.648
226.557
226.531
226.662
227.064
227.438
227.668
227.784
227.915
227.856
227.144
224.923
222.621
221.147
220.282
219.825
219.564
219.442
219.35
219.568
233.197
219.971
220.675
222.146
233.659
232.628
230.869
229.202
227.625
226.277
226.077
225.242
224.334
223.454
222.602
221.898
221.233
220.928
220.931
221.206
221.669
222.594
224.049
226.651
229.169
229.761
229.701
229.504
229.306
228.911
228.353
227.889
227.509
227.172
226.962
226.775
226.78
226.855
226.964
227.207
227.513
228.089
228.835
230.35
232.418
235.97
240.366
242.321
242.321
239.793
238.147
237.315
237.13
237.169
237.257
237.082
236.992
237.189
238.033
239.943
242.918
242.806
241.33
237.095
233.515
231.341
229.672
228.765
228.072
227.709
227.389
227.201
227.039
226.983
227.02
227.251
227.532
227.93
228.385
228.788
229.009
229.11
229.247
229.218
228.207
225.861
223.903
222.681
221.95
221.603
221.417
221.309
220.038
234.399
234.522
268.23
220.56
227.801
229.267
231.06
221.725
224.673
222.419
220.821
234.265
233.179
242.343
239.599
238.099
237.384
237.157
237.143
237.18
237.081
237.03
237.269
238.082
239.822
242.928
247.77
247.308
241.949
237.454
234.866
232.603
231.405
230.332
229.803
229.173
228.859
228.419
228.21
228.139
228.152
228.296
228.423
228.678
228.89
229.259
229.603
230.104
230.433
230.615
230.699
230.809
230.658
229.364
227.134
225.426
224.426
223.794
223.491
221.323
227.987
235.4
242.778
255.492
225.506
224.732
223.996
223.527
223.281
223.249
223.454
223.814
224.552
226.05
228.136
230.512
231.314
231.241
231.032
230.846
230.452
229.899
229.417
229.035
228.681
228.424
228.152
227.941
227.769
227.627
227.646
227.771
228.065
228.457
228.891
229.484
230.313
231.441
233.56
235.999
240.4
245.343
247.071
235.72
235.921
267.963
221.734
235.284
221.204
252.58
247.195
241.437
238.289
236.284
234.775
233.671
232.745
232.058
231.411
230.866
230.413
230.208
230.149
230.148
230.236
230.33
230.487
230.632
230.832
231.05
231.341
231.657
232.043
232.33
232.455
232.488
232.545
232.401
231.261
229.293
227.59
226.617
223.327
226.71
236.219
247.041
242.435
239.65
238.192
237.454
237.2
237.149
237.178
237.074
237.099
237.355
238.193
239.948
243.039
247.627
252.576
228.785
233.387
231.062
229.228
228.107
225.027
224.948
257.831
240.269
226.663
226.272
225.876
225.679
225.816
226.207
226.865
228.15
230.137
232.17
232.897
232.718
232.59
232.458
232.138
231.647
231.245
230.886
230.593
230.356
230.133
229.944
229.757
229.62
229.511
229.488
229.516
229.656
229.963
230.574
231.116
231.864
232.618
233.733
235.013
236.967
239.614
244.812
250.589
252.313
266.406
221.568
222.646
236.784
237.153
237.305
225.847
267.114
264.232
224.033
221.997
225.849
224.17
245.069
242.345
262.956
256.278
254.426
249.145
244.441
242.084
240.011
238.551
237.355
236.427
235.575
234.827
234.113
233.561
233.283
233.156
233.097
233.077
233.075
233.133
233.196
233.294
233.397
233.526
233.679
233.884
234.107
234.371
234.629
234.751
234.71
234.708
234.555
233.66
232.197
230.999
227.389
236.113
239.613
252.106
246.865
242.468
239.772
238.309
237.582
237.28
237.177
237.191
237.114
237.188
237.509
238.336
240.031
242.987
247.472
252.337
256.268
225.277
233.325
231.046
229.335
228.832
228.864
254.394
240.732
229.519
229.186
229.133
229.174
229.387
229.965
231.133
232.854
234.202
234.601
234.457
234.432
234.34
234.104
233.796
233.531
233.288
233.085
232.926
232.776
232.656
232.541
232.468
232.413
232.421
232.464
232.525
232.7
232.901
233.323
234.159
234.774
235.741
236.482
237.743
238.91
240.904
242.931
247.005
252.46
256.28
256.273
229.337
223.211
239.183
233.616
235.695
237.629
221.959
238.18
238.555
238.724
261.025
235.716
255.086
222.238
236.504
226.22
268.015
266.557
237.693
237.982
237.863
237.877
237.955
237.879
237.704
237.537
237.366
237.228
237.136
237.071
237.026
236.996
236.98
236.985
237.009
237.044
237.119
237.244
237.425
237.641
238.016
238.595
239.424
240.249
241.203
242.186
243.453
244.87
247.029
249.22
252.673
256.86
259.018
259.253
264.877
255.867
251.488
246.668
242.558
239.919
238.508
237.776
237.445
237.22
237.223
237.15
237.365
237.741
238.569
240.202
243.021
246.857
251.37
255.624
258.907
227.783
225.369
231.521
267.879
268.697
269.325
269.378
269.142
267.751
266.242
264.713
248.13
263.085
233.077
235.496
235.579
233.777
236.133
238.345
222.51
229.548
264.736
233.16
231.031
229.868
230.192
230.955
231.266
247.184
235.096
234.329
234.004
234.018
234.667
235.763
236.445
236.672
236.637
236.666
236.746
236.858
236.798
236.749
236.684
236.6
236.538
236.486
236.447
236.418
236.406
236.412
236.435
236.491
236.549
236.666
236.802
237.043
237.235
237.616
238.07
238.939
239.677
240.674
241.527
242.767
243.983
245.866
248.015
250.934
255.111
258.601
259.192
259.021
236.053
233.377
231.309
254.891
231.603
223.219
258.72
230.488
261.133
240.205
239.935
239.623
233.757
236.21
233.752
264.989
236.164
259.152
263.754
243.988
232.316
233.132
265.526
267.015
268.542
242.899
242.801
242.79
242.804
242.8
242.759
242.616
242.479
242.347
242.258
242.21
242.182
242.168
242.156
242.157
242.16
242.178
242.225
242.31
242.418
242.594
242.826
243.22
243.811
244.643
245.459
246.42
247.393
248.654
250.116
252.192
254.183
256.623
259.076
260.416
260.718
260.609
234.933
232.907
231.444
231.275
232.974
235.218
250.598
226.4
228.298
231.558
231.386
263.123
263.293
238.567
238.732
221.329
257.028
255.325
228.31
227.909
269.372
264.047
266.067
238.279
258.468
254.908
250.219
245.798
242.345
240.095
238.841
238.146
237.69
237.376
237.31
237.313
237.659
238.175
238.923
240.24
242.462
245.733
249.773
254.271
258.164
260.207
269.935
270.451
270.818
270.794
270.536
269.964
262.495
225.067
229.582
230.039
230.682
252.457
261.082
261.488
241.73
256.746
240.471
240.512
259.324
223.423
265.856
268.058
241.446
249.788
247.28
245.295
244.454
243.832
243.346
242.959
242.647
242.33
242.169
242.097
242.096
242.119
242.206
242.208
242.199
242.178
242.14
242.121
242.104
242.098
242.086
242.08
242.074
242.078
242.086
242.126
242.205
242.289
242.455
242.628
242.961
243.426
244.218
244.958
245.87
246.739
247.881
249.134
251.008
252.895
255.276
257.687
259.796
260.267
260.388
260.094
268.607
246.432
263.145
231.531
263.356
238.721
262.766
254.593
226.159
260.835
226.507
226.264
251.669
242.875
238.431
235.572
233.682
233.676
235.075
237.167
241.424
239.738
256.45
232.568
253.216
239.514
251.174
251.12
250.889
250.723
250.627
250.541
250.372
250.032
249.665
249.352
249.104
248.869
248.684
248.476
248.311
248.111
247.969
247.798
247.674
247.602
247.575
247.602
247.686
247.874
248.205
248.79
249.504
250.305
251.124
252.098
253.243
254.797
256.312
257.505
258.517
259.546
260.252
260.431
260.518
260.267
264.145
265.725
267.249
268.806
258.549
260.055
236.219
233.863
234.372
243.537
237.968
240.585
220.199
255.548
236.303
227.163
229.557
229.715
233.311
241.692
261.427
261.65
242.88
242.938
221.561
256.485
225.052
254.126
251.26
241.241
241.163
257.5
223.833
225.411
242.735
237.863
251.6
253.416
256.977
233.679
239.301
270.266
271.432
272.139
272.483
272.643
272.572
272.29
271.778
270.891
227.882
224.922
242.609
243.225
259.406
250.799
258.962
257.258
256.477
255.539
254.662
253.865
253.119
252.433
251.863
251.435
251.142
250.947
250.821
250.678
250.396
250.072
249.751
249.51
249.253
249.056
248.799
248.606
248.334
248.154
247.883
247.744
247.491
247.409
247.294
247.276
247.311
247.418
247.661
248.092
248.799
249.475
250.314
251.115
252.195
253.52
255.202
256.453
257.64
258.571
259.625
259.83
260.105
259.964
259.704
259.312
256.921
252.792
248.049
244.381
241.817
240.101
239.233
238.603
238.059
237.565
237.49
237.507
238.031
238.548
239.169
240.116
241.746
244.021
247.537
251.949
256.474
259.34
260.017
229.437
259.678
242.54
244.573
243.14
259.414
268.825
261.278
223.182
223.251
258.391
255.639
248.77
243.557
239.186
237.017
236.671
237.919
239.855
242.244
247.275
245.716
244.674
230.972
229.546
237.838
261.649
244.009
220.501
251.983
248.814
248.286
241.385
255.283
224.46
254.995
237.937
241.05
238.63
237.153
237.365
240.277
244.599
248.512
258.34
265.918
230.037
260.049
261.574
263.142
264.619
266.534
269.056
226.862
224.884
272.119
244.646
272.067
273.553
273.71
273.812
273.976
274.088
274.152
274.15
274.121
274.13
273.917
272.814
248.088
257.621
235.011
238.74
223.21
264.949
229.469
259.762
260.037
260.197
260.162
260.04
259.818
259.489
259.104
258.683
258.313
257.988
257.699
257.353
256.869
256.236
255.67
255.16
254.71
254.255
253.833
253.383
252.989
252.558
252.228
251.835
251.607
251.257
251.137
250.984
250.959
251.004
251.135
251.408
251.896
252.552
253.261
253.985
254.756
255.61
256.472
257.161
257.612
258.038
258.351
258.605
258.672
258.894
258.918
258.977
258.877
259.08
258.047
254.882
250.566
246.147
242.944
241.053
240.011
239.37
238.962
238.504
238.093
237.906
238.039
238.41
238.803
239.14
239.943
240.85
242.622
245.695
249.875
254.431
257.992
259.386
259.324
259.465
259.423
259.47
259.235
259.176
258.987
258.707
258.308
257.89
257.328
256.527
255.682
254.929
254.183
253.486
252.787
252.246
251.892
251.715
251.639
251.624
251.725
251.848
252.076
252.373
252.654
253.028
253.382
253.807
254.209
254.662
255.108
255.626
256.217
256.913
257.458
257.843
258.123
258.39
258.664
258.891
258.439
259.405
259.884
243.789
253.244
236.429
260.046
259.673
225.214
260.188
244.774
247.941
226.533
232.79
228.845
228.102
234.985
230.447
259.81
259.714
245.873
252.912
247.665
246.127
251.311
243.385
243.659
257.846
253.68
245.19
225.027
255.795
243.799
248.863
250.42
246.8
246.535
259.871
232.596
228.412
228.946
246.149
244.198
242.622
241.667
242.192
245.187
250.398
255.38
258.689
259.578
259.524
246.115
247.821
223.989
259.442
259.154
256.116
251.433
245.846
242.428
241.917
243.003
257.538
226.129
255.379
257.008
258.509
259.73
225.108
249.589
227.231
251.328
232.737
255.657
260.96
257.422
258.137
259.908
261.454
263.946
266.944
270.533
226.949
227.132
260.476
261.267
261.148
261.229
261.768
261.554
261.513
261.444
261.248
261.055
260.806
260.426
259.93
259.409
258.881
258.371
257.88
257.424
256.974
256.576
256.178
255.862
255.537
255.327
255.057
254.973
254.867
254.87
254.912
255.021
255.222
255.54
255.923
256.328
256.658
256.943
257.214
257.512
257.737
257.884
257.904
257.886
257.842
257.828
257.854
257.975
258.024
258.171
258.291
246.354
245.629
258.846
258.795
256.902
253.089
248.481
244.256
241.361
240.052
239.755
239.33
239.159
238.914
238.616
238.508
238.557
238.736
238.871
239.055
239.405
239.607
241.094
243.904
247.946
252.674
256.818
259.034
259.277
258.533
251.187
273.343
274.547
274.58
274.63
274.709
274.771
274.777
274.784
274.808
274.885
274.776
273.814
271.462
262.955
265.58
269.561
270.361
260.019
260.085
260.319
260.757
261.118
261.387
261.518
261.49
261.385
261.174
260.935
260.689
260.355
259.904
259.357
258.836
258.333
257.86
257.391
256.956
256.516
256.127
255.73
255.414
255.073
254.857
254.574
254.433
254.328
254.286
254.311
254.392
254.558
254.842
255.213
255.629
255.998
256.298
256.573
256.883
257.141
257.311
257.377
257.365
257.327
257.29
257.3
257.413
257.461
257.587
257.718
258.013
253.501
248.703
257.947
257.886
230.882
228.7
226.389
231.308
249.142
246.47
260.54
248.094
228.42
260.193
260.267
260.306
259.856
258.358
256.611
253.28
250.255
249.398
258.797
218.729
253.326
255.857
257.72
258.608
260.537
250.234
249.121
249.234
250.15
252.841
256.414
258.348
259.905
260.434
260.541
228.31
227.752
229.644
257.99
249.12
251.303
248.963
246.287
260.294
260.409
260.611
261.232
261.3
261.381
261.771
261.864
261.962
261.938
261.858
261.723
261.523
261.244
260.947
260.639
260.317
259.986
259.654
259.334
259.034
258.761
258.506
258.278
258.059
257.848
257.692
257.536
257.402
257.294
257.218
257.165
257.152
257.165
257.198
257.241
257.261
257.274
257.309
257.36
257.382
257.37
257.331
257.246
257.105
256.927
256.774
256.685
256.657
256.692
256.75
256.918
256.205
257.785
258.715
259.445
260.63
262.576
265.199
267.927
268.349
229.623
255.892
247.866
253.776
255.841
228.692
226.143
261.543
263.543
267.108
268.583
230.737
250.704
268.721
271.921
271.922
270.788
270.033
269.328
268.696
268.666
268.819
269.356
270.12
270.781
270.967
268.362
268.032
266.019
257.965
258.633
258.164
255.975
252.039
247.412
243.309
240.542
239.327
239.206
239.326
239.429
239.6
239.786
239.91
239.626
239.254
238.969
238.884
238.675
238.998
240.365
243.07
247.048
251.763
255.962
258.484
259.078
258.479
256.926
260.469
260.428
260.513
260.751
261.097
261.405
261.627
261.737
261.731
261.687
261.59
261.425
261.188
260.877
260.561
260.247
259.923
259.6
259.282
258.972
258.687
258.408
258.164
257.906
257.707
257.453
257.287
257.117
256.964
256.839
256.743
256.679
256.645
256.651
256.674
256.721
256.748
256.757
256.781
256.833
256.874
256.868
256.838
256.765
256.627
256.439
256.244
256.142
256.069
256.097
256.157
256.326
256.351
248.904
251.45
255.945
228.028
227.602
255.585
255.474
254.744
244.731
255.657
258.718
256.993
258.367
254.876
257.812
245.528
250.367
239.058
241.66
237.533
237.767
238.562
238.083
239.58
239.09
239.766
239.901
239.134
239.492
238.132
238.762
239.241
238.147
245.851
241.846
254.912
250.634
258.364
257.611
254.939
255.019
256.461
257.935
254.789
254.828
254.992
254.823
255.668
255.278
256.307
256.036
256.553
256.47
256.614
256.594
256.698
256.646
256.786
256.743
256.955
256.858
257.236
257.08
257.62
257.417
258.067
257.837
258.559
258.309
259.078
258.816
259.614
259.351
260.145
259.883
260.649
260.402
261.11
260.885
261.497
261.315
261.754
261.65
261.826
261.804
261.738
261.826
261.367
261.587
260.832
261.102
260.511
260.63
260.438
260.471
260.037
260.305
259.114
259.627
258.656
258.792
258.035
258.339
255.449
256.033
259.537
256.299
263.758
262.322
263.878
264.386
265.013
263.716
267.779
266.594
266.442
256.665
262.281
253.941
254.868
252.826
253.2
252.349
252.541
252.132
252.176
252.454
252.184
254.238
253.111
268.349
256.172
268.878
266.87
270.263
268.385
268.029
268.009
266.832
267.392
263.565
264.937
263.763
263.42
261.526
263.14
257.029
259.095
256.865
256.664
258.045
258.1
258.42
258.252
259.374
258.821
260.014
259.768
260.372
260.225
260.788
260.535
261.311
261.151
261.714
261.441
262.021
261.884
262.046
262.067
261.917
262.001
261.616
261.781
261.212
261.426
260.735
260.98
260.218
260.48
259.688
259.95
259.162
259.415
258.668
258.91
258.217
258.436
257.823
258.012
257.517
257.656
257.323
257.407
257.227
257.265
257.138
257.183
257.095
257.119
256.95
257.047
256.492
256.771
255.804
256.14
255.443
255.567
255.433
270.627
267.808
253.779
224.153
255.776
249.923
255.169
264.637
271.878
272.801
272.817
272.117
272.154
272.557
272.547
222.936
249.397
253.747
251.404
251.429
219.805
221.1
219.831
231.905
229.259
230.603
233.085
230.174
231.642
234.119
230.884
232.468
234.973
231.362
233.184
248.091
227.472
272.193
227.678
268.382
225.53
238.156
246.176
226.821
228.074
247.97
222.488
217.939
249.643
261.135
222.322
260.54
259.292
259.967
267.582
240.491
226.646
253.036
224.135
267.001
222.403
244.935
223.044
222.512
225.694
231.729
271.973
265.874
241.591
260.225
260.25
253.322
268.627
262.547
231.412
269.864
254.371
231.114
243.591
240.232
219.782
262.636
252.183
236.686
225.933
212.914
212.789
253.426
)
;

boundaryField
{
    wall
    {
        type            zeroGradient;
    }
    outlet
    {
        type            inletOutlet;
        inletValue      uniform 85;
        value           nonuniform List<scalar> 
33
(
258.717
256.991
258.366
254.876
257.812
245.529
250.367
239.058
241.661
237.534
237.767
238.563
238.084
239.582
239.091
239.768
239.903
239.135
239.493
238.132
238.762
239.241
238.147
245.852
241.847
254.912
250.634
258.364
257.611
256.459
257.934
255.772
255.166
)
;
    }
    inlet
    {
        type            fixedValue;
        value           uniform 273.16;
    }
    frontAndBackPlanes
    {
        type            empty;
    }
}


// ************************************************************************* //
