/*--------------------------------*- C++ -*----------------------------------*\
| =========                 |                                                 |
| \\      /  F ield         | OpenFOAM: The Open Source CFD Toolbox           |
|  \\    /   O peration     | Version:  2212                                  |
|   \\  /    A nd           | Website:  www.openfoam.com                      |
|    \\/     M anipulation  |                                                 |
\*---------------------------------------------------------------------------*/
FoamFile
{
    version     2.0;
    format      ascii;
    arch        "LSB;label=32;scalar=64";
    class       volScalarField;
    location    "0.0685";
    object      k;
}
// * * * * * * * * * * * * * * * * * * * * * * * * * * * * * * * * * * * * * //

dimensions      [0 2 -2 0 0 0 0];

internalField   nonuniform List<scalar> 
2308
(
822.086
6043.63
1281.45
1255.45
501.857
463.604
438.027
479.489
517.004
311.956
314.659
322.965
329.289
337.324
346.232
355.739
365.797
376.983
366.292
355.934
346.128
336.87
328.269
320.321
314.789
311.721
309.696
308.781
443.294
376.28
311.277
321.926
350.352
412.844
524.169
650.851
783.91
871.195
857.904
828.277
798.237
766.277
737.644
713.502
692.936
686.06
708.523
732.684
755.824
777.599
795.821
783.059
720.55
643.778
590.121
535.799
464.563
390.803
344.493
323.008
315.643
314.54
315.811
318.099
322.18
326.892
332.776
340.314
348.963
358.439
368.675
674.97
665.635
366.719
355.911
345.836
336.515
328.032
321.118
316.778
314.249
312.887
314.209
322.291
346.614
396.495
469.057
531.811
569.779
614.635
687.815
760.037
790.379
775.797
753.9
730.536
706.22
683.555
387.24
662.981
386.912
379.568
652.238
674.381
695.259
714.758
730.62
713.782
650.119
587.602
543.268
520.841
510.686
506.96
504.181
475.997
417.676
367.075
339.833
329.997
327.659
328.038
330.278
333.841
338.397
344.79
352.975
362.312
372.544
496.232
462.764
443.25
453.372
380.778
368.038
356.485
346.243
337.291
330.04
325.641
323.73
323.277
326.593
338.432
370.394
425.034
477.318
495.46
496.022
496.302
501.582
518.002
556.218
617.722
690.939
723.659
711.093
691.381
670.15
647.62
626.817
644.701
658.195
647.573
489.937
631.779
520.401
562.07
391.086
537.978
487.145
398.9
383.742
608.767
628.008
641.596
631.14
613.992
605.783
624.935
643.707
661.187
675.018
657.964
595.925
534.995
494.11
475.065
468.42
469.045
474.064
482.018
491.076
496.826
490.491
451.342
400.419
367.3
352.673
347.206
345.818
346.432
348.122
351.849
358.342
366.731
376.472
407.935
737.997
488.745
476.875
456.583
438.853
422.736
407.83
393.623
380.373
368.209
357.26
348.046
341.084
337.29
336.181
337.686
344.839
364.022
404.047
458.126
491.268
491.351
482.708
471.902
462.273
455.385
452.459
456.004
470.725
506.434
565.287
635.283
665.836
654.305
636.946
618.12
598.615
1794.11
529.568
1424.61
1738.13
1328.52
556.224
395.815
411.26
611.237
626.236
639.48
629.441
570.785
509.612
469.122
449.749
441.921
440.929
443.916
449.287
456.774
466.4
477.286
489.052
498.985
502.313
484.415
441.799
402.423
380.191
369.571
365.673
365.239
366.709
370.066
376.036
384.685
387.272
552.36
701.377
483.563
462.682
444.189
427.065
411.133
396.422
383.199
371.603
362.195
355.785
352.69
352.671
356.967
369.985
399.439
446.555
488.158
499.079
491.974
479.799
467.077
455.181
444.638
436.648
430.845
427.117
426.75
432.394
448.252
484.161
544.15
610.59
632.753
620.471
604.806
588.737
581.214
593.027
612.597
624.994
615.965
598.887
588.985
595.615
1333.36
1328.93
3691.31
560.618
721.408
1459
394.849
399.077
572.006
575.608
684.352
474.464
506.085
480.879
458.326
438.39
420.838
405.52
392.726
382.868
377.058
374.995
376.599
385.142
406.404
445.091
489.127
510.714
507.687
496.993
484.746
472.9
460.822
449.831
441.47
435.706
431.949
429.42
428.121
428.818
432.38
441.355
460.788
501.004
565.133
625.784
633.801
620.868
608.07
573.188
567
579.79
598.371
609.172
601.902
586.33
575.569
580.964
615.727
627.407
640.851
639.154
584.741
520.671
478.604
456.407
445.59
441.081
440.158
441.485
444.172
448.094
454.058
462.761
473.609
484.668
495.323
506.144
514.399
512.079
486.243
447.01
415.718
398.806
391.995
390.484
392.202
395.535
401.377
568.146
406.26
411.497
422.462
592.757
610.367
603.553
603.84
914.061
534.141
570.501
539.829
510.52
484.25
461.49
442.573
427.446
416.869
411.009
409.808
415.026
430.867
460.443
502.393
530.358
532.253
523.619
512.733
501.733
490.198
479.762
471.511
464.95
460.172
457.214
455.875
456.285
458.164
460.959
465.019
470.786
479.395
494.149
520.692
569.789
641.178
696.956
698.378
686.436
596.409
560.343
555.579
568.265
585.335
594.874
589.196
575.222
564.659
569.704
605.837
694.718
702.546
704.054
655.537
584.467
533.782
504.592
488.404
479.085
473.415
469.757
467.423
466.159
466.201
467.978
471.695
477.325
484.722
493.934
504.366
514.566
523.964
533.173
539.275
531.144
500.895
466.012
442.609
431.083
428.262
430.4
435.003
410.318
588.261
588.48
4972.86
420.749
683.576
674.132
664.805
424.98
454.597
426.997
418.086
621.984
661.73
678.54
586.566
550.262
545.514
557.613
573.512
582.318
577.559
564.603
554.752
560.732
597.575
688.28
852.933
854.436
812.843
721.495
654.473
612.38
585.885
568.15
555.554
545.58
537.311
530.1
524.047
520.108
518.372
517.774
518.408
520.442
523.869
528.942
535.812
544.656
554.694
564.277
572.961
581.497
585.438
573.804
543.621
515.597
498.777
493.016
495.146
441.293
504.477
610.233
2224.41
1494.85
615.183
574.488
540.485
513.382
493.193
479.991
473.37
473.671
484.565
508.524
542.004
570.779
576.138
568.655
558.878
548.793
537.958
528.335
521.179
515.981
512.689
510.89
510.342
510.986
512.807
515.621
520.22
526.808
534.931
543.75
553.94
566.371
582.671
607.125
646.664
710.489
801.215
854.272
857.177
611.111
609.349
1634.9
430.674
665.005
431.818
1108.36
1047.78
911.614
825.622
772.815
737.364
710.591
688.859
670.827
655.558
641.817
629.902
620.736
614.744
610.247
606.937
604.687
603.47
603.375
604.576
607.413
612.232
619.113
628.331
639.287
650.192
660.568
671.217
677.447
669.265
648.525
628.482
619.743
501.207
493.197
635.166
846.277
672.673
579.023
541.545
536.065
547.592
562.529
570.838
566.513
554.637
545.621
552.448
590.933
682.219
840.073
1084.81
522.636
734.553
756.98
790.36
835.614
463.173
474.151
5060.07
1756.04
763.558
707.536
663.497
631.913
611.194
600.394
601.364
615.815
639.622
658.829
660.742
651.192
641.141
630.862
619.962
610.603
604.058
599.922
598.039
597.905
599.127
601.416
604.655
608.852
614.042
620.136
627.174
636.528
648.895
663.249
678.933
696.149
716.873
742.163
774.605
821.979
900.269
1028.36
1117.32
1121.98
1553.99
449.721
444.018
636.435
631.774
633.239
476.733
1632.6
1758.83
452.261
443.775
621.112
450.646
1225.34
2186.4
1534.7
1370.07
1384.31
1289.09
1153.64
1061.46
993.192
942.763
903.503
872.119
845.63
822.562
801.973
784.834
772.355
763.416
756.37
750.612
745.911
742.226
739.575
738.024
737.837
739.254
742.733
748.833
757.667
769.467
784.686
802.262
818.1
835.922
852.07
859.4
854.277
852.713
510.574
988.595
915.376
1084.47
833.821
666.214
572.204
533.8
527.707
538.408
552.174
559.869
556.093
545.615
537.71
545.214
584.38
674.378
823.338
1042.45
1303.16
462.078
862.937
918.036
992.856
1093.15
1266.28
1456.68
708.501
1249.19
1117.49
1019.34
948.21
900.096
871.631
861.735
862.006
856.479
838.316
817.845
800.124
784.15
769.565
758.005
749.765
744.561
742.25
742.147
743.761
746.693
750.725
755.709
761.591
768.314
775.967
784.457
794.13
806.304
822.967
843.37
865.598
890.864
920.212
956.018
1001.51
1062.71
1148.49
1270.28
1411.14
1437.42
1378.71
543.904
508.624
793.678
625.9
644.01
665.081
458.597
656.794
659.665
656.706
1572.49
1167.17
1045.09
432.166
1276.62
500.25
1633.96
1544.29
1231.6
1187.37
1142.87
1106.12
1073.4
1043.27
1016.66
995.428
978.656
966.954
959.371
954.833
952.712
952.485
953.717
956.157
959.74
964.352
970.205
977.467
986.68
999.103
1016.8
1041.71
1072.33
1107.02
1146.85
1193.93
1251.76
1326.43
1420.29
1531.63
1662.32
1735.39
1702.15
1615.52
1470.01
1302.85
1038.32
814.004
658.345
566.8
527.803
521.035
530.467
542.626
549.654
546.521
537.999
531.707
539.659
578.106
662.634
796.721
991.096
1226.38
1511.72
532.014
625.016
610.876
1768.47
1742.77
1730.59
1735.73
1769.41
1661.17
1562.9
1475.72
2376.84
1423.25
1246.87
2416.86
1544.88
663.193
678.597
698.628
468.454
568.55
1669.93
1083.6
1202.88
1355.08
1553.66
1817.44
1628.51
3763.15
2007.33
1814.36
1657.58
1531.99
1443.35
1376.54
1315.41
1256.22
1200.77
1153.4
1115.46
1081.34
1053.56
1031.62
1014.62
1002.16
993.792
988.857
986.635
986.406
987.797
990.502
994.359
999.13
1004.89
1011.55
1019.38
1028.66
1040.2
1055.82
1078.56
1107.27
1139.78
1176.72
1219.78
1271.75
1338.34
1426.17
1534.49
1660.81
1777.2
1786.51
1709.64
1605.06
926.755
970.321
1010.04
1338.73
1307.74
511.896
1197.76
1390.03
1386.51
684.301
681.846
689.235
811.884
725.432
719.371
1460.33
799.243
1481.41
1456.66
769.347
1860.03
1707.59
1555.81
1658.57
1769.08
1653.75
1582.8
1527.98
1483.43
1442.98
1406.08
1372.64
1346.87
1325.85
1311.34
1301.18
1294.67
1290.03
1287.18
1285.69
1285.55
1287.19
1290.68
1296.71
1305.92
1319.28
1338.85
1367.34
1406.6
1454.09
1507.5
1567.77
1637.26
1720.5
1824.43
1937.8
2045.84
2135.96
2156.18
2082.79
1964.34
1832.34
2766.54
2358.37
2045.32
1766.12
1557.44
1382.27
3572.08
521.022
845.152
653.528
830.765
1396.72
1388.57
882.681
739.773
415.665
1381.8
5005.53
508.257
560.005
1948.75
1527.86
1646.12
1230.36
1494.86
1218.73
981.771
782.688
644.998
561.142
523.564
516.305
524.04
534.424
540.55
538.282
531.954
527.041
534.722
569.671
643.585
760.67
932.847
1145.65
1407.9
1705.38
1890.5
1852.32
1840.8
1849.97
1889.35
1887.12
1369.77
603.335
601.722
1078.81
1696.91
2954.54
1321.02
1342.89
710.425
1099.5
1056.52
723.296
1298.84
516.662
2065.12
1915.77
715.332
3495.33
3117.03
2807.68
2587.9
2403.28
2242.24
2098.07
1965.2
1849.66
1756.15
1682.37
1623.03
1573.64
1529.99
1491.76
1459.91
1433.73
1413.2
1397.6
1385.88
1377.04
1370.33
1365.29
1361.78
1359.73
1359.24
1360.6
1364.47
1371.25
1381.62
1397.14
1420.69
1454.96
1498.51
1547.99
1603.67
1667.47
1743.22
1838.2
1950.84
2065.17
2166.05
2223.49
2181.97
2068.9
1932.9
1797.91
3039.52
1519.22
1732.6
720.968
1378.31
796.405
1670.18
4575.83
474.273
1424.57
555.238
660.918
4963.95
4391.57
3814.39
3345.09
2923.55
2552.34
2237.42
1959.2
1111.46
1716.25
3435.91
2368.32
2878.95
2827.31
2420.92
2335.16
2256.13
2189.46
2134.34
2087.02
2039.98
1988.92
1939.9
1900.78
1869.33
1844.38
1823.91
1807.36
1793.99
1783.91
1777.34
1774.88
1777.02
1784.47
1797.89
1818.58
1847.67
1887.42
1940.28
2006.49
2080.86
2159.18
2241.47
2329.89
2429.56
2538.92
2629.23
2684.06
2688.88
2610.44
2461.6
2292.61
2129.78
1987.09
1461.34
1552.77
1649.11
1751.32
1161.88
1557.78
3345.36
2969.22
2676.72
1799.05
2207.33
2021.48
403.103
5171.92
1569.44
751.425
653.533
869.882
2056.95
2917.5
1315.67
1307.98
885.089
737.952
422.102
1246.2
487.669
1176.74
1117.13
894.506
763.449
1216.54
523.559
538.013
2515.99
2832.92
964.6
996.684
1128.54
2225.74
3271.96
2036.82
2056.56
2009.3
1976.48
1965.49
1977.78
2021.28
2016.64
1876.17
600.666
599.716
750.611
743.168
1240.84
2801.44
4639.62
4575.99
4155.1
3809.44
3518.43
3270.96
3059.15
2876.9
2723.06
2596.59
2493.63
2410.52
2342.43
2280.9
2220.2
2160.06
2105.77
2060.53
2022.68
1990.39
1962.28
1937.78
1916.65
1899.12
1885.37
1876.13
1871.86
1872.67
1879.86
1894.17
1916.89
1949.52
1994.97
2054.77
2124.46
2198.78
2277.15
2360.89
2454.69
2562.81
2663.19
2731.45
2757.72
2713.27
2581.39
2407.94
2234.89
2079.21
1957.4
1681.23
1391.67
1135.45
920.024
743.344
625.395
553.171
518.708
512.072
518.914
528.091
533.253
532.011
526.821
521.688
527.68
558.644
618.841
721.441
873.359
1067.34
1314.75
1598.91
1878.35
1250.28
1260.97
1487.23
1036.82
1038.94
6482.63
1988.79
1866
437.57
480.129
6888.66
6846.67
6341.48
5803.88
5279.03
4716.07
4157.87
3665.04
3194.79
2697.64
1539.84
1264.48
2134.51
1056.33
736.758
2610.14
1298.15
806.997
408.638
1478.17
1070.59
1131.55
814.951
1133.19
531.028
1063.09
2214.09
3510.82
3817.07
4208.56
4711.21
5199.6
5631.97
5924.15
6340.83
1864.07
1432.15
1232.02
1308.07
1387.35
1475.5
1573.8
1703.01
611.858
602.847
1997.38
780.472
2190.43
2144.72
2140.4
2154.39
2130.43
2109.95
2098.93
2108.06
2143.72
2138.95
2013.05
1855.83
3892.42
1166.57
1807.5
725.56
439.932
2437.46
519.078
5958.09
5418.19
4990.19
4635.11
4343.44
4106.61
3907.75
3739.13
3596.57
3477.99
3379.58
3292.65
3206.21
3115.2
3029.17
2956.93
2893.39
2836.4
2787.87
2746.97
2713.71
2688.75
2672.48
2665.72
2667.7
2680.2
2702.32
2734.02
2776.09
2828.23
2891.81
2966.77
3053.26
3148.61
3242.49
3327.37
3400.7
3463.51
3520.03
3558.88
3544.83
3467.24
3326.64
3118.88
2861.76
2608.4
2396.41
2234.83
2125.89
2066.79
1876.62
1596.64
1307.16
1060.93
864.481
706.249
602.243
542.455
511.591
506.408
514.28
524.187
529.004
528.178
521.42
514.598
518.524
544.57
594.071
685.714
821.373
1000.55
1237.46
1524.28
1808.02
2012.44
2060.61
2154.27
2296.84
2487.26
2720.45
2975.5
3201.87
3363.65
3461.17
3496.05
3471.28
3417.15
3355.56
3284.59
3201.87
3108.25
3010.44
2918.73
2837.44
2767.17
2707.65
2657.55
2617.13
2586.17
2564.04
2551.38
2548.02
2553.76
2568.64
2592.27
2625.15
2665.97
2718.76
2779.32
2851.94
2930
3007.85
3084.61
3168.74
3270.09
3397.42
3465.75
3752.94
3890
3137.8
3513.21
2284.1
5624.25
5977.99
506.489
7253.54
772.663
2323.12
714.094
1328.26
959.364
667.6
1935.72
1467.79
1228.34
1237.42
894.295
997.627
983.407
1012.21
1044
790.87
906.953
1181.51
1047.3
5254
609.057
1108.55
838.717
1012.07
964.753
833.167
854.756
1220.24
1737.31
778.166
932.833
4163.74
5660.9
6835.11
7796.76
8733.61
9529.46
10006.8
10221
9986.45
9171.83
7881.97
804.834
3235.06
474.361
8692.62
9601.62
9829.92
9750.61
9317.44
8469.84
7461.12
6466.3
4568.31
653.475
1885.58
1983.93
2026.3
2044.53
460.147
13214.8
700.932
997.289
1522.15
1093.41
4538.94
1474.8
1532.74
1608.92
1702.37
1744.88
1845.91
1994.4
756.599
833.383
5039.39
4826.51
4630.07
4473.63
4289.55
4181.24
4104
4058.81
4029.08
3992.2
3947.9
3893.11
3837.25
3800.02
3784.57
3785.74
3800.01
3831.86
3881.78
3947.86
4028.01
4120.51
4222.66
4333.07
4449.28
4569.21
4691.27
4814.49
4936.15
5052.91
5160.7
5251.93
5314.2
5331.17
5299.74
5221.64
5099.75
4925.61
4669.85
4336.8
3952.95
3542.37
3131.71
2763.76
2477.32
2284.52
2176.05
2136.79
2149.26
921.022
821.108
2047.89
1828.54
1530.95
1238.21
998.571
815.597
673.32
579.26
528.761
503.057
499.444
509.289
522.253
528.87
525.958
515.34
506.344
508.2
527.596
571.322
653.287
776.314
944.684
1174.51
1462.53
1765.18
1998.37
2195.22
9931.04
2370.76
2321.55
2337.26
2345.36
2316.48
2297.31
2290.47
2303.01
2337.22
2352.89
2232.92
2040.58
2148.44
1920.99
2097.3
2376.44
2628.64
5938.62
5278.87
4906.73
4682.09
4533.21
4428
4345.84
4278.31
4221.39
4174.26
4136.57
4101.43
4057.88
4004.3
3957.79
3930.81
3921.08
3922.04
3931.1
3958.15
4000.14
4055.93
4124.34
4204.4
4294.55
4394.15
4501.64
4614.99
4732.66
4852.94
4974.11
5093.29
5205.67
5304.48
5378.69
5411.66
5396.01
5331.01
5220.95
5063.76
4832.89
4517.43
4141.46
3730.58
3308.92
2912.65
2587.56
2358.76
2222.66
2164.46
2165.86
2207.82
1022.39
916.207
1150.81
1161.6
1359.08
1085.51
701.288
1269.15
878.78
812.931
4947.14
846.834
501.97
6144.11
8855.86
12177.2
15603.3
18510.1
20322.8
20873.2
19241.9
16535
4797.96
385.457
7222.62
5632.7
5346.71
5121.46
6634.73
9322.74
13849.1
17238.2
19736.4
21075.8
20502.8
18826.8
16067.1
12587
9290.52
902.283
847.421
1231.75
1144.38
898.717
960.023
952.722
866.075
3974.31
3568.69
3393.29
3445.97
3456.75
3627.01
3908.12
4157.93
4437.67
4705.67
4986.44
5259.49
5519.78
5777.77
6051.32
6343.84
6655.46
6985.55
7329.09
7679.36
8032.14
8380.23
8718.99
9043.62
9350.5
9636.15
9895.61
10124.8
10316.5
10463.7
10556.4
10582.4
10524.9
10367.4
10092.4
9694.18
9193.93
8604.06
7920.12
7134.59
6273.53
5406.23
4587.28
3853.29
3235.7
2768.74
2472.95
2341.74
2348.9
2469.1
2678.76
2956.09
4929.68
4540.61
4391.15
4308.62
4069.24
3511.84
3121.87
2870
2770.18
1112.53
1088.07
856.462
1016.84
1075.66
1021.67
682.648
3407.45
3380.64
3464.87
3367.82
533.91
1200.99
2443.51
2299.38
2292.45
2319.85
2308.15
2265.01
2242.27
2243
2254.8
2291.99
2342.72
2261.91
2011.47
2039.75
2457.22
4138.91
2272.24
2050.91
1803.41
1482.28
1186.84
950.387
775.85
645.447
559.61
513.919
494.161
493.183
505.602
521.312
529.821
524.704
510.695
498.294
497.006
511.154
551.525
625.967
739.859
901.288
1127.7
1419.33
1741.68
2000.2
2258.59
3277.86
3974.05
3506.71
3325.6
3351.94
3517.12
3752.19
4017.98
4293.61
4569.33
4840.32
5105.06
5363.6
5619.39
5885.37
6172.49
6475.59
6792.28
7117.78
7447.81
7778.89
8109.63
8436.01
8754.9
9063.85
9361.22
9643.97
9907.26
10146.2
10353.7
10521.9
10640.1
10699.6
10675.2
10557.3
10322.9
9961.31
9486.21
8916.84
8253.99
7488.26
6628.35
5740.3
4885.7
4106.27
3433.74
2901.37
2537.97
2349.83
2313.45
2401.52
2588.62
2851.58
3165.25
904.574
954.555
1069.08
936.432
851.722
6168.57
5053.94
6318.01
3899.45
7449.05
1978.52
3589.98
2298.2
1377.61
1705.25
862.906
1085.18
601.138
707.539
496.034
533.326
486.969
484.073
515.542
500.842
512.144
520.704
482.793
496.103
499.018
482.345
620.158
541.702
909.241
741.312
1439.74
1141.86
2031.84
1767.88
5700.68
6936.9
3474.58
2313.93
3836.93
4645.88
3064.91
3304.12
3573.22
3140.92
5545.24
4382.08
8843.27
7036.66
13270.6
10941.5
17853.5
15647.2
21743.3
19857.8
24915.7
23467.6
26843.2
26039.7
27605.4
27352.6
27489.4
27639.4
26757.4
27186.8
25570.4
26213
24050.1
24848.6
22218.9
23173.8
20015.3
21173.5
17483.9
18779.7
14785.1
16147.9
12022.5
13401.5
9333.39
10674.9
6514.77
7936.68
3915.33
5137.87
2333.43
2968.09
2255.28
2158.44
3139.25
2533.33
7568.88
4453.73
20797.4
12773.7
45548
31993.7
62582.2
57406.7
41839.9
55631.2
26285.8
30667.2
23371.5
24845.9
21050.6
22194.4
14257
18086.1
7199.13
10428.3
7001.87
1046.72
1409.4
863.718
894.9
847.904
854.095
841.572
843.62
840.87
840.172
848.538
843.833
928.613
863.663
3016.93
1150.57
3776.13
2684.79
5285.7
1721.53
8107.66
5985.68
12792.1
10188.2
16328.3
15360.2
20437
18261.9
25124.3
22579.7
37237.3
29433.2
60648.4
48734.1
58174.1
64880.3
32073.5
45776
12726.6
20759.9
4444.17
7573.58
2725.74
3227.96
2214.53
2403.77
2821.38
2374.94
4665.15
3550.13
7458.69
5999.74
10315.5
8911.66
13066.3
11683.8
15805.7
14448.4
18474
17144.6
21024.1
19778
23183.1
22160.8
24922.9
24103.3
26259.4
25641
27130.9
26759.2
27425
27360.3
26940.4
27295.8
25411.4
26322.8
22656.3
24186
19002.7
20895.7
14737.3
16972.6
10173.3
12396
6520.91
8197.82
4131.42
5159.52
3172.25
3467.74
3549.27
3210.3
4170.54
5613.49
1724.68
1007.62
493.239
8998.21
896.889
8464.59
1498.67
1972.19
2695.79
2783.88
3665.21
3548.56
3497.57
3596.65
457.789
1390.92
997.156
935.032
953.151
394.367
411.402
397.489
550.041
517.78
533.118
569.565
536.616
551.963
591.002
557.707
573.004
615.624
581.659
597.46
2706.62
835.606
5778.31
920.059
11261.5
621.237
1016.38
2520.47
601.853
605.012
2571.26
433.077
378.163
1163.93
4455.23
427.644
5253.02
3186.57
5288.12
1856
2115.72
506.84
1811.45
450.687
3087.93
429.33
806.523
455.178
438.219
471.013
561.03
6233.99
1581.29
776.034
6725.1
4528.62
1093.53
2079.51
1409
1811.95
3449.23
2855.97
876.1
1825.68
3483.73
397.26
1475.3
3935.22
664.358
487.65
319.668
311.197
4621.15
)
;

boundaryField
{
    wall
    {
        type            kqRWallFunction;
        value           nonuniform List<scalar> 
166
(
6168.57
5053.94
7449.05
5700.68
6936.9
3836.93
4645.88
3064.91
3304.12
3573.22
3140.92
5545.24
4382.08
8843.27
7036.66
13270.6
10941.5
17853.5
15647.2
21743.3
19857.8
24915.7
23467.6
26843.2
26039.7
27605.4
27352.6
27489.4
27639.4
26757.4
27186.8
25570.4
26213
24050.1
24848.6
22218.9
23173.8
20015.3
21173.5
17483.9
18779.7
14785.1
16147.9
12022.5
13401.5
9333.39
10674.9
6514.77
7936.68
3915.33
5137.87
2333.43
2968.09
2255.28
2158.44
3139.25
2533.33
7568.88
4453.73
20797.4
12773.7
45548
31993.7
62582.2
57406.7
41839.9
55631.2
26285.8
30667.2
23371.5
24845.9
21050.6
22194.4
14257
18086.1
7199.13
10428.3
7001.87
5285.7
8107.66
5985.68
12792.1
10188.2
16328.3
15360.2
20437
18261.9
25124.3
22579.7
37237.3
29433.2
60648.4
48734.1
58174.1
64880.3
32073.5
45776
12726.6
20759.9
4444.17
7573.58
2725.74
3227.96
2214.53
2403.77
2821.38
2374.94
4665.15
3550.13
7458.69
5999.74
10315.5
8911.66
13066.3
11683.8
15805.7
14448.4
18474
17144.6
21024.1
19778
23183.1
22160.8
24922.9
24103.3
26259.4
25641
27130.9
26759.2
27425
27360.3
26940.4
27295.8
25411.4
26322.8
22656.3
24186
19002.7
20895.7
14737.3
16972.6
10173.3
12396
6520.91
8197.82
4131.42
5159.52
3172.25
3467.74
3549.27
3210.3
4170.54
5613.49
8998.21
8464.59
2695.79
2783.88
3665.21
3548.56
3497.57
3497.57
3596.65
3596.65
5778.31
11261.5
6233.99
)
;
    }
    outlet
    {
        type            inletOutlet;
        inletValue      uniform 1000;
        value           nonuniform List<scalar> 
33
(
1978.52
3589.98
2298.2
1377.61
1705.25
862.906
1085.18
601.138
707.539
496.034
533.326
486.969
484.073
515.542
500.842
512.144
520.704
482.793
496.103
499.018
482.345
620.158
541.702
909.241
741.312
1439.74
1141.86
2031.84
1767.88
3474.58
2313.93
8998.21
8464.59
)
;
    }
    inlet
    {
        type            fixedValue;
        value           uniform 1000;
    }
    frontAndBackPlanes
    {
        type            empty;
    }
}


// ************************************************************************* //
