/*--------------------------------*- C++ -*----------------------------------*\
| =========                 |                                                 |
| \\      /  F ield         | OpenFOAM: The Open Source CFD Toolbox           |
|  \\    /   O peration     | Version:  2212                                  |
|   \\  /    A nd           | Website:  www.openfoam.com                      |
|    \\/     M anipulation  |                                                 |
\*---------------------------------------------------------------------------*/
FoamFile
{
    version     2.0;
    format      ascii;
    arch        "LSB;label=32;scalar=64";
    class       volScalarField;
    location    "0.0794";
    object      alphat;
}
// * * * * * * * * * * * * * * * * * * * * * * * * * * * * * * * * * * * * * //

dimensions      [1 -1 -1 0 0 0 0];

internalField   nonuniform List<scalar> 
31661
(
0.00100566
0.000102625
0.000108327
0.000104956
0.000102442
0.000107019
0.000104208
0.000102432
0.000106071
0.000103712
0.000125919
0.000125663
0.000340768
0.00102627
0.00127269
0.00136389
0.00122859
0.00129971
8.52375e-05
0.00137857
2.33493e-05
2.39351e-05
8.19561e-05
0.00115782
0.000106432
2.22049e-05
6.45241e-05
8.05165e-05
0.000129398
0.000156291
0.00120376
3.26649e-05
3.2492e-05
9.01208e-05
0.000104564
0.00127473
3.02884e-05
0.00128305
0.00034458
2.99441e-05
2.9555e-05
0.000101994
0.00121171
0.00029485
0.000305876
0.0001392
0.000299323
0.000115185
3.1859e-05
0.000897198
2.61523e-05
0.000735965
0.000146258
9.76136e-05
0.000347574
9.61932e-05
0.000141324
0.000168095
0.000303266
0.000111392
0.000129488
0.000120895
0.000254192
9.53695e-05
4.83843e-05
0.000557004
0.000193747
0.00026552
0.000235315
0.000206629
0.000116722
0.000175577
0.000154162
0.000139964
0.000126857
0.000117084
0.000108747
0.000102469
9.73087e-05
9.34169e-05
9.03031e-05
8.79916e-05
8.6211e-05
8.49398e-05
8.54021e-05
8.67738e-05
8.86602e-05
9.11179e-05
9.43592e-05
9.84341e-05
0.000103701
0.00011016
0.000118422
0.000128325
0.000140772
0.000155236
0.000172001
0.000190562
0.000210661
0.000234937
0.000261696
0.000289644
0.00031745
0.000349248
0.00034635
0.000383374
0.000377333
0.000415752
0.000407968
0.000445547
0.000436854
0.000472206
0.00046333
0.00049549
0.000486996
0.000515423
0.000507683
0.000532258
0.000525475
0.000546377
0.000540616
0.000558206
0.000553428
0.000568177
0.000564277
0.000576695
0.000573545
0.000584108
0.000581567
0.000590717
0.000588656
0.00059677
0.00059508
0.000602478
0.000601066
0.000608012
0.00060681
0.000613555
0.000612494
0.000619247
0.000618287
0.00062524
0.000624354
0.000631692
0.000630858
0.000638807
0.000638015
0.000646886
0.000646109
0.00065647
0.000655705
0.000668641
0.000667903
0.000685716
0.000684992
0.000712127
0.000711604
0.000758093
0.000757598
0.000857981
0.000857337
0.00108108
0.00107998
0.0014586
0.00145682
0.00184647
0.00184416
0.00208974
0.00208722
0.00218965
0.00219278
0.00218969
0.00208486
0.00183916
0.00145097
0.00107658
0.0008563
0.00075751
0.000711761
0.000685337
0.00066828
0.000656091
0.000646475
0.000638356
0.000631191
0.000624689
0.000618641
0.000612889
0.000607273
0.000601629
0.000595803
0.000589593
0.000582781
0.000575108
0.000566265
0.000555889
0.000543581
0.000528909
0.000511458
0.000490884
0.00046696
0.000439675
0.00040924
0.000375984
0.000340195
0.000304503
0.000267833
0.000234392
0.000204092
0.000179535
0.000159149
0.000142898
0.000129476
0.000118902
0.000110276
0.000103592
9.82436e-05
8.44106e-05
8.40267e-05
9.41457e-05
9.09289e-05
8.8509e-05
8.66522e-05
8.53016e-05
8.34984e-05
8.3806e-05
8.47222e-05
8.55505e-05
8.67758e-05
8.84326e-05
9.06291e-05
9.34733e-05
9.71316e-05
0.000101732
0.000107505
0.000114587
0.000123237
0.000133609
0.000145864
0.000160011
0.000176135
0.000193866
0.000213045
0.000234154
0.000256974
0.000280793
0.000305567
0.00033228
0.000359989
0.000387918
0.000415282
0.000441467
0.000465914
0.000488243
0.000508185
0.00052568
0.000540815
0.000553809
0.000564939
0.000574516
0.000582866
0.000590278
0.000597021
0.00060334
0.000609453
0.000615565
0.000621872
0.000628561
0.000635868
0.000644087
0.000653775
0.000666017
0.000683115
0.000709524
0.000755078
0.000853453
0.00107277
0.00144603
0.0018328
0.00207667
0.00217973
0.00220277
0.00221265
0.0022164
0.00221433
0.00220645
0.00218044
0.00207282
0.00182342
0.00143502
0.00106688
0.000852206
0.000755432
0.000710187
0.000683874
0.000666851
0.000654613
0.0006449
0.000636657
0.000629348
0.000622678
0.000616435
0.000610433
0.000604495
0.000598438
0.000592066
0.000585149
0.00057743
0.000568616
0.000558377
0.000546355
0.0005322
0.000515579
0.000496237
0.000474054
0.000449097
0.000421628
0.000392101
0.000361146
0.00032948
0.000297893
0.000265767
0.00023638
0.00020971
0.00018641
0.000166373
0.000149721
0.000135677
0.0001242
0.000114827
0.00010733
0.00010138
9.67315e-05
9.31072e-05
8.43304e-05
9.03073e-05
8.81567e-05
8.65413e-05
8.4168e-05
8.34375e-05
8.37456e-05
8.31814e-05
8.39116e-05
8.50187e-05
8.54684e-05
8.63162e-05
8.75163e-05
8.91431e-05
9.12782e-05
9.40344e-05
9.75332e-05
0.000101944
0.000107396
0.000114077
0.000122091
0.000131549
0.000142442
0.000154806
0.000168491
0.000183491
0.000199273
0.00021577
0.000233212
0.00025153
0.00027066
0.000290714
0.000312541
0.000335741
0.000359934
0.000384771
0.000409753
0.000434448
0.000458207
0.000480522
0.000500952
0.000519277
0.000535428
0.00054947
0.000561616
0.00057214
0.000581319
0.000589465
0.000596886
0.00060385
0.000610615
0.00061742
0.000624502
0.000632122
0.000640593
0.000650467
0.000662797
0.000679819
0.000705984
0.00075069
0.000846338
0.00105903
0.00142488
0.00181092
0.00205763
0.00216265
0.00218639
0.00217245
0.00218933
0.00219955
0.00220356
0.00220153
0.00219351
0.00217903
0.00219224
0.00216429
0.00205284
0.00179848
0.00141069
0.00105199
0.000845601
0.000751816
0.00070732
0.000681247
0.00066427
0.000651929
0.000642035
0.000633562
0.000625978
0.00061898
0.00061233
0.000605815
0.000599219
0.000592311
0.000584843
0.000576535
0.000567082
0.000556162
0.000543456
0.000528669
0.000511592
0.000492111
0.000470298
0.000446397
0.000420838
0.000394145
0.00036693
0.000339778
0.000313127
0.000286967
0.000261213
0.000237231
0.000214736
0.00019447
0.000175988
0.000159698
0.00014536
0.000133075
0.000122629
0.00011405
0.000107099
0.000101555
9.71375e-05
9.36634e-05
8.5364e-05
9.09528e-05
8.88718e-05
8.3262e-05
8.46954e-05
8.37424e-05
8.45748e-05
8.33933e-05
8.30363e-05
8.45355e-05
8.57251e-05
8.6053e-05
8.66275e-05
8.74894e-05
8.87622e-05
9.04702e-05
9.26958e-05
9.55447e-05
9.91408e-05
0.000103625
0.000109138
0.000115787
0.000123645
0.000132736
0.000142974
0.000154233
0.000166355
0.000179061
0.000192239
0.000205426
0.000218701
0.000232216
0.000246034
0.000260375
0.000275509
0.000292087
0.000310181
0.000329779
0.000350847
0.000373203
0.000396509
0.00042026
0.000443859
0.000466638
0.000488054
0.000507721
0.000525394
0.00054101
0.00055467
0.000566567
0.000576988
0.000586254
0.0005947
0.000602631
0.000610351
0.000618149
0.00062633
0.000635266
0.000645477
0.00065799
0.000674946
0.000700687
0.000744264
0.000835771
0.00103847
0.00139317
0.00177802
0.00202923
0.00213765
0.00216263
0.00214809
0.00212485
0.00214992
0.0021674
0.00217805
0.00218236
0.00218047
0.00217236
0.00215763
0.00213551
0.0021572
0.00217072
0.00214021
0.00202383
0.00176328
0.00137728
0.00103163
0.000835929
0.000746385
0.000702928
0.000677241
0.000660313
0.000647799
0.000637603
0.000628738
0.000620664
0.000613091
0.000605712
0.000598276
0.00059051
0.000582125
0.000572814
0.000562252
0.000550123
0.000536137
0.000520082
0.000501851
0.000481494
0.000459258
0.000435597
0.000411059
0.000386322
0.000361941
0.000338419
0.000316082
0.000294974
0.000274849
0.000255482
0.000237294
0.00021971
0.000202959
0.000186912
0.0001719
0.000157918
0.000145175
0.000133799
0.000124037
0.000115788
0.000108928
0.000103311
9.87981e-05
9.52346e-05
8.72939e-05
9.24178e-05
8.32096e-05
8.38281e-05
8.61414e-05
8.55169e-05
8.46453e-05
8.40846e-05
8.32226e-05
8.30424e-05
8.56199e-05
8.66628e-05
8.69091e-05
8.73483e-05
8.79474e-05
8.8972e-05
9.03833e-05
9.22545e-05
9.46751e-05
9.77462e-05
0.000101592
0.000106342
0.000112109
0.000118972
0.000126952
0.000136001
0.000145971
0.000156633
0.000167718
0.000178965
0.000190118
0.00020098
0.000211321
0.000221348
0.000231163
0.000241097
0.000251204
0.000261942
0.000273827
0.000287092
0.000301937
0.000318532
0.000336953
0.000357136
0.000378844
0.000401658
0.000424967
0.000448176
0.000470637
0.000491758
0.000511136
0.000528606
0.000544096
0.00055774
0.000569793
0.000580564
0.000590404
0.000599658
0.00060868
0.000617836
0.000627502
0.000638324
0.00065118
0.000668114
0.000693293
0.000735309
0.000821401
0.00101123
0.00135085
0.00173323
0.00199036
0.00210342
0.0021302
0.00211503
0.00209107
0.00205357
0.00208831
0.00211432
0.00213258
0.0021438
0.00214848
0.00214675
0.00213855
0.00212352
0.00210104
0.00210509
0.00212701
0.00214084
0.00210706
0.00198452
0.00171707
0.00133455
0.00100558
0.000822903
0.000738618
0.000696652
0.000671504
0.000654619
0.00064182
0.000631133
0.000621592
0.000612758
0.000604192
0.000595585
0.000586616
0.000576953
0.000566256
0.000554188
0.000540444
0.000524806
0.000507122
0.000487446
0.000465988
0.000443143
0.000419491
0.00039575
0.000372524
0.000350411
0.000329799
0.000310886
0.000293656
0.000277919
0.000263332
0.000249538
0.000236468
0.000223545
0.000210717
0.000197758
0.000184863
0.000172066
0.000159623
0.000147878
0.000137161
0.000127561
0.000119174
0.000112051
0.000106204
0.000101421
9.02439e-05
9.75518e-05
0.00207026
9.44865e-05
8.34251e-05
8.85759e-05
8.40415e-05
8.53334e-05
8.48645e-05
8.3824e-05
8.66884e-05
8.58107e-05
8.31866e-05
8.32832e-05
8.68515e-05
8.78499e-05
8.79176e-05
8.82616e-05
8.87007e-05
8.95565e-05
9.07078e-05
9.23093e-05
9.44095e-05
9.70984e-05
0.000100488
0.000104694
0.000109832
0.000115988
0.000123212
0.000131468
0.000140636
0.000150515
0.00016081
0.000171214
0.000181428
0.000191167
0.000200301
0.000208676
0.000216308
0.000223399
0.000230153
0.000236842
0.000243568
0.000250818
0.000258932
0.000268152
0.000278734
0.000290928
0.00030495
0.000320951
0.000338964
0.000358876
0.000380392
0.000403065
0.000426304
0.000449422
0.0004718
0.000492877
0.000512292
0.000529859
0.000545579
0.000559635
0.000572299
0.000583928
0.000594898
0.000605623
0.000616548
0.000628227
0.000641751
0.000658787
0.000683324
0.000723333
0.000802939
0.000977433
0.00129786
0.00167569
0.00193963
0.00205832
0.00208766
0.00207187
0.00204725
0.00200889
0.00196142
0.00200786
0.00204418
0.00207151
0.00209076
0.0021026
0.00210747
0.00210553
0.00209674
0.00208078
0.00205706
0.00202479
0.00203014
0.0020652
0.00208729
0.00210136
0.00206363
0.00193372
0.00165881
0.00128254
0.000973797
0.000806184
0.000728043
0.000688018
0.000663559
0.000646652
0.000633363
0.000621836
0.000611357
0.000601227
0.000591079
0.000580532
0.000569209
0.000556746
0.000542817
0.000527152
0.000509588
0.000490161
0.000469024
0.000446552
0.000423337
0.000399973
0.000377151
0.000355518
0.000335501
0.000317398
0.00030126
0.000287019
0.000274489
0.000263363
0.000253312
0.000243968
0.000235014
0.000226064
0.00021683
0.000207199
0.000196957
0.000186144
0.000174937
0.000163642
0.000152608
0.000142056
0.000132328
0.000123741
0.000116313
0.000109952
0.00010473
0.000100466
0.001983
9.70402e-05
9.20949e-05
8.36972e-05
8.73354e-05
8.44012e-05
8.49206e-05
8.52436e-05
8.3671e-05
8.61781e-05
8.34e-05
8.79602e-05
8.71774e-05
8.35905e-05
0.0019135
0.00196157
0.00199934
0.00202786
0.002048
0.00206037
0.00206539
0.00206319
0.00205378
0.00203688
0.0020119
0.00197811
0.00193462
0.00193048
0.00197945
0.00201464
0.0020368
0.00205094
0.0020086
0.00187034
0.00158796
0.00122126
0.000936366
0.000785396
0.000714132
0.000676464
0.000652743
0.000635628
0.000621444
0.000608864
0.000596773
0.000584689
0.000572165
0.000558794
0.000544207
0.000528107
0.000510298
0.000490749
0.000469605
0.000447225
0.000424122
0.000400908
0.000378264
0.000356816
0.000337006
0.00031916
0.000303394
0.000289676
0.000277891
0.000267806
0.000259162
0.000251661
0.000245058
0.000239133
0.000233254
0.000227428
0.000221266
0.000214549
0.000207052
0.000198682
0.000189423
0.00017946
0.000168995
0.000158322
0.000147972
0.000138224
0.000129217
0.000121283
0.000114403
0.000108599
0.000103809
9.43205e-05
9.99384e-05
0.00188033
8.82314e-05
8.91442e-05
8.90767e-05
8.92999e-05
8.97027e-05
9.03539e-05
9.12844e-05
9.26704e-05
9.45129e-05
9.68975e-05
9.99224e-05
0.000103699
0.000108342
0.000113949
0.000120579
0.000128231
0.000136821
0.000146172
0.000156025
0.000166059
0.000175933
0.000185329
0.00019401
0.00020182
0.000208739
0.000214761
0.000220031
0.00022474
0.00022914
0.000233349
0.000237776
0.000242326
0.000247516
0.000253561
0.000260674
0.000269079
0.000279021
0.00029073
0.0003044
0.000320157
0.000338019
0.000357847
0.000379341
0.000402034
0.000425309
0.000448531
0.000471043
0.000492336
0.000512069
0.000530089
0.00054646
0.000561388
0.000575206
0.000588303
0.000601152
0.000614336
0.000628708
0.000646199
0.000670125
0.000707801
0.000780105
0.000937244
0.00123443
0.0016046
0.00187565
0.00200099
0.00203364
0.00201725
0.00199203
0.00195291
0.00190359
0.0018539
9.02374e-05
8.41426e-05
9.6868e-05
9.22236e-05
8.65129e-05
8.4861e-05
8.46152e-05
8.57111e-05
8.37783e-05
8.66341e-05
8.36799e-05
8.76133e-05
8.40518e-05
8.93244e-05
8.86287e-05
0.00181398
0.00186584
0.00191663
0.00195218
0.00197462
0.00198802
0.00194065
0.00179315
0.00150426
0.00115129
0.000893347
0.000760081
0.000696304
0.000661237
0.000638074
0.000620369
0.000605152
0.000590701
0.000576298
0.000561425
0.000545649
0.000528632
0.000510147
0.000490112
0.000468643
0.00044605
0.000422836
0.000399578
0.00037697
0.000355561
0.000335813
0.000318076
0.000302491
0.000289001
0.000277537
0.000267882
0.000259808
0.000253076
0.000247462
0.000242784
0.000238725
0.000234883
0.000231429
0.000227822
0.000224001
0.000219668
0.000214622
0.00020869
0.000201725
0.000193723
0.000184711
0.00017498
0.000164877
0.000154605
0.0001447
0.000135295
0.000126837
0.000119356
0.000112937
0.000107578
0.000103233
9.0375e-05
9.04222e-05
9.07621e-05
9.13176e-05
9.20513e-05
9.32566e-05
9.48776e-05
9.70083e-05
9.97303e-05
0.000103149
0.000107376
0.000112516
0.000118644
0.000125785
0.000133887
0.00014281
0.000152327
0.000162137
0.000171895
0.000181262
0.000189942
0.000197729
0.000204513
0.000210287
0.00021513
0.000219142
0.000222518
0.000225421
0.000228066
0.000230555
0.00023321
0.000236024
0.000239124
0.000242705
0.000247157
0.000252573
0.000259167
0.000267143
0.000276746
0.000288195
0.000301676
0.000317308
0.000335108
0.000354933
0.000376496
0.000399309
0.000422789
0.000446282
0.000469176
0.000490977
0.000511372
0.000530273
0.000547775
0.00056414
0.000579752
0.000595155
0.000611169
0.00062919
0.000652715
0.000687983
0.000752499
0.000890918
0.00116103
0.0015195
0.0017974
0.00193037
0.00196674
0.00194977
0.00192392
0.00188413
0.00183288
0.00178143
0.00173177
0.00180548
0.00186638
0.0019157
0.0019546
0.00198406
0.00200489
0.00201769
0.00202282
0.00202042
0.00201047
0.00199276
0.00196677
0.00193175
0.00188692
0.00183127
9.04822e-05
0.00176368
9.44444e-05
9.97119e-05
8.96829e-05
8.88448e-05
8.46449e-05
0.00171502
0.00178336
0.00183991
0.00188568
0.00192154
0.00194832
0.00196664
0.00197697
0.00197953
0.00197432
0.00196123
0.0019399
0.00190976
0.00187009
0.00181993
0.00175822
0.00168386
9.06092e-05
8.59605e-05
8.54216e-05
9.07674e-05
9.17012e-05
9.16665e-05
9.1886e-05
9.23567e-05
9.29467e-05
9.40173e-05
9.54407e-05
9.73459e-05
9.9809e-05
0.00010292
0.00010679
0.000111522
0.000117204
0.000123883
0.000131539
0.000140071
0.000149285
0.000158906
0.000168603
0.000178029
0.00018686
0.00019484
0.000201809
0.000207708
0.00021256
0.00021647
0.000219567
0.000221997
0.000223937
0.000225525
0.000226896
0.000228199
0.000229484
0.000231046
0.000232824
0.000234862
0.000237366
0.000240438
0.000244444
0.000249475
0.000255748
0.000263456
0.000272838
0.000284112
0.000297469
0.00031304
0.000330842
0.000350758
0.000372477
0.000395561
0.000419422
0.000443429
0.000466992
0.000489648
0.00051113
0.000531378
0.000550551
0.000568986
0.000587357
0.000606858
0.000630158
0.00066286
0.000719596
0.000838607
0.00107841
0.00142032
0.00170393
0.0018451
0.00188542
0.0018678
0.00184133
0.001801
0.00174784
0.00169474
0.00164409
0.00159584
9.6969e-05
9.25818e-05
8.4459e-05
8.62851e-05
8.39916e-05
8.72076e-05
8.4124e-05
8.81618e-05
8.4575e-05
8.91445e-05
9.01493e-05
9.188e-05
9.11715e-05
9.43289e-05
9.32901e-05
0.00163388
0.00168302
0.00173438
0.00178781
0.00184026
0.00187646
0.00189975
0.00191143
0.00185876
0.00170139
0.00140764
0.00107349
0.000844986
0.000729856
0.00067359
0.000641039
0.000618399
0.000599903
0.000582704
0.000565682
0.000548161
0.000529722
0.00051009
0.000489156
0.000466993
0.000443882
0.000420279
0.000396777
0.000373987
0.000352523
0.000332768
0.000315089
0.000299546
0.000286208
0.000274916
0.000265496
0.000257724
0.000251378
0.000246229
0.000242115
0.000238827
0.000236088
0.000233681
0.000231439
0.000229494
0.000227527
0.000225369
0.000222836
0.000219714
0.000215904
0.000211152
0.000205331
0.000198349
0.0001903
0.000181324
0.000171543
0.000161474
0.000151425
0.000141844
0.000132807
0.000124716
0.000117747
0.000111824
0.00010689
0.000102953
0.00166778
9.47777e-05
9.97068e-05
0.000196959
0.00158667
8.78266e-05
8.52631e-05
0.0017364
0.0017934
0.00183968
0.00187614
0.00190344
0.00192216
0.00193275
0.00193542
0.00193016
0.00191688
0.00189523
0.0018647
0.00182456
0.00177395
0.0017119
0.00163741
0.00154963
8.94403e-05
8.56321e-05
8.60598e-05
9.42642e-05
9.29755e-05
9.30584e-05
9.34564e-05
9.40296e-05
9.48981e-05
9.61343e-05
9.78567e-05
0.000100096
0.000102941
0.000106501
0.000110876
0.00011616
0.000122415
0.00012965
0.000137799
0.000146706
0.000156128
0.000165754
0.00017524
0.000184246
0.000192486
0.000199751
0.000205937
0.000211027
0.000215088
0.000218228
0.0002206
0.000222338
0.00022359
0.00022448
0.000225126
0.00022562
0.000226039
0.00022647
0.000226984
0.000227693
0.000228813
0.000230035
0.000231654
0.0002338
0.000236561
0.000240246
0.000245023
0.000251071
0.000258592
0.000267811
0.000278977
0.000292286
0.00030787
0.000325765
0.000345862
0.000367896
0.00039142
0.000415885
0.000440678
0.000465229
0.000489105
0.000512066
0.000534104
0.000555547
0.000577224
0.00060122
0.000632021
0.000681114
0.000780578
0.000987535
0.00130723
0.00159443
0.0017439
0.00178833
0.00176991
0.00174275
0.00170197
0.00164718
0.00159284
0.0015417
0.00149366
0.00144823
9.11744e-05
8.4586e-05
8.69372e-05
9.72192e-05
9.31253e-05
8.43604e-05
8.78543e-05
8.46291e-05
8.87996e-05
8.52076e-05
8.97581e-05
9.073e-05
9.1704e-05
9.36528e-05
0.00162183
0.00154121
9.61378e-05
9.6277e-05
0.00149254
0.00153923
0.00158842
0.00164045
0.0016951
0.00174909
0.00178607
0.00181037
0.00182039
0.00176217
0.00159467
0.00129883
0.000988801
0.000791535
0.000694443
0.000645464
0.000615357
0.00059253
0.00057225
0.000552408
0.000532118
0.000510932
0.0004887
0.000465472
0.000441505
0.000417238
0.000393229
0.000370085
0.00034835
0.000328492
0.00031075
0.000295255
0.000281955
0.000270807
0.00026154
0.000253964
0.000247833
0.000242977
0.000239195
0.000236295
0.000234026
0.00023216
0.000230644
0.0002294
0.00022845
0.000227569
0.000226702
0.000225696
0.000224436
0.000222791
0.000220608
0.000217699
0.000213891
0.000209026
0.000203004
0.000195813
0.00018743
0.000178251
0.000168529
0.000158458
0.000148503
0.000139216
0.000130655
0.000123047
0.000116471
0.000111016
0.000106445
0.000102824
9.56813e-05
9.45729e-05
9.52594e-05
9.98924e-05
0.000247009
8.72444e-05
8.59338e-05
0.00169028
0.00174735
0.00179387
0.00183058
0.0018581
0.00187707
0.00188781
0.00189055
0.00188527
0.00187189
0.0018501
0.0018194
0.0017791
0.00172839
0.0016664
0.00159223
0.00150517
0.00140504
8.86382e-05
8.5429e-05
8.67737e-05
0.000103828
9.42828e-05
9.46086e-05
9.51465e-05
9.5813e-05
9.69798e-05
9.85279e-05
0.000100572
0.000103188
0.000106468
0.000110525
0.000115451
0.000121318
0.000128156
0.000135928
0.000144515
0.000153709
0.000163227
0.000172734
0.000181889
0.000190378
0.000197961
0.000204488
0.000209906
0.000214244
0.000217595
0.000220086
0.000221856
0.000223048
0.000223783
0.000224175
0.000224316
0.000224284
0.000224143
0.000223952
0.000223761
0.000223614
0.000223579
0.000223664
0.000224056
0.000224842
0.000225771
0.000227139
0.000229066
0.000231646
0.00023508
0.000239667
0.000245542
0.000252963
0.000262125
0.00027326
0.000286588
0.000302275
0.000320368
0.00034078
0.000363267
0.000387425
0.000412703
0.000438505
0.000464277
0.000489587
0.000514294
0.0005387
0.000564104
0.000593798
0.000636195
0.000716875
0.000889416
0.00118077
0.00146837
0.00162604
0.00167425
0.00165546
0.00162734
0.00158628
0.00153041
0.0014756
0.00142478
0.00137772
0.00133382
0.00129259
9.02229e-05
8.48023e-05
8.76649e-05
9.189e-05
8.48198e-05
8.85873e-05
9.7623e-05
9.38136e-05
8.52476e-05
8.95209e-05
8.58915e-05
9.04611e-05
9.13989e-05
9.23367e-05
0.00157705
0.00149736
9.32651e-05
9.41733e-05
7.47559e-05
9.50399e-05
0.00144805
0.00134264
0.00138548
0.00143101
0.00147964
0.00153175
0.00158714
0.00164225
0.00167981
0.00170531
0.00171386
0.00165049
0.00147295
0.00117897
0.000898421
0.000733181
0.00065338
0.000611051
0.000582382
0.000558523
0.000535836
0.000512864
0.000489132
0.000464601
0.000439524
0.000414333
0.000389589
0.00036588
0.000343746
0.000323596
0.000305688
0.000290111
0.00027683
0.000265714
0.000256539
0.000249044
0.000243096
0.000238444
0.000234932
0.000232238
0.000230213
0.00022863
0.000227582
0.00022665
0.000226147
0.000225853
0.000225688
0.000225578
0.000225456
0.000225258
0.000224899
0.00022428
0.000223286
0.000221786
0.000219608
0.000216593
0.000212564
0.0002074
0.000200989
0.000193438
0.000184876
0.000175423
0.000165514
0.000155667
0.000145955
0.000136932
0.000128689
0.000121623
0.000115481
0.000110387
0.000106196
0.000102884
0.0012337
9.58808e-05
0.000100241
2.28646e-05
0.000138735
8.68095e-05
8.66867e-05
0.00164497
0.00170178
0.00174819
0.00178485
0.00181247
0.00183152
0.00184231
0.00184506
0.0018398
0.00182641
0.00180462
0.00177393
0.00173372
0.00168325
0.00162167
0.0015482
0.00146227
0.00136383
0.00125371
8.81244e-05
8.55335e-05
8.75499e-05
0.000143331
0.000104458
9.57076e-05
9.62153e-05
9.6893e-05
9.78911e-05
9.92731e-05
0.000101164
0.00010359
0.000106643
0.000110414
0.000115023
0.000120538
0.000127006
0.000134413
0.000142674
0.000151613
0.000160979
0.000170456
0.000179705
0.000188402
0.000196278
0.000203146
0.000208915
0.000213583
0.000217214
0.000219922
0.00022184
0.000223105
0.000223844
0.000224171
0.00022418
0.00022395
0.000223542
0.000223013
0.000222401
0.000221752
0.000221104
0.000220483
0.000219924
0.000219456
0.000219138
0.000218982
0.000219158
0.00021975
0.000220547
0.00022177
0.000223579
0.000226086
0.000229434
0.000233863
0.000239664
0.00024701
0.000256164
0.000267367
0.000280813
0.000296669
0.000315043
0.000335866
0.0003589
0.000383755
0.000409885
0.000436689
0.000463633
0.000490464
0.000517592
0.00054699
0.000584028
0.000647467
0.000785108
0.00104172
0.00132551
0.00149148
0.00154289
0.00152487
0.00149562
0.00145442
0.00139851
0.00134442
0.00129503
0.00124994
0.00120844
0.00116995
0.00113412
8.95518e-05
8.51829e-05
8.8458e-05
9.11512e-05
8.53858e-05
8.93832e-05
9.27974e-05
8.592e-05
9.03144e-05
9.81889e-05
9.46436e-05
8.66552e-05
9.12412e-05
9.21623e-05
0.00153343
0.00145501
9.30688e-05
9.39574e-05
9.4829e-05
9.56769e-05
0.00140559
0.00130221
0.00122632
0.00126679
0.00131041
0.00135767
0.00140906
0.00146441
0.00151948
0.00155751
0.00158409
0.00159092
0.00152306
0.00133646
0.00104943
0.000803437
0.00066991
0.000605789
0.000568765
0.000540619
0.000515129
0.000489846
0.000464093
0.00043793
0.000411774
0.0003862
0.00036181
0.000339147
0.000318604
0.00030042
0.000284678
0.000271302
0.000260122
0.000250936
0.000243558
0.000237688
0.000233189
0.000229781
0.000227193
0.000225317
0.000223957
0.000223032
0.00022235
0.000222093
0.000222128
0.000222305
0.000222613
0.000223013
0.000223433
0.000223859
0.000224234
0.000224493
0.000224586
0.000224432
0.000223934
0.00022297
0.000221398
0.000219052
0.00021578
0.000211409
0.00020586
0.000199114
0.000191161
0.00018226
0.000172776
0.000162823
0.000153033
0.000143511
0.000134955
0.000127131
0.000120377
0.000114716
0.00011001
0.00010619
0.000103143
9.67994e-05
9.66286e-05
0.000100735
9.6518e-05
0.00118861
8.65475e-05
8.74872e-05
0.00160047
0.00165667
0.0017027
0.00173915
0.00176667
0.00178564
0.0017964
0.00179916
0.00179394
0.00178063
0.00175895
0.00172846
0.00168856
0.00163857
0.0015777
0.00150528
0.00142083
0.00132441
0.00121696
0.00110064
8.77797e-05
8.57278e-05
8.83856e-05
9.72513e-05
9.74649e-05
9.73404e-05
9.78442e-05
9.87575e-05
0.000100028
0.000101824
0.000104111
0.000106978
0.000110525
0.00011484
0.000120042
0.000126165
0.000133226
0.00014116
0.000149825
0.000159
0.000168393
0.000177676
0.000186521
0.00019464
0.000201816
0.000207925
0.000212929
0.00021687
0.000219841
0.000221964
0.000223375
0.000224201
0.000224559
0.000224547
0.000224248
0.000223726
0.000223035
0.000222218
0.000221309
0.00022034
0.000219339
0.000218331
0.000217343
0.000216403
0.000215535
0.000214764
0.000214113
0.000213644
0.000213357
0.000213427
0.000213895
0.000214731
0.000215941
0.000217746
0.000220285
0.000223682
0.000228123
0.000233857
0.000241193
0.000250376
0.000261615
0.000275228
0.000291293
0.000309908
0.000331054
0.000354482
0.000379799
0.000406455
0.000433932
0.000461938
0.000491164
0.000524113
0.000572516
0.000676113
0.000891275
0.00116609
0.00134149
0.00139699
0.00138008
0.00135027
0.00130965
0.00125507
0.00120308
0.00115631
0.00111422
0.00107596
0.00104097
0.0010088
0.000979138
8.91335e-05
8.56543e-05
8.93101e-05
9.05826e-05
8.60254e-05
9.02443e-05
9.75164e-05
9.21244e-05
8.66731e-05
9.11741e-05
9.37716e-05
8.74645e-05
9.20943e-05
0.00149098
0.00141413
9.88655e-05
9.55594e-05
9.29986e-05
9.38868e-05
9.47579e-05
9.56045e-05
9.63808e-05
0.00136501
0.00126395
0.00115334
0.00106771
0.00110206
0.00113946
0.00118029
0.00122517
0.0012747
0.00132884
0.0013829
0.00142092
0.00144813
0.00145186
0.00137966
0.00118554
0.000911684
0.000704741
0.000601551
0.000550884
0.000517696
0.000489472
0.000462508
0.000435608
0.000408838
0.000382689
0.000357775
0.000334661
0.000313744
0.000295284
0.000279325
0.000265772
0.000254506
0.000245308
0.000237917
0.000232139
0.00022766
0.000224226
0.000221643
0.000219783
0.000218479
0.000217585
0.000217041
0.000216906
0.000217109
0.00021749
0.000218036
0.00021869
0.000219452
0.000220239
0.000221076
0.000221906
0.000222692
0.000223404
0.000224001
0.000224441
0.000224649
0.000224546
0.000224022
0.00022296
0.000221202
0.000218587
0.000214964
0.000210217
0.000204241
0.00019708
0.000188858
0.000179667
0.000170028
0.00016006
0.000150562
0.000141361
0.000133096
0.000125828
0.000119456
0.000114246
0.000109917
0.000106408
0.00010358
9.74559e-05
9.71095e-05
0.00010135
9.72833e-05
0.001036
8.65789e-05
8.83493e-05
0.00155683
0.00161218
0.00165758
0.00169358
0.0017208
0.00173962
0.00175031
0.00175307
0.00174791
0.00173472
0.00171327
0.00168313
0.00164373
0.00159443
0.00153453
0.00146343
0.00138077
0.00128667
0.00118213
0.0010693
0.000951687
8.77201e-05
8.60987e-05
8.92726e-05
9.88937e-05
9.93971e-05
0.000100004
0.000100999
0.000102559
0.000104702
0.000107432
0.000110803
0.0001149
0.000119805
0.000125622
0.00013235
0.000139962
0.00014834
0.000157292
0.000166551
0.000175808
0.000184733
0.000193034
0.000200467
0.00020688
0.000212203
0.000216452
0.000219699
0.000222056
0.00022365
0.000224609
0.000225052
0.000225081
0.000224782
0.000224224
0.000223463
0.000222543
0.0002215
0.000220363
0.000219157
0.000217906
0.000216629
0.000215347
0.000214079
0.000212845
0.000211666
0.000210566
0.000209572
0.0002087
0.000207978
0.000207458
0.000207176
0.000207224
0.000207687
0.000208641
0.000210021
0.000211932
0.000214586
0.000218137
0.000222727
0.000228551
0.00023586
0.000245013
0.000256263
0.000269817
0.000285884
0.000304434
0.000325471
0.000348743
0.000373873
0.000400412
0.000428172
0.000457448
0.000493359
0.000565446
0.000732154
0.000990576
0.00117807
0.00124034
0.00122613
0.00119682
0.0011578
0.00110606
0.0010576
0.00101461
0.000976364
0.000942039
0.000911044
0.000882946
0.00085738
0.000834003
8.89233e-05
8.62329e-05
9.0216e-05
9.87162e-05
9.77363e-05
9.0227e-05
8.67434e-05
9.11593e-05
9.16535e-05
8.74743e-05
9.20934e-05
0.00144969
0.00137463
9.31908e-05
8.83343e-05
9.4791e-05
9.30104e-05
9.39087e-05
9.96365e-05
9.6549e-05
9.47859e-05
9.56377e-05
9.64444e-05
9.72023e-05
0.00132617
0.00122769
0.00112023
0.0010066
0.000916161
0.000943919
0.000974419
0.00100807
0.00104533
0.00108688
0.00113339
0.00118481
0.00123652
0.00127365
0.00130091
0.00130147
0.00122274
0.00102125
0.000767929
0.000603447
0.000528276
0.000488598
0.000458335
0.00043054
0.000403682
0.00037761
0.000352751
0.000329641
0.000308694
0.00029019
0.000274135
0.000260533
0.000249248
0.000240028
0.000232667
0.00022682
0.000222213
0.00021864
0.000215958
0.000214026
0.000212628
0.000211621
0.000211115
0.000211024
0.000211252
0.000211721
0.000212374
0.000213176
0.000214083
0.000215105
0.000216175
0.000217289
0.00021844
0.000219563
0.000220658
0.000221714
0.000222694
0.000223559
0.000224271
0.00022477
0.000224989
0.000224836
0.000224206
0.000222958
0.000220959
0.000218022
0.000214037
0.000208881
0.000202524
0.000194917
0.000186401
0.000177002
0.000167439
0.00015765
0.00014825
0.000139463
0.000131633
0.000124769
0.000119007
0.000114089
0.000110064
0.00010675
0.00010409
9.83372e-05
9.79651e-05
0.000101986
9.79656e-05
0.000890739
8.67454e-05
8.9254e-05
0.00151415
0.00156839
0.00161295
0.00164834
0.00167516
0.00169373
0.00170428
0.00170698
0.00170187
0.00168887
0.00166774
0.00163807
0.00159933
0.00155091
0.00149221
0.00142269
0.00134203
0.00125046
0.00114901
0.00103975
0.000926003
0.000812355
8.78278e-05
8.65587e-05
9.02087e-05
0.000100696
0.000101427
0.0001024
0.000103708
0.000105544
0.000107983
0.000111155
0.00011505
0.000119767
0.00012531
0.00013175
0.000139054
0.000147144
0.00015585
0.000164935
0.000174108
0.000183051
0.000191465
0.000199093
0.00020576
0.000211368
0.000215905
0.000219423
0.00022202
0.000223813
0.000224931
0.000225488
0.000225595
0.000225336
0.000224787
0.000224007
0.000223041
0.000221929