/*--------------------------------*- C++ -*----------------------------------*\
| =========                 |                                                 |
| \\      /  F ield         | OpenFOAM: The Open Source CFD Toolbox           |
|  \\    /   O peration     | Version:  2212                                  |
|   \\  /    A nd           | Website:  www.openfoam.com                      |
|    \\/     M anipulation  |                                                 |
\*---------------------------------------------------------------------------*/
FoamFile
{
    version     2.0;
    format      ascii;
    arch        "LSB;label=32;scalar=64";
    class       volVectorField;
    location    "0.481";
    object      U_0;
}
// * * * * * * * * * * * * * * * * * * * * * * * * * * * * * * * * * * * * * //

dimensions      [0 1 -1 0 0 0 0];

internalField   nonuniform List<vector> 
24240
(
(9.03527 0.769632 6.98464e-07)
(9.03557 0.769659 -1.07454e-06)
(9.03557 0.769658 -5.33397e-08)
(9.03557 0.769657 -4.60968e-07)
(9.03557 0.769656 -8.51107e-09)
(9.03556 0.769654 -1.02328e-07)
(9.03556 0.769652 7.85847e-08)
(9.03556 0.76965 3.90726e-08)
(9.03556 0.769648 1.10739e-07)
(9.03556 0.769646 7.86428e-08)
(9.03555 0.769644 1.18843e-07)
(9.03555 0.769642 7.96935e-08)
(9.03555 0.76964 1.4252e-07)
(9.03555 0.769638 8.19385e-08)
(9.03555 0.769637 2.44245e-07)
(9.03554 0.769636 1.0321e-07)
(9.03554 0.769635 5.30321e-07)
(9.03554 0.769634 6.73024e-08)
(9.03554 0.769634 1.07159e-06)
(9.03524 0.769606 -7.41049e-07)
(9.04188 0.773026 -1.43928e-06)
(9.04219 0.773054 -1.9515e-06)
(9.04218 0.773055 -2.01753e-06)
(9.04218 0.773057 -2.71704e-06)
(9.04218 0.773059 -2.95214e-06)
(9.04218 0.773061 -3.41557e-06)
(9.04217 0.773064 -3.58919e-06)
(9.04217 0.773067 -3.80357e-06)
(9.04217 0.77307 -3.81922e-06)
(9.04216 0.773073 -3.81595e-06)
(9.04216 0.773076 -3.6566e-06)
(9.04216 0.773079 -3.4783e-06)
(9.04215 0.773081 -3.14883e-06)
(9.04215 0.773084 -2.85695e-06)
(9.04215 0.773086 -2.36434e-06)
(9.04215 0.773088 -2.0358e-06)
(9.04214 0.773089 -1.31506e-06)
(9.04214 0.773091 -9.76789e-07)
(9.04214 0.773092 1.56183e-07)
(9.04183 0.773064 8.39526e-07)
(9.06281 0.553892 -5.26613e-07)
(9.06312 0.553912 7.16307e-07)
(9.06312 0.553911 1.96385e-06)
(9.06312 0.55391 2.76349e-06)
(9.06312 0.553909 3.97641e-06)
(9.06312 0.553907 4.52796e-06)
(9.06312 0.553905 5.12176e-06)
(9.06312 0.553903 5.36342e-06)
(9.06312 0.553901 5.52952e-06)
(9.06312 0.553899 5.46354e-06)
(9.06312 0.553897 5.31871e-06)
(9.06312 0.553895 4.99793e-06)
(9.06312 0.553893 4.66125e-06)
(9.06312 0.553891 4.15699e-06)
(9.06312 0.55389 3.78846e-06)
(9.06312 0.553889 3.15339e-06)
(9.06312 0.553888 3.02739e-06)
(9.06312 0.553887 2.29789e-06)
(9.06312 0.553886 1.93331e-06)
(9.06281 0.553865 1.40512e-06)
(9.04269 0.547854 -1.32496e-06)
(9.043 0.547874 -2.63613e-06)
(9.043 0.547874 -3.35636e-06)
(9.043 0.547873 -4.52908e-06)
(9.043 0.547873 -5.53111e-06)
(9.043 0.547872 -6.33458e-06)
(9.04299 0.547872 -6.84683e-06)
(9.04299 0.547871 -7.20864e-06)
(9.04299 0.54787 -7.30355e-06)
(9.04299 0.54787 -7.25276e-06)
(9.04299 0.547869 -6.97992e-06)
(9.04299 0.547869 -6.59545e-06)
(9.04299 0.547868 -6.02822e-06)
(9.04299 0.547868 -5.41853e-06)
(9.04299 0.547867 -4.65529e-06)
(9.04299 0.547867 -3.93192e-06)
(9.04299 0.547867 -3.12939e-06)
(9.04299 0.547867 -2.30659e-06)
(9.04299 0.547867 -7.92941e-07)
(9.04267 0.547846 1.80444e-07)
(9.06283 0.34867 -3.33612e-07)
(9.06314 0.348684 5.88893e-07)
(9.06314 0.348684 1.85331e-06)
(9.06314 0.348685 2.57368e-06)
(9.06314 0.348686 3.23264e-06)
(9.06314 0.348686 3.70938e-06)
(9.06315 0.348687 4.13589e-06)
(9.06315 0.348688 4.3435e-06)
(9.06315 0.348689 4.47601e-06)
(9.06315 0.34869 4.42926e-06)
(9.06315 0.348691 4.3205e-06)
(9.06316 0.348692 4.06683e-06)
(9.06316 0.348693 3.79506e-06)
(9.06316 0.348694 3.3931e-06)
(9.06316 0.348695 3.04042e-06)
(9.06316 0.348695 2.53985e-06)
(9.06316 0.348696 2.11461e-06)
(9.06317 0.348696 1.55686e-06)
(9.06317 0.348696 1.53209e-06)
(9.06286 0.348683 1.05558e-06)
(9.04894 0.33931 -1.06858e-06)
(9.04925 0.339322 -2.06856e-06)
(9.04925 0.339322 -2.74373e-06)
(9.04925 0.33932 -3.59345e-06)
(9.04925 0.339319 -4.13418e-06)
(9.04925 0.339318 -4.70474e-06)
(9.04925 0.339316 -5.03493e-06)
(9.04925 0.339314 -5.28616e-06)
(9.04926 0.339313 -5.33078e-06)
(9.04926 0.339311 -5.28081e-06)
(9.04926 0.339309 -5.05607e-06)
(9.04926 0.339307 -4.76272e-06)
(9.04926 0.339306 -4.31804e-06)
(9.04926 0.339305 -3.86066e-06)
(9.04926 0.339303 -3.25012e-06)
(9.04926 0.339302 -2.71052e-06)
(9.04926 0.339302 -1.92532e-06)
(9.04926 0.339301 -1.34371e-06)
(9.04926 0.339301 -3.97433e-07)
(9.04895 0.339288 2.49518e-07)
(9.05915 0.155675 -5.74738e-07)
(9.05947 0.155681 -2.76231e-07)
(9.05947 0.155682 3.51375e-07)
(9.05947 0.155684 5.73733e-07)
(9.05947 0.155686 8.21967e-07)
(9.05947 0.155689 9.72059e-07)
(9.05947 0.155691 1.14263e-06)
(9.05948 0.155694 1.21308e-06)
(9.05948 0.155697 1.29185e-06)
(9.05948 0.1557 1.28659e-06)
(9.05948 0.155703 1.29291e-06)
(9.05949 0.155705 1.22417e-06)
(9.05949 0.155708 1.18678e-06)
(9.05949 0.15571 1.06966e-06)
(9.05949 0.155712 1.01698e-06)
(9.05949 0.155714 8.64383e-07)
(9.0595 0.155716 8.05079e-07)
(9.0595 0.155717 6.27944e-07)
(9.0595 0.155717 8.96905e-07)
(9.05919 0.155712 7.76126e-07)
(9.05682 0.142174 -5.93761e-07)
(9.05713 0.142178 -6.67099e-07)
(9.05713 0.142177 -4.92841e-07)
(9.05713 0.142175 -5.35204e-07)
(9.05713 0.142174 -3.81324e-07)
(9.05713 0.142171 -3.84807e-07)
(9.05713 0.142169 -2.94778e-07)
(9.05713 0.142166 -2.72203e-07)
(9.05714 0.142164 -1.91581e-07)
(9.05714 0.142161 -1.53337e-07)
(9.05714 0.142158 -6.76306e-08)
(9.05714 0.142156 -2.51239e-08)
(9.05714 0.142153 7.59474e-08)
(9.05714 0.142151 1.14468e-07)
(9.05714 0.142149 2.47894e-07)
(9.05714 0.142147 2.70878e-07)
(9.05714 0.142146 4.87523e-07)
(9.05714 0.142145 4.62391e-07)
(9.05714 0.142145 6.88783e-07)
(9.05683 0.14214 5.96307e-07)
(9.05834 -0.0315519 -9.58057e-07)
(9.05865 -0.0315535 -1.59474e-06)
(9.05866 -0.0315529 -1.9193e-06)
(9.05866 -0.0315518 -2.45606e-06)
(9.05866 -0.0315507 -2.78686e-06)
(9.05866 -0.0315493 -3.15343e-06)
(9.05866 -0.0315479 -3.35209e-06)
(9.05867 -0.0315463 -3.52024e-06)
(9.05867 -0.0315447 -3.54182e-06)
(9.05867 -0.0315431 -3.51409e-06)
(9.05868 -0.0315415 -3.35928e-06)
(9.05868 -0.03154 -3.17243e-06)
(9.05868 -0.0315386 -2.8665e-06)
(9.05869 -0.0315373 -2.56777e-06)
(9.05869 -0.0315362 -2.13932e-06)
(9.05869 -0.0315352 -1.77544e-06)
(9.05869 -0.0315344 -1.21979e-06)
(9.05869 -0.031534 -8.21783e-07)
(9.05869 -0.0315336 -6.07537e-08)
(9.05838 -0.0315315 3.96408e-07)
(9.06962 -0.047048 -3.90388e-07)
(9.06993 -0.0470518 1.02209e-07)
(9.06993 -0.0470533 8.67855e-07)
(9.06993 -0.0470558 1.29711e-06)
(9.06994 -0.0470587 1.78248e-06)
(9.06994 -0.0470621 2.09098e-06)
(9.06994 -0.0470659 2.38497e-06)
(9.06994 -0.0470699 2.54207e-06)
(9.06995 -0.0470741 2.66643e-06)
(9.06995 -0.0470783 2.68026e-06)
(9.06995 -0.0470824 2.67117e-06)
(9.06996 -0.0470863 2.56899e-06)
(9.06996 -0.04709 2.47072e-06)
(9.06996 -0.0470932 2.2862e-06)
(9.06996 -0.0470961 2.14111e-06)
(9.06996 -0.0470985 1.88644e-06)
(9.06997 -0.0471005 1.72271e-06)
(9.06997 -0.0471017 1.36825e-06)
(9.06997 -0.0471026 1.26674e-06)
(9.06965 -0.0471001 8.17306e-07)
(9.0624 -0.222537 -1.54939e-06)
(9.06272 -0.222546 -3.59122e-06)
(9.06272 -0.222545 -5.27344e-06)
(9.06272 -0.222543 -6.95694e-06)
(9.06272 -0.222542 -8.1913e-06)
(9.06272 -0.222539 -9.34093e-06)
(9.06273 -0.222537 -1.01021e-05)
(9.06273 -0.222534 -1.06302e-05)
(9.06273 -0.222532 -1.08011e-05)
(9.06274 -0.222529 -1.07164e-05)
(9.06274 -0.222526 -1.03219e-05)
(9.06274 -0.222524 -9.72369e-06)
(9.06274 -0.222521 -8.87383e-06)
(9.06275 -0.222519 -7.9121e-06)
(9.06275 -0.222517 -6.73484e-06)
(9.06275 -0.222516 -5.57059e-06)
(9.06275 -0.222514 -4.11798e-06)
(9.06275 -0.222514 -2.86602e-06)
(9.06275 -0.222513 -1.32333e-06)
(9.06244 -0.222503 -8.70357e-08)
(9.08804 -0.234996 -1.86735e-08)
(9.08835 -0.235007 1.27222e-06)
(9.08836 -0.235008 2.88647e-06)
(9.08836 -0.23501 4.01692e-06)
(9.08836 -0.235012 5.02314e-06)
(9.08836 -0.235015 5.82562e-06)
(9.08836 -0.235017 6.47658e-06)
(9.08836 -0.23502 6.88976e-06)
(9.08837 -0.235023 7.13861e-06)
(9.08837 -0.235026 7.16032e-06)
(9.08837 -0.235029 7.04009e-06)
(9.08837 -0.235032 6.7275e-06)
(9.08838 -0.235035 6.32043e-06)
(9.08838 -0.235037 5.76329e-06)
(9.08838 -0.235039 5.16125e-06)
(9.08838 -0.235041 4.43284e-06)
(9.08838 -0.235042 3.67319e-06)
(9.08838 -0.235043 2.7773e-06)
(9.08838 -0.235043 2.17608e-06)
(9.08807 -0.235033 1.14141e-06)
(9.0716 -0.422985 -2.01913e-06)
(9.07191 -0.423003 -5.00593e-06)
(9.07191 -0.423002 -7.65285e-06)
(9.07191 -0.423001 -1.01472e-05)
(9.07192 -0.423 -1.19823e-05)
(9.07192 -0.422998 -1.37123e-05)
(9.07192 -0.422997 -1.48962e-05)
(9.07192 -0.422995 -1.57142e-05)
(9.07192 -0.422993 -1.60225e-05)
(9.07193 -0.422992 -1.59261e-05)
(9.07193 -0.42299 -1.53822e-05)
(9.07193 -0.422988 -1.45046e-05)
(9.07193 -0.422987 -1.32727e-05)
(9.07194 -0.422985 -1.18364e-05)
(9.07194 -0.422984 -1.01138e-05)
(9.07194 -0.422983 -8.36445e-06)
(9.07194 -0.422982 -6.20158e-06)
(9.07194 -0.422982 -4.3215e-06)
(9.07194 -0.422981 -2.19483e-06)
(9.07163 -0.422963 -3.59217e-07)
(9.10858 -0.430716 2.06307e-07)
(9.10889 -0.430734 2.01252e-06)
(9.10889 -0.430735 4.23065e-06)
(9.10889 -0.430737 5.79613e-06)
(9.10889 -0.430738 7.06842e-06)
(9.1089 -0.430739 8.17279e-06)
(9.1089 -0.43074 9.05115e-06)
(9.1089 -0.430742 9.62395e-06)
(9.1089 -0.430743 9.95836e-06)
(9.1089 -0.430745 9.9821e-06)
(9.10891 -0.430746 9.7924e-06)
(9.10891 -0.430748 9.33852e-06)
(9.10891 -0.430749 8.73333e-06)
(9.10891 -0.430751 7.92952e-06)
(9.10891 -0.430752 7.03277e-06)
(9.10891 -0.430753 5.99131e-06)
(9.10891 -0.430753 4.79689e-06)
(9.10891 -0.430753 3.55483e-06)
(9.10891 -0.430753 2.73386e-06)
(9.1086 -0.430735 1.35894e-06)
(9.08244 -0.638783 -2.27615e-06)
(9.08275 -0.638809 -5.72729e-06)
(9.08275 -0.638809 -8.84427e-06)
(9.08275 -0.638808 -1.17783e-05)
(9.08275 -0.638808 -1.3968e-05)
(9.08275 -0.638808 -1.60428e-05)
(9.08275 -0.638807 -1.74972e-05)
(9.08275 -0.638807 -1.84985e-05)
(9.08275 -0.638807 -1.88972e-05)
(9.08276 -0.638807 -1.8805e-05)
(9.08276 -0.638807 -1.81781e-05)
(9.08276 -0.638807 -1.71469e-05)
(9.08276 -0.638806 -1.57004e-05)
(9.08276 -0.638806 -1.40029e-05)
(9.08276 -0.638806 -1.19991e-05)
(9.08276 -0.638806 -9.93752e-06)
(9.08276 -0.638806 -7.40368e-06)
(9.08276 -0.638807 -5.17127e-06)
(9.08276 -0.638807 -2.62356e-06)
(9.08245 -0.638781 -4.47492e-07)
(9.12416 -0.640821 1.69067e-07)
(9.12447 -0.640846 2.08116e-06)
(9.12447 -0.640846 4.43825e-06)
(9.12447 -0.640847 6.00234e-06)
(9.12448 -0.640846 7.18627e-06)
(9.12448 -0.640845 8.28415e-06)
(9.12448 -0.640844 9.20675e-06)
(9.12448 -0.640844 9.77844e-06)
(9.12448 -0.640843 1.01351e-05)
(9.12448 -0.640842 1.01438e-05)
(9.12449 -0.640841 9.94773e-06)
(9.12449 -0.64084 9.45886e-06)
(9.12449 -0.640839 8.83593e-06)
(9.12449 -0.640839 7.98301e-06)
(9.12449 -0.640838 7.07298e-06)
(9.12449 -0.640838 5.97434e-06)
(9.12449 -0.640837 4.65287e-06)
(9.12449 -0.640835 3.38511e-06)
(9.12449 -0.640835 2.70344e-06)
(9.12418 -0.64081 1.40711e-06)
(9.08796 -0.873869 -2.08421e-06)
(9.08827 -0.873903 -5.18326e-06)
(9.08827 -0.873903 -7.34249e-06)
(9.08827 -0.873903 -1.01152e-05)
(9.08827 -0.873904 -1.28769e-05)
(9.08827 -0.873906 -1.4881e-05)
(9.08827 -0.873907 -1.63552e-05)
(9.08826 -0.873909 -1.73251e-05)
(9.08826 -0.873911 -1.7706e-05)
(9.08826 -0.873912 -1.76276e-05)
(9.08826 -0.873914 -1.70214e-05)
(9.08826 -0.873916 -1.60488e-05)
(9.08826 -0.873918 -1.4676e-05)
(9.08826 -0.873919 -1.30895e-05)
(9.08826 -0.873921 -1.13001e-05)
(9.08826 -0.873922 -9.41691e-06)
(9.08825 -0.873923 -7.75246e-06)
(9.08825 -0.873925 -5.64732e-06)
(9.08826 -0.873926 -2.506e-06)
(9.08794 -0.873893 -4.40936e-07)
(9.12581 -0.869094 -3.13106e-07)
(9.12612 -0.869126 1.31681e-06)
(9.12612 -0.869124 2.28253e-06)
(9.12612 -0.869123 3.20176e-06)
(9.12612 -0.86912 4.82109e-06)
(9.12612 -0.869117 5.50978e-06)
(9.12612 -0.869113 6.33093e-06)
(9.12612 -0.869109 6.69036e-06)
(9.12612 -0.869105 6.98894e-06)
(9.12612 -0.869101 6.96128e-06)
(9.12612 -0.869097 6.844e-06)
(9.12612 -0.869093 6.46094e-06)
(9.12612 -0.869089 6.06368e-06)
(9.12612 -0.869086 5.41683e-06)
(9.12612 -0.869083 4.95002e-06)
(9.12612 -0.86908 4.11046e-06)
(9.12612 -0.869079 4.00997e-06)
(9.12612 -0.869077 2.99453e-06)
(9.12612 -0.869076 1.90342e-06)
(9.12581 -0.869043 1.32818e-06)
(9.07954 -1.13183 -1.56752e-06)
(9.07985 -1.13188 -3.09209e-06)
(9.07985 -1.13188 -4.82083e-06)
(9.07985 -1.13188 -6.7841e-06)
(9.07985 -1.13188 -8.08946e-06)
(9.07984 -1.13188 -9.41771e-06)
(9.07984 -1.13189 -1.02149e-05)
(9.07984 -1.13189 -1.08378e-05)
(9.07983 -1.13189 -1.10071e-05)
(9.07983 -1.1319 -1.09562e-05)
(9.07983 -1.1319 -1.05192e-05)
(9.07982 -1.1319 -9.91145e-06)
(9.07982 -1.13191 -8.98768e-06)
(9.07981 -1.13191 -8.02503e-06)
(9.07981 -1.13191 -6.80232e-06)
(9.07981 -1.13191 -5.73084e-06)
(9.07981 -1.13191 -4.29645e-06)
(9.0798 -1.13192 -3.22065e-06)
(9.0798 -1.13192 -1.699e-06)
(9.07949 -1.13188 -8.44525e-08)
(9.09817 -1.11559 2.41361e-06)
(9.09845 -1.11563 4.08695e-07)
(9.09843 -1.11562 8.57419e-07)
(9.09843 -1.11562 1.57641e-07)
(9.09843 -1.11562 6.35856e-07)
(9.09843 -1.11561 5.16178e-07)
(9.09842 -1.1156 7.82667e-07)
(9.09842 -1.1156 7.70124e-07)
(9.09842 -1.11559 9.03568e-07)
(9.09841 -1.11558 8.67207e-07)
(9.09841 -1.11558 9.24812e-07)
(9.09841 -1.11557 8.43109e-07)
(9.0984 -1.11556 8.87365e-07)
(9.0984 -1.11556 7.41701e-07)
(9.0984 -1.11555 8.60264e-07)
(9.09839 -1.11555 5.68656e-07)
(9.09839 -1.11554 8.66713e-07)
(9.09839 -1.11554 -4.72811e-08)
(9.0984 -1.11554 1.047e-07)
(9.09812 -1.11551 -2.35043e-06)
(8.76884 0.760611 5.40773e-07)
(8.76914 0.760638 -4.60402e-07)
(8.76914 0.760636 9.55148e-07)
(8.76913 0.760635 1.05098e-06)
(8.76913 0.760632 1.92373e-06)
(8.76913 0.760629 2.13441e-06)
(8.76913 0.760626 2.5668e-06)
(8.76913 0.760623 2.6536e-06)
(8.76913 0.760619 2.80254e-06)
(8.76912 0.760616 2.74043e-06)
(8.76912 0.760612 2.71403e-06)
(8.76912 0.760609 2.522e-06)
(8.76912 0.760606 2.42333e-06)
(8.76912 0.760603 2.12956e-06)
(8.76911 0.760601 2.08511e-06)
(8.76911 0.760599 1.67162e-06)
(8.76911 0.760597 1.87988e-06)
(8.76911 0.760595 1.16427e-06)
(8.76911 0.760595 1.80101e-06)
(8.76881 0.760567 -1.19627e-07)
(8.80097 0.763488 -1.29939e-06)
(8.80127 0.763516 -1.85308e-06)
(8.80127 0.763516 -2.07796e-06)
(8.80127 0.763517 -2.69804e-06)
(8.80127 0.763518 -2.87021e-06)
(8.80127 0.76352 -3.28817e-06)
(8.80127 0.763521 -3.4062e-06)
(8.80127 0.763523 -3.59483e-06)
(8.80127 0.763524 -3.57264e-06)
(8.80127 0.763526 -3.56215e-06)
(8.80126 0.763528 -3.37999e-06)
(8.80126 0.763529 -3.21685e-06)
(8.80126 0.763531 -2.87849e-06)
(8.80126 0.763532 -2.61502e-06)
(8.80126 0.763534 -2.12161e-06)
(8.80126 0.763535 -1.82246e-06)
(8.80126 0.763536 -1.09505e-06)
(8.80126 0.763536 -7.50208e-07)
(8.80126 0.763537 1.67828e-07)
(8.80095 0.763509 7.24122e-07)
(8.81691 0.555895 -4.77155e-07)
(8.81721 0.555915 8.30615e-07)
(8.81721 0.555914 1.93888e-06)
(8.81721 0.555913 2.8517e-06)
(8.81721 0.555912 4.27962e-06)
(8.81721 0.555911 4.90434e-06)
(8.81721 0.55591 5.60094e-06)
(8.81721 0.555908 5.87597e-06)
(8.81721 0.555906 6.08543e-06)
(8.81721 0.555905 6.02015e-06)
(8.81721 0.555903 5.88616e-06)
(8.81721 0.555901 5.54451e-06)
(8.81721 0.5559 5.20632e-06)
(8.81721 0.555899 4.66425e-06)
(8.81721 0.555897 4.30623e-06)
(8.81721 0.555896 3.61918e-06)
(8.81721 0.555895 3.57983e-06)
(8.81721 0.555895 2.7794e-06)
(8.81721 0.555894 2.12902e-06)
(8.81691 0.555874 1.4617e-06)
(8.81535 0.549098 -1.17522e-06)
(8.81566 0.549117 -2.34136e-06)
(8.81566 0.549117 -2.91871e-06)
(8.81566 0.549115 -3.93505e-06)
(8.81566 0.549115 -4.86726e-06)
(8.81565 0.549114 -5.56892e-06)
(8.81565 0.549113 -6.00139e-06)
(8.81565 0.549112 -6.32148e-06)
(8.81565 0.549111 -6.38572e-06)
(8.81565 0.54911 -6.34955e-06)
(8.81565 0.549109 -6.097e-06)
(8.81565 0.549108 -5.77553e-06)
(8.81565 0.549108 -5.27006e-06)
(8.81565 0.549107 -4.75564e-06)
(8.81565 0.549106 -4.08228e-06)
(8.81565 0.549106 -3.46494e-06)
(8.81564 0.549105 -2.80806e-06)
(8.81564 0.549106 -2.07058e-06)
(8.81564 0.549106 -6.53031e-07)
(8.81534 0.549086 1.71999e-07)
(8.83406 0.350705 -3.01883e-07)
(8.83437 0.350717 5.7353e-07)
(8.83437 0.350718 1.70799e-06)
(8.83437 0.350719 2.42519e-06)
(8.83437 0.350719 3.07277e-06)
(8.83437 0.35072 3.55091e-06)
(8.83437 0.35072 4.00305e-06)
(8.83437 0.350721 4.21891e-06)
(8.83437 0.350722 4.38387e-06)
(8.83437 0.350723 4.35123e-06)
(8.83437 0.350723 4.28129e-06)
(8.83437 0.350724 4.04531e-06)
(8.83438 0.350725 3.8195e-06)
(8.83438 0.350726 3.43307e-06)
(8.83438 0.350726 3.12904e-06)
(8.83438 0.350727 2.63432e-06)
(8.83438 0.350727 2.23298e-06)
(8.83438 0.350727 1.65801e-06)
(8.83438 0.350727 1.57441e-06)
(8.83408 0.350715 1.05659e-06)
(8.83417 0.340781 -9.8017e-07)
(8.83447 0.340792 -1.89173e-06)
(8.83447 0.340791 -2.60327e-06)
(8.83447 0.34079 -3.36372e-06)
(8.83447 0.340788 -3.79633e-06)
(8.83447 0.340787 -4.30195e-06)
(8.83447 0.340785 -4.56596e-06)
(8.83447 0.340783 -4.78695e-06)
(8.83447 0.340781 -4.80046e-06)
(8.83447 0.340779 -4.75485e-06)
(8.83447 0.340777 -4.52856e-06)
(8.83447 0.340775 -4.27082e-06)
(8.83447 0.340773 -3.84811e-06)
(8.83447 0.340771 -3.44907e-06)
(8.83447 0.34077 -2.86695e-06)
(8.83447 0.340769 -2.39465e-06)
(8.83447 0.340768 -1.61923e-06)
(8.83447 0.340767 -1.10623e-06)
(8.83447 0.340767 -3.19257e-07)
(8.83417 0.340755 2.41434e-07)
(8.84295 0.151225 -5.77138e-07)
(8.84326 0.151231 -4.26077e-07)
(8.84326 0.151232 -5.14149e-08)
(8.84326 0.151234 7.46428e-08)
(8.84326 0.151235 2.39588e-07)
(8.84326 0.151238 3.27879e-07)
(8.84327 0.15124 4.72447e-07)
(8.84327 0.151242 5.1949e-07)
(8.84327 0.151245 6.12676e-07)
(8.84327 0.151248 6.19021e-07)
(8.84327 0.151251 6.74497e-07)
(8.84327 0.151253 6.426e-07)
(8.84327 0.151256 6.78023e-07)
(8.84328 0.151258 6.10001e-07)
(8.84328 0.15126 6.47143e-07)
(8.84328 0.151262 5.4911e-07)
(8.84328 0.151264 5.79486e-07)
(8.84328 0.151264 4.57156e-07)
(8.84328 0.151265 7.15333e-07)
(8.84298 0.151261 6.62848e-07)
(8.84835 0.137586 -5.40209e-07)
(8.84865 0.137589 -6.05077e-07)
(8.84865 0.137588 -5.62726e-07)
(8.84865 0.137586 -5.62718e-07)
(8.84865 0.137583 -3.26526e-07)
(8.84866 0.137581 -2.80179e-07)
(8.84866 0.137577 -1.19191e-07)
(8.84866 0.137574 -4.84817e-08)
(8.84866 0.137571 9.11464e-08)
(8.84866 0.137567 1.66646e-07)
(8.84866 0.137563 3.06487e-07)
(8.84866 0.13756 3.711e-07)
(8.84867 0.137557 5.11325e-07)
(8.84867 0.137554 5.52185e-07)
(8.84867 0.137552 7.13408e-07)
(8.84867 0.137549 7.10084e-07)
(8.84867 0.137548 9.46822e-07)
(8.84867 0.137547 8.43337e-07)
(8.84867 0.137546 8.59328e-07)
(8.84836 0.137541 6.21415e-07)
(8.84894 -0.0458257 -1.08841e-06)
(8.84925 -0.045828 -2.10211e-06)
(8.84925 -0.0458277 -2.93883e-06)
(8.84925 -0.0458268 -3.78794e-06)
(8.84925 -0.0458262 -4.35155e-06)
(8.84925 -0.0458254 -4.93472e-06)
(8.84925 -0.0458247 -5.27168e-06)
(8.84925 -0.0458238 -5.54823e-06)
(8.84926 -0.0458229 -5.60411e-06)
(8.84926 -0.045822 -5.57883e-06)
(8.84926 -0.0458211 -5.35788e-06)
(8.84926 -0.0458201 -5.08736e-06)
(8.84926 -0.0458192 -4.63613e-06)
(8.84926 -0.0458184 -4.19174e-06)
(8.84927 -0.0458175 -3.55368e-06)
(8.84927 -0.0458168 -2.99685e-06)
(8.84927 -0.0458161 -2.17338e-06)
(8.84927 -0.0458161 -1.53124e-06)
(8.84927 -0.0458157 -6.49962e-07)
(8.84896 -0.0458132 1.0077e-07)
(8.85905 -0.0602934 -4.20465e-07)
(8.85936 -0.0602976 -1.72954e-07)
(8.85936 -0.0602991 2.3313e-07)
(8.85936 -0.0603017 5.19225e-07)
(8.85936 -0.0603044 9.08016e-07)
(8.85936 -0.0603076 1.15233e-06)
(8.85936 -0.0603112 1.44168e-06)
(8.85937 -0.060315 1.61532e-06)
(8.85937 -0.060319 1.81263e-06)
(8.85937 -0.0603231 1.92242e-06)
(8.85937 -0.0603271 2.05191e-06)
(8.85937 -0.0603309 2.09011e-06)
(8.85938 -0.0603345 2.16511e-06)
(8.85938 -0.0603377 2.13505e-06)
(8.85938 -0.0603406 2.15977e-06)
(8.85938 -0.0603431 2.02094e-06)
(8.85938 -0.0603451 1.97357e-06)
(8.85938 -0.0603461 1.63589e-06)
(8.85938 -0.0603471 1.37612e-06)
(8.85907 -0.0603441 7.97989e-07)
(8.85288 -0.246141 -1.65421e-06)
(8.85319 -0.246151 -3.99477e-06)
(8.85319 -0.24615 -6.15487e-06)
(8.85319 -0.246148 -8.10188e-06)
(8.85319 -0.246147 -9.49051e-06)
(8.85319 -0.246145 -1.08333e-05)
(8.85319 -0.246142 -1.17196e-05)
(8.85319 -0.24614 -1.23688e-05)
(8.85319 -0.246138 -1.26033e-05)
(8.85319 -0.246135 -1.25644e-05)
(8.85319 -0.246133 -1.21637e-05)
(8.85319 -0.24613 -1.15482e-05)
(8.85319 -0.246128 -1.06223e-05)
(8.85319 -0.246125 -9.57588e-06)
(8.85319 -0.246123 -8.23663e-06)
(8.85319 -0.246122 -6.90487e-06)
(8.85319 -0.24612 -5.15687e-06)
(8.85319 -0.246119 -3.6358e-06)
(8.85319 -0.246119 -1.98196e-06)
(8.85288 -0.246108 -4.08519e-07)
(8.86836 -0.256842 -4.66471e-08)
(8.86867 -0.256853 9.19828e-07)
(8.86867 -0.256854 2.14424e-06)
(8.86867 -0.256857 3.09344e-06)
(8.86867 -0.256859 3.94794e-06)
(8.86867 -0.256862 4.67491e-06)
(8.86867 -0.256864 5.31982e-06)
(8.86868 -0.256868 5.77916e-06)
(8.86868 -0.256871 6.141e-06)
(8.86868 -0.256874 6.31332e-06)
(8.86868 -0.256877 6.39822e-06)
(8.86869 -0.256881 6.30718e-06)
(8.86869 -0.256884 6.15195e-06)
(8.86869 -0.256886 5.83377e-06)
(8.86869 -0.256889 5.45884e-06)
(8.86869 -0.256891 4.89454e-06)
(8.86869 -0.256892 4.2305e-06)
(8.86869 -0.256892 3.32092e-06)
(8.86869 -0.256893 2.51922e-06)
(8.86839 -0.256883 1.2022e-06)
(8.85383 -0.452482 -2.16959e-06)
(8.85413 -0.4525 -5.54173e-06)
(8.85413 -0.452499 -8.77556e-06)
(8.85413 -0.452497 -1.16167e-05)
(8.85413 -0.452496 -1.36486e-05)
(8.85413 -0.452495 -1.56329e-05)
(8.85413 -0.452493 -1.6991e-05)
(8.85413 -0.452492 -1.79686e-05)
(8.85413 -0.45249 -1.83679e-05)
(8.85413 -0.452488 -1.83345e-05)
(8.85413 -0.452486 -1.77902e-05)
(8.85413 -0.452484 -1.68866e-05)
(8.85413 -0.452483 -1.55647e-05)
(8.85413 -0.452481 -1.40077e-05)
(8.85413 -0.45248 -1.20844e-05)
(8.85413 -0.452479 -1.0099e-05)
(8.85413 -0.452477 -7.54322e-06)
(8.85413 -0.452477 -5.30253e-06)
(8.85413 -0.452477 -2.98677e-06)
(8.85382 -0.452459 -7.22425e-07)
(8.87287 -0.457913 2.10139e-07)
(8.87318 -0.457931 1.70698e-06)
(8.87318 -0.457932 3.58121e-06)
(8.87318 -0.457934 5.00238e-06)
(8.87318 -0.457935 6.13299e-06)
(8.87318 -0.457937 7.19189e-06)
(8.87319 -0.457938 8.09557e-06)
(8.87319 -0.45794 8.74762e-06)
(8.87319 -0.457941 9.22964e-06)
(8.87319 -0.457943 9.43938e-06)
(8.8732 -0.457945 9.49083e-06)
(8.8732 -0.457946 9.29731e-06)
(8.8732 -0.457948 8.97982e-06)
(8.8732 -0.457949 8.44813e-06)
(8.8732 -0.45795 7.79623e-06)
(8.8732 -0.457951 6.92181e-06)
(8.8732 -0.457952 5.77756e-06)
(8.8732 -0.457951 4.46044e-06)
(8.8732 -0.457951 3.37226e-06)
(8.8729 -0.457933 1.53794e-06)
(8.84911 -0.667303 -2.43561e-06)
(8.84942 -0.667329 -6.30193e-06)
(8.84942 -0.667328 -9.99231e-06)
(8.84941 -0.667327 -1.32966e-05)
(8.84941 -0.667326 -1.57416e-05)
(8.84941 -0.667326 -1.80904e-05)
(8.84941 -0.667326 -1.97462e-05)
(8.84941 -0.667325 -2.09145e-05)
(8.84941 -0.667325 -2.14078e-05)
(8.84941 -0.667324 -2.13744e-05)
(8.84941 -0.667324 -2.07369e-05)
(8.8494 -0.667323 -1.96641e-05)
(8.8494 -0.667323 -1.81113e-05)
(8.8494 -0.667323 -1.62707e-05)
(8.8494 -0.667322 -1.40578e-05)
(8.8494 -0.667322 -1.17313e-05)
(8.8494 -0.667322 -8.81481e-06)
(8.8494 -0.667323 -6.18691e-06)
(8.8494 -0.667323 -3.38591e-06)
(8.8491 -0.667297 -8.02417e-07)
(8.86762 -0.666629 1.7726e-07)
(8.86792 -0.666654 1.87892e-06)
(8.86792 -0.666654 3.99836e-06)
(8.86793 -0.666655 5.52198e-06)
(8.86793 -0.666654 6.66304e-06)
(8.86793 -0.666653 7.78801e-06)
(8.86793 -0.666652 8.81032e-06)
(8.86793 -0.666651 9.49902e-06)
(8.86793 -0.666649 1.00349e-05)
(8.86793 -0.666648 1.02375e-05)
(8.86793 -0.666647 1.02849e-05)
(8.86794 -0.666645 1.00401e-05)
(8.86794 -0.666644 9.68973e-06)
(8.86794 -0.666643 9.07866e-06)
(8.86794 -0.666642 8.39597e-06)
(8.86794 -0.666641 7.41899e-06)
(8.86794 -0.66664 6.11467e-06)
(8.86794 -0.666637 4.69934e-06)
(8.86794 -0.666637 3.66111e-06)
(8.86763 -0.666611 1.73791e-06)
(8.834 -0.891307 -2.21623e-06)
(8.8343 -0.89134 -5.59949e-06)
(8.8343 -0.891341 -7.91616e-06)
(8.8343 -0.891339 -1.09143e-05)
(8.8343 -0.89134 -1.4034e-05)
(8.8343 -0.891341 -1.62183e-05)
(8.83429 -0.891342 -1.78433e-05)
(8.83429 -0.891343 -1.89171e-05)
(8.83429 -0.891344 -1.93472e-05)
(8.83429 -0.891346 -1.9296e-05)
(8.83428 -0.891347 -1.86607e-05)
(8.83428 -0.891348 -1.76481e-05)
(8.83428 -0.89135 -1.61846e-05)
(8.83428 -0.891351 -1.44924e-05)
(8.83428 -0.891352 -1.25708e-05)
(8.83428 -0.891352 -1.05026e-05)
(8.83428 -0.891353 -8.76453e-06)
(8.83428 -0.891356 -6.38348e-06)
(8.83428 -0.891357 -2.88829e-06)
(8.83397 -0.891324 -6.44489e-07)
(8.84457 -0.884025 -4.1833e-07)
(8.84488 -0.884057 1.16804e-06)
(8.84488 -0.884055 1.81805e-06)
(8.84488 -0.884053 2.87408e-06)
(8.84488 -0.88405 4.92472e-06)
(8.84488 -0.884046 5.76101e-06)
(8.84488 -0.884042 6.82359e-06)
(8.84488 -0.884037 7.33945e-06)
(8.84488 -0.884033 7.83939e-06)
(8.84488 -0.884028 7.97587e-06)
(8.84488 -0.884023 8.06423e-06)
(8.84488 -0.884018 7.84234e-06)
(8.84488 -0.884014 7.64922e-06)
(8.84488 -0.884009 7.1339e-06)
(8.84487 -0.884006 6.86528e-06)
(8.84487 -0.884002 6.06023e-06)
(8.84487 -0.884 6.23585e-06)
(8.84487 -0.883997 5.00481e-06)
(8.84487 -0.883996 3.21279e-06)
(8.84457 -0.883963 1.8781e-06)
(8.80041 -1.1221 -1.88979e-06)
(8.80071 -1.12215 -3.58616e-06)
(8.80071 -1.12215 -5.23816e-06)
(8.80071 -1.12215 -7.16229e-06)
(8.8007 -1.12215 -8.39864e-06)
(8.8007 -1.12215 -9.70776e-06)
(8.8007 -1.12216 -1.04631e-05)
(8.8007 -1.12216 -1.10638e-05)
(8.80069 -1.12216 -1.11797e-05)
(8.80069 -1.12217 -1.1092e-05)
(8.80069 -1.12217 -1.05818e-05)
(8.80068 -1.12217 -9.92417e-06)
(8.80068 -1.12218 -8.9103e-06)
(8.80068 -1.12218 -7.88461e-06)
(8.80067 -1.12218 -6.54752e-06)
(8.80067 -1.12219 -5.39636e-06)
(8.80067 -1.12219 -3.79444e-06)
(8.80067 -1.12219 -2.63979e-06)
(8.80067 -1.12219 -1.04685e-06)
(8.80036 -1.12215 2.55021e-07)
(8.78819 -1.10482 1.39659e-06)
(8.78846 -1.10486 -1.51088e-07)
(8.78845 -1.10485 3.48344e-07)
(8.78845 -1.10485 -1.84773e-07)
(8.78845 -1.10484 5.18757e-07)
(8.78845 -1.10484 5.14883e-07)
(8.78844 -1.10483 9.43627e-07)
(8.78844 -1.10482 1.03914e-06)
(8.78844 -1.10482 1.31789e-06)
(8.78844 -1.10481 1.40162e-06)
(8.78844 -1.1048 1.62287e-06)
(8.78844 -1.10479 1.66808e-06)
(8.78844 -1.10479 1.88824e-06)
(8.78844 -1.10478 1.86019e-06)
(8.78844 -1.10478 2.15547e-06)
(8.78843 -1.10477 1.92196e-06)
(8.78843 -1.10477 2.39904e-06)
(8.78843 -1.10477 1.44214e-06)
(8.78844 -1.10477 1.43e-06)
(8.78818 -1.10473 -1.04097e-06)
(8.73722 0.760113 5.31301e-07)
(8.73752 0.76014 -4.14769e-07)
(8.73752 0.760138 1.32638e-06)
(8.73752 0.760137 1.6739e-06)
(8.73752 0.760135 2.70656e-06)
(8.73752 0.760132 3.05528e-06)
(8.73752 0.760129 3.5866e-06)
(8.73752 0.760126 3.74338e-06)
(8.73751 0.760122 3.93208e-06)
(8.73751 0.760119 3.87774e-06)
(8.73751 0.760116 3.83853e-06)
(8.73751 0.760113 3.59629e-06)
(8.73751 0.76011 3.43853e-06)
(8.73751 0.760107 3.05323e-06)
(8.73751 0.760104 2.91165e-06)
(8.73751 0.760102 2.37684e-06)
(8.73751 0.760101 2.47259e-06)
(8.73751 0.760099 1.67688e-06)
(8.73751 0.760099 2.3256e-06)
(8.73722 0.760071 7.64377e-08)
(8.75721 0.762219 -1.25678e-06)
(8.75751 0.762247 -1.51143e-06)
(8.75751 0.762247 -1.49731e-06)
(8.75751 0.762247 -1.84457e-06)
(8.75751 0.762247 -1.83631e-06)
(8.75751 0.762248 -2.09124e-06)
(8.75751 0.762249 -2.10766e-06)
(8.75751 0.76225 -2.22993e-06)
(8.75751 0.76225 -2.18419e-06)
(8.75751 0.762251 -2.1893e-06)
(8.7575 0.762252 -2.0509e-06)
(8.7575 0.762253 -1.97375e-06)
(8.7575 0.762253 -1.73284e-06)
(8.7575 0.762254 -1.59779e-06)
(8.7575 0.762255 -1.24243e-06)
(8.7575 0.762255 -1.0935e-06)
(8.7575 0.762255 -5.21923e-07)
(8.7575 0.762256 -2.98752e-07)
(8.7575 0.762257 4.46118e-07)
(8.7572 0.762229 8.61511e-07)
(8.7745 0.55015 -6.98276e-07)
(8.7748 0.550169 5.81677e-07)
(8.7748 0.550168 1.63831e-06)
(8.7748 0.550167 2.4932e-06)
(8.7748 0.550166 3.87305e-06)
(8.7748 0.550165 4.4564e-06)
(8.7748 0.550164 5.12025e-06)
(8.7748 0.550162 5.37783e-06)
(8.7748 0.55016 5.58891e-06)
(8.7748 0.550159 5.53392e-06)
(8.7748 0.550157 5.43102e-06)
(8.7748 0.550155 5.11925e-06)
(8.7748 0.550154 4.8291e-06)
(8.7748 0.550153 4.3334e-06)
(8.7748 0.550151 4.02737e-06)
(8.7748 0.55015 3.3923e-06)
(8.7748 0.550149 3.426e-06)
(8.7748 0.550148 2.69335e-06)
(8.7748 0.550148 2.14484e-06)
(8.7745 0.550129 1.57513e-06)
(8.76709 0.545078 -1.20725e-06)
(8.76739 0.545097 -2.04135e-06)
(8.76739 0.545097 -2.27932e-06)
(8.76739 0.545095 -3.04596e-06)
(8.76739 0.545094 -3.80879e-06)
(8.76739 0.545093 -4.3608e-06)
(8.76739 0.545092 -4.70365e-06)
(8.76739 0.545091 -4.97169e-06)
(8.76739 0.54509 -5.02639e-06)
(8.76739 0.545089 -5.02246e-06)
(8.76739 0.545088 -4.8291e-06)
(8.76739 0.545087 -4.6043e-06)
(8.76739 0.545086 -4.20963e-06)
(8.76739 0.545085 -3.83166e-06)
(8.76739 0.545084 -3.30426e-06)
(8.76739 0.545083 -2.83446e-06)
(8.76739 0.545083 -2.33286e-06)
(8.76739 0.545083 -1.73153e-06)
(8.76739 0.545083 -3.4501e-07)
(8.76709 0.545064 3.9962e-07)
(8.78708 0.345032 -5.56251e-07)
(8.78738 0.345044 2.31085e-07)
(8.78738 0.345044 1.28773e-06)
(8.78738 0.345046 1.89104e-06)
(8.78738 0.345046 2.44686e-06)
(8.78738 0.345046 2.84627e-06)
(8.78738 0.345046 3.23238e-06)
(8.78738 0.345046 3.40981e-06)
(8.78738 0.345047 3.55871e-06)
(8.78738 0.345047 3.52823e-06)
(8.78738 0.345047 3.48399e-06)
(8.78738 0.345047 3.28222e-06)
(8.78738 0.345048 3.11065e-06)
(8.78738 0.345048 2.78191e-06)
(8.78738 0.345048 2.55217e-06)
(8.78738 0.345049 2.13819e-06)
(8.78738 0.345049 1.85391e-06)
(8.78738 0.345048 1.39379e-06)
(8.78739 0.345048 1.49748e-06)
(8.78708 0.345036 1.13809e-06)
(8.78322 0.335526 -1.1155e-06)
(8.78352 0.335537 -1.8601e-06)
(8.78352 0.335536 -2.38607e-06)
(8.78352 0.335534 -3.04033e-06)
(8.78352 0.335533 -3.39879e-06)
(8.78352 0.335531 -3.84826e-06)
(8.78352 0.335529 -4.08559e-06)
(8.78352 0.335527 -4.2938e-06)
(8.78352 0.335525 -4.31368e-06)
(8.78352 0.335523 -4.29123e-06)
(8.78352 0.335521 -4.09746e-06)
(8.78352 0.335519 -3.88911e-06)
(8.78352 0.335517 -3.51679e-06)
(8.78352 0.335515 -3.17986e-06)
(8.78352 0.335514 -2.65391e-06)
(8.78352 0.335512 -2.23881e-06)