/*--------------------------------*- C++ -*----------------------------------*\
| =========                 |                                                 |
| \\      /  F ield         | OpenFOAM: The Open Source CFD Toolbox           |
|  \\    /   O peration     | Version:  2212                                  |
|   \\  /    A nd           | Website:  www.openfoam.com                      |
|    \\/     M anipulation  |                                                 |
\*---------------------------------------------------------------------------*/
FoamFile
{
    version     2.0;
    format      ascii;
    arch        "LSB;label=32;scalar=64";
    class       volScalarField;
    location    "0.09";
    object      p;
}
// * * * * * * * * * * * * * * * * * * * * * * * * * * * * * * * * * * * * * //

dimensions      [1 -1 -2 0 0 0 0];

internalField   nonuniform List<scalar> 
7220
(
48.5246
591.971
592.12
592.232
591.951
592.101
592.109
591.948
592.228
592.098
57.4448
565.846
521.861
108.445
107.712
593.349
255.775
71.3146
270.536
65.5767
366.376
555.421
592.4
546.83
588.754
558.613
652.809
83.424
363.916
448.902
589.136
483.996
590.663
429.152
588.891
37.3124
592.305
62.8314
57.6676
111.111
111.53
111.533
111.163
34.0656
34.0775
33.9429
33.5971
33.6235
111.951
112.598
112.263
111.823
113.647
115.231
114.563
113.099
117.114
118.041
118.538
116.663
118.395
118.439
119.756
119.438
113.573
101.236
108.955
118.68
86.7412
73.5326
72.4298
91.0101
59.8504
47.8796
46.6031
58.1927
41.9367
37.8506
37.2954
40.845
35.7313
34.6133
34.3802
35.3477
33.7003
33.9117
34.0786
33.8449
33.759
34.2772
110.53
110.607
111.404
110.601
34.4516
34.32
33.7401
33.9742
35.1496
38.4889
36.2451
49.0422
42.2357
64.3462
58.2892
74.1744
69.329
86.5922
79.8049
109.007
96.9843
118.176
116.702
117.066
117.9
113.357
115.338
110.644
111.789
113.969
112.484
117.346
115.898
118.147
118.007
105.442
114.763
84.1767
93.9943
70.8624
76.8194
55.317
63.807
40.4639
45.4142
35.5258
37.1791
34.693
34.6523
109.789
109.96
35.0515
35.5836
34.9975
34.4139
34.4576
34.4015
35.9798
34.8316
34.3991
35.6689
38.1509
36.6807
45.5519
41.1515
59.7776
53.4853
65.6888
63.5128
68.912
67.3045
73.6254
70.9543
84.1443
77.8886
107.021
94.2325
117.696
115.79
116.405
117.388
112.017
114.35
109.091
108.904
110.234
109.863
109.785
109.827
108.784
109.331
113.034
111.199
117.049
115.383
117.935
117.795
102.85
113.708
82.0966
90.5497
72.8605
76.6339
68.133
70.2632
62.5584
65.6881
49.1919
57.6257
38.5281
42.2395
36.5991
35.3634
34.9578
37.0236
38.4354
108.4
107.861
111.45
109.486
34.9049
35.886
35.6211
34.7653
38.8936
36.5642
36.2776
35.5564
36.4186
37.7712
44.8244
41.1524
58.415
51.0599
64.7212
62.6035
66.2435
65.8236
67.0558
66.6269
68.667
67.6912
72.7111
70.2898
82.7148
76.6435
104.923
92.4239
116.244
113.914
114.916
115.944
110.256
112.743
108.984
108.916
107.965
108.622
115.68
114.011
116.541
116.406
100.872
111.909
80.5908
88.6131
72.0696
75.3569
68.6259
69.9603
67.1459
67.7979
65.6595
66.4514
60.7621
64.0944
46.0156
54.5179
41.1553
36.2906
108.365
108.002
34.9866
36.5214
37.0148
35.5565
37.2503
40.9497
44.5763
39.2071
35.531
112.91
110.742
107.228
106.835
35.2713
36.3282
37.6422
37.2606
39.5514
38.9129
38.3669
35.634
40.1
45.0773
41.9176
57.4672
49.9279
65.5669
62.9347
67.014
66.7868
66.788
66.9591
66.5413
66.5133
66.919
66.6537
68.3652
67.471
72.0926
69.8022
81.4228
75.7758
102.875
90.6764
114.236
111.805
113.935
106.932
107.629
107.007
108.025
107.973
107.802
109.701
113.775
112.363
114.455
114.355
99.2949
109.951
79.4899
87.1307
71.4919
74.5802
68.3141
69.5184
67.1711
67.5513
66.9536
67.0045
67.0952
67.0369
66.2261
67.0979
59.9581
64.2701
51.7424
38.1926
38.4746
38.0817
38.0955
38.4272
37.0369
108.248
107.601
49.5762
58.2602
45.1157
40.0281
35.8525
36.2957
37.1005
39.1787
35.8739
40.6479
46.1113
38.0887
39.2047
43.0934
40.3431
57.1701
50.24
66.9918
63.7688
68.8922
68.6093
68.6101
68.8253
67.4075
68.1362
66.4693
66.7956
66.5014
66.4706
66.7878
66.5853
68.0094
67.2198
71.1654
69.2196
80.1201
74.6386
101.087
89.1868
111.908
109.618
110.613
111.61
108.515
105.785
106.332
106.76
106.215
107.018
106.985
106.458
106.89
106.03
105.87
107.672
111.575
110.236
112.211
112.12
97.5458
107.852
78.4315
85.9622
70.7856
73.6562
68.0644
69.121
67.0444
67.3826
66.8495
66.8972
67.1356
66.8397
68.4037
67.7922
68.8078
68.6985
67.5802
68.815
64.6499
41.0441
42.3633
40.1689
40.4223
40.0702
38.8085
36.9779
36.4086
41.5845
65.1533
68.944
57.6014
109.562
109.274
104.82
105.671
37.0675
37.9722
38.9703
41.4266
42.2301
42.9136
42.3395
38.6662
36.366
40.0662
36.5229
40.8628
41.1317
47.3499
57.3625
51.368
68.78
64.5792
71.3872
70.8352
71.111
71.3252
69.7914
70.6288
68.3606
69.0447
67.2339
67.7501
66.4887
66.8245
66.3303
66.3637
66.414
66.3405
67.2125
66.6516
70.1979
68.3511
78.8699
73.463
99.8845
88.1121
107.844
106.135
104.829
104.884
105.82
105.398
105.982
105.962
105.617
105.916
105.034
109.372
109.919
109.854
96.2488
105.981
77.3314
84.9483
69.968
72.6604
67.4643
68.4113
66.8115
67.0023
66.7428
66.7519
66.9724
66.7418
67.9266
67.3859
69.3437
68.5937
70.7694
70.1651
71.1246
71.0425
70.8244
46.7223
50.349
42.94
44.2191
42.0126
42.3097
41.9172
37.1241
44.7467
108.325
108.197
73.8271
73.1374
40.5921
38.655
37.1698
37.9452
38.874
39.9197
43.7566
43.3325
50.0005
42.1116
589.547
40.9912
43.5209
49.0383
58.5188
53.2332
70.8351
65.8044
74.1679
73.2428
73.9541
74.1275
72.6901
73.5343
71.0454
71.8462
69.6844
70.3317
68.4274
69.0582
67.1916
67.7969
66.2585
66.6505
65.8094
66.0473
65.7144
65.6861
66.362
65.8835
69.2136
67.3725
77.9897
72.4859
99.2489
87.4126
107.466
106.375
107.232
104.297
106.334
103.978
103.719
104.83
104.525
104.932
104.918
104.707
104.902
103.847
104.24
105.901
104.193
107.631
108.271
108.179
95.9036
104.907
76.3702
84.3315
69.0923
71.7453
66.7276
67.5399
66.2449
66.3585
66.3987
66.2305
66.8496
66.5716
67.8979
67.3369
69.1237
68.4907
70.4591
69.7694
72.0515
71.2245
73.5214
72.9498
73.7664
58.8274
70.8992
66.5625
48.4824
52.4327
44.6541
45.9613
44.0865
44.17
44.7205
44.1945
47.4206
46.3201
44.7126
45.3979
37.73
591.158
43.0165
46.8778
37.974
592.252
99.256
105.246
104.063
106.375
38.8445
45.7852
39.8613
44.4075
43.1643
40.9167
42.0197
591.777
589.744
589.952
589.525
577.766
590.202
40.5569
39.2022
590.723
40.86
48.1562
47.397
38.1556
38.2395
42.8503
590.938
45.8525
577.849
42.8124
45.3865
591.588
47.9424
45.2456
48.4624
48.0698
51.5417
49.4501
60.9173
55.6886
73.3769
67.907
77.1892
75.9999
77.019
77.1647
75.8684
76.6426
74.1171
74.9787
72.5934
73.3253
71.1832
71.8874
69.718
70.4633
68.1836
68.9538
66.7188
67.4252
65.6801
66.1122
65.0499
65.3672
64.8841
64.8609
65.5141
65.0482
68.3979
66.5034
77.8209
71.8057
87.8533
106.473
102.922
104.191
103.15
102.744
103.809
103.598
103.877
103.865
103.756
103.869
103.031
103.437
103.088
107.152
96.6911
104.888
75.9633
84.5272
68.2752
71.0651
65.9437
66.7181
65.5047
65.5971
65.7384
65.503
66.3601
66.0161
67.5344
66.88
69.015
68.2639
70.4929
69.7599
71.9099
71.2055
73.4075
72.6323
75.162
74.2605
76.5759
76.1087
76.8328
76.7763
73.5502
75.9722
59.8237
68.202
50.0794
53.9661
47.2388
48.1454
46.7961
46.8966
46.8409
590.091
590.291
590.114
38.542
38.1008
590.406
72.147
584.761
49.8054
106.379
107.064
589.335
39.898
39.1758
39.0798
38.9238
46.9416
589.291
41.4078
49.7267
49.7986
49.2891
39.8499
45.559
44.2982
43.1567
184.429
40.8888
100.762
45.2228
589.183
41.9813
43.1053
591.039
590.69
51.0956
589.918
590.274
592.144
54.8396
52.1033
64.1176
58.6256
76.2135
70.5358
80.5081
79.2032
80.3622
80.4878
79.2849
80.0119
77.4696
78.3621
75.8298
76.6236
74.2898
75.0607
72.6841
73.4996
70.9906
71.8464
69.2515
70.1235
67.5257
68.3818
65.975
66.7097
64.8929
65.3519
64.1871
64.509
64.1055
64.06
64.8424
64.317
68.0831
65.9434
78.8467
71.8946
100.854
90.4414
105.649
104.859
106.213
101.875
102.6
102.31
101.907
102.774
102.634
102.826
102.812
102.788
102.835
102.295
102.609
102.707
102.205
106.639
104.417
107.464
98.2723
105.137
76.6033
86.1973
67.8627
70.9844
65.2854
66.142
64.7462
64.8894
64.9458
64.7311
65.6579
65.2753
66.8518
66.1783
68.4543
67.6236
70.1662
69.3071
71.8703
71.0233
73.5105
72.7005
75.082
74.3008
76.711
75.8744
78.5125
77.6055
79.86
79.4091
80.0855
80.0477
76.0967
78.8942
62.4949
70.1584
53.1562
57.2776
50.2214
51.2042
49.833
588.761
589.079
51.5562
590.957
590.481
39.4224
39.018
589.766
49.5968
48.1913
588.243
589.994
591.781
40.7244
53.5896
53.108
50.4609
39.9088
40.1714
40.0543
589.112
46.7953
591.998
81.8301
94.5306
105.678
107.851
45.4912
589.68
42.1495
50.3577
591.585
592.278
592.429
592.579
589.722
40.9273
583.384
583.362
588.379
589.496
583.434
582.321
43.7677
51.2576
590.653
590.933
590.885
590.602
587.475
42.0231
44.2785
45.7366
591.255
43.1336
583.39
582.247
582.214
48.2332
590.95
582.196
590.594
590.139
50.9977
592.17
52.5253
575.681
68.2065
62.2453
79.8807
74.5897
84.0555
82.7807
83.9557
84.0527
82.938
83.6259
81.1155
82.0198
79.3681
80.2224
77.6983
78.5349
75.9583
76.8419
74.1184
75.0488
72.2237
73.1747
70.3194
71.2707
68.437
69.3735
66.6332
67.5183
65.0793
65.8084
64.0192
64.4697
63.4555
63.6712
63.5962
63.4787
64.6275
63.9175
68.7605
66.0694
73.5279
107.209
103.079
105.693
101.038
101.45
101.455
101.15
101.739
101.657
101.789
101.769
101.822
101.816
101.581
101.758
101.752
101.47
102.98
101.656
78.948
90.4147
68.26
72.1445
64.9978
66.1146
64.2299
64.4584
64.1678
64.1613
64.8343
64.4754
66.0091
65.3348
67.6272
66.7782
69.4374
68.5201
71.3057
70.3669
73.1962
72.2501
75.0685
74.1381
76.8583
75.9779
78.5312
77.7067
80.2045
79.3522
81.979
81.0914
83.2738
82.8461
83.4631
83.4414
79.2406
82.1592
66.7649
73.5287
57.1178
61.1157
54.7417
588.607
591.36
591.787
591.586
590.058
590.552
579.477
40.3631
58.1341
53.025
39.976
584.469
585.33
584.417
587.437
586.133
586.839
589.553
586.383
170.44
48.097
52.6522
590.84
104.097
107.611
46.7836
588.609
585.403
587.634
587.044
589.559
41.6494
592.025
51.2781
592.461
590.339
590.029
589.993
591.779
41.0029
41.2233
41.1375
584.399
587.938
586.107
586.795
584.103
583.223
584.384
585.133
586.876
588.804
581.054
590.716
590.991
592.54
588.683
583.482
43.0491
51.5911
588.263
590.287
585.33
42.108
584.419
582.937
583.87
584.905
45.5841
44.6226
90.1698
52.6328
589.595
590.556
591.955
592.262
592.244
592.121
591.462
43.2564
583.449
584.46
583.683
584.737
74.3696
589.279
44.417
46.5105
591.187
583.543
584.519
584.612
580.893
49.1031
590.882
581.916
582.691
580.908
590.515
582.482
52.5106
49.5585
98.754
582.341
592.088
54.0047
111.796
82.7791
77.9076
87.6867
86.1816
87.6162
87.7015
86.7942
87.3533
85.029
85.9234
83.2132
84.1119
81.4115
82.319
79.5221
80.4806
77.5318
78.5375
75.4816
76.5113
73.4144
74.448
71.3621
72.3847
69.3523
70.3502
67.4154
68.3718
65.632
66.495
64.1622
64.8489
63.2589
63.6177
63.1825
63.1553
63.5545
63.2876
65.3178
64.1345
71.0527
67.4427
87.7974
77.399
100.563
107.184
108.188
101.912
104.607
100.36
100.662
100.594
100.429
100.72
100.685
100.772
100.742
100.872
100.818
100.866
100.898
101.158
100.867
104.641
102.239
110.239
107.825
107.563
84.2122
97.0815
70.1643
75.2822
65.4393
67.2257
64.1193
64.5477
63.8703
63.9331
64.0404
63.861
65.1086
64.484
66.6624
65.8431
68.4811
67.5494
70.4183
69.4401
72.4187
71.4118
74.4622
73.4365
76.5197
75.4917
78.5357
77.5376
80.4282
79.5022
82.1684
81.3134
83.8736
83.0126
85.6095
84.7507
86.8736
86.4572
87.0771
87.0352
83.6001
86.1557
72.0088
78.5947
61.5107
65.5976
59.213
48.2327
587.354
591.869
590.4
585.429
588.179
586.271
591.806
591.397
591.61
590.895
591.166
590.325
590.637
589.975
41.3757
53.3284
94.0011
591.943
41.072
585.309
587.405
586.049
589.254
589.108
589.529
60.822
592.194
592.046
591.19
591.241
590.189
589.821
107.154
587.726
586.615
585.728
582.238
583.533
588.133
584.537
587.004
586.314
589.831
42.671
52.3306
588.886
589.917
591.84
591.775
42.1844
42.3537
42.288
585.331
588.398
586.826
587.425
585.798
46.9896
592.333
76.2903
84.0135
111.408
114.409
588.265
582.37
44.0589
589.524
52.8665
588.284
590.241
591.964
592.141
591.629
43.367
585.377
585.662
589.646
45.7722
588.707
45.6122
54.0787
587.618
591.402
44.5709
585.419
585.554
579.473
47.4608
591.141
580.784
581.615
585.47
579.423
49.6788
590.83
581.344
54.1712
51.1051
590.472
581.132
49.7766
591.145
580.994
590.145
588.427
55.6788
592.214
592.077
592.285
592.199
58.7634
71.8941
85.1861
77.5899
90.988
89.266
91.1232
91.1847
90.5671
90.9531
89.0878
89.863
87.3094
88.2157
85.4072
86.374
83.3723
84.4064
81.2234
82.3089
79.0111
80.1221
76.778
77.8952
74.553
75.663
72.3629
73.4517
70.2393
71.2908
68.2105
69.211
66.3249
67.2451
64.6794
65.4688
63.3981
63.9804
63.1059
63.0976
63.3112
63.1594
64.3406
63.6513
67.6339
65.5419
71.0963
109.718
107.106
109.802
101.498
103.897
99.8283
100.252
99.7467
99.7449
99.7309
99.7384
99.7828
99.7437
99.9465
99.8496
100.182
100.061
100.969
100.398
104.567
102.245
107.846
93.2874
74.7718
81.5767
67.3909
70.2346
64.7033
65.6901
63.9253
64.1763
63.792
63.8215
64.3054
63.8478
65.7098
64.9585
67.4138
66.5303
69.3319
68.3541
71.368
70.3385
73.4867
72.4187
75.662
74.5691
77.8658
76.7623
80.0631
78.9681
82.1963
81.1421
84.1993
83.2176
86.0455
85.1412
87.778
86.9213
89.3595
88.6013
90.5877
90.1559
90.8331
90.7762
87.9703
90.2701
78.1718
83.9535
68.6377
72.6071
65.4457
592.415
592.363
592.387
592.323
592.342
592.183
592.285
592.304
592.214
592.324
592.368
592.345
592.397
591.722
591.883
591.472
591.288
591.509
590.799
591.056
590.512
589.448
589.033
59.5333
584.698
587.604
585.485
592.168
592.448
592.314
591.836
592.009
591.446
591.649
590.988
591.231
590.46
590.737
590.155
42.4641
53.9561
589.465
52.5991
591.647
591.936
42.2385
586.13
587.944
587.304
586.582
587.71
48.4915
84.0773
589.803
70.1918
589.054
98.6673
109.916
101.297
105.362
592.219
592.36
592.067
261.846
587.134
586.084
585.053
581.116
582.549
587.696
583.567
586.345
585.551
590.009
43.7745
57.376
53.4176
588.89
589.865
67.7569
57.6031
591.42
591.803
592.065
591.789
94.7873
95.0644
43.4565
43.5654
43.5289
586.188
92.3356
96.9807
99.4812
588.822
587.499
588.03
586.451
96.863
570.515
573.365
588.657
47.2251
588.17
62.4096
592.53
592.568
587.828
580.981
45.1654
54.2343
588.314
590.217
591.981
592.266
592.166
591.598
44.7175
586.249
586.387
93.5738
577.978
45.9698
46.6833
94.7738
95.9787
55.5684
101.58
98.9135
587.969
592.085
591.366
579.506
580.444
586.26
586.308
577.799
48.3616
99.9361
103.183
592.304
592.197
591.097
580.113
56.04
52.7652
90.8624
101.862
98.8785
103.397
99.9522
104.055
100.264
103.992
590.786
579.822
51.4096
591.098
579.486
590.474
579.617
50.0932
176.165
590.102
592.25
57.687
79.884
64.8147
81.0772
91.1873
86.5005
94.872
94.0353
94.9175
94.9963
94.0966
94.6506
92.981
93.5705
91.4256
92.2498
89.5426
90.5186
87.4248
88.5086
85.1476
86.301
82.7851
83.9733
80.3881
81.5885
77.99
79.1875
75.6182
76.7992
73.3039
74.4516
71.0829
72.1793
68.9842
70.016
67.0515
67.9947
65.3501
66.1684
63.9394
64.6029
63.4205
63.4807
63.5315
63.4456
64.1873
63.7393
66.8211
65.1007
72.7521
69.3635
85.8407
77.0983
103.552
115.646
114.963
107.155
111.036
101.527
103.912
99.4693
100.233
98.936
99.1164
98.7819
98.8289
98.8284
98.7827
99.0592
98.9163
99.5898
99.2742
100.983
100.098
104.632
102.307
112.56
107.977
120.984
118.141
114.975
82.4729
95.5993
72.0072
76.0155
66.7343
68.9104
64.6535
65.3465
64.1681
64.3193
64.097
64.11
64.9102
64.3335
66.4139
65.6259
68.1798
67.2644
70.1531
69.1438
72.2681
71.1954
74.4885
73.3671
76.7815
75.628
79.1146
77.9446
81.461
80.2877
83.7901
82.6297
86.0629
84.9365
88.2264
87.1631
90.204
89.2449
91.9166
91.0916
93.283
92.6704
94.371
93.8661
94.7231
94.621
93.8693
94.7531
85.6993
90.694
79.5465
592.467
592.496
592.416
592.439
592.372
592.393
592.247
592.331
592.351
592.285
592.372
592.417
592.395
592.469
592.442
592.503
592.615
592.493
591.736
591.904
591.339
591.544
590.895
591.125
590.382
590.648
590.095
592.946
586.634
583.847
587.047
584.626
592.2
592.485
592.346
591.873
592.042
591.502
591.695
591.078
591.298
590.593
590.844
590.319
43.6325
54.6801
589.421
50.4294
52.7225
591.612
591.931
89.0556
89.3145
43.5005
94.4515
586.889
105.035
102.094
588.475
587.11
94.5198
84.3277
584.05
583.026
37.3438
102.345
109.835
48.7741
592.1
102.123
590.767
589.237
586.349
62.6742
75.9344
125.587
592.61
592.731
592.393
590.505
585.112
579.802
581.379
587.141
582.361
585.541
584.636
44.9584
57.9052
54.6574
588.956
589.876
57.102
591.389
591.782
592.051
591.771
94.9275
44.8318
44.8463
44.8476
95.869
87.9682
519.097
586.984
104.773
589.25
588.114
588.592
587.125
87.9294
91.7417
576.422
80.8827
47.4631
96.5875
80.4914
91.4354
122.796
120.637
592.658
592.779
588.457
587.75
579.624
46.3354
55.6832
135.12
113.966
103.281
588.578
591.348
76.5248
63.2329
591.938
592.148
591.565
578.022
579.146
46.1564
96.5612
587.001
106.84
588.284
587.049
88.2453
576.079
91.1558
85.595
67.8942
47.7844
57.1984
106.133
592.072
592.311
592.228
591.33
578.776
575.332
586.987
107.939
58.0996
54.558
49.3998
78.3497
107.647
592.181
591.06
578.417
108.199
53.1537
591.005
577.818
592.351
592.265
590.763
578.124
51.7907
577.927
92.0773
590.437
50.4292
590.437
592.311
133.248
117.625
123.46
73.3274
92.5979
97.8187
95.6127
99.2141
99.0413
99.1247
99.1746
98.3958
98.8917
97.117
97.8251
95.515
96.3418
93.6565
94.6222
91.5257
92.6211
89.1936
90.3805
86.7325
87.9746
84.2035
85.4736
81.6479
82.9267
79.1009
80.371
76.5985
77.8421
74.1788
75.3749
71.8776
73.0104
69.7325
70.7831
67.7816
68.7292
66.0854
66.8971
64.6933
65.3452
64.1389
64.2267
64.2282
64.1587
64.7462
64.3945
66.8371
65.4593
72.0057
69.08
75.1536
117.815
118.391
122.239
107.377
112.404
101.635
104.021
99.2857
100.262
98.2071
98.6166
97.8837
97.9811
97.9182
97.8682
98.2367
98.0315
99.1463
98.5836
101.045
100.005
104.859
102.48
113.764
108.347
119.077
103.478
78.6188
86.851
71.4658
74.5665
66.8794
68.7582
65.2603
65.7977
64.8802
64.999
64.8276
64.8358
65.6768
65.1038
67.1613
66.3795
68.9316
68.0114
70.9337
69.9072
73.1055
71.9995
75.4088
74.2437
77.8063
76.598
80.2609
79.0279
82.7465
81.5017
85.2383
83.9925
87.7177
86.4806
90.1629
88.9477
92.5106
91.3566
94.6287
93.6075
96.3459
95.5459
97.6246
97.0436
98.594
98.1133
99.0327
98.8958
98.2882
99.0756
95.6069
592.721
592.632
592.676
592.556
592.592
592.495
592.523
592.446
592.47
592.402
592.423
592.292
592.361
592.381
592.331
592.403
592.447
592.425
592.498
592.471
592.558
592.525
592.639
592.596
592.685
592.529
591.773
591.941
591.401
591.591
590.999
591.203
590.561
590.785
590.093
590.327
589.865
585.836
582.784
586.356
583.576
592.528
592.77
592.664
592.237
592.385
591.922
592.084
591.567
591.75
591.171
591.374
590.731
590.957
590.222
590.488
99.2578
44.8719
55.684
589.46
51.3521
53.1612
591.592
591.919
88.7817
44.8496
91.863
101.811
101.789
587.573
107.679
589.015
587.771
89.7889
403.479
574.711
49.0574
92.9678
592.161
68.8404
587.428
389.89
587.211
587
107.602
112.572
592.835
592.893
592.452
587.516
584.132
578.405
580.161
586.877
581.353
585.01
584.041
589.319
589.744
46.1974
58.6527
56.0052
528.65
502.491
492.326
527.681
589.121
589.95
56.9847
591.769
592.031
591.742
576.447
577.694
46.2905
46.2137
46.2743
92.866
527.868
109.13
108.606
85.6825
82.306
587.708
583.706
110.222
589.062
588.445
587.691
557.622
86.8721
574.283
102.434
100.302
78.8069
586.044
577.022
592.873
83.6391
593.013
47.5501
57.2405
95.3975
95.3283
90.0804
108.641
116.756
588.808
171.6
62.5102
591.927
592.128
591.535
335.291
413.569
577.301
573.261
47.6969
93.2342
592.384
592.469
592.449
587.584
373.94
349.815
578.119
111.87
561.021
591.357
579.641
56.4941
587.639
48.9778
71.2462
72.8853
83.463
59.0922
111.089
125.243
125.124
89.0505
71.2062
592.059
592.209
591.298
592.403
592.391
592.355
432.811
576.899
382.767
467.249
112.521
589.693
55.0015
590.468
62.1963
592.451
50.5602
277.605
109.292
597.936
112.331
575.961
592.162
592.343
592.273
591.029
592.331
579.627
576.503
53.5824
576.047
88.3114
592.246
590.73
576.217
52.1825
50.7559
89.3803
592.314
590.38
588.73
112.784
133.717
102.547
110.327
89.3358
89.0038
95.3861
86.0774
100.465
102.937
101.827
103.361
103.386
103.22
103.305
103.073
103.154
102.357
102.866
100.325
101.417
98.0237
99.1813
95.686
96.8617
93.2647
94.4879
90.7416
92.016
88.1293
89.4448
85.4578
86.7991
82.7633
84.1108
80.0877
81.4203
77.4769
78.7713
74.9731
76.2085
72.6154
73.7739
70.4422
71.5027
68.499
69.4381
66.8457
67.6315
65.5561
66.1439
65.1294
65.1706
65.2253
65.1511
65.7809
65.4029
67.8958
66.5491
72.0898
69.7759
78.5378
74.7872
97.2573
85.7134
102.774
119.126
112.105
118.36
122.018
107.93
113.525
101.891
104.347
99.2897
100.359
97.5994
98.2827
97.037
97.2111
97.0484
96.9942
97.4986
97.1996
98.8678
98.0278
101.203
100.02
105.412
102.864
114.641
109.155
122.315
118.959
112.499
120.157
103.884
93.8775
102.368
77.5579
82.9834
71.8194
74.3639
67.975
69.6411
66.2842
66.8477
65.8844
66.0098
65.8254
65.8361
66.5205
66.0268
67.9222
67.1732
69.6591
68.7526
71.6631
70.6322
73.8716
72.7448
76.2365
75.0379
78.7208
77.466
81.287
79.9951
83.9066
82.592
86.5499
85.2259
89.2004
87.8745
91.8525
90.5264
94.4893
93.177
97.0352
95.7801
99.3692
98.2376
101.282
100.4
102.417
101.968
102.827
102.651
103.189
103.079
103.201
592.825
592.887
592.722
592.771
592.637
592.677
592.568
592.6
592.513
592.539
592.467
592.489
592.425
592.446
592.404
592.514
592.491
592.57
592.541
592.639
592.602
592.729
592.681
592.781
592.962
592.73
592.856
592.593
591.838
592.005
591.485
591.664
591.121
591.303
590.746
590.934
590.356
590.554
590.152
588.159
63.4222
581.693
585.907
582.842
592.589
592.732
592.3
592.445
591.994
592.151
591.652
591.828
591.281
591.469
590.88
591.085
590.411
590.659
590.135
46.1585
56.8224
517.195
507.267
589.595
52.4421
53.8742
591.572
591.896
389.358
388.609
574.257
576.019
592.528
579.677
573.712
81.8787
81.6929
116.045
567.602
76.8205
46.2937
89.2303
59.9209
109.22
79.0855
588.198
358.972
113.425
589.389
588.779
588.235
85.2587
396.603
552.354
556.81
572.372
569.258
142.502
122.351
582.926
83.4104
93.3231
122.602
96.4997
230.135
592.236
590.181
586.551
582.668
584.875
578.485
581.618
593.125
47.4704
63.2416
59.6457
57.4447
95.1679
93.0898
111.229
115.406
589.291
79.031
406.773
589.225
529.514
82.3639
57.2428
591.762
592.01
591.715
592.401
592.447
592.444
592.397
408.017
412.457
571.622
569.224
571.854
575.671
570.818
113.952
71.8027
47.8431
47.6924
47.8045
89.8908
592.427
569.357
592.309
117.28
83.3532
80.214
74.2563
591.298
588.11
340.656
327.298
115.747
578.189
58.5104
92.9635
589.5
588.99
588.065
71.0467
588.228
589.276
590.009
589.639
89.7344
94.2967
111.649
103.533
593.053
593.052
593.151
563.002
566.842
573.568
576.758
48.8381
74.5219
66.6007
82.3668
58.801
89.393
85.6389
114.286
124.303
590.908
62.4058
358.841
591.219
591.921
592.108
591.507
592.347
423.915
433.851
566.28
575.234
571.008
316.982
184.324
49.3394
89.9494
592.366
60.5419
69.9853
588.177
116.909
90.653
56.9457
158.607
567.407
322.918
568.697
50.2535
69.8387
79.2203
61.284
83.5213
83.9061
81.2922
116.333
133.951
573.963
70.2752
592.043
592.189
591.266
592.304
452.375
560.064
574.791
102.639
236.446
220.239
294.605
117.166
55.4504
300.955
51.8237
65.7303
77.0602
573.971
99.1907
83.9579
84.7829
592.144
592.255
590.993
553.778
574.365
248.308
54.0282
52.56
85.8646
592.228
590.679
574.107
381.988
587.608
546.132
588.284
591.568
131.882
102.953
112.576
88.2383
94.9078
79.7626
80.2336
83.3346
98.2778
106.36
107.301
106.813
107.921
107.712
107.875
107.91
107.753
107.827
107.402
107.644
105.759
106.869
103.055
104.444
100.253
101.651
97.5059
98.8716
94.7999
96.1509
92.083
93.446
89.3227
90.7088
86.5216
87.926
83.7095
85.1144
80.9314
82.3132
78.2403
79.5716
75.6786
76.9409
73.2875
74.4592
71.1103
72.1691
69.199
70.1175
67.6183
68.3627
66.4876
66.978
66.2354
66.2314
66.3651
66.2681
67.0638
66.5898
69.3957
68.0183
72.9339
71.0515
78.0395
75.078
82.7356
102.722
118.383
111.689
118.095
120.983
109.082
114.07
102.433
105.094
99.3253
100.589
97.1818
98.1553
96.2638
96.5649
96.2314
96.1709
96.9021
96.4504
98.8365
97.6826
101.55
100.088
106.583
103.658
114.735
110.738
120.763
118.477
118.453
96.0434
87.8294
93.8738
77.4407
81.2273
72.8618
74.8857
69.477
71.0439
67.533
68.2391
67.0317
67.1893
66.9517
66.9687
67.4148
67.0362
68.6858
67.9884
70.3593
69.4792
72.3411
71.3162
74.5625
73.4254
76.9697
75.7456
79.5224
78.2301
82.1842
80.8413
84.927
83.5477
87.715
86.3165
90.5263
89.1183
93.3567
91.9385
96.2109
94.7827
99.0629
97.6394
101.848
100.47
104.424
103.177
106.323
105.531
106.893
106.711
106.978
106.965
106.388
106.835
104.925
105.698
592.903
592.972
592.787
592.842
592.692
592.736
592.616
592.651
592.558
592.585
592.515
592.535
592.48
592.498
592.461
592.465
592.453
592.445
592.389
592.393
592.452
592.449
592.484
592.469
592.517
592.5
592.559
592.536
592.618
592.587
592.694
592.653
592.792
592.739
592.91
592.849
592.976
592.811
592.947
592.671
591.913
592.079
591.565
591.739
591.228
591.395
590.9
591.061
590.569
590.737
590.389
587.417
148.073
573.953
583.778
580.026
592.938
593.176
593.06
592.658
592.799
592.372
592.515
592.069
592.225
591.723
591.9
591.36
591.542
590.986
591.176
590.564
590.789
590.316
47.5296
58.0702
94.8737
113.544
589.719
586.089
576.148
53.6723
54.7975
79.7662
591.873
592.394
410.559
573.812
564.368
567.818
116.344
97.4128
105.238
587.513
85.109
79.2123
79.2219
103.822
91.1876
47.8388
86.585
655.641
592.385
117.167
77.2231
492.135
334.071
119.379
133.153
589.746
589.227
546.253
540.347
588.774
589.165
652.833
400.814
302.462
486.39
129.477
106.084
511.849
95.0994
95.9541
102.056
593.2
247.245
585.635
582.551
570.62
586.638
580.363
584.317
48.8149
581.044
80.9717
64.1445
60.7931
58.9348
89.363
87.5638
117.347
122.621
589.46
590.266
386.437
173.867
58.0642
591.428
591.772
591.989
591.691
592.341
428.491
433.395
569.151
573.41
568.377
384.57
521.478
111.194
71.777
49.5026
49.2859
49.444
86.9374
592.35
592.335
592.336
579.347
126.542
80.9881
78.108
72.7076
590.167
589.879
591.145
589.375
588.673
297.082
303.738
121.272
74.3357
59.079
590.741
590.303
108.17
589.925
553.368
220.414
301.07
566.944
570.871
570.368
593.141
593.23
593.211
50.1605
71.4878
78.3639
60.4739
84.1184
81.2063
80.0055
83.6416
80.3679
120.165
132.689
571.855
569.671
594.138
441.321
62.6202
591.906
592.088
591.476
592.29
588.902
443.106
453.116
563.252
572.917
62.1147
205.122
334.793
602.172
109.746
109.574
104.219
104.47
51.0824
86.6803
592.297
304.738
60.7161
68.8984
588.704
122.123
569.555
57.4152
147.647
150.928
94.7022
578.893
53.1367
51.6377
67.1166
75.9542
63.6539
79.6678
78.0264
121.733
557.68
549.943
571.666
87.2335
70.1122
86.9097
592.023
592.169
591.23
592.235
469.964
556.936
572.403
549.678
228.435
189.018
588.916
74.717
82.8412
55.9631
54.4446
82.5138
592.126
590.947
571.994
253.372
587.999
588.274
120.884
130.922
101.978
111.358
87.2321
93.6979
81.4805
83.343
81.5004
104.057
112.286
112.096
112.616
112.468
112.654
112.666
112.558
112.623
112.163
112.426
110.663
111.655
108.233
109.53
105.314
106.812
102.223
103.774
99.1518
100.677
96.1686
97.6498
93.242
94.7016
90.3249
91.7841
87.4015
88.8634
84.4915
85.9424
81.6371
83.0541
78.8927
80.2486
76.2965
77.5733
73.8948
75.0685
71.7353
72.7814
69.8766
70.764
68.3933
69.0826
67.4538
67.8316
67.3469
67.3338
67.5379
67.4
68.4782
67.8442
70.899
69.58
73.8934
72.3325
77.8964
75.6509
85.0592
81.0371
89.1997
88.1114
89.1573
102.131
94.8886
116.118
110.169
117.282
118.539
110.594
114.036
103.534
106.631
99.4382
101.074
97.0046
98.167
95.6399
96.1301
95.5329
95.4575
96.5359
95.8718
98.8606
97.5895
102.263
100.269
108.614
105.216
114.632
112.032
117.33
117.23
109.269
114.605
95.4595
102.314
89.9203
89.8869
90.0669
84.282
88.0096
77.6629
80.3736
73.9735
75.6325
71.045
72.4522
68.8681
69.7841
68.2029
68.4146
68.0871
68.1146
68.3376
68.0854
69.4397
68.8113
71.0245
70.1827
72.9612
71.9539
75.1734
74.0369
77.6021
76.3636
80.2036
78.8837
82.9413
81.5573
85.7868
84.3523
88.7044
87.2385
91.667
90.1813
94.6674
93.1621
97.7138
96.1854
100.8
99.2533
103.873
102.344
106.803
105.368
109.33
108.139
110.805
110.312
111.119
111.034
110.894
111.131
110.395
110.599
109.266
109.949
108.517
593.076
593.168
592.925
592.997
592.8
592.859
592.695
592.744
592.609
592.65
592.544
592.575
592.496
592.518
592.465
592.478
592.438
592.452
592.422
592.428
592.425
592.421
592.443
592.433
592.467
592.457
592.495
592.479
592.544
592.518
592.611
592.575
592.696
592.652
592.803
592.746
592.931
592.865
593.084
593.002
593.243
593.183
593.214
593.046
593.156
592.744
592.903
237.532
592.596
592.158
256.01
591.83
591.997
591.483
591.657
591.166
591.319
590.872
591.013
590.602
590.734
590.327
590.469
586.552
592.281
561.05
573.491
585.357
583.2
592.86
593.006
592.58
592.718
592.295
592.438
591.995
592.149
591.655
591.829
591.306
591.479
590.97
591.138
590.613
590.799
590.406
49.025
590.933
59.4216
88.9146
418.71
86.5733
93.356
120.211
589.874
588.678
375.237
55.06
56.0051
591.604
591.851
592.337
431.421
571.35
565.076
452.978
441.821
415.494
275.517
111.666
121.68
94.8615
102.677
84.2305
88.4488
81.6443
81.9098
82.9606
81.8931
86.0938
109.84
110.513
87.8754
49.4898
83.9271
592.342
320.006
126.092
75.3449
589.556
141.444
464.054
471.099
591.077
589.809
500.826
589.053
306.577
125.497
61.3432
589.219
181.521
194.923
57.4955
79.5445
526.114
601.428
590.158
588.763
544.058
136.774
107.711
548.358
236.187
149.234
312.671
142.965
593.382
113.079
580.805
575.581
567.444
564.574
143.577
571.7
574.627
593.261
593.254
50.3094
73.3524
77.2072
64.9187
61.9742
60.5308
84.1088
82.5912
89.9203
81.8229
123.795
130.233
589.824
560.61
589.672
279.643
589.179
462.27
59.1286
581.042
511.553
175.682
591.366
591.751
591.968
591.664
592.281
447.573
452.569
566.182
570.884
157.438
165.391
168.113
191.59
412.219
564.043
370.231
289.404
169.101
160.79
156.964
106.252
57.12
105.038
100.539
71.7023
51.27
51.0039
51.1952
83.9911
592.282
592.269
592.267
76.9326
136.187
78.566
75.9204
71.1782
589.124
280.723
127.116
64.0515
152.552
83.7364
281.438
589.098
85.0214
85.2637
94.1023
89.3946
593.278
593.275
590.136
54.4891
516.724
62.5335
51.6131
68.8446
74.9665
62.2041
79.6489
77.0274
78.0978
126.163
556.53
142.047
590.552
569.086
590.124
589.57
63.4565
77.8026
591.883
592.066
591.443
592.218
460.945
470.434
560.001
570.297
544.243
160.684
211.195
281.882
172.89
533.644