/*--------------------------------*- C++ -*----------------------------------*\
| =========                 |                                                 |
| \\      /  F ield         | OpenFOAM: The Open Source CFD Toolbox           |
|  \\    /   O peration     | Version:  2212                                  |
|   \\  /    A nd           | Website:  www.openfoam.com                      |
|    \\/     M anipulation  |                                                 |
\*---------------------------------------------------------------------------*/
FoamFile
{
    version     2.0;
    format      ascii;
    arch        "LSB;label=32;scalar=64";
    class       surfaceScalarField;
    location    "0.0736";
    object      phi;
}
// * * * * * * * * * * * * * * * * * * * * * * * * * * * * * * * * * * * * * //

dimensions      [1 0 -1 0 0 0 0];

oriented        oriented;

internalField   nonuniform List<scalar> 
62761
(
2.79188e-05
-0.000231252
1.66539e-05
0.00018668
1.92517e-05
-0.000107419
0.000107199
-1.90321e-05
-1.91376e-05
-0.000110277
0.000109987
1.94275e-05
-0.000108828
0.000108942
2.01607e-05
-0.000108305
-1.92746e-05
-2.08025e-05
-0.000110855
2.13808e-05
-0.00010947
2.09865e-05
-2.01715e-05
-0.00010912
-2.14196e-05
2.17311e-05
-0.000111167
-0.000109903
-0.00029053
-5.71404e-05
6.65951e-05
0.000281075
-6.90503e-05
-0.000114806
9.3528e-05
9.03287e-05
6.48557e-05
-7.8426e-05
1.35704e-05
0.000252596
-2.50353e-05
-0.000310983
8.34225e-05
0.000174329
-1.49942e-05
-0.000197938
3.86028e-05
0.000224013
-0.00017084
-0.000102847
4.96744e-05
0.000152111
-8.8851e-05
-0.000184972
0.000121712
-0.000208797
0.000209194
-5.2096e-05
5.16985e-05
0.00012187
5.55544e-05
-0.000145247
-3.21775e-05
0.000232674
-6.2257e-06
2.32037e-06
-0.000228769
0.000193323
-0.000142677
1.2528e-05
-6.31746e-05
-8.41458e-06
0.000208981
-7.24302e-06
-1.64949e-06
-0.000301992
0.00030351
1.31724e-07
-0.000221127
0.000293251
8.2738e-05
-0.000154862
0.000102942
-3.39624e-07
-0.000126764
2.41615e-05
-0.000122371
-8.48796e-05
6.45733e-05
-0.000284922
-3.26688e-06
0.000286539
0.000285703
9.9152e-05
-0.000322247
-6.26088e-05
0.000108969
-8.00925e-05
-9.79267e-05
-0.000103268
0.000124653
8.38623e-05
-0.000105247
0.000274472
3.41643e-05
-2.18182e-05
-0.000286818
3.37899e-06
-5.31972e-05
-3.54203e-06
5.33601e-05
-5.33193e-07
-6.28133e-05
6.67253e-05
-6.15944e-05
-0.000174569
0.000185239
5.09251e-05
6.22728e-06
0.000178268
-0.000165419
-1.90763e-05
0.000189347
-0.000181152
0.000160997
-0.000169193
-0.000128215
-4.92422e-05
6.70909e-05
0.000110366
0.000322987
0.000102035
-0.000235674
0.000243614
-0.000222347
0.000120793
-0.000142061
3.38225e-05
-9.38484e-05
8.71126e-05
-2.70869e-05
0.000132675
-0.000129123
-1.37002e-05
1.01485e-05
-0.000104759
-1.69025e-05
0.00010414
1.75216e-05
5.78713e-05
-7.99491e-05
0.00023518
-0.000213102
-0.00015786
0.000150571
0.000138557
-0.000131268
0.000123118
-0.00015101
-0.000125041
0.000152933
-0.000100424
0.000102109
-9.80308e-05
9.63459e-05
0.000128587
-0.000163329
-0.000197603
0.000106553
-5.89851e-05
0.000150035
-0.000145507
5.98989e-05
-4.26067e-05
-0.000296114
7.69935e-05
-4.32967e-05
0.000262417
-5.90633e-05
6.55748e-05
-0.000166341
0.000159829
-0.000370716
-7.27535e-05
0.000141394
0.000302075
0.000100474
9.28217e-05
-0.000124755
-6.85402e-05
-0.000177056
0.000197998
-9.20798e-06
-1.17342e-05
0.000107598
-0.000267609
-0.000140117
0.000300128
-8.334e-05
-9.97831e-05
9.68912e-05
8.62318e-05
0.000100043
-9.40552e-05
0.000106934
-0.000112922
7.0267e-05
-0.000109151
0.000155968
-0.000117084
-0.000136599
-1.90343e-05
1.89546e-05
0.000136676
0.000135945
-0.000131084
1.19203e-05
-1.67808e-05
-2.74466e-05
-0.000132606
-1.68055e-05
0.000176858
-0.000149142
0.000121361
0.00012898
-0.000101199
0.000154549
-8.91967e-05
-0.000170007
0.000104655
1.63054e-05
0.000116784
-9.0504e-05
-4.25857e-05
-6.6711e-05
0.000157802
-0.000160248
6.9157e-05
-2.10345e-05
0.000306884
1.09951e-05
-0.000296845
-0.000146946
0.000172539
5.01458e-05
-7.57388e-05
-0.000130795
-9.45408e-06
3.64643e-06
-0.000123376
-1.83761e-06
-5.58378e-06
7.40456e-06
-1.67834e-05
-0.000114
-0.000109414
-6.52206e-05
0.00011986
5.47748e-05
-0.000109954
-1.49675e-05
1.74525e-05
0.000107467
-0.000107393
-7.50944e-06
4.94743e-06
-0.000104952
-4.4029e-06
1.96068e-06
-0.000102484
-3.13823e-06
6.69406e-07
-0.000100185
-2.57703e-06
2.77076e-07
-9.81429e-05
-2.21939e-06
1.76638e-07
-9.66817e-05
-1.98272e-06
5.20931e-07
-9.5464e-05
-1.99694e-06
7.78894e-07
-9.46186e-05
-1.94293e-06
1.09716e-06
-9.40658e-05
-2.12166e-06
1.56853e-06
-9.38215e-05
-2.25012e-06
2.00561e-06
-9.34734e-05
-2.43179e-06
2.08353e-06
-2.3607e-06
-9.35617e-05
2.44882e-06
9.44298e-05
-9.44775e-05
-2.31314e-06
9.43471e-05
-2.34929e-06
9.45518e-05
-2.45505e-06
9.50308e-05
-2.60098e-06
9.58867e-05
-2.79924e-06
9.70688e-05
-3.17944e-06
9.86187e-05
-3.53307e-06
0.000100514
-4.11548e-06
0.000102824
-4.88798e-06
0.000105775
-6.09003e-06
0.000108818
-7.4468e-06
0.000111843
-1.05359e-05
0.000111752
-1.48776e-05
0.000114849
-9.63169e-06
6.5333e-06
0.000126444
-4.19287e-06
0.000133137
-8.53321e-06
0.000138009
-1.43286e-05
0.000137441
-1.84698e-05
0.00014353
-1.21641e-05
6.07224e-06
1.15783e-05
0.000156097
-2.49329e-05
-0.000142746
0.000158445
-3.34006e-06
1.98577e-06
0.000164962
-1.0856e-05
0.000166154
-5.72751e-06
-1.70609e-06
0.000172388
-5.72518e-06
0.000172581
-8.13767e-06
-3.25087e-06
0.000178942
-3.30812e-06
0.000178346
-9.02177e-06
-3.37965e-06
0.000184478
-2.16141e-06
0.000183531
-8.56948e-06
-3.13067e-06
0.000189181
-1.57876e-06
0.000188172
-7.7775e-06
-2.76172e-06
0.000193165
-1.22793e-06
0.000192182
-6.77801e-06
-2.5268e-06
0.000196588
-9.03066e-07
0.000195592
-5.94353e-06
-2.12555e-06
0.000199405
-6.9795e-07
0.000198505
-5.04539e-06
-1.71646e-06
0.00020166
-5.45433e-07
0.000200948
-4.16643e-06
-1.49573e-06
0.000203581
-4.32799e-07
0.000203053
-3.60853e-06
-1.25255e-06
0.000205233
-4.07905e-07
0.000204817
-3.02461e-06
-1.03589e-06
0.000206598
-3.38146e-07
0.000206323
-2.55028e-06
-9.64185e-07
0.000207831
-2.77753e-07
0.000207522
-2.17297e-06
-7.71755e-07
0.000208896
-3.02943e-07
0.000208665
-1.92471e-06
-6.00992e-07
0.000209805
-3.19491e-07
0.000209699
-1.64596e-06
-5.33381e-07
0.000210663
-3.36572e-07
0.000210639
-1.4856e-06
-5.02565e-07
0.000211497
-3.45006e-07
0.000211467
-1.34381e-06
-4.66628e-07
0.000212317
-3.67189e-07
0.000212278
-1.29203e-06
-4.22075e-07
0.000213113
-3.89889e-07
0.000213122
-1.28215e-06
-4.13437e-07
0.000213929
-4.20437e-07
0.000213941
-1.25103e-06
-3.86507e-07
0.000214757
-4.61883e-07
0.000214807
-1.27218e-06
-3.99095e-07
0.000215639
-5.04924e-07
0.000215682
-1.29613e-06
-3.7769e-07
0.000216612
-6.19594e-07
0.000216617
-1.33736e-06
-3.45721e-07
0.000217643
-7.1341e-07
0.000217683
-1.44061e-06
-3.40936e-07
0.000218743
-7.90991e-07
0.000218823
-1.51196e-06
-3.68199e-07
0.000220003
-9.27178e-07
0.000220082
-1.66317e-06
-3.63301e-07
0.000221387
-1.06223e-06
0.000221515
-1.83881e-06
-4.01756e-07
0.000222958
-1.21926e-06
0.000223081
-2.01718e-06
-4.20263e-07
0.000224741
-1.42464e-06
0.000224899
-2.3001e-06
-4.31008e-07
0.000226751
-1.66571e-06
0.000226893
-2.51248e-06
-4.21586e-07
0.00022895
-1.92441e-06
0.000229122
-2.79753e-06
-3.87794e-07
0.000231273
-2.23443e-06
0.000231494
-3.06088e-06
3.29604e-07
-3.18766e-06
0.000233746
-2.50697e-06
0.000233501
-0.000231464
0.000233687
-5.32907e-06
-0.000229134
-4.86189e-06
-0.000226918
-4.28476e-06
-0.000224925
-3.74609e-06
-0.000223135
-3.2761e-06
-0.000221552
-2.85225e-06
-0.000220134
-2.52162e-06
-0.000218882
-2.21551e-06
-0.000217725
-1.98025e-06
-0.000216709
-1.75658e-06
-0.000215789
-1.56512e-06
-0.000214868
-1.4479e-06
-0.000214032
-1.31819e-06
-0.000213206
-1.2641e-06
-0.00021239
-1.22237e-06
-0.000211603
-1.16835e-06
-0.000210779
-1.18249e-06
-0.000209876
-1.25198e-06
-0.000208897
-1.30949e-06
-0.000207775
-1.43467e-06
-0.000206481
-1.58121e-06
-0.000205035
-1.79266e-06
-0.000203391
-2.05974e-06
-0.0002014
-2.43147e-06
-0.000198961
-2.99144e-06
-0.000196081
-3.5852e-06
-0.00019249
-4.50032e-06
-0.000188304
-5.42014e-06
-0.000183351
-6.53758e-06
-0.000177546
-7.97267e-06
-0.000170971
-9.88808e-06
-0.000163805
-1.28961e-05
-0.000158642
-1.60235e-05
-0.0001662
-1.73797e-05
-0.000142828
-4.4224e-06
-0.000132818
-6.36717e-06
-0.00012786
-1.05448e-05
-0.000133639
-1.10065e-05
-0.00011592
-2.68219e-07
-0.000110192
-7.82292e-07
-0.00010638
-1.85306e-06
-0.000103191
-2.52041e-06
-0.000100571
-2.34325e-06
-9.85496e-05
-1.84559e-06
-9.68812e-05
-1.14807e-06
-9.55481e-05
-5.54604e-07
2.56328e-06
-9.46697e-05
-2.37117e-06
-9.41614e-05
3.16289e-06
-9.47444e-05
2.93074e-07
-9.42448e-05
1.06864e-06
-9.36391e-05
1.3997e-06
-9.32459e-05
1.6901e-06
-9.32847e-05
2.48747e-06
-2.76244e-06
2.88562e-06
-9.42847e-05
-2.28344e-06
-9.51489e-05
9.54723e-05
-9.57609e-05
-1.99495e-06
9.52094e-05
-2.10847e-06
9.51375e-05
-2.24138e-06
9.52089e-05
-2.42088e-06
9.5544e-05
-2.79042e-06
9.61416e-05
-3.19893e-06
9.70934e-05
-3.75139e-06
9.83669e-05
-4.45342e-06
0.00010011
-5.27688e-06
0.00010217
-6.17552e-06
0.000104651
-7.37011e-06
0.000107409
-8.84903e-06
0.000110799
-1.08379e-05
0.00011367
-1.34083e-05
0.000114955
-1.61645e-05
0.00012024
-1.4918e-05
0.00012763
-1.15853e-05
0.000133991
-1.48958e-05
0.000138288
-1.8629e-05
0.000141234
-2.14177e-05
0.000146839
-1.77723e-05
0.000156475
-1.29798e-05
0.00016414
-1.33967e-05
0.000170203
-1.42046e-05
0.00017547
-1.42941e-05
0.000180531
-1.36357e-05
0.000185101
-1.23527e-05
0.00018922
-1.09033e-05
0.000192999
-9.72884e-06
0.000196284
-8.33705e-06
0.000199182
-7.07182e-06
0.000201547
-5.9814e-06
0.00020366
-5.14577e-06
0.000205396
-4.29585e-06
0.00020695
-3.73657e-06
0.000208211
-3.19606e-06
0.000209395
-2.84103e-06
0.000210457
-2.56036e-06
0.000211439
-2.33877e-06
0.000212329
-2.19683e-06
0.000213201
-2.17149e-06
0.000214058
-2.12577e-06
0.000214939
-2.17396e-06
0.000215865
-2.24406e-06
0.000216865
-2.36253e-06
0.00021794
-2.54497e-06
0.000219121
-2.7244e-06
0.000220433
-3.01288e-06
0.000221876
-3.32409e-06
0.000223531
-3.722e-06
0.000225321
-4.1526e-06
0.000227389
-4.6686e-06
0.000229696
-5.24954e-06
0.00023208
-5.7405e-06
0.000234384
-6.09074e-06
3.11946e-06
-6.01177e-06
0.000236147
2.81618e-07
0.000235441
-2.57434e-06
0.000235209
-5.40759e-06
0.000235387
-0.000234386
0.000236111
-8.23619e-06
-0.000232082
-8.214e-06
-0.00022974
-7.49225e-06
-0.000227483
-6.68299e-06
-0.000225409
-5.90692e-06
-0.000223597
-5.15102e-06
-0.00022195
-4.54857e-06
-0.000220543
-3.9715e-06
-0.000219224
-3.57103e-06
-0.000218063
-3.17344e-06
-0.000216997
-2.85113e-06
-0.000216044
-2.54331e-06
-0.000215122
-2.39333e-06
-0.000214218
-2.24223e-06
-0.000213352
-2.14839e-06
-0.000212533
-2.0578e-06
-0.000211674
-2.04199e-06
-0.000210728
-2.14198e-06
-0.000209725
-2.26769e-06
-0.000208615
-2.42999e-06
-0.000207373
-2.68744e-06
-0.00020594
-3.02355e-06
-0.000204311
-3.4307e-06
-0.000202359
-4.01954e-06
-0.000200008
-4.7909e-06
-0.000197202
-5.80413e-06
-0.000193927
-6.86695e-06
-0.000190131
-8.30328e-06
-0.000185689
-9.86803e-06
-0.000180506
-1.17264e-05
-0.000174852
-1.36324e-05
-0.000168881
-1.58639e-05
-0.000163695
-1.80872e-05
-0.000159609
-2.01136e-05
-0.000156817
-2.01762e-05
-0.00014606
-1.51835e-05
-0.00013738
-1.50505e-05
-0.000132403
-1.55242e-05
-0.000129316
-1.40967e-05
-0.000120382
-9.20371e-06
-0.00011395
-7.21567e-06
-0.000109264
-6.54091e-06
-0.000105617
-6.16805e-06
-0.000102735
-5.22699e-06
-9.9895e-05
-4.68587e-06
-9.80233e-05
-3.02037e-06
-9.67674e-05
-1.81099e-06
-9.58246e-05
-6.50123e-07
-9.47877e-05
3.13632e-08
-9.26925e-05
2.57054e-06
-9.40338e-05
6.45552e-07
-9.35701e-05
1.22617e-06
-9.31208e-05
2.038e-06
2.20088e-06
-9.60335e-05
-1.92842e-06
2.4753e-06
-9.54234e-05
3.66061e-06
-9.34676e-05
2.64627e-06
-9.44558e-05
-1.67671e-06
2.16661e-06
-9.65235e-05
9.6803e-05
-9.71387e-05
-1.34104e-06
9.64248e-05
-1.55041e-06
9.61798e-05
-1.75011e-06
9.6066e-05
-1.9948e-06
9.61489e-05
-2.3245e-06
9.64841e-05
-2.75628e-06
9.7002e-05
-3.30871e-06
9.78553e-05
-4.05256e-06
9.90465e-05
-4.94298e-06
0.000100548
-5.95578e-06
0.000102459
-7.18852e-06
0.000104819
-8.53582e-06
0.000107547
-1.00988e-05
0.000110642
-1.19452e-05
0.000113892
-1.40895e-05
0.000116973
-1.64907e-05
0.000119925
-1.91176e-05
0.000123712
-1.87065e-05
0.000129959
-1.78346e-05
0.000135292
-2.0231e-05
0.000139372
-2.27119e-05
0.000142469
-2.45166e-05
0.000147474
-2.27809e-05
0.000154301
-1.98098e-05
0.000160606
-1.97055e-05
0.000166072
-1.96743e-05
0.000171043
-1.927e-05
0.000175737
-1.83342e-05
0.000180328
-1.69493e-05
0.000184778
-1.53587e-05
0.000188769
-1.37264e-05
0.00019254
-1.21145e-05
0.000195848
-1.03875e-05
0.000198861
-9.00305e-06
0.000201434
-7.72731e-06
0.000203767
-6.6377e-06
0.000205702
-5.68124e-06
0.000207395
-4.9004e-06
0.000208791
-4.24836e-06
0.000210074
-3.85617e-06
0.000211227
-3.50561e-06
0.000212272
-3.25731e-06
0.000213245
-3.16115e-06
0.000214219
-3.11877e-06
0.000215175
-3.15089e-06
0.000216187
-3.27925e-06
0.000217221
-3.42315e-06
0.000218334
-3.68716e-06
0.000219589
-4.01225e-06
0.00022095
-4.41217e-06
0.00022247
-4.88785e-06
0.00022416
-5.46286e-06
0.00022608
-6.13588e-06
0.000228203
-6.8789e-06
0.00023053
-7.7193e-06
0.000233009
-8.50624e-06
0.000235417
-9.07643e-06
0.00023729
-8.98278e-06
5.54944e-06
-8.38151e-06
0.000238813
2.8591e-06
0.000237527
2.66915e-07
0.000236723
-2.30562e-06
0.000236471
-4.99461e-06
0.000236765
-7.65701e-06
0.000237464
-0.000237227
0.000238707
-1.04419e-05
-0.000235391
-1.11319e-05
-0.000233093
-1.10666e-05
-0.000230611
-1.02497e-05
-0.000228314
-9.11846e-06
-0.000226224
-8.08255e-06
-0.000224306
-7.13234e-06
-0.000222658
-6.24715e-06
-0.000221116
-5.55774e-06
-0.000219767
-4.95767e-06
-0.000218576
-4.39777e-06
-0.000217447
-4.00879e-06
-0.0002164
-3.6169e-06
-0.000215434
-3.38262e-06
-0.000214465
-3.23177e-06
-0.000213556
-3.07665e-06
-0.000212592
-3.03775e-06
-0.000211579
-3.07048e-06
-0.000210493
-3.24177e-06
-0.000209372
-3.40135e-06
-0.000208027
-3.78709e-06
-0.000206508
-4.21736e-06
-0.000204776
-4.76535e-06
-0.000202708
-5.50743e-06
-0.00020024
-6.49624e-06
-0.000197352
-7.68703e-06
-0.000194023
-9.14058e-06
-0.000190292
-1.06049e-05
-0.000186013
-1.25881e-05
-0.000181322
-1.45651e-05
-0.000176371
-1.66835e-05
-0.000171226
-1.87819e-05
-0.000166256
-2.08387e-05
-0.000161619
-2.27284e-05
-0.00015767
-2.40665e-05
-0.000153388
-2.44619e-05
-0.000146712
-2.18638e-05
-0.000140334
-2.14306e-05
-0.000135248
-2.06129e-05
-0.000130457
-1.88903e-05
-0.000124074
-1.55895e-05
-0.000118116
-1.31753e-05
-0.000113084
-1.15739e-05
-0.000109059
-1.01945e-05
-0.000105228
-9.05916e-06
-0.00010279
-7.12416e-06
-0.000100648
-5.16327e-06
-9.89797e-05
-3.48001e-06
-9.72805e-05
-2.34984e-06
-9.59202e-05
-1.32937e-06
-9.49702e-05
-3.0477e-07
-9.31026e-05
2.55211e-06
-9.4311e-05
5.66763e-07
-9.36538e-05
1.38058e-06
2.46559e-06
-9.57224e-05
1.48998e-06
-9.74453e-05
-1.18349e-06
1.80574e-06
-9.68393e-05
3.09728e-06
-9.25394e-05
3.33183e-06
-9.41533e-05
2.9483e-06
-9.49386e-05
-8.65658e-07
1.2993e-06
-9.78791e-05
9.81666e-05
-9.85383e-05
-4.94114e-07
9.77361e-05
-7.53051e-07
9.74079e-05
-1.01297e-06
9.71682e-05
-1.31089e-06
9.70777e-05
-1.65971e-06
9.71748e-05
-2.09219e-06
9.74824e-05
-2.63229e-06
9.80745e-05
-3.34866e-06
9.89584e-05
-4.19296e-06
0.000100142
-5.23708e-06
0.000101648
-6.44908e-06
0.000103529
-7.83767e-06
0.000105783
-9.44311e-06
0.000108468
-1.12211e-05
0.000111386
-1.30179e-05
0.000114635
-1.51961e-05
0.000118004
-1.74597e-05
0.000121307
-1.97949e-05
0.00012426
-2.20721e-05
0.000127552
-2.19999e-05
0.000132723
-2.3008e-05
0.000137024
-2.45337e-05
0.000140451
-2.61411e-05
0.000143052
-2.71203e-05
0.000147108
-2.68397e-05
0.000152097
-2.4802e-05
0.000156922
-2.45334e-05
0.000161454
-2.42097e-05
0.000165789
-2.36093e-05
0.000170095
-2.26446e-05
0.000174473
-2.13316e-05
0.000178861
-1.97523e-05
0.000183148
-1.80204e-05
0.000187228
-1.62009e-05
0.000191159
-1.4326e-05
0.000194777
-1.26293e-05
0.000198051
-1.10107e-05
0.000200911
-9.50718e-06
0.000203451
-8.23112e-06
0.00020568
-7.14097e-06
0.00020762
-6.20096e-06
0.000209224
-5.47271e-06
0.000210687
-4.98357e-06
0.000212013
-4.59924e-06
0.000213197
-4.36289e-06
0.000214313
-4.25446e-06
0.000215426
-4.28563e-06
0.000216522
-4.39893e-06
0.000217692
-4.62031e-06
0.000218904
-4.92989e-06
0.00022022
-5.36265e-06
0.000221665
-5.8964e-06
0.000223272
-6.5399e-06
0.000225066
-7.30948e-06
0.000227062
-8.1964e-06
0.000229281
-9.18522e-06
0.000231688
-1.02642e-05
0.000234255
-1.13455e-05
0.000236754
-1.21235e-05
0.000238833
-1.21147e-05
0.000240481
-1.13342e-05
7.94964e-06
-1.05931e-05
0.000242153
5.35165e-06
0.000240471
2.77682e-06
0.00023918
2.50041e-07
0.000238337
-2.15753e-06
0.000237968
-4.52706e-06
0.000238215
-6.93975e-06
0.000238939
-9.51473e-06
0.000240317
-0.00024037
0.00024199
-1.21354e-05
-0.000238831
-1.3276e-05
-0.000236764
-1.42019e-05
-0.000234357
-1.3994e-05
-0.000231886
-1.29803e-05
-0.000229445
-1.16936e-05
-0.000227281
-1.0332e-05
-0.000225323
-9.15393e-06
-0.000223517
-8.10555e-06
-0.00022193
-7.18976e-06
-0.000220515
-6.41187e-06
-0.000219178
-5.76936e-06
-0.000218001
-5.21632e-06
-0.000216846
-4.79853e-06
-0.000215777
-4.47582e-06
-0.000214736
-4.29402e-06
-0.000213659
-4.17303e-06
-0.000212512
-4.20271e-06
-0.000211303
-4.295e-06
-0.000210022
-4.53795e-06
-0.000208518
-4.91817e-06
-0.000206868
-5.44912e-06
-0.000204954
-6.14269e-06
-0.000202623
-7.10633e-06
-0.000199903
-8.23712e-06
-0.000196817
-9.59041e-06
-0.000193324
-1.11886e-05
-0.00018947
-1.30018e-05
-0.000185221
-1.48607e-05
-0.000180762
-1.70539e-05
-0.000176196
-1.91367e-05
-0.000171591
-2.1294e-05
-0.000167078
-2.32998e-05
-0.00016279
-2.51301e-05
-0.00015891
-2.66131e-05
-0.000155362
-2.76171e-05
-0.00015178
-2.80479e-05
-0.000147074
-2.65721e-05
-0.000142415
-2.6093e-05
-0.000137965
-2.50655e-05
-0.000133495
-2.33624e-05
-0.000128139
-2.09472e-05
-0.000122717
-1.85995e-05
-0.000117876
-1.6416e-05
-0.000113535
-1.45374e-05
-0.000109812
-1.27833e-05
-0.000106783
-1.01542e-05
-0.000104229
-7.71753e-06
-0.000101597
-6.1134e-06
-9.94428e-05
-4.50429e-06
-9.7657e-05
-3.11569e-06
-9.6569e-05
-1.39313e-06
-9.54687e-05
-5.33807e-07
-9.32973e-05
2.19537e-06
-9.47232e-05
6.34801e-07
2.07149e-06
-9.59883e-05
1.50211e-06
-9.70422e-05
2.59254e-06
-9.27927e-05
6.68212e-07
-9.89103e-05
-2.96268e-07
9.13543e-07
-9.81244e-05
3.74225e-06
-9.29499e-05
2.93132e-06
-9.41364e-05
2.32192e-06
-9.51891e-05
8.58638e-08
1.99778e-07
-9.9196e-05
9.95824e-05
-9.99383e-05
4.41641e-07
9.91048e-05
1.81278e-07
9.87123e-05
-1.01709e-07
9.83952e-05
-4.36053e-07
9.81973e-05
-8.15201e-07
9.81511e-05
-1.26492e-06
9.8302e-05
-1.81082e-06
9.86872e-05
-2.47765e-06
9.93063e-05
-3.25174e-06
0.000100289
-4.33197e-06
0.000101536
-5.4406e-06
0.000103117
-6.81831e-06
0.000105047
-8.3791e-06
0.000107335
-1.01266e-05
0.000109945
-1.20538e-05
0.000112808
-1.40859e-05
0.00011605
-1.62602e-05
0.000119355
-1.85023e-05
0.000122688
-2.07949e-05
0.000126116
-2.32242e-05
0.000128826
-2.47837e-05
0.000131997
-2.51721e-05
0.000135539
-2.65517e-05
0.0001388
-2.77973e-05
0.000141555
-2.88978e-05
0.000143883
-2.94503e-05
0.000146532
-2.94906e-05
0.000150126
-2.83986e-05
0.00015371
-2.81208e-05
0.000157249
-2.77518e-05
0.00016081
-2.71737e-05
0.000164494
-2.63327e-05
0.00016836
-2.52021e-05
0.000172423
-2.38205e-05
0.000176635
-2.22384e-05
0.000180927
-2.04991e-05
0.000185217
-1.86238e-05
0.000189314
-1.67342e-05
0.000193134
-1.48403e-05
0.000196725
-1.31072e-05
0.000199979
-1.14958e-05
0.000202876
-1.00507e-05
0.000205444
-8.78076e-06
0.000207679
-7.72232e-06
0.000209578
-6.89802e-06
0.000211288
-6.32529e-06
0.000212825
-5.91911e-06
0.000214234
-5.68375e-06
0.000215552
-5.62692e-06
0.000216853
-5.72494e-06
0.00021817
-5.96629e-06
0.00021955
-6.34178e-06
0.000220985
-6.83378e-06
0.000222549
-7.50114e-06
0.000224277
-8.31496e-06
0.000226165
-9.2515e-06
0.000228272
-1.03691e-05
0.000230591
-1.15901e-05
0.000233118
-1.29244e-05
0.00023578
-1.42626e-05
0.000238387
-1.52414e-05
0.000240607
-1.53258e-05
0.000242382
-1.4404e-05
0.000244129
-1.33526e-05
1.03144e-05
-1.29254e-05
0.000246208
7.84125e-06
0.000244136
5.43472e-06
0.000242409
3.02778e-06
0.000241136
5.63672e-07
0.000240361
-1.91804e-06
0.000240011
-4.20348e-06
0.000240055
-6.63213e-06
0.000240903
-8.95905e-06
0.000242157
-1.14517e-05
0.000243961
-0.00024242
0.000244118
-1.48795e-05
-0.000240726
-1.62465e-05
-0.00023855
-1.73119e-05
-0.000235955
-1.70697e-05
-0.000233374
-1.58024e-05
-0.000230931
-1.4265e-05
-0.000228599
-1.27484e-05
-0.000226537
-1.12802e-05
-0.000224657
-1.00398e-05
-0.000222932
-8.96122e-06
-0.000221399
-7.9854e-06
-0.000219971
-7.23359e-06
-0.000218609
-6.61065e-06
-0.000217331
-6.10455e-06
-0.000216107
-5.72609e-06
-0.000214865
-5.55869e-06
-0.000213552
-5.50621e-06
-0.000212153
-5.62093e-06
-0.000210649
-5.81555e-06
-0.000208921
-6.28084e-06
-0.000207001
-6.85156e-06
-0.000204738
-7.72539e-06
-0.000202157
-8.7347e-06
-0.000199174
-1.01004e-05
-0.000195783
-1.16379e-05
-0.000192032
-1.33501e-05
-0.000188023
-1.5206e-05
-0.000183745
-1.7287e-05
-0.000179298
-1.93146e-05
-0.000174929
-2.1429e-05
-0.000170579
-2.34922e-05
-0.000166425
-2.54525e-05
-0.000162503
-2.72256e-05
-0.000159095
-2.85427e-05
-0.000156148
-2.95635e-05
-0.00015347
-3.02983e-05
-0.000150924
-3.05965e-05
-0.000147521
-2.99773e-05
-0.00014404
-2.95764e-05
-0.000140478
-2.86298e-05
-0.000136436
-2.74072e-05
-0.000132125
-2.52603e-05
-0.000127645
-2.3081e-05
-0.000123063
-2.10003e-05
-0.000118675
-1.89262e-05
-0.000115081
-1.63792e-05
-0.000111631
-1.36054e-05
-0.000108187
-1.11622e-05
-0.000105101
-9.20026e-06
-0.000102386
-7.22041e-06
-0.000100703
-4.7993e-06
-9.88598e-05
-3.2364e-06
-9.74145e-05
-1.97945e-06
1.48649e-06
-9.40146e-05
-9.61503e-05
-6.29762e-07
0.000246185
-1.40995e-05
6.13329e-07
-9.52774e-05
1.7379e-06
-9.62241e-05
2.09999e-06
-9.35222e-05
1.16026e-06
-9.72889e-05
3.41863e-06
-9.24692e-05
6.33657e-07
-9.85584e-05
3.37731e-06
-9.3396e-05
-1.09173e-07
-0.000100406
5.76587e-07
2.37631e-07
-9.95429e-05
2.63442e-06
-9.4449e-05
2.00836e-06
-9.54596e-05
8.15843e-07
-4.46801e-07
-0.000100775
0.000101049
-0.000101529
1.29579e-06
0.000100519
1.1067e-06
0.000100082
8.79044e-07
9.96994e-05
5.63501e-07
9.94227e-05
1.74937e-07
9.92748e-05
-2.88376e-07
9.92976e-05
-8.38155e-07
9.95283e-05
-1.49583e-06
0.000100003
-2.2861e-06
0.000100766
-3.24055e-06
0.000101873
-4.35957e-06
0.000103159
-5.61828e-06
0.000104856
-7.13848e-06
0.000106888
-8.84999e-06
0.00010925
-1.07427e-05
0.000111922
-1.27993e-05
0.000114876
-1.5009e-05
0.000117975
-1.71858e-05
0.000121188
-1.94745e-05
0.000124381
-2.16967e-05
0.000127449
-2.38641e-05
0.000130312
-2.60888e-05
0.000132705
-2.71785e-05
0.000135466
-2.79341e-05
0.000138056
-2.91436e-05
0.000140427
-3.017e-05
0.000142679
-3.11514e-05
0.000144281
-3.10548e-05
0.000146339
-3.15505e-05
0.00014866
-3.07217e-05
0.000151231
-3.06947e-05
0.00015389
-3.04142e-05
0.000156669
-2.9956e-05
0.000159634
-2.9301e-05
0.000162852
-2.84242e-05
0.000166357
-2.73312e-05
0.000170134
-2.60206e-05
0.000174153
-2.45246e-05
0.000178376
-2.28531e-05
0.000182687
-2.10536e-05
0.000187001
-1.9163e-05
0.000191118
-1.72338e-05
0.000195032
-1.54207e-05
0.000198653
-1.36846e-05
0.000201971
-1.21114e-05
0.000204945
-1.07107e-05
0.000207565
-9.53509e-06
0.000209844
-8.62161e-06
0.000211881
-7.97616e-06
0.000213725
-7.54941e-06
0.000215412
-7.33777e-06
0.000217015
-7.35441e-06
0.000218579
-7.56084e-06
0.000220166
-7.96256e-06
0.000221823
-8.52918e-06
0.000223556
-9.27742e-06
0.000225419
-1.02266e-05
0.00022747
-1.13586e-05
0.000229694
-1.2659e-05
0.00023214
-1.41216e-05
0.000234772
-1.56833e-05
0.000237508
-1.72335e-05
0.000240212
-1.84133e-05
0.000242585
-1.86159e-05
0.000244503
-1.75991e-05
0.000246349
-1.62622e-05
0.00024854
-1.5711e-05
1.32498e-05
0.000250955
-1.59069e-05
1.05833e-05
0.000248665
8.06598e-06
0.000246475
5.62461e-06
0.000244683
3.20126e-06
0.000243394
8.34605e-07
0.000242568
-1.55718e-06
0.000242247
-4.11286e-06
0.000242448
-6.39384e-06
0.000243016
-8.93321e-06
0.00024452
-1.15133e-05
0.000246339
-1.40915e-05
0.000248524
-0.000246535
0.000248654
-1.68646e-05
-0.000244673
-1.78384e-05
-0.000242779
-1.93823e-05
-0.000240449
-2.04945e-05
-0.000237837
-2.01196e-05
-0.000235122
-1.87376e-05
-0.000232562
-1.69467e-05
-0.000230188
-1.5206e-05
-0.000227946
-1.35872e-05
-0.00022593
-1.21114e-05
-0.000224095
-1.08448e-05
-0.000222356
-9.76746e-06
-0.000220766
-8.8617e-06
-0.000219245
-8.16554e-06
-0.000217735
-7.64428e-06
-0.000216251
-7.23737e-06
-0.0002147
-7.1335e-06
-0.000213027
-7.20105e-06
-0.000211242
-7.42583e-06
-0.00020921
-7.86495e-06
-0.000206974
-8.53304e-06
-0.000204321
-9.51875e-06
-0.000201388
-1.06719e-05
-0.000198011
-1.21234e-05
-0.000194313
-1.38098e-05
-0.000190313
-1.56478e-05
-0.000186119
-1.75527e-05
-0.000181766
-1.95674e-05
-0.000177507
-2.15528e-05
-0.000173228
-2.36005e-05
-0.000169138
-2.55245e-05
-0.000165296
-2.73392e-05
-0.000161899
-2.88539e-05
-0.000159167
-2.9962e-05
-0.000156697
-3.10158e-05
-0.000154261
-3.20023e-05
-0.000152084
-3.24782e-05
-0.000150148
-3.25355e-05
-0.000147493
-3.26345e-05
-0.000145157
-3.19147e-05
-0.000142484
-3.13048e-05
-0.000139715
-3.01784e-05
-0.000136409
-2.85682e-05
-0.000132551
-2.69409e-05
-0.000128565
-2.49876e-05
-0.000124689
-2.28044e-05
-0.000120781
-2.02887e-05
-0.000117087
-1.73005e-05
-0.00011314
-1.51104e-05
-0.000109562
-1.27796e-05
-0.000107092
-9.6914e-06
-0.000104613
-7.27887e-06
-0.000101934
-5.91603e-06
-0.000100285
-3.62876e-06
-9.86375e-05
-2.27774e-06
-9.70295e-05
-9.94967e-07
0.000251089
-1.6795e-05
-1.22508e-06
3.96442e-07
-9.62012e-05
-9.44028e-05
1.4103e-06
-9.64742e-05
2.80511e-06
-9.29089e-05
8.58838e-07
-9.75142e-05
3.70306e-06
-9.27951e-05
3.2092e-07
-9.86417e-05
3.01351e-06
-9.37752e-05
-1.67988e-07
-9.98217e-05
2.3322e-06
-9.47729e-05
-8.6993e-07
-0.000102001
1.34151e-06
-6.12418e-07
-0.000101032
1.70481e-06
-9.57542e-05
1.3577e-05
-1.62627e-05
0.000253645
1.10096e-05
0.000251253
8.41806e-06
0.0002491
5.8496e-06
0.000247293
3.39903e-06
0.000245893
9.87233e-07
0.00024503
-1.45394e-06
0.00024474
-4.00414e-06
0.000245045
-6.75529e-06
0.000245805
-9.30739e-06
0.000247107
-1.19377e-05
0.000248992
-1.45779e-05
0.000251168
-1.71725e-05
0.000253672
-0.000251203
0.000253692
-1.95921e-05
-0.000249094
-1.96885e-05
-0.000247077
-2.09984e-05
-0.000245006
-2.26433e-05
-0.000242506
-2.376e-05
-0.000239806
-2.32055e-05
-0.000237088
-2.16548e-05
-0.000234384
-1.97649e-05
-0.000231888
-1.7784e-05
-0.000229541
-1.60007e-05
-0.000227356
-1.43536e-05
-0.000225298
-1.29534e-05
-0.000223388
-1.17227e-05
-0.000221525
-1.07645e-05
-0.000219697
-1.00296e-05
-0.000217913
-9.4606e-06
-0.000216003
-9.17604e-06
-0.000213988
-9.17391e-06
-0.000211833
-9.3787e-06
-0.000209433
-9.84715e-06
-0.000206743
-1.05731e-05
-0.000203665
-1.16278e-05
-0.000200308
-1.28907e-05
-0.000196534
-1.44598e-05
-0.000192494
-1.61757e-05
-0.000188252
-1.80631e-05
-0.000183999
-1.99109e-05
-0.000179571
-2.19886e-05
-0.000175365
-2.37811e-05
-0.000171296
-2.56288e-05
-0.000167534
-2.73687e-05
-0.000164062
-2.90025e-05
-0.000161222
-3.0184e-05
-0.000158722
-3.1358e-05
-0.000156392
-3.22954e-05
-0.00015425
-3.31612e-05
-0.000152574
-3.36813e-05
-0.000151178
-3.38767e-05
-0.00014958
-3.41357e-05
-0.000148356
-3.38606e-05
-0.000146338
-3.3935e-05
-0.000144539
-3.31054e-05
-0.000142478
-3.2242e-05
-0.000140109
-3.0939e-05
-0.000137172
-2.98801e-05
-0.000134023
-2.81376e-05
-0.000130478
-2.6351e-05
-0.000126864
-2.39042e-05
-0.000122779
-2.13878e-05
-0.000118781
-1.91094e-05
-0.000115687
-1.58751e-05
-0.000112423
-1.2956e-05
-0.000108656
-1.1047e-05
-0.000106481
-8.09156e-06
-0.000103648
-6.46256e-06
-0.000101444
-4.48248e-06
-9.9713e-05
-2.72621e-06
-9.80849e-05
-1.23199e-06
1.38131e-06
-2.37155e-06
-9.52112e-05
-9.69913e-05
2.87352e-07
-1.98097e-05
0.0002563
1.44294e-06
-1.00055e-06
-0.000102444
0.000102682
-0.000103271
2.03255e-06
0.00010206
1.96343e-06
0.000101533
1.82177e-06
0.000101064
1.57574e-06
0.000100713
1.23012e-06
0.000100491
7.85785e-07
0.000100421
2.44898e-07
0.000100536
-4.03664e-07
0.000100871
-1.17407e-06
0.00010146
-2.08527e-06
0.000102332
-3.15837e-06
0.000103502
-4.41061e-06
0.000104987
-5.84518e-06
0.000106835
-7.46636e-06
0.000108996
-9.30057e-06
0.000111464
-1.13183e-05
0.000114203
-1.34831e-05
0.000117167
-1.57641e-05
0.000120209
-1.80523e-05
0.000123367
-2.03444e-05
0.000126428
-2.25375e-05
0.000129317
-2.45872e-05
0.000131955
-2.65034e-05
0.000134135
-2.82705e-05
0.000136091
-2.9136e-05
0.000138286
-3.01303e-05
0.00014017
-3.10296e-05
0.000142124
-3.21253e-05
0.000143168
-3.21978e-05
0.000144787
-3.26748e-05
0.000145815
-3.25808e-05
0.00014769
-3.25988e-05
0.000149525
-3.25323e-05
0.000151467
-3.23592e-05
0.00015356
-3.20519e-05
0.000155849
-3.15937e-05
0.000158385
-3.09643e-05
0.000161217
-3.01676e-05
0.000164391
-2.92004e-05
0.000167883
-2.8022e-05
0.000171678
-2.66551e-05
0.000175761
-2.51441e-05
0.000180036
-2.34464e-05
0.000184443
-2.165e-05
0.000188773
-1.97614e-05
0.000193009
-1.79332e-05
0.000197025
-1.61409e-05
0.000200769
-1.44703e-05
0.000204202
-1.29844e-05
0.000207279
-1.17175e-05
0.000210019
-1.07371e-05
0.000212482
-1.00351e-05
0.00021472
-9.60198e-06
0.000216779
-9.44183e-06
0.00021873
-9.54361e-06
0.00022064
-9.90901e-06
0.000222588
-1.05177e-05
0.000224575
-1.13092e-05
0.000226664
-1.23669e-05
0.000228887
-1.36393e-05
0.000231276
-1.51156e-05
0.000233833
-1.67629e-05
0.000236559
-1.85281e-05
0.000239378
-2.02648e-05
0.000242164
-2.16206e-05
0.00024468
-2.1965e-05
0.000246728
-2.08897e-05
0.000248737
-1.9391e-05
0.000251004
-1.86403e-05
0.000253573
-1.8744e-05
-1.90871e-05
0.000256391
-9.39694e-05
1.12835e-06
-9.67438e-05
-2.30681e-06
1.31918e-06
-9.6004e-05
-2.69413e-06
-9.48241e-05
3.48823e-06
-9.26942e-05
5.97578e-07
-9.77909e-05
3.34407e-06
-9.31258e-05
1.09771e-07
-9.89195e-05
2.72317e-06
-9.41662e-05
-4.52728e-07
-9.99815e-05
2.06489e-06
-9.5133e-05
-6.59298e-07
-0.000101374
1.45765e-06
-9.60835e-05
-1.37905e-06
1.90434e-06
-0.000103797
-1.12116e-06
-0.000102702
-0.000256358
0.000259041
-2.25609e-05
-0.000253826
-2.25e-05
-0.000251488
-2.28226e-05
-0.000249537