/*--------------------------------*- C++ -*----------------------------------*\
| =========                 |                                                 |
| \\      /  F ield         | OpenFOAM: The Open Source CFD Toolbox           |
|  \\    /   O peration     | Version:  2212                                  |
|   \\  /    A nd           | Website:  www.openfoam.com                      |
|    \\/     M anipulation  |                                                 |
\*---------------------------------------------------------------------------*/
FoamFile
{
    version     2.0;
    format      ascii;
    arch        "LSB;label=32;scalar=64";
    class       volScalarField;
    location    "0.0026";
    object      s;
}
// * * * * * * * * * * * * * * * * * * * * * * * * * * * * * * * * * * * * * //

dimensions      [0 0 0 0 0 0 0];

internalField   nonuniform List<scalar> 
24240
(
0
0
0
0
0
0
0
0
0
0
0
0
0
0
0
0
0
0
0
0
0
0
0
0
0
0
0
0
0
0
0
0
0
0
0
0
0
0
0
0
0
0
0
0
0
0
0
0
0
0
0
0
0
0
0
0
0
0
0
0
0
0
0
0
0
0
0
0
0
0
0
0
0
0
0
0
0
0
0
0
0
0
0
0
0
0
0
0
0
0
0
0
0
0
0
0
0
0
0
0
0
0
0
0
0
0
0
0
0
0
0
0
0
0
0
0
0
0
0
0
0
0
0
0
0
0
0
0
0
0
0
0
0
0
0
0
0
0
0
0
0
0
0
0
0
0
0
0
0
0
0
0
0
0
0
0
0
0
0
0
0
0
0
0
0
0
0
0
0
0
0
0
0
0
0
0
0
0
0
0
0
0
0
0
0
0
0
0
0
0
0
0
0
0
0
0
0
0
0
0
0
0
0
0
0
0
0
0
0
0
0
0
0
0
0
0
0
0
0
0
0
0
0
0
0
0
0
0
0
0
0
0
0
0
0
0
0
0
0
0
0
0
0
0
0
0
0
0
0
0
0
0
0
0
0
0
0
0
0
0
0
0
0
0
0
0
0
0
0
0
0
0
0
0
0
0
0
0
0
0
0
0
0
0
0
0
0
0
0
0
0
0
0
0
0
0
0
0
0
0
0
0
0
0
0
0
0
0
0
0
0
0
0
0
0
0
0
0
0
0
0
0
0
0
0
0
0
0
0
0
0
0
0
0
0
0
0
0
0
0
0
0
0
0
0
0
0
0
0
0
0
0
0
0
0
0
0
0
0
0
0
0
0
0
0
0
0
0
0
0
0
0
0
0
0
0
0
0
0
0
0
0
0
0
0
0
0
0
0
0
0
0
0
0
0
0
0
0
0
0
0
0
0
0
0
0
0
0
0
0
0
0
0
0
0
0
0
0
0
0
0
0
0
0
0
0
0
0
0
0
0
0
0
0
0
0
0
0
0
0
0
0
0
0
0
0
0
0
0
0
0
0
0
0
0
0
0
0
0
0
0
0
0
0
0
0
0
0
0
0
0
0
0
0
0
0
0
0
0
0
0
0
0
0
0
0
0
0
0
0
0
0
0
0
0
0
0
0
0
0
0
0
0
0
0
0
0
0
0
0
0
0
0
0
0
0
0
0
0
0
0
0
0
0
0
0
0
0
0
0
0
0
0
0
0
0
0
0
0
0
0
0
0
0
0
0
0
0
0
0
0
0
0
0
0
0
0
0
0
0
0
0
0
0
0
0
0
0
0
0
0
0
0
0
0
0
0
0
0
0
0
0
0
0
0
0
0
0
0
0
0
0
0
0
0
0
0
0
0
0
0
0
0
0
0
0
0
0
0
0
0
0
0
0
0
0
0
0
0
0
0
0
0
0
0
0
0
0
0
0
0
0
0
0
0
0
0
0
0
0
0
0
0
0
0
0
0
0
0
0
0
0
0
0
0
0
0
0
0
0
0
0
0
0
0
0
0
0
0
0
0
0
0
0
0
0
0
0
0
0
0
0
0
0
0
0
0
0
0
0
0
0
0
0
0
0
0
0
0
0
0
0
0
0
0
0
0
0
0
0
0
0
0
0
0
0
0
0
0
0
0
0
0
0
0
0
0
0
0
0
0
0
0
0
0
0
0
0
0
0
0
0
0
0
0
0
0
0
0
0
0
0
0
0
0
0
0
0
0
0
0
0
0
0
0
0
0
0
0
0
0
0
0
0
0
0
0
0
0
0
0
0
0
0
0
0
0
0
0
0
0
0
0
0
0
0
0
0
0
0
0
0
0
0
0
0
0
0
0
0
0
0
0
0
0
0
0
0
0
0
0
0
0
0
0
0
0
0
0
0
0
0
0
0
0
0
0
0
0
0
0
0
0
0
0
0
0
0
0
0
0
0
0
0
0
0
0
0
0
0
0
0
0
0
0
0
0
0
0
0
0
0
0
0
0
0
0
0
0
0
0
0
0
0
0
0
0
0
0
0
0
0
0
0
0
0
0
0
0
0
0
0
0
0
0
0
0
0
0
0
0
0
0
0
0
0
0
0
0
0
0
0
0
0
0
0
0
0
0
0
0
0
0
0
0
0
0
0
0
0
0
0
0
0
0
0
0
0
0
0
0
0
0
0
0
0
0
0
0
0
0
0
0
0
0
0
0
0
0
0
0
0
0
0
0
0
0
0
0
0
0
0
0
0
0
0
0
0
0
0
0
0
0
0
0
0
0
0
0
0
0
0
0
0
0
0
0
0
0
0
0
0
0
0
0
0
0
0
0
0
0
0
0
0
0
0
0
0
0
0
0
0
0
0
0
0
0
0
0
0
0
0
0
0
0
0
0
0
0
0
0
0
0
0
0
0
0
0
0
0
0
0
0
0
0
0
0
0
0
0
0
0
0
0
0
0
0
0
0
0
0
0
0
0
0
0
0
0
0
0
0
0
0
0
0
0
0
0
0
0
0
0
0
0
0
0
0
0
0
0
0
0
0
0
0
0
0
0
0
0
0
0
0
0
0
0
0
0
0
0
0
0
0
0
0
0
0
0
0
0
0
0
0
0
0
0
0
0
0
0
0
0
0
0
0
0
0
0
0
0
0
0
0
0
0
0
0
0
0
0
0
0
0
0
0
0
0
0
0
0
0
0
0
0
0
0
0
0
0
0
0
0
0
0
0
0
0
0
0
0
0
0
0
0
0
0
0
0
0
0
0
0
0
0
0
0
0
0
0
0
0
0
0
0
0
0
0
0
0
0
0
0
0
0
0
0
0
0
0
0
0
0
0
0
0
0
0
0
0
0
0
0
0
0
0
0
0
0
0
0
0
0
0
0
0
0
0
0
0
0
0
0
0
0
0
0
0
0
0
0
0
0
0
0
0
0
0
0
0
0
0
0
0
0
0
0
0
0
0
0
0
0
0
0
0
0
0
0
0
0
0
0
0
0
0
0
0
0
0
0
0
0
0
0
0
0
0
0
0
0
0
0
0
0
0
0
0
0
0
0
0
0
0
0
0
0
0
0
0
0
0
0
0
0
0
0
0
0
0
0
0
0
0
0
0
0
0
0
0
0
0
0
0
0
0
0
0
0
0
0
0
0
0
0
0
0
0
0
0
0
0
0
0
0
0
0
0
0
0
0
0
0
0
0
0
0
0
0
0
0
0
0
0
0
0
0
0
0
0
0
0
0
0
0
0
0
0
0
0
0
0
0
0
0
0
0
0
0
0
0
0
0
0
0
0
0
0
0
0
0
0
0
0
0
0
0
0
0
0
0
0
0
0
0
0
0
0
0
0
0
0
0
0
0
0
0
0
0
0
0
0
0
0
0
0
0
0
0
0
0
0
0
0
0
0
0
0
0
0
0
0
0
0
0
0
0
0
0
0
0
0
0
0
0
0
0
0
0
0
0
0
0
0
0
0
0
0
0
0
0
0
0
0
0
0
0
0
0
0
0
0
0
0
0
0
0
0
0
0
0
0
0
0
0
0
0
0
0
0
0
0
0
0
0
0
0
0
0
0
0
0
0
0
0
0
0
0
0
0
0
0
0
0
0
0
0
0
0
0
0
0
0
0
0
0
0
0
0
0
0
0
0
0
0
0
0
0
0
0
0
0
0
0
0
0
0
0
0
0
0
0
0
0
0
0
0
0
0
0
0
0
0
0
0
0
0
0
0
0
0
0
0
0
0
0
0
0
0
0
0
0
0
0
0
0
0
0
0
0
0
0
0
0
0
0
0
0
0
0
0
0
0
0
0
0
0
0
0
0
0
0
0
0
0
0
0
0
0
0
0
0
0
0
0
0
0
0
0
0
0
0
0
0
0
0
0
0
0
0
0
0
0
0
0
0
0
0
0
0
0
0
0
0
0
0
0
0
0
0
0
0
0
0
0
0
0
0
0
0
0
0
0
0
0
0
0
0
0
0
0
0
0
0
0
0
0
0
0
0
0
0
0
0
0
0
0
0
0
0
0
0
0
0
0
0
0
0
0
0
0
0
0
0
0
0
0
0
0
0
0
0
0
0
0
0
0
0
0
0
0
0
0
0
0
0
0
0
0
0
0
0
0
0
0
0
0
0
0
0
0
0
0
0
0
0
0
0
0
0
0
0
0
0
0
0
0
0
0
0
0
0
0
0
0
0
0
0
0
0
0
0
0
0
0
0
0
0
0
0
0
0
0
0
0
0
0
0
0
0
0
0
0
0
0
0
0
0
0
0
0
0
0
0
0
0
0
0
0
0
0
0
0
0
0
0
0
0
0
0
0
0
0
0
0
0
0
0
0
0
0
0
0
0
0
0
0
0
0
0
0
0
0
0
0
0
0
0
0
0
0
0
0
0
0
0
0
0
0
0
0
0
0
0
0
0
0
0
0
0
0
0
0
0
0
0
0
0
0
0
0
0
0
0
0
0
0
0
0
0
0
0
0
0
0
0
0
0
0
0
0
0
0
0
0
0
0
0
0
0
0
0
0
0
0
0
0
0
0
0
0
0
0
0
0
0
0
0
0
0
0
0
0
0
0
0
0
0
0
0
0
0
0
0
0
0
0
0
0
0
0
0
0
0
0
0
0
0
0
0
0
0
0
0
0
0
0
0
0
0
0
0
0
0
0
0
0
0
0
0
0
0
0
0
0
0
0
0
0
0
0
0
0
0
0
0
0
0
0
0
0
0
0
0
0
0
0
0
0
0
0
0
0
0
0
0
0
0
0
0
0
0
0
0
0
0
0
0
0
0
0
0
0
0
0
0
0
0
0
0
0
0
0
0
0
0
0
0
0
0
0
0
0
0
0
0
0
0
0
0
0
0
0
0
0
0
0
0
0
0
0
0
0
0
0
0
0
0
0
0
0
0
0
0
0
0
0
0
0
0
0
0
0
0
0
0
0
0
0
0
0
0
0
0
0
0
0
0
0
0
0
0
0
0
0
0
0
0
0
0
0
0
0
0
0
0
0
0
0
0
0
0
0
0
0
0
0
0
0
0
0
0
0
0
0
0
0
0
0
0
0
0
0
0
0
0
0
0
0
0
0
0
0
0
0
0
0
0
0
0
0
0
0
0
0
0
0
0
0
0
0
0
0
0
0
0
0
0
0
0
0
0
0
0
0
0
0
0
0
0
0
0
0
0
0
0
0
0
0
0
0
0
0
0
0
0
0
0
0
0
0
0
0
0
0
0
0
0
0
0
0
0
0
0
0
0
0
0
0
0
0
0
0
0
0
0
0
0
0
0
0
0
0
0
0
0
0
0
0
0
0
0
0
0
0
0
0
0
0
0
0
0
0
0
0
0
0
0
0
0
0
0
0
0
0
0
0
0
0
0
0
0
0
0
0
0
0
0
0
0
0
0
0
0
0
0
0
0
0
0
0
0
0
0
0
0
0
0
0
0
0
0
0
0
0
0
0
0
0
0
0
0
0
0
0
0
0
0
0
0
0
0
0
0
0
0
0
0
0
0
0
0
0
0
0
0
0
0
0
0
0
0
0
0
0
0
0
0
0
0
0
0
0
0
0
0
0
0
0
0
0
0
0
0
0
0
0
0
0
0
0
0
0
0
0
0
0
0
0
0
0
0
0
0
0
0
0
0
0
0
0
0
0
0
0
0
0
0
0
0
0
0
0
0
0
0
0
0
0
0
0
0
0
0
0
0
0
0
0
0
0
0
0
0
0
0
0
0
0
0
0
0
0
0
0
0
0
0
0
0
0
0
0
0
0
0
0
0
0
0
0
0
0
0
0
0
0
0
0
0
0
0
0
0
0
0
0
0
0
0
0
0
0
0
0
0
0
0
0
0
0
0
0
0
0
0
0
0
0
0
0
0
0
0
0
0
0
0
0
0
0
0
0
0
0
0
0
0
0
0
0
0
0
0
0
0
0
0
0
0
0
0
0
0
0
0
0
0
0
0
0
0
0
0
0
0
0
0
0
0
0
0
0
0
0
0
0
0
0
0
0
0
0
0
0
0
0
0
0
0
0
0
0
0
0
0
0
0
0
0
0
0
0
0
0
0
0
0
0
0
0
0
0
0
0
0
0
0
0
0
0
0
0
0
0
0
0
0
0
0
0
0
0
0
0
0
0
0
0
0
0
0
0
0
0
0
0
0
0
0
0
0
0
0
0
0
0
0
0
0
0
0
0
0
0
0
0
0
0
0
0
0
0
0
0
0
0
0
0
0
0
0
0
0
0
0
0
0
0
0
0
0
0
0
0
0
0
0
0
0
0
0
0
0
0
0
0
0
0
0
0
0
0
0
0
0
0
0
0
0
0
0
0
0
0
0
0
0
0
0
0
0
0
0
0
0
0
0
0
0
0
0
0
0
0
0
0
0
0
0
0
0
0
0
0
0
0
0
0
0
0
0
0
0
0
0
0
0
0
0
0
0
0
0
0
0
0
0
0
0
0
0
0
0
0
0
0
0
0
0
0
0
0
0
0
0
0
0
0
0
0
0
0
0
0
0
0
0
0
0
0
0
0
0
0
0
0
0
0
0
0
0
0
0
0
0
0
0
0
0
0
0
0
0
0
0
0
0
0
0
0
0
0
0
0
0
0
0
0
0
0
0
0
0
0
0
0
0
0
0
0
0
0
0
0
0
0
0
0
0
0
0
0
0
0
0
0
0
0
0
0
0
0
0
0
0
0
0
0
0
0
0
0
0
0
0
0
0
0
0
0
0
0
0
0
0
0
0
0
0
0
0
0
0
0
0
0
0
0
0
0
0
0
0
0
0
0
0
0
0
0
0
0
0
0
0
0
0
0
0
0
0
0
0
0
0
0
0
0
0
0
0
0
0
0
0
0
0
0
0
0
0
0
0
0
0
0
0
0
0
0
0
0
0
0
0
0
0
0
0
0
0
0
0
0
0
0
0
0
0
0
0
0
0
0
0
0
0
0
0
0
0
0
0
0
0
0
0
0
0
0
0
0
0
0
0
0
0
0
0
0
0
0
0
0
0
0
0
0
0
0
0
0
0
0
0
0
0
0
0
0
0
0
0
0
0
0
0
0
0
0
0
0
0
0
0
0
0
0
0
0
0
0
0
0
0
0
0
0
0
0
0
0
0
0
0
0
0
0
0
0
0
0
0
0
0
0
0
0
0
0
0
0
0
0
0
0
0
0
0
0
0
0
0
0
0
0
0
0
0
0
0
0
0
0
0
0
0
0
0
0
0
0
0
0
0
0
0
0
0
0
0
0
0
0
0
0
0
0
0
0
0
0
0
0
0
0
0
0
0
0
0
0
0
0
0
0
0
0
0
0
0
0
0
0
0
0
0
0
0
0
0
0
0
0
0
0
0
0
0
0
0
0
0
0
0
0
0
0
0
0
0
0
0
0
0
0
0
0
0
0
0
0
0
0
0
0
0
0
0
0
0
0
0
0
0
0
0
0
0
0
0
0
0
0
0
0
0
0
0
0
0
0
0
0
0
0
0
0
0
0
0
0
0
0
0
0
0
0
0
0
0
0
0
0
0
0
0
0
0
0
0
0
0
0
0
0
0
0
0
0
0
0
0
0
0
0
0
0
0
0
0
0
0
0
0
0
0
0
0
0
0
0
0
0
0
0
0
0
0
0
0
0
0
0
0
0
0
0
0
0
0
0
0
0
0
0
0
0
0
0
0
0
0
0
0
0
0
0
0
0
0
0
0
0
0
0
0
0
0
0
0
0
0
0
0
0
0
0
0
0
0
0
0
0
0
0
0
0
0
0
0
0
0
0
0
0
0
0
0
0
0
0
0
0
0
0
0
0
0
0
0
0
0
0
0
0
0
0
0
0
0
0
0
0
0
0
0
0
0
0
0
0
0
0
0
0
0
0
0
0
0
0
0
0
0
0
0
0
0
0
0
0
0
0
0
0
0
0
0
0
0
0
0
0
0
0
0
0
0
0
0
0
0
0
0
0
0
0
0
0
0
0
0
0
0
0
0
0
0
0
0
0
0
0
0
0
0
0
0
0
0
0
0
0
0
0
0
0
0
0
0
0
0
0
0
0
0
0
0
0
0
0
0
0
0
0
0
0
0
0
0
0
0
0
0
0
0
0
0
0
0
0
0
0
0
0
0
0
0
0
0
0
0
0
0
0
0
0
0
0
0
0
0
0
0
0
0
0
0
0
0
0
0
0
0
0
0
0
0
0
0
0
0
0
0
0
0
0
0
0
0
0
0
0
0
0
0
0
0
0
0
0
0
0
0
0
0
0
0
0
0
0
0
0
0
0
0
0
0
0
0
0
0
0
0
0
0
0
0
0
0
0
0
0
0
0
0
0
0
0
0
0
0
0
0
0
0
0
0
0
0
0
0
0
0
0
0
0
0
0
0
0
0
0
0
0
0
0
0
0
0
0
0
0
0
0
0
0
0
0
0
0
0
0
0
0
0
0
0
0
0
0
0
0
0
0
0
0
0
0
0
0
0
0
0
0
0
0
0
0
0
0
0
0
0
0
0
0
0
0
1.11496e-318
1.14252e-318
1.1275e-318
1.13689e-318
1.12409e-318
1.14546e-318
1.14612e-318
1.15771e-318
1.12072e-318
1.13657e-318
1.1339e-318
1.15286e-318
1.14644e-318
1.15237e-318
1.11624e-318
1.12392e-318
1.13559e-318
1.15075e-318
1.16704e-318
1.14032e-318
3.60966e-317
3.65669e-317
3.62693e-317
3.58492e-317
3.61341e-317
3.56773e-317
3.55281e-317
3.53104e-317
3.56909e-317
3.57831e-317
3.57337e-317
3.67141e-317
3.62148e-317
3.56459e-317
3.56979e-317
3.57687e-317
3.62581e-317
3.61642e-317
3.65717e-317
3.60667e-317
3.58931e-316
3.60265e-316
3.60468e-316
3.66157e-316
3.70471e-316
3.6625e-316
3.65088e-316
3.65646e-316
3.63829e-316
3.7098e-316
3.61749e-316
3.70107e-316
3.67564e-316
3.63411e-316
3.71803e-316
3.72294e-316
3.73118e-316
3.69533e-316
3.58164e-316
3.65417e-316
2.01057e-315
1.99581e-315
2.00534e-315
2.00533e-315
2.02274e-315
1.97975e-315
2.00565e-315
1.99568e-315
1.98535e-315
2.02343e-315
2.02636e-315
2.01245e-315
1.98579e-315
1.98972e-315
2.01241e-315
2.04446e-315
2.02702e-315
2.03092e-315
2.03197e-315
1.98951e-315
6.33877e-315
6.5505e-315
6.39091e-315
6.54138e-315
6.58953e-315
6.5167e-315
6.58731e-315
6.61023e-315
6.50367e-315
6.48143e-315
6.61346e-315
6.48929e-315
6.37903e-315
6.41657e-315
6.35194e-315
6.44604e-315
6.37975e-315
6.51708e-315
6.40309e-315
6.45197e-315
1.29052e-314
1.29584e-314
1.34049e-314
1.33457e-314
1.33574e-314
1.32951e-314
1.33802e-314
1.32983e-314
1.32267e-314
1.32018e-314
1.32327e-314
1.30794e-314
1.30532e-314
1.29848e-314
1.33118e-314
1.32085e-314
1.33611e-314
1.29745e-314
1.30822e-314
1.30391e-314
1.98015e-314
2.02941e-314
2.03167e-314
2.02846e-314
2.05157e-314
1.9917e-314
2.04218e-314
2.03381e-314
2.02278e-314
2.04274e-314
1.99464e-314
2.0374e-314
2.04377e-314
2.00028e-314
2.01232e-314
2.04271e-314
1.99853e-314
1.99163e-314
2.01852e-314
2.05871e-314
1.63041e-314
1.6302e-314
1.6361e-314
1.60746e-314
1.6092e-314
1.62626e-314
1.6544e-314
1.62976e-314
1.59514e-314
1.62608e-314
1.64047e-314
1.63933e-314
1.63357e-314
1.60059e-314
1.66821e-314
1.62106e-314
1.65444e-314
1.60921e-314
1.6023e-314
1.60624e-314
9.99498e-315
1.03329e-314
1.00404e-314
1.01699e-314
1.00425e-314
1.03083e-314
1.02681e-314
1.01055e-314
1.01902e-314
1.03385e-314
1.02315e-314
1.04187e-314
1.04376e-314
1.01899e-314
1.0119e-314
1.01621e-314
1.02379e-314
1.01539e-314
1.04911e-314
1.00358e-314
2.13704e-314
2.14321e-314
2.13167e-314
2.14654e-314
2.14461e-314
2.15169e-314
2.13718e-314
2.12635e-314
2.14335e-314
2.0828e-314
2.12091e-314
2.13226e-314
2.19537e-314
2.16593e-314
2.17684e-314
2.19915e-314
2.19753e-314
2.15023e-314
2.21449e-314
2.16597e-314
2.69945e-314
2.69702e-314
2.68013e-314
1.61243e-314
1.60878e-314
1.59245e-314
1.6015e-314
2.64452e-314
2.71118e-314
1.61879e-314
2.67872e-314
1.6105e-314
2.68716e-314
2.65496e-314
1.6061e-314
2.70538e-314
1.61442e-314
1.66258e-314
1.6307e-314
1.64069e-314
1.11967e-313
1.1275e-313
1.13309e-313
1.11773e-313
1.15185e-313
1.10488e-313
1.14573e-313
1.11411e-313
1.14741e-313
1.13993e-313
1.09215e-313
1.1287e-313
1.11063e-313
1.12298e-313
1.11029e-313
1.10344e-313
1.16278e-313
1.16057e-313
1.11112e-313
1.17428e-313
0
0
0
0
0
0
0
0
0
0
0
0
0
0
0
0
0
0
0
0
0
0
0
0
0
0
0
0
0
0
0
0
0
0
0
0
0
0
0
0
0
0
0
0
0
0
0
0
0
0
0
0
0
0
0
0
0
0
0
0
0
0
0
0
0
0
0
0
0
0
0
0
0
0
0
0
0
0
0
0
0
0
0
0
0
0
0
0
0
0
0
0
0
0
0
0
0
0
0
0
0
0
0
0
0
0
0
0
0
0
0
0
0
0
0
0
0
0
0
0
0
0
0
0
0
0
0
0
0
0
0
0
0
0
0
0
0
0
0
0
1.27506e-314
1.30658e-314
1.28941e-314
1.30015e-314
1.2855e-314
1.30994e-314
1.3107e-314
1.32396e-314
1.28165e-314
1.29977e-314
1.29672e-314
1.31841e-314
1.31107e-314
1.31784e-314
1.27653e-314
1.2853e-314
1.29865e-314
1.31599e-314
1.33462e-314
1.30406e-314
-1.08318e-302
-1.1104e-302
-1.09556e-302
-1.10482e-302
-1.09218e-302
-1.11328e-302
-1.11393e-302
-1.12538e-302
-1.08885e-302
-1.10451e-302
-1.10186e-302
-1.12056e-302
-1.1142e-302
-1.12005e-302
-1.08437e-302
-1.09196e-302
-1.10348e-302
-1.11845e-302
-1.13452e-302
-1.10813e-302
-2.52951e-301
-2.56301e-301
-2.54179e-301
-2.51186e-301
-2.53214e-301
-2.49962e-301
-2.48902e-301
-2.47355e-301
-2.50065e-301
-2.50724e-301
-2.50369e-301
-2.57344e-301
-2.53781e-301
-2.49729e-301
-2.50098e-301
-2.50602e-301
-2.54082e-301
-2.53415e-301
-2.56318e-301
-2.52724e-301
-2.05553e-300
-2.06327e-300
-2.06443e-300
-2.09745e-300
-2.12248e-300
-2.09797e-300
-2.09124e-300
-2.0945e-300
-2.08398e-300
-2.12553e-300
-2.07189e-300
-2.12042e-300
-2.10562e-300
-2.08146e-300
-2.13018e-300
-2.13299e-300
-2.13775e-300
-2.11694e-300
-2.05095e-300
-2.09308e-300
-9.97837e-300
-9.90426e-300
-9.95209e-300
-9.95203e-300
-1.00394e-299
-9.82325e-300
-9.95345e-300
-9.90343e-300
-9.85167e-300
-1.00432e-299
-1.00579e-299
-9.98793e-300
-9.85383e-300
-9.87338e-300
-9.98733e-300
-1.01483e-299
-1.00606e-299
-1.00803e-299
-1.00855e-299
-9.87207e-300
-2.92482e-299
-3.0236e-299
-2.94918e-299
-3.0194e-299
-3.04183e-299
-3.00779e-299
-3.04075e-299
-3.05147e-299
-3.0018e-299
-2.99145e-299
-3.05305e-299
-2.99513e-299
-2.94366e-299
-2.96114e-299
-2.93097e-299
-2.9749e-299
-2.94396e-299
-3.00805e-299
-2.95483e-299
-2.97758e-299
-6.29588e-299
-6.32222e-299
-6.54269e-299
-6.51354e-299
-6.51924e-299
-6.48841e-299
-6.53045e-299
-6.48998e-299
-6.45463e-299
-6.4424e-299
-6.45768e-299
-6.38203e-299
-6.36911e-299
-6.33523e-299
-6.49653e-299
-6.44558e-299
-6.52089e-299
-6.33022e-299
-6.38337e-299
-6.36206e-299
-1.07714e-298
-1.10416e-298
-1.10541e-298
-1.10365e-298
-1.11632e-298
-1.08348e-298
-1.11116e-298
-1.10656e-298
-1.10051e-298
-1.11148e-298
-1.0851e-298
-1.10855e-298
-1.11205e-298
-1.08819e-298
-1.09479e-298
-1.11146e-298
-1.08723e-298
-1.08344e-298
-1.09819e-298
-1.12022e-298
-1.19221e-298
-1.19206e-298
-1.19638e-298
-1.17543e-298
-1.1767e-298
-1.18918e-298
-1.20977e-298
-1.19174e-298
-1.16642e-298
-1.18906e-298
-1.19959e-298
-1.19875e-298
-1.19454e-298
-1.17041e-298
-1.21989e-298
-1.18538e-298
-1.20981e-298
-1.17671e-298
-1.17165e-298
-1.17454e-298
-6.74744e-299
-6.97304e-299
-6.77774e-299
-6.86412e-299
-6.77904e-299
-6.95656e-299
-6.92988e-299
-6.82142e-299
-6.87802e-299
-6.97695e-299
-6.90543e-299
-7.03043e-299
-7.043e-299
-6.87764e-299
-6.83035e-299
-6.85911e-299
-6.90964e-299
-6.85357e-299
-7.07866e-299
-6.77482e-299
-1.1114e-298
-1.11448e-298
-1.10866e-298
-1.11618e-298
-1.11519e-298
-1.1188e-298
-1.11148e-298
-1.10606e-298
-1.11466e-298
-1.0841e-298
-1.10333e-298
-1.10905e-298
-1.1409e-298
-1.12603e-298
-1.13154e-298
-1.14279e-298
-1.14198e-298
-1.11809e-298
-1.15052e-298
-1.12608e-298
-1.32588e-298
-1.3247e-298
-1.31684e-298
-9.87106e-299
-9.84971e-299
-9.75963e-299
-9.81051e-299
-1.30038e-298
-1.33135e-298
-9.90843e-299
-1.31626e-298
-9.86216e-299
-1.32022e-298
-1.30532e-298
-9.83886e-299
-1.32868e-298
-9.88454e-299
-1.01526e-298
-9.97599e-299
-1.0032e-298
-2.56471e-298
-2.58216e-298
-2.5946e-298
-2.56037e-298
-2.63608e-298
-2.53191e-298
-2.6226e-298
-2.5527e-298
-2.62668e-298
-2.61012e-298
-2.50408e-298
-2.5854e-298
-2.54552e-298
-2.57302e-298
-2.54492e-298
-2.52971e-298
-2.66156e-298
-2.65669e-298
-2.54698e-298
-2.68709e-298
0
0
0
0
0
0
0
0
0
0
0
0
0
0
0
0
0
0
0
0
0
0
0
0
0
0
0
0
0
0
0
0
0
0
0
0
0
0
0
0
0
0
0
0
0
0
0
0
0
0
0
0
0
0
0
0
0
0
0
0
0
0
0
0
0
0
0
0
0
0
0
0
0
0
0
0
0
0
0
0
0
0
0
0
0
0
0
0
0
0
0
0
0
0
0
0
0
0
0
0
-2.78653e-321
-2.85076e-321
-2.81617e-321
-2.84088e-321
-2.80629e-321
-2.86064e-321
-2.86064e-321
-2.89028e-321
-2.79641e-321
-2.83594e-321
-2.831e-321
-2.8804e-321
-2.86064e-321
-2.87546e-321
-2.78653e-321
-2.80629e-321
-2.83594e-321
-2.87546e-321
-2.91499e-321
-2.84582e-321
-2.07288e-310
-2.12428e-310
-2.09627e-310
-2.11378e-310
-2.0899e-310
-2.12975e-310
-2.13098e-310
-2.1526e-310
-2.08361e-310
-2.11316e-310
-2.10818e-310
-2.14354e-310
-2.13156e-310
-2.1426e-310
-2.07523e-310
-2.08954e-310
-2.1113e-310
-2.13958e-310
-2.16995e-310
-2.12011e-310
-1.2916e-298
-1.32407e-298
-1.30637e-298
-1.31741e-298
-1.30233e-298
-1.3275e-298
-1.32828e-298
-1.34193e-298
-1.29836e-298
-1.31704e-298
-1.31388e-298
-1.33619e-298
-1.3286e-298
-1.33557e-298
-1.29302e-298
-1.30207e-298
-1.31581e-298
-1.33367e-298
-1.35284e-298
-1.32136e-298
8.90135e-287
9.12883e-287
9.00474e-287
9.08193e-287
8.97635e-287
9.15263e-287
9.15804e-287
9.2537e-287
8.94843e-287
9.07944e-287
9.05712e-287
9.21324e-287
9.15987e-287
9.20869e-287
8.91065e-287
8.97407e-287
9.07029e-287
9.19534e-287
9.3295e-287
9.10906e-287
1.51007e-285
1.53037e-285
1.5175e-285
1.49936e-285
1.51165e-285
1.49196e-285
1.48554e-285
1.47619e-285
1.49262e-285
1.49662e-285
1.49445e-285
1.53665e-285
1.51504e-285
1.49049e-285
1.49272e-285
1.49577e-285
1.51682e-285
1.51279e-285
1.53038e-285
1.50862e-285
9.96717e-285
1.00051e-284
1.00108e-284
1.01728e-284
1.02955e-284
1.01752e-284
1.01423e-284
1.01584e-284
1.01069e-284
1.0311e-284
1.00475e-284
1.02857e-284
1.02129e-284
1.00941e-284
1.03332e-284
1.03468e-284
1.03701e-284
1.0268e-284
9.94416e-285
1.0151e-284
4.18399e-284
4.15255e-284
4.17283e-284
4.17279e-284
4.20983e-284
4.11806e-284
4.17331e-284
4.15213e-284
4.13023e-284
4.21157e-284
4.21781e-284
4.18811e-284
4.13114e-284
4.13934e-284
4.18767e-284
4.25593e-284
4.21868e-284
4.22707e-284
4.22926e-284
4.13868e-284
1.14106e-283
1.18009e-283
1.1507e-283
1.17845e-283
1.1873e-283
1.17382e-283
1.18685e-283
1.19109e-283
1.17149e-283
1.16742e-283
1.19175e-283
1.16887e-283
1.14854e-283
1.15542e-283
1.1435e-283
1.16086e-283
1.14864e-283
1.17395e-283
1.15292e-283
1.16188e-283
2.52125e-283
2.53196e-283
2.62134e-283
2.60956e-283
2.61183e-283
2.5993e-283
2.61636e-283
2.59995e-283
2.58561e-283
2.58069e-283
2.58688e-283
2.55624e-283
2.55101e-283
2.53724e-283
2.60256e-283
2.58191e-283
2.61245e-283
2.53523e-283
2.55677e-283
2.54812e-283
4.61929e-283
4.73587e-283
4.74126e-283
4.73369e-283
4.78834e-283
4.64665e-283
4.76605e-283
4.74619e-283
4.72011e-283
4.76745e-283
4.65368e-283
4.75484e-283
4.76997e-283
4.66701e-283
4.69547e-283
4.76738e-283
4.66286e-283
4.6465e-283
4.71011e-283
4.80518e-283
6.09658e-283
6.0958e-283
6.11792e-283
6.01072e-283
6.01725e-283
6.0811e-283
6.18642e-283
6.0942e-283
5.96468e-283
6.08049e-283
6.13436e-283
6.13009e-283
6.10857e-283
5.98515e-283
6.23824e-283
6.06177e-283
6.1867e-283
6.01741e-283
5.99151e-283
6.00624e-283
3.26871e-283
3.3776e-283
3.28333e-283
3.32502e-283
3.28395e-283
3.36965e-283
3.3568e-283
3.30447e-283
3.3318e-283
3.37955e-283
3.34502e-283
3.40537e-283
3.41143e-283
3.33163e-283
3.3088e-283
3.32268e-283
3.34706e-283
3.32e-283
3.42863e-283
3.28198e-283
4.26832e-283
4.27995e-283
4.25787e-283
4.28639e-283
4.28263e-283
4.29639e-283
4.26863e-283
4.24817e-283
4.2808e-283
4.16486e-283
4.23782e-283
4.25953e-283
4.38037e-283
4.32396e-283
4.34486e-283
4.38755e-283
4.38446e-283
4.29378e-283
4.41687e-283
4.32417e-283
4.81296e-283
4.80872e-283
4.78076e-283
3.79201e-283
3.78393e-283
3.75055e-283
3.76955e-283
4.72241e-283
4.83248e-283
3.80619e-283
4.77884e-283
3.78897e-283
4.79296e-283
4.74011e-283
3.78047e-283
4.82303e-283
3.79737e-283
3.89704e-283
3.83147e-283
3.85238e-283
5.72764e-283
5.76532e-283
5.79209e-283
5.71819e-283
5.88078e-283
5.65711e-283
5.85205e-283
5.70261e-283
5.86173e-283
5.82618e-283
5.59832e-283
5.77358e-283
5.68851e-283
5.74781e-283
5.68756e-283
5.65483e-283
5.93854e-283
5.92816e-283
5.69251e-283
5.99345e-283
0
0
0
0
0
0
0
0
0
0
0
0
0
0
0
0
0
0
0
0
0
0
0
0
0
0
0
0
0
0
0
0
0
0
0
0
0
0
0
0
0
0
0
0
0
0
0
0
0
0
0
0
0
0
0
0
0
0
0
0
-0
-0
-0
-0
-0
-0
-0
-0
-0
-0
-0
-0
-0
-0
-0
-0
-0
-0
-0
-0
-1.3442e-315
-1.37965e-315
-1.36028e-315
-1.37226e-315
-1.35582e-315
-1.38328e-315
-1.38412e-315
-1.39903e-315
-1.35147e-315
-1.37193e-315
-1.36843e-315
-1.39272e-315
-1.38436e-315
-1.39199e-315
-1.34558e-315
-1.35551e-315
-1.37053e-315
-1.39004e-315
-1.41096e-315
-1.37663e-315
2.35924e-305
2.41849e-305
2.38618e-305
2.40633e-305
2.37881e-305
2.42473e-305
2.42614e-305
2.45105e-305
2.37153e-305
2.40561e-305
2.39982e-305
2.44053e-305
2.42667e-305
2.43938e-305
2.36172e-305
2.37821e-305
2.40326e-305
2.43583e-305
2.4708e-305
2.41335e-305
1.83449e-294
1.88077e-294
1.85553e-294
1.87126e-294
1.84977e-294
1.88564e-294
1.88674e-294
1.9062e-294
1.84409e-294
1.87073e-294
1.86621e-294
1.898e-294
1.88717e-294
1.89711e-294
1.83646e-294
1.84936e-294
1.86894e-294
1.89439e-294
1.9217e-294
1.87684e-294
1.02803e-282
1.05428e-282
1.03996e-282
1.04887e-282
1.03669e-282
1.05703e-282
1.05765e-282
1.06869e-282
1.03346e-282
1.04858e-282
1.04601e-282
1.06402e-282
1.05786e-282
1.0635e-282
1.02911e-282
1.03643e-282
1.04753e-282
1.06196e-282
1.07744e-282
1.052e-282
-6.14873e-271
-6.30845e-271
-6.22129e-271
-6.27536e-271
-6.20128e-271
-6.325e-271
-6.32878e-271
-6.39594e-271
-6.18163e-271
-6.27369e-271
-6.25792e-271
-6.36739e-271
-6.32977e-271
-6.36402e-271
-6.15481e-271
-6.19938e-271
-6.2669e-271
-6.35465e-271
-6.44874e-271
-6.29402e-271
-7.58453e-270
-7.68778e-270
-7.62225e-270
-7.52996e-270
-7.59243e-270
-7.49232e-270
-7.45972e-270
-7.41226e-270
-7.49581e-270
-7.51624e-270
-7.50516e-270
-7.71966e-270
-7.60952e-270
-7.48463e-270
-7.49591e-270
-7.51144e-270
-7.61842e-270
-7.59797e-270
-7.68743e-270
-7.5768e-270
-4.0611e-269
-4.07673e-269
-4.07903e-269
-4.14576e-269
-4.19631e-269
-4.14674e-269
-4.13322e-269
-4.13986e-269
-4.11869e-269
-4.20286e-269
-4.09422e-269
-4.19239e-269
-4.16229e-269
-4.11329e-269
-4.21178e-269
-4.21735e-269
-4.22687e-269
-4.18482e-269
-4.05141e-269
-4.13668e-269
-1.48075e-268
-1.46949e-268
-1.47676e-268
-1.47673e-268
-1.49e-268
-1.4571e-268
-1.47689e-268
-1.46932e-268
-1.4615e-268
-1.49067e-268
-1.4929e-268
-1.48226e-268
-1.46182e-268
-1.46473e-268
-1.48203e-268
-1.50648e-268
-1.49311e-268
-1.49614e-268
-1.49691e-268
-1.46445e-268
-3.77252e-268
-3.90324e-268
-3.80486e-268
-3.89783e-268
-3.92742e-268
-3.8822e-268
-3.92584e-268
-3.94011e-268
-3.87452e-268
-3.86092e-268
-3.94243e-268
-3.86581e-268
-3.79765e-268
-3.82066e-268
-3.78066e-268
-3.83885e-268
-3.79791e-268
-3.88274e-268
-3.81222e-268
-3.84217e-268
-8.33874e-268
-8.37469e-268
-8.67373e-268
-8.63439e-268
-8.64189e-268
-8.59988e-268
-8.65696e-268
-8.60207e-268
-8.55411e-268
-8.53771e-268
-8.55844e-268
-8.45602e-268
-8.43857e-268
-8.39236e-268
-8.61072e-268
-8.54166e-268
-8.64382e-268
-8.38573e-268
-8.45775e-268
-8.42877e-268
-1.56744e-267
-1.60718e-267
-1.60902e-267
-1.60644e-267
-1.62506e-267
-1.57677e-267
-1.61746e-267
-1.61069e-267
-1.60181e-267
-1.61795e-267
-1.57919e-267
-1.61366e-267
-1.61882e-267
-1.58373e-267
-1.59343e-267
-1.61794e-267
-1.58232e-267
-1.57674e-267
-1.59841e-267
-1.63081e-267
-2.27609e-267
-2.2758e-267
-2.28405e-267
-2.24403e-267
-2.24647e-267
-2.27032e-267
-2.30964e-267
-2.27521e-267
-2.22686e-267
-2.2701e-267
-2.29022e-267
-2.28863e-267
-2.2806e-267
-2.23452e-267
-2.32903e-267
-2.26314e-267
-2.30979e-267
-2.24657e-267
-2.23689e-267
-2.24239e-267
-1.17566e-267
-1.21479e-267
-1.18092e-267
-1.19589e-267
-1.18114e-267
-1.21194e-267
-1.20732e-267
-1.18853e-267
-1.19835e-267
-1.21551e-267
-1.2031e-267
-1.22478e-267
-1.22696e-267
-1.1983e-267
-1.1901e-267
-1.19508e-267
-1.20384e-267
-1.19412e-267
-1.23314e-267
-1.18046e-267
-1.24062e-267
-1.24398e-267
-1.2376e-267
-1.24585e-267
-1.24476e-267
-1.24875e-267
-1.24072e-267
-1.23481e-267
-1.24426e-267
-1.21072e-267
-1.23183e-267
-1.23811e-267
-1.27307e-267
-1.25675e-267
-1.2628e-267
-1.27515e-267
-1.27426e-267
-1.24801e-267
-1.28362e-267
-1.25681e-267
-1.32531e-267
-1.32414e-267
-1.3165e-267
-1.05123e-267
-1.04901e-267
-1.03991e-267
-1.04511e-267
-1.30058e-267
-1.33065e-267
-1.05515e-267
-1.316e-267
-1.05045e-267
-1.31987e-267
-1.30544e-267
-1.04814e-267
-1.32809e-267
-1.05275e-267
-1.07997e-267
-1.06207e-267
-1.0678e-267
-1.1874e-267
-1.19502e-267
-1.20042e-267
-1.18547e-267
-1.21821e-267
-1.17317e-267
-1.21246e-267
-1.18247e-267
-1.21455e-267
-1.20739e-267
-1.16149e-267
-1.19687e-267
-1.17983e-267
-1.19181e-267
-1.17969e-267
-1.17309e-267
-1.23031e-267
-1.22823e-267
-1.18076e-267
-1.24138e-267
0
0
0
0
0
0
0
0
0
0
0
0
0
0
0
0
0
0
0
0
0
0
0
0
0
0
0
0
0
0
0
0
0
0
0
0
0
0
0
0
2.17191e-320
2.22922e-320
2.1981e-320
2.21737e-320
2.19069e-320
2.23515e-320
2.23664e-320
2.26084e-320
2.18377e-320
2.21687e-320
2.21094e-320
2.25047e-320
2.23713e-320
2.24899e-320
2.17389e-320
2.19019e-320
2.2144e-320
2.24602e-320
2.27962e-320
2.22428e-320
5.49749e-310
5.64336e-310
5.56368e-310
5.61291e-310
5.54528e-310
5.65823e-310
5.66168e-310
5.72302e-310
5.52732e-310
5.61153e-310
5.59706e-310
5.69693e-310
5.66246e-310
5.69379e-310
5.50281e-310
5.54365e-310
5.6054e-310
5.68565e-310
5.77162e-310
5.63039e-310
5.30656e-300
5.44929e-300
5.3713e-300
5.41938e-300
5.35324e-300
5.46372e-300
5.4671e-300
5.52712e-300
5.33568e-300
5.41816e-300
5.40396e-300
5.5016e-300
5.46782e-300
5.4985e-300
5.31173e-300
5.35178e-300
5.41224e-300
5.49081e-300
5.57494e-300
5.43679e-300
-1.66549e-289
-1.70814e-289
-1.68487e-289
-1.69934e-289
-1.67954e-289
-1.71259e-289
-1.7136e-289
-1.73153e-289
-1.67429e-289
-1.69885e-289
-1.69465e-289
-1.72391e-289
-1.71389e-289
-1.72304e-289
-1.66715e-289
-1.67903e-289
-1.69706e-289
-1.72049e-289
-1.74563e-289
-1.70429e-289
-1.40974e-278
-1.44596e-278
-1.4262e-278
-1.43847e-278
-1.42167e-278
-1.44973e-278
-1.45059e-278
-1.46581e-278
-1.41721e-278
-1.43808e-278
-1.43452e-278
-1.45936e-278
-1.45085e-278
-1.45862e-278
-1.41117e-278
-1.42127e-278
-1.43659e-278
-1.45649e-278
-1.47784e-278
-1.44274e-278
-7.74068e-267
-7.94194e-267
-7.8321e-267
-7.90023e-267
-7.80687e-267
-7.96277e-267
-7.96754e-267
-8.05218e-267
-7.78211e-267
-7.89813e-267
-7.87825e-267
-8.01618e-267
-7.96877e-267
-8.01193e-267
-7.74829e-267
-7.80445e-267
-7.88954e-267
-8.00011e-267
-8.11867e-267
-7.92371e-267
3.52511e-255
3.61807e-255
3.56732e-255
3.59872e-255
3.55563e-255
3.62761e-255
3.62981e-255
3.66889e-255
3.54418e-255
3.5978e-255
3.58857e-255
3.65219e-255
3.63023e-255
3.65014e-255
3.52841e-255
3.55436e-255
3.59364e-255
3.64469e-255
3.69939e-255
3.60937e-255
3.16353e-254
3.2071e-254
3.17942e-254
3.14047e-254
3.16683e-254
3.1246e-254
3.11087e-254
3.09088e-254
3.12614e-254
3.13479e-254
3.13009e-254
3.22052e-254
3.17398e-254
3.12128e-254
3.12602e-254
3.13257e-254
3.17767e-254
3.16906e-254
3.20681e-254
3.16016e-254
1.38113e-253
1.38651e-253
1.38729e-253
1.41023e-253
1.42761e-253
1.41056e-253
1.40592e-253
1.40822e-253
1.40095e-253
1.42992e-253
1.39254e-253
1.4263e-253
1.41592e-253
1.39905e-253
1.43291e-253
1.43481e-253
1.43806e-253
1.42361e-253
1.37774e-253
1.40707e-253
4.41599e-253
4.382e-253
4.40393e-253
4.40384e-253
4.44386e-253
4.34444e-253
4.40423e-253
4.38142e-253
4.35784e-253
4.44608e-253
4.4528e-253
4.42063e-253
4.35881e-253
4.36749e-253
4.41974e-253
4.49352e-253
4.45311e-253
4.4623e-253
4.46462e-253
4.36651e-253
1.05294e-252
1.08989e-252
1.0621e-252
1.08838e-252
1.09674e-252
1.08393e-252
1.09627e-252
1.10032e-252
1.08179e-252
1.07796e-252
1.101e-252
1.07935e-252
1.06007e-252
1.06656e-252
1.05524e-252
1.0717e-252
1.06012e-252
1.08411e-252
1.06416e-252
1.0726e-252
2.26761e-252
2.2775e-252
2.35963e-252
2.34885e-252
2.35088e-252
2.33933e-252
2.35501e-252
2.33993e-252
2.32676e-252
2.32228e-252
2.32798e-252
2.29987e-252
2.29508e-252
2.28237e-252
2.34229e-252
2.32333e-252
2.35139e-252
2.28057e-252
2.30034e-252
2.29238e-252
4.20641e-252
4.31339e-252
4.31836e-252
4.31143e-252
4.36156e-252
4.23155e-252
4.34107e-252
4.32285e-252
4.29895e-252
4.34243e-252
4.23808e-252
4.3309e-252
4.34483e-252
4.25034e-252
4.27645e-252
4.34244e-252
4.24655e-252
4.23153e-252
4.28987e-252
4.37709e-252
6.35599e-252
6.35518e-252
6.37825e-252
6.26649e-252
6.27331e-252
6.3399e-252
6.44975e-252
6.3536e-252
6.21856e-252
6.33935e-252
6.39556e-252
6.39114e-252
6.36873e-252
6.24005e-252
6.504e-252
6.31999e-252
6.45028e-252
6.27371e-252
6.24666e-252
6.26201e-252
3.19296e-252
3.29918e-252
3.20723e-252
3.2479e-252
3.20784e-252
3.29146e-252
3.27894e-252
3.22791e-252
3.25459e-252
3.30118e-252
3.26751e-252
3.32639e-252
3.33231e-252
3.25449e-252
3.23224e-252
3.24577e-252
3.26955e-252
3.24315e-252
3.34909e-252
3.20603e-252
2.75995e-252
2.7674e-252
2.75322e-252
2.77155e-252
2.76914e-252
2.778e-252
2.76018e-252
2.74707e-252
2.76806e-252
2.69359e-252
2.74046e-252
2.75442e-252
2.83206e-252
2.79583e-252
2.80926e-252
2.83669e-252
2.8347e-252
2.77642e-252
2.85548e-252
2.79596e-252
2.80051e-252
2.79805e-252
2.78195e-252
2.18897e-252
2.18436e-252
2.16556e-252
2.17632e-252
2.74843e-252
2.81181e-252
2.19712e-252
2.78094e-252
2.1874e-252
2.78911e-252
2.75872e-252
2.18267e-252
2.80643e-252
2.19217e-252
2.24845e-252
2.21147e-252
2.22332e-252
2.12032e-252
2.13375e-252
2.14325e-252
2.11691e-252
2.17449e-252
2.0953e-252
2.16441e-252
2.11177e-252
2.16822e-252
2.15564e-252
2.0749e-252
2.13721e-252
2.10732e-252
2.12843e-252
2.10713e-252
2.09552e-252
2.19621e-252
2.19255e-252
2.1091e-252
2.21569e-252
-0
-0
-0
-0
-0
-0
-0
-0
-0
-0
-0
-0
-0
-0
-0
-0
-0
-0
-0
-0
-1.7619e-315
-1.809e-315
-1.78327e-315
-1.79914e-315
-1.77732e-315
-1.81378e-315
-1.81489e-315
-1.83469e-315
-1.7715e-315
-1.7987e-315
-1.79401e-315
-1.82623e-315
-1.81508e-315
-1.82518e-315
-1.76352e-315
-1.7767e-315
-1.79663e-315
-1.82252e-315
-1.85026e-315
-1.80466e-315
-7.19085e-305
-7.3838e-305
-7.27838e-305
-7.34339e-305
-7.25398e-305
-7.40333e-305
-7.40788e-305
-7.489e-305
-7.23017e-305
-7.34161e-305
-7.32238e-305
-7.45434e-305
-7.40861e-305
-7.44999e-305
-7.19742e-305
-7.25144e-305
-7.33309e-305
-7.43918e-305
-7.55279e-305
-7.36601e-305
-1.85451e-294
-1.90444e-294
-1.87716e-294
-1.89397e-294
-1.87084e-294
-1.90949e-294
-1.91067e-294
-1.93166e-294
-1.86468e-294
-1.89353e-294
-1.88855e-294
-1.92269e-294
-1.91085e-294
-1.92156e-294
-1.8562e-294
-1.87019e-294
-1.89133e-294
-1.91879e-294
-1.94819e-294
-1.89986e-294
-1.60755e-284
-1.65174e-284
-1.62758e-284
-1.64242e-284
-1.62196e-284
-1.65615e-284
-1.65719e-284
-1.67577e-284
-1.61651e-284
-1.64208e-284
-1.63766e-284
-1.66784e-284
-1.65734e-284
-1.66683e-284
-1.60903e-284
-1.62145e-284
-1.64018e-284