/*--------------------------------*- C++ -*----------------------------------*\
| =========                 |                                                 |
| \\      /  F ield         | OpenFOAM: The Open Source CFD Toolbox           |
|  \\    /   O peration     | Version:  2212                                  |
|   \\  /    A nd           | Website:  www.openfoam.com                      |
|    \\/     M anipulation  |                                                 |
\*---------------------------------------------------------------------------*/
FoamFile
{
    version     2.0;
    format      ascii;
    arch        "LSB;label=32;scalar=64";
    class       volScalarField;
    location    "0.4081";
    object      s;
}
// * * * * * * * * * * * * * * * * * * * * * * * * * * * * * * * * * * * * * //

dimensions      [0 0 0 0 0 0 0];

internalField   nonuniform List<scalar> 
24240
(
5.98017e-73
5.94274e-73
5.98648e-73
5.91446e-73
5.90841e-73
5.998e-73
5.97091e-73
5.8444e-73
5.88907e-73
6.04447e-73
5.92875e-73
6.03165e-73
5.95956e-73
6.04172e-73
5.89377e-73
6.07266e-73
5.8816e-73
5.94888e-73
5.92297e-73
5.78232e-73
2.09716e-70
2.08485e-70
2.09992e-70
2.07506e-70
2.07239e-70
2.10409e-70
2.0945e-70
2.05039e-70
2.06602e-70
2.12037e-70
2.07993e-70
2.11557e-70
2.09104e-70
2.11936e-70
2.06782e-70
2.13006e-70
2.0638e-70
2.08718e-70
2.0778e-70
2.02833e-70
3.70066e-68
3.68037e-68
3.70649e-68
3.6633e-68
3.65765e-68
3.71404e-68
3.69699e-68
3.6196e-68
3.64717e-68
3.74276e-68
3.67168e-68
3.7338e-68
3.69183e-68
3.74092e-68
3.65059e-68
3.75954e-68
3.64396e-68
3.68479e-68
3.66777e-68
3.58028e-68
3.82422e-66
3.80473e-66
3.83121e-66
3.78725e-66
3.78045e-66
3.83918e-66
3.82143e-66
3.74193e-66
3.7704e-66
3.86881e-66
3.79567e-66
3.85899e-66
3.81702e-66
3.8668e-66
3.7741e-66
3.8857e-66
3.76774e-66
3.80945e-66
3.7914e-66
3.70083e-66
2.79157e-64
2.77841e-64
2.79736e-64
2.76575e-64
2.76008e-64
2.80328e-64
2.79024e-64
2.73258e-64
2.75339e-64
2.82489e-64
2.77176e-64
2.81733e-64
2.78773e-64
2.82334e-64
2.75619e-64
2.83686e-64
2.75193e-64
2.782e-64
2.76851e-64
2.70237e-64
1.41352e-62
1.40738e-62
1.41677e-62
1.401e-62
1.39778e-62
1.4198e-62
1.41316e-62
1.38416e-62
1.39472e-62
1.43071e-62
1.40397e-62
1.42667e-62
1.41222e-62
1.42987e-62
1.39613e-62
1.43654e-62
1.39419e-62
1.40918e-62
1.40222e-62
1.36877e-62
4.97042e-61
4.95069e-61
4.98292e-61
4.9283e-61
4.91573e-61
4.99363e-61
4.97023e-61
4.86901e-61
4.90642e-61
5.0319e-61
4.93863e-61
5.01698e-61
4.96818e-61
5.0287e-61
4.91115e-61
5.05141e-61
4.90519e-61
4.95689e-61
4.93205e-61
4.81495e-61
1.14058e-59
1.13643e-59
1.14364e-59
1.13127e-59
1.12812e-59
1.14605e-59
1.1407e-59
1.11767e-59
1.1264e-59
1.15477e-59
1.13366e-59
1.15121e-59
1.14048e-59
1.15397e-59
1.12729e-59
1.15893e-59
1.12618e-59
1.13771e-59
1.13198e-59
1.10544e-59
7.52934e-59
7.50599e-59
7.55238e-59
7.47176e-59
7.44916e-59
7.56732e-59
7.53269e-59
7.38243e-59
7.44272e-59
7.62433e-59
7.48883e-59
7.60012e-59
7.53308e-59
7.61828e-59
7.44513e-59
7.64808e-59
7.44045e-59
7.51279e-59
7.47541e-59
7.30398e-59
2.21956e-59
2.22187e-59
2.2391e-59
2.20655e-59
2.20402e-59
2.2202e-59
2.22252e-59
2.18569e-59
2.24154e-59
2.22766e-59
2.2326e-59
2.23162e-59
2.21546e-59
2.2205e-59
2.18881e-59
2.20372e-59
2.20973e-59
2.19937e-59
2.20425e-59
2.20893e-59
4.00804e-59
4.02623e-59
4.06745e-59
3.99546e-59
3.97888e-59
3.98349e-59
4.0099e-59
3.95926e-59
4.06562e-59
4.05065e-59
4.0634e-59
4.03118e-59
4.02872e-59
3.99477e-59
3.96639e-59
3.98677e-59
3.94947e-59
3.96934e-59
3.99032e-59
3.98129e-59
4.33611e-59
4.35727e-59
4.38494e-59
4.30494e-59
4.31785e-59
4.27277e-59
4.34896e-59
4.30872e-59
4.33831e-59
4.4211e-59
4.36956e-59
4.30361e-59
4.38275e-59
4.34958e-59
4.33164e-59
4.3603e-59
4.23294e-59
4.3143e-59
4.28771e-59
4.28318e-59
5.1876e-59
5.21361e-59
5.23328e-59
5.23701e-59
5.25048e-59
5.29523e-59
5.33569e-59
5.27225e-59
5.25604e-59
5.19313e-59
5.19569e-59
5.20798e-59
5.25829e-59
5.27707e-59
5.21002e-59
5.24096e-59
5.2444e-59
5.22586e-59
5.17988e-59
5.20505e-59
5.48598e-59
5.44732e-59
5.4712e-59
5.55858e-59
5.5333e-59
5.58557e-59
5.48988e-59
5.60352e-59
5.4547e-59
5.40438e-59
5.40546e-59
5.45814e-59
5.45087e-59
5.39713e-59
5.3806e-59
5.43311e-59
5.36869e-59
5.46179e-59
5.42658e-59
5.49438e-59
5.73709e-59
5.71331e-59
5.79425e-59
5.72869e-59
5.72466e-59
5.82269e-59
5.76599e-59
5.86958e-59
5.74615e-59
5.83223e-59
5.78504e-59
5.80502e-59
5.80655e-59
5.85561e-59
5.79128e-59
5.88856e-59
5.76895e-59
5.70607e-59
5.76804e-59
5.72104e-59
5.62445e-59
5.57301e-59
5.54229e-59
5.55832e-59
5.60869e-59
5.64958e-59
5.63134e-59
5.61338e-59
5.52929e-59
5.54828e-59
5.48724e-59
5.61559e-59
5.63541e-59
5.67395e-59
5.67586e-59
5.63905e-59
5.62026e-59
5.64397e-59
5.59456e-59
5.60314e-59
5.27178e-59
5.35878e-59
5.27507e-59
5.40424e-59
5.25657e-59
5.36151e-59
5.27842e-59
5.35914e-59
5.30173e-59
5.34888e-59
5.30796e-59
5.42622e-59
5.3155e-59
5.44035e-59
5.31875e-59
5.35036e-59
5.37552e-59
5.26109e-59
5.39043e-59
5.38598e-59
4.723e-59
4.84657e-59
4.82215e-59
4.76713e-59
4.73636e-59
4.88001e-59
4.79743e-59
4.82885e-59
4.8006e-59
4.73541e-59
4.77351e-59
4.85279e-59
4.77683e-59
4.90803e-59
4.78143e-59
4.84971e-59
4.85254e-59
4.81841e-59
4.86327e-59
4.8872e-59
4.62778e-59
4.63171e-59
4.64591e-59
4.68416e-59
4.68228e-59
4.68524e-59
4.59707e-59
4.7065e-59
4.73018e-59
4.63244e-59
4.70443e-59
4.7392e-59
4.5983e-59
4.75209e-59
4.73743e-59
4.80701e-59
4.70567e-59
4.72655e-59
4.68059e-59
4.763e-59
2.86663e-59
2.89196e-59
2.89173e-59
2.86161e-59
2.88306e-59
2.87757e-59
2.88062e-59
2.88901e-59
2.85889e-59
2.91031e-59
2.84883e-59
2.91201e-59
2.85486e-59
2.94139e-59
2.86297e-59
2.86824e-59
2.86887e-59
2.92307e-59
2.88397e-59
2.93962e-59
1.30028e-71
1.29262e-71
1.30202e-71
1.28661e-71
1.285e-71
1.30467e-71
1.29873e-71
1.27138e-71
1.28104e-71
1.31483e-71
1.28969e-71
1.31186e-71
1.29657e-71
1.31417e-71
1.28215e-71
1.32082e-71
1.27955e-71
1.29409e-71
1.28826e-71
1.2575e-71
4.50578e-69
4.48108e-69
4.51306e-69
4.46051e-69
4.45374e-69
4.5225e-69
4.50172e-69
4.40748e-69
4.4409e-69
4.55767e-69
4.47087e-69
4.54675e-69
4.49539e-69
4.55529e-69
4.44509e-69
4.57802e-69
4.43664e-69
4.48654e-69
4.46575e-69
4.35876e-69
7.82436e-67
7.7846e-67
7.83914e-67
7.74927e-67
7.73554e-67
7.85591e-67
7.81957e-67
7.65687e-67
7.71486e-67
7.91697e-67
7.76684e-67
7.89693e-67
7.81059e-67
7.91271e-67
7.72269e-67
7.95161e-67
7.70899e-67
7.79474e-67
7.75767e-67
7.57134e-67
7.99132e-65
7.95391e-65
8.00856e-65
7.91814e-65
7.90211e-65
8.02597e-65
7.98858e-65
7.82341e-65
7.88261e-65
8.08823e-65
7.93554e-65
8.06658e-65
7.98134e-65
8.08361e-65
7.89094e-65
8.12264e-65
7.87797e-65
7.96453e-65
7.92575e-65
7.73498e-65
5.74334e-63
5.71875e-63
5.75723e-63
5.69321e-63
5.68026e-63
5.76991e-63
5.74289e-63
5.62495e-63
5.66754e-63
5.81463e-63
5.70545e-63
5.79824e-63
5.73917e-63
5.81115e-63
5.67374e-63
5.83863e-63
5.66524e-63
5.72663e-63
5.69817e-63
5.5609e-63
2.8724e-61
2.86121e-61
2.88003e-61
2.84847e-61
2.84129e-61
2.88642e-61
2.87284e-61
2.81424e-61
2.83561e-61
2.90872e-61
2.85444e-61
2.9001e-61
2.87166e-61
2.90686e-61
2.83869e-61
2.92025e-61
2.83487e-61
2.8651e-61
2.85062e-61
2.78201e-61
9.9557e-60
9.92076e-60
9.98442e-60
9.87664e-60
9.84926e-60
1.00066e-59
9.95942e-60
9.75783e-60
9.83242e-60
1.00837e-59
9.89711e-60
1.00523e-59
9.95784e-60
1.00767e-59
9.84269e-60
1.01217e-59
9.83119e-60
9.93391e-60
9.88307e-60
9.64613e-60
2.25177e-58
2.24465e-58
2.25867e-58
2.2346e-58
2.22789e-58
2.26358e-58
2.25294e-58
2.20773e-58
2.2249e-58
2.28089e-58
2.23926e-58
2.27352e-58
2.25309e-58
2.27919e-58
2.22683e-58
2.28884e-58
2.22474e-58
2.24732e-58
2.23579e-58
2.18282e-58
1.46603e-57
1.46218e-57
1.47108e-57
1.4556e-57
1.45089e-57
1.47407e-57
1.46729e-57
1.4382e-57
1.44989e-57
1.48524e-57
1.45889e-57
1.48031e-57
1.46774e-57
1.48398e-57
1.45049e-57
1.4897e-57
1.44962e-57
1.46359e-57
1.45618e-57
1.4224e-57
4.18898e-58
4.1936e-58
4.22652e-58
4.16492e-58
4.15967e-58
4.18989e-58
4.19423e-58
4.12549e-58
4.23124e-58
4.20477e-58
4.21429e-58
4.21156e-58
4.18205e-58
4.19061e-58
4.13172e-58
4.15845e-58
4.17028e-58
4.15094e-58
4.16045e-58
4.16911e-58
7.65524e-58
7.68949e-58
7.76836e-58
7.63048e-58
7.59952e-58
7.60742e-58
7.65773e-58
7.56222e-58
7.76421e-58
7.73685e-58
7.76021e-58
7.69808e-58
7.69472e-58
7.63017e-58
7.57624e-58
7.61443e-58
7.54251e-58
7.58064e-58
7.6207e-58
7.60233e-58
8.23513e-58
8.27461e-58
8.32751e-58
8.17605e-58
8.20103e-58
8.11684e-58
8.26077e-58
8.18549e-58
8.23822e-58
8.39512e-58
8.29697e-58
8.17261e-58
8.32295e-58
8.26154e-58
8.2272e-58
8.28157e-58
8.04191e-58
8.19331e-58
8.14455e-58
8.13523e-58
9.88225e-58
9.9291e-58
9.96782e-58
9.97676e-58
1.00017e-57
1.00876e-57
1.01602e-57
1.00438e-57
1.00114e-57
9.89099e-58
9.89583e-58
9.92013e-58
1.00149e-57
1.00494e-57
9.92423e-58
9.98162e-58
9.98776e-58
9.9547e-58
9.86689e-58
9.91555e-58
1.03995e-57
1.03251e-57
1.03706e-57
1.05343e-57
1.04874e-57
1.05867e-57
1.04052e-57
1.06209e-57
1.03377e-57
1.02464e-57
1.02467e-57
1.03467e-57
1.03322e-57
1.02312e-57
1.02012e-57
1.02999e-57
1.01775e-57
1.03526e-57
1.0288e-57
1.04136e-57
1.0914e-57
1.08686e-57
1.10212e-57
1.08958e-57
1.08908e-57
1.1076e-57
1.09675e-57
1.11642e-57
1.09317e-57
1.10949e-57
1.10042e-57
1.10421e-57
1.10454e-57
1.11409e-57
1.10177e-57
1.12004e-57
1.0975e-57
1.0855e-57
1.0973e-57
1.08818e-57
1.06474e-57
1.05524e-57
1.04916e-57
1.05237e-57
1.06176e-57
1.06944e-57
1.066e-57
1.06262e-57
1.04695e-57
1.05039e-57
1.03886e-57
1.06304e-57
1.06686e-57
1.07397e-57
1.0745e-57
1.06731e-57
1.06399e-57
1.06857e-57
1.05925e-57
1.06086e-57
1.00256e-57
1.01918e-57
1.00327e-57
1.0276e-57
9.99509e-58
1.01936e-57
1.00367e-57
1.01899e-57
1.00823e-57
1.01725e-57
1.00938e-57
1.03191e-57
1.01081e-57
1.03442e-57
1.01152e-57
1.01725e-57
1.02224e-57
1.00052e-57
1.02506e-57
1.02422e-57
8.9536e-58
9.18499e-58
9.14037e-58
9.03536e-58
8.97862e-58
9.24766e-58
9.09179e-58
9.15152e-58
9.09911e-58
8.97522e-58
9.04733e-58
9.19636e-58
9.05396e-58
9.3001e-58
9.0633e-58
9.1915e-58
9.19591e-58
9.13296e-58
9.21558e-58
9.26197e-58
8.83775e-58
8.84477e-58
8.87324e-58
8.94496e-58
8.94068e-58
8.94577e-58
8.77836e-58
8.98863e-58
9.03155e-58
8.84674e-58
8.98349e-58
9.0499e-58
8.78179e-58
9.07354e-58
9.04699e-58
9.17774e-58
8.98669e-58
9.02412e-58
8.93696e-58
9.09295e-58
5.44345e-58
5.49186e-58
5.49198e-58
5.43418e-58
5.47413e-58
5.4641e-58
5.46967e-58
5.48608e-58
5.42747e-58
5.52573e-58
5.40908e-58
5.52848e-58
5.4212e-58
5.58449e-58
5.43615e-58
5.44604e-58
5.44705e-58
5.54963e-58
5.47606e-58
5.5808e-58
2.71164e-70
2.69676e-70
2.71612e-70
2.68453e-70
2.68051e-70
2.72197e-70
2.70946e-70
2.65276e-70
2.6728e-70
2.74327e-70
2.6909e-70
2.7367e-70
2.70566e-70
2.74176e-70
2.67533e-70
2.75546e-70
2.67001e-70
2.70013e-70
2.68757e-70
2.62296e-70
9.25035e-68
9.20352e-68
9.26835e-68
9.16225e-68
9.14616e-68
9.28874e-68
9.24573e-68
9.05339e-68
9.12166e-68
9.36136e-68
9.18335e-68
9.33759e-68
9.23511e-68
9.356e-68
9.13097e-68
9.4021e-68
9.114e-68
9.21571e-68
9.17168e-68
8.95036e-68
1.5799e-65
1.57257e-65
1.58344e-65
1.56559e-65
1.56245e-65
1.58698e-65
1.57959e-65
1.54693e-65
1.55858e-65
1.59939e-65
1.56911e-65
1.5951e-65
1.57818e-65
1.59844e-65
1.56028e-65
1.6062e-65
1.55759e-65
1.57477e-65
1.56707e-65
1.52913e-65
1.59285e-63
1.58612e-63
1.59687e-63
1.57914e-63
1.57557e-63
1.60049e-63
1.59298e-63
1.56026e-63
1.572e-63
1.61298e-63
1.58258e-63
1.60842e-63
1.59196e-63
1.61197e-63
1.57378e-63
1.61965e-63
1.57127e-63
1.58839e-63
1.58045e-63
1.54208e-63
1.12604e-61
1.12175e-61
1.12919e-61
1.11684e-61
1.11404e-61
1.13177e-61
1.12644e-61
1.10345e-61
1.11176e-61
1.14059e-61
1.11921e-61
1.1372e-61
1.126e-61
1.13985e-61
1.11307e-61
1.14516e-61
1.11145e-61
1.12339e-61
1.11766e-61
1.09049e-61
5.55456e-60
5.53562e-60
5.57152e-60
5.51145e-60
5.49628e-60
5.58431e-60
5.55787e-60
5.44523e-60
5.48636e-60
5.62768e-60
5.52287e-60
5.61015e-60
5.55705e-60
5.62377e-60
5.49277e-60
5.64933e-60
5.48564e-60
5.5436e-60
5.51493e-60
5.38086e-60
1.89566e-58
1.88996e-58
1.9019e-58
1.8817e-58
1.87605e-58
1.90626e-58
1.89722e-58
1.85906e-58
1.8732e-58
1.92102e-58
1.88555e-58
1.91475e-58
1.89742e-58
1.91959e-58
1.87531e-58
1.92803e-58
1.87321e-58
1.8926e-58
1.88271e-58
1.83708e-58
4.21977e-57
4.20858e-57
4.23445e-57
4.19003e-57
4.17649e-57
4.24391e-57
4.22386e-57
4.13965e-57
4.17168e-57
4.27656e-57
4.19866e-57
4.26206e-57
4.22527e-57
4.27311e-57
4.17567e-57
4.29095e-57
4.17194e-57
4.21386e-57
4.19183e-57
4.09135e-57
2.70688e-56
2.70117e-56
2.71735e-56
2.68918e-56
2.67987e-56
2.72301e-56
2.7104e-56
2.65702e-56
2.67851e-56
2.74377e-56
2.69518e-56
2.73422e-56
2.71199e-56
2.74128e-56
2.67987e-56
2.75168e-56
2.67837e-56
2.70393e-56
2.69001e-56
2.62679e-56
7.4839e-57
7.49261e-57
7.55217e-57
7.44179e-57
7.43155e-57
7.4849e-57
7.49263e-57
7.37127e-57
7.56074e-57
7.51307e-57
7.53037e-57
7.5239e-57
7.47305e-57
7.48658e-57
7.38305e-57
7.42823e-57
7.45009e-57
7.41604e-57
7.43356e-57
7.44862e-57
1.38462e-56
1.39072e-56
1.40501e-56
1.38e-56
1.37454e-56
1.3758e-56
1.38488e-56
1.36783e-56
1.40414e-56
1.39942e-56
1.40346e-56
1.39211e-56
1.39175e-56
1.38014e-56
1.37044e-56
1.3772e-56
1.36408e-56
1.371e-56
1.37825e-56
1.37471e-56
1.48136e-56
1.48833e-56
1.49792e-56
1.47077e-56
1.47534e-56
1.46049e-56
1.48621e-56
1.47288e-56
1.48174e-56
1.50987e-56
1.49218e-56
1.46998e-56
1.49702e-56
1.48627e-56
1.48004e-56
1.4898e-56
1.44715e-56
1.47377e-56
1.46534e-56
1.46353e-56
1.78348e-56
1.79143e-56
1.79866e-56
1.80058e-56
1.80495e-56
1.82054e-56
1.83284e-56
1.81267e-56
1.80655e-56
1.78475e-56
1.7856e-56
1.79012e-56
1.80705e-56
1.81302e-56
1.79094e-56
1.80099e-56
1.80197e-56
1.79647e-56
1.78058e-56
1.78947e-56
1.86862e-56
1.85507e-56
1.86329e-56
1.89234e-56
1.88409e-56
1.90197e-56
1.86937e-56
1.90814e-56
1.8571e-56
1.84142e-56
1.84115e-56
1.85915e-56
1.85641e-56
1.83843e-56
1.83329e-56
1.85082e-56
1.82883e-56
1.86003e-56
1.84883e-56
1.87082e-56
1.9684e-56
1.96019e-56
1.98746e-56
1.96473e-56
1.96435e-56
1.99747e-56
1.97781e-56
2.01319e-56
1.97169e-56
2.00103e-56
1.9845e-56
1.9913e-56
1.99199e-56
2.00956e-56
1.98722e-56
2.01971e-56
1.9795e-56
1.95779e-56
1.97908e-56
1.96232e-56
1.91219e-56
1.89562e-56
1.88426e-56
1.89031e-56
1.90686e-56
1.92057e-56
1.91439e-56
1.90842e-56
1.88074e-56
1.88662e-56
1.86597e-56
1.90914e-56
1.91614e-56
1.92855e-56
1.92978e-56
1.91651e-56
1.91099e-56
1.91928e-56
1.90271e-56
1.90555e-56
1.80926e-56
1.83934e-56
1.81066e-56
1.85407e-56
1.80346e-56
1.83903e-56
1.81098e-56
1.83852e-56
1.8194e-56
1.83576e-56
1.8214e-56
1.86212e-56
1.82398e-56
1.86633e-56
1.82548e-56
1.83524e-56
1.84465e-56
1.80559e-56
1.84966e-56
1.84817e-56
1.61174e-56
1.65285e-56
1.64513e-56
1.62614e-56
1.61618e-56
1.66399e-56
1.63607e-56
1.64683e-56
1.63762e-56
1.61529e-56
1.62824e-56
1.65483e-56
1.6295e-56
1.6733e-56
1.63129e-56
1.65412e-56
1.65473e-56
1.64372e-56
1.65816e-56
1.66668e-56
1.60321e-56
1.60442e-56
1.60983e-56
1.62257e-56
1.62166e-56
1.6225e-56
1.59233e-56
1.63069e-56
1.63802e-56
1.60486e-56
1.62953e-56
1.64158e-56
1.59315e-56
1.64569e-56
1.64113e-56
1.66443e-56
1.63028e-56
1.63659e-56
1.62092e-56
1.64893e-56
9.82796e-57
9.91574e-57
9.91706e-57
9.81175e-57
9.88245e-57
9.8649e-57
9.87445e-57
9.90518e-57
9.79683e-57
9.97512e-57
9.76498e-57
9.97933e-57
9.78789e-57
1.00808e-56
9.8143e-57
9.83198e-57
9.83325e-57
1.00178e-56
9.88615e-57
1.00736e-56
5.65881e-69
5.63014e-69
5.67003e-69
5.60522e-69
5.59549e-69
5.68288e-69
5.65657e-69
5.53892e-69
5.58055e-69
5.7276e-69
5.61844e-69
5.71305e-69
5.65009e-69
5.72415e-69
5.58625e-69
5.75237e-69
5.57539e-69
5.63778e-69
5.61072e-69
5.47486e-69
1.89963e-66
1.89085e-66
1.90399e-66
1.88257e-66
1.87882e-66
1.90838e-66
1.89948e-66
1.86021e-66
1.87417e-66
1.92338e-66
1.88687e-66
1.91822e-66
1.89779e-66
1.92218e-66
1.87622e-66
1.93153e-66
1.87282e-66
1.89355e-66
1.88423e-66
1.8384e-66
3.1907e-64
3.17735e-64
3.19901e-64
3.16356e-64
3.15647e-64
3.20649e-64
3.19144e-64
3.12588e-64
3.1493e-64
3.23168e-64
3.17061e-64
3.22255e-64
3.18944e-64
3.2296e-64
3.15298e-64
3.24507e-64
3.14768e-64
3.18211e-64
3.16611e-64
3.08879e-64
3.17229e-62
3.1604e-62
3.18152e-62
3.14678e-62
3.13894e-62
3.18902e-62
3.17396e-62
3.10917e-62
3.13245e-62
3.21402e-62
3.15357e-62
3.20446e-62
3.17275e-62
3.21184e-62
3.13625e-62
3.22694e-62
3.13139e-62
3.1652e-62
3.14896e-62
3.07179e-62
2.20521e-60
2.19791e-60
2.21228e-60
2.18848e-60
2.18249e-60
2.21753e-60
2.20701e-60
2.16225e-60
2.17846e-60
2.23489e-60
2.19308e-60
2.22792e-60
2.20674e-60
2.23331e-60
2.18119e-60
2.24358e-60
2.17813e-60
2.20131e-60
2.18982e-60
2.13603e-60
1.07193e-58
1.06883e-58
1.07566e-58
1.06424e-58
1.06107e-58
1.0782e-58
1.07307e-58
1.05146e-58
1.05936e-58
1.08662e-58
1.06643e-58
1.08307e-58
1.0732e-58
1.0858e-58
1.06069e-58
1.09067e-58
1.05936e-58
1.07045e-58
1.06479e-58
1.03862e-58
3.60133e-57
3.59241e-57
3.61476e-57
3.57695e-57
3.56541e-57
3.62326e-57
3.60599e-57
3.53394e-57
3.56069e-57
3.65147e-57
3.58419e-57
3.63899e-57
3.60735e-57
3.64855e-57
3.56499e-57
3.66435e-57
3.56118e-57
3.59766e-57
3.57848e-57
3.49074e-57
7.88474e-56
7.86808e-56
7.91566e-56
7.83388e-56
7.80681e-56
7.93377e-56
7.89611e-56
7.73968e-56
7.79932e-56
7.99514e-56
7.84983e-56
7.96678e-56
7.90088e-56
7.98823e-56
7.80743e-56
8.02107e-56
7.80082e-56
7.8784e-56
7.83648e-56
7.64629e-56
4.98271e-55
4.97495e-55
5.00424e-55
4.95311e-55
4.93488e-55
5.01488e-55
4.99155e-55
4.89387e-55
4.93328e-55
5.05336e-55
4.96404e-55
5.03494e-55
4.99584e-55
5.04846e-55
4.93623e-55
5.06731e-55
4.93367e-55
4.98025e-55
4.95421e-55
4.83616e-55
1.33176e-55
1.33339e-55
1.34412e-55
1.32441e-55
1.32245e-55
1.33181e-55
1.33319e-55
1.31186e-55
1.34567e-55
1.33712e-55
1.34025e-55
1.3388e-55
1.3301e-55
1.33218e-55
1.31407e-55
1.32165e-55
1.32566e-55
1.31969e-55
1.32291e-55
1.32552e-55
2.49593e-55
2.50677e-55
2.53258e-55
2.48735e-55
2.47776e-55
2.47974e-55
2.49605e-55
2.46573e-55
2.53079e-55
2.52268e-55
2.52963e-55
2.50898e-55
2.50878e-55
2.48796e-55
2.47057e-55
2.4825e-55
2.45867e-55
2.47113e-55
2.48424e-55
2.47744e-55
2.65649e-55
2.66874e-55
2.68608e-55
2.63758e-55
2.64591e-55
2.6198e-55
2.66563e-55
2.6421e-55
2.65684e-55
2.7071e-55
2.67534e-55
2.63584e-55
2.6843e-55
2.66555e-55
2.65431e-55
2.67178e-55
2.59613e-55
2.64275e-55
2.62826e-55
2.62476e-55
3.20925e-55
3.22266e-55
3.23607e-55
3.2401e-55
3.24773e-55
3.27594e-55
3.2966e-55
3.26181e-55
3.2503e-55
3.21098e-55
3.21247e-55
3.22085e-55
3.251e-55
3.26124e-55
3.22244e-55
3.23999e-55
3.2415e-55
3.23244e-55
3.20379e-55
3.21998e-55
3.35029e-55
3.32566e-55
3.34049e-55
3.39189e-55
3.37743e-55
3.40957e-55
3.35109e-55
3.42068e-55
3.32886e-55
3.30201e-55
3.301e-55
3.33333e-55
3.32816e-55
3.2962e-55
3.28745e-55
3.3185e-55
3.2791e-55
3.33457e-55
3.31525e-55
3.35363e-55
3.54273e-55
3.52794e-55
3.57653e-55
3.5354e-55
3.53567e-55
3.59475e-55
3.55927e-55
3.62269e-55
3.54884e-55
3.60147e-55
3.5714e-55
3.58353e-55
3.58504e-55
3.61727e-55
3.57687e-55
3.63449e-55
3.56291e-55
3.5237e-55
3.56202e-55
3.53128e-55
3.43062e-55
3.40185e-55
3.38067e-55
3.39203e-55
3.42109e-55
3.4456e-55
3.43449e-55
3.42399e-55
3.37517e-55
3.38517e-55
3.34825e-55
3.42524e-55
3.43804e-55
3.45964e-55
3.46232e-55
3.43789e-55
3.42879e-55
3.44375e-55
3.41434e-55
3.41937e-55
3.2621e-55
3.31647e-55
3.26482e-55
3.34218e-55
3.25112e-55
3.31475e-55
3.26465e-55
3.31412e-55
3.28018e-55
3.30984e-55
3.28366e-55
3.35718e-55
3.28832e-55
3.36421e-55
3.29142e-55
3.30795e-55
3.32567e-55
3.25549e-55
3.33456e-55
3.3319e-55
2.90192e-55
2.97492e-55
2.96159e-55
2.92727e-55
2.90984e-55
2.99474e-55
2.94474e-55
2.96412e-55
2.94793e-55
2.90766e-55
2.93096e-55
2.97839e-55
2.93333e-55
3.01126e-55
2.93678e-55
2.97741e-55
2.97818e-55
2.95895e-55
2.98413e-55
2.99978e-55
2.90922e-55
2.91129e-55
2.92157e-55
2.94415e-55
2.94227e-55
2.94365e-55
2.88926e-55
2.95926e-55
2.97174e-55
2.91223e-55
2.95672e-55
2.9786e-55
2.89115e-55
2.98577e-55
2.97795e-55
3.01945e-55
2.95844e-55
2.96899e-55
2.94083e-55
2.99113e-55
1.77387e-55
1.78976e-55
1.79021e-55
1.77104e-55
1.78355e-55
1.78047e-55
1.7821e-55
1.78785e-55
1.76786e-55
1.80017e-55
1.76236e-55
1.8008e-55
1.76666e-55
1.81917e-55
1.77134e-55
1.77451e-55
1.77462e-55
1.80778e-55
1.78425e-55
1.81777e-55
1.1796e-67
1.17415e-67
1.18236e-67
1.16908e-67
1.16677e-67
1.18517e-67
1.17964e-67
1.15526e-67
1.1639e-67
1.19454e-67
1.17182e-67
1.19133e-67
1.1786e-67
1.19376e-67
1.16517e-67
1.19957e-67
1.16296e-67
1.17586e-67
1.17005e-67
1.14149e-67
3.90047e-65
3.88425e-65
3.91089e-65
3.86763e-65
3.85902e-65
3.92029e-65
3.90188e-65
3.82174e-65
3.85026e-65
3.95127e-65
3.87641e-65
3.94008e-65
3.89944e-65
3.9486e-65
3.85477e-65
3.96754e-65
3.84796e-65
3.89017e-65
3.8705e-65
3.77554e-65
6.44162e-63
6.41778e-63
6.46094e-63
6.39055e-63
6.37473e-63
6.47664e-63
6.44604e-63
6.31447e-63
6.36155e-63
6.52778e-63
6.40467e-63
6.50837e-63
6.4437e-63
6.52323e-63
6.36946e-63
6.55404e-63
6.35906e-63
6.42798e-63
6.39481e-63
6.23716e-63
6.3131e-61
6.29262e-61
6.33408e-61
6.26607e-61
6.24901e-61
6.34954e-61
6.31938e-61
6.1912e-61
6.23734e-61
6.39958e-61
6.27946e-61
6.37958e-61
6.31865e-61
6.3949e-61
6.24538e-61
6.42453e-61
6.23603e-61
6.30272e-61
6.2696e-61
6.11437e-61
4.31428e-59
4.30225e-59
4.32997e-59
4.28414e-59
4.27143e-59
4.34056e-59
4.31986e-59
4.23282e-59
4.2644e-59
4.37472e-59
4.29307e-59
4.3604e-59
4.32048e-59
4.37138e-59
4.27007e-59
4.39121e-59
4.2643e-59
4.30923e-59
4.28625e-59
4.17979e-59
2.06521e-57
2.06035e-57
2.07331e-57
2.05166e-57
2.04508e-57
2.07835e-57
2.06841e-57
2.02702e-57
2.0422e-57
2.09467e-57
2.05583e-57
2.0875e-57
2.06921e-57
2.09297e-57
2.04491e-57
2.10222e-57
2.04246e-57
2.06361e-57
2.05248e-57
2.00144e-57
6.82778e-56
6.81467e-56
6.8564e-56
6.7858e-56
6.76239e-56
6.87292e-56
6.84001e-56
6.70421e-56
6.75476e-56
6.9267e-56
6.79939e-56
6.90195e-56
6.84443e-56
6.92076e-56
6.76345e-56
6.95028e-56
6.75656e-56
6.82503e-56
6.78799e-56
6.61944e-56
1.46935e-54
1.46708e-54
1.4758e-54
1.46078e-54
1.45541e-54
1.47924e-54
1.47219e-54
1.44321e-54
1.45429e-54
1.49075e-54
1.46372e-54
1.48522e-54
1.47348e-54
1.48937e-54
1.45592e-54
1.4954e-54
1.45476e-54
1.46907e-54
1.46113e-54
1.42519e-54
9.14521e-54
9.13624e-54
9.18911e-54
9.09653e-54
9.06109e-54
9.20898e-54
9.16597e-54
8.98775e-54
9.05983e-54
9.28005e-54
9.1164e-54
9.24471e-54
9.17637e-54
9.2705e-54
9.06607e-54
9.30455e-54
9.06172e-54
9.14633e-54
9.09785e-54
8.87784e-54
2.36177e-54
2.36477e-54
2.38405e-54
2.34896e-54
2.34523e-54
2.36158e-54
2.36406e-54
2.32669e-54
2.38683e-54
2.37155e-54
2.37719e-54
2.37409e-54
2.35928e-54
2.36239e-54
2.33082e-54
2.34345e-54
2.35074e-54
2.34032e-54
2.34622e-54
2.35069e-54
4.48419e-54
4.50338e-54
4.54984e-54
4.46834e-54
4.45158e-54
4.45459e-54
4.48384e-54
4.43008e-54
4.54625e-54
4.53239e-54
4.54426e-54
4.50681e-54
4.50728e-54
4.47006e-54
4.43901e-54
4.45997e-54
4.41686e-54
4.43922e-54
4.46285e-54
4.44987e-54
4.74927e-54
4.77074e-54
4.802e-54
4.71566e-54
4.73075e-54
4.68507e-54
4.76643e-54
4.72502e-54
4.74941e-54
4.83883e-54
4.78204e-54
4.71197e-54
4.79855e-54
4.76597e-54
4.74575e-54
4.77689e-54
4.64324e-54
4.72452e-54
4.69977e-54
4.69305e-54
5.75778e-54
5.78024e-54
5.80505e-54
5.81319e-54
5.82653e-54
5.8773e-54
5.91185e-54
5.85207e-54
5.83056e-54
5.75997e-54
5.76252e-54
5.77792e-54
5.83151e-54
5.84891e-54
5.78106e-54
5.81155e-54
5.81372e-54
5.79904e-54
5.74753e-54
5.77688e-54
5.99223e-54
5.94765e-54
5.97428e-54
6.065e-54
6.03978e-54
6.0974e-54
5.99275e-54
6.11729e-54
5.95254e-54
5.90676e-54
5.90399e-54
5.96189e-54
5.95224e-54
5.89562e-54
5.88079e-54
5.93563e-54
5.86526e-54
5.96358e-54
5.93039e-54
5.99714e-54
6.36106e-54
6.33446e-54
6.42082e-54
6.34662e-54
6.34882e-54
6.45388e-54
6.39006e-54
6.50342e-54
6.37242e-54
6.46651e-54
6.41197e-54
6.43353e-54
6.43676e-54
6.49558e-54
6.42275e-54
6.52463e-54
6.39757e-54
6.327e-54
6.3958e-54
6.33963e-54
6.14399e-54
6.0942e-54
6.05492e-54
6.07608e-54
6.12699e-54
6.17074e-54
6.15083e-54
6.13243e-54
6.04652e-54
6.06344e-54
5.99755e-54
6.13453e-54
6.15792e-54
6.19539e-54
6.20103e-54
6.15625e-54
6.14133e-54
6.16813e-54
6.1162e-54
6.12501e-54
5.87109e-54
5.96907e-54
5.87632e-54
6.01377e-54
5.85038e-54
5.96395e-54
5.87466e-54
5.96329e-54
5.9032e-54
5.9568e-54
5.90916e-54
6.04164e-54
5.91768e-54
6.05334e-54
5.92401e-54
5.95175e-54
5.98498e-54
5.85924e-54
6.00067e-54
5.99599e-54
5.21714e-54
5.34659e-54
5.32358e-54
5.26181e-54
5.2312e-54
5.3817e-54
5.29235e-54
5.32718e-54
5.29883e-54
5.22641e-54
5.26823e-54
5.35269e-54
5.27259e-54
5.41106e-54
5.27918e-54
5.35134e-54
5.35221e-54
5.31864e-54
5.36251e-54
5.39115e-54
5.27011e-54
5.27368e-54
5.29314e-54
5.33302e-54
5.32919e-54
5.33147e-54
5.23365e-54
5.36105e-54
5.38214e-54
5.27558e-54
5.3557e-54
5.39534e-54
5.23777e-54
5.40781e-54
5.39444e-54
5.46817e-54
5.35946e-54
5.37691e-54
5.32646e-54
5.41657e-54
3.19336e-54
3.22204e-54
3.22323e-54
3.18849e-54
3.21055e-54
3.2051e-54
3.20786e-54
3.21862e-54
3.18188e-54
3.24024e-54
3.17243e-54
3.24117e-54
3.18041e-54
3.27432e-54
3.18876e-54
3.19442e-54
3.19436e-54
3.25381e-54
3.21183e-54
3.27162e-54
2.46044e-66
2.45022e-66
2.46712e-66
2.43989e-66
2.43451e-66
2.47324e-66
2.46163e-66
2.41108e-66
2.42902e-66
2.49291e-66
2.44558e-66
2.48585e-66
2.4601e-66
2.49115e-66
2.43186e-66
2.5031e-66
2.42735e-66
2.45404e-66
2.44156e-66
2.38145e-66
7.9983e-64
7.96893e-64
8.02285e-64
7.93562e-64
7.91612e-64
8.04291e-64
8.00491e-64
7.84153e-64
7.89977e-64
8.1068e-64
7.95353e-64
8.08264e-64
8.00202e-64
8.10088e-64
7.90962e-64
8.13919e-64
7.89601e-64
7.98182e-64
7.94041e-64
7.74373e-64
1.29846e-61
1.29432e-61
1.3029e-61
1.28894e-61
1.28546e-61
1.30618e-61
1.29998e-61
1.27361e-61
1.28306e-61
1.31655e-61
1.29177e-61
1.31243e-61
1.29985e-61
1.31556e-61
1.28475e-61
1.32168e-61
1.28272e-61
1.29649e-61
1.28963e-61
1.25751e-61
1.25367e-59
1.25027e-59
1.25839e-59
1.24509e-59
1.24142e-59
1.26156e-59
1.25553e-59
1.23023e-59
1.23936e-59
1.27155e-59
1.24774e-59
1.26738e-59
1.25572e-59
1.27055e-59
1.24105e-59
1.27635e-59
1.23925e-59
1.25237e-59
1.24564e-59
1.21446e-59
8.42081e-58
8.40196e-58
8.4553e-58
8.36723e-58
8.34053e-58
8.47655e-58
8.43593e-58
8.26705e-58
8.32847e-58
8.54359e-58
8.38452e-58
8.51431e-58
8.4394e-58
8.53659e-58
8.34017e-58
8.57474e-58
8.32934e-58
8.41616e-58
8.37036e-58
8.15998e-58
3.96771e-56
3.96063e-56
3.98516e-56
3.9442e-56
3.93068e-56
3.9951e-56
3.9759e-56
3.89685e-56
3.92591e-56
4.02661e-56
3.95214e-56
4.0122e-56
3.97852e-56
4.02313e-56
3.93142e-56
4.04063e-56
3.92692e-56
3.96714e-56
3.94535e-56
3.84599e-56
1.29058e-54
1.28886e-54
1.29663e-54
1.28348e-54
1.27877e-54
1.29982e-54
1.29357e-54
1.26805e-54
1.27757e-54
1.31004e-54
1.28602e-54
1.30515e-54
1.29475e-54
1.30884e-54
1.27932e-54
1.31433e-54
1.27808e-54
1.29089e-54
1.28376e-54
1.25145e-54
2.72883e-53
2.72624e-53
2.74217e-53
2.71467e-53
2.7041e-53
2.74869e-53
2.73554e-53
2.68204e-53
2.70254e-53
2.77017e-53
2.72008e-53
2.75946e-53
2.73869e-53
2.76746e-53
2.70581e-53
2.77847e-53
2.70378e-53
2.73007e-53
2.71509e-53
2.64735e-53
1.67256e-52
1.67194e-52
1.68143e-52
1.66473e-52
1.65789e-52
1.68512e-52
1.67723e-52
1.64482e-52
1.65796e-52
1.6982e-52
1.66833e-52
1.69145e-52
1.6796e-52
1.69635e-52
1.65926e-52
1.70247e-52
1.65853e-52
1.67383e-52
1.66485e-52
1.62396e-52
4.17049e-53
4.17598e-53
4.21048e-53
4.14826e-53
4.14127e-53
4.16963e-53
4.17409e-53
4.10893e-53
4.21542e-53
4.18828e-53
4.19836e-53
4.19194e-53
4.16691e-53
4.17136e-53
4.1166e-53
4.13748e-53
4.15061e-53
4.13253e-53
4.14331e-53
4.15091e-53
8.02528e-53
8.05913e-53
8.14246e-53
7.99612e-53
7.96699e-53
7.97142e-53
8.02367e-53
7.92873e-53
8.13532e-53
8.1118e-53
8.13196e-53
8.06429e-53
8.06662e-53
8.00035e-53
7.94515e-53
7.9818e-53
7.90416e-53
7.94403e-53
7.98652e-53
7.9619e-53
8.45881e-53
8.49627e-53
8.55245e-53
8.39936e-53
8.42658e-53
8.34707e-53
8.49089e-53
8.41828e-53
8.45822e-53
8.61668e-53
8.51552e-53
8.39171e-53
8.5458e-53
8.48945e-53
8.45325e-53
8.50856e-53
8.27342e-53
8.41446e-53
8.37243e-53
8.35964e-53
1.02927e-52
1.033e-52
1.03758e-52
1.03919e-52
1.04151e-52
1.05062e-52
1.05634e-52
1.04613e-52
1.04212e-52
1.0295e-52
1.02994e-52
1.03275e-52
1.04225e-52
1.04517e-52
1.03337e-52
1.03863e-52
1.03892e-52
1.03658e-52
1.02736e-52
1.03266e-52
1.0682e-52
1.06016e-52
1.06493e-52
1.08088e-52
1.0765e-52
1.0868e-52
1.06812e-52
1.09035e-52
1.06089e-52
1.05312e-52
1.05246e-52
1.06279e-52
1.061e-52
1.051e-52
1.04851e-52
1.05815e-52
1.04563e-52
1.063e-52
1.05733e-52
1.06889e-52
1.13846e-52
1.1337e-52
1.149e-52
1.13564e-52
1.13635e-52
1.15496e-52
1.14354e-52
1.16371e-52
1.14057e-52
1.15734e-52
1.14748e-52
1.15129e-52
1.15197e-52
1.16266e-52
1.14958e-52
1.16753e-52
1.14506e-52
1.13239e-52
1.14471e-52
1.13447e-52
1.09721e-52
1.08864e-52
1.08138e-52
1.08531e-52
1.09419e-52
1.10197e-52
1.09842e-52
1.09521e-52
1.08014e-52
1.08298e-52
1.07126e-52
1.09556e-52
1.09982e-52
1.10629e-52
1.10745e-52
1.09926e-52
1.09685e-52
1.10163e-52
1.0925e-52
1.09404e-52
1.05375e-52
1.07136e-52
1.05475e-52
1.07911e-52
1.04986e-52
1.07007e-52
1.0542e-52
1.07004e-52
1.05944e-52
1.0691e-52
1.06046e-52
1.08426e-52
1.062e-52
1.08618e-52
1.06327e-52
1.06789e-52
1.0741e-52
1.05162e-52
1.07686e-52
1.07603e-52
9.35781e-53
9.58668e-53
9.54721e-53
9.43618e-53
9.38278e-53
9.64882e-53
9.48961e-53
9.55199e-53
9.50248e-53
9.37242e-53
9.44741e-53
9.59742e-53
9.45547e-53
9.70083e-53
9.46804e-53
9.5958e-53
9.59645e-53
9.53815e-53
9.61412e-53
9.66645e-53
9.52671e-53
9.53272e-53
9.56943e-53
9.63974e-53
9.6321e-53
9.63567e-53
9.46016e-53
9.69155e-53
9.72696e-53
9.53657e-53
9.68057e-53
9.75222e-53
9.46891e-53
9.7738e-53
9.75118e-53
9.88177e-53
9.68853e-53
9.71709e-53
9.62686e-53
9.78792e-53
5.74437e-53
5.79613e-53
5.79895e-53
5.73594e-53
5.77484e-53
5.76523e-53
5.76995e-53
5.78993e-53
5.72249e-53
5.82788e-53
5.70631e-53
5.82913e-53
5.72119e-53
5.88892e-53
5.73596e-53
5.746e-53
5.7455e-53
5.85201e-53
5.7772e-53
5.88374e-53
5.12494e-65
5.10616e-65
5.14092e-65
5.08514e-65
5.07276e-65
5.15417e-65
5.12984e-65
5.02516e-65
5.06238e-65
5.19539e-65
5.09696e-65
5.17989e-65
5.12801e-65
5.19143e-65
5.06866e-65
5.21598e-65
5.0595e-65
5.1146e-65
5.08791e-65
4.96143e-65
1.63866e-62
1.63348e-62
1.64438e-62
1.6268e-62
1.62244e-62
1.64864e-62
1.64081e-62
1.60753e-62
1.61942e-62
1.66181e-62
1.63046e-62
1.6566e-62
1.64065e-62
1.6605e-62
1.62156e-62
1.66824e-62
1.61885e-62
1.63627e-62
1.62757e-62
1.58683e-62
2.61439e-60
2.60744e-60
2.62449e-60
2.59684e-60
2.58923e-60
2.63131e-60
2.61875e-60