/*--------------------------------*- C++ -*----------------------------------*\
| =========                 |                                                 |
| \\      /  F ield         | OpenFOAM: The Open Source CFD Toolbox           |
|  \\    /   O peration     | Version:  2212                                  |
|   \\  /    A nd           | Website:  www.openfoam.com                      |
|    \\/     M anipulation  |                                                 |
\*---------------------------------------------------------------------------*/
FoamFile
{
    version     2.0;
    format      ascii;
    arch        "LSB;label=32;scalar=64";
    class       surfaceScalarField;
    location    "0.000279";
    object      phi;
}
// * * * * * * * * * * * * * * * * * * * * * * * * * * * * * * * * * * * * * //

dimensions      [1 0 -1 0 0 0 0];

oriented        oriented;

internalField   nonuniform List<scalar> 
45816
(
-7.34817e-09
5.45403e-09
1.72475e-09
-9.12226e-09
1.55696e-09
-1.06221e-08
1.2574e-09
-1.21312e-08
1.22659e-09
-1.3605e-08
1.08908e-09
-1.50338e-08
9.55783e-10
-1.64909e-08
9.72574e-10
-1.81253e-08
7.88729e-10
-1.96864e-08
7.9092e-10
-2.12958e-08
8.05529e-10
-2.2755e-08
7.05077e-10
-2.3992e-08
5.91552e-10
-2.53212e-08
7.15354e-10
-2.64715e-08
6.81398e-10
-2.754e-08
7.19748e-10
-2.84301e-08
7.16355e-10
-2.92136e-08
7.25244e-10
-2.98397e-08
7.40111e-10
-3.02453e-08
7.09475e-10
-3.03863e-08
6.88722e-10
-3.02985e-08
7.27349e-10
-2.99665e-08
6.99375e-10
-2.9352e-08
6.48668e-10
-2.84928e-08
6.46169e-10
-2.74395e-08
6.80629e-10
-2.62154e-08
6.56282e-10
-2.47957e-08
6.00819e-10
-2.32229e-08
5.96878e-10
-2.15777e-08
6.18689e-10
-1.98837e-08
5.83235e-10
-1.81217e-08
5.37674e-10
-1.63455e-08
5.19598e-10
-1.46043e-08
5.17714e-10
-1.29016e-08
4.92224e-10
-1.12377e-08
4.48378e-10
-9.60554e-09
4.07609e-10
-8.01446e-09
3.69996e-10
-6.50155e-09
3.61387e-10
-5.07158e-09
3.39016e-10
-3.6839e-09
3.02972e-10
-2.35251e-09
2.78102e-10
-1.11835e-09
2.68642e-10
2.61435e-11
2.30852e-10
1.09825e-09
2.13073e-10
2.11068e-09
2.01836e-10
3.03706e-09
1.83598e-10
3.90079e-09
1.45745e-10
4.69908e-09
1.20925e-10
5.43142e-09
1.13523e-10
6.05295e-09
1.14833e-10
6.61868e-09
7.39689e-11
7.0957e-09
6.89017e-11
7.56567e-09
-5.21266e-12
7.95791e-09
-1.21168e-11
8.38465e-09
-1.15268e-10
8.69913e-09
-6.52109e-11
8.96696e-09
-7.81405e-11
9.0181e-09
8.41094e-11
9.03789e-09
8.04805e-11
8.09438e-09
1.00867e-09
5.51853e-09
2.60775e-09
2.11684e-09
-5.65786e-09
9.82358e-09
-4.30837e-09
-3.60661e-10
-1.37846e-07
1.55854e-07
-1.76607e-08
-2.44662e-07
1.07198e-07
-2.21887e-07
-2.24369e-08
-2.1389e-07
-7.72613e-09
-2.00653e-07
-1.30067e-08
-1.84962e-07
-1.5654e-08
-1.68792e-07
-1.60404e-08
-1.54755e-07
-1.41859e-08
-1.43085e-07
-1.16753e-08
-1.30708e-07
-1.21799e-08
-1.21432e-07
-9.03796e-09
-1.11653e-07
-9.63032e-09
-1.04174e-07
-7.21308e-09
-9.63571e-08
-7.56883e-09
-8.9832e-08
-6.11982e-09
-8.27328e-08
-6.74432e-09
-7.65012e-08
-5.95439e-09
-7.06354e-08
-5.65487e-09
-6.53795e-08
-5.07631e-09
-6.09606e-08
-4.27165e-09
-5.65323e-08
-4.27806e-09
-5.27961e-08
-3.5795e-09
-4.89152e-08
-3.75005e-09
-4.59301e-08
-2.86657e-09
-4.24996e-08
-3.31915e-09
-4.01564e-08
-2.25474e-09
-3.75282e-08
-2.57308e-09
-3.55966e-08
-1.88426e-09
-3.34055e-08
-2.14773e-09
-3.18005e-08
-1.60138e-09
-3.00003e-08
-1.8155e-09
-2.85588e-08
-1.44359e-09
-2.70376e-08
-1.51984e-09
-2.58519e-08
-1.19268e-09
-2.45506e-08
-1.31607e-09
-2.3523e-08
-1.04424e-09
-2.25452e-08
-1.00313e-09
-2.17457e-08
-8.34176e-10
-2.083e-08
-9.49384e-10
-2.01223e-08
-7.66086e-10
-1.96391e-08
-5.73697e-10
-1.91442e-08
-5.8861e-10
-1.88065e-08
-4.2941e-10
-1.85516e-08
-3.4509e-10
-1.83813e-08
-2.75733e-10
-1.83085e-08
-1.98426e-10
-1.8053e-08
-3.89954e-10
-1.72379e-08
-9.56569e-10
-1.48268e-08
-2.55295e-09
-5.14706e-09
5.49211e-08
1.01187e-07
6.66474e-08
-1.16454e-08
1.47706e-07
-8.13632e-08
1.29811e-07
1.74552e-08
1.07765e-07
2.18566e-08
8.98135e-08
1.80184e-08
7.29956e-08
1.69065e-08
5.8537e-08
1.4452e-08
4.575e-08
1.27576e-08
3.53146e-08
1.04065e-08
2.80262e-08
7.21697e-09
2.25149e-08
5.49017e-09
1.86489e-08
3.82297e-09
1.59849e-08
2.68086e-09
1.36159e-08
2.35104e-09
1.20012e-08
1.58647e-09
1.04972e-08
1.43895e-09
9.21852e-09
1.28854e-09
8.32279e-09
8.80707e-10
7.29893e-09
1.07616e-09
6.61781e-09
6.08401e-10
5.88233e-09
7.11033e-10
5.27832e-09
5.60099e-10
4.82988e-09
3.99559e-10
4.2815e-09
5.23393e-10
4.03723e-09
2.22349e-10
3.57295e-09
4.5111e-10
3.34399e-09
2.30659e-10
2.9812e-09
3.23398e-10
2.7982e-09
1.44789e-10
2.49727e-09
2.85102e-10
2.37496e-09
1.08095e-10
2.16413e-09
1.73112e-10
2.04761e-09
8.61309e-11
1.84571e-09
1.72165e-10
1.74445e-09
4.63851e-11
1.59866e-09
1.49748e-10
1.56416e-09
4.85383e-11
1.45802e-09
1.29155e-10
1.41348e-09
9.81765e-11
1.29657e-09
8.60458e-11
1.23311e-09
5.19288e-11
1.13176e-09
6.3918e-11
1.0514e-09
-5.86625e-11
9.4212e-10
1.21456e-11
8.84262e-10
7.44833e-11
8.19648e-10
1.74991e-10
7.80699e-10
1.40069e-10
7.29787e-10
8.779e-11
6.90402e-10
3.14888e-11
6.47181e-10
6.65358e-12
6.13001e-10
-9.88744e-12
5.82947e-10
-3.7142e-11
5.55908e-10
-1.41188e-11
5.35795e-10
4.61499e-11
5.20296e-10
3.77121e-11
5.07718e-10
2.07079e-11
5.05326e-10
4.04387e-11
4.92703e-10
6.57427e-12
4.76981e-10
-2.63618e-11
4.52492e-10
2.56083e-12
4.40811e-10
4.01136e-11
4.29219e-10
4.09037e-11
4.21404e-10
1.25358e-11
4.05305e-10
2.26627e-11
3.94962e-10
2.25308e-11
3.78208e-10
1.06559e-11
3.65584e-10
-4.68449e-12
3.49553e-10
8.49639e-12
3.38819e-10
2.02719e-11
3.29299e-10
2.37811e-11
3.14151e-10
2.96814e-11
2.98564e-10
3.45301e-11
2.8294e-10
3.62816e-11
2.66761e-10
4.78367e-11
2.52854e-10
4.74043e-11
2.40866e-10
6.58258e-11
2.31622e-10
1.07161e-10
2.22908e-10
2.02638e-10
2.22716e-10
3.27924e-10
2.32471e-10
4.90436e-10
2.47878e-10
6.13647e-10
2.65635e-10
6.98476e-10
2.82244e-10
7.5172e-10
3.01383e-10
7.21719e-10
3.21506e-10
6.00895e-10
3.26815e-10
4.81887e-10
3.33223e-10
4.45558e-10
3.42771e-10
4.97649e-10
3.54279e-10
5.81117e-10
3.76826e-10
5.62113e-10
3.81379e-10
4.82404e-10
3.73232e-10
4.50511e-10
3.71886e-10
4.89387e-10
3.6627e-10
5.43461e-10
3.82446e-10
4.76843e-10
3.76747e-10
3.35599e-10
3.74375e-10
2.13651e-10
3.6782e-10
1.34835e-10
3.65303e-10
1.13634e-10
3.66059e-10
1.27846e-10
3.68287e-10
1.38808e-10
3.71687e-10
1.62755e-10
3.72765e-10
1.99463e-10
3.85304e-10
2.06532e-10
3.96881e-10
2.12935e-10
4.06919e-10
2.24526e-10
4.19806e-10
2.46941e-10
4.29267e-10
2.61837e-10
4.38811e-10
2.61273e-10
4.47533e-10
2.39928e-10
4.51466e-10
2.28849e-10
4.57993e-10
2.26212e-10
4.70065e-10
2.44095e-10
4.93655e-10
2.46627e-10
5.24909e-10
2.20845e-10
5.58724e-10
1.69478e-10
6.32716e-10
9.52054e-11
7.72152e-10
-1.97504e-11
-1.48811e-09
2.32802e-09
1.09333e-07
-1.92613e-07
1.84779e-07
1.13085e-07
-1.52627e-08
2.07974e-07
-1.76431e-07
1.9593e-07
2.89901e-08
1.85721e-07
3.16705e-08
1.67779e-07
3.59696e-08
1.41609e-07
4.32682e-08
1.1648e-07
3.96269e-08
9.80279e-08
3.11277e-08
8.13307e-08
2.70568e-08
6.71985e-08
2.12184e-08
5.66126e-08
1.60191e-08
4.89045e-08
1.14482e-08
4.27528e-08
8.8641e-09
3.72728e-08
7.80671e-09
3.32609e-08
5.57022e-09
2.93346e-08
5.29925e-09
2.61686e-08
4.46556e-09
2.35781e-08
3.4498e-09
2.09632e-08
3.74933e-09
1.90913e-08
2.41104e-09
1.70003e-08
2.7745e-09
1.55078e-08
2.00395e-09
1.39943e-08
1.8657e-09
1.27502e-08
1.73915e-09
1.17976e-08
1.15037e-09
1.06939e-08
1.53891e-09
9.823e-09
1.10449e-09
8.9933e-09
1.11454e-09
8.29866e-09
8.02253e-10
7.60201e-09
9.61943e-10
7.11207e-09
5.8638e-10
6.60091e-09
6.47207e-10
6.14435e-09
5.09023e-10
5.66453e-09
6.23664e-10
5.2896e-09
3.65582e-10
4.94597e-09
4.94753e-10
4.77219e-09
2.33405e-10
4.48441e-09
4.36964e-10
4.28492e-09
3.53213e-10
3.98351e-09
3.6089e-10
3.75103e-09
2.72256e-10
3.47299e-09
3.11212e-10
3.20095e-09
7.78904e-11
2.91578e-09
1.85963e-10
2.72709e-09
2.6745e-10
2.54694e-09
4.58345e-10
2.41307e-09
3.75668e-10
2.26504e-09
2.79124e-10
2.14078e-09
1.57123e-10
2.01489e-09
1.01205e-10
1.91141e-09
5.21336e-11
1.82009e-09
-1.08754e-11
1.74201e-09
1.7622e-11
1.68505e-09
1.23725e-10
1.63531e-09
1.10432e-10
1.59939e-09
6.43337e-11
1.5845e-09
9.43518e-11
1.54668e-09
4.34829e-11
1.49225e-09
-1.26037e-11
1.42577e-09
4.03479e-11
1.38711e-09
1.04978e-10
1.35316e-09
1.06175e-10
1.32222e-09
4.89796e-11
1.27705e-09
7.34211e-11
1.24173e-09
7.11474e-11
1.1936e-09
5.70272e-11
1.15266e-09
2.08315e-11
1.10531e-09
4.66632e-11
1.07178e-09
6.22719e-11
1.04009e-09
6.93721e-11
9.94558e-10
8.96473e-11
9.47381e-10
1.01124e-10
9.00005e-10
1.05046e-10
8.51349e-10
1.29798e-10
8.0936e-10
1.24197e-10
7.71735e-10
1.58873e-10
7.45874e-10
2.31931e-10
7.23522e-10
4.20627e-10
7.236e-10
6.59289e-10
7.49523e-10
9.71588e-10
7.93056e-10
1.20873e-09
8.43469e-10
1.37619e-09
8.96483e-10
1.48115e-09
9.49744e-10
1.42885e-09
9.99605e-10
1.20411e-09
1.00958e-09
9.88149e-10
1.03044e-09
9.0248e-10
1.06573e-09
9.87825e-10
1.10531e-09
1.14664e-09
1.15549e-09
1.11458e-09
1.16776e-09
9.8022e-10
1.15051e-09
9.35535e-10
1.15491e-09
9.93534e-10
1.14823e-09
1.10287e-09
1.18294e-09
9.44761e-10
1.1615e-09
7.06902e-10
1.15114e-09
4.53095e-10
1.13391e-09
3.00884e-10
1.12759e-09
2.48798e-10
1.13138e-09
2.67136e-10
1.13952e-09
2.84332e-10
1.15137e-09
3.27228e-10
1.16049e-09
3.9983e-10
1.19424e-09
4.01413e-10
1.22615e-09
4.163e-10
1.2557e-09
4.40943e-10
1.29115e-09
4.82044e-10
1.31732e-09
5.16083e-10
1.34217e-09
5.1785e-10
1.36494e-09
4.76505e-10
1.3777e-09
4.59746e-10
1.40129e-09
4.46103e-10
1.43831e-09
4.73752e-10
1.50934e-09
4.56435e-10
1.58895e-09
4.04696e-10
1.68873e-09
2.83187e-10
1.87845e-09
8.33334e-11
2.20558e-09
-2.18934e-10
-2.587e-09
3.37827e-09
-1.74464e-07
-3.5558e-08
-2.58e-07
1.91136e-07
-2.21781e-07
-5.83905e-08
-2.23329e-07
-5.85881e-09
-2.11833e-07
-2.42484e-08
-2.01058e-07
-2.63424e-08
-1.88462e-07
-2.85866e-08
-1.7676e-07
-2.6136e-08
-1.68275e-07
-2.01016e-08
-1.56933e-07
-2.32898e-08
-1.50252e-07
-1.54098e-08
-1.41148e-07
-1.85139e-08
-1.35247e-07
-1.28457e-08
-1.27667e-07
-1.49029e-08
-1.22042e-07
-1.13754e-08
-1.15337e-07
-1.30797e-08
-1.10333e-07
-1.06738e-08
-1.04895e-07
-1.08751e-08
-1.0019e-07
-9.59361e-09
-9.58247e-08
-8.48538e-09
-9.20778e-08
-7.86926e-09
-8.81843e-08
-7.30963e-09
-8.39218e-08
-7.87564e-09
-8.07765e-08
-5.88214e-09
-7.70211e-08
-6.95994e-09
-7.45456e-08
-4.64315e-09
-7.14239e-08
-5.62856e-09
-6.90608e-08
-4.18275e-09
-6.62055e-08
-4.95624e-09
-6.40119e-08
-3.78571e-09
-6.14839e-08
-4.35604e-09
-5.94224e-08
-3.50814e-09
-5.71658e-08
-3.77798e-09
-5.52669e-08
-3.09806e-09
-5.32173e-08
-3.38073e-09
-5.15859e-08
-2.69179e-09
-4.99113e-08
-2.70753e-09
-4.84067e-08
-2.37067e-09
-4.67332e-08
-2.65986e-09
-4.53403e-08
-2.22954e-09
-4.42757e-08
-1.7293e-09
-4.31364e-08
-1.82435e-09
-4.22399e-08
-1.4202e-09
-4.13548e-08
-1.32462e-09
-4.0489e-08
-1.25141e-09
-3.95154e-08
-1.30167e-09
-3.80566e-08
-1.98956e-09
-3.54909e-08
-3.67042e-09
-3.07553e-08
-7.4329e-09
-2.2857e-08
-1.31925e-08
-1.66657e-08
-1.06474e-08
-1.64384e-08
-7.52094e-10
-1.96956e-08
4.80674e-09
-2.28259e-08
4.46439e-09
-2.51422e-08
3.32109e-09
-2.72897e-08
3.0815e-09
-2.90287e-08
2.42741e-09
-3.05078e-08
1.93985e-09
-3.18309e-08
1.77419e-09
-3.31788e-08
1.26198e-09
-3.43559e-08
1.16163e-09
-3.54237e-08
1.035e-09
-3.6366e-08
8.6524e-10
-3.70805e-08
6.35787e-10
-3.78346e-08
8.32206e-10
-3.84011e-08
7.61592e-10
-3.88577e-08
8.13793e-10
-3.91313e-08
8.0668e-10
-3.92743e-08
8.04553e-10
-3.92689e-08
8.50981e-10
-3.90235e-08
7.80418e-10
-3.84935e-08
7.31978e-10
-3.77257e-08
8.02534e-10
-3.67121e-08
7.56575e-10
-3.5402e-08
6.47658e-10
-3.38426e-08
6.48616e-10
-3.21018e-08
7.40871e-10
-3.02036e-08
7.08768e-10
-2.81077e-08
6.00968e-10
-2.58713e-08
6.1181e-10
-2.35866e-08
6.83993e-10
-2.12722e-08
6.33314e-10
-1.89031e-08
5.56667e-10
-1.65423e-08
5.41723e-10
-1.42475e-08
5.64571e-10
-1.20221e-08
5.47546e-10
-9.86289e-09
4.83498e-10
-7.75957e-09
4.21581e-10
-5.71613e-09
3.59658e-10
-3.78152e-09
3.745e-10
-1.96055e-09
3.53911e-10
-2.05909e-10
3.01769e-10
1.44468e-09
3.02646e-10
2.9819e-09
2.92507e-10
4.41111e-09
2.32787e-10
5.75097e-09
2.08712e-10
7.0002e-09
2.14148e-10
8.13995e-09
1.98387e-10
9.20082e-09
1.35128e-10
1.01735e-08
1.04921e-10
1.10601e-08
1.06547e-10
1.18014e-08
1.39528e-10
1.24708e-08
6.97612e-11
1.30249e-08
8.273e-11
1.35745e-08
-7.08086e-11
1.40546e-08
-9.63351e-11
1.46043e-08
-3.40275e-10
1.50341e-08
-2.3482e-10
1.54084e-08
-2.53733e-10
1.54514e-08
1.82466e-10
1.54501e-08
1.86971e-10
1.40179e-08
2.50901e-09
9.14895e-09
7.51054e-09
6.29277e-09
-3.29379e-08
2.94862e-08
8.07731e-09
-3.63025e-08
7.59484e-09
-3.87318e-08
5.48541e-09
-4.09015e-08
4.95045e-09
-4.26162e-08
3.72281e-09
-4.40575e-08
2.87399e-09
-4.53273e-08
2.47016e-09
-4.65861e-08
1.61526e-09
-4.76162e-08
1.34546e-09
-4.84897e-08
1.03482e-09
-4.93298e-08
8.95762e-10
-4.99555e-08
5.65676e-10
-5.05846e-08
8.00232e-10
-5.10247e-08
6.96508e-10
-5.13496e-08
7.62428e-10
-5.14893e-08
7.54221e-10
-5.14972e-08
7.49228e-10
-5.13602e-08
8.3367e-10
-5.09806e-08
7.27968e-10
-5.03063e-08
6.5569e-10
-4.93852e-08
7.57103e-10
-4.82218e-08
7.00226e-10
-4.67572e-08
5.38132e-10
-4.50339e-08
5.58896e-10
-4.31325e-08
7.05993e-10
-4.10785e-08
6.77669e-10
-3.88252e-08
5.20699e-10
-3.64262e-08
5.4486e-10
-3.3981e-08
6.78361e-10
-3.15139e-08
6.20294e-10
-2.89958e-08
5.14982e-10
-2.64838e-08
5.07017e-10
-2.40446e-08
5.50361e-10
-2.16849e-08
5.43933e-10
-1.94022e-08
4.74278e-10
-1.7183e-08
3.97426e-10
-1.50226e-08
3.10614e-10
-1.2977e-08
3.48614e-10
-1.10593e-08
3.41369e-10
-9.21294e-09
2.72222e-10
-7.45021e-09
2.76549e-10
-5.81605e-09
2.80933e-10
-4.30474e-09
2.0687e-10
-2.89597e-09
1.86089e-10
-1.58185e-09
2.10154e-10
-3.69165e-10
1.84448e-10
7.30482e-10
1.26542e-10
1.75312e-09
7.73491e-11
2.68541e-09
8.65722e-11
3.47882e-09
1.42323e-10
4.16827e-09
7.16237e-11
4.75421e-09
8.7816e-11
5.29741e-09
-1.11976e-10
5.83479e-09
-2.21978e-10
6.4086e-09
-5.7615e-10
6.91916e-09
-4.74473e-10
7.29452e-09
-4.21643e-10
7.35212e-09
2.72258e-10
7.66842e-09
-1.90378e-11
7.25468e-09
2.9934e-09
3.55998e-09
1.12409e-08
9.89633e-09
-2.93925e-08
3.43488e-08
-1.57565e-08
-8.27827e-10
-1.95816e-07
1.99142e-07
-3.87575e-08
-2.50607e-07
2.46201e-07
-2.27729e-07
-8.11468e-08
-2.22997e-07
-1.02615e-08
-2.14947e-07
-3.22206e-08
-2.02709e-07
-3.84927e-08
-1.92169e-07
-3.92049e-08
-1.80645e-07
-3.77524e-08
-1.73023e-07
-2.76109e-08
-1.62404e-07
-3.36549e-08
-1.56187e-07
-2.12859e-08
-1.47965e-07
-2.64523e-08
-1.4252e-07
-1.8018e-08
-1.35728e-07
-2.14508e-08
-1.306e-07
-1.61282e-08
-1.24647e-07
-1.86576e-08
-1.20047e-07
-1.49857e-08
-1.15217e-07
-1.5482e-08
-1.10996e-07
-1.36197e-08
-1.07135e-07
-1.21901e-08
-1.03189e-07
-1.16542e-08
-9.98554e-08
-1.04781e-08
-9.59578e-08
-1.16281e-08
-9.29502e-08
-8.76223e-09
-8.99302e-08
-9.84497e-09
-8.76848e-08
-6.77946e-09
-8.48617e-08
-8.3717e-09
-8.24803e-08
-6.49145e-09
-7.97928e-08
-7.58277e-09
-7.77141e-08
-5.84459e-09
-7.5223e-08
-6.85298e-09
-7.32053e-08
-5.53857e-09
-7.08857e-08
-6.11087e-09
-6.90231e-08
-4.96869e-09
-6.68954e-08
-5.52337e-09
-6.53335e-08
-4.27837e-09
-6.34645e-08
-4.59284e-09
-6.17812e-08
-4.08857e-09
-5.99558e-08
-4.53196e-09
-5.85107e-08
-3.74747e-09
-5.72708e-08
-3.06498e-09
-5.59391e-08
-3.2564e-09
-5.48132e-08
-2.6421e-09
-5.34756e-08
-2.76036e-09
-5.20757e-08
-2.76154e-09
-5.04575e-08
-3.05647e-09
-4.83567e-08
-4.2397e-09
-4.53642e-08
-6.81831e-09
-4.08734e-08
-1.2072e-08
-1.98691e-08
1.49763e-07
2.3478e-07
1.42405e-07
-7.66582e-09
2.18586e-07
-2.52881e-07
2.12928e-07
3.42036e-08
2.10592e-07
3.36952e-08
2.0258e-07
4.39586e-08
1.85316e-07
6.07002e-08
1.67321e-07
5.77019e-08
1.4665e-07
5.17618e-08
1.26353e-07
4.72386e-08
1.07998e-07
3.93505e-08
9.18262e-08
3.21802e-08
7.8816e-08
2.42734e-08
6.77509e-08
1.99646e-08
5.89492e-08
1.65572e-08
5.23571e-08
1.21232e-08
4.63607e-08
1.11934e-08
4.18107e-08
9.04906e-09
3.76537e-08
7.57788e-09
3.38602e-08
7.60611e-09
3.09265e-08
5.25619e-09
2.77517e-08
5.92891e-09
2.54816e-08
4.21996e-09
2.30377e-08
4.25705e-09
2.11933e-08
3.55114e-09
1.95621e-08
2.75271e-09
1.78904e-08
3.19266e-09
1.64238e-08
2.57223e-09
1.51599e-08
2.34052e-09
1.39895e-08
1.93505e-09
1.2913e-08
2.0177e-09
1.2061e-08
1.43053e-09
1.12577e-08
1.4173e-09
1.0453e-08
1.27415e-09
9.7136e-09
1.33301e-09
9.06293e-09
9.60288e-10
8.53215e-09
1.02767e-09
8.18882e-09
5.88554e-10
7.71876e-09
9.23798e-10
7.32788e-09
7.98019e-10
6.8493e-09
8.16252e-10
6.43201e-09
6.78013e-10
5.97755e-09
7.37169e-10
5.50864e-09
4.17412e-10
5.05374e-09
5.31368e-10
4.72323e-09
5.92313e-10
4.4231e-09
8.47744e-10
4.1838e-09
7.16579e-10
3.93649e-09
5.7271e-10
3.72288e-09
3.73884e-10
3.51368e-09
2.8446e-10
3.33986e-09
1.90761e-10
3.18649e-09
7.93752e-11
3.0569e-09
9.32308e-11
2.96221e-09
2.32571e-10
2.8761e-09
2.1884e-10
2.81534e-09
1.32049e-10
2.78102e-09
1.68741e-10
2.71612e-09
1.10972e-10
2.61973e-09
4.50839e-11
2.51162e-09
1.17161e-10
2.4421e-09
1.97657e-10
2.3835e-09
1.98424e-10
2.32482e-09
1.13662e-10
2.24937e-09
1.52095e-10
2.18587e-09
1.47104e-10
2.10587e-09
1.38232e-10
2.03456e-09
8.01999e-11
1.95444e-09
1.18198e-10
1.89544e-09
1.28706e-10
1.83825e-09
1.39375e-10
1.76071e-09
1.80507e-10
1.68052e-09
2.00404e-10
1.60002e-09
2.07134e-10
1.51764e-09
2.47281e-10
1.44587e-09
2.32347e-10
1.38154e-09
2.79734e-10
1.33548e-09
3.76103e-10
1.29947e-09
6.48904e-10
1.29771e-09
9.87748e-10
1.33664e-09
1.43319e-09
1.40448e-09
1.77293e-09
1.48458e-09
2.01717e-09
1.57395e-09
2.16891e-09
1.65732e-09
2.11296e-09
1.72806e-09
1.81419e-09
1.74734e-09
1.52626e-09
1.7844e-09
1.37258e-09
1.84978e-09
1.46414e-09
1.91738e-09
1.68789e-09
1.98559e-09
1.66087e-09
2.00657e-09
1.49562e-09
1.98707e-09
1.45362e-09
2.00343e-09
1.50782e-09
1.99904e-09
1.66774e-09
2.03345e-09
1.41549e-09
2.00608e-09
1.10183e-09
1.98968e-09
7.24454e-10
1.96541e-09
5.1096e-10
1.95726e-09
4.18498e-10
1.96472e-09
4.28675e-10
1.9796e-09
4.44358e-10
2.00126e-09
4.97148e-10
2.02089e-09
6.0034e-10
2.07367e-09
5.87485e-10
2.12418e-09
6.13042e-10
2.17204e-09
6.52163e-10
2.22683e-09
7.08858e-10
2.2669e-09
7.65735e-10
2.3035e-09
7.70947e-10
2.3383e-09
7.11043e-10
2.36087e-09
6.93016e-10
2.40328e-09
6.59947e-10
2.465e-09
6.89828e-10
2.57808e-09
6.34655e-10
2.69688e-09
5.61104e-10
2.84811e-09
3.56473e-10
3.12514e-09
-5.3911e-12
3.55681e-09
-5.15281e-10
-3.25154e-09
4.2997e-09
1.89241e-07
-2.29459e-07
2.75645e-07
1.73484e-07
8.25648e-09
2.19865e-07
-2.99517e-07
2.20351e-07
3.34232e-08
2.15702e-07
3.81376e-08
2.12377e-07
4.73088e-08
2.01662e-07
7.16115e-08
1.90184e-07
6.92663e-08
1.76832e-07
6.5101e-08
1.62628e-07
6.13378e-08
1.47108e-07
5.46699e-08
1.29989e-07
4.92213e-08
1.14493e-07
3.96127e-08
1.00743e-07
3.37275e-08
8.9232e-08
2.79577e-08
7.82735e-08
2.30201e-08
6.81615e-08
2.11741e-08
6.03901e-08
1.68531e-08
5.33504e-08
1.45893e-08
4.76916e-08
1.33286e-08
4.3144e-08
9.69897e-09
3.87613e-08
1.02635e-08
3.55912e-08
7.32e-09
3.21765e-08
7.59774e-09
2.975e-08
5.93789e-09
2.73399e-08
5.1225e-09
2.51804e-08
5.33376e-09
2.31467e-08
4.60653e-09
2.14606e-08
3.98559e-09
1.98251e-08
3.53229e-09
1.83925e-08
3.42827e-09
1.72174e-08
2.59988e-09
1.6097e-08
2.51315e-09
1.49477e-08
2.37604e-09
1.39589e-08
2.28673e-09
1.3042e-08
1.81716e-09
1.23255e-08
1.75066e-09
1.18129e-08
1.11722e-09
1.11516e-08
1.59676e-09
1.0545e-08
1.45621e-09
9.88002e-09
1.45965e-09
9.27275e-09
1.2745e-09
8.63692e-09
1.34552e-09
7.97108e-09
9.61241e-10
7.34668e-09
1.04905e-09
6.8672e-09
1.0572e-09
6.43943e-09
1.34716e-09
6.08798e-09
1.15024e-09
5.73993e-09
9.77401e-10
5.43757e-09
6.86454e-10
5.14586e-09
5.58839e-10
4.9038e-09
4.06124e-10
4.69052e-09
2.33854e-10
4.5089e-09
2.15027e-10
4.37407e-09
3.72903e-10
4.25071e-09
3.62489e-10
4.16281e-09
2.25619e-10
4.1029e-09
2.69223e-10
4.00855e-09
2.12826e-10
3.86852e-09
1.48871e-10
3.71637e-09
2.34665e-10
3.61222e-09
3.2127e-10
3.52604e-09
3.21113e-10
3.43693e-09
2.09218e-10
3.32813e-09
2.60561e-10
3.23382e-09
2.51753e-10
3.12075e-09
2.56248e-10
3.01805e-09
1.76576e-10
2.90317e-09
2.26302e-10
2.81594e-09
2.2247e-10
2.72987e-09
2.36687e-10
2.61829e-09
3.0323e-10
2.50397e-09
3.32526e-10
2.38952e-09
3.42675e-10
2.27304e-09
4.00496e-10
2.17025e-09
3.73587e-10
2.07747e-09
4.29688e-10
2.00934e-09
5.39797e-10
1.95965e-09
8.82836e-10
1.95349e-09
1.30806e-09
2.00152e-09
1.86649e-09
2.08796e-09
2.29681e-09
2.19031e-09
2.61109e-09
2.31295e-09
2.79919e-09
2.42167e-09
2.76419e-09
2.51563e-09
2.42553e-09
2.54246e-09
2.09747e-09
2.59566e-09
1.85904e-09
2.69176e-09
1.9263e-09
2.78478e-09
2.1987e-09
2.86506e-09
2.19894e-09
2.89606e-09
2.02391e-09
2.8786e-09
2.0017e-09
2.91171e-09
2.02842e-09
2.91079e-09
2.23093e-09
2.93371e-09
1.89726e-09
2.91066e-09
1.50371e-09
2.89294e-09
1.02993e-09
2.86592e-09
7.75275e-10
2.85803e-09
6.35704e-10
2.86903e-09
6.24879e-10
2.89033e-09
6.28405e-10
2.9219e-09
6.78293e-10
2.95146e-09
8.04417e-10
3.02148e-09
7.68757e-10
3.08867e-09
8.07138e-10
3.15299e-09
8.62454e-10
3.22407e-09
9.32713e-10
3.27502e-09
1.01323e-09
3.3202e-09
1.02129e-09
3.36517e-09
9.43948e-10
3.39764e-09
9.29214e-10
3.45911e-09
8.69264e-10
3.54385e-09
8.95641e-10
3.69235e-09
7.88485e-10
3.84173e-09
6.9932e-10
4.02994e-09
4.04642e-10
4.36827e-09
-1.44495e-10
4.83196e-09
-8.33108e-10
-3.40779e-09
5.07832e-09
-2.18023e-07
-4.99989e-08
-2.43139e-07
2.71492e-07
-2.26069e-07
-9.82266e-08
-2.20119e-07
-1.57317e-08
-2.14342e-07
-3.7903e-08
-2.02599e-07
-5.02643e-08
-1.92806e-07
-4.92206e-08
-1.81852e-07
-4.8864e-08
-1.74551e-07
-3.46919e-08
-1.64766e-07
-4.31366e-08
-1.58694e-07
-2.70561e-08
-1.50981e-07
-3.38414e-08
-1.45593e-07
-2.3064e-08
-1.39156e-07
-2.76202e-08
-1.34128e-07
-2.07589e-08
-1.28629e-07
-2.37667e-08
-1.24012e-07
-1.93113e-08
-1.19429e-07
-1.98383e-08
-1.15277e-07
-1.75709e-08
-1.11503e-07
-1.58005e-08
-1.07779e-07
-1.52075e-08
-1.04735e-07
-1.33528e-08
-1.01033e-07
-1.51743e-08
-9.8211e-08
-1.14404e-08
-9.55301e-08
-1.23775e-08
-9.35081e-08
-8.68642e-09
-9.08412e-08
-1.09483e-08
-8.85764e-08
-8.66823e-09
-8.60207e-08
-1.00874e-08
-8.4096e-08
-7.74112e-09
-8.16644e-08
-9.28245e-09
-7.97237e-08
-7.48044e-09
-7.7443e-08
-8.40467e-09
-7.56837e-08
-6.73559e-09
-7.3604e-08
-7.61965e-09
-7.21518e-08
-5.76291e-09
-7.01896e-08
-6.57636e-09
-6.8481e-08
-5.83075e-09
-6.66956e-08
-6.39021e-09
-6.52903e-08
-5.23067e-09
-6.40105e-08
-4.44156e-09
-6.26703e-08
-4.70285e-09
-6.14134e-08
-3.99854e-09
-5.98205e-08
-4.45547e-09
-5.82097e-08
-4.48755e-09
-5.6408e-08
-4.99962e-09
-5.42939e-08
-6.51298e-09
-5.16768e-08
-9.59615e-09
-4.8344e-08
-1.55706e-08
-4.41144e-08
-2.42611e-08
-4.12101e-08
-1.88189e-08
-4.19158e-08
-2.99044e-10
-4.47895e-08
1.07564e-08
-4.75104e-08
1.00452e-08
-4.96482e-08
7.30924e-09
-5.15809e-08
6.53828e-09
-5.31811e-08
4.89403e-09
-5.45811e-08
3.77445e-09
-5.58524e-08
3.11151e-09
-5.71156e-08
1.94292e-09
-5.81136e-08
1.46597e-09
-5.89628e-08
9.89489e-10
-5.9864e-08
9.58347e-10
-6.05522e-08
5.32513e-10
-6.12239e-08
7.87412e-10
-6.16924e-08
6.43207e-10
-6.20412e-08
7.21578e-10
-6.22032e-08
7.11716e-10
-6.22292e-08
7.17312e-10
-6.21029e-08
8.25926e-10
-6.17217e-08
6.94196e-10
-6.10364e-08
5.94412e-10
-6.00967e-08
7.25772e-10
-5.89044e-08
6.66568e-10
-5.74029e-08
4.5268e-10
-5.5642e-08
4.96764e-10
-5.36941e-08
6.97818e-10
-5.15816e-08
6.57455e-10
-4.9266e-08
4.52783e-10
-4.68005e-08
5.01346e-10
-4.42811e-08
6.8975e-10
-4.17404e-08
6.25847e-10
-3.91485e-08
4.93247e-10
-3.65626e-08
4.88741e-10
-3.40515e-08
5.54039e-10
-3.16258e-08
5.55653e-10
-2.92818e-08
4.87229e-10
-2.70009e-08
3.84733e-10
-2.47783e-08
2.80491e-10
-2.26751e-08
3.41203e-10
-2.071e-08
3.5012e-10
-1.88154e-08
2.6421e-10
-1.70034e-08
2.73864e-10
-1.53257e-08
2.89156e-10
-1.37777e-08
2.09483e-10
-1.23311e-08
1.77569e-10
-1.09763e-08
2.14736e-10
-9.73687e-09
1.904e-10
-8.60309e-09
1.18938e-10
-7.55425e-09
6.1188e-11
-6.60418e-09
7.86409e-11
-5.79081e-09
1.55344e-10
-5.09703e-09
9.48947e-11
-4.49414e-09
9.80544e-11
-3.94374e-09
-1.41529e-10
-3.35076e-09
-3.8747e-10
-2.75233e-09
-8.23491e-10
-2.17797e-09
-7.6738e-10
-1.95137e-09
-4.32321e-10
-1.98168e-09
4.55692e-10
-1.75136e-09
-1.34169e-10
-1.7741e-09
3.08931e-09
-3.23846e-09
1.27427e-08
1.15576e-08
-5.29403e-08
5.07894e-08
1.27098e-08
-5.48131e-08
1.16553e-08
-5.65944e-08
8.75862e-09
-5.82294e-08
7.82807e-09
-5.96846e-08
5.88161e-09
-6.10222e-08
4.60105e-09
-6.22804e-08
3.68588e-09
-6.35437e-08
2.24993e-09
-6.45243e-08
1.54694e-09
-6.53728e-08
9.14537e-10
-6.6326e-08
1.04371e-09
-6.70609e-08
5.20265e-10
-6.77753e-08
7.93379e-10
-6.82716e-08
6.05218e-10
-6.86486e-08
6.93764e-10
-6.88307e-08
6.78216e-10
-6.8873e-08
7.02041e-10
-6.87543e-08
8.29047e-10
-6.8371e-08
6.75601e-10
-6.76715e-08
5.42648e-10
-6.67081e-08
7.05064e-10
-6.54853e-08
6.49598e-10
-6.39483e-08
3.87969e-10
-6.21443e-08
4.45046e-10
-6.01397e-08
6.95873e-10
-5.79635e-08
6.46825e-10
-5.55828e-08
4.01595e-10
-5.30419e-08
4.69213e-10
-5.04402e-08
7.06163e-10
-4.78207e-08
6.40765e-10
-4.51536e-08
4.79494e-10
-4.24865e-08
4.91346e-10
-3.98947e-08
5.71141e-10
-3.73934e-08
5.77117e-10
-3.49788e-08
5.15713e-10
-3.26297e-08
3.83946e-10
-3.0338e-08
2.60627e-10
-2.81685e-08
3.41121e-10
-2.61482e-08
3.7422e-10
-2.42052e-08
2.7459e-10
-2.23372e-08
2.79111e-10
-2.06035e-08
3.035e-10
-1.9012e-08
2.2408e-10
-1.75246e-08
1.80207e-10
-1.61235e-08
2.21996e-10
-1.48452e-08
2.02272e-10
-1.36803e-08
1.20148e-10
-1.26058e-08
5.63931e-11
-1.1628e-08
7.64093e-11
-1.0794e-08
1.7866e-10
-1.00747e-08
1.18791e-10
-9.46735e-09
1.26411e-10
-8.88451e-09
-1.84948e-10
-8.27618e-09
-5.52384e-10
-7.64382e-09
-1.09143e-09
-7.09773e-09
-1.0213e-09
-6.93436e-09
-3.71696e-10
-7.03842e-09
7.19327e-10
-6.82466e-09
-2.27392e-10
-6.80052e-09
3.14109e-09
-6.83468e-09
1.28162e-08
1.19204e-08
-4.95167e-08
5.06653e-08
-2.01311e-08
7.95004e-10
-2.39447e-07
2.56142e-07
-6.64149e-08
-2.35366e-07
2.67532e-07
-2.27974e-07
-1.05926e-07
-2.16461e-07
-2.68918e-08
-2.12198e-07
-4.20135e-08
-2.00249e-07
-6.247e-08
-1.92367e-07
-5.73947e-08
-1.81333e-07
-5.98353e-08
-1.74918e-07
-4.08652e-08
-1.65849e-07
-5.19208e-08
-1.59888e-07
-3.2691e-08
-1.52872e-07
-4.0463e-08
-1.47416e-07
-2.817e-08
-1.41488e-07
-3.32624e-08
-1.36311e-07
-2.55188e-08
-1.31071e-07
-2.86191e-08
-1.26406e-07
-2.36894e-08
-1.22115e-07
-2.38978e-08
-1.18126e-07
-2.13565e-08
-1.14569e-07
-1.91893e-08
-1.10635e-07
-1.89652e-08
-1.07716e-07
-1.60918e-08
-1.04135e-07
-1.85966e-08
-1.01542e-07
-1.38815e-08
-9.86828e-08
-1.50709e-08
-9.68794e-08
-1.03571e-08
-9.42487e-08
-1.34801e-08
-9.21456e-08
-1.06821e-08
-8.96011e-08
-1.25774e-08
-8.77205e-08
-9.59001e-09
-8.5323e-08
-1.16668e-08
-8.34263e-08
-9.36254e-09
-8.1129e-08
-1.06923e-08
-7.93528e-08
-8.53064e-09
-7.73754e-08
-9.63454e-09
-7.58765e-08
-7.29493e-09
-7.39055e-08
-8.60261e-09
-7.21855e-08
-7.60889e-09
-7.03844e-08
-8.28317e-09
-6.89658e-08
-6.73219e-09
-6.76975e-08
-5.7997e-09
-6.63561e-08
-6.15666e-09
-6.50606e-08
-5.3968e-09
-6.33958e-08
-6.22533e-09
-6.17765e-08
-6.22697e-09
-6.0023e-08
-6.8984e-09
-5.80807e-08
-8.623e-09
-5.5865e-08
-1.19802e-08
-5.33209e-08
-1.82848e-08
-2.70854e-08
2.29419e-07
3.02828e-07
2.06776e-07
3.09964e-08
2.22055e-07
-3.14542e-07
2.20933e-07
3.4426e-08
2.16734e-07
4.22901e-08
2.13765e-07
5.03458e-08
2.04633e-07
8.09154e-08
1.95463e-07
7.85011e-08
1.86272e-07
7.43242e-08
1.76277e-07
7.12434e-08
1.65687e-07
6.50783e-08
1.54133e-07
6.06667e-08
1.425e-07
5.10732e-08
1.30497e-07
4.56937e-08
1.17979e-07
4.04134e-08
1.06798e-07
3.40592e-08
9.61724e-08
3.16235e-08
8.57736e-08
2.72456e-08
7.56824e-08
2.47123e-08
6.70824e-08
2.19467e-08
5.95507e-08
1.71434e-08
5.28544e-08
1.68723e-08
4.77301e-08
1.23438e-08
4.2788e-08
1.24064e-08
3.9377e-08
9.30394e-09
3.5798e-08
8.63939e-09
3.30434e-08
8.06905e-09
3.04577e-08
7.17885e-09
2.81338e-08
6.26741e-09
2.58784e-08
5.75139e-09
2.4152e-08
5.14791e-09
2.27284e-08
4.02235e-09
2.11751e-08
4.0498e-09
1.96581e-08
3.83614e-09
1.84237e-08
3.4749e-09
1.72394e-08
2.93544e-09
1.63305e-08
2.67007e-09
1.56453e-08
1.82266e-09
1.47869e-08
2.45115e-09
1.39381e-08
2.34073e-09
1.30791e-08
2.3043e-09
1.22732e-08
2.06896e-09
1.14495e-08
2.14315e-09
1.05833e-08
1.71197e-09
9.7887e-09
1.74114e-09
9.15403e-09
1.66885e-09
8.5928e-09
1.95799e-09
8.12444e-09
1.68076e-09
7.67482e-09
1.47955e-09
7.28683e-09
1.09956e-09
6.91674e-09
9.20419e-10
6.61142e-09
6.95641e-10
6.34291e-09
4.50184e-10
6.10916e-09
3.83279e-10
5.93107e-09
5.46635e-10
5.76955e-09
5.40988e-10
5.65216e-09
3.4649e-10
5.56006e-09
4.01275e-10
5.43364e-09
3.51417e-10
5.24734e-09
3.0152e-10
5.04769e-09
3.96543e-10
4.90442e-09
4.7991e-10
4.78817e-09
4.7713e-10
4.66645e-09
3.38212e-10
4.52079e-09
4.01801e-10
4.39223e-09
3.88351e-10
4.2445e-09
4.12436e-10
4.10916e-09
3.12584e-10
3.9574e-09
3.74528e-10
3.83904e-09
3.47256e-10
3.72036e-09
3.65204e-10
3.57247e-09
4.59216e-10
3.42297e-09
4.97405e-10
3.274e-09
5.11239e-10
3.12403e-09
5.88074e-10
2.98969e-09
5.49126e-10
2.86699e-09
6.09849e-10
2.77412e-09
7.24166e-10
2.71079e-09
1.11837e-09
2.69713e-09
1.61672e-09
2.74981e-09
2.26499e-09
2.84851e-09
2.77341e-09
2.9649e-09
3.15158e-09
3.11217e-09
3.36161e-09
3.24094e-09
3.37127e-09
3.35746e-09
3.0272e-09
3.39482e-09
2.69478e-09
3.46197e-09
2.36302e-09
3.58615e-09
2.37619e-09
3.70178e-09
2.67958e-09
3.7891e-09
2.72618e-09
3.83176e-09
2.55846e-09
3.81982e-09
2.57129e-09
3.87364e-09
2.54674e-09
3.87858e-09
2.78401e-09
3.88965e-09
2.39043e-09
3.87559e-09
1.90443e-09
3.86197e-09
1.37153e-09
3.83695e-09
1.10076e-09
3.83157e-09
9.12352e-10
3.84586e-09
8.68203e-10
3.87231e-09
8.47323e-10
3.91214e-09
8.78258e-10
3.94893e-09
1.01844e-09
4.03356e-09
9.5167e-10
4.11495e-09
1.00456e-09
4.19391e-09
1.07707e-09
4.27867e-09
1.1589e-09
4.33823e-09
1.26138e-09
4.38931e-09
1.2703e-09
4.44235e-09
1.17568e-09
4.48389e-09
1.16846e-09
4.56299e-09
1.07676e-09
4.66793e-09
1.09582e-09
4.84492e-09
9.25905e-10
5.0166e-09
8.28262e-10
5.2292e-09
4.41243e-10
5.61041e-09
-3.1299e-10
6.04163e-09
-1.10462e-09
-3.59771e-09
6.32926e-09
2.69616e-07
-2.77396e-07
3.1084e-07
2.42025e-07
5.87766e-08
2.19916e-07
-2.92192e-07
2.172e-07
3.71301e-08
2.14291e-07
4.52542e-08
2.13207e-07
5.15586e-08
2.06542e-07
8.77938e-08
1.98114e-07
8.701e-08
1.9017e-07
8.22937e-08
1.81901e-07
7.94398e-08
1.73904e-07
7.29091e-08
1.6568e-07
6.87389e-08
1.57504e-07
5.90701e-08
1.49591e-07
5.35435e-08
1.41334e-07
4.86077e-08
1.31985e-07
4.331e-08
1.213e-07
4.21508e-08
1.11571e-07