/*--------------------------------*- C++ -*----------------------------------*\
| =========                 |                                                 |
| \\      /  F ield         | OpenFOAM: The Open Source CFD Toolbox           |
|  \\    /   O peration     | Version:  2212                                  |
|   \\  /    A nd           | Website:  www.openfoam.com                      |
|    \\/     M anipulation  |                                                 |
\*---------------------------------------------------------------------------*/
FoamFile
{
    version     2.0;
    format      ascii;
    arch        "LSB;label=32;scalar=64";
    class       volVectorField;
    location    "0.00018";
    object      U;
}
// * * * * * * * * * * * * * * * * * * * * * * * * * * * * * * * * * * * * * //

dimensions      [0 1 -1 0 0 0 0];

internalField   nonuniform List<vector> 
22212
(
(-5.7e-12 19.2 5.58)
(-6.17e-12 17.2 5.89)
(1.39e-12 17.1 3.2)
(-2.56e-11 18.4 2.53)
(1.38e-11 20 1.1)
(-4.91e-11 21.6 0.572)
(2.66e-11 22.5 0.158)
(-4.66e-11 23.1 -0.209)
(1.35e-11 23.4 -0.357)
(3.76e-11 23.6 -0.464)
(-1.88e-11 23.7 -0.558)
(2.2e-11 23.7 -0.639)
(-2.69e-11 23.8 -0.717)
(4.34e-11 23.8 -0.779)
(2.27e-11 23.8 -0.83)
(-5.95e-12 23.8 -0.894)
(1.8e-12 23.7 -0.957)
(1.51e-12 23.7 -1.01)
(8.29e-12 23.7 -1.02)
(-5.07e-13 23.7 -1.04)
(1.46e-11 23.8 -1.07)
(-8.64e-12 23.8 -1.12)
(1.38e-12 23.8 -1.17)
(-1.33e-11 23.8 -1.22)
(-1.83e-11 23.9 -1.27)
(-1.59e-11 23.9 -1.3)
(1.47e-11 24 -1.38)
(-2.97e-11 24 -1.45)
(2.76e-11 24 -1.53)
(-2.48e-11 24.1 -1.62)
(7.42e-12 24.1 -1.72)
(-1.04e-11 24.2 -1.77)
(-7.85e-13 24.3 -1.84)
(-2.53e-11 24.5 -1.84)
(-2.31e-12 24.6 -1.77)
(5.07e-11 24.7 -1.76)
(-2.91e-11 24.8 -1.76)
(1.5e-11 24.8 -1.79)
(1.12e-11 24.8 -1.83)
(-4.62e-12 24.9 -1.87)
(1.42e-12 25.1 -1.98)
(4.74e-12 25.3 -2.08)
(1.78e-11 25.5 -2.13)
(-1.28e-11 25.8 -2.16)
(2.04e-11 26.1 -2.07)
(-1.6e-11 26.5 -1.99)
(-1.93e-11 26.9 -1.84)
(-1.15e-12 27 -1.62)
(4.01e-12 27.3 -1.37)
(6.44e-12 27.5 -1.12)
(-1.21e-12 27.8 -1.02)
(-2.76e-11 27.9 -0.984)
(1.21e-11 28.2 -0.846)
(-2.03e-11 28.6 -0.604)
(-2.59e-11 29.1 -0.259)
(4.7e-11 29.3 0.0338)
(-1.89e-11 29.5 0.286)
(-1.48e-13 29.6 0.563)
(1.07e-12 29.9 0.801)
(3.75e-12 29.9 1.14)
(-1.51e-12 30.1 1.45)
(-1.42e-13 30.3 1.88)
(-1.4e-11 30.4 2.1)
(-1.33e-11 30.4 2.12)
(-1.22e-11 30.5 2.23)
(-4.19e-11 30.6 2.5)
(4.03e-11 30.8 2.71)
(2.38e-12 31 2.78)
(-2.03e-12 31.1 2.95)
(-2.57e-11 31.3 3.25)
(3.78e-11 31.6 3.5)
(-1.31e-11 31.6 3.62)
(4.88e-13 31.7 3.77)
(2.02e-12 32 4.1)
(1.97e-11 32.1 4.42)
(-5.81e-11 32.1 4.47)
(1.46e-12 32.4 4.67)
(-4.17e-11 32.7 4.88)
(-6.25e-13 32.8 5.06)
(-1.32e-11 32.9 5.28)
(1.18e-11 33.1 5.41)
(1.57e-11 33.2 5.61)
(-1.16e-11 33.5 5.99)
(6.2e-12 33.6 6.27)
(-2.14e-12 33.8 6.45)
(7.05e-13 34 6.8)
(-1.18e-13 34.1 7.06)
(-7.14e-13 34.1 7.26)
(-1.18e-12 34.3 7.6)
(-4.47e-12 34.4 7.91)
(-9.54e-12 34.4 8.16)
(-1.23e-11 34.4 8.45)
(-4.32e-12 34.5 8.68)
(5.79e-12 34.5 8.83)
(-3.74e-12 34.7 9.08)
(2.95e-12 34.9 9.49)
(1.62e-11 34.9 9.83)
(-2.09e-11 34.8 10.1)
(6.66e-12 34.8 10.4)
(-7.01e-13 34.8 10.8)
(2.32e-11 34.6 11.1)
(-2.22e-11 34.4 11.2)
(2.21e-11 34.4 11.4)
(-2.36e-11 34.4 11.8)
(-1.06e-11 34.4 12.1)
(1.34e-11 34.1 12.2)
(-1.53e-12 33.9 12.4)
(2.33e-11 33.8 12.6)
(-3.02e-12 33.6 12.7)
(5.03e-12 33.5 12.9)
(1.02e-11 33.3 13)
(1.55e-11 33.2 13.1)
(1.85e-11 33 13.3)
(4.03e-12 32.9 13.5)
(-1.56e-11 32.7 13.7)
(8.87e-12 32.4 13.8)
(-9.63e-13 32.1 13.6)
(-1.89e-11 31.8 13.5)
(-1.69e-11 31.7 13.5)
(-2.39e-11 31.8 13.7)
(-3.95e-12 31.6 13.7)
(6.33e-12 31.2 13.3)
(-8.3e-12 31 13.1)
(2.47e-12 31 13.2)
(-7.55e-12 31 13.3)
(7.13e-13 30.7 13.1)
(3.4e-12 30.5 13)
(2.71e-13 30.3 13)
(-5.84e-12 30.3 13)
(-7.63e-12 30.2 13)
(3.61e-12 30.1 12.9)
(2.41e-12 29.7 12.6)
(-1.33e-11 29.5 12.3)
(1.54e-11 29.5 12.3)
(-5.68e-12 29.4 12.2)
(1.86e-11 29.3 11.9)
(1.62e-11 29.2 11.7)
(4.96e-12 29.4 11.7)
(5.26e-12 29.4 11.7)
(-3.9e-12 29.3 11.4)
(-1.62e-12 29.2 11)
(-7.4e-13 29.3 10.8)
(3.34e-12 29.4 10.9)
(-3.51e-13 29.3 10.8)
(1.01e-11 29.1 10.5)
(-6.31e-12 29.1 10.1)
(-2.76e-13 29.1 10)
(-8.61e-13 29.3 9.94)
(4.67e-12 29.4 9.92)
(-5.57e-12 29.5 9.85)
(-1.17e-11 29.5 9.72)
(-4.17e-12 29.4 9.52)
(8.06e-12 29.4 9.34)
(3.6e-12 29.5 9.31)
(-2.89e-12 29.5 9.26)
(-7.29e-12 29.5 9.08)
(-6.86e-12 29.5 8.92)
(-1.65e-13 29.5 8.83)
(-3.73e-12 29.6 8.76)
(1.54e-11 29.6 8.77)
(-1.82e-11 29.7 8.69)
(-4.7e-13 29.7 8.53)
(5.16e-12 29.8 8.44)
(1.87e-11 29.8 8.35)
(-8.71e-12 29.7 8.3)
(1.57e-11 29.6 8.28)
(-1.24e-11 29.5 8.19)
(-7.73e-12 29.3 8.03)
(5.79e-12 28.8 7.9)
(-8.49e-12 27.3 8.46)
(3.75e-13 23.9 11)
(3.2e-11 18.2 14.9)
(-2.8e-11 14 17.8)
(1.28e-11 11.8 19.2)
(-9.06e-12 10.6 20.1)
(5.47e-13 10 20.7)
(-6.83e-12 19 4.66)
(-9.28e-12 16.8 4.84)
(4.3e-12 16.9 3.68)
(-2.49e-11 17.7 3.91)
(2.48e-11 19.1 2.64)
(-1.59e-11 20.9 1.84)
(3.48e-11 22 1)
(-2.88e-11 22.7 0.427)
(3.52e-11 23.1 0.0386)
(4.28e-11 23.3 -0.229)
(-2.44e-11 23.4 -0.409)
(2.55e-11 23.5 -0.546)
(-3.59e-11 23.5 -0.639)
(2.22e-11 23.5 -0.714)
(2.65e-11 23.5 -0.811)
(-5.32e-12 23.4 -0.922)
(-2.07e-13 23.4 -0.975)
(-6.87e-12 23.4 -0.977)
(2.78e-12 23.4 -0.964)
(5.27e-12 23.5 -0.982)
(1.06e-11 23.5 -1.03)
(4.86e-13 23.6 -1.07)
(4.67e-12 23.7 -1.08)
(3.79e-11 23.7 -1.1)
(4.33e-11 23.7 -1.15)
(2.07e-13 23.8 -1.23)
(6.51e-12 23.8 -1.31)
(-1.96e-11 23.8 -1.36)
(3.93e-12 23.8 -1.43)
(-3.17e-11 23.9 -1.49)
(1.21e-11 23.9 -1.54)
(-3.4e-11 24.1 -1.53)
(-1.4e-11 24.2 -1.55)
(-3.33e-11 24.4 -1.57)
(-1.27e-11 24.5 -1.59)
(5.56e-11 24.6 -1.61)
(-2.65e-11 24.6 -1.61)
(6.48e-12 24.7 -1.64)
(1.19e-11 24.8 -1.67)
(-9.03e-12 24.9 -1.69)
(4.38e-12 25 -1.71)
(8.28e-12 25.2 -1.75)
(1.84e-11 25.4 -1.75)
(-2.35e-12 25.7 -1.71)
(9.73e-12 26.1 -1.61)
(-9.19e-12 26.3 -1.53)
(-5.65e-12 26.6 -1.45)
(-7.29e-12 26.9 -1.26)
(2.42e-12 27.1 -1.03)
(-1.76e-11 27.3 -0.863)
(1.48e-11 27.4 -0.785)
(-7.88e-12 27.7 -0.625)
(-1.52e-11 28.1 -0.316)
(-1.26e-11 28.6 -0.0963)
(-5.75e-11 28.9 0.094)
(5.48e-11 29.1 0.293)
(8.07e-12 29.3 0.609)
(-1.77e-12 29.5 0.922)
(1.36e-11 29.7 1.09)
(-8.68e-13 29.9 1.41)
(-8.2e-12 30.2 1.73)
(1.05e-11 30.3 1.94)
(-1.51e-11 30.3 2.11)
(-7.02e-12 30.3 2.26)
(-2.98e-12 30.5 2.47)
(-4.15e-11 30.8 2.7)
(2.88e-11 30.9 2.85)
(1.13e-11 31 3.04)
(-4.51e-12 31.3 3.3)
(-2.58e-11 31.5 3.48)
(2.44e-11 31.6 3.59)
(7.29e-14 31.6 3.78)
(-5.38e-12 31.9 4.08)
(1.67e-13 32.1 4.27)
(2.95e-11 32.1 4.41)
(-5.72e-11 32.2 4.59)
(9.78e-12 32.6 4.86)
(-2.69e-11 32.6 4.97)
(6.17e-12 32.8 5.17)
(-9.71e-12 33 5.44)
(1.92e-11 33.1 5.57)
(1.34e-11 33.4 5.83)
(-1e-11 33.6 6.06)
(5.24e-12 33.7 6.34)
(-2.02e-12 33.9 6.7)
(5.12e-13 34.1 6.92)
(2.15e-13 34.1 7.12)
(-6.29e-13 34.3 7.45)
(-6.89e-13 34.4 7.71)
(-2.62e-12 34.4 7.94)
(-4.64e-12 34.5 8.25)
(-5.34e-12 34.6 8.51)
(-5.5e-13 34.6 8.69)
(3.94e-12 34.7 8.96)
(-2.52e-12 34.9 9.26)
(5.05e-12 34.9 9.47)
(1.61e-11 34.8 9.73)
(-2.31e-11 34.8 10.1)
(5.17e-12 34.9 10.5)
(-2.41e-13 34.9 10.7)
(2.39e-11 34.7 10.9)
(-2.85e-11 34.6 11.2)
(2.68e-11 34.6 11.5)
(-2.84e-11 34.6 11.7)
(-1.42e-11 34.4 11.8)
(1.67e-11 34.2 12.1)
(4.97e-11 34.2 12.4)
(5.49e-11 34 12.5)
(-9.31e-13 33.8 12.6)
(7.78e-12 33.7 12.7)
(1.1e-11 33.5 12.9)
(2.08e-11 33.4 13)
(1.89e-11 33.2 13.1)
(1.16e-12 33.1 13.3)
(-1.91e-11 33 13.5)
(7.37e-12 32.7 13.5)
(-1.82e-11 32.3 13.3)
(-1.53e-11 32.1 13.3)
(-1.67e-11 32.1 13.5)
(-3.88e-11 32 13.5)
(-3.55e-12 31.6 13.3)
(7.88e-12 31.4 13.2)
(-1.41e-11 31.4 13.2)
(5.44e-12 31.5 13.1)
(-1.02e-11 31.3 13)
(4.55e-12 31 12.9)
(5.47e-12 30.9 12.9)
(4.29e-12 30.8 12.9)
(-1.29e-11 30.7 12.9)
(-3.23e-12 30.5 12.8)
(9.15e-12 30.3 12.5)
(-2.94e-12 30 12.4)
(-1.83e-11 30 12.3)
(2.64e-11 30 12.2)
(-1.39e-11 29.8 12)
(2.2e-11 29.6 11.8)
(1.52e-11 29.7 11.8)
(8.89e-12 29.9 11.7)
(9.43e-12 29.8 11.5)
(-4.74e-12 29.5 11.2)
(-4.56e-13 29.5 11)
(1.09e-12 29.6 11)
(2.08e-12 29.7 10.7)
(-2.4e-12 29.5 10.5)
(1.24e-11 29.3 10.4)
(-9.09e-12 29.3 10.2)
(2.75e-12 29.3 10.1)
(-5.01e-12 29.5 10)
(-7.62e-14 29.6 9.92)
(-1.33e-11 29.6 9.78)
(-1.27e-11 29.5 9.62)
(-6.84e-12 29.5 9.47)
(8.35e-12 29.6 9.39)
(5.04e-12 29.7 9.31)
(-5.3e-12 29.7 9.14)
(-1.15e-11 29.7 9)
(-1.21e-12 29.7 8.88)
(-2.32e-12 29.7 8.84)
(-1.62e-11 29.8 8.83)
(1.2e-11 29.9 8.76)
(-2.64e-11 29.8 8.65)
(-9.64e-12 29.9 8.54)
(5.81e-12 30 8.47)
(9.39e-12 30 8.27)
(-4.41e-12 29.9 8.09)
(1.56e-11 29.8 7.98)
(-7.14e-13 29.5 7.83)
(1.55e-12 29.1 7.68)
(-1.8e-11 28.6 7.62)
(-1.46e-11 28 7.6)
(2.46e-11 26.5 7.52)
(2.63e-11 22.6 9.54)
(-3.82e-11 17 13.8)
(3e-11 13.5 17)
(-1.04e-11 11.4 18.9)
(3.18e-12 10.4 20.1)
(-2.49e-12 17.4 4.5)
(-8.27e-12 16.3 4.91)
(7.11e-12 16.7 4.05)
(1.07e-11 17.3 4.42)
(-2.9e-11 18.2 3.62)
(-2.78e-11 19.4 2.88)
(5.19e-11 20.7 1.77)
(-4.49e-11 21.6 0.953)
(-2.18e-11 22.2 0.386)
(7.96e-11 22.6 -0.00501)
(1.7e-11 22.8 -0.286)
(3.85e-11 23 -0.503)
(-2.79e-11 23.1 -0.624)
(2.92e-12 23.1 -0.735)
(2.39e-11 23.1 -0.86)
(-9.7e-12 23.1 -0.95)
(-9.96e-13 23.1 -0.958)
(-1.39e-11 23.1 -0.932)
(-1.99e-13 23.2 -0.902)
(5.17e-12 23.2 -0.904)
(1.36e-11 23.3 -0.927)
(1.2e-12 23.4 -0.961)
(5.66e-12 23.5 -1.01)
(-1.33e-12 23.5 -1.1)
(-8.57e-12 23.5 -1.18)
(-1.31e-12 23.5 -1.23)
(-4.06e-13 23.6 -1.29)
(-6.73e-12 23.7 -1.34)
(1.67e-12 23.7 -1.41)
(-2.68e-11 23.8 -1.45)
(1.33e-11 23.9 -1.43)
(-3.36e-11 24 -1.43)
(-8.64e-12 24.1 -1.44)
(-2.75e-11 24.2 -1.49)
(-1.9e-11 24.3 -1.54)
(3.39e-11 24.4 -1.56)
(-3.17e-11 24.5 -1.58)
(-1.81e-12 24.5 -1.59)
(8.2e-13 24.7 -1.6)
(-1.62e-11 24.8 -1.61)
(7.91e-12 24.9 -1.62)
(7.57e-12 25.1 -1.63)
(2.22e-11 25.4 -1.58)
(5.13e-12 25.6 -1.51)
(-7.55e-13 25.9 -1.43)
(7.89e-11 26.1 -1.37)
(1.02e-10 26.4 -1.26)
(2.09e-12 26.8 -1.09)
(1.62e-11 27.1 -0.952)
(-3.69e-11 27.2 -0.834)
(1.04e-10 27.4 -0.639)
(1.14e-10 27.7 -0.357)
(-3.4e-11 28.1 -0.0561)
(3.19e-12 28.4 0.11)
(-4.73e-11 28.6 0.254)
(3.76e-11 28.9 0.493)
(2.85e-11 29.2 0.724)
(8.56e-12 29.3 0.922)
(1.55e-11 29.5 1.18)
(-6.99e-14 29.8 1.59)
(-1.75e-11 29.9 1.85)
(2.41e-11 30 1.98)
(-1.53e-11 30.1 2.09)
(3.57e-12 30.2 2.34)
(4.6e-12 30.4 2.68)
(-2.74e-11 30.6 2.9)
(7.86e-12 30.7 2.95)
(1.38e-11 30.9 3.12)
(3.54e-12 31.1 3.43)
(-2.01e-11 31.2 3.57)
(5.19e-12 31.3 3.65)
(1.45e-11 31.5 3.92)
(-1.8e-12 31.6 4.25)
(-8.44e-12 31.7 4.36)
(4.16e-11 31.9 4.59)
(-3.96e-11 32.2 4.88)
(2.42e-11 32.3 4.98)
(3.31e-13 32.4 5.16)
(2.33e-11 32.6 5.41)
(4.06e-12 32.8 5.63)
(1.12e-10 32.9 5.86)
(5.81e-11 33.2 6.07)
(-1.97e-12 33.3 6.25)
(2.55e-12 33.5 6.55)
(-1.82e-12 33.7 6.88)
(9.19e-14 33.7 7.02)
(5.99e-13 33.9 7.26)
(-6.44e-13 34.1 7.62)
(8.79e-14 34.1 7.82)
(1.3e-12 34.2 8.08)
(5.75e-12 34.4 8.43)
(8.29e-12 34.3 8.61)
(5.84e-12 34.4 8.78)
(3.69e-14 34.6 9.09)
(5.03e-13 34.6 9.34)
(8.23e-12 34.5 9.47)
(1.49e-11 34.6 9.74)
(-2.13e-11 34.7 10.1)
(1.78e-12 34.6 10.4)
(1.82e-12 34.5 10.6)
(2.01e-11 34.5 10.8)
(-3.34e-11 34.5 11.2)
(3.33e-11 34.4 11.5)
(-3.08e-11 34.3 11.6)
(-1.58e-11 34.2 11.7)
(4.36e-12 34.2 12)
(-5.1e-11 34 12.2)
(-4.65e-11 33.8 12.2)
(2.06e-11 33.7 12.4)
(7.22e-12 33.5 12.6)
(1.35e-11 33.3 12.7)
(2.4e-11 33.1 12.7)
(1.48e-11 33 13)
(-6.36e-12 32.8 13.2)
(-2.32e-11 32.7 13.2)
(-3.57e-12 32.4 13.1)
(-5.44e-11 32.1 13.1)
(2.94e-12 32.1 13.2)
(-1.97e-11 32.1 13.3)
(-5.79e-11 31.8 13.2)
(1.26e-12 31.5 13)
(9e-12 31.5 13.1)
(-2.04e-11 31.4 13.1)
(9.44e-12 31.2 13)
(-1.42e-11 31.1 12.8)
(1.27e-11 31 12.7)
(6.75e-12 30.9 12.7)
(7.61e-12 30.7 12.6)
(-1.94e-11 30.5 12.7)
(8.24e-12 30.3 12.5)
(1.72e-11 30.1 12.3)
(-1.4e-11 30 12.3)
(-1.53e-11 30 12.3)
(4.13e-11 29.9 12.1)
(-2.39e-11 29.7 11.8)
(2.25e-11 29.7 11.8)
(8.99e-12 29.8 11.9)
(1.02e-11 29.7 11.7)
(8.16e-12 29.6 11.3)
(-1.05e-11 29.5 11.1)
(6.84e-13 29.5 11)
(3.26e-12 29.5 11)
(-1.57e-12 29.4 10.7)
(-4.85e-12 29.4 10.4)
(1.5e-11 29.3 10.3)
(-1.1e-11 29.2 10.1)
(8.86e-12 29.3 10)
(-7.49e-12 29.3 10.1)
(7.91e-13 29.3 9.97)
(-1.46e-11 29.3 9.74)
(-3.46e-12 29.4 9.6)
(-5.65e-12 29.4 9.54)
(1.28e-11 29.5 9.42)
(4.1e-12 29.5 9.3)
(-4.64e-12 29.5 9.16)
(-3.03e-12 29.5 9)
(3.74e-12 29.6 8.9)
(-5.45e-12 29.6 8.88)
(1.87e-11 29.6 8.85)
(3.67e-11 29.6 8.73)
(-1.48e-11 29.5 8.61)
(-2.36e-11 29.4 8.55)
(4.15e-12 29.3 8.41)
(-5.86e-12 29.1 8.16)
(4.36e-12 29 7.95)
(-2.76e-12 28.7 7.73)
(1.86e-11 28.3 7.5)
(2.19e-11 27.8 7.33)
(8.45e-12 27.1 7.27)
(2.2e-11 26.2 7.16)
(3.47e-11 25.1 6.67)
(1.56e-12 23.9 6.61)
(-3.31e-11 20.3 9.51)
(3.78e-11 15.8 13.8)
(-1.54e-11 12.6 16.9)
(2.26e-12 10.9 19)
(4.95e-12 17 4.7)
(5.84e-12 16.4 4.92)
(-5.14e-12 16.7 4.48)
(7.16e-12 17.3 4.76)
(4.56e-11 18.2 3.94)
(-2.3e-11 19 3.58)
(8.08e-13 20.1 2.59)
(2e-11 21.1 1.58)
(-8.05e-12 21.8 0.846)
(3.54e-11 22.3 0.325)
(1.64e-11 22.7 -0.0798)
(8.28e-11 22.9 -0.374)
(2.78e-11 23.1 -0.591)
(4.18e-12 23.1 -0.777)
(2.19e-11 23 -0.921)
(-1.94e-11 23 -0.954)
(3.12e-12 23 -0.924)
(-1.61e-11 23 -0.897)
(-5.99e-12 23.1 -0.873)
(5.99e-12 23.1 -0.871)
(1.82e-11 23.2 -0.854)
(3.13e-12 23.2 -0.881)
(1.33e-12 23.2 -0.967)
(7.8e-12 23.2 -1.08)
(-4.47e-12 23.3 -1.15)
(-5.85e-12 23.4 -1.18)
(-1.11e-11 23.5 -1.2)
(5.18e-13 23.6 -1.24)
(-3.65e-12 23.7 -1.32)
(-1.94e-11 23.8 -1.32)
(3.45e-12 23.9 -1.33)
(3.1e-11 23.9 -1.34)
(7.72e-11 24 -1.39)
(-7.45e-12 24 -1.4)
(-1.71e-11 24.1 -1.4)
(-1.27e-11 24.2 -1.43)
(-5.08e-11 24.4 -1.44)
(-1.37e-11 24.5 -1.45)
(-1.7e-11 24.6 -1.45)
(-2.51e-11 24.8 -1.43)
(1.12e-11 24.9 -1.39)
(1.02e-11 25.1 -1.35)
(1.69e-11 25.3 -1.26)
(1.2e-11 25.5 -1.14)
(7.24e-12 25.8 -1.12)
(-5.69e-11 26 -1.02)
(-4.04e-11 26.3 -0.812)
(-7.97e-12 26.6 -0.68)
(4.51e-11 26.8 -0.649)
(-3.77e-11 27 -0.557)
(-5.43e-11 27.2 -0.268)
(-3.17e-11 27.6 0.0574)
(-4.22e-11 27.9 0.257)
(3.05e-11 28 0.409)
(-2.27e-11 28.4 0.605)
(2.47e-11 28.7 0.821)
(4.08e-11 28.9 0.954)
(1.79e-11 29 1.17)
(1.82e-11 29.3 1.5)
(5.75e-13 29.6 1.8)
(-2.71e-11 29.7 1.96)
(3.58e-11 29.7 2.07)
(-1.69e-11 29.8 2.27)
(1.19e-11 30.1 2.63)
(2.88e-12 30.3 2.92)
(-1.55e-11 30.4 3.02)
(3.37e-12 30.5 3.18)
(1.62e-11 30.8 3.46)
(4.62e-12 30.9 3.64)
(-7.15e-12 31 3.72)
(-9.67e-13 31.1 3.9)
(2.09e-11 31.4 4.17)
(4.7e-12 31.5 4.34)
(-1.44e-11 31.6 4.54)
(3.9e-11 31.9 4.85)
(-2.22e-11 32 5.05)
(1.41e-11 32.1 5.18)
(6.81e-11 32.4 5.4)
(7.6e-11 32.6 5.61)
(-6.61e-12 32.7 5.79)
(-9.09e-11 32.9 6.04)
(-1.04e-10 33.1 6.22)
(1.19e-11 33.2 6.46)
(3.17e-12 33.5 6.79)
(-2.75e-12 33.6 6.94)
(-1.02e-13 33.6 7.13)
(4.07e-13 33.9 7.44)
(-9.61e-13 33.9 7.65)
(3.61e-13 33.9 7.86)
(4.67e-12 34.1 8.16)
(1.37e-11 34.2 8.38)
(1.42e-11 34.2 8.6)
(2.49e-12 34.3 8.93)
(-8.06e-12 34.5 9.17)
(2.63e-12 34.4 9.29)
(1.24e-11 34.4 9.53)
(1.18e-11 34.6 9.87)
(-1.47e-11 34.6 10.1)
(-3.47e-12 34.5 10.3)
(6.52e-12 34.4 10.5)
(1.26e-11 34.4 10.9)
(-2e-11 34.4 11.1)
(3.07e-11 34.3 11.3)
(-1.35e-11 34.1 11.4)
(2.31e-12 34.1 11.7)
(2.81e-11 34 11.9)
(2.1e-11 33.8 12)
(2.2e-11 33.7 12.1)
(-9.75e-13 33.6 12.3)
(7.47e-12 33.4 12.4)
(1.41e-11 33.2 12.5)
(1.73e-11 33.1 12.6)
(6.87e-12 33 12.9)
(-1.32e-11 32.8 13)
(-2.07e-11 32.4 12.9)
(-2.21e-11 32.2 12.9)
(-7.76e-11 32.1 13)
(2.38e-11 32.1 13.1)
(-2.66e-11 31.9 13.1)
(-4.57e-11 31.6 12.9)
(1.17e-11 31.6 12.9)
(6.9e-12 31.5 13)
(-1.6e-11 31.3 12.9)
(5.78e-12 31 12.7)
(-1.34e-11 31 12.7)
(1.98e-11 30.9 12.6)
(1.87e-12 30.8 12.5)
(4.6e-12 30.7 12.5)
(-1.72e-11 30.5 12.4)
(1.56e-11 30.3 12.3)
(1.92e-11 30.2 12.2)
(-2.07e-11 30.2 12.2)
(-3.27e-12 30 12.1)
(4.91e-11 29.8 11.8)
(-2.99e-11 29.7 11.8)
(2.09e-11 29.8 11.8)
(6.57e-12 29.8 11.7)
(7.65e-12 29.7 11.5)
(1.45e-12 29.5 11.2)
(-1.57e-11 29.5 11.1)
(4.44e-12 29.6 11)
(6.01e-12 29.5 10.9)
(-6.61e-12 29.4 10.6)
(-6.48e-12 29.4 10.4)
(1.91e-11 29.3 10.2)
(-1.18e-11 29.3 10.1)
(1.81e-11 29.5 10.1)
(-9.92e-12 29.4 10)
(4.64e-12 29.3 9.94)
(-1.73e-11 29.4 9.8)
(1.4e-11 29.5 9.72)
(-1.48e-12 29.7 9.6)
(1.99e-11 29.7 9.41)
(-3.61e-12 29.7 9.3)
(1.85e-12 29.7 9.1)
(1.13e-11 29.7 9.01)
(-7.84e-12 29.8 9.02)
(-2.55e-11 29.8 8.95)
(-3.77e-11 29.8 8.84)
(4.15e-12 29.7 8.66)
(2.67e-11 29.6 8.5)
(3.14e-11 29.5 8.33)
(4.03e-11 29.3 8.17)
(-4.33e-12 29.1 7.98)
(-1.48e-11 28.8 7.76)
(-1.07e-11 28.5 7.45)
(3.9e-12 28.1 7.16)
(8.11e-12 27.6 6.99)
(-1.38e-11 26.8 6.78)
(-1.71e-11 25.7 6.65)
(-3.2e-12 24.7 6.38)
(-2.6e-11 24.1 5.8)
(-2.03e-11 22.8 6.38)
(1.96e-11 19.3 9.43)
(-2.38e-11 14.7 13.8)
(-7.74e-12 12 17.2)
(1.85e-12 16 5.23)
(-2.01e-12 15.8 4.94)
(1.95e-11 16 4.58)
(-1.97e-11 16.3 5.26)
(-6.02e-12 17.1 4.51)
(1.26e-11 17.9 4.11)
(3.1e-12 18.7 3.49)
(-4.43e-11 19.6 2.66)
(-5.57e-11 20.6 1.7)
(-2.55e-12 21.3 0.917)
(-5.81e-11 21.8 0.325)
(-6.84e-11 22.2 -0.156)
(-3.14e-11 22.4 -0.54)
(2.84e-12 22.6 -0.862)
(3.82e-11 22.7 -0.967)
(-1.88e-11 22.8 -0.881)
(2.61e-11 22.8 -0.823)
(-4.6e-13 22.8 -0.814)
(-2.8e-12 22.9 -0.81)
(1.14e-11 22.9 -0.814)
(9.06e-12 22.9 -0.843)
(1.95e-11 22.9 -0.928)
(1e-13 22.9 -0.993)
(-7.93e-12 22.9 -1.02)
(6.43e-12 23 -0.995)
(-2.52e-12 23.1 -1.01)
(-9.74e-12 23.2 -1.11)
(-2.47e-11 23.3 -1.19)
(-1.85e-11 23.4 -1.21)
(-1.74e-11 23.5 -1.2)
(-1.61e-11 23.6 -1.24)
(-3.25e-11 23.7 -1.28)
(-1.92e-11 23.7 -1.29)
(4.75e-12 23.8 -1.31)
(4.23e-12 23.9 -1.32)
(-3.47e-11 24 -1.3)
(-6.06e-11 24.2 -1.3)
(-1.76e-11 24.3 -1.31)
(-9.97e-12 24.4 -1.28)
(-1.31e-11 24.6 -1.23)
(1.55e-11 24.8 -1.2)
(9.82e-12 24.9 -1.13)
(-1.24e-13 25.2 -1.02)
(7.72e-12 25.3 -0.948)
(3.96e-12 25.6 -0.891)
(1.18e-11 25.9 -0.724)
(2.88e-11 26.1 -0.534)
(-3.45e-11 26.3 -0.502)
(4.57e-11 26.5 -0.476)
(-3.42e-11 26.8 -0.282)
(1.29e-11 27.1 0.0402)
(3.17e-11 27.4 0.286)
(-2.54e-11 27.6 0.433)
(3.12e-11 27.9 0.668)
(-4.12e-12 28.2 0.871)
(-2.64e-12 28.3 0.983)
(2.61e-11 28.5 1.11)
(2.15e-11 28.8 1.4)
(1.47e-11 29.1 1.73)
(7.28e-12 29.2 1.94)
(-3.5e-11 29.3 2.03)
(3.92e-11 29.5 2.21)
(-1.75e-11 29.7 2.53)
(1.14e-11 30 2.85)
(-6.71e-12 30.1 2.98)
(-1.31e-12 30.2 3.14)
(1.61e-11 30.4 3.41)
(6.28e-12 30.6 3.62)
(3.7e-12 30.7 3.67)
(1.55e-11 30.8 3.79)
(5.2e-12 31 4.09)
(1.03e-11 31.1 4.27)
(3.7e-12 31.2 4.47)
(-1.97e-11 31.5 4.78)
(2.91e-11 31.7 5.01)
(6.56e-12 31.8 5.12)
(-1.07e-11 32 5.3)
(-1.13e-10 32.2 5.58)
(-9.46e-11 32.4 5.74)
(1.02e-10 32.5 5.92)
(1.71e-10 32.7 6.14)
(7.18e-11 32.8 6.35)
(-1.92e-11 33 6.64)
(6.11e-12 33.2 6.88)
(-2.15e-12 33.2 7)
(-9.59e-13 33.4 7.28)
(-1.11e-14 33.6 7.54)
(-2.11e-12 33.6 7.69)
(-5.39e-13 33.7 7.97)
(4.16e-12 33.8 8.25)
(1.24e-11 33.8 8.42)
(7.28e-12 34 8.7)
(-1.17e-11 34.1 9.02)
(-2.13e-11 34.1 9.13)
(-1.98e-12 34.1 9.26)
(1.41e-11 34.3 9.59)
(7.56e-12 34.3 9.89)
(-1.12e-11 34.2 10)
(-8.52e-12 34.2 10.2)
(1.12e-11 34.2 10.6)
(5.56e-12 34.2 10.9)
(-5.03e-12 34.1 11.1)
(1.96e-11 34 11.2)
(-1.13e-12 34 11.4)
(-2.72e-12 33.9 11.7)
(4.05e-12 33.7 11.8)
(-2.17e-11 33.6 11.9)
(-1.77e-13 33.5 12)
(4.89e-12 33.3 12.1)
(4.88e-12 33.1 12.2)
(1.02e-11 33 12.4)
(8.74e-12 33 12.6)
(5.91e-13 32.8 12.7)
(-9.89e-12 32.5 12.7)
(-4.9e-12 32.2 12.7)
(-4.08e-11 32.2 12.8)
(-9.12e-11 32.1 12.9)
(3.29e-11 32 12.9)
(-2.95e-11 31.7 12.8)
(-1.69e-11 31.5 12.8)
(2.24e-11 31.5 12.9)
(9.07e-12 31.3 12.8)
(-4.48e-12 31.1 12.6)
(-3.82e-12 31 12.6)
(-6.32e-12 30.9 12.6)
(1.82e-11 30.8 12.5)
(-6.18e-12 30.6 12.4)
(-3.8e-12 30.5 12.3)
(-8.84e-12 30.3 12.2)
(1.39e-11 30.3 12.2)
(1.45e-11 30.3 12.2)
(-1.9e-11 30.1 12.1)
(1.55e-11 29.8 11.9)
(3.57e-11 29.7 11.8)
(-2.63e-11 29.8 11.8)
(1.61e-11 29.8 11.8)
(1.12e-11 29.8 11.6)
(7.45e-13 29.5 11.3)
(-6.51e-12 29.5 11.1)
(-1.68e-11 29.5 11.1)
(1.04e-11 29.5 11)
(6.31e-12 29.4 10.8)
(-1.03e-11 29.3 10.6)
(-5.97e-12 29.2 10.4)
(2.39e-11 29.2 10.3)
(-1.22e-11 29.4 10.2)
(2.29e-11 29.4 10.2)
(-1.49e-11 29.3 10)
(-1.06e-12 29.3 9.93)
(-3.99e-11 29.3 9.88)
(2.77e-11 29.4 9.79)
(-2.91e-12 29.5 9.61)
(1.96e-11 29.5 9.42)
(-8.13e-12 29.5 9.29)
(1.29e-11 29.5 9.14)
(5.9e-12 29.5 9.1)
(-8.61e-12 29.5 9.03)
(1.49e-11 29.3 8.81)
(5.37e-11 29.2 8.67)
(4.98e-11 29.1 8.53)
(1.21e-11 29 8.33)
(-2.36e-11 28.9 8.17)
(1.13e-12 28.7 8.04)
(-1.31e-11 28.5 7.78)
(-2.27e-12 28.2 7.43)
(1.19e-11 27.8 7.12)
(1.31e-11 27.5 6.86)
(-4.35e-12 26.9 6.64)
(-1.49e-11 26.1 6.39)
(-2.26e-11 25.1 6.25)
(-1.4e-11 24.2 6.22)
(-5.1e-11 23.6 5.73)
(-3.21e-12 23.1 5.31)
(-1.73e-11 21.7 5.85)
(-1.95e-11 17.5 9.45)
(-1.79e-11 13.4 14.3)
(-4.15e-12 15.3 5.83)
(-3.42e-12 15.2 5.47)
(-6.13e-12 15.7 4.8)
(-4.49e-12 15.9 5.34)
(3.44e-12 16.4 4.9)
(-7.5e-13 17.2 4.61)
(-5.73e-13 18.1 4)
(2.24e-11 18.8 3.44)
(4.08e-12 19.5 2.66)
(7.12e-12 20.4 1.77)
(8.46e-11 21.1 0.941)
(8.04e-11 21.7 0.254)
(1.85e-11 22.1 -0.273)
(-1.46e-11 22.5 -0.641)
(-1.07e-11 22.8 -0.797)
(-7.47e-11 23 -0.82)
(1.07e-11 23 -0.796)
(5.27e-12 23 -0.784)
(8.74e-12 23 -0.79)
(5.17e-13 22.9 -0.833)
(1.98e-11 22.8 -0.897)
(6.08e-12 22.8 -0.929)
(1.21e-11 22.8 -0.898)
(5.77e-12 22.9 -0.868)
(-7.29e-12 23 -0.864)
(7.49e-13 23 -0.911)
(5.03e-12 23.1 -1.02)
(1.28e-11 23.2 -1.06)
(1.47e-12 23.3 -1.06)
(3.81e-12 23.4 -1.08)
(-1.24e-11 23.4 -1.13)
(2.69e-11 23.5 -1.17)
(-2.25e-11 23.6 -1.17)
(-8.91e-12 23.7 -1.16)
(1.52e-11 23.9 -1.17)
(-4.01e-12 24 -1.16)
(-9.64e-12 24.1 -1.14)
(-1.13e-11 24.2 -1.1)
(8.24e-11 24.4 -1.07)
(8.78e-11 24.5 -1.05)
(2.21e-11 24.7 -1)
(1.02e-12 24.9 -0.914)
(-1.45e-11 25.1 -0.897)
(-2.44e-12 25.3 -0.793)
(-5.7e-12 25.5 -0.595)
(-5.75e-13 25.8 -0.441)
(2.03e-11 26 -0.38)
(-5.15e-11 26.1 -0.348)
(3.23e-11 26.4 -0.184)
(-2.82e-11 26.7 0.058)
(-1.8e-11 27 0.29)
(-6.76e-12 27.2 0.484)
(7.74e-11 27.5 0.707)
(1.63e-10 27.7 0.937)
(4.23e-11 27.9 1.04)
(-1.99e-11 28 1.17)
(1.59e-11 28.3 1.42)
(1.51e-11 28.6 1.69)
(1.59e-11 28.8 1.9)
(2.04e-11 28.9 2.02)
(-4.54e-11 29 2.18)
(3.92e-11 29.3 2.45)
(-1.31e-11 29.6 2.73)
(1.07e-12 29.7 2.94)
(-4.47e-12 29.8 3.11)
(6.04e-12 30 3.37)
(2.93e-11 30.2 3.62)
(-5.11e-12 30.4 3.76)
(-7.17e-12 30.5 3.82)
(3.16e-11 30.7 4.01)
(2.52e-12 30.8 4.25)
(6.26e-12 30.9 4.41)
(-1.46e-11 31.2 4.7)
(-1.71e-11 31.4 4.97)
(2.09e-11 31.5 5.08)
(1.96e-11 31.6 5.25)
(2.51e-11 31.9 5.53)
(1.29e-10 32.1 5.74)
(5.44e-11 32.2 5.86)
(-1.42e-10 32.4 6.05)
(-1.64e-10 32.5 6.23)
(-3.94e-11 32.7 6.48)
(1.16e-11 32.9 6.76)
(1.19e-12 32.9 6.91)
(-3.65e-13 33.1 7.16)
(-2.4e-12 33.3 7.46)
(-3.05e-13 33.4 7.6)
(-4.09e-12 33.4 7.82)
(-2.76e-12 33.6 8.12)
(1.22e-12 33.6 8.32)
(6.76e-12 33.7 8.59)
(-2.85e-12 33.9 8.89)
(-2.24e-11 33.9 9.02)
(-2.69e-11 33.9 9.17)
(-9.36e-12 34 9.43)
(1.2e-11 34.1 9.68)
(2.37e-12 34 9.83)
(-1.61e-11 34 10)
(-1.76e-11 34.1 10.3)
(1.37e-11 34.2 10.6)
(-1.02e-13 34.1 10.8)
(-5.92e-13 33.9 10.9)
(1.72e-12 33.8 11.1)
(1.64e-12 33.9 11.4)
(8.77e-11 33.7 11.5)
(7.19e-11 33.6 11.7)
(-1.05e-12 33.5 11.8)
(3.09e-12 33.3 11.8)
(2.67e-12 33.1 12)
(6.92e-12 33.1 12.2)
(5.15e-12 33 12.4)
(3.51e-12 32.9 12.5)
(-1.48e-12 32.6 12.5)
(5.13e-12 32.3 12.5)
(1.56e-11 32.2 12.6)
(-3.71e-11 32.2 12.8)
(-7.32e-11 32.1 12.8)
(3.75e-11 31.8 12.7)
(-2.59e-11 31.6 12.7)
(1.12e-11 31.6 12.7)
(9.47e-11 31.4 12.7)
(5.21e-11 31.2 12.6)
(2.81e-12 31 12.5)
(-7.78e-12 31 12.5)
(4.19e-12 30.9 12.4)
(1.49e-12 30.7 12.3)
(-7.08e-12 30.6 12.2)
(-1.23e-11 30.4 12.1)
(3.47e-12 30.4 12.1)
(8.86e-12 30.4 12.1)
(2.52e-12 30.2 12.1)
(-7.07e-12 30 11.8)
(1.62e-11 29.9 11.7)
(1.32e-11 29.9 11.8)
(-1.93e-11 30 11.8)
(7.91e-12 29.9 11.7)
(2.48e-11 29.6 11.4)
(-6.38e-12 29.5 11.2)
(-3.79e-12 29.6 11.1)
(-8.03e-12 29.6 11.1)
(1.22e-11 29.5 10.9)
(1.67e-12 29.4 10.7)
(-1.27e-11 29.3 10.5)
(-4.08e-12 29.3 10.3)
(2.9e-11 29.4 10.3)
(-1.33e-11 29.5 10.3)
(2.14e-11 29.5 10.2)
(-1.8e-11 29.5 10)
(-2.68e-12 29.5 9.92)
(-6.51e-11 29.5 9.83)
(3.21e-11 29.5 9.79)
(-1.23e-11 29.5 9.63)
(-2.32e-12 29.5 9.43)
(-1.92e-11 29.5 9.29)
(2.26e-11 29.5 9.17)
(4.09e-12 29.4 9.04)
(-3.3e-12 29.2 8.84)
(1.48e-11 29.1 8.64)
(-2.49e-11 29 8.55)
(-9.25e-12 28.9 8.41)
(1.86e-11 28.8 8.26)
(-1.81e-11 28.6 8.09)
(-1.68e-12 28.4 7.86)
(-4.17e-11 28.1 7.53)
(-1.72e-11 27.8 7.19)
(-1.31e-11 27.5 6.87)
(1.38e-11 27 6.57)
(1.29e-12 26.4 6.3)
(-1.63e-11 25.6 6.05)
(-4.86e-11 24.7 5.97)
(-8.77e-12 23.8 6.03)
(-5.3e-11 23 5.67)
(1.26e-11 22.6 5.07)
(-3.17e-11 22.1 4.22)
(-1.36e-11 20 5.42)
(-1.66e-11 15.2 10.3)
(-1.82e-12 14.8 6.18)
(-1.54e-12 14.5 5.93)
(-6.29e-12 15 5.05)
(1.51e-11 15.4 5.33)
(-4.1e-11 15.8 5.01)
(3.38e-11 16.4 5)
(1.53e-11 17.3 4.46)
(-4.67e-11 18 3.92)
(1.05e-11 18.5 3.38)
(-9.78e-11 19.3 2.59)
(-1.29e-10 20.1 1.65)
(-7.9e-11 20.8 0.772)
(-1.1e-11 21.5 0.0673)
(7.85e-12 22 -0.335)
(1.12e-10 22.4 -0.54)
(2.71e-11 22.7 -0.665)
(1.84e-11 22.9 -0.749)
(1.56e-11 22.9 -0.801)
(2.61e-11 22.8 -0.862)
(-3.76e-12 22.6 -0.94)
(-8.68e-12 22.6 -0.951)
(1.38e-11 22.6 -0.889)
(4.01e-12 22.7 -0.808)
(6.07e-12 22.8 -0.771)
(1.12e-11 22.8 -0.79)
(2.58e-12 22.8 -0.861)
(-2.31e-12 22.9 -0.912)
(1.03e-12 23 -0.913)
(-7.21e-12 23.1 -0.946)
(1.83e-11 23.2 -0.988)
(-2.57e-11 23.3 -1.03)
(2e-11 23.4 -1.02)
(-1.98e-11 23.5 -1.02)
(3.05e-11 23.6 -1.03)
(-1.48e-11 23.7 -1.05)
(2.59e-11 23.8 -1.03)
(5e-11 24 -0.969)
(-1.27e-11 24.1 -0.933)
(-3.25e-11 24.3 -0.92)
(-5.53e-11 24.4 -0.882)
(-3.15e-12 24.6 -0.824)
(8.3e-12 24.8 -0.747)
(-8.92e-12 24.9 -0.699)
(1.09e-11 25.2 -0.564)
(7.62e-12 25.4 -0.352)
(-2.7e-11 25.6 -0.269)
(2.75e-11 25.8 -0.256)
(-1.98e-11 26 -0.142)
(5.24e-11 26.3 0.102)
(-7.86e-12 26.5 0.275)
(-1.28e-11 26.7 0.467)
(1.82e-11 27 0.715)
(-2.14e-11 27.3 0.942)
(-9.33e-11 27.4 1.04)
(-8.74e-11 27.6 1.14)
(9.29e-12 27.8 1.39)
(1.98e-11 28.1 1.66)
(1.13e-11 28.4 1.84)
(1.18e-11 28.5 1.95)
(4.19e-11 28.6 2.12)
(-4.77e-11 28.9 2.4)
(2.68e-11 29.2 2.68)
(3.55e-12 29.4 2.87)
(-1.93e-11 29.5 3.04)
(9.46e-12 29.7 3.27)
(-1.64e-12 29.9 3.55)
(2.73e-11 30.1 3.73)
(-1.5e-11 30.2 3.82)
(-1.52e-11 30.3 3.95)
(2.06e-11 30.5 4.12)
(-2.29e-11 30.6 4.34)
(1e-11 30.8 4.58)
(-1.79e-11 31.1 4.88)
(-1.17e-11 31.3 5.08)
(5.69e-12 31.3 5.18)
(1.37e-11 31.5 5.41)
(-2.58e-12 31.8 5.66)
(-6.44e-11 31.9 5.83)
(-2.48e-11 32 5.98)
(1.14e-10 32.2 6.14)
(9.62e-11 32.3 6.37)
(-2e-12 32.6 6.7)
(-5.7e-12 32.7 6.86)
(5.02e-12 32.8 7.02)
(-1.08e-12 33 7.32)
(-3.76e-12 33.1 7.51)
(-7.45e-13 33.1 7.64)
(-6.84e-12 33.3 7.91)
(-6.52e-12 33.4 8.13)
(-4.13e-12 33.5 8.36)
(-2.58e-12 33.7 8.71)
(-1.69e-11 33.7 8.9)
(-2.3e-11 33.7 8.98)
(-1.39e-11 33.8 9.21)
(-1.44e-11 33.9 9.5)
(3.03e-12 33.9 9.61)
(2.4e-12 33.8 9.75)
(-2.27e-11 33.9 10.1)
(-2.64e-11 34 10.4)
(9.73e-12 33.9 10.6)
(1.4e-12 33.7 10.7)
(-5.47e-12 33.7 10.9)
(-6.9e-12 33.7 11.2)
(-1.76e-11 33.7 11.3)
(-7.33e-11 33.5 11.4)
(-4.32e-11 33.4 11.5)
(8.89e-12 33.2 11.6)
(-2.62e-13 33.2 11.8)
(9.97e-12 33.1 12)
(7.29e-12 33 12.2)
(5.01e-12 32.9 12.3)
(-2.34e-12 32.6 12.3)
(-6.15e-13 32.4 12.3)
(1.13e-11 32.3 12.4)
(2e-11 32.2 12.6)
(-1.3e-11 32.1 12.7)
(-3.24e-11 31.9 12.6)
(3.41e-11 31.7 12.5)
(-1.49e-11 31.6 12.6)
(-1.31e-11 31.5 12.7)
(-2.34e-11 31.3 12.5)
(-1.9e-11 31.1 12.4)
(1.05e-11 31 12.5)
(-3.3e-12 30.9 12.4)
(5.65e-12 30.7 12.2)
(-1.56e-11 30.6 12.2)
(-4.41e-12 30.5 12.1)
(-1.41e-11 30.4 12.1)
(1.91e-11 30.4 12.1)
(-2.8e-12 30.3 12)
(-2.36e-12 30.1 11.8)
(7.27e-12 30 11.7)
(-1.36e-13 30.1 11.8)
(-5.83e-12 30.1 11.8)
(-8.11e-12 30 11.7)
(-1.69e-12 29.7 11.5)
(3.67e-11 29.5 11.2)
(-1.06e-11 29.5 11.2)
(1.12e-11 29.6 11.2)
(1.14e-11 29.5 11)
(4.25e-12 29.5 10.8)
(8.82e-13 29.4 10.6)
(-7.58e-12 29.3 10.4)
(3.45e-13 29.4 10.4)
(3.21e-11 29.5 10.4)
(-1.66e-11 29.5 10.3)
(8.09e-12 29.5 10.2)
(-1.33e-11 29.6 10)
(6.48e-12 29.5 9.89)
(5.58e-11 29.6 9.76)
(9.97e-11 29.5 9.7)
(-5.66e-12 29.5 9.57)
(-1.33e-11 29.4 9.43)
(-2.15e-11 29.3 9.26)
(7.69e-12 29.2 9.04)
(-1.18e-11 29 8.84)
(-2.06e-12 28.9 8.68)
(6.57e-12 28.8 8.57)
(-6.12e-12 28.7 8.49)
(3.34e-11 28.7 8.32)
(7.6e-12 28.5 8.1)
(-3.06e-12 28.2 7.86)
(1.09e-11 28 7.62)
(-4.51e-12 27.7 7.27)
(-9.94e-12 27.3 6.92)
(-4.15e-12 27 6.57)
(-1.04e-11 26.5 6.25)
(-4.45e-12 25.9 5.99)
(-3.03e-12 25.1 5.78)
(9.68e-13 24.2 5.73)
(1.87e-11 23.2 5.77)
(1.33e-12 22.3 5.44)
(1.08e-11 21.7 4.93)
(-1.75e-11 21.3 3.76)
(-1.59e-11 20.6 2.37)
(-1.18e-11 17.1 6.08)
(8.92e-13 14.4 6.36)
(3.43e-12 13.9 6.24)
(-1.86e-11 14.3 5.48)
(2.66e-11 14.9 5.52)
(-3.46e-11 15.4 5.08)
(-1.61e-11 16 5.28)
(2.74e-11 16.6 4.94)
(9.9e-12 17.4 4.44)
(1.81e-11 17.9 3.88)
(9.65e-11 18.4 3.3)
(1.05e-10 19.1 2.43)
(6.17e-12 20 1.47)
(2.72e-11 20.8 0.638)
(-4.85e-11 21.5 0.0989)
(7.51e-12 22.1 -0.194)
(-4.41e-11 22.5 -0.447)
(8.48e-12 22.7 -0.647)
(-3.5e-14 22.8 -0.819)
(2.29e-11 22.7 -0.991)
(-2.55e-11 22.7 -1.04)
(-2.61e-11 22.7 -0.927)
(-9.55e-12 22.7 -0.825)
(3.38e-12 22.8 -0.732)
(-2.19e-12 22.8 -0.739)
(-3.56e-12 22.7 -0.782)
(9.15e-12 22.8 -0.798)
(1.42e-11 22.9 -0.798)
(1.51e-11 23 -0.782)
(1.71e-11 23 -0.832)
(1.1e-11 23.1 -0.901)
(3.49e-13 23.2 -0.92)
(2.9e-11 23.3 -0.912)
(-4.53e-11 23.5 -0.93)
(1.22e-11 23.5 -0.939)
(3.28e-11 23.7 -0.943)
(-5.34e-11 23.8 -0.907)
(-5.21e-11 23.9 -0.853)
(1.46e-11 24.1 -0.817)
(5.71e-11 24.2 -0.797)
(-5.77e-12 24.4 -0.725)
(-1.54e-11 24.6 -0.644)
(1.64e-11 24.7 -0.575)
(1.2e-11 24.9 -0.481)
(2.58e-11 25.2 -0.334)
(9.65e-12 25.4 -0.17)
(4.59e-12 25.6 -0.145)
(2.55e-11 25.7 -0.062)
(-4.27e-11 26 0.141)
(3.83e-12 26.2 0.342)
(-4.1e-11 26.4 0.453)
(-1.29e-11 26.6 0.676)
(2.66e-12 26.9 0.953)
(5.13e-11 27.1 1.06)
(6.12e-11 27.2 1.17)
(9.62e-12 27.5 1.37)
(1.69e-11 27.8 1.65)
(8.3e-12 28 1.87)
(8.46e-12 28.1 1.95)
(-1.47e-12 28.3 2.08)
(6.28e-11 28.5 2.34)
(-4.8e-11 28.8 2.62)
(1.13e-11 29 2.85)
(2.78e-11 29.1 3)
(-2.97e-11 29.3 3.21)
(2.47e-11 29.6 3.5)
(7.04e-11 29.8 3.73)
(8.74e-11 29.9 3.86)
(-1.08e-11 30 3.96)
(-2.15e-11 30.1 4.1)
(1.05e-10 30.3 4.26)
(1.13e-11 30.5 4.51)
(2.82e-11 30.8 4.81)
(-1.83e-11 31 5.06)
(-4.18e-12 31 5.17)
(2.29e-12 31.2 5.34)
(1.03e-11 31.5 5.61)
(1.54e-11 31.6 5.81)
(4.97e-11 31.8 5.94)
(1.57e-11 31.9 6.08)
(-1.07e-10 32 6.28)
(-7.99e-11 32.2 6.57)
(-3.68e-12 32.4 6.8)
(-2.38e-13 32.5 6.92)
(5e-12 32.7 7.18)
(-2.01e-12 32.9 7.45)
(-5.39e-12 32.9 7.58)
(-2.13e-12 33 7.79)
(-1.01e-11 33.2 8.06)
(-1.13e-11 33.3 8.23)
(-7.58e-12 33.4 8.52)
(-6.05e-12 33.5 8.81)
(-2.11e-11 33.5 8.9)
(-1.74e-11 33.5 9.09)
(2.88e-12 33.7 9.38)
(-1.3e-11 33.7 9.53)
(2.06e-13 33.6 9.61)
(2.19e-12 33.7 9.84)
(-2.35e-11 33.9 10.2)
(-3.56e-11 33.8 10.4)
(8.74e-12 33.6 10.4)
(7.59e-12 33.5 10.6)
(-1.82e-12 33.6 10.9)
(6.7e-12 33.6 11.1)
(2.9e-11 33.5 11.2)
(4.46e-11 33.3 11.3)
(2.69e-11 33.2 11.4)
(-1e-11 33.1 11.6)
(1.33e-11 33.1 11.7)
(9.98e-12 33 11.9)
(1.12e-11 32.9 12)
(8.35e-12 32.6 12.1)
(-6.11e-12 32.5 12.1)
(-3.1e-12 32.4 12.2)
(5.29e-12 32.3 12.3)
(1.67e-12 32.2 12.5)
(-1.11e-11 32 12.5)
(6.05e-11 31.8 12.4)
(5.61e-11 31.7 12.5)
(3.03e-12 31.7 12.6)
(6.72e-12 31.4 12.5)
(3.55e-11 31.2 12.3)
(2.86e-11 31.1 12.4)
(4.25e-12 31 12.4)
(3.99e-12 30.8 12.2)