/*--------------------------------*- C++ -*----------------------------------*\
| =========                 |                                                 |
| \\      /  F ield         | OpenFOAM: The Open Source CFD Toolbox           |
|  \\    /   O peration     | Version:  2212                                  |
|   \\  /    A nd           | Website:  www.openfoam.com                      |
|    \\/     M anipulation  |                                                 |
\*---------------------------------------------------------------------------*/
FoamFile
{
    version     2.0;
    format      ascii;
    arch        "LSB;label=32;scalar=64";
    class       surfaceScalarField;
    location    "0.0138";
    object      phi;
}
// * * * * * * * * * * * * * * * * * * * * * * * * * * * * * * * * * * * * * //

dimensions      [1 0 -1 0 0 0 0];

oriented        oriented;

internalField   nonuniform List<scalar> 
4475
(
2.10416e-05
-2.06457e-05
3.07352e-05
-3.09108e-05
2.67883e-06
-1.8547e-05
4.78573e-07
1.50903e-05
6.17859e-05
-7.05972e-05
3.29405e-06
5.22583e-06
-9.05544e-06
2.75777e-05
6.53678e-06
-2.5636e-05
-2.11517e-05
1.94414e-05
2.06617e-05
-1.83979e-05
1.90745e-05
-1.45012e-05
-2.11439e-05
1.69497e-05
-5.97278e-06
5.49426e-06
2.83882e-05
-2.74622e-05
-1.67594e-05
-2.26131e-05
2.00513e-05
1.97408e-05
2.005e-05
-2.18205e-05
-1.88242e-05
-2.31605e-05
-3.36289e-07
2.90798e-06
2.06253e-05
-3.85678e-06
3.49489e-06
-2.27654e-05
-2.50713e-05
3.67046e-06
-2.00356e-06
2.34585e-05
-2.55668e-05
1.20838e-06
-6.18476e-07
-2.59155e-05
6.24622e-07
-1.30292e-07
-2.60255e-05
3.92576e-07
-7.97629e-08
-2.58503e-05
2.79206e-07
-2.0156e-07
3.4246e-07
-2.48287e-05
-1.07413e-06
2.43116e-05
-1.9573e-06
-2.35911e-05
1.52463e-06
2.58951e-05
-9.72109e-07
2.61028e-05
3.10435e-07
2.5969e-05
7.18186e-07
2.57093e-05
1.02522e-06
2.55824e-05
1.42807e-06
2.76984e-05
1.61311e-06
2.41147e-05
-2.35177e-07
2.26044e-05
1.2135e-06
2.83316e-05
3.72006e-06
-9.37097e-06
2.667e-05
4.27406e-07
1.37602e-06
2.92615e-05
-2.88454e-05
-5.76411e-06
-2.4159e-05
-2.31036e-06
2.61753e-05
2.8136e-07
4.27756e-07
2.59563e-05
2.68641e-07
2.57186e-07
2.59192e-05
2.50891e-07
2.11303e-07
2.59369e-05
3.18744e-07
2.15997e-07
2.60856e-05
2.69521e-07
2.70971e-07
2.62607e-05
3.36982e-07
3.16701e-07
2.65246e-05
3.55951e-07
3.49326e-07
2.68649e-05
3.46753e-07
4.15716e-07
2.72719e-05
3.45378e-07
4.70356e-07
2.76871e-05
4.08047e-07
4.96921e-07
2.81432e-05
4.01748e-07
5.27046e-07
2.85488e-05
4.26528e-07
5.7392e-07
2.8874e-05
4.52111e-07
6.12317e-07
2.91478e-05
4.10093e-07
6.37126e-07
3.28164e-07
2.93983e-05
6.17902e-07
-2.91423e-05
2.92039e-05
1.43697e-06
-2.89133e-05
1.48015e-06
-2.84826e-05
1.38875e-06
-2.80946e-05
1.42132e-06
-2.76493e-05
1.32036e-06
-2.71855e-05
1.24486e-06
-2.67321e-05
1.09448e-06
-2.65095e-05
1.21002e-06
-2.62119e-05
1.01377e-06
-2.59761e-05
9.17877e-07
-2.59461e-05
9.19196e-07
-2.58892e-05
8.07237e-07
-2.59679e-05
7.49601e-07
-2.6113e-05
7.23761e-07
-2.66261e-05
1.01026e-06
-2.81183e-05
2.06571e-06
-2.22006e-05
5.44179e-06
-1.12808e-05
-2.342e-05
4.17068e-06
-2.27643e-05
2.87128e-06
-2.33831e-05
1.36214e-06
-7.08728e-07
-2.52072e-05
-1.2882e-07
-2.57079e-05
-3.00669e-08
-2.5971e-05
2.67021e-07
-2.60397e-05
1.7809e-07
-2.57113e-05
-2.90935e-07
-2.55192e-05
-9.82843e-07
4.44569e-07
6.36472e-07
2.93443e-05
1.39452e-06
2.92537e-05
2.60329e-05
-1.78533e-06
-2.49022e-05
2.61475e-05
4.42274e-07
2.60576e-05
9.97562e-07
2.58682e-05
1.34995e-06
2.59635e-05
1.42084e-06
2.62521e-05
1.38068e-06
2.51052e-05
9.54992e-07
2.49193e-05
1.45182e-06
2.65143e-05
2.20789e-06
2.6466e-05
1.56461e-06
2.61334e-05
9.76197e-07
2.59639e-05
7.39682e-07
2.5905e-05
6.93944e-07
2.59618e-05
7.09166e-07
2.60853e-05
8.31202e-07
2.62485e-05
9.7606e-07
2.65373e-05
1.02061e-06
2.68641e-05
1.18089e-06
2.72515e-05
1.29155e-06
2.76667e-05
1.38558e-06
2.81357e-05
1.42454e-06
2.85557e-05
1.54249e-06
2.89381e-05
1.60301e-06
2.92138e-05
1.66665e-06
2.93341e-05
1.67509e-06
-2.80683e-06
-2.3686e-05
3.23309e-06
1.63376e-06
2.93453e-05
-4.64836e-06
-2.19907e-05
-2.49172e-05
-2.59016e-06
-2.91382e-05
2.91718e-05
2.29806e-06
-2.90685e-05
2.47203e-06
-2.87215e-05
2.36459e-06
-2.84411e-05
2.40999e-06
-2.79902e-05
2.29325e-06
-2.75345e-05
2.16973e-06
-2.71173e-05
2.07505e-06
-2.68437e-05
1.98012e-06
-2.64273e-05
1.84206e-06
-2.61553e-05
1.66278e-06
-2.60415e-05
1.59516e-06
-2.59141e-05
1.45123e-06
-2.58882e-05
1.31357e-06
-2.59443e-05
1.2193e-06
-2.61552e-05
1.24362e-06
-2.64364e-05
1.51022e-06
-2.65103e-05
2.28534e-06
-2.44782e-05
3.49914e-06
-2.36808e-05
3.42886e-06
-2.36996e-05
2.93098e-06
-2.4085e-05
1.79087e-06
-2.50108e-05
8.54815e-07
-2.56322e-05
6.78383e-07
-2.59458e-05
7.03337e-07
-2.61912e-05
5.89219e-07
-2.61939e-05
-8.32013e-08
-2.5919e-05
-1.00583e-06
-2.01105e-05
3.02743e-05
-2.64804e-05
1.203e-05
-2.32918e-05
-7.60966e-06
1.90872e-05
-1.48864e-05
-1.37489e-05
1.65104e-05
1.23931e-05
1.6466e-05
2.90872e-05
3.18362e-06
-5.4123e-06
-2.64627e-05
2.6616e-05
1.03413e-06
2.63422e-05
9.79772e-07
2.61026e-05
1.41287e-06
2.60097e-05
1.56754e-06
2.59585e-05
1.55718e-06
2.59441e-05
1.45319e-06
2.56016e-05
1.34856e-06
2.55344e-05
1.58277e-06
2.60125e-05
1.82524e-06
2.613e-05
1.5961e-06
2.6038e-05
1.29059e-06
2.59547e-05
1.13756e-06
2.59582e-05
1.11144e-06
2.59701e-05
1.23769e-06
2.60979e-05
1.37159e-06
2.63205e-05
1.55491e-06
2.65305e-05
1.74244e-06
2.68489e-05
1.91898e-06
2.72181e-05
2.08838e-06
2.77009e-05
2.15956e-06
2.81038e-05
2.33708e-06
2.8497e-05
2.48251e-06
2.89044e-05
2.50944e-06
2.9236e-05
2.58015e-06
2.93496e-05
2.68041e-06
2.92585e-05
2.67416e-06
-1.65985e-06
2.90696e-05
2.59843e-06
-5.98868e-07
2.90927e-05
4.73222e-07
2.90992e-05
1.47026e-06
2.90591e-05
-1.89176e-05
1.86415e-05
-2.18036e-05
2.89516e-05
2.43053e-06
-2.51062e-05
-2.34146e-05
2.88605e-05
-2.03117e-05
3.17721e-05
1.6987e-05
-2.83026e-05
-5.51019e-06
-2.37056e-05
2.34309e-05
-1.79991e-05
2.39085e-05
-2.88235e-05
2.0361e-05
1.98561e-05
-2.01933e-05
-2.965e-05
2.26709e-07
6.18541e-06
-2.59633e-05
-2.24412e-06
-1.49366e-06
2.49278e-06
2.86013e-05
-4.96914e-07
2.86835e-05
5.29739e-07
2.86771e-05
1.45331e-06
2.87177e-05
2.34583e-06
2.85809e-05
-2.88734e-05
3.18623e-06
2.84622e-05
-2.89595e-05
3.1599e-06
-2.91103e-05
3.28781e-06
-2.8883e-05
3.24892e-06
-2.87216e-05
3.33358e-06
-2.83345e-05
3.22836e-06
-2.79169e-05
3.10494e-06
-2.74494e-05
2.91835e-06
-2.70473e-05
2.83799e-06
-2.67169e-05
2.73413e-06
-2.64201e-05
2.53078e-06
-2.62102e-05
2.3241e-06
-2.60098e-05
2.14536e-06
-2.59054e-05
1.9759e-06
-2.58712e-05
1.79164e-06
-2.58843e-05
1.63665e-06
-2.60109e-05
1.67809e-06
-2.60733e-05
1.79718e-06
-2.58589e-05
2.226e-06
-2.50169e-05
2.7599e-06
-2.45698e-05
3.05063e-06
-2.41401e-05
2.55159e-06
-2.43969e-05
2.09259e-06
-2.49926e-05
1.50325e-06
-2.54578e-05
1.2087e-06
-2.59013e-05
1.24084e-06
-2.62245e-05
1.03742e-06
-2.6567e-05
4.17073e-07
-6.97859e-07
-2.66814e-05
3.35518e-06
-2.69724e-06
-2.68484e-05
2.66089e-05
2.50836e-05
-3.31365e-05
2.9793e-05
-2.14185e-05
1.96262e-05
-1.86127e-05
2.01736e-05
2.55654e-05
2.27389e-06
2.78441e-06
2.71123e-05
5.14608e-06
-6.38134e-06
2.76106e-05
5.32935e-06
2.74343e-05
4.76485e-06
-4.2462e-06
2.71331e-05
3.98951e-06
2.72106e-05
3.48278e-06
-3.24997e-06
2.77101e-05
2.96339e-06
2.69086e-05
2.06168e-06
2.64465e-05
1.62006e-06
2.62e-05
1.80139e-06
2.60904e-05
1.78115e-06
2.59709e-05
1.75067e-06
2.59221e-05
1.5601e-06
2.57284e-05
1.60233e-06
2.57175e-05
1.67183e-06
2.5904e-05
1.75104e-06
2.59869e-05
1.67738e-06
2.594e-05
1.57026e-06
2.58883e-05
1.50598e-06
2.59474e-05
1.46672e-06
2.59686e-05
1.74125e-06
2.61244e-05
1.8582e-06
2.62935e-05
2.15016e-06
2.65381e-05
2.38156e-06
2.68326e-05
2.62259e-06
2.7295e-05
2.72475e-06
2.7662e-05
2.97363e-06
2.80423e-05
3.18794e-06
2.85198e-05
3.24987e-06
2.89389e-05
3.31263e-06
2.91695e-05
3.49805e-06
2.93151e-05
3.55601e-06
2.92919e-05
3.55103e-06
2.90638e-05
3.48345e-06
3.32849e-06
2.86689e-05
6.2956e-06
6.83614e-05
-5.50563e-05
-1.98957e-05
-2.2699e-05
2.15667e-05
-4.0816e-05
4.15416e-05
9.22448e-06
-9.91366e-06
-2.22247e-06
2.42088e-05
2.286e-06
-2.48504e-05
-5.99029e-05
-1.42061e-05
2.51669e-05
4.88151e-05
-2.47767e-05
-1.86455e-05
-4.65245e-06
-2.64646e-05
-2.60862e-05
-3.27648e-06
2.7124e-05
-2.85727e-05
2.82074e-05
3.85616e-06
-2.89127e-05
4.01459e-06
-2.88686e-05
3.95148e-06
-2.8899e-05
4.15145e-06
-2.86149e-05
4.04993e-06
-2.82761e-05
3.96767e-06
-2.7893e-05
3.83089e-06
-2.75209e-05
3.65018e-06
-2.71669e-05
3.54875e-06
-2.67795e-05
3.34148e-06
-2.64742e-05
3.13185e-06
-2.62463e-05
2.90085e-06
-2.60333e-05
2.62969e-06
-2.59503e-05
2.48294e-06
-2.58943e-05
2.22188e-06
-2.59356e-05
2.06837e-06
-2.58975e-05
1.94492e-06
-2.58699e-05
1.99855e-06
-2.5656e-05
2.17912e-06
-2.52238e-05
2.44566e-06
-2.47992e-05
2.7083e-06
-2.44775e-05
2.28976e-06
-2.46299e-05
2.29144e-06
-2.50385e-05
1.95386e-06
-2.54348e-05
1.65271e-06
-2.58363e-05
1.70018e-06
-2.62373e-05
1.51348e-06
-2.6589e-05
8.66011e-07
-2.72672e-05
7.87252e-08
-1.70678e-06
-2.69739e-05
-2.04019e-05
-1.96143e-05
2.25141e-05
-1.0652e-05
-3.18076e-05
3.11651e-05
1.12124e-05
2.72152e-05
4.36922e-06
-2.90443e-05
2.76199e-05
4.96959e-06
2.77349e-05
5.43549e-06
2.75149e-05
5.20174e-06
2.73319e-05
4.37935e-06
2.72621e-05
3.74284e-06
2.72216e-05
3.17396e-06
2.68353e-05
2.58659e-06
2.63706e-05
2.19804e-06
2.62245e-05
2.03975e-06
2.60342e-05
2.04414e-06
2.59809e-05
1.86181e-06
2.58763e-05
1.71874e-06
2.57916e-05
1.75341e-06
2.57869e-05
1.7675e-06
2.58567e-05
1.80999e-06
2.59149e-05
1.79846e-06
2.59708e-05
1.75561e-06
2.60306e-05
1.76293e-06
2.59935e-05
1.9086e-06
2.61109e-05
2.12648e-06
2.6167e-05
2.40836e-06
2.63438e-05
2.68655e-06
2.65731e-05
2.97138e-06
2.69915e-05
3.12562e-06
2.73064e-05
3.41936e-06
2.76499e-05
3.70931e-06
2.81279e-05
3.82963e-06
2.85871e-05
3.91916e-06
2.88583e-05
4.13898e-06
2.90763e-05
4.29745e-06
2.92381e-05
4.28292e-06
2.91829e-05
4.32909e-06
2.89818e-05
4.21326e-06
2.85236e-05
4.10386e-06
-3.17765e-06
3.91153e-06
2.78936e-05
-2.33997e-06
2.80518e-05
-1.40939e-06
2.79764e-05
-4.4174e-07
2.80745e-05
4.23071e-07
2.81874e-05
1.44247e-06
2.80531e-05
2.36894e-06
2.79531e-05
3.17275e-06
2.78692e-05
2.76657e-05
3.80876e-06
-4.29847e-05
-1.06724e-05
1.28635e-05
3.08524e-07
1.68586e-06
-6.22625e-05
6.00012e-05
-1.75179e-05
1.45176e-05
-1.43612e-05
1.73721e-05
-2.96265e-05
-1.74037e-05
2.44079e-05
2.84956e-05
-3.15477e-05
-1.02888e-05
1.587e-05
2.40475e-05
-2.75631e-05
-1.26151e-06
-3.36214e-06
-2.79698e-05
-1.80619e-05
-2.14393e-05
1.953e-05
-2.34832e-05
-1.48119e-05
9.0999e-06
-3.0803e-05
1.69496e-05
-2.0073e-05
3.42983e-05
1.91841e-05
2.13645e-05
2.78152e-05
-2.79119e-05
4.57486e-06
2.7425e-05
5.44643e-06
2.74385e-05
5.49681e-06
2.73672e-05
5.34191e-06
2.72373e-05
4.57038e-06
2.71074e-05
3.92612e-06
2.69214e-05
3.40539e-06
2.66399e-05
2.90622e-06
2.63426e-05
2.52334e-06
2.61237e-05
2.28793e-06
2.60403e-05
2.15622e-06
2.59394e-05
1.99624e-06
2.5848e-05
1.85651e-06
2.5819e-05
1.85082e-06
2.58235e-05
1.86303e-06
2.58763e-05
1.89765e-06
2.59494e-05
1.91373e-06
2.60205e-05
1.93016e-06
2.60271e-05
2.06787e-06
2.60567e-05
2.26555e-06
2.6131e-05
2.52027e-06
2.62726e-05
2.82227e-06
2.64409e-05
3.16532e-06
2.6789e-05
3.36231e-06
2.70624e-05
3.67739e-06
2.73174e-05
4.06149e-06
2.7779e-05
4.20142e-06
2.82382e-05
4.35444e-06
2.8529e-05
4.60991e-06
2.87941e-05
4.81504e-06
2.90818e-05
4.86631e-06
2.90988e-05
4.99168e-06
2.90595e-05
4.92943e-06
2.88297e-05
4.81292e-06
2.83739e-05
4.7245e-06
2.77126e-05
4.53388e-06
-3.69561e-06
4.29614e-06
2.68856e-05
-2.99884e-06
2.71015e-05
-2.11208e-06
2.71774e-05
-1.39504e-06
2.73514e-05
-5.40636e-07
2.73609e-05
4.60692e-07
2.73426e-05
1.37508e-06
2.72766e-05
2.16506e-06
2.72497e-05
2.99088e-06
2.70486e-05
3.67811e-06
2.68766e-05
-2.73273e-05
2.65432e-05
4.23224e-06
-2.79589e-05
4.39502e-06
-2.84629e-05
4.51572e-06
-2.87222e-05
4.63282e-06
-2.8916e-05
4.69471e-06
-2.8761e-05
4.70857e-06
-2.85569e-05
4.68606e-06
-2.82643e-05
4.59911e-06
-2.78964e-05
4.42549e-06
-2.76061e-05
4.32591e-06
-2.7243e-05
4.12489e-06
-2.69113e-05
3.89256e-06
-2.65945e-05
3.62376e-06
-2.63809e-05
3.40971e-06
-2.62016e-05
3.08215e-06
-2.60435e-05
2.8646e-06
-2.59509e-05
2.57988e-06
-2.59153e-05
2.40087e-06
-2.58806e-05
2.20417e-06
-2.58017e-05
2.14912e-06
-2.56307e-05
2.18393e-06
-2.53543e-05
2.30081e-06
-2.51108e-05
2.56062e-06
-2.48875e-05
2.13321e-06
-2.49701e-05
2.41819e-06
-2.51019e-05
2.11415e-06
-2.53942e-05
1.96221e-06
-2.57408e-05
2.05517e-06
-2.61741e-05
1.951e-06
-2.68333e-05
1.53477e-06
5.59233e-07
-2.72832e-05
-2.12138e-05
-2.01922e-05
2.23266e-05
-2.58264e-06
-2.81525e-05
-3.1236e-05
-3.3495e-06
6.98863e-06
-2.25805e-06
-1.77576e-05
-2.33867e-05
2.69527e-05
-2.49134e-05
-1.64981e-05
2.58103e-05
-1.59614e-05
-1.54482e-05
2.27984e-05
-2.85728e-05
-1.29212e-05
3.06335e-05
3.96115e-06
5.07249e-08
2.8617e-05
3.55805e-06
-2.82104e-05
2.77126e-05
5.45126e-06
2.72495e-05
5.84731e-06
2.70071e-05
5.6593e-06
2.70543e-05
5.20854e-06
2.69551e-05
4.58375e-06
2.68505e-05
3.94518e-06
2.66089e-05
3.56165e-06
2.63905e-05
3.04692e-06
2.61717e-05
2.68088e-06
2.6006e-05
2.41317e-06
2.59357e-05
2.20691e-06
2.58611e-05
2.07555e-06
2.58106e-05
1.93936e-06
2.58012e-05
1.92391e-06
2.58406e-05
1.92792e-06
2.59227e-05
1.96062e-06
2.59755e-05
2.05098e-06
2.60529e-05
2.09295e-06
2.61071e-05
2.30897e-06
2.61784e-05
2.55004e-06
2.62858e-05
2.83413e-06
2.64461e-05
3.15311e-06
2.66977e-05
3.47947e-06
2.69223e-05
3.77733e-06
2.71221e-05
4.18448e-06
2.75553e-05
4.39341e-06
2.79703e-05
4.59467e-06
2.82384e-05
4.90926e-06
2.8509e-05
5.14779e-06
2.88381e-05
5.24622e-06
2.8931e-05
5.44157e-06
2.90456e-05
5.41316e-06
2.8973e-05
5.37545e-06
2.86168e-05
5.35524e-06
2.81476e-05
5.18189e-06
2.74897e-05
4.98653e-06
2.66603e-05
4.74619e-06
-3.99093e-06
2.56658e-05
4.46421e-06
-3.39723e-06
2.59084e-05
-2.73227e-06
2.61707e-05
-2.01456e-06
2.62913e-05
-1.13581e-06
2.63766e-05
-3.66601e-07
2.65404e-05
4.42837e-07
2.6496e-05
1.21894e-06
2.64465e-05
2.0627e-06
2.63057e-05
2.76824e-06
2.617e-05
3.48018e-06
2.58958e-05
4.0467e-06
2.55925e-05
-2.6194e-05
2.52393e-05
4.48504e-06
-2.7025e-05
4.68518e-06
-2.76982e-05
4.86128e-06
-2.82171e-05
5.01738e-06
-2.85382e-05
5.13182e-06
-2.86785e-05
5.19766e-06
-2.86723e-05
5.22694e-06
-2.85271e-05
5.19565e-06
-2.82969e-05
5.11377e-06
-2.80428e-05
4.96457e-06
-2.76792e-05
4.76732e-06
-2.73824e-05
4.61751e-06
-2.70859e-05
4.34493e-06
-2.68248e-05
4.05411e-06
-2.65681e-05
3.77615e-06
-2.63942e-05
3.45713e-06
-2.62077e-05
3.1524e-06
-2.61435e-05
2.91866e-06
-2.60277e-05
2.62194e-06
-2.59529e-05
2.40461e-06
-2.58458e-05
2.26604e-06
-2.56893e-05
2.20531e-06
-2.5492e-05
2.24086e-06
-2.51936e-05
2.36301e-06
-2.51882e-05
2.19481e-06
-2.50909e-05
2.35732e-06
-2.52004e-05
2.2318e-06
-2.53371e-05
2.0769e-06
-2.55936e-05
2.26086e-06
-2.59652e-05
2.2475e-06
-2.6492e-05
1.97105e-06
1.23882e-06
-2.72602e-05
-2.77681e-05
-7.46784e-07
-1.99369e-05
-2.22277e-05
-2.04262e-05
-2.24563e-05
2.32353e-05
1.25848e-05
2.59534e-05
-2.91714e-05
-9.3848e-06
-2.80401e-05
-2.24487e-06
-2.63314e-05
-1.09124e-05
5.45912e-06
-2.74485e-05
-1.42153e-05
-2.68889e-05
-1.63077e-05
1.60787e-07
-9.75718e-06
-2.13329e-05
-1.08131e-05
-2.26618e-05
1.43677e-06
-2.84042e-05
-2.86331e-06
-1.84856e-05
-2.38328e-05
-2.4744e-05
-1.83556e-05
-3.66337e-06
4.16661e-06
2.45445e-05
-3.13044e-06
2.48771e-05
-2.47673e-06
2.51217e-05
-1.76112e-06
2.52664e-05
-1.06584e-06
2.54357e-05
-2.6732e-07
2.55354e-05
4.47877e-07
2.55872e-05
1.21992e-06
2.54665e-05
1.91585e-06
2.53612e-05
2.63994e-06
2.51341e-05
3.29325e-06
2.48478e-05
3.82344e-06
2.45665e-05
4.21378e-06
2.42369e-05
-2.49292e-05
4.51325e-06
2.38844e-05
-2.58476e-05
4.73604e-06
-2.67168e-05
5.00896e-06
-2.74126e-05
5.16785e-06
-2.79826e-05
5.3768e-06
-2.83613e-05
5.48575e-06
-2.85448e-05
5.53618e-06
-2.8603e-05
5.60028e-06
-2.85047e-05
5.54298e-06
-2.83435e-05
5.49403e-06
-2.81215e-05
5.34025e-06
-2.78752e-05
5.14185e-06
-2.75456e-05
4.90596e-06
-2.72891e-05
4.68114e-06
-2.70492e-05
4.36611e-06
-2.67988e-05
4.02769e-06
-2.66273e-05
3.73282e-06
-2.64809e-05
3.39805e-06
-2.63032e-05
3.08014e-06
-2.62037e-05
2.81291e-06
-2.60934e-05
2.54132e-06
-2.59618e-05
2.34258e-06
-2.58004e-05
2.21547e-06
-2.55989e-05
2.17508e-06
-2.53449e-05
2.20777e-06
-2.51243e-05
2.03624e-06
-2.52003e-05
2.45581e-06
-2.50974e-05
2.10979e-06
-2.53078e-05
2.22231e-06
-2.53964e-05
2.2385e-06
-2.56559e-05
2.35195e-06
-2.61834e-05
2.30524e-06
1.97671e-06
-2.71466e-05
-1.57852e-07
-2.79492e-05
2.09627e-05
-1.69057e-05
-2.21731e-05
-1.83728e-05
-2.45114e-05
2.12127e-05
-5.94786e-06
6.95985e-06
-2.28042e-05
5.8827e-05
-3.33996e-06
-5.78735e-05
2.19922e-06
2.69633e-05
6.25755e-06
-2.79567e-05
2.66857e-05
5.91871e-06
2.66379e-05
5.47677e-06
2.66449e-05
4.96311e-06
2.65534e-05
4.44209e-06
2.64458e-05
3.82893e-06
2.62689e-05
3.52892e-06
2.60997e-05
3.03264e-06
2.59447e-05
2.69103e-06
2.58339e-05
2.41408e-06
2.57671e-05
2.20532e-06
2.57652e-05
2.05002e-06
2.57628e-05
1.95656e-06
2.58017e-05
1.94166e-06
2.58702e-05
1.95936e-06
2.59612e-05
2.01085e-06
2.61003e-05
2.0941e-06
2.61556e-05
2.26033e-06
2.62455e-05
2.48445e-06
2.63514e-05
2.754e-06
2.64845e-05
3.05935e-06
2.66562e-05
3.39174e-06
2.68704e-05
3.73023e-06
2.71027e-05
4.06413e-06
2.74545e-05
4.40244e-06
2.77148e-05
4.7445e-06
2.8012e-05
4.93247e-06
2.8284e-05
5.27369e-06
2.8606e-05
5.43876e-06
2.87526e-05
5.65423e-06
2.89231e-05
5.72649e-06
2.89599e-05
5.69894e-06
2.87096e-05
5.78566e-06
2.83636e-05
5.67936e-06
2.78621e-05
5.47317e-06
2.72033e-05
5.25401e-06
2.63235e-05
5.07513e-06
2.53404e-05
4.77217e-06
2.4247e-05
4.50549e-06
-2.03643e-05
-2.38577e-05
2.43276e-05
-2.1682e-05
-2.24907e-05
5.85113e-05
-1.89897e-06
4.88546e-06
-6.18229e-05
-2.43138e-05
-3.6914e-06
-1.84779e-05
-2.76266e-05
-3.17062e-06
-2.44949e-05
2.34383e-05
4.67573e-06
-2.55149e-05
4.91956e-06
-2.63633e-05
5.12461e-06
-2.71538e-05
5.36685e-06
-2.7712e-05
5.50913e-06
-2.81686e-05
5.69276e-06
-2.84436e-05
5.73469e-06
-2.85127e-05
5.75095e-06
-2.85273e-05
5.77114e-06
-2.83674e-05
5.64847e-06
-2.82077e-05
5.55999e-06
-2.79904e-05
5.33704e-06
-2.77626e-05
5.10039e-06
-2.74924e-05
4.82378e-06
-2.72837e-05
4.54683e-06
-2.70935e-05
4.19693e-06
-2.68861e-05
3.85126e-06
-2.67149e-05
3.51845e-06
-2.65681e-05
3.19213e-06
-2.64062e-05
2.88062e-06
-2.62677e-05
2.60757e-06
-2.6107e-05
2.36291e-06
-2.59224e-05
2.1859e-06
-2.57022e-05
2.08015e-06
-2.54532e-05
2.05124e-06
-2.54046e-05
2.03985e-06
-2.50997e-05
2.15919e-06
-2.50033e-05
1.97263e-06
-2.50644e-05
2.17954e-06
-2.51738e-05
2.18408e-06
-2.52851e-05
2.24278e-06
-2.56546e-05
2.39271e-06
-2.66678e-05
2.64812e-06
7.07488e-07
-2.82487e-05
1.94084e-05
-1.58634e-05
1.78574e-05
-2.58757e-05
-1.59724e-05
-3.85317e-06
4.20883e-06
2.31087e-05
-3.40997e-06
2.34365e-05
-2.87123e-06
2.3775e-05
-2.21948e-06
2.39947e-05
-1.60799e-06
2.42524e-05
-9.86529e-07
2.44657e-05
-2.92488e-07
2.45266e-05
4.72098e-07
2.45188e-05
1.12472e-06
2.44984e-05
1.81325e-06
2.43231e-05
2.46715e-06
2.40773e-05
3.00718e-06
2.38345e-05
3.51075e-06
2.35047e-05
3.93779e-06
2.31524e-05
4.23422e-06
2.28152e-05
4.34343e-06
2.2426e-05
2.5227e-05
-1.68653e-05
-2.48032e-05
2.8551e-05
-1.81926e-05
2.81405e-05
-1.57627e-05
2.75691e-05
-1.36022e-05
-1.198e-05
-1.89225e-05
1.84133e-05
2.01867e-05
-8.06487e-06
-2.94145e-05
-1.8649e-05
1.74446e-05
9.86274e-07
6.50715e-09
-8.70416e-06
-2.36344e-05
2.26779e-05
2.58001e-05
5.80516e-06
-2.56768e-05
2.59877e-05
5.38489e-06
2.61119e-05
4.98828e-06
2.61377e-05
4.56771e-06
2.6124e-05
4.09265e-06
2.59524e-05
3.65479e-06
2.5904e-05
3.26481e-06
2.57801e-05
2.88333e-06
2.56829e-05
2.56854e-06
2.56247e-05
2.31019e-06
2.56084e-05
2.11285e-06
2.56273e-05
1.97475e-06
2.56899e-05
1.89272e-06
2.57881e-05
1.89137e-06
2.59183e-05
1.91963e-06
2.60495e-05
2.00892e-06
2.61656e-05
2.14113e-06
2.62858e-05
2.33357e-06
2.64131e-05
2.57863e-06
2.65493e-05
2.86683e-06
2.67016e-05
3.18536e-06
2.68773e-05
3.52568e-06
2.7079e-05
3.87202e-06
2.73064e-05
4.2146e-06
2.75669e-05
4.5503e-06
2.7876e-05
4.86698e-06
2.81088e-05
5.13846e-06
2.83969e-05
5.41164e-06
2.85785e-05
5.64766e-06
2.87726e-05
5.78349e-06
2.88864e-05
5.83229e-06
2.87047e-05
5.96565e-06
2.85344e-05
5.88135e-06
2.81893e-05
5.77415e-06
2.76226e-05
5.61095e-06
2.68022e-05
5.47753e-06
2.59324e-05
5.20521e-06
2.49371e-05
4.92137e-06
2.38486e-05
4.68692e-06
2.27504e-05
4.39046e-06
4.15742e-06
5.74853e-05
-3.42799e-06
-2.566e-06
-2.77e-05
-1.6487e-05
8.84807e-06
-1.99488e-05
-2.58363e-05
2.59115e-05
-1.98756e-05
-2.58451e-05
-2.20776e-05
-2.37603e-05
-6.21641e-05
-5.87166e-06
6.57676e-05
6.158e-05
2.06167e-06
-5.75796e-05
2.20197e-05
-3.01473e-06
-2.81523e-05
3.95128e-06
-3.03315e-05
2.13301e-05
1.56516e-05
-1.62829e-05
-1.14269e-05
-4.54817e-05
1.39238e-05
1.29642e-05
-1.97853e-05
-1.77207e-05
2.4013e-05
1.40426e-06
-6.53627e-05
-6.03627e-06
6.96229e-05
-2.29935e-05
2.19078e-05
4.37632e-06
-2.40493e-05
4.66695e-06
-2.50357e-05
4.88208e-06
-2.59813e-05
5.13298e-06
-2.67595e-05
5.33214e-06
-2.74402e-05
5.52943e-06
-2.7877e-05
5.63499e-06
-2.82198e-05
5.74999e-06
-2.84123e-05
5.77013e-06
-2.84285e-05
5.74581e-06
-2.83875e-05
5.67122e-06
-2.82269e-05
5.53743e-06
-2.80571e-05
5.34917e-06
-2.78679e-05
5.11497e-06
-2.76786e-05
4.84517e-06
-2.74714e-05
4.5464e-06
-2.72914e-05
4.21366e-06
-2.71233e-05
3.86836e-06
-2.69522e-05
3.5213e-06
-2.6773e-05
3.17671e-06
-2.66104e-05
2.87389e-06
-2.64221e-05
2.57002e-06
-2.62298e-05
2.31471e-06
-2.60217e-05
2.1081e-06
-2.57753e-05
1.94376e-06
-2.54853e-05
1.84217e-06
-2.52572e-05
1.85642e-06
-2.51115e-05
2.01035e-06
-2.4974e-05
1.7687e-06
-2.49127e-05
1.98551e-06
-2.49307e-05
1.99919e-06
-2.50658e-05
2.09803e-06
-2.53751e-05
2.34929e-06
-2.57533e-05
2.60542e-06
3.64842e-06
-2.59219e-05
2.43477e-05
-1.46218e-05
-3.96999e-05
3.551e-05
-1.63247e-05
2.33269e-05
-1.63175e-05
-4.65376e-05
-3.8817e-06
4.10295e-06
2.16526e-05
-3.52764e-06
2.19942e-05
-3.1137e-06
2.23603e-05
-2.57811e-06
2.26619e-05
-2.03356e-06
2.2946e-05
-1.44829e-06
2.32219e-05
-7.89694e-07
2.34058e-05
-1.46904e-07
2.35099e-05
4.25543e-07
2.3582e-05
1.05748e-06
2.34931e-05
1.67295e-06
2.33067e-05
2.23092e-06
2.30752e-05
2.77207e-06
2.27914e-05
3.26622e-06
2.2439e-05
3.64745e-06
2.21175e-05
3.9378e-06
2.17747e-05
4.13963e-06
2.13611e-05
4.15099e-06
2.0902e-05
-1.90843e-05
3.00912e-05
-1.74091e-05
2.88759e-05
-1.44934e-05
2.76189e-05
-1.23769e-05
2.5831e-05
-1.0318e-05
-1.19507e-05
2.4614e-05
3.90645e-06
-5.13721e-06
2.44642e-05
-2.98105e-05
2.53202e-05
6.13002e-06
-2.48672e-05
-6.94247e-06
2.53673e-05
5.34988e-06
2.54955e-05
4.8176e-06
2.56078e-05
4.41091e-06
2.56714e-05
4.03233e-06
2.56502e-05
3.65349e-06
2.55781e-05
3.28925e-06
2.55069e-05
2.94069e-06
2.54268e-05
2.62632e-06
2.53795e-05
2.34302e-06
2.5373e-05
2.11514e-06
2.54081e-05
1.94175e-06
2.54803e-05
1.82804e-06
2.55898e-05
1.76853e-06
2.57354e-05
1.78342e-06
2.58955e-05
1.83819e-06
2.60674e-05
1.94794e-06
2.62336e-05
2.10947e-06
2.6399e-05
2.32117e-06
2.6561e-05
2.58113e-06
2.67219e-05
2.87867e-06
2.68886e-05
3.19995e-06
2.70648e-05
3.5405e-06
2.72557e-05
3.88419e-06
2.74604e-05
4.22575e-06
2.76849e-05
4.55236e-06
2.79228e-05
4.85857e-06
2.8147e-05
5.13414e-06
2.83675e-05
5.38548e-06
2.85754e-05
5.58627e-06
2.86957e-05
5.73241e-06
2.86135e-05
5.87615e-06
2.85346e-05
5.8721e-06
2.82611e-05
5.82636e-06
2.78306e-05
5.70722e-06
2.71367e-05
5.64001e-06
2.63939e-05
5.40217e-06
2.5493e-05
5.15983e-06
2.44123e-05
4.96752e-06
2.33593e-05
4.6645e-06
2.22531e-05
4.42985e-06
2.11937e-05
4.15367e-06
2.60868e-05
-1.66856e-05
-2.58597e-05
-3.17597e-06
-2.78642e-05
2.14922e-05
-2.88185e-05
-2.70146e-05
2.68986e-05
-1.72413e-05
1.77383e-05
-2.70549e-05
-1.80502e-05
1.85072e-05
-1.92187e-05
-2.73527e-05
-2.75009e-05
-3.3965e-06
-2.8408e-05
-2.58529e-05
-2.15772e-05
-2.5185e-05
-2.39358e-05
6.49315e-05
-6.36055e-05
-2.04007e-07
3.14995e-05
-1.85917e-05
1.49142e-05
-2.77654e-05
-6.38054e-05
5.73301e-05
-7.88265e-06
2.0704e-05
-1.36e-05
2.45031e-05
3.29541e-07
-1.17746e-05
2.4995e-05
1.14042e-05
6.027e-05
-6.06059e-05
4.8863e-06
5.192e-06
5.89076e-05
2.50959e-05
2.56367e-06
2.48214e-05
2.42645e-06
2.46769e-05
2.11112e-06
2.46039e-05
1.86764e-06
2.46779e-05
1.70026e-06
2.48427e-05
1.67601e-06
2.48713e-05
1.66723e-06
2.52416e-05
1.63039e-06
2.54998e-05
1.63861e-06
2.57521e-05
1.66345e-06
2.60116e-05
1.77874e-06
2.62492e-05
1.97253e-06
2.64632e-05
2.1998e-06
2.66647e-05
2.45794e-06
2.68624e-05
2.74921e-06
2.7029e-05
3.06696e-06
2.71961e-05
3.39658e-06
2.73495e-05
3.74484e-06
2.75102e-05
4.07187e-06
2.76754e-05
4.3889e-06
2.78274e-05
4.68499e-06
2.79756e-05
4.93534e-06
2.80927e-05
5.16445e-06
2.81632e-05
5.34328e-06
2.81681e-05
5.46118e-06
2.80618e-05
5.53867e-06
2.78256e-05
5.56032e-06
2.74575e-05
5.52173e-06
2.69083e-05
5.42987e-06
2.62012e-05
5.32789e-06
2.53718e-05
5.11469e-06
2.44015e-05
4.94705e-06
2.33491e-05
4.71021e-06
2.22945e-05
4.47556e-06
2.12066e-05
4.24721e-06
2.02163e-05
4.00095e-06
4.42893e-06
5.7381e-05
-4.62783e-06
-3.79067e-06
3.88858e-06
2.01877e-05
-3.56277e-06
2.06321e-05
-3.24063e-06
2.09781e-05
-2.80257e-06
2.13092e-05
-2.29057e-06
2.16059e-05
-1.77341e-06
2.19421e-05
-1.18696e-06
2.21954e-05
-6.29319e-07
2.24422e-05
-1.20338e-07
2.26158e-05
4.19193e-07
2.26646e-05
9.59511e-07
2.25702e-05
1.47532e-06
2.23864e-05
1.98859e-06
2.21236e-05
2.5116e-06
2.17851e-05
2.96666e-06
2.14451e-05
3.35212e-06
2.11272e-05
3.68457e-06
2.07586e-05
3.8597e-06
2.04066e-05
3.94057e-06
1.99276e-05
3.82456e-06
1.93069e-05
2.63852e-05
-1.45989e-05
-6.45739e-06
-2.7466e-05
-1.6484e-05
2.66245e-05
1.70849e-05
1.46782e-05
6.80213e-05
-5.32986e-05
-2.97267e-05
1.00646e-05
-5.78672e-05
7.124e-06
-5.92209e-05
6.16499e-06
-5.99785e-05
6.00128e-05
5.43428e-06
-5.9583e-05
5.908e-05
5.50525e-06
5.828e-05
5.67539e-06
-6.81417e-06
9.49923e-06
5.53023e-05
2.46734e-05
-1.27629e-05
2.29859e-06
5.49533e-05
-5.5265e-05
-2.27026e-06
1.33151e-05
3.06058e-05
-1.24065e-05
1.16417e-05
3.53284e-05
-3.91406e-05
-7.87245e-06
3.45976e-05
-2.80241e-05
-1.65579e-05
2.76416e-05
-2.83237e-05
-1.74121e-05
-1.83677e-05
-2.88092e-05
-3.72388e-06
-2.67726e-05
2.59696e-05
-1.6189e-05
-2.61316e-05
6.58338e-07
1.9889e-06
3.23496e-05
-1.41839e-05
3.02011e-05
-1.23568e-05
2.82393e-05
-1.05002e-05
2.75571e-05
-9.79381e-06
-1.01724e-05
2.55495e-05
-1.93294e-05
2.90937e-05
1.45206e-05
1.26791e-05
-6.67449e-06
-2.20055e-05
1.58025e-05
2.47302e-05
7.44044e-06
-8.11299e-06
-2.44552e-05
2.4813e-05
5.61318e-06
2.49302e-05
4.75925e-06
2.50344e-05
4.20155e-06
2.5097e-05
3.80776e-06
2.51244e-05
3.46027e-06
2.51163e-05
3.13251e-06
2.508e-05
2.8264e-06
2.50296e-05
2.54209e-06
2.5e-05
2.27333e-06
2.49925e-05
2.04608e-06
2.50334e-05
1.85025e-06
2.51166e-05
1.71122e-06
2.52377e-05
1.62739e-06
2.53914e-05
1.59498e-06
2.55841e-05
1.62014e-06
2.57886e-05
1.69983e-06
2.60017e-05
1.82553e-06
2.6209e-05
2.00341e-06
2.64103e-05
2.2231e-06
2.65973e-05
2.49195e-06
2.67743e-05
2.78564e-06
2.69507e-05
3.0936e-06
2.71204e-05
3.42846e-06
2.73004e-05
3.75153e-06
2.74751e-05
4.08912e-06
2.76647e-05
4.39029e-06
2.78532e-05
4.68097e-06
2.80378e-05
4.93388e-06
2.81872e-05
5.18074e-06
2.83228e-05
5.33521e-06
2.83617e-05
5.49254e-06
2.83411e-05
5.58463e-06
2.81613e-05
5.60553e-06
2.78144e-05
5.57489e-06
2.7245e-05
5.51897e-06
2.65672e-05
5.40502e-06
2.57676e-05
5.14905e-06
2.47629e-05
5.00134e-06
2.37492e-05
4.74702e-06
2.26613e-05
4.49397e-06
2.15564e-05
4.30338e-06
2.05284e-05
4.02559e-06
1.95754e-05
3.80121e-06
3.05343e-05
1.55416e-05
-3.10606e-05
2.94181e-05
1.45002e-05
-1.18393e-05
1.36973e-05
2.75798e-05
-5.82011e-05
5.43234e-08
5.93808e-05
-1.42057e-06
2.73484e-05
-8.60954e-06
-4.21182e-06
-2.72235e-05
1.18097e-06
6.16034e-05
-1.22681e-06
1.29769e-05
2.484e-05
-1.05402e-05
5.54024e-06
5.8453e-05
-8.72085e-06
-5.5591e-05
-2.66503e-05
-2.3928e-05
-2.74526e-05
-2.08439e-05
-2.76531e-05
1.56426e-05
-2.97989e-05
2.8792e-05
2.88877e-05
-1.63736e-05
-2.96709e-05
2.81883e-05
5.6211e-05
-3.04579e-05
6.26479e-05
1.70354e-06
3.14466e-07
-6.04196e-05
1.33652e-05
5.62315e-05
2.96936e-05
-2.72627e-05
-3.52923e-05
-3.23315e-05
-7.19986e-06
3.08431e-05
-1.01758e-05
-6.12391e-05
6.17447e-06
-6.16129e-05
5.57086e-06
-6.06347e-05
4.17222e-06
2.42118e-05
2.03926e-06
2.42268e-05
1.93955e-06
2.41741e-05
1.78469e-06
2.41682e-05
1.57065e-06
2.42226e-05
1.42459e-06
2.44226e-05
1.33902e-06
2.46127e-05
1.41122e-06
2.49271e-05
1.31207e-06
2.51784e-05
1.43059e-06
2.54461e-05
1.46517e-06
2.56964e-05
1.60779e-06
2.59803e-05
1.76091e-06
2.62292e-05
2.00323e-06
2.64604e-05
2.2501e-06
2.66612e-05
2.53476e-06
2.68322e-05
2.8389e-06
2.69873e-05
3.14552e-06
2.71295e-05
3.47007e-06
2.72614e-05
3.77326e-06
2.73864e-05
4.06448e-06
2.74975e-05
4.34017e-06
2.75879e-05
4.57107e-06
2.76515e-05
4.77568e-06
2.76669e-05
4.93435e-06
2.75952e-05
5.04907e-06
2.74261e-05
5.11152e-06
2.71337e-05
5.12437e-06
2.66895e-05
5.09176e-06
2.60829e-05
5.01186e-06
2.53552e-05
4.88707e-06
2.44331e-05
4.74511e-06
2.34379e-05
4.5589e-06
2.23924e-05
4.32041e-06
2.12899e-05
4.13871e-06
2.02378e-05
3.90553e-06
1.92249e-05
3.71219e-06
1.83659e-05
3.5121e-06
-2.81524e-05
-8.41028e-06
2.61803e-05
-2.98589e-05
-8.26073e-06
-3.16889e-05
-8.78907e-06
-3.43583e-05
-9.749e-06
-3.75415e-05
-1.10033e-05
-4.15914e-05
-1.22273e-05
-4.24256e-05
2.91845e-05
3.83039e-05
-1.12175e-05
2.60698e-05
-2.62315e-05
2.58043e-05
-1.57131e-05
2.71128e-05
1.48378e-05
2.77329e-05
-3.74023e-06
5.55695e-05
3.20709e-06
3.47563e-06
5.58982e-05
1.52849e-05
-3.36769e-05
-1.25471e-05
-1.71026e-05
-3.06523e-05
2.90138e-05
-9.62816e-06
6.6808e-06
-2.55837e-05
4.53492e-06
-4.29665e-05
4.31046e-06
-2.33146e-05
2.72316e-05
-1.56065e-05
1.09097e-05
-5.49876e-06
-5.53828e-05
4.97465e-05
-6.24238e-05
-1.97493e-06
5.79967e-05
-1.21806e-05
-4.56509e-05
-3.66192e-06
3.59808e-06
1.87448e-05
-3.56314e-06
1.93133e-05
-3.30927e-06
1.97032e-05
-2.94717e-06
2.00234e-05
-2.49604e-06
2.03315e-05
-2.00943e-06
2.06462e-05
-1.47571e-06
2.09785e-05
-9.82542e-07
2.13073e-05
-5.23421e-07
2.16134e-05
-5.55845e-08
2.17928e-05
3.95409e-07
2.18648e-05
8.35462e-07
2.17791e-05
1.29432e-06
2.1561e-05
1.77216e-06
2.12533e-05
2.24521e-06
2.08859e-05
2.68879e-06
2.0533e-05
3.11783e-06
2.01784e-05
3.42756e-06
1.98653e-05
3.63316e-06
1.95369e-05
3.69454e-06