/*--------------------------------*- C++ -*----------------------------------*\
| =========                 |                                                 |
| \\      /  F ield         | OpenFOAM: The Open Source CFD Toolbox           |
|  \\    /   O peration     | Version:  2212                                  |
|   \\  /    A nd           | Website:  www.openfoam.com                      |
|    \\/     M anipulation  |                                                 |
\*---------------------------------------------------------------------------*/
FoamFile
{
    version     2.0;
    format      ascii;
    arch        "LSB;label=32;scalar=64";
    class       volScalarField;
    location    "0.0185";
    object      k;
}
// * * * * * * * * * * * * * * * * * * * * * * * * * * * * * * * * * * * * * //

dimensions      [0 2 -2 0 0 0 0];

internalField   nonuniform List<scalar> 
44662
(
144.922
250.518
249.616
254.559
252.437
81.2096
146.462
75.3873
216.717
237.972
91.4054
115.572
143.957
191.082
241.313
121.151
164.13
148.46
223.939
166.095
234.083
152.904
213.168
217.654
321.902
219.567
138.969
103.86
157.004
115.555
188.945
202.459
289.665
73.6151
1781.75
219.697
153.358
142.629
224.321
200.211
195.048
164.719
101.114
220.671
216.706
116.472
134.828
231.603
235.758
222.887
258.734
122.584
204.222
32.5316
238.303
108.343
196.611
96.2269
115.811
113.579
96.2192
24.4533
238.343
196.775
236.374
93.3122
72.5224
96.4147
202.094
166.423
28.6253
76.7917
196.416
90.7909
158.055
177.174
20.3602
117.608
109.198
71.5114
115.437
150.495
225.992
145.154
116.558
225.052
143.097
328.986
220.775
150.648
125.718
135.566
225.102
24.8188
212.988
213.854
75.6426
209.901
231.59
215.227
160.375
318.77
119.184
48.7453
140.866
113.161
137.992
105.502
216.203
158.356
135.068
203.739
315.071
212.606
57.3112
131.853
104.17
230.815
21.2332
128.494
198.513
128.595
99.9118
125.745
125.454
457.969
123.187
122.234
273.133
120.577
118.994
98.4117
86.7555
107.181
117.351
115.864
96.6644
95.9615
113.626
112.935
102.042
109.842
114.123
105.266
106.113
273.702
241.604
241.805
441.158
224.41
202.564
260.726
102.386
103.245
381.551
423.95
200.348
160.613
160.906
161.219
161.55
161.899
162.264
162.646
163.044
163.458
163.888
164.333
164.792
165.266
165.752
166.252
166.763
167.286
167.82
168.365
168.92
169.485
170.059
170.642
171.234
171.835
172.444
173.06
173.684
174.315
174.954
175.6
176.253
176.914
177.584
178.261
178.945
179.638
180.337
181.045
181.76
182.484
183.216
183.956
184.705
185.463
186.23
187.008
187.797
188.598
187.743
188.541
186.956
28.3659
160.341
160.619
160.349
189.412
190.238
190.173
189.351
185.415
186.181
183.913
184.66
182.446
183.176
181.013
181.725
179.61
180.308
178.238
178.921
176.896
177.563
175.584
176.237
174.303
174.94
173.052
173.674
171.831
172.438
170.642
171.233
169.487
170.06
168.37
168.924
167.293
167.826
166.261
166.771
165.276
165.762
164.344
164.804
163.47
163.9
162.659
163.056
161.912
162.277
161.23
161.563
160.916
161.223
160.911
161.901
161.553
162.645
162.264
163.456
163.043
164.331
163.886
165.263
164.79
166.248
165.749
167.281
166.759
168.357
167.814
169.474
168.911
170.629
170.047
171.819
171.22
173.041
172.426
174.292
173.663
175.573
174.929
176.882
176.224
178.222
177.548
179.594
178.905
180.997
180.292
182.43
181.709
183.897
183.159
185.397
184.643
186.935
186.161
188.518
187.721
190.152
189.329
187.557
188.346
186.779
23.7343
27.8634
160.64
160.37
191.006
189.955
190.777
189.914
190.988
190.739
160.101
160.093
189.146
185.254
186.011
183.768
184.506
182.318
183.039
180.9
181.605
179.512
180.202
178.154
178.83
176.825
177.486
175.525
176.171
174.256
174.887
173.016
173.632
171.806
172.407
170.627
171.212
169.481
170.049
168.371
168.922
167.301
167.831
166.275
166.782
165.295
165.779
164.367
164.824
163.495
163.924
162.686
163.083
161.94
162.305
161.258
161.59
160.943
157.176
191.076
161.241
160.931
161.918
161.571
162.661
162.281
163.47
163.058
164.341
163.898
165.269
164.798
166.249
165.753
167.276
166.757
168.345
167.805
169.455
168.895
170.601
170.023
171.781
171.187
172.993
172.383
174.233
173.61
175.502
174.864
176.798
176.146
178.124
177.457
179.481
178.799
180.868
180.171
182.286
181.573
183.736
183.007
185.219
184.473
186.738
185.973
188.301
187.514
189.102
160.123
190.384
189.583
187.235
188.009
186.472
191.835
191.574
160.101
159.898
159.878
159.871
191.196
189.817
190.6
159.68
159.697
188.792
184.975
185.718
183.516
184.241
182.093
182.801
180.701
181.393
179.339
180.017
178.005
178.668
176.697
177.348
175.418
176.054
174.168
174.789
172.948
173.555
171.756
172.348
170.593
171.171
169.462
170.023
168.366
168.91
167.308
167.832
166.291
166.794
165.32
165.799
164.398
164.852
163.532
163.958
162.726
163.122
161.982
162.347
161.3
161.633
236.581
160.985
191.851
191.926
191.609
159.725
160.155
159.929
160.673
160.403
161.273
160.963
161.948
161.602
162.69
162.311
163.495
163.085
164.36
163.92
165.281
164.814
166.252
165.761
167.269
166.755
168.326
167.793
169.423
168.87
170.554
169.984
171.718
171.132
172.912
172.311
174.134
173.519
175.382
174.754
176.657
176.016
177.961
177.305
179.293
178.623
180.654
179.97
182.045
181.346
183.467
182.752
184.922
184.191
186.411
185.662
187.942
187.171
189.519
188.724
191.141
190.325
159.52
159.545
160.127
189.044
159.88
192.019
191.395
189.061
189.808
190.525
191.969
191.326
159.673
159.505
159.367
186.024
186.768
187.52
159.388
160.222
160.168
188.278
184.567
185.291
183.148
183.853
181.763
182.451
180.408
181.082
179.082
179.742
177.781
178.428
176.505
177.14
175.254
175.876
174.033
174.641
172.84
173.433
171.674
172.254
170.535
171.101
169.425
169.976
168.348
168.882
167.307
167.823
166.305
166.801
165.346
165.82
164.435
164.884
163.577
163.999
162.777
163.17
162.035
162.399
161.355
161.687
230.377
161.041
411.324
192.692
192.421
192.707
192.787
192.453
159.416
159.762
159.578
160.197
159.969
160.717
160.447
161.316
161.007
161.989
161.644
162.728
162.351
163.527
163.12
164.384
163.948
165.294
164.832
166.252
165.767
167.253
166.747
168.294
167.769
169.371
168.828
170.481
169.922
171.622
171.048
172.79
172.203
173.985
173.385
175.205
174.592
176.45
175.825
177.721
177.083
179.019
178.367
180.344
179.678
181.698
181.018
183.081
182.386
184.495
183.784
185.942
185.214
187.426
186.679
188.954
188.185
189.734
159.253
159.276
159.903
188.323
186.137
186.861
185.421
190.566
192.807
192.137
160.288
159.993
160.055
159.68
159.5
159.354
159.236
159.142
159.159
159.941
187.59
184.016
184.714
182.648
183.328
181.313
181.977
180.007
180.657
178.727
179.364
177.471
178.096
176.236
176.851
175.024
175.626
173.84
174.428
172.683
173.258
171.551
172.114
170.443
170.994
169.362
169.899
168.31
168.832
167.292
167.796
166.309
166.796
165.368
165.833
164.472
164.914
163.625
164.042
162.833
163.222
162.097
162.457
161.421
161.75
160.815
161.108
160.542
193.56
193.277
193.575
193.659
192.855
193.309
191.337
192.203
159.181
159.45
159.305
159.807
159.618
160.247
160.017
160.77
160.499
161.367
161.059
162.037
161.694
162.769
162.396
163.56
163.158
164.405
163.976
165.301
164.847
166.241
165.766
167.223
166.727
168.24
167.727
169.292
168.762
170.373
169.829
171.483
170.925
172.618
172.047
173.778
173.195
174.96
174.366
176.166
175.56
177.394
176.777
178.647
178.018
179.926
179.283
181.23
180.574
182.562
181.892
183.922
183.238
185.313
184.614
186.739
186.022
188.204
187.467
189.708
188.951
191.252
190.475
159.064
159.078
159.843
159.784
159.702
188.095
188.798
187.4
159.506
192.121
190.237
190.977
190.132
192.039
190.876
159.911
159.653
159.716
159.35
159.226
159.129
159.053
158.992
186.014
185.326
184.644
158.998
159.737
189.511
186.706
183.303
183.969
181.999
182.647
180.726
181.359
179.481
180.101
178.26
178.868
177.059
177.657
175.874
176.464
174.71
175.289
173.573
174.138
172.463
173.015
171.375
171.917
170.306
170.838
169.261
169.78
168.242
168.748
167.252
167.743
166.296
166.77
165.377
165.832
164.5
164.933
163.668
164.078
162.888
163.272
162.161
162.518
161.492
161.819
160.89
161.182
160.361
160.616
160.126
193.656
192.959
194.44
194.146
194.455
194.542
193.704
194.177
193.024
159.005
159.206
159.095
159.489
159.337
159.856
159.663
160.303
160.07
160.828
160.556
161.422
161.116
162.085
161.746
162.809
162.44
163.588
163.192
164.418
163.997
165.294
164.85
166.212
165.748
167.167
166.685
168.155
167.657
169.174
168.661
170.219
169.693
171.29
170.751
172.383
171.833
173.498
172.938
174.633
174.063
175.788
175.208
176.964
176.373
178.161
177.56
179.381
178.768
180.624
179.999
181.892
181.255
183.186
182.535
184.507
183.843
185.861
185.18
187.248
186.55
188.672
187.955
189.397
158.938
158.935
159.599
159.526
186.896
187.547
186.251
184.311
184.956
183.669
188.879
189.565
192.837
191.63
159.54
159.484
159.357
159.224
159.122
159.046
158.987
158.941
158.9
158.886
159.557
188.207
185.604
182.407
183.034
181.179
181.789
179.982
180.577
178.81
179.393
177.659
178.232
176.525
177.09
175.403
175.963
174.297
174.847
173.217
173.754
172.165
172.688
171.13
171.645
170.11
170.618
169.109
169.607
168.13
168.616
167.177
167.65
166.254
166.712
165.364
165.805
164.511
164.933
163.7
164.1
162.935
163.311
162.221
162.572
161.562
161.884
160.965
161.255
160.437
160.692
159.983
160.201
159.607
159.785
159.381
159.45
194.517
193.793
195.332
195.027
195.347
195.438
194.565
195.058
192.919
193.858
190.265
191.73
158.87
159.011
158.931
159.231
159.111
159.53
159.371
159.906
159.709
160.359
160.123
160.884
160.613
161.475
161.171
162.129
161.795
162.841
162.478
163.603
163.216
164.412
164.002
165.263
164.833
166.152
165.703
167.074
166.609
168.026
167.546
169.003
168.511
170.004
169.501
171.027
170.513
172.069
171.545
173.128
172.596
174.206
173.665
175.3
174.751
176.412
175.854
177.542
176.974
178.69
178.114
179.86
179.272
181.05
180.452
182.264
181.654
183.502
182.88
184.768
184.131
186.063
185.411
187.391
186.723
188.751
188.067
190.146
189.444
158.857
158.828
159.438
159.373
185.437
186.027
184.849
183.065
183.66
182.472
159.337
159.23
190.975
188.496
189.144
188.358
190.857
189.006
159.246
159.243
159.122
159.042
158.985
158.943
158.911
158.882
158.806
158.847
159.401
187.236
187.86
186.626
184.256
181.302
181.883
180.164
180.729
179.056
179.607
177.971
178.511
176.904
177.436
175.849
176.375
174.802
175.325
173.765
174.281
172.753
173.255
171.769
172.258
170.799
171.283
169.837
170.316
168.89
169.361
167.96
168.422
167.053
167.504
166.17
166.608
165.316
165.74
164.494
164.901
163.709
164.097
162.965
163.331
162.269
162.611
161.623
161.939
161.035
161.321
160.51
160.764
160.052
160.272
159.67
159.851
159.373
159.511
159.135
159.141
159.253
193.646
192.394
195.391
194.638
196.237
195.92
196.253
196.348
195.439
195.952
193.729
194.703
192.494
158.742
158.761
158.801
158.744
158.851
158.797
159.016
158.924
159.254
159.126
159.567
159.402
159.953
159.751
160.41
160.173
160.933
160.663
161.518
161.218
162.159
161.832
162.854
162.501
163.595
163.219
164.378
163.981
165.197
164.783
166.05
165.62
166.931
166.487
167.837
167.381
168.765
168.299
169.713
169.237
170.677
170.193
171.657
171.165
172.651
172.152
173.66
173.154
174.681
174.169
175.717
175.197
176.766
176.24
177.832
177.297
178.914
178.371
180.014
179.461
181.133
180.571
182.273
181.7
183.435
182.851
184.624
184.026
185.84
185.228
187.084
186.458
187.717
159.3
159.245
183.688
184.212
183.163
186.395
186.97
191.577
189.663
159.214
159.128
159.128
159.043
159.044
159.043
158.985
158.946
158.921
158.903
158.883
158.855
158.813
158.658
158.749
182.101
181.564
181.025
159.269
185.279
185.831
184.741
182.635
179.961
180.49
178.927
179.44
177.923
178.422
176.94
177.43
175.969
176.453
175.007
175.487
174.046
174.526
173.091
173.567
172.16
172.622
171.255
171.705
170.361
170.808
169.469
169.914
168.586
169.026
167.716
168.149
166.863
167.287
166.03
166.444
165.22
165.622
164.436
164.825
163.684
164.056
162.967
163.32
162.293
162.624
161.666
161.975
161.091
161.371
160.571
160.824
160.113
160.334
159.723
159.909
159.402
159.554
159.145
159.266
158.962
158.946
159.038
194.467
193.169
196.277
195.496
197.157
196.827
197.171
197.27
196.326
196.859
194.551
195.562
191.697
193.271
187.554
189.801
158.709
158.678
158.828
158.76
159.015
158.913
159.272
159.136
159.598
159.426
159.991
159.787
160.449
160.212
160.967
160.701
161.542
161.248
162.167
161.848
162.839
162.497
163.552
163.191
164.301
163.922
165.082
164.688
165.89
165.483
166.722
166.303
167.573
167.145
168.442
168.006
169.325
168.882
170.221
169.771
171.128
170.673
172.045
171.585
172.972
172.507
173.908
173.439
174.855
174.38
175.811
175.332
176.78
176.294
177.761
177.269
178.755
178.256
179.765
179.258
180.792
180.276
181.836
181.312
182.902
182.366
183.99
183.443
185.101
184.542
186.236
185.665
187.398
186.814
159.186
159.14
181.619
182.067
181.171
179.775
180.247
179.298
159.111
159.048
188.146
184.925
185.433
184.752
187.99
185.26
159.04
158.987
158.972
158.95
158.869
158.897
158.93
158.921
158.915
158.905
158.882
158.839
158.651
158.765
159.16
183.932
184.425
182.978
183.449
182.519
180.712
178.356
178.825
177.441
177.895
176.556
176.996
175.687
176.12
174.828
175.257
173.972
174.4
173.112
173.543
172.251
172.68
171.412
171.828
170.601
171.005
169.795
170.198
168.985
169.39
168.177
168.58
167.377
167.776
166.589
166.981
165.815
166.2
165.059
165.435
164.322
164.688
163.61
163.963
162.928
163.265
162.283
162.6
161.68
161.975
161.123
161.395
160.613
160.861
160.157
160.378
159.76
159.951
159.421
159.583
159.143
159.274
158.921
159.025
158.808
158.756
158.832
192.307
190.329
195.299
193.955
197.176
196.366
198.089
197.747
198.105
198.208
197.227
197.78
195.385
196.434
192.429
194.058
190.468
158.659
158.528
158.566
158.538
158.647
158.598
158.796
158.714
159.006
158.894
159.28
159.135
159.617
159.441
160.015
159.809
160.47
160.235
160.979
160.718
161.537
161.252
162.14
161.834
162.783
162.457
163.46
163.117
164.168
163.81
164.901
164.531
165.655
165.276
166.427
166.039
167.214
166.819
168.012
167.612
168.82
168.415
169.636
169.227
170.458
170.046
171.285
170.871
172.118
171.701
172.956
172.537
173.8
173.378
174.65
174.224
175.507
175.078
176.373
175.939
177.247
176.809
178.133
177.689
179.03
178.58
179.941
179.484
180.867
180.402
181.81
181.337
182.772
182.289
183.752
183.259
184.249
159.092
159.059
179.203
179.567
178.836
177.671
178.07
177.264
181.886
182.3
188.589
185.774
159.032
158.992
158.975
158.953
158.918
158.937
158.849
158.935
158.694
158.761
158.941
158.947
158.944
158.924
158.877
158.53
158.798
158.688
158.366
158.552
158.377
159.074
181.076
181.477
180.302
180.683
179.931
178.455
176.457
176.858
175.678
176.064
174.925
175.299
174.186
174.555
173.453
173.82
172.718
173.086
171.971
172.346
171.218
171.594
170.486
170.849
169.781
170.132
169.076
169.429
168.36
168.719
167.64
168
166.923
167.281
166.211
166.566
165.507
165.858
164.815
165.16
164.136
164.473
163.473
163.802
162.833
163.15
162.225
162.525
161.653
161.934
161.119
161.382
160.625
160.867
160.176
160.395
159.776
159.97
159.425
159.594
159.129
159.27
158.886
159.001
158.693
158.783
158.645
158.548
158.615
193.047
191.003
196.144
194.752
198.089
197.249
199.035
198.681
199.052
199.159
198.141
198.715
196.232
197.319
193.171
194.858
188.745
191.143
182.718
185.947
158.384
158.369
158.456
158.412
158.575
158.509
158.752
158.656
158.984
158.861
159.273
159.122
159.616
159.437
160.014
159.808
160.462
160.232
160.956
160.704
161.492
161.219
162.065
161.774
162.671
162.364
163.304
162.984
163.961
163.63
164.636
164.296
165.326
164.979
166.028
165.676
166.738
166.382
167.455
167.096
168.175
167.814
168.898
168.536
169.622
169.259
170.347
169.984
171.072
170.709
171.799
171.435
172.526
172.162
173.255
172.89
173.986
173.62
174.721
174.353
175.461
175.09
176.206
175.833
176.959
176.582
177.72
177.338
178.491
178.104
179.273
178.88
180.067
179.668
180.874
180.468
181.695
181.282
182.531
182.111
159.02
158.999
176.679
176.409
158.975
158.957
183.141
179.033
179.35
178.83
182.955
179.15
158.931
158.942
158.881
158.946
158.817
158.962
158.728
158.982
158.493
158.608
158.998
159.001
158.981
158.931
223.084
327.392
158.847
158.735
158.587
157.806
193.748
175.541
158.398
175.219
159.009
178.408
178.718
177.799
178.1
177.223
177.506
176.949
176.134
175.847
174.234
174.888
174.558
173.606
173.916
173
173.3
172.407
172.703
171.814
172.111
171.214
171.516
170.596
170.907
169.965
170.28
169.353
169.655
168.768
169.059
168.179
168.476
167.571
167.877
166.952
167.262
166.329
166.641
165.706
166.018
165.085
165.395
164.468
164.776
163.857
164.162
163.255
163.554
162.667
162.958
162.104
162.382
161.573
161.835
161.07
161.318
160.599
160.83
160.162
160.376
159.765
159.958
159.409
159.581
159.101
159.249
158.837
158.963
158.617
158.722
158.438
158.523
158.449
158.299
158.364
189.195
186.294
193.798
191.686
197.001
195.56
199.016
198.146
199.997
199.629
200.015
200.125
199.069
199.664
197.09
198.217
193.923
195.668
189.352
191.828
186.466
158.225
158.187
158.337
158.275
158.49
158.408
158.692
158.585
158.944
158.812
159.243
159.087
159.589
159.41
159.981
159.779
160.415
160.193
160.887
160.646
161.393
161.136
161.928
161.657
162.487
162.204
163.066
162.774
163.661
163.362
164.267
163.963
164.882
164.574
165.501
165.191
166.123
165.812
166.744
166.434
167.364
167.055
167.981
167.673
168.594
168.288
169.202
168.898
169.806
169.505
170.406
170.107
171.003
170.705
171.596
171.3
172.187
171.892
172.776
172.482
173.366
173.071
173.956
173.661
174.548
174.252
175.143
174.845
175.742
175.442
176.347
176.044
176.957
176.651
177.574
177.265
178.198
177.885
178.513
158.971
158.962
174.867
175.069
108.751
183.382
179.471
158.94
158.945
158.906
158.953
158.863
158.976
158.8
159.008
158.709
159.042
158.583
159.067
158.246
158.415
159.074
159.053
158.999
158.913
158.791
158.627
158.399
158.102
156.468
158.15
165.728
158.967
174.465
174.664
174.075
174.268
173.714
173.89
173.378
173.545
173.036
173.214
172.619
172.841
172.139
172.385
171.655
171.894
171.193
171.42
170.751
170.969
170.319
170.535
169.882
170.102
169.432
169.66
168.956
169.198
168.461
168.709
167.986
168.219
167.535
167.759
167.076
167.309
166.59
166.836
166.086
166.34
165.572
165.83
165.051
165.312
164.525
164.789
163.997
164.261
163.466
163.731
162.935
163.2
162.41
162.671
161.903
162.153
161.422
161.66
160.961
161.189
160.52
160.738
160.104
160.309
159.718
159.907
159.365
159.537
159.049
159.202
158.77
158.905
158.526
158.643
158.315
158.416
158.135
158.221
157.59
157.43
158.058
155.844
157.658
155.131
189.808
186.819
194.559
192.378
197.87
196.38
199.957
199.055
200.974
200.593
200.992
201.107
200.011
200.628
197.962
199.128
194.685
196.489
189.966
192.52
183.568
186.991
175.274
179.67
158.052
157.991
158.203
158.123
158.388
158.291
158.612
158.495
158.877
158.739
159.182
159.025
159.525
159.349
159.904
159.71
160.316
160.106
160.757
160.533
161.224
160.988
161.71
161.465
162.212
161.959
162.726
162.468
163.248
162.986
163.773
163.51
164.299
164.036
164.823
164.562
165.343
165.084
165.856
165.6
166.361
166.11
166.858
166.611
167.345
167.103
167.823
167.586
168.292
168.059
168.751
168.522
169.202
168.977
169.644
169.424
170.08
169.863
170.509
170.295
170.933
170.722
171.353
171.143
171.769
171.561
172.182
171.976
172.594
172.388
173.005
172.799
173.416
173.21
173.826
173.621
174.238
174.032
174.65
174.444
175.063
174.856
157.838
158.945
158.947
158.925
158.955
175.479
170.361
170.441
170.139
175.27
170.222
158.9
158.984
158.86
159.027
158.798
159.075
158.704
159.12
158.569
159.152
158.389
159.161
159.139
225.21
159.083
155.586
158.99
158.855
158.386
158.046
157.748
157.969
157.641
158.665
157.541
157.306
157.174
158.947
170.198
170.281
170.037
170.117
169.881
169.956
169.748
169.81
169.64
169.693
169.501
169.58
169.28
169.402
168.991
169.141
168.689
168.838
168.408
168.545
168.149
168.277
167.893
168.022
167.628
167.762
167.343
167.488
167.023
167.188
166.68
166.852
166.355
166.513
166.054
166.202
165.738
165.901
165.389
165.568
165.015
165.204
164.623
164.821
164.219
164.423
163.802
164.012
163.376
163.59
162.939
163.159
162.491
162.716
162.041
162.266
161.603
161.82
161.184
161.391
160.775
160.978
160.376
160.574
159.991
160.181
159.624
159.805
159.282
159.45
158.966
159.121
158.677
158.818
158.414
158.542
158.175
158.292
157.955
158.063
157.739
157.852
155.423
183.815
179.795
190.429
187.351
195.33
193.079
198.753
197.212
200.912
199.979
201.966
201.571
201.984
202.103
200.968
201.608
198.846
200.053
195.457
197.322
190.587
193.222
184
187.523
179.993
157.565
157.445
157.702
157.638
157.859
157.776
158.048
157.95
158.261
158.151
158.503
158.378
158.776
158.636
159.08
158.924
159.412
159.242
159.77
159.587
160.151
159.958
160.551
160.349
160.967
160.758
161.393
161.179
161.827
161.609
162.262
162.044
162.698
162.48
163.129
162.914
163.553
163.342
163.968
163.761
164.371
164.171
164.762
164.568
165.138
164.952
165.501
165.321
165.848
165.676
166.181
166.016
166.499
166.342
166.803
166.652
167.093
166.949
167.37
167.233
167.636
167.505
167.89
167.764
168.134
168.013
168.368
168.252
168.593
168.482
168.81
168.703
169.02
168.916
169.223
169.122
169.419
169.322
169.609
169.514
169.792
169.701
169.969
169.881
170.055
158.939
158.954
158.198
164.921
164.869
175.477
170.303
158.93
158.986
158.911
159.036
158.874
159.097
158.81
159.16
158.71
159.216
157.049
157.448
158.567
159.254
158.37
159.264
158.122
159.24
157.902
157.888
159.179
158.289
308.984
159.076
90.9448
158.922
158.708
156.927
156.64
156.484
158.948
165.016
164.969
165.105
165.061
165.198
165.15
165.308
165.249
165.433
165.371
165.514
165.486
165.498
165.514
165.414
165.462
165.312
165.361
165.231
165.267
165.167
165.197
165.101
165.135
165.021
165.064
164.915
164.972
164.768
164.847
164.591
164.681
164.429
164.506
164.295
164.361
164.137
164.221
163.94
164.044
163.709
163.828
163.456
163.585
163.182
163.321
162.89
163.038
162.58
162.737
162.25
162.418
161.901
162.078
161.539
161.721
161.182
161.359
160.837
161.008
160.494
160.666
160.149
160.322
159.805
159.976
159.47
159.637
159.148
159.307
158.841
158.993
158.551
158.694
158.275
158.411
158.013
158.143
157.762
157.886
157.506
157.637
157.349
184.251
180.121
191.058
187.888
196.113
193.79
199.649
198.056
201.883
200.917
202.973
202.564
202.992
203.115
201.94
202.602
199.742
200.992
196.24
198.167
191.216
193.933
184.436
188.06
175.684
180.318
164.814
170.519
156.954
156.796
157.241
157.108
157.443
157.346
157.644
157.541
157.867
157.754
158.103
157.983
158.357
158.228
158.631
158.491
158.924
158.775
159.236
159.078
159.563
159.398
159.902
159.731
160.25
160.075
160.603
160.426
160.956
160.78
161.307
161.132
161.651
161.48
161.986
161.82
162.308
162.149
162.616
162.464
162.907
162.764
163.179
163.045
163.433
163.309
163.666
163.552
163.879
163.775
164.072
163.978
164.245
164.161
164.398
164.324
164.532
164.468
164.648
164.593
164.746
164.699
164.827
164.789
164.892
164.862
164.942
164.919
164.977
164.961
164.998
164.989
165.005
165.003
164.998
165.003
164.979
164.991
164.948
164.965
164.903
164.927
164.845
164.876
164.774
164.811
164.689
164.733
164.59
164.641
158.953
158.981
158.953
159.037
164.756
158.568
158.37
158.338
164.535
158.144
158.94
159.108
158.904
159.187
156.327
156.805
158.836
159.264
157.363
158.728
159.328
158.573
159.371
158.36
159.381
157.844
158.129
159.355
158.254
157.828
159.286
158.588
176.883
232.012
159.169
158.996
158.78
156.166
155.84
155.643
158.97
158.948
158.761
159.311
159.131
159.662
159.486
160.013
159.838
160.374
160.191
160.744
160.56
161.051
160.911
161.26
161.166
161.395
161.334
161.506
161.449
161.635
161.567
161.78
161.707
161.918
161.851
162.035
161.98
162.122
162.084
162.16
162.146
162.169
162.167
162.184
162.17
162.229
162.206
162.242
162.242
162.212
162.233
162.14
162.18
162.039
162.093
161.912
161.979
161.759
161.839
161.581
161.673
161.374
161.481
161.137
161.259
160.878
161.009
160.616
160.746
160.361
160.488
160.098
160.231
159.82
159.961
159.532
159.677
159.24
159.386
158.949
159.094
158.662
158.805
158.379
158.52
158.1
158.239
157.823
157.961
157.547
157.685
157.254
157.405
156.9
157.084
156.513
156.71
156.085
156.307
175.684
170.382
184.691
180.449
191.695
188.432
196.906
194.51
200.558
198.913
202.868
201.869
203.996
203.573
204.016
204.144
202.927
203.612
200.653
201.946
197.034
199.024
191.854
194.654
184.876
188.604
175.89
180.645
170.596
156.221
156.032
156.584
156.405
156.906
156.753
157.164
157.039
157.405
157.283
157.653
157.528
157.905
157.778
158.163
158.033
158.428
158.294
158.702
158.564
158.982
158.841
159.266
159.123
159.55
159.408
159.832
159.692
160.109
159.971
160.375
160.243
160.629
160.504
160.867
160.75
161.086
160.979
161.285
161.188
161.461
161.375
161.612
161.54
161.739
161.679
161.84
161.793
161.916
161.881
161.965
161.944
161.989
161.98
161.988
161.991
161.962
161.978
161.912
161.94
161.84
161.879
161.745
161.795
161.628
161.689
161.491
161.562
161.334
161.415
161.157
161.247
160.96
161.061
160.745
160.855
160.511
160.631
160.259
160.388
159.988
160.126
159.698
159.845
159.389
159.546
159.059
159.227
158.709
158.887
158.526
158.987
159.029
151.791
151.451
155.696
153.541
164.476
157.945
158.995
159.108
155.441
156.004
158.985
159.199
156.683
158.948
159.294
157.279
158.875
159.383
158.757
159.456
158.587
159.501
157.793
158.374
159.512
158.233
158.107
159.48
158.602
157.763
159.401
86.7181
159.267
159.08
158.894
156.263
153.945
159.012
152.45
152.124
153.085
152.771
153.707
153.397
154.322
154.015
154.942
154.63
155.565
155.256
156.111
155.85
156.559
156.347
156.916
156.742
157.249
157.083
157.601
157.424
157.966
157.784
158.319
158.145
158.647
158.486
158.939
158.799
159.179
159.066
159.377
159.282
159.589
159.478
159.826
159.708
160.028
159.933
160.176
160.108
160.278
160.231
160.345
160.315
160.379
160.366
160.381
160.384
160.35
160.37
160.282
160.321
160.172
160.232
160.031
160.105
159.88
159.955
159.731
159.806
159.563
159.651
159.368
159.469
159.149
159.261
158.914
159.033
158.668
158.792
158.413
158.541
158.149
158.282
157.877
158.014
157.595
157.737
157.301
157.449
156.978
157.145
156.601
156.796
156.177
156.394
155.947
175.892
170.46
185.136
180.78
192.341
188.982
197.711
195.241
201.482
199.782
203.87
202.837
205.037
204.599
205.057
205.189
203.929
204.639
201.577
202.914
197.84
199.894
192.499
195.385
185.32
189.154
176.096
180.974
164.694
170.671
151.104
158.167
153.411
152.965
154.137
154.384
155.235
154.869
154.624
155.343
155.11
155.787
155.569
156.197
155.997
156.555
156.384
156.858
156.712
157.132
156.997
157.397
157.265
157.656
157.528
157.907
157.782
158.153
158.031
158.395
158.275
158.631
158.514
158.858
158.746
159.074
158.968
159.276
159.177
159.46
159.37
159.624
159.545
159.766
159.698
159.881
159.827
159.97
159.929
160.029
160.003
160.057
160.047
160.055
160.06
160.021
160.042
159.955
159.992
159.857
159.91
159.728
159.797
159.569
159.653
159.38
159.478
159.162
159.274
158.915
159.042
158.642
158.782
158.342
158.495
158.015
158.182
157.664
157.843
157.289
157.48
156.889
157.092
156.465
156.68
156.018
156.244
155.547
155.785
155.052
155.302
154.533
154.796
153.99
154.265
153.421
153.709
152.827
153.127
152.206
152.52
151.557
151.885
150.88
151.222
153.711
155.024
159.039
159.096
155.835
159.053
159.197
150.751
143.534
143.035
143.309
150.531
142.816
156.557
159.045
159.308
157.193
159.006
159.419
158.926
159.519
158.796
159.598
157.745
158.615
159.646
158.22
158.385
159.654
158.622
158.079
159.614
157.698
159.522
89.1288
159.374
158.954
159.19
156.687
156.046
154.816
155.313
153.197
153.85
154.802
154.48
100.637
159.073
144.504
144.023
145.443
144.977
146.354
145.901
147.246
146.803
148.129
147.688
149.013
148.57
149.889
149.457
150.695
150.304
151.379
151.05
151.968
151.678
152.534
152.249
153.116
152.823
153.708
153.413
154.285
153.999
154.834
154.563
155.343
155.094
155.796
155.577
156.204
156.003
156.622
156.408
157.062
156.844
157.463
157.269
157.802
157.64
158.093
157.953
158.342
158.222
158.553
158.453
158.725
158.644
158.858
158.797
158.944
158.907
158.978
158.967
158.972
158.98
158.947
158.959
158.92
158.935
158.865
158.897
158.77
158.823
158.636
158.707
158.473
158.558
158.286
158.382
158.077
158.184
157.846
157.964
157.593
157.722
157.316
157.458
157.014
157.169
156.672
156.849
156.274
156.48
155.819
156.053
155.294
155.568
154.673
154.995
154.321
164.414
157.74
176.1
170.535
185.586
181.113
192.994
189.538
198.528
195.981
202.419
200.664
204.887
203.819
206.094
205.641
206.115
206.252
204.947
205.682
202.515
203.898
198.657
200.777
193.153
196.125
185.769
189.71
176.303
181.307
164.628
170.745
157.958
154.282
153.992
154.832
154.564
155.337
155.09
155.791
155.571
156.183
155.995
156.52
156.357
156.817
156.672
157.089
156.956
157.342
157.218
157.575
157.461
157.789
157.684
157.986
157.89
158.162
158.077
158.318
158.243
158.449
158.387
158.555
158.505
158.631
158.597
158.677
158.658
158.689
158.687
158.666
158.682
158.607
158.641
158.511
158.563
158.376
158.448
158.204
158.295
157.994
158.104
157.746
157.875
157.462
157.609
157.141
157.306
156.786
156.968
156.396
156.595
155.973
156.189
155.518
155.75
155.032
155.279
154.516
154.778
153.97
154.247
153.395
153.686
152.792
153.097
152.161
152.48
151.502
151.835
150.815
151.162
150.1
150.461
149.356
149.731
148.584
148.974
147.783
148.187
146.952
147.371
146.089
146.525
145.195
145.646
144.269
144.736
143.793
155.658
159.109
159.182
98.2085
135.494
134.856
150.174
142.315
156.425
159.128
159.305
157.104
159.121
159.434
159.077
159.559
158.988
159.67
157.697
158.847
159.754
158.209
158.654
159.802
158.645
158.392
159.806
158.049
159.757
157.627
159.653
159.011
159.496
157.118
156.516
159.292
155.818
155.022
152.786
152.064
151.565
213.468
287.106
154.122
152.363
153.514
154.548
155.468
159.152
136.742
136.123
137.955
137.353
139.139
138.55
140.3
139.722
141.447
140.873
142.597
142.021
143.734
143.172
144.794
144.284
145.723
145.279
146.546
146.14
147.349
146.945
148.166
147.754
148.993
148.58
149.802
149.4
150.58
150.195
151.315
150.954
151.993
151.662
152.624
152.312
153.261
152.938
153.91
153.587
154.52
154.223
155.064
154.8
155.556
155.316
156.002
155.784
156.404
156.208
156.762
156.589
157.074
156.924
157.331
157.21
157.525
157.436
157.666