/*--------------------------------*- C++ -*----------------------------------*\
| =========                 |                                                 |
| \\      /  F ield         | OpenFOAM: The Open Source CFD Toolbox           |
|  \\    /   O peration     | Version:  2212                                  |
|   \\  /    A nd           | Website:  www.openfoam.com                      |
|    \\/     M anipulation  |                                                 |
\*---------------------------------------------------------------------------*/
FoamFile
{
    version     2.0;
    format      ascii;
    arch        "LSB;label=32;scalar=64";
    class       volVectorField;
    location    "0.00645";
    object      U;
}
// * * * * * * * * * * * * * * * * * * * * * * * * * * * * * * * * * * * * * //

dimensions      [0 1 -1 0 0 0 0];

internalField   nonuniform List<vector> 
2681
(
(0.316895 -0.836738 -1.9434e-18)
(3.27775 -69.3071 0)
(6.73539 -64.7584 -2.93852e-18)
(0.169047 0.0165089 -8.59167e-18)
(0.728698 -64.3667 2.00461e-18)
(-2.40449 -68.0143 4.87963e-18)
(-0.10022 0.0230092 -2.13698e-18)
(-0.171218 0.0102921 2.77847e-19)
(-0.191107 0.0124648 5.50889e-19)
(-0.199127 0.0141913 -1.3869e-19)
(0.154838 0.00867534 0)
(0.180417 0.0140253 -1.4731e-19)
(0.191337 0.0210479 -1.43034e-19)
(-0.0317434 -0.17479 0)
(0.151868 -0.0171539 -6.53769e-19)
(-0.12201 -0.0492459 1.07111e-18)
(-0.0866594 -0.0938321 0)
(0.175837 0.012014 -6.84693e-19)
(0.186107 0.0180526 3.03444e-18)
(0.199953 0.0243112 -3.50535e-18)
(0.204196 0.0180702 -1.12868e-17)
(0.197663 0.0188141 8.3106e-19)
(0.204266 0.0233281 -3.32021e-18)
(0.205852 0.0224414 2.23686e-18)
(0.169631 -0.010837 -1.24113e-18)
(0.186902 0.00950602 0)
(0.176252 0.0103841 -2.60139e-18)
(0.158015 0.0122844 2.43743e-19)
(0.159395 0.0083969 1.10741e-18)
(0.189089 0.0114845 1.3279e-18)
(0.183117 0.0129343 -6.27798e-19)
(0.200591 0.0254912 1.30171e-18)
(0.193263 0.0173095 -1.13606e-18)
(0.205393 0.0269113 5.75591e-19)
(0.204969 0.0264531 0)
(0.200173 0.025309 -8.52102e-19)
(-0.193961 0.00209648 2.15252e-18)
(-0.176071 -0.00347136 2.57943e-19)
(-0.159997 -0.0107514 -5.14337e-19)
(-0.170427 -0.00367035 -5.21432e-19)
(-0.151401 -0.0127417 9.59929e-19)
(-0.192641 0.0189285 0)
(-0.182459 0.00876898 -2.72196e-19)
(-0.202315 0.0116514 0)
(-0.197492 0.0128522 0)
(-0.624946 -68.4274 0)
(-0.205237 0.0157386 1.40502e-19)
(-0.181729 0.0118932 -1.09494e-18)
(0.133315 0.0102274 0)
(-0.164916 0.0162538 -2.78258e-19)
(-0.173029 0.0133248 2.78403e-23)
(-0.142188 -0.0225386 2.04806e-18)
(-0.106577 -0.0882807 1.53089e-19)
(-0.171834 0.0114718 -2.77219e-19)
(-0.160074 0.0103104 5.64118e-19)
(0.195177 0.0242601 1.42963e-19)
(0.185941 0.0205271 -4.29431e-19)
(0.143872 0.0112291 -2.89489e-19)
(-0.157076 0.019764 0)
(-0.168436 0.0227255 5.52177e-19)
(-0.160436 0.0253216 1.38433e-19)
(0.188588 0.0164687 0)
(0.175941 0.0134029 2.43371e-18)
(0.206802 0.026729 2.89083e-18)
(0.196955 0.0193746 -4.95494e-19)
(0.199534 0.0151833 -9.56193e-23)
(0.203657 0.0211006 0)
(0.171661 -0.00242979 0)
(0.189446 0.00634061 5.32034e-19)
(0.0355708 -0.00137892 0)
(0.166374 -0.00818234 1.09783e-18)
(-0.148622 -0.0210251 2.50329e-19)
(-0.133984 -0.0365096 -9.01684e-19)
(-0.191329 0.01738 -1.61118e-18)
(-0.165307 -0.00303874 -4.82828e-19)
(0.170854 0.00647063 5.9302e-19)
(-0.00469984 -0.0151188 0)
(-0.0790949 -0.166314 7.5737e-18)
(1.13771 -65.8968 4.81929e-18)
(0.1721 0.0101621 1.19376e-18)
(0.155596 0.00936957 -6.64883e-19)
(0.161104 0.00978998 1.68977e-18)
(0.186713 0.0125897 0)
(0.179447 0.0109681 1.23867e-18)
(0.199789 0.0180777 1.24669e-18)
(0.194769 0.0157355 -1.19986e-19)
(0.203448 0.0239225 0)
(0.202155 0.0210884 -5.97412e-19)
(0.200678 0.0253558 8.59843e-19)
(-0.172508 0.00639995 0)
(-0.16839 0.00561748 0)
(-0.199371 0.0146856 1.15021e-18)
(-0.187374 0.0104941 -1.13102e-18)
(-0.204029 0.0175713 2.90525e-19)
(-0.20567 0.0177532 0)
(-0.197645 0.0163412 0)
(-0.202559 0.0170272 -2.81977e-19)
(-0.18354 0.0175117 0)
(-0.190899 0.0162298 0)
(-0.175893 0.0198749 5.48663e-19)
(-0.149995 0.01117 -7.07735e-20)
(-0.153093 0.0146275 7.06668e-20)
(0.174803 0.0169415 5.66043e-19)
(0.137639 -0.0553873 4.59017e-18)
(0.139058 -0.0178736 0)
(-0.136455 -0.0364985 -2.0789e-18)
(0.147769 0.0130492 0)
(-0.170745 0.0271161 -1.37064e-19)
(-0.162049 0.0279768 -6.85094e-19)
(0.131973 -0.0438722 -6.75535e-18)
(0.0981453 -0.0772251 4.41214e-18)
(0.117185 -0.0664774 0)
(-0.114739 -0.0613412 0)
(-0.153684 0.00175194 -1.97548e-18)
(-0.14501 -0.016913 4.41106e-18)
(-0.142123 0.0057431 4.87305e-18)
(-0.148591 0.0104616 -5.62146e-19)
(-0.141013 0.0138108 1.14255e-18)
(-0.138215 0.0113053 5.72911e-19)
(0.123366 0.00353892 -2.20206e-18)
(0.0449248 -0.159703 1.36922e-18)
(-0.114731 -0.0631471 -3.02032e-19)
(0.326913 -57.4792 -1.02648e-17)
(0.160388 0.010241 1.11658e-18)
(0.154672 -0.00665764 -1.17243e-18)
(-0.148667 -0.0124071 0)
(0.139936 0.0155761 0)
(5.41841 -68.1527 7.36693e-18)
(0.13631 0.0128812 4.91633e-20)
(0.0378612 -0.665188 0)
(-0.0241235 -0.162173 2.30818e-18)
(0.16978 0.0119893 3.17694e-18)
(0.154247 0.00955531 -1.0326e-18)
(0.191651 0.0175466 -2.65352e-19)
(0.181821 0.0160369 2.71413e-19)
(0.203213 0.0168514 -1.52015e-18)
(0.1975 0.0187879 5.17903e-19)
(0.192662 0.00526336 0)
(0.201381 0.0136722 1.01961e-18)
(0.160674 -0.025435 5.04135e-19)
(0.177579 -0.00719419 5.80092e-19)
(0.140844 -0.0416053 9.4824e-19)
(-0.137957 -0.0343707 2.47657e-19)
(-0.124606 -0.0490109 -6.05071e-19)
(-0.174993 -0.00598922 1.2067e-19)
(-0.156017 -0.0196525 2.03306e-23)
(-0.102313 -0.0917 1.08123e-18)
(-0.161575 0.0116171 2.82096e-19)
(-0.380292 -71.457 2.36168e-17)
(-0.174407 0.0146783 -2.7386e-19)
(-0.160586 0.0114512 0)
(0.157839 0.012933 1.36164e-19)
(0.143347 0.0188853 1.03636e-18)
(0.150896 0.0162816 0)
(0.171718 0.00994496 -5.94856e-19)
(0.16432 0.0108222 -1.11786e-18)
(0.185443 0.00927622 3.05758e-19)
(0.179024 0.00899261 -3.00946e-19)
(0.196655 0.0134293 -6.02623e-19)
(0.191461 0.0111402 5.73559e-19)
(0.201343 0.018635 0)
(0.199102 0.0158632 -2.95497e-19)
(0.195205 0.0225002 0)
(0.198927 0.021057 -2.84842e-19)
(0.17784 0.0208716 -5.52753e-19)
(0.18768 0.0225566 0)
(0.0321091 -0.159756 0)
(0.164479 0.0162707 1.07296e-18)
(-0.180866 0.0137097 -5.7172e-19)
(-0.166502 0.00244292 1.24049e-18)
(-0.200091 0.0217027 -5.67607e-19)
(-0.191301 0.0185843 1.14546e-18)
(-0.205209 0.021967 -2.84699e-19)
(-0.204659 0.0224341 0)
(-0.198564 0.0224336 6.81506e-20)
(-0.202879 0.0222194 0)
(-0.185783 0.0241835 -1.08596e-18)
(-0.19215 0.0228959 6.1145e-19)
(-0.178436 0.0256992 5.46793e-19)
(-0.148765 0.023051 4.2053e-19)
(-0.1518 0.0279225 1.35872e-18)
(-0.151247 0.0271022 1.37574e-19)
(-0.144913 0.018239 -5.65132e-19)
(-0.0983063 0.024541 2.37617e-18)
(0.118802 0.00847699 -3.33797e-18)
(0.11699 0.00897745 -6.75452e-18)
(-0.0998498 -0.086289 -8.92285e-19)
(0.0874363 -0.0962097 -2.37339e-18)
(0.0793954 -0.114074 1.23918e-18)
(0.126063 -0.0400989 2.38993e-18)
(0.142121 -8.61083e-05 -3.34579e-18)
(-0.126418 -0.0459436 0)
(0.146974 0.0242147 1.94238e-18)
(-0.132827 -0.0188141 -2.19589e-18)
(-0.13273 -0.000949138 2.20695e-18)
(-0.149105 0.0104779 5.598e-19)
(-0.136947 0.00999082 -7.08519e-19)
(0.102988 -0.081442 1.18118e-18)
(-0.108971 -0.0664146 2.45411e-18)
(0.130784 0.0186884 0)
(0.132883 0.022212 -5.15502e-19)
(0.0651157 -14.7855 3.16641e-21)
(0.0664237 -16.6429 -4.1847e-21)
(-0.071301 -16.6408 -3.40162e-20)
(-0.0674134 -14.7832 3.39995e-20)
(-0.139727 0.0270166 -5.40404e-19)
(-0.151002 0.0255236 -5.37828e-19)
(-0.138658 0.0243114 0)
(0.108189 0.00686951 5.39263e-18)
(0.0699913 -0.134143 0)
(-0.110768 0.0226536 -2.54027e-18)
(0.12133 0.0111818 1.09108e-18)
(0.179274 -2.12457 -1.01627e-17)
(0.545277 -68.928 6.9064e-18)
(-0.122919 -65.6737 -2.74219e-18)
(0.133744 -0.0201129 0)
(-0.127732 -0.0303077 0)
(5.31596 -68.6612 1.16278e-17)
(0.127506 0.0160641 -1.11587e-18)
(-0.0350039 -0.424738 4.46333e-18)
(0.143397 0.00804343 -1.03347e-18)
(0.129016 0.00788074 1.05277e-18)
(0.170952 0.0124084 0)
(0.15734 0.00951516 1.042e-18)
(0.192303 0.0145303 2.60882e-19)
(0.182823 0.0137096 -5.25812e-19)
(0.199152 0.0108226 5.12128e-19)
(0.197796 0.0135842 -7.87787e-23)
(0.183507 -0.00627882 0)
(0.19448 0.00438301 -2.54336e-19)
(0.148554 -0.0350105 0)
(0.167069 -0.0201341 -6.3769e-20)
(0.113959 -0.0772564 -1.01417e-18)
(0.12528 -0.052518 0)
(0.0950109 -0.0956501 -5.39926e-19)
(-0.125417 -0.053815 4.95831e-19)
(-0.11466 -0.0701942 7.33097e-19)
(-0.161911 -0.0187687 -6.13332e-19)
(-0.142197 -0.0358774 -4.87634e-19)
(-0.194668 0.00751483 1.2725e-19)
(-0.180805 -0.00423057 3.10387e-19)
(-0.199255 0.0180794 -6.57869e-20)
(-0.201301 0.014878 0)
(-0.177381 0.0151032 -5.26225e-19)
(-0.190506 0.0174903 6.72761e-19)
(-0.162889 0.0123125 0)
(0.0712123 -18.5298 1.04952e-21)
(0.0735924 -20.5349 -1.04864e-21)
(0.0738736 -22.6217 -1.63202e-20)
(0.0687919 -24.8252 5.03199e-20)
(0.0648125 -27.1448 -2.48501e-20)
(0.0677214 -29.5958 -4.09359e-21)
(0.0560387 -32.21 -7.0582e-20)
(0.0220948 -35.0009 -1.28255e-19)
(-0.0145047 -37.9968 -4.0738e-21)
(-0.0330002 -41.2366 -6.57442e-20)
(-0.172389 -41.1638 0)
(-0.0590953 -44.7221 1.28703e-19)
(-0.021655 -48.4897 4.43424e-19)
(-0.192563 -48.2796 7.52832e-19)
(-0.204279 -44.6364 -2.59925e-19)
(-0.135353 -34.9711 1.36807e-19)
(-0.152925 -37.9369 2.59398e-19)
(-0.102947 -29.5928 2.50828e-20)
(-0.125139 -32.1965 0)
(-0.0885134 -24.8128 1.66222e-20)
(-0.086032 -27.133 3.85341e-24)
(-0.0842195 -20.5314 1.791e-20)
(-0.0890573 -22.6158 -3.77105e-20)
(-0.078936 -18.5269 -1.04953e-21)
(0.160613 0.0159435 0)
(0.153185 0.0196635 0)
(0.173228 0.0108961 5.80254e-19)
(0.167219 0.0131281 0)
(0.185423 0.00832519 -2.97607e-19)
(0.179512 0.0091053 -2.94275e-19)
(0.195394 0.00913313 2.99804e-19)
(0.190184 0.00848457 -2.6244e-19)
(0.199232 0.0116813 -5.75967e-19)
(0.196754 0.0100406 -2.91728e-19)
(0.194018 0.0152318 0)
(0.197073 0.0134966 5.65232e-19)
(0.178325 0.0161332 -5.41999e-19)
(0.187017 0.0160076 2.75047e-19)
(0.249927 -1.71827 1.04742e-17)
(0.167626 0.0146494 7.33156e-19)
(0.144743 0.0137141 1.18728e-19)
(-0.133465 0.00041 0)
(-0.118015 -0.00784462 -8.56362e-18)
(-0.113228 0.00621769 -8.58471e-18)
(-0.113724 -0.000962045 -1.92056e-18)
(-0.161012 0.0130521 5.88487e-19)
(-0.146513 0.00633228 0)
(-0.182659 0.0193182 -5.7302e-19)
(-0.170641 0.0149962 -2.94755e-19)
(-0.201461 0.0263165 -2.82162e-19)
(-0.193216 0.0235042 5.65157e-19)
(-0.206022 0.0281119 8.32884e-19)
(-0.20522 0.0279388 0)
(-0.198826 0.027344 4.76014e-19)
(-0.203122 0.0277345 -2.75007e-19)
(-0.186602 0.0271291 -5.41084e-19)
(-0.192894 0.027092 -5.94197e-19)
(-0.171281 0.0271115 1.36008e-19)
(-0.179433 0.0272407 2.71498e-19)
(-0.161925 0.0265758 1.3572e-19)
(-0.138834 0.0253566 -5.59551e-19)
(-0.140094 0.0276571 -5.48678e-19)
(-0.132267 0.0172046 -1.78528e-18)
(-0.135915 0.0215537 6.35452e-19)
(-0.126295 0.0108724 5.74375e-19)
(-0.128866 0.0135483 0)
(0.148826 -1.18696 0)
(-0.319129 -2.31311 -5.01604e-18)
(0.114488 -0.0562782 -1.16628e-18)
(0.124091 -0.0126844 4.36164e-18)
(-0.12045 -0.0225932 -4.40815e-18)
(-0.114821 -0.0551438 -2.32336e-18)
(0.13383 0.0239585 -4.87878e-19)
(0.0577884 -0.126216 4.36008e-18)
(0.064709 -13.0699 4.19038e-21)
(-0.0656424 -13.0677 0)
(0.147656 0.0217156 -2.2507e-18)
(-1.64565 -6.14186 0)
(0.164858 -41.2342 2.58793e-19)
(0.165242 -44.7114 2.56745e-19)
(0.0872518 -0.0962546 -4.79051e-18)
(-0.910721 -59.5092 2.8592e-18)
(-0.112368 -0.0104813 8.77714e-18)
(-0.0981417 -0.0869044 2.51808e-18)
(0.108087 0.0108712 1.15333e-18)
(0.103219 0.00754125 3.82308e-18)
(0.186622 -13.0729 -1.66572e-20)
(0.0696578 -11.3431 -5.26338e-21)
(0.1997 -11.3489 3.37054e-20)
(-0.12642 0.0258208 -3.37642e-20)
(-0.125487 0.023391 2.16402e-19)
(-0.150315 0.0212444 -3.57896e-24)
(-0.138055 0.0207406 0)
(0.0229409 -52.202 7.26875e-19)
(-0.100127 -52.3342 -4.90535e-19)
(0.109363 -0.00480892 1.52585e-18)
(0.0965085 -0.0112336 1.67352e-18)
(0.0646789 -0.138368 0)
(-0.078157 -0.0982483 2.75362e-18)
(-0.0884523 -0.0112644 1.25124e-18)
(-0.0854416 -0.00814641 -7.19569e-18)
(-1.09933 -68.4889 5.20126e-18)
(0.0236157 -0.260103 4.81959e-18)
(-0.0656156 -0.3037 4.30958e-18)
(-0.0328973 0.0135604 -4.85263e-18)
(-0.12489 0.00846992 -4.27546e-19)
(-0.116362 0.012884 -5.7633e-19)
(-0.114048 0.00973155 5.77167e-19)
(0.120309 -0.0344529 -5.85698e-22)
(-0.119502 -0.0387158 2.24614e-18)
(0.124281 0.0255932 1.07758e-18)
(0.121113 0.0218526 -5.35567e-19)
(0.123228 0.0244333 1.06516e-18)
(0.114626 0.0160748 1.09665e-18)
(0.118072 0.0191797 -5.1038e-19)
(0.11124 0.0134091 -1.11729e-18)
(0.143692 0.00587293 -5.12018e-19)
(0.12832 0.00414268 4.82024e-19)
(0.172203 0.00963233 0)
(0.158274 0.00786575 5.18752e-19)
(0.191295 0.00999166 -2.59669e-19)
(0.183391 0.0107528 0)
(0.193954 0.00273864 2.57554e-19)
(0.195208 0.00760314 3.87408e-19)
(0.172339 -0.0160909 -1.27117e-19)
(0.1865 -0.00504772 -7.63862e-19)
(0.132861 -0.0481899 -1.03867e-18)
(0.153808 -0.0306375 8.89844e-19)
(0.0930008 -0.0880449 1.00948e-18)
(0.111636 -0.0683909 -1.01142e-18)
(0.0670188 -0.110923 7.74009e-19)
(-0.0752332 -0.113447 -2.70102e-18)
(-0.00139423 -0.279708 -1.02644e-17)
(-0.0860855 -0.104597 -9.40649e-19)
(-0.0562326 -0.122103 6.72927e-19)
(-0.108335 -0.0674586 -9.8287e-19)
(-0.0919765 -0.0828969 1.21119e-18)
(-0.147515 -0.0350671 0)
(-0.126405 -0.0512803 4.8323e-19)
(-0.18491 -0.00634467 1.27095e-19)
(-0.168483 -0.0193705 -6.24381e-20)
(-0.196039 0.00881742 2.58131e-19)
(-0.194991 0.00293872 0)
(-0.178449 0.011852 -1.68464e-20)
(-0.190009 0.0116405 -2.62485e-19)
(-0.150044 0.00879849 5.58031e-19)
(-0.164567 0.010538 -6.809e-19)
(-0.136824 0.00806111 4.22336e-19)
(0.175303 -16.6379 0)
(0.180768 -14.7845 -1.77978e-20)
(0.181975 -20.5257 0)
(0.178412 -18.5201 0)
(0.189468 -24.8215 5.25849e-22)
(0.185945 -22.6158 -5.23905e-22)
(0.178915 -29.614 -1.67946e-20)
(0.18659 -27.151 3.66111e-21)
(0.181214 -35.0179 0)
(0.178319 -32.23 1.49686e-19)
(0.171352 -38.0114 -2.6367e-19)
(-0.185714 -13.0693 -3.37315e-20)
(-0.197442 -11.3463 -3.35329e-20)
(-0.0684627 -11.3417 9.43302e-21)
(0.301982 -56.3583 2.60822e-18)
(-0.767446 -56.1829 1.61592e-18)
(-0.842082 -2.78847 4.32179e-18)
(-0.300505 -48.2428 -1.16189e-18)
(-0.43828 -51.8577 -1.03196e-18)
(-0.268104 -41.1685 -2.62126e-19)
(-0.244074 -44.6288 0)
(-0.220562 -34.9442 -1.32666e-19)
(-0.242246 -37.9283 -1.32132e-19)
(-0.211057 -29.5716 -4.97411e-20)
(-0.2047 -32.1679 -1.6552e-20)
(-0.201309 -24.8035 -2.50453e-20)
(-0.214946 -27.1216 5.03158e-20)
(-0.189376 -20.5144 -2.09709e-21)
(-0.192708 -22.6006 2.10305e-20)
(-0.179226 -16.6318 1.73951e-20)
(-0.184312 -18.512 -1.56782e-20)
(-0.182746 -14.7799 3.32434e-20)
(0.164492 0.0185557 -2.83249e-19)
(0.157325 0.0208948 5.61002e-19)
(0.176044 0.0124893 -1.44537e-19)
(0.170793 0.0155328 -2.84511e-19)
(0.186375 0.00789373 1.46357e-19)
(0.181449 0.00980914 -7.28632e-20)
(0.194551 0.00608263 -2.88186e-19)
(0.190787 0.00681416 2.64187e-19)
(0.197892 0.00641429 -2.86054e-19)
(0.19655 0.00600606 0)
(0.192597 0.00761632 0)
(0.196303 0.00703799 0)
(0.178594 0.00821636 -3.37286e-19)
(0.186613 0.00807383 6.83674e-20)
(0.156609 0.00631214 -5.1908e-19)
(0.169449 0.00746668 -6.39132e-23)
(0.12106 -0.00288601 -1.6016e-18)
(0.144079 -0.000913481 9.029e-19)
(0.0848082 -0.00786156 -5.83565e-19)
(0.0902588 -0.011691 5.57302e-19)
(0.109953 -0.00501941 0)
(-0.0706549 -0.00104422 4.13224e-18)
(-0.080239 -0.00683221 -7.57688e-19)
(-0.0421154 -0.016524 2.643e-18)
(-0.0522382 -0.0228612 3.07147e-19)
(-0.0515476 -0.0119136 1.11029e-18)
(-0.0946389 -0.00449754 3.80464e-18)
(-0.0934072 -0.0145279 1.14989e-18)
(-0.13104 0.000364661 -1.56186e-18)
(-0.123765 0.00274394 1.18036e-19)
(-0.163174 0.0109102 1.40234e-18)
(-0.148624 0.00585445 1.09645e-18)
(-0.18739 0.0211598 -2.80863e-19)
(-0.175801 0.0157134 -8.50006e-19)
(-0.202888 0.0276523 2.78505e-19)
(-0.196616 0.0252355 5.60369e-19)
(-0.205658 0.0280838 -4.1204e-19)
(-0.205758 0.0285549 6.92448e-19)
(-0.198126 0.0258394 0)
(-0.20261 0.0270372 -4.10071e-19)
(-0.186167 0.0239381 0)
(-0.192407 0.0247617 -1.69527e-20)
(-0.170767 0.022697 -3.38369e-19)
(-0.179059 0.0233067 2.70459e-19)
(-0.16117 0.0219909 1.34944e-19)
(-0.127127 0.0263982 -1.74185e-20)
(-0.127276 0.0272389 7.68081e-20)
(-0.122626 0.0202002 4.99404e-19)
(-0.125466 0.0239799 -4.83092e-19)
(-0.119397 0.0163968 0)
(-0.837427 -69.7576 -1.04838e-17)
(-0.275593 -0.971806 -1.11317e-17)
(0.22767 -48.4186 -4.29729e-22)
(0.0995082 -0.0712691 2.34621e-18)
(0.114881 -0.0233641 4.50226e-18)
(-0.109033 -0.0273723 0)
(-0.102603 -0.0654785 -7.1463e-18)
(0.100538 0.00540267 -3.43714e-19)
(-0.979274 -72.5716 -2.49418e-17)
(-0.0259359 -0.290752 -2.36395e-18)
(-0.068696 0.00177234 -4.48149e-18)
(0.342761 -13.0824 3.37119e-20)
(0.366518 -11.3634 1.0501e-21)
(0.112427 0.0273381 -1.37846e-18)
(-0.318158 -1.88311 5.73324e-18)
(0.136822 0.0273626 9.21195e-18)
(0.122981 0.0276402 -5.77289e-23)
(0.11185 0.0278853 0)
(-0.125627 0.0204997 7.70725e-19)
(-0.123979 0.00556534 -7.06639e-19)
(-0.112321 0.00646152 4.33177e-23)
(-0.533942 -56.1264 -3.6998e-18)
(0.124227 -0.395829 4.35933e-18)
(0.141261 -0.546097 4.33527e-18)
(-0.770684 -71.8705 5.39875e-18)
(-0.0991393 0.0240902 0)
(0.431284 -41.1513 -5.27035e-19)
(0.465189 -44.5924 -5.51912e-21)
(-0.149834 -0.587478 4.68518e-18)
(-0.240211 -0.558746 2.00522e-18)
(-0.152588 -0.660166 4.45522e-18)
(0.0884942 -0.0192666 -5.00906e-18)
(0.0717955 -0.11161 0)
(-0.0795269 -0.103183 0)
(-0.0954003 -0.0148883 0)
(0.0410434 -0.33519 1.32123e-17)
(-0.340787 -13.0769 1.05025e-21)
(-0.363622 -11.3585 2.10052e-21)
(0.421069 -1.69595 5.34715e-18)
(-1.12783 -69.0587 -1.94314e-18)
(-1.25513 -66.9641 1.97944e-20)
(-0.106323 -0.447275 -4.46144e-18)
(0.0430526 -0.186581 0)
(0.0825105 -0.00941042 -5.99844e-19)
(0.0719921 -0.016131 0)
(0.0677498 -0.0123124 0)
(-0.0285491 -0.0220301 1.14292e-18)
(-0.0288864 -0.00784324 4.11632e-22)
(-0.0743956 -0.011355 4.51721e-18)
(-0.0552578 -0.166994 0)
(0.0253667 -0.429204 -1.01459e-17)
(0.229716 -52.1826 -1.51997e-18)
(0.0407223 0.0145727 1.81658e-17)
(0.017987 -0.313362 9.56815e-18)
(-0.334316 -1.25444 6.41713e-18)
(0.104409 -0.0458819 -2.29148e-18)
(-0.107461 -0.0487082 0)
(0.110361 0.0244017 3.09863e-23)
(0.111947 0.0261316 -8.12642e-19)
(0.104811 0.0192767 -5.47935e-19)
(0.107841 0.0218626 4.22201e-21)
(0.0979592 0.0133334 0)
(0.101485 0.0159865 5.62587e-19)
(0.092855 0.00834743 0)
(0.0943881 0.0100314 -1.2194e-18)
(0.089788 0.0051193 0)
(0.111622 0.00199151 3.1331e-23)
(0.102265 0.00297216 -3.23647e-19)
(0.144101 0.00506283 0)
(0.130313 0.00628666 -2.39769e-18)
(0.172769 0.00601012 1.39207e-19)
(0.15973 0.00545017 -1.38436e-19)
(0.189161 0.00421247 -2.59964e-19)
(0.182626 0.00565015 1.30087e-19)
(0.187875 -0.00438745 0)
(0.191389 0.000895493 1.04942e-23)
(0.160916 -0.0250695 7.65892e-19)
(0.177742 -0.0127418 1.28185e-19)
(0.115533 -0.0593682 -1.60621e-20)
(0.139727 -0.0409753 -3.83617e-19)
(0.0656296 -0.112469 -9.96992e-19)
(0.0922933 -0.0822693 0)
(0.00656787 -0.192513 1.38463e-18)
(0.0440626 -0.154013 7.3507e-19)
(0.00683627 -0.210886 -3.73627e-18)
(0.00354512 -0.231381 1.75016e-18)
(0.0420415 -0.272297 -3.59886e-18)
(-0.0567168 -0.128628 0)
(-0.0236185 -0.17662 -1.60026e-18)
(-0.0927183 -0.0756559 4.74912e-19)
(-0.0753982 -0.0997766 0)
(-0.134786 -0.0409556 -2.45235e-19)
(-0.112083 -0.0574028 0)
(-0.175977 -0.0153472 0)
(-0.157447 -0.026973 0)
(-0.19146 -0.000409997 5.13718e-19)
(-0.188356 -0.00636594 -5.08918e-19)
(-0.17731 0.00509155 2.67021e-19)
(-0.187451 0.00328513 1.29459e-19)
(-0.150337 0.00582493 -2.75894e-19)
(-0.164486 0.00574379 -6.75879e-19)
(-0.136723 0.00548803 5.57181e-19)
(0.314548 -16.6376 -1.47585e-20)
(0.329857 -14.7888 -3.13847e-20)
(0.306986 -20.5268 1.68476e-20)
(0.31104 -18.5178 2.09091e-20)
(0.298173 -24.8263 0)
(0.303033 -22.6197 -1.66813e-20)
(0.324156 -29.6048 -3.36256e-20)
(0.303914 -27.1505 -2.09163e-21)
(0.373588 -34.9935 -1.33841e-19)
(0.348595 -32.2149 -6.68914e-20)
(0.397889 -37.9699 3.96513e-19)
(0.0767801 -9.82642 0)
(-0.206416 -9.83049 3.1574e-20)
(-0.0738264 -9.82501 -2.30804e-20)
(-0.0381661 -0.0117455 -2.45179e-18)
(0.382227 -9.84934 -2.09923e-21)
(0.210782 -9.83251 2.09847e-21)
(-0.630973 -60.857 0)
(-1.38082 -63.5745 3.11294e-18)
(0.0813358 -54.8359 -1.12818e-18)
(0.243807 -57.5347 2.68614e-18)
(-0.582072 -48.0801 -9.29645e-19)
(-0.608204 -51.5997 1.3066e-18)
(-0.478609 -41.053 1.32212e-19)
(-0.485903 -44.4352 1.31649e-19)
(-0.40618 -34.9282 -1.32964e-19)
(-0.432765 -37.8762 -1.03288e-21)
(-0.338388 -29.5652 -6.71096e-20)
(-0.374877 -32.1633 2.66958e-19)
(-0.314174 -24.8058 -8.25062e-21)
(-0.312876 -27.1226 -8.31978e-21)
(-0.310996 -20.5121 -1.46401e-20)
(-0.314979 -22.6031 1.68493e-20)
(-0.315114 -16.6284 1.67378e-20)
(-0.313488 -18.5055 7.38233e-21)
(-0.32873 -14.7819 -1.68652e-20)
(0.131025 0.0247042 4.20566e-18)
(0.110598 0.027821 2.41648e-18)
(0.122308 0.0270151 -7.36738e-18)
(0.151187 0.0256043 -3.22248e-19)
(0.141751 0.0248043 -1.04081e-18)
(0.167842 0.0209349 -1.26764e-19)
(0.160105 0.0235216 4.42622e-19)
(0.179387 0.014684 7.21655e-20)
(0.174269 0.017902 -1.79555e-20)
(0.188316 0.0089396 7.63746e-20)
(0.184265 0.0116012 2.79014e-25)
(0.195189 0.00537423 -7.13301e-20)
(0.192323 0.00692757 -8.93724e-21)
(0.197995 0.00349184 4.22589e-19)
(0.197647 0.00433968 1.42192e-19)
(0.192385 0.00235123 1.37354e-19)
(0.196468 0.00284795 -3.275e-24)
(0.178783 0.00138029 3.37481e-19)
(0.186794 0.00192078 -4.09668e-19)
(0.157311 -0.00108305 6.5788e-20)
(0.169789 0.000368551 -4.69674e-19)
(0.130359 -0.00681667 -1.86052e-18)
(0.145264 -0.00436918 3.96016e-19)
(0.0961819 -0.0154314 -5.4352e-19)
(0.114967 -0.00953406 1.08145e-18)
(0.052084 -0.0205112 0)
(0.0575074 -0.0258667 -5.38087e-19)
(0.0782977 -0.0207721 5.41461e-19)
(0.0393654 -0.0306685 0)
(0.019102 -0.0336216 -1.32282e-19)
(-0.0144268 -0.02449 0)
(-0.014708 -0.0367488 2.70997e-19)
(0.00294182 -0.0369615 0)
(-0.0480743 -0.0322475 -3.52226e-20)
(-0.0309979 -0.0355854 2.78006e-19)
(-0.081293 -0.0315252 0)
(-0.0581631 -0.0327555 3.43354e-20)
(-0.104074 -0.0203851 7.93661e-19)
(-0.0955534 -0.0207576 -1.3472e-19)
(-0.139693 -0.00556373 9.85219e-24)
(-0.125694 -0.0157747 5.16392e-19)
(-0.168596 0.00744794 -2.74166e-19)
(-0.154409 0.00070829 0)
(-0.191087 0.017231 2.78119e-19)
(-0.180695 0.0127465 -5.56363e-19)
(-0.204007 0.0218956 1.37623e-19)
(-0.199128 0.0204468 1.38575e-19)
(-0.204475 0.020886 -6.82431e-19)
(-0.205542 0.0218643 4.11886e-19)
(-0.19668 0.0181825 -2.71011e-19)
(-0.201121 0.0194844 4.08464e-19)
(-0.185516 0.0168464 0)
(-0.191377 0.0172793 0)
(-0.17056 0.0169491 6.07788e-19)
(-0.178716 0.0168079 -2.02471e-19)
(-0.150364 0.0175971 3.83166e-24)
(-0.161006 0.017182 -2.69424e-19)
(-0.127326 0.0213634 -9.53611e-19)
(-0.137966 0.0186313 1.0462e-18)
(-0.111854 0.0217091 7.748e-19)
(-0.11236 0.0214588 1.44535e-18)
(-0.112524 0.0248986 6.7878e-20)
(-0.112039 0.023153 -3.82726e-19)
(-0.113624 0.0264006 -3.4759e-20)
(-0.113231 0.0263771 3.7573e-19)
(-0.111331 0.0223573 -7.10045e-20)
(-0.113043 0.0251714 5.6047e-19)
(-0.106049 0.0152971 0)
(-0.108859 0.0189932 7.15229e-20)
(-0.101209 0.00797226 5.23611e-19)
(-0.103428 0.011713 -5.40817e-19)
(-0.830661 -71.2358 -5.06301e-18)
(-0.541506 -60.214 -4.18479e-18)
(-0.188717 0.00987773 -9.78641e-19)
(-0.302776 -0.823475 9.08003e-18)
(0.489263 -48.2511 -5.27568e-19)
(-0.330246 -2.87468 9.53068e-18)
(-0.231534 -0.876737 -5.20026e-18)
(-0.309399 -1.55408 -2.30913e-21)
(-0.227258 -1.36802 6.90378e-18)
(-0.174831 -1.18664 -7.25275e-18)
(0.0938904 -0.0337019 2.3257e-18)
(0.0861581 -0.0879296 -2.31164e-18)
(0.0015488 -0.0271528 -5.30025e-19)
(0.0352375 -0.0237403 4.34593e-23)
(-0.0908912 -0.0777835 9.74674e-18)
(-0.0963299 -0.035098 0)
(0.0842906 -0.471075 -1.4379e-17)
(-0.158611 -0.374551 -3.75683e-18)
(0.163032 -0.671832 -8.47936e-19)
(0.0551012 0.0186779 -4.42903e-18)
(0.0619318 -1.21348 -1.58756e-17)
(0.190482 -0.518786 2.55297e-19)
(0.07141 -0.279345 1.83466e-18)
(-0.378891 -9.84542 -3.35287e-20)
(-1.08011 -69.5853 2.69351e-18)
(-1.45227 -66.9426 -1.06325e-20)
(0.0983337 0.0280841 5.95473e-19)
(0.0963959 0.0270622 -4.98316e-23)
(0.108835 0.0272782 3.0494e-18)
(-0.434169 -70.4733 1.2257e-17)
(-0.0761898 -0.567525 -9.78683e-18)
(0.0504615 -0.135063 0)
(0.0787787 -0.0233929 2.38183e-18)
(0.0496432 -0.0149267 -6.86122e-20)
(-0.0144171 -0.0162776 0)
(-0.0822026 -0.0246771 9.99632e-22)
(-0.0629866 -0.12258 -7.84958e-18)
(0.00665174 -0.304869 -5.17147e-18)
(0.0819346 0.010332 -4.5075e-19)
(0.0791568 0.00704067 1.50398e-19)
(0.113445 -56.1946 4.85924e-19)
(-0.306374 -1.44329 2.64392e-18)
(2.14868 -26.5703 -6.63839e-18)
(-1.10129 -70.9905 1.54597e-17)
(-0.0656745 -0.0112556 0)
(-0.0950434 -1.18584 5.99301e-18)
(-0.353416 -66.7339 -1.28159e-17)
(0.891273 -67.4768 -3.93569e-18)
(-0.0372161 -0.410697 -9.90933e-18)
(0.436422 -61.5986 -1.36724e-19)
(0.0146563 -0.214407 -1.50428e-17)
(0.0653277 -0.0146951 5.69328e-19)
(-0.0254063 -0.0134561 -2.21125e-18)
(-0.0261531 -0.200967 -3.03277e-18)
(-0.089941 0.00996686 7.24192e-20)
(-0.0992022 0.00448099 -2.70534e-19)
(-0.0877322 0.00618477 2.17151e-19)
(0.408225 -8.24407 0)
(0.533939 -9.86887 3.36793e-20)
(0.57907 -8.25966 0)
(0.480673 -52.0526 2.06806e-18)
(-0.0993465 0.0228547 2.66364e-19)
(-0.00115397 -0.210145 -5.69881e-21)
(0.00923849 -0.426273 -4.64814e-18)
(-0.202905 -1.06393 -3.38704e-18)
(-0.20534 0.0209765 -1.08914e-18)
(-0.198745 0.0168873 7.04769e-19)
(0.0889246 -0.0582512 2.29013e-18)
(0.015978 -0.0248357 6.61698e-19)
(-0.0951011 -0.0580606 -4.6714e-18)
(0.0733573 -0.523887 4.44631e-21)
(0.100163 0.0284505 1.11947e-18)
(0.0995302 0.0284663 -5.75466e-19)
(0.0986428 0.0263883 4.75935e-19)
(0.0998303 0.0276867 0)
(0.0941415 0.0220502 -1.12918e-23)
(0.0966738 0.0242713 -2.04056e-19)
(0.0878455 0.0162164 0)
(0.0911614 0.0188963 -2.79253e-19)
(0.0844497 0.0131567 -2.95169e-19)
(0.0879794 0.00193119 3.01656e-19)
(0.113264 0.000220504 2.2542e-18)
(0.10087 0.00084099 0)
(0.146129 0.0015335 -1.18584e-23)
(0.129835 -0.000357461 -2.64467e-19)
(0.172814 0.00229893 -8.23576e-21)
(0.160777 0.00219139 1.35801e-19)
(0.186601 -0.0010007 6.51946e-20)
(0.181527 0.00137306 1.35089e-19)
(0.181026 -0.0109583 6.45803e-20)
(0.186974 -0.00469536 -4.52678e-19)
(0.147983 -0.0325987 -7.67619e-19)
(0.167693 -0.020324 3.87405e-19)
(0.096694 -0.0702604 2.09741e-18)
(0.123846 -0.0488864 -1.02597e-18)
(0.035657 -0.131053 0)
(0.0693124 -0.0974283 -1.01175e-18)
(-0.0571788 -0.238803 1.43832e-18)
(0.00157354 -0.174351 0)
(-0.0875937 -0.327593 3.56654e-18)
(-0.0263107 -1.21397 -5.58874e-18)
(0.116558 -0.398303 1.73586e-21)
(-0.0336019 -0.141923 0)
(0.0059462 -0.196741 0)
(-0.0825792 -0.0826 -9.62066e-19)
(-0.061571 -0.106908 0)
(-0.124078 -0.0464738 -2.72292e-23)
(-0.101601 -0.0636566 1.21812e-18)
(-0.167994 -0.0188916 0)
(-0.14702 -0.0313093 3.11994e-20)
(-0.187452 -0.00543962 0)
(-0.182557 -0.0105629 1.27349e-19)
(-0.175429 -0.000638236 -1.31633e-19)
(-0.184537 -0.00244719 1.29169e-19)
(-0.149827 0.000856848 0)
(-0.163483 0.00033037 5.37152e-19)
(-0.122915 0.00198761 3.50315e-19)
(-0.136017 0.00135012 -1.38375e-19)
(-0.110761 0.00302527 -3.03798e-19)
(0.470312 -13.0986 0)
(0.509577 -11.3795 -3.45512e-20)
(0.414753 -16.6466 -3.5807e-20)
(0.44485 -14.8021 1.04946e-21)
(0.378425 -20.5262 -2.08935e-20)
(0.397193 -18.5203 4.18753e-20)
(0.369641 -24.8148 2.43921e-21)
(0.368758 -22.614 3.36769e-20)
(0.410776 -29.5661 5.89529e-20)
(0.381066 -27.1293 -3.53886e-20)
(0.538021 -34.9272 -2.66821e-19)
(0.461496 -32.1593 1.34916e-19)
(0.670582 -41.0715 5.36128e-19)
(0.602647 -37.9034 -1.33975e-19)
(0.751752 -48.0733 5.23664e-19)
(0.70195 -44.4698 -1.5912e-18)
(-0.220436 -8.2306 2.09692e-21)
(-0.529955 -9.86271 0)
(-0.573592 -8.25391 4.19663e-21)
(-0.404367 -8.24031 -6.16049e-21)
(0.0823544 -8.22769 2.09653e-21)
(-0.0784362 -8.22714 1.6804e-20)
(0.22788 -8.23281 -2.09678e-21)
(-1.00141 -61.272 0)
(-1.68977 -64.1195 -2.66277e-18)
(-0.607872 -54.788 -1.13948e-18)
(-0.583312 -58.1353 0)
(-0.761034 -47.8667 -6.64198e-19)
(-0.729827 -51.3539 -2.7224e-19)
(-0.645827 -40.9183 4.0158e-19)
(-0.688116 -44.3014 1.57083e-19)
(-0.526554 -34.8423 6.77559e-20)
(-0.584724 -37.7772 -1.32301e-19)
(-0.421265 -29.5352 -8.38911e-20)
(-0.463711 -32.1111 6.63007e-20)
(-0.378894 -24.789 0)
(-0.396652 -27.0999 5.0304e-20)
(-0.385915 -20.5104 8.35221e-21)
(-0.376255 -22.5949 -1.67667e-20)
(-0.416132 -16.6368 -2.09896e-21)
(-0.400899 -18.5073 -8.42924e-21)
(-0.469754 -13.0918 -3.40292e-20)
(-0.445405 -14.7941 1.04989e-21)
(-0.507512 -11.3734 3.15917e-20)
(0.13138 0.0266989 0)
(0.120425 0.0271154 1.86801e-18)
(0.152856 0.0250528 -6.24125e-19)
(0.142759 0.0264046 -3.22332e-19)
(0.170165 0.0221406 0)
(0.161875 0.0238679 5.98006e-19)
(0.182682 0.0167988 2.9019e-19)
(0.177269 0.0197477 -1.89041e-23)
(0.190985 0.0106025 6.71604e-20)
(0.187349 0.0136235 1.4279e-19)
(0.196944 0.00618264 1.41911e-19)
(0.194384 0.00813344 -1.42147e-19)
(0.198904 0.00333267 -1.3973e-19)
(0.198925 0.00467267 0)
(0.193443 0.00082529 -1.0544e-23)
(0.197435 0.00204882 -2.7657e-19)
(0.180371 -0.00176471 1.51915e-19)
(0.188053 -0.000382644 4.08957e-19)
(0.160146 -0.00564323 6.64023e-20)
(0.171319 -0.00354846 -2.85232e-19)
(0.134053 -0.0109392 2.656e-19)
(0.148038 -0.00867166 -1.33073e-19)
(0.10103 -0.0172669 0)
(0.11851 -0.013166 -1.33885e-19)
(0.0634061 -0.0266809 -5.34073e-19)
(0.0835258 -0.0218356 0)
(0.0231489 -0.0352315 -1.3348e-19)
(0.0437476 -0.0314892 5.99882e-19)
(-0.0146152 -0.0400181 -5.39553e-19)
(0.00448845 -0.038612 2.68416e-19)
(-0.0504478 -0.0376525 -6.86757e-19)
(-0.0319916 -0.0395873 2.73373e-19)
(-0.0818994 -0.0346395 -2.02675e-19)
(-0.0663542 -0.0366654 3.06979e-19)
(-0.113909 -0.0243006 -5.94973e-23)
(-0.0978882 -0.0279914 -1.3448e-19)
(-0.144305 -0.0111362 5.76134e-23)
(-0.1293 -0.0184634 -1.06085e-18)
(-0.173417 0.000817307 -1.08752e-18)
(-0.159568 -0.00487562 1.08011e-18)
(-0.194021 0.00856052 -6.88419e-20)
(-0.184845 0.00532271 5.4554e-19)
(-0.204043 0.0108458 1.36666e-19)
(-0.20051 0.0103798 -1.37446e-19)
(-0.203128 0.0094486 -2.71889e-19)
(-0.204646 0.0103516 -2.73044e-19)
(-0.195996 0.00855846 -3.38325e-20)
(-0.199973 0.0087402 2.71605e-19)
(-0.185963 0.00999695 -1.62638e-23)