/*--------------------------------*- C++ -*----------------------------------*\
| =========                 |                                                 |
| \\      /  F ield         | OpenFOAM: The Open Source CFD Toolbox           |
|  \\    /   O peration     | Version:  2212                                  |
|   \\  /    A nd           | Website:  www.openfoam.com                      |
|    \\/     M anipulation  |                                                 |
\*---------------------------------------------------------------------------*/
FoamFile
{
    version     2.0;
    format      ascii;
    arch        "LSB;label=32;scalar=64";
    class       volVectorField;
    location    "0.0435";
    object      U;
}
// * * * * * * * * * * * * * * * * * * * * * * * * * * * * * * * * * * * * * //

dimensions      [0 1 -1 0 0 0 0];

internalField   nonuniform List<vector> 
2308
(
(-133.133 574.828 -4.33335e-16)
(54.8789 133.052 0)
(4.60382 382.223 3.37842e-17)
(98.0792 589.522 -1.41836e-16)
(9.67512 640.777 0)
(64.9132 660.987 -4.4085e-18)
(-65.8191 668.934 1.43709e-18)
(-64.2707 650.116 -2.08864e-16)
(-7.28686 632.61 3.75937e-16)
(6.8393 732.439 -4.54806e-17)
(9.34936 732.658 7.85909e-17)
(12.3251 730.95 -1.19053e-16)
(13.642 728.089 5.97088e-17)
(13.9428 724.091 -2.93447e-17)
(14.4095 719.711 5.11619e-18)
(14.5809 714.912 4.35357e-17)
(14.4585 709.71 7.52224e-18)
(-6.74504 704.704 1.32768e-17)
(-6.37178 710.015 1.78404e-17)
(-5.7781 715.203 1.31638e-18)
(-5.12057 720.115 9.64733e-18)
(-3.9989 724.789 -2.9471e-17)
(-3.47123 728.83 3.67363e-17)
(-0.977568 732.42 -1.75818e-17)
(-0.700633 733.412 -7.19253e-17)
(-0.531039 733.048 -3.39975e-17)
(2.58305 731.399 1.72274e-17)
(1.91937 729.773 -1.95869e-17)
(-39.0603 668.225 0)
(13.5406 704.268 -1.21937e-16)
(1.62321 726.318 1.07673e-18)
(1.37138 719.295 2.79204e-19)
(2.15636 707.518 -4.97835e-18)
(5.27021 683.117 4.32811e-18)
(9.21998 649.206 -5.63946e-18)
(8.70011 600.247 4.33975e-18)
(6.92461 544.012 -2.77776e-18)
(3.40565 525.353 2.33737e-18)
(-0.898337 527.981 -2.52166e-18)
(-3.3587 529.874 1.29388e-18)
(-3.10123 531.223 2.47012e-18)
(-2.85389 530.601 3.63475e-18)
(-2.72954 528.555 -7.57478e-18)
(-2.51346 523.976 5.18001e-18)
(-1.92211 515.043 2.68275e-18)
(-19.6495 512.45 -2.57751e-18)
(-4.91381 519.494 2.62212e-18)
(5.17386 522.99 -3.88281e-18)
(18.2998 523.926 -3.94349e-18)
(23.0348 524.404 6.09086e-18)
(13.5781 527.746 -1.29297e-18)
(-13.6255 542.812 2.37338e-18)
(-41.6294 568.15 2.33498e-19)
(-84.0011 588.486 -3.74877e-18)
(-101.885 602.877 -1.06694e-18)
(-98.0663 627.57 2.58009e-18)
(-74.5314 663.833 0)
(-42.6606 696.649 -3.59242e-19)
(-21.91 710.855 -8.94469e-18)
(-9.53565 721.345 -3.08411e-17)
(-2.04239 725.255 3.68731e-17)
(3.18815 727.829 3.30606e-17)
(8.58643 728.445 4.25242e-17)
(15.0481 729.401 -1.55656e-18)
(21.0162 728.801 4.80221e-17)
(25.3795 727.478 -8.85919e-17)
(28.521 725.268 -2.04215e-17)
(31.1981 721.899 0)
(33.084 717.869 0)
(34.4878 713.237 0)
(35.154 708.173 0)
(-3.37464 498.182 -1.22297e-18)
(-24.0799 497.64 1.31059e-18)
(-27.3488 708.545 -6.08503e-17)
(-26.2915 714.095 -1.24276e-18)
(-24.6572 719.276 4.84733e-18)
(-22.3841 723.911 0)
(-19.8708 728.035 -9.31537e-18)
(-16.0613 730.726 -8.81965e-18)
(-11.5267 731.078 4.6138e-18)
(-6.92109 730.449 1.79886e-17)
(-0.898908 729.139 0)
(4.56983 726.421 -7.15853e-19)
(13.4093 721.724 3.47869e-20)
(26.2178 710.797 -4.72238e-18)
(52.4125 691.66 7.07774e-18)
(86.1598 656.945 8.37881e-19)
(109.32 627.28 -3.72097e-18)
(109.784 604.781 0)
(90.9734 592.272 -5.71987e-19)
(47.2965 574.279 3.81286e-18)
(15.3551 549.592 -5.07332e-18)
(-13.0428 528.339 -2.18959e-19)
(-28.1576 522.744 4.67827e-18)
(-23.7839 522.392 0)
(-10.6532 521.417 5.15783e-18)
(-0.537411 517.697 7.39281e-20)
(14.2687 511.087 -2.57537e-18)
(-10.2006 699.429 -5.4332e-17)
(18.1075 496.776 -2.60802e-18)
(11.0845 698.705 5.42478e-17)
(34.4338 702.673 -4.57119e-19)
(-33.807 487.194 -2.61415e-18)
(-12.9586 499.436 3.36061e-18)
(12.7262 504.298 0)
(22.6964 505.743 -9.46943e-19)
(14.1018 514.983 2.44564e-18)
(-14.8577 542.91 2.14513e-18)
(-42.7901 574.272 -2.72816e-18)
(-82.191 591.317 0)
(-104.724 603.022 -6.68576e-19)
(-122.239 611.246 1.28208e-18)
(-130.631 617.504 -7.21075e-20)
(-135.089 624.706 -1.20917e-18)
(-127.423 636.174 0)
(-101.742 653.298 1.41544e-18)
(-64.6272 684.786 -7.69458e-18)
(-33.0106 705.934 -4.48309e-18)
(-17.1807 714.949 1.82135e-17)
(-4.3174 719.785 6.43668e-17)
(4.99063 721.002 4.99713e-18)
(15.7795 721.787 4.64869e-17)
(25.5095 722.251 -2.19109e-17)
(34.343 721.613 0)
(41.4256 720.116 0)
(47.0611 717.769 0)
(51.2078 714.09 7.31156e-17)
(54.4357 709.649 -8.24984e-17)
(56.5596 704.739 8.75792e-17)
(-89.1454 643.14 -1.59652e-16)
(96.8109 662.157 0)
(63.5474 670.729 0)
(77.6825 666.087 0)
(-51.0583 698.969 1.25328e-16)
(-48.7525 705.818 3.43575e-17)
(-46.1614 711.97 -1.41453e-19)
(-43.0988 717.275 -5.80382e-19)
(-39.0534 721.602 5.93888e-19)
(-33.9578 724.716 4.56456e-18)
(-26.5479 725.663 -8.95655e-18)
(-18.5969 725.319 8.62622e-20)
(-9.20806 723.787 0)
(1.60985 721.792 2.11591e-17)
(16.7836 715.034 1.2804e-17)
(38.4458 704.925 -2.83627e-18)
(74.871 679.019 2.12171e-18)
(111.433 648.319 0)
(132.726 634.313 0)
(139.399 625.272 -2.8718e-19)
(134.707 618.96 0)
(126.718 613.221 1.80396e-18)
(109.823 606.643 -7.31958e-20)
(89.3176 595.868 -1.18526e-18)
(51.1721 580.264 0)
(18.3244 548.615 -1.90849e-18)
(-11.5982 515.095 1.86095e-18)
(-26.7605 504.094 -3.00736e-18)
(-19.317 502.677 0)
(3.56312 499.344 -5.58323e-18)
(25.4921 488.589 1.36242e-18)
(45.1368 469.952 1.21325e-19)
(29.1302 468.141 0)
(-1.28687 464.401 -6.65223e-19)
(-36.0144 469.054 -2.42459e-18)
(-44.1265 645.821 1.75201e-16)
(-54.3358 468.285 1.65041e-19)
(-111.982 635.759 -5.18963e-16)
(-152.041 631.151 -1.21935e-16)
(31.6269 696.803 0)
(-64.9852 623.01 1.74236e-16)
(-12.1612 647.885 -3.56266e-16)
(-12.2581 693.107 2.09139e-17)
(57.3352 699.321 -1.31073e-16)
(49.1554 430.236 -1.27732e-18)
(16.9737 414.766 -1.46845e-18)
(-5.36806 402.158 -1.67726e-19)
(-27.0095 415.822 2.50692e-18)
(-53.8094 431.584 1.72652e-19)
(-51.6175 436.451 0)
(-42.9223 452.489 1.40726e-18)
(-16.0863 458.104 2.62711e-18)
(3.13278 463.304 -7.54244e-19)
(8.32805 479.105 -2.81347e-18)
(-22.1391 529.785 -2.76019e-18)
(-48.9249 569.435 4.10253e-18)
(-88.7165 585.022 9.8736e-19)
(-105.231 602.042 -2.47912e-18)
(-121.562 609.029 1.83738e-18)
(-129.5 615.98 -5.35258e-19)
(-136.353 619.945 0)
(-139.947 623.431 0)
(-142.165 626.002 0)
(-139.439 629.831 2.34606e-18)
(-130.858 633.977 -1.30502e-18)
(-112.916 644.625 -8.06442e-19)
(-79.8389 670.578 -1.06673e-17)
(-45.856 694.238 0)
(-19.7703 703.032 -9.56239e-18)
(-2.28066 708.943 1.00141e-17)
(13.278 710.688 2.13853e-17)
(26.5304 711.9 9.98594e-18)
(38.6693 711.981 4.13504e-17)
(49.1415 712.008 -4.09607e-17)
(58.581 711.156 0)
(66.2474 708.65 1.00248e-17)
(71.5159 704.663 -2.08772e-17)
(75.5134 700.136 -4.23561e-17)
(-59.5679 684.571 1.94421e-17)
(-60.1198 548.256 0)
(27.3763 647.868 -7.26705e-19)
(-98.5638 651.098 2.30309e-16)
(-96.6006 659.853 -4.78057e-17)
(-91.7378 667.786 5.40804e-17)
(-87.5102 675.299 -9.46124e-18)
(-82.8435 682.527 2.06662e-17)
(-79.0423 689.649 -9.16456e-18)
(-73.9643 696.368 0)
(-70.0885 702.739 -9.16425e-18)
(-65.4527 708.489 -9.22124e-18)
(-60.1445 713.33 0)
(-52.477 716.444 0)
(-43.4194 717.33 5.77867e-19)
(-32.1101 717.184 -5.35979e-18)
(-20.3996 715.53 0)
(-3.88723 712.047 0)
(14.9907 704.432 -5.04554e-18)
(48.1132 689.833 -4.68298e-18)
(85.8479 662.436 9.07657e-18)
(117.923 641.366 2.1919e-18)
(133.366 633.168 6.06619e-19)
(140.642 629.889 2.38072e-18)
(143.17 626.987 -2.63236e-18)
(141.367 624.541 0)
(138.083 622.018 -1.20542e-18)
(131.623 619.543 0)
(124.622 612.424 0)
(110.292 606.403 0)
(94.5733 589.804 -5.14573e-18)
(53.4942 575.351 0)
(24.0897 537.716 -2.74572e-18)
(-10.4738 488.261 4.7075e-19)
(-12.1261 462.53 9.29917e-18)
(5.4751 460.169 0)
(32.7395 451.104 -5.66827e-18)
(51.4303 434.406 8.61409e-20)
(-34.0303 306.567 0)
(-88.0866 629.811 2.88247e-16)
(149.63 548.888 4.91831e-16)
(48.2383 533.229 0)
(-34.8939 449.92 -1.41301e-16)
(-128.178 628.215 5.88041e-16)
(55.7976 693.488 -3.85426e-18)
(-36.2996 685.045 4.30266e-17)
(-35.6445 425.518 -1.67324e-19)
(-26.5569 427.082 -1.28017e-18)
(-16.9921 428.688 1.19005e-18)
(-34.5948 473.07 0)
(-75.2904 533.791 0)
(-106.896 562.15 1.54632e-19)
(-114.535 584.54 -6.76025e-19)
(-124.621 598.722 -2.23182e-18)
(-129.063 610.555 1.61908e-19)
(-133.647 615.718 -3.09401e-19)
(-136.122 620.263 -3.65814e-19)
(-138.146 623.426 1.6359e-18)
(-138.333 626.308 1.42963e-19)
(-137.889 627.645 -1.21474e-18)
(-136.015 628.375 0)
(-132.907 629.466 4.76834e-18)
(-126.085 631.789 -2.99953e-19)
(-113.203 638.064 2.31042e-17)
(-84.2693 651.586 -2.0821e-17)
(-51.165 673.953 0)
(-18.9087 688.627 1.96197e-17)
(4.82075 695.485 -5.98895e-17)
(24.0292 699.599 3.14161e-17)
(38.7715 700.946 4.0621e-17)
(52.3453 701.373 -1.15363e-19)
(64.3847 700.985 -4.03051e-17)
(75.6231 700.388 4.06128e-17)
(84.7184 697.926 4.09132e-17)
(91.3045 693.993 -4.02124e-17)
(77.6376 695.199 -8.49538e-17)
(-38.9886 616.096 1.0735e-18)
(-192.779 621.822 -5.09807e-18)
(-122.549 649.731 -3.94539e-17)
(-118.899 657.932 -5.21277e-18)
(-113.945 665.264 -1.54838e-17)
(-108.869 672.452 -5.08846e-18)
(-103.807 679.565 0)
(-98.8671 686.352 9.53181e-18)
(-93.4032 692.756 -4.75108e-18)
(-87.6044 698.207 -4.58943e-18)
(-80.6006 703.135 2.43046e-18)
(-71.3307 706.01 2.35888e-18)
(-59.6654 706.942 4.86415e-18)
(-46.6849 706.483 0)
(-30.5843 705.117 4.46302e-18)
(-10.8704 699.228 -5.00188e-18)
(18.0495 691.023 -7.15514e-20)
(55.6466 669.657 -1.40725e-17)
(91.0657 645.156 1.23338e-18)
(115.471 635.294 -5.48671e-18)
(126.801 630.866 0)
(133.156 628.995 -1.93752e-18)
(135.634 628.757 1.51463e-19)
(137.285 628.468 2.71639e-18)
(137.493 627.838 0)
(137.697 626.084 0)
(136.571 623.565 -7.52874e-20)
(135.142 618.74 -2.30463e-18)
(131.146 614.4 2.41157e-18)
(127.707 603.706 3.17555e-18)
(116.776 592.872 -5.9616e-19)
(110.525 568.129 2.06064e-18)
(78.5675 548.682 -8.33811e-19)
(40.6366 491.293 -6.35268e-18)
(9.69542 424.728 4.34364e-18)
(18.2094 422.51 1.15904e-17)
(31.8878 421.085 5.3008e-18)
(31.6361 422.729 0)
(41.6331 420.125 -2.88915e-18)
(30.4646 399.359 -1.37543e-19)
(7.47891 379.351 2.9924e-18)
(-1.5361 379.735 9.97788e-19)
(-13.2 385.366 -1.4007e-18)
(-33.439 407.91 2.66956e-18)
(-42.128 426.56 -2.8037e-18)
(-33.5501 426.764 -1.30249e-18)
(111.86 535.407 -1.69053e-16)
(2.73987 398.786 -4.90082e-17)
(-171.371 147.883 -8.39346e-17)
(-106.914 621.634 -2.75872e-16)
(-114.095 579.358 -1.55222e-16)
(99.7615 405.128 5.0397e-17)
(95.7556 689.887 0)
(77.8576 689.815 1.68003e-16)
(-53.9485 608.092 4.30352e-16)
(-88.1221 612.506 1.73363e-16)
(-68.5027 566.631 -1.92408e-16)
(8.61832 654.249 3.61412e-16)
(-147.535 646.466 0)
(-142.112 654.075 5.11088e-18)
(-136.08 661.515 -1.23091e-18)
(-129.739 668.618 -2.3404e-17)
(-123.437 675.371 4.9351e-18)
(-116.539 681.621 0)
(-109.312 687.192 -1.58928e-19)
(-99.9675 691.31 -1.21588e-18)
(-88.763 693.771 0)
(-75.0393 694.456 -2.35652e-18)
(-58.8564 694.134 -2.16969e-18)
(-39.0291 690.808 0)
(-12.4359 684.513 6.11724e-19)
(24.3601 669.52 -1.65006e-18)
(61.0549 647.183 6.33231e-19)
(91.5066 633.945 8.82539e-18)
(107.117 629.193 0)
(116.622 627.757 1.24062e-18)
(122.048 627.275 -6.1814e-19)
(124.249 627.638 1.49611e-19)
(126.178 628.123 4.60391e-19)
(128.192 627.798 -2.73567e-18)
(130.984 626.774 0)
(133.37 625.386 6.15256e-19)
(136.626 623.208 1.21975e-18)
(138.103 619.7 1.21585e-18)
(140.385 613.942 1.26848e-20)
(141.323 605.076 -6.33378e-19)
(142.697 591.143 -1.87458e-18)
(141.652 574.077 -1.30305e-18)
(138.166 556.249 -1.28159e-18)
(123.986 527.136 0)
(78.6151 471.44 -6.32779e-18)
(32.5105 400.795 -5.54402e-18)
(28.5282 396.379 -4.08149e-18)
(21.5321 398.755 -7.28192e-18)
(13.398 410.368 3.44754e-18)
(27.4343 427.126 -2.60409e-18)
(27.4379 417.804 0)
(12.8088 397.026 1.37292e-18)
(0.158576 381.422 1.40539e-18)
(-0.274048 381.669 -2.66274e-18)
(-2.71777 387.359 2.73621e-18)
(-14.184 404.923 -4.01827e-20)
(-26.4698 423.668 -1.3706e-18)
(-26.9146 430.105 3.95127e-18)
(-13.4726 417.377 -4.16824e-18)
(-24.4595 403.646 7.61969e-19)
(-35.4256 399.122 -5.17332e-19)
(-42.538 399.653 9.44975e-19)
(-64.608 451.624 -3.506e-18)
(-116.373 512.404 1.40193e-18)
(-135.384 546.083 0)
(-140.858 566.082 1.53314e-19)
(-141.388 582.094 2.19251e-18)
(-140.266 598.752 -3.2188e-19)
(-139.184 609.063 7.68278e-19)
(-137.299 616.053 -2.86205e-21)
(-136.159 619.894 3.11918e-19)
(-134.009 622.662 -1.51725e-19)
(-131.661 624.152 1.06862e-18)
(-129.227 625.468 -3.66065e-18)
(-126.86 626.147 -3.71122e-21)
(-124.692 626.469 2.4453e-18)
(-121.441 626.82 -2.50782e-18)
(-114.991 627.724 -1.95565e-17)
(-103.847 630.629 1.92009e-17)
(-84.963 637.679 0)
(-54.2357 653.533 -4.17085e-17)
(-21.4449 670.966 2.93651e-17)
(10.0004 681.477 -3.0409e-17)
(31.4296 686.672 0)
(50.0751 688.865 0)
(64.7006 689.403 0)
(78.3362 688.842 -5.21251e-18)
(90.8692 687.782 -1.43867e-18)
(101.304 685.77 8.01466e-17)
(-21.0774 607.699 -1.86829e-16)
(97.9455 685.27 8.55059e-17)
(75.0979 684.037 -7.73357e-17)
(-63.6845 676.938 1.02136e-17)
(-72.784 601.948 2.12451e-16)
(-106.396 605.714 1.7713e-16)
(-128.412 613.65 3.5472e-18)
(-146.973 620.394 -1.75995e-16)
(-204.362 612.393 -1.20467e-16)
(-150.972 638.817 -1.24028e-16)
(-170.224 634.467 4.25675e-17)
(-165.755 641.316 -1.12416e-17)
(-159.614 648.837 -2.03955e-17)
(-152.711 656.202 0)
(-145.124 663.186 1.94283e-17)
(-136.98 669.133 0)
(-127.774 674.665 0)
(-116.327 677.953 4.63707e-18)
(-102.983 679.107 1.1455e-18)
(-86.5282 679.786 0)
(-67.0244 678.297 2.4152e-18)
(-40.7024 673.876 1.00412e-19)
(-6.55616 663.847 4.20383e-19)
(30.3316 644.829 2.7093e-18)
(62.589 629.877 2.07605e-18)
(83.2998 625.046 -2.85197e-18)
(95.4195 623.922 -4.85496e-18)
(102.784 623.471 1.54051e-19)
(107.075 623.736 -8.85651e-19)
(110.18 625.006 3.01451e-19)
(112.571 626.335 1.22638e-18)
(116.054 625.798 -9.15334e-19)
(120.049 624.413 1.20672e-18)
(124.406 622.547 -2.20436e-20)
(128.984 620.306 -3.05048e-18)
(133.889 617.109 1.22382e-18)
(138.948 612.827 1.25264e-18)
(144.287 606.445 -1.80664e-18)
(148.754 597.27 2.52097e-18)
(154.357 581.883 2.49961e-18)
(157.006 562.762 0)
(159.185 545.091 7.65191e-18)
(152.696 526.039 1.16936e-18)
(138.334 484.273 1.22156e-18)
(82.9132 421.658 0)
(53.1474 369.61 0)
(22.9365 372.565 4.53737e-18)
(-7.86015 384.441 -7.86369e-20)
(-24.174 409.382 -7.71427e-19)
(-0.81332 433.361 6.60079e-19)
(14.1765 434.401 0)
(9.26758 419.266 0)
(-1.03184 399.717 -7.0296e-19)
(-4.53715 386.579 2.07611e-18)
(1.06371 387.513 0)
(5.12647 391.674 -1.39763e-18)
(1.79024 407.024 -1.38538e-18)
(-7.69409 424.42 2.74647e-18)
(-10.6607 436.126 -1.38505e-18)
(3.37571 435.19 4.10611e-18)
(23.1782 413.545 4.52783e-19)
(7.74874 391.033 6.79024e-19)
(-18.2238 379.882 1.47041e-18)
(-47.3498 377.871 0)
(-77.9086 396.239 -5.45988e-19)
(-129.387 464.099 -1.51995e-19)
(-146.499 513.479 7.12537e-19)
(-157.035 535.256 -2.04297e-19)
(-155.237 553.178 -3.60923e-19)
(-154.242 571.153 -2.5617e-18)
(-148.785 589.28 6.13792e-19)
(-144.013 600.633 -1.55606e-18)
(-138.569 608.287 7.81275e-19)
(-133.786 613.066 -3.04135e-19)
(-128.971 616.743 0)
(-124.651 619.243 0)
(-120.498 621.381 0)
(-116.747 622.978 -1.25198e-18)
(-113.302 623.553 0)
(-110.467 622.668 -2.55657e-20)
(-106.53 622.447 9.81788e-18)
(-101.069 623.08 -4.88529e-18)
(-92.1352 623.991 1.00839e-17)
(-78.0765 626.639 2.86224e-17)
(-54.7085 634.689 -1.31592e-18)
(-22.9523 650.476 -1.13316e-17)
(9.22359 664.449 -1.97783e-17)
(37.7553 671.89 3.99296e-17)
(58.5997 675.406 -2.00728e-17)
(76.1888 676.146 -4.77995e-19)
(90.9048 675.437 8.57692e-18)
(104.648 674.155 -1.79218e-18)
(109.405 682.554 -1.21636e-16)
(-35.2842 599.001 -1.92758e-16)
(-2.33458 598.721 3.84884e-16)
(143.673 160.708 0)
(114.484 678.828 -8.39501e-17)
(-181.076 620.028 3.15801e-16)
(-171.209 612.628 -1.71461e-16)
(-148.657 607.283 -3.36701e-16)
(72.9113 677.958 -2.57136e-17)
(-72.2515 660.624 -2.50781e-17)
(-40.5241 676.895 -1.01985e-17)
(97.6701 680.454 2.15872e-18)
(-88.0855 595.542 -2.04999e-16)
(-127.299 598.171 1.6569e-16)
(-40.2223 432.332 -7.08503e-19)
(-21.7512 447.988 -6.97452e-19)
(-9.72171 442.366 0)
(-10.5892 421.915 -7.05968e-19)
(-14.8655 404.946 6.69722e-19)
(-8.22061 398.535 -7.089e-19)
(2.35951 400.102 7.19652e-19)
(11.4937 402.4 1.36201e-18)
(17.1885 410.414 -1.40028e-18)
(12.4579 426.284 2.60788e-18)
(13.4816 442.988 -4.21333e-18)
(25.5735 446.55 0)
(40.4523 432.392 -7.68895e-20)
(54.7131 401.789 0)
(38.3475 378.055 -4.26451e-18)
(12.9459 361.096 1.3458e-18)
(-25.9246 358.243 0)
(-66.723 361.009 0)
(-111.384 396.102 3.79611e-19)
(-149.443 448.634 -4.40772e-20)
(-156.335 491.237 0)
(-161.115 511.536 -1.65017e-19)
(-159.88 532.468 1.64051e-19)
(-158.103 550.493 6.33959e-19)
(-150.485 569.338 3.25372e-19)
(-142.762 583.283 6.23231e-19)
(-135.726 593.578 -3.50439e-21)
(-129.683 600.291 -1.24937e-18)
(-123.634 605.644 3.20501e-19)
(-118.09 609.51 1.24322e-18)
(-112.535 612.817 3.03208e-19)
(-107.283 615.428 -6.549e-19)
(-102.068 617.652 1.24584e-18)
(-97.8989 618.26 -3.68903e-18)
(-94.641 617.22 -5.02096e-18)
(-90.4828 616.174 2.63446e-18)
(-85.277 616.055 -5.16238e-18)
(-78.3321 616.657 0)
(-68.0787 617.44 -1.54288e-17)
(-52.4302 620.21 3.073e-17)
(-27.3726 629.854 0)
(3.68905 644.339 0)
(36.3933 654.712 0)
(65.2518 659.524 7.38603e-18)
(86.7027 661.28 -1.08067e-18)
(104.599 660.952 -1.56608e-18)
(116.29 672.747 -8.02972e-17)
(45.48 641.102 -1.85489e-16)
(-50.0402 591.244 1.00396e-17)
(77.0681 530.106 1.74391e-16)
(-1.86668 421.274 0)
(-182.947 634.107 -9.54469e-18)
(-174.376 642.013 0)
(-165.025 648.658 0)
(-154.161 654.079 4.79228e-18)
(-141.222 658.332 -9.94683e-18)
(-127.071 661.137 0)
(-109.881 663.229 5.15546e-18)
(-90.532 663.055 0)
(-64.8461 660.457 -1.36429e-18)
(-32.1669 652.385 1.15845e-18)
(3.29188 637.181 -6.32627e-18)
(34.8856 623.588 1.7574e-19)
(58.2088 618.467 -2.27012e-18)
(71.5516 617.907 4.92448e-18)
(80.1473 617.574 3.65641e-18)
(86.0454 617.842 -3.77923e-18)
(90.5158 619.293 0)
(94.1545 621.207 -9.31152e-21)
(97.5373 622.074 -1.87273e-18)
(102.078 621.411 0)
(107.466 619.35 0)
(112.885 617.009 6.30984e-19)
(118.519 614.045 1.84558e-18)
(124.15 610.516 -1.24063e-18)
(130.005 605.796 1.23518e-18)
(136.023 599.774 -2.48381e-18)
(142.187 591.535 -6.11887e-19)
(149.371 578.988 -5.03101e-18)
(157.819 561.46 2.47767e-18)
(162.638 541.86 0)
(163.762 523.41 -5.18854e-18)
(161.806 501.182 -2.6389e-18)
(155.112 473.385 0)
(133.435 416.918 2.18968e-18)
(80.1809 360.276 -2.67495e-19)
(34.1926 356.876 4.4333e-18)
(-9.52219 358.46 4.04232e-18)
(-39.5434 374.684 0)
(-56.7017 401.484 -1.33495e-18)
(15.7946 590.014 -1.92785e-16)
(-18.0944 588.784 -3.82571e-16)
(-4.77435 282.015 6.75913e-17)
(96.4213 675.139 -7.70342e-17)
(-103.495 587.493 3.47142e-16)
(117.294 674.684 -4.2973e-19)
(63.7194 354.619 7.15794e-19)
(43.6317 333.744 3.51035e-18)
(8.52762 324.413 -2.87086e-18)
(-31.8942 324.69 0)
(-74.7683 333.98 0)
(-121.031 368.685 0)
(-143.992 417.581 0)
(-150.02 450.898 6.6437e-19)
(-153.866 477.854 -3.49804e-19)
(-153.839 499.154 1.71716e-19)
(-151.558 519.286 -9.77433e-19)
(-145.113 538.951 6.75646e-19)
(-137.016 556.886 3.16982e-19)
(-129.512 570.896 -4.78358e-19)
(-123.372 580.426 0)
(-116.996 587.804 5.92759e-21)
(-111.047 593.606 -3.15388e-19)
(-104.942 598.396 3.07959e-19)
(-98.9557 602.436 6.15112e-19)
(-92.9078 605.894 -7.18429e-19)
(-86.9395 608.565 7.07548e-19)
(-82.1479 609.61 -1.88829e-18)
(-77.965 609.421 -3.79192e-18)
(-73.8241 608.554 2.39725e-18)
(-68.7869 607.792 0)
(-62.6167 607.95 -2.41859e-19)
(-55.2296 608.702 -1.49971e-17)
(-43.5943 609.631 1.29644e-17)
(-25.3869 611.283 -2.68345e-18)
(0.616858 618.376 0)
(30.2889 630.273 -2.31454e-18)
(62.3395 639.595 3.40422e-17)
(90.9371 643.242 -1.93147e-17)
(119.006 659.558 7.71769e-17)
(64.3405 648.086 3.94106e-16)
(-66.2143 585.097 1.13398e-17)
(-72.1594 423.653 -3.40367e-19)
(-58.3554 448.818 1.96352e-18)
(-45.8944 457.92 3.29005e-19)
(-36.7153 450.477 0)
(-30.855 430.838 -6.97121e-19)
(-20.131 421.479 6.71082e-19)
(-5.49604 421.624 -1.054e-18)
(2.65712 421.802 -2.35055e-18)
(10.1164 423.601 2.73582e-18)
(24.5416 424.658 0)
(33.924 433.411 -1.39063e-18)
(40.2582 450.479 3.98714e-18)
(49.6572 454.931 -2.86045e-18)
(59.606 445.671 -1.39645e-18)
(70.465 420.483 2.01232e-18)
(77.8118 378.095 -2.86609e-18)
(66.5513 634.241 3.75878e-16)
(-142.837 592.726 -1.54853e-16)
(-168.104 601.419 1.51945e-16)
(-187.032 608.291 3.06258e-16)
(-202.479 610.59 1.44804e-16)
(26.411 660.958 -7.75967e-18)
(85.1017 656.916 1.03854e-16)
(-115.126 362.555 0)
(63.1485 551.615 0)
(-186.233 624.563 0)
(-174.856 630.717 2.55053e-18)
(-161.595 636.856 -4.86e-18)
(-146.883 641.102 1.2294e-20)
(-129.085 643.78 1.44468e-17)
(-108.307 644.795 -9.84157e-18)
(-81.7531 643.677 2.56982e-19)
(-50.7837 637.521 5.16349e-18)
(-18.9489 624.916 -8.89096e-18)
(9.99703 613.796 8.24754e-19)
(32.5281 609.731 4.80291e-18)
(46.5364 610.15 -1.29276e-18)
(55.3597 609.84 1.22519e-18)
(62.1393 610.104 -3.69321e-18)
(67.6677 611.413 1.2755e-18)
(72.4739 612.969 3.70469e-18)
(76.8426 613.872 -2.49993e-18)
(81.9664 614.11 2.50727e-18)
(87.4975 613.185 9.31016e-19)
(93.5272 610.896 2.17783e-18)
(99.5735 607.706 -2.81909e-18)
(105.527 604.025 1.89148e-18)
(111.558 599.581 -3.44116e-18)
(117.443 594.29 -2.51919e-18)
(123.509 587.597 2.51408e-18)
(129.577 579.036 1.237e-18)
(136.122 567.217 -1.30385e-18)
(144.577 549.518 0)
(152.163 529.734 -2.64893e-18)
(156.628 508.349 1.32819e-18)
(156.716 489.304 -2.64377e-18)
(155.505 462.292 -4.06362e-18)
(148.189 434.987 -2.83363e-18)
(137.227 383.67 -5.77243e-18)
(87.8794 339.074 1.4164e-18)
(40.6647 324.523 -1.38618e-18)
(-4.09524 324.056 -3.00185e-18)
(-44.4412 332.386 0)
(-68.0482 354.221 0)
(-82.0931 380.807 0)
(-4.59777 303.319 0)
(125.652 670.233 -1.15123e-18)
(93.6917 670.109 3.85296e-16)
(32.3952 581.579 1.79355e-16)
(-34.1162 579.382 1.95021e-16)
(0.00525127 579.198 3.65862e-16)
(46.431 654.71 -1.94563e-16)
(-15.7405 292.738 -5.63198e-17)
(-46.8411 330.695 0)
(49.285 666.136 -2.16507e-16)
(118.269 669.884 -8.54944e-17)
(115.529 644.555 -3.24494e-17)
(11.468 666.547 -5.58395e-16)
(84.1886 515.659 1.92652e-16)
(117.815 526.365 1.77666e-16)
(-9.77345 351.895 -3.16783e-17)
(76.7856 324.713 -1.37619e-18)
(61.8663 301.861 -3.52703e-19)
(36.0711 285.84 -1.21816e-18)
(2.76563 280.777 1.08673e-19)
(-32.3333 282.807 0)
(-69.0773 295.233 0)
(-106.051 324.898 0)
(-125.806 365.154 -1.7044e-19)
(-133.575 400.106 -2.07366e-19)
(-137.941 429.235 2.21214e-19)
(-138.968 454.052 -1.63045e-19)
(-138.352 476.048 4.14323e-19)
(-134.487 497.655 -4.93652e-19)
(-128.054 518.909 0)
(-120.537 537.64 0)
(-114.412 550.842 0)
(-108.318 560.771 0)
(-102.345 568.924 0)
(-96.3908 575.601 0)
(-90.3248 581.399 -1.62412e-19)
(-84.2494 586.33 6.22841e-19)
(-78.0376 590.664 0)
(-72.1232 593.565 -1.61224e-18)
(-66.5155 595.109 2.81661e-18)
(-61.1795 595.805 2.51077e-18)
(-56.0846 595.924 0)
(-50.5566 595.658 7.65691e-18)
(-43.9838 594.931 -7.62097e-18)
(-35.9975 594.9 -2.50545e-18)
(-27.3355 595.788 5.08286e-18)
(-15.9536 596.349 -7.71872e-18)
(1.19784 597.3 3.81361e-18)
(25.7174 602.051 -9.62975e-18)
(53.3664 610.016 2.53604e-18)
(83.3866 614.558 7.37276e-17)
(82.7136 641.581 2.03013e-16)
(-144.567 572.294 2.92865e-16)
(-116.287 554.802 1.54656e-16)
(-94.6428 401.251 0)
(-88.0786 438.864 1.19467e-20)
(-78.4596 459.481 -6.84663e-19)
(-68.7559 466.774 -3.42155e-19)
(-58.1483 461.933 -8.72449e-20)
(-41.3048 450.242 8.16923e-20)
(-21.5422 447.168 0)
(-6.04858 444.464 0)
(2.70118 442.93 1.03354e-18)
(10.8901 445.999 -2.70242e-18)
(26.4463 449.142 3.37607e-18)
(45.4302 450.93 0)
(62.4623 460.963 -2.59694e-18)
(72.6474 462.944 2.82802e-18)
(80.0584 454.574 6.6844e-19)
(86.9708 433.458 6.964e-19)
(90.9485 395.778 0)
(87.7263 345.224 0)
(-48.7157 658.592 0)
(-161.728 587.714 1.58854e-16)
(-185.501 596.102 0)
(-206.421 600.746 -3.07336e-16)
(-215.202 599.712 1.4964e-16)
(-213.536 600.012 2.70933e-16)
(-24.2138 430.657 -4.56686e-17)
(-44.253 552.716 1.78219e-16)
(-189.183 602.625 4.95713e-18)
(-175.754 609.016 -4.03275e-17)
(-160.274 613.837 1.76808e-17)
(-140.666 618.583 -2.00012e-17)
(-116.823 621.569 -8.73825e-18)
(-90.5043 621.267 1.27598e-17)
(-62.831 615.841 2.43637e-18)
(-36.6823 607.119 -1.28579e-17)
(-12.0307 601.239 7.61752e-18)
(7.4494 599.519 0)
(20.329 599.547 -6.39326e-18)
(28.2443 599.142 3.79687e-18)
(35.8139 599.217 6.3195e-18)
(42.5142 599.978 1.20945e-18)
(48.5366 600.696 -5.09693e-18)
(54.2196 601.047 -2.53863e-18)
(60.304 600.968 0)
(66.4238 600.323 0)
(72.5982 599.009 -6.19296e-19)
(78.6901 596.731 -3.09657e-19)
(84.7 593.043 3.16805e-18)
(90.6682 588.26 6.35422e-19)
(96.5474 582.756 -2.22205e-18)
(102.475 576.26 -1.29986e-20)
(108.231 568.656 0)
(114.353 559.099 0)
(120.213 547.222 -2.62094e-18)
(127.607 530.134 3.85532e-18)
(135.17 508.103 -1.34609e-18)
(140.047 485.45 -8.80288e-20)
(141.614 462.857 1.29612e-18)
(140.664 439.593 1.3422e-18)
(138.199 411.306 8.18645e-18)
(130.594 378.558 0)
(118.14 338.478 4.2446e-18)
(80.8604 301.053 -4.05755e-18)
(40.0497 284.081 2.78866e-18)
(1.79284 281.344 -2.78526e-18)
(-34.8122 286.007 2.69988e-18)
(-64.7564 301.469 0)
(-81.417 325.879 0)
(-92.8109 349.862 -1.36076e-18)
(90.1443 627.999 3.73585e-16)
(131.371 657.96 -7.9892e-17)
(-103.347 559.727 -1.6149e-16)
(92.5124 598.632 3.57486e-16)
(69.7865 586.96 -9.85908e-18)
(49.9251 574.342 3.72028e-16)
(132.225 666.819 8.28831e-17)
(-49.5605 571.395 -3.94412e-16)
(15.8354 569.545 0)
(-15.6511 568.669 0)
(-15.2314 371.13 -3.30422e-17)
(164.229 567.396 -1.93376e-16)
(-25.0593 436.406 1.35975e-17)
(54.0158 676.636 -3.31019e-16)
(64.9969 578.119 -3.77872e-17)
(101.209 646.602 -2.35877e-16)
(3.54652 281.75 0)
(2.26182 302.399 -2.98549e-17)
(46.6445 573.09 0)
(27.9655 573.258 1.33052e-18)
(12.8396 574.459 2.45178e-18)
(1.97189 574.303 9.22114e-19)
(-7.9252 573.952 1.66469e-19)
(-17.3649 573.942 0)
(-25.6765 573.793 3.31004e-18)
(-32.7606 573.705 -3.31602e-18)
(-39.338 573.67 1.2875e-18)
(-45.5171 573.109 -2.58694e-18)
(-51.4224 571.904 6.43342e-19)
(-57.2537 569.899 0)
(-63.0569 566.945 1.26729e-18)
(-68.8729 562.449 -6.57915e-19)
(-74.7014 556.39 6.48541e-19)
(-80.3818 549.561 -1.14187e-18)
(-86.1283 541.645 1.32774e-18)
(-91.6271 532.651 2.02053e-21)
(-97.4084 521.729 -7.00099e-19)
(-102.805 508.696 3.34393e-19)
(-109.086 490.996 -3.73978e-19)
(-115.23 468.124 0)
(-118.648 444.574 1.67366e-19)
(-119.296 421.05 -8.4653e-20)
(-117.896 396.344 -3.47972e-19)
(-115.059 368.8 2.97871e-19)
(-109.288 337.808 4.32043e-20)
(-100.035 304.386 -1.73621e-19)
(-82.349 271.253 0)
(-55.1544 246.472 0)
(-26.7249 233.584 -6.91884e-19)
(0.156119 230.682 3.85525e-18)
(26.0473 234.445 -7.59345e-19)
(50.0326 246.342 0)
(65.9176 265.621 2.79678e-18)
(75.4466 285.685 -1.24312e-20)
(-2.73375 324.077 1.53644e-16)
(-101.241 369.305 1.38133e-18)
(-105.836 417.775 0)
(-102.615 452.28 -3.53896e-19)
(-95.1005 471.979 3.20514e-19)
(-84.4202 480.989 8.48772e-19)
(-69.5144 481.388 -6.46945e-19)
(-47.4397 476.401 1.59616e-19)
(-25.1882 472.305 3.20501e-19)
(-9.01334 467.594 2.37689e-18)
(2.44444 465.363 -3.35168e-18)
(13.5361 468.778 -2.66304e-18)
(30.0394 473.781 2.6483e-18)
(51.9361 476.649 -3.20378e-19)
(73.9722 479.817 6.44479e-19)
(88.0586 476.784 -2.60043e-18)
(96.5855 466.329 -5.13841e-19)
(101.837 445.744 2.81124e-18)
(102.712 410.749 0)
(96.3278 362.564 1.38109e-18)
(82.0647 304.014 -6.92723e-19)
(109.447 635.397 1.91726e-16)
(136.394 643.85 -7.60701e-17)
(116.588 609.144 -1.86409e-16)
(-30.8556 280.613 0)
(-20.339 269.122 0)
(-6.31981 260.685 -5.34629e-17)
(5.80812 260.925 -1.40486e-17)
(18.9729 265.63 -1.68368e-17)
(14.0599 286.466 -4.09941e-17)
(10.8577 307.649 5.80812e-17)
(5.94338 327.494 3.1456e-17)
(70.7221 493.051 0)
(-4.31174 345.497 -3.20738e-17)
(190.605 577.651 -5.66096e-18)
(205.422 552.067 1.60345e-16)
(178.481 562.13 -1.66936e-16)
(113.339 593.962 -1.81342e-16)
(89.3346 581.509 0)
(66.6496 567.829 0)
(136.531 662.983 1.77919e-16)
(115.573 622.482 3.61176e-16)
(-28.9585 331.205 -4.13397e-17)
(-175.049 583.968 1.42991e-16)
(-203.743 589.357 -1.61805e-16)
(-221.424 589.354 0)
(-226.262 584.319 -3.23049e-16)
(-224.732 579.462 1.62758e-16)
(-211.311 582.03 -2.1447e-16)
(-173.221 483.158 -1.51349e-16)
(-177.153 566.554 4.34176e-17)
(-161.287 576.462 -4.78383e-17)
(-141.805 583.289 2.13497e-17)
(-121.091 586.226 -2.06724e-17)
(-98.8335 584.682 0)
(-75.9174 582.25 -1.17561e-18)
(-54.0843 581.309 -1.66583e-18)
(-33.8704 582.016 7.55905e-18)
(-18.2985 583.07 2.43421e-18)
(-7.44771 583.001 -1.28155e-17)
(1.07489 582.377 5.16397e-18)
(9.56577 581.915 6.38907e-18)
(17.5739 581.596 -5.17254e-18)
(24.8328 581.093 3.2153e-18)
(31.6869 580.621 -3.24433e-18)
(38.413 580 -1.29422e-18)
(44.8801 579.077 3.85013e-18)
(51.1772 577.783 6.53955e-19)
(57.1841 576.004 2.5585e-18)
(62.9827 573.44 -2.5906e-18)
(68.5918 569.637 0)
(74.3391 564.041 -6.4652e-19)
(79.9884 557.23 -3.18405e-19)
(85.6735 549.412 -3.26075e-18)
(91.2403 540.521 2.93638e-18)
(96.8905 529.954 -3.34826e-19)
(102.585 517.319 2.6632e-18)
(108.414 500.971 -5.0067e-18)
(115.481 478.636 2.65006e-18)
(120.246 453.908 1.32904e-18)
(121.486 429.472 6.90104e-19)
(120.333 404.422 -1.38098e-18)
(117.527 377.911 4.10739e-18)
(112.996 347.559 -4.10727e-18)
(104.38 315.003 -1.35406e-18)
(90.3049 280.657 -4.09812e-18)
(63.7598 251.766 5.6269e-18)
(32.8154 235.379 -4.08839e-18)
(3.76804 231.128 2.75589e-18)
(-24.3427 235.137 -5.59866e-18)
(-50.8284 246.654 0)
(-69.9251 266.929 2.72974e-18)
(-80.74 289.643 -1.39753e-18)
(-87.3507 309.826 -1.37626e-18)
(142.228 573.11 -4.15569e-16)
(168.285 583.841 1.99881e-16)
(194.935 590.207 -1.88502e-16)
(18.1537 437.483 9.01272e-17)
(215.57 579.716 -2.04981e-16)
(140.717 656.275 0)
(-3.06245 402.511 -5.22642e-17)
(225.64 581.423 -2.04414e-16)
(-4.98584 369.611 1.48093e-16)
(-0.0028714 557.513 5.67292e-16)
(-30.6003 559.537 -3.82111e-16)
(32.7153 561.195 -1.79999e-16)
(147.936 587.692 0)
(108.567 577.791 -1.98575e-16)
(131.403 590.66 1.76807e-16)