/*--------------------------------*- C++ -*----------------------------------*\
| =========                 |                                                 |
| \\      /  F ield         | OpenFOAM: The Open Source CFD Toolbox           |
|  \\    /   O peration     | Version:  2212                                  |
|   \\  /    A nd           | Website:  www.openfoam.com                      |
|    \\/     M anipulation  |                                                 |
\*---------------------------------------------------------------------------*/
FoamFile
{
    version     2.0;
    format      ascii;
    arch        "LSB;label=32;scalar=64";
    class       surfaceScalarField;
    location    "0.049";
    object      phi;
}
// * * * * * * * * * * * * * * * * * * * * * * * * * * * * * * * * * * * * * //

dimensions      [1 0 -1 0 0 0 0];

oriented        oriented;

internalField   nonuniform List<scalar> 
62761
(
2.79188e-05
-0.000231252
1.66539e-05
0.00018668
1.91348e-05
-0.00010767
0.000107473
-1.8936e-05
-1.8991e-05
-0.000110663
0.000110403
1.92529e-05
-0.000109134
0.00010928
2.00556e-05
-0.000108536
-1.91886e-05
-2.06791e-05
-0.000111208
2.12264e-05
-0.000109756
2.08895e-05
-2.00942e-05
-0.00010933
-2.13019e-05
2.15901e-05
-0.000111495
-0.000110167
-0.00029053
-5.71404e-05
6.65951e-05
0.000281075
-6.90551e-05
-0.000114845
9.35316e-05
9.03689e-05
6.48557e-05
-7.8426e-05
1.35704e-05
0.000252596
-2.50353e-05
-0.000310983
8.34225e-05
0.000174329
-1.49942e-05
-0.000197938
3.86028e-05
0.000224013
-0.00017084
-0.000102847
4.96744e-05
0.000152111
-8.8851e-05
-0.000184972
0.000121712
-0.000208797
0.000209194
-5.2096e-05
5.16985e-05
0.000122063
5.55081e-05
-0.000145456
-3.21148e-05
0.000232674
-6.2257e-06
2.32037e-06
-0.000228769
0.000193686
-0.000142969
1.23968e-05
-6.31113e-05
-8.21349e-06
0.000209311
-7.40867e-06
-1.64952e-06
-0.000301992
0.00030351
1.31754e-07
-0.000221127
0.000293251
8.2738e-05
-0.000154862
0.000103147
-5.12955e-07
-0.000126944
2.43111e-05
-0.000122639
-8.48639e-05
6.45354e-05
-0.000284922
-3.26691e-06
0.000286539
0.000285703
9.91522e-05
-0.000322247
-6.26089e-05
0.000109003
-8.00992e-05
-9.79584e-05
-0.000103278
0.000124656
8.3872e-05
-0.00010525
0.000274472
3.41643e-05
-2.18182e-05
-0.000286818
3.37788e-06
-5.30065e-05
-3.53889e-06
5.31686e-05
-5.19022e-07
-6.26063e-05
6.65042e-05
-6.16711e-05
-0.000174618
0.000185312
5.09781e-05
6.16047e-06
0.000178461
-0.000165618
-1.90013e-05
0.000189347
-0.000181152
0.000160997
-0.000169193
-0.000128336
-4.94429e-05
6.73119e-05
0.000110468
0.000322987
0.000102035
-0.000235674
0.000243614
-0.000222347
0.000120793
-0.000142061
3.37707e-05
-9.36053e-05
8.6871e-05
-2.70351e-05
0.000132361
-0.000128816
-1.36432e-05
1.00993e-05
-0.000105022
-1.6798e-05
0.000104427
1.73951e-05
5.78713e-05
-7.99491e-05
0.00023518
-0.000213102
-0.00015786
0.000150572
0.000138557
-0.000131269
0.000123118
-0.00015101
-0.000125041
0.000152933
-0.000100428
0.000102131
-9.80553e-05
9.63525e-05
0.000128587
-0.00016333
-0.000197613
0.000106569
-5.89993e-05
0.000150044
-0.000145629
6.00698e-05
-4.27757e-05
-0.000296114
7.69935e-05
-4.32967e-05
0.000262417
-5.89325e-05
6.5418e-05
-0.000166098
0.000159614
-0.000370716
-7.27535e-05
0.000141394
0.000302076
0.000100478
9.28367e-05
-0.000124775
-6.85396e-05
-0.000177072
0.000198019
-9.22321e-06
-1.17231e-05
0.000107598
-0.000267609
-0.000140117
0.000300128
-8.33396e-05
-9.9987e-05
9.71065e-05
8.62211e-05
0.000100046
-9.40568e-05
0.000106954
-0.000112942
7.02663e-05
-0.000109152
0.000155978
-0.000117093
-0.000137501
-1.90026e-05
1.9073e-05
0.000137444
0.000136021
-0.000131155
1.188e-05
-1.67453e-05
-2.74354e-05
-0.00013263
-1.68328e-05
0.000176899
-0.000149167
0.000121423
0.000129005
-0.00010126
0.000154549
-8.91983e-05
-0.000170008
0.000104657
1.64118e-05
0.000116953
-9.06095e-05
-4.2754e-05
-6.67545e-05
0.000157829
-0.000160269
6.91954e-05
-2.10345e-05
0.000306884
1.09951e-05
-0.000296845
-0.000146946
0.000172539
5.01458e-05
-7.57388e-05
-0.000131758
-9.42156e-06
3.69195e-06
-0.000124349
-1.77126e-06
-5.62534e-06
7.52512e-06
-1.69337e-05
-0.00011493
-0.000109487
-6.52146e-05
0.000119932
5.47691e-05
-0.000110853
-1.50921e-05
1.75816e-05
0.000108372
-0.000108241
-7.57122e-06
4.96775e-06
-0.000105744
-4.44484e-06
1.95424e-06
-0.000103211
-3.17826e-06
6.50904e-07
-0.000100843
-2.61756e-06
2.54829e-07
-9.87334e-05
-2.2587e-06
1.53913e-07
-9.72109e-05
-2.01944e-06
5.00797e-07
-9.59364e-05
-2.03205e-06
7.60931e-07
-9.50397e-05
-1.97503e-06
1.08134e-06
-9.44412e-05
-2.1515e-06
1.55546e-06
-9.41566e-05
-2.27694e-06
1.99458e-06
-9.3772e-05
-2.45579e-06
2.07309e-06
-2.38119e-06
-9.38289e-05
2.43978e-06
9.47301e-05
-9.47456e-05
-2.36402e-06
9.46829e-05
-2.40668e-06
9.49279e-05
-2.51964e-06
9.54521e-05
-2.67321e-06
9.63584e-05
-2.87838e-06
9.75956e-05
-3.26579e-06
9.92052e-05
-3.62517e-06
0.000101162
-4.2114e-06
0.000103537
-4.98743e-06
0.000106555
-6.19038e-06
0.00010966
-7.54284e-06
0.00011273
-1.06342e-05
0.000112624
-1.49775e-05
0.000115726
-9.64796e-06
6.55362e-06
0.00012738
-4.12012e-06
0.000134053
-8.43273e-06
0.000138842
-1.41989e-05
0.000138142
-1.82915e-05
0.000144107
-1.18888e-05
5.93471e-06
1.17888e-05
0.000156623
-2.50134e-05
-0.000143384
0.000158896
-2.98884e-06
2.17342e-06
0.000165284
-1.08206e-05
0.000166434
-5.35166e-06
-1.53505e-06
0.000172476
-5.64359e-06
0.000172658
-7.74597e-06
-3.09027e-06
0.000178784
-3.20462e-06
0.000178205
-8.6247e-06
-3.23199e-06
0.000184074
-2.04638e-06
0.000183163
-8.17737e-06
-2.99964e-06
0.000188542
-1.45676e-06
0.000187578
-7.40282e-06
-2.64904e-06
0.000192302
-1.10068e-06
0.000191366
-6.42653e-06
-2.43091e-06
0.000195514
-7.71174e-07
0.00019456
-5.61519e-06
-2.04495e-06
0.000198129
-5.60491e-07
0.000197264
-4.73857e-06
-1.64856e-06
0.000200187
-4.00891e-07
0.0001995
-3.8758e-06
-1.436e-06
0.000201911
-2.7926e-07
0.000201398
-3.32502e-06
-1.1979e-06
0.00020336
-2.42684e-07
0.00020295
-2.74096e-06
-9.83441e-07
0.000204511
-1.59386e-07
0.000204234
-2.25865e-06
-9.09855e-07
0.000205512
-8.32268e-08
0.000205197
-1.86441e-06
-7.14725e-07
0.000206325
-8.95936e-08
0.000206083
-1.59199e-06
-5.39545e-07
0.000206959
-8.46702e-08
0.000206835
-1.28244e-06
-4.64609e-07
0.00020751
-7.72313e-08
0.000207464
-1.08458e-06
-4.24359e-07
0.000208001
-5.78808e-08
0.000207948
-8.97824e-07
-3.77364e-07
0.000208437
-4.82413e-08
0.000208372
-7.91928e-07
-3.20169e-07
0.000208803
-3.50652e-08
0.000208783
-7.19752e-07
-2.96445e-07
0.000209135
-2.44534e-08
0.000209115
-6.18164e-07
-2.52836e-07
0.000209418
-1.84575e-08
0.000209431
-5.5617e-07
-2.45197e-07
0.000209683
-7.50406e-09
0.000209685
-4.87057e-07
-2.00923e-07
0.000209955
-5.76113e-08
0.000209916
-4.18873e-07
-1.41597e-07
0.000210189
-7.86748e-08
0.000210183
-3.94439e-07
-1.10809e-07
0.000210387
-7.17216e-08
0.000210409
-3.22243e-07
-1.02605e-07
0.000210613
-1.08145e-07
0.000210626
-3.03752e-07
-5.85487e-08
0.000210816
-1.27795e-07
0.000210869
-2.8503e-07
-5.07662e-08
0.000211036
-1.51182e-07
0.000211074
-2.38355e-07
-1.86089e-08
0.000211273
-1.9971e-07
0.000211335
-2.60702e-07
2.40677e-08
0.000211529
-2.60129e-07
0.000211569
-1.88849e-07
8.3209e-08
0.000211786
-3.18519e-07
0.000211844
-1.70866e-07
1.50601e-07
0.000212081
-4.23251e-07
0.000212173
-1.55411e-07
-2.24087e-07
-1.14688e-07
0.000212537
-5.41575e-07
0.000212424
-0.00021212
0.000212451
-8.48141e-07
-0.000211831
-6.89454e-07
-0.00021157
-5.5774e-07
-0.000211335
-4.74616e-07
-0.000211104
-4.12458e-07
-0.000210883
-3.54109e-07
-0.000210659
-3.35298e-07
-0.000210449
-3.02055e-07
-0.000210206
-3.00244e-07
-0.000209993
-2.77591e-07
-0.000209777
-2.60633e-07
-0.00020948
-2.91629e-07
-0.000209195
-2.92129e-07
-0.000208858
-3.49697e-07
-0.000208476
-4.06497e-07
-0.000208076
-4.38175e-07
-0.000207598
-5.26148e-07
-0.000207006
-6.59954e-07
-0.000206308
-7.73655e-07
-0.000205443
-9.46466e-07
-0.000204384
-1.13331e-06
-0.000203157
-1.37756e-06
-0.000201722
-1.66999e-06
-0.000199933
-2.059e-06
-0.000197697
-2.6279e-06
-0.000195024
-3.22465e-06
-0.00019165
-4.13536e-06
-0.000187691
-5.04904e-06
-0.000182976
-6.16013e-06
-0.000177416
-7.59383e-06
-0.000171089
-9.5193e-06
-0.000164162
-1.25564e-05
-0.00015923
-1.57382e-05
-0.000167055
-1.71719e-05
-0.00014374
-4.22611e-06
-0.000133773
-6.2606e-06
-0.000128861
-1.05244e-05
-0.000134732
-1.10501e-05
-0.00011687
-2.70247e-07
-0.000111076
-8.1736e-07
-0.000107197
-1.91766e-06
-0.000103937
-2.60249e-06
-0.000101246
-2.43011e-06
-9.91574e-05
-1.93051e-06
-9.74252e-05
-1.22734e-06
-9.60332e-05
-6.27534e-07
2.58142e-06
-9.49095e-05
-2.41607e-06
-9.44019e-05
3.15586e-06
-9.51776e-05
2.2882e-07
-9.46318e-05
1.01224e-06
-9.39834e-05
1.34843e-06
-9.35523e-05
1.64391e-06
-9.35579e-05
2.4471e-06
-2.77787e-06
2.87738e-06
-9.45002e-05
-2.32211e-06
-9.5364e-05
9.57285e-05
-9.59909e-05
-2.05841e-06
9.54945e-05
-2.18056e-06
9.5455e-05
-2.32276e-06
9.55628e-05
-2.51239e-06
9.59379e-05
-2.89244e-06
9.65801e-05
-3.31264e-06
9.7581e-05
-3.87618e-06
9.89072e-05
-4.58848e-06
0.000100707
-5.42044e-06
0.000102824
-6.32415e-06
0.000105362
-7.51985e-06
0.000108171
-8.99413e-06
0.000111607
-1.0972e-05
0.000114503
-1.35233e-05
0.00011578
-1.62467e-05
0.000121066
-1.49256e-05
0.000128455
-1.14997e-05
0.00013478
-1.47481e-05
0.000138999
-1.84073e-05
0.000141841
-2.11233e-05
0.000147341
-1.73788e-05
0.000156866
-1.25022e-05
0.000164394
-1.28678e-05
0.000170297
-1.36367e-05
0.000175385
-1.37005e-05
0.000180253
-1.3034e-05
0.000184613
-1.1751e-05
0.000188515
-1.03168e-05
0.000192069
-9.15772e-06
0.000195127
-7.78608e-06
0.000197796
-6.53505e-06
0.000199931
-5.44998e-06
0.000201809
-4.60972e-06
0.000203304
-3.74376e-06
0.000204602
-3.15335e-06
0.000205592
-2.57248e-06
0.000206481
-2.1625e-06
0.00020722
-1.81334e-06
0.000207845
-1.51306e-06
0.000208338
-1.27505e-06
0.000208767
-1.13756e-06
0.000209124
-9.63746e-07
0.000209443
-8.63688e-07
0.000209732
-7.63062e-07
0.000210011
-6.85017e-07
0.00021027
-6.38661e-07
0.000210513
-5.50871e-07
0.000210762
-5.3662e-07
0.000210987
-4.93483e-07
0.000211252
-4.8524e-07
0.00021146
-4.49808e-07
0.00021174
-4.48384e-07
0.000212062
-4.71332e-07
0.000212377
-4.47739e-07
0.000212768
-4.8119e-07
1.53517e-07
-5.56932e-07
0.000213198
-2.61828e-07
0.000212978
-6.61769e-07
0.00021285
-1.02722e-06
0.000212843
-0.000212668
0.000213024
-1.35633e-06
-0.00021231
-1.18114e-06
-0.000212032
-9.44501e-07
-0.00021176
-8.08396e-07
-0.000211486
-7.28423e-07
-0.000211257
-6.21868e-07
-0.000211009
-5.84485e-07
-0.000210819
-5.08806e-07
-0.000210572
-5.3237e-07
-0.000210349
-5.08432e-07
-0.000210107
-5.06181e-07
-0.000209877
-4.77285e-07
-0.000209594
-5.62054e-07
-0.000209257
-6.16901e-07
-0.000208894
-7.01802e-07
-0.000208522
-7.67925e-07
-0.000208062
-8.87641e-07
-0.000207474
-1.10383e-06
-0.000206794
-1.33032e-06
-0.000205979
-1.57992e-06
-0.000205006
-1.91062e-06
-0.000203823
-2.30702e-06
-0.00020243
-2.76213e-06
-0.000200705
-3.38561e-06
-0.000198576
-4.17874e-06
-0.000195993
-5.20184e-06
-0.000192941
-6.26681e-06
-0.000189369
-7.69646e-06
-0.000185154
-9.2528e-06
-0.000180197
-1.11056e-05
-0.000174763
-1.30163e-05
-0.000169002
-1.52668e-05
-0.000164015
-1.75308e-05
-0.000160114
-1.96257e-05
-0.000157495
-1.97762e-05
-0.000146847
-1.48607e-05
-0.00013825
-1.48441e-05
-0.000133336
-1.54256e-05
-0.000130293
-1.40822e-05
-0.000121318
-9.23484e-06
-0.000114837
-7.28967e-06
-0.000110095
-6.6521e-06
-0.000106387
-6.30362e-06
-0.00010344
-5.37126e-06
-0.000100532
-4.83325e-06
-9.85979e-05
-3.15705e-06
-9.72849e-05
-1.93676e-06
-9.62892e-05
-7.63527e-07
-9.5203e-05
-7.11358e-08
-9.29347e-05
2.53422e-06
-9.44045e-05
5.52342e-07
-9.39011e-05
1.14267e-06
-9.34169e-05
1.9647e-06
2.23097e-06
-9.6235e-05
-1.98563e-06
2.48795e-06
-9.56199e-05
3.63051e-06
-9.36866e-05
2.63847e-06
-9.46496e-05
-1.72402e-06
2.19602e-06
-9.67059e-05
9.70232e-05
-9.73361e-05
-1.41e-06
9.66689e-05
-1.62995e-06
9.64525e-05
-1.84048e-06
9.63704e-05
-2.09676e-06
9.64885e-05
-2.43891e-06
9.68624e-05
-2.88405e-06
9.74231e-05
-3.45055e-06
9.83222e-05
-4.20879e-06
9.95623e-05
-5.11295e-06
0.000101114
-6.13625e-06
0.000103076
-7.37795e-06
0.000105484
-8.72756e-06
0.000108255
-1.02854e-05
0.000111384
-1.21172e-05
0.000114654
-1.42352e-05
0.000117734
-1.65963e-05
0.000120662
-1.91674e-05
0.000124416
-1.86715e-05
0.00013063
-1.77059e-05
0.000135911
-2.00205e-05
0.00013992
-2.24074e-05
0.000142933
-2.41272e-05
0.000147862
-2.22978e-05
0.000154611
-1.92413e-05
0.000160823
-1.90697e-05
0.000166178
-1.89808e-05
0.000171018
-1.85292e-05
0.000175554
-1.75582e-05
0.000179966
-1.61511e-05
0.000184211
-1.45498e-05
0.000187979
-1.29138e-05
0.000191509
-1.13039e-05
0.000194566
-9.5807e-06
0.00019732
-8.19269e-06
0.000199625
-6.90501e-06
0.000201681
-5.78937e-06
0.000203331
-4.79241e-06
0.000204725
-3.95689e-06
0.000205802
-3.2293e-06
0.00020674
-2.74151e-06
0.000207513
-2.27525e-06
0.000208142
-1.8935e-06
0.000208651
-1.63535e-06
0.000209105
-1.40598e-06
0.000209474
-1.22096e-06
0.000209824
-1.10059e-06
0.00021011
-9.56986e-07
0.000210372
-8.86917e-07
0.000210659
-8.2283e-07
0.000210914
-7.75315e-07
0.000211177
-7.39583e-07
0.00021143
-7.20056e-07
0.000211721
-7.21861e-07
0.000212009
-7.15609e-07
0.00021231
-7.50616e-07
0.000212674
-7.88923e-07
0.000213099
-8.81212e-07
0.000213545
-9.75912e-07
6.469e-07
-1.18804e-06
0.000214115
1.72756e-07
0.000213701
-2.5574e-07
0.000213435
-6.72592e-07
0.000213295
-1.16513e-06
0.000213364
-1.58259e-06
0.00021347
-0.0002133
0.000213774
-2.02738e-06
-0.000212935
-1.69452e-06
-0.000212625
-1.46662e-06
-0.000212275
-1.27104e-06
-0.000211997
-1.06393e-06
-0.000211743
-9.61901e-07
-0.00021147
-8.75966e-07
-0.000211256
-7.79941e-07
-0.000210987
-7.61351e-07
-0.000210752
-7.51309e-07
-0.000210534
-7.11117e-07
-0.000210267
-7.58779e-07
-0.000209978
-7.53038e-07
-0.000209678
-8.49605e-07
-0.000209303
-9.79432e-07
-0.000208918
-1.07518e-06
-0.000208425
-1.25061e-06
-0.000207833
-1.46915e-06
-0.000207126
-1.79996e-06
-0.000206349
-2.09816e-06
-0.00020532
-2.59928e-06
-0.000204094
-3.12647e-06
-0.000202639
-3.75279e-06
-0.000200836
-4.55495e-06
-0.000198626
-5.58642e-06
-0.000195989
-6.80493e-06
-0.000192907
-8.27389e-06
-0.000189415
-9.74761e-06
-0.000185367
-1.1733e-05
-0.000180893
-1.37159e-05
-0.000176138
-1.58487e-05
-0.000171171
-1.79717e-05
-0.000166356
-2.0069e-05
-0.000161855
-2.20202e-05
-0.000158029
-2.34396e-05
-0.000153863
-2.39311e-05
-0.00014728
-2.14321e-05
-0.000141027
-2.10861e-05
-0.000136023
-2.04179e-05
-0.00013129
-1.88046e-05
-0.000124926
-1.55893e-05
-0.00011896
-1.32469e-05
-0.000113903
-1.17015e-05
-0.000109839
-1.03606e-05
-0.000105954
-9.24945e-06
-0.000103464
-7.31834e-06
-0.000101265
-5.35127e-06
-9.95406e-05
-3.65691e-06
-9.7785e-05
-2.51549e-06
-9.63711e-05
-1.48187e-06
-9.53737e-05
-4.42279e-07
-9.33676e-05
2.48664e-06
-9.46716e-05
4.42965e-07
-9.39743e-05
1.26947e-06
2.47737e-06
-9.59002e-05
1.53157e-06
-9.76226e-05
-1.2441e-06
1.83367e-06
-9.7007e-05
3.03881e-06
-9.27745e-05
3.30514e-06
-9.43521e-05
2.94172e-06
-9.51128e-05
-9.18854e-07
1.33887e-06
-9.80416e-05
9.83626e-05
-9.87144e-05
-5.65946e-07
9.79555e-05
-8.35904e-07
9.76541e-05
-1.10732e-06
9.74426e-05
-1.41696e-06
9.73832e-05
-1.77934e-06
9.75147e-05
-2.22633e-06
9.786e-05
-2.78194e-06
9.84931e-05
-3.51462e-06
9.94207e-05
-4.37526e-06
0.00010065
-5.43501e-06
0.000102201
-6.66039e-06
0.000104128
-8.05847e-06
0.000106422
-9.66738e-06
0.00010914
-1.14401e-05
0.000112078
-1.32186e-05
0.000115335
-1.53674e-05
0.000118692
-1.75859e-05
0.000121963
-1.98608e-05
0.000124866
-2.20635e-05
0.000128101
-2.18992e-05
0.000133219
-2.28168e-05
0.000137458
-2.42518e-05
0.000140812
-2.57538e-05
0.000143356
-2.66638e-05
0.000147363
-2.62967e-05
0.000152304
-2.41745e-05
0.000157074
-2.383e-05
0.000161537
-2.34346e-05
0.000165786
-2.27671e-05
0.000169979
-2.17411e-05
0.000174214
-2.03744e-05
0.000178427
-1.87501e-05
0.000182507
-1.69814e-05
0.000186351
-1.51361e-05
0.000190019
-1.32361e-05
0.000193352
-1.15129e-05
0.000196324
-9.86556e-06
0.000198871
-8.32442e-06
0.000201082
-6.99183e-06
0.000202968
-5.8317e-06
0.000204551
-4.80089e-06
0.000205773
-3.95251e-06
0.000206824
-3.31593e-06
0.000207696
-2.75405e-06
0.000208385
-2.31226e-06
0.000208948
-1.95711e-06
0.000209441
-1.7015e-06
0.000209836
-1.48241e-06
0.000210215
-1.32257e-06
0.000210531
-1.18826e-06
0.000210831
-1.10781e-06
0.000211119
-1.04713e-06
0.000211406
-1.0093e-06
0.00021171
-1.00574e-06
0.000212012
-1.0043e-06
0.000212338
-1.021e-06
0.000212666
-1.05699e-06
0.000213064
-1.16299e-06
0.000213505
-1.29733e-06
0.000214043
-1.48637e-06
0.000214636
-1.75234e-06
1.50426e-06
-2.09096e-06
0.000215254
8.92549e-07
0.000214758
2.66464e-07
0.000214358
-3.19195e-07
0.000214052
-8.23963e-07
0.000213831
-1.28002e-06
0.000213851
-1.74826e-06
0.000213969
-2.30491e-06
0.000214362
-0.000214224
0.000214781
-2.83129e-06
-0.000213783
-2.43887e-06
-0.00021334
-2.10982e-06
-0.000212985
-1.79639e-06
-0.000212673
-1.55979e-06
-0.000212325
-1.38969e-06
-0.000212051
-1.21439e-06
-0.000211788
-1.12011e-06
-0.000211498
-1.05102e-06
-0.000211236
-1.00634e-06
-0.000210989
-9.82056e-07
-0.000210689
-9.95718e-07
-0.000210417
-1.0169e-06
-0.000210065
-1.09054e-06
-0.000209708
-1.19419e-06
-0.000209294
-1.38101e-06
-0.000208778
-1.57956e-06
-0.000208133
-1.88362e-06
-0.000207378
-2.21378e-06
-0.000206507
-2.66027e-06
-0.000205382
-3.21267e-06
-0.000204083
-3.88802e-06
-0.0002025
-4.69901e-06
-0.000200485
-5.75706e-06
-0.000198069
-6.95969e-06
-0.000195277
-8.36793e-06
-0.000192062
-1.00079e-05
-0.000188473
-1.18521e-05
-0.00018447
-1.37389e-05
-0.000180228
-1.59626e-05
-0.000175852
-1.80806e-05
-0.000171407
-2.02827e-05
-0.000167023
-2.23436e-05
-0.000162841
-2.42404e-05
-0.000159049
-2.58017e-05
-0.000155584
-2.68951e-05
-0.000152082
-2.74229e-05
-0.000147456
-2.60487e-05
-0.000142898
-2.56347e-05
-0.000138537
-2.47695e-05
-0.000134148
-2.31845e-05
-0.000128852
-2.08758e-05
-0.000123469
-1.86224e-05
-0.000118645
-1.65171e-05
-0.000114299
-1.46997e-05
-0.000110554
-1.29882e-05
-0.000107489
-1.0377e-05
-0.000104891
-7.94393e-06
-0.000102205
-6.3385e-06
-9.99962e-05
-4.7198e-06
-9.81567e-05
-3.31772e-06
-9.70209e-05
-1.57492e-06
-9.58746e-05
-7.00664e-07
-9.3583e-05
2.09717e-06
-9.50875e-05
4.84857e-07
2.08054e-06
-9.61461e-05
1.523e-06
-9.71903e-05
2.50482e-06
-9.30474e-05
7.18149e-07
-9.90719e-05
-3.59647e-07
9.45094e-07
-9.82677e-05
3.69065e-06
-9.3159e-05
2.90678e-06
-9.4316e-05
2.31354e-06
-9.5345e-05
2.68525e-08
2.40715e-07
-9.93387e-05
9.9763e-05
-0.000100103
3.68036e-07
9.9304e-05
1.00432e-07
9.89357e-05
-1.96516e-07
9.86443e-05
-5.43115e-07
9.84747e-05
-9.36225e-07
9.84607e-05
-1.40117e-06
9.86467e-05
-1.96334e-06
9.90701e-05
-2.64748e-06
9.97302e-05
-3.43943e-06
0.000100756
-4.5373e-06
0.000102047
-5.6629e-06
0.00010367
-7.0547e-06
0.000105639
-8.62495e-06
0.00010796
-1.03748e-05
0.000110592
-1.22947e-05
0.000113464
-1.43067e-05
0.000116699
-1.6447e-05
0.000119977
-1.86399e-05
0.000123267
-2.08692e-05
0.000126636
-2.32235e-05
0.000129276
-2.46978e-05
0.000132378
-2.4995e-05
0.000135857
-2.62895e-05
0.000139058
-2.74463e-05
0.000141762
-2.8452e-05
0.000144053
-2.89487e-05
0.000146664
-2.89011e-05
0.000150224
-2.77277e-05
0.000153773
-2.73708e-05
0.000157268
-2.69216e-05
0.000160772
-2.6262e-05
0.000164379
-2.53387e-05
0.000168142
-2.41263e-05
0.000172068
-2.26652e-05
0.000176107
-2.10078e-05
0.000180182
-1.91985e-05
0.000184217
-1.72581e-05
0.000188024
-1.53068e-05
0.000191526
-1.33546e-05
0.000194768
-1.15526e-05
0.000197653
-9.86446e-06
0.00020016
-8.32555e-06
0.000202311
-6.94015e-06
0.000204113
-5.74205e-06
0.000205549
-4.73937e-06
0.000206759
-3.9518e-06
0.000207746
-3.28711e-06
0.000208553
-2.75188e-06
0.000209202
-2.33704e-06
0.000209752
-2.0186e-06
0.000210217
-1.7738e-06
0.000210641
-1.59781e-06
0.000210995
-1.44558e-06
0.000211337
-1.37295e-06
0.000211678
-1.33259e-06
0.000211995
-1.30466e-06
0.000212339
-1.32846e-06
0.000212703
-1.36389e-06
0.000213097
-1.42832e-06
0.000213533
-1.57551e-06
0.000214021
-1.75932e-06
0.000214571
-2.00872e-06
0.00021518
-2.33166e-06
0.000215823
-2.70247e-06
2.46767e-06
-3.14618e-06
0.000216535
1.82361e-06
0.000215932
1.18085e-06
0.000215434
5.26057e-07
0.000215046
-1.53284e-07
0.000214764
-8.45528e-07
0.000214556
-1.38657e-06
0.000214425
-2.06257e-06
0.000214678
-2.61255e-06
0.000214945
-3.22796e-06
0.000215431
-0.000214851
0.000215431
-3.37955e-06
-0.000214382
-2.87812e-06
-0.000213931
-2.53293e-06
-0.000213486
-2.21518e-06
-0.000213113
-1.90913e-06
-0.000212787
-1.69316e-06
-0.000212432
-1.54853e-06
-0.000212133
-1.39879e-06
-0.000211833
-1.33223e-06
-0.00021152
-1.30204e-06
-0.000211225
-1.25997e-06
-0.000210896
-1.30929e-06
-0.00021051
-1.38791e-06
-0.000210095
-1.49213e-06
-0.000209633
-1.64269e-06
-0.000209072
-1.92942e-06
-0.000208369
-2.26982e-06
-0.000207519
-2.72151e-06
-0.000206514
-3.20735e-06
-0.000205246
-3.91638e-06
-0.000203753
-4.6945e-06
-0.000201891
-5.7391e-06
-0.000199691
-6.88696e-06
-0.000197069
-8.36739e-06
-0.00019402
-9.99673e-06
-0.000190591
-1.17846e-05
-0.000186875
-1.37117e-05
-0.000182862
-1.58525e-05
-0.000178644
-1.79445e-05
-0.000174465
-2.01297e-05
-0.000170268
-2.22662e-05
-0.000166234
-2.4306e-05
-0.000162404
-2.61639e-05
-0.000159063
-2.75715e-05
-0.000156171
-2.8685e-05
-0.000153546
-2.95124e-05
-0.000151056
-2.9905e-05
-0.000147715
-2.93811e-05
-0.000144305
-2.90376e-05
-0.000140828
-2.82389e-05
-0.000136876
-2.71291e-05
-0.000132654
-2.50899e-05
-0.000128252
-2.30169e-05
-0.000123729
-2.10323e-05
-0.00011938
-1.90421e-05
-0.000115803
-1.65581e-05
-0.000112347
-1.38261e-05
-0.000108878
-1.14078e-05
-0.000105753
-9.45812e-06
-0.00010299
-7.47772e-06
-0.000101262
-5.04183e-06
-9.93685e-05
-3.46467e-06
-9.7873e-05
-2.19291e-06
1.35141e-06
-9.43396e-05
-9.65626e-05
-8.22748e-07
0.000216129
-3.89177e-06
4.39702e-07
-9.56484e-05
1.74565e-06
-9.6368e-05
1.97958e-06
-9.38125e-05
1.17932e-06
-9.74237e-05
3.34139e-06
-9.26968e-05
6.62935e-07
-9.86892e-05
3.3311e-06
-9.35821e-05
-5.96231e-08
-0.000100551
5.08625e-07
2.7553e-07
-9.96731e-05
2.60677e-06
-9.46084e-05
2.00125e-06
-9.55997e-05
7.5883e-07
-4.01621e-07
-0.000100908
0.000101221
-0.000101681
1.21979e-06
0.000100705
1.02488e-06
0.000100288
7.86521e-07
9.99352e-05
4.54446e-07
9.96851e-05
5.49465e-08
9.9567e-05
-4.23313e-07
9.96222e-05
-9.89652e-07
9.98882e-05
-1.66507e-06
0.000100401
-2.4741e-06
0.000101204
-3.44776e-06
0.000102353
-4.58559e-06
0.000103681
-5.8613e-06
0.000105417
-7.39543e-06
0.000107482
-9.11529e-06
0.00010987
-1.10082e-05
0.000112554
-1.30543e-05
0.000115505
-1.52403e-05
0.000118582
-1.73779e-05
0.000121754
-1.96137e-05
0.00012489
-2.17697e-05
0.000127888
-2.38613e-05
0.000130674
-2.60043e-05
0.00013299
-2.70087e-05
0.000135683
-2.7682e-05
0.000138211
-2.8813e-05
0.000140533
-2.97629e-05
0.000142758
-3.06722e-05
0.000144315
-3.04998e-05
0.000146346
-3.09262e-05
0.000148638
-3.00142e-05
0.00015118
-2.99065e-05
0.000153807
-2.95409e-05
0.000156544
-2.89915e-05
0.000159453
-2.82389e-05
0.000162595
-2.72591e-05
0.000165999
-2.60586e-05
0.00016964
-2.46376e-05
0.000173483
-2.30292e-05
0.000177483
-2.12457e-05
0.000181525
-1.93351e-05
0.000185519
-1.73347e-05
0.000189277
-1.52963e-05
0.00019279
-1.33633e-05
0.000195976
-1.14977e-05
0.000198825
-9.77505e-06
0.000201295
-8.19823e-06
0.000203385
-6.81566e-06
0.000205093
-5.64687e-06
0.000206516
-4.69658e-06
0.000207684
-3.90566e-06
0.000208632
-3.27107e-06
0.000209413
-2.786e-06
0.00021006
-2.40578e-06
0.000210601
-2.12313e-06
0.000211099
-1.92747e-06
0.000211524
-1.7816e-06
0.000211921
-1.71094e-06
0.000212322
-1.68693e-06
0.000212714
-1.70092e-06
0.000213131
-1.75908e-06
0.000213583
-1.85718e-06
0.000214062
-2.02987e-06
0.00021459
-2.26216e-06
0.000215173
-2.56353e-06
0.000215813
-2.94116e-06
0.000216492
-3.35032e-06
0.000217278
-3.89706e-06
3.64271e-06
0.000218134
-4.46232e-06
2.80111e-06
0.000217413
2.07213e-06
0.000216697
1.40211e-06
0.000216139
7.13586e-07
0.00021577
2.58933e-09
0.00021551
-7.58415e-07
0.000215352
-1.60342e-06
0.000215306
-2.14523e-06
0.000215256
-2.89982e-06
0.000215736
-3.6836e-06
0.000216251
-4.46328e-06
0.000216945
-0.000216248
0.000217
-4.60909e-06
-0.000215599
-3.9954e-06
-0.000215048
-3.39971e-06
-0.000214548
-3.00481e-06
-0.000214095
-2.64187e-06
-0.000213646
-2.33322e-06
-0.000213257
-2.05935e-06
-0.000212892
-1.89124e-06
-0.000212509
-1.76182e-06
-0.000212152
-1.67075e-06
-0.000211802
-1.63324e-06
-0.000211398
-1.6471e-06
-0.000210986
-1.70509e-06
-0.000210516
-1.84287e-06
-0.000209951
-2.04312e-06
-0.0002093
-2.27946e-06
-0.000208497
-2.71841e-06
-0.000207502
-3.25198e-06
-0.000206331
-3.8798e-06
-0.000204864
-4.66134e-06
-0.00020315
-5.618e-06
-0.000200989
-6.84339e-06
-0.000198515
-8.1999e-06
-0.00019557
-9.81945e-06
-0.000192274
-1.165e-05
-0.000188641
-1.36167e-05
-0.000184775
-1.56368e-05
-0.000180711
-1.77631e-05
-0.000176691
-1.98604e-05
-0.000172607
-2.20165e-05
-0.000168674
-2.40515e-05
-0.000164951
-2.5978e-05
-0.000161643
-2.76046e-05
-0.000158972
-2.88265e-05
-0.000156551
-2.99842e-05
-0.000154158
-3.10702e-05
-0.00015202
-3.16436e-05
-0.000150122
-3.17966e-05
-0.000147508
-3.19884e-05
-0.000145227
-3.13128e-05
-0.00014263
-3.08298e-05
-0.000139947
-2.98062e-05
-0.000136736
-2.8294e-05
-0.000132975
-2.67713e-05
-0.000129081
-2.49198e-05
-0.000125283
-2.28333e-05
-0.000121433
-2.04019e-05
-0.000117773
-1.74796e-05
-0.000113833
-1.53415e-05
-0.000110241
-1.30439e-05
-0.000107748
-9.96551e-06
-0.000105232
-7.5529e-06
-0.000102505
-6.1874e-06
-0.000100812
-3.88242e-06
-9.91167e-05
-2.51464e-06
-9.74604e-05
-1.21359e-06
0.000217858
-5.28459e-06
-1.06681e-06
1.97943e-07
-9.65889e-05
-9.47335e-05
1.41455e-06
-9.66024e-05
2.69826e-06
-9.31678e-05
8.74532e-07
-9.76347e-05
3.63499e-06
-9.29995e-05
3.4573e-07
-9.87587e-05
2.97184e-06
-9.39462e-05
-1.35608e-07
-9.99385e-05
2.31072e-06
-9.4917e-05
-8.17689e-07
-0.000102139
1.27703e-06
-5.73253e-07
-0.000101152
1.69636e-06
-9.58809e-05
4.0703e-06
-4.99014e-06
0.000219094
3.25053e-06
0.000218272
2.40361e-06
0.000217583
1.57799e-06
0.000217004
8.35691e-07
0.000216551
8.2421e-08
0.000216302
-7.15338e-07
0.000216188
-1.56841e-06
0.000216197
-2.55625e-06
0.000216283
-3.37295e-06
0.000216592
-4.26137e-06
0.000217179
-5.16163e-06
0.000217885
-6.04927e-06
0.000218786
-0.000217983
0.000218893
-6.15611e-06
-0.000217225
-5.3325e-06
-0.00021648
-4.70763e-06
-0.000215849
-3.99961e-06
-0.000215263
-3.56248e-06
-0.000214736
-3.14181e-06
-0.000214264
-2.78043e-06
-0.000213772
-2.52706e-06
-0.000213345
-2.29669e-06
-0.000212905
-2.18056e-06
-0.000212467
-2.08927e-06
-0.000211994
-2.08752e-06
-0.000211503
-2.1205e-06
-0.000210926
-2.26623e-06
-0.00021026
-2.49222e-06
-0.000209497
-2.79139e-06
-0.000208515
-3.24607e-06
-0.000207341
-3.87793e-06
-0.000205949
-4.62985e-06
-0.00020425
-5.56546e-06
-0.000202208
-6.68897e-06
-0.000199734
-8.07836e-06
-0.000196933
-9.62951e-06
-0.000193677
-1.14423e-05
-0.000190105
-1.33772e-05
-0.000186281
-1.54592e-05
-0.000182393
-1.74913e-05
-0.000178276
-1.97401e-05
-0.00017433
-2.1697e-05
-0.000170468
-2.37105e-05
-0.000166867
-2.5606e-05
-0.000163521
-2.73878e-05
-0.000160773
-2.87168e-05
-0.000158342
-3.00267e-05
-0.000156074
-3.10872e-05
-0.000153981
-3.207e-05
-0.000152347
-3.26979e-05
-0.000150993
-3.29912e-05
-0.000149434
-3.33501e-05
-0.000148247
-3.31703e-05
-0.000146254
-3.33013e-05
-0.000144514
-3.25651e-05
-0.000142526
-3.17888e-05
-0.000140241
-3.05733e-05
-0.000137402
-2.96052e-05
-0.000134357
-2.79592e-05
-0.000130913
-2.62707e-05
-0.000127391
-2.39181e-05
-0.000123376
-2.14878e-05
-0.000119427
-1.92843e-05
-0.000116362
-1.61033e-05
-0.000113101
-1.32201e-05
-0.000109312
-1.13368e-05
-0.000107112
-8.38294e-06
-0.000104236
-6.75404e-06
-0.000101986
-4.7602e-06
-0.000100208
-2.98773e-06
-9.85344e-05
-1.47272e-06
1.20314e-06
-2.2304e-06
-9.55594e-05
-9.7394e-05
6.55206e-08
-7.0094e-06
0.000219893
1.38364e-06
-9.54885e-07
-0.000102567
0.000102842
-0.000103416
1.95897e-06
0.00010224
1.8796e-06
0.00010173
1.73144e-06
0.000101284
1.4719e-06
0.000100959
1.11234e-06
0.000100762
6.53043e-07
0.000100723
9.55762e-08
0.000100872
-5.7058e-07
0.000101245
-1.36003e-06
0.000101873
-2.29108e-06
0.000102786
-3.38418e-06
0.000103997
-4.65556e-06
0.000105522
-6.10693e-06
0.000107405
-7.74061e-06
0.000109595
-9.5808e-06
0.00011208
-1.15953e-05
0.000114822
-1.37451e-05
0.00011777
-1.59973e-05
0.000120777
-1.82417e-05
0.000123881
-2.04766e-05
0.000126874
-2.26014e-05
0.000129685
-2.4575e-05
0.00013224
-2.6412e-05
0.00013434
-2.80992e-05
0.000136223
-2.88877e-05
0.000138355
-2.98093e-05
0.000140185
-3.0639e-05
0.000142096
-3.16696e-05
0.000143099
-3.16712e-05
0.000144666
-3.20624e-05
0.000145676
-3.19307e-05
0.000147538
-3.18717e-05
0.000149348
-3.1711e-05
0.00015126
-3.14467e-05
0.000153313
-3.10377e-05
0.000155552
-3.04713e-05
0.000158026
-2.97244e-05
0.000160775
-2.87989e-05
0.00016384
-2.76926e-05
0.00016719
-2.63677e-05
0.000170802
-2.48463e-05
0.000174653
-2.31723e-05
0.000178641
-2.13096e-05
0.0001827
-1.934e-05
0.000186628
-1.72766e-05
0.000190405
-1.52597e-05
0.000193909
-1.32638e-05
0.000197093
-1.13666e-05
0.000199914
-9.621e-06
0.000202337
-8.05525e-06
0.000204371
-6.71559e-06
0.00020607
-5.58994e-06
0.00020747
-4.65569e-06
0.000208612
-3.91316e-06
0.000209552
-3.32959e-06
0.000210341
-2.8958e-06
0.000211003
-2.57331e-06
0.000211589
-2.34923e-06
0.000212113
-2.21643e-06
0.000212604
-2.15902e-06
0.000213085
-2.16121e-06
0.000213573
-2.22515e-06
0.000214089
-2.34921e-06
0.00021463
-2.54675e-06
0.000215216
-2.82149e-06
0.000215852
-3.17085e-06
0.00021652
-3.5782e-06
0.000217311
-4.10879e-06
0.00021817
-4.72121e-06
0.000219094
-5.34937e-06
-6.05159e-06
0.000220195
-9.42637e-05
1.13239e-06
-9.68597e-05
-2.14789e-06
1.11948e-06
-9.63632e-05
-2.56904e-06
-9.51362e-05
3.39246e-06
-9.29239e-05
6.11948e-07
-9.79003e-05
3.28273e-06
-9.33093e-05
1.32074e-07
-9.90258e-05
2.68267e-06
-9.43172e-05
-4.23627e-07
-0.000100088
2.0427e-06
-9.52626e-05
-6.23875e-07
-0.000101482
1.45064e-06
-9.61984e-05
-1.32743e-06
1.83911e-06
-0.000103927
-1.08012e-06
-0.000102814
-0.00022012
0.000221251
-8.09952e-06
-0.000219148
-7.09005e-06
-0.000218223
-6.2221e-06
-0.000217514
-5.38307e-06