/*--------------------------------*- C++ -*----------------------------------*\
| =========                 |                                                 |
| \\      /  F ield         | OpenFOAM: The Open Source CFD Toolbox           |
|  \\    /   O peration     | Version:  2212                                  |
|   \\  /    A nd           | Website:  www.openfoam.com                      |
|    \\/     M anipulation  |                                                 |
\*---------------------------------------------------------------------------*/
FoamFile
{
    version     2.0;
    format      ascii;
    arch        "LSB;label=32;scalar=64";
    class       surfaceScalarField;
    location    "0.00038";
    object      phi;
}
// * * * * * * * * * * * * * * * * * * * * * * * * * * * * * * * * * * * * * //

dimensions      [1 0 -1 0 0 0 0];

oriented        oriented;

internalField   nonuniform List<scalar> 
5190
(
-2.03322e-17
8.13219e-18
7.31184e-17
6.31807e-17
3.59661e-19
5.4118e-17
1.6413e-17
-3.26943e-17
-1.82893e-17
-1.97363e-17
1.63477e-17
1.34544e-17
8.20341e-17
-2.16127e-17
-1.69541e-17
5.42137e-17
5.91111e-17
1.71443e-17
1.37483e-17
4.38626e-17
2.96964e-17
6.89556e-18
-8.50482e-18
5.31119e-17
-9.18869e-18
-1.84733e-17
-3.81249e-17
-4.26069e-17
-7.90594e-17
2.6272e-17
2.8106e-17
-2.73838e-17
3.6094e-17
1.5686e-17
-1.26595e-16
2.90045e-17
4.12559e-18
-1.07326e-16
2.77704e-17
-8.01902e-17
-3.32731e-18
1.38902e-17
-4.99579e-18
4.94608e-17
-1.33819e-17
2.62755e-17
-1.04067e-17
2.4614e-17
1.17928e-17
-1.32548e-17
2.77025e-17
-9.29279e-18
3.98558e-17
7.67073e-18
1.70749e-18
-1.069e-17
-1.32055e-17
-8.03823e-17
-6.63135e-17
1.10577e-17
8.64416e-17
5.91701e-17
3.1996e-17
-2.63431e-20
-1.32263e-17
-2.84871e-17
-1.09644e-17
-3.37987e-17
-6.95073e-18
-2.62457e-17
-1.22475e-17
3.32135e-18
-2.01454e-17
5.43523e-18
-4.63239e-17
1.30954e-17
1.77899e-17
-7.55374e-18
2.23236e-17
-2.85918e-17
-1.11925e-17
-2.85776e-17
3.03694e-17
-1.85026e-17
-6.47087e-18
5.7762e-18
9.97605e-18
5.87641e-18
-1.89275e-17
-1.64726e-17
-7.3181e-17
-5.14311e-18
-5.14185e-17
5.8792e-18
6.20975e-17
-2.91947e-17
-3.19049e-17
-1.42599e-17
1.93326e-17
2.42192e-17
-2.50716e-18
2.13738e-17
1.77088e-17
-2.02597e-17
1.4339e-17
2.90607e-17
2.11686e-17
1.91611e-17
-5.88138e-18
-7.73801e-18
4.94755e-18
4.27291e-17
3.03196e-17
-4.96937e-17
1.57123e-17
-4.9901e-17
-1.85296e-17
-7.66618e-18
9.45083e-17
-3.93161e-17
5.77873e-17
-1.61022e-17
-3.04031e-17
-4.74684e-17
5.17576e-17
5.63355e-17
-7.92604e-17
7.46363e-17
-2.25242e-17
5.09907e-17
-3.42741e-17
1.32521e-17
-2.01813e-17
-2.26891e-17
2.06461e-17
7.30899e-18
-3.58397e-17
1.52606e-17
-2.50317e-18
-7.14368e-18
6.96413e-18
2.07496e-17
1.84125e-17
-8.12303e-18
-5.83709e-17
-7.63992e-18
-6.57868e-17
5.18812e-17
-1.00054e-16
1.96672e-17
-4.31645e-17
-2.57703e-17
-4.98469e-18
-5.2395e-17
-5.95293e-17
5.91322e-17
-8.89317e-17
1.49632e-17
2.85662e-17
5.193e-18
6.78739e-17
-2.44289e-17
-4.0527e-17
-4.62686e-17
-4.25388e-17
-8.1193e-18
1.59784e-17
-2.56373e-17
-7.1298e-18
4.36415e-17
-1.2059e-17
4.91341e-17
1.72117e-18
3.27677e-17
1.86774e-17
6.92534e-17
-9.62465e-17
4.15496e-17
-4.21235e-17
-1.86526e-17
-3.89393e-17
1.08689e-17
-6.23994e-17
-2.21542e-18
2.19562e-18
-2.7834e-18
2.34042e-17
-1.55871e-17
4.26854e-17
2.46357e-17
5.47794e-17
-6.23243e-17
-2.26492e-17
1.07126e-17
3.05782e-17
4.291e-17
6.97007e-17
1.26214e-17
-7.37963e-18
-6.71817e-17
1.89913e-17
-2.85841e-17
1.28207e-17
-2.96127e-17
2.17796e-17
3.26203e-17
2.01959e-17
2.28417e-17
4.66756e-17
8.86869e-17
1.33492e-17
3.86653e-17
8.63333e-18
-4.61729e-17
-1.28079e-17
4.0579e-17
-3.3062e-17
-2.91384e-17
2.86276e-18
-7.01675e-18
2.37552e-17
1.45674e-17
3.65935e-17
2.17118e-17
-2.42925e-17
-6.92817e-17
-4.86456e-17
-6.01349e-17
-1.38253e-17
-2.21841e-17
4.17768e-17
2.95554e-17
3.83396e-17
4.08725e-18
3.32037e-18
-1.89335e-17
-3.0043e-17
1.23031e-17
-1.34294e-17
1.3403e-17
1.34965e-17
-3.10503e-18
1.52384e-17
1.11263e-17
-5.85524e-18
-7.60231e-18
-2.7241e-17
8.7483e-18
-2.71658e-17
-2.00715e-17
-2.26698e-17
-9.73107e-18
3.89515e-17
-1.30187e-17
2.04567e-17
-4.73126e-17
-1.50481e-17
-1.20551e-17
-1.95706e-17
2.7642e-17
1.14397e-16
-9.97313e-17
2.30379e-17
-3.28605e-17
-1.07923e-17
2.35924e-17
8.23783e-18
-2.3031e-17
-2.76322e-17
-2.65431e-17
-4.25353e-17
6.54344e-20
4.81974e-17
-1.27759e-17
1.94594e-17
-6.75306e-17
3.37867e-17
-3.53064e-17
3.30686e-17
2.70691e-17
5.34949e-17
1.73408e-17
3.98028e-18
2.66479e-17
-5.43376e-17
1.69166e-18
-8.1402e-17
-1.82424e-17
-7.22617e-17
1.93421e-17
5.1892e-17
6.21766e-17
-6.59678e-18
3.41258e-17
-1.00584e-17
-3.68744e-18
-3.49197e-17
-2.55598e-17
-3.09989e-17
-1.53973e-17
-2.51032e-17
-3.16017e-17
1.30412e-17
-7.58386e-18
3.69978e-17
-2.9893e-17
-6.27463e-17
-1.29293e-17
1.40735e-18
-7.61415e-18
-1.78692e-17
-2.57289e-18
3.8987e-17
-2.33225e-17
-2.82954e-17
-3.71551e-17
-2.08107e-17
1.38298e-17
1.99688e-17
-2.39839e-17
6.99105e-18
-6.245e-17
6.70802e-17
1.49021e-17
4.70759e-17
1.80025e-17
-7.24044e-18
-9.63689e-18
-5.44818e-18
2.55083e-17
-3.17638e-17
8.26738e-19
-4.19695e-17
3.37059e-17
-6.85083e-17
-1.80856e-18
7.33167e-18
3.93852e-17
5.91109e-17
1.56777e-17
4.06438e-17
2.9105e-17
-1.42824e-17
2.50725e-17
8.41407e-17
-4.72695e-18
-3.20792e-17
-4.48845e-17
-2.03567e-17
-2.71916e-17
5.4594e-18
-1.2426e-17
5.08342e-17
1.13625e-17
3.50002e-17
-7.78459e-18
5.64729e-17
-5.90191e-18
-3.11082e-17
-2.05059e-17
8.67045e-18
-3.90343e-17
1.2435e-17
-1.00335e-18
1.78588e-18
-3.87531e-18
-3.36964e-17
-3.88282e-17
1.10048e-17
3.98156e-17
1.89263e-17
8.70902e-17
-3.73502e-17
1.13665e-17
8.91449e-17
-5.11403e-17
3.49936e-17
-1.98706e-17
-5.37839e-17
2.19903e-17
6.96631e-17
-8.18508e-18
6.19849e-17
3.58443e-17
-3.50485e-17
-2.54256e-17
-2.07369e-17
-3.27418e-17
-4.32661e-17
-1.26053e-17
-9.04892e-18
4.13149e-17
-8.72581e-17
7.02031e-18
2.88119e-17
5.6907e-17
8.95507e-17
8.33853e-17
-1.36192e-17
-3.28837e-17
-6.08698e-18
-1.68156e-17
-1.69788e-17
-1.98483e-17
4.21869e-17
1.05978e-17
-1.59647e-17
-1.07712e-17
-4.39478e-17
-2.36575e-18
2.60614e-17
1.76459e-17
2.11011e-17
4.55493e-18
3.85431e-17
-8.36638e-18
1.96754e-17
-1.05515e-17
-1.07147e-18
-3.5548e-17
4.2305e-17
-1.45012e-17
2.06941e-17
-4.58608e-17
-5.45478e-18
1.89766e-17
1.29146e-17
1.94099e-17
-9.44646e-18
2.6311e-17
2.28418e-18
-2.68899e-17
-5.24552e-17
-1.59121e-17
-5.81833e-18
-4.57599e-17
-2.42057e-17
6.24488e-17
-3.99794e-17
1.60966e-17
-2.41084e-17
2.52076e-17
-5.95478e-17
2.81351e-17
7.04452e-18
-5.12718e-17
2.01993e-17
3.67295e-18
5.79376e-17
4.58775e-17
-4.80322e-17
7.53018e-17
4.70883e-17
-6.45506e-17
1.16169e-17
9.62777e-17
4.08929e-18
9.56154e-18
8.84139e-18
-1.2284e-17
-1.3336e-17
3.66832e-18
2.33043e-17
-9.80486e-18
-1.40629e-17
-2.28089e-17
-1.93941e-17
-4.09585e-17
-4.01516e-17
-3.80926e-17
-7.83671e-17
-4.16553e-17
-2.27464e-17
-6.08323e-17
7.53516e-18
-3.74813e-17
-4.72077e-19
-2.32118e-17
2.43643e-17
-5.40731e-17
-5.62213e-17
4.31751e-17
3.49417e-17
8.46183e-18
-1.37154e-17
6.34209e-17
-4.07981e-17
4.51718e-18
-9.8741e-18
-5.40493e-17
-2.61994e-17
5.32786e-17
3.91026e-19
-5.71581e-18
3.20857e-17
4.31342e-18
1.25486e-17
-7.42813e-18
2.22807e-17
-4.07169e-17
-4.53728e-17
6.51101e-17
-1.78288e-17
4.49673e-17
6.4969e-17
-3.61951e-10
-1.9161e-13
3.8233e-09
-2.58128e-13
-4.83073e-14
-5.28535e-11
-2.96256e-14
3.62246e-10
-5.29196e-11
-1.04633e-13
3.82571e-09
-5.09299e-13
9.76458e-17
3.90204e-18
2.36237e-17
7.71691e-19
-8.74222e-17
-7.58966e-18
-2.22384e-18
6.88997e-17
-4.62253e-17
-3.83181e-17
5.79705e-18
-9.96394e-17
3.61459e-17
-2.43521e-17
-1.28509e-17
-1.70758e-17
-3.45047e-17
6.60551e-18
7.37426e-17
9.27427e-17
-2.84709e-17
-2.86378e-17
-3.21335e-17
-1.62806e-17
-2.66172e-17
1.62738e-17
2.29514e-17
-3.5617e-17
1.69622e-18
-1.84589e-17
1.28695e-17
-1.8556e-17
7.42227e-19
-3.39124e-18
2.83594e-19
2.48521e-17
-2.25139e-17
1.45989e-17
7.10746e-17
3.1651e-17
-5.78935e-17
5.63394e-17
6.38384e-18
4.91007e-17
-3.25996e-17
7.08387e-17
-3.73437e-17
2.80942e-17
3.67732e-18
-5.39139e-18
1.6696e-17
-6.60893e-17
3.6314e-17
-4.88901e-17
-4.48995e-17
-4.44786e-17
-4.26529e-17
3.01547e-17
-2.30664e-17
4.9589e-17
4.05377e-17
-4.20978e-17
-9.98847e-18
-2.35018e-17
-1.71727e-17
2.93447e-17
8.6298e-17
2.17578e-17
6.58541e-18
2.55389e-17
4.78856e-17
3.42974e-17
-1.04072e-17
3.93738e-17
-3.40911e-17
-5.15838e-17
-2.15008e-17
-5.41758e-17
4.4093e-17
1.22585e-17
5.07121e-17
3.79891e-17
-1.65563e-17
-1.01021e-16
5.48664e-17
-5.02335e-17
9.41847e-18
-1.28226e-17
3.90151e-17
8.04683e-18
-2.78448e-17
-5.34788e-17
2.60886e-17
2.91515e-17
-4.80678e-17
3.92902e-17
-7.21544e-17
7.01491e-17
-1.94977e-17
-4.27509e-12
-4.92668e-15
-4.48201e-16
-5.24224e-13
-8.15291e-16
1.79913e-16
-3.72233e-14
-1.01027e-16
1.14459e-16
-3.74807e-15
3.31317e-17
1.90501e-17
-1.60862e-16
-2.07038e-17
5.80444e-17
-5.36679e-17
-1.67845e-17
-5.07573e-17
2.0939e-17
4.7731e-17
-2.07347e-17
6.80071e-17
-6.17941e-18
-7.97977e-17
-3.65972e-17
-3.17107e-17
-6.96881e-17
-4.776e-18
-7.14218e-17
-6.64863e-17
3.6895e-19
3.3885e-17
5.34658e-17
-2.34722e-18
3.80331e-18
2.17941e-17
9.40611e-18
3.71117e-17
1.80659e-17
2.97923e-18
2.39131e-18
5.39139e-17
2.27449e-18
-3.89941e-18
5.08855e-17
-7.23824e-17
-5.58593e-17
-4.87362e-18
1.47798e-16
-7.3585e-17
-7.14502e-17
-3.75871e-15
3.72611e-14
1.64417e-17
-2.07753e-17
-5.25175e-13
4.28078e-12
-9.94461e-16
-2.02364e-17
-6.55653e-15
-1.2482e-17
-2.01526e-17
2.08912e-17
-1.26488e-17
1.40821e-18
-1.87032e-17
1.00628e-17
1.04386e-18
2.33947e-17
3.64389e-17
3.54464e-17
3.75339e-17
-4.54203e-17
-1.93397e-17
-2.4442e-17
1.7799e-17
2.91395e-18
-4.11455e-17
3.07228e-17
2.10355e-17
4.57806e-17
-2.68397e-18
7.97567e-17
-1.86822e-17
-6.66785e-18
3.68832e-17
4.99789e-17
-4.86532e-17
-2.55774e-17
4.85714e-18
-2.3002e-17
1.22751e-17
5.37449e-17
2.12023e-17
-3.49502e-17
-1.21829e-17
5.92653e-17
-2.93481e-18
-4.93853e-17
2.99391e-17
5.45864e-17
1.87028e-17
1.73548e-18
-2.56214e-17
-1.02877e-17
-7.5474e-17
-1.42965e-17
-4.70247e-17
-1.03565e-17
-2.73447e-17
2.99534e-17
6.38381e-18
-1.4704e-17
-1.52916e-17
-1.49938e-17
2.00546e-17
6.50799e-18
-5.19144e-18
1.68944e-17
-4.80181e-17
-9.65117e-18
-7.14691e-17
-3.66729e-17
6.5214e-17
-1.12504e-16
1.52868e-17
-7.6289e-17
1.3847e-17
2.18756e-17
4.72838e-17
9.86649e-17
-1.20181e-17
5.41285e-17
1.44639e-17
9.58598e-17
1.60568e-17
-7.63761e-17
3.00053e-17
3.63104e-17
2.09403e-17
3.47095e-18
6.8279e-20
8.20806e-18
-3.0901e-18
-2.98103e-17
-8.48587e-18
-1.98914e-17
1.29427e-17
3.21336e-17
-8.64959e-18
2.70514e-17
2.11367e-17
1.09049e-17
-2.45339e-17
1.97475e-18
1.13804e-17
2.57398e-17
-8.68849e-18
5.10253e-17
-1.35324e-17
-4.56446e-17
5.52533e-18
-5.01812e-17
1.97442e-17
-2.58765e-17
-4.88319e-17
2.17622e-17
5.78582e-17
7.37932e-17
1.62467e-17
-2.72966e-12
-4.21166e-12
2.16511e-08
-6.6722e-12
2.16661e-08
-2.39869e-17
9.10934e-19
-4.1439e-17
-2.9018e-17
4.0855e-17
-7.17376e-17
5.25792e-18
5.93564e-17
-1.72609e-17
2.41393e-18
4.41145e-18
-1.39335e-17
2.50153e-18
2.39314e-18
3.03412e-17
-2.85139e-18
-2.07878e-17
-1.65373e-17
2.00757e-17
6.18737e-17
-7.58609e-18
3.12729e-17
-1.20523e-17
1.77738e-17
3.37353e-17
5.70593e-18
2.9118e-17
4.28607e-18
2.16689e-08
-3.826e-09
-1.1527e-11
-1.2031e-11
-3.15283e-12
1.86464e-07
-3.87989e-11
1.86616e-07
4.51995e-17
-1.55109e-17
1.31599e-17
-1.63702e-17
-5.88211e-18
6.47869e-17
-8.30704e-17
2.23554e-18
-4.34495e-17
3.43284e-17
4.62618e-17
3.76143e-17
-5.33297e-17
4.74645e-17
-7.51895e-19
-1.57057e-17
-1.31599e-17
8.05143e-18
-4.45818e-18
9.35248e-18
4.79485e-17
2.62172e-17
-2.38397e-18
-3.52681e-19
3.84342e-17
3.6053e-18
1.25605e-17
4.8127e-18
2.31836e-17
3.83699e-18
8.9198e-18
-1.20391e-17
1.70604e-17
3.26031e-17
5.41042e-17
-4.14695e-17
-6.48859e-17
-4.323e-17
-3.66308e-17
-4.1506e-17
-1.98077e-17
-4.66786e-17
2.78538e-17
-3.07373e-18
-1.34115e-17
-5.08238e-18
-3.62646e-19
-4.0127e-18
-5.38757e-18
-2.73946e-17
2.71051e-18
-1.2537e-17
-3.72671e-17
3.33244e-17
9.55359e-18
4.07002e-17
-1.87586e-17
4.31845e-17
-7.37763e-17
-3.17385e-19
-4.13311e-17
-8.78717e-17
-1.54369e-16
4.42529e-17
-7.42538e-17
5.10137e-17
-1.20083e-17
-1.81063e-17
-1.65347e-17
4.32665e-17
-2.53007e-17
-4.58756e-17
-2.30386e-17
1.46152e-17
-6.65406e-18
6.33048e-17
4.54012e-17
4.46292e-17
7.44725e-18
-1.44413e-17
-2.9141e-17
-2.9287e-17
-1.95713e-17
4.02494e-17
-1.07176e-17
2.27726e-18
-3.4736e-17
-2.74501e-18
-1.03623e-17
-4.48935e-17
3.56838e-17
-2.47942e-17
3.43415e-17
-4.96668e-17
-7.9701e-18
4.47564e-18
4.39879e-17
1.2342e-17
-4.87689e-17
8.58353e-18
2.58734e-18
8.49085e-18
-4.68101e-17
7.99389e-18
-2.52077e-17
4.67004e-17
-4.45861e-18
-9.11749e-18
-8.69228e-17
-2.45817e-17
-3.59952e-17
3.94473e-17
5.02185e-17
4.71895e-17
9.47545e-18
-3.99415e-17
1.04014e-17
-6.30652e-17
1.24103e-17
-4.5135e-17
-4.35989e-18
1.81481e-17
-5.69925e-17
4.11576e-17
1.90228e-17
-2.57736e-17
5.92948e-17
1.96819e-17
6.97145e-17
2.27869e-18
3.62078e-10
-5.28614e-11
-1.0319e-13
-6.42794e-13
4.27372e-12
-5.23713e-13
-4.50867e-16
-5.55685e-15
3.72107e-14
-3.78456e-15
3.89805e-17
4.17505e-17
2.18494e-16
-8.82202e-17
-5.1819e-17
9.06589e-18
4.60718e-17
2.43681e-17
8.64656e-18
6.26804e-17
2.70913e-17
2.16971e-08
-3.83111e-09
-1.06253e-11
1.66369e-11
-3.70332e-11
1.86731e-07
1.865e-07
-1.93594e-17
1.46391e-17
-4.31632e-17
-2.29483e-17
-1.33285e-17
-3.78593e-17
-7.12923e-17
-1.74295e-17
-5.52347e-17
1.47346e-17
-1.95995e-17
-3.04544e-17
-6.00064e-18
-6.81313e-17
1.25793e-17
-2.1869e-17
5.28073e-17
1.18245e-17
-2.18585e-17
-8.94293e-18
-4.23518e-17
2.30048e-16
-2.21457e-17
-4.85312e-18
-3.82244e-15
3.72946e-14
3.05026e-18
1.08795e-17
-5.25686e-13
4.28771e-12
-7.89015e-16
1.15196e-17
-5.2992e-11
3.62795e-10
-1.21315e-13
-5.06309e-15
-6.04239e-13
-5.66531e-18
-1.30379e-17
2.13729e-17
2.65663e-18
-5.62378e-18
2.44606e-17
2.06608e-17
1.87562e-17
2.68911e-17
-8.2149e-18
1.64667e-17
2.68358e-18
-2.71056e-17
9.33839e-18
-3.36981e-17
3.19303e-17
7.85702e-19
-4.36925e-17
-1.59591e-17
2.2321e-17
1.75154e-17
-3.45522e-17
4.1674e-17
1.24625e-17
-5.10901e-17
3.03601e-17
-2.90431e-17
2.07201e-17
-1.56015e-18
-1.50329e-17
-2.27868e-17
-1.74432e-17
-4.72848e-17
-3.582e-17
-2.70376e-17
-2.29997e-17
1.58308e-17
3.31836e-17
1.12074e-17
-9.63041e-18
1.43879e-17
-7.16785e-17
5.75997e-17
5.75295e-17
6.4645e-17
3.67265e-17
3.48711e-17
-3.06283e-17
-2.09745e-17
4.71375e-17
1.49509e-17
1.71437e-17
2.42809e-17
1.18343e-17
-8.69185e-18
2.72553e-17
4.95743e-17
-1.94172e-17
2.84756e-17
4.52389e-17
-4.48836e-18
4.34417e-17
3.4376e-17
2.75054e-18
8.8301e-18
6.5213e-17
1.52326e-17
1.9331e-17
-2.19669e-18
-2.88927e-17
-6.18634e-17
-8.62609e-18
-5.36096e-18
1.08096e-17
5.68306e-17
3.2232e-17
-6.28296e-19
-2.38663e-18
-1.29492e-17
1.3539e-17
5.47137e-17
2.20119e-18
-8.42561e-17
-1.04484e-16
-6.44642e-17
2.80576e-17
-6.13312e-17
-4.07532e-17
2.80886e-18
-5.71449e-17
-5.2988e-17
-2.85863e-17
6.58244e-17
-3.38793e-17
5.96227e-17
4.1244e-17
8.0972e-17
-7.67155e-17
6.42176e-18
-5.05894e-17
1.52278e-17
-7.76478e-18
-1.83905e-17
-3.56337e-17
1.19477e-17
1.57754e-17
2.04305e-17
1.08243e-17
-5.01269e-17
-7.97087e-17
-1.99907e-17
5.91658e-18
5.45077e-18
3.05765e-17
1.9814e-17
-5.526e-18
2.743e-17
-3.88286e-18
-7.06766e-18
-5.86154e-19
-3.24451e-18
-3.84669e-17
1.12518e-18
4.13239e-19
-2.31906e-17
3.62121e-17
1.59129e-17
2.00852e-18
2.71253e-17
3.38955e-18
2.09066e-17
1.81359e-17
2.6824e-17
-4.14913e-17
2.17276e-08
-3.83428e-09
-1.28321e-11
1.87111e-07
-4.64601e-11
2.51686e-17
-2.26393e-17
-2.05754e-17
-4.3824e-19
3.23031e-17
-1.89632e-17
-3.51313e-17
-5.90139e-18
2.63559e-17
4.87273e-18
3.66299e-17
3.68845e-17
-4.44227e-18
3.9371e-17
1.08553e-18
-1.37125e-17
-2.06047e-17
-5.32228e-18
5.90737e-18
-1.30331e-17
-3.17467e-17
-2.61734e-17
-4.97298e-17
-1.01484e-17
-8.02285e-17
-6.66434e-17
-2.08358e-17
-3.57443e-17
-2.61768e-17
4.54147e-18
1.2507e-17
5.24016e-17
-4.96128e-17
1.64999e-17
3.50531e-17
5.54026e-17
6.25037e-17
6.26525e-17
5.0836e-17
4.40739e-17
-1.97505e-17
-5.41437e-17
-5.77981e-17
2.39571e-17
1.39621e-17
-1.42182e-17
2.83255e-17
-1.278e-17
3.88346e-17
-1.56177e-17
-2.61827e-17
-6.93128e-18
8.04636e-18
-3.46046e-17
-1.59521e-17
-4.48455e-17
-4.08435e-17
2.1753e-08
-3.83935e-09
-1.1037e-11
1.87252e-07
-3.80834e-11
2.47926e-19
1.08395e-17
-2.5872e-17
4.39297e-17
-7.85752e-19
3.2256e-17
2.75266e-17
1.55595e-17
2.66515e-17
1.27991e-17
1.07285e-17
2.49697e-17
2.42772e-17
1.76289e-17
-1.01393e-17
-3.77272e-17
3.00563e-17
-4.30805e-17
7.28772e-17
-5.53701e-17
2.5961e-17
4.81548e-19
-1.27515e-18
-4.39247e-17
5.0924e-17
1.47665e-17
2.08742e-17
1.90141e-17
-3.51756e-17
-1.72884e-17
-2.11276e-17
1.81397e-17
2.77145e-17
5.3932e-18
1.33719e-17
8.55002e-18
4.28405e-17
-2.53971e-17
8.12901e-18
1.64113e-17
1.14479e-17
-2.14608e-17
-3.30546e-17
-4.04654e-17
-2.97369e-18
2.64545e-17
-3.62626e-17
-4.13417e-17
-2.68346e-17
6.31686e-17
1.68528e-17
-7.02979e-18
-7.28212e-17
-4.47791e-17
3.52855e-17
-8.97707e-17
-8.92679e-17
-1.55245e-17
-1.73269e-17
-1.61148e-17
3.88957e-18
2.46381e-18
6.27259e-18
1.50565e-17
1.55978e-17
-1.70599e-18
-1.85685e-18
-1.98554e-17
2.23786e-17
7.9031e-18
-8.43923e-18
4.6302e-17
-3.69485e-17
3.77977e-17
2.38941e-17
2.79382e-17
3.58462e-18
-2.18476e-17
1.12555e-17
2.18197e-17
2.31599e-17
1.37897e-17
-3.15781e-17
6.09801e-18
6.32224e-17
8.71013e-18
3.03437e-17
1.79282e-17
-6.87945e-17
4.49121e-17
-1.27324e-17
6.50812e-17
-4.44738e-19
-5.90352e-17
2.28922e-17
-2.59054e-17
3.43749e-17
-2.4936e-17
-3.31639e-17
-2.42074e-17
-5.20469e-17
-2.29442e-17
-3.52876e-18
2.45991e-17
3.34148e-17
-2.92246e-17
-5.64341e-17
1.85284e-17
8.08377e-17
6.99569e-18
2.33576e-17
1.53554e-17
-1.15432e-17
-5.36715e-17
-8.48296e-17
-5.74224e-17
5.54985e-18
5.11478e-17
7.23687e-17
-2.7455e-17
-4.98372e-17
-4.43196e-17
1.6955e-17
-1.06696e-17
7.70577e-17
-2.08638e-18
2.00558e-17
-5.79512e-18
-2.80886e-17
7.51224e-17
-4.00529e-18
1.67843e-17
-5.80467e-17
-5.56596e-17
-5.5508e-17
-1.23792e-17
5.65868e-17
-2.68251e-18
-2.78356e-18
7.76112e-18
1.51168e-17
3.6278e-10
-5.29474e-11
-1.46019e-13
-7.72792e-13
4.27923e-12
-5.24321e-13
-9.53758e-16
-8.11256e-15
3.72485e-14
-3.80654e-15
6.34037e-18
-3.35128e-17
2.1785e-16
-3.04661e-17
2.75347e-18
-6.38975e-17
5.66021e-17
2.42929e-17
7.73713e-17
1.20208e-17
-2.19686e-17
-4.51851e-11
-2.4652e-10
8.64338e-07
2.78984e-10
-4.25352e-10
8.65723e-07
8.64554e-07
-2.58257e-18
9.0648e-18
4.36878e-10
8.67501e-07
-6.02983e-10
8.65344e-07
2.17405e-17
7.10653e-18
2.06088e-17
1.89907e-17
2.92717e-17
-5.04394e-18
-2.08031e-17
-2.68631e-17
3.61852e-18
1.54096e-17
-3.97234e-17
5.64072e-18
-2.62438e-17
3.28497e-17
-3.45597e-17
-3.74181e-17
-1.5895e-17
6.31842e-17
8.22941e-17
2.06554e-17
3.83309e-17
-8.29592e-18
-5.94731e-17
2.07509e-16
-5.70026e-17
5.10933e-17
-3.81567e-15
3.73804e-14
-9.5003e-18
1.21098e-17
-5.26079e-13
4.29478e-12
-6.59625e-16
4.31792e-17
-5.30671e-11
3.63579e-10
-1.00595e-13
-4.92661e-15
-5.86313e-13
3.45095e-17
1.79135e-17
-1.15583e-18
-2.42681e-17
-3.38132e-17
-3.74621e-18
-2.90759e-17
-1.55094e-17
-1.59085e-17
-4.92404e-17
-1.86396e-17
-1.21129e-17
-3.18755e-17
-1.48689e-17
-5.77081e-17
2.20134e-17
8.80552e-19
-1.90074e-19
-4.15337e-18
-3.66552e-18
2.61841e-17
1.55988e-17
1.02453e-17
-2.77548e-17
1.16144e-17
3.39355e-17
-1.98747e-17
-1.15542e-17
3.23767e-17
-2.888e-17
-1.77547e-17
-4.6925e-17
-2.36897e-17
-7.2615e-17
-3.0873e-17
3.93364e-17
3.01281e-17
1.98636e-17
-9.70277e-18
7.42659e-17
-4.46141e-17
2.85279e-17
-2.84727e-17
-1.56015e-17
-7.20184e-17
6.46469e-18
-1.10616e-16
3.47754e-18
6.61225e-18
-4.49358e-17
8.46859e-19
-1.13167e-17
5.79859e-17
-1.69526e-17
2.32455e-17
6.05694e-17
-4.85319e-18
9.61437e-17
2.53292e-17
-4.36733e-17
-8.64058e-17
1.06825e-16
9.27068e-18
-7.84621e-18
8.45837e-17
-5.44769e-17
-1.6167e-17
6.42332e-17
-3.78226e-17
1.87787e-17
-1.71299e-17
3.57028e-17
8.33922e-17
-4.55738e-17
2.40751e-17
-9.77191e-18
-3.17596e-17
-1.66929e-17
-3.88219e-17
-9.00838e-17
-7.56805e-17
-1.74093e-18
5.57059e-19
-7.89004e-18
3.9927e-17
4.53063e-17
-7.52457e-19
1.89731e-17
3.37287e-17
8.48674e-18
5.13897e-17
3.32486e-18
1.1576e-17
-4.32303e-17
-1.98119e-17
1.29446e-17
1.73539e-17
6.35269e-17
-9.3929e-17
1.16359e-18
-8.81601e-17
4.52226e-17
2.34854e-17
-1.82726e-17
-4.35579e-17
-1.21577e-17
6.88341e-18
8.53132e-20
4.94197e-17
-3.38649e-17
9.59539e-17
-3.58686e-19
8.74176e-18
-1.71541e-18
-1.75804e-17
2.34873e-17
1.0289e-17
-1.84528e-17
5.37363e-17
4.51055e-17
6.00105e-17
5.50191e-17
-2.06279e-17
6.01202e-17
1.08132e-17
-1.89528e-17
-4.57533e-17
-3.84689e-17
4.5128e-17
3.95332e-17
-3.48983e-17
3.63351e-17
3.66528e-18
-5.45094e-17
5.54994e-17
-1.71812e-17
-1.60433e-17
1.25672e-18
1.84614e-17
-2.03079e-17
-1.67553e-17
-1.46925e-18
5.8255e-18
4.83646e-18
1.52365e-17
5.19221e-18
-9.03972e-18
1.84715e-17
2.06825e-17
-6.67419e-18
-1.34022e-17
-3.7893e-17
-1.8342e-18
-8.27098e-17
9.87468e-18
-6.24068e-17
4.55317e-17
-2.49366e-18
-2.26873e-17
6.1541e-18
3.18376e-17
-7.54456e-17
-1.90651e-17
1.21573e-17
-2.83751e-17
5.31926e-17
3.40456e-18
-5.52577e-18
4.43972e-17
3.67025e-17
9.97923e-18
-1.999e-17
1.75761e-17
-7.88822e-18
-7.11803e-18
1.06253e-17
3.99189e-17
-1.01247e-17
3.98232e-17
-1.16062e-16
1.78756e-17
3.43762e-17
1.34806e-17
1.85241e-17
1.78739e-17
-3.58763e-17
-3.64807e-18
6.50627e-18
1.60438e-17
4.48447e-17
-2.87635e-18
1.70421e-18
2.58718e-17
-4.99711e-17
-4.23384e-17
1.32163e-17
-3.32821e-18
3.61515e-20
-5.41458e-18
-1.00584e-17
5.05642e-17
2.37138e-17
-5.07541e-18
-1.9859e-17
-1.96247e-17
-5.73902e-10
8.67892e-07
-8.59712e-18
7.20425e-19
9.79838e-18
-1.24114e-17
1.41843e-17
5.40453e-18
-3.14534e-17
-3.42842e-17
1.90624e-17
-1.69013e-17
-1.14989e-17
-2.98708e-17
-2.1142e-17
3.40421e-17
-4.89787e-19
-3.18855e-17
4.06725e-17
7.94918e-19
-1.37124e-17
2.16906e-17
-2.27167e-17
3.2817e-17
-2.69179e-17
-3.90228e-18
-1.74826e-17
-1.80193e-17
-1.01638e-17
1.91834e-17
-2.46343e-17
-2.801e-18
-8.42951e-18
-6.91179e-18
-1.94396e-17
1.10586e-17
-3.45405e-19
-1.76178e-17
-6.00729e-17
-4.88517e-17
-3.8391e-17
5.00637e-19
-3.43389e-17
8.86037e-17
2.7521e-17
-1.24662e-17
-3.53924e-17
4.35075e-17
-4.1279e-17
-1.60375e-17
-5.28952e-17
4.94517e-19
-1.98885e-18
9.20398e-18
1.0724e-17
8.04515e-18
2.55603e-17
3.98335e-18
2.22168e-17
-1.8367e-17
7.38792e-18
-2.13051e-17
-5.43051e-18
1.73637e-17
8.16801e-18
4.77067e-17
-2.62913e-17
3.87986e-18
3.96388e-17
5.06187e-18
-2.53343e-17
-1.86796e-17
3.14658e-18
4.2961e-17
-9.87782e-18
-2.72953e-17
-3.37458e-17
-4.90411e-17
2.98837e-17
8.55048e-18
-8.66149e-10
6.85238e-10
5.62018e-06
8.70393e-07
-1.87749e-07
-6.37071e-10
-1.24921e-09
5.63416e-06
1.86365e-18
4.67424e-17
1.36202e-17
-2.50112e-17
-1.63058e-17
-8.68927e-18
2.25502e-17
-1.07804e-19
2.76494e-17
1.45763e-17
-2.00885e-17
-1.4081e-17
5.69873e-17
-2.36602e-17
-3.07775e-17
-2.83925e-17
7.08217e-18
5.74275e-17
-1.13435e-17
1.84019e-17
2.05297e-17
1.30238e-17
3.98536e-17
-7.02407e-17
1.51617e-18
7.43264e-18
1.94957e-17
-4.49124e-17
4.79663e-17
2.67798e-17
-5.51798e-17
9.20623e-17
5.57826e-17
4.20685e-17
-2.37442e-17
2.78909e-17
2.57381e-18
-2.77142e-17
-7.78236e-18
-1.28888e-17
4.19316e-17
1.41266e-17
-8.20609e-18
4.43922e-17
2.26917e-17
1.7368e-17
9.9604e-18
3.14695e-17
8.29271e-17
-9.46036e-18
-3.88027e-17
1.43392e-17
-2.24702e-17
5.19069e-18
4.5401e-17
-7.96089e-17
-4.22985e-17
-6.2883e-18
-2.2422e-17
2.95011e-17
-1.55699e-17
5.78621e-18
-2.57019e-17
-2.81247e-17
1.51225e-17
7.95972e-18
1.84742e-17
-1.87431e-17
2.83177e-17
4.13627e-17
-2.94199e-17
4.81704e-17
4.54729e-17
5.86587e-18
-2.22954e-17
-4.67752e-17
-3.66775e-17
4.03072e-17
-4.28979e-17
9.58942e-18
7.75205e-18
8.44536e-18
-7.6629e-19
-3.90977e-17
4.96995e-17
8.0357e-18
1.79103e-18
-4.54751e-17
-7.03773e-17
2.57841e-17
-3.23352e-18
1.48375e-17
-1.34514e-17
-6.1241e-17
-2.01431e-17
-5.75132e-17
7.01483e-17
-3.47385e-18
5.86147e-17
3.12284e-17
-7.14011e-17
3.75752e-17
3.8052e-18
7.84922e-17
3.02253e-18
-4.08874e-17
-6.66082e-17
-4.11319e-17
-3.69858e-17
4.05251e-17
-1.05892e-17
2.5353e-17
3.01256e-17
-2.1047e-17
-9.57351e-18
-6.41048e-17
-1.3676e-17
2.17977e-08
-3.84456e-09
-1.2718e-11
-4.18099e-11
3.63708e-10
-5.30657e-11
-1.55854e-13
-7.74479e-13
4.2876e-12
-5.25319e-13
-1.2695e-15
-8.40682e-15
3.73229e-14
-3.85825e-15
-2.65136e-17
-5.79199e-17
2.15221e-16
3.72424e-17
5.93326e-17
1.74434e-17
-3.97768e-17
-1.10995e-17
-1.80865e-17
-9.8258e-18
-6.70984e-19
1.34916e-17
-8.48393e-18
-5.23536e-17
3.05068e-17
3.09743e-17
2.01662e-17
4.7023e-18
-5.94088e-10
3.87486e-10
5.61015e-06
8.70642e-07
-1.87837e-07
-5.99e-10
8.74693e-10
-1.04536e-09
5.63444e-06
5.62011e-06
-2.31897e-10
-3.96565e-10
5.6038e-06
5.60555e-06
5.60899e-06
2.65881e-17
-4.99884e-18
1.49377e-17
7.1455e-17
1.1852e-17
-5.456e-17
3.90733e-17
6.16826e-17
-6.32573e-17
5.95353e-17
2.16068e-18
1.17914e-16
4.59758e-18
-8.50696e-17
-3.91564e-17
5.86887e-17
3.30708e-18
4.40381e-17
1.04033e-16
3.2782e-17
-2.84667e-18
2.47875e-16
-2.69714e-17
-5.20097e-19
-3.83826e-15
3.73929e-14
-4.85879e-17
-8.60527e-17
-5.2662e-13
4.29988e-12
-7.39072e-16
-2.13966e-17
-5.31518e-11
3.64278e-10
-9.03984e-14
-4.25754e-15
-3.84827e-09
2.18148e-08
-1.01441e-11
-5.50165e-13
-3.34037e-11
-1.52762e-18
-8.29318e-19
-3.58668e-17
-2.17818e-17
1.00869e-17
9.79088e-18
-4.89e-17
-3.78234e-17
3.66823e-17
1.88851e-17
-9.17198e-18
-2.37707e-17
-1.06129e-17
-1.96713e-18
8.90164e-18
1.98445e-17
-9.88987e-18
-2.27693e-17
-5.11509e-18
-7.19831e-18
2.53299e-17
1.70074e-17
1.67979e-17
2.14938e-17
-2.85813e-17
1.62912e-17
-2.27468e-17
-1.15593e-17
3.7784e-17
-3.59274e-17
7.40538e-18
-2.26597e-17
2.92584e-17
5.81634e-18
4.10035e-17
5.74342e-17
-2.68078e-17
4.16873e-17
3.93223e-17
-8.47607e-18
1.85197e-17
4.57866e-17
-4.99141e-17
-7.6504e-17
-7.89299e-17
3.3103e-19
-5.19883e-17
-5.35205e-18
7.055e-18
-1.76159e-17
-8.67966e-18
-5.13411e-17
5.36733e-17
-1.16242e-17
5.71461e-17
-1.46709e-17
8.05024e-17
-1.4707e-17
7.66097e-17
2.7641e-17
-6.48244e-17
-3.6959e-17
-9.07075e-17
2.0332e-17
-2.10975e-17
8.25825e-17
-9.27965e-17
-3.35727e-17
2.38963e-17
-2.24114e-17
-7.84697e-17
-8.39824e-17
5.37676e-17
2.47313e-17
6.26005e-17
-3.09697e-17
-7.34263e-18
7.55904e-17
2.91598e-18
-1.15591e-17
-7.00263e-18
-8.47419e-17
-2.3299e-17
-8.13676e-17
4.43153e-17
-9.74113e-17
-7.64753e-17
-6.17399e-17
-2.70122e-18
7.002e-17
-2.4829e-17
-2.44666e-17
-1.91823e-17
-3.71162e-17
2.80297e-17
-1.05255e-18
1.2031e-17
6.97533e-17
7.31791e-17
1.18321e-16
-1.76016e-17
3.46542e-17
4.12986e-17
-6.4979e-18
-5.10424e-17
4.62136e-17
9.38919e-18
1.96066e-17
3.12169e-17
-4.00599e-17
-4.614e-17
-5.6661e-17
5.11048e-17
-5.32597e-17
9.61066e-17
-7.81981e-17
-4.82302e-17
3.85296e-17
6.26742e-17
7.96058e-17
1.87214e-19
4.0252e-17
3.01453e-18
-2.38346e-17
1.40892e-19
3.89535e-18
-7.95877e-18
-3.00893e-17
-2.60386e-17
1.74323e-17
5.7124e-17
-7.77231e-17
-9.34145e-17
2.308e-17
-5.87341e-17
-4.71676e-17
-1.05699e-17
-8.20568e-18
-1.40438e-17
2.97494e-17
2.43259e-17
1.19846e-17
2.43885e-19
2.37377e-17
-1.79586e-17
2.79388e-17
-6.74032e-18
3.49267e-19
6.03168e-18
5.01444e-19
1.17006e-17
2.39533e-17
3.34171e-17
-9.10713e-17
-3.57003e-17
-3.80002e-17
-1.6047e-17
7.41672e-19
2.85882e-17
1.96613e-17
8.83331e-18
9.58051e-17
-1.25819e-17
-7.03384e-18
-3.53723e-18
5.50943e-18
7.36681e-17
-1.67002e-18
2.28725e-17
-2.43262e-18
-1.33627e-17
-4.70499e-17
3.1076e-17
-4.84134e-17
3.4641e-17
1.40983e-17
2.04464e-17
-3.089e-17
5.42254e-20
2.86703e-17
-1.88677e-17
1.15443e-18
2.34689e-17
1.22591e-17
2.3622e-17
8.73373e-07
-1.88358e-07
-5.65965e-10
5.65e-06
-1.6249e-09
-8.91103e-18
4.18402e-17
3.87959e-17
-3.62342e-19
3.58852e-17
1.77515e-17
-1.4454e-17
1.06228e-17
1.12169e-17
1.58422e-17
-2.32654e-17
-5.19946e-17
7.90453e-17
7.89169e-17
-6.53704e-18
2.16097e-17
-4.26689e-18
-1.10447e-17
-3.31362e-17
3.99455e-17
5.64473e-17
-2.96509e-17
1.03597e-17
-1.75906e-17
3.02824e-17
1.315e-17
2.68571e-17
-3.83102e-17
3.17586e-17
2.09472e-17
-3.72247e-18
-1.39335e-17
2.58784e-17
-7.13724e-18
4.53489e-17
-1.46551e-17
-7.26596e-18
-1.57075e-17
-4.66343e-18
1.80847e-17
2.32011e-17
6.94494e-18
-1.02322e-17
2.46586e-17
8.733e-07
-1.88312e-07
-5.72862e-10
5.65034e-06
-1.5911e-09
-1.10703e-08
7.68709e-09
2.12165e-05
-1.33636e-08
2.12696e-05
-2.57749e-17
-4.18364e-17
-2.35447e-17
-5.14946e-19
4.20941e-19
3.27419e-17
7.30991e-18
2.33326e-17
1.81502e-17
-2.90357e-17
-1.76037e-17
5.265e-18
2.84864e-17
-9.67378e-18
-9.36544e-18
-1.06904e-17
-1.56175e-17
1.94825e-17
-5.63232e-18
-5.60958e-17
-5.05913e-17
-6.16562e-18
6.78942e-17
1.80914e-17
-1.78355e-17
1.46154e-17
4.99037e-17
-2.75893e-17
4.73629e-17
-1.23259e-17
2.85333e-18
-2.13103e-17
6.01127e-17
5.32602e-17
-4.65466e-17
1.9718e-17
3.72424e-17
8.85535e-17
-3.49295e-17
-1.16504e-20
-2.18573e-17
9.32519e-18
-2.50198e-17
-1.73869e-17
-9.94775e-18
7.72235e-18
-1.41151e-17
7.1821e-19
-2.46113e-17
6.73629e-18
-2.10067e-18
-1.34302e-17
8.40249e-19
7.87448e-18
1.00556e-17
1.71897e-17
1.27115e-17
1.68968e-17
4.94276e-17
2.43282e-17
-1.10692e-17
-3.83692e-17
-3.6794e-17
1.57596e-17
-3.24571e-17
2.51799e-17
7.42049e-18
4.08613e-17
2.45363e-17
8.12742e-17
-3.28575e-17
4.77577e-17
8.66043e-18
-6.32098e-17
4.57045e-17
-5.47794e-17
5.2663e-17
-3.37698e-17
-1.49753e-17
-5.2108e-17
-3.63845e-17
1.56826e-17
-1.35678e-17
3.18505e-18
-4.76935e-17
-4.44893e-17
-2.37894e-18
3.85115e-17
2.66008e-17
8.414e-17
-5.51295e-17
7.00241e-17
-2.60942e-18
6.22583e-17
6.73397e-17
-4.40736e-17
-6.83943e-17
5.46104e-18
1.16416e-17
7.75738e-17
4.98058e-17
-1.20148e-17
5.22727e-17
5.87176e-17
5.3796e-17
-2.34829e-17
-1.41921e-17
-5.00824e-17
1.37207e-17
-3.9332e-17
1.83019e-17
-1.37297e-17
4.02271e-18
4.67337e-17
-1.10716e-18
7.83501e-18
-1.93867e-17
3.99833e-17
-9.91671e-18
3.43317e-17
5.12599e-18
-1.46358e-17
3.26873e-17
6.83267e-18
1.80319e-17
5.03748e-17
1.66486e-17
3.69939e-17
-6.49397e-18
-1.39734e-17
-1.17351e-17
1.37243e-17
-6.21721e-17
-6.06306e-18
2.18653e-08
-3.85463e-09
-1.1266e-11
-4.4519e-11
3.64676e-10
-5.31791e-11
-1.38389e-13
-7.76127e-13
4.29743e-12
-5.26436e-13
-1.46421e-15
-8.62213e-15
3.74398e-14
-3.81644e-15
-4.64867e-17
-8.62077e-17
1.63376e-16
-2.85756e-17
-4.71296e-17
1.07346e-17
9.91436e-17
-2.50992e-17
2.38654e-17
-6.56961e-17
-2.10471e-17
9.82491e-17
1.92716e-17
2.52042e-18
-4.87214e-17
-6.31746e-17
-7.60026e-17
-8.03697e-18