/*--------------------------------*- C++ -*----------------------------------*\
| =========                 |                                                 |
| \\      /  F ield         | OpenFOAM: The Open Source CFD Toolbox           |
|  \\    /   O peration     | Version:  2212                                  |
|   \\  /    A nd           | Website:  www.openfoam.com                      |
|    \\/     M anipulation  |                                                 |
\*---------------------------------------------------------------------------*/
FoamFile
{
    version     2.0;
    format      ascii;
    arch        "LSB;label=32;scalar=64";
    class       surfaceScalarField;
    location    "0.000237";
    object      phi;
}
// * * * * * * * * * * * * * * * * * * * * * * * * * * * * * * * * * * * * * //

dimensions      [1 0 -1 0 0 0 0];

oriented        oriented;

internalField   nonuniform List<scalar> 
112622
(
3.48301e-09
-3.4855e-08
4.19598e-09
-2.56929e-08
4.48326e-09
-2.42316e-08
4.62188e-09
-2.5344e-08
4.64685e-09
-2.65874e-08
4.59192e-09
-2.6642e-08
4.46072e-09
-2.63561e-08
4.29685e-09
-2.56164e-08
4.1146e-09
-2.41056e-08
3.93408e-09
-2.26959e-08
3.74907e-09
-2.17975e-08
3.56341e-09
-2.09638e-08
3.3766e-09
-2.01814e-08
3.19512e-09
-1.93437e-08
3.01409e-09
-1.89689e-08
2.83276e-09
-1.92912e-08
2.64611e-09
-1.968e-08
2.45315e-09
-2.00442e-08
2.26559e-09
-1.93983e-08
2.0844e-09
-1.86738e-08
1.91179e-09
-1.78567e-08
1.74463e-09
-1.71315e-08
1.58315e-09
-1.64135e-08
1.42967e-09
-1.5702e-08
1.28363e-09
-1.49215e-08
1.14754e-09
-1.37958e-08
1.02634e-09
-1.25234e-08
9.29555e-10
-1.04704e-08
8.46087e-10
-9.29716e-09
7.71046e-10
-8.57148e-09
7.02843e-10
-7.99982e-09
6.34856e-10
-7.8989e-09
5.62005e-10
-8.20661e-09
4.86672e-10
-8.39194e-09
4.1094e-10
-8.45044e-09
3.43686e-10
-7.76969e-09
2.84082e-10
-7.09903e-09
2.30681e-10
-6.43336e-09
1.80718e-10
-5.94718e-09
1.3669e-10
-5.22333e-09
9.98157e-11
-4.47586e-09
7.16367e-11
-3.60077e-09
4.85501e-11
-3.01527e-09
3.00361e-11
-2.40827e-09
1.65055e-11
-1.78204e-09
7.28701e-12
-1.20713e-09
-7.21197e-10
1.90522e-12
5.42054e-09
-4.02058e-08
5.9718e-09
-2.61786e-08
5.73612e-09
-2.39319e-08
5.47897e-09
-2.50197e-08
5.19271e-09
-2.62308e-08
4.92565e-09
-2.63051e-08
4.66406e-09
-2.60248e-08
4.43023e-09
-2.53156e-08
4.2009e-09
-2.38105e-08
3.9887e-09
-2.24207e-08
3.78001e-09
-2.15269e-08
3.58116e-09
-2.07035e-08
3.3853e-09
-1.99241e-08
3.19541e-09
-1.90926e-08
3.00826e-09
-1.872e-08
2.82433e-09
-1.90436e-08
2.63437e-09
-1.94257e-08
2.44024e-09
-1.97846e-08
2.24964e-09
-1.91447e-08
2.06699e-09
-1.84303e-08
1.89152e-09
-1.76227e-08
1.7223e-09
-1.69076e-08
1.55975e-09
-1.62003e-08
1.4035e-09
-1.54983e-08
1.25523e-09
-1.4729e-08
1.11804e-09
-1.36179e-08
9.95266e-10
-1.2364e-08
8.98135e-10
-1.03424e-08
8.14711e-10
-9.1859e-09
7.39307e-10
-8.46956e-09
6.71636e-10
-7.90604e-09
6.05787e-10
-7.80575e-09
5.35524e-10
-8.10644e-09
4.62561e-10
-8.28627e-09
3.90224e-10
-8.34345e-09
3.27101e-10
-7.674e-09
2.70945e-10
-7.01294e-09
2.19671e-10
-6.35474e-09
1.72362e-10
-5.87482e-09
1.31019e-10
-5.16023e-09
9.62162e-11
-4.42291e-09
6.9077e-11
-3.55944e-09
4.69288e-11
-2.9814e-09
2.90559e-11
-2.38119e-09
1.62679e-11
-1.76257e-09
7.13278e-12
-1.19364e-09
-7.13702e-10
2.17109e-12
6.02058e-09
-4.60994e-08
6.79103e-09
-2.68276e-08
6.43286e-09
-2.34547e-08
6.07194e-09
-2.45341e-08
5.73831e-09
-2.57667e-08
5.44148e-09
-2.58787e-08
5.13369e-09
-2.55894e-08
4.84529e-09
-2.49039e-08
4.56928e-09
-2.3415e-08
4.32214e-09
-2.20594e-08
4.08041e-09
-2.11737e-08
3.84987e-09
-2.03631e-08
3.62663e-09
-1.95921e-08
3.4166e-09
-1.87756e-08
3.20954e-09
-1.84051e-08
3.00264e-09
-1.87244e-08
2.79372e-09
-1.91013e-08
2.58012e-09
-1.94529e-08
2.37247e-09
-1.88239e-08
2.17073e-09
-1.81209e-08
1.98135e-09
-1.73315e-08
1.79755e-09
-1.66281e-08
1.62016e-09
-1.59333e-08
1.45275e-09
-1.5247e-08
1.2933e-09
-1.44912e-08
1.14612e-09
-1.33993e-08
1.01653e-09
-1.21691e-08
9.1283e-10
-1.01836e-08
8.23104e-10
-9.04628e-09
7.44591e-10
-8.34348e-09
6.74139e-10
-7.78908e-09
6.05616e-10
-7.68899e-09
5.33179e-10
-7.98142e-09
4.5981e-10
-8.15631e-09
3.88168e-10
-8.21288e-09
3.24972e-10
-7.55612e-09
2.69135e-10
-6.90719e-09
2.18453e-10
-6.25945e-09
1.71161e-10
-5.78652e-09
1.29789e-10
-5.08375e-09
9.51176e-11
-4.35894e-09
6.82554e-11
-3.50953e-09
4.64664e-11
-2.94059e-09
2.88466e-11
-2.34848e-09
1.63848e-11
-1.7391e-09
7.20303e-12
-1.17716e-09
-7.04686e-10
2.42492e-12
6.71394e-09
-5.26105e-08
7.84408e-09
-2.77628e-08
7.53844e-09
-2.29581e-08
7.09053e-09
-2.3885e-08
6.63866e-09
-2.51042e-08
6.20811e-09
-2.52383e-08
5.81295e-09
-2.49873e-08
5.43857e-09
-2.43264e-08
5.10914e-09
-2.28915e-08
4.8025e-09
-2.1568e-08
4.51574e-09
-2.07062e-08
4.24538e-09
-1.99146e-08
3.99028e-09
-1.9161e-08
3.74567e-09
-1.83589e-08
3.50938e-09
-1.79982e-08
3.27563e-09
-1.83155e-08
3.0403e-09
-1.86864e-08
2.79876e-09
-1.90288e-08
2.56544e-09
-1.84158e-08
2.34196e-09
-1.77316e-08
2.12825e-09
-1.69616e-08
1.92287e-09
-1.62756e-08
1.728e-09
-1.55992e-08
1.54322e-09
-1.4931e-08
1.36901e-09
-1.41943e-08
1.20831e-09
-1.31263e-08
1.0669e-09
-1.19253e-08
9.55228e-10
-9.9851e-09
8.59475e-10
-8.87181e-09
7.73397e-10
-8.18267e-09
6.97382e-10
-7.64064e-09
6.24786e-10
-7.54206e-09
5.50471e-10
-7.82707e-09
4.75369e-10
-7.99642e-09
4.00302e-10
-8.05053e-09
3.34353e-10
-7.40966e-09
2.76711e-10
-6.77635e-09
2.24983e-10
-6.1423e-09
1.77085e-10
-5.67944e-09
1.3436e-10
-4.99025e-09
9.86403e-11
-4.28071e-09
7.07434e-11
-3.44826e-09
4.81693e-11
-2.89056e-09
2.98203e-11
-2.30855e-09
1.67557e-11
-1.71032e-09
7.44158e-12
-1.15748e-09
-6.93329e-10
2.07449e-12
6.19904e-09
-5.85586e-08
7.45285e-09
-2.87746e-08
7.24123e-09
-2.25072e-08
6.83678e-09
-2.32265e-08
6.41494e-09
-2.44146e-08
5.99981e-09
-2.45537e-08
5.61215e-09
-2.4332e-08
5.24847e-09
-2.37e-08
4.92148e-09
-2.23132e-08
4.62096e-09
-2.10271e-08
4.34679e-09
-2.01975e-08
4.08868e-09
-1.94271e-08
3.84139e-09
-1.86899e-08
3.60517e-09
-1.79056e-08
3.37682e-09
-1.75539e-08
3.15631e-09
-1.7871e-08
2.93347e-09
-1.82323e-08
2.70196e-09
-1.85625e-08
2.47716e-09
-1.79672e-08
2.26377e-09
-1.73051e-08
2.05712e-09
-1.6554e-08
1.85709e-09
-1.58846e-08
1.66875e-09
-1.52282e-08
1.48954e-09
-1.45767e-08
1.3203e-09
-1.38593e-08
1.16674e-09
-1.28194e-08
1.03052e-09
-1.1648e-08
9.22474e-10
-9.75779e-09
8.30724e-10
-8.67202e-09
7.49884e-10
-8.00001e-09
6.77065e-10
-7.47056e-09
6.07171e-10
-7.37366e-09
5.34503e-10
-7.64919e-09
4.61443e-10
-7.81294e-09
3.89096e-10
-7.86524e-09
3.25585e-10
-7.24189e-09
2.69635e-10
-6.62496e-09
2.18936e-10
-6.00566e-09
1.71973e-10
-5.55405e-09
1.30429e-10
-4.88101e-09
9.57164e-11
-4.18898e-09
6.88443e-11
-3.37631e-09
4.69799e-11
-2.8316e-09
2.94605e-11
-2.26197e-09
1.64378e-11
-1.67624e-09
7.53733e-12
-1.13479e-09
-6.79565e-10
1.74592e-12
5.95118e-09
-6.4209e-08
7.2862e-09
-2.98178e-08
7.11115e-09
-2.20433e-08
6.69376e-09
-2.25018e-08
6.26361e-09
-2.36595e-08
5.84351e-09
-2.3804e-08
5.45357e-09
-2.36133e-08
5.08676e-09
-2.30105e-08
4.76437e-09
-2.16812e-08
4.47361e-09
-2.04396e-08
4.20225e-09
-1.96369e-08
3.94296e-09
-1.8885e-08
3.70178e-09
-1.81731e-08
3.47356e-09
-1.74112e-08
3.25461e-09
-1.70709e-08
3.03675e-09
-1.73812e-08
2.81537e-09
-1.77325e-08
2.58991e-09
-1.80558e-08
2.37354e-09
-1.74814e-08
2.1614e-09
-1.68355e-08
1.95978e-09
-1.61079e-08
1.76779e-09
-1.54591e-08
1.58256e-09
-1.48192e-08
1.40846e-09
-1.41876e-08
1.24854e-09
-1.34928e-08
1.10127e-09
-1.24798e-08
9.71339e-10
-1.13404e-08
8.69104e-10
-9.50533e-09
7.83974e-10
-8.45165e-09
7.08264e-10
-7.79782e-09
6.39556e-10
-7.28209e-09
5.73276e-10
-7.18711e-09
5.04295e-10
-7.45303e-09
4.33925e-10
-7.61047e-09
3.65626e-10
-7.66247e-09
3.05913e-10
-7.05805e-09
2.5279e-10
-6.45828e-09
2.04726e-10
-5.85462e-09
1.59867e-10
-5.41514e-09
1.20467e-10
-4.75962e-09
8.82047e-11
-4.087e-09
6.33703e-11
-3.29593e-09
4.33896e-11
-2.7656e-09
2.72226e-11
-2.20974e-09
1.52232e-11
-1.63817e-09
6.91427e-12
-1.1093e-09
-6.64334e-10
1.65642e-12
5.9465e-09
-6.97844e-08
7.38327e-09
-3.08953e-08
7.23293e-09
-2.15381e-08
6.77496e-09
-2.16668e-08
6.32113e-09
-2.28061e-08
5.87796e-09
-2.29554e-08
5.47507e-09
-2.28066e-08
5.09187e-09
-2.22308e-08
4.75912e-09
-2.09697e-08
4.45288e-09
-1.97713e-08
4.17646e-09
-1.90067e-08
3.91225e-09
-1.82775e-08
3.66687e-09
-1.75944e-08
3.43043e-09
-1.68531e-08
3.20469e-09
-1.6529e-08
2.98009e-09
-1.68334e-08
2.75476e-09
-1.71787e-08
2.52389e-09
-1.74902e-08
2.30295e-09
-1.69382e-08
2.08987e-09
-1.63157e-08
1.88566e-09
-1.56131e-08
1.69209e-09
-1.49879e-08
1.51154e-09
-1.43711e-08
1.33998e-09
-1.37577e-08
1.18141e-09
-1.30868e-08
1.03972e-09
-1.21053e-08
9.17822e-10
-1.10035e-08
8.21715e-10
-9.22816e-09
7.39834e-10
-8.20689e-09
6.67034e-10
-7.57323e-09
6.01616e-10
-7.07375e-09
5.38422e-10
-6.98188e-09
4.72559e-10
-7.23861e-09
4.0645e-10
-7.39115e-09
3.41134e-10
-7.44137e-09
2.84043e-10
-6.85679e-09
2.33815e-10
-6.27631e-09
1.87933e-10
-5.6902e-09
1.45654e-10
-5.2639e-09
1.08669e-10
-4.62702e-09
7.91815e-11
-3.97542e-09
5.64662e-11
-3.20731e-09
3.87919e-11
-2.69302e-09
2.43278e-11
-2.15188e-09
1.3857e-11
-1.59625e-09
6.19914e-12
-1.08084e-09
-6.47782e-10
1.85857e-12
6.03914e-09
-7.53621e-08
7.63021e-09
-3.20419e-08
7.51924e-09
-2.09871e-08
7.04491e-09
-2.07244e-08
6.55206e-09
-2.18193e-08
6.07908e-09
-2.19804e-08
5.64221e-09
-2.18716e-08
5.23637e-09
-2.13328e-08
4.8799e-09
-2.01461e-08
4.55085e-09
-1.89975e-08
4.25468e-09
-1.82791e-08
3.97332e-09
-1.7578e-08
3.70956e-09
-1.69254e-08
3.4567e-09
-1.62097e-08
3.21639e-09
-1.59067e-08
2.97813e-09
-1.62064e-08
2.74026e-09
-1.65466e-08
2.49618e-09
-1.68478e-08
2.2653e-09
-1.63249e-08
2.04533e-09
-1.5731e-08
1.83836e-09
-1.50594e-08
1.64065e-09
-1.4459e-08
1.45657e-09
-1.38697e-08
1.28905e-09
-1.32828e-08
1.13307e-09
-1.26367e-08
9.92125e-10
-1.16901e-08
8.72848e-10
-1.06301e-08
7.79166e-10
-8.92045e-09
7.00969e-10
-7.93774e-09
6.32466e-10
-7.32734e-09
5.70703e-10
-6.84574e-09
5.09763e-10
-6.75694e-09
4.46229e-10
-7.00431e-09
3.81945e-10
-7.15128e-09
3.19064e-10
-7.2012e-09
2.63248e-10
-6.638e-09
2.14538e-10
-6.07935e-09
1.70538e-10
-5.51284e-09
1.30657e-10
-5.10119e-09
9.62474e-11
-4.48487e-09
6.89963e-11
-3.85491e-09
4.90861e-11
-3.11181e-09
3.33632e-11
-2.61399e-09
2.07689e-11
-2.08891e-09
1.1802e-11
-1.55058e-09
5.22584e-12
-1.0498e-09
-6.29658e-10
1.57655e-12
5.76694e-09
-8.0586e-08
7.42571e-09
-3.31764e-08
7.3451e-09
-2.03887e-08
6.91763e-09
-1.97468e-08
6.43445e-09
-2.0754e-08
5.97764e-09
-2.09355e-08
5.53704e-09
-2.0847e-08
5.13273e-09
-2.03568e-08
4.76547e-09
-1.92359e-08
4.43945e-09
-1.81564e-08
4.13504e-09
-1.74768e-08
3.85505e-09
-1.68152e-08
3.59028e-09
-1.61947e-08
3.34286e-09
-1.55159e-08
3.10099e-09
-1.52292e-08
2.86333e-09
-1.55275e-08
2.62554e-09
-1.58611e-08
2.38287e-09
-1.61541e-08
2.15379e-09
-1.56601e-08
1.9383e-09
-1.50971e-08
1.73597e-09
-1.44589e-08
1.54579e-09
-1.38879e-08
1.36921e-09
-1.33276e-08
1.20788e-09
-1.27692e-08
1.06258e-09
-1.21533e-08
9.33408e-10
-1.12452e-08
8.20617e-10
-1.02296e-08
7.33454e-10
-8.58932e-09
6.60138e-10
-7.64529e-09
5.9436e-10
-7.05914e-09
5.35577e-10
-6.59799e-09
4.77992e-10
-6.51355e-09
4.16859e-10
-6.75132e-09
3.55694e-10
-6.89319e-09
2.95576e-10
-6.94255e-09
2.42712e-10
-6.40314e-09
1.95537e-10
-5.86706e-09
1.53427e-10
-5.32205e-09
1.15634e-10
-4.92569e-09
8.3842e-11
-4.33171e-09
5.8805e-11
-3.72456e-09
4.10275e-11
-3.00798e-09
2.71294e-11
-2.52741e-09
1.69095e-11
-2.02055e-09
8.87978e-12
-1.49983e-09
3.96058e-12
-1.016e-09
-6.09302e-10
8.23795e-13
5.20749e-09
-8.52058e-08
6.80958e-09
-3.42108e-08
6.76102e-09
-1.97771e-08
6.39998e-09
-1.8788e-08
5.96429e-09
-1.96842e-08
5.54666e-09
-1.98748e-08
5.14123e-09
-1.98019e-08
4.76778e-09
-1.93569e-08
4.42776e-09
-1.83031e-08
4.1277e-09
-1.72917e-08
3.84456e-09
-1.66485e-08
3.58637e-09
-1.60269e-08
3.33791e-09
-1.54366e-08
3.10593e-09
-1.47944e-08
2.87964e-09
-1.45239e-08
2.65686e-09
-1.48176e-08
2.4321e-09
-1.51397e-08
2.20586e-09
-1.54229e-08
1.99171e-09
-1.49569e-08
1.79281e-09
-1.44264e-08
1.60548e-09
-1.38211e-08
1.42961e-09
-1.32804e-08
1.26719e-09
-1.27484e-08
1.11938e-09
-1.22184e-08
9.84849e-10
-1.16328e-08
8.65952e-10
-1.07663e-08
7.64177e-10
-9.79783e-09
6.85233e-10
-8.2321e-09
6.17803e-10
-7.33011e-09
5.58464e-10
-6.77068e-09
5.04327e-10
-6.33024e-09
4.50881e-10
-6.24871e-09
3.94019e-10
-6.47541e-09
3.35474e-10
-6.61106e-09
2.76796e-10
-6.65985e-09
2.25129e-10
-6.14609e-09
1.79041e-10
-5.63328e-09
1.38658e-10
-5.11098e-09
1.02277e-10
-4.73074e-09
7.25813e-11
-4.16075e-09
4.92953e-11
-3.57814e-09
3.33088e-11
-2.89089e-09
2.11834e-11
-2.42912e-09
1.24651e-11
-1.94219e-09
6.12854e-12
-1.44126e-09
2.86739e-12
-9.77069e-10
-5.85296e-10
2.43718e-13
4.91677e-09
-8.94639e-08
6.46433e-09
-3.51226e-08
6.46546e-09
-1.91469e-08
6.10111e-09
-1.77522e-08
5.67974e-09
-1.85504e-08
5.26499e-09
-1.87393e-08
4.88494e-09
-1.87068e-08
4.53225e-09
-1.83038e-08
4.21424e-09
-1.73264e-08
3.92782e-09
-1.63792e-08
3.65793e-09
-1.57759e-08
3.40705e-09
-1.51904e-08
3.16732e-09
-1.46332e-08
2.94154e-09
-1.40267e-08
2.72127e-09
-1.37721e-08
2.50428e-09
-1.40577e-08
2.28488e-09
-1.43684e-08
2.06391e-09
-1.46411e-08
1.85854e-09
-1.42045e-08
1.67077e-09
-1.37067e-08
1.49707e-09
-1.31365e-08
1.33466e-09
-1.26263e-08
1.18373e-09
-1.21237e-08
1.04568e-09
-1.16237e-08
9.20165e-10
-1.10703e-08
8.08974e-10
-1.02488e-08
7.13619e-10
-9.33111e-09
6.40143e-10
-7.84599e-09
5.78644e-10
-6.9895e-09
5.24209e-10
-6.45798e-09
4.74751e-10
-6.03969e-09
4.25599e-10
-5.96236e-09
3.71148e-10
-6.17818e-09
3.13728e-10
-6.30663e-09
2.56866e-10
-6.35382e-09
2.05106e-10
-5.86613e-09
1.60891e-10
-5.37852e-09
1.21919e-10
-4.87945e-09
8.83035e-11
-4.51623e-09
6.08041e-11
-3.97148e-09
3.97778e-11
-3.41575e-09
2.54415e-11
-2.7601e-09
1.5188e-11
-2.31909e-09
8.3627e-12
-1.85404e-09
3.7984e-12
-1.37524e-09
1.69116e-12
-9.32646e-10
-5.58169e-10
1.11298e-13
4.8085e-09
-9.35072e-08
6.27631e-09
-3.58517e-08
6.2992e-09
-1.84374e-08
5.8828e-09
-1.65603e-08
5.46254e-09
-1.73136e-08
5.04053e-09
-1.7494e-08
4.68661e-09
-1.75385e-08
4.34109e-09
-1.71636e-08
4.04556e-09
-1.62858e-08
3.75749e-09
-1.53892e-08
3.50062e-09
-1.48427e-08
3.24652e-09
-1.42847e-08
3.00903e-09
-1.37673e-08
2.77678e-09
-1.31913e-08
2.55699e-09
-1.2959e-08
2.338e-09
-1.32321e-08
2.12231e-09
-1.35321e-08
1.90785e-09
-1.37912e-08
1.71306e-09
-1.33869e-08
1.53592e-09
-1.29216e-08
1.37519e-09
-1.23905e-08
1.22549e-09
-1.19139e-08
1.08733e-09
-1.14468e-08
9.60001e-10
-1.09798e-08
8.46038e-10
-1.04632e-08
7.45567e-10
-9.69035e-09
6.59301e-10
-8.82723e-09
5.91242e-10
-7.42722e-09
5.34494e-10
-6.62076e-09
4.84722e-10
-6.12051e-09
4.38976e-10
-5.72609e-09
3.93045e-10
-5.65365e-09
3.42176e-10
-5.85704e-09
2.87399e-10
-5.97834e-09
2.3287e-10
-6.02381e-09
1.82583e-10
-5.56272e-09
1.39723e-10
-5.10249e-09
1.03356e-10
-4.62825e-09
7.3464e-11
-4.28323e-09
4.96147e-11
-3.76523e-09
3.15596e-11
-3.23864e-09
1.91337e-11
-2.61704e-09
1.06575e-11
-2.19881e-09
5.31894e-12
-1.75735e-09
2.46276e-12
-1.30353e-09
8.78731e-13
-8.837e-10
-5.29061e-10
3.40658e-13
4.5222e-09
-9.71772e-08
5.77383e-09
-3.62783e-08
5.81067e-09
-1.76578e-08
5.39352e-09
-1.52836e-08
5.03309e-09
-1.60514e-08
4.64535e-09
-1.62005e-08
4.34403e-09
-1.63388e-08
4.01978e-09
-1.59653e-08
3.74609e-09
-1.519e-08
3.46383e-09
-1.43355e-08
3.21402e-09
-1.3851e-08
2.95985e-09
-1.33157e-08
2.72557e-09
-1.28427e-08
2.49767e-09
-1.22999e-08
2.28663e-09
-1.2095e-08
2.07513e-09
-1.23525e-08
1.87381e-09
-1.26438e-08
1.67524e-09
-1.2887e-08
1.50015e-09
-1.25209e-08
1.3442e-09
-1.20944e-08
1.2051e-09
-1.16082e-08
1.07356e-09
-1.11672e-08
9.50998e-10
-1.07379e-08
8.38933e-10
-1.03075e-08
7.40579e-10
-9.83016e-09
6.53443e-10
-9.10815e-09
5.79265e-10
-8.30376e-09
5.21988e-10
-6.99454e-09
4.73206e-10
-6.23938e-09
4.28866e-10
-5.77062e-09
3.88054e-10
-5.40144e-09
3.46489e-10
-5.33396e-09
3.00481e-10
-5.52529e-09
2.51181e-10
-5.64006e-09
2.00342e-10
-5.68431e-09
1.55157e-10
-5.25143e-09
1.16542e-10
-4.81909e-09
8.5055e-11
-4.37052e-09
5.95057e-11
-4.04402e-09
3.98137e-11
-3.55401e-09
2.48723e-11
-3.05766e-09
1.44057e-11
-2.47107e-09
7.5823e-12
-2.07652e-09
3.07512e-12
-1.65873e-09
1.5695e-12
-1.23107e-09
3.01598e-13
-8.33758e-10
-4.99946e-10
4.83264e-13
3.70111e-09
-1.00005e-07
4.63934e-09
-3.63697e-08
4.72485e-09
-1.69075e-08
4.44254e-09
-1.41229e-08
4.22181e-09
-1.49075e-08
3.92062e-09
-1.49748e-08
3.67951e-09
-1.51828e-08
3.40184e-09
-1.47961e-08
3.16235e-09
-1.41139e-08
2.91695e-09
-1.33027e-08
2.68933e-09
-1.28698e-08
2.46071e-09
-1.23644e-08
2.25472e-09
-1.19409e-08
2.05594e-09
-1.14334e-08
1.87116e-09
-1.12535e-08
1.6897e-09
-1.14989e-08
1.51847e-09
-1.17839e-08
1.35326e-09
-1.20164e-08
1.21074e-09
-1.16887e-08
1.08507e-09
-1.12994e-08
9.73166e-10
-1.08555e-08
8.68123e-10
-1.04512e-08
7.71385e-10
-1.00594e-08
6.8246e-10
-9.66328e-09
6.03816e-10
-9.22255e-09
5.356e-10
-8.55178e-09
4.76236e-10
-7.80294e-09
4.29689e-10
-6.57952e-09
3.90135e-10
-5.87369e-09
3.54173e-10
-5.43551e-09
3.20644e-10
-5.0905e-09
2.86571e-10
-5.0287e-09
2.48688e-10
-5.20961e-09
2.06982e-10
-5.31794e-09
1.63535e-10
-5.36122e-09
1.2615e-10
-4.95594e-09
9.31264e-11
-4.54787e-09
6.75572e-11
-4.12483e-09
4.66035e-11
-3.8168e-09
3.05766e-11
-3.35398e-09
1.90114e-11
-2.88588e-09
1.07337e-11
-2.33276e-09
5.33977e-12
-1.96111e-09
1.83098e-12
-1.56589e-09
8.25456e-13
-1.16304e-09
6.7137e-15
-7.86912e-10
-4.72699e-10
4.20122e-13
2.85829e-09
-1.01955e-07
3.58943e-09
-3.62189e-08
3.73884e-09
-1.61854e-08
3.60976e-09
-1.30781e-08
3.4794e-09
-1.38195e-08
3.2762e-09
-1.3815e-08
3.07463e-09
-1.40398e-08
2.8447e-09
-1.36537e-08
2.63108e-09
-1.30435e-08
2.41903e-09
-1.22862e-08
2.21892e-09
-1.1899e-08
2.02496e-09
-1.14342e-08
1.84322e-09
-1.10533e-08
1.67452e-09
-1.05896e-08
1.51802e-09
-1.04348e-08
1.36776e-09
-1.06718e-08
1.22538e-09
-1.0949e-08
1.09093e-09
-1.11732e-08
9.76615e-10
-1.08812e-08
8.77485e-10
-1.05277e-08
7.89185e-10
-1.01237e-08
7.07221e-10
-9.75603e-09
6.29369e-10
-9.39854e-09
5.58195e-10
-9.03684e-09
4.95561e-10
-8.63202e-09
4.41311e-10
-8.0109e-09
3.93785e-10
-7.31555e-09
3.56786e-10
-6.17509e-09
3.24847e-10
-5.51706e-09
2.95831e-10
-5.1092e-09
2.68262e-10
-4.78771e-09
2.39598e-10
-4.7315e-09
2.07407e-10
-4.90295e-09
1.72326e-10
-5.00614e-09
1.34974e-10
-5.04841e-09
1.0251e-10
-4.66955e-09
7.65629e-11
-4.28743e-09
5.51921e-11
-3.88842e-09
3.77599e-11
-3.5976e-09
2.48714e-11
-3.16138e-09
1.52392e-11
-2.72033e-09
8.66466e-12
-2.19975e-09
4.13489e-12
-1.84999e-09
1.24349e-12
-1.47702e-09
1.89034e-13
-1.09785e-09
-1.45979e-13
-7.42509e-10
-4.46609e-10
2.08374e-13
2.05545e-09
-1.03058e-07
2.61966e-09
-3.58602e-08
2.78584e-09
-1.54383e-08
2.83324e-09
-1.21661e-08
2.7469e-09
-1.27315e-08
2.63955e-09
-1.27084e-08
2.47338e-09
-1.28896e-08
2.30458e-09
-1.25331e-08
2.11972e-09
-1.19667e-08
1.95271e-09
-1.1282e-08
1.78591e-09
-1.09307e-08
1.63245e-09
-1.05138e-08
1.48477e-09
-1.01717e-08
1.35009e-09
-9.7543e-09
1.22166e-09
-9.61981e-09
1.10227e-09
-9.8511e-09
9.87985e-10
-1.0117e-08
8.84233e-10
-1.03338e-08
7.9454e-10
-1.00723e-08
7.18278e-10
-9.7554e-09
6.49069e-10
-9.38961e-09
5.84235e-10
-9.05658e-09
5.22628e-10
-8.73275e-09
4.6572e-10
-8.40445e-09
4.15601e-10
-8.03567e-09
3.70995e-10
-7.46338e-09
3.32622e-10
-6.82244e-09
3.03487e-10
-5.76586e-09
2.77768e-10
-5.15543e-09
2.53349e-10
-4.77722e-09
2.30639e-10
-4.48034e-09
2.06927e-10
-4.43014e-09
1.78805e-10
-4.59105e-09
1.48479e-10
-4.68929e-09
1.1634e-10
-4.73063e-09
8.90065e-11
-4.37823e-09
6.71323e-11
-4.02151e-09
4.75412e-11
-3.64791e-09
3.22974e-11
-3.3752e-09
2.16721e-11
-2.96674e-09
1.3072e-11
-2.55322e-09
7.60993e-12
-2.06548e-09
3.05367e-12
-1.73721e-09
6.42947e-13
-1.38768e-09
-5.96095e-13
-1.03124e-09
-3.22299e-13
-6.98028e-10
-4.19813e-10
-2.69498e-13
1.23682e-09
-1.03338e-07
1.5895e-09
-3.52872e-08
1.74796e-09
-1.46785e-08
1.94239e-09
-1.13927e-08
1.91136e-09
-1.1689e-08
1.90794e-09
-1.16908e-08
1.79463e-09
-1.17763e-08
1.7035e-09
-1.14716e-08
1.57117e-09
-1.09242e-08
1.46235e-09
-1.03184e-08
1.3414e-09
-9.98974e-09
1.2372e-09
-9.62311e-09
1.1288e-09
-9.30931e-09
1.03406e-09
-8.93845e-09
9.39701e-10
-8.81812e-09
8.55119e-10
-9.04348e-09
7.70441e-10
-9.29161e-09
6.95773e-10
-9.49938e-09
6.31238e-10
-9.26573e-09
5.76253e-10
-8.98329e-09
5.24137e-10
-8.65253e-09
4.7615e-10
-8.35323e-09
4.28682e-10
-8.05924e-09
3.84679e-10
-7.76258e-09
3.44908e-10
-7.4274e-09
3.09762e-10
-6.90383e-09
2.7917e-10
-6.31663e-09
2.55866e-10
-5.34434e-09
2.35697e-10
-4.78241e-09
2.1715e-10
-4.43477e-09
1.98538e-10
-4.16111e-09
1.78683e-10
-4.1162e-09
1.55165e-10
-4.26617e-09
1.29311e-10
-4.35845e-09
1.01933e-10
-4.398e-09
7.89109e-11
-4.07303e-09
5.91156e-11
-3.7421e-09
4.30638e-11
-3.39572e-09
2.9603e-11
-3.14125e-09
2.0502e-11
-2.76198e-09
1.25055e-11
-2.37673e-09
7.55216e-12
-1.92415e-09
2.50089e-12
-1.61767e-09
2.14353e-13
-1.29325e-09
-1.30123e-12
-9.60187e-10
-5.12785e-13
-6.50987e-10
-3.90658e-10
-8.32981e-13
5.89911e-10
-1.03012e-07
7.28535e-10
-3.45388e-08
8.50984e-10
-1.3918e-08
1.08813e-09
-1.06958e-08
1.1188e-09
-1.07423e-08
1.18951e-09
-1.07782e-08
1.14146e-09
-1.07546e-08
1.1183e-09
-1.05012e-08
1.0436e-09
-9.95734e-09
9.91308e-10
-9.42466e-09
9.20669e-10
-9.10946e-09
8.64746e-10
-8.78885e-09
7.98764e-10
-8.49572e-09
7.41485e-10
-8.16581e-09
6.80553e-10
-8.05487e-09
6.27273e-10
-8.27076e-09
5.71451e-10
-8.49811e-09
5.23099e-10
-8.69497e-09
4.79664e-10
-8.48381e-09
4.4317e-10
-8.2318e-09
4.07221e-10
-7.93176e-09
3.73136e-10
-7.66235e-09
3.37955e-10
-7.39495e-09
3.05293e-10
-7.12724e-09
2.74834e-10
-6.82189e-09
2.48477e-10
-6.34464e-09
2.25024e-10
-5.80827e-09
2.07741e-10
-4.91892e-09
1.92473e-10
-4.40405e-09
1.78499e-10
-4.08633e-09
1.64614e-10
-3.83572e-09
1.49448e-10
-3.79533e-09
1.30702e-10
-3.93316e-09
1.1005e-10
-4.01861e-09
8.78145e-11
-4.05496e-09
6.91377e-11
-3.75741e-09
5.23369e-11
-3.45242e-09
3.89547e-11
-3.13366e-09
2.74767e-11
-2.89746e-09
1.99149e-11
-2.54817e-09
1.26895e-11
-2.19218e-09
7.83559e-12
-1.7761e-09
2.7084e-12
-1.49203e-09
2.50709e-13
-1.19404e-09
-1.57568e-12
-8.8475e-10
-5.0236e-13
-6.01364e-10
-3.59415e-10
-1.14581e-12
1.89821e-10
-1.02341e-07
1.28572e-10
-3.36426e-08
2.05888e-10
-1.31625e-08
4.36808e-10
-1.00441e-08
5.25776e-10
-9.90115e-09
6.24308e-10
-9.93854e-09
6.34242e-10
-9.83279e-09
6.51803e-10
-9.60895e-09
6.3164e-10
-9.07819e-09
6.1802e-10
-8.59967e-09
5.89665e-10
-8.29939e-09
5.66435e-10
-8.01196e-09
5.34986e-10
-7.73799e-09
5.0732e-10
-7.44221e-09
4.73686e-10
-7.33754e-09
4.44024e-10
-7.54005e-09
4.10964e-10
-7.74542e-09
3.81757e-10
-7.92843e-09
3.54923e-10
-7.736e-09
3.32485e-10
-7.50914e-09
3.09102e-10
-7.2351e-09
2.85627e-10
-6.99089e-09
2.60294e-10
-6.74707e-09
2.35253e-10
-6.50457e-09
2.12384e-10
-6.22715e-09
1.92645e-10
-5.79283e-09
1.75289e-10
-5.3044e-09
1.62901e-10
-4.49529e-09
1.51903e-10
-4.02573e-09
1.41968e-10
-3.73669e-09
1.32039e-10
-3.50821e-09
1.20972e-10
-3.47146e-09
1.06648e-10
-3.59613e-09
9.11392e-11
-3.67399e-09
7.42316e-11
-3.70622e-09
5.98899e-11
-3.43543e-09
4.63386e-11
-3.15584e-09
3.57929e-11
-2.86459e-09
2.63354e-11
-2.64679e-09
2.02103e-11
-2.3282e-09
1.34599e-11
-2.00168e-09
8.57617e-12
-1.6229e-09
3.64649e-12
-1.36195e-09
9.40091e-13
-1.09088e-09
-1.08285e-12
-8.06718e-10
-4.13248e-13
-5.49533e-10
-3.27112e-10
-8.72053e-13
-6.77321e-11
-1.01393e-07
-3.20583e-10
-3.25367e-08
-2.16346e-10
-1.24152e-08
8.59639e-12
-9.36584e-09
1.25144e-10
-9.06712e-09
2.48003e-10
-9.10113e-09
2.91343e-10
-8.92166e-09
3.39766e-10
-8.72588e-09
3.52694e-10
-8.21207e-09
3.67184e-10
-7.78419e-09
3.66571e-10
-7.50075e-09
3.64449e-10
-7.24136e-09
3.56688e-10
-6.98903e-09
3.47126e-10
-6.72158e-09
3.32692e-10
-6.62496e-09
3.18629e-10
-6.81164e-09
3.01031e-10
-6.99589e-09
2.84111e-10
-7.16289e-09
2.68386e-10
-6.98816e-09
2.54446e-10
-6.78375e-09
2.38821e-10
-6.53491e-09
2.2156e-10
-6.3152e-09
2.01689e-10
-6.09498e-09
1.81492e-10
-5.87725e-09
1.62584e-10
-5.62662e-09
1.4691e-10
-5.23478e-09
1.33894e-10
-4.79408e-09
1.24677e-10
-4.06487e-09
1.16803e-10
-3.641e-09
1.10197e-10
-3.38077e-09
1.03457e-10
-3.17413e-09
9.62006e-11
-3.14111e-09
8.61552e-11
-3.2522e-09
7.52281e-11
-3.32238e-09
6.24487e-11
-3.34998e-09
5.17891e-11
-3.10628e-09
4.16274e-11
-2.85261e-09
3.3408e-11
-2.58935e-09
2.58083e-11
-2.39099e-09
2.05702e-11
-2.1033e-09
1.48711e-11
-1.80711e-09
1.02137e-11
-1.46615e-09
5.37682e-12
-1.22943e-09
2.34539e-12
-9.85033e-10
3.69556e-13
-7.27761e-10
6.38133e-14
-4.96108e-10
-2.94902e-10
-7.0342e-14
-2.30768e-10
-1.00182e-07
-6.08302e-10
-3.12119e-08
-4.94052e-10
-1.15862e-08
-3.2654e-10
-8.53583e-09
-1.87107e-10
-8.15536e-09
-5.07986e-11
-8.17942e-09
1.44635e-11
-7.93784e-09
9.87106e-11
-7.79219e-09
1.32755e-10
-7.28709e-09
1.76599e-10
-6.92422e-09
1.95216e-10
-6.65254e-09
2.15774e-10
-6.43112e-09
2.2139e-10
-6.19649e-09
2.28969e-10
-5.96498e-09
2.27342e-10
-5.87483e-09
2.25711e-10
-6.04645e-09
2.18618e-10
-6.208e-09
2.12056e-10
-6.36004e-09
2.03812e-10
-6.20374e-09
1.96519e-10
-6.02486e-09
1.86057e-10
-5.80382e-09
1.72637e-10
-5.61111e-09
1.55488e-10
-5.41627e-09
1.38185e-10
-5.22507e-09
1.21847e-10
-5.00297e-09
1.09213e-10
-4.65622e-09
9.87694e-11
-4.2651e-09
9.20852e-11
-3.61897e-09
8.69273e-11
-3.2428e-09
8.2828e-11
-3.01234e-09
7.90239e-11
-2.82901e-09
7.46947e-11
-2.80014e-09
6.8571e-11
-2.89865e-09
6.11715e-11
-2.9613e-09
5.24603e-11
-2.98575e-09
4.48425e-11
-2.77011e-09
3.75021e-11
-2.54402e-09
3.16223e-11
-2.30998e-09
2.59201e-11
-2.13221e-09
2.15699e-11
-1.87618e-09
1.64077e-11
-1.61153e-09
1.19809e-11
-1.3085e-09
7.42606e-12
-1.09691e-09
4.08587e-12
-8.79112e-10
2.19977e-12
-6.49547e-10
7.23795e-13
-4.4243e-10
-2.63565e-10
7.61682e-13
-2.97395e-10
-9.86987e-08
-7.18429e-10
-2.96471e-08
-7.17809e-10
-1.0452e-08
-6.03289e-10
-7.45311e-09
-4.63553e-10
-7.03951e-09
-3.31201e-10
-7.05217e-09
-2.2671e-10
-6.79826e-09
-1.27969e-10
-6.68227e-09
-6.06209e-11
-6.21884e-09
7.75205e-12
-5.92512e-09
4.74574e-11
-5.6697e-09
8.9429e-11
-5.49701e-09
1.10878e-10
-5.28431e-09
1.32721e-10
-5.09568e-09
1.43707e-10
-5.01358e-09
1.53685e-10
-5.16873e-09
1.57231e-10
-5.30537e-09
1.61212e-10
-5.44108e-09
1.60182e-10
-5.30779e-09
1.58313e-10
-5.16013e-09
1.50476e-10
-4.9729e-09
1.38928e-10
-4.81242e-09
1.23041e-10
-4.64848e-09
1.06973e-10
-4.4889e-09
9.17974e-11
-4.30089e-09
7.99906e-11
-4.00613e-09
7.15151e-11
-3.67261e-09
6.69514e-11
-3.12034e-09
6.41867e-11
-2.79849e-09
6.24595e-11
-2.60167e-09
6.13017e-11
-2.4451e-09
5.99289e-11
-2.42154e-09
5.72836e-11
-2.50727e-09
5.33841e-11
-2.56279e-09
4.80063e-11
-2.58506e-09
4.28317e-11
-2.40119e-09
3.76089e-11
-2.20674e-09
3.30936e-11
-2.00563e-09
2.86324e-11
-1.85146e-09
2.4459e-11
-1.63095e-09
1.92233e-11
-1.4012e-09
1.47019e-11
-1.13937e-09
9.94567e-12
-9.55272e-10
6.00435e-12
-7.66302e-10
3.59659e-12
-5.66556e-10
1.35001e-12
-3.85752e-10
-2.30347e-10
8.31202e-13
-2.94634e-10
-9.71553e-08
-6.35994e-10
-2.80993e-08
-7.58699e-10
-9.13228e-09
-6.9323e-10
-6.25409e-09
-6.05253e-10
-5.7976e-09
-4.8697e-10
-5.83415e-09
-3.91921e-10
-5.57106e-09
-2.88344e-10
-5.49881e-09
-2.12185e-10
-5.08438e-09
-1.37954e-10
-4.85911e-09
-8.23573e-11
-4.63232e-09
-3.18995e-11
-4.50077e-09
9.87964e-13
-4.31602e-09
3.33541e-11
-4.17044e-09
5.41299e-11
-4.0969e-09
7.38819e-11
-4.2326e-09
8.66342e-11
-4.33977e-09
9.87764e-11
-4.45715e-09
1.04758e-10
-4.3475e-09
1.07837e-10
-4.23271e-09
1.03461e-10
-4.08114e-09
9.47058e-11
-3.95455e-09
8.15543e-11
-3.82254e-09
6.75655e-11
-3.6956e-09
5.4604e-11
-3.54431e-09
4.4061e-11
-3.3049e-09
3.76659e-11
-3.03324e-09
3.53525e-11
-2.58089e-09
3.47699e-11
-2.31663e-09
3.60663e-11
-2.15622e-09
3.83672e-11
-2.0281e-09
4.0719e-11
-2.00988e-09
4.18823e-11
-2.08147e-09
4.19553e-11
-2.12896e-09
4.0543e-11
-2.14883e-09
3.83394e-11
-1.99893e-09
3.57542e-11
-1.83849e-09
3.33541e-11
-1.67301e-09
2.99163e-11
-1.54492e-09
2.62301e-11
-1.36318e-09
2.12463e-11
-1.17166e-09
1.68042e-11
-9.54692e-10
1.16185e-11
-8.00482e-10
7.48624e-12
-6.4337e-10
4.14196e-12
-4.75374e-10
2.04307e-12
-3.24402e-10
-1.93462e-10
3.99471e-13
-2.1138e-10
-9.57963e-08
-4.70556e-10
-2.6727e-08
-6.33061e-10
-7.86069e-09
-6.12365e-10
-5.10078e-09
-5.74538e-10
-4.5986e-09
-4.87016e-10
-4.67503e-09
-4.20286e-10
-4.40013e-09
-3.34368e-10
-4.37453e-09
-2.70897e-10
-4.00449e-09
-2.03953e-10
-3.84482e-09
-1.53124e-10
-3.6427e-09
-1.03915e-10
-3.54979e-09
-6.83012e-11
-3.39071e-09
-3.64896e-11
-3.2831e-09
-1.35305e-11
-3.21807e-09
9.63107e-12
-3.331e-09
2.70403e-11
-3.4095e-09
4.20172e-11
-3.50686e-09
4.97425e-11
-3.41801e-09
5.37071e-11
-3.33288e-09
5.12314e-11
-3.21344e-09
4.47659e-11
-3.11739e-09
3.48469e-11
-3.01447e-09
2.40113e-11
-2.91786e-09
1.36165e-11
-2.80008e-09
5.5636e-12
-2.61296e-09
7.37802e-13
-2.39973e-09
5.8839e-13
-2.0444e-09
3.06121e-12
-1.83656e-09
6.63536e-12
-1.7101e-09
1.12501e-11
-1.60907e-09
1.6443e-11
-1.59563e-09
2.11639e-11
-1.65258e-09
2.49964e-11
-1.69134e-09
2.72156e-11
-1.70788e-09
2.84393e-11
-1.59123e-09
2.87238e-11
-1.46403e-09
2.8652e-11
-1.33395e-09
2.68505e-11
-1.23193e-09
2.42729e-11
-1.08907e-09
2.01338e-11
-9.36202e-10
1.63816e-11
-7.65009e-10
1.15652e-11
-6.40856e-10
8.03188e-12
-5.16744e-10
4.11775e-12
-3.80887e-10
2.26407e-12
-2.61438e-10
-1.54975e-10
7.56613e-15
-1.29286e-10
-9.45946e-08
-3.46359e-10
-2.54699e-08
-4.9677e-10
-6.67369e-09
-5.08804e-10
-3.99052e-09
-4.93531e-10
-3.45585e-09
-4.37106e-10
-3.56226e-09
-3.87365e-10
-3.28723e-09
-3.25747e-10
-3.29919e-09
-2.7297e-10
-2.98251e-09
-2.20996e-10
-2.87989e-09
-1.7574e-10
-2.70878e-09
-1.34434e-10
-2.64904e-09
-1.00785e-10
-2.51836e-09
-7.19143e-11
-2.44477e-09
-4.86302e-11
-2.38958e-09
-2.62038e-11
-2.47979e-09
-8.6423e-12
-2.53301e-09
5.22729e-12
-2.61046e-09
1.31171e-11
-2.54201e-09
1.62721e-11
-2.48394e-09
1.4423e-11
-2.39478e-09
8.98388e-12
-2.32732e-09
8.38184e-13
-2.25191e-09
-7.83698e-12
-2.18307e-09
-1.62878e-11
-2.09662e-09
-2.27302e-11
-1.95834e-09
-2.48686e-11
-1.80012e-09
-2.40375e-11
-1.53474e-09
-2.09113e-11
-1.37956e-09
-1.65752e-11
-1.28527e-09
-1.05957e-11
-1.21044e-09
-4.05158e-12
-1.20077e-09
2.7739e-12
-1.24395e-09
9.25528e-12
-1.27456e-09
1.46701e-11
-1.28814e-09
1.8692e-11
-1.20265e-09
2.10866e-11
-1.10723e-09
2.23289e-11
-1.01072e-09
2.18422e-11
-9.33581e-10
2.03491e-11
-8.27422e-10
1.74987e-11
-7.11304e-10