/*--------------------------------*- C++ -*----------------------------------*\
| =========                 |                                                 |
| \\      /  F ield         | OpenFOAM: The Open Source CFD Toolbox           |
|  \\    /   O peration     | Version:  2212                                  |
|   \\  /    A nd           | Website:  www.openfoam.com                      |
|    \\/     M anipulation  |                                                 |
\*---------------------------------------------------------------------------*/
FoamFile
{
    version     2.0;
    format      ascii;
    arch        "LSB;label=32;scalar=64";
    class       volScalarField;
    location    "0.0665";
    object      nut;
}
// * * * * * * * * * * * * * * * * * * * * * * * * * * * * * * * * * * * * * //

dimensions      [0 2 -1 0 0 0 0];

internalField   nonuniform List<scalar> 
2308
(
0.0731759
0.313483
0.193795
0.102086
0.122212
0.104393
0.100984
0.103768
0.125822
0.0943101
0.0944307
0.0952912
0.0960378
0.096978
0.0980196
0.0991298
0.100287
0.102191
0.100799
0.0995182
0.0983077
0.0971542
0.0960856
0.0951201
0.0945322
0.0943348
0.0943237
0.0944963
0.106546
0.101505
0.0951407
0.096798
0.100527
0.108109
0.121059
0.135142
0.149149
0.159013
0.159052
0.157298
0.155358
0.153062
0.151019
0.149397
0.148118
0.146122
0.147661
0.149311
0.150739
0.151914
0.152576
0.150091
0.142821
0.134383
0.128317
0.121979
0.113531
0.104634
0.0989607
0.0961365
0.0948659
0.0943524
0.0939411
0.0938833
0.0941002
0.0945323
0.0951775
0.0960253
0.0970065
0.0980856
0.0992577
0.147084
0.144755
0.0989262
0.0976692
0.0965199
0.0954686
0.0945381
0.093832
0.0934562
0.0934177
0.0936265
0.0940647
0.0952067
0.0980146
0.103652
0.111927
0.11907
0.123337
0.128255
0.136172
0.144286
0.148604
0.148574
0.147573
0.146281
0.144761
0.143327
0.103547
0.142055
0.102772
0.100557
0.137047
0.138409
0.13948
0.140235
0.140417
0.137192
0.12961
0.122459
0.117419
0.114985
0.114085
0.11404
0.114193
0.111281
0.104847
0.0991664
0.0959126
0.0943797
0.0935812
0.0929975
0.0928483
0.0929731
0.0933481
0.0939696
0.0948063
0.0957921
0.096923
0.0961084
0.0951386
0.102453
0.0998024
0.0969358
0.0955015
0.094242
0.0932007
0.0923509
0.0917247
0.091494
0.0915669
0.0918276
0.0925386
0.0940231
0.0973038
0.102882
0.108084
0.109515
0.108941
0.108474
0.108756
0.110461
0.11475
0.121667
0.130053
0.134983
0.135429
0.134886
0.133988
0.132775
0.131648
0.140991
0.146132
0.143617
0.112177
0.135793
0.0871549
0.0715881
0.1021
0.11601
0.119536
0.105135
0.0982276
0.130755
0.140059
0.145142
0.142636
0.134814
0.126103
0.126955
0.127626
0.128026
0.127788
0.124254
0.116601
0.109424
0.104551
0.10226
0.101558
0.101888
0.102899
0.104414
0.106184
0.107628
0.107677
0.104017
0.0988207
0.0950984
0.0929879
0.0918466
0.0912189
0.0907803
0.0906174
0.0907267
0.0911939
0.0919147
0.0928896
0.0987428
0.136113
0.117026
0.0941181
0.0938207
0.0934922
0.0929303
0.0922407
0.091528
0.0908399
0.0898513
0.0889433
0.0882896
0.0879179
0.0879338
0.0882353
0.0887642
0.0898175
0.0919505
0.0957243
0.10075
0.103481
0.102621
0.100839
0.0988942
0.0972524
0.0961053
0.095565
0.0959306
0.0977391
0.102013
0.10885
0.117137
0.122124
0.122833
0.122685
0.122176
0.121423
0.231641
0.0994165
0.0766964
0.139113
0.0871416
0.0795455
0.099842
0.103636
0.119033
0.119071
0.118747
0.115777
0.108301
0.100948
0.0958525
0.0931771
0.091965
0.0916776
0.0919986
0.0927038
0.0937712
0.0952381
0.0969715
0.0989542
0.100794
0.101951
0.10074
0.0968983
0.0928214
0.0899935
0.0883575
0.0874707
0.0869264
0.0865903
0.0864289
0.0866221
0.0872478
0.0940764
0.126875
0.0634325
0.0837378
0.0837192
0.0838759
0.0838827
0.0836923
0.0834159
0.0830946
0.0826756
0.0823546
0.0823648
0.0826937
0.0833041
0.0842379
0.0858861
0.0887976
0.0929701
0.0963614
0.0967707
0.0953002
0.0933331
0.0914016
0.0897282
0.0883227
0.0873237
0.0866761
0.0863761
0.0865832
0.0876027
0.0898885
0.0944581
0.101623
0.109813
0.114097
0.114675
0.114683
0.11449
0.120791
0.130101
0.139251
0.144105
0.141787
0.134153
0.125456
0.118801
0.0799391
0.198085
0.168708
0.0898725
0.0837313
0.131071
0.088269
0.0955573
0.123459
0.101805
0.122277
0.116755
0.0716622
0.0723125
0.0730484
0.0736836
0.0741054
0.0744025
0.0746599
0.0749474
0.0754613
0.0762144
0.0772281
0.0787437
0.0812258
0.0847782
0.0883611
0.0900225
0.0893524
0.0879387
0.0864356
0.0851213
0.0838818
0.0828323
0.0821514
0.0818328
0.081825
0.082043
0.0824703
0.0831803
0.08428
0.0860505
0.0889969
0.0941503
0.101742
0.10938
0.112112
0.112474
0.112688
0.114233
0.120473
0.12973
0.138579
0.143139
0.141055
0.133737
0.125142
0.118557
0.116296
0.116017
0.115789
0.113754
0.106709
0.0991115
0.0937777
0.0905813
0.0886957
0.0875862
0.0869574
0.0866465
0.0865627
0.0867088
0.0871667
0.0880319
0.089209
0.0905068
0.0918849
0.0934012
0.0946761
0.0948635
0.0926966
0.0889174
0.0856265
0.0833728
0.0820797
0.0813229
0.0806709
0.0802333
0.0801925
0.134991
0.0895491
0.0975075
0.0998007
0.11594
0.089933
0.0794888
0.0723393
0.0675292
0.0711687
0.0657045
0.0655145
0.0656008
0.0658834
0.066303
0.0667466
0.067247
0.0679133
0.0687777
0.0698821
0.0714005
0.0736716
0.0769103
0.0805607
0.0829989
0.0832688
0.0826497
0.0818655
0.0811666
0.0805038
0.080009
0.0797972
0.0798227
0.080097
0.0806174
0.0813577
0.0823168
0.083459
0.0846963
0.086034
0.0875288
0.0892928
0.0916733
0.095233
0.101018
0.10893
0.115795
0.117665
0.117951
0.112907
0.114187
0.120407
0.129464
0.137999
0.142333
0.14043
0.133417
0.125054
0.118608
0.116656
0.120343
0.119687
0.11814
0.11193
0.104137
0.0983238
0.0946194
0.0922417
0.090568
0.0892475
0.0881031
0.0870687
0.086133
0.0853452
0.0847794
0.0844589
0.0843941
0.0845694
0.0849862
0.0855876
0.0862432
0.0869161
0.0876412
0.0880582
0.0871542
0.0843994
0.0808167
0.0779914
0.0761071
0.0749623
0.0740109
0.0734393
0.080657
0.134826
0.140013
0.110771
0.0815733
0.0642662
0.0666665
0.0713861
0.0994204
0.10166
0.104994
0.091345
0.104965
0.079254
0.118548
0.11322
0.114335
0.120376
0.129233
0.137489
0.141662
0.139874
0.133151
0.124999
0.118836
0.11709
0.12106
0.129597
0.127991
0.122838
0.114055
0.107602
0.103498
0.100858
0.0990029
0.0975433
0.0961902
0.0948251
0.0933981
0.0919285
0.0905402
0.0892911
0.0880893
0.0869666
0.0859662
0.0851067
0.0844255
0.0839443
0.0836817
0.0835652
0.0834537
0.0833119
0.0831817
0.0827063
0.0809315
0.0777861
0.0745483
0.0720609
0.0704443
0.0692535
0.0732148
0.114871
0.131634
0.154289
0.090467
0.0623651
0.0620837
0.0620308
0.0622138
0.0626418
0.0633578
0.0644043
0.0658315
0.0679005
0.070829
0.0742839
0.0771269
0.0782864
0.0784871
0.0785277
0.0786006
0.0786658
0.0788858
0.079381
0.080108
0.0810653
0.0822066
0.0834925
0.0848964
0.0863917
0.0879248
0.0895772
0.0913201
0.0930722
0.0947389
0.0963738
0.0980751
0.100039
0.102721
0.10678
0.113082
0.121863
0.12794
0.130023
0.142026
0.142838
0.249983
0.0933618
0.0921734
0.0830212
0.142035
0.135501
0.124339
0.117236
0.113066
0.110497
0.108751
0.107445
0.106355
0.105301
0.104135
0.102831
0.101474
0.100147
0.0987278
0.0972009
0.0955861
0.0939193
0.0922512
0.0906331
0.0891269
0.0877845
0.0866223
0.0856679
0.0848792
0.0841123
0.0833227
0.0825553
0.0814692
0.0794747
0.0765019
0.0736223
0.0715027
0.0685908
0.107738
0.125427
0.130491
0.119258
0.113683
0.114528
0.120377
0.129058
0.13703
0.141054
0.139369
0.132959
0.125019
0.119068
0.117581
0.12171
0.129963
0.142454
0.110006
0.0721269
0.0665126
0.0643178
0.0645812
0.112355
0.0985177
0.2512
0.132306
0.0653989
0.064455
0.0639166
0.0638875
0.0643509
0.065316
0.0669482
0.0693675
0.0723843
0.0751181
0.0766969
0.0775308
0.0783524
0.0791836
0.0800075
0.0810005
0.0822628
0.0837636
0.0854962
0.0873927
0.0894061
0.0914734
0.0935448
0.0955807
0.097542
0.0993829
0.101092
0.102767
0.104427
0.105972
0.107374
0.108703
0.110165
0.111955
0.114379
0.118219
0.124832
0.135654
0.143871
0.146085
0.246861
0.0735115
0.0960019
0.140155
0.142066
0.148748
0.110765
0.246326
0.201243
0.107293
0.0850059
0.0699375
0.11191
0.0889753
0.141822
0.218873
0.159363
0.156935
0.147715
0.136589
0.129238
0.124239
0.120959
0.118894
0.117634
0.116841
0.116269
0.115726
0.115151
0.114594
0.11397
0.113123
0.111991
0.110566
0.108877
0.106968
0.104897
0.102746
0.100585
0.0985049
0.096589
0.0948612
0.0933502
0.0921222
0.0911175
0.0899341
0.0889061
0.0877745
0.0861438
0.0838685
0.0819987
0.102207
0.0687461
0.0758612
0.145481
0.130722
0.119812
0.114131
0.114791
0.120486
0.128964
0.136623
0.140491
0.138943
0.132911
0.125156
0.119356
0.118
0.122068
0.129858
0.14152
0.158151
0.107217
0.0670516
0.065283
0.0665601
0.0705851
0.0790274
0.088305
0.146247
0.0851093
0.0812153
0.0785409
0.0769372
0.0763311
0.0766659
0.0779928
0.0799289
0.0816713
0.0827376
0.0837025
0.0848591
0.0861482
0.0875703
0.0892542
0.0912075
0.0934109
0.0958565
0.0984425
0.101114
0.103778
0.106361
0.108791
0.111004
0.112954
0.114603
0.115925
0.116951
0.117808
0.118658
0.119476
0.120215
0.121062
0.122234
0.124024
0.126823
0.131167
0.137893
0.148157
0.159579
0.164366
0.16392
0.102684
0.0683101
0.0869316
0.105983
0.119732
0.134259
0.0745584
0.136158
0.150738
0.152274
0.177016
0.0724402
0.128488
0.103891
0.10604
0.0957705
0.250537
0.247144
0.105969
0.106197
0.106461
0.107187
0.108113
0.109181
0.110473
0.112129
0.114042
0.116271
0.118691
0.121144
0.123513
0.125667
0.127499
0.12892
0.129883
0.130368
0.130401
0.13004
0.129388
0.128619
0.127977
0.127658
0.127706
0.128218
0.129414
0.131572
0.135048
0.140353
0.147664
0.157076
0.168691
0.17795
0.181113
0.180365
0.242875
0.161773
0.143949
0.130122
0.120065
0.114569
0.115183
0.120778
0.12898
0.136307
0.14003
0.138655
0.133019
0.125515
0.119772
0.118292
0.121827
0.128694
0.139562
0.155677
0.177635
0.0941468
0.0688234
0.0940898
0.245674
0.250756
0.253128
0.253787
0.252424
0.24897
0.245122
0.241211
0.171228
0.237006
0.0719453
0.0936706
0.076816
0.0948522
0.108696
0.124697
0.0761065
0.0937201
0.225979
0.0673651
0.0698373
0.0755948
0.0849012
0.098427
0.0965107
0.185883
0.120501
0.114867
0.110368
0.106913
0.104985
0.104095
0.103579
0.103254
0.103153
0.103472
0.104321
0.105349
0.106838
0.108746
0.110995
0.113543
0.116337
0.119286
0.122282
0.125154
0.127828
0.130183
0.132129
0.133611
0.134587
0.135059
0.135073
0.134705
0.13409
0.133459
0.133096
0.133053
0.133346
0.134197
0.135863
0.138656
0.14308
0.149583
0.158443
0.1698
0.180814
0.186239
0.186523
0.184232
0.0756008
0.0706345
0.0689898
0.139374
0.0733724
0.0685707
0.185815
0.076319
0.223726
0.158732
0.151635
0.148151
0.0752665
0.0963607
0.0839832
0.243267
0.084459
0.16491
0.228867
0.161267
0.0863995
0.0803736
0.232825
0.236548
0.239843
0.138297
0.138098
0.138835
0.140193
0.141717
0.143347
0.145019
0.147056
0.149104
0.15123
0.153136
0.154643
0.15552
0.155698
0.155154
0.153929
0.152147
0.149952
0.147521
0.145046
0.142737
0.14085
0.139679
0.139434
0.140153
0.141891
0.144819
0.149171
0.155317
0.163677
0.17368
0.184727
0.195986
0.204211
0.207207
0.206768
0.204191
0.1325
0.111387
0.0959068
0.0839632
0.0764046
0.0720856
0.136317
0.0873623
0.0788509
0.0840547
0.0701086
0.237008
0.238603
0.0865333
0.112355
0.106402
0.157173
0.171389
0.107084
0.0849863
0.247873
0.234936
0.240522
0.0710077
0.180668
0.158508
0.141331
0.128404
0.119582
0.114816
0.115663
0.121204
0.129129
0.136194
0.139751
0.138591
0.13324
0.125964
0.120121
0.118221
0.120738
0.126537
0.136741
0.152385
0.174054
0.200689
0.251952
0.254709
0.256222
0.256541
0.25523
0.242538
0.199197
0.0672441
0.0843202
0.0697355
0.0871505
0.19031
0.21929
0.231229
0.163186
0.130987
0.0804759
0.141178
0.216645
0.0693547
0.152612
0.232015
0.160423
0.184168
0.172717
0.16351
0.157999
0.15374
0.150288
0.147396
0.144849
0.142952
0.142053
0.142163
0.143065
0.144513
0.146202
0.148131
0.150368
0.152784
0.1553
0.157762
0.159973
0.161737
0.162902
0.163365
0.1631
0.162131
0.160482
0.158363
0.155905
0.153287
0.150713
0.148421
0.146717
0.145909
0.146056
0.147153
0.149374
0.152927
0.158138
0.165522
0.174982
0.185891
0.197504
0.207389
0.212125
0.212486
0.210355
0.20695
0.172033
0.0894574
0.176569
0.0755315
0.238909
0.0987512
0.188109
0.224833
0.114263
0.20792
0.0778079
0.0628648
0.222262
0.189639
0.158377
0.134358
0.115205
0.100709
0.090526
0.0834648
0.0740663
0.0790405
0.210058
0.106226
0.194849
0.149593
0.182212
0.183827
0.18537
0.187235
0.189477
0.191955
0.194144
0.195486
0.196204
0.196659
0.196535
0.195598
0.193654
0.190682
0.186802
0.182246
0.177305
0.172279
0.16743
0.162995
0.159171
0.156128
0.154028
0.15306
0.153427
0.15522
0.158343
0.162725
0.168426
0.175619
0.184652
0.195399
0.20656
0.217349
0.22659
0.231904
0.233101
0.232156
0.22995
0.227347
0.200235
0.20282
0.205088
0.207978
0.135633
0.223165
0.132158
0.114845
0.102159
0.0852792
0.0887523
0.0861006
0.10407
0.243676
0.115605
0.0722511
0.0759914
0.0677359
0.103195
0.15269
0.231219
0.233689
0.090153
0.163635
0.104468
0.184497
0.0916753
0.161789
0.143002
0.0967665
0.129772
0.20905
0.0706795
0.075831
0.152507
0.12715
0.115465
0.125839
0.180768
0.118961
0.158541
0.236873
0.250904
0.255042
0.257546
0.258541
0.258542
0.257206
0.244915
0.212511
0.0767128
0.0666622
0.157474
0.16952
0.213227
0.112944
0.263849
0.240639
0.230752
0.222853
0.216548
0.211575
0.207677
0.204713
0.202764
0.201885
0.201995
0.202996
0.204685
0.206577
0.208199
0.209239
0.20988
0.210192
0.209893
0.208731
0.20656
0.203354
0.199277
0.194464
0.189181
0.183709
0.178328
0.173224
0.168676
0.164835
0.161885
0.160018
0.159455
0.160382
0.162725
0.166344
0.171293
0.177703
0.185899
0.196091
0.207289
0.218419
0.228618
0.235584
0.237978
0.237439
0.235497
0.23292
0.230999
0.20367
0.17686
0.154779
0.138011
0.125907
0.118367
0.114787
0.115925
0.121526
0.129364
0.136331
0.139798
0.138807
0.133475
0.126189
0.120134
0.11782
0.119074
0.124024
0.133521
0.148756
0.170599
0.197617
0.225593
0.074806
0.225457
0.0771065
0.0826042
0.0912507
0.303746
0.213984
0.152927
0.110719
0.078042
0.296089
0.272642
0.234776
0.202283
0.174597
0.151022
0.1328
0.119842
0.109855
0.100794
0.0857935
0.0793165
0.0917051
0.0872708
0.0700781
0.13053
0.234055
0.122504
0.101947
0.106145
0.0908924
0.111484
0.114463
0.201587
0.0726468
0.17518
0.130849
0.11281
0.118581
0.128861
0.145823
0.168184
0.194273
0.221895
0.27832
0.206586
0.0908591
0.139125
0.140763
0.142728
0.144906
0.14964
0.155659
0.0712232
0.0665816
0.0973532
0.171858
0.204972
0.227853
0.242452
0.25178
0.255587
0.25849
0.259078
0.258368
0.25641
0.246417
0.219303
0.164476
0.1256
0.207872
0.117892
0.104148
0.107915
0.147612
0.119023
0.3053
0.298633
0.29226
0.286306
0.281603
0.278689
0.276711
0.275526
0.274955
0.274872
0.275091
0.275106
0.274252
0.272051
0.268794
0.264897
0.260042
0.253919
0.24647
0.238034
0.229077
0.220074
0.211448
0.203547
0.196505
0.190577
0.1858
0.182201
0.179809
0.178633
0.178737
0.180178
0.183021
0.187311
0.19275
0.199082
0.206253
0.21436
0.223622
0.233463
0.242437
0.249752
0.25464
0.256001
0.254214
0.251464
0.249143
0.247583
0.247021
0.247472
0.230658
0.20192
0.173779
0.151289
0.134961
0.123542
0.11682
0.114418
0.115884
0.121628
0.129591
0.136802
0.140429
0.139296
0.133617
0.126141
0.119876
0.117045
0.117391
0.121754
0.130711
0.145674
0.16776
0.196165
0.225424
0.242277
0.242058
0.242733
0.244298
0.246526
0.249084
0.251409
0.251295
0.247617
0.241184
0.232874
0.223299
0.213743
0.205216
0.19764
0.190849
0.184864
0.179921
0.17626
0.173959
0.172964
0.173209
0.174657
0.1773
0.18114
0.186164
0.192343
0.199554
0.207578
0.216062
0.224547
0.232476
0.23945
0.245185
0.249806
0.253652
0.25633
0.257766
0.258136
0.257963
0.257734
0.25781
0.251737
0.262105
0.25905
0.107766
0.203373
0.129427
0.29844
0.291463
0.0837333
0.325696
0.174082
0.103798
0.0693105
0.0980256
0.0683893
0.0704102
0.111745
0.0840701
0.228385
0.225859
0.110857
0.161861
0.100243
0.111225
0.172473
0.14911
0.113032
0.219535
0.206553
0.142471
0.0668134
0.213854
0.134389
0.142403
0.130444
0.166782
0.144181
0.228857
0.0980617
0.0672621
0.0782105
0.136169
0.160358
0.177742
0.194577
0.217598
0.247594
0.280148
0.31197
0.33588
0.346244
0.339328
0.174538
0.177796
0.0885236
0.334783
0.325568
0.296851
0.266843
0.233655
0.201541
0.175936
0.158617
0.239964
0.0672769
0.118179
0.124652
0.130826
0.136661
0.113998
0.26067
0.0673969
0.191836
0.0992988
0.201231
0.278171
0.0948844
0.097431
0.100498
0.104263
0.110728
0.116853
0.122141
0.066965
0.0667319
0.307911
0.30882
0.316637
0.317512
0.311656
0.31189
0.310319
0.310973
0.30886
0.303868
0.296601
0.287331
0.276841
0.266361
0.256454
0.247123
0.238643
0.230718
0.22377
0.218132
0.213912
0.211072
0.209499
0.209057
0.209599
0.211002
0.213183
0.216099
0.219725
0.223992
0.228918
0.234399
0.2402
0.245864
0.251168
0.256085
0.260723
0.264613
0.266519
0.265947
0.262949
0.257612
0.250484
0.243308
0.237794
0.234134
0.231527
0.229018
0.225928
0.139012
0.168912
0.248482
0.231627
0.200892
0.171408
0.148404
0.13228
0.121465
0.115327
0.113698
0.115698
0.121604
0.129809
0.137544
0.141591
0.139955
0.133687
0.125924
0.119489
0.11597
0.115867
0.119763
0.128336
0.143172
0.1656
0.19507
0.226252
0.242777
0.221862
0.231005
0.215063
0.237849
0.249152
0.254757
0.257128
0.260218
0.260847
0.26026
0.258376
0.252419
0.2324
0.178274
0.128557
0.162261
0.171229
0.178084
0.18952
0.317432
0.312853
0.312206
0.31375
0.316391
0.319429
0.321916
0.323173
0.322833
0.32079
0.317182
0.311868
0.304516
0.295212
0.284959
0.274752
0.264989
0.255591
0.246945
0.238765
0.231561
0.225582
0.220899
0.217486
0.215253
0.214109
0.213952
0.214681
0.216236
0.218566
0.22164
0.225498
0.230057
0.235193
0.240981
0.246688
0.252127
0.257179
0.261968
0.266327
0.269126
0.269515
0.267434
0.2629
0.25622
0.248793
0.242717
0.238726
0.236297
0.234345
0.23191
0.22843
0.19084
0.139153
0.222824
0.220253
0.0878565
0.0725081
0.0680292
0.0918839
0.185701
0.181783
0.274707
0.186886
0.12035
0.300544
0.353225
0.396539
0.420611
0.42227
0.405146
0.378364
0.331782
0.293081
0.181908
0.101098
0.203932
0.188035
0.18982
0.189621
0.31107
0.240891
0.295069
0.326995
0.359057
0.398859
0.422702
0.437931
0.434655
0.403522
0.359999
0.0747366
0.0674162
0.0795792
0.223338
0.170564
0.170034
0.168744
0.159595
0.249762
0.246505
0.251762
0.263886
0.274829
0.282851
0.288805
0.290418
0.289983
0.286927
0.282895
0.278672
0.274676
0.271476
0.269677
0.269303
0.270197
0.272265
0.275332
0.278984
0.283119
0.287649
0.292433
0.297335
0.30224
0.307074
0.31175
0.316212
0.320374
0.324181
0.327605
0.330192
0.332114
0.332932
0.332264
0.329795
0.325522
0.319531
0.311687
0.301353
0.288324
0.273379
0.257411
0.24129
0.226221
0.213844
0.205159
0.199877
0.196832
0.19541
0.19539
0.196669
0.163432
0.157081
0.153953
0.1479
0.140303
0.132984
0.129569
0.122144
0.100998
0.0811778
0.213855
0.184742
0.205413
0.216937
0.0748621
0.0671647
0.151288
0.149907
0.159013
0.168469
0.127444
0.0870943
0.201161
0.216336
0.231974
0.235569
0.237431
0.238667
0.242135
0.242924
0.242298
0.24098
0.239127
0.233877
0.192116
0.148446
0.134318
0.173449
0.223868
0.24901
0.23335
0.200677
0.170039
0.146418
0.130247
0.119839
0.114169
0.112888
0.115516
0.121664
0.130204
0.138324
0.142653
0.140699
0.133959
0.12575
0.11903
0.114977
0.114682
0.118236
0.126588
0.141475
0.164401
0.195
0.227649
0.242525
0.21685
0.198938
0.256342
0.252203
0.25533
0.265356
0.277778
0.287703
0.292372
0.292572
0.290043
0.286411
0.28275
0.279212
0.275933
0.27347
0.272332
0.272459
0.273745
0.276003
0.279047
0.282461
0.286259
0.290367
0.294683
0.299124
0.303623
0.308137
0.312586
0.316917
0.321049
0.324906
0.328298
0.33146
0.333699
0.334967
0.334885
0.333082
0.329445
0.324027
0.316841
0.307386
0.295177
0.280729
0.26493
0.248627
0.232908
0.219388
0.209497
0.20337
0.199937
0.198193
0.19776
0.198558
0.200356
0.182872
0.192225
0.217221
0.0702933
0.0708492
0.265053
0.239627
0.254845
0.175478
0.291496
0.239531
0.200542
0.210352
0.194411
0.227194
0.139862
0.163104
0.116851
0.124983
0.114109
0.113648
0.125125
0.118272
0.140176
0.133433
0.137782
0.142074
0.121147
0.129698
0.112031
0.114963
0.118365
0.11314
0.144664
0.12845
0.200288
0.168716
0.246658
0.233328
0.256827
0.283112
0.201462
0.217442
0.210339
0.231818
0.186377
0.194528
0.198457
0.187386
0.245324
0.218652
0.309378
0.276048
0.37949
0.34426
0.442373
0.413019
0.489853
0.467455
0.526186
0.509721
0.547954
0.538859
0.557019
0.553853
0.556716
0.557837
0.549777
0.553936
0.537724
0.544317
0.521596
0.530136
0.501309
0.511993
0.475556
0.4893
0.44405
0.460456
0.407848
0.426504
0.367381
0.388092
0.323433
0.346067
0.270508
0.298368
0.212966
0.241478
0.163517
0.186381
0.154042
0.154297
0.173656
0.158409
0.28778
0.21274
0.484812
0.380163
0.695467
0.593986
0.772871
0.761363
0.637975
0.714142
0.585047
0.617792
0.473935
0.500809
0.446551
0.473348
0.330989
0.385794
0.265464
0.287435
0.210947
0.21794
0.178643
0.249898
0.248927
0.249383
0.247528
0.251942
0.251175
0.250143
0.2519
0.247854
0.24836
0.247507
0.249331
0.171392
0.240135
0.154709
0.191715
0.197977
0.111387
0.245075
0.211188
0.316836
0.29336
0.42224
0.355211
0.475214
0.479028
0.5065
0.474878
0.582325
0.543469
0.718192
0.644116
0.746042
0.762315
0.586752
0.682144
0.386926
0.484689
0.212298
0.297044
0.157295
0.167484
0.154795
0.154868
0.185267
0.167306
0.230296
0.204337
0.293039
0.261489
0.343745
0.320705
0.38415
0.364173
0.422357
0.40366
0.456996
0.440123
0.487746
0.472982
0.512281
0.50082
0.531159
0.522387
0.544936
0.538648
0.553418
0.549883
0.555626
0.555421
0.549512
0.55378
0.532041
0.542411
0.500464
0.518097
0.456799
0.479816
0.400104
0.430659
0.331076
0.366028
0.264811
0.296943
0.211407
0.235731
0.187012
0.194468
0.199746
0.189131
0.217237
0.197221
0.106534
0.210318
0.0804746
0.320562
0.195529
0.312342
0.240993
0.09319
0.13594
0.138173
0.106319
0.104597
0.0645978
0.0655128
0.0870715
0.0998618
0.210289
0.200451
0.199545
0.0977444
0.106796
0.102194
0.13263
0.121975
0.128102
0.134552
0.118748
0.127166
0.133088
0.112568
0.12297
0.128166
0.104057
0.115728
0.102931
0.0690066
0.109251
0.0685439
0.151495
0.0674099
0.0788716
0.1002
0.0660932
0.0693479
0.158784
0.107381
0.100506
0.0862386
0.28351
0.109023
0.300699
0.14884
0.297739
0.244323
0.140839
0.0846625
0.11421
0.112438
0.146905
0.10884
0.15895
0.0938797
0.0993186
0.101329
0.113795
0.11089
0.244316
0.118711
0.321698
0.253233
0.197702
0.201043
0.226987
0.0865904
0.173484
0.199192
0.0815133
0.139975
0.142938
0.104054
0.232447
0.198071
0.118228
0.101901
0.0948667
0.0943503
0.212521
)
;

boundaryField
{
    wall
    {
        type            nutkWallFunction;
        blending        stepwise;
        value           uniform 0;
    }
    outlet
    {
        type            calculated;
        value           nonuniform List<scalar> 
33
(
0.239531
0.200542
0.210352
0.194411
0.227194
0.139862
0.163104
0.116851
0.124983
0.114109
0.113648
0.125125
0.118272
0.140176
0.133433
0.137782
0.142074
0.121147
0.129698
0.112031
0.114963
0.118365
0.11314
0.144664
0.12845
0.200288
0.168716
0.246658
0.233328
0.201462
0.217442
0.320562
0.312342
)
;
    }
    inlet
    {
        type            calculated;
        value           uniform 0.338346;
    }
    frontAndBackPlanes
    {
        type            empty;
    }
}


// ************************************************************************* //
