/*--------------------------------*- C++ -*----------------------------------*\
| =========                 |                                                 |
| \\      /  F ield         | OpenFOAM: The Open Source CFD Toolbox           |
|  \\    /   O peration     | Version:  2212                                  |
|   \\  /    A nd           | Website:  www.openfoam.com                      |
|    \\/     M anipulation  |                                                 |
\*---------------------------------------------------------------------------*/
FoamFile
{
    version     2.0;
    format      ascii;
    arch        "LSB;label=32;scalar=64";
    class       volVectorField;
    location    "0.467";
    object      U_0;
}
// * * * * * * * * * * * * * * * * * * * * * * * * * * * * * * * * * * * * * //

dimensions      [0 1 -1 0 0 0 0];

internalField   nonuniform List<vector> 
24240
(
(8.99848 0.767911 4.98363e-07)
(8.99878 0.767937 -1.53022e-06)
(8.99878 0.767935 -7.08727e-07)
(8.99878 0.767934 -1.3576e-06)
(8.99878 0.767932 -1.1146e-06)
(8.99878 0.76793 -1.36121e-06)
(8.99878 0.767927 -1.2953e-06)
(8.99878 0.767925 -1.39118e-06)
(8.99878 0.767922 -1.33733e-06)
(8.99878 0.767919 -1.33951e-06)
(8.99878 0.767916 -1.24086e-06)
(8.99878 0.767913 -1.188e-06)
(8.99878 0.767911 -1.01912e-06)
(8.99878 0.767908 -9.54796e-07)
(8.99878 0.767906 -6.64128e-07)
(8.99878 0.767905 -6.63275e-07)
(8.99878 0.767903 -1.00908e-07)
(8.99878 0.767902 -4.17072e-07)
(8.99878 0.767902 7.97035e-07)
(8.99849 0.767875 -7.93363e-07)
(9.00461 0.770698 -1.57517e-06)
(9.00491 0.770726 -2.59366e-06)
(9.00491 0.770727 -3.21679e-06)
(9.00491 0.770729 -4.33462e-06)
(9.00491 0.770731 -4.94417e-06)
(9.00491 0.770734 -5.69728e-06)
(9.00491 0.770737 -6.09259e-06)
(9.00491 0.77074 -6.44142e-06)
(9.0049 0.770743 -6.5186e-06)
(9.0049 0.770746 -6.49758e-06)
(9.0049 0.770749 -6.2569e-06)
(9.0049 0.770752 -5.93115e-06)
(9.0049 0.770755 -5.41284e-06)
(9.0049 0.770758 -4.88864e-06)
(9.0049 0.77076 -4.14685e-06)
(9.0049 0.770762 -3.53962e-06)
(9.0049 0.770763 -2.54741e-06)
(9.0049 0.770765 -1.90951e-06)
(9.0049 0.770766 -5.70731e-07)
(9.00459 0.770739 4.89212e-07)
(9.02753 0.551876 -5.6471e-07)
(9.02783 0.551896 4.63833e-07)
(9.02783 0.551896 1.49703e-06)
(9.02783 0.551896 2.11438e-06)
(9.02783 0.551896 3.14707e-06)
(9.02783 0.551895 3.5779e-06)
(9.02783 0.551895 4.07136e-06)
(9.02783 0.551894 4.2575e-06)
(9.02783 0.551894 4.39431e-06)
(9.02783 0.551893 4.33576e-06)
(9.02783 0.551893 4.22062e-06)
(9.02783 0.551892 3.9562e-06)
(9.02783 0.551892 3.68623e-06)
(9.02783 0.551891 3.26857e-06)
(9.02783 0.551891 2.98465e-06)
(9.02783 0.551891 2.45535e-06)
(9.02783 0.551891 2.41005e-06)
(9.02783 0.55189 1.78792e-06)
(9.02783 0.55189 1.51833e-06)
(9.02753 0.55187 1.19494e-06)
(9.00675 0.546354 -1.29687e-06)
(9.00706 0.546374 -2.62628e-06)
(9.00706 0.546374 -3.39107e-06)
(9.00706 0.546374 -4.57518e-06)
(9.00705 0.546375 -5.58514e-06)
(9.00705 0.546375 -6.40025e-06)
(9.00705 0.546376 -6.92505e-06)
(9.00705 0.546377 -7.29365e-06)
(9.00705 0.546378 -7.39677e-06)
(9.00705 0.546379 -7.34708e-06)
(9.00705 0.54638 -7.07671e-06)
(9.00705 0.546381 -6.68628e-06)
(9.00705 0.546381 -6.11326e-06)
(9.00704 0.546382 -5.49088e-06)
(9.00704 0.546383 -4.71772e-06)
(9.00704 0.546383 -3.98067e-06)
(9.00704 0.546384 -3.16375e-06)
(9.00704 0.546384 -2.32808e-06)
(9.00704 0.546385 -8.26986e-07)
(9.00674 0.546365 1.53733e-07)
(9.02757 0.347337 -1.55016e-07)
(9.02787 0.34735 1.03244e-06)
(9.02787 0.347351 2.5279e-06)
(9.02787 0.347352 3.47157e-06)
(9.02787 0.347353 4.31196e-06)
(9.02787 0.347354 4.92901e-06)
(9.02787 0.347356 5.44527e-06)
(9.02787 0.347357 5.70272e-06)
(9.02787 0.347359 5.83845e-06)
(9.02787 0.347361 5.76117e-06)
(9.02787 0.347362 5.58515e-06)
(9.02788 0.347364 5.24193e-06)
(9.02788 0.347365 4.85573e-06)
(9.02788 0.347366 4.33065e-06)
(9.02788 0.347368 3.83926e-06)
(9.02788 0.347369 3.20288e-06)
(9.02788 0.34737 2.63265e-06)
(9.02788 0.34737 1.93445e-06)
(9.02788 0.34737 1.73966e-06)
(9.02757 0.347358 1.10185e-06)
(9.01274 0.338194 -9.47835e-07)
(9.01304 0.338206 -1.78058e-06)
(9.01304 0.338206 -2.30693e-06)
(9.01304 0.338204 -3.01091e-06)
(9.01304 0.338203 -3.43708e-06)
(9.01304 0.338202 -3.91039e-06)
(9.01304 0.338201 -4.17366e-06)
(9.01304 0.3382 -4.38091e-06)
(9.01304 0.338198 -4.41106e-06)
(9.01304 0.338197 -4.36729e-06)
(9.01304 0.338196 -4.17377e-06)
(9.01304 0.338194 -3.92549e-06)
(9.01304 0.338193 -3.54425e-06)
(9.01304 0.338192 -3.15661e-06)
(9.01303 0.338192 -2.63132e-06)
(9.01303 0.338191 -2.17889e-06)
(9.01303 0.33819 -1.49905e-06)
(9.01303 0.33819 -1.01554e-06)
(9.01303 0.33819 -1.89189e-07)
(9.01273 0.338178 3.10842e-07)
(9.02333 0.155507 -3.51589e-07)
(9.02364 0.155513 3.18388e-07)
(9.02364 0.155514 1.28922e-06)
(9.02363 0.155517 1.83063e-06)
(9.02363 0.155519 2.34442e-06)
(9.02363 0.155521 2.70918e-06)
(9.02363 0.155524 3.03173e-06)
(9.02363 0.155528 3.1977e-06)
(9.02363 0.155531 3.3098e-06)
(9.02363 0.155534 3.28754e-06)
(9.02363 0.155538 3.22495e-06)
(9.02363 0.155541 3.05127e-06)
(9.02363 0.155544 2.87214e-06)
(9.02363 0.155546 2.59424e-06)
(9.02363 0.155549 2.35578e-06)
(9.02363 0.155551 2.00886e-06)
(9.02363 0.155553 1.73471e-06)
(9.02363 0.155553 1.34193e-06)
(9.02363 0.155554 1.35507e-06)
(9.02333 0.155549 9.25779e-07)
(9.02038 0.142069 -4.06037e-07)
(9.02068 0.142073 -1.79743e-07)
(9.02068 0.142072 2.72507e-07)
(9.02068 0.14207 4.85261e-07)
(9.02068 0.142068 8.44784e-07)
(9.02068 0.142066 1.01209e-06)
(9.02068 0.142064 1.22119e-06)
(9.02068 0.142061 1.3178e-06)
(9.02068 0.142058 1.4215e-06)
(9.02067 0.142055 1.44285e-06)
(9.02067 0.142052 1.47038e-06)
(9.02067 0.14205 1.42642e-06)
(9.02067 0.142047 1.41094e-06)
(9.02067 0.142045 1.32e-06)
(9.02067 0.142043 1.30286e-06)
(9.02066 0.142042 1.17083e-06)
(9.02066 0.14204 1.20967e-06)
(9.02066 0.142039 1.01622e-06)
(9.02066 0.142039 1.04434e-06)
(9.02036 0.142034 7.07791e-07)
(9.02212 -0.0300698 -7.49389e-07)
(9.02242 -0.0300712 -1.04285e-06)
(9.02242 -0.0300704 -1.05067e-06)
(9.02242 -0.0300691 -1.29363e-06)
(9.02242 -0.0300677 -1.38114e-06)
(9.02242 -0.030066 -1.54637e-06)
(9.02242 -0.0300641 -1.59984e-06)
(9.02242 -0.0300622 -1.67161e-06)
(9.02242 -0.0300602 -1.65437e-06)
(9.02243 -0.0300581 -1.63389e-06)
(9.02243 -0.0300562 -1.53362e-06)
(9.02243 -0.0300543 -1.43542e-06)
(9.02243 -0.0300526 -1.25445e-06)
(9.02243 -0.030051 -1.09969e-06)
(9.02243 -0.0300496 -8.42137e-07)
(9.02243 -0.0300484 -6.58548e-07)
(9.02243 -0.0300474 -3.11736e-07)
(9.02243 -0.0300469 -1.25723e-07)
(9.02243 -0.0300464 3.91604e-07)
(9.02212 -0.0300444 5.4788e-07)
(9.03339 -0.0456122 -1.38417e-07)
(9.0337 -0.045616 7.89241e-07)
(9.0337 -0.0456179 1.95557e-06)
(9.0337 -0.0456209 2.74925e-06)
(9.0337 -0.0456244 3.53686e-06)
(9.0337 -0.0456286 4.08606e-06)
(9.0337 -0.0456332 4.54758e-06)
(9.0337 -0.0456381 4.80443e-06)
(9.0337 -0.0456432 4.95524e-06)
(9.0337 -0.0456484 4.93335e-06)
(9.0337 -0.0456534 4.82899e-06)
(9.0337 -0.0456582 4.58809e-06)
(9.0337 -0.0456626 4.31173e-06)
(9.0337 -0.0456665 3.92807e-06)
(9.0337 -0.04567 3.56378e-06)
(9.0337 -0.0456729 3.08647e-06)
(9.0337 -0.0456753 2.68684e-06)
(9.0337 -0.0456768 2.1039e-06)
(9.0337 -0.045678 1.74769e-06)
(9.03339 -0.0456757 9.80769e-07)
(9.02631 -0.21949 -1.48518e-06)
(9.02662 -0.219499 -3.47486e-06)
(9.02662 -0.219498 -5.11041e-06)
(9.02662 -0.219497 -6.74249e-06)
(9.02662 -0.219495 -7.94358e-06)
(9.02663 -0.219493 -9.05071e-06)
(9.02663 -0.219491 -9.78062e-06)
(9.02663 -0.219489 -1.02771e-05)
(9.02663 -0.219487 -1.04263e-05)
(9.02663 -0.219485 -1.03223e-05)
(9.02664 -0.219482 -9.91702e-06)
(9.02664 -0.21948 -9.3094e-06)
(9.02664 -0.219478 -8.45962e-06)
(9.02664 -0.219476 -7.50027e-06)
(9.02664 -0.219475 -6.34137e-06)
(9.02665 -0.219473 -5.20097e-06)
(9.02665 -0.219472 -3.80372e-06)
(9.02665 -0.219471 -2.60453e-06)
(9.02665 -0.219471 -1.14326e-06)
(9.02634 -0.219461 -3.30659e-08)
(9.05279 -0.232004 1.68476e-07)
(9.0531 -0.232015 1.78214e-06)
(9.0531 -0.232016 3.6821e-06)
(9.0531 -0.232018 5.07534e-06)
(9.0531 -0.232021 6.30403e-06)
(9.0531 -0.232023 7.27719e-06)
(9.0531 -0.232026 8.04411e-06)
(9.0531 -0.23203 8.52123e-06)
(9.0531 -0.232033 8.77989e-06)
(9.0531 -0.232037 8.76614e-06)
(9.0531 -0.23204 8.56688e-06)
(9.0531 -0.232043 8.14477e-06)
(9.0531 -0.232046 7.6021e-06)
(9.0531 -0.232049 6.89745e-06)
(9.0531 -0.232051 6.13983e-06)
(9.0531 -0.232054 5.25881e-06)
(9.0531 -0.232055 4.34785e-06)
(9.0531 -0.232056 3.3082e-06)
(9.0531 -0.232057 2.53199e-06)
(9.05279 -0.232047 1.26543e-06)
(9.03628 -0.418809 -2.0293e-06)
(9.03659 -0.418826 -5.1126e-06)
(9.03659 -0.418825 -7.84864e-06)
(9.03659 -0.418824 -1.0415e-05)
(9.03659 -0.418823 -1.2325e-05)
(9.03659 -0.418822 -1.40935e-05)
(9.0366 -0.418821 -1.53036e-05)
(9.0366 -0.418819 -1.61224e-05)
(9.0366 -0.418818 -1.64171e-05)
(9.03661 -0.418816 -1.62876e-05)
(9.03661 -0.418815 -1.56996e-05)
(9.03661 -0.418814 -1.47641e-05)
(9.03662 -0.418812 -1.34704e-05)
(9.03662 -0.418811 -1.19665e-05)
(9.03662 -0.41881 -1.01856e-05)
(9.03662 -0.418809 -8.3811e-06)
(9.03662 -0.418809 -6.19514e-06)
(9.03662 -0.418809 -4.27945e-06)
(9.03663 -0.418808 -2.1467e-06)
(9.03632 -0.418791 -3.5317e-07)
(9.07477 -0.426552 3.47214e-07)
(9.07508 -0.42657 2.39324e-06)
(9.07508 -0.426571 4.81128e-06)
(9.07508 -0.426573 6.56276e-06)
(9.07508 -0.426574 7.9982e-06)
(9.07508 -0.426576 9.22058e-06)
(9.07508 -0.426578 1.0175e-05)
(9.07508 -0.42658 1.07838e-05)
(9.07508 -0.426582 1.11122e-05)
(9.07508 -0.426584 1.10962e-05)
(9.07508 -0.426586 1.08336e-05)
(9.07508 -0.426588 1.02856e-05)
(9.07509 -0.42659 9.56925e-06)
(9.07509 -0.426591 8.65164e-06)
(9.07509 -0.426593 7.64271e-06)
(9.07509 -0.426594 6.49967e-06)
(9.07509 -0.426595 5.21798e-06)
(9.07509 -0.426595 3.89851e-06)
(9.07509 -0.426596 2.96245e-06)
(9.07478 -0.426578 1.43507e-06)
(9.04823 -0.634364 -2.36641e-06)
(9.04854 -0.634389 -6.0731e-06)
(9.04854 -0.634389 -9.4387e-06)
(9.04854 -0.634388 -1.25826e-05)
(9.04854 -0.634388 -1.49587e-05)
(9.04855 -0.634389 -1.71665e-05)
(9.04855 -0.634389 -1.87142e-05)
(9.04855 -0.634389 -1.97601e-05)
(9.04856 -0.63439 -2.0163e-05)
(9.04856 -0.63439 -2.0032e-05)
(9.04856 -0.634391 -1.93345e-05)
(9.04857 -0.634391 -1.82e-05)
(9.04857 -0.634391 -1.66307e-05)
(9.04857 -0.634392 -1.47938e-05)
(9.04857 -0.634392 -1.26497e-05)
(9.04857 -0.634392 -1.04493e-05)
(9.04858 -0.634393 -7.79849e-06)
(9.04858 -0.634394 -5.43497e-06)
(9.04858 -0.634394 -2.78977e-06)
(9.04827 -0.634369 -5.24238e-07)
(9.09162 -0.636262 2.32684e-07)
(9.09192 -0.636286 2.21812e-06)
(9.09192 -0.636286 4.61438e-06)
(9.09192 -0.636287 6.21566e-06)
(9.09192 -0.636287 7.43586e-06)
(9.09192 -0.636286 8.55053e-06)
(9.09193 -0.636286 9.47083e-06)
(9.09193 -0.636285 1.00292e-05)
(9.09193 -0.636285 1.03538e-05)
(9.09193 -0.636285 1.0322e-05)
(9.09193 -0.636284 1.00723e-05)
(9.09194 -0.636284 9.52866e-06)
(9.09194 -0.636284 8.84809e-06)
(9.09194 -0.636284 7.94866e-06)
(9.09194 -0.636283 6.99844e-06)
(9.09194 -0.636283 5.88008e-06)
(9.09194 -0.636283 4.55323e-06)
(9.09194 -0.636282 3.29066e-06)
(9.09194 -0.636282 2.60158e-06)
(9.09164 -0.636257 1.349e-06)
(9.0544 -0.870176 -2.24796e-06)
(9.0547 -0.870209 -5.74882e-06)
(9.0547 -0.87021 -8.34197e-06)
(9.0547 -0.87021 -1.14603e-05)
(9.0547 -0.870212 -1.44875e-05)
(9.0547 -0.870215 -1.67197e-05)
(9.05471 -0.870218 -1.83558e-05)
(9.05471 -0.870221 -1.94225e-05)
(9.05471 -0.870224 -1.98373e-05)
(9.05471 -0.870227 -1.97288e-05)
(9.05471 -0.87023 -1.90406e-05)
(9.05472 -0.870233 -1.79354e-05)
(9.05472 -0.870236 -1.63953e-05)
(9.05472 -0.870238 -1.46117e-05)
(9.05472 -0.870241 -1.26101e-05)
(9.05472 -0.870243 -1.05138e-05)
(9.05472 -0.870245 -8.61351e-06)
(9.05472 -0.870247 -6.28738e-06)
(9.05472 -0.870249 -2.9628e-06)
(9.05442 -0.870217 -6.2175e-07)
(9.09323 -0.864719 -4.15959e-07)
(9.09353 -0.86475 8.83785e-07)
(9.09353 -0.864748 1.54003e-06)
(9.09353 -0.864747 2.15023e-06)
(9.09354 -0.864744 3.4589e-06)
(9.09354 -0.864742 3.93085e-06)
(9.09354 -0.864739 4.57129e-06)
(9.09355 -0.864736 4.81396e-06)
(9.09355 -0.864732 5.03711e-06)
(9.09355 -0.864729 4.98629e-06)
(9.09355 -0.864726 4.88093e-06)
(9.09356 -0.864722 4.55258e-06)
(9.09356 -0.864719 4.23397e-06)
(9.09356 -0.864717 3.70256e-06)
(9.09356 -0.864714 3.35959e-06)
(9.09357 -0.864712 2.6903e-06)
(9.09357 -0.864711 2.7362e-06)
(9.09357 -0.864709 1.92991e-06)
(9.09357 -0.864709 1.08891e-06)
(9.09327 -0.864677 9.60654e-07)
(9.04485 -1.12854 -1.81631e-06)
(9.04515 -1.12858 -3.95191e-06)
(9.04515 -1.12858 -6.28963e-06)
(9.04515 -1.12859 -8.78161e-06)
(9.04515 -1.12859 -1.05531e-05)
(9.04515 -1.1286 -1.22496e-05)
(9.04515 -1.1286 -1.33251e-05)
(9.04515 -1.12861 -1.41243e-05)
(9.04515 -1.12861 -1.43762e-05)
(9.04515 -1.12862 -1.43086e-05)
(9.04515 -1.12862 -1.37733e-05)
(9.04515 -1.12863 -1.29866e-05)
(9.04516 -1.12863 -1.18271e-05)
(9.04516 -1.12864 -1.05766e-05)
(9.04516 -1.12864 -9.04184e-06)
(9.04516 -1.12865 -7.62675e-06)
(9.04516 -1.12865 -5.84519e-06)
(9.04516 -1.12865 -4.38364e-06)
(9.04516 -1.12865 -2.47912e-06)
(9.04485 -1.12861 -3.9174e-07)
(9.06228 -1.11286 2.0184e-06)
(9.06255 -1.11289 -1.02944e-06)
(9.06254 -1.11288 -1.62051e-06)
(9.06254 -1.11288 -3.20667e-06)
(9.06254 -1.11288 -3.50828e-06)
(9.06255 -1.11287 -4.22533e-06)
(9.06255 -1.11287 -4.40815e-06)
(9.06255 -1.11286 -4.69985e-06)
(9.06256 -1.11286 -4.69289e-06)
(9.06256 -1.11285 -4.69617e-06)
(9.06256 -1.11285 -4.48355e-06)
(9.06256 -1.11284 -4.29487e-06)
(9.06257 -1.11284 -3.90291e-06)
(9.06257 -1.11283 -3.62349e-06)
(9.06257 -1.11283 -3.04356e-06)
(9.06257 -1.11282 -2.80016e-06)
(9.06257 -1.11282 -1.95973e-06)
(9.06257 -1.11282 -2.27124e-06)
(9.06259 -1.11282 -1.55172e-06)
(9.06232 -1.11279 -3.07783e-06)
(8.73352 0.758131 1.90708e-07)
(8.73381 0.758158 -1.46192e-06)
(8.7338 0.758156 -7.10638e-07)
(8.7338 0.758155 -1.19815e-06)
(8.7338 0.758153 -8.37e-07)
(8.7338 0.758151 -1.01668e-06)
(8.7338 0.758149 -8.70549e-07)
(8.7338 0.758146 -9.45003e-07)
(8.7338 0.758143 -8.58943e-07)
(8.7338 0.75814 -8.78772e-07)
(8.7338 0.758138 -7.84042e-07)
(8.7338 0.758135 -7.75173e-07)
(8.7338 0.758133 -6.24951e-07)
(8.73379 0.75813 -6.18974e-07)
(8.73379 0.758128 -3.39475e-07)
(8.73379 0.758127 -3.84644e-07)
(8.73379 0.758125 1.9314e-07)
(8.73379 0.758124 -1.01424e-07)
(8.73379 0.758124 9.25972e-07)
(8.7335 0.758096 -4.3294e-07)
(8.76448 0.760017 -1.48539e-06)
(8.76477 0.760045 -2.47241e-06)
(8.76477 0.760046 -3.10878e-06)
(8.76477 0.760048 -4.10389e-06)
(8.76477 0.76005 -4.60884e-06)
(8.76477 0.760053 -5.2949e-06)
(8.76477 0.760056 -5.62586e-06)
(8.76476 0.76006 -5.95536e-06)
(8.76476 0.760063 -6.00894e-06)
(8.76476 0.760067 -6.00401e-06)
(8.76476 0.76007 -5.77341e-06)
(8.76476 0.760074 -5.5022e-06)
(8.76475 0.760077 -5.02066e-06)
(8.76475 0.760079 -4.5699e-06)
(8.76475 0.760082 -3.86724e-06)
(8.76475 0.760084 -3.32149e-06)
(8.76475 0.760086 -2.34157e-06)
(8.76475 0.760087 -1.70952e-06)
(8.76475 0.760089 -4.95428e-07)
(8.76445 0.760062 4.57606e-07)
(8.78175 0.553769 -4.67742e-07)
(8.78205 0.553788 7.27587e-07)
(8.78205 0.553788 1.73908e-06)
(8.78205 0.553788 2.55781e-06)
(8.78205 0.553788 3.87407e-06)
(8.78205 0.553788 4.42905e-06)
(8.78205 0.553787 5.0559e-06)
(8.78205 0.553787 5.2892e-06)
(8.78205 0.553786 5.46434e-06)
(8.78205 0.553786 5.38783e-06)
(8.78205 0.553786 5.24929e-06)
(8.78205 0.553785 4.92129e-06)
(8.78204 0.553785 4.59757e-06)
(8.78204 0.553785 4.0861e-06)
(8.78204 0.553785 3.7536e-06)
(8.78204 0.553784 3.11784e-06)
(8.78204 0.553784 3.10473e-06)
(8.78204 0.553784 2.36397e-06)
(8.78204 0.553784 1.78061e-06)
(8.78175 0.553765 1.28151e-06)
(8.78027 0.547428 -1.16753e-06)
(8.78056 0.547447 -2.38784e-06)
(8.78056 0.547447 -3.03367e-06)
(8.78056 0.547447 -4.09152e-06)
(8.78056 0.547447 -5.04958e-06)
(8.78056 0.547448 -5.77973e-06)
(8.78056 0.547448 -6.23403e-06)
(8.78055 0.547449 -6.56503e-06)
(8.78055 0.54745 -6.63677e-06)
(8.78055 0.54745 -6.59533e-06)
(8.78055 0.547451 -6.33703e-06)
(8.78055 0.547452 -5.99743e-06)
(8.78055 0.547452 -5.47615e-06)
(8.78055 0.547453 -4.93702e-06)
(8.78055 0.547453 -4.2436e-06)
(8.78055 0.547454 -3.60306e-06)
(8.78055 0.547454 -2.92046e-06)
(8.78054 0.547455 -2.15544e-06)
(8.78055 0.547456 -7.24564e-07)
(8.78025 0.547437 1.36352e-07)
(8.7993 0.349823 -5.67338e-08)
(8.7996 0.349835 1.21548e-06)
(8.7996 0.349836 2.71388e-06)
(8.7996 0.349837 3.76703e-06)
(8.7996 0.349839 4.69338e-06)
(8.7996 0.34984 5.38898e-06)
(8.7996 0.349842 5.98788e-06)
(8.7996 0.349843 6.29052e-06)
(8.7996 0.349845 6.47575e-06)
(8.7996 0.349847 6.41275e-06)
(8.7996 0.349849 6.25926e-06)
(8.79961 0.349851 5.90534e-06)
(8.79961 0.349852 5.52384e-06)
(8.79961 0.349854 4.96293e-06)
(8.79961 0.349855 4.4566e-06)
(8.79961 0.349856 3.75265e-06)
(8.79961 0.349858 3.11966e-06)
(8.79961 0.349858 2.31106e-06)
(8.79961 0.349858 1.96093e-06)
(8.79931 0.349846 1.17036e-06)
(8.79929 0.340116 -8.06192e-07)
(8.79958 0.340127 -1.44669e-06)
(8.79958 0.340126 -1.90181e-06)
(8.79958 0.340125 -2.42692e-06)
(8.79958 0.340124 -2.66368e-06)
(8.79958 0.340123 -3.00764e-06)
(8.79958 0.340121 -3.15321e-06)
(8.79958 0.34012 -3.29613e-06)
(8.79958 0.340118 -3.27607e-06)
(8.79958 0.340117 -3.23094e-06)
(8.79958 0.340115 -3.04476e-06)
(8.79958 0.340114 -2.85038e-06)
(8.79958 0.340113 -2.52218e-06)
(8.79958 0.340112 -2.23204e-06)
(8.79958 0.340111 -1.78826e-06)
(8.79958 0.34011 -1.46374e-06)
(8.79958 0.34011 -8.68441e-07)
(8.79958 0.34011 -5.32724e-07)
(8.79958 0.34011 4.8497e-08)
(8.79928 0.340098 3.60061e-07)
(8.8083 0.151383 -2.59365e-07)
(8.8086 0.151388 4.50985e-07)
(8.8086 0.15139 1.36096e-06)
(8.8086 0.151392 1.97213e-06)
(8.8086 0.151394 2.55305e-06)
(8.8086 0.151397 2.98025e-06)
(8.8086 0.1514 3.37542e-06)
(8.8086 0.151403 3.58892e-06)
(8.8086 0.151407 3.75872e-06)
(8.8086 0.15141 3.76628e-06)
(8.8086 0.151413 3.74537e-06)
(8.8086 0.151417 3.58204e-06)
(8.8086 0.15142 3.42696e-06)
(8.80861 0.151423 3.13346e-06)
(8.80861 0.151425 2.89393e-06)
(8.80861 0.151428 2.49397e-06)
(8.80861 0.15143 2.17447e-06)
(8.80861 0.151431 1.68561e-06)
(8.80861 0.151432 1.51592e-06)
(8.80831 0.151428 9.37631e-07)
(8.81361 0.13784 -2.61854e-07)
(8.81391 0.137843 1.52511e-07)
(8.81391 0.137842 6.55935e-07)
(8.81391 0.137839 1.07023e-06)
(8.81391 0.137837 1.65241e-06)
(8.81391 0.137834 1.98653e-06)
(8.81391 0.137831 2.36051e-06)
(8.81391 0.137827 2.56812e-06)
(8.81391 0.137824 2.77112e-06)
(8.81391 0.13782 2.84451e-06)
(8.81392 0.137817 2.91522e-06)
(8.81392 0.137813 2.86711e-06)
(8.81392 0.13781 2.84421e-06)
(8.81392 0.137807 2.69493e-06)
(8.81392 0.137804 2.62253e-06)
(8.81392 0.137802 2.36567e-06)
(8.81392 0.1378 2.30033e-06)
(8.81392 0.137799 1.89042e-06)
(8.81392 0.137798 1.54207e-06)
(8.81362 0.137794 8.4997e-07)
(8.81434 -0.0445602 -7.90311e-07)
(8.81464 -0.0445623 -1.28063e-06)
(8.81464 -0.044562 -1.61236e-06)
(8.81464 -0.0445609 -2.0047e-06)
(8.81464 -0.0445603 -2.17939e-06)
(8.81464 -0.0445594 -2.43818e-06)
(8.81464 -0.0445584 -2.53121e-06)
(8.81464 -0.0445574 -2.63898e-06)
(8.81465 -0.0445563 -2.60924e-06)
(8.81465 -0.0445552 -2.56868e-06)
(8.81465 -0.0445541 -2.40348e-06)
(8.81465 -0.0445531 -2.24028e-06)
(8.81465 -0.044552 -1.95169e-06)
(8.81465 -0.044551 -1.70475e-06)
(8.81465 -0.0445501 -1.31525e-06)
(8.81465 -0.0445492 -1.03501e-06)
(8.81465 -0.0445485 -5.47809e-07)
(8.81465 -0.0445483 -2.69025e-07)
(8.81465 -0.0445478 1.93931e-07)
(8.81436 -0.0445454 4.02533e-07)
(8.82462 -0.0590286 -1.20813e-07)
(8.82492 -0.0590328 6.63106e-07)
(8.82492 -0.0590347 1.58219e-06)
(8.82492 -0.0590378 2.32864e-06)
(8.82492 -0.0590413 3.11088e-06)
(8.82493 -0.0590454 3.67233e-06)
(8.82493 -0.05905 4.19364e-06)
(8.82493 -0.0590548 4.52244e-06)
(8.82493 -0.0590599 4.78607e-06)
(8.82493 -0.059065 4.88505e-06)
(8.82493 -0.0590701 4.93577e-06)
(8.82494 -0.0590749 4.84478e-06)
(8.82494 -0.0590794 4.73837e-06)
(8.82494 -0.0590834 4.4959e-06)
(8.82494 -0.0590871 4.26856e-06)
(8.82494 -0.0590901 3.85547e-06)
(8.82494 -0.0590926 3.49045e-06)
(8.82494 -0.0590941 2.81876e-06)
(8.82494 -0.0590954 2.16803e-06)
(8.82464 -0.0590927 1.08027e-06)
(8.81852 -0.244016 -1.52331e-06)
(8.81882 -0.244025 -3.67665e-06)
(8.81882 -0.244025 -5.64787e-06)
(8.81882 -0.244023 -7.42221e-06)
(8.81882 -0.244022 -8.67e-06)
(8.81882 -0.24402 -9.87896e-06)
(8.81882 -0.244019 -1.06588e-05)
(8.81882 -0.244017 -1.12186e-05)
(8.81882 -0.244015 -1.1392e-05)
(8.81882 -0.244013 -1.13121e-05)
(8.81881 -0.244011 -1.08953e-05)
(8.81881 -0.244009 -1.02787e-05)
(8.81881 -0.244007 -9.37745e-06)
(8.81881 -0.244005 -8.37082e-06)
(8.81881 -0.244004 -7.10618e-06)
(8.81881 -0.244002 -5.87061e-06)
(8.81881 -0.244001 -4.27493e-06)
(8.81881 -0.244001 -2.92228e-06)
(8.81882 -0.244 -1.49112e-06)
(8.81852 -0.24399 -2.37722e-07)
(8.83448 -0.254656 1.64806e-07)
(8.83478 -0.254668 1.51055e-06)
(8.83478 -0.254669 3.08568e-06)
(8.83479 -0.254672 4.35373e-06)
(8.83479 -0.254675 5.48737e-06)
(8.83479 -0.254678 6.43271e-06)
(8.83479 -0.254681 7.23605e-06)
(8.83479 -0.254685 7.79463e-06)
(8.8348 -0.254689 8.1954e-06)
(8.8348 -0.254693 8.35657e-06)
(8.8348 -0.254697 8.38191e-06)
(8.8348 -0.254701 8.19835e-06)
(8.83481 -0.254705 7.91907e-06)
(8.83481 -0.254708 7.4592e-06)
(8.83481 -0.254711 6.92116e-06)
(8.83481 -0.254714 6.18219e-06)
(8.83481 -0.254716 5.32087e-06)
(8.83481 -0.254716 4.19727e-06)
(8.83481 -0.254717 3.11376e-06)
(8.83451 -0.254707 1.41507e-06)
(8.81983 -0.449691 -2.15244e-06)
(8.82013 -0.449708 -5.56275e-06)
(8.82013 -0.449707 -8.82222e-06)
(8.82013 -0.449706 -1.16845e-05)
(8.82013 -0.449705 -1.37449e-05)
(8.82013 -0.449704 -1.57299e-05)
(8.82013 -0.449703 -1.70818e-05)
(8.82013 -0.449702 -1.80348e-05)
(8.82013 -0.4497 -1.84013e-05)
(8.82013 -0.449699 -1.83207e-05)
(8.82012 -0.449698 -1.77245e-05)
(8.82012 -0.449697 -1.67593e-05)
(8.82012 -0.449695 -1.53788e-05)
(8.82012 -0.449694 -1.37633e-05)
(8.82012 -0.449693 -1.17998e-05)
(8.82012 -0.449692 -9.78617e-06)
(8.82012 -0.449692 -7.24562e-06)
(8.82012 -0.449692 -5.0207e-06)
(8.82012 -0.449691 -2.76702e-06)
(8.81983 -0.449674 -6.47935e-07)
(8.83957 -0.454987 3.4829e-07)
(8.83987 -0.455005 2.08339e-06)
(8.83987 -0.455005 4.16798e-06)
(8.83987 -0.455008 5.78081e-06)
(8.83987 -0.45501 7.08363e-06)
(8.83988 -0.455012 8.2696e-06)
(8.83988 -0.455014 9.25956e-06)
(8.83988 -0.455017 9.95873e-06)
(8.83989 -0.455019 1.04473e-05)
(8.83989 -0.455022 1.0633e-05)
(8.83989 -0.455024 1.06293e-05)
(8.83989 -0.455027 1.03638e-05)
(8.83989 -0.455029 9.95875e-06)
(8.8399 -0.455031 9.33694e-06)
(8.8399 -0.455033 8.59084e-06)
(8.8399 -0.455035 7.62674e-06)
(8.8399 -0.455036 6.39142e-06)
(8.8399 -0.455035 4.97593e-06)
(8.8399 -0.455036 3.72401e-06)
(8.8396 -0.455019 1.66014e-06)
(8.8154 -0.664136 -2.5511e-06)
(8.8157 -0.664161 -6.71433e-06)
(8.8157 -0.664161 -1.06919e-05)
(8.8157 -0.66416 -1.42468e-05)
(8.8157 -0.66416 -1.69103e-05)
(8.8157 -0.66416 -1.94252e-05)
(8.8157 -0.66416 -2.11985e-05)
(8.81569 -0.664161 -2.24298e-05)
(8.81569 -0.664161 -2.2937e-05)
(8.81569 -0.664162 -2.28659e-05)
(8.81569 -0.664162 -2.21522e-05)
(8.81569 -0.664162 -2.09648e-05)
(8.81569 -0.664163 -1.92735e-05)
(8.81569 -0.664163 -1.72727e-05)
(8.81569 -0.664164 -1.48941e-05)
(8.81569 -0.664164 -1.2399e-05)
(8.81569 -0.664164 -9.32511e-06)
(8.81569 -0.664166 -6.52148e-06)
(8.81569 -0.664166 -3.5772e-06)
(8.81539 -0.664141 -8.76031e-07)
(8.83456 -0.663082 2.0272e-07)
(8.83486 -0.663107 1.89518e-06)
(8.83486 -0.663106 3.99234e-06)
(8.83486 -0.663108 5.48973e-06)
(8.83486 -0.663108 6.60919e-06)
(8.83486 -0.663107 7.70657e-06)
(8.83486 -0.663107 8.69362e-06)
(8.83487 -0.663107 9.34915e-06)
(8.83487 -0.663106 9.84278e-06)
(8.83487 -0.663106 1.00058e-05)
(8.83487 -0.663105 1.00099e-05)
(8.83487 -0.663105 9.73284e-06)
(8.83487 -0.663105 9.3542e-06)
(8.83488 -0.663104 8.73518e-06)
(8.83488 -0.663104 8.05607e-06)
(8.83488 -0.663104 7.11442e-06)
(8.83488 -0.663104 5.85935e-06)
(8.83488 -0.663102 4.50783e-06)
(8.83487 -0.663101 3.50877e-06)
(8.83458 -0.663077 1.6616e-06)
(8.80016 -0.887705 -2.45948e-06)
(8.80046 -0.887738 -6.39533e-06)
(8.80045 -0.887739 -9.2863e-06)
(8.80045 -0.887738 -1.27688e-05)
(8.80045 -0.88774 -1.62775e-05)
(8.80045 -0.887743 -1.88018e-05)
(8.80045 -0.887746 -2.06788e-05)
(8.80045 -0.887749 -2.19189e-05)
(8.80044 -0.887752 -2.24294e-05)
(8.80044 -0.887755 -2.23732e-05)
(8.80044 -0.887758 -2.16611e-05)
(8.80044 -0.887761 -2.05014e-05)
(8.80044 -0.887764 -1.88389e-05)
(8.80044 -0.887767 -1.68993e-05)
(8.80044 -0.887769 -1.46938e-05)
(8.80043 -0.887771 -1.23143e-05)
(8.80043 -0.887773 -1.02102e-05)
(8.80043 -0.887777 -7.44581e-06)
(8.80043 -0.887779 -3.5819e-06)
(8.80014 -0.887747 -8.92481e-07)
(8.81108 -0.879546 -6.31756e-07)
(8.81137 -0.879577 3.85149e-07)
(8.81138 -0.879576 5.15478e-07)
(8.81138 -0.879575 1.06844e-06)
(8.81138 -0.879572 2.6357e-06)
(8.81138 -0.87957 3.11063e-06)
(8.81138 -0.879566 3.87972e-06)
(8.81138 -0.879563 4.20001e-06)
(8.81138 -0.879559 4.57791e-06)
(8.81138 -0.879556 4.67484e-06)
(8.81138 -0.879552 4.78219e-06)
(8.81138 -0.879549 4.65134e-06)
(8.81138 -0.879545 4.59129e-06)
(8.81138 -0.879542 4.27135e-06)
(8.81138 -0.87954 4.23051e-06)
(8.81138 -0.879537 3.73596e-06)
(8.81138 -0.879535 4.21561e-06)
(8.81138 -0.879534 3.38253e-06)
(8.81138 -0.879533 2.05885e-06)
(8.81108 -0.879501 1.39634e-06)
(8.76609 -1.11724 -2.28605e-06)
(8.76638 -1.11728 -4.88953e-06)
(8.76638 -1.11728 -7.43326e-06)
(8.76638 -1.11728 -1.01531e-05)
(8.76638 -1.11729 -1.20926e-05)
(8.76638 -1.11729 -1.39783e-05)
(8.76638 -1.1173 -1.5177e-05)
(8.76637 -1.1173 -1.60808e-05)
(8.76637 -1.11731 -1.63647e-05)
(8.76637 -1.11731 -1.63077e-05)
(8.76637 -1.11732 -1.5711e-05)
(8.76637 -1.11732 -1.4855e-05)
(8.76636 -1.11733 -1.35576e-05)
(8.76636 -1.11733 -1.21628e-05)
(8.76636 -1.11734 -1.03929e-05)
(8.76636 -1.11734 -8.7267e-06)
(8.76636 -1.11735 -6.56718e-06)
(8.76636 -1.11735 -4.75103e-06)
(8.76636 -1.11735 -2.44733e-06)
(8.76606 -1.11731 -2.78631e-07)
(8.75224 -1.10122 8.65127e-07)
(8.7525 -1.10125 -1.82947e-06)
(8.75249 -1.10124 -2.50821e-06)
(8.75249 -1.10124 -4.04417e-06)
(8.75249 -1.10124 -4.24753e-06)
(8.75249 -1.10123 -4.964e-06)
(8.75249 -1.10123 -5.07686e-06)
(8.75249 -1.10122 -5.33733e-06)
(8.75248 -1.10121 -5.24859e-06)
(8.75248 -1.10121 -5.17682e-06)
(8.75248 -1.1012 -4.82628e-06)
(8.75248 -1.10119 -4.51954e-06)
(8.75248 -1.10119 -3.94866e-06)
(8.75248 -1.10118 -3.52426e-06)
(8.75248 -1.10118 -2.70881e-06)
(8.75248 -1.10117 -2.30422e-06)
(8.75248 -1.10117 -1.15608e-06)
(8.75248 -1.10117 -1.29808e-06)
(8.75249 -1.10117 -5.04348e-07)
(8.75223 -1.10113 -1.79176e-06)
(8.70177 0.758687 1.52622e-07)
(8.70206 0.758714 -1.43767e-06)
(8.70206 0.758712 -3.88234e-07)
(8.70206 0.758711 -6.38253e-07)
(8.70206 0.75871 -1.40454e-07)
(8.70206 0.758708 -2.11529e-07)
(8.70206 0.758706 2.48062e-09)
(8.70206 0.758703 -3.57744e-08)
(8.70206 0.758701 5.82706e-08)
(8.70206 0.758698 1.57426e-08)
(8.70206 0.758696 7.08752e-08)
(8.70206 0.758694 6.13566e-09)
(8.70205 0.758691 7.44893e-08)
(8.70205 0.758689 -2.23178e-08)
(8.70205 0.758688 1.57419e-07)
(8.70205 0.758686 1.41618e-08)
(8.70205 0.758685 5.09819e-07)
(8.70205 0.758684 1.93603e-07)
(8.70206 0.758683 1.27064e-06)
(8.70177 0.758656 -2.96778e-07)
(8.72259 0.759952 -1.42045e-06)
(8.72288 0.759979 -2.08331e-06)
(8.72288 0.75998 -2.45286e-06)
(8.72288 0.759981 -3.15275e-06)
(8.72288 0.759983 -3.46152e-06)
(8.72288 0.759986 -3.97605e-06)
(8.72288 0.759988 -4.19687e-06)
(8.72288 0.759991 -4.45901e-06)
(8.72288 0.759994 -4.49418e-06)
(8.72287 0.759997 -4.51948e-06)
(8.72287 0.759999 -4.35324e-06)
(8.72287 0.760002 -4.18743e-06)
(8.72287 0.760004 -3.83333e-06)
(8.72287 0.760007 -3.53675e-06)
(8.72287 0.760009 -3.00018e-06)
(8.72287 0.76001 -2.62115e-06)
(8.72287 0.760012 -1.81658e-06)
(8.72287 0.760013 -1.30105e-06)
(8.72287 0.760014 -2.47234e-07)
(8.72257 0.759988 5.794e-07)
(8.74065 0.548396 -6.75554e-07)
(8.74094 0.548415 5.34763e-07)
(8.74094 0.548415 1.54269e-06)
(8.74094 0.548415 2.33805e-06)
(8.74094 0.548414 3.63331e-06)
(8.74094 0.548414 4.16472e-06)
(8.74094 0.548414 4.76947e-06)
(8.74094 0.548413 4.98764e-06)
(8.74094 0.548413 5.15992e-06)
(8.74094 0.548412 5.08269e-06)
(8.74094 0.548412 4.95888e-06)
(8.74094 0.548412 4.64341e-06)
(8.74094 0.548411 4.3456e-06)
(8.74094 0.548411 3.85891e-06)
(8.74094 0.548411 3.55652e-06)
(8.74094 0.548411 2.95504e-06)
(8.74094 0.54841 2.99873e-06)
(8.74094 0.54841 2.31527e-06)
(8.74094 0.54841 1.82702e-06)
(8.74065 0.548391 1.41423e-06)
(8.73264 0.543642 -1.19291e-06)
(8.73293 0.543661 -2.07151e-06)
(8.73293 0.543661 -2.36552e-06)
(8.73293 0.54366 -3.16785e-06)
(8.73293 0.54366 -3.94703e-06)
(8.73293 0.543661 -4.52426e-06)
(8.73293 0.543661 -4.8858e-06)
(8.73293 0.543661 -5.16511e-06)
(8.73293 0.543662 -5.22859e-06)
(8.73293 0.543662 -5.22226e-06)
(8.73293 0.543662 -5.0276e-06)
(8.73293 0.543663 -4.78965e-06)
(8.73293 0.543663 -4.38838e-06)
(8.73293 0.543664 -3.99384e-06)
(8.73293 0.543664 -3.45793e-06)
(8.73293 0.543664 -2.97392e-06)
(8.73293 0.543665 -2.45569e-06)
(8.73293 0.543666 -1.83156e-06)
(8.73293 0.543666 -4.35039e-07)
(8.73263 0.543648 3.56242e-07)
(8.753 0.343968 -3.12801e-07)
(8.75329 0.34398 8.72853e-07)
(8.75329 0.34398 2.30494e-06)
(8.75329 0.343982 3.25039e-06)
(8.75329 0.343983 4.09487e-06)
(8.75329 0.343984 4.72403e-06)
(8.75329 0.343985 5.27145e-06)
(8.75329 0.343987 5.55104e-06)
(8.75329 0.343988 5.73684e-06)
(8.75329 0.34399 5.69333e-06)
(8.7533 0.343991 5.58233e-06)
(8.7533 0.343993 5.27875e-06)
(8.7533 0.343994 4.96366e-06)
(8.7533 0.343995 4.46849e-06)
(8.7533 0.343996 4.03647e-06)
(8.7533 0.343998 3.40662e-06)
(8.7533 0.343998 2.87394e-06)
(8.7533 0.343998 2.15256e-06)
(8.7533 0.343999 1.96001e-06)
(8.753 0.343987 1.28658e-06)
(8.74844 0.334698 -9.17964e-07)
(8.74874 0.334709 -1.34956e-06)
(8.74874 0.334708 -1.57254e-06)
(8.74874 0.334707 -1.95236e-06)
(8.74873 0.334706 -2.07792e-06)
(8.74873 0.334704 -2.33191e-06)
(8.74873 0.334703 -2.42422e-06)
(8.74873 0.334702 -2.53209e-06)
(8.74873 0.3347 -2.50159e-06)
(8.74873 0.334699 -2.46785e-06)
(8.74873 0.334698 -2.30718e-06)
(8.74873 0.334696 -2.16114e-06)
(8.74873 0.334695 -1.88849e-06)
(8.74873 0.334694 -1.67183e-06)
(8.74873 0.334693 -1.305e-06)
(8.74873 0.334693 -1.06631e-06)
(8.74873 0.334692 -5.39266e-07)