/*--------------------------------*- C++ -*----------------------------------*\
| =========                 |                                                 |
| \\      /  F ield         | OpenFOAM: The Open Source CFD Toolbox           |
|  \\    /   O peration     | Version:  2212                                  |
|   \\  /    A nd           | Website:  www.openfoam.com                      |
|    \\/     M anipulation  |                                                 |
\*---------------------------------------------------------------------------*/
FoamFile
{
    version     2.0;
    format      ascii;
    arch        "LSB;label=32;scalar=64";
    class       surfaceScalarField;
    location    "0.0012";
    object      phi;
}
// * * * * * * * * * * * * * * * * * * * * * * * * * * * * * * * * * * * * * //

dimensions      [1 0 -1 0 0 0 0];

oriented        oriented;

internalField   nonuniform List<scalar> 
53899
(
-5.37e-05
0.012
-4.19e-05
0.0119
-2.92e-05
0.0119
-3.14e-05
0.012
-5.03e-05
0.012
-4.64e-05
0.012
0.0119
-6.53e-05
0.0122
-4.01e-05
0.012
-2.82e-05
0.012
-5.14e-05
0.0121
-6.4e-05
0.0121
-3.55e-05
0.012
0.012
0.000114
0.0119
6.47e-05
0.0119
-3.85e-08
0.0119
-3.29e-05
0.012
9.15e-05
0.0118
0.00016
0.0118
0.012
5.91e-05
0.012
-8.28e-05
0.0122
-0.000151
0.0121
-2.81e-05
0.012
-3.5e-05
0.012
-0.00011
0.0121
0.0121
-2.27e-05
0.012
4.4e-05
0.0121
8.34e-05
0.0121
4.89e-05
0.012
1.54e-05
0.012
1.82e-05
0.012
0.012
-7.76e-07
0.012
-1.64e-05
0.0121
-2.77e-05
0.0121
2.02e-05
0.012
-7.19e-06
0.012
-3.68e-05
0.0121
0.012
-2.53e-06
0.012
2.15e-05
0.0121
2.43e-05
0.0121
2.78e-05
0.012
2.59e-06
0.0121
2.1e-07
0.0121
0.012
-9.5e-06
0.012
2.16e-05
0.0121
1.52e-05
0.0121
3.12e-05
0.012
6.2e-06
0.0121
9.02e-06
0.0121
0.0121
-4.76e-05
0.0121
-1.21e-05
0.012
4.74e-06
0.0121
2.65e-05
0.012
4.49e-06
0.0121
3.17e-06
0.0121
0.0121
-7.04e-05
0.0121
-3.43e-05
0.012
8.83e-06
0.0121
1.91e-05
0.012
-2.54e-06
0.0121
-1.72e-05
0.0121
0.012
-5.28e-05
0.0122
-2.97e-05
0.012
2.4e-05
0.012
2.03e-05
0.012
-5.24e-06
0.0122
-2.5e-05
0.0121
0.012
-1.65e-05
0.0122
-4.22e-06
0.012
3.5e-05
0.012
2.96e-05
0.012
-5.94e-06
0.0122
-3.69e-05
0.0122
0.012
-4.11e-06
0.0122
-3.77e-07
0.0119
3.12e-05
0.0119
2.56e-05
0.0119
-6.66e-06
0.0122
-3.54e-05
0.0122
0.0119
6.72e-06
0.0122
3.23e-06
0.0119
2.14e-05
0.0119
1.85e-05
0.0119
-3.77e-06
0.0123
-2.52e-05
0.0122
0.0119
1.45e-05
0.0122
7.81e-06
0.0119
1.17e-05
0.0119
8.43e-06
0.0119
-1.49e-07
0.0123
-5.58e-06
0.0122
0.0119
1.97e-05
0.0121
9.68e-06
0.0119
2.62e-06
0.0119
-8.63e-06
0.0119
-9.54e-07
0.0122
9.25e-06
0.0122
0.0119
2.73e-05
0.0121
1.27e-05
0.0119
-9.24e-06
0.0119
-2.36e-05
0.012
-3.36e-06
0.0122
1.55e-05
0.0121
0.0119
3.08e-05
0.0121
1.31e-05
0.012
-2.15e-05
0.0119
-3.47e-05
0.012
-5.02e-06
0.0122
2.04e-05
0.0121
0.0119
2.58e-05
0.012
6e-06
0.012
-2.99e-05
0.012
-4.27e-05
0.012
-1.31e-06
0.0121
3.08e-05
0.0121
0.0119
1.81e-05
0.012
-4.43e-06
0.012
-3.51e-05
0.012
-4.62e-05
0.012
2.6e-06
0.0121
3.8e-05
0.012
0.012
1.14e-05
0.012
-1.35e-05
0.012
-3.76e-05
0.012
-4.62e-05
0.012
-1.88e-06
0.012
2.92e-05
0.012
0.012
5.28e-06
0.012
-1.85e-05
0.012
-3.88e-05
0.012
-4.22e-05
0.012
-8.46e-06
0.012
1.62e-05
0.012
0.012
-4.08e-06
0.012
-2.2e-05
0.0121
-4.15e-05
0.012
-3.81e-05
0.012
-1.24e-05
0.012
4.94e-06
0.012
0.012
-1.04e-05
0.012
-2.55e-05
0.0121
-4.1e-05
0.0121
-3.28e-05
0.012
-1.39e-05
0.012
-2.76e-06
0.012
0.012
-1.91e-05
0.0121
-2.89e-05
0.0121
-3.86e-05
0.0121
-2.78e-05
0.012
-1.26e-05
0.012
-4.97e-06
0.012
0.012
-2.93e-05
0.0121
-2.85e-05
0.0121
-2.74e-05
0.0121
-2.11e-05
0.012
-1.23e-05
0.012
-6.52e-06
0.012
0.012
-3.71e-05
0.0122
-1.53e-05
0.0121
5.74e-06
0.0121
-7.88e-06
0.012
-1.29e-05
0.012
-7.25e-06
0.012
0.0121
-5.11e-05
0.0122
1.06e-05
0.0121
6.71e-05
0.0121
1.34e-05
0.0121
-1.57e-05
0.012
-1e-05
0.012
0.0121
-6.38e-05
0.0123
3.78e-05
0.012
0.000115
0.012
2.46e-05
0.0122
-2.05e-05
0.0121
-1.32e-05
0.012
0.0121
-6.96e-05
0.0124
4.43e-05
0.0119
0.000107
0.012
1.96e-05
0.0123
-1.43e-05
0.0121
-8.46e-06
0.012
0.012
-7.21e-05
0.0124
3.06e-05
0.0118
6.66e-05
0.0119
8.5e-07
0.0123
-2.31e-06
0.0121
3.07e-06
0.012
0.012
-7.88e-05
0.0125
-3.12e-05
0.0118
-3.29e-05
0.0119
-3.75e-05
0.0123
1.24e-05
0.0121
2.57e-05
0.012
0.0121
-8.91e-05
0.0126
-8.71e-05
0.0118
-0.00013
0.012
-0.000102
0.0123
1.7e-06
0.012
5.01e-05
0.012
0.0121
-8.7e-05
0.0127
-0.000111
0.0119
-0.000187
0.0121
-0.00016
0.0123
-4.82e-05
0.0119
4.48e-05
0.0119
0.0122
-8.74e-05
0.0128
-0.000144
0.0119
-0.000232
0.0122
-0.000163
0.0123
-7.72e-05
0.0118
2.42e-05
0.0118
0.0122
-9.67e-05
0.0129
-0.000225
0.0121
-0.000288
0.0123
-0.000107
0.0121
-6.29e-05
0.0118
1.35e-05
0.0117
0.0122
-7.99e-05
0.0129
-0.000254
0.0123
-0.000255
0.0123
7.6e-05
0.0117
2.26e-06
0.0119
4.2e-05
0.0116
0.0123
2.92e-06
0.0129
-0.00012
0.0124
-0.000104
0.0122
0.000291
0.0113
0.000118
0.012
0.000163
0.0115
0.0124
4.71e-05
0.0129
-2.05e-05
0.0125
-1.92e-05
0.0122
0.000335
0.0109
0.000186
0.0121
0.000299
0.0113
0.0127
7.25e-05
0.0128
5.11e-05
0.0125
2.64e-05
0.0123
0.000272
0.0106
0.000197
0.0122
0.000298
0.0112
0.013
0.000112
0.0127
0.000213
0.0123
0.000165
0.0123
0.00021
0.0105
0.000194
0.0122
0.000226
0.0111
0.0132
0.000158
0.0125
0.000332
0.012
0.000242
0.0123
0.000169
0.0105
0.000188
0.0121
0.000182
0.0111
0.0134
0.000161
0.0123
0.000327
0.0117
0.000204
0.0124
9.46e-05
0.0106
0.000194
0.012
0.000158
0.0111
0.0135
0.000164
0.012
0.000288
0.0115
9.02e-05
0.0125
-8.99e-06
0.0107
0.00022
0.0116
0.000158
0.0111
0.0136
0.00018
0.0118
0.000262
0.0114
1.79e-05
0.0127
-3.77e-05
0.0107
0.000266
0.0113
0.000156
0.0112
0.0137
0.000183
0.0115
0.000221
0.0113
-5.85e-06
0.0129
-3.53e-05
0.0107
0.000262
0.0109
0.000128
0.0114
0.0139
0.000174
0.0113
0.000167
0.0113
-2.69e-05
0.0131
-5.52e-05
0.0107
0.000199
0.0106
5.76e-05
0.0115
0.0139
0.000154
0.0112
0.000108
0.0113
-7.82e-05
0.0132
-0.000131
0.0107
4.72e-06
0.0105
-9.42e-05
0.0116
0.0138
0.000129
0.011
4.11e-05
0.0114
-0.000168
0.0134
-0.000258
0.0108
-0.000255
0.0105
-0.000249
0.0115
0.0135
0.000105
0.0109
-1.8e-05
0.0115
-0.000269
0.0136
-0.000383
0.0109
-0.000445
0.0105
-0.000383
0.0114
0.0131
6.81e-05
0.0108
-5.24e-05
0.0116
-0.000304
0.0139
-0.000432
0.011
-0.000534
0.0106
-0.000479
0.0114
0.0125
1.04e-05
0.0108
-6.35e-05
0.0117
-0.000229
0.0141
-0.000406
0.0112
-0.000533
0.0107
-0.000488
0.0113
0.012
-3.13e-05
0.0109
-4.25e-05
0.0117
-7.16e-05
0.0141
-0.000272
0.0114
-0.00042
0.0109
-0.000369
0.0112
0.0116
-7.66e-05
0.0109
-6.26e-05
0.0117
0.000121
0.0139
-1.74e-05
0.0116
-0.000184
0.0111
-0.000185
0.0112
0.0114
-0.000118
0.011
-9.95e-05
0.0116
0.000247
0.0135
0.000178
0.0116
3.1e-06
0.0112
-5.49e-05
0.0113
0.0113
-0.000131
0.0112
-0.000124
0.0116
0.000294
0.013
0.000269
0.0116
0.000107
0.0114
1.87e-05
0.0114
0.0113
-0.000117
0.0113
-0.000114
0.0116
0.000293
0.0126
0.000281
0.0116
0.000138
0.0115
5.17e-05
0.0114
0.0114
-8.41e-05
0.0114
-7.87e-05
0.0116
0.000253
0.0122
0.000252
0.0116
0.000151
0.0116
7.1e-05
0.0115
0.0115
-3.76e-05
0.0114
-1.02e-05
0.0116
0.000216
0.012
0.000208
0.0117
0.000143
0.0117
7.36e-05
0.0116
0.0116
2.95e-05
0.0114
6.33e-05
0.0116
0.000223
0.0119
0.000214
0.0117
0.000168
0.0118
8.79e-05
0.0117
0.0117
7.37e-05
0.0113
0.000135
0.0115
0.000266
0.0118
0.000248
0.0118
0.000189
0.0118
0.000102
0.0118
0.0118
0.000182
0.0112
0.000265
0.0115
0.000355
0.0117
0.000317
0.0118
0.000248
0.0119
0.000134
0.012
0.0119
0.000301
0.0109
0.000405
0.0114
0.000478
0.0117
0.00043
0.0119
0.000322
0.012
0.00017
0.0121
0.0121
0.000482
0.0104
0.000599
0.0113
0.00067
0.0116
0.000556
0.012
0.000428
0.0122
0.000226
0.0123
0.0123
0.000647
0.00976
0.00072
0.0112
0.000776
0.0115
0.000688
0.0121
0.000522
0.0123
0.000289
0.0125
0.0126
0.000456
0.0093
0.000665
0.011
0.000784
0.0114
0.000659
0.0122
0.000532
0.0124
0.000298
0.0128
0.0129
-0.000395
0.00969
-0.000323
0.0109
-0.000178
0.0113
-1.14e-05
0.012
4.61e-05
0.0124
8.32e-05
0.0127
0.0129
-0.000263
0.00993
-0.00013
0.0107
-7.83e-05
0.0112
-5.23e-05
0.012
1.89e-05
0.0123
4.31e-05
0.0127
0.013
-0.000258
0.0102
-0.000185
0.0106
-0.000211
0.0112
-5.11e-05
0.0118
-2.99e-05
0.0122
3.38e-05
0.0126
0.013
-5.96e-05
0.0102
6.2e-05
0.0105
7.49e-05
0.0112
7.41e-05
0.0118
7.6e-05
0.0122
4.11e-05
0.0126
0.013
-7.95e-05
0.0103
-0.000128
0.0106
-0.000177
0.0112
-1.07e-05
0.0116
-4.32e-05
0.0123
8.19e-05
0.0125
0.0131
7.13e-05
0.0102
0.000265
0.0104
0.000322
0.0112
0.000291
0.0117
0.000327
0.0123
0.000209
0.0126
0.0133
5.07e-06
0.0102
3.75e-05
0.0104
-6.34e-06
0.0112
0.000159
0.0115
3.11e-05
0.0124
0.000102
0.0126
0.0135
0.000152
0.0101
0.000347
0.0102
0.000427
0.0111
0.00039
0.0115
0.000371
0.0124
0.000219
0.0127
0.0137
3.68e-05
0.0101
8.69e-05
0.0101
5.77e-05
0.0112
0.000218
0.0114
0.000119
0.0126
0.000172
0.0127
0.0139
0.000163
0.0099
0.00036
0.00991
0.000505
0.0111
0.00051
0.0114
0.000466
0.0126
0.000286
0.0129
0.0142
5.23e-05
0.00987
0.000273
0.00974
0.000261
0.0111
0.000416
0.0112
0.000313
0.0127
0.000333
0.0129
0.0145
0.000247
0.00964
0.000536
0.00949
0.000631
0.0109
0.000691
0.0112
0.000616
0.0128
0.00042
0.0131
0.0149
7.05e-05
0.00952
0.000481
0.00902
0.00051
0.011
0.000768
0.011
0.000527
0.0131
0.000476
0.0131
0.0154
0.000333
0.00917
0.000733
0.00864
0.00083
0.0108
0.000956
0.0108
0.000649
0.0133
0.000506
0.0133
0.0159
0.000191
0.009
0.000761
0.00812
0.000676
0.0109
0.000728
0.0106
0.000416
0.0136
0.000364
0.0134
0.0163
0.000202
0.00882
0.000442
0.00797
7.4e-05
0.0112
4.14e-05
0.0106
-0.000237
0.0139
4.27e-05
0.0131
0.0163
-0.00085
0.00963
-0.00125
0.00846
-0.00171
0.0116
-0.00177
0.0107
-0.00153
0.0137
-0.000937
0.0125
0.0153
-0.00103
0.0107
-0.00202
0.00944
-0.00293
0.0125
-0.00332
0.0111
-0.00286
0.0132
-0.00215
0.0118
0.0132
-0.00177
0.0123
-0.0032
0.011
-0.00393
0.0132
-0.0041
0.0113
-0.00327
0.0124
-0.00234
0.0109
0.0109
-0.000978
0.0132
-0.00225
0.0123
-0.0024
0.0134
-0.00264
0.0115
-0.00206
0.0118
-0.00154
0.0104
0.00934
-0.000512
0.0137
-0.0012
0.013
-0.000854
0.013
-0.000892
0.0116
-0.000543
0.0114
-0.000366
0.0102
0.00896
-0.000371
0.0141
-0.000432
0.0131
-0.000164
0.0127
-0.000255
0.0117
0.000151
0.011
-2.19e-05
0.0103
0.00893
0.000139
0.0139
0.000321
0.0129
0.000426
0.0126
0.000453
0.0116
0.000521
0.0109
0.00026
0.0106
0.00918
0.000392
0.0136
0.000537
0.0128
0.000644
0.0125
0.000535
0.0117
0.000503
0.011
0.000148
0.0109
0.00933
0.000425
0.0131
0.000609
0.0126
0.000643
0.0125
0.000633
0.0117
0.000501
0.0111
0.000178
0.0112
0.00951
0.000344
0.0128
0.000442
0.0125
0.000531
0.0124
0.000415
0.0118
0.000296
0.0112
8.52e-05
0.0114
0.0096
0.000346
0.0125
0.000432
0.0124
0.000427
0.0124
0.000362
0.0119
0.000234
0.0113
3.25e-05
0.0116
0.00963
0.000126
0.0123
0.000249
0.0123
0.000232
0.0124
0.00018
0.0119
0.000132
0.0114
3.17e-05
0.0117
0.00966
0.000222
0.0121
0.000283
0.0122
0.000221
0.0124
0.000156
0.012
9.54e-05
0.0114
6.18e-05
0.0118
0.00972
0.000383
0.0116
0.000354
0.0122
0.000242
0.0125
0.000257
0.0119
0.00017
0.0115
0.000223
0.0117
0.00994
0.000941
0.0106
0.000732
0.0123
0.00032
0.0128
0.000382
0.0117
0.000137
0.0117
1.42e-06
0.0118
0.00983
0.00185
0.00868
0.00146
0.0125
0.00141
0.0126
0.00312
0.00985
0.00307
0.0114
0.00283
0.0119
0.0126
0.00717
0.000848
0.00756
0.012
0.000546
0.0186
-0.00083
0.0105
-0.000594
0.0104
-0.000503
0.0115
0.012
0.00185
-0.000751
0.00536
0.00929
0.00622
0.0185
0.00348
0.0137
0.00199
0.0123
0.000246
0.0133
0.0122
-0.00394
0.00337
-0.000973
0.0063
0.00249
0.015
0.00227
0.0141
0.00154
0.0131
0.00155
0.0133
0.0138
0.000678
0.00268
0.000972
0.006
0.00194
0.0138
0.00122
0.0148
0.000545
0.0138
0.000396
0.0134
0.0141
0.000446
0.00226
0.0023
0.00411
0.00334
0.0126
0.00258
0.0155
0.00137
0.0149
0.00059
0.014
0.0146
0.0011
0.00115
0.00233
0.00277
0.00465
0.00994
0.00406
0.0159
0.00247
0.0163
0.00115
0.0151
0.0156
0.00094
0.000215
0.00189
0.00181
0.00462
0.00698
0.00506
0.0152
0.00344
0.0178
0.00157
0.0168
0.0171
0.000536
-0.000412
0.00149
0.000809
0.00391
0.00442
0.00539
0.0134
0.00414
0.0188
0.00181
0.019
0.0187
0.000944
-0.00151
0.002
-0.000478
0.00357
0.00264
0.00458
0.0121
0.0038
0.0194
0.00199
0.0206
0.0206
0.00134
-0.00303
0.00269
-0.00212
0.00369
0.00139
0.00395
0.0117
0.00272
0.0205
0.00125
0.022
0.0217
0.00153
-0.00474
0.00291
-0.00379
0.00333
0.000643
0.00301
0.0118
0.00203
0.0214
0.000648
0.0232
0.0222
0.00135
-0.00631
0.00246
-0.00516
0.00261
0.000222
0.00214
0.0124
0.00141
0.0222
0.000514
0.0241
0.0226
0.00155
-0.00795
0.00247
-0.00622
0.00198
0.000488
0.00138
0.013
0.000794
0.0231
0.000121
0.0248
0.0227
0.00126
-0.00926
0.00207
-0.00706
0.00108
0.00144
0.000122
0.0143
-0.00017
0.0235
-0.000356
0.0251
0.0222
0.00057
-0.00988
0.00101
-0.00747
0.000132
0.00244
-0.00116
0.016
-0.000869
0.0234
-0.000556
0.0248
0.0216
0.000131
-0.01
0.000143
-0.00733
-0.000335
0.00313
-0.0013
0.0173
-0.00112
0.0234
-0.000542
0.0244
0.0212
-0.00031
-0.00963
-0.000642
-0.00686
-0.00103
0.00389
-0.00123
0.018
-0.00157
0.0241
-0.00163
0.0248
0.0197
-0.000753
-0.00873
-0.00134
-0.00612
-0.00179
0.0047
-0.00204
0.0188
-0.00206
0.0247
-0.00134
0.0241
0.0183
-0.000817
-0.00774
-0.00128
-0.00552
-0.00142
0.00487
-0.00203
0.0198
-0.00172
0.0246
-0.00114
0.0235
0.017
-0.000625
-0.00692
-0.000955
-0.00503
-0.000979
0.00487
-0.00147
0.0205
-0.00115
0.0245
-0.000625
0.0231
0.0164
-0.000235
-0.00652
-0.000517
-0.00467
-0.000446
0.0048
-0.000303
0.0203
-0.000131
0.0245
-3.34e-05
0.0232
0.0165
2.77e-05
-0.00644
-0.000135
-0.00447
6.22e-05
0.00461
0.000551
0.0198
0.000793
0.0242
0.000459
0.0237
0.0172
0.000121
-0.0065
-6.07e-05
-0.00428
9.22e-05
0.00452
0.000575
0.0192
0.000691
0.0239
0.00039
0.0241
0.0178
-0.000208
-0.00624
-0.000509
-0.00393
-0.000278
0.00441
0.000252
0.0185
0.000379
0.0237
0.000196
0.0243
0.0181
-0.000653
-0.00556
-0.00127
-0.00323
-0.000838
0.00409
-0.000168
0.0179
7.19e-05
0.0236
8.67e-05
0.0245
0.0183
-0.00111
-0.00442
-0.00202
-0.00218
-0.00153
0.00379
-0.000743
0.0171
-9.26e-05
0.0233
0.000103
0.0246
0.0185
-0.00131
-0.0031
-0.00232
-0.00103
-0.002
0.00372
-0.00121
0.0164
-0.000211
0.0225
0.000412
0.0243
0.0191
-0.00132
-0.00175
-0.00212
-0.000112
-0.00174
0.00354
-0.00108
0.0157
-0.000535
0.0217
0.000587
0.0232
0.0197
-0.00131
-0.000388
-0.0019
0.000593
-0.0016
0.0034
-0.000788
0.0149
-0.000602
0.0214
0.0005
0.0217
0.0201
-0.00131
0.00106
-0.00179
0.00121
-0.00179
0.00362
-0.000637
0.0138
-0.000324
0.021
0.000482
0.0206
0.0205
-0.00143
0.00262
-0.00187
0.00179
-0.00226
0.00424
-0.000403
0.0123
0.000545
0.0198
0.000617
0.0204
0.0211
-0.00166
0.0044
-0.00213
0.00246
-0.00222
0.00446
0.000279
0.0101
0.00153
0.0186
0.000862
0.021
0.022
-0.00191
0.00636
-0.00249
0.0033
-0.00187
0.00394
0.001
0.00724
0.0022
0.0175
0.00108
0.0222
0.0231
-0.00231
0.00871
-0.0032
0.00447
-0.00208
0.00317
0.00023
0.00476
0.00206
0.0157
0.00121
0.023
0.0244
-0.00326
0.0121
-0.00413
0.00573
-0.00322
0.00293
-0.000914
0.00252
0.00207
0.0127
0.00135
0.0237
0.0258
-0.00274
0.0148
-0.00459
0.00779
-0.004
0.00304
-0.00148
0.000527
0.00176
0.00925
0.00164
0.0238
0.0274
-0.00124
0.016
-0.00282
0.00924
-0.00248
0.00274
-0.00133
-0.000307
0.000958
0.00697
0.00177
0.0229
0.0292
0.000841
0.0152
0.000354
0.00959
0.00014
0.00287
-0.000499
0.000114
0.000983
0.00587
0.00189
0.0221
0.0311
-0.000888
-3.15e-05
-0.000816
-3.6e-05
-0.00071
-4.45e-05
-0.000628
-1.85e-05
-0.000541
-2.69e-05
-0.000459
-3.04e-05
-0.000382
-3.58e-05
-0.000307
-4.72e-05
-0.00023
-5.79e-05
-0.000154
-6.29e-05
-7.29e-05
-7.23e-05
6.61e-06
-7.6e-05
8.99e-05
-8.61e-05
0.000171
-9.22e-05
0.000251
-9.85e-05
0.000329
-0.000101
0.000407
-0.000102
0.000486
-9.88e-05
0.000568
-9.28e-05
0.000653
-8.27e-05
0.000742
-7.09e-05
0.000835
-5.99e-05
0.000933
-4.74e-05
0.00103
-3.35e-05
0.00114
-3.1e-05
0.00125
-2.5e-05
0.00136
-2.05e-05
0.00148
-3.65e-05
0.00158
-2.68e-05
0.0017
-6.01e-05
0.0018
-3.91e-05
0.00192
-7.92e-05
0.00201
-6.47e-05
0.00213
-9.7e-05
0.00224
-0.0001
0.00236
-0.000107
0.00248
-0.000121
0.00261
-0.000123
0.00275
-0.000143
0.00289
-0.00014
0.00304
-0.00016
0.0032
-0.000166
0.0034
-0.000208
0.0036
-0.000206
0.00382
-0.000235
0.00409
-0.000291
0.00443
-0.000363
0.00478
-0.000386
0.00525
-0.000512
0.00588
-0.000671
0.00675
-0.000928
-0.00132
0.00804
-0.000882
-9.87e-05
-0.000797
-9.31e-05
-0.000704
-9.13e-05
-0.000623
-5.88e-05
-0.000535
-8.07e-05
-0.000463
-7.92e-05
-0.000388
-9.46e-05
-0.000314
-0.000106
-0.000236
-0.000121
-0.000154
-0.00013
-7.18e-05
-0.000141
9.67e-06
-0.000147
9e-05
-0.000161
0.00017
-0.000172
0.000249
-0.000182
0.000329
-0.000188
0.000411
-0.000188
0.000493
-0.000182
0.000578
-0.000173
0.000662
-0.000157
0.000748
-0.000137
0.000837
-0.000118
0.000932
-0.000102
0.00102
-7.8e-05
0.00112
-8.41e-05
0.00123
-8.14e-05
0.00133
-6.85e-05
0.00144
-0.000105
0.00155
-9.59e-05
0.00167
-0.000164
0.00176
-0.000111
0.00188
-0.000196
0.00197
-0.000159
0.0021
-0.000241
0.0022
-0.000219
0.00232
-0.000248
0.00245
-0.000265
0.00257
-0.000266
0.00271
-0.000305
0.00285
-0.000297
0.003
-0.000326
0.00316
-0.000348
0.00336
-0.000425
0.00353
-0.000401
0.00372
-0.000442
0.004
-0.000588
0.0043
-0.000692
0.00462
-0.000744
0.005
-0.000932
0.00545
-0.00118
0.00597
-0.0015
-0.00203
0.00663
-0.00083
-0.000164
-0.000762
-0.000161
-0.000685
-0.000158
-0.00061
-0.000131
-0.000531
-0.000162
-0.00046
-0.000156
-0.000383
-0.000172
-0.000305
-0.000177
-0.000226
-0.000189
-0.000144
-0.000197
-6.13e-05
-0.000205
2.11e-05
-0.000209
0.000103
-0.000221
0.000186
-0.000231
0.000271
-0.000241
0.000356
-0.000246
0.000442
-0.000248
0.000527
-0.000243
0.000615
-0.000237
0.000703
-0.000223
0.000793
-0.000209
0.000883
-0.000198
0.000975
-0.00019
0.00107
-0.000174
0.00116
-0.000183
0.00126
-0.000202
0.00136
-0.000183
0.00147
-0.000225
0.00158
-0.00023
0.00169
-0.000302
0.0018
-0.000244
0.00191
-0.000337
0.00201
-0.000296
0.00214
-0.000402
0.00225
-0.000353
0.00238
-0.000405
0.0025
-0.000406
0.00263
-0.000424
0.00275
-0.000458
0.00289
-0.000465
0.00304
-0.000504
0.00322
-0.000558
0.0034
-0.000632
0.00357
-0.000609
0.00377
-0.000666
0.00404
-0.000889
0.0043
-0.000986
0.00461
-0.00109
0.00494
-0.0013
0.00529
-0.00158
0.00566
-0.00192
-0.00244
0.00601
-0.000775
-0.00022
-0.000725
-0.000232
-0.000658
-0.000241
-0.000586
-0.000225
-0.000517
-0.000252
-0.00044
-0.000245
-0.000365
-0.000253
-0.000286
-0.00025
-0.000207
-0.000251
-0.000127
-0.000252
-4.54e-05
-0.000256
3.5e-05
-0.000252
0.000116
-0.000259
0.0002
-0.000269
0.000288
-0.000282
0.000377
-0.00029
0.000468
-0.000297
0.000558
-0.000296
0.000653
-0.000299
0.000744
-0.000294
0.000836
-0.000297
0.000926
-0.000304
0.00101
-0.000309
0.00111
-0.000315
0.0012
-0.000327
0.00129
-0.000354
0.0014
-0.000351
0.0015
-0.000385
0.0016
-0.00039
0.00171
-0.00047
0.00183
-0.000407
0.00194
-0.000494
0.00206
-0.000441
0.00217
-0.000542
0.00228
-0.000489
0.00242
-0.00056
0.00252
-0.000538
0.00265
-0.000577
0.00278
-0.000612
0.00292
-0.000623
0.00306
-0.000667
0.00323
-0.000754
0.00339
-0.000823
0.00357
-0.000822
0.00378
-0.000908
0.004
-0.00115
0.00425
-0.00127
0.00451
-0.0014
0.00477
-0.0016
0.00507
-0.00193
0.00528
-0.00219
-0.00264
0.00544
-0.000748
-0.000278
-0.000703
-0.000306
-0.000639
-0.000326
-0.000565
-0.000318
-0.000495
-0.000336
-0.000416
-0.000327
-0.000339
-0.000323
-0.000262
-0.000312
-0.000184
-0.000305
-0.000107
-0.000299
-2.85e-05
-0.000299
4.91e-05
-0.000291
0.000129
-0.000297
0.000214
-0.000309
0.000303
-0.000325
0.000395
-0.000335
0.000492
-0.000346
0.000591
-0.00035
0.000688
-0.000365
0.000781
-0.000375
0.000872
-0.000396
0.00096
-0.00042
0.00104
-0.00044
0.00113
-0.000463
0.00123
-0.000488
0.00131
-0.00051
0.00142
-0.000528
0.00153
-0.000558
0.00163
-0.000553
0.00174
-0.000622
0.00186
-0.000556
0.00198
-0.000634
0.0021
-0.000569
0.00221
-0.000659
0.00231
-0.0006
0.00244
-0.000692
0.00254
-0.00065
0.00267
-0.000722
0.00279
-0.000756
0.00293
-0.000775
0.00305
-0.000813
0.00321
-0.000928
0.00337
-0.001
0.00355
-0.00103
0.00374
-0.00113
0.00395
-0.0014
0.00417
-0.00154
0.00439
-0.00167
0.00464
-0.00191
0.00483
-0.00217
0.00501
-0.00242
-0.00279
0.0051
-0.000724
-0.000321
-0.000685
-0.000364
-0.00062
-0.000392
-0.000545
-0.000386
-0.000469
-0.000396
-0.000392
-0.000383
-0.000309
-0.000376
-0.000231
-0.000359
-0.000155
-0.000351
-8.08e-05
-0.000348
-8.44e-06
-0.000351
6.55e-05
-0.000347
0.000141
-0.000349
0.000225
-0.000361
0.000315
-0.000373
0.00041
-0.000378
0.000508
-0.000391
0.000606
-0.000404
0.000703
-0.000433
0.000796
-0.000458
0.000885
-0.000495
0.000967
-0.000532
0.00105
-0.000566
0.00114
-0.000597
0.00124
-0.000627
0.00134
-0.000655
0.00144
-0.000669
0.00155
-0.000693
0.00167
-0.000676
0.00177
-0.000718
0.00189
-0.00066
0.002
-0.000734
0.00212
-0.000669
0.00222
-0.000754
0.00233
-0.000698
0.00244
-0.000795
0.00255
-0.000753
0.00267
-0.000845
0.00279
-0.000876
0.00291
-0.000913
0.00303
-0.000944
0.00318
-0.0011
0.00334
-0.00118
0.00352
-0.00122
0.00369
-0.00133
0.00386
-0.00161
0.00406
-0.00178
0.00428
-0.00195
0.00447
-0.00215
0.00463
-0.00238
0.00477
-0.00262
-0.00293
0.00485
-0.000726
-0.000361
-0.00068
-0.000405
-0.000606
-0.000426
-0.000521
-0.000422
-0.000441
-0.000428
-0.000356
-0.000415
-0.000273
-0.000411
-0.000195
-0.000401
-0.000121
-0.000404
-5.17e-05
-0.000412
1.46e-05
-0.000418
8.45e-05
-0.000417
0.000161
-0.000416
0.000245
-0.000424
0.000336
-0.00043
0.000428
-0.00043
0.000522
-0.000449
0.000613
-0.000473
0.000705
-0.000515
0.000792
-0.000549
0.000878
-0.000594
0.000965
-0.000634
0.00106
-0.000668
0.00116
-0.000699
0.00126
-0.000714
0.00136
-0.000736
0.00147
-0.000741
0.00158
-0.000756
0.0017
-0.000742
0.0018
-0.00077
0.00192
-0.000731
0.00202
-0.000792
0.00212
-0.000736
0.00222
-0.000827
0.00234
-0.000782
0.00245
-0.000884
0.00256
-0.000846
0.00266
-0.000948
0.00277
-0.000979
0.00289
-0.00104
0.00301
-0.00107
0.00315
-0.00125
0.0033
-0.00136
0.00345
-0.00139
0.0036
-0.00151
0.00377
-0.00181
0.00397
-0.00203
0.00418
-0.00219
0.00433
-0.00234
0.00447
-0.00256
0.00459
-0.00278
-0.00307
0.00468
-0.000737
-0.000397
-0.00068
-0.000432
-0.000598
-0.000444
-0.000504
-0.000441
-0.000418
-0.000441
-0.000329
-0.000443
-0.000248
-0.000449
-0.000173
-0.000456
-0.000103
-0.00047
-3.41e-05
-0.000485
3.33e-05
-0.000494
0.000104
-0.000495
0.000182
-0.000495
0.000265
-0.000504
0.00035
-0.000508
0.000435
-0.000515
0.000519
-0.00054
0.000602
-0.000566
0.000688
-0.000609
0.000774
-0.000635
0.000866
-0.000666
0.000961
-0.000693
0.00106
-0.000714
0.00116
-0.000736
0.00127
-0.000749
0.00137
-0.000764
0.00149
-0.000771
0.0016
-0.000777
0.00171
-0.000764
0.00182
-0.0008
0.00193
-0.00079
0.00202
-0.000852
0.00212
-0.00082
0.00222
-0.000927
0.00233
-0.000898
0.00243
-0.000999
0.00254
-0.000969
0.00265
-0.00108
0.00275
-0.00109
0.00287
-0.00117
0.00299
-0.0012
0.00312
-0.00139
0.00324
-0.00149
0.00336
-0.00153
0.00349
-0.00165
0.00364
-0.00198
0.00385
-0.00226
0.00404
-0.00242
0.00419
-0.00252
0.00432
-0.00273
0.00444
-0.00294
-0.00324
0.00457
-0.000704
-0.000415
-0.00065
-0.000445
-0.000566
-0.000459
-0.000479
-0.000463
-0.000395
-0.000471
-0.000311
-0.000489
-0.000235
-0.000504
-0.000161
-0.000521
-8.87e-05
-0.00054
-1.66e-05
-0.000561
5.46e-05
-0.000574
0.00013
-0.000581
0.000211
-0.000586
0.000292
-0.000598
0.000371
-0.00061
0.000447
-0.000623
0.000526
-0.000646
0.000608
-0.000656
0.000694
-0.000679
0.000784
-0.000686
0.000879
-0.000706
0.000971
-0.000718
0.00107
-0.000735
0.00117
-0.000752
0.00128
-0.000758
0.00139
-0.000766
0.0015
-0.000777
0.00161
-0.0008
0.00172
-0.00082
0.00182
-0.000865
0.00193
-0.000883
0.00203
-0.000951
0.00213
-0.000937
0.00223
-0.00104
0.00233
-0.00102
0.00242
-0.00112
0.00253
-0.0011
0.00264
-0.00121
0.00274
-0.00122
0.00284
-0.00129
0.00294
-0.00132
0.00305
-0.00152
0.00317
-0.00161
0.00327
-0.00164
0.00337
-0.00177
0.00352
-0.00215
0.0037
-0.00245
0.00389
-0.00263
0.00404
-0.00269
0.00421
-0.00292
0.00436
-0.00312
-0.00343
0.00452
-0.000741
-0.000474
-0.000662
-0.000496
-0.00057
-0.000512
-0.000486
-0.000518
-0.000399
-0.000534
-0.000319
-0.000553
-0.000241
-0.000573
-0.000166
-0.000592
-8.89e-05
-0.000615
-9.61e-06
-0.000641
6.7e-05
-0.000659
0.000148
-0.00067
0.000229
-0.000681
0.000305
-0.000697
0.000378
-0.00071
0.000453
-0.000713
0.000534
-0.000723
0.000617
-0.000716
0.000701
-0.000725
0.000789
-0.000724
0.00088
-0.000743
0.000973
-0.000754
0.00107
-0.00077
0.00118
-0.000785
0.00129
-0.000789
0.00139
-0.000809
0.0015
-0.000836
0.0016
-0.000876
0.00171
-0.000914
0.00181
-0.000959
0.00192
-0.000988
0.00201
-0.00105
0.00212
-0.00106
0.00223
-0.00115
0.00233
-0.00113
0.00242
-0.00122
0.00252
-0.00121
0.00262
-0.00132
0.00271
-0.00133
0.00279
-0.0014
0.0029
-0.00144
0.00299
-0.00163
0.00306
-0.0017
0.00314
-0.00173
0.00326
-0.00189
0.0034
-0.00229
0.00351
-0.00257
0.00368
-0.00281
0.00388
-0.0029
0.00412
-0.00318
0.00433
-0.00334
-0.00366
0.00453
-0.000662
-0.000527
-0.000607
-0.000553
-0.000533
-0.00058
-0.000465
-0.000587
-0.000388
-0.00061
-0.000315
-0.000626
-0.000237
-0.00065
-0.00016
-0.00067
-8.2e-05
-0.000696
1.06e-06
-0.000723
8.38e-05
-0.000738
0.000167
-0.000747
0.000247
-0.000756
0.000322
-0.000765
0.000399
-0.000767
0.000476
-0.000768
0.000557
-0.000776
0.000637
-0.000771
0.000718
-0.000789
0.000803
-0.000799
0.000891
-0.000823
0.000986
-0.000833
0.00109
-0.000843
0.00119
-0.000855
0.00129
-0.000875
0.00139
-0.000901
0.00149
-0.000941
0.00159
-0.000978
0.00169
-0.00102
0.00181
-0.00108
0.00192
-0.00111
0.00201
-0.00117
0.00212
-0.00119
0.00222
-0.00128
0.00232
-0.00126
0.00242
-0.00134
0.00252
-0.00133
0.00261
-0.00142
0.00269
-0.00142
0.00277
-0.00148
0.00286
-0.00155
0.00292
-0.00171
0.00296
-0.00175
0.00301
-0.0018
0.00313
-0.00203
0.00323
-0.00241
0.00329
-0.00264
0.00345
-0.00298
0.00371
-0.00317
0.00404
-0.00353
0.00435
-0.00367
-0.00397
0.00465
-0.000708
-0.000618
-0.000632
-0.000646
-0.000545
-0.00068
-0.000467
-0.000682
-0.00039
-0.000708
-0.000313
-0.000722
-0.000238
-0.000741
-0.000161
-0.000751
-7.87e-05
-0.000763
6.14e-06
-0.000775
9.18e-05
-0.000778
0.000177
-0.000783
0.000258
-0.000793
0.000337
-0.000804
0.000416
-0.000814
0.000493
-0.000825
0.000569
-0.000845
0.000646
-0.000852
0.000727
-0.000878
0.000813
-0.00089
0.000906
-0.000911
0.001
-0.000915
0.0011
-0.000926
0.0012
-0.000949
0.00129
-0.000983
0.00138
-0.00102
0.00148
-0.00106
0.00159
-0.00111
0.00169
-0.00116
0.00179
-0.00122
0.0019
-0.00128
0.00201
-0.00132
0.00212
-0.00133
0.00222
-0.00139
0.00232
-0.00136
0.00242
-0.00144
0.00252
-0.00143
0.00259
-0.0015
0.00267
-0.00151
0.00275
-0.00158
0.00282
-0.00164
0.00281
-0.00172
0.00284
-0.00181
0.0029
-0.00188
0.003
-0.00214
0.00304
-0.00247
0.00308
-0.0027
0.00324
-0.00315
0.00355
-0.00348
0.00397
-0.00395
0.00445
-0.00416
-0.00444
0.00492
-0.000643
-0.000699
-0.000587
-0.000725
-0.000514
-0.00077
-0.000442
-0.000775
-0.000374
-0.000797
-0.0003
-0.000803
-0.000226
-0.000806
-0.000147
-0.000802
-6.4e-05
-0.000801
1.99e-05
-0.000804
0.000103
-0.000808
0.000186
-0.000816
0.000267
-0.00083
0.000347
-0.000845
0.000427
-0.000865
0.000504
-0.000888
0.000578
-0.000917
0.000655
-0.000933
0.000739
-0.000958
0.00083
-0.000966
0.000926
-0.000985
0.00102
-0.001
0.00111
-0.00103
0.0012
-0.00107
0.00129
-0.00112
0.00138
-0.00118
0.00148
-0.00123
0.00158
-0.00129
0.00169
-0.00134
0.00179
-0.00137
0.0019
-0.0014
0.00202
-0.00142
0.00214
-0.00142
0.00223
-0.00145
0.00233
-0.00144
0.00242
-0.00151
0.00251
-0.00151
0.00257
-0.00156
0.00264
-0.00159
0.00269
-0.00163
0.00272
-0.00169
0.00269
-0.00171
0.00272
-0.00186
0.00278
-0.00195
0.00281
-0.00219
0.00281
-0.00248
0.00292
-0.00282
0.00315
-0.00339
0.00355
-0.00388
0.00408
-0.00448
0.00471
-0.00479
-0.0051
0.00537
-0.000698
-0.000796
-0.000621
-0.000822
-0.000533
-0.000865
-0.000449
-0.000856
-0.000369
-0.000866
-0.000288
-0.000857
-0.000209
-0.00085
-0.000129
-0.000838
-4.77e-05
-0.000833
3.11e-05
-0.000836
0.00011
-0.000844
0.000189
-0.000855
0.000269
-0.000871
0.000347
-0.00089
0.000425
-0.000918
0.0005
-0.000942
0.000575
-0.000969
0.000661
-0.000985
0.000752
-0.00101
0.000843
-0.00103
0.000934
-0.00107
0.00102
-0.00111
0.0011
-0.00117
0.00118
-0.00123
0.00127
-0.0013
0.00136
-0.00135
0.00146
-0.00139
0.00157
-0.00142
0.00168
-0.00144
0.0018
-0.00145
0.00191
-0.00146
0.00203
-0.00147
0.00214
-0.00149
0.00224
-0.00152
0.00234
-0.00153
0.00243
-0.00159
0.0025
-0.00157
0.00256
-0.00161
0.00261
-0.00163
0.00264
-0.00166
0.00265
-0.00171
0.00262
-0.00171
0.0026
-0.00186
0.00262
-0.00199
0.00268
-0.00227
0.00274
-0.00255
0.00293
-0.00301
0.00333
-0.0038
0.00395
-0.00451
0.00467
-0.0052
0.00541
-0.00554
-0.00587
0.00617
-0.000654
-0.000873
-0.000587
-0.00088
-0.000499
-0.000912
-0.000418
-0.000894
-0.000335
-0.000905
-0.000257
-0.000891
-0.000178
-0.00089
-0.000102
-0.00088
-2.78e-05
-0.000879
4.36e-05
-0.000882
0.000115
-0.000886
0.000191
-0.000898
0.000266
-0.000913
0.00034
-0.000935
0.000416
-0.000965
0.000493
-0.000989
0.000575
-0.00102
0.000662
-0.00104
0.000751
-0.00109
0.000836
-0.00113
0.000916
-0.00119
0.000994
-0.00125
0.00107
-0.00133
0.00116
-0.00138
0.00125
-0.00141
0.00136
-0.00143
0.00146
-0.00146
0.00158
-0.00148
0.0017
-0.00149
0.00182
-0.00151
0.00193
-0.00153
0.00204
-0.00156
0.00215
-0.00159
0.00225
-0.00162
0.00236
-0.00163
0.00244
-0.00167
0.00251
-0.00166
0.00256
-0.00168
0.00259
-0.00169
0.0026
-0.0017
0.00258
-0.0017
0.00256
-0.0017
0.00255
-0.00187
0.0026
-0.00206
0.00271
-0.00239
0.00291
-0.00276
0.00339
-0.0035
0.00406
-0.00449
0.00495
-0.00541
0.00588
-0.00614
0.00679
-0.00646
-0.00661
0.0075
-0.000692
-0.000945
-0.000601
-0.000926
-0.000499
-0.000952
-0.000405
-0.000928
-0.000319
-0.000939
-0.000236
-0.000932
-0.000157
-0.000938
-8.33e-05
-0.000934
-1.34e-05
-0.000935
5.46e-05
-0.000938
0.000124
-0.000945
0.000193
-0.000959
0.000261
-0.000973
0.000331
-0.000994
0.000406
-0.00102
0.000487
-0.00105
0.000568
-0.00108
0.00065
-0.00112
0.000727
-0.00118
0.000803
-0.00124
0.00088
-0.00131
0.000961
-0.00135
0.00105
-0.00139
0.00115
-0.00141
0.00125
-0.00144
0.00136
-0.00147
0.00147
-0.0015
0.00158
-0.00153
0.0017
-0.00156
0.00182
-0.00159
0.00193
-0.00161
0.00204
-0.00164
0.00215
-0.00167
0.00225
-0.00169
0.00236
-0.00171
0.00244
-0.00174
0.00251
-0.00174
0.00257
-0.00175
0.00259
-0.00173
0.00258
-0.00172
0.00255
-0.00171
0.00255
-0.00173
0.0026
-0.00196
0.00276
-0.00224
0.00308
-0.00272
0.00362
-0.00332