/*--------------------------------*- C++ -*----------------------------------*\
| =========                 |                                                 |
| \\      /  F ield         | OpenFOAM: The Open Source CFD Toolbox           |
|  \\    /   O peration     | Version:  2212                                  |
|   \\  /    A nd           | Website:  www.openfoam.com                      |
|    \\/     M anipulation  |                                                 |
\*---------------------------------------------------------------------------*/
FoamFile
{
    version     2.0;
    format      ascii;
    arch        "LSB;label=32;scalar=64";
    class       surfaceScalarField;
    location    "4.8e-05";
    object      phi;
}
// * * * * * * * * * * * * * * * * * * * * * * * * * * * * * * * * * * * * * //

dimensions      [1 0 -1 0 0 0 0];

oriented        oriented;

internalField   nonuniform List<scalar> 
13427
(
-5.05203e-11
-2.85903e-08
8.76075e-12
-7.66159e-11
-5.10782e-08
6.94985e-11
-7.28235e-08
1.61318e-10
-9.3525e-08
6.90749e-10
-1.12235e-07
1.21893e-09
-1.38483e-07
2.11294e-09
-1.74302e-07
2.81882e-09
-1.97542e-07
3.76556e-09
-2.04376e-07
4.38588e-09
-2.22393e-07
4.64885e-09
-2.31921e-07
4.52846e-09
-2.5461e-07
4.20576e-09
-2.91761e-07
3.20018e-09
-3.16457e-07
2.1759e-09
-3.37709e-07
7.66283e-10
-3.66661e-07
-1.30528e-09
-4.11771e-07
-3.02425e-09
-4.45531e-07
-3.41244e-09
-4.71181e-07
-4.57277e-07
-1.26592e-10
-2.73822e-08
2.89069e-11
-1.87452e-10
-4.89394e-08
-1.69937e-10
-6.98144e-08
-1.25428e-10
-8.96054e-08
3.81219e-10
-1.07625e-07
8.2989e-10
-1.3277e-07
1.7475e-09
-1.67217e-07
2.59206e-09
-1.8943e-07
3.51923e-09
-1.96247e-07
4.14889e-09
-2.13572e-07
4.7726e-09
-2.22729e-07
5.11373e-09
-2.44423e-07
4.83214e-09
-2.80705e-07
4.16344e-09
-3.04249e-07
3.20097e-09
-3.24905e-07
2.13148e-09
-3.52943e-07
4.76008e-10
-3.96221e-07
-7.48716e-10
-4.29424e-07
-1.58519e-09
-4.54495e-07
-4.40812e-07
-1.389e-10
-2.61523e-08
3.50294e-11
-2.32422e-10
-4.67056e-08
-2.96631e-10
-6.66894e-08
-2.33487e-10
-8.55766e-08
3.07107e-10
-1.02857e-07
8.69696e-10
-1.26935e-07
1.90578e-09
-1.59958e-07
2.94793e-09
-1.8129e-07
4.01286e-09
-1.87953e-07
4.97195e-09
-2.04652e-07
5.87511e-09
-2.13335e-07
6.59803e-09
-2.34305e-07
6.62114e-09
-2.69206e-07
6.41427e-09
-2.92099e-07
5.26798e-09
-3.12172e-07
4.2653e-09
-3.39145e-07
2.33711e-09
-3.80694e-07
9.20713e-10
-4.13184e-07
-3.12707e-10
-4.37975e-07
-4.23822e-07
-1.89763e-10
-2.4941e-08
4.47359e-11
-3.21691e-10
-4.44948e-08
-4.72539e-10
-6.35858e-08
-3.90532e-10
-8.15768e-08
1.1491e-10
-9.8091e-08
6.52567e-10
-1.21131e-07
1.79391e-09
-1.5267e-07
2.89415e-09
-1.73136e-07
4.11342e-09
-1.79611e-07
5.34979e-09
-1.95585e-07
6.41512e-09
-2.0384e-07
7.29578e-09
-2.24235e-07
7.62812e-09
-2.57502e-07
7.59323e-09
-2.79807e-07
6.49164e-09
-2.9917e-07
5.57902e-09
-3.25389e-07
3.78746e-09
-3.65409e-07
2.37005e-09
-3.97094e-07
6.93099e-10
-4.21122e-07
-4.06061e-07
-2.57579e-10
-2.37756e-08
6.074e-11
-4.07158e-10
-4.24215e-08
-6.27301e-10
-6.06237e-08
-5.51526e-10
-7.77869e-08
-3.80075e-11
-9.35409e-08
4.41756e-10
-1.15568e-07
1.64891e-09
-1.4563e-07
2.88578e-09
-1.65334e-07
4.29554e-09
-1.71556e-07
5.75024e-09
-1.86931e-07
6.9683e-09
-1.94772e-07
8.09196e-09
-2.14566e-07
8.66569e-09
-2.46196e-07
8.78375e-09
-2.681e-07
7.85255e-09
-2.86539e-07
6.86549e-09
-3.12423e-07
5.43469e-09
-3.50777e-07
3.63248e-09
-3.81505e-07
1.76241e-09
-4.04854e-07
-3.88344e-07
-2.88197e-10
-2.27123e-08
6.86918e-11
-4.51952e-10
-4.0472e-08
-6.99557e-10
-5.79076e-08
-5.84461e-10
-7.42262e-08
-4.839e-11
-8.92622e-08
4.87756e-10
-1.10416e-07
1.78188e-09
-1.39024e-07
3.17449e-09
-1.581e-07
4.71782e-09
-1.63967e-07
6.31926e-09
-1.78897e-07
7.58661e-09
-1.86351e-07
8.84875e-09
-2.05581e-07
9.53728e-09
-2.35651e-07
9.78686e-09
-2.57277e-07
9.06863e-09
-2.74906e-07
8.03827e-09
-3.00404e-07
6.64455e-09
-3.37379e-07
4.44589e-09
-3.66904e-07
2.74118e-09
-3.90164e-07
-3.71424e-07
-3.42003e-10
-2.17465e-08
8.97043e-11
-5.57551e-10
-3.8659e-08
-8.68585e-10
-5.54216e-08
-7.44253e-10
-7.0907e-08
-3.24218e-10
-8.53998e-08
2.59542e-10
-1.05689e-07
1.58656e-09
-1.32913e-07
3.02992e-09
-1.51468e-07
4.6157e-09
-1.56955e-07
6.22612e-09
-1.71522e-07
7.58714e-09
-1.78634e-07
8.88022e-09
-1.97331e-07
9.68836e-09
-2.26145e-07
9.94704e-09
-2.4734e-07
9.49405e-09
-2.64371e-07
8.50805e-09
-2.89354e-07
7.14852e-09
-3.25259e-07
4.73878e-09
-3.53639e-07
3.2236e-09
-3.77017e-07
-3.55605e-07
-4.12396e-10
-2.0844e-08
1.17942e-10
-7.31566e-10
-3.69988e-08
-1.15613e-09
-5.30447e-08
-1.20748e-09
-6.78304e-08
-1.08132e-09
-8.17922e-08
-5.82051e-10
-1.011e-07
5.35183e-10
-1.27233e-07
1.72221e-09
-1.45193e-07
3.26659e-09
-1.50394e-07
4.71131e-09
-1.64475e-07
6.16981e-09
-1.71368e-07
7.3711e-09
-1.8939e-07
8.29118e-09
-2.1726e-07
8.5382e-09
-2.37673e-07
8.47304e-09
-2.54402e-07
7.53362e-09
-2.78644e-07
6.3083e-09
-3.13583e-07
4.10721e-09
-3.40733e-07
3.13105e-09
-3.64392e-07
-3.39773e-07
-4.93688e-10
-1.99516e-08
1.40369e-10
-9.36356e-10
-3.53901e-08
-1.47974e-09
-5.06995e-08
-1.7015e-09
-6.48657e-08
-1.80462e-09
-7.81739e-08
-1.46433e-09
-9.66136e-08
-6.79318e-10
-1.21728e-07
2.2934e-10
-1.38903e-07
1.79517e-09
-1.4397e-07
3.09896e-09
-1.57459e-07
4.66209e-09
-1.64196e-07
5.85191e-09
-1.8143e-07
6.8808e-09
-2.08502e-07
7.13544e-09
-2.2795e-07
7.45293e-09
-2.44535e-07
6.6509e-09
-2.67707e-07
5.76795e-09
-3.01768e-07
3.73239e-09
-3.27446e-07
2.8839e-09
-3.51205e-07
-3.23391e-07
-5.91965e-10
-1.90346e-08
1.70812e-10
-1.15633e-09
-3.37356e-08
-1.8599e-09
-4.82986e-08
-2.26761e-09
-6.18191e-08
-2.62739e-09
-7.44482e-08
-2.53183e-09
-9.20607e-08
-2.13609e-09
-1.1597e-07
-1.26615e-09
-1.3233e-07
2.73005e-10
-1.37382e-07
1.46422e-09
-1.50131e-07
3.16374e-09
-1.56809e-07
4.36382e-09
-1.73149e-07
5.55842e-09
-1.99375e-07
5.90961e-09
-2.17705e-07
6.45677e-09
-2.34085e-07
5.87611e-09
-2.55958e-07
5.26754e-09
-2.89248e-07
3.37226e-09
-3.13443e-07
2.61104e-09
-3.36958e-07
-3.05879e-07
-6.06441e-10
-1.81315e-08
1.79344e-10
-1.18854e-09
-3.21135e-08
-1.88775e-09
-4.59775e-08
-2.33855e-09
-5.88678e-08
-2.72832e-09
-7.09061e-08
-2.70819e-09
-8.76646e-08
-2.42649e-09
-1.1051e-07
-1.5292e-09
-1.26088e-07
1.56312e-11
-1.31087e-07
1.21658e-09
-1.43238e-07
2.90946e-09
-1.49749e-07
4.12133e-09
-1.65323e-07
5.24668e-09
-1.90596e-07
5.73689e-09
-2.07972e-07
6.39141e-09
-2.24171e-07
6.1047e-09
-2.45e-07
5.67845e-09
-2.77557e-07
3.86037e-09
-3.00275e-07
2.4942e-09
-3.23066e-07
-2.89596e-07
-6.27218e-10
-1.72403e-08
1.84045e-10
-1.24108e-09
-3.05187e-08
-1.96557e-09
-4.37062e-08
-2.47597e-09
-5.59522e-08
-2.92009e-09
-6.74806e-08
-2.96059e-09
-8.3393e-08
-2.78036e-09
-1.05246e-07
-1.87233e-09
-1.20075e-07
-4.44629e-10
-1.24976e-07
8.1286e-10
-1.36587e-07
2.49516e-09
-1.42787e-07
3.71785e-09
-1.57738e-07
4.82765e-09
-1.82028e-07
5.46452e-09
-1.98646e-07
6.03904e-09
-2.14432e-07
5.79613e-09
-2.34317e-07
5.47173e-09
-2.66171e-07
3.90294e-09
-2.87672e-07
2.4532e-09
-3.09713e-07
-2.74187e-07
-6.74036e-10
-1.63544e-08
1.92828e-10
-1.335e-09
-2.89477e-08
-2.1384e-09
-4.14593e-08
-2.72224e-09
-5.30751e-08
-3.27243e-09
-6.40624e-08
-3.42193e-09
-7.9187e-08
-3.37146e-09
-1.00009e-07
-2.52145e-09
-1.14073e-07
-1.2808e-09
-1.18883e-07
-9.41269e-11
-1.29898e-07
1.70956e-09
-1.35784e-07
2.88374e-09
-1.50129e-07
4.08124e-09
-1.734e-07
4.83474e-09
-1.89315e-07
5.49492e-09
-2.04615e-07
5.47401e-09
-2.23656e-07
5.26099e-09
-2.54603e-07
3.91808e-09
-2.7511e-07
2.34328e-09
-2.96135e-07
-2.58915e-07
-7.15558e-10
-1.54895e-08
2.01674e-10
-1.43852e-09
-2.74088e-08
-2.3549e-09
-3.92307e-08
-3.04364e-09
-5.02516e-08
-3.7506e-09
-6.06476e-08
-4.06195e-09
-7.50215e-08
-4.19215e-09
-9.47155e-08
-3.44789e-09
-1.08055e-07
-2.4183e-09
-1.12683e-07
-1.08999e-09
-1.2305e-07
6.0283e-10
-1.28702e-07
1.64281e-09
-1.42387e-07
2.95561e-09
-1.64634e-07
3.74707e-09
-1.79824e-07
4.54338e-09
-1.94557e-07
4.67031e-09
-2.12724e-07
4.55702e-09
-2.42451e-07
3.54473e-09
-2.6225e-07
2.08654e-09
-2.82178e-07
-2.43406e-07
-7.78575e-10
-1.4606e-08
2.14359e-10
-1.55397e-09
-2.58769e-08
-2.55009e-09
-3.6999e-08
-3.33317e-09
-4.7431e-08
-4.15785e-09
-5.72161e-08
-4.60311e-09
-7.08208e-08
-4.85376e-09
-8.93528e-08
-4.16117e-09
-1.01929e-07
-3.2239e-09
-1.06332e-07
-1.79941e-09
-1.16096e-07
-4.52025e-11
-1.21507e-07
8.26501e-10
-1.34535e-07
2.20165e-09
-1.55647e-07
3.0441e-09
-1.70231e-07
3.94995e-09
-1.84327e-07
4.2442e-09
-2.01696e-07
4.40506e-09
-2.30119e-07
3.48507e-09
-2.49104e-07
1.876e-09
-2.67627e-07
-2.2775e-07
-8.2994e-10
-1.36962e-08
2.26943e-10
-1.66445e-09
-2.43129e-08
-2.72078e-09
-3.47336e-08
-3.58691e-09
-4.45613e-08
-4.49986e-09
-5.37488e-08
-5.0337e-09
-6.65456e-08
-5.33519e-09
-8.39457e-08
-4.60389e-09
-9.57371e-08
-3.70392e-09
-9.99126e-08
-2.19823e-09
-1.09149e-07
-5.61281e-10
-1.14255e-07
3.37281e-10
-1.26734e-07
1.79875e-09
-1.4661e-07
2.58538e-09
-1.60641e-07
3.45344e-09
-1.7403e-07
3.8312e-09
-1.90757e-07
4.11499e-09
-2.17691e-07
3.26941e-09
-2.35842e-07
1.83352e-09
-2.53114e-07
-2.12283e-07
-8.67864e-10
-1.27729e-08
2.40675e-10
-1.73648e-09
-2.27369e-08
-2.81911e-09
-3.24689e-08
-3.75152e-09
-4.16857e-08
-4.72803e-09
-5.03012e-08
-5.33762e-09
-6.22931e-08
-5.66007e-09
-7.86279e-08
-4.92862e-09
-8.96412e-08
-4.10625e-09
-9.36297e-08
-2.62247e-09
-1.02378e-07
-1.22566e-09
-1.07188e-07
-3.37189e-10
-1.19206e-07
1.29709e-09
-1.37781e-07
2.06972e-09
-1.51345e-07
3.06895e-09
-1.6402e-07
3.50125e-09
-1.80085e-07
3.81921e-09
-2.05356e-07
3.00933e-09
-2.22819e-07
1.79561e-09
-2.38987e-07
-1.97232e-07
-8.31278e-10
-1.19188e-08
2.32181e-10
-1.69379e-09
-2.12458e-08
-2.76651e-09
-3.03376e-08
-3.74596e-09
-3.89751e-08
-4.79342e-09
-4.70451e-08
-5.49028e-09
-5.83212e-08
-5.9149e-09
-7.36232e-08
-5.39036e-09
-8.39708e-08
-4.79396e-09
-8.77309e-08
-3.53247e-09
-9.60255e-08
-2.59377e-09
-1.00582e-07
-1.56491e-09
-1.12048e-07
5.39017e-11
-1.29491e-07
5.55625e-10
-1.42496e-07
1.68989e-09
-1.54386e-07
2.01438e-09
-1.69749e-07
2.63288e-09
-1.93526e-07
2.04882e-09
-2.10304e-07
1.44381e-09
-2.25531e-07
-1.82702e-07
-8.13707e-10
-1.1114e-08
2.28458e-10
-1.67997e-09
-1.98237e-08
-2.77187e-09
-2.82924e-08
-3.81174e-09
-3.63831e-08
-4.9129e-09
-4.39288e-08
-5.6936e-09
-5.45315e-08
-6.21913e-09
-6.88278e-08
-5.88008e-09
-7.85696e-08
-5.44569e-09
-8.21162e-08
-4.39065e-09
-8.99311e-08
-3.73724e-09
-9.42123e-08
-2.67949e-09
-1.05026e-07
-1.35795e-09
-1.21451e-07
-8.0884e-10
-1.338e-07
5.63311e-10
-1.45036e-07
9.29449e-10
-1.59724e-07
1.86991e-09
-1.81859e-07
1.36587e-09
-1.97863e-07
1.07249e-09
-2.12207e-07
-1.68486e-07
-8.12313e-10
-1.03388e-08
2.34741e-10
-1.7189e-09
-1.84185e-08
-2.85487e-09
-2.62836e-08
-3.97291e-09
-3.38395e-08
-5.12925e-09
-4.08714e-08
-5.99561e-09
-5.07878e-08
-6.60858e-09
-6.40956e-08
-6.41898e-09
-7.32218e-08
-6.12853e-09
-7.65659e-08
-5.21718e-09
-8.39161e-08
-4.7367e-09
-8.78985e-08
-3.62292e-09
-9.80389e-08
-2.52482e-09
-1.13418e-07
-1.78486e-09
-1.25058e-07
-4.81044e-10
-1.35604e-07
-3.68095e-10
-1.49564e-07
9.26768e-10
-1.7018e-07
5.07078e-10
-1.85517e-07
7.69213e-10
-1.99096e-07
-1.5436e-07
-8.33373e-10
-9.56152e-09
2.42111e-10
-1.79318e-09
-1.70074e-08
-2.99044e-09
-2.42799e-08
-4.21845e-09
-3.12779e-08
-5.45765e-09
-3.77918e-08
-6.41575e-09
-4.69922e-08
-7.10242e-09
-5.93214e-08
-7.00881e-09
-6.78097e-08
-6.82426e-09
-7.09368e-08
-5.99962e-09
-7.78326e-08
-5.60756e-09
-8.15504e-08
-4.43114e-09
-9.09963e-08
-3.49452e-09
-1.05288e-07
-2.52079e-09
-1.16296e-07
-1.26648e-09
-1.26104e-07
-9.55342e-10
-1.39263e-07
4.51119e-10
-1.5837e-07
-1.52297e-10
-1.73014e-07
5.68124e-10
-1.85828e-07
-1.39999e-07
-8.7007e-10
-8.75948e-09
2.51981e-10
-1.90714e-09
-1.55546e-08
-3.20061e-09
-2.22256e-08
-4.57242e-09
-2.86304e-08
-5.9434e-09
-3.45912e-08
-7.04106e-09
-4.30237e-08
-7.84707e-09
-5.43384e-08
-7.87537e-09
-6.21547e-08
-7.79156e-09
-6.50657e-08
-7.02372e-09
-7.15342e-08
-6.68961e-09
-7.50211e-08
-5.41578e-09
-8.38167e-08
-4.66034e-09
-9.69248e-08
-3.55444e-09
-1.07221e-07
-2.535e-09
-1.16237e-07
-2.00094e-09
-1.28583e-07
-4.17818e-10
-1.46391e-07
-7.37931e-10
-1.60206e-07
4.28711e-10
-1.7236e-07
-1.25102e-07
-8.87348e-10
-7.93832e-09
2.49095e-10
-1.98116e-09
-1.40818e-08
-3.36729e-09
-2.01311e-08
-4.88213e-09
-2.59264e-08
-6.3802e-09
-3.1333e-08
-7.61211e-09
-3.89939e-08
-8.55015e-09
-4.92642e-08
-8.70138e-09
-5.64269e-08
-8.70268e-09
-5.91017e-08
-8.03857e-09
-6.51246e-08
-7.80907e-09
-6.83632e-08
-6.59695e-09
-7.64889e-08
-5.96983e-09
-8.8529e-08
-4.63326e-09
-9.80633e-08
-3.61715e-09
-1.06365e-07
-2.68847e-09
-1.17833e-07
-1.08713e-09
-1.34222e-07
-1.21523e-09
-1.46908e-07
2.74195e-10
-1.58476e-07
-1.09696e-07
-8.77327e-10
-7.11875e-09
2.38202e-10
-1.99198e-09
-1.26166e-08
-3.42395e-09
-1.80388e-08
-5.01466e-09
-2.32568e-08
-6.59972e-09
-2.81132e-08
-7.96554e-09
-3.50252e-08
-9.06603e-09
-4.4235e-08
-9.42202e-09
-5.07627e-08
-9.56061e-09
-5.31853e-08
-9.06552e-09
-5.87746e-08
-8.92947e-09
-6.17292e-08
-7.86507e-09
-6.91327e-08
-7.5666e-09
-8.0005e-08
-6.31391e-09
-8.87729e-08
-5.58003e-09
-9.6409e-08
-4.32202e-09
-1.0708e-07
-2.88926e-09
-1.22202e-07
-2.14676e-09
-1.33706e-07
-6.85481e-11
-1.44815e-07
-9.41189e-08
-8.7391e-10
-6.29409e-09
2.30038e-10
-1.99987e-09
-1.11599e-08
-3.47854e-09
-1.59445e-08
-5.1503e-09
-2.06163e-08
-6.83547e-09
-2.4923e-08
-8.32446e-09
-3.11182e-08
-9.56893e-09
-3.92746e-08
-1.01288e-08
-4.51954e-08
-1.04338e-08
-4.73219e-08
-1.01879e-08
-5.24395e-08
-1.01164e-08
-5.51159e-08
-9.18932e-09
-6.17736e-08
-8.84281e-09
-7.16639e-08
-7.42653e-09
-7.9493e-08
-6.78491e-09
-8.64673e-08
-5.31766e-09
-9.61907e-08
-3.99887e-09
-1.10028e-07
-2.77521e-09
-1.20324e-07
-8.31672e-10
-1.30716e-07
-7.81932e-08
-8.61072e-10
-5.4661e-09
2.18659e-10
-1.99664e-09
-9.71701e-09
-3.52855e-09
-1.38617e-08
-5.30293e-09
-1.79926e-08
-7.08954e-09
-2.17517e-08
-8.6911e-09
-2.7249e-08
-1.01038e-08
-3.43315e-08
-1.09295e-08
-3.9663e-08
-1.1459e-08
-4.15065e-08
-1.14671e-08
-4.61685e-08
-1.15025e-08
-4.85284e-08
-1.07626e-08
-5.44803e-08
-1.04886e-08
-6.33368e-08
-8.97671e-09
-7.03491e-08
-8.25385e-09
-7.66711e-08
-6.54788e-09
-8.5299e-08
-5.30797e-09
-9.77952e-08
-3.41047e-09
-1.07016e-07
-1.61696e-09
-1.16271e-07
-6.19176e-08
-8.19368e-10
-4.6587e-09
1.98274e-10
-1.92786e-09
-8.3392e-09
-3.47818e-09
-1.18584e-08
-5.27725e-09
-1.54733e-08
-7.08582e-09
-1.86809e-08
-8.71988e-09
-2.34984e-08
-1.02082e-08
-2.95279e-08
-1.12339e-08
-3.42853e-08
-1.19368e-08
-3.58498e-08
-1.22527e-08
-3.99982e-08
-1.24226e-08
-4.20512e-08
-1.20058e-08
-4.72634e-08
-1.19748e-08
-5.49764e-08
-1.06443e-08
-6.12892e-08
-9.96485e-09
-6.69976e-08
-7.96025e-09
-7.48107e-08
-6.55956e-09
-8.59095e-08
-3.97199e-09
-9.40684e-08
-2.4786e-09
-1.01669e-07
-4.57523e-08
-7.647e-10
-3.89655e-09
1.76303e-10
-1.83024e-09
-7.05378e-09
-3.34345e-09
-9.99337e-09
-5.10043e-09
-1.31223e-08
-6.89004e-09
-1.57755e-08
-8.57426e-09
-1.9906e-08
-1.01731e-08
-2.49285e-08
-1.14171e-08
-2.91166e-08
-1.23145e-08
-3.04445e-08
-1.28256e-08
-3.41088e-08
-1.30895e-08
-3.58699e-08
-1.27879e-08
-4.04826e-08
-1.25646e-08
-4.719e-08
-1.12406e-08
-5.27104e-08
-1.06154e-08
-5.77376e-08
-8.62633e-09
-6.46012e-08
-7.45563e-09
-7.42626e-08
-4.5329e-09
-8.1541e-08
-3.23501e-09
-8.73295e-08
-3.0269e-08
-7.35076e-10
-3.17953e-09
1.67786e-10
-1.77467e-09
-5.84116e-09
-3.25212e-09
-8.23996e-09
-4.97339e-09
-1.09013e-08
-6.74127e-09
-1.30273e-08
-8.43842e-09
-1.65149e-08
-1.01223e-08
-2.05707e-08
-1.15321e-08
-2.41903e-08
-1.26432e-08
-2.52313e-08
-1.33613e-08
-2.8443e-08
-1.37762e-08
-2.99098e-08
-1.36758e-08
-3.39597e-08
-1.35483e-08
-3.96672e-08
-1.22455e-08
-4.45724e-08
-1.15803e-08
-4.88143e-08
-9.45918e-09
-5.49056e-08
-8.29842e-09
-6.29421e-08
-4.99019e-09
-6.9616e-08
-3.84571e-09
-7.3281e-08
-1.56429e-08
-7.17476e-10
-2.51524e-09
1.68748e-10
-1.75142e-09
-4.6848e-09
-3.19922e-09
-6.57164e-09
-4.90169e-09
-8.76031e-09
-6.66298e-09
-1.03885e-08
-8.39748e-09
-1.32707e-08
-1.01637e-08
-1.64255e-08
-1.17181e-08
-1.94755e-08
-1.29089e-08
-2.02822e-08
-1.3718e-08
-2.30281e-08
-1.41186e-08
-2.42504e-08
-1.41132e-08
-2.7699e-08
-1.40502e-08
-3.23263e-08
-1.29333e-08
-3.65832e-08
-1.23555e-08
-4.00361e-08
-1.02001e-08
-4.55082e-08
-9.15785e-09
-5.18066e-08
-5.5487e-09
-5.8312e-08
-4.28345e-09
-5.98562e-08
-1.99283e-09
-7.67858e-10
-1.86532e-09
1.84673e-10
-1.84509e-09
-3.546e-09
-3.30382e-09
-4.94501e-09
-5.0037e-09
-6.67288e-09
-6.75771e-09
-7.84492e-09
-8.55226e-09
-1.01393e-08
-1.04083e-08
-1.24669e-08
-1.20962e-08
-1.49693e-08
-1.33763e-08
-1.55715e-08
-1.42307e-08
-1.791e-08
-1.46699e-08
-1.88641e-08
-1.46351e-08
-2.1796e-08
-1.44599e-08
-2.54143e-08
-1.32098e-08
-2.91093e-08
-1.2446e-08
-3.17824e-08
-1.02257e-08
-3.65809e-08
-9.12029e-09
-4.12905e-08
-5.61388e-09
-4.74324e-08
-4.23856e-09
-4.74438e-08
1.10923e-08
-7.68866e-10
-1.27778e-09
1.90478e-10
-1.82507e-09
-2.49294e-09
-3.21249e-09
-3.4463e-09
-4.83206e-09
-4.7273e-09
-6.51216e-09
-5.48789e-09
-8.27126e-09
-7.23253e-09
-1.01186e-08
-8.81055e-09
-1.18033e-08
-1.08153e-08
-1.3101e-08
-1.12099e-08
-1.39909e-08
-1.31639e-08
-1.4445e-08
-1.38673e-08
-1.4492e-08
-1.62864e-08
-1.43047e-08
-1.90017e-08
-1.31333e-08
-2.21829e-08
-1.23231e-08
-2.41856e-08
-1.02057e-08
-2.82709e-08
-8.93536e-09
-3.18113e-08
-5.53252e-09
-3.7338e-08
-3.82587e-09
-3.644e-08
2.33434e-08
-7.56757e-10
-7.46978e-10
1.89015e-10
-1.75966e-09
-1.53677e-09
-3.05203e-09
-2.08971e-09
-4.56433e-09
-2.95094e-09
-6.15317e-09
-3.33992e-09
-7.83586e-09
-4.58349e-09
-9.60773e-09
-5.49334e-09
-1.12098e-08
-7.06031e-09
-1.24317e-08
-7.27384e-09
-1.32738e-08
-8.87289e-09
-1.36774e-08
-9.36777e-09
-1.37119e-08
-1.13153e-08
-1.34561e-08
-1.324e-08
-1.23862e-08
-1.59151e-08
-1.14723e-08
-1.74176e-08
-9.56966e-09
-2.06986e-08
-8.18425e-09
-2.3393e-08
-5.15823e-09
-2.79348e-08
-3.24648e-09
-2.67099e-08
3.45087e-08
-7.5526e-10
-2.44108e-10
1.89943e-10
-1.71294e-09
-6.40542e-10
-2.93851e-09
-8.18287e-10
-4.36284e-09
-1.30089e-09
-5.88165e-09
-1.35e-09
-7.50772e-09
-2.12405e-09
-9.26037e-09
-2.39273e-09
-1.08394e-08
-3.55828e-09
-1.20661e-08
-3.59591e-09
-1.2911e-08
-4.89286e-09
-1.33629e-08
-5.17092e-09
-1.3438e-08
-6.72187e-09
-1.31601e-08
-7.97171e-09
-1.21822e-08
-1.01498e-08
-1.12576e-08
-1.12576e-08
-9.39612e-09
-1.38066e-08
-7.84887e-09
-1.58915e-08
-5.03192e-09
-1.92234e-08
-2.84667e-09
-1.81564e-08
4.4786e-08
-7.5636e-10
2.53536e-10
1.92239e-10
-1.69083e-09
2.44e-10
-2.88409e-09
4.46876e-10
-4.28162e-09
3.18495e-10
-5.80129e-09
6.12285e-10
-7.44257e-09
2.71209e-10
-9.20478e-09
6.08611e-10
-1.07984e-08
-1.3947e-10
-1.20331e-08
-2.57476e-11
-1.29102e-08
-9.8505e-10
-1.33829e-08
-1.07763e-09
-1.35128e-08
-2.18599e-09
-1.32043e-08
-2.81248e-09
-1.22977e-08
-4.40643e-09
-1.13035e-08
-5.17642e-09
-9.50131e-09
-6.90743e-09
-7.81092e-09
-8.49044e-09
-5.12903e-09
-1.04465e-08
-2.71519e-09
-9.9162e-09
5.50966e-08
-8.14923e-10
8.30673e-10
2.09296e-10
-1.8162e-09
1.27852e-09
-3.06988e-09
1.91157e-09
-4.54357e-09
2.18285e-09
-6.15736e-09
2.8361e-09
-7.91191e-09
2.97652e-09
-9.83649e-09
3.98358e-09
-1.16133e-08
3.62138e-09
-1.30611e-08
3.95666e-09
-1.414e-08
3.27778e-09
-1.47727e-08
3.36924e-09
-1.50069e-08
2.63641e-09
-1.47075e-08
2.66286e-09
-1.37778e-08
1.67148e-09
-1.2564e-08
1.1129e-09
-1.05887e-08
3.52611e-10
-8.57852e-09
-7.47327e-10
-5.6969e-09
-1.11047e-09
-2.93169e-09
-1.40026e-09
6.62084e-08
-8.26146e-10
1.45745e-09
2.16656e-10
-1.84033e-09
2.41094e-09
-3.08355e-09
3.51543e-09
-4.57612e-09
4.19711e-09
-6.18533e-09
5.2078e-09
-7.99694e-09
5.86589e-09
-1.00677e-08
7.58284e-09
-1.19956e-08
7.69149e-09
-1.35754e-08
8.15866e-09
-1.47667e-08
7.86749e-09
-1.54796e-08
8.09574e-09
-1.57825e-08
7.89679e-09
-1.54617e-08
8.62959e-09
-1.45091e-08
8.38539e-09
-1.31317e-08
8.10347e-09
-1.10221e-08
8.5042e-09
-8.74097e-09
7.50038e-09
-5.87842e-09
9.02244e-09
-2.97215e-09
7.50233e-09
7.79894e-08
-8.21047e-10
2.13795e-09
2.1783e-10
-1.81233e-09
3.61671e-09
-2.97942e-09
5.19041e-09
-4.42736e-09
6.30043e-09
-6.0112e-09
7.71004e-09
-7.88878e-09
8.93023e-09
-1.00424e-08
1.13373e-08
-1.20859e-08
1.1836e-08
-1.37435e-08
1.23566e-08
-1.50308e-08
1.23961e-08
-1.58508e-08
1.27699e-08
-1.62704e-08
1.30902e-08
-1.59495e-08
1.44685e-08
-1.50229e-08
1.49992e-08
-1.34875e-08
1.49016e-08
-1.13355e-08
1.6558e-08
-8.86352e-09
1.56976e-08
-5.89002e-09
1.90278e-08
-3.04209e-09
1.6406e-08
8.96154e-08
-7.72139e-10
2.79617e-09
2.04702e-10
-1.70822e-09
4.79673e-09
-2.81028e-09
6.8412e-09
-4.21498e-09
8.38401e-09
-5.74832e-09
1.01625e-08
-7.55026e-09
1.18842e-08
-9.57921e-09
1.49009e-08
-1.15762e-08
1.58089e-08
-1.32393e-08
1.63813e-08
-1.45841e-08
1.67457e-08
-1.538e-08
1.71765e-08
-1.58269e-08
1.80514e-08
-1.55128e-08
2.00682e-08
-1.46559e-08
2.14255e-08
-1.31988e-08
2.15183e-08
-1.10735e-08
2.43333e-08
-8.6835e-09
2.3697e-08
-5.7609e-09
2.87421e-08
-3.09118e-09
2.51814e-08
1.0107e-07
-7.51868e-10
3.4173e-09
2.01285e-10
-1.64634e-09
5.91543e-09
-2.68183e-09
8.39934e-09
-4.04824e-09
1.03965e-08
-5.59122e-09
1.25569e-08
-7.44524e-09
1.48197e-08
-9.59505e-09
1.84992e-08
-1.17389e-08
1.98422e-08
-1.3549e-08
2.04653e-08
-1.50021e-08
2.11444e-08
-1.59041e-08
2.16329e-08
-1.63801e-08
2.30134e-08
-1.60393e-08
2.55742e-08
-1.51354e-08
2.76649e-08
-1.37214e-08
2.79801e-08
-1.15303e-08
3.17629e-08
-9.2512e-09
3.14569e-08
-5.97946e-09
3.78408e-08
-3.49866e-09
3.39835e-08
1.1211e-07
-7.36909e-10
3.98148e-09
2.0747e-10
-1.63e-09
6.97067e-09
-2.66224e-09
9.86254e-09
-4.03178e-09
1.23105e-08
-5.58784e-09
1.48257e-08
-7.41899e-09
1.76014e-08
-9.4663e-09
2.18582e-08
-1.15166e-08
2.36565e-08
-1.3223e-08
2.435e-08
-1.45818e-08
2.53996e-08
-1.53785e-08
2.59544e-08
-1.5749e-08
2.78174e-08
-1.53747e-08
3.09314e-08
-1.44944e-08
3.36349e-08
-1.32066e-08
3.41413e-08
-1.11008e-08
3.87118e-08
-9.09559e-09
3.88597e-08
-5.72029e-09
4.62399e-08
-3.5372e-09
4.25444e-08
1.22478e-07
-7.22365e-10
4.48744e-09
2.05209e-10
-1.59504e-09
7.92801e-09
-2.60863e-09
1.11846e-08
-3.92795e-09
1.4041e-08
-5.41735e-09
1.68649e-08
-7.19716e-09
2.01526e-08
-9.27573e-09
2.50355e-08
-1.14277e-08
2.73561e-08
-1.32218e-08
2.81498e-08
-1.46387e-08
2.95735e-08
-1.54333e-08
3.01835e-08
-1.57917e-08
3.24908e-08
-1.54273e-08
3.61018e-08
-1.44909e-08
3.92718e-08
-1.32692e-08
3.99728e-08
-1.1096e-08
4.51461e-08
-9.19771e-09
4.58714e-08
-5.50642e-09
5.39231e-08
-3.57267e-09
5.09227e-08
1.32069e-07
-7.20207e-10
4.9577e-09
1.95379e-10
-1.56898e-09
8.78383e-09
-2.58218e-09
1.23805e-08
-3.87235e-09
1.56015e-08
-5.34656e-09
1.87379e-08
-7.10446e-09
2.25097e-08
-9.12699e-09
2.79576e-08
-1.11486e-08
3.07227e-08
-1.27925e-08
3.16147e-08
-1.40557e-08
3.34142e-08
-1.47747e-08
3.41414e-08
-1.50818e-08
3.69026e-08
-1.469e-08
4.09883e-08
-1.38073e-08
4.46433e-08
-1.27116e-08
4.55974e-08
-1.06172e-08
5.13148e-08
-8.82538e-09
5.27365e-08
-5.04433e-09
6.12928e-08
-3.4545e-09
5.93548e-08
1.4114e-07
-7.2234e-10
5.39287e-09
1.93573e-10
-1.56732e-09
9.56928e-09
-2.58701e-09
1.34685e-08
-3.86931e-09
1.70208e-08
-5.32078e-09
2.04491e-08
-7.04475e-09
2.46625e-08
-9.03938e-09
3.06478e-08
-1.10615e-08
3.3873e-08
-1.27917e-08
3.49242e-08
-1.41294e-08
3.70561e-08
-1.49255e-08
3.78726e-08
-1.52828e-08
4.10287e-08
-1.49727e-08
4.56196e-08
-1.40827e-08
4.9688e-08
-1.29529e-08
5.09559e-08
-1.06518e-08
5.71458e-08
-8.84696e-09
5.94862e-08
-4.79955e-09
6.8273e-08
-3.39237e-09
6.77516e-08
1.4986e-07
-7.47757e-10
5.79505e-09
2.00355e-10
-1.62001e-09
1.0292e-08
-2.67361e-09
1.44734e-08
-3.98853e-09
1.83355e-08
-5.46439e-09
2.20501e-08
-7.19747e-09
2.66472e-08
-9.22512e-09
3.31259e-08
-1.12105e-08
3.66747e-08
-1.28918e-08
3.78271e-08
-1.41621e-08
4.02149e-08
-1.49526e-08
4.1136e-08
-1.52997e-08
4.46875e-08
-1.50074e-08
4.98406e-08
-1.40785e-08
5.43463e-08
-1.28513e-08
5.60557e-08
-1.05409e-08
6.27425e-08
-8.69406e-09
6.60257e-08
-4.58603e-09
7.49179e-08
-3.2509e-09
7.5823e-08
1.58342e-07
-7.57487e-10
6.13764e-09
1.91729e-10
-1.62329e-09
1.08683e-08
-2.70968e-09
1.53175e-08
-4.02266e-09
1.94211e-08
-5.48443e-09
2.33971e-08
-7.172e-09
2.83007e-08
-9.16153e-09
3.52265e-08
-1.11276e-08
3.90731e-08
-1.2841e-08
4.03576e-08
-1.41462e-08
4.29639e-08
-1.50502e-08
4.40321e-08
-1.54375e-08
4.78879e-08
-1.51956e-08
5.35913e-08
-1.42343e-08
5.84562e-08
-1.29553e-08
6.06487e-08
-1.05133e-08
6.76702e-08
-8.6497e-09
7.18853e-08
-4.55069e-09
8.08341e-08
-3.05813e-09
8.29212e-08
1.66229e-07
-7.4849e-10
6.39828e-09
1.79453e-10
-1.58383e-09
1.12839e-08
-2.69161e-09
1.59468e-08
-3.97248e-09
2.01835e-08
-5.38949e-09
2.43683e-08
-7.0476e-09
2.95204e-08
-9.0062e-09
3.68295e-08
-1.09274e-08
4.0936e-08
-1.26037e-08
4.23674e-08
-1.38691e-08
4.51598e-08
-1.47469e-08
4.63766e-08
-1.50915e-08
5.04862e-08
-1.48592e-08
5.66876e-08
-1.3894e-08
6.18129e-08
-1.26115e-08
6.44533e-08
-1.02177e-08
7.17384e-08
-8.46574e-09
7.68446e-08
-4.50177e-09
8.5799e-08
-2.83909e-09
8.87051e-08
1.73223e-07
-6.76795e-10
6.57012e-09
1.62988e-10
-1.42498e-09
1.15458e-08
-2.47316e-09
1.63616e-08
-3.66194e-09
2.06502e-08
-4.95835e-09
2.49736e-08
-6.49465e-09
3.02878e-08
-8.3098e-09
3.78653e-08
-1.01095e-08
4.21752e-08
-1.17015e-08
4.37635e-08
-1.2923e-08
4.67383e-08
-1.37918e-08
4.81183e-08
-1.41546e-08
5.24362e-08
-1.39868e-08
5.90366e-08
-1.3124e-08
6.43305e-08
-1.1988e-08
6.73628e-08
-9.76224e-09
7.48167e-08
-8.14872e-09
8.06121e-08
-4.39491e-09
8.96071e-08
-2.68308e-09
9.30809e-08
1.78954e-07
-6.39018e-10
6.69912e-09
1.54966e-10
-1.34541e-09
1.1723e-08
-2.34302e-09
1.66547e-08
-3.47549e-09
2.09608e-08
-4.67373e-09
2.53468e-08
-6.09676e-09
3.07432e-08
-7.79172e-09
3.84945e-08
-9.51937e-09
4.29506e-08
-1.1062e-08
4.46533e-08
-1.2246e-08
4.77549e-08
-1.30952e-08
4.92707e-08
-1.34499e-08
5.37191e-08
-1.33208e-08
6.06326e-08
-1.25237e-08
6.60339e-08
-1.14795e-08
6.93961e-08
-9.37974e-09
7.69498e-08
-7.90233e-09
8.32725e-08
-4.36521e-09
9.22907e-08
-2.65441e-09
9.62966e-08
1.83397e-07
-6.17886e-10
6.7625e-09
1.58347e-10
-1.32308e-09
1.18113e-08
-2.30196e-09
1.68245e-08
-3.41233e-09
2.11567e-08
-4.59027e-09
2.55988e-08
-5.96018e-09
3.10159e-08
-7.59608e-09
3.88561e-08
-9.27885e-09
4.33712e-08
-1.08079e-08
4.51414e-08
-1.20017e-08
4.83071e-08
-1.28702e-08
4.99054e-08
-1.32756e-08
5.44301e-08
-1.32126e-08
6.15787e-08
-1.24605e-08
6.70458e-08
-1.14549e-08
7.07084e-08
-9.40475e-09
7.83384e-08
-8.04042e-09
8.51004e-08
-4.56461e-09
9.40723e-08
-2.79376e-09
9.86086e-08
1.86781e-07
-6.22582e-10
6.73283e-09
1.63106e-10
-1.32582e-09
1.17344e-08
-2.31728e-09
1.6781e-08
-3.45079e-09
2.11541e-08
-4.65056e-09
2.56496e-08
-6.01351e-09
3.10453e-08
-7.63028e-09
3.89132e-08
-9.28462e-09
4.34265e-08
-1.08179e-08
4.52448e-08
-1.20329e-08
4.84216e-08
-1.29299e-08
5.00663e-08
-1.33836e-08
5.46267e-08
-1.33464e-08
6.19379e-08
-1.25974e-08
6.74419e-08
-1.16153e-08
7.14032e-08
-9.57749e-09
7.90952e-08
-8.25862e-09
8.62638e-08
-4.78599e-09
9.51985e-08
-2.96616e-09
1.00192e-07
1.89295e-07
-5.98992e-10
6.60333e-09
1.58065e-10
-1.26079e-09
1.14644e-08
-2.18305e-09
1.64443e-08
-3.3115e-09
2.07983e-08
-4.51585e-09
2.53137e-08
-5.89276e-09
3.06426e-08
-7.50009e-09
3.84585e-08
-9.11379e-09
4.29274e-08
-1.05983e-08
4.47884e-08
-1.18027e-08
4.79874e-08
-1.2704e-08
4.97072e-08
-1.31878e-08
5.43211e-08
-1.31281e-08
6.17345e-08
-1.241e-08
6.72889e-08
-1.15011e-08
7.14929e-08
-9.54624e-09
7.92183e-08
-8.3033e-09
8.67622e-08
-4.85322e-09
9.571e-08
-3.09622e-09
1.01175e-07
1.90942e-07
-5.60807e-10
6.36731e-09
1.46277e-10
-1.20243e-09
1.10234e-08
-2.05131e-09
1.58247e-08
-3.08556e-09
2.00372e-08
-4.30141e-09
2.4477e-08
-5.72323e-09
2.9691e-08
-7.36191e-09
3.73139e-08
-8.94246e-09
4.16301e-08
-1.03768e-08
4.35183e-08
-1.15382e-08
4.67113e-08
-1.23911e-08
4.8514e-08
-1.28409e-08
5.31415e-08
-1.27024e-08
6.05895e-08
-1.19557e-08
6.6196e-08
-1.11032e-08
7.05622e-08
-9.26187e-09
7.82845e-08
-8.08871e-09
8.60987e-08
-4.78441e-09
9.51007e-08
-3.13565e-09
1.01133e-07
1.91215e-07
-5.29247e-10
5.97262e-09
1.40865e-10
-1.17184e-09
1.03684e-08
-2.00228e-09
1.48856e-08
-2.97949e-09
1.88169e-08
-4.18347e-09
2.30276e-08
-5.64681e-09
2.80116e-08
-7.34488e-09
3.52589e-08
-8.92022e-09
3.92668e-08
-1.02925e-08
4.11268e-08
-1.13571e-08
4.42215e-08
-1.21031e-08
4.6049e-08
-1.24903e-08
5.05642e-08
-1.23283e-08
5.78665e-08
-1.15378e-08
6.33814e-08
-1.0754e-08
6.78125e-08
-8.94718e-09
7.53786e-08
-7.7916e-09
8.3297e-08
-4.62629e-09
9.2199e-08
-3.04841e-09
9.86462e-08
1.8874e-07
-5.12508e-10
5.43037e-09
1.38565e-10
-1.15879e-09
9.48353e-09
-2.0224e-09
1.36249e-08
-3.03215e-09
1.71456e-08
-4.23207e-09
2.0947e-08
-5.68771e-09
2.54827e-08
-7.41892e-09
3.21284e-08
-9.03915e-09
3.57113e-08
-1.03888e-08
3.74728e-08
-1.13538e-08
4.03074e-08
-1.19707e-08
4.20742e-08
-1.22466e-08
4.62475e-08
-1.20954e-08
5.30975e-08
-1.12576e-08
5.82293e-08
-1.05227e-08
6.25454e-08
-8.62685e-09
6.96391e-08
-7.52256e-09
7.74087e-08
-4.50347e-09
8.58527e-08
-2.83862e-09
9.23556e-08
1.82206e-07
-5.01624e-10
4.85528e-09
1.29222e-10
-1.12407e-09
8.48331e-09
-1.97415e-09
1.21814e-08
-3.01101e-09
1.52278e-08
-4.20277e-09
1.85347e-08
-5.56272e-09
2.2457e-08
-7.11299e-09
2.8316e-08
-8.65557e-09
3.1488e-08
-9.92619e-09
3.30995e-08
-1.07592e-08
3.55167e-08
-1.12726e-08
3.71246e-08
-1.14967e-08
4.07209e-08
-1.13662e-08
4.67387e-08
-1.05701e-08
5.11634e-08
-9.87295e-09
5.50314e-08
-7.9723e-09
6.13673e-08
-6.98754e-09
6.85075e-08
-4.35883e-09
7.61913e-08
-2.58862e-09
8.22687e-08
1.71378e-07
-5.39645e-10
4.18873e-09
1.32937e-10
-1.21469e-09
7.3129e-09
-2.08914e-09
1.04785e-08
-3.17908e-09
1.30742e-08
-4.43095e-09
1.5941e-08
-5.75477e-09
1.92553e-08
-7.1418e-09
2.43087e-08
-8.50839e-09
2.71128e-08
-9.66562e-09
2.86453e-08
-1.04693e-08
3.05655e-08
-1.09576e-08
3.19956e-08
-1.11436e-08
3.51299e-08
-1.09523e-08
4.05439e-08
-1.00731e-08
4.45521e-08
-9.28837e-09
4.81837e-08
-7.33738e-09
5.39271e-08
-6.35318e-09
6.04537e-08
-4.02393e-09
6.72466e-08
-2.32253e-09
7.27915e-08
1.6119e-07
-6.46607e-10
3.32223e-09
1.68113e-10
-1.42689e-09
5.84983e-09
-2.39521e-09
8.46658e-09
-3.52126e-09
1.06396e-08
-4.74412e-09
1.30908e-08
-6.08585e-09
1.59341e-08
-7.45474e-09
2.02363e-08
-8.66424e-09
2.25793e-08
-9.75619e-09
2.4136e-08
-1.04987e-08
2.58497e-08
-1.09141e-08
2.73032e-08
-1.0959e-08
2.99129e-08
-1.06522e-08
3.47628e-08
-9.62314e-09
3.8335e-08
-8.74711e-09
4.17587e-08
-6.70595e-09
4.70416e-08