/*--------------------------------*- C++ -*----------------------------------*\
| =========                 |                                                 |
| \\      /  F ield         | OpenFOAM: The Open Source CFD Toolbox           |
|  \\    /   O peration     | Version:  2212                                  |
|   \\  /    A nd           | Website:  www.openfoam.com                      |
|    \\/     M anipulation  |                                                 |
\*---------------------------------------------------------------------------*/
FoamFile
{
    version     2.0;
    format      ascii;
    arch        "LSB;label=32;scalar=64";
    class       volScalarField;
    location    "0.00172";
    object      p;
}
// * * * * * * * * * * * * * * * * * * * * * * * * * * * * * * * * * * * * * //

dimensions      [1 -1 -2 0 0 0 0];

internalField   nonuniform List<scalar> 
7220
(
373.779
608.945
609.058
609.137
608.82
608.964
609.679
609.919
609.479
609.589
395.006
880.637
515.64
391.567
402.458
712.025
456.301
309.494
457.142
319.363
471.019
546.479
609.451
531.796
663.624
548.802
523.048
344.592
470.334
486.702
637.102
496.546
609.124
483.178
683.143
393.353
609.358
400.758
398.566
324.944
331.162
331.174
324.954
393.869
393.631
393.204
393.307
393.447
337.672
344.369
344.387
337.687
351.131
357.82
357.842
351.151
364.283
370.355
370.377
364.305
375.868
380.661
380.68
375.889
384.604
387.645
387.657
384.62
389.848
391.355
391.356
389.855
392.334
392.938
392.927
392.328
393.292
393.491
393.469
393.277
393.598
393.653
393.599
393.564
393.548
393.595
393.683
393.675
393.623
394.048
319.108
319.115
331.697
325.462
393.468
392.986
393.527
393.391
394.4
394.262
394.34
393.927
394.137
392.955
393.566
390.456
391.97
385.198
388.246
376.446
381.247
364.842
370.924
351.668
358.368
338.187
344.895
325.439
331.667
344.941
338.226
358.423
351.719
370.98
364.898
381.298
376.5
388.28
385.241
391.975
390.477
393.536
392.942
394.07
393.882
394.182
394.159
394.149
394.446
319.594
319.611
395.068
395.334
393.159
393.159
394.409
394.335
396.056
394.853
394.184
395.981
395.981
396.086
395.771
395.881
395.396
395.622
394.401
395.022
391.88
393.406
386.595
389.657
377.809
382.628
366.162
372.267
352.938
359.664
339.402
346.138
326.601
332.854
314.201
315.319
320.732
313.728
313.722
320.761
315.338
314.212
332.905
326.64
346.212
339.466
359.754
353.022
372.361
366.255
382.714
377.901
389.718
386.67
393.417
391.92
394.964
394.379
395.482
395.302
395.563
395.558
395.49
394.421
394.712
397.402
397.676
309.305
310.406
322.765
317.306
392.645
393.952
392.682
393.947
398.677
396.216
396.712
395.831
397.192
398.59
398.602
398.721
398.335
398.468
397.918
398.166
396.894
397.528
394.348
395.887
389.027
392.109
380.186
385.036
368.466
374.609
355.155
361.926
341.526
348.309
328.635
334.932
317.279
322.727
308.835
308.832
310.419
309.311
334.996
328.685
348.398
341.604
362.033
355.255
374.722
368.578
385.139
380.297
392.184
389.119
395.899
394.397
397.438
396.859
397.933
397.767
397.991
397.99
397.881
397.021
312.339
312.357
392.802
393.263
395.487
392.15
398.438
400.918
401.181
400.711
395.596
320.163
315.184
306.018
307.934
393.6
391.993
394.46
392.317
394.074
395.953
393.078
392.267
402.159
402.418
402.324
402.346
402.474
402.04
402.192
401.585
401.852
400.524
401.173
397.948
399.504
392.578
395.688
383.66
388.552
371.834
378.033
358.399
365.234
344.638
351.487
331.622
337.98
325.658
307.922
304.92
306.009
304.454
304.452
304.924
315.206
325.702
320.195
338.051
331.679
351.584
344.724
365.35
358.507
378.156
371.955
388.666
383.78
395.772
392.681
399.508
398
401.039
400.467
401.503
401.354
401.542
401.548
401.409
400.124
400.484
398.76
399.575
397.578
398.194
310.741
310.753
405.7
405.941
405.472
399.726
395.226
391.445
391.049
391.349
393.038
396.436
407.038
391.046
401.889
406.737
392.132
407.336
407.23
407.288
407.412
406.974
407.133
406.479
406.769
405.381
406.048
402.768
404.344
397.335
400.481
388.315
393.264
376.349
382.622
362.75
369.668
348.818
355.752
335.64
342.076
324.046
329.604
314.538
319.017
310.597
304.012
306.816
301.029
302.111
300.566
300.565
302.116
301.032
306.824
304.019
310.608
319.043
314.555
329.654
324.083
342.153
335.702
355.854
348.908
369.788
362.862
382.75
376.474
393.386
388.442
400.572
397.448
404.336
402.82
405.859
405.296
406.293
406.158
406.308
406.33
406.166
404.763
405.186
403.154
404.122
401.733
401.443
397.752
391.494
406.249
411.536
411.762
411.28
319.161
315.199
303.372
307.159
390.482
389.804
389.378
393.776
398.911
395.329
390.337
400.698
394.522
389.227
392.157
405.451
389.621
411.897
412.85
412.493
413.21
413.077
413.226
413.313
412.923
413.086
412.402
412.708
411.269
411.953
408.613
410.213
403.106
406.294
393.962
398.979
381.826
388.189
368.028
375.048
353.889
360.926
340.518
347.048
328.767
334.398
323.68
307.153
300.563
303.368
297.584
298.664
297.122
297.121
298.666
297.585
300.567
315.213
323.711
319.182
334.453
328.809
347.129
340.586
361.031
353.983
375.171
368.143
388.322
381.955
399.11
394.096
406.39
403.227
410.189
408.66
411.707
411.149
412.114
411.996
412.122
412.156
411.973
410.418
410.932
408.454
409.634
404.314
406.729
401.75
396.973
410.965
311.758
311.766
418.249
418.015
404.338
399.726
390.518
389.212
388.138
387.225
391.09
386.223
372.539
386.291
640.647
386.58
409.684
415.449
418.054
416.946
419.268
418.797
419.711
419.551
419.795
419.827
419.513
419.676
418.973
419.289
417.808
418.51
415.103
416.73
409.512
412.747
400.233
405.324
387.91
394.371
373.895
381.026
359.534
366.681
345.957
352.586
334.043
339.748
324.344
328.9
316.946
320.371
314.017
304.15
308.783
297.512
300.337
294.517
295.602
294.053
294.053
295.603
294.518
300.34
297.514
308.788
304.154
314.024
320.387
316.957
328.934
324.368
339.806
334.089
352.669
346.027
366.786
359.628
381.149
374.01
394.507
388.04
405.461
400.371
412.84
409.637
416.679
415.138
418.201
417.644
418.6
418.488
418.597
418.649
418.448
416.672
417.719
417.3
414.365
415.726
410.17
412.514
404.51
407.585
396.567
400.843
380.685
386.461
386.269
391.74
396.081
616.398
407.974
413.508
389.082
609.2
322.679
319.827
306.22
311.532
387.537
380.942
385.993
381.504
382.265
384.529
383.265
610.603
643.489
645.369
653.447
566.686
648.897
402.837
398.41
626.687
400.789
387.182
392.578
390.548
392.319
405.733
620.777
411.059
570.934
402.918
408.091
611.803
402.312
404.658
409.809
406.002
416.523
413.341
421.475
419.251
424.583
423.243
426.119
425.511
426.708
426.5
426.831
426.821
426.566
426.731
426.002
426.33
424.8
425.522
422.04
423.698
416.358
419.644
406.935
412.105
394.42
400.983
380.186
387.429
365.603
372.86
351.829
358.552
339.775
345.541
330.022
334.592
326.061
311.526
301.529
306.217
294.796
297.664
291.76
292.858
291.291
291.291
292.859
291.761
297.665
294.797
301.532
319.838
326.082
322.694
334.629
330.05
345.601
339.823
358.634
351.9
372.963
365.696
387.549
380.298
401.117
394.548
412.243
407.074
419.727
416.48
423.607
422.051
425.135
424.576
425.533
425.423
425.51
425.582
425.159
425.363
424.55
424.9
423.27
424.036
420.627
422.147
416.281
418.655
410.26
413.49
402.329
406.545
397.646
635.289
635.931
646.361
394.936
389.453
627.615
351.472
637.303
366.991
317.444
317.453
649.559
396.532
390.616
388.857
387.421
375.123
660.749
398.099
399.052
394.276
383.002
385.388
376.252
377.636
399.573
415.549
383.288
379.715
400.887
654.745
381.203
379.289
616.84
621.418
361.38
633.383
626.369
609.158
414.703
410.756
421.883
418.433
427.506
424.933
431.224
429.602
433.18
432.393
433.968
433.684
434.142
434.111
433.885
434.057
433.29
433.636
432.045
432.791
429.224
430.914
423.45
426.788
413.886
419.133
401.183
407.845
386.73
394.084
371.93
379.293
357.977
364.782
345.815
351.624
336.048
340.61
328.822
332.132
323.803
326.067
321.962
309.423
315.472
299.244
304.01
292.363
295.299
289.256
290.379
288.776
288.776
290.379
289.256
295.301
292.364
304.013
299.246
315.478
309.427
321.971
326.081
323.814
332.156
328.841
340.65
336.08
351.684
345.864
364.863
358.047
379.391
372.019
394.198
386.836
407.975
401.306
419.264
414.021
426.846
423.559
430.768
429.197
432.309
431.745
432.708
432.599
432.669
432.754
432.295
432.515
431.571
431.995
430.023
430.942
427.045
428.741
422.363
424.928
416.024
419.397
408.147
412.275
403.704
639.982
644.762
405.786
622.648
635.32
393.149
387.816
631.125
362.366
368.852
638.45
623.291
610.837
393.98
405.095
400.731
390.012
385.235
388.266
386.579
636.075
370.532
609.069
330.395
328.64
313.859
320.478
372.47
682.027
394.846
378.877
611.502
609.276
609.478
609.655
617.546
382.66
603.209
606.952
634.949
684.934
599.891
592.405
395.784
367.382
613.893
611.334
610.819
613.07
636.488
379.966
374.712
397.001
613.792
377.24
610.237
609.507
600.729
399.07
616.87
605.531
620.522
624.371
356.319
609.257
355.979
562.019
419.267
414.982
426.846
423.191
433.149
430.183
437.616
435.63
440.107
439.087
441.162
440.773
441.403
441.356
441.146
441.326
440.512
440.88
439.216
439.988
436.332
438.055
430.468
433.857
420.771
426.09
407.887
414.644
393.233
400.688
378.248
385.7
364.158
371.025
351.935
357.764
342.223
346.739
335.188
338.389
332.548
320.47
307.661
313.853
297.26
302.124
290.181
293.213
286.966
288.128
286.471
286.471
288.128
286.966
293.214
290.182
302.127
297.262
307.665
328.651
332.566
330.409
338.416
335.21
346.781
342.257
357.823
351.985
371.101
364.226
385.792
378.333
400.796
393.333
414.769
408.004
426.207
420.897
433.877
430.552
437.838
436.253
439.393
438.825
439.797
439.687
439.744
439.839
439.317
439.57
438.442
438.957
436.624
437.693
433.275
435.161
428.202
430.952
421.572
425.054
413.716
417.776
409.453
644.9
615.508
611.056
612.711
612.427
636.3
575.422
390.708
402.357
396.504
385.586
604.608
610.57
606.39
628.125
615.675
621.706
629.27
624.746
423.884
364.475
402.368
610.266
327.193
327.203
366.86
649.616
610.413
633.647
625.595
668.253
390.817
609.184
385.717
609.542
617.821
625.979
623.425
610.407
382.482
385.291
383.692
608.908
629.582
615.058
619.23
613.988
612.535
615.783
616.184
621.663
632.674
583.916
614.54
611.747
609.608
655.441
597.557
391.077
374.208
636.741
616.392
639.638
379.301
611.206
612.385
613.374
614.11
369.607
391.721
344.41
362.337
630.009
612.141
610.057
609.603
609.538
609.767
611.894
375.998
612.121
612.409
613.181
613.078
337.881
694.337
372.678
393.058
613.812
612.961
612.702
612.815
598.863
395.484
616.14
610.011
612.709
604.497
619.008
612.655
350.666
358.241
368.753
611.752
609.51
350.807
417.182
423.482
419.191
431.196
427.451
437.932
434.706
443.181
440.794
446.396
445.051
447.841
447.296
448.206
448.122
447.956
448.144
447.282
447.674
445.931
446.732
442.984
444.74
437.037
440.471
427.222
432.606
414.185
421.022
399.375
406.905
384.264
391.773
370.107
376.998
357.904
363.71
348.28
352.749
341.313
344.491
336.469
338.665
333.101
334.643
331.75
319.254
325.969
306.202
312.532
295.555
300.53
288.24
291.39
284.879
286.095
284.362
284.361
286.095
284.879
291.391
288.241
300.533
295.557
312.537
306.206
325.978
319.261
331.761
334.656
333.113
338.686
336.486
344.521
341.339
352.793
348.317
363.769
357.955
377.071
370.173
391.859
384.344
407.007
399.468
421.138
414.295
432.699
427.335
440.437
437.083
444.432
442.833
446.009
445.429
446.426
446.31
446.358
446.462
445.863
446.162
444.807
445.428
442.69
443.925
438.963
441.042
433.509
436.441
426.645
430.215
418.845
422.829
410.558
414.735
406.411
360.937
688.64
609.155
619.191
619.992
641.95
617.485
611.197
615.76
612.912
628.226
620.795
652.196
639.091
665.168
387.638
392.383
358.194
609.791
382.795
611.593
624.106
618.851
627.698
660.646
638.267
408.71
609.354
609.295
609.896
610.169
627.928
637.989
385.637
645.641
631.871
625.503
609.678
613.957
644.905
603.758
627.935
619.343
674.007
387.099
381.44
632.484
621.025
609.034
610.178
379.076
381.712
380.183
612.637
628.944
617.516
620.893
615.166
364.084
609.439
338.102
336.676
324.89
330.502
652.375
589.514
386.902
661.93
369.663
630.392
614.899
610.187
609.842
610.731
375.305
612.868
613.014
674.364
367.618
670.821
387.404
357.567
624.286
611.834
371.426
612.304
611.981
590.861
388.913
613.235
606.248
610.959
611.914
597.407
391.158
614.97
611.542
345.349
352.155
616.523
610.969
354.879
609.5
608.781
617.13
663.792
346.014
609.434
609.449
609.665
609.412
404.165
409.444
418.336
413.726
427.137
422.99
434.872
431.1
441.74
438.426
447.532
444.83
451.501
449.778
453.474
452.711
454.039
453.886
453.821
454.007
453.109
453.523
451.706
452.533
448.7
450.487
442.684
446.154
432.784
438.214
419.645
426.533
404.747
412.319
389.583
397.114
375.42
382.307
363.262
369.041
353.655
358.129
346.559
349.817
341.563
343.826
339.691
330.492
318.238
324.881
305.006
311.451
294.117
299.205
286.544
289.828
283.005
284.289
282.459
282.458
284.29
283.005
289.83
286.545
299.208
294.12
311.457
305.011
318.245
336.689
339.707
338.117
343.85
341.582
349.851
346.587
358.175
353.695
369.1
363.314
382.377
375.485
397.196
389.66
412.416
404.837
426.637
419.749
438.274
432.877
446.055
442.682
450.08
448.466
451.679
451.09
452.114
451.989
452.025
452.141
451.439
451.798
450.168
450.913
447.73
449.135
443.664
445.917
437.923
440.979
431.022
434.595
423.381
427.275
415.352
419.39
407.555
411.377
404.024
609.636
609.539
609.586
609.484
609.503
609.418
609.508
609.483
609.093
609.308
609.361
609.325
609.415
609.339
609.28
609.419
610.366
609.593
614.866
611.984
620.01
649.349
647.974
412.007
619.281
636.642
611.061
609.898
609.684
609.719
611.245
610.338
615.875
612.971
628.489
620.752
653.493
639.599
667.558
383.985
388.485
626.604
397.927
609.121
609.672
379.35
614.736
624.762
617.997
616.542
614.476
358.274
381.811
649.289
404.586
675.572
335.292
335.306
386.017
379.088
609.445
609.515
609.4
452.554
647.275
632.815
624.57
605.494
610.717
641.182
596.466
621.929
612.866
678.247
382.884
392.134
377.455
627.083
618.473
405.549
399.808
609.224
608.889
609.419
609.989
382.719
388.676
375.011
377.534
376.046
613.795
353.558
358.321
366.856
625.348
617.329
619.827
613.168
370.729
554.905
558.265
657.422
362.144
663.839
397.994
609.689
609.727
650.788
581.501
382.376
365.516
624.263
613.384
610.285
609.558
609.455
610.563
370.721
612.253
611.15
375.496
582.285
366.347
382.841
350.352
346.87
353.235
364.459
356.054
619.148
608.888
611.402
601.213
607.852
610.891
610.476
588.966
384.377
354.585
363.415
609.314
609.077
612.422
609.213
340.405
346.389
346.92
364.493
355.688
363.22
354.345
362.808
354.04
362.932
613.449
609.339
348.878
609.141
603.449
614.101
607.579
352.34
428.939
614.625
609.533
341.993
384.688
402.176
407.724
413.905
410.507
421.809
417.725
430.232
426.126
437.947
434.189
444.763
441.469
450.728
447.846
455.289
453.213
457.918
456.862
458.792
458.526
458.653
458.819
457.913
458.346
456.462
457.314
453.404
455.217
447.338
450.831
437.396
442.845
424.222
431.126
409.306
416.884
394.153
401.674
380.028
386.893
367.862
373.661
358.092
362.67
350.768
354.126
345.754
347.997
342.38
343.929
339.534
340.96
337.999
329.227
333.846
317.339
323.837
304.03
310.545
292.938
298.124
285.112
288.532
281.371
282.736
280.792
280.792
282.736
281.372
288.534
285.113
298.128
292.941
310.552
304.035
323.847
317.347
333.86
329.238
338.018
340.977
339.552
343.946
342.397
348.02
345.773
354.162
350.797
362.718
358.134
373.72
367.916
386.962
380.092
401.753
394.226
416.975
409.391
431.215
424.317
442.865
437.462
450.658
447.28
454.702
453.078
456.324
455.723
456.778
456.646
456.655
456.791
455.96
456.387
454.458
455.333
451.703
453.269
447.35
449.734
441.496
444.578
434.641
438.172
427.119
430.941
419.381
423.239
412.197
415.663
409.051
609.617
609.651
609.587
609.595
609.618
609.594
609.632
609.704
609.655
609.346
609.548
609.506
609.519
609.528
609.509
609.563
609.7
609.602
609.483
609.396
610.501
609.77
614.831
612.041
626.979
619.47
637.31
609.926
639.838
617.082
631.423
604.23
609.938
609.727
609.764
611.257
610.362
615.809
612.989
628.387
620.615
654.384
639.891
669.351
379.773
385.059
622.727
386.486
393.379
608.95
609.582
381.531
387.363
375.268
349.29
615.272
383.379
375.01
622.525
613.748
362.368
386.774
621.307
616.779
391.67
398.347
401.326
356.374
609.503
393.251
609.673
673.615
645.054
398.731
327.188
410.923
609.763
609.797
609.587
611.171
629.659
600.28
606.322
638.495
589.17
616.829
606.949
378.235
390.466
374.096
621.747
615.905
395.822
608.958
608.73
609.42
609.862
393.256
370.336
372.805
371.337
346.533
335.475
513.13
612.507
372.619
620.795
614.681
616.434
610.715
350.909
367.732
573.628
332.825
360.846
345.393
343.175
341.471
332.276
336.299
609.742
609.828
665.229
650.292
573.013
377.519
361.981
415.045
423.276
371.532
618.689
614.734
405.709
399.538
608.706
609.526
610.29
595.193
603.361
365.647
345.278
610.153
371.561
614.504
609.085
374.924
579.895
411.969
410.729
347.235
377.979
349.825
371.196
608.84
609.766
609.73
610.831
605.469
560.124
608.961
371.126
336.142
341.009
379.508
394.78
371.12
609.094
611.397
606.481
371.058
343.115
608.752
596.055
609.59
609.405
611.849
605.477
346.431
601.933
340.829
612.132
350.462
610.575
609.616
415.503
404.595
411.828
404.65
410.309
412.562
411.049
417.734
414.832
424.872
421.117
432.767
428.799
440.37
436.662
447.055
443.832
452.944
450.063
457.829
455.545
461.078
459.708
462.358
461.933
462.351
462.472
461.596
462.043
460.104
460.977
457.007
458.839
450.919
454.421
440.977
446.422
427.837
434.721
412.979
420.525
397.891
405.38
383.788
390.655
371.484
377.378
361.457
366.159
354.102
357.43
349.332
351.438
346.138
347.625
344.7
336.28
327.868
332.261
316.469
322.75
303.219
309.742
292.003
297.256
283.962
287.505
280.019
281.467
279.405
279.405
281.468
280.02
287.508
283.964
297.26
292.006
309.75
303.225
322.761
316.478
327.88
341.492
344.72
343.195
347.643
346.157
351.461
349.351
357.465
354.13
366.208
361.499
377.435
371.537
390.72
383.85
405.455
397.961
420.609
413.059
434.787
427.918
446.389
441.007
454.162
450.791
458.208
456.58
459.845
459.237
460.293
460.168
460.119
460.289
459.289
459.797
457.549
458.555
454.518
456.219
449.972
452.43
444.109
447.177
437.346
440.826
429.981
433.706
422.709
426.277
416.475
419.408
413.953
609.825
609.77
609.798
609.716
609.741
609.687
609.697
609.688
609.685
609.694
609.691
609.843
609.715
609.7
609.646
609.683
609.665
609.674
609.656
609.658
609.676
609.661
609.732
609.701
609.765
609.658
609.606
609.511
610.571
609.892
614.573
612.02
625.583
618.753
647.621
635.344
661.017
637.339
613.355
627.283
597.615
609.762
609.853
609.797
609.965
609.799
611.213
610.366
615.456
612.816
627.469
619.978
654.125
638.877
683.448
671.01
378.744
375.066
382.528
618.583
381.72
388.955
608.747
609.527
391.993
370.612
340.103
396.14
391.852
613.307
380.266
618.4
610.722
359.578
478.862
565.458
355.032
337.743
609.601
356.837
738.31
475.731
628.917
661.197
339.529
339.551
609.875
609.9
609.652
663.695
625.854
594.268
601.019
636.505
580.303
612.737
601.79
685.472
689.9
373.186
389.942
371.468
520.253
537.22
504.429
545.388
616.806
613.035
392.411
608.566
609.45
609.718
588.469
597.649
365.144
367.617
366.131
337.508
564.878
399.986
391.037
327.256
325.455
609.807
631.866
379.312
612.46
610.82
608.18
549.346
367.621
570.639
416.803
415.752
409.015
647.868
566.42
609.88
350.604
609.94
372.348
359.283
396.101
390.684
355.326
378.106
400.958
613.989
429.257
397.838
608.621
609.626
609.957
466.796
479.267
600.455
555.731
360.123
336.754
609.693
609.591
609.54
607.837
473.54
468.797
594.783
378.884
803.847
760.175
579.847
336.085
607.202
372.856
325.245
330.947
376.338
347.725
378.217
409.571
407.993
410.186
404.427
608.827
609.848
610.169
609.198
609.483
609.551
483.031
602.324
476.236
491.179
378.596
605.686
337.717
608.593
338.542
609.893
374.45
462.353
396.949
706.034
378.478
587.331
609.145
609.75
609.934
610.296
609.809
585.144
602.247
340.694
594.384
336.952
609.489
610.325
599.582
344.581
349.07
331.911
609.711
610.355
678.966
428.895
413.119
402.297
404.81
395.401
399.771
400.355
410.576
415.064
414.843
414.713
416.623
415.447
420.983
418.48
427.44
424.013
434.913
431.114
442.306
438.681
448.875
445.717
454.539
451.779
459.505
457.172
463.181
461.557
464.918
464.292
465.117
465.16
464.391
464.839
462.875
463.762
459.758
461.598
453.678
457.171
443.787
449.201
430.741
437.575
415.973
423.478
400.923
408.403
386.738
393.666
374.203
380.224
364.028
368.77
356.849
360.053
352.35
354.335
349.102
350.677
345.599
347.445
341.237
343.531
338.757
334.328
337.361
326.349
330.481
315.539
321.541
302.509
308.961
291.293
296.56
283.113
286.746
278.994
280.52
278.347
278.347
280.521
278.995
286.749
283.115
296.565
291.297
308.97
302.516
321.553
315.55
330.497
326.362
337.385
334.348
338.779
343.549
341.256
347.463
345.617
350.697
349.12
354.358
352.37
360.087
356.877
368.816
364.068
380.28
374.255
393.73
386.798
408.476
400.991
423.552
416.049
437.614
430.806
449.113
443.778
456.825
453.478
460.852
459.229
462.487
461.88
462.921
462.804
462.677
462.883
461.707
462.295
459.758
460.875
456.511
458.313
451.859
454.351
446.05
449.076
439.396
442.814
432.316
435.858
425.696
428.893
420.36
422.819
418.364
609.882
609.904
609.839
609.862
609.788
609.814
609.737
609.762
609.675
609.709
609.58
609.632
609.473
609.524
609.439
609.674
609.636
609.729
609.704
609.774
609.751
609.825
609.799
609.85
609.927
609.78
609.859
609.708
609.716
609.622
610.569
609.976
613.993
611.778
623.591
617.614
644.633
632.696
658.595
676.216
322.943
608.458
624.207
591.222
609.791
609.824
609.982
609.828
611.107
610.35
615.021
612.553
626.244
619.18
652.881
637.346
687.99
671.675
691.032
369.928
380.954
542.425
508.228
614.474
377.066
384.855
608.532
609.485
475.226
474.884
583.537
590.931
609.717
602.4
592.793
394.645
397.843
392.332
842.457
396.65
365.435
331.405
339.646
396.259
325.337
609.992
469.598
386.378
613.891
607.711
607.782
359.459
478.495
541.695
548.84
562.238
784.841
416.746
398.533
609.389
391.094
420.719
410.475
414.681
445.171
609.701
673.472
659.986
621.835
634.436
576.45
597.626
609.979
367.812
399.315
390.284
369.525
384.014
366.453
384.67
396.332
612.839
343.599
479.721
608.038
514.165
341.363
389.829
608.436
609.511
609.566
609.194
608.83
608.831
609.213
478.965
479.088
575.636
571.037
579.335
594.33
552.326
407.809
407.988
359.534
362.061
360.557
329.463
609.49
898.303
609.854
404.625
320.512
319.165
321.205
608.574
607.085
466.236
464.477
386.15
576.851
331.588
396.648
609.061
610.315
688.763
342.002
605.994
605.206
699.057
698.131
341.941
339.415
334.992
336.109
609.973
609.948
609.993
558.401
562.276
554.985
559.918
366.931
337.78
321.521
369.623
357.469
389.91
355.308
384.51
404.988
608.226
397.148
471.726
608.264
608.567
609.752
609.586
609.584
483.768
483.005
567.271
597.018
550.621
464.771
433.451
354.247
329.586
609.705
328.319
320.527
605.854
385.647
399.174
332.776
425.927
552.112
463.96
553.347
367.533
336.65
380.132
347.465
400.134
395.846
334.686
384.808
411.851
577.905
404.741
608.846
609.981
609.466
609.881
486.846
556.21
597.913
422.058
450.502
445.714
462.356
385.228
335.24
462.127
369.373
338.677
389.447
585.635
416.14
411.805
334.821
609.231
610.032
609.224
546.594
596.218
451.984
338.852
343.105
328.191
609.594
608.937
592.015
474.139
674.228
515.168
720.757
611.66
413.988
405.089
407.568
403.073
403.415
401.367
404.747
403.48
418.036
420.867
418.438
419.318
418.329
418.175
419.929
418.894
423.788
421.549
429.764
426.57
436.832
433.236
443.966
440.44
450.397
447.304
455.866
453.23
460.737
458.427
464.605
462.831
466.744
465.921
467.178
467.13
466.511
466.952
464.982
465.877
461.865
463.7
455.835
459.296
446.049
451.405
433.133
439.902
418.462
425.925
403.421
410.911
389.112
396.119
376.406
382.502
366.274
370.957
359.352
362.417
354.94
356.94
351.173
353.086
346.82
349.084
344.432
336.086
332.126
334.967
324.626
328.477
314.473
320.152
301.83
308.123
290.779
295.986
282.595
286.252
278.378
279.953
277.709
277.708
279.954
278.379
286.255
282.597
295.992
290.784
308.132
301.838
320.165
314.485
328.494
324.64
332.147
339.438
344.449
341.962
349.096
346.834
353.103
351.187
356.964
354.96
362.449
359.38
371.001
366.312
382.558
376.457
396.184
389.173
410.981
403.489
425.988
418.531
439.912
433.178
451.261
445.998
458.862
455.563
462.838
461.234
464.451
463.855
464.854
464.754
464.533
464.781
463.438
464.094
461.322
462.526
457.934
459.795
453.251
455.742
447.51
450.495
441.013
444.331
434.361
437.651
428.377
431.244
423.522
425.802
419.98
421.553
418.37
418.936
609.915
609.938
609.869
609.893
609.802
609.839
609.706
609.758
609.57
609.645
609.38
609.481
609.172
609.274
608.963
609.08
608.862
608.867
609.381
609.306
609.029
608.932
609.197
609.114
609.397
609.295
609.577
609.492
609.709
609.649
609.802
609.76
609.871
609.839
609.922
609.898
609.947
609.809
609.887
609.752
609.815
609.727
610.557
610.042
613.525
611.61
621.986
616.701
641.597
630.035
656.27
675.107
481.371
581.227
621.365
586.453
609.889
609.994
609.95
609.816
609.837
609.997
609.856
610.99
610.325
614.515
612.258
624.797
618.27
650.838
635.344
692.108
670.83
698.952
364.42
379.975
375.978
390.847
611.488
703.283
587.428
372.678
381.281
401.77
609.46
609.251
479.003
587.214
546.76
549.392
406.596
401.163
404.031
644.886
398.359
398.124
399.54
418.428
414.625
359.858
323.982
440.376
609.7
401.511
319.21
490.072
465.132
392.822
408.39
610.166
607.483
538.051
534.444
605.343
692.794
459.454
479.579
460.573
491.822
403.713
422.612
506.501
336.693
336.718
418.718
610.023
449.443
651.616
615.938
566.862
631.418
567.095
594.385
362.184
545.942
361.677
399.939
390.78
368.87
383.188
365.669
390.374
400.85
609.624
608.355
474.534
503.282
388.176
608.1
608.336
609.596
609.406
609.626
483.581
483.064
575.645
590.703
547.215
476.688
511.018
426.725
408.343
353.592
356.229
354.698
322.934
609.721
609.696
609.729
687.522
409.512
315.559
314.595
316.89
711.019
710.159
607.833
605.011
605.06
459.805
460.229
392.282
396.753
328.01
606.303
608.911
424.996
606.632
544.184
446.781
460.452
549.912
906.002
558.769
610.168
610.008
610.162
361.327
343.415
374.116
358.065
390.5
356.124
407.164
412.881
409.684
390.486
409.105
568.249
559.646
697.723
485.594
397.32
608.533
609.892
609.183
609.949
607.247
488.473
487.001
564.013
592.506
348.786
440.849
469.127
697.134
427.307
427.515
425.015
425.46
348.136
324.301
609.784
462.759
332.857
317.443
604.513
391.59
537.259
330.106
419.843
420.957
422.002
595.132
364.485
362.164
343.831
385.122
348.542
397.283
403.687
390.976
891.883
543.715
575.976
344.582
405.973
395.545
608.9
610.114
608.763
610.131
491.281
553.108
591.825
542.485
447.053
435.666
701.155
393.268
413.995
333.376
337.265
326.478
609.35
608.179
588.656
452.832
666.347
687.09
411.365
414.6
406.525
408.628
405.247
405.271
407.364
405.855
409.526
423.933
422.814
424.268
420.936
421.581
421.012
420.773
422.658
421.623
426.39
424.253
432.006
429.014
438.607
435.237
445.389
442.029
451.685
448.633
457.005
454.473
461.697
459.445
465.585
463.757
468.026
467.039
468.696
468.552
468.116
468.538
466.593
467.485
463.504
465.319
457.566
460.972
447.926
453.205
435.157
441.856
420.565
428.001
405.489
413.012
391.04
398.125
378.25
384.365
368.272
372.849
361.567
364.543
356.945
359.129
352.546
354.788
347.941
350.242
343.149
345.593
337.724
340.444
334.832
333.318
333.802
329.665
332.359
322.685
326.247
313.217
318.551
301.118
307.161
290.439
295.481
282.542
286.059
278.404
279.966
277.738
277.738
279.967
278.405
286.063
282.545
295.487
290.443
307.172
301.126
318.565
313.23
326.266
322.7
332.385
329.688
333.83
333.345
334.863
340.471
337.752
345.614
343.173
350.254
347.959
354.8
352.556
359.151
356.962
364.573
361.594
372.891
368.307
384.421
378.299
398.189
391.1
413.079
405.555
428.052
420.628
441.834
435.181
453
447.829
460.449
457.219
464.341
462.771
465.912
465.334
466.27
466.195
465.874
466.163
464.666
465.384
462.419
463.688
458.948
460.84
454.277
456.751
448.628
451.558
442.374
445.54
436.183
439.227
430.622
433.308
425.675
428.086
422.026
423.554
421.076
421.255
421.616
421.23
422.224
609.977
609.992
609.946
609.961
609.902
609.928
609.813
609.864
609.665
609.746
609.457
609.569
609.197
609.331
608.932
609.061
608.691
608.813
608.546
608.593
608.578
608.543
608.741
608.646
608.955
608.846
609.212
609.08
609.465
609.343
609.673
609.575
609.821
609.755
609.913
609.873
609.963
609.941
609.999
609.982
610.032
610.012
610.172
610.174
610.182
610.028
610.125
446.721
609.95
609.83
450.855
609.903
609.837
610.5
610.088
612.849
611.312
619.78
615.455
637.846
627.115
670.985
652.645
669.604
726.98
541.776
571.761
617.166
579.443
610.096
610.134
610.002
610.043
610.092
610.004
610.886
610.34
613.959
611.962
623.084
617.255
647.89
632.918
691.423
668.066
708.354
358.644
605.761
380.439
375.084
483.88
415.291
418.167
395.879
608.891
611.099
476.267
368.757
378.229
608.16
609.448
609.663
483.284
583.534
544.297
492.788
486.647
481.956
455.173
408.657
412.459
402.633
405.101
400.414
401.044
400.676
400.283
403.676
401.92
405.93
427.65
427.379
414.887
353.959
318.216
609.738
463.947
407.023
314.859
706.277
417.542
490.706
499.714
607.27
603.721
500.845
604.747
460.724
398.354
324.3
672.827
431.876
436.274
356.57
345.333
524.693
706.739
607.766
729.303
482.724
408.129
422.844
543.998
451.267
421.302
463.16
418.469
711.642
428.99
645.193
610.415
574.812
560.556
415.664
567.775
593.963
609.781
609.94
356.348
350.457
366.71
400.775
391.627
369.544
383.921
366.525
418.756
412.488
395.8
405.178
688.21
544.517
607.136
456.601
721.285
489.878
388.161
588.317
510.109
427.096
607.778
608.224
609.694
609.231
610.008
488.247
487.254
571.802
586.228
423.958
426.834
428.16
436.229
479.435
549.912
475.561
459.158
427.579
425.021
423.407
424.32
366.357
425.791
419.353
409.191
347.462
350.184
348.636
318.454
609.861
610.031
609.998
399.488
414.025
312.517
311.7
314.183
603.695
455.927
397.643
318.98
420.715
418.331
461.186
664.701
340.054
337.361
330.86
331.857
609.802
609.957
690.101
360.034
518.949
339.817
355.699
351.029
379.861
359.44
392.252
358.293
406.349
396.185
539.964
413.274
627.861
565.769
604.392
705.732
398.357
335.521
608.522
610.031
608.758
610.228
493.545
491.484
560.007
586.52
537.193
424.855
442.293
456.667
429.05
530.167
466.592
425.25