/*--------------------------------*- C++ -*----------------------------------*\
| =========                 |                                                 |
| \\      /  F ield         | OpenFOAM: The Open Source CFD Toolbox           |
|  \\    /   O peration     | Version:  2212                                  |
|   \\  /    A nd           | Website:  www.openfoam.com                      |
|    \\/     M anipulation  |                                                 |
\*---------------------------------------------------------------------------*/
FoamFile
{
    version     2.0;
    format      ascii;
    arch        "LSB;label=32;scalar=64";
    class       surfaceScalarField;
    location    "0.00012";
    object      phi;
}
// * * * * * * * * * * * * * * * * * * * * * * * * * * * * * * * * * * * * * //

dimensions      [1 0 -1 0 0 0 0];

oriented        oriented;

internalField   nonuniform List<scalar> 
5190
(
-1.23498e-17
1.38279e-17
3.17957e-17
1.99073e-17
-2.71125e-19
1.41171e-17
-4.70595e-19
1.01402e-18
-4.4109e-19
1.1756e-18
8.57971e-18
1.00231e-17
4.60815e-17
1.93114e-17
2.57265e-17
3.55497e-17
2.64561e-17
5.50019e-18
1.00022e-17
8.65451e-18
-7.29192e-19
1.50175e-17
6.04439e-18
1.91207e-17
-1.1162e-17
-1.98238e-17
-4.05071e-17
-2.1097e-17
1.89895e-17
1.03298e-17
1.07832e-17
-3.65565e-18
1.88034e-17
1.91369e-17
-2.2607e-17
9.93513e-18
1.48554e-19
-4.20368e-17
1.76995e-17
-1.80394e-17
-1.01929e-17
2.40109e-17
2.59553e-17
2.77791e-17
6.43726e-18
1.23457e-18
-1.84335e-17
-4.4676e-18
-2.35488e-17
3.00583e-19
2.07346e-17
1.50082e-17
2.58448e-17
7.23e-18
-1.27543e-17
4.96282e-18
1.31503e-17
-2.87967e-17
-4.63386e-17
-2.87388e-17
-2.07114e-17
-8.72732e-18
6.52616e-18
-1.09138e-17
2.69688e-18
-7.98475e-18
-1.15541e-17
-1.60748e-17
-1.92331e-17
-5.08114e-18
-1.6224e-17
-6.73551e-18
-1.06808e-17
1.76598e-17
-2.71007e-17
-1.83426e-17
1.09262e-17
1.78792e-17
-4.7478e-18
-3.76642e-17
-1.01406e-17
-7.10561e-18
-2.47357e-17
6.97182e-18
3.09316e-17
4.0391e-17
2.11495e-17
2.27795e-17
-9.72451e-18
3.26543e-17
-2.48295e-17
1.14126e-17
-1.75505e-17
7.00942e-18
2.17051e-17
-1.47885e-17
-6.43637e-18
-1.3797e-17
-2.0101e-17
-6.80173e-18
-7.77201e-19
1.81538e-17
1.98609e-17
-1.06344e-17
-1.27619e-17
4.28842e-18
2.94172e-18
-8.96109e-18
-9.98788e-18
1.45836e-18
4.86805e-19
2.69977e-17
4.61009e-18
3.48234e-18
1.15791e-17
-7.03654e-18
1.77038e-18
1.53614e-17
4.67942e-17
4.31112e-18
5.96311e-19
2.82396e-18
-2.17424e-17
-1.67114e-17
3.41795e-17
-1.63291e-17
1.18005e-17
2.80739e-17
-9.34909e-18
4.27779e-17
-1.97527e-19
9.932e-18
-3.88015e-17
3.55333e-18
1.93411e-17
1.88529e-17
-2.20221e-17
-5.28225e-18
-2.34966e-17
-1.12189e-17
-1.16696e-17
-8.36289e-19
4.00994e-18
8.71089e-18
-3.34466e-17
2.5884e-17
-2.77929e-17
1.96171e-18
-1.8087e-17
1.68018e-17
1.25774e-17
-1.23935e-17
3.53575e-17
-9.91726e-18
-1.09539e-17
2.00521e-17
-5.46829e-17
4.8518e-19
-2.21683e-17
2.30656e-17
2.34577e-17
-2.66985e-18
-1.83001e-17
-2.886e-17
8.51426e-18
5.9313e-18
8.35945e-18
1.54604e-18
5.49565e-18
2.11128e-17
-8.91634e-19
2.94944e-17
4.6999e-18
1.72691e-17
2.03154e-17
3.78524e-17
-6.56311e-18
3.73588e-18
-1.79432e-17
2.43238e-18
-1.79635e-17
1.71217e-17
1.16253e-18
-1.11475e-17
-1.91673e-18
1.72782e-17
-1.35405e-18
-1.91919e-17
1.2875e-17
-1.35354e-17
1.09776e-18
-3.46947e-17
-1.10538e-17
-1.97425e-17
9.94684e-18
3.08199e-17
8.98553e-18
4.37949e-17
9.53111e-18
1.32468e-17
1.15758e-17
6.17739e-18
1.30917e-17
4.34284e-18
-1.23586e-17
-3.64839e-17
2.2929e-17
9.67669e-18
9.94033e-18
1.34659e-17
1.60194e-17
3.06693e-17
2.47661e-17
-1.55987e-17
2.75206e-17
2.02909e-17
-2.50308e-17
-2.23262e-17
-3.65792e-17
-2.72467e-17
1.35081e-19
2.78193e-17
1.86753e-17
1.65805e-17
-9.54878e-18
-1.1147e-17
-1.63939e-17
-1.70747e-17
1.43989e-19
-1.02481e-17
6.23698e-18
1.27914e-17
-9.3858e-18
1.10473e-17
-3.07354e-18
-1.75646e-17
-1.35357e-17
-3.79368e-18
-1.18707e-17
1.06908e-17
8.02855e-18
1.68634e-18
1.57897e-17
3.59115e-18
-3.3746e-18
-1.32463e-17
2.7541e-18
2.47659e-17
1.40151e-17
1.73797e-17
-1.09146e-17
-2.2633e-17
4.7457e-18
-1.00839e-17
1.1684e-17
-3.11965e-17
-1.87455e-17
6.55888e-18
-2.02589e-17
1.55296e-17
4.01831e-17
-1.14208e-17
-2.19941e-17
-2.65103e-17
2.74575e-18
1.426e-18
3.27031e-17
-4.70125e-19
2.45302e-18
-1.44356e-17
-1.77111e-17
3.86247e-18
1.8462e-17
-2.53172e-18
1.87782e-18
-3.35025e-17
7.07267e-18
-1.93079e-17
2.52281e-17
1.84845e-17
3.99406e-18
9.54611e-18
-3.96382e-18
1.96912e-17
-2.82271e-17
1.35357e-17
-1.66508e-17
-1.92846e-17
-4.32572e-17
-3.92724e-18
-1.28186e-17
1.85417e-17
3.35563e-17
2.61372e-17
2.78091e-17
2.99835e-18
-2.87102e-17
-1.97633e-17
-2.15048e-17
7.2249e-19
-6.76308e-18
8.40598e-18
1.18422e-17
9.714e-18
7.94008e-18
4.23871e-18
-1.34656e-17
3.07183e-17
9.62377e-18
-2.60411e-19
-1.68095e-17
-5.07519e-18
1.51771e-17
-4.3515e-19
-2.06252e-17
-1.99369e-17
-1.16118e-17
1.57296e-17
7.94184e-18
-1.79179e-18
3.43146e-18
-1.0612e-17
1.65612e-17
8.81356e-18
1.83196e-17
7.42299e-18
1.03602e-17
1.87269e-17
1.23544e-17
2.0334e-17
-1.3678e-17
1.65332e-18
-1.09771e-17
-1.56789e-17
-3.35153e-17
-2.01742e-17
5.61347e-18
2.50834e-17
2.60771e-17
2.08511e-17
2.93938e-17
-2.00939e-19
-5.6645e-18
2.24861e-18
5.31459e-18
-7.68428e-18
-1.78237e-18
-1.32144e-17
-7.75166e-18
-5.53267e-20
1.15588e-17
-1.91779e-17
-3.60501e-20
-2.38301e-17
3.28166e-18
1.41476e-17
2.28115e-17
-1.39114e-17
-1.15243e-17
2.91067e-18
3.20521e-17
-2.39908e-17
1.0348e-17
-2.2737e-18
-3.0365e-18
6.12453e-18
-8.28088e-18
1.44441e-17
9.17608e-18
1.5157e-17
2.32574e-17
-6.24101e-18
-9.25494e-18
-2.42753e-17
2.4346e-17
-1.03604e-17
-3.17107e-18
-3.81667e-17
-1.58291e-17
-7.55341e-18
-5.39869e-19
-4.26955e-18
2.925e-17
3.16027e-17
1.56028e-17
-6.36367e-18
-3.13003e-18
1.62211e-17
-1.64889e-18
9.073e-18
9.07258e-18
3.14448e-17
-3.50731e-17
3.2456e-17
2.42716e-17
2.66233e-17
1.73413e-17
2.16424e-18
-6.97816e-18
-1.66958e-17
6.50213e-18
5.34352e-18
4.73642e-19
-9.12932e-18
6.55461e-18
-2.38829e-18
-4.4771e-18
-7.82463e-18
-1.77278e-17
-1.2061e-17
-1.24481e-17
3.82285e-19
6.16557e-18
9.94135e-18
3.40178e-18
-8.90953e-18
2.26396e-17
6.6482e-18
1.39197e-17
-1.83763e-17
1.12936e-17
3.83537e-18
-1.08149e-17
-2.92722e-17
-4.93258e-18
-5.38341e-19
1.56464e-18
1.04479e-18
-2.63553e-18
1.52041e-18
-2.22933e-17
-2.99092e-18
-8.44446e-18
-2.83902e-17
-6.99296e-18
-2.21544e-17
2.10589e-17
1.97816e-17
-6.29803e-18
-7.59505e-18
-8.39207e-18
3.23472e-17
1.94126e-17
5.23252e-17
1.15307e-17
-4.59644e-17
-2.48814e-17
-3.03428e-17
-5.40664e-18
3.27824e-18
3.93028e-19
2.2752e-17
1.01014e-17
-1.22806e-17
3.10776e-17
4.02654e-17
1.03631e-17
8.60624e-18
-1.87749e-17
-5.65668e-18
-7.65982e-18
-9.46812e-18
2.73364e-18
-3.2549e-17
-5.36093e-18
-5.29945e-18
-1.3806e-17
-1.76532e-17
-2.63543e-17
-3.16471e-17
-2.10786e-17
-9.6291e-19
-3.87564e-18
-1.38219e-17
-1.04712e-17
-1.51829e-17
-2.35814e-18
-1.52394e-18
6.84191e-18
-7.11133e-18
-1.88068e-17
8.13712e-18
-9.78015e-19
3.1491e-18
1.32168e-17
1.33371e-17
-3.13542e-17
-1.94945e-17
-1.5205e-17
-2.1527e-17
-1.08078e-17
1.33036e-17
-1.60322e-17
7.60255e-18
-9.4684e-20
1.17862e-17
5.15424e-18
-6.36291e-18
2.72567e-18
2.4399e-18
-8.22317e-18
1.46699e-18
1.19811e-18
1.30285e-17
5.6243e-18
-5.18289e-16
-3.37889e-17
2.81239e-14
2.91082e-17
-9.35124e-19
-2.98291e-17
-2.84825e-17
5.03829e-16
-8.38895e-18
4.74581e-18
2.81545e-14
2.61663e-17
-3.3678e-17
-2.97615e-17
-3.20848e-17
-2.66786e-17
-3.45183e-17
-1.76231e-18
2.45638e-17
2.91395e-17
-3.34913e-17
-2.62523e-17
-7.3431e-18
-4.80166e-17
-1.76506e-17
-3.17128e-17
1.7353e-17
7.43091e-18
8.26864e-18
2.05365e-17
4.85164e-17
4.97266e-17
1.58842e-17
-9.78338e-18
9.92068e-18
6.97536e-18
-1.89897e-18
1.03322e-17
1.53339e-17
1.46238e-17
-7.50229e-19
3.34878e-18
6.83308e-18
-9.15546e-18
1.29036e-17
-2.21916e-18
8.11068e-18
-1.77606e-18
2.20627e-17
1.69021e-17
9.42926e-18
1.43237e-18
9.54977e-18
-2.15451e-18
3.67693e-17
4.80424e-17
2.28902e-17
4.6545e-17
-1.45788e-17
-1.4365e-18
2.07035e-18
1.08494e-17
-2.44639e-17
-2.98236e-17
2.04172e-17
-2.16913e-17
-1.61559e-17
-1.97185e-17
-2.2369e-17
2.03824e-17
-2.55947e-18
1.8161e-17
5.76629e-19
-3.44489e-17
-2.14149e-17
-2.2848e-17
2.05744e-17
2.88288e-17
4.74537e-17
2.32238e-17
-3.09143e-18
-2.21884e-17
5.51538e-19
2.22303e-17
3.20094e-17
-9.28372e-18
-8.31461e-18
4.36377e-18
3.02329e-17
-1.31327e-17
1.38425e-17
7.44062e-19
2.61704e-17
1.21028e-17
7.41788e-18
-3.16145e-17
2.73047e-17
-2.62874e-17
-4.80947e-18
5.08098e-18
7.97782e-18
2.06517e-17
-8.81898e-18
-3.42917e-17
5.51308e-18
5.47249e-18
-2.20671e-17
1.1446e-17
-1.02864e-17
3.98712e-17
-8.91475e-18
-8.82947e-18
8.51069e-18
3.11912e-17
-1.93057e-17
2.44417e-17
1.73479e-18
9.19517e-18
5.43449e-18
4.35714e-17
2.9802e-17
1.92517e-17
1.35998e-17
2.34595e-17
-9.22874e-18
8.7479e-18
-1.08822e-17
2.18197e-18
-2.23412e-17
-4.26769e-18
1.00192e-18
-2.75787e-17
3.06318e-17
-2.60115e-18
-2.42186e-17
-2.47302e-17
-2.83242e-17
-4.60527e-17
-2.19859e-17
-1.22849e-17
-1.96514e-17
1.15735e-17
1.78406e-17
2.42616e-17
-1.64565e-19
-2.57662e-18
8.48345e-18
-4.57868e-18
7.16926e-18
-1.0162e-18
2.04878e-18
1.34417e-17
2.77363e-17
1.13452e-17
3.89799e-19
9.04693e-18
-1.911e-17
-1.96093e-17
-1.35198e-17
-2.9937e-17
-3.6314e-17
-1.07338e-17
4.54026e-18
-8.77546e-18
3.64431e-17
1.83771e-17
-2.88329e-17
-3.57799e-18
-1.79438e-17
-1.30103e-17
-1.45828e-17
-8.53963e-18
-9.73123e-18
-9.01233e-19
-2.96696e-18
1.1383e-18
-3.1034e-18
2.93345e-18
-1.99171e-18
2.54834e-18
1.51676e-18
-7.7848e-19
9.75163e-18
-5.28537e-18
-7.77915e-18
5.14971e-18
2.76357e-18
-5.09552e-18
-7.34546e-18
1.631e-17
1.57415e-17
-4.74338e-20
-2.83378e-17
1.56395e-17
-5.13655e-18
-6.82366e-18
1.65987e-17
3.87645e-17
3.009e-18
2.5233e-18
-1.8977e-17
-1.51956e-17
2.99969e-17
1.87449e-17
1.17982e-17
-7.97372e-18
3.11897e-18
3.23092e-17
-4.93791e-18
7.66747e-18
2.06218e-17
2.23254e-17
3.45172e-17
1.50384e-17
2.23951e-17
1.3033e-17
-2.01935e-18
-1.75681e-17
-2.63936e-17
-4.67922e-18
-1.56268e-17
2.8967e-17
-3.5763e-18
-2.96828e-18
-1.61664e-17
-1.16158e-17
1.30964e-17
6.44649e-18
8.6185e-18
4.92073e-18
1.19038e-17
2.16637e-17
3.68901e-17
3.5545e-18
-8.59158e-18
-4.64864e-17
1.07434e-17
-1.07107e-18
-6.79321e-18
7.2742e-18
1.94634e-17
3.20192e-17
1.50705e-17
1.97534e-17
-1.29193e-18
4.63454e-17
-1.54981e-17
6.71322e-18
1.80437e-17
2.98067e-17
-1.23943e-17
1.78891e-18
-8.3768e-18
6.12064e-18
-4.06317e-18
-1.03041e-17
1.17354e-18
2.01033e-18
9.70873e-18
-4.29695e-18
-5.8508e-18
1.05557e-17
-3.73372e-18
-9.30982e-18
6.64074e-19
1.8658e-17
-1.45014e-17
1.16276e-17
-8.61045e-18
2.41235e-17
-2.12657e-18
-1.08979e-17
-5.03163e-18
-1.56425e-17
1.0262e-17
2.04456e-18
-3.16991e-17
-2.68994e-17
3.29616e-17
3.9004e-17
3.86505e-17
-8.86856e-19
-3.3811e-17
3.59883e-13
-1.61459e-17
3.6014e-13
-9.10737e-18
-2.22757e-18
-3.13269e-17
-2.37544e-18
2.29756e-17
-2.25115e-17
-2.57783e-18
1.98638e-17
-1.44631e-17
4.78305e-18
-6.18688e-18
-2.1843e-18
3.16051e-18
1.51371e-18
-5.10489e-19
9.91592e-18
6.87977e-18
-1.17197e-17
-2.06122e-17
-4.49621e-18
-2.25297e-17
2.81893e-18
-1.12225e-17
-2.13612e-18
-1.11516e-17
1.00973e-17
1.48944e-17
2.16857e-19
3.602e-13
-2.81381e-14
-6.02435e-17
-3.08907e-16
-2.80363e-17
1.51692e-11
-9.44602e-16
1.51818e-11
1.67502e-17
-1.5636e-17
-3.82282e-17
-4.1479e-18
1.28414e-17
-3.11911e-18
-4.78201e-17
-2.10351e-17
-1.19926e-17
1.50708e-17
-1.51211e-18
-8.73523e-18
-2.73045e-17
1.94584e-17
-7.0529e-18
-2.88455e-18
8.11543e-18
2.25663e-19
4.13249e-18
1.32937e-17
1.01322e-17
6.89643e-18
1.00517e-18
2.35989e-17
2.79519e-17
-1.37569e-17
1.39342e-17
1.46558e-17
2.38135e-18
-1.04828e-17
6.08611e-19
4.70339e-18
8.86751e-18
2.16247e-19
5.4435e-18
1.15952e-18
7.52927e-19
-1.40347e-17
4.55834e-18
-5.40408e-18
-1.44173e-17
-2.19036e-17
-1.28994e-17
1.79127e-18
1.10467e-17
2.69695e-18
4.91811e-20
-3.9377e-18
-2.31838e-18
-1.18917e-17
1.50343e-19
-8.56382e-18
-1.94363e-17
1.82264e-17
1.31874e-17
1.47558e-17
-8.19636e-18
2.49387e-17
-3.13439e-17
-6.63404e-19
-8.87678e-18
-4.69523e-17
-5.72493e-17
-4.1369e-18
-4.782e-17
1.08408e-17
-1.14924e-17
-1.93391e-17
-2.22658e-17
1.10785e-17
1.09884e-17
1.29105e-17
1.62671e-17
-6.68969e-18
5.67134e-18
1.54766e-17
1.52868e-17
9.29716e-18
-3.34697e-18
-1.22102e-18
-1.51228e-17
-2.19822e-17
-8.87691e-19
1.9422e-17
4.21235e-18
-3.10822e-19
-6.0894e-19
5.56025e-18
-1.88687e-17
-3.57099e-17
2.33645e-17
3.02272e-18
-4.13696e-18
-3.2363e-17
-5.04657e-18
-1.02496e-17
1.92541e-17
-1.82665e-17
-2.54633e-17
-5.96482e-18
8.27819e-18
1.0732e-17
2.16822e-19
-1.02322e-17
-1.53675e-18
1.3184e-17
4.9191e-18
-2.81765e-18
-1.33082e-17
8.50004e-18
-2.03438e-17
1.25911e-17
5.02824e-18
6.05836e-18
2.33037e-18
-5.96985e-18
3.7405e-17
-3.68768e-17
-1.03543e-17
-2.13084e-17
2.19595e-17
-1.82723e-18
-3.1239e-17
1.87738e-17
1.06915e-17
-2.90508e-17
1.90473e-17
-1.58442e-17
4.67351e-17
-2.7923e-17
5.20553e-16
9.48825e-20
-5.72942e-18
-1.68247e-17
2.44487e-17
1.79775e-17
4.56042e-17
8.33486e-18
1.34916e-17
1.23802e-17
6.96599e-18
2.08234e-17
8.61265e-18
-2.34526e-17
3.42872e-18
2.96258e-17
-1.96583e-19
-1.98457e-18
9.22942e-18
1.90548e-17
2.57904e-17
3.60671e-13
-2.81975e-14
-7.41738e-17
4.20938e-16
-9.43423e-16
1.51901e-11
1.5171e-11
2.18309e-17
1.72247e-17
-3.21619e-17
-1.42466e-17
-1.9914e-17
-2.86359e-17
-2.1653e-17
-2.84441e-17
-3.14709e-17
-1.05688e-17
-7.08938e-18
6.49243e-18
4.63958e-18
-2.13359e-17
2.39217e-17
-1.24747e-17
3.00616e-18
1.1725e-17
-1.13572e-17
6.47246e-18
1.08413e-17
3.05815e-17
9.68936e-18
-1.57353e-17
-1.41284e-17
-5.11134e-17
-2.03895e-17
-7.69829e-18
-1.50095e-17
4.37103e-18
-1.33967e-17
1.04492e-17
-2.99649e-17
5.2657e-16
-1.22425e-17
-2.26059e-17
1.71484e-18
-6.64072e-18
-7.12864e-18
2.85998e-18
1.09804e-18
-3.92971e-18
5.4469e-18
9.39176e-18
-5.27195e-18
1.29701e-17
4.1196e-18
-8.19901e-18
-2.05514e-20
-1.05298e-17
2.49307e-18
-9.677e-18
5.14262e-18
-3.40229e-18
-2.24018e-17
3.54239e-18
4.64876e-18
-9.50124e-18
-2.67864e-17
2.2951e-17
-1.91058e-18
-3.4507e-17
1.28668e-17
2.02388e-17
8.47008e-18
1.4962e-17
-3.90919e-18
-2.25038e-18
-2.95278e-18
-2.62396e-17
-1.78217e-17
-1.97123e-17
-2.57554e-18
5.7152e-18
4.32301e-18
4.78329e-18
3.14256e-20
-4.84739e-18
-3.52107e-17
1.80271e-17
1.35789e-17
2.76474e-17
4.14024e-17
3.19032e-17
-9.89055e-19
1.00549e-17
4.85706e-17
2.42243e-18
-3.6876e-18
1.05755e-17
1.2053e-17
-7.71194e-18
1.12914e-17
1.59922e-17
-1.75614e-17
2.60177e-17
1.78957e-17
1.23058e-17
2.21096e-17
2.29801e-17
-1.1764e-17
1.08939e-18
1.73057e-17
1.12353e-17
1.12353e-17
2.59214e-17
5.52547e-18
3.11545e-17
-1.8826e-18
-2.39407e-18
1.58526e-17
-8.47465e-18
1.7556e-17
4.12722e-18
3.53631e-18
1.3892e-18
8.31117e-18
-1.82276e-17
-1.4082e-17
-1.17907e-18
-2.12e-17
-1.57526e-17
-2.06718e-17
-4.39715e-17
-2.80371e-17
-6.3688e-18
9.65838e-18
-3.78065e-17
-2.23571e-17
5.5166e-17
4.6522e-18
4.7603e-17
-6.3568e-18
1.92745e-17
-3.65935e-17
-1.20056e-17
-2.7513e-17
1.20779e-17
-6.80337e-18
-6.12645e-18
-8.92395e-18
2.74464e-18
1.43639e-18
-9.55532e-19
-6.6303e-18
-3.48639e-17
-1.53562e-17
-2.13378e-17
4.75779e-18
4.58756e-19
-5.70211e-19
1.11345e-17
-9.82099e-18
1.72922e-17
4.68909e-18
-1.2697e-17
-1.63367e-17
-1.10077e-17
-1.75954e-17
-1.2699e-17
-1.93606e-17
-2.68349e-17
-8.56423e-18
-1.15457e-17
-1.70917e-17
-4.90793e-18
1.73472e-18
-1.42558e-17
-5.94431e-18
-1.52838e-17
-1.50409e-17
3.61223e-13
-2.8207e-14
-6.59169e-17
1.52232e-11
-1.20251e-15
-5.4282e-18
-1.70694e-18
-1.08105e-17
5.45987e-18
8.1156e-18
-3.67169e-18
1.65239e-17
1.61018e-17
2.56034e-17
-4.8228e-18
6.43024e-18
2.46796e-17
1.52178e-17
2.31194e-17
-5.12175e-18
-7.65549e-18
-2.58445e-17
-1.21885e-18
5.77457e-18
-4.32329e-18
-1.14128e-17
-1.97135e-17
-4.09128e-17
-4.115e-17
-4.14915e-17
-3.66672e-17
7.98873e-18
-1.77681e-17
-2.02683e-18
9.65946e-19
1.07749e-17
1.51649e-17
-3.0031e-17
1.20748e-17
1.71659e-17
3.44784e-17
-4.40414e-18
-1.17234e-17
2.53197e-17
2.58476e-17
7.71575e-19
-1.48027e-17
-8.16708e-18
8.38183e-18
-2.09697e-17
-2.01398e-17
-6.61449e-18
1.35664e-19
9.744e-18
-1.03516e-17
-1.24604e-17
-6.85183e-18
9.9241e-18
-3.31241e-17
-1.157e-17
1.69271e-17
5.13767e-19
3.61627e-13
-2.82413e-14
-6.0057e-17
1.52344e-11
-1.04354e-15
6.79513e-18
-1.47874e-18
-1.05429e-18
2.21993e-17
5.82759e-19
7.1009e-18
-1.01867e-17
-6.25181e-18
8.12158e-18
1.28878e-17
1.1484e-17
-6.44551e-18
6.86146e-18
4.90983e-18
-6.62678e-18
-1.63516e-17
3.7513e-17
2.22007e-18
-1.22452e-17
-2.42078e-17
-1.00382e-17
-1.2331e-17
8.18717e-18
-2.90469e-17
2.38989e-17
1.05544e-17
6.04104e-18
-1.38244e-18
-1.86796e-17
-1.02797e-17
-1.25486e-17
-1.187e-18
-2.07179e-18
-6.16871e-19
1.01785e-18
1.68318e-17
-1.5378e-17
-2.35414e-17
-1.31459e-17
2.06122e-18
-2.82244e-18
-6.70302e-18
-2.10614e-17
-9.85079e-18
-9.43865e-20
-2.12101e-17
-4.85838e-18
-1.63035e-17
-9.56929e-18
2.08514e-17
6.64219e-18
3.70397e-18
2.44428e-17
-7.47386e-18
1.86032e-18
-3.5694e-17
-4.01015e-17
-2.08777e-17
-1.33834e-17
-2.04243e-17
4.86616e-19
3.64538e-18
-2.16846e-19
1.07602e-17
3.27971e-18
-7.61019e-19
8.45678e-18
-1.0985e-17
-3.07239e-18
7.2659e-18
-7.21801e-18
-5.56358e-18
-3.89773e-20
3.59971e-17
1.81046e-17
3.55296e-17
-7.36595e-18
-2.08683e-17
3.23071e-18
-4.13518e-18
2.06986e-17
4.15375e-18
-2.59456e-17
9.17399e-18
1.23055e-17
-1.55852e-17
1.49754e-17
4.36636e-18
1.73728e-17
-2.69151e-18
-2.52211e-17
7.16514e-18
-7.49199e-18
-1.34147e-17
3.15906e-18
1.34812e-19
2.18538e-17
1.02573e-19
3.50546e-19
-1.68212e-17
-2.58418e-17
-5.69322e-18
-1.82526e-18
1.34238e-17
1.94299e-17
1.67881e-17
-1.99892e-17
-4.9085e-18
7.19006e-18
5.98693e-18
1.42496e-17
1.67596e-17
-1.01611e-17
-2.03166e-18
-3.73834e-17
-2.35203e-18
8.87512e-18
1.24121e-17
1.72983e-17
-2.76858e-17
3.29602e-19
9.93956e-18
1.51502e-17
-8.47578e-20
4.3666e-17
2.012e-17
2.44021e-17
-2.23432e-17
-1.72079e-18
1.48606e-17
-6.64582e-18
-1.56714e-18
-1.88103e-17
-9.34772e-18
-2.49352e-17
-4.12266e-18
3.78766e-17
-7.51515e-18
1.07907e-17
-1.20704e-17
2.76571e-17
5.17042e-16
2.50315e-17
5.20537e-17
-2.16411e-17
-1.63848e-17
-1.72726e-17
-1.81872e-17
-3.24991e-17
3.12385e-17
3.23771e-17
3.77369e-17
7.99659e-19
2.24431e-17
-1.12554e-17
-1.59516e-17
-2.69088e-17
1.54431e-17
2.25507e-17
3.16589e-17
1.95845e-18
3.75408e-18
-5.03428e-15
-2.78703e-14
1.42316e-10
3.18646e-14
-4.93712e-14
1.42563e-10
1.42349e-10
-2.6868e-18
2.96848e-18
5.04852e-14
1.4287e-10
-6.95101e-14
1.42506e-10
-1.95864e-17
-2.12846e-17
-1.13773e-17
-1.90734e-17
2.85264e-18
-2.2984e-18
-1.1918e-17
-1.07019e-17
2.50692e-18
-6.01349e-18
-2.23153e-17
-1.47817e-17
-2.1311e-17
-1.31066e-17
-2.21291e-17
-3.04544e-17
2.94819e-18
1.3578e-18
2.38598e-17
4.15953e-18
7.81845e-18
-4.72129e-18
-2.28694e-17
-4.81823e-18
-2.22744e-17
3.19156e-17
-1.92441e-18
-2.57025e-17
5.52296e-18
2.41232e-17
3.0834e-18
-9.06685e-18
3.89838e-17
3.5921e-17
-4.75691e-17
5.28847e-16
1.31494e-17
4.9026e-17
-1.4966e-17
-1.83191e-18
-8.90166e-18
-5.5033e-18
-1.88464e-17
-1.2329e-17
-1.07443e-17
-1.51692e-18
-1.1959e-17
-7.98089e-18
-5.88882e-18
3.47825e-18
-9.28799e-18
-8.25353e-18
-1.32276e-17
-5.73253e-18
9.55407e-19
-1.87292e-17
-7.31894e-18
-1.91353e-17
1.02789e-17
2.24022e-17
1.58701e-17
2.10128e-17
-6.30919e-18
1.57202e-18
1.62898e-17
-5.48881e-18
-1.67359e-18
-2.22172e-18
-2.20631e-17
-1.26378e-17
-2.58639e-17
-2.87719e-17
-3.37321e-17
-3.19097e-17
2.26663e-17
-2.92067e-17
-2.4101e-17
-2.90225e-17
1.90142e-17
-9.21645e-18
3.82092e-18
-3.50102e-18
-1.63799e-17
-2.01521e-17
-1.32685e-17
-5.03613e-17
-5.63726e-18
-5.14537e-18
-4.58624e-17
3.07454e-18
-6.23227e-18
2.41698e-17
1.6426e-18
7.24218e-18
-2.43626e-17
6.2526e-18
2.85044e-17
4.43756e-17
-5.04478e-18
-2.37047e-17
2.80526e-17
-1.46227e-18
-2.24462e-17
1.26909e-17
-4.64196e-17
1.67615e-18
4.92718e-18
2.72793e-17
1.14893e-17
2.80296e-18
2.26324e-17
7.87913e-18
-3.03583e-17
-1.3688e-17
5.94953e-18
4.88267e-18
-4.07327e-17
-3.30068e-17
-1.22637e-17
4.12224e-18
-1.25122e-17
5.89488e-19
-1.3893e-18
3.26977e-17
3.61718e-18
6.55885e-18
-2.10822e-17
8.88198e-18
-1.99833e-17
-2.71543e-17
-3.71054e-17
-4.01045e-18
2.70232e-17
2.86564e-17
4.51047e-17
1.49223e-17
6.90143e-18
-1.94558e-17
-2.46875e-18
1.16828e-17
-2.67658e-17
-4.18148e-17
-5.02656e-17
8.56159e-18
1.02899e-17
-1.66173e-19
2.05648e-17
2.46705e-17
-1.21973e-18
5.37919e-17
1.54183e-17
2.50904e-17
8.83659e-18
-2.9991e-17
-8.86198e-18
-4.57495e-17
-1.94837e-17
2.40014e-17
1.50752e-19
4.70809e-17
-5.836e-19
-2.65154e-17
1.92542e-18
2.17173e-18
-3.18505e-18
1.05235e-17
-1.57953e-17
2.15934e-17
4.97784e-17
2.00685e-17
4.3512e-17
-2.54308e-17
-6.01603e-18
1.76492e-17
-3.38339e-18
2.67574e-17
1.12451e-18
2.85795e-18
-8.89466e-19
8.36892e-19
-1.37338e-18
3.10372e-18
2.52833e-18
8.8631e-18
4.77023e-18
-5.85395e-18
7.11463e-18
3.13205e-18
1.42161e-17
3.16873e-18
-3.04302e-17
-7.49467e-18
9.7076e-19
1.3436e-17
-1.56906e-17
1.1553e-17
1.75513e-17
1.27371e-17
8.11635e-18
-9.61019e-18
-5.13953e-17
-1.01991e-17
1.78308e-17
1.1476e-17
4.63376e-18
1.08222e-17
9.97952e-19
1.46511e-17
2.34709e-20
7.74713e-18
-1.91182e-17
3.29183e-18
-6.88465e-18
-1.67047e-18
-4.64816e-18
8.51771e-18
4.95934e-18
1.22184e-17
-4.47778e-17
-1.78291e-17
1.25181e-18
1.02206e-17
-2.22795e-18
7.3042e-18
-2.60331e-18
1.87077e-17
4.57091e-18
-1.62012e-17
2.16258e-17
-1.96241e-17
7.43761e-18
1.8567e-17
1.14678e-17
3.98719e-17
3.11842e-17
4.54062e-18
1.28314e-17
7.36429e-18
2.36654e-17
1.87502e-17
1.2069e-17
3.28041e-18
-3.9099e-18
-1.19675e-17
-6.61729e-14
1.42928e-10
7.73428e-19
-1.32375e-17
-1.83362e-17
-1.62113e-17
-2.03796e-17
-1.51907e-17
-6.50761e-18
-1.85257e-17
2.32981e-17
1.65065e-17
-1.38507e-17
-1.08616e-17
-2.29285e-17
-2.86134e-18
2.67972e-18
-3.76883e-18
1.77155e-17
-1.07954e-17
-1.04213e-18
4.1201e-18
1.31026e-18
3.17691e-17
-2.04876e-17
-2.11641e-17
6.9775e-18
-4.63513e-18
-1.05664e-17
5.40634e-18
-5.5264e-18
1.7288e-17
4.03272e-18
-5.67165e-18
-8.48405e-18
-1.12357e-17
1.02292e-18
-7.14216e-18
-2.05407e-17
8.53324e-18
-4.2616e-17
-6.49854e-18
-1.23214e-17
1.72776e-17
9.72787e-18
-2.0771e-17
6.82412e-18
2.35496e-17
-3.22511e-18
5.78733e-18
-3.23923e-18
-1.44394e-17
-2.4123e-17
2.30367e-18
-7.4604e-19
-6.99479e-18
1.22216e-17
1.86486e-18
5.19823e-19
-1.4778e-17
-2.9334e-18
-1.51699e-17
-3.83053e-18
-2.05065e-17
-5.09847e-18
2.06678e-17
1.90584e-17
-9.2423e-18
5.10862e-18
-3.21082e-18
-4.29514e-18
-2.2706e-17
-7.1891e-18
1.44673e-17
-1.80181e-18
-1.85404e-17
-1.42451e-17
-1.76613e-17
2.20702e-17
7.11441e-18
-3.03465e-13
2.35404e-13
5.07549e-09
1.43377e-10
-1.52777e-11
-7.14127e-14
-3.57e-13
5.08848e-09
-3.35006e-18
1.31321e-17
1.63439e-17
3.55804e-17
-1.48576e-17
-5.33728e-18
-1.12486e-18
-2.04738e-18
1.15581e-18
7.32365e-19
-7.66641e-18
2.61023e-17
3.90432e-17
-7.48034e-18
-6.91272e-18
-3.82456e-17
1.02254e-17
5.88757e-18
-8.22626e-18
-6.86569e-18
1.15264e-17
-9.05326e-18
1.30823e-17
2.41666e-17
-9.23254e-18
-4.38482e-18
4.20541e-17
-3.9445e-17
9.18146e-18
-2.94113e-17
-1.57268e-17
3.34613e-17
2.43014e-17
3.58867e-17
-5.03624e-18
1.0282e-17
-3.76828e-18
-7.45708e-18
-6.31837e-18
1.02466e-17
2.12098e-17
1.92036e-17
6.24772e-18
1.01184e-17
1.30722e-18
6.38456e-18
-1.12229e-17
1.74475e-18
2.44149e-17
-5.1651e-18
1.40276e-17
1.92645e-17
1.55514e-17
-8.58527e-18
4.36391e-18
-1.64728e-17
-2.58588e-17
-5.80733e-18
1.29217e-18
1.70843e-18
-4.06191e-19
-9.17522e-18
-1.70429e-17
-1.30159e-17
-1.65724e-17
9.3812e-18
3.95159e-18
-1.89508e-17
1.01385e-17
2.12588e-17
-4.83715e-18
3.62192e-17
2.57433e-17
2.10323e-17
2.82423e-18
3.5855e-18
-2.08158e-17
-1.17589e-17
-3.32251e-17
2.96748e-18
1.52814e-17
2.45764e-17
9.21307e-18
-2.17683e-17
2.12693e-17
5.95123e-18
3.76733e-18
-8.40732e-18
-2.55848e-17
3.14333e-18
1.24117e-17
1.44702e-17
-7.27672e-18
-2.34602e-17
-3.54357e-19
-2.13372e-17
6.97674e-18
3.32928e-18
1.11527e-17
1.35978e-17
-4.74283e-18
1.36393e-17
-1.71835e-17
2.97747e-17
5.02377e-18
-5.60116e-18
1.88652e-19
-2.48312e-17
-3.08457e-18
2.17092e-17
-9.25721e-18
1.55205e-17
1.65012e-17
-1.38351e-17
-6.5963e-18
-2.56984e-17
-6.19353e-18
3.62437e-13
-2.82855e-14
-5.88123e-17
-1.05629e-15
5.05861e-16
-4.88361e-17
2.085e-18
2.1323e-17
-1.98072e-17
2.91719e-17
1.53553e-17
4.3815e-17
-8.355e-18
-3.32854e-17
-2.70987e-17
-1.66359e-17
2.54585e-17
1.20215e-17
3.73779e-17
9.82477e-19
-3.00867e-17
-6.80378e-20
-2.72677e-17
2.31273e-17
-4.26921e-18
-2.83387e-17
-1.71846e-17
-4.58211e-17
-9.90609e-18
2.08235e-17
8.91756e-18
2.09112e-17
-2.15548e-13
1.20491e-13
5.06613e-09
1.43411e-10
-1.5284e-11
-6.74508e-14
3.02433e-13
-3.18583e-13
5.0885e-09
5.07497e-09
-4.65558e-14
-1.19021e-13
5.06015e-09
5.06199e-09
5.06521e-09
-3.48613e-18
-1.49564e-17
7.73067e-19
2.7384e-17
-1.62059e-17
-3.34054e-17
1.15325e-17
2.82836e-17
-2.57222e-17
6.89784e-18
-7.47683e-18
4.164e-17
-2.42317e-17
-3.86102e-17
-3.84403e-17
3.29846e-17
3.56083e-18
2.77333e-17
1.9007e-17
3.36802e-17
2.08644e-17
4.03199e-17
7.80746e-18
-1.24203e-17
1.44938e-17
-7.98936e-18
-2.05596e-17
-4.91894e-17
-2.22936e-17
-3.25957e-18
-1.77809e-17
2.33305e-17
4.77063e-18
5.00725e-16
-1.19145e-17
-1.72322e-17
-2.83117e-14
3.62704e-13
-4.0507e-17
1.12538e-17
-8.93556e-16
5.16351e-18
2.36983e-18
2.02003e-18
-1.79147e-17
-3.19343e-18
-2.64619e-18
-1.33886e-17
-6.38979e-18
-3.44182e-18
-8.13152e-19
-5.58872e-18
-4.04299e-18
1.54213e-17
1.39591e-17
1.83977e-17
7.52891e-18
-9.02726e-18
-8.23866e-18
6.43179e-19
7.43503e-18
8.99852e-18
-8.91827e-18
6.59205e-18
1.27653e-17
-2.15334e-17
1.034e-17
-8.34085e-18
1.13642e-17
2.69968e-17
4.78471e-18
2.03765e-17
-2.45708e-17
-2.80624e-18
-1.43404e-17
5.29036e-18
2.16361e-17
-1.94743e-17
4.87084e-19
4.03947e-18
-4.77732e-18
2.3751e-17
2.7782e-17
3.78096e-18
-1.95429e-17
-2.84384e-17
-1.1108e-17
-1.43796e-17
1.48691e-17
-9.25635e-18
4.1014e-18
-4.92786e-18
-1.46218e-17
2.26422e-17
-4.98451e-18
1.72459e-17
-4.17692e-18
3.35983e-17
1.25916e-17
3.39719e-17
2.17378e-17
-3.33733e-17
-2.14487e-17
-4.20802e-17
3.17397e-17
-3.87225e-17
-6.14036e-18
-4.82011e-17
-1.19657e-17
1.70481e-17
1.65114e-18
-1.95958e-17
-3.70241e-18
3.10335e-17
1.94424e-17
3.23079e-17
1.83513e-21
1.22265e-17
3.32517e-17
-1.01927e-17
-1.39796e-18
-2.08439e-17
-4.00917e-18
-1.91523e-17
-1.8438e-17
3.58461e-17
-1.07477e-17
7.60062e-18
-5.05799e-17
2.55037e-17
3.14141e-17
2.33474e-18
-2.77353e-17
-3.62277e-18
-8.38411e-18
-5.98319e-18
1.94157e-18
2.54587e-17
-9.30825e-18
3.77355e-17
8.34258e-18
-3.83648e-17
3.16922e-17
-1.65305e-17
2.93541e-17
2.16549e-17
2.13902e-17
1.87487e-17
-2.22652e-17
1.77334e-18
-2.22533e-17
-2.42254e-17
-3.55943e-17
-3.29185e-18
1.79529e-17
3.94382e-17
-2.65629e-17
2.57205e-17
1.35698e-17
-1.09375e-17
-2.82329e-17
7.45389e-19
1.26466e-17
-1.30536e-17
-1.80424e-17
5.89355e-18
2.03949e-18
-5.40075e-18
-1.40076e-17
-5.48767e-18
-1.46789e-17
3.18293e-18
-3.18312e-17
-2.36414e-17
-7.96923e-18
-1.36977e-17
-2.7245e-17
-8.80653e-18
-1.69547e-17
-2.99511e-17
-1.61275e-18
4.01454e-18
2.61099e-18
-5.01444e-18
5.43341e-18
7.77484e-18
7.38272e-18
1.3453e-17
4.54861e-18
3.85198e-18
9.24097e-19
1.78216e-18
-5.93435e-18
4.782e-18
-2.15726e-17
1.57832e-18
-3.5996e-17
-3.00633e-17
-1.42485e-17
1.29235e-17
1.27432e-17
1.00749e-17
2.12288e-17
-1.62244e-17
-4.02511e-18
-7.1355e-18
7.35459e-18
2.73181e-17
-3.03403e-17
-1.4765e-17
-2.72574e-17
-1.2475e-17
-9.44398e-18
3.23001e-18
-1.9182e-17
7.23806e-18
1.62529e-17
1.98655e-17
-8.68709e-19
2.12355e-17
2.82971e-17
2.46935e-17
5.41782e-18
2.67497e-17
1.35416e-18
4.86586e-18
1.43914e-10
-1.53295e-11
-5.81963e-14
5.10392e-09
-3.17766e-13
-1.7224e-17
1.05451e-18
3.6524e-17
5.21639e-18
1.00781e-19
-1.91272e-18
9.4335e-18
1.84186e-17
1.20896e-17
1.32062e-17
1.11022e-17
-7.16258e-18
3.37554e-17
1.98105e-17
-1.61222e-17
2.87244e-17
2.1997e-17
-2.04745e-18
-7.52156e-18
-1.66088e-17
-1.14905e-17
8.79337e-18
2.12381e-17
-2.51538e-17
4.10854e-18
-8.40257e-19
-2.6882e-19
-1.69018e-17
-2.43628e-18
-1.35125e-17
6.53032e-18
6.87343e-18
2.53816e-17
2.56918e-17
2.18744e-17
-6.31772e-18
3.27664e-18
-9.25631e-18
-8.26707e-18
1.97177e-18
1.01087e-17
-2.58942e-18
6.50525e-18
6.40345e-18
1.43896e-10
-1.53251e-11
-5.75462e-14
5.10432e-09
-2.92227e-13
-1.70829e-11
1.19335e-11
3.3599e-08
-1.89991e-11
3.36919e-08
-7.69898e-18
5.96112e-19
-8.54668e-18
-4.20141e-18
-2.12771e-17
-2.6753e-17
-1.237e-17
-2.18241e-17
6.13607e-18
-1.976e-17
-2.10207e-17
3.95716e-18
3.59949e-18
6.9576e-18
1.43607e-17
7.64878e-18
-1.34296e-18
3.66825e-18
-1.24783e-17
-1.49206e-17
-9.59865e-18
-8.39926e-19
2.65336e-17
1.74749e-17
-3.90222e-18
7.98754e-18
2.03844e-17
1.20677e-17
2.74282e-17
-1.56528e-17
3.97069e-18
-6.87363e-18
1.25431e-17
-5.31415e-18
2.05109e-18
1.35525e-19
3.20721e-17
2.92128e-17
-1.05691e-17
2.26857e-18
-1.40269e-18
2.26061e-17
-2.72197e-18
-6.17231e-19
1.39595e-17
2.21832e-17
-7.64367e-18
-1.80938e-18
-1.30511e-17
1.50304e-17
-1.65341e-18
-3.55029e-18
5.1093e-18
-5.69371e-18
-1.56782e-18
1.2265e-18
9.24958e-18
1.22606e-17
5.74226e-18
1.82326e-17
-5.72006e-18
-3.31462e-17
-2.58039e-17
-1.5684e-17
-1.74578e-17
-1.2658e-17
-6.17318e-18
-9.52669e-18
1.0184e-17
2.81286e-17
3.79397e-18
1.23311e-17
8.63219e-18
-9.81677e-18
1.27876e-17
7.32262e-18
-5.98975e-18
3.78813e-18
1.81822e-17
-2.7527e-18
-2.14973e-19
1.46222e-17
-6.26617e-18
2.13275e-17
-3.08259e-17
-8.18891e-18
7.43415e-19
1.31866e-17
8.63112e-18
1.39397e-17
-1.21848e-17
1.91213e-17
7.67566e-18
1.29686e-17
2.19019e-17
-2.00608e-17
-8.78703e-18
-8.30817e-18
-4.16852e-19
1.73823e-17
2.2759e-17
1.31683e-17
2.28294e-17
5.13678e-17
1.13501e-17
-1.77637e-17
-2.10289e-17
-3.18737e-17
-1.56164e-17
-2.19297e-17
-1.00741e-17
-1.28702e-17
1.26773e-17
1.23881e-17
1.53674e-17
1.54731e-17
-3.28953e-19
3.49907e-17
6.09928e-18
2.59602e-17
-1.52444e-17
-2.31483e-17
1.04344e-17
3.21916e-19
2.21957e-17
3.0096e-17
1.1137e-17
3.45642e-17
-1.06913e-17
-5.26988e-18
-1.12894e-17
1.98875e-17
-3.05013e-17
3.23448e-18
3.63594e-13
-2.83472e-14
-4.25697e-17
-8.45559e-16
5.02508e-16
-5.35986e-18
-4.07047e-17
-2.08273e-17
2.56785e-18
-2.69427e-17
-4.32735e-17
-3.00207e-18
1.5437e-17
1.03606e-17
3.26605e-18
-6.23453e-18
-2.03702e-17
3.19194e-18
2.6153e-18
1.49899e-17
4.54623e-17
-1.76529e-17
1.40466e-17
-4.31385e-17
-2.76741e-17
1.83498e-17
2.18594e-17
8.38926e-18
-4.23516e-18
-1.85204e-17
-4.55634e-17
4.47249e-18
-1.28784e-11
5.10907e-12
3.35364e-08
1.61287e-11