/*--------------------------------*- C++ -*----------------------------------*\
| =========                 |                                                 |
| \\      /  F ield         | OpenFOAM: The Open Source CFD Toolbox           |
|  \\    /   O peration     | Version:  2212                                  |
|   \\  /    A nd           | Website:  www.openfoam.com                      |
|    \\/     M anipulation  |                                                 |
\*---------------------------------------------------------------------------*/
FoamFile
{
    version     2.0;
    format      ascii;
    arch        "LSB;label=32;scalar=64";
    class       surfaceScalarField;
    location    "0.00157";
    object      phi;
}
// * * * * * * * * * * * * * * * * * * * * * * * * * * * * * * * * * * * * * //

dimensions      [1 0 -1 0 0 0 0];

oriented        oriented;

internalField   nonuniform List<scalar> 
5190
(
-3.37273e-05
-2.36256e-05
3.33728e-05
2.4236e-05
4.52947e-06
-1.06253e-05
-2.06005e-06
4.62881e-06
-8.93601e-06
-6.08461e-06
6.53368e-06
2.84863e-06
-9.55523e-06
8.23961e-06
1.83646e-06
1.14427e-07
1.0047e-05
2.23312e-06
-2.44166e-05
-2.47474e-06
-5.44614e-06
-5.36556e-06
3.01883e-06
1.34272e-07
-1.38777e-06
3.30655e-06
1.52812e-06
-2.78741e-06
-3.47988e-06
3.57685e-06
-7.7248e-06
8.2382e-06
8.7184e-06
-8.44758e-06
-4.24405e-06
4.53446e-06
9.05343e-06
-5.01998e-06
5.2771e-06
-2.99715e-06
2.39455e-06
-8.26057e-06
-1.03786e-05
9.37191e-06
-8.82279e-06
1.03726e-05
8.56591e-06
-1.03854e-05
-8.01128e-06
-1.68926e-05
1.64552e-05
-1.36441e-05
1.45424e-05
-1.06547e-05
-9.5336e-06
1.18079e-05
8.87341e-06
-1.34567e-05
-1.17606e-05
1.32789e-05
1.23793e-05
-1.28975e-05
-1.25873e-05
1.41225e-05
1.17929e-05
7.93929e-06
-3.79905e-06
3.30015e-06
-6.94893e-06
7.9305e-06
-4.20348e-06
4.74393e-06
-4.94878e-06
6.70627e-06
6.72545e-06
1.10109e-05
-3.99874e-06
4.88266e-06
-1.12975e-05
-1.08598e-05
1.08135e-05
-7.63575e-06
8.25603e-06
-1.09725e-05
-6.57468e-06
7.18462e-06
-5.57433e-06
6.1304e-06
-1.07481e-05
9.99437e-06
9.22151e-06
-6.6641e-06
7.55753e-06
-4.18369e-06
8.3452e-06
-7.60415e-06
-3.07486e-06
-4.33212e-06
6.59299e-06
-8.0895e-06
8.26072e-06
-4.60854e-06
-4.18755e-06
-9.0334e-06
1.00045e-05
-4.44601e-06
-4.61719e-06
4.34231e-06
-1.02322e-05
1.02959e-05
-6.17508e-06
-5.29125e-06
-7.21566e-06
1.27854e-05
-6.15536e-06
7.52362e-06
-1.35718e-05
1.24291e-05
-8.50129e-06
9.47265e-06
-1.01407e-05
1.26643e-05
1.06286e-05
1.12912e-05
-1.12325e-05
-9.51601e-06
1.1225e-05
-1.20581e-05
1.2849e-05
1.12647e-05
-1.03059e-05
-6.58667e-06
-7.88201e-06
9.44093e-06
-9.31529e-06
-6.59586e-06
7.0207e-06
-6.45047e-06
6.06521e-06
1.51154e-07
-6.55803e-06
1.66884e-06
-1.75847e-06
-5.71235e-06
6.07491e-06
-8.07148e-06
-3.7497e-06
3.9575e-06
-2.23237e-06
-6.73107e-06
7.52218e-06
2.09023e-06
7.55448e-06
-6.97166e-06
-3.08255e-06
3.11497e-06
-3.37953e-06
1.13344e-05
1.32032e-05
-1.26867e-05
-1.31976e-05
1.34054e-05
-7.96907e-06
3.623e-06
8.53202e-06
-7.42542e-06
-3.18899e-06
3.25135e-06
9.76257e-06
-9.73834e-06
-7.52994e-06
9.70929e-06
-8.2607e-06
-2.42577e-06
-7.01157e-06
2.48747e-06
-2.7976e-06
2.8462e-06
-6.41353e-06
-6.71852e-06
7.24656e-06
-2.98895e-06
-2.70336e-06
-6.19559e-06
-8.74658e-06
9.30664e-06
4.78719e-06
3.34577e-06
-1.11275e-05
1.11599e-05
5.56145e-06
5.53552e-06
-1.14401e-05
1.16093e-05
7.56086e-06
6.42383e-06
-1.15747e-05
1.0602e-05
1.08296e-05
8.88745e-06
-8.19761e-07
-2.02871e-06
2.70962e-06
6.28417e-07
1.33476e-05
7.80292e-06
1.32637e-05
-1.28181e-05
1.07956e-05
1.16832e-05
1.21767e-05
8.28253e-06
-1.21981e-05
9.46771e-06
-9.23907e-06
1.06513e-05
-5.26126e-07
1.5371e-06
-8.31063e-07
4.13155e-07
-1.19397e-05
1.56226e-05
-1.989e-05
-1.84954e-07
-1.41486e-05
-2.93415e-07
5.51627e-06
-7.36712e-06
7.4835e-06
-3.76241e-06
7.5961e-06
-7.16982e-06
-2.88011e-06
-3.51454e-06
-7.76047e-06
8.08759e-06
-4.38371e-06
-3.92188e-06
-8.3807e-06
9.19324e-06
-4.70506e-06
-4.35738e-06
-9.53501e-06
9.70793e-06
-5.8024e-06
-5.10091e-06
-6.70066e-06
9.13231e-06
-9.88713e-06
-8.11058e-06
-8.65798e-06
6.3243e-06
9.90176e-06
-9.41416e-06
-6.5235e-06
-7.27823e-06
9.15546e-06
-9.12974e-06
-6.03985e-06
-6.16394e-06
8.86592e-06
-8.65656e-06
-4.66756e-06
-5.38365e-06
8.19789e-06
-7.77007e-06
-3.57391e-06
-4.13959e-06
-3.27497e-06
-2.88282e-06
2.92949e-06
-6.87073e-06
7.1931e-06
-6.6296e-06
9.87611e-06
-8.85983e-06
-8.94752e-06
1.11211e-05
1.51581e-05
-1.68824e-05
-9.77383e-06
1.31272e-05
-1.08734e-05
1.29282e-05
-6.61517e-06
-2.3184e-06
-6.46661e-06
6.95568e-06
-2.85346e-06
-5.97102e-06
-2.56717e-06
1.51948e-05
-1.55969e-05
1.20067e-05
-1.27922e-05
1.49519e-05
1.34359e-05
-1.15762e-05
1.42851e-05
-1.21528e-05
1.30863e-05
9.79279e-06
-8.89183e-06
-7.97839e-06
7.51733e-06
-7.6956e-06
9.8459e-06
1.24629e-05
-1.40577e-05
1.07593e-05
-8.19382e-06
-7.06711e-06
7.68213e-06
2.92249e-06
2.60563e-06
-2.61614e-06
-6.26516e-06
2.59298e-06
-6.45716e-06
1.06839e-05
8.19009e-06
-1.04913e-05
-7.82172e-06
1.65113e-05
-1.51157e-05
-1.49863e-05
1.39551e-05
-1.35098e-05
1.31509e-05
-4.94172e-05
-1.04102e-05
2.15605e-05
2.49833e-05
9.85869e-06
-9.54494e-06
1.0078e-05
1.13023e-05
1.25509e-05
2.20838e-06
-2.09568e-06
-6.04562e-06
-3.20232e-06
-3.73538e-06
-6.46511e-06
-6.36778e-06
2.46206e-05
1.73551e-05
-2.45058e-05
-1.70914e-05
1.85778e-05
-1.46118e-05
1.28588e-05
-9.24684e-06
8.94857e-06
2.75395e-06
2.40936e-06
-8.65047e-06
-9.39906e-06
1.03488e-05
4.52003e-06
3.50695e-06
-1.1341e-05
1.17151e-05
5.81978e-06
5.20034e-06
-1.20999e-05
1.25174e-05
7.69306e-06
6.58798e-06
-1.29396e-05
1.36881e-05
1.07264e-05
9.11109e-06
1.19803e-05
1.36158e-05
-1.33701e-05
1.1065e-05
1.23195e-05
1.30342e-05
8.70521e-06
-1.27473e-05
9.71169e-06
-1.23755e-05
1.87274e-05
7.82194e-06
-3.54899e-05
4.03522e-05
-4.41761e-05
3.63998e-05
-8.28657e-06
3.65641e-06
8.86815e-06
3.25571e-06
-6.69913e-06
7.04158e-06
-2.6145e-06
6.25559e-06
-1.84096e-06
-5.83362e-06
-2.09985e-06
-7.20044e-06
7.37079e-06
-3.37745e-06
-3.06801e-06
-7.61395e-06
7.73516e-06
-3.95175e-06
-3.61521e-06
-8.2816e-06
8.49938e-06
-4.38156e-06
-4.35406e-06
-8.97522e-06
9.06801e-06
-5.30911e-06
-5.03562e-06
-9.18524e-06
9.04779e-06
-6.8577e-06
-6.23637e-06
-9.00749e-06
8.97356e-06
-8.29746e-06
-7.70218e-06
-1.49822e-05
1.3976e-05
1.78202e-05
-9.11706e-06
9.06985e-06
9.01902e-06
-9.18398e-06
-7.38116e-06
-8.03709e-06
9.1418e-06
-8.99442e-06
-6.16138e-06
-6.78628e-06
8.72785e-06
-8.76259e-06
-5.43666e-06
-5.89085e-06
8.61248e-06
-8.30536e-06
-4.39103e-06
-4.95531e-06
7.92935e-06
-7.42132e-06
-3.45027e-06
-3.90848e-06
-3.11047e-06
-2.52427e-06
2.57528e-06
-5.85683e-06
2.4211e-06
-5.45761e-06
-2.28823e-06
-5.67127e-06
-6.0704e-06
2.83374e-06
1.0984e-06
-2.43608e-06
-9.07273e-07
7.85439e-07
-1.40371e-06
7.32433e-06
-6.09259e-06
-5.71403e-06
8.01407e-06
-9.08595e-07
-1.4045e-05
1.54853e-05
1.44471e-05
-1.38406e-05
1.47983e-05
-1.4791e-05
1.46058e-05
-1.09922e-05
1.29506e-05
1.0757e-05
1.0387e-05
-1.05627e-05
-1.14774e-05
1.27355e-05
5.88594e-06
-5.73004e-06
-1.28122e-06
-9.58079e-06
1.07025e-05
1.18167e-05
-9.13692e-06
1.08073e-05
-7.306e-06
7.98123e-06
2.85853e-06
-6.64538e-06
2.53724e-06
-1.29142e-05
1.37655e-05
-1.23529e-05
1.32116e-05
-2.09419e-06
2.05016e-06
-5.34742e-06
-2.20248e-06
-5.06345e-06
0.00143794
1.29164e-07
-0.00211013
3.47714e-07
1.75235e-07
0.0010748
2.59939e-07
-0.00143836
0.00107523
6.04434e-07
-0.00211151
6.65256e-07
-2.06477e-06
2.2126e-06
-4.96531e-06
-5.25231e-06
5.7409e-06
-2.12761e-06
-4.78356e-06
-1.89966e-06
-6.28226e-06
4.49488e-06
-1.08371e-05
1.31985e-05
-1.51584e-05
1.53467e-05
1.26575e-06
3.15978e-06
-1.0511e-06
-6.03645e-06
-1.72091e-06
6.99197e-06
-3.53562e-05
-3.32263e-05
3.47204e-05
3.29979e-05
-4.45663e-06
-2.2403e-06
-2.34503e-07
6.2178e-07
4.08169e-06
4.70025e-06
-4.12309e-06
-1.36692e-05
1.15257e-05
1.23524e-05
6.99833e-06
-1.10038e-05
-5.60382e-06
1.93837e-06
-8.29005e-06
2.62585e-05
1.4889e-05
-3.27418e-05
-8.15007e-06
8.7964e-06
2.31374e-06
-2.28841e-06
1.68704e-06
-1.84685e-06
-9.20236e-06
9.59662e-06
2.95551e-06
2.61508e-06
-1.01179e-05
1.09403e-05
4.37305e-06
3.59094e-06
-1.1757e-05
1.24035e-05
5.7598e-06
5.03414e-06
-1.29595e-05
1.3568e-05
7.69534e-06
6.57845e-06
-1.43029e-05
1.51966e-05
1.04697e-05
9.04345e-06
-1.59516e-05
1.5636e-05
1.27309e-05
1.16765e-05
1.42679e-05
1.44605e-05
-1.43251e-05
1.1642e-05
1.34098e-05
1.39299e-05
-1.3265e-05
8.79445e-06
1.00184e-05
1.24093e-05
-1.14873e-05
6.74257e-06
-6.94886e-06
7.75392e-06
-7.8154e-06
1.06797e-05
-9.96747e-06
4.81122e-06
-4.91409e-06
5.68255e-06
-5.86076e-06
9.29276e-06
-8.64277e-06
3.63328e-06
4.1239e-06
-4.17738e-06
3.21035e-06
0.00084321
2.00726e-07
1.76698e-07
0.000676126
3.06034e-07
9.97604e-08
0.000548914
4.40526e-07
-8.42451e-08
0.000449034
5.90891e-07
-2.69024e-07
0.000368723
9.86264e-07
-4.65034e-07
0.000303114
1.65437e-06
-1.06694e-06
0.000249116
2.33882e-06
-2.01837e-06
0.000203834
3.18211e-06
-2.76742e-06
0.000165676
4.23751e-06
-4.08221e-06
4.62515e-06
0.000133446
-5.06706e-06
0.000134154
-0.000165953
3.53371e-06
0.00010585
4.82817e-06
-5.71106e-06
4.67663e-06
8.17014e-05
-5.56128e-06
-0.000106538
8.26067e-05
2.9612e-06
3.25414e-06
0.000203537
-0.000248933
3.54751e-06
3.64108e-06
0.000303226
-0.000368709
2.02055e-06
2.75703e-06
0.000449151
-0.000549151
1.05157e-06
1.56474e-06
0.00067648
-0.000843504
7.12591e-07
8.8002e-07
6.54394e-07
-6.34739e-06
6.69529e-06
-2.34191e-06
-1.9125e-06
-6.93418e-06
7.16805e-06
-3.02417e-06
-2.70511e-06
-7.41401e-06
7.59267e-06
-3.57147e-06
-3.29036e-06
-7.7072e-06
8.05943e-06
-4.20844e-06
-3.92276e-06
-8.32965e-06
8.60122e-06
-5.01355e-06
-4.76031e-06
-8.54806e-06
8.53429e-06
-6.26225e-06
-5.60001e-06
-8.40674e-06
8.23227e-06
-7.56153e-06
-7.00336e-06
-2.74317e-05
2.68327e-05
-3.51458e-05
-8.16013e-06
7.8524e-06
-9.83933e-06
1.15033e-05
-7.32585e-06
9.42163e-06
-9.05764e-06
-8.96026e-06
-9.60077e-06
1.02612e-05
1.06772e-05
-1.07716e-05
9.22968e-06
8.6609e-06
-6.51358e-06
-1.02732e-05
8.64916e-06
-8.49327e-06
-7.60921e-06
-8.06828e-06
8.67473e-06
-8.70104e-06
-6.82944e-06
-7.33725e-06
8.68249e-06
-8.51487e-06
-5.82581e-06
-6.29651e-06
8.47064e-06
-8.36159e-06
-4.95732e-06
-5.38708e-06
8.18696e-06
-7.90057e-06
-4.05193e-06
-4.52233e-06
7.54903e-06
-7.12067e-06
-3.24943e-06
-3.63252e-06
6.6766e-06
-6.22055e-06
-2.677e-06
-2.92738e-06
-2.40001e-06
-2.30738e-06
2.3676e-06
-5.30336e-06
-5.13539e-06
-2.38459e-06
2.36016e-06
-5.64276e-06
-5.48295e-06
-2.31961e-06
2.24886e-06
-5.97708e-06
-5.8183e-06
-2.14209e-05
-3.18074e-05
3.09716e-05
2.22965e-05
-4.69008e-05
5.01459e-05
-1.5565e-05
1.14608e-05
-1.20797e-05
1.24592e-05
1.14249e-05
1.04415e-05
-1.09187e-05
1.1232e-05
1.13504e-05
-1.19625e-05
1.27084e-05
-4.63522e-06
-2.60363e-06
-1.50392e-05
1.96913e-05
1.11722e-05
4.21873e-08
2.0468e-07
-0.00337498
2.78452e-07
-0.00337528
5.66188e-06
-1.0601e-06
-5.27351e-06
-8.89506e-05
-5.7492e-05
4.3375e-05
0.000104698
0.000133283
-0.000165463
-4.84515e-06
0.000105704
-5.54866e-06
-1.39348e-05
1.33875e-05
-4.54938e-05
-9.18157e-06
1.63184e-05
2.57129e-05
1.0794e-05
9.71958e-06
1.26352e-05
-1.29044e-05
1.39267e-05
1.23715e-06
-1.47614e-06
-5.24844e-06
1.33789e-06
-5.26544e-06
-0.00337485
0.00211108
6.54121e-07
4.15426e-08
4.50264e-09
-0.00338946
5.23147e-07
-0.00338943
-1.95226e-06
2.04167e-06
-4.41924e-06
-1.79362e-06
-4.29706e-06
-5.09338e-06
5.52848e-06
-1.92798e-06
-4.63008e-06
-1.72693e-06
-3.18652e-06
6.06585e-05
2.45817e-06
6.13815e-05
-5.84698e-06
1.11231e-05
4.577e-06
-1.0722e-05
1.13687e-05
5.82905e-06
-5.60122e-06
-1.55626e-05
1.55888e-05
1.53688e-05
1.02381e-05
6.73288e-06
-1.0373e-05
-6.06096e-06
1.08793e-05
8.51936e-06
-6.17642e-06
2.98687e-06
-3.19284e-06
2.27646e-05
1.6829e-05
-2.52946e-05
-2.75625e-05
3.06142e-05
-1.13356e-05
9.64636e-07
3.94952e-07
-2.549e-07
-5.43896e-07
-6.14649e-06
6.85472e-06
2.14493e-06
2.01693e-06
-2.09429e-06
-5.30209e-06
1.90141e-06
-5.43468e-06
1.13059e-05
1.20896e-05
2.0208e-06
-4.05389e-06
-1.951e-06
-2.00335e-06
1.9402e-06
-4.64067e-06
-4.37225e-06
-1.84684e-06
1.67262e-06
-5.08346e-06
5.87503e-06
-4.88599e-06
-5.22392e-06
-8.17168e-06
8.80764e-06
2.36231e-06
2.23177e-06
-9.41505e-06
9.99385e-06
2.98785e-06
2.66914e-06
-1.0669e-05
1.15158e-05
4.13705e-06
3.51456e-06
-1.23077e-05
1.31075e-05
5.54298e-06
4.84378e-06
-1.38811e-05
1.46885e-05
7.51426e-06
6.40787e-06
-1.55384e-05
1.63261e-05
1.02203e-05
8.77655e-06
-1.68073e-05
1.6506e-05
1.3411e-05
1.164e-05
1.60763e-05
-1.34641e-05
1.56711e-05
2.54893e-05
1.92152e-05
-2.57075e-05
1.49958e-05
-1.56151e-05
1.70381e-05
1.91473e-05
1.55758e-05
1.59369e-05
-1.56833e-05
1.22395e-05
1.45827e-05
1.50277e-05
-1.42059e-05
8.76052e-06
1.01998e-05
1.32633e-05
-1.23558e-05
6.50407e-06
7.57418e-06
1.14393e-05
-1.06069e-05
4.63887e-06
5.40058e-06
9.78624e-06
-9.04556e-06
3.5382e-06
3.9682e-06
8.30212e-06
-7.58042e-06
2.75385e-06
3.10158e-06
2.42251e-06
-0.00143792
0.00107471
6.25156e-07
8.46389e-07
-0.00084305
0.000675988
4.26377e-07
5.4164e-07
-0.000548747
0.000448776
8.717e-08
3.16889e-07
-0.000368634
0.000303065
-4.48656e-07
-1.03338e-07
-0.000248653
0.000203657
-2.35204e-06
-1.09862e-06
-3.40761e-06
-0.00337546
0.00211414
8.15381e-07
-2.60492e-08
5.53614e-07
-0.00338961
-0.00338954
2.3025e-06
-5.70237e-06
-6.49928e-05
-2.92091e-06
-5.13987e-05
-9.52656e-06
6.36635e-05
-2.94513e-06
8.5819e-05
-0.000108189
1.68513e-06
1.51389e-06
0.000135135
-0.000166597
3.00124e-06
2.49798e-06
0.000204033
-0.000248884
3.12669e-06
3.00316e-06
0.000302864
-0.000369213
3.03743e-06
2.73054e-06
0.000449522
-0.000549388
1.30512e-06
1.82593e-06
0.000676735
-0.000843885
1.13282e-06
1.28453e-06
0.0010756
-0.00143898
1.05944e-06
1.04562e-06
1.09122e-06
-6.0284e-06
6.34483e-06
-2.05104e-06
-1.67059e-06
-6.62396e-06
6.87316e-06
-2.67353e-06
-2.38141e-06
-7.10205e-06
7.36588e-06
-3.25991e-06
-2.93186e-06
-7.57708e-06
7.87126e-06
-3.93918e-06
-3.56605e-06
-7.87127e-06
7.99541e-06
-4.56381e-06
-4.18858e-06
-8.0132e-06
8.01804e-06
-5.67745e-06
-5.03635e-06
-7.81081e-06
7.57006e-06
-6.74576e-06
-6.21686e-06
-7.20048e-06
6.76033e-06
-7.89611e-06
9.01197e-06
-7.17108e-06
-6.15445e-06
5.14495e-06
-9.23048e-06
-8.60475e-06
-1.07722e-05
1.15346e-05
4.33716e-06
-4.41487e-06
3.8599e-06
-9.63383e-06
-9.41792e-06
-1.14324e-05
7.79807e-06
1.10145e-05
3.44011e-06
-4.47865e-06
-9.79295e-06
-1.07947e-05
3.164e-06
1.15927e-05
-3.46186e-06
-2.19641e-06
2.06336e-06
-1.01406e-05
-1.0197e-05
1.20355e-05
4.58845e-06
-6.57354e-06
-9.76631e-06
1.23321e-05
-9.74031e-06
7.40945e-06
-7.76046e-06
-8.02155e-06
-8.78624e-06
7.84787e-06
-7.91939e-06
-6.96831e-06
-7.42136e-06
8.10141e-06
-8.17326e-06
-6.20979e-06
-6.6039e-06
8.18498e-06
-8.15176e-06
-5.29594e-06
-5.74038e-06
8.06976e-06
-7.94381e-06
-4.46746e-06
-4.87737e-06
7.76406e-06
-7.50836e-06
-3.68302e-06
-4.07315e-06
7.19672e-06
-6.82306e-06
-2.99876e-06
-3.32621e-06
6.41402e-06
-5.98615e-06
-2.46475e-06
-2.70503e-06
-2.21534e-06
-2.12033e-06
2.15419e-06
-4.72065e-06
-4.58552e-06
-2.17163e-06
2.15111e-06
-5.02005e-06
-4.88893e-06
-5.16041e-06
-1.08517e-05
-5.41178e-06
4.02491e-05
-8.33853e-07
1.35126e-06
-4.12257e-05
8.24324e-05
-6.03163e-06
-1.31543e-05
1.20814e-05
1.21894e-05
9.43158e-06
1.18737e-05
1.08185e-05
-1.25719e-05
1.26876e-05
-5.15405e-06
1.82992e-06
5.16718e-06
1.18115e-05
1.5938e-05
-1.3698e-05
-2.18237e-05
-1.86126e-05
1.3947e-05
5.94985e-06
1.12752e-05
-8.81592e-06
-0.00337531
0.00211514
1.21553e-06
-0.00338867
1.21619e-06
-1.6612e-06
1.79537e-06
-3.52971e-06
-4.15594e-05
3.50882e-06
-9.99044e-06
-3.89984e-06
-1.87839e-06
3.77593e-06
-3.64836e-06
-1.58917e-06
-1.40861e-06
-3.28852e-06
-1.50559e-06
-4.24498e-06
-6.30217e-06
7.06395e-06
1.99046e-06
-5.5666e-06
1.76202e-06
4.33401e-05
-5.33375e-06
2.01745e-05
-1.87903e-05
-2.30337e-05
2.16855e-05
-1.8943e-05
2.34081e-05
1.59274e-05
8.37149e-06
-1.59952e-05
2.89641e-06
-2.5663e-06
0.000133232
-0.000165811
-3.77214e-06
0.000105777
-4.80292e-06
2.03821e-05
2.664e-05
-2.07321e-05
2.06104e-05
-2.41055e-05
2.38286e-05
2.97515e-05
-2.0713e-05
1.75289e-05
1.24876e-05
7.52769e-06
-1.53811e-05
1.3684e-05
-1.35707e-05
1.44539e-05
1.17707e-05
9.34117e-06
2.30771e-05
-1.62321e-05
-0.0033761
0.00211855
1.52632e-06
-0.00338906
1.24358e-06
-3.99964e-05
4.04334e-05
-2.35002e-05
2.31304e-05
-2.0882e-06
2.03797e-06
-7.04191e-06
-1.13403e-05
4.34414e-06
2.68966e-05
-1.69203e-05
-1.68629e-05
1.69742e-05
1.57467e-05
1.25895e-05
5.27983e-06
1.11301e-05
3.1898e-06
-9.88291e-06
3.70216e-06
1.23377e-05
1.13079e-05
1.50396e-06
-1.02087e-05
2.191e-06
1.27813e-05
1.1992e-05
8.1199e-06
-1.46553e-05
1.60728e-05
-2.16489e-05
-1.64221e-05
2.35803e-05
1.47097e-05
6.07634e-05
-6.28905e-06
1.1129e-06
3.49289e-07
-6.44682e-07
-3.82847e-07
2.62386e-05
-9.16321e-06
-2.83302e-05
3.43183e-05
-2.24826e-05
-2.98952e-05
1.76439e-05
1.0749e-05
1.17881e-05
-1.86048e-06
1.85986e-06
-4.00426e-06
-3.77104e-06
-1.80901e-06
1.71571e-06
-4.37759e-06
-4.21838e-06
-1.61434e-06
1.54794e-06
-4.59075e-06
-4.52157e-06
-1.51947e-06
1.56053e-06
-4.6132e-06
-4.65955e-06
5.20051e-06
-4.67167e-06
1.58644e-06
-5.47064e-06
7.66112e-06
2.90849e-06
-4.49263e-06
2.08919e-06
-8.17718e-06
8.91807e-06
2.28422e-06
2.43465e-06
-9.66337e-06
1.04372e-05
2.84088e-06
2.56965e-06
-1.12385e-05
1.20765e-05
3.87884e-06
3.32679e-06
-1.29822e-05
1.38589e-05
5.25912e-06
4.51945e-06
-1.48017e-05
1.57918e-05
7.12418e-06
6.08879e-06
-1.67579e-05
1.76802e-05
9.73757e-06
8.31459e-06
-1.84401e-05
1.89775e-05
1.32396e-05
1.12936e-05
-1.97522e-05
2.17982e-05
1.81953e-05
1.57667e-05
2.03188e-05
1.87189e-05
2.38457e-05
-2.24187e-05
2.01843e-05
-2.11502e-05
2.01659e-05
2.11987e-05
-1.97106e-05
1.62645e-05
1.86005e-05
1.84658e-05
-1.7384e-05
1.18218e-05
1.39749e-05
1.63647e-05
-1.52464e-05
8.34634e-06
9.90371e-06
1.41948e-05
-1.31261e-05
6.08406e-06
7.20133e-06
1.21625e-05
-1.12223e-05
4.38476e-06
5.1104e-06
1.03087e-05
-9.436e-06
3.3219e-06
3.73539e-06
8.63459e-06
-7.84224e-06
2.58474e-06
2.94144e-06
2.26111e-06
-0.00143854
0.00107495
1.14151e-06
1.39031e-06
-0.000843094
0.00067595
7.99666e-07
9.73089e-07
-0.00054875
0.00044879
4.27209e-07
5.98e-07
-0.000368608
0.000303236
-2.46596e-08
2.75452e-07
-0.000249217
0.00020393
-1.59074e-06
-5.60786e-07
-2.54489e-06
1.17084e-07
-1.0132e-07
-0.00313795
-1.36701e-07
3.679e-07
-0.00313803
-0.00313797
5.03735e-06
1.29558e-05
-1.68564e-07
-0.00313738
9.79317e-07
-0.00313785
1.9563e-05
-3.13606e-05
2.18164e-06
-8.96831e-07
5.77732e-06
-7.23402e-06
5.12955e-05
-6.81397e-05
-3.75063e-06
-3.44821e-06
8.70193e-05
-0.000109581
1.04709e-06
-3.73368e-07
0.000136209
-0.000167547
2.59752e-06
2.03633e-06
0.000205068
-0.000249686
2.65127e-06
2.84593e-06
0.000303802
-0.00036905
2.76667e-06
2.74328e-06
0.000449256
-0.000549538
1.86092e-06
1.93649e-06
0.000676749
-0.000844109
1.62482e-06
1.51088e-06
0.00107599
-0.0014398
1.59581e-06
1.52571e-06
1.6986e-06
-3.85639e-06
4.01671e-06
-1.53786e-06
3.48065e-06
-3.05645e-06
-1.25322e-06
-1.38622e-06
-4.57352e-06
5.27295e-06
-1.21679e-06
-1.30742e-06
1.2469e-06
-5.66767e-06
5.99494e-06
-1.80234e-06
-1.48614e-06
-6.30316e-06
6.57615e-06
-2.34429e-06
-2.08769e-06
-6.85259e-06
7.07542e-06
-2.89095e-06
-2.61254e-06
-7.27113e-06
7.4089e-06
-3.48428e-06
-3.16951e-06
-7.54035e-06
7.64517e-06
-4.07222e-06
-3.72646e-06
-7.67985e-06
7.58973e-06
-4.98072e-06
-4.47231e-06
-7.37833e-06
7.0971e-06
-5.9018e-06
-5.41542e-06
-6.80425e-06
6.41661e-06
-6.86343e-06
-6.3018e-06
-5.83164e-06
5.07934e-06
-7.88659e-06
-7.37916e-06
-4.39019e-06
3.71802e-06
-8.3859e-06
-8.12509e-06
-1.02196e-05
2.39525e-06
1.15674e-05
-2.9986e-06
2.22261e-06
-8.88497e-06
-8.59222e-06
1.36723e-06
1.0513e-05
-9.11908e-06
4.81467e-07
1.0643e-05
-9.21665e-06
-1.0513e-05
6.04854e-07
1.19906e-05
4.42372e-07
-1.22872e-06
-9.14821e-06
1.07308e-05
-9.24848e-06
1.90595e-06
-2.66175e-06
-8.8331e-06
-8.98472e-06
3.52938e-06
-4.10439e-06
-8.58739e-06
-8.76604e-06
4.92461e-06
-5.95532e-06
-8.12203e-06
-8.27683e-06
6.51142e-06
-6.86554e-06
-7.02128e-06
-7.60184e-06
7.13386e-06
-7.36388e-06
-6.17446e-06
-6.56591e-06
7.56283e-06
-7.68542e-06
-5.48951e-06
-5.83588e-06
7.72888e-06
-7.71769e-06
-4.68079e-06
-5.07784e-06
7.65982e-06
-7.54416e-06
-3.95677e-06
-4.3125e-06
7.37998e-06
-7.1562e-06
-3.29268e-06
-3.61699e-06
6.87804e-06
-6.54547e-06
-2.70242e-06
-2.98631e-06
6.17589e-06
-5.78559e-06
-2.22042e-06
-2.43977e-06
5.37519e-06
-4.94062e-06
-1.72727e-06
-1.99436e-06
4.50464e-06
-4.23277e-06
-1.03951e-06
-1.51309e-06
-1.71804e-06
1.72591e-06
-3.57645e-06
-1.93599e-06
-1.8205e-06
1.90173e-06
-3.86326e-06
-3.73376e-06
-1.95424e-06
1.99353e-06
-4.13998e-06
-4.00954e-06
-1.99462e-06
1.9738e-06
-4.39126e-06
-4.27358e-06
-1.92346e-06
1.84365e-06
-4.6211e-06
-4.50531e-06
-1.73631e-06
-4.8244e-06
1.58673e-06
-4.73039e-06
-8.31197e-06
9.21512e-06
-4.00307e-06
2.52023e-05
-8.10045e-06
-1.17261e-05
-3.11145e-05
3.54251e-05
1.66114e-05
8.19008e-05
-5.19577e-06
1.65332e-05
5.47613e-05
-2.15164e-05
2.46098e-05
-2.36132e-05
2.86774e-05
-6.6254e-06
-1.79448e-06
-3.39267e-05
-2.82574e-05
-1.55532e-05
3.64635e-05
-2.53626e-05
-1.98003e-05
1.65068e-05
1.35198e-05
8.81875e-06
-1.46136e-05
1.17955e-05
-4.2524e-07
1.23255e-05
1.44425e-06
1.2004e-05
-1.33082e-05
1.27773e-05
1.26876e-05
1.0418e-05
2.16392e-05
-1.73095e-05
-2.75e-05
1.8351e-05
-1.81451e-05
7.99465e-06
2.37521e-07
-4.11799e-07
1.8652e-06
-2.67623e-05
2.5302e-05
-2.43965e-05
2.60309e-05
-2.25335e-05
2.59035e-05
2.45639e-05
-2.40744e-05
1.94833e-05
1.14716e-06
-0.00313783
-5.1129e-07
-9.35665e-06
3.59347e-06
-1.02583e-05
4.77483e-06
-1.12756e-06
1.31832e-06
-2.67934e-06
2.97763e-06
-1.02805e-06
-2.52332e-06
3.3509e-06
-1.0661e-06
-9.36613e-06
2.6076e-05
-1.97106e-05
-1.64968e-05
1.36775e-05
1.38002e-05
6.82955e-06
2.83188e-06
1.3016e-05
9.96006e-07
1.37131e-05
1.29457e-05
8.90799e-06
-1.451e-05
1.468e-05
2.31619e-05
-1.31519e-05
-2.59754e-05
1.48819e-06
-1.53116e-06
-3.99166e-06
1.40553e-06
-4.03244e-06
4.16484e-05
-6.50746e-06
-9.13104e-06
4.14205e-05
9.9779e-05
-9.71724e-05
-1.36434e-05
8.39081e-06
-1.56042e-05
-3.2927e-06
1.95317e-06
7.11154e-06
1.28361e-05
-2.62779e-05
-2.01099e-05
3.05508e-05
-7.36557e-06
-1.66533e-06
-6.5134e-07
-1.07199e-06
2.54688e-05
-1.59756e-05
1.59849e-05
1.01079e-05
2.2293e-05
-1.82632e-05
1.31795e-05
1.35716e-05
4.61057e-06
3.67983e-06
1.45339e-05
-1.47733e-05
1.81354e-05
1.29924e-05
1.46497e-06
-1.59972e-06
-4.09494e-06
-4.91894e-06
5.68593e-06
1.40188e-06
1.2892e-06
-4.15689e-06
8.65379e-07
-2.05063e-07
-0.00285043
-0.00313684
0.00338794
2.66682e-06
2.23007e-06
-0.00284995
6.12396e-05
-5.85021e-06
1.61073e-06
-2.98584e-06
2.16357e-05
-8.27156e-06
-2.1641e-05
1.63133e-05
2.1989e-05
-1.63168e-05
-2.33954e-05
6.99026e-06
-9.22016e-06
8.92967e-06
-1.0375e-05
-9.25695e-06
1.00667e-05
1.22181e-05
1.16038e-05
-1.42865e-05
2.43131e-05
1.18165e-05
-1.47871e-06
1.6288e-06
-3.04216e-06
-2.84465e-06
-1.71445e-06
1.74611e-06
-3.41471e-06
-3.22488e-06
-1.74203e-06
1.71216e-06
-3.71708e-06
-3.58835e-06
-1.66678e-06
1.60304e-06
-3.93422e-06
-3.861e-06
-4.00673e-06
5.39535e-06
-4.76211e-06
1.50044e-06
-6.23149e-06
7.52254e-06
2.19637e-06
1.81221e-06
-8.41136e-06
9.10854e-06
2.21748e-06
2.18296e-06
-9.95646e-06
1.07843e-05
2.63729e-06
2.32489e-06
-1.1691e-05
1.26265e-05
3.52927e-06
3.03766e-06
-1.36114e-05
1.4698e-05
4.75226e-06
4.11852e-06
-1.57541e-05
1.68735e-05
6.54863e-06
5.60606e-06
-1.80063e-05
1.91152e-05
9.01417e-06
7.65966e-06
-2.01913e-05
2.13241e-05
1.24614e-05
1.05542e-05
-2.28436e-05
2.48487e-05
1.6765e-05
1.47821e-05
1.80159e-05
-2.60138e-05
2.90647e-05
1.94305e-05
-2.2285e-05
2.18618e-05
2.27692e-05
-2.13999e-05
1.48242e-05
1.71916e-05
2.01268e-05
-1.88633e-05
1.06571e-05
1.26425e-05
1.76157e-05
-1.63263e-05
7.48986e-06
8.96966e-06
1.51337e-05
-1.39697e-05
5.47609e-06
6.50688e-06
1.28007e-05
-1.17946e-05
4.00848e-06
4.552e-06
1.08116e-05
-9.87862e-06
3.01813e-06
3.39023e-06
8.96634e-06
-8.1066e-06
2.33358e-06
2.64779e-06
7.27149e-06
-6.47e-06
1.78391e-06
2.02829e-06
1.56233e-06
-0.00337544
0.00211959
2.66209e-06
2.88324e-06
-0.00143917
0.00107525
1.84342e-06
2.26892e-06
-0.000843255
0.000676102
1.27579e-06
1.52416e-06
-0.000548791
0.00044884
8.64166e-07
1.03959e-06
-0.000368815
0.00030351
3.60324e-07
5.44044e-07
-0.000249639
0.000204285
-7.29409e-07
-1.92297e-07
-0.000166438
0.000133861
-2.68592e-06
-1.97461e-06
-0.000106051
8.20536e-05
-3.73945e-06
-3.66339e-06
5.15207e-07
-3.36024e-07
-0.00285104
-0.00313716
0.00338833
2.73393e-06
-9.99417e-07
2.21156e-06
-0.00285013
-0.00285078
2.11773e-07
-1.86083e-08
-0.0028512
-0.00285104
-0.00285091
2.0649e-05
-3.28445e-05
2.25635e-06
5.14547e-06
4.94594e-05
-6.83479e-05
-1.62127e-06
-3.36263e-07
8.81201e-05
-0.000110521
6.23049e-07
-6.1798e-07
0.000137137
-0.00016855
1.94561e-06
1.30915e-06
0.000205756
-0.000250573
2.54019e-06
2.25322e-06
0.000303915
-0.000369064
2.73251e-06
2.31274e-06
0.000449362
-0.000549223
2.10319e-06
2.26865e-06
0.000676833
-0.00084417
2.12337e-06
2.21639e-06
0.00107617
-0.00144027
2.274e-06
2.05819e-06
0.00212246
-0.00337607
2.8762e-06
2.58918e-06
2.89556e-06
-3.70319e-06
3.94135e-06
-1.23531e-06
-1.1818e-06
-4.3621e-06
4.90451e-06
-1.20155e-06
-1.19114e-06
-5.33875e-06
5.69452e-06
-1.57612e-06
-1.35625e-06
-6.01373e-06
6.29885e-06
-2.04471e-06
-1.8028e-06
-6.5393e-06
6.74356e-06
-2.50674e-06
-2.26863e-06
-6.93212e-06
7.039e-06
-2.99096e-06
-2.75974e-06
-7.15811e-06
7.28091e-06
-3.59253e-06
-3.24625e-06
-7.30261e-06
7.21902e-06
-4.28013e-06
-3.88758e-06
-7.04096e-06
6.77172e-06
-5.03697e-06
-4.62103e-06
-6.47998e-06
6.05462e-06
-5.83938e-06
-5.44236e-06
-5.55948e-06
4.92658e-06
-6.64352e-06
-6.25032e-06
-4.27544e-06
3.59654e-06
-7.1365e-06
-6.89304e-06
-2.90112e-06
2.16837e-06
-7.55045e-06
-7.30496e-06
-1.35378e-06
5.32406e-07
-7.82671e-06
-7.72088e-06
3.01167e-07
-1.07543e-06
-7.80116e-06
-7.85966e-06
1.82583e-06
-2.55839e-06
-7.53614e-06
-7.68315e-06
3.30023e-06
-3.98702e-06
-7.26833e-06
-7.42633e-06
4.65941e-06
-5.41176e-06
-6.78752e-06
-6.97498e-06
5.95728e-06
-6.31254e-06
-6.02621e-06
-6.44142e-06
6.62557e-06
-6.8924e-06
-5.341e-06
-5.67161e-06
7.09442e-06
-7.23797e-06
-4.71226e-06
-5.03423e-06
7.31347e-06
-7.3257e-06
-4.04281e-06
-4.37043e-06
7.28708e-06
-7.19054e-06
-3.43373e-06
-3.73065e-06
7.04561e-06
-6.84554e-06
-2.87491e-06
-3.14712e-06
6.59345e-06
-6.29453e-06
-2.36963e-06
-2.61374e-06
5.96005e-06
-5.59888e-06
-1.9463e-06
-2.13972e-06
5.21611e-06
-4.81748e-06
-1.49391e-06
-1.74044e-06
4.4592e-06
-7.38217e-07
-4.12441e-06
-1.24087e-06
-1.68456e-06
1.75242e-06
-3.30187e-06
-3.15426e-06
-1.80295e-06
1.83737e-06
-3.54982e-06
-3.43489e-06
-1.84871e-06
1.82847e-06
-3.75823e-06
-3.66303e-06
-1.78596e-06
1.70936e-06
-3.94048e-06
-3.85513e-06
-4.02046e-06
2.8364e-06
6.77832e-05
-3.15084e-05
-7.7723e-05
3.73025e-05
5.1621e-06
1.94465e-05
-1.12979e-06
-2.87481e-05
2.76377e-06
-2.36743e-06
-8.80024e-07
-2.38041e-05
-2.2276e-05
2.43571e-05
-2.17266e-05
-2.04782e-05
-2.74759e-05
-1.58527e-05
1.16228e-05
1.5028e-05
8.13138e-06
1.78219e-06
1.35927e-05
-4.5792e-07
1.43521e-05
1.3693e-05
1.01655e-05
-1.4292e-05
1.29698e-05
2.21698e-05
-1.60819e-05
7.19737e-06
-9.91678e-06
-4.08682e-06
1.27355e-06
-2.98573e-05
1.70953e-05
-4.05159e-05
-1.97614e-05
4.37225e-05
-1.02532e-05
-2.62343e-06
4.37053e-06
-2.54168e-05
2.73504e-05
2.30303e-05
-3.94137e-06
3.1649e-06
-9.30369e-07
4.2207e-05
-1.14517e-05
3.2308e-05
-3.21846e-05
-1.43767e-05
1.44684e-05
-0.00313677
0.003388
5.32557e-06
-0.00284988
4.287e-06
-2.19534e-05
-8.76462e-06
-8.65232e-06
-1.31205e-06
6.58624e-06
1.38458e-05
-1.50769e-05
-1.066e-05
-2.35983e-05
-2.21177e-05
2.51652e-05
-1.91868e-05
6.72823e-06
1.95788e-06
-4.445e-06
-1.8032e-05
1.38645e-05
1.49782e-05
5.97074e-06
3.72644e-06
1.4426e-05
1.46105e-06
1.64128e-05
1.39147e-05
8.26612e-06
-1.51824e-05
1.55278e-05
2.03933e-05
-1.50884e-05
-1.07033e-06
1.2266e-06
-2.26474e-06
-9.40746e-07
-2.09324e-06
-5.0263e-06
5.82913e-06
1.16048e-06
-4.23097e-06
1.06445e-06
1.3834e-06
-1.51326e-06
-3.36511e-06
1.22261e-06
-3.40853e-06
-0.00313649
0.00338753
5.5266e-06
-0.00284953
4.334e-06
8.51022e-07
-3.85675e-07
-0.00244516
1.66852e-06
-0.00244482
3.41405e-05
8.88288e-07
4.15342e-05
-5.78995e-06
-1.339e-06
1.45737e-06
-2.46373e-06
-1.1724e-06
-2.32188e-06
6.10298e-05
-3.63345e-06
-5.54669e-07
2.00201e-06
-1.48375e-06
2.25518e-05
-1.66564e-05
-8.06166e-08
1.87321e-06
-1.09348e-06
-2.27297e-05
-1.07527e-05
9.7928e-06
1.4087e-05
1.1448e-05
-1.60766e-05
2.41872e-05
-1.36821e-06
1.49956e-06
-2.555e-06
-2.38952e-06
-1.58221e-06
1.63666e-06
-2.84831e-06
-2.69069e-06
-1.65287e-06
1.66161e-06
-3.08676e-06
-2.97411e-06
-1.62968e-06
1.59419e-06
-3.27786e-06
-3.19315e-06
-1.51708e-06
1.42799e-06
-3.33424e-06
-3.33267e-06
-1.33237e-06
1.21139e-06
-3.40541e-06
-3.36933e-06
4.16973e-06
-3.4471e-06
1.02812e-06
-4.87697e-06
5.64052e-06
1.26458e-06
1.0954e-06
-6.52137e-06
7.5373e-06
1.73727e-06
1.47997e-06
-8.4798e-06
9.38846e-06
1.88174e-06
1.82716e-06
-1.02715e-05
1.11935e-05
2.31888e-06
2.02701e-06
-1.21268e-05
1.31314e-05
3.08533e-06
2.68793e-06
-1.42541e-05
1.53922e-05
4.14141e-06
3.54181e-06
-1.66314e-05
1.79335e-05
5.711e-06
4.86356e-06
-1.92468e-05
2.05613e-05
8.03384e-06
6.76263e-06
-2.19163e-05
2.33796e-05
1.12508e-05
9.45931e-06
-2.52736e-05
2.7451e-05
1.48927e-05
1.32225e-05
1.57285e-05
2.36209e-05
-1.89514e-05
-4.42942e-05
2.62256e-05
-2.62818e-05
1.85676e-05
2.19075e-05
2.49701e-05
-2.34192e-05
1.24614e-05
1.50595e-05
2.18417e-05
-2.02953e-05
8.65787e-06
1.03672e-05
1.87357e-05
-1.73774e-05
6.18196e-06
7.23332e-06
1.59818e-05
-1.46896e-05
4.53447e-06
5.32795e-06
1.34168e-05
-1.23202e-05
3.41636e-06
3.72949e-06
1.1258e-05
-1.02774e-05
2.59857e-06
2.87146e-06
9.2879e-06
-8.34593e-06
1.96638e-06
2.2312e-06
7.47729e-06
-6.63014e-06
1.50411e-06
1.72557e-06
1.32436e-06
-0.00337503
0.00212332
5.56909e-06
6.24295e-06
-0.00143973
0.00107546
3.04377e-06
3.93607e-06
-0.00084335
0.000676163
2.07359e-06
2.48344e-06
-0.000548898
0.000449048
1.41004e-06
1.72623e-06
-0.000368861
0.000303683
7.75521e-07
1.15491e-06
-0.000249854
0.000204955
-2.10908e-07
2.7655e-07
-0.000166725
0.000134708
-2.09322e-06
-9.5514e-07
-0.000106645
8.29386e-05
-2.56139e-06
-2.26019e-06
6.91704e-07
-3.78731e-07
-0.00244576
-1.0267e-06
1.69333e-06
-0.00244489
-0.00244535
2.217e-07
1.93867e-08