/*--------------------------------*- C++ -*----------------------------------*\
| =========                 |                                                 |
| \\      /  F ield         | OpenFOAM: The Open Source CFD Toolbox           |
|  \\    /   O peration     | Version:  2212                                  |
|   \\  /    A nd           | Website:  www.openfoam.com                      |
|    \\/     M anipulation  |                                                 |
\*---------------------------------------------------------------------------*/
FoamFile
{
    version     2.0;
    format      ascii;
    arch        "LSB;label=32;scalar=64";
    class       volScalarField;
    location    "0.0314";
    object      nut;
}
// * * * * * * * * * * * * * * * * * * * * * * * * * * * * * * * * * * * * * //

dimensions      [0 2 -1 0 0 0 0];

internalField   nonuniform List<scalar> 
31661
(
0.250121
0.283086
0.260662
0.272435
0.283592
0.261794
0.273303
0.283914
0.262584
0.273891
0.0328278
0.23255
0.062991
0.393081
0.347976
0.382125
0.326328
0.346939
0.115685
0.395012
0.0352648
0.0357322
0.0396538
0.349467
0.255294
0.0348291
0.0319126
0.0446245
0.237392
0.269257
0.370049
0.0303109
0.0328802
0.122188
0.0664266
0.408134
0.0386916
0.41378
0.177434
0.0366353
0.0421757
0.290912
0.41534
0.320778
0.323132
0.233126
0.321232
0.141143
0.040192
0.414527
0.0432415
0.35472
0.23507
0.121074
0.208225
0.147525
0.220989
0.248417
0.601952
0.181142
0.22295
0.210035
0.292472
0.333756
0.0593413
0.175135
0.0395927
0.606901
0.611927
0.616982
0.224967
0.624449
0.629337
0.633815
0.638263
0.642783
0.647433
0.652219
0.657044
0.661839
0.666605
0.671163
0.675349
0.679156
0.678165
0.674335
0.670164
0.665632
0.660888
0.656141
0.651423
0.646744
0.642093
0.637474
0.6329
0.628294
0.623633
0.619202
0.614807
0.610292
0.605591
0.600856
0.596495
0.59457
0.59186
0.589858
0.587242
0.585054
0.582559
0.580256
0.577915
0.575472
0.573284
0.570579
0.568645
0.56569
0.564009
0.56086
0.559387
0.556122
0.5548
0.551477
0.55026
0.546919
0.545779
0.542446
0.541366
0.53806
0.537033
0.533761
0.532777
0.529555
0.528608
0.525445
0.524531
0.52143
0.520549
0.51751
0.516662
0.513686
0.512867
0.509959
0.509166
0.506329
0.505564
0.502799
0.502057
0.499366
0.498648
0.49603
0.495335
0.492791
0.492117
0.48965
0.488996
0.486605
0.485971
0.483655
0.483041
0.480798
0.480204
0.478033
0.47746
0.475362
0.474808
0.472784
0.472249
0.470297
0.469779
0.467399
0.467899
0.46608
0.468441
0.47089
0.473428
0.476056
0.478775
0.481584
0.484487
0.487481
0.490571
0.493756
0.497035
0.500411
0.503884
0.507453
0.511121
0.514883
0.518741
0.522694
0.526742
0.530885
0.535121
0.539444
0.543851
0.548338
0.552899
0.557523
0.562195
0.566925
0.571752
0.576793
0.581925
0.587185
0.592757
0.598287
0.603435
0.608796
0.61422
0.619496
0.623896
0.62865
0.633618
0.638777
0.643914
0.648823
0.653504
0.680963
0.681998
0.658054
0.662558
0.666868
0.670916
0.6747
0.682267
0.680977
0.674363
0.674601
0.671773
0.667862
0.663635
0.659064
0.654285
0.649525
0.644816
0.640162
0.635535
0.63091
0.626272
0.621586
0.616818
0.612248
0.608029
0.603658
0.599022
0.594377
0.589821
0.585429
0.58098
0.576451
0.571889
0.567336
0.562791
0.558278
0.553787
0.549342
0.544951
0.540615
0.536345
0.53215
0.528027
0.523989
0.520039
0.516177
0.512411
0.508733
0.505145
0.50165
0.498248
0.49494
0.491726
0.488604
0.485573
0.482637
0.479793
0.477041
0.474378
0.471805
0.469321
0.466924
0.464617
0.462399
0.465112
0.465593
0.463807
0.459828
0.462014
0.464287
0.466641
0.469081
0.471608
0.47422
0.47692
0.479708
0.482587
0.485555
0.488614
0.491762
0.495003
0.498337
0.501764
0.505284
0.508896
0.512601
0.516401
0.520292
0.524274
0.528346
0.532504
0.536744
0.541069
0.545476
0.54996
0.554529
0.559186
0.563943
0.568822
0.573842
0.579021
0.584367
0.589721
0.594736
0.599853
0.605089
0.610023
0.614654
0.619449
0.624326
0.62929
0.634152
0.638895
0.643427
0.648006
0.652562
0.67758
0.656975
0.661132
0.664989
0.664855
0.672463
0.677986
0.674553
0.634238
0.616721
0.650869
0.662307
0.66303
0.660195
0.656185
0.651835
0.647173
0.642331
0.637527
0.632785
0.628111
0.623478
0.61886
0.614231
0.609567
0.604858
0.600375
0.596197
0.591828
0.587354
0.582802
0.578398
0.574246
0.57004
0.565744
0.561398
0.557045
0.552716
0.54842
0.544155
0.539935
0.535774
0.531668
0.527624
0.523649
0.519745
0.515925
0.512187
0.508532
0.504961
0.50148
0.498083
0.494773
0.491548
0.488414
0.485368
0.482408
0.479535
0.476749
0.474052
0.47144
0.468916
0.466475
0.464119
0.461847
0.459659
0.457557
0.455539
0.46027
0.462916
0.463379
0.461625
0.457726
0.451807
0.453783
0.455837
0.457971
0.460183
0.462473
0.464844
0.467296
0.469828
0.472444
0.475145
0.477927
0.480795
0.483745
0.48678
0.489904
0.493114
0.49641
0.499793
0.503266
0.506826
0.510473
0.514205
0.518022
0.521921
0.525904
0.529972
0.534126
0.538359
0.542687
0.547109
0.551623
0.556242
0.560988
0.565871
0.570873
0.575915
0.580809
0.585776
0.590831
0.595821
0.60052
0.604945
0.609405
0.61401
0.618806
0.623538
0.628212
0.632856
0.637498
0.642028
0.667969
0.646297
0.650268
0.644699
0.557485
0.576827
0.668541
0.670586
0.647658
0.501262
0.480666
0.531215
0.591579
0.631055
0.645068
0.64652
0.643744
0.639635
0.63516
0.630409
0.625507
0.62064
0.615868
0.611175
0.60656
0.601976
0.597417
0.592858
0.588319
0.583983
0.579768
0.57558
0.571319
0.567028
0.562826
0.558893
0.554943
0.550932
0.546883
0.54283
0.538796
0.534799
0.530843
0.52694
0.523093
0.519296
0.515558
0.511885
0.508274
0.504742
0.501292
0.497914
0.494615
0.491394
0.488256
0.485195
0.482214
0.479313
0.476495
0.473755
0.471096
0.468516
0.466016
0.463597
0.461256
0.458996
0.456813
0.454708
0.452682
0.450734
0.448865
0.447071
0.453605
0.458231
0.460812
0.461257
0.459534
0.455712
0.449913
0.442298
0.444037
0.445847
0.447731
0.449684
0.451709
0.453807
0.455977
0.45822
0.460539
0.462932
0.465401
0.467946
0.470565
0.47326
0.476033
0.478885
0.481815
0.484825
0.487914
0.491084
0.494332
0.497662
0.501071
0.504556
0.508121
0.511766
0.515491
0.5193
0.52319
0.527172
0.531245
0.53542
0.53968
0.544054
0.548549
0.553153
0.557816
0.562406
0.567053
0.571748
0.576428
0.581031
0.585606
0.589949
0.594186
0.59878
0.603529
0.608216
0.612959
0.61776
0.622454
0.626814
0.653405
0.630903
0.588852
0.51704
0.654105
0.456909
0.470795
0.661172
0.644148
0.593121
0.445513
0.432172
0.440565
0.456793
0.499301
0.560695
0.605739
0.623126
0.625557
0.622906
0.618741
0.614177
0.609385
0.60446
0.599576
0.594804
0.59014
0.585563
0.581064
0.576624
0.572176
0.567824
0.56371
0.559665
0.555643
0.551625
0.547644
0.543738
0.540045
0.536372
0.53268
0.528977
0.525282
0.521614
0.517983
0.514399
0.510863
0.507386
0.503963
0.500598
0.497289
0.494043
0.490859
0.487744
0.484705
0.481732
0.478831
0.475999
0.473242
0.470554
0.467938
0.465392
0.462921
0.46052
0.45819
0.455932
0.453745
0.451629
0.449585
0.447613
0.44571
0.443879
0.442118
0.440426
0.438804
0.437251
0.445355
0.451755
0.456282
0.458802
0.459228
0.457534
0.453785
0.4481
0.440635
0.433062
0.434612
0.436228
0.437907
0.43965
0.441456
0.443325
0.44526
0.447258
0.449323
0.451456
0.453652
0.455916
0.458247
0.460644
0.463107
0.465641
0.468245
0.47092
0.473664
0.47648
0.479365
0.482321
0.485348
0.488449
0.491622
0.49487
0.49819
0.501595
0.505075
0.508647
0.512311
0.51608
0.519939
0.523883
0.527925
0.532066
0.536269
0.540482
0.544765
0.549107
0.553503
0.557889
0.562297
0.566779
0.571192
0.575233
0.579578
0.584315
0.589176
0.594077
0.598738
0.603161
0.634147
0.607372
0.431576
0.610674
0.526931
0.634905
0.481254
0.646692
0.456328
0.634281
0.423766
0.435899
0.589472
0.530379
0.415333
0.402496
0.409855
0.417016
0.42283
0.431582
0.463223
0.522386
0.573743
0.596156
0.600472
0.598207
0.594133
0.589578
0.584829
0.579954
0.575109
0.570389
0.565807
0.561334
0.556948
0.552624
0.548373
0.544277
0.540362
0.536531
0.532746
0.528999
0.525366
0.521788
0.518392
0.515039
0.511699
0.508375
0.505076
0.501813
0.498593
0.495421
0.492299
0.489232
0.486219
0.48326
0.480362
0.477515
0.474726
0.471996
0.469326
0.466723
0.464178
0.461697
0.459275
0.456918
0.454623
0.452388
0.450215
0.448107
0.446059
0.444074
0.44215
0.440289
0.43849
0.436755
0.435082
0.43347
0.43192
0.430431
0.429003
0.427637
0.426333
0.435769
0.443717
0.449989
0.454421
0.456884
0.457294
0.455627
0.451949
0.446373
0.439048
0.430158
0.421128
0.422415
0.423758
0.425153
0.426606
0.428114
0.429677
0.431295
0.432967
0.434697
0.436483
0.438324
0.440223
0.442178
0.444191
0.44626
0.448385
0.450571
0.452819
0.455126
0.457492
0.459919
0.462407
0.464958
0.46757
0.470252
0.472999
0.475812
0.478698
0.481657
0.484693
0.487822
0.491045
0.494368
0.497781
0.501248
0.504818
0.50848
0.512211
0.516049
0.51994
0.523927
0.527979
0.532065
0.536242
0.54051
0.544856
0.549275
0.553402
0.557524
0.56231
0.567126
0.571701
0.576169
0.580261
0.583449
0.4199
0.583652
0.611266
0.487559
0.62703
0.464129
0.618683
0.445592
0.578755
0.426644
0.525994
0.395569
0.407267
0.489226
0.425096
0.43436
0.442158
0.448307
0.452648
0.455058
0.455454
0.453814
0.450201
0.444728
0.437538
0.428807
0.418731
0.408484
0.409508
0.41058
0.411701
0.412864
0.414077
0.415336
0.41664
0.417992
0.41939
0.420834
0.422324
0.423863
0.425447
0.427078
0.428757
0.430482
0.432255
0.434079
0.435953
0.437876
0.439849
0.441873
0.44395
0.446083
0.448269
0.450516
0.452823
0.45519
0.457623
0.460125
0.462708
0.465379
0.468137
0.470982
0.473925
0.476961
0.480064
0.483243
0.486539
0.489921
0.493439
0.497034
0.500718
0.504485
0.508394
0.512404
0.516543
0.520746
0.525053
0.529603
0.533777
0.537896
0.542381
0.546714
0.5507
0.55363
0.553025
0.572725
0.539165
0.407511
0.389168
0.378449
0.383437
0.388983
0.395012
0.400867
0.404706
0.407106
0.425614
0.477806
0.535127
0.56451
0.571713
0.570276
0.566511
0.5621
0.557516
0.552788
0.548058
0.543466
0.539011
0.534682
0.530471
0.526357
0.522335
0.518489
0.514788
0.511196
0.50766
0.504264
0.50095
0.49776
0.494693
0.49168
0.488708
0.485777
0.482891
0.480052
0.477262
0.474523
0.471837
0.469204
0.466622
0.464095
0.461617
0.459194
0.45682
0.454498
0.452228
0.45001
0.447849
0.445738
0.44368
0.441673
0.43972
0.437818
0.435969
0.434171
0.432427
0.430734
0.429094
0.427507
0.425974
0.424494
0.423066
0.421692
0.42037
0.4191
0.417884
0.41672
0.41561
0.414561
0.602326
0.46859
0.495861
0.534931
0.597021
0.45245
0.561424
0.435722
0.516295
0.417747
0.485749
0.399632
0.469474
0.373964
0.383243
0.395348
0.396119
0.39693
0.397783
0.398672
0.399601
0.400566
0.401571
0.402612
0.403691
0.404808
0.405962
0.407154
0.408383
0.409649
0.410953
0.412294
0.413673
0.415091
0.41655
0.418049
0.419588
0.421168
0.422792
0.424461
0.426178
0.427943
0.429757
0.431629
0.433557
0.435537
0.437589
0.439726
0.441936
0.444233
0.44662
0.449103
0.451694
0.454339
0.457065
0.459903
0.462891
0.466009
0.469202
0.472493
0.475968
0.479553
0.483287
0.487158
0.491128
0.49528
0.499514
0.503733
0.508179
0.512259
0.516048
0.519641
0.521994
0.519965
0.501239
0.45075
0.364927
0.367981
0.371479
0.375505
0.380018
0.38449
0.38695
0.385107
0.390224
0.42939
0.489618
0.528107
0.539817
0.539813
0.536629
0.532531
0.528248
0.523764
0.519228
0.514817
0.510553
0.506422
0.502417
0.498527
0.494774
0.49119
0.487744
0.48442
0.481183
0.478106
0.47516
0.472321
0.469592
0.466943
0.464356
0.461828
0.459357
0.456943
0.454588
0.452287
0.450039
0.447844
0.4457
0.443605
0.44156
0.439561
0.437608
0.4357
0.433837
0.432018
0.430242
0.428512
0.426824
0.425181
0.423577
0.422019
0.420502
0.419027
0.417594
0.416206
0.414859
0.413557
0.412298
0.411083
0.409912
0.408785
0.407701
0.406661
0.405664
0.404712
0.403807
0.402952
0.402151
0.41357
0.423928
0.433027
0.440678
0.446709
0.450965
0.453324
0.453708
0.452096
0.448548
0.443172
0.436111
0.427532
0.417626
0.406592
0.362172
0.394623
0.432819
0.392271
0.369902
0.569444
0.456302
0.393947
0.405732
0.416592
0.426333
0.434764
0.441704
0.446985
0.450469
0.452054
0.451681
0.44937
0.445198
0.439281
0.431767
0.422824
0.412641
0.401397
0.472711
0.537915
0.442151
0.359611
0.352952
0.354451
0.356081
0.357884
0.359954
0.362439
0.365377
0.368417
0.369913
0.366233
0.36089
0.381757
0.43793
0.486653
0.505289
0.507635
0.505325
0.501704
0.497811
0.493649
0.489371
0.485199
0.481165
0.477266
0.4735
0.469857
0.466376
0.463064
0.459894
0.456862
0.453954
0.451208
0.448599
0.446114
0.443739
0.441449
0.439241
0.437106
0.435041
0.433045
0.43111
0.429235
0.427417
0.425649
0.423933
0.422264
0.420639
0.419059
0.417517
0.416017
0.414554
0.413128
0.411738
0.410383
0.409064
0.407778
0.406527
0.405308
0.404123
0.402972
0.401853
0.400768
0.399717
0.3987
0.397718
0.39677
0.395858
0.394981
0.394138
0.39333
0.392557
0.39182
0.391124
0.39047
0.389855
0.389281
0.371256
0.397434
0.500204
0.426301
0.477925
0.409172
0.466964
0.392392
0.457075
0.377738
0.366118
0.351534
0.357198
0.338879
0.344149
0.381419
0.38191
0.382441
0.383007
0.383606
0.384236
0.384899
0.38559
0.386313
0.387062
0.387843
0.388653
0.38949
0.390358
0.391255
0.392179
0.393133
0.394115
0.395126
0.396166
0.397237
0.39834
0.399474
0.400641
0.401841
0.403078
0.404354
0.40567
0.407027
0.408434
0.409883
0.41139
0.412942
0.414569
0.416268
0.418045
0.419904
0.421851
0.42389
0.426022
0.428259
0.430556
0.433034
0.435642
0.438307
0.441092
0.444053
0.447163
0.450452
0.453876
0.457456
0.461183
0.465066
0.469029
0.473025
0.477227
0.481197
0.484677
0.487774
0.489435
0.485178
0.459644
0.402653
0.354719
0.349644
0.393322
0.375973
0.359513
0.216697
0.380969
0.508471
0.445744
0.404933
0.415624
0.425209
0.433502
0.440324
0.445513
0.448936
0.450493
0.45013
0.447866
0.443773
0.437964
0.43058
0.42179
0.411767
0.400691
0.388749
0.426068
0.479175
0.432433
0.338847
0.34542
0.34599
0.346556
0.347169
0.347891
0.348756
0.349847
0.351273
0.352889
0.353585
0.349862
0.339383
0.341046
0.38326
0.439492
0.468225
0.474507
0.47345
0.470433
0.466947
0.463163
0.459212
0.455304
0.45152
0.447868
0.444357
0.440979
0.437771
0.434722
0.431835
0.429099
0.426521
0.424098
0.421821
0.419675
0.417645
0.415707
0.413863
0.412105
0.41043
0.408827
0.407294
0.405824
0.404411
0.403052
0.401742
0.400478
0.399257
0.398074
0.396928
0.395817
0.394738
0.393689
0.392671
0.391679
0.390715
0.389778
0.388866
0.38798
0.387118
0.386281
0.385469
0.384681
0.383919
0.383183
0.382472
0.381788
0.381131
0.3805
0.379895
0.379316
0.378765
0.378244
0.377754
0.377295
0.376869
0.376474
0.376111
0.394074
0.46585
0.417129
0.362535
0.378163
0.460827
0.40087
0.454768
0.38549
0.446423
0.372591
0.362547
0.354877
0.343508
0.39275
0.38056
0.330168
0.330058
0.368042
0.368321
0.368632
0.368971
0.369338
0.36973
0.370146
0.370584
0.371049
0.371532
0.372038
0.372566
0.373114
0.373684
0.374275
0.374887
0.375519
0.376172
0.376847
0.377542
0.37826
0.379001
0.379764
0.380553
0.381367
0.382209
0.383081
0.383986
0.384923
0.385901
0.386918
0.38798
0.389092
0.390279
0.391495
0.392777
0.394134
0.395594
0.397125
0.398753
0.400486
0.402323
0.404301
0.406391
0.408555
0.410882
0.413346
0.415936
0.418735
0.421671
0.42478
0.428085
0.431544
0.435155
0.438882
0.442706
0.446672
0.450332
0.45343
0.456116
0.456656
0.448484
0.413715
0.354995
0.324164
0.332873
0.344329
0.347375
0.334551
0.339142
0.360762
0.34664
0.288985
0.454246
0.435856
0.404197
0.41473
0.424168
0.432325
0.43903
0.444131
0.447494
0.449026
0.448672
0.446452
0.442435
0.436728
0.429472
0.420824
0.410952
0.400041
0.388259
0.375784
0.413282
0.450436
0.422917
0.285298
0.338797
0.338665
0.338463
0.33821
0.337938
0.337691
0.337531
0.337496
0.337634
0.337923
0.337792
0.334739
0.324127
0.312321
0.332246
0.386583
0.427961
0.440919
0.441686
0.439434
0.436369
0.433002
0.429397
0.425751
0.422211
0.418805
0.415542
0.41243
0.409477
0.406693
0.404079
0.40163
0.399356
0.397242
0.395279
0.393455
0.391742
0.39014
0.388642
0.387237
0.385922
0.384687
0.383526
0.382431
0.381395
0.380415
0.379484
0.378597
0.37775
0.376941
0.376163
0.375417
0.374698
0.374005
0.373334
0.372686
0.372059
0.371451
0.370862
0.37029
0.369736
0.3692
0.368681
0.368178
0.367694
0.367227
0.366778
0.366347
0.365936
0.365542
0.365168
0.364812
0.364477
0.364164
0.363873
0.363605
0.363361
0.36314
0.362942
0.362772
0.394176
0.451607
0.408063
0.375234
0.449478
0.392766
0.345312
0.357973
0.444162
0.378899
0.436439
0.367681
0.359116
0.352589
0.392227
0.380192
0.347322
0.342868
0.0929048
0.338982
0.367795
0.354612
0.354703
0.354817
0.354954
0.355113
0.35529
0.355485
0.355697
0.355925
0.356168
0.356428
0.3567
0.356987
0.357289
0.357605
0.357935
0.358278
0.358636
0.359009
0.359395
0.359796
0.360212
0.360645
0.361094
0.361562
0.36205
0.36256
0.363094
0.363654
0.364243
0.364863
0.365517
0.36621
0.36695
0.367724
0.368576
0.369521
0.370523
0.371608
0.372784
0.374048
0.375426
0.376941
0.378571
0.380275
0.382127
0.384158
0.386327
0.388679
0.391134
0.393698
0.396522
0.399532
0.402768
0.406134
0.409625
0.413237
0.416898
0.420239
0.423096
0.42523
0.424376
0.410694
0.364842
0.312864
0.302974
0.319446
0.329831
0.332627
0.332896
0.332767
0.412968
0.344143
0.332754
0.0373361
0.229585
0.432615
0.42616
0.403519
0.4139
0.423194
0.431224
0.437824
0.442841
0.446147
0.447653
0.447308
0.445129
0.441184
0.435576
0.428438
0.419923
0.410198
0.399438
0.387815
0.375491
0.362628
0.410275
0.439742
0.413382
0.234382
0.27599
0.332734
0.331847
0.33098
0.330076
0.329117
0.328102
0.327054
0.326014
0.325039
0.324165
0.323372
0.322388
0.319836
0.311612
0.295346
0.292729
0.331904
0.383011
0.406277
0.410291
0.409203
0.406654
0.403749
0.400488
0.397077
0.393758
0.390574
0.387539
0.38466
0.381947
0.379408
0.37705
0.374869
0.372865
0.371032
0.369357
0.367826
0.366408
0.365109
0.363923
0.362839
0.361851
0.36095
0.360125
0.35937
0.358678
0.358041
0.357453
0.35691
0.356407
0.355937
0.355498
0.355085
0.354697
0.354331
0.353982
0.353651
0.353335
0.353033
0.352744
0.352466
0.3522
0.351945
0.351701
0.351466
0.351242
0.35103
0.350828
0.350637
0.350458
0.350291
0.350135
0.349991
0.349862
0.349746
0.349645
0.349559
0.349488
0.349432
0.349395
0.349373
0.34937
0.38995
0.441424
0.39904
0.370941
0.439126
0.384869
0.355436
0.434147
0.372588
0.332908
0.343243
0.426649
0.362967
0.355772
0.391753
0.379868
0.350288
0.345829
0.341964
0.33818
0.367581
0.354546
0.341157
0.3411
0.341061
0.341034
0.341024
0.341023
0.341033
0.341055
0.341085
0.341123
0.341172
0.341228
0.341292
0.341364
0.341444
0.341533
0.34163
0.341734
0.341848
0.341969
0.3421
0.342241
0.342393
0.342556
0.342733
0.342926
0.343137
0.343367
0.34362
0.343896
0.344201
0.34454
0.34492
0.345339
0.345804
0.346343
0.346952
0.347618
0.348355
0.349188
0.350126
0.351184
0.352369
0.353645
0.355002
0.356574
0.35816
0.359987
0.362047
0.364283
0.366752
0.369382
0.372232
0.375256
0.378514
0.38173
0.385082
0.388444
0.391459
0.394014
0.39539
0.392106
0.368985
0.31649
0.281044
0.289551
0.307386
0.31551
0.31818
0.319227
0.320159
0.321146
0.322154
0.329292
0.333155
0.32319
0.333654
0.341229
0.425784
0.416383
0.402899
0.413138
0.422299
0.430207
0.436703
0.441639
0.444892
0.446375
0.446038
0.443899
0.440021
0.434506
0.427479
0.419091
0.409506
0.398891
0.387412
0.375234
0.362507
0.349381
0.404565
0.430918
0.40375
0.323795
0.32376
0.324859
0.324542
0.32342
0.322053
0.320608
0.319079
0.317467
0.31578
0.314044
0.3123
0.310596
0.308951
0.307233
0.304756
0.298995
0.285104
0.26925
0.28404
0.332904
0.369617
0.379748
0.380309
0.378401
0.375863
0.372913
0.36973
0.366594
0.36359
0.360741
0.358059
0.355552
0.353228
0.351092
0.349144
0.347379
0.34579
0.344366
0.343091
0.341931
0.340899
0.339987
0.339186
0.338487
0.337878
0.337351
0.336897
0.336507
0.336175
0.335894
0.335657
0.335458
0.335292
0.335156
0.335044
0.334954
0.334881
0.334824
0.33478
0.334747
0.334724
0.334709
0.334701
0.334699
0.334702
0.334711
0.334724
0.334742
0.334765
0.334793
0.334825
0.334863
0.334907
0.334956
0.33501
0.335072
0.335141
0.335218
0.335302
0.335394
0.335496
0.335606
0.335725
0.335851
0.335987
0.384137
0.431511
0.390077
0.366872
0.429197
0.377192
0.323621
0.353331
0.424339
0.366507
0.342557
0.416776
0.358405
0.391335
0.379588
0.324202
0.333465
0.35245
0.347897
0.344108
0.340614
0.33683
0.3674
0.354501
0.341313
0.327761
0.327562
0.327371
0.327188
0.327013
0.326843
0.326681
0.326521
0.326366
0.326215
0.326065
0.32592
0.325778
0.325637
0.3255
0.325366
0.325235
0.325108
0.324984
0.324862
0.324745
0.324633
0.324527
0.324427
0.324336
0.324255
0.324186
0.324133
0.324096
0.324078
0.324083
0.324115
0.324181
0.324282
0.324422
0.324612
0.324869
0.325189
0.325577
0.326029
0.326584
0.327255
0.328047
0.328953
0.329949
0.331168
0.332382
0.33383
0.33547
0.33724
0.339188
0.341344
0.343745
0.346286
0.349043
0.35195
0.355239
0.358651
0.361773
0.364429
0.366612
0.366776
0.359298
0.324074
0.274671
0.261804
0.28028
0.29502
0.30103
0.303696
0.305562
0.307381
0.309127
0.31086
0.312542
0.314142
0.325132
0.332538
0.315653
0.328575
0.327966
0.41845
0.40642
0.402341
0.412443
0.421474
0.429267
0.435667
0.440529
0.443733
0.445194
0.444865
0.442763
0.438949
0.43352
0.426599
0.418331
0.408876
0.398394
0.387049
0.375006
0.362411
0.349411
0.336134
0.397333
0.421646
0.394028
0.316392
0.315987
0.315676
0.3149
0.313605
0.311931
0.310076
0.308094
0.306003
0.303807
0.301526
0.299185
0.296821
0.294471
0.292119
0.28946
0.285219
0.27572
0.258067
0.250925
0.282789
0.328802
0.349614
0.35295
0.351899
0.349673
0.347034
0.344069
0.341048
0.338162
0.33545
0.332919
0.330577
0.328428
0.326475
0.324718
0.32315
0.321765
0.320549
0.319485
0.31854
0.317733
0.317055
0.316495
0.316041
0.315682
0.31541
0.315214
0.315085
0.315016
0.315
0.315027
0.315094
0.315194
0.315323
0.315475
0.315647
0.315834
0.316035
0.316247
0.316466
0.316692
0.316923
0.317157
0.317394
0.317631
0.317869
0.318107
0.318345
0.318583
0.318821
0.319058
0.319296
0.319533
0.31977
0.320007
0.320245
0.320484
0.320725
0.320967
0.321211
0.321456
0.321703
0.321952
0.322203
0.322454
0.32271
0.378525
0.421848
0.381209
0.316694
0.323342
0.363353
0.419496
0.36972
0.351568
0.414509
0.360605
0.390973
0.379355
0.342028
0.406716
0.33375
0.353924
0.34908
0.317023
0.325994
0.345327
0.342082
0.338871
0.335317
0.367255
0.354483
0.341414
0.328179
0.314579
0.314263
0.313949
0.313636
0.313322
0.313011
0.312699
0.312387
0.312074
0.311759
0.311443
0.311125
0.310806
0.310483
0.310159
0.309834
0.309508
0.309181
0.308853
0.308524
0.308195
0.307867
0.30754
0.307216
0.306896
0.306582
0.306276
0.305981
0.305698
0.305431
0.305181
0.304953
0.304753
0.304583
0.304447
0.304354
0.304312
0.30433
0.304414
0.30457
0.304797
0.305135
0.305584
0.306149
0.306842
0.307672
0.308634
0.309678
0.310983
0.312343
0.313897
0.315674
0.317705
0.319913
0.322379
0.325025
0.327864
0.330996
0.334182
0.337099
0.339514
0.341148
0.339491
0.323941
0.278951
0.244682
0.251975
0.271256
0.281641
0.286234
0.289162
0.291765
0.294227
0.296647
0.298895
0.301151
0.303247
0.305245
0.307114
0.318282
0.327769
0.308852
0.331341
0.314896
0.410052
0.396278
0.401849
0.411822
0.420731
0.428415
0.434724
0.439516
0.442672
0.444111
0.443789
0.441721
0.437967
0.432618
0.425796
0.417641
0.408305
0.397948
0.386735
0.374815
0.362342
0.349456
0.336292
0.322968
0.390269
0.412523
0.384279
0.308522
0.307774
0.30687
0.30584
0.304513
0.302855
0.300869
0.298661
0.296263
0.293767
0.291157
0.28844
0.285635
0.282769
0.279871
0.276962
0.273972
0.270361
0.264162
0.2511
0.234442
0.242204
0.283573
0.317668
0.326718
0.32716
0.325386
0.323059
0.320285
0.317332
0.314504
0.311871
0.309442
0.307217
0.305197
0.303384
0.301773
0.300359
0.299133
0.298079
0.297168
0.2964
0.295779
0.295292
0.294928
0.294675
0.294523
0.294461
0.294479
0.294568
0.294719
0.294924
0.295176
0.295468
0.295794
0.296148
0.296526
0.296924
0.297337
0.297761
0.298195
0.298636
0.299081
0.299528
0.299976
0.300424
0.300869
0.301311
0.30175
0.302185
0.302616
0.303043
0.303465
0.303883
0.304296
0.304703
0.305105
0.305504
0.305898
0.306289
0.306675
0.307056
0.307433
0.307806
0.308174
0.308537
0.308896
0.30925
0.309601
0.322948
0.37351
0.412486
0.372477
0.316839
0.309084
0.360372
0.4099
0.362446
0.390668
0.379168
0.350061
0.404588
0.396475
0.341572
0.35485
0.349465
0.333992
0.345602
0.326699
0.342535
0.310391
0.319347
0.339779
0.336906
0.333681
0.367145
0.354492
0.341537
0.328405
0.315215
0.301672
0.301263
0.300849
0.300429
0.300006
0.299576
0.299141
0.298702
0.298256
0.297805
0.297349
0.296886
0.296417
0.295941
0.295459
0.294973
0.294481
0.293985
0.293485
0.292981
0.292473
0.291964
0.291452
0.29094
0.290428
0.289918
0.289412
0.288913
0.288425
0.287949
0.287487
0.287042
0.286621
0.286224
0.285858
0.285531
0.285249
0.285014
0.284842
0.28474
0.284709
0.284764
0.284926
0.285191
0.285576
0.286096
0.286761
0.287563
0.288543
0.289614
0.290819
0.292264
0.293953
0.295827
0.297978
0.300315
0.302865
0.305716
0.308767
0.311827
0.31454
0.316781
0.317658
0.312705
0.28478
0.240604
0.228323
0.245492
0.260198
0.267206
0.271186
0.274513
0.277604
0.280656
0.283553
0.286397
0.289016
0.291545
0.293991
0.296272
0.29838
0.300318
0.311727
0.329993
0.326844
0.302203
0.302077
0.401788
0.38601
0.401423
0.411278
0.420073
0.427656
0.433876
0.438599
0.44171
0.44313
0.442815
0.440779
0.43708
0.431807
0.425076
0.417024
0.4078
0.397561
0.386463
0.374659
0.3623
0.349524
0.33646
0.323229
0.309949
0.322428
0.383822
0.403814
0.325751
0.321743
0.374571
0.316866
0.30952
0.300917
0.300087
0.299111
0.29793
0.296566
0.295027
0.293246
0.291182
0.288886
0.286366
0.283651
0.280811
0.277859
0.274795
0.271633
0.268393
0.265095
0.261766
0.258408
0.254873
0.250338
0.242174
0.227192
0.217609
0.240617
0.281374
0.301454
0.304351
0.303207
0.301025
0.298421
0.295565
0.292742
0.290122
0.287736
0.285578
0.283642
0.281923
0.280415
0.279111
0.278
0.277065
0.276268
0.275634
0.275153
0.274813
0.274601
0.274505
0.274515
0.274619
0.274808
0.275071
0.275399
0.275784
0.276219
0.276696
0.277208
0.277751
0.278318
0.278905
0.279507
0.280122
0.280746
0.281376
0.282009
0.282643
0.283276
0.283906
0.284533
0.285154
0.28577
0.286379
0.28698
0.287575
0.288161
0.288739
0.289308
0.289869
0.290419
0.290962
0.291495
0.292019
0.292535
0.293041
0.293537
0.294024
0.294499
0.294965
0.295421
0.295864
0.2963
0.296728
0.369146
0.403392
0.363935
0.390422
0.379035
0.357759
0.400374
0.394584
0.348738
0.35537
0.3492
0.341129
0.386113
0.344979
0.334132
0.341982
0.327259
0.339549
0.320235
0.337263
0.303882
0.31297
0.334766
0.331866
0.367076
0.354534
0.341681
0.328643
0.31554
0.302481
0.28957
0.289095
0.288613
0.288121
0.287619
0.287105
0.286583
0.286049
0.285506
0.284953
0.28439
0.283817
0.283234
0.282642
0.28204
0.281428
0.280807
0.280179
0.279542
0.278898
0.278248
0.277592
0.27693
0.276265
0.275596
0.274925
0.274254
0.273584
0.272918
0.272259
0.27161
0.270972
0.270349
0.269746
0.269165
0.26861
0.268088
0.267609
0.267175
0.266791
0.266474
0.266225
0.266055
0.265979
0.266
0.266133
0.266391
0.266804
0.267346
0.268048
0.268886
0.269836
0.270982
0.272368
0.273939
0.275779
0.277826
0.280087
0.282661
0.285561
0.288658
0.291567
0.294003
0.295877
0.295057
0.283296
0.24505
0.214665
0.220718
0.237361
0.246957
0.252102
0.256036
0.259647
0.263205
0.266613
0.269983
0.27313
0.27613
0.279067
0.281864
0.284545
0.286984
0.289339
0.291642
0.29378
0.305441
0.295882
0.29804
0.328467
0.271496
0.394069
0.28852
0.289269
0.324502
0.320909
0.316748
0.30979
0.301546
0.316453
0.309871
0.301982
0.316006
0.309796
0.302262
0.309593
0.315428
0.302418
0.319933
0.302472
0.309284
0.314732
0.375724
0.401066
0.410812
0.419503
0.426989
0.433125
0.437782
0.440851
0.442251
0.441943
0.439936
0.436289
0.431084
0.424439
0.416483
0.407363
0.397232
0.386242
0.374548
0.362296
0.349618
0.336645
0.323502
0.3103
0.29715
0.285631
0.282808
0.280185
0.277509
0.27476
0.271968
0.269034
0.26588
0.262599
0.259269
0.255758
0.252175
0.248421
0.244637
0.240718
0.236738
0.23231
0.226026
0.214403
0.201283
0.212362
0.250222
0.273717
0.276903
0.275592
0.273179
0.270376
0.267335
0.264397
0.261743
0.259428
0.257422
0.255642
0.254081
0.252774
0.251654
0.25075
0.249971
0.249351
0.248895
0.248587
0.24841
0.248371
0.248449
0.248628
0.248898
0.249254
0.249683
0.250176
0.250727
0.251324
0.251966
0.252645
0.253353
0.254084
0.254835
0.255603
0.256383
0.257173
0.25797
0.258772
0.259576
0.260379
0.261179
0.261977
0.262769
0.263555
0.264333
0.265103
0.265864
0.266615
0.267356
0.268086
0.268803
0.269508
0.270201
0.27088
0.271546
0.272199
0.272838
0.273463
0.274073
0.274669
0.27525
0.275816
0.276368
0.276907
0.378025
0.39554
0.365003
0.367048
0.354606
0.341846
0.328895
0.31587
0.302882
0.290036
0.277433
0.294261
0.293886
0.293397
0.292794
0.292009
0.291065
0.289882
0.288497
0.286922
0.285157
0.283205
0.281047
0.278652
0.276032
0.27325
0.270287
0.267172
0.263956
0.260631
0.25721
0.253704
0.250131
0.246518
0.242883
0.239202
0.235246
0.229889
0.220176
0.206507
0.208875
0.241949
0.273855
0.282432
0.282723
0.280841
0.27849
0.275735
0.272861
0.270202
0.267811
0.265676
0.263782
0.262118
0.260673
0.259439
0.258403
0.257546
0.256833
0.256292
0.25591
0.255675
0.255574
0.255596
0.255727
0.255958
0.256277
0.256674
0.25714
0.257666
0.258245
0.258869
0.25953
0.260224
0.260945
0.261687
0.262446
0.263218
0.263999
0.264786
0.265577
0.266368
0.267158
0.267945
0.268726
0.269502
0.27027
0.27103
0.27178
0.272521
0.27325
0.273969
0.274676
0.275371
0.276053
0.276722
0.277378
0.278022
0.278653
0.27927
0.279873
0.280461
0.281034
0.281592
0.282135
0.282662
0.283174
0.283672
0.284162
0.365294
0.394562
0.39094
0.355422
0.355612
0.348485
0.347512
0.384562
0.390236
0.378944
0.343625
0.340642
0.375743
0.340446
0.334153
0.338194
0.327666
0.336381
0.320977
0.334561
0.314006
0.332429
0.306862
0.329861
0.299032
0.326765
0.323092
0.29459
0.302453
0.318825
0.285673
0.294934
0.386926
0.262941
0.282462
0.308878
0.313922
0.36555
0.278002
0.276806
0.274379
0.271213
0.268
0.264856
0.261727
0.258596
0.255424
0.252052
0.248464
0.244837
0.241168
0.237322
0.233463
0.229455
0.225434
0.221285
0.217177
0.212398
0.205169
0.193849
0.190762
0.216894
0.249473
0.258395
0.258479
0.25633
0.253718
0.250806
0.247791
0.245075
0.242681
0.240624
0.238868
0.237344
0.236035
0.23496
0.23406
0.233328
0.232762
0.232356
0.232108
0.232
0.232018
0.232164
0.232414
0.23276
0.233191
0.2337
0.234277
0.234912
0.235599
0.236331
0.237103
0.237906
0.238736
0.239587
0.240456
0.241341
0.242235
0.243139
0.244048
0.24496
0.245872
0.246781
0.247686
0.248587
0.249481
0.250366
0.251243
0.252109
0.252964
0.253807
0.254637
0.255454
0.256256
0.257043
0.257814