/*--------------------------------*- C++ -*----------------------------------*\
| =========                 |                                                 |
| \\      /  F ield         | OpenFOAM: The Open Source CFD Toolbox           |
|  \\    /   O peration     | Version:  2212                                  |
|   \\  /    A nd           | Website:  www.openfoam.com                      |
|    \\/     M anipulation  |                                                 |
\*---------------------------------------------------------------------------*/
FoamFile
{
    version     2.0;
    format      ascii;
    arch        "LSB;label=32;scalar=64";
    class       volScalarField;
    location    "0.0314";
    object      T;
}
// * * * * * * * * * * * * * * * * * * * * * * * * * * * * * * * * * * * * * //

dimensions      [0 0 0 1 0 0 0];

internalField   nonuniform List<scalar> 
31661
(
271.639
228.597
229.663
229.135
228.4
229.486
228.948
228.205
229.314
228.762
268.422
225.739
274.034
266.065
272.445
271.256
272.409
271.474
231.636
271.061
249.817
250.008
256.212
268.386
228.871
250.466
257.842
251.775
225.016
221.367
268.327
238.46
243.232
229.211
240.32
268.038
238.236
268.218
252.903
253.175
255.92
228.7
268.459
233.079
233.927
224.076
233.458
228.364
237.121
258.979
259.824
256.019
224.026
228.292
248.596
230.979
224.729
224.701
253.947
227.861
225.302
226.656
230.991
228.012
230.042
265.5
272.567
254.465
254.975
255.456
227.247
256.088
256.513
256.914
257.294
257.654
257.994
258.317
258.623
258.918
259.2
259.424
259.589
259.666
259.667
259.593
259.435
259.219
258.939
258.648
258.345
258.029
257.695
257.343
256.974
256.59
256.193
255.795
255.387
254.95
254.486
254.019
253.563
253.224
253.108
252.708
252.625
252.185
252.12
251.657
251.605
251.129
251.085
250.599
250.561
250.071
250.037
249.543
249.514
249.018
248.994
248.498
248.477
247.983
247.965
247.474
247.458
246.973
246.958
246.478
246.466
245.992
245.981
245.515
245.504
245.047
245.037
244.589
244.579
244.14
244.131
243.701
243.693
243.273
243.265
242.855
242.848
242.449
242.442
242.053
242.047
241.669
241.663
241.297
241.291
240.936
240.93
240.587
240.582
240.251
240.246
239.926
239.922
239.614
239.611
239.314
239.312
239.028
239.025
238.752
238.754
238.758
239.031
239.317
239.616
239.928
240.252
240.588
240.936
241.296
241.668
242.052
242.447
242.853
243.27
243.698
244.136
244.585
245.043
245.51
245.987
246.473
246.967
247.468
247.977
248.492
249.013
249.538
250.069
250.604
251.141
251.68
252.22
252.762
253.318
253.875
254.431
254.969
255.484
255.969
256.424
256.843
257.236
257.606
257.955
258.284
258.595
259.642
259.654
258.893
259.178
259.41
259.582
259.662
259.359
259.312
259.241
259.623
259.666
259.598
259.446
259.235
258.958
258.668
258.367
258.053
257.72
257.367
256.995
256.606
256.203
255.784
255.359
254.919
254.463
253.996
253.52
253.038
252.546
252.046
251.537
251.023
250.505
249.986
249.468
248.951
248.437
247.928
247.424
246.927
246.436
245.953
245.479
245.013
244.557
244.111
243.674
243.248
242.832
242.427
242.034
241.652
241.281
240.922
240.575
240.24
239.918
239.608
239.31
239.025
238.754
238.495
238.492
238.493
238.497
238.505
238.764
239.036
239.321
239.619
239.929
240.252
240.587
240.934
241.293
241.663
242.045
242.439
242.843
243.259
243.685
244.121
244.568
245.024
245.491
245.966
246.451
246.944
247.445
247.953
248.468
248.99
249.517
250.05
250.586
251.126
251.668
252.212
252.759
253.306
253.849
254.386
254.91
255.414
255.892
256.345
256.773
257.176
257.556
257.912
258.249
258.566
258.867
259.156
259.657
259.395
259.574
259.656
258.143
258.321
259.383
258.426
255.743
255.185
257.875
259.137
259.593
259.659
259.601
259.459
259.245
258.972
258.681
258.376
258.056
257.717
257.361
256.987
256.597
256.189
255.763
255.327
254.878
254.416
253.943
253.459
252.967
252.469
251.965
251.457
250.945
250.431
249.916
249.402
248.889
248.379
247.874
247.374
246.879
246.391
245.911
245.44
244.977
244.523
244.08
243.646
243.222
242.809
242.407
242.016
241.636
241.268
240.911
240.566
240.234
239.914
239.606
239.311
239.028
238.759
238.502
238.26
238.25
238.245
238.246
238.25
238.259
238.274
238.517
238.774
239.044
239.327
239.622
239.93
240.25
240.583
240.927
241.284
241.652
242.031
242.422
242.824
243.237
243.66
244.094
244.538
244.993
245.456
245.93
246.412
246.903
247.401
247.908
248.422
248.943
249.469
250.002
250.539
251.079
251.623
252.167
252.712
253.253
253.79
254.318
254.834
255.332
255.81
256.267
256.701
257.112
257.501
257.867
258.209
258.532
258.839
259.134
259.381
259.655
259.566
259.65
256.103
250.759
251.62
259.384
258.463
256.296
245.793
244.619
249.566
254.393
257.494
258.988
259.547
259.644
259.597
259.47
259.25
258.976
258.679
258.372
258.048
257.707
257.348
256.97
256.572
256.157
255.725
255.279
254.822
254.353
253.873
253.383
252.886
252.384
251.877
251.366
250.854
250.341
249.828
249.317
248.808
248.303
247.802
247.306
246.816
246.331
245.855
245.388
244.929
244.479
244.039
243.609
243.189
242.779
242.38
241.992
241.616
241.251
240.898
240.556
240.227
239.91
239.606
239.314
239.034
238.768
238.515
238.275
238.049
238.031
238.019
238.013
238.012
238.017
238.027
238.044
238.066
238.293
238.533
238.787
239.053
239.333
239.625
239.93
240.247
240.576
240.917
241.27
241.635
242.011
242.398
242.796
243.205
243.625
244.055
244.496
244.947
245.407
245.877
246.355
246.843
247.338
247.842
248.353
248.871
249.396
249.927
250.462
251.001
251.543
252.086
252.627
253.166
253.699
254.224
254.737
255.236
255.717
256.179
256.621
257.04
257.438
257.813
258.165
258.495
258.809
259.112
259.366
259.554
259.65
259.64
252.171
246.678
259.372
241.289
242.157
258.449
256.329
252.438
239.264
238.419
240.259
243.217
248.033
253.307
256.957
258.774
259.476
259.619
259.585
259.472
259.25
258.975
258.674
258.361
258.031
257.685
257.319
256.933
256.527
256.104
255.665
255.212
254.747
254.27
253.784
253.29
252.789
252.283
251.774
251.262
250.75
250.237
249.726
249.217
248.711
248.21
247.713
247.222
246.737
246.258
245.786
245.323
244.869
244.424
243.988
243.562
243.147
242.742
242.348
241.964
241.592
241.232
240.883
240.546
240.221
239.908
239.607
239.319
239.044
238.781
238.532
238.296
238.074
237.866
237.837
237.816
237.802
237.794
237.793
237.798
237.81
237.828
237.853
238.094
238.317
238.553
238.803
239.066
239.341
239.629
239.929
240.242
240.567
240.904
241.252
241.612
241.984
242.366
242.76
243.164
243.58
244.005
244.441
244.887
245.343
245.808
246.282
246.764
247.256
247.755
248.262
248.777
249.298
249.825
250.357
250.893
251.432
251.972
252.511
253.048
253.579
254.104
254.618
255.12
255.607
256.076
256.526
256.957
257.365
257.75
258.111
258.452
258.777
259.09
259.349
259.539
259.638
259.625
237.885
259.617
247.24
259.334
242.809
258.387
239.953
256.239
237.041
237.793
252.422
247.475
235.856
235.076
236.202
237.475
239.136
241.68
246.169
251.848
256.196
258.463
259.367
259.58
259.564
259.46
259.245
258.972
258.662
258.34
258.002
257.647
257.272
256.877
256.462
256.03
255.582
255.122
254.649
254.166
253.674
253.175
252.671
252.163
251.652
251.14
250.628
250.117
249.607
249.101
248.599
248.101
247.608
247.122
246.642
246.169
245.704
245.246
244.797
244.358
243.928
243.508
243.098
242.699
242.31
241.932
241.565
241.21
240.866
240.535
240.215
239.907
239.611
239.328
239.057
238.8
238.555
238.324
238.107
237.902
237.712
237.671
237.639
237.615
237.599
237.59
237.588
237.593
237.606
237.626
237.654
237.689
237.924
238.129
238.347
238.579
238.823
239.081
239.351
239.634
239.929
240.237
240.556
240.888
241.231
241.585
241.951
242.328
242.716
243.115
243.524
243.944
244.374
244.814
245.264
245.723
246.191
246.668
247.154
247.647
248.149
248.659
249.175
249.697
250.225
250.757
251.292
251.828
252.364
252.899
253.431
253.957
254.474
254.981
255.476
255.954
256.415
256.857
257.277
257.674
258.048
258.401
258.739
259.063
259.326
259.517
259.605
259.583
237.733
259.15
259.263
243.209
258.256
240.45
256.019
238.401
252.176
236.561
247.392
234.027
234.74
243.345
237.536
237.491
237.455
237.429
237.41
237.4
237.398
237.403
237.417
237.439
237.469
237.508
237.556
237.786
237.972
238.171
238.384
238.61
238.849
239.101
239.365
239.642
239.931
240.232
240.545
240.87
241.207
241.555
241.914
242.285
242.666
243.058
243.46
243.873
244.296
244.728
245.171
245.623
246.084
246.554
247.033
247.52
248.015
248.518
249.028
249.545
250.067
250.593
251.123
251.656
252.19
252.723
253.255
253.783
254.306
254.82
255.322
255.811
256.284
256.739
257.173
257.585
257.973
258.342
258.694
259.031
259.297
259.488
259.578
259.528
258.968
257.695
257.174
237.614
233.028
232.416
233.33
234.296
235.345
236.507
237.986
240.124
244.045
249.93
255.107
258
259.195
259.524
259.525
259.434
259.234
258.965
258.644
258.31
257.962
257.595
257.209
256.803
256.377
255.935
255.478
255.008
254.527
254.037
253.54
253.037
252.529
252.02
251.508
250.997
250.486
249.977
249.47
248.967
248.469
247.975
247.488
247.007
246.533
246.067
245.608
245.157
244.715
244.282
243.859
243.446
243.043
242.65
242.268
241.896
241.536
241.187
240.849
240.524
240.21
239.908
239.618
239.341
239.076
238.824
238.585
238.359
238.147
237.947
237.762
237.59
258.037
240.736
253.06
254.265
255.657
238.832
251.687
237.131
247.004
235.398
243.215
233.669
240.81
231.553
232.066
237.683
237.849
238.029
238.222
238.429
238.648
238.88
239.125
239.383
239.653
239.935
240.229
240.535
240.853
241.182
241.523
241.874
242.237
242.61
242.994
243.388
243.793
244.207
244.632
245.066
245.51
245.962
246.424
246.895
247.374
247.861
248.356
248.859
249.368
249.883
250.403
250.929
251.457
251.988
252.52
253.052
253.584
254.112
254.632
255.143
255.644
256.131
256.601
257.052
257.48
257.886
258.271
258.64
258.994
259.259
259.449
259.538
259.443
258.689
256.397
251.396
231.137
231.898
232.711
233.586
234.536
235.588
236.869
238.66
241.829
247.515
253.539
257.294
258.929
259.44
259.484
259.397
259.209
258.95
258.618
258.272
257.91
257.53
257.131
256.711
256.273
255.818
255.35
254.87
254.381
253.883
253.38
252.873
252.363
251.852
251.34
250.83
250.321
249.815
249.312
248.814
248.321
247.833
247.352
246.877
246.41
245.951
245.5
245.057
244.623
244.198
243.783
243.377
242.982
242.596
242.222
241.858
241.505
241.163
240.833
240.514
240.207
239.912
239.629
239.358
239.1
238.855
238.622
238.402
238.195
238.002
237.822
237.655
237.502
237.432
237.373
237.324
237.286
237.257
237.236
237.225
237.222
237.228
237.242
237.266
237.299
237.341
237.394
237.456
230.406
237.53
246.735
244.615
230.735
255.102
239.073
237.392
237.313
237.246
237.189
237.144
237.108
237.083
237.067
237.061
237.065
237.077
237.099
237.131
237.172
237.225
237.288
237.363
248.562
250.955
237.533
229.7
229.561
230.173
230.826
231.511
232.224
232.993
233.828
234.769
235.854
237.346
239.785
244.711
251.315
256.203
258.511
259.305
259.429
259.355
259.181
258.925
258.584
258.223
257.847
257.452
257.036
256.601
256.148
255.68
255.199
254.708
254.209
253.705
253.196
252.684
252.172
251.66
251.149
250.64
250.134
249.632
249.134
248.642
248.155
247.674
247.201
246.734
246.275
245.824
245.382
244.948
244.523
244.107
243.7
243.303
242.917
242.54
242.174
241.819
241.474
241.141
240.818
240.507
240.208
239.921
239.646
239.382
239.131
238.893
238.667
238.454
238.254
238.067
237.893
237.732
237.585
237.451
239.738
241.267
246.33
235.941
242.836
234.273
240.681
232.622
239.123
231.141
229.939
228.98
229.027
227.769
228.016
237.484
237.616
237.763
237.923
238.096
238.283
238.482
238.695
238.92
239.157
239.408
239.67
239.944
240.23
240.528
240.837
241.158
241.49
241.833
242.187
242.551
242.926
243.311
243.706
244.112
244.527
244.951
245.385
245.829
246.281
246.742
247.211
247.689
248.176
248.67
249.171
249.678
250.192
250.711
251.234
251.762
252.292
252.827
253.361
253.892
254.418
254.94
255.454
255.956
256.443
256.912
257.359
257.784
258.188
258.578
258.95
259.223
259.407
259.487
259.318
258.267
255.247
249.225
242.331
238.326
237.268
237.335
236.333
231.426
237.364
249.947
237.754
237.184
237.112
237.052
237.004
236.966
236.939
236.922
236.916
236.919
236.933
236.956
236.99
237.035
237.091
237.158
237.238
237.331
242.836
245.397
236.331
228.22
229.004
229.526
230.066
230.627
231.233
231.87
232.541
233.259
234.072
234.997
236.198
238.079
241.832
248.376
254.518
257.833
259.08
259.342
259.303
259.158
258.892
258.546
258.167
257.772
257.358
256.925
256.472
256.002
255.519
255.025
254.522
254.014
253.501
252.987
252.472
251.957
251.445
250.935
250.429
249.927
249.43
248.939
248.453
247.974
247.502
247.037
246.579
246.13
245.688
245.255
244.831
244.416
244.01
243.614
243.227
242.85
242.483
242.127
241.781
241.445
241.121
240.808
240.506
240.215
239.936
239.669
239.414
239.171
238.941
238.723
238.517
238.324
238.144
237.977
237.823
237.681
237.554
237.439
238.404
242.229
234.783
235.052
235.822
240.354
233.163
238.988
231.602
237.791
230.251
229.167
228.386
227.531
237.157
237.259
227.806
227.453
237.476
237.589
237.716
237.856
238.009
238.176
238.355
238.547
238.752
238.969
239.198
239.44
239.694
239.96
240.237
240.526
240.826
241.137
241.46
241.793
242.137
242.491
242.856
243.231
243.616
244.011
244.416
244.83
245.253
245.686
246.127
246.577
247.036
247.504
247.98
248.463
248.955
249.455
249.96
250.473
250.991
251.514
252.045
252.58
253.115
253.65
254.183
254.715
255.242
255.759
256.264
256.752
257.221
257.668
258.097
258.509
258.897
259.192
259.355
259.407
259.112
257.596
253.497
246.593
240.222
237.122
235.439
234.403
226.964
227.327
234.035
233.497
230.445
244.242
236.543
237.069
236.993
236.93
236.879
236.839
236.81
236.792
236.785
236.789
236.803
236.828
236.864
236.912
236.971
237.042
237.126
237.224
237.337
239.485
241.444
235.152
227.851
228.667
229.117
229.576
230.051
230.553
231.066
231.624
232.217
232.844
233.524
234.313
235.252
236.732
239.418
244.946
251.937
256.693
258.674
259.207
259.221
259.111
258.861
258.514
258.109
257.689
257.253
256.799
256.326
255.838
255.338
254.829
254.315
253.796
253.276
252.756
252.238
251.722
251.21
250.703
250.2
249.704
249.213
248.729
248.251
247.781
247.318
246.863
246.416
245.977
245.547
245.125
244.712
244.308
243.913
243.527
243.151
242.785
242.429
242.083
241.747
241.422
241.107
240.804
240.512
240.23
239.961
239.703
239.457
239.223
239.001
238.791
238.593
238.408
238.235
238.075
237.928
237.793
237.671
237.562
237.467
236.68
239.849
233.628
234.673
238.678
232.066
232.731
233.132
237.651
230.604
236.573
229.376
228.421
227.749
237.061
237.168
227.314
227.048
228.809
226.902
237.376
237.508
237.603
237.711
237.831
237.964
238.111
238.269
238.441
238.625
238.821
239.03
239.251
239.484
239.728
239.985
240.252
240.532
240.822
241.123
241.435
241.758
242.091
242.435
242.789
243.153
243.527
243.91
244.304
244.706
245.118
245.539
245.968
246.407
246.854
247.31
247.774
248.248
248.728
249.216
249.713
250.219
250.732
251.253
251.781
252.313
252.849
253.389
253.929
254.472
255.011
255.543
256.066
256.575
257.067
257.541
257.999
258.443
258.844
259.141
259.273
259.282
258.746
256.524
251.055
243.619
238.486
236.063
234.728
233.866
233.092
232.43
268.758
232.017
231.797
254.643
224.235
240.525
235.353
236.969
236.89
236.824
236.77
236.727
236.697
236.678
236.671
236.674
236.689
236.716
236.754
236.804
236.866
236.941
237.03
237.132
237.249
237.383
237.577
239.196
233.972
223.987
228.418
228.464
228.887
229.296
229.706
230.126
230.557
231.017
231.489
231.995
232.551
233.135
233.796
234.547
235.652
237.575
241.547
248.449
254.805
257.961
259
259.143
259.036
258.811
258.487
258.053
257.604
257.141
256.662
256.166
255.658
255.14
254.616
254.088
253.56
253.033
252.508
251.987
251.471
250.96
250.456
249.959
249.468
248.985
248.51
248.042
247.582
247.13
246.686
246.25
245.823
245.404
244.994
244.593
244.201
243.818
243.444
243.08
242.725
242.38
242.046
241.721
241.407
241.104
240.811
240.528
240.257
239.998
239.75
239.513
239.288
239.075
238.874
238.684
238.507
238.343
238.19
238.05
237.922
237.807
237.704
237.614
237.536
235.385
238.205
232.475
233.653
237.342
230.981
232.327
236.426
229.633
231.225
231.359
235.377
228.527
227.701
236.979
237.089
227.134
226.775
226.568
226.513
237.289
237.426
237.66
237.748
237.85
237.964
238.09
238.229
238.38
238.543
238.719
238.907
239.106
239.318
239.541
239.776
240.023
240.28
240.548
240.829
241.12
241.42
241.732
242.054
242.386
242.728
243.081
243.442
243.814
244.195
244.585
244.984
245.392
245.809
246.235
246.669
247.112
247.566
248.028
248.496
248.974
249.461
249.958
250.466
250.982
251.502
252.032
252.571
253.112
253.663
254.215
254.764
255.312
255.854
256.386
256.905
257.41
257.906
258.389
258.788
259.066
259.192
259.118
258.116
254.753
247.937
240.86
237.063
235.22
234.185
233.463
232.802
232.218
231.674
231.186
227.118
230.696
230.712
226.641
237.582
238.433
234.161
236.883
236.8
236.731
236.675
236.63
236.599
236.579
236.571
236.575
236.59
236.618
236.658
236.71
236.775
236.853
236.945
237.052
237.174
237.313
237.471
236.142
237.597
232.782
227.901
228.195
228.502
228.794
229.163
229.53
229.896
230.264
230.646
231.037
231.456
231.893
232.36
232.873
233.437
234.06
234.868
236.237
238.955
244.507
251.812
256.705
258.608
259.017
258.97
258.789
258.452
257.998
257.519
257.025
256.518
255.997
255.466
254.929
254.389
253.849
253.311
252.777
252.248
251.725
251.21
250.702
250.203
249.711
249.228
248.754
248.288
247.831
247.382
246.942
246.51
246.087
245.672
245.267
244.869
244.481
244.102
243.731
243.37
243.018
242.676
242.343
242.021
241.708
241.406
241.114
240.831
240.56
240.3
240.051
239.813
239.586
239.37
239.167
238.975
238.794
238.626
238.469
238.325
238.192
238.071
237.963
237.866
237.782
237.708
237.649
234.269
236.883
231.323
232.736
236.112
229.917
227.59
231.578
235.225
228.682
230.738
234.179
227.706
236.913
237.027
230.279
230.188
226.993
226.523
226.237
226.108
226.142
237.215
237.357
237.518
237.759
237.832
237.914
238.01
238.117
238.236
238.367
238.51
238.666
238.832
239.011
239.202
239.404
239.617
239.842
240.078
240.325
240.582
240.851
241.131
241.421
241.72
242.03
242.35
242.68
243.02
243.369
243.727
244.095
244.472
244.858
245.253
245.657
246.069
246.49
246.921
247.361
247.809
248.267
248.734
249.211
249.7
250.198
250.705
251.221
251.75
252.286
252.834
253.39
253.948
254.509
255.073
255.636
256.193
256.742
257.28
257.817
258.346
258.732
258.994
259.12
258.857
257.116
252.119
244.333
238.743
235.964
234.598
233.801
233.178
232.61
232.108
231.644
231.207
230.804
230.418
229.859
226.278
230.049
226.784
237.701
236.896
232.952
236.814
236.728
236.656
236.597
236.551
236.517
236.496
236.488
236.492
236.508
236.537
236.579
236.634
236.702
236.783
236.878
236.989
237.114
237.257
237.417
237.599
234.946
236.301
231.586
228.346
228.618
228.895
229.183
229.49
229.808
230.131
230.459
230.792
231.138
231.498
231.877
232.288
232.716
233.192
233.74
234.354
235.329
237.164
240.979
247.855
254.49
257.82
258.807
258.878
258.739
258.428
257.983
257.455
256.917
256.374
255.825
255.27
254.713
254.156
253.603
253.056
252.516
251.984
251.461
250.948
250.444
249.951
249.467
248.992
248.528
248.073
247.627
247.191
246.763
246.345
245.935
245.534
245.142
244.758
244.383
244.017
243.66
243.312
242.973
242.644
242.324
242.014
241.714
241.423
241.141
240.871
240.612
240.362
240.124
239.896
239.68
239.475
239.281
239.098
238.927
238.767
238.619
238.482
238.357
238.244
238.142
238.051
237.973
237.904
237.85
237.803
233.246
235.655
230.178
228.06
227.287
231.891
234.912
228.866
230.878
234.026
227.75
236.857
236.973
230.174
232.964
229.717
226.9
226.304
229.694
229.461
225.923
225.715
225.669
225.76
237.156
237.302
237.466
237.651
237.907
237.96
238.027
238.104
238.194
238.294
238.406
238.53
238.665
238.811
238.969
239.139
239.32
239.512
239.715
239.929
240.155
240.391
240.638
240.895
241.162
241.441
241.729
242.027
242.333
242.65
242.977
243.313
243.658
244.012
244.375
244.748
245.129
245.518
245.917
246.324
246.741
247.167
247.603
248.048
248.504
248.971
249.448
249.936
250.435
250.949
251.471
252.007
252.557
253.113
253.679
254.253
254.834
255.418
256.002
256.583
257.16
257.739
258.299
258.717
258.928
258.974
258.322
255.337
248.798
241.01
237.282
235.177
234.185
233.546
233
232.525
232.086
231.679
231.304
230.945
230.605
230.276
229.956
229.349
226.463
229.645
225.923
237.86
235.64
231.731
236.755
236.667
236.593
236.533
236.485
236.451
236.43
236.421
236.425
236.442
236.471
236.514
236.57
236.64
236.723
236.821
236.934
237.063
237.21
237.375
237.562
237.773
233.833
235.09
230.386
228.529
228.788
229.044
229.299
229.562
229.834
230.114
230.4
230.69
230.986
231.291
231.607
231.941
232.288
232.671
233.076
233.528
234.056
234.75
235.994
238.523
243.629
251.121
256.37
258.385
258.778
258.672
258.404
257.988
257.411
256.823
256.241
255.66
255.079
254.5
253.927
253.362
252.806
252.261
251.727
251.205
250.695
250.197
249.71
249.235
248.771
248.317
247.874
247.441
247.018
246.604
246.199
245.803
245.416
245.038
244.668
244.307
243.955
243.612
243.277
242.952
242.636
242.33
242.032
241.742
241.463
241.195
240.937
240.689
240.451
240.223
240.007
239.801
239.605
239.421
239.248
239.086
238.935
238.795
238.667
238.549
238.443
238.348
238.263
238.191
238.127
238.078
238.034
238.009
226.988
232.301
234.468
229.045
227.784
228.273
231.104
233.723
227.837
236.822
236.942
230.217
232.818
231.738
229.626
226.85
226.118
229.266
225.626
229.077
225.331
229.343
229.015
225.21
225.24
225.372
237.106
237.256
237.425
237.616
237.831
238.097
238.14
238.188
238.25
238.322
238.405
238.499
238.604
238.72
238.847
238.985
239.134
239.295
239.466
239.648
239.841
240.045
240.26
240.485
240.72
240.966
241.221
241.486
241.762
242.049
242.345
242.649
242.961
243.283
243.614
243.955
244.304
244.662
245.028
245.404
245.788
246.181
246.584
246.996
247.419
247.851
248.294
248.748
249.214
249.692
250.184
250.688
251.205
251.741
252.286
252.844
253.418
254.006
254.604
255.211
255.824
256.445
257.082
257.723
258.275
258.647
258.814
258.688
257.228
252.474
245.054
238.864
236.185
234.655
233.937
233.392
232.941
232.518
232.141
231.786
231.452
231.135
230.831
230.535
230.245
229.962
229.686
229.047
225.57
226.135
229.41
238.072
234.465
230.501
236.717
236.627
236.55
236.487
236.437
236.401
236.379
236.371
236.374
236.391
236.422
236.467
236.525
236.598
236.685
236.786
236.902
237.034
237.184
237.351
237.539
237.748
237.983
226.689
232.805
233.936
225.82
226.398
229.19
227.506
228.016
228.518
228.755
228.993
229.23
229.467
229.703
229.944
230.19
230.44
230.695
230.955
231.22
231.492
231.775
232.068
232.379
232.706
233.059
233.452
233.892
234.428
235.29
236.938
240.392
246.887
253.806
257.503
258.56
258.597
258.419
258.011
257.409
256.762
256.128
255.509
254.9
254.3
253.711
253.134
252.572
252.023
251.489
250.969
250.464
249.973
249.494
249.029
248.576
248.135
247.704
247.285
246.875
246.475
246.085
245.703
245.33
244.966
244.611
244.264
243.926
243.597
243.277
242.965
242.661
242.364
242.078
241.803
241.538
241.282
241.035
240.798
240.571
240.355
240.149
239.953
239.768
239.594
239.43
239.277
239.135
239.003
238.883
238.773
238.673
238.585
238.507
238.439
238.381
238.336
238.296
238.274
238.25
231.421
233.302
227.927
236.793
236.914
230.362
232.534
231.604
229.612
226.828
225.965
229.119
230.501
225.352
228.835
224.963
228.706
224.757
228.689
224.72
229.138
228.753
224.811
224.986
237.078
237.23
237.401
237.592
237.805
238.047
238.321
238.344
238.365
238.404
238.448
238.505
238.572
238.649
238.736
238.834
238.943
239.062
239.192
239.332
239.484
239.646
239.818
240.001
240.195
240.398
240.612
240.837
241.071
241.315
241.568
241.831
242.102
242.385
242.678
242.98
243.29
243.607
243.933
244.267
244.61
244.963
245.324
245.694
246.073
246.461
246.859
247.267
247.686
248.116
248.557
249.01
249.478
249.959
250.454
250.967
251.495
252.038
252.601
253.182
253.78
254.396
255.024
255.667
256.332
257.03
257.749
258.263
258.596
258.743
258.195
255.37
248.76
241.512
237.327
235.401
234.365
233.831
233.359
232.964
232.601
232.264
231.949
231.651
231.367
231.091
230.822
230.559
230.3
230.041
229.781
229.523
228.872
229.265
229.033
225.221
229.324
233.365
229.299
229.142
225.504
226.11
227.231
227.761
228.282
226.961
227.51
228.049
226.695
227.264
227.818
227.019
226.433
227.59
225.825
227.362
226.777
226.171
229.269
236.687
236.597
236.52
236.458
236.408
236.372
236.349
236.34
236.344
236.361
236.393
236.437
236.496
236.568
236.654
236.756
236.874
237.008
237.16
237.33
237.522
237.738
237.98
238.251
229.639
229.913
230.164
230.41
230.652
230.892
231.133
231.381
231.634
231.895
232.165
232.452
232.753
233.081
233.428
233.824
234.287
234.998
236.339
239.19
244.721
252.46
257.214
258.55
258.562
258.339
257.823
257.05
256.28
255.552
254.869
254.217
253.588
252.979
252.394
251.829
251.287
250.765
250.262
249.775
249.306
248.851
248.41
247.983
247.567
247.163
246.769
246.386
246.012
245.647
245.292
244.946
244.609
244.28
243.957
243.642
243.334
243.037
242.749
242.472
242.204
241.944
241.692
241.45
241.218
240.995
240.782
240.579
240.385
240.202
240.029
239.866
239.713
239.57
239.438
239.316
239.204
239.102
239.011
238.93
238.859
238.797
238.746
238.705
238.669
238.652
238.631
231.825
232.811
228.003
237.052
237.207
237.381
237.577
237.798
238.046
238.322
238.634
227.93
228.145
228.36
228.576
228.793
229.012
229.231
229.451
229.671
229.89
230.109
230.329
230.554
230.781
231.012
231.248
231.488
231.735
231.99
232.254
232.533
232.824
233.141
233.473
233.856
234.303
234.919
236.016
238.287
242.703
250.097
255.868
258.139
258.546
258.381
258.023
257.48
256.755
256.061
255.393
254.75
254.127
253.522
252.935
252.367
251.817
251.284
250.769
250.27
249.786
249.318
248.863
248.422
247.994
247.577
247.171
246.776
246.39
246.014
245.647
245.289
244.94
244.599
244.267
243.942
243.625
243.315
243.013
242.722
242.441
242.17
241.907
241.653
241.408
241.173
240.947
240.732
240.526
240.33
240.145
239.97
239.805
239.65
239.506
239.372
239.249
239.136
239.033
238.94
238.857
238.785
238.723
238.67
238.629
238.592
238.574
238.552
238.555
230.591
232.153
231.353
229.657
226.828
225.847
229.024
230.387
236.792
236.916
225.106
228.63
229.264
224.607
228.419
224.312
228.345
224.199
228.37
224.239
228.467
224.382
228.617
224.599
228.83
224.874
225.192
227.715
227.134
225.539
228.06
227.501
232.303
228.655
228.797
226.534
225.909
228.043
229.618
229.824
230.038
230.302
230.553
230.79
231.02
231.245
231.469
231.699
231.936
232.18
232.432
232.696
232.977
233.273
233.595
233.942
234.339
234.879
235.824
237.835
241.446
248.961
255.334
258.121
258.548
258.345
257.871
257.163
256.297
255.508
254.778
254.093
253.445
252.827
252.237
251.674
251.136
250.622
250.128
249.653
249.195
248.754
248.326
247.913
247.512
247.123
246.744
246.375
246.016
245.665
245.321
244.985
244.657
244.338
244.027
243.727
243.436
243.154
242.88
242.614
242.357
242.108
241.869
241.638
241.416
241.204
241.001
240.808
240.625
240.451
240.287
240.133
239.988
239.854
239.729
239.615
239.51
239.415
239.33
239.254
239.189
239.131
239.085
239.046
239.016
239
238.981
238.987
236.682
236.587
236.507
236.441
236.39
236.353
236.33
236.323
236.325
236.342
236.374
236.42
236.481
236.557
236.648
236.754
236.875
237.011
237.165
237.337
237.53
237.746
237.988
238.259
238.564
230.905
231.719
227.883
230.268
231.023
229.801
226.834
225.757
228.272
228.48
228.685
228.889
229.092
229.295
229.498
229.702
229.906
230.11
230.314
230.516
230.72
230.927
231.136
231.349
231.565
231.786
232.014
232.248
232.492
232.747
233.015
233.299
233.605
233.934
234.314
234.797
235.55
237.028
239.951
245.986
253.007
257.178
258.358
258.358
258.122
257.576
256.802
256.034
255.319
254.639
253.992
253.374
252.78
252.209
251.66
251.131
250.621
250.129
249.655
249.197
248.755
248.327
247.911
247.508
247.117
246.736
246.366
246.005
245.652
245.307
244.969
244.639
244.316
244.002
243.697
243.402
243.117
242.841
242.572
242.311
242.06
241.817
241.584
241.359
241.145
240.94
240.744
240.559
240.383
240.217
240.061
239.915
239.779
239.653
239.537
239.432
239.335
239.249
239.172
239.106
239.047
239
238.961
238.93
238.913
238.894
238.899
238.908
229.007
230.179
237.055
237.212
237.388
237.586
237.806
238.053
238.33
238.643
238.997
236.801
236.924
227.284
227.008
226.905
224.892
228.475
229.176
224.27
228.163
228.034
223.879
228.017
223.681
227.992
223.656
228.057
223.759
228.188
223.952
228.376
224.214
228.634
224.527
229.511
224.877
225.252
231.288
228.371
228.273
230.659
230.021
225.693
236.693
236.599
236.52
236.454
236.402
236.365
236.341
236.329
236.335
236.354
236.386
236.433
236.494
236.569
236.659
236.764
236.884
237.02
237.174
237.346
237.54
237.756
237.998
238.27
238.576
238.921
231.008
228.607
228.825
229.023
229.217
229.41
229.601
229.79
229.979
230.169
230.359
230.549
230.738
230.928
231.118
231.311
231.506
231.705
231.908
232.115
232.328
232.549
232.778
233.018
233.268
233.536
233.817
234.126
234.461
234.861
235.414
236.401
238.385
242.292
249.241
255.399
257.943
258.349
258.152
257.668
256.965
256.104
255.309
254.59
253.923
253.294
252.694
252.122
251.573
251.047
250.544
250.061
249.597
249.152
248.722
248.308
247.907
247.518
247.139
246.77
246.41
246.058
245.715
245.38
245.055
244.739
244.432
244.134
243.845
243.563
243.288
243.022
242.764
242.514
242.273
242.041
241.818
241.604
241.4
241.204
241.018
240.842
240.675
240.518
240.37
240.232
240.104
239.986
239.877
239.777
239.687
239.607
239.535
239.474
239.419
239.377
239.34
239.313
239.297
239.281
239.288
239.298
239.311
229.048
229.916
229.703
229.902
230.1
230.308
230.516
230.738
230.965
231.19
231.408
231.623
231.835
232.051
232.274
232.508
232.749
233
233.264
233.543
233.844
234.168
234.525
234.966
235.638
237.106
239.615
245.471
252.53
257.149
258.359
258.336
258.004
257.279
256.361
255.514
254.743
254.034
253.371
252.748
252.158
251.597
251.065
250.557
250.074
249.611
249.167
248.738
248.326
247.926
247.538
247.16
246.791
246.432
246.082
245.74
245.409
245.087
244.775
244.472
244.177
243.89
243.611
243.339
243.075
242.82
242.574
242.336
242.107
241.886
241.675
241.473
241.28
241.096
240.921
240.756
240.601
240.455
240.318
240.191
240.074
239.966
239.868
239.778
239.699
239.628
239.568
239.514
239.472
239.436
239.411
239.394
239.379
239.386
239.396
237.064
237.221