/*--------------------------------*- C++ -*----------------------------------*\
| =========                 |                                                 |
| \\      /  F ield         | OpenFOAM: The Open Source CFD Toolbox           |
|  \\    /   O peration     | Version:  2212                                  |
|   \\  /    A nd           | Website:  www.openfoam.com                      |
|    \\/     M anipulation  |                                                 |
\*---------------------------------------------------------------------------*/
FoamFile
{
    version     2.0;
    format      ascii;
    arch        "LSB;label=32;scalar=64";
    class       volScalarField;
    location    "0.0818";
    object      epsilon;
}
// * * * * * * * * * * * * * * * * * * * * * * * * * * * * * * * * * * * * * //

dimensions      [0 2 -3 0 0 0 0];

internalField   nonuniform List<scalar> 
31661
(
1.08257e+06
91281.4
106248
97268.4
90373
102965
95410.5
89817.4
100526
94080.5
1.05257e+07
126474
3.31534e+07
260121
534655
652921
626973
804746
176613
617315
668495
665157
2.13262e+06
895767
100106
704573
3.34648e+06
1.41695e+06
124813
110050
816674
1.66166e+06
1.81061e+06
204570
322911
648436
388240
598422
726434
2.16585e+06
1.35369e+06
90258.6
340233
119254
121105
133875
121224
261706
372326
280217
1.05603e+06
479160
140480
270119
526728
151299
151572
145434
540883
153042
136625
140585
149409
77753.8
354888
1.52671e+06
5.70527e+06
479595
412191
350223
123271
269822
227324
191343
162184
138683
120275
105993
95134.2
86936.8
80860.3
76406.7
73198
70909.8
71921.2
74555.7
78221.8
83249.7
89998.1
98921.4
110512
125319
143999
167154
195220
228724
265448
304217
350838
403067
457638
510066
560492
634592
616168
688737
669008
734936
715561
772557
754936
802003
787086
824189
812313
840289
831325
851513
845092
858945
854598
863499
860764
865911
864382
866757
866101
866475
866431
865405
865776
863810
864449
861899
862701
859843
860735
857792
858721
855872
856806
854217
855133
852970
853858
852319
853170
852579
853383
854457
855218
859908
860634
875015
875681
919174
919608
1.05325e+06
1.05292e+06
1.4452e+06
1.44351e+06
2.41576e+06
2.41231e+06
4.02236e+06
4.01831e+06
5.39299e+06
5.38989e+06
5.91598e+06
5.91281e+06
5.90942e+06
5.91355e+06
5.87662e+06
5.87244e+06
5.33902e+06
3.96677e+06
2.38028e+06
1.43039e+06
1.04825e+06
917642
874547
859718
854324
852444
852168
852800
854027
855661
857556
859577
861580
863411
864891
865790
865822
864616
861690
856421
848021
835521
817820
793728
762155
722315
673811
616613
552511
482634
411028
344359
286678
238853
200345
169223
144263
124604
109323
97663.9
70061.6
69315.5
88874.5
82371.9
77604.6
74139
71649.2
68247.3
68790.3
70424.4
72242.1
74819.5
78380.6
83205.4
89656.8
98097.3
108911
122502
139157
159210
182835
209994
240411
273566
308541
346511
387538
430280
474115
519651
569060
618821
666314
709681
747760
779857
805775
825842
840673
851113
858022
862182
864272
864853
864367
863172
861552
859742
857933
856305
855033
854327
854515
856298
861586
876271
919073
1.04897e+06
1.42979e+06
2.37839e+06
3.96515e+06
5.33597e+06
5.86547e+06
5.86571e+06
5.6925e+06
5.73401e+06
5.73823e+06
5.70433e+06
5.63347e+06
5.79979e+06
5.78415e+06
5.23417e+06
3.86244e+06
2.31518e+06
1.40384e+06
1.03973e+06
915437
874260
859981
854727
852873
852597
853218
854426
856022
857844
859734
861519
863001
863940
864034
862896
860035
854829
846512
834205
816919
793740
763962
727311
684085
635225
581949
525873
465375
406435
351667
301426
256875
219157
187173
160451
138552
120868
106992
96296.4
88195.4
69896.9
82123.8
77620.8
74323.9
69172.9
67963.3
68702.2
67570.4
68356.4
70052.7
71422
73421
76213.1
80033.3
85164.3
91919.9
100654
111714
125336
141745
160916
182665
206613
232263
259041
286317
313638
341772
371125
401928
434622
470598
510953
554242
598998
643627
686348
725680
760131
789033
812114
829745
842561
851349
856948
860105
861456
861544
860799
859569
858137
856744
855615
854994
855223
856990
862110
876150
916787
1.03975e+06
1.40107e+06
2.30915e+06
3.85626e+06
5.22792e+06
5.77332e+06
5.78272e+06
5.6146e+06
5.40224e+06
5.47608e+06
5.51552e+06
5.51956e+06
5.48776e+06
5.42128e+06
5.32182e+06
5.52776e+06
5.68537e+06
5.65363e+06
5.08064e+06
3.71303e+06
2.22352e+06
1.36672e+06
1.02786e+06
912256
873738
860211
855137
853299
852989
853550
854667
856120
857709
859229
860441
861061
860733
859011
855333
849016
839252
825160
805889
780752
749479
712341
670235
624615
577300
529997
483478
436897
392883
351572
313673
277356
243853
213247
185752
161468
140835
123817
110109
99219.6
90729.1
71945
84284.3
79455.8
67451
69146
67851.3
70263.8
67927.2
67161
68551.4
70178
71260.9
72857.8
75138.7
78308.9
82603.5
88309.8
95749.5
105248
117100
131499
148453
167779
189046
211508
234445
257043
278711
299070
318232
337076
356253
376540
398797
424292
454156
488236
526085
566938
609545
652254
693209
730691
763320
790420
811912
828127
839746
847586
852459
855130
856241
856322
855805
855050
854364
854052
854490
856355
861340
874546
912132
1.02523e+06
1.35849e+06
2.20727e+06
3.69475e+06
5.06649e+06
5.6366e+06
5.66118e+06
5.50153e+06
5.29528e+06
5.08762e+06
5.18932e+06
5.25949e+06
5.29691e+06
5.30065e+06
5.27048e+06
5.20745e+06
5.11296e+06
4.98901e+06
5.19144e+06
5.38946e+06
5.53581e+06
5.4831e+06
4.88112e+06
3.52156e+06
2.10872e+06
1.32031e+06
1.01245e+06
907527
872249
859602
854690
852793
852336
852688
853512
854543
855518
856142
856063
854845
851951
846724
838393
826108
809027
786431
757978
723859
684879
642523
598579
554958
513384
474919
439630
406872
377112
349405
322934
296343
269718
243124
216910
191806
168820
148525
131019
116377
104492
95150.5
75874.1
87892.9
67155.3
67563.6
73262.5
69459.7
68209.9
69119
67446
66939.1
69022
70549.6
71436.7
72738
74625.3
77296.8
80955
85867.3
92335.2
100678
111197
124140
139602
157474
177382
198675
220455
241745
261673
279661
295454
309090
321174
332519
343909
356087
369883
386284
406298
430382
458814
491653
528546
568633
610530
652449
692423
728829
760374
786346
806743
822031
832897
840211
844825
847490
848857
849462
849763
850166
851121
853310
858280
870586
904549
1.00566e+06
1.30448e+06
2.07888e+06
3.4868e+06
4.85502e+06
5.45811e+06
5.5041e+06
5.35592e+06
5.15794e+06
4.95721e+06
4.76027e+06
4.88433e+06
4.98126e+06
5.04829e+06
5.08401e+06
5.08752e+06
5.05875e+06
4.99867e+06
4.90881e+06
4.79093e+06
4.83823e+06
5.03257e+06
5.22088e+06
5.35354e+06
5.27432e+06
4.63832e+06
3.2941e+06
1.97502e+06
1.2661e+06
993408
900549
868888
857161
852323
850202
849366
849203
849332
849399
849034
847795
845146
840441
832912
821729
806024
785062
758439
726182
689001
648311
605864
563656
523505
486758
454177
425930
401586
380401
361872
344874
328241
310886
292168
271630
249341
225995
202589
179990
159011
140346
124562
111465
82390.1
100838
4.6476e+06
92501.2
67038
78259.3
67459
71389.6
68066.3
68365.9
69985.6
68806.9
67166.1
66880.1
69669.7
71095.7
71824.6
72910.9
74496.6
76754.6
79875.4
84120.5
89767.7
97130.6
106527
118233
132407
149063
167948
188505
209908
231147
251162
269134
284522
297192
307343
315411
322094
328083
334028
340501
348132
357639
369754
385049
404084
427362
455210
487646
524238
564015
605501
646882
686233
721815
752477
777615
797285
811992
822519
829770
834598
837784
839989
841800
843769
846651
851870
863371
893477
981448
1.24198e+06
1.93087e+06
3.24083e+06
4.59912e+06
5.24265e+06
5.31658e+06
5.18259e+06
4.99477e+06
4.80248e+06
4.61332e+06
4.42932e+06
4.56918e+06
4.68748e+06
4.78011e+06
4.84436e+06
4.87865e+06
4.882e+06
4.85433e+06
4.79696e+06
4.71111e+06
4.59865e+06
4.46215e+06
4.48228e+06
4.66399e+06
4.84883e+06
5.0252e+06
5.14109e+06
5.03125e+06
4.35645e+06
3.03781e+06
1.82824e+06
1.20597e+06
970787
890609
862696
851819
846859
844216
842613
841421
840149
838319
835386
830691
823476
812887
798034
778183
752835
721929
686147
646636
605124
563661
524074
487854
455875
428503
405685
386961
371685
359141
348601
339148
329896
319905
308362
294541
278059
258960
237804
215300
192592
171097
151528
134181
119554
107549
4.30499e+06
97919.9
86100.7
67062.7
75200.6
67488.2
70095.5
68061.4
67882.8
68751.5
67057.2
70653.9
69540.3
66946.5
4.25532e+06
4.38873e+06
4.5017e+06
4.59032e+06
4.65197e+06
4.6849e+06
4.6881e+06
4.66146e+06
4.60621e+06
4.52397e+06
4.41641e+06
4.28608e+06
4.13642e+06
4.13207e+06
4.29989e+06
4.47121e+06
4.64511e+06
4.80777e+06
4.90412e+06
4.75961e+06
4.04318e+06
2.76174e+06
1.67463e+06
1.14205e+06
944599
877028
852721
842459
837026
833413
830429
827335
823515
818291
810887
800438
786041
766891
742438
712589
677852
639330
598682
557901
518771
482842
451097
423970
401524
383410
369091
357952
349384
342816
337605
333119
328798
323981
317976
310069
299606
286149
269531
250029
228670
206492
184353
163657
144909
128666
115037
90431
104002
3.97212e+06
70429.1
71780.8
72375.6
73299.4
74644.5
76562.7
79245.8
82920.1
87848.8
94340
102714
113274
126249
141727
159578
179393
200459
221818
242396
261176
277408
290698
301051
308772
314329
318294
321241
323692
326071
328833
332318
336977
343379
352004
363362
378025
396563
419463
447023
479218
515565
555043
596150
637019
675725
710643
740599
765129
784353
798845
809462
817122
822722
827065
830904
835065
840950
851954
878336
952982
1.17385e+06
1.77096e+06
2.96693e+06
4.30612e+06
4.99689e+06
5.10543e+06
4.98807e+06
4.81205e+06
4.62947e+06
4.4493e+06
4.27351e+06
4.10692e+06
81237.5
67185.1
95385.1
84721.2
72987.3
67618.5
69225.2
68172.6
67607.6
68819.3
67084.6
69545.3
67098.2
71444.6
70370.2
3.7994e+06
3.9499e+06
4.10703e+06
4.2668e+06
4.42811e+06
4.57603e+06
4.65119e+06
4.46657e+06
3.70695e+06
2.47699e+06
1.52044e+06
1.07638e+06
914902
859145
837969
827875
821475
816169
810747
804378
796240
785442
771064
752245
728386
699295
665417
627755
587959
547857
509225
473673
442239
415347
393120
375259
361271
350608
342683
336995
333050
330334
328476
327164
325939
324446
322195
318643
313189
305190
294110
279746
262311
242133
220436
198020
176381
156378
138524
123328
110905
73080.3
73854.2
75014.2
76662.5
78983.6
82188.7
86497.3
92207.6
99657.5
109154
120969
135267
152029
170979
191543
212862
233891
253557
270945
285457
296882
305355
311259
315090
317358
318552
319077
319278
319424
319818
320695
322238
324793
328785
334625
342744
353655
367925
386118
408712
435975
467858
503863
542931
583560
623858
661964
696258
725684
749842
768936
783634
794821
803471
810536
817017
824268
835269
858474
920536
1.10279e+06
1.60704e+06
2.67662e+06
3.98502e+06
4.72878e+06
4.87777e+06
4.77982e+06
4.61742e+06
4.4458e+06
4.27569e+06
4.10898e+06
3.95051e+06
3.80183e+06
3.95068e+06
4.09198e+06
4.21917e+06
4.32702e+06
4.41173e+06
4.47073e+06
4.50231e+06
4.50541e+06
4.47989e+06
4.42687e+06
4.34804e+06
4.24531e+06
4.12085e+06
3.97826e+06
3.82208e+06
72601.3
3.65819e+06
88709.7
101000
71298.2
77595.9
67385.8
3.52567e+06
3.68135e+06
3.82985e+06
3.96557e+06
4.08405e+06
4.18222e+06
4.25753e+06
4.30817e+06
4.33252e+06
4.32952e+06
4.29934e+06
4.24299e+06
4.16213e+06
4.0594e+06
3.9383e+06
3.80377e+06
3.6622e+06
80406.8
71421.3
67824.3
72346.8
73934.5
74585.1
75583
77008.8
79034.9
81851.7
85648.6
90696.8
97301.7
105823
116542
129680
145308
163276
183148
204193
225437
245799
264270
280088
292847
302514
309350
313791
316334
317451
317551
316973
315980
314778
313549
312448
311670
311342
311578
312609
314745
318355
323833
331609
342187
356128
373978
396199
423063
454514
490029
528576
568606
608318
645843
679644
708748
732839
752217
767597
779945
790365
800271
812247
833131
884170
1.03109e+06
1.44613e+06
2.38248e+06
3.64669e+06
4.44793e+06
4.64296e+06
4.56724e+06
4.42057e+06
4.26112e+06
4.1019e+06
3.9448e+06
3.79468e+06
3.65367e+06
3.52112e+06
93318
83638.7
68641
68362.6
67507.5
68977.4
67207.8
69665.6
67320.3
70435.1
71291.5
73551
72266.1
75892.5
74606.8
3.36957e+06
3.49382e+06
3.62618e+06
3.76683e+06
3.91274e+06
4.06012e+06
4.2082e+06
4.33973e+06
4.39222e+06
4.16181e+06
3.35846e+06
2.19464e+06
1.37169e+06
1.01063e+06
881696
836188
817369
806842
798569
790300
780825
769150
754313
735425
711813
683233
650003
613103
574031
534666
496682
461689
430607
404079
382126
364517
350769
340391
332762
327415
323918
321835
320848
320508
320695
321331
322020
322557
322644
321957
320036
316335
310298
301370
289176
273513
254737
233846
211799
189516
168275
149245
132639
118644
107484
3.40092e+06
87386.4
98563.5
236921
3.25241e+06
74924.9
67642.3
3.54882e+06
3.68985e+06
3.81882e+06
3.93172e+06
4.02528e+06
4.09697e+06
4.14515e+06
4.16824e+06
4.16534e+06
4.13655e+06
4.08288e+06
4.00595e+06
3.90818e+06
3.79299e+06
3.66513e+06
3.53045e+06
3.39598e+06
77207.1
70339.5
68086.7
76423.4
75475.1
76333.9
77593.9
79375
81850.3
85224.9
89729.4
95631.1
103248
112937
124972
139469
156383
175412
195958
217150
237944
257286
274291
288389
299372
307371
312742
315953
317478
317747
317108
315842
314160
312225
310163
308080
306074
304242
302705
301583
300915
300838
301614
303509
306870
312088
319587
329864
343456
360910
382691
409062
439957
474870
512781
552193
591314
628363
661873
690944
715359
735477
752139
766640
781257
801503
843867
960174
1.29386e+06
2.09656e+06
3.30368e+06
4.16747e+06
4.41685e+06
4.36529e+06
4.2349e+06
4.08807e+06
3.93982e+06
3.79208e+06
3.64977e+06
3.51561e+06
3.38924e+06
3.26975e+06
79833.7
68297.1
68612.9
91669.5
82866.3
67536.3
69206.1
67408.2
69865
67592.7
70594.7
71406.6
72315.8
74449.2
3.28293e+06
3.14153e+06
78338.6
77889.3
3.11069e+06
3.22095e+06
3.33769e+06
3.46174e+06
3.59298e+06
3.72788e+06
3.86291e+06
3.99731e+06
4.11159e+06
4.1395e+06
3.85652e+06
3.01029e+06
1.92525e+06
1.2327e+06
945905
844771
807539
789920
777656
765967
752855
737088
717694
693962
665572
632786
596483
558103
519380
482125
447726
417258
391147
369643
352338
338882
328708
321323
316177
312912
311097
310399
310397
311157
312323
313869
315628
317450
319210
320716
321771
322095
321318
318992
314568
307448
297172
283491
266616
246814
225026
202838
181134
160843
142760
127380
114722
104601
76462.7
75492.7
86397.7
96641.6
150304
73008.3
67943.2
3.4235e+06
3.5575e+06
3.68014e+06
3.78737e+06
3.87602e+06
3.94417e+06
3.98983e+06
4.01171e+06
4.00886e+06
3.98149e+06
3.93051e+06
3.85745e+06
3.76458e+06
3.65519e+06
3.5337e+06
3.40557e+06
3.27734e+06
3.15629e+06
74874.7
69605.6
68391.5
90532.2
77215.5
78357.2
79938.1
82149.3
85187
89235.6
94553.8
101428
110175
121128
134535
150377
168467
188337
209235
230188
250141
268130
283444
295721
304947
311382
315443
317600
318295
317904
316729
314998
312885
310520
308000
305403
302796
300238
297786
295506
293465
291765
290488
289673
289475
290131
291890
295073
300081
307331
317313
330563
347599
368882
394669
424927
459161
496404
535206
573850
610603
644084
673472
698623
720165
739781
761776
798739
890658
1.15413e+06
1.82895e+06
2.96825e+06
3.9015e+06
4.21659e+06
4.19113e+06
4.07707e+06
3.94189e+06
3.80323e+06
3.66329e+06
3.52707e+06
3.39791e+06
3.27581e+06
3.16004e+06
3.04991e+06
77025.8
68147.3
68909.9
79512.7
67665.4
69488.1
90477.5
82426.1
67664.2
70126.1
67905.4
70829
71605.9
72466.4
3.17089e+06
3.03627e+06
73418.4
74404
284826
75356.6
3.00613e+06
2.88379e+06
2.9835e+06
3.08842e+06
3.19929e+06
3.31656e+06
3.43981e+06
3.56502e+06
3.68875e+06
3.81033e+06
3.90695e+06
3.90818e+06
3.56353e+06
2.67472e+06
1.67739e+06
1.10621e+06
882706
803842
772126
753724
737799
720537
700261
676056
647546
614926
579027
541211
503160
466560
432851
402984
377480
356409
339526
326328
316395
309222
304291
301160
299468
298868
299062
299970
301315
303103
305212
307537
309978
312497
314981
317315
319413
321083
322119
322206
320954
317850
312390
304008
292303
277195
258935
238403
216428
194280
173041
153836
137041
122881
111417
102346
375927
85807.9
95252.9
803657
138668
71672.8
68276
3.30448e+06
3.43173e+06
3.548e+06
3.64959e+06
3.73382e+06
3.79847e+06
3.84161e+06
3.86219e+06
3.85943e+06
3.83347e+06
3.78514e+06
3.71581e+06
3.62776e+06
3.52405e+06
3.40867e+06
3.28679e+06
3.16443e+06
3.04825e+06
2.94492e+06
73214.6
69150.9
68729
137987
93754.1
79050.5
80594.8
82652.2
85425.2
89122.9
93977.4
100247
108224
118214
130509
145300
162408
181482
201889
222752
243049
261780
278129
291594
302019
309554
314550
317451
318707
318713
317797
316211
314145
311741
309102
306309
303423
300491
297558
294664
291844
289136
286583
284236
282156
280430
279137
278319
278110
278745
280455
283541
288385
295434
305143
318041
334653
355400
380576
410160
443710
480308
518584
556890
593562
627286
657423
684438
711134
746721
821366
1.02775e+06
1.5858e+06
2.64962e+06
3.66334e+06
4.06153e+06
4.06511e+06
3.96567e+06
3.83919e+06
3.70681e+06
3.57132e+06
3.43792e+06
3.31054e+06
3.18956e+06
3.07451e+06
2.96492e+06
2.86039e+06
75003.4
68139.7
69242.9
77077.6
67868.8
69811.5
79490.9
67964.8
70435.5
89769.9
82310.7
68246.9
71119.9
71871
3.06422e+06
2.93596e+06
72694.4
73583.3
74498.4
75464.2
2.90675e+06
2.78885e+06
2.7813e+06
2.87856e+06
2.98072e+06
3.08831e+06
3.20151e+06
3.3194e+06
3.43744e+06
3.55242e+06
3.66332e+06
3.74397e+06
3.7136e+06
3.29471e+06
2.36138e+06
1.45641e+06
993075
820397
757504
727862
706069
684055
659058
630195
597527
561828
524423
486937
450996
417952
388742
363814
343222
326730
313898
304214
297194
292405
289361
287704
287125
287388
288265
289641
291482
293636
296061
298723
301478
304369
307306
310198
313035
315734
318213
320314
321869
322620
322231
320286
316252
309580
299819
286730
270337
251077
229855
207701
186079
165792
147460
132075
119292
108962
100803
77829.6
85617
94429.2
76584.8
2.68858e+06
70744.7
68634.7
3.19111e+06
3.31179e+06
3.42202e+06
3.51827e+06
3.59798e+06
3.65904e+06
3.69976e+06
3.71913e+06
3.71654e+06
3.69195e+06
3.64618e+06
3.58058e+06
3.49721e+06
3.39893e+06
3.28942e+06
3.17351e+06
3.05673e+06
2.9451e+06
2.84468e+06
2.76066e+06
72064.6
68919.7
69091.6
80188
80983.6
81745.7
83260.5
85799.5
89253.6
93777.7
99582.7
106944
116149
127476
141154
157277
175486
195261
215825
236219
255441
272611
287108
298645
307255
313209
316911
318803
319293
318730
317388
315480
313161
310547
307724
304757
301694
298576
295435
292301
289202
286164
283214
280379
277688
275176
272891
270886
269248
268051
267349
267251
267972
269741
272832
277599
284476
293955
306523
322701
342942
367503
396411
429285
465275
503087
541159
577979
612663
646119
684244
748836
911762
1.36704e+06
2.34947e+06
3.45958e+06
3.96943e+06
4.00733e+06
3.91905e+06
3.79605e+06
3.66436e+06
3.52791e+06
3.39216e+06
3.26167e+06
3.13726e+06
3.01881e+06
2.90602e+06
2.79864e+06
2.69646e+06
73585.2
68243
69603.5
75348.1
68129.7
70166.6
79700
77373.9
68297.3
70782.3
79744.6
68612
71454.9
2.96243e+06
2.84022e+06
89509.1
82511.5
72188.7
72984.8
73835.2
74734.8
75714.3
2.81199e+06
2.69818e+06
2.6e+06
2.61065e+06
2.7041e+06
2.80218e+06
2.90505e+06
3.01307e+06
3.12616e+06
3.24289e+06
3.3578e+06
3.4677e+06
3.57113e+06
3.63711e+06
3.56906e+06
3.05603e+06
2.07459e+06
1.26283e+06
891125
756582
703085
671687
643862
614141
581278
545696
508618
471625
436284
403897
375326
350985
330869
314754
302233
292779
285914
281183
278146
276437
275777
275946
276713
277995
279739
281846
284233
286828
289662
292571
295627
298763
301916
305064
308192
311272
314210
316953
319370
321320
322599
322919
321896
319081
313985
306094
294954
280476
262864
242771
221326
199488
178509
159252
142319
128212
116668
107341
99928.6
85780.5
76829
94115.1
77906.1
2.52154e+06
70148.1
69012.4
3.08294e+06
3.1973e+06
3.30158e+06
3.39254e+06
3.46784e+06
3.52551e+06
3.564e+06
3.58229e+06
3.57974e+06
3.55646e+06
3.51321e+06
3.45124e+06
3.37237e+06
3.27927e+06
3.17543e+06
3.06527e+06
2.9538e+06
2.84651e+06
2.74886e+06
2.66546e+06
2.59926e+06
71294
68851.9
69473.8
83621.5
85108.8
87008.4
89835.5
93859.3
99255.4
106157
114764
125318
138043
153089
170407
189456
209559
229836
249312
267072
282412
294931
304545
311437
315957
318523
319549
319398
318364
316679
314514
312000
309230
306275
303190
300014
296783
293521
290254
287004
283790
280632
277550
274564
271694
268966
266405
264044
261927
260112
258674
257687
257237
257399
258326
260283
263516
268342
275165
284454
296736
312493
332191
356122
384296
416413
451721
489079
527279
565922
607980
667950
799369
1.16555e+06
2.05691e+06
3.27886e+06
3.95066e+06
4.03375e+06
3.95228e+06
3.82491e+06
3.68594e+06
3.54078e+06
3.39537e+06
3.25513e+06
3.12146e+06
2.99452e+06
2.87415e+06
2.76013e+06
2.65227e+06
2.55028e+06
72612.8
68428.7
69985.8
82533.3
79471.6
74124.4
68433.9
70546.8
75873.4
68656
71158.6
2.86511e+06
2.74862e+06
77897.8
68994.4
80251.4
71824.8
72548
89646.3
83013.2
73328.8
74164.9
75061.9
76044.9
2.72144e+06
2.6115e+06
2.51532e+06
2.43659e+06
2.46444e+06
2.55704e+06
2.65459e+06
2.75729e+06
2.86523e+06
2.97861e+06
3.0971e+06
3.21859e+06
3.3364e+06
3.44697e+06
3.54814e+06
3.60127e+06
3.48381e+06
2.84379e+06
1.81051e+06
1.09146e+06
795058
686928
636947
601028
566623
530903
494177
457744
423076
391388
363484
339711
320097
304375
292100
282823
276031
271243
268072
266193
265347
265270
265818
266900
268439
270372
272595
275070
277736
280603
283581
286656
289884
293107
296381
299690
303019
306306
309542
312648
315560
318230
320487
322174
323050
322818
321078
317343
311080
301877
289387
273694
255229
234771
213207
191719
171722
153775
138488
125590
114985
106380
99517.5
86257.2
78081.1
94150
77135.4
2.37658e+06
69809.6
69405.5
2.9796e+06
3.08791e+06
3.18649e+06
3.27233e+06
3.34343e+06
3.39785e+06
3.43404e+06
3.45115e+06
3.44867e+06
3.42667e+06
3.38589e+06
3.32738e+06
3.25286e+06
3.16475e+06
3.06636e+06
2.96169e+06
2.85525e+06
2.75212e+06
2.65718e+06
2.57458e+06
2.50682e+06
2.45389e+06
70824.5
68911.9
69871.2
86820.1
88842.3
91527.1
95034.7
99728.5
105934
113917
123829
135816
149959
166283
184560
204085
224064
243576
261700
277678
291014
301523
309294
314612
317864
319453
319751
319067
317649
315685
313317
310649
307761
304710
301542
298291
294987
291653
288309
284974
281664
278398
275190
272052
269001
266054
263229
260546
258031
255706
253608
251781
250283
249172
248537
248459
249044
250397
252695
256234
261288
268196
277391
289368
304654
323687
346784
374022
405192
439843
477661
520119
576204
683347
970860
1.74742e+06
3.07574e+06
3.99865e+06
4.15407e+06
4.0744e+06
3.93118e+06
3.77399e+06
3.60971e+06
3.44509e+06
3.28707e+06
3.13763e+06
2.99689e+06
2.86459e+06
2.74042e+06
2.62397e+06
2.51485e+06
2.41257e+06
79412.7
71982.1
68677.8
70385.3
81803.1
85325.1
73306
68771.6
70946.7
2.77186e+06
2.66085e+06
74829.2
69033.8
69391.1
76586.2
71558.1
72222.5
78630.9
72941.7
81011.4
73718.5
90071
83771.5
74550.1
75450.4
76434.1
2.63482e+06
2.5286e+06
2.43448e+06
2.35561e+06
2.29319e+06
2.33349e+06
2.42669e+06
2.52565e+06
2.63064e+06
2.74193e+06
2.8597e+06
2.98409e+06
3.11469e+06
3.24881e+06
3.37828e+06
3.49821e+06
3.60552e+06
3.64827e+06
3.45635e+06
2.6357e+06
1.55492e+06
932499
697521
607135
557819
518375
481205
445323
411514
380742
353687
330645
311606
296289
284281
275090
268221
263231
259769
257568
256333
255868
256057
256814
258044
259661
261618
263835
266282
268914
271737
274679
277725
280911
284152
287425
290778
294189
297605
301041
304427
307736
310965
314042
316887
319385
321398
322739
323148
322279
319696
314970
307548
297138
283533
266908
247648
226971
205759
185380
166573
150072
135831
123763
113826
105804
99510.5
87027.9
77515.7
78356.9
94552.6
2.24569e+06
69663.9
69810.8
2.88061e+06
2.98319e+06
3.07627e+06
3.15736e+06
3.22434e+06
3.27547e+06
3.30945e+06
3.32542e+06
3.32306e+06
3.30234e+06
3.2639e+06
3.20869e+06
3.13833e+06
3.05505e+06
2.96184e+06
2.86234e+06
2.76077e+06
2.66164e+06
2.56931e+06
2.48768e+06
2.41889e+06
2.3629e+06
2.31678e+06
79510.2
70582.1
69066.5
78709.5
79728.1
70281.2
81358.7
84269.2
88651.2
90619.8
93261.6
96753.9
101248
106941
114172
123258
134392
147682
163145
180585
199477
219029
238385
256659
273068
287041
298303
306859
312927
316847
319006
319772
319466
318346
316616
314429
311899
309112
306133
303011
299785
296484
293133
289755
286367
282984
279622
276297
273025
269815
266674
263617
260662
257821
255111
252553
250167
247979
246016
244314
242916
241875
241259
241132
241600
242759
244723
247612
251599
256984
264054
273156
284748
299354
317452
339426
365529
396100
432425
480344
564267
778619
1.40105e+06
2.76182e+06
4.06032e+06
4.36182e+06
4.28108e+06
4.10665e+06
3.91761e+06
3.7215e+06
3.5269e+06
3.34314e+06
3.17215e+06
3.01339e+06
2.86601e+06
2.72928e+06
2.60249e+06
2.48492e+06
2.37573e+06
2.27434e+06
71621.8
68974.7
70798.3
2.68227e+06
2.57643e+06
72802.7
69134.5
69427.5
74150.5
71362.6
71976.4
75700.8
69798.8
72642.7
77495.6
73363.1
79570.9
74140.5
81981
74977.8
90760.1
84755.5
75883.7
76869
2.55179e+06
2.44912e+06
2.35705e+06
2.27839e+06
2.21422e+06
2.16311e+06
2.12047e+06
2.20785e+06
2.3015e+06
2.40176e+06
2.50921e+06
2.6243e+06
2.74753e+06
2.87929e+06
3.02e+06
3.16965e+06
3.32547e+06
3.47766e+06
3.61884e+06
3.74477e+06
3.7801e+06
3.45675e+06
2.38012e+06
1.28864e+06
776965
594331
518618
472326
434826
401544
371873
345970
323948
305716
290977
279292
270152
263097
257770
253892
251136
249308
248295
247973
248242
249007
250193
251732
253577
255677
257997
260510
263207
266043
268999
272086
275251
278477
281781
285168
288591
292068
295548
299000
302452
305877
309208
312384
315350
318036
320309
322018
322948
322810
321265
317845
312141
303683
292126
277588
260186
240895
220334
199990
180687
162976
147256
133753
122477
113137
105551
99605.5
87958.6
94959.8
91567.6
77944.1
99719
69665.5
97529.4
94607.5
79126.8
80042.6
81152.8
83581.7
87214.3
81152.8
83194.1
86231.6
81284.3
83038.4
85608.5
83069.8
81536.4
85261.6
80429.6
85133.2
83230.9
81877.8
70226.3
2.78558e+06
2.88277e+06
2.97078e+06
3.04727e+06
3.11027e+06
3.15826e+06
3.19009e+06
3.20508e+06
3.20275e+06
3.18324e+06
3.14697e+06
3.09492e+06
3.0285e+06
2.94978e+06
2.86148e+06
2.76695e+06
2.67e+06
2.57476e+06
2.4852e+06
2.40476e+06
2.33537e+06
2.27699e+06
2.22703e+06
2.18015e+06
104862
112205
121167
132106
145046
159909
176801
195617
215570
235481
254720
272176
287388
299660
309060
315648
319867
322094
322786
322298
320936
318926
316447
313627
310555
307297
303942
300488
296970
293429
289915
286436
282969
279543
276192
272897
269695
266572
263539
260606
257809
255152
252651
250342
248235
246358
244744
243432
242463
241887
241766
242171
243172
244886
247410
250854
255309
260960
268128
277098
288280
302186
319326
340096
364927
394666
432568
491734
625589
1.01079e+06
2.01159e+06
3.38373e+06
3.9687e+06
3.94132e+06
3.78616e+06
3.60984e+06
3.4248e+06
3.24072e+06
3.06732e+06
2.90676e+06
2.75851e+06
2.62164e+06
2.4953e+06
2.37864e+06
2.27089e+06
2.17113e+06
2.07883e+06
70512.1
69294.5
70701.4
2.47196e+06
2.3729e+06
2.28299e+06
2.20483e+06
2.1394e+06
2.08541e+06
2.03889e+06
1.99336e+06
87893.1
88492.2
89428.9
90789.6
92663.7
95207.5
98590.3
102959
108511
115436
123939
134277
146667
161137
177549
195689
214776
233850
252091
268717
283137
294999
304227
310967
315515
318229
319467
319553
318753
317281
315300
312935
310277
307398
304350
301177
297909
294576
291198
287793
284382
280976
277587
274232
270926
267685
264509
261401
258380
255464
252663
249992
247468
245111
242940
240980
239257
237804
236656
235858
235459
235514
236096
237271
239140
241806
245368
249911
255590
262704
271545
282526
296196
313154
334090
360239
395610
455291
601502
1.04415e+06
2.25012e+06
3.96659e+06
4.61934e+06
4.54189e+06
4.32076e+06
4.08494e+06
3.84516e+06
3.61292e+06
3.39858e+06
3.20302e+06
3.02446e+06
2.86114e+06
2.71162e+06
2.57465e+06
2.44899e+06
2.33336e+06
2.22695e+06
2.12888e+06
71463.8
69308.3
69517.4
72537.4
71222.8
71791.4
73756.7
69833.2
2.59617e+06
2.49532e+06
72409.9
75149.4
70215.9
73081
76744.5
73808.5
78579.6
74589.7
80692.4
75434.5
83139.2
76349.5
85971.8
77339.9
89550.4
78417.4
79590.9
87560.3
85180.1
80875.4
90390.8
87446.1
69779.6
97285.8
92608.8
83502.2
82288.7
70649.8
104616
109855
118085
129238
142336
157244
173831
191811
210848
230583
249937
267637
283022
295909
305901
313262
318154
321029
322256
322222
321230
319517
317271
314631
311700
308560
305267
301853
298374
294877
291323
287771
284235
280753
277332
273959
270648
267420
264263
261207
258252
255407
252684
250114
247704
245475
243452
241652
240103
238834
237881
237276
237060
237277
237974
239203
241027
243497
246718
250766
255688
261562
268616
277159
287612
300540
316641
336828
363436
404601
493750
752999
1.52796e+06
3.05267e+06
4.08763e+06
4.12567e+06
3.94862e+06
3.73201e+06
3.51165e+06
3.29821e+06
3.09994e+06
2.91895e+06
2.75435e+06
2.60458e+06
2.46811e+06
2.34357e+06
2.22962e+06
2.12512e+06
2.02917e+06
1.94098e+06
2.69428e+06
2.78634e+06
2.86954e+06
2.94168e+06
3.00096e+06
3.046e+06
3.07582e+06
3.08978e+06
3.08754e+06
3.0691e+06
3.03496e+06
2.98581e+06
2.9231e+06
2.84871e+06
2.76511e+06
2.67533e+06
2.58285e+06
2.49142e+06
2.40466e+06
2.3256e+06
2.25601e+06
2.19587e+06
2.14294e+06
2.09259e+06
2.03844e+06
70573.8
69577
90162.8
124951
69670.1
71461.3
71130.2
71656.7
91005.3
91938.3
93277.6
95109.4
97568.7
100821
105026
110378
117078
125303
135209
146921
160511
175967
193058
211367
230003
248060
264752
279436
291726
301489
308807
313922
317157
318855
319334
318866
317669
315914
313734
311228
308471
305520
302422
299211
295918
292564
289172
285762
282338
278917
275520
272157
268840
265580
262393
259286
256247
253290
250443
247722
245137
242702
240436
238357
236488
234852
233475
232388
231622
231213
231198
231617
232512
233929
235920
238533
241853
245953
250881
256689
263588
271910
282108
294879
311353
334108
371980
461279
736751
1.60112e+06
3.45177e+06
4.77612e+06
4.77255e+06
4.51395e+06
4.22211e+06
3.93607e+06
3.6669e+06
3.42262e+06
3.2036e+06
3.00707e+06
2.83013e+06
2.67037e+06
2.52575e+06
2.3944e+06
2.27462e+06
2.16526e+06
2.06526e+06
1.97366e+06
72456.7
69915.9
2.39528e+06
2.29976e+06
2.21212e+06
2.13472e+06
2.06848e+06
2.0123e+06
1.96272e+06
1.91414e+06
1.85981e+06
2.5134e+06
2.41735e+06
87509.4
87591.1
85349.2
72231
73578.4
70249
72856.1
74849.4
70640.5
73533.9
76294.9
74268
77941.3
75059.5
79837.8
75916.1
82033.6
76840.2
84645.4
77839.2
88003.2
78923
102976
80095.9
81367.7
69978.3
93957.8
94063.1
69901.9
70735.6
71566.2
2.60652e+06
2.69369e+06
2.77233e+06
2.84038e+06
2.89617e+06
2.93846e+06
2.96637e+06
2.97936e+06
2.97712e+06
2.95978e+06
2.92753e+06
2.8811e+06
2.82191e+06
2.75167e+06
2.67255e+06
2.58732e+06
2.49914e+06
2.41146e+06
2.32751e+06
2.25002e+06
2.18059e+06
2.11926e+06
2.06408e+06
2.01111e+06
1.9549e+06
1.8896e+06
155080