/*--------------------------------*- C++ -*----------------------------------*\
| =========                 |                                                 |
| \\      /  F ield         | OpenFOAM: The Open Source CFD Toolbox           |
|  \\    /   O peration     | Version:  2212                                  |
|   \\  /    A nd           | Website:  www.openfoam.com                      |
|    \\/     M anipulation  |                                                 |
\*---------------------------------------------------------------------------*/
FoamFile
{
    version     2.0;
    format      ascii;
    arch        "LSB;label=32;scalar=64";
    class       volScalarField;
    location    "0.037";
    object      k;
}
// * * * * * * * * * * * * * * * * * * * * * * * * * * * * * * * * * * * * * //

dimensions      [0 2 -2 0 0 0 0];

internalField   nonuniform List<scalar> 
2308
(
828.013
4993.08
1281.38
1432.59
502.514
466.677
441.106
481.848
517.622
334.416
334.852
337.86
340.275
345.19
352.408
361.114
370.582
380.687
370.463
360.622
351.486
343.8
338.622
335.255
332.69
331.895
334.48
343.24
445.462
380.522
367.709
428.186
542.688
710.544
891.001
968.31
955.009
951.706
1011.21
1123.89
1159.18
1131.89
1079.34
1025
965.357
967.386
1027.4
1081.65
1134.14
1183.67
1206.48
1109.86
998.863
923.73
823.364
700.18
615.573
555.005
471.699
398.025
358.466
345.16
342.608
342.559
343.918
345.749
348.25
351.729
357.159
365.052
374.407
904.022
905.327
370.828
360.638
351.678
344.683
340.244
337.382
335.76
336.793
343.756
364.836
417.726
505.043
579.777
619.515
693.241
806.696
897.682
976.343
1100.27
1215.23
1185.58
1127.44
1072.07
1016.88
957.233
390.534
895.295
390.601
384.57
899.476
958.368
1019.64
1077.23
1128.91
1179.02
1205
1094.08
828.261
682.964
597.408
556.542
540.568
533.518
523.078
479.452
417.752
378.722
363.671
358.801
357.558
358.223
359.978
362.374
365.923
371.826
380.241
499.606
468.867
446.918
457.84
384.669
372.563
362.231
354.29
349.476
346.883
345.694
348.278
358.721
386.968
444.024
510.534
540.746
543.561
545.16
557.211
591.475
667.059
796.672
1059.57
1180.35
1154.17
1103.07
1053.71
1001.01
943.041
884.061
826.596
834.563
843.862
844.441
491.384
842.914
525.575
575.85
395.391
539.167
487.979
401.76
390.196
774.225
779.625
788.32
789.023
790.261
824.007
881.015
942.677
1008.76
1084.72
1164.31
1235.91
1302.95
1233.21
849.64
640.874
563.071
529.493
516.178
512.907
515.304
520.503
522.116
502.411
453.614
409.961
387.841
378.188
374.713
374.396
375.993
378.513
382.361
388.513
411.298
738.352
489.745
480.724
460.966
443.461
427.184
412.115
398.135
385.574
374.94
366.813
362.13
360.046
360.045
365.16
381.432
419.129
476.931
520.93
527.999
522.193
514.293
509.545
511.065
521.376
548.156
614.163
789.358
1182.84
1269.25
1210.17
1142.79
1067.16
993.476
924.33
861.565
804.765
1794.06
532.178
1433.99
1881.04
1328.97
563.91
401.169
414.037
903.407
970.673
1044.19
1127.92
1226.2
1335.27
1434.43
1441.86
1064.43
729.992
613.465
563.372
535.621
518.767
511.765
511.912
516.785
523.997
529.126
522.827
489.609
445.913
415.944
401.48
396.237
395.517
397.626
400.837
404.994
396.966
553.049
743.943
490.233
469.533
450.747
433.422
417.693
403.686
392.275
384.357
379.94
378.124
379.712
388.233
411.796
455.991
504.226
525.759
522.973
514.22
505.493
499.829
499.157
505.696
520.228
543.847
587.813
687.761
972.969
1411.72
1444.91
1340.76
1227.96
1123.88
1034.91
957.417
888.543
827.068
753.76
726.99
730.428
738.023
739.243
742.013
771.67
841.941
1336.95
1328.93
3691.2
564.467
724.953
1458.99
411.078
406.966
572.802
577.739
685.054
475.572
518.716
492.64
469.656
449.857
433.13
419.701
411.055
406.492
405.231
409.214
423.293
453.333
498.256
529.659
533.423
527.59
519.754
513.865
511.416
513.665
522.394
539.882
566.176
602.002
653.889
741.509
926.836
1371.78
1626.4
1584.6
1468.38
1347.25
1226.45
1121.97
1031.33
951.979
882.688
772.664
708.288
684.431
686.38
692.962
694.449
698.161
724.573
786.868
885.567
953.253
1029.93
1116.2
1215.57
1330.28
1450.14
1567.07
1634.48
1436.98
971.143
769.591
677.09
624.133
587.135
559.192
541.421
532.931
530.748
532.726
537.347
542.349
542.606
526.26
489.487
454.117
434.601
426.853
425.903
428.916
433.195
568.703
419.398
417.762
425.765
593.95
614.046
610.646
615.649
987.88
547.754
594.529
562.3
531.893
505.536
483.881
467.517
456.732
451.285
450.91
459.087
479.27
513.647
546.249
556.404
553.221
547.393
543.144
542.092
545.284
553.758
569.164
593.22
627.01
671.14
727.357
799.816
903.974
1067.69
1385.46
1800.3
1890.33
1787
1623.69
1469.14
1330.32
1212.36
1112.27
1027.1
955.061
822.841
724.897
667.656
646.235
646.774
652.411
654.178
658.664
682.423
738.114
826.625
944.348
1012
1091.09
1183.22
1290.99
1418.4
1561.98
1715.55
1832.11
1792.45
1424.86
1087.84
917.494
814.184
745.227
692.532
648.787
614.476
591.482
577.992
571.173
569.116
570.459
574.265
577.393
572.662
548.628
513.091
486.966
475.675
473.928
477.479
438.166
588.809
588.941
4972.58
444.286
714.057
693.598
676.269
429.956
457.39
429.414
428.581
623.683
667.912
894.491
771.579
683.262
631.675
611.894
611.346
616.07
618.144
623.203
645.124
695.306
775.837
886.724
1036.05
1097.79
1168.74
1253.57
1354.92
1475.58
1615.54
1769.03
1925.44
2007.74
1925.28
1625.75
1341.59
1160.12
1036.2
943.138
866.67
801.563
747.125
704.773
674.817
655.003
642.985
636.823
635.169
637.348
641.421
645.39
637.223
610.366
581.338
565.535
560.521
482.938
505.428
610.841
2356.27
1495.22
655.433
614.388
582.123
558.922
543.796
535.136
535.27
546.698
568.681
593.778
605.598
604.34
599.57
596.659
597.463
602.476
612.814
629.557
654.09
687.107
729.88
785.26
855.816
941.601
1042.73
1170.46
1349.89
1626.72
1980.92
2120.74
2039.01
1874.7
1702.02
1545.37
1410.95
1297.72
1203.03
1124.08
1057.61
611.542
609.72
1634.83
438.964
667.446
450.87
1240.57
1299.28
1367.93
1447.51
1543.33
1656.94
1780.89
1931.27
2075.78
2174.93
2153.08
1956.24
1699.5
1504.16
1356.11
1235.87
1132.08
1039.55
960.156
895.18
844.392
806.144
778.974
760.899
750.327
746.365
748.021
754.96
764.319
774.16
772.394
757.366
742.288
562.841
495.088
635.88
1001.23
842.697
727.753
647.009
599.75
581.077
579.598
583.573
585.862
591.518
612.129
657.968
732.425
837.343
984.105
1195.87
523.683
743.376
775.502
822.867
886.531
464.798
478.719
4953.34
1892.42
840.034
786.816
747.113
718.521
701.852
698.232
704.847
713.82
716.042
710.356
702.769
698.924
699.715
705.604
717.429
735.825
761.855
796.185
839.231
892.326
959.075
1043.64
1147.85
1266.64
1397.65
1552.44
1751.39
2019.06
2262.87
2335.72
2235.05
2076.5
1900.61
1755.2
1625.66
1514.95
1423.29
1345.97
1281.15
1228.64
1553.91
489.423
450.04
636.873
632.167
633.523
478.462
1632.57
1758.87
454.722
458.639
735.126
452.314
1226.88
2336.16
1534.67
1495.66
1524.77
1562.37
1610.03
1666.63
1733.1
1809.85
1912.48
2047.82
2199.38
2338.06
2403.69
2315.21
2122.68
1934.03
1772.43
1632.52
1506.03
1388.28
1281.59
1189.86
1114.6
1054.37
1007.29
971.829
946.59
930.455
923.091
925.585
933.869
949.598
970.537
994.022
1013.67
1028.82
513.304
998.719
919.208
1189.24
955.119
798.525
689.863
615.365
571.638
553.693
551.306
554.587
557.172
563.353
583.115
625.566
694.75
795.307
942.631
1162.11
1471.47
464.085
877.035
947.86
1047.64
1172.86
1379.18
1457.15
708.795
1408.22
1273.63
1171.21
1098.63
1051.37
1020.1
993.891
967.517
940.481
917.302
902.419
895.75
897.223
906.761
923.816
948.662
982.191
1025.02
1077.99
1142.16
1220.03
1315.17
1431.37
1566.57
1710.51
1860.92
2029.76
2226.59
2438.31
2565.25
2525.61
2381.04
2212.85
2056.19
1931.77
1838.75
1757.25
1688.24
1631.57
1586.58
1552.81
1526.74
545.684
568.12
795.867
628.262
644.994
665.587
492.514
657.249
659.94
656.956
1572.54
1181.43
1045.12
435.327
1428.74
505.196
1633.88
1544.2
1365.89
1315.17
1274.91
1241.07
1219.56
1209.32
1207.84
1216.54
1235.62
1267.21
1310.95
1366.96
1435.89
1518.75
1616.12
1727.78
1850.17
1976.77
2104.29
2235.79
2371.48
2502.3
2590.38
2566.37
2430.9
2259.76
2101.8
1983.21
1917.29
1893.66
1880.15
1871.17
1864.46
1857.22
1846.22
1833.16
1469.92
1505.62
1160.66
919.522
761.874
656.974
587.391
546.741
529.258
526.038
528.72
531.552
538.177
557.303
597.038
662.362
761.121
910.86
1136.14
1450.51
1818.66
536.702
730.152
616.008
1768.47
1742.75
1730.54
1735.67
1769.36
1661.11
1562.81
1475.63
2498.96
1423.19
1273.95
2464.85
1568.48
666.617
680.123
699.358
496.003
573.144
1669.9
1108.32
1253.2
1444.08
1672.64
1971.99
1794.3
3927.12
2232.07
2035.15
1875.04
1741.48
1630.44
1537.97
1458.8
1391.16
1336.4
1295.35
1264.51
1248.9
1246.39
1254.69
1271.75
1297.04
1332.73
1380.79
1441.12
1513.5
1598.54
1697.59
1813.41
1948.43
2094.43
2235.65
2372.4
2513
2654.16
2759.06
2757.77
2628.31
2445.41
2272.47
2136.38
2053.42
2016.38
1994.56
1978.03
1965.64
1956.99
1945.62
1931.77
1917.05
934.131
985.037
1039.6
1338.93
1357.12
563.455
1197.68
1470.27
1386.47
684.508
682.087
689.542
820.314
727.831
724.529
1460.23
803.215
1481.5
1456.59
769.491
1959.62
1758.08
1555.72
1658.5
1769.02
1807.93
1751.13
1711.76
1687.48
1672.79
1667.81
1667.73
1682.96
1712.69
1758.42
1816.77
1886.58
1966.05
2055.05
2152.47
2256.38
2361.29
2458.32
2545.38
2623.75
2688.95
2724.11
2695.99
2576.37
2393.35
2209.08
2061.67
1970.7
1947.91
1977.52
2028.72
2079.09
2118.25
2143.11
2157.47
2163.55
2162.46
2972.43
2526.15
2175.55
1859.26
1604.29
1402.66
3573.78
529.631
1014.55
661.375
849.11
1396.62
1388.48
885.482
740.886
418.518
1381.93
5006.03
510.149
569.081
1948.75
1527.84
1646.11
1238.76
1901.59
1487.35
1139.85
893.955
733.498
629.584
562.999
524.601
507.574
503.675
505.792
508.818
515.843
534.487
572.314
635.688
734.675
887.041
1115.85
1431.94
1802.81
2153.16
1890.52
1852.32
1840.79
1849.96
1889.34
1887.09
1369.68
682.921
610.755
1134.58
1826.73
3034.34
1320.94
1342.82
710.581
1099.53
1060.35
723.701
1298.82
561.241
2065
1915.74
715.521
3656.57
3272.87
2974.89
2745.93
2551.14
2384.87
2243.95
2126.52
2029.58
1951.29
1892.13
1850.93
1824.9
1811.95
1809.86
1815.06
1830.33
1859.74
1904.16
1961.75
2030.37
2108.27
2194.87
2290.09
2395.45
2510.91
2621.99
2714.77
2792.93
2860.11
2903.53
2886.98
2774.68
2585.68
2386.74
2224.68
2119.16
2084.14
2109.05
2160.29
2212.58
2254.54
2281.33
2295.01
2300.86
2299.67
2290.18
3039.46
1520.19
1732.64
732.843
1378.2
798.141
1670.25
4484.03
475.481
1424.56
571.09
702.761
5023.94
4600.71
4020.67
3523.02
3080.1
2637.51
2280.18
1978.16
1114.83
1723.79
3487.17
2539.78
2970.83
3065.6
2557.16
2494.63
2437.83
2392.36
2361.79
2344.68
2331.06
2316.74
2312.47
2327.48
2358.6
2400.85
2449.67
2503.33
2560.35
2618.96
2677.39
2733.67
2780.84
2810.2
2821.31
2814.3
2781.82
2707.72
2577.46
2393.72
2191.06
2017.03
1900.63
1851.95
1873.04
1950.85
2053.39
2151.74
2232.86
2294.28
2338.58
2368.79
2386.77
2390.86
1461.27
1552.7
1649.04
1751.27
1161.9
1557.84
3538.49
3143.59
2768.32
1802.59
2228.17
2029.04
406.659
5101.73
1742.07
880.003
668.371
906.354
2237.43
3107.63
1315.57
1307.89
886.499
738.093
425.358
1246.18
494.732
1176.79
1117.34
896.164
764.047
1216.51
560.436
557.073
2669.63
3059.46
964.754
996.747
1128.49
2430.28
3494.8
2036.89
2056.63
2009.4
1976.56
1965.56
1977.85
2021.33
2016.65
1876.15
616.574
663.836
750.826
743.29
1240.74
2804.33
4439.2
4493.09
4099.97
3788.38
3540.31
3337.2
3166.93
3022.37
2901.17
2800.32
2721.17
2663.85
2624.93
2598.92
2573.99
2554.74
2547.12
2554.56
2575.75
2608.08
2648.26
2693.61
2742.37
2793.56
2846.67
2902.83
2957.16
2993.45
3003.82
2993.86
2961.72
2891.78
2765.3
2579.12
2365.43
2175.87
2045.56
1985.99
2000.66
2079.71
2190.49
2298.1
2385.71
2451.61
2499.14
2531.89
2551.12
2554.79
2545.9
2270.43
1882.92
1471.91
1124.87
877.05
713.366
608.082
542.244
504.891
488.083
483.652
485.236
488.431
495.882
514.447
551.495
614.541
714.602
868.85
1098.28
1412.74
1781.75
2135.4
2386.03
1337.08
1260.92
1491.17
1038.41
1040.54
6000.48
1988.88
1866.01
439.418
501.762
6497.35
6708.16
6497.38
5959.42
5430.84
4866.74
4244.23
3704.53
3209.98
2705.82
1540.87
1266.05
2138.37
1247.13
760.228
2841.29
1298.06
807.483
412.923
1479.17
1071.11
1131.95
815.882
1133.18
559.062
1063.03
2417.21
3525.38
3860.1
4299.23
4856.85
5356.36
5810.93
6126.02
5980.09
1864.14
1596.65
1232.03
1308.08
1387.36
1475.51
1573.81
1703.04
638.355
658.837
1997.4
780.575
2190.48
2144.85
2140.5
2154.52
2130.54
2110.06
2099.03
2108.16
2143.8
2139.05
2013.08
1855.88
3891.98
1166.5
2009.06
726.654
442.236
2437.39
520.15
5447.02
4968.81
4622.29
4354.87
4145.97
3979.65
3837.9
3715.43
3610.01
3523.51
3458.08
3408.8
3367.43
3325.98
3287.5
3257.77
3239.12
3229.9
3227.43
3228.91
3232.39
3236.21
3238.24
3236.3
3228.29
3213.03
3181.88
3121.29
3030.58
2916.58
2778.51
2610.71
2412.36
2196.26
1993.01
1838.1
1754.59
1746.15
1806.89
1924.84
2071.02
2214.08
2338.15
2437.34
2513.29
2569.54
2607.7
2628.39
2636.78
2639.01
2536.21
2248.67
1859.12
1456.86
1113.86
865.765
700.443
593.057
526.12
488.326
471.061
466.101
467.26
470.6
478.623
497.753
535.22
599.118
700.469
854.953
1081.71
1391.52
1758.96
2118.47
2379.2
2466.75
2462.86
2451.91
2431.21
2395.79
2344.33
2274.88
2183.94
2071.13
1941.05
1806.94
1694.57
1632.62
1634.69
1707.1
1848.17
2038.71
2246.88
2442.45
2609.76
2746.53
2857.33
2945.58
3009.4
3047.62
3064.29
3067.2
3061.41
3050
3036.36
3022.35
3009.43
2998.91
2997.89
3010.37
3042.18
3076.55
3111.28
3151.29
3205.02
3276.38
3365.5
3413.24
3633.64
3739.77
3144.99
3558.62
2506.66
5138.82
5467.66
518.178
6110.37
772.758
2324.53
811.995
1545.86
1019.88
693.449
2152.8
1597.97
1228.26
1237.32
894.866
997.628
983.98
1012.85
1044.07
791.16
907.702
1181.45
1047.27
5265.49
658.385
1108.52
839.129
1012.25
964.892
833.28
854.977
1220.14
1918.12
818.938
1089.45
4171.43
5673.31
6855.02
7851.15
8843.19
9562.26
9949.14
10029.4
9437.67
8288.7
6852.87
804.908
3324.91
483.767
7678.82
8951.26
9615.51
9655.67
9310.5
8589.2
7522.12
6488.2
4442.96
697.47
1885.81
1984.19
2026.35
2044.64
461.482
13234.2
741.158
997.296
1730.86
1093.33
4278.11
1474.93
1532.9
1609.02
1702.41
1744.86
1845.87
1994.36
815.436
909.613
4222.75
4111.61
3903.94
3793.26
3725.77
3679.73
3671.55
3649.72
3640.36
3624.22
3611.41
3594.82
3573.38
3560.86
3561.04
3573.1
3590.08
3606.76
3616.36
3612.82
3591.49
3548.8
3481.9
3388.22
3263.33
3101.57
2909.77
2700.07
2480.28
2254.25
2026.68
1806.14
1608.05
1452.73
1357.3
1331.64
1370.73
1463.66
1596.23
1746.48
1894.39
2028.89
2144.75
2242.05
2323.27
2390.78
2448.16
2498.57
2541.5
921.292
821.224
2631.08
2524.64
2232.44
1836.13
1439.66
1104.53
857.709
691.831
583.276
514.693
475.279
456.776
450.93
451.591
455.246
464.155
484.466
523.233
588.636
690.542
843.313
1065.57
1370.07
1737.44
2103.68
2367.17
2459.81
2575.36
9919.19
2370.83
2321.66
2337.32
2345.45
2316.57
2297.42
2290.58
2303.11
2337.29
2352.96
2232.92
2040.6
2148.45
1920.96
2097.25
2376.36
2628.62
4977.83
4406.62
4133.06
3999.69
3930.61
3894.47
3871.72
3853.2
3838.89
3827.58
3821.12
3818.62
3814.11
3801.3
3787.08
3780.85
3780.47
3784.97
3790.44
3793.47
3789.85
3774.73
3743.31
3692.4
3620.19
3525.03
3405.43
3252.31
3062.95
2850.46
2626.66
2396.66
2164.23
1936.46
1728.01
1560.51
1453.97
1420.75
1457.61
1553.39
1694.4
1857.77
2019.98
2167.22
2293.38
2398.24
2484.53
2554.55
2612.16
2661.21
2702.18
2733.38
1022.35
916.397
1150.73
1161.52
1523.53
1174.25
780.459
1465.04
878.812
812.991
3885.46
846.862
502.872
4654.94
6829.83
9886.86
13516.1
16967.2
19212
20204.8
19152.4
16502.9
4797.9
388.938
7228.76
5630.62
5347.18
5121.43
5177.21
9327.6
13857.5
17184.2
19649
20512.8
19545.7
17493.4
14215
10553
7402.16
1029.6
907.901
1356.11
1144.29
898.773
960.027
952.811
866.231
3121.93
2814.47
2676.01
2690.03
2609.28
2716.06
2967.6
3195.5
3449.39
3671.47
3892.26
4099.35
4287.07
4456.86
4619.64
4778.78
4926.62
5055.03
5149.5
5197.9
5186.12
5105.21
4955.15
4741.82
4476.07
4164.73
3808.77
3417.94
3021.68
2644.52
2295.3
1978.28
1697.66
1459.45
1272.99
1148.75
1093.72
1109.93
1191.28
1327.6
1506.74
1712.59
1930.11
2150.11
2366.93
2578.01
2785.47
2995.83
3211.73
3432.44
3652.49
3872.35
4930.4
4540.47
4391.02
4308.54
4069.13
3511.64
3121.65
2869.79
2770.06
1266.6
1088
856.51
1016.8
1075.59
1135.93
745.367
3407.23
3380.35
3464.53
3367.73
534.603
1201.43
2443.54
2299.58
2292.7
2320
2308.39
2265.23
2242.53
2243.24
2255.03
2292.2
2342.92
2262.01
2011.56
2039.78
2457.15
4138.82
2759.09
2618.35
2513.89
2225.37
1823.67
1425.12
1095.07
852.084
686.189
577.264
507.775
466.844
446.314
439.012
439.069
443.213
453.562
475.741
516.067
582.219
683.482
833.647
1052.2
1354.07
1723.25
2092.27
2353.19
2447.62
2603.73
4087.83
3149.84
2806.93
2685.07
2695.17
2794.44
2982.63
3212.05
3454.62
3695.79
3928.76
4149.83
4355.31
4544.76
4721.42
4889.83
5044.24
5180.54
5283.32
5347.31
5364.34
5325.59
5226.58
5066.58
4850.22
4587.04
4283.52
3939.74
3558.3
3161.21
2776.91
2419.03
2093.03
1802.68
1553.38
1354.67
1218.37
1153.71
1164.13
1244.67
1384.77
1572.16
1789.87
2020.45
2252.49
2479.36
2698.53
2912.06
3126.23
3343.99
3564.64
3783.84
4003.14
4219.38
904.63
954.535
1069
1019.92
949.892
10198.8
9315.52
6226.61
4139.78
11062.2
2410.63
4281.59
2610.21
2060.42
2313.73
1330.09
1694.12
815.819
1031.76
569.477
668.28
465.876
505.481
431.848
442.994
427.761
427.518
457.327
435.959
565.649
497.629
836.27
672.625
1405.3
1077.32
2199.22
1800.61
2579.17
2476.46
10417.8
11288.4
4415.98
2762.74
8656.81
9531.08
6914.8
7777.19
5336.95
6096.39
3886.92
4603.27
2597.18
3210.72
1655.85
2070.38
1191.87
1363.11
1199.29
1137.85
1661.9
1376.42
2529.08
2047.78
3786.79
3107.54
5469.39
4573.1
7412.82
6443.7
9190.34
8324.92
10703.7
9997.36
11673.3
11271.4
11916.9
11893.8
11405.4
11757.6
10168.4
10859.3
8518.25
9373.6
6616.3
7609.45
4498.59
5559.55
2605.51
3477.46
1856.76
1987
2126.03
1988.01
2702.37
2317.23
5218.71
3352.17
15996
9218.63
39688.1
26247.9
59889.2
52879.2
41715.2
55008.9
26278.8
30645.4
23366.8
24837.3
21047.2
22190.8
14255.8
18084.1
7198.65
10427.5
7001.58
1046.74
1409.43
863.737
894.92
847.92
854.112
841.589
843.637
840.886
840.19
848.553
843.851
928.655
863.691
3016.9
1150.6
3776.01
2684.79
5285.63
1721.5
8107.29
5985.43
12791.1
10187.6
16327.2
15359
20434.7
18260.4
25117.5
22575.7
37189.9
29418.2
60080.8
48610.6
52896.3
61500.4
25624.4
39235
8967.47
15466.6
3380.31
5090.06
2436.39
2777.09
1933.19
2164.11
1744.61
1734.88
2862.14
2120.38
4848.64
3788.33
6919.25
5905.14
8697.59
7847.24
10213.5
9490.1
11306.5
10833.5
11652
11576.1
11147.8
11511.5
9875.75
10590.6
8158.65
9049.3
6228.04
7218.94
4378.82
5254.25
2961.58
3617.68
1945.18
2405.13
1314.65
1580.28
1106.91
1155.11
1343.56
1169.13
2039.69
1634.29
3137.56
2548.71
4475.27
3786.37
5919.35
5183
7570.99
6720.15
8444.79
5613.4
1724.67
1007.57
509.482
12051.9
896.884
12281
1498.61
1972.21
2695.84
2783.94
3665.28
3548.63
3497.62
3596.71
469.504
1391.78
997.108
935.01
953.141
397.877
413.97
400.728
550.634
518.347
533.668
570.129
537.181
552.611
591.63
558.827
573.997
616.353
584.55
599.06
2707.27
917.796
5778.24
998.432
11260.8
664.415
1020.87
2521.77
627.741
621.407
2717.88
435.537
381.873
1164.41
4147.98
429.785
4243.51
3186.4
4813.08
1855.98
2254.45
512.969
1811.97
452.181
3087.92
431.579
806.694
461.947
442.914
473.731
562.257
6233.91
1581.25
776.624
5646.58
3458.75
1093.51
2079.56
1408.91
1917.65
3449.16
2945.76
1059.96
1964.26
3747.52
400.56
1475.27
4071
665.293
491.019
337.24
335.629
4634.71
)
;

boundaryField
{
    wall
    {
        type            kqRWallFunction;
        value           nonuniform List<scalar> 
166
(
10198.8
9315.52
11062.2
10417.8
11288.4
8656.81
9531.08
6914.8
7777.19
5336.95
6096.39
3886.92
4603.27
2597.18
3210.72
1655.85
2070.38
1191.87
1363.11
1199.29
1137.85
1661.9
1376.42
2529.08
2047.78
3786.79
3107.54
5469.39
4573.1
7412.82
6443.7
9190.34
8324.92
10703.7
9997.36
11673.3
11271.4
11916.9
11893.8
11405.4
11757.6
10168.4
10859.3
8518.25
9373.6
6616.3
7609.45
4498.59
5559.55
2605.51
3477.46
1856.76
1987
2126.03
1988.01
2702.37
2317.23
5218.71
3352.17
15996
9218.63
39688.1
26247.9
59889.2
52879.2
41715.2
55008.9
26278.8
30645.4
23366.8
24837.3
21047.2
22190.8
14255.8
18084.1
7198.65
10427.5
7001.58
5285.63
8107.29
5985.43
12791.1
10187.6
16327.2
15359
20434.7
18260.4
25117.5
22575.7
37189.9
29418.2
60080.8
48610.6
52896.3
61500.4
25624.4
39235
8967.47
15466.6
3380.31
5090.06
2436.39
2777.09
1933.19
2164.11
1744.61
1734.88
2862.14
2120.38
4848.64
3788.33
6919.25
5905.14
8697.59
7847.24
10213.5
9490.1
11306.5
10833.5
11652
11576.1
11147.8
11511.5
9875.75
10590.6
8158.65
9049.3
6228.04
7218.94
4378.82
5254.25
2961.58
3617.68
1945.18
2405.13
1314.65
1580.28
1106.91
1155.11
1343.56
1169.13
2039.69
1634.29
3137.56
2548.71
4475.27
3786.37
5919.35
5183
7570.99
6720.15
8444.79
5613.4
12051.9
12281
2695.84
2783.94
3665.28
3548.63
3497.62
3497.62
3596.71
3596.71
5778.24
11260.8
6233.91
)
;
    }
    outlet
    {
        type            inletOutlet;
        inletValue      uniform 1000;
        value           nonuniform List<scalar> 
33
(
2410.63
4281.59
2610.21
2060.42
2313.73
1330.09
1694.12
815.819
1031.76
569.477
668.28
465.876
505.481
431.848
442.994
427.761
427.518
457.327
435.959
565.649
497.629
836.27
672.625
1405.3
1077.32
2199.22
1800.61
2579.17
2476.46
4415.98
2762.74
12051.9
12281
)
;
    }
    inlet
    {
        type            fixedValue;
        value           uniform 1000;
    }
    frontAndBackPlanes
    {
        type            empty;
    }
}


// ************************************************************************* //
