/*--------------------------------*- C++ -*----------------------------------*\
| =========                 |                                                 |
| \\      /  F ield         | OpenFOAM: The Open Source CFD Toolbox           |
|  \\    /   O peration     | Version:  2212                                  |
|   \\  /    A nd           | Website:  www.openfoam.com                      |
|    \\/     M anipulation  |                                                 |
\*---------------------------------------------------------------------------*/
FoamFile
{
    version     2.0;
    format      ascii;
    arch        "LSB;label=32;scalar=64";
    class       volScalarField;
    location    "0.0339";
    object      p;
}
// * * * * * * * * * * * * * * * * * * * * * * * * * * * * * * * * * * * * * //

dimensions      [1 -1 -2 0 0 0 0];

internalField   nonuniform List<scalar> 
2308
(
623.674
610.182
629.745
618.56
622.901
618.807
613.384
617.86
623.565
610.376
605.176
598.487
597.114
596.703
596.671
597.581
599.502
602.281
600.111
598.585
597.996
598.165
598.872
600.885
605.944
611.824
615.647
618.024
614.922
602.12
619.601
620.451
621.062
621.474
621.762
621.753
621.299
620.24
618.753
617.307
616.233
615.63
615.48
615.757
616.376
616.64
615.881
615.541
615.738
616.42
617.557
618.94
620.166
620.859
620.971
620.795
620.415
619.941
619.233
618.179
616.332
612.992
608.241
603.256
598.045
595.554
594.816
594.669
595.101
596.613
599.094
617.275
617.702
600.531
599.304
598.966
599.176
600.035
602.205
606.911
612.825
616.35
618.735
620.117
620.944
621.613
622.096
622.32
622.118
621.346
620.032
618.536
617.259
616.39
615.949
615.782
615.883
616.256
604.712
616.987
604.999
602.122
618.25
617.169
616.419
616.097
616.318
616.974
617.955
619.001
619.766
620.025
619.825
619.496
619.047
618.382
617.423
615.942
613.488
609.665
605.127
600.139
595.42
593.109
592.463
592.518
593.539
595.683
598.681
617.544
617.485
615.745
616.965
602.993
600.748
599.506
599.297
599.567
600.551
602.785
607.31
612.488
615.805
618.11
619.642
620.711
621.572
622.174
622.298
621.89
620.966
619.655
618.38
617.437
616.889
616.557
616.262
616.088
616.176
616.793
618.498
618.74
619.257
619.938
619.897
620.625
617.322
615.925
605.215
621.973
621.139
607.529
602.092
619.652
618.792
618.712
619.093
619.599
620.162
621.488
619.132
618.22
617.566
617.322
617.417
617.809
618.365
618.847
619.031
618.849
618.437
617.966
617.372
616.484
615.129
613.049
609.994
605.856
601.311
596.739
592.761
590.855
590.366
590.856
592.513
595.255
598.538
608.542
627.95
621.886
616.171
614.159
612.083
609.853
607.482
604.942
602.602
600.667
599.467
599.302
599.607
600.685
602.985
607.054
611.32
614.31
616.693
618.573
620.053
621.156
621.787
621.799
621.274
620.323
619.216
618.302
617.733
617.426
617.121
616.677
616.264
616.147
616.931
618.815
621.217
620.04
620.053
613.437
619.115
631.103
617.605
605.529
609.575
620.974
622.67
620.517
619.92
619.376
619.015
618.813
618.734
618.662
618.45
618.041
617.499
616.896
616.275
615.535
614.422
612.672
610.082
606.589
602.315
597.845
593.716
590.597
589.178
588.959
590.033
592.29
595.387
599.059
602.191
624.205
613.98
614.519
612.75
610.819
608.708
606.473
604.224
602.163
600.495
599.473
599.338
599.68
600.765
602.96
606.37
609.81
612.625
615.162
617.303
619.029
620.268
620.921
620.914
620.378
619.544
618.749
618.23
618.008
617.857
617.536
616.987
616.465
616.315
617.42
619.689
623.104
628.079
626.937
626.133
625.825
625.807
626.314
627.056
627.967
628.828
614.661
620.318
612.458
619.803
623.589
612.49
602.761
605.748
624.141
622
626.382
620.143
613.048
611.441
609.662
607.733
605.716
603.773
602.006
600.602
599.781
599.64
600.028
601.07
603
605.729
608.539
611.242
613.801
616.011
617.793
619.033
619.659
619.689
619.281
618.687
618.227
618.074
618.101
618.105
617.805
617.272
616.804
616.83
618.293
620.896
624.79
629.165
628.37
626.91
624.013
620.942
619.116
618.514
618.479
618.584
618.939
619.247
619.848
629.428
622.221
624.236
622.479
622.124
621.55
620.924
620.278
619.575
618.777
617.887
616.948
616.036
615.211
614.477
613.595
612.266
610.241
607.36
603.709
599.529
595.372
591.761
589.37
588.422
588.684
590.407
593.23
596.716
600.495
625.769
606.33
609.204
611.065
623.822
621.627
619.542
617.592
613.725
614.376
613.319
611.964
610.426
608.754
607.014
605.267
603.649
602.213
601.105
600.481
600.363
600.781
601.736
603.343
605.532
607.918
610.337
612.705
614.765
616.432
617.584
618.156
618.242
618.004
617.706
617.593
617.764
618.051
618.206
617.989
617.573
617.274
617.616
619.374
622.141
625.944
629.967
628.144
631.82
632.908
634.315
636.222
636.715
635.463
634.715
634.997
636.014
636.659
637.251
637.819
637.941
621.111
630.105
624.021
626.152
624.815
624.528
623.797
622.786
621.577
620.199
618.706
617.183
615.754
614.517
613.506
612.619
611.591
610.125
607.94
604.969
601.426
597.577
593.956
591.01
589.343
588.842
589.571
591.812
595.281
599.128
602.891
604.186
625.791
626.957
614.566
607.622
615.605
617.385
619.331
612.4
615.215
612.322
609.797
623.55
621.429
623.614
625.121
623.544
619.819
618.369
616.553
616.14
617.585
617.068
617.604
617.622
615.904
615.542
616.961
637.794
622.96
630.952
626.207
628.208
627.214
626.826
625.839
624.37
622.569
620.552
618.454
616.416
614.595
613.091
611.828
610.729
609.551
607.905
605.721
602.941
599.75
596.454
593.552
591.305
590.225
590.396
591.531
594.222
598.121
602.218
605.921
606.435
623.037
625.633
619.194
630.185
611.17
609.64
608.082
606.546
605.107
603.828
602.768
601.966
601.558
601.529
601.855
602.71
604.019
605.694
607.684
609.761
611.732
613.511
614.94
615.954
616.511
616.723
616.726
616.732
616.928
617.417
617.946
618.268
618.187
617.927
617.829
618.424
620.338
623.143
626.532
630.845
627.154
633.328
620.227
627.559
627.149
623.215
612.974
623.585
610.713
618.835
637.441
625.115
631.877
628.474
630.149
629.384
628.756
627.435
625.515
623.168
620.606
618.062
615.651
613.497
611.638
610.226
608.852
607.385
605.649
603.555
601.107
598.479
595.895
593.715
592.295
592.035
592.5
594.1
597.318
601.404
605.576
609.18
609.278
621.656
625.375
641
633.419
634.958
637.059
646.869
650.557
651.557
650.083
647.521
646.725
647.209
647.731
648.54
649.884
648.974
646.948
623.48
621.311
619.136
617.179
615.436
618.838
619.12
612.338
619.299
610.393
608.978
607.575
606.263
605.106
604.17
603.48
602.979
602.755
602.712
602.957
603.691
604.729
605.984
607.46
609.072
610.621
612.062
613.281
614.197
614.802
615.181
615.448
615.779
616.327
617.126
617.886
618.42
618.526
618.435
618.48
619.155
620.99
623.656
626.494
631.665
625.712
636.661
615.466
645.605
624.115
609.484
614.61
627.628
627.129
627.985
620.471
622.478
619.163
617.359
613.485
612.448
616.915
616.011
618.206
620.911
644.953
620.504
636.609
627.292
632.698
630.501
631.697
631.051
630.093
628.409
626.087
623.321
620.421
617.545
614.857
612.48
610.142
608.551
606.913
605.179
603.342
601.383
599.332
597.317
595.506
594.164
593.569
593.795
594.654
596.765
600.618
604.738
608.751
612.106
614.687
622.205
623.764
626.091
604.855
608.423
617.048
619.232
613.027
601.545
607.304
599.642
601.726
606.551
606.699
607.6
608.034
607.084
603.047
607.147
607.386
604.126
616.933
621.283
619.082
617.159
615.451
614.008
630.854
628.083
610.823
609.643
608.405
607.163
606.039
605.1
604.371
603.927
603.737
603.652
603.652
603.906
604.387
605.13
605.995
607.016
608.087
609.242
610.381
611.438
612.344
613.065
613.654
614.261
615.003
615.89
616.831
617.986
618.771
619.106
619.191
619.28
619.835
621.335
623.641
626.021
631.999
624.259
641.061
609.809
651.769
586.938
623.466
611.839
626.091
624.556
625.871
627.023
612.073
626.99
628.292
628.19
619.278
615.054
631.282
613.691
618.08
620.79
623.941
625.024
616.504
614.461
611.468
607.691
603.536
599.436
596.568
595.079
594.555
594.44
595.002
596.109
597.566
599.24
601.028
602.889
604.795
606.735
608.803
611.231
613.991
616.921
620.036
623.195
626.19
628.777
630.757
632.019
632.653
632.023
633.076
629.286
635.048
623.369
639.958
611.077
624.856
673.219
661.054
678.455
649.593
650.899
647.629
677.678
685.558
689.83
690.715
685.121
675.759
667.475
667.221
667.568
669.003
671.442
665.933
655.077
651.124
622.092
614.389
623.164
621.03
621.634
622.188
622.712
623.183
624.603
625.855
626.88
619.668
624.069
613.97
609.646
612.321
623.019
624.434
625.758
614.383
622.827
620.699
621.412
619.198
617.297
615.751
614.46
612.906
612.998
611.184
610.219
609.118
607.972
606.838
605.82
604.988
604.367
604.127
604.06
604.046
604.065
604.267
604.58
605.054
605.572
606.132
606.803
607.605
608.513
609.474
610.446
611.384
612.271
613.192
614.269
615.517
616.884
618.212
619.362
619.968
620.218
620.249
620.497
621.46
623.197
625.205
631.145
623.432
642.537
605.862
653.258
579.798
670.874
617.568
616.413
615.453
617.12
613.236
613.852
630.762
612.856
622.696
628.725
628.224
627.968
618.828
622.493
621.066
625.93
620.182
618.754
627.792
629.016
611.087
611.325
626.616
625.18
623.56
618.134
616.345
613.671
610.092
605.94
601.695
598.218
596.104
594.968
594.52
594.41
594.906
595.878
597.206
598.808
600.636
602.671
604.909
607.292
609.706
612.91
615.999
619.231
622.546
625.796
628.696
630.972
632.448
633.148
632.994
633.321
630.827
633.894
625.75
636.622
614.493
646.515
614.727
615.968
617.538
619.425
621.478
623.664
630.859
620.717
616.756
621.639
617.666
627.747
625.478
618.991
623.882
610.729
618.058
630.632
620.011
621.488
619.611
622.195
621.681
625.806
571.541
538.752
619.436
562.955
593.165
599.268
580.356
556.604
549.096
540.457
538.996
550.915
564.352
585.199
589.666
580.342
571.302
564.297
564.876
571.108
581.165
591.862
620.077
620.566
620.961
621.315
621.593
621.757
628.624
615.718
621.82
614.822
612.638
618.131
629.397
624.438
628.976
630.91
616.401
626.901
622.48
615.58
612.409
619.117
628.65
612.046
611.44
610.666
609.779
608.76
607.668
606.576
605.581
604.731
604.157
604.05
604.019
604.015
604.035
604.183
604.32
604.552
604.741
604.978
605.318
605.846
606.595
607.536
608.611
609.767
610.976
612.276
613.743
615.374
617.044
618.561
620.167
621.063
621.454
621.341
621.176
621.414
622.47
624.231
629.458
623.121
641.844
603.934
650.182
576.854
668.961
553.162
613.408
614.681
612.523
619.764
626.71
621.536
619.387
612.582
619.057
620.79
620.159
612.721
613.9
614.9
616.191
617.79
619.655
621.693
623.833
625.891
627.856
627.803
617.064
610.84
619.049
612.652
619.86
619.75
619.206
617.785
615.397
611.976
607.796
603.429
599.494
596.826
595.184
594.249
593.823
593.78
594.335
595.365
596.79
598.571
600.678
603.076
605.631
608.308
611.583
614.875
618.195
621.554
624.865
627.927
630.499
632.305
633.247
633.293
633.223
631.634
632.714
627.291
633.772
618.825
641.085
601.243
627.213
625.609
623.781
621.849
630.095
612.487
609.113
608.994
609.08
613.162
610.508
611.771
608.108
613.083
619.09
617.402
620.435
616.809
612.599
613.68
628.582
626.015
628.162
629.154
611.646
619.687
619.342
619.221
618.543
620.068
625.115
622.216
617.008
619.479
616.958
610.714
631.335
631.395
631.218
613.47
613.78
618.12
618.543
618.934
619.27
619.532
619.726
619.838
619.906
619.928
620.618
616.836
627.82
629.093
630.281
613.875
615.25
611.686
611.082
610.333
609.482
608.498
607.42
606.323
605.296
604.365
603.811
603.718
603.662
603.65
603.681
603.74
603.78
603.807
603.747
603.739
603.833
604.136
604.764
605.718
606.931
608.325
609.855
611.513
613.312
615.254
617.305
619.295
620.9
622.274
622.804
622.51
621.908
621.284
621.675
623.121
627.738
622.511
640.894
603.497
642.88
578.153
660.257
570.117
695.348
711.052
714.609
714.583
694.943
738.685
653.385
685.916
685.657
752.065
764.312
754.767
733.111
729.907
724.804
724.928
725.343
720.281
713.28
703.642
702.889
700.038
691.568
676.887
663.93
614.431
624.592
629.354
629.418
617.704
612.879
617.638
618.24
614.681
616.424
613.863
614.99
616.374
618.034
619.907
621.949
624.065
626.1
627.951
629.435
630.995
630.391
630.429
618.622
618.703
612.909
627.422
628.705
608.847
615.98
630.997
617.379
622.729
621.95
618.064
631.34
616.158
609.35
608.112
607.419
607.09
607.107
607.455
608.216
610.244
618.526
611.933
628.945
627.492
625.769
623.831
621.844
619.733
619.606
617.662
612.191
628.609
616.203
616.642
617.037
617.326
617.584
617.798
617.933
618.008
618.047
618.063
618.051
617.648
611.628
630.925
617.839
625.954
615.332
612.416
621.919
612.199
611.514
610.873
610.127
609.28
608.296
607.195
606.058
604.966
603.958
603.37
603.214
603.137
603.121
603.165
603.171
603.152
603.045
602.772
602.532
602.48
602.618
603.164
604.139
605.48
607.092
608.901
610.868
612.987
615.245
617.579
619.851
621.888
623.351
624.138
623.684
622.644
621.323
620.989
621.945
626.181
620.974
639.509
601.414
635.693
582.121
646.381
588.134
674.144
589.501
508.014
467.485
440.688
408.528
320.908
371.729
432.067
480.82
448.521
400.937
394.214
372.623
404.528
476.258
527.686
511.356
511.615
509.653
506.542
517.566
521.571
522.257
522.443
542.799
577.702
619.523
642.452
613.264
633.261
621.312
630.578
627.812
631.45
631.732
632.796
633.106
632.811
631.63
629.631
626.945
623.821
620.474
617.072
613.699
610.143
606.982
604.054
601.345
598.896
596.784
595.076
593.808
593.018
592.804
593.137
593.895
595.217
597.265
600.375
604.642
609.124
613.335
616.616
618.761
619.851
620.14
619.958
619.468
618.816
617.912
611.055
616.105
612.015
612.848
611.602
619.515
609.113
629.44
631.078
617.944
618.887
616.34
619.505
615.315
614.403
626.463
629.381
629.652
631.331
630.456
619.113
621.559
626.193
621.056
624.665
624.987
609.183
618.395
624.971
623.869
620.41
631.048
629.851
629.814
628.085
614.643
617.985
618.62
630.586
629.67
628.225
626.408
624.383
622.262
620.185
618.261
616.548
615.116
613.914
629.682
614.936
617.6
607.971
606.905
606.127
605.595
605.497
605.689
606.285
607.394
613.812
618.937
615.622
616.889
617.79
618.264
618.019
607.536
618.805
624.543
617.239
631.111
616.027
629.024
627.543
625.774
623.743
621.328
619.035
616.912
618.338
611.76
612.712
613.941
615.446
616.428
617.545
618.496
619.215
619.793
620.181
620.08
619.265
617.319
614.151
609.951
605.384
600.94
597.511
595.148
593.55
592.498
592.017
591.99
592.597
593.726
595.341
597.416
599.885
602.648
605.655
608.892
612.549
615.99
619.425
622.794
625.954
628.713
630.844
632.199
632.666
632.372
631.47
630.437
627.515
628.032
621.696
627.758
614.119
630.371
591.828
622.25
627.208
740.358
808.106
796.583
865.101
931.103
953.907
946.094
949.357
933.952
914.593
890.314
890.675
879.578
854.366
840.673
801.475
806
801.18
788.857
776.734
765.596
756.741
743.864
751.407
707.799
741.433
643.934
622.824
609.619
615.061
615.447
615.73
615.934
616.095
616.206
616.261
616.282
616.282
616.265
616.209
615.808
615.306
617.894
616.805
615.737
614.627
612.893
612.073
611.412
610.753
610.008
609.139
608.114
606.958
605.752
604.599
603.564
602.902
602.648
602.55
602.552
602.609
602.594
602.531
602.313
601.929
601.512
601.353
601.379
601.877
602.884
604.339
606.137
608.175
610.385
612.74
615.221
617.8
620.358
622.641
624.282
625.36
624.765
623.358
621.519
620.545
620.842
624.722
619.038
636.519
601.227
629.571
586.603
650.077
590.438
673.515
603.303
761.203
631.134
630.555
626.898
630.044
616.658
616.124
618.248
618.489
630.195
629.221
613.264
629.704
621.748
608.151
607.055
605.999
605.198
604.636
604.432
604.538
605.032
605.988
617.451
603.789
611.973
613.717
615.367
616.602
614.147
630.666
629.835
628.444
626.669
624.672
622.552
620.426
618.436
616.682
615.233
618.528
617.621
616.214
628.694
630.523
630.993
623.482
625.033
610.001
611.191
612.565
613.764
615.1
616.132
617.215
618.154
618.916
619.573
620.029
620.037
619.38
617.525
614.434
610.292
605.666
601.159
597.62
595.077
593.304
592.059
591.449
591.296
591.78
592.809
594.346
596.366
598.795
601.537
604.577
607.973
611.656
615.129
618.586
621.96
625.122
627.905
630.121
631.61
632.233
631.998
631.077
629.671
626.858
626.133
620.791
622.966
611.896
622.232
580.998
631.004
629.949
628.824
627.366
625.714
623.423
620.762
618.303
616.125
614.884
617.977
630.54
628.247
630.7
627.419
617.59
618.652
617.304
616.352
615.158
614.437
623.962
631.244
613.783
613.976
614.145
614.297
614.416
614.494
614.544
614.568
614.572
614.555
614.52
614.433
614.166
613.882
613.398
612.384
10.7686
10.6714
10.3329
11.0686
11.386
12.3344
11.5677
11.5245
10.9601
10.6833
10.1333
9.96979
9.58257
9.00202
8.69076
9.31232
9.42725
9.22629
8.91736
8.71334
8.61164
8.7756
8.68806
8.91963
8.49223
8.82682
8.25946
8.72877
8.2887
10.6519
612.557
611.978
611.358
610.721
609.961
609.051
607.954
606.718
605.433
604.231
603.184
602.43
602.101
601.98
602.004
602.099
602.097
602.03
601.762
601.306
600.788
600.53
600.508
600.982
602.029
603.583
605.52
607.716
610.088
612.588
615.211
617.958
620.702
623.196
625.064
626.195
625.648
623.981
621.818
620.385
620.04
623.876
616.983
633.907
601.133
624.117
590.645
652.507
573.682
660.4
606.337
679.333
11.7077
626.24
630.715
629.292
617.481
618.343
720.335
551.471
609.302
610.911
11.7474
3262.66
3169.42
2829.83
3266.11
2938.35
3174.7
2971.46
3086.01
3010.94
3047.85
3042.17
2989.08
3006.59
2976.72
2980.27
2934.92
2944.19
2955.31
2947.79
2925.79
2885.71
2889.61
2813.78
2990.49
2765.56
2988.94
2645.02
3100.81
2639.49
794.118
14.1476
3091.93
2572.96
677.463
493.229
658.257
559.226
624.088
589.719
633.181
601.158
624.255
615.425
620.457
619.578
624.429
622.102
626.605
626.212
623.562
625.626
618.077
620.962
612.542
615.253
607.501
609.952
603.226
605.228
600.541
601.621
600.096
600.059
600.944
600.405
601.686
601.414
601.7
601.746
601.448
601.545
601.858
601.524
603.785
602.683
606.517
605.112
609.048
607.866
610.785
610.007
612.027
611.43
613.333
612.638
615.274
614.239
618.274
616.61
622.4
620.235
626.7
624.602
629.639
628.491
630.481
630.655
628.53
629.759
625.991
627.065
620.078
623.241
614.456
617.17
611.544
612.537
612.709
612.672
612.537
612.859
612.769
612.918
612.908
612.87
612.904
612.748
612.818
612.583
612.664
612.837
612.531
613.161
613.043
612.304
612.286
612.913
612.175
614.914
614.03
616.924
616.085
615.587
617.376
612.377
614.231
608.546
610.663
605.324
606.685
604.085
604.479
604.454
604.086
605.71
604.986
607.662
606.656
610.084
608.832
612.58
611.303
614.98
613.768
617.017
616.035
618.597
617.862
619.6
619.219
619.075
619.615
614.252
617.206
605.685
610.245
597.647
601.247
593.216
595.05
591.164
591.881
591.39
590.966
593.854
592.365
598.233
595.824
603.964
601.023
611.197
607.524
618.147
614.693
624.65
621.503
629.688
627.434
631.957
631.239
630.808
631.788
626.307
629.371
619.824
625.413
608.959
622.341
627.06
612.334
612.293
627.719
617.854
2623.3
629.163
2437.35
623.542
612.189
612.119
612.097
612.043
612.056
612.023
612.016
615.947
615.326
629.747
629.951
627.308
605.767
610.432
606.673
625.517
624.141
624.965
626.463
624.676
625.678
626.87
624.779
625.93
626.704
624.245
625.562
613.1
618.204
612.106
612.626
613.953
618.92
616.449
612.657
614.562
615.979
617.475
613.561
601.881
631.214
616.899
612.893
611.395
617.638
614.116
620.377
618.819
615.767
615.163
615.965
612.789
613.205
629.218
615.808
614.124
616.527
622.276
612.062
623.269
627.589
613.288
608.932
622.451
616.962
628.426
611.324
612.908
619.408
616.463
619.455
609.301
607.35
622.842
612.463
625.157
620.627
600.182
613.752
611.365
)
;

boundaryField
{
    wall
    {
        type            zeroGradient;
    }
    outlet
    {
        type            fixedValue;
        value           uniform 1e-05;
    }
    inlet
    {
        type            fixedValue;
        value           uniform 612;
    }
    frontAndBackPlanes
    {
        type            empty;
    }
}


// ************************************************************************* //
