/*--------------------------------*- C++ -*----------------------------------*\
| =========                 |                                                 |
| \\      /  F ield         | OpenFOAM: The Open Source CFD Toolbox           |
|  \\    /   O peration     | Version:  2212                                  |
|   \\  /    A nd           | Website:  www.openfoam.com                      |
|    \\/     M anipulation  |                                                 |
\*---------------------------------------------------------------------------*/
FoamFile
{
    version     2.0;
    format      ascii;
    arch        "LSB;label=32;scalar=64";
    class       volScalarField;
    location    "0.85";
    object      p;
}
// * * * * * * * * * * * * * * * * * * * * * * * * * * * * * * * * * * * * * //

dimensions      [1 -1 -2 0 0 0 0];

internalField   nonuniform List<scalar> 
2308
(
555.481
569.065
579.368
574.302
569.277
569.939
565.749
564.436
568.206
552.117
551.56
552.422
554.524
557.267
560.178
562.76
564.611
565.658
564.345
562.17
559.322
556.313
553.69
551.975
551.58
552.37
553.698
554.475
566.402
565.683
554.928
554.741
555.047
556.588
559.869
564.729
570.097
572.712
569.793
561.915
552.495
542.534
533.81
528.792
529.735
526.995
527.951
533.726
543.602
556.084
567.157
572.935
572.837
567.756
562.175
557.903
555.492
554.735
554.815
555.032
554.444
553.412
552.274
551.832
552.509
553.955
556.132
558.857
561.564
563.749
565.146
535.23
530.622
564.537
561.983
558.917
555.925
553.546
552.317
552.265
553.201
554.403
555.06
555.311
555.36
556.208
558.478
562.286
567.054
571.51
571.355
566.474
559.319
551.202
542.5
535.372
532.39
534.977
566.362
543.027
566.169
565.824
528.973
526.305
528.674
537.145
550.016
562.641
571.376
574.482
570.743
565.05
560.332
557.163
555.459
555.07
555.356
555.522
554.902
553.745
552.76
552.683
553.749
555.674
558.23
560.943
563.315
564.989
565.853
562.178
570.632
568.553
569.595
566.543
564.747
561.897
558.739
555.891
553.861
553.044
553.323
554.33
555.37
555.877
556.082
556.538
557.903
560.73
564.735
569.13
571.784
569.897
564.567
558.226
550.633
543.179
539.116
539.035
542.899
550.173
554.251
548.652
541.412
537.055
565.347
533.533
559.442
554.984
566.122
562.747
567.81
566.589
566.117
556.58
555.645
554.891
548.914
542.818
540.084
532.503
529.317
527.809
534.43
545.718
557.492
567.464
573.74
573.219
567.816
563.275
559.61
557.255
555.934
556.098
556.631
556.538
555.644
554.461
553.794
554.136
555.67
558.04
560.816
563.389
565.333
566.415
566.722
567.084
562.988
569.901
562.307
563.689
565.017
566.214
567.142
567.419
566.588
564.62
561.739
558.665
556.058
554.415
553.955
554.461
555.476
556.318
556.693
557.059
557.886
559.742
562.825
566.698
570.712
571.492
568.791
563.954
557.947
551.032
546.633
546.039
547.097
551.876
557.51
556.875
555.865
603.453
560.779
584.444
574.997
568.416
556.774
566.242
566.899
539.768
534.011
531.529
533.774
541.982
553.407
563.305
570.036
573.315
569.842
565.741
562.206
559.504
557.416
557.29
558.161
558.486
557.897
556.711
555.664
555.296
556.176
558.185
560.935
563.78
566.103
567.512
567.977
567.79
566.649
565.051
551.328
560.463
562.283
564.114
565.767
567.016
567.382
566.493
564.431
561.591
558.698
556.384
555.108
554.922
555.527
556.421
557.007
557.261
557.791
558.994
561.216
564.464
568.349
571.314
571.107
568.208
563.879
558.395
553.884
553.298
553.501
556.391
562.129
563.097
559.895
556.813
543.766
540.568
543.299
544.107
542.389
544.024
546.475
547.56
547.867
585.649
595.077
609.339
558.237
556.644
607.704
567.501
566.697
563.281
559.57
561.685
568.511
558.59
560.795
563.055
565.049
566.666
567.15
566.269
564.212
561.503
558.857
556.862
555.885
555.821
556.344
556.968
557.252
557.462
558.124
559.645
562.207
565.541
569.063
571.127
570.605
568.06
564.496
560.408
559.363
559.688
561.684
567.676
571.51
569.983
566.142
561.826
553.864
572.247
562.101
553.905
549.242
546.615
548.421
551.599
553.269
554.479
557.101
560.523
549.118
541.887
538.694
537.016
540.977
549.523
559.443
566.66
570.234
570.345
567.472
564.355
561.806
559.365
558.647
559.871
560.477
560.229
559.172
557.89
557.096
557.229
558.709
561.191
564.188
566.935
568.854
569.675
569.589
569.068
567.339
567.496
567.012
566.458
561.278
557.347
555.772
554.452
548.95
556.88
554.558
556.544
559.11
561.8
564.114
566.046
566.703
565.946
564.039
561.553
559.188
557.458
556.625
556.49
556.752
557.017
557.044
557.284
558.18
560.03
562.803
565.957
569.06
570.689
570.154
568.233
565.674
564.228
564.621
566.258
570.94
579.793
581.966
580.108
576.114
571.255
568.443
583.489
597.93
584.881
571.248
560.928
552.995
548.732
544.864
543.331
543.872
549.447
556.813
564.18
572.15
563.191
552.188
546.377
544.275
543.044
547.728
555.284
562.426
567.257
568.792
568.623
566.337
563.988
561.615
560.335
561.722
562.443
562.505
561.717
560.359
559.191
558.797
559.568
561.64
564.544
567.603
570.055
571.432
571.686
571.137
570.482
568.69
565.577
569.863
600.141
568.646
551.566
552.355
553.752
567.666
564.857
566.638
567.826
559.309
555.569
623.026
624.408
614.693
596.426
574.704
555.839
545.58
540.708
541.405
546.857
554.529
561.882
570.794
580.399
577.122
565.143
556.506
551.431
550.072
549.288
554.022
560.298
565.088
568.033
569.009
568.455
566.413
564.284
562.691
563.948
564.727
564.909
564.344
563.106
561.648
560.701
560.831
562.339
564.938
568.069
570.969
572.925
573.688
573.382
572.582
571.938
570.115
571.496
563.585
572.643
574.138
554.438
557.331
560.372
563.019
565.197
566.134
565.634
564.017
561.827
559.713
558.127
557.236
556.833
556.686
556.569
556.452
556.832
558.04
560.218
563.026
565.906
568.604
570.045
569.837
568.841
567.96
568.158
569.504
573.285
580.956
592.752
594.576
591.785
585.968
580.935
580.368
590.636
599.509
612.544
572.711
568.258
595.955
568.498
557.853
568.967
586.89
578.793
567.638
561.812
557.893
556.974
556.917
561.047
565.839
568.569
569.765
570.278
569.29
567.636
566.393
567.413
568.003
568.024
567.486
566.292
564.672
563.266
562.652
563.484
565.642
568.585
571.652
574.072
575.364
575.464
574.727
573.888
573.353
571.668
571.567
561.652
589.831
578.773
573.944
562.225
555.202
551.386
546.69
545.745
546.857
543.428
540.894
549.94
556.935
568.339
578.507
588.735
573.326
554.084
552.091
550.566
549.526
568.789
571.151
545.211
573.989
552.665
555.639
558.868
561.792
564.185
565.514
565.392
564.192
562.337
560.426
558.842
557.676
556.81
556.197
555.769
555.678
556.34
557.941
560.339
563.049
565.528
567.653
569.128
569.447
569.734
570.182
571.587
574.807
580.775
591.667
604.864
603.631
597.597
591.317
584.781
583.496
586.647
587.852
601.89
589.644
594.477
570.044
569.18
575.733
566.252
571.236
570.118
597.976
604.944
568.737
569.6
573.198
567.762
586.712
572.013
599.844
596.171
590.079
580.523
572.204
568.421
565.935
565.317
565.757
569.06
572.31
573.738
573.968
573.304
572.324
572.316
572.825
572.939
572.545
571.714
570.31
568.543
566.697
565.422
565.482
567.061
569.603
572.547
575.173
576.83
577.302
576.745
575.795
575.035
574.642
574.412
573.267
554.311
557.123
673.993
671.394
643.104
613.549
619.805
639.119
630.532
604.733
586.796
578.626
570.764
576.715
567.281
558.656
567.58
578.246
593.798
613.472
565.846
552.907
550.872
549.311
548.184
547.379
570.825
564.975
549.078
551.257
554.108
557.344
560.465
563.069
564.867
565.249
564.559
563.071
561.287
559.516
557.892
556.484
555.425
554.853
554.974
556.089
558.014
560.538
562.956
564.846
566.329
567.775
568.989
570.174
572.154
575.201
580.074
588.144
602.854
610.754
607.337
602.306
597.11
590.701
585.541
583.551
582.482
599.877
592.85
665.801
575.23
571.586
558.497
579.608
579.426
578.692
570.286
564.221
574.443
569.352
601.55
583.852
571.341
567.592
574.938
572.992
593.783
592.095
575.325
575.634
576.009
576.679
577.676
578.729
579.176
578.547
576.775
574.242
571.602
569.541
568.595
569.287
571.14
573.289
575.283
577.043
578.451
579.543
580.424
580.926
580.654
580.693
580.622
579.952
578.499
576.871
576.281
576.818
578.03
579.99
584.878
592.319
599.417
626.311
592.928
504.975
481.435
480.513
500.651
522.438
504.641
485.152
498.281
539.471
562.243
572.546
527.962
508.323
530.659
535.28
550.07
559.367
567.188
570.044
573.485
574.878
573.063
579.294
601.047
599.211
597.28
595.298
593.394
591.621
589.7
587.82
573.302
593.976
582.579
581.802
583.099
581.543
581.683
581.262
570.781
576.999
601.853
551.934
550.053
548.61
547.523
546.713
546.648
545.543
546.613
547.952
549.974
552.653
555.813
559.05
561.896
564.183
565.227
565.093
563.963
562.186
560.062
557.879
555.952
554.6
554.088
554.592
556.127
558.397
560.787
562.798
563.988
564.819
566.065
568.023
570.411
573.658
578.202
584.914
596.048
611.694
612.939
611.176
608.628
603.854
597.134
589.94
586.433
585.371
606.779
598.816
648.616
550.676
584.259
583.245
581.822
594.188
580.97
571.644
576.393
579.348
595.033
572.777
567.226
577.633
583.388
583.384
582.935
590.343
584.226
599.25
584.996
566.723
579.546
581.374
587.256
589.486
591.587
575.742
576.32
576.824
577.509
578.514
579.824
581.082
581.579
580.97
579.299
577.001
574.709
572.985
572.505
573.89
576.27
578.614
581.006
583.149
585.1
587.015
588.901
590.443
591.237
591.506
591.754
591.66
591.113
590.014
589.566
589.496
590.254
592.294
596.505
602.307
628.056
577.129
546.552
547.321
548.317
549.569
551.145
553.106
564.518
574.268
574.001
580.919
582.134
585.949
591.159
584.957
583.253
566.672
596.702
567.394
563.268
576.281
603.321
598.113
599.982
555.436
628.049
631.741
606.727
628.542
618.445
583.334
582.268
624.539
636.64
609.828
588.344
580.734
604.295
614.775
613.807
601.659
624.668
639.381
664.432
721.45
747.771
736.404
601.82
600.141
598.396
596.661
595.037
593.564
582.153
572.807
578.511
580.126
577.443
571.645
581.416
592.03
570.78
573.935
585.208
580.485
592.791
571.912
610.328
604.633
576.21
545.128
545.288
545.851
546.987
548.791
551.254
554.296
557.615
560.704
563.459
565.29
565.731
564.907
562.999
560.41
557.675
555.361
553.936
553.633
554.57
556.526
559.024
561.252
562.559
563.008
563.253
564.296
566.746
570.18
574.336
580.279
589.016
604.399
616.332
615.489
616.145
614.695
610.414
603.495
596.539
595.576
596.377
605.705
590.223
635.749
582.155
639.964
608.754
588.224
609.526
581.981
588.503
584.561
603.467
571.366
566.682
597.499
575.249
552.144
546.228
546.806
547.505
548.353
549.368
550.665
552.289
554.263
557.995
556.535
571.288
576.777
572.036
545.541
573.858
574.74
575.719
576.632
577.478
578.378
579.481
580.934
582.621
584.069
584.657
584.091
582.534
580.431
578.362
576.797
576.701
578.573
581.314
584.075
586.835
589.492
592.204
595.146
598.279
601.052
603.078
604.657
605.68
605.083
604.014
602.499
601.199
600.952
601.891
604.068
607.247
627.123
584.053
705.652
584.923
587.51
589.967
592.301
576.791
608.716
575.951
577.894
579.9
586.744
583.524
585.177
566.396
545.718
573.34
573.534
579.793
580.533
575.502
572.512
583.775
589.192
559.936
568.7
566.946
592.68
572.32
590.515
588.935
585.282
582.817
590.668
572.401
574.189
571.829
574.685
567.089
569.205
573.752
546.066
545.988
605.178
603.896
602.472
600.972
599.453
597.977
596.622
595.474
594.59
577.476
572.789
579.339
574.389
578.785
592.963
570.599
544.859
544.849
545.23
546.142
547.715
549.952
552.842
556.185
559.513
562.754
565.362
566.395
565.764
563.623
560.556
557.391
554.87
553.516
553.564
554.916
557.23
559.83
561.746
562.357
562.051
561.794
562.718
565.417
569.523
574.512
581.062
591.213
609.849
620.729
619.687
620.65
619.966
617.313
612.138
608.23
608.56
610.499
612.846
613.573
630.902
615.064
666.989
618.271
603.054
583.907
495.622
509.744
451.401
439.507
444.452
442.239
437.04
459.545
547.987
570.773
535.743
357.479
420.27
416.261
442.495
458.642
463.705
464.039
435.789
431.058
446.524
477.675
578.247
590.07
559.068
560.657
585.831
546.043
606.321
605.899
567.075
571.517
546.716
547.334
547.954
548.624
549.419
550.424
551.761
553.471
555.573
558.044
563.674
561.801
560.785
573.674
580.568
573.687
586.447
562.61
566.521
591.906
564.576
587.714
584.511
588.749
573.214
571.353
572.346
584.731
582.656
580.559
578.429
576.382
574.483
572.941
570.624
605.899
547.619
579.816
582.858
585.788
588.577
591.265
593.947
576.036
572.986
611.504
577.772
607.351
606.507
605.482
604.312
603.044
601.753
600.504
599.304
598.24
597.427
596.919
596.676
590.297
576.251
572.272
559.574
567.771
609.297
564.833
545.303
544.756
544.551
544.755
545.442
546.78
548.793
551.504
554.799
558.349
562.123
565.379
566.966
566.409
564.015
560.583
557.166
554.564
553.364
553.776
555.489
558.077
560.677
562.192
562.082
561.159
560.668
561.511
564.173
568.492
573.872
580.951
591.881
611.847
625.831
624.308
625.532
625.18
623.695
621.292
621.171
622.12
624.533
627.618
631.788
639.329
654.254
691.568
656.168
897.971
812.746
773.299
750.981
758.613
778.273
824.106
826.058
816.842
810.359
810.612
887.742
767.527
727.137
691.488
575.815
606.448
728.27
769.463
820.811
848.091
878.278
883.249
854.129
885.662
908.739
921.712
480.344
691.214
580.62
626.499
611.791
613.681
611.97
611.372
611.965
614.062
616.121
617.5
618.264
616.605
613.254
608.676
603.686
599.204
595.468
592.232
589.13
585.965
583.044
581.019
580.761
582.003
583.907
585.855
587.336
587.907
587.364
585.895
584.025
582.21
580.652
579.29
578.011
576.702
575.393
574.165
573.104
572.265
571.521
571.12
586.838
571.242
545.866
569.906
569.996
573.357
569.374
572.53
563.582
573.272
572.918
578.702
578.434
573.243
576.329
587.131
581.34
562.756
568.956
563.478
586.278
587.19
581.963
585.394
588.123
585.034
587.356
573.759
586.387
584.034
586.605
566.325
568.399
565.334
584.177
574.609
578.904
573.315
560.5
557.458
554.931
552.918
551.396
550.303
549.566
549.007
548.516
547.996
547.406
570.885
571.679
571.557
570.237
571.466
573.02
574.869
576.993
579.353
581.863
584.483
570.863
574.981
597.403
600.232
602.728
604.567
567.418
587.341
576.82
584.618
572.836
573.819
570.723
577.601
581.018
584.259
587.383
590.442
593.559
596.613
575.394
550.355
569.201
569.704
570.119
570.457
570.741
571.066
571.619
572.371
573.464
574.894
576.589
578.402
580.226
581.869
583.623
585.377
587.18
588.875
590.129
590.565
590.097
588.89
587.326
585.887
585.14
585.747
587.653
590.381
593.437
596.806
600.949
606.323
613.164
620.528
626.465
628.997
627.907
625.887
623.366
621.362
621.553
621.474
624.991
613.189
637.103
569.613
710.985
429.115
908.074
585.208
580.756
32.0259
30.7308
35.7778
43.9571
111.253
198.352
191.316
191.704
180.136
171.97
169.822
89.3452
32.8071
34.458
61.9237
185.498
224.007
180.045
179.256
167.04
181.294
179.425
189.921
212.176
201.247
215.613
208.774
213.747
590.7
607.406
606.491
605.513
604.415
603.269
602.123
601.035
600.12
599.451
599.029
598.876
598.92
599.206
606.817
607.467
608.082
608.206
546.274
545.447
544.768
544.385
544.413
544.909
546.031
547.829
550.372
553.532
557.368
561.569
565.347
567.361
566.793
564.218
560.599
557.057
554.456
553.5
554.173
556.23
558.995
561.387
562.369
561.728
560.502
559.897
560.684
563.168
567.197
572.556
579.8
591.189
611.154
630.796
630.242
630.848
630.35
630.031
630.338
631.366
634.37
638.653
643.024
649.479
661.089
675.783
700.772
654.105
897.62
35.2259
571.391
565.716
585.072
578.924
573.898
576.815
573.267
572.83
571.789
576.018
547.347
574.463
566.586
568.621
569.291
570.35
571.802
573.592
575.747
578.233
580.993
584.063
605.313
566.509
594.113
597.383
600.704
603.548
548.055
560.509
557.291
554.543
552.552
551.183
550.311
549.764
549.396
549.048
548.619
573.261
577.121
575.191
581.898
568.441
568.697
584.898
583.325
568.299
568.477
568.898
569.417
569.888
570.249
570.469
570.708
571.116
571.774
572.851
574.411
576.395
578.625
580.894
582.949
584.886
586.586
588.123
589.575
590.907
591.978
592.538
592.472
591.904
591.07
590.254
589.992
590.742
592.319
594.487
597.227
601.006
606.511
614.315
623.753
632.256
636.465
635.801
633.267
630.693
628.811
630.299
627.404
637.403
612.792
656.502
541.345
722.714
396.991
899.307
247.425
571.515
575.559
579.425
582.858
586.247
589.669
593.23
596.811
599.727
573.341
576.613
579.193
574.294
583.127
574.418
573.967
607.106
607.834
608.381
608.66
566.687
566.791
607.11
606.238
605.331
604.414
603.451
602.484
601.564
600.759
600.153
599.812
599.652
599.705
600.093
600.889
602.317
606.908
21.877
21.8745
22.3027
23.0897
21.835
22.5591
26.8431
25.9656
24.9616
22.6018
22.7498
23.9875
22.752
19.8902
20.0617
20.6483
25.6278
25.9401
25.2548
25.437
24.3918
23.7378
25.9562
26.6491
21.9132
27.855
28.4878
28.1682
28.894
29.3773
546.479
545.579
544.798
544.299
544.192
544.545
545.475
547.098
549.428
552.62
556.652
561.105
565.303
567.635
567.038
564.354
560.637
557.021
554.48
553.796
554.61
556.829
559.575
561.745
562.34
561.568
560.277
559.498
560.147
562.384
566.091
570.968
577.985
589.209
607.868
633.808
636.928
635.309
634.63
634.501
635.044
637.423
641.717
646.977
653.066
659.641
666.077
679.398
728.344
620.098
874.357
62.7418
22.1813
582.312
571.578
579.727
575.621
573.84
228.466
927.767
571.728
572.817
27.1421
16314.6
16229.5
16258.1
16136.4
16269.5
16120
16318
16033.2
16089
15851.4
15938
15643.4
15761.8
15361.1
15530.9
15183
15218.8
15204.2
15173.2
15444
15384.5
15743
15536
16152.4
15956.6
16444.6
16315.4
16743.5
16688.9
130.888
20.9567
16800.7
16764.1
497.681
991.379
669.006
753.555
663.783
663.46
650.327
657.795
639.479
644.311
636.635
637.092
638.926
637.072
630.501
644.805
586.619
603.867
569.76
576.225
561.995
565.374
559.432
559.936
561.628
560.212
561.899
562.411
557.064
559.775
553.955
554.778
557.223
554.592
564.535
560.935
567.496
567.046
560.63
564.932
552.089
556.138
546.573
548.899
544.315
545.121
544.236
544.052
545.626
544.804
547.497
546.573
548.915
548.316
549.507
549.286
549.994
549.687
551.754
550.611
556.483
553.647
564.324
560.014
574.081
569.03
581.554
578.716
589.299
585.233
598.681
594.003
607.061
605.54
606.079
604.873
605.023
604.799
604.774
605.133
604.908
605.851
605.459
606.697
606.262
607.533
607.124
608.678
608.015
603.497
608.109
609.893
610.98
609.525
610.524
608.296
608.801
606.789
607.553
604.165
605.568
597.418
601.008
589.862
593.732
582.896
586.202
577.107
579.843
572.627
574.681
569.653
570.954
568.19
568.752
567.953
567.89
568.771
568.268
569.868
569.367
570.379
570.219
570.864
570.54
572.493
571.46
576.13
574.054
581.178
578.591
585.521
583.509
588.514
587.148
590.986
589.75
593.43
592.249
594.616
594.294
593.975
594.432
593.809
593.578
596.297
594.749
601.828
598.504
615.004
607.045
634.687
625.043
640.669
640.308
634.033
636.999
633.736
631.466
637.976
628.207
649.336
612.667
737.227
579.092
396.57
608.468
610.46
581.401
572.426
16308.6
577.796
17075.3
595.885
611.298
611.632
611.725
611.898
611.88
611.963
611.967
570.528
589.946
577.632
575.265
581.222
567.285
566.683
566.981
568.802
571.056
570.153
571.307
573.124
572.449
574.025
575.307
574.922
576.802
577.375
577.342
589.421
574.577
611.103
548.885
602.193
574.458
584.811
588.371
553.43
553.476
571.69
567.225
565.638
565.855
570.814
566.801
568.964
606.278
570.039
602.538
572.477
558.882
595.088
566.934
605.112
566.982
565.72
570.017
568.442
563.89
561.6
610.548
596.527
561.285
546.984
568.285
587.351
607.027
583.807
578.529
609.24
572.59
574.44
574.366
574.326
566.36
596.093
545.261
560.122
571.7
551.911
553.251
571.749
)
;

boundaryField
{
    wall
    {
        type            zeroGradient;
    }
    outlet
    {
        type            fixedValue;
        value           uniform 1e-06;
    }
    inlet
    {
        type            fixedValue;
        value           uniform 612;
    }
    frontAndBackPlanes
    {
        type            empty;
    }
}


// ************************************************************************* //
