/*--------------------------------*- C++ -*----------------------------------*\
| =========                 |                                                 |
| \\      /  F ield         | OpenFOAM: The Open Source CFD Toolbox           |
|  \\    /   O peration     | Version:  2212                                  |
|   \\  /    A nd           | Website:  www.openfoam.com                      |
|    \\/     M anipulation  |                                                 |
\*---------------------------------------------------------------------------*/
FoamFile
{
    version     2.0;
    format      ascii;
    arch        "LSB;label=32;scalar=64";
    class       volScalarField;
    location    "0.109";
    object      k;
}
// * * * * * * * * * * * * * * * * * * * * * * * * * * * * * * * * * * * * * //

dimensions      [0 2 -2 0 0 0 0];

internalField   nonuniform List<scalar> 
24240
(
7.63574e-06
1.46451e-05
1.88296e-05
1.88591e-05
1.88589e-05
1.88591e-05
1.88592e-05
1.88594e-05
1.88594e-05
1.88594e-05
1.88593e-05
1.88592e-05
1.88589e-05
1.88586e-05
1.88582e-05
1.88577e-05
1.88577e-05
1.88278e-05
1.46431e-05
7.62703e-06
1.36484e-10
8.27575e-09
4.89688e-08
5.92065e-08
5.30746e-08
5.30675e-08
5.30592e-08
5.30499e-08
5.30397e-08
5.30289e-08
5.30176e-08
5.3006e-08
5.29943e-08
5.29829e-08
5.29718e-08
5.29613e-08
5.90602e-08
4.88315e-08
8.23748e-09
1.38305e-10
1.01897e-14
1.26809e-13
6.26053e-13
9.4461e-09
7.72378e-09
7.7227e-09
7.72149e-09
7.72012e-09
7.71863e-09
7.71704e-09
7.71538e-09
7.71369e-09
7.71198e-09
7.71031e-09
7.70868e-09
7.70719e-09
9.42283e-09
6.25024e-13
1.26534e-13
1.01787e-14
1.00019e-15
1.03596e-15
2.35783e-15
2.36706e-10
2.37695e-10
2.37696e-10
2.37698e-10
2.377e-10
2.37702e-10
2.37705e-10
2.37708e-10
2.37711e-10
2.37714e-10
2.37718e-10
2.37722e-10
2.37726e-10
2.36741e-10
2.3596e-15
1.0359e-15
1.00019e-15
1e-15
1.00003e-15
1.64711e-15
2.67939e-10
2.70499e-10
2.70505e-10
2.70512e-10
2.7052e-10
2.70529e-10
2.70538e-10
2.70547e-10
2.70557e-10
2.70567e-10
2.70576e-10
2.70586e-10
2.70596e-10
2.68049e-10
1.66038e-15
1.00003e-15
1e-15
1e-15
1e-15
1.07214e-15
3.20371e-11
3.23823e-11
3.23824e-11
3.23825e-11
3.23827e-11
3.23828e-11
3.2383e-11
3.23832e-11
3.23835e-11
3.23838e-11
3.23841e-11
3.23843e-11
3.23846e-11
3.20396e-11
1.07195e-15
1e-15
1e-15
1e-15
1e-15
1.22527e-15
9.74475e-11
9.89392e-11
9.89385e-11
9.89377e-11
9.89369e-11
9.89361e-11
9.89356e-11
9.89353e-11
9.89352e-11
9.89352e-11
9.89354e-11
9.89357e-11
9.89362e-11
9.74443e-11
1.22546e-15
1e-15
1e-15
1e-15
1e-15
1.00947e-15
5.07689e-12
5.15583e-12
5.15585e-12
5.15587e-12
5.1559e-12
5.15593e-12
5.15598e-12
5.15603e-12
5.15608e-12
5.15614e-12
5.1562e-12
5.15625e-12
5.15629e-12
5.07737e-12
1.00943e-15
1e-15
1e-15
1e-15
1e-15
1.02427e-15
1.44868e-11
1.47851e-11
1.47863e-11
1.47877e-11
1.47892e-11
1.47908e-11
1.47924e-11
1.47941e-11
1.47957e-11
1.47972e-11
1.47986e-11
1.47998e-11
1.48008e-11
1.45039e-11
1.02394e-15
1e-15
1e-15
1e-15
1e-15
1.00101e-15
7.16488e-13
7.29445e-13
7.29286e-13
7.2911e-13
7.28924e-13
7.28734e-13
7.28548e-13
7.28368e-13
7.28202e-13
7.28049e-13
7.27914e-13
7.27795e-13
7.27695e-13
7.14553e-13
1.00098e-15
1e-15
1e-15
1e-15
1e-15
1.00003e-15
2.88088e-14
2.91946e-14
2.91792e-14
2.91622e-14
2.91442e-14
2.91258e-14
2.91077e-14
2.90902e-14
2.90739e-14
2.9059e-14
2.90458e-14
2.90343e-14
2.90247e-14
2.86205e-14
1.00003e-15
1e-15
1e-15
1e-15
1e-15
1.00866e-15
5.37306e-12
5.44407e-12
5.44297e-12
5.44175e-12
5.44046e-12
5.43914e-12
5.43784e-12
5.43658e-12
5.43543e-12
5.43438e-12
5.4335e-12
5.43277e-12
5.43223e-12
5.36009e-12
1.00827e-15
1e-15
1e-15
1e-15
1e-15
1.00053e-15
2.91483e-13
2.94852e-13
2.94818e-13
2.9478e-13
2.94741e-13
2.94701e-13
2.94663e-13
2.94628e-13
2.94597e-13
2.94571e-13
2.94552e-13
2.94538e-13
2.94533e-13
2.91139e-13
1.0005e-15
1e-15
1e-15
1e-15
1e-15
1.22886e-15
9.74991e-11
9.83633e-11
9.83612e-11
9.83591e-11
9.83573e-11
9.83557e-11
9.83546e-11
9.8354e-11
9.83543e-11
9.83554e-11
9.83575e-11
9.83606e-11
9.83648e-11
9.75036e-11
1.2171e-15
1e-15
1e-15
1e-15
1e-15
1.03656e-15
1.54757e-11
1.55907e-11
1.55905e-11
1.55902e-11
1.55901e-11
1.55899e-11
1.55899e-11
1.55901e-11
1.55903e-11
1.55908e-11
1.55914e-11
1.55922e-11
1.55931e-11
1.5479e-11
1.03366e-15
1e-15
1e-15
1e-15
1.00001e-15
5.48592e-15
1.66887e-09
1.67751e-09
1.6775e-09
1.67748e-09
1.67747e-09
1.67745e-09
1.67745e-09
1.67744e-09
1.67745e-09
1.67747e-09
1.67749e-09
1.67752e-09
1.67756e-09
1.66894e-09
5.22437e-15
1.00001e-15
1e-15
1.00029e-15
1.01375e-15
1.43838e-13
1.47563e-09
1.47877e-09
1.47574e-09
1.47573e-09
1.47572e-09
1.47571e-09
1.4757e-09
1.47824e-09
1.47589e-09
1.47591e-09
1.47593e-09
1.47597e-09
1.47901e-09
1.47586e-09
1.42658e-13
1.01364e-15
1.00029e-15
6.74594e-14
2.39203e-13
2.29865e-08
3.34329e-08
2.77583e-08
2.69236e-08
2.69185e-08
2.69127e-08
2.69062e-08
2.68992e-08
2.97803e-08
2.68877e-08
2.68797e-08
2.68716e-08
2.68638e-08
2.76867e-08
3.33264e-08
2.29007e-08
2.34545e-13
6.73694e-14
2.20694e-10
7.7732e-09
1.76433e-07
2.15839e-07
1.94212e-07
1.94054e-07
1.94018e-07
1.93976e-07
1.9393e-07
1.9388e-07
1.94423e-07
1.93777e-07
1.9372e-07
1.93663e-07
1.93607e-07
1.93682e-07
2.15157e-07
1.75803e-07
7.72615e-09
2.20378e-10
4.85712e-05
8.0553e-05
0.000101446
0.000101645
0.000101639
0.000101635
0.00010163
0.000101625
0.000101619
0.000101613
0.000101606
0.000101599
0.000101592
0.000101584
0.000101577
0.00010157
0.000101567
0.000101361
8.04811e-05
4.85035e-05
1.14611e-05
2.07297e-05
2.59472e-05
2.59197e-05
2.59202e-05
2.59208e-05
2.59216e-05
2.59223e-05
2.59229e-05
2.59234e-05
2.59238e-05
2.59241e-05
2.59242e-05
2.59242e-05
2.59241e-05
2.59239e-05
2.59238e-05
2.59513e-05
2.07274e-05
1.14555e-05
1.42473e-09
1.09979e-08
6.16613e-08
7.41187e-08
6.6362e-08
6.63542e-08
6.63451e-08
6.6335e-08
6.63239e-08
6.6312e-08
6.62997e-08
6.62871e-08
6.62744e-08
6.62619e-08
6.62498e-08
6.62383e-08
7.39584e-08
6.15147e-08
1.09585e-08
1.44492e-09
1.24177e-14
3.38537e-13
1.32556e-12
1.23957e-08
1.00931e-08
1.00919e-08
1.00906e-08
1.00891e-08
1.00874e-08
1.00857e-08
1.00839e-08
1.0082e-08
1.00801e-08
1.00783e-08
1.00765e-08
1.00748e-08
1.23699e-08
1.32491e-12
3.3815e-13
1.24223e-14
1.00108e-15
1.14864e-15
6.23675e-15
1.61441e-09
1.62252e-09
1.62252e-09
1.62253e-09
1.62254e-09
1.62255e-09
1.62257e-09
1.62258e-09
1.6226e-09
1.62262e-09
1.62264e-09
1.62267e-09
1.62269e-09
1.61461e-09
6.11002e-15
1.14852e-15
1.00109e-15
1e-15
1.00016e-15
4.71316e-15
1.77131e-09
1.78816e-09
1.78819e-09
1.78822e-09
1.78826e-09
1.7883e-09
1.78834e-09
1.78838e-09
1.78843e-09
1.78847e-09
1.78852e-09
1.78857e-09
1.78861e-09
1.77182e-09
4.81049e-15
1.00016e-15
1e-15
1e-15
1e-15
1.48654e-15
2.51984e-10
2.54667e-10
2.54666e-10
2.54665e-10
2.54665e-10
2.54664e-10
2.54664e-10
2.54663e-10
2.54664e-10
2.54664e-10
2.54665e-10
2.54665e-10
2.54666e-10
2.51983e-10
1.4836e-15
1e-15
1e-15
1e-15
1e-15
2.25891e-15
6.40768e-10
6.50284e-10
6.50268e-10
6.5025e-10
6.5023e-10
6.5021e-10
6.50192e-10
6.50176e-10
6.50161e-10
6.50148e-10
6.50138e-10
6.50129e-10
6.50123e-10
6.40592e-10
2.26261e-15
1e-15
1e-15
1e-15
1e-15
1.06864e-15
4.39653e-11
4.46339e-11
4.46343e-11
4.46348e-11
4.46353e-11
4.46359e-11
4.46366e-11
4.46373e-11
4.46381e-11
4.46388e-11
4.46395e-11
4.46401e-11
4.46406e-11
4.39724e-11
1.06775e-15
1e-15
1e-15
1e-15
1e-15
1.14714e-15
1.12427e-10
1.14627e-10
1.14629e-10
1.1463e-10
1.14632e-10
1.14634e-10
1.14636e-10
1.14639e-10
1.14641e-10
1.14643e-10
1.14645e-10
1.14646e-10
1.14647e-10
1.12446e-10
1.14404e-15
1e-15
1e-15
1e-15
1e-15
1.00799e-15
7.95715e-12
8.09136e-12
8.08833e-12
8.08496e-12
8.08137e-12
8.07767e-12
8.074e-12
8.07042e-12
8.06705e-12
8.06393e-12
8.06112e-12
8.05863e-12
8.0565e-12
7.91864e-12
1.00767e-15
1e-15
1e-15
1e-15
1e-15
1.00038e-15
4.94041e-13
5.0055e-13
5.00238e-13
4.9989e-13
4.99519e-13
4.99137e-13
4.98755e-13
4.98382e-13
4.98029e-13
4.97701e-13
4.97404e-13
4.97141e-13
4.96916e-13
4.9001e-13
1.00035e-15
1e-15
1e-15
1e-15
1e-15
1.06688e-15
5.10098e-11
5.16695e-11
5.16575e-11
5.16441e-11
5.163e-11
5.16155e-11
5.16011e-11
5.15872e-11
5.15743e-11
5.15626e-11
5.15525e-11
5.1544e-11
5.15375e-11
5.08648e-11
1.06334e-15
1e-15
1e-15
1e-15
1e-15
1.00436e-15
2.98631e-12
3.01868e-12
3.01828e-12
3.01784e-12
3.01737e-12
3.0169e-12
3.01645e-12
3.01603e-12
3.01565e-12
3.01532e-12
3.01506e-12
3.01487e-12
3.01475e-12
2.98204e-12
1.00402e-15
1e-15
1e-15
1e-15
1e-15
2.287e-15
6.41278e-10
6.46946e-10
6.46933e-10
6.4692e-10
6.46908e-10
6.46898e-10
6.4689e-10
6.46886e-10
6.46887e-10
6.46893e-10
6.46904e-10
6.46922e-10
6.46945e-10
6.41293e-10
2.2168e-15
1e-15
1e-15
1e-15
1e-15
1.25108e-15
1.26432e-10
1.27336e-10
1.27333e-10
1.27329e-10
1.27327e-10
1.27324e-10
1.27323e-10
1.27322e-10
1.27323e-10
1.27325e-10
1.27329e-10
1.27334e-10
1.2734e-10
1.26441e-10
1.22873e-15
1e-15
1e-15
1e-15
1.00003e-15
2.2502e-14
9.13598e-09
9.18379e-09
9.18373e-09
9.18366e-09
9.18361e-09
9.18357e-09
9.18355e-09
9.18356e-09
9.18362e-09
9.18371e-09
9.18385e-09
9.18403e-09
9.18423e-09
9.13658e-09
2.12246e-14
1.00003e-15
1e-15
1.00032e-15
1.01866e-15
2.0525e-13
8.72905e-09
8.74476e-09
8.72734e-09
8.72725e-09
8.72717e-09
8.72711e-09
8.72708e-09
8.74178e-09
8.72785e-09
8.72796e-09
8.72811e-09
8.72832e-09
8.74581e-09
8.73008e-09
2.02235e-13
1.01853e-15
1.00032e-15
8.47809e-14
3.02621e-13
3.09147e-08
4.59692e-08
4.01933e-08
3.74636e-08
3.74578e-08
3.74512e-08
3.74438e-08
3.74358e-08
4.1589e-08
3.74187e-08
3.74096e-08
3.74006e-08
3.73918e-08
4.01094e-08
4.58453e-08
3.08184e-08
2.96723e-13
8.46774e-14
2.86591e-10
1.07328e-08
2.25867e-07
2.76208e-07
2.48388e-07
2.48102e-07
2.48061e-07
2.48015e-07
2.47963e-07
2.47907e-07
2.48389e-07
2.47791e-07
2.47728e-07
2.47664e-07
2.47602e-07
2.47795e-07
2.75445e-07
2.25164e-07
1.06775e-08
2.86231e-10
8.23167e-05
0.000119931
0.000144555
0.000144528
0.000144524
0.000144523
0.000144521
0.000144518
0.000144515
0.000144512
0.000144507
0.000144503
0.000144498
0.000144493
0.000144488
0.000144482
0.00014448
0.000144503
0.000119881
8.22255e-05
1.33192e-05
2.35758e-05
2.85236e-05
2.84742e-05
2.8475e-05
2.84758e-05
2.84768e-05
2.84777e-05
2.84787e-05
2.84795e-05
2.84803e-05
2.84809e-05
2.84814e-05
2.84818e-05
2.84821e-05
2.84822e-05
2.84822e-05
2.8532e-05
2.35829e-05
1.33231e-05
1.45274e-08
1.48728e-08
6.25854e-08
7.34715e-08
6.6093e-08
6.6088e-08
6.60822e-08
6.60758e-08
6.60687e-08
6.60611e-08
6.60532e-08
6.60452e-08
6.60371e-08
6.60291e-08
6.60213e-08
6.60139e-08
7.33677e-08
6.24785e-08
1.48408e-08
1.46367e-08
2.52457e-14
1.08211e-12
4.17021e-12
1.08769e-08
8.80322e-09
8.80252e-09
8.80174e-09
8.80087e-09
8.79992e-09
8.79892e-09
8.79787e-09
8.7968e-09
8.79573e-09
8.79467e-09
8.79364e-09
8.7927e-09
1.08617e-08
4.16918e-12
1.08144e-12
2.54656e-14
1.00686e-15
1.66673e-15
1.7026e-14
8.08956e-09
8.13689e-09
8.13683e-09
8.13677e-09
8.13672e-09
8.13667e-09
8.13663e-09
8.1366e-09
8.13659e-09
8.13659e-09
8.1366e-09
8.13663e-09
8.13667e-09
8.08934e-09
1.66663e-14
1.66634e-15
1.00688e-15
1e-15
1.00089e-15
1.49971e-14
8.66775e-09
8.7497e-09
8.74971e-09
8.74973e-09
8.74976e-09
8.74979e-09
8.74983e-09
8.74989e-09
8.74995e-09
8.75003e-09
8.75011e-09
8.75021e-09
8.75032e-09
8.66848e-09
1.53942e-14
1.00089e-15
1e-15
1e-15
1e-15
3.23988e-15
1.52766e-09
1.5437e-09
1.54367e-09
1.54365e-09
1.54363e-09
1.5436e-09
1.54358e-09
1.54356e-09
1.54354e-09
1.54353e-09
1.54351e-09
1.5435e-09
1.5435e-09
1.52745e-09
3.21853e-15
1e-15
1e-15
1e-15
1e-15
5.4954e-15
3.05516e-09
3.09858e-09
3.09852e-09
3.09846e-09
3.09839e-09
3.09832e-09
3.09825e-09
3.09819e-09
3.09814e-09
3.09809e-09
3.09805e-09
3.09802e-09
3.09799e-09
3.05451e-09
5.50301e-15
1e-15
1e-15
1e-15
1e-15
1.31828e-15
2.90765e-10
2.95032e-10
2.95027e-10
2.95021e-10
2.95015e-10
2.95009e-10
2.95003e-10
2.94998e-10
2.94993e-10
2.94988e-10
2.94984e-10
2.9498e-10
2.94977e-10
2.90703e-10
1.31095e-15
1e-15
1e-15
1e-15
1e-15
1.49678e-15
4.49631e-10
4.57368e-10
4.57355e-10
4.57342e-10
4.57328e-10
4.57313e-10
4.57299e-10
4.57286e-10
4.57274e-10
4.57263e-10
4.57253e-10
4.57243e-10
4.57235e-10
4.49482e-10
1.48412e-15
1e-15
1e-15
1e-15
1e-15
1.04437e-15
6.40109e-11
6.50157e-11
6.50044e-11
6.49918e-11
6.49785e-11
6.49647e-11
6.4951e-11
6.49377e-11
6.49252e-11
6.49135e-11
6.49031e-11
6.48938e-11
6.48858e-11
6.38669e-11
1.04193e-15
1e-15
1e-15
1e-15
1e-15
1.004e-15
7.6698e-12
7.76924e-12
7.76498e-12
7.76021e-12
7.75512e-12
7.74985e-12
7.74458e-12
7.73941e-12
7.7345e-12
7.72992e-12
7.72577e-12
7.72208e-12
7.71892e-12
7.61401e-12
1.00364e-15
1e-15
1e-15
1e-15
1e-15
1.33733e-15
3.508e-10
3.55225e-10
3.55189e-10
3.55149e-10
3.55107e-10
3.55064e-10
3.55021e-10
3.5498e-10
3.54943e-10
3.54909e-10
3.5488e-10
3.54857e-10
3.5484e-10
3.50379e-10
1.31932e-15
1e-15
1e-15
1e-15
1e-15
1.03228e-15
3.0423e-11
3.07314e-11
3.07269e-11
3.07218e-11
3.07166e-11
3.07112e-11
3.07061e-11
3.07011e-11
3.06967e-11
3.06928e-11
3.06896e-11
3.06872e-11
3.06855e-11
3.0373e-11
1.02962e-15
1e-15
1e-15
1e-15
1e-15
5.69555e-15
3.18888e-09
3.21688e-09
3.2168e-09
3.21671e-09
3.21662e-09
3.21653e-09
3.21646e-09
3.2164e-09
3.21636e-09
3.21635e-09
3.21636e-09
3.2164e-09
3.21647e-09
3.18848e-09
5.44788e-15
1e-15
1e-15
1e-15
1e-15
2.32725e-15
8.99091e-10
9.05313e-10
9.05277e-10
9.05238e-10
9.05201e-10
9.05165e-10
9.05134e-10
9.05109e-10
9.05093e-10
9.05087e-10
9.05091e-10
9.05105e-10
9.05129e-10
8.98909e-10
2.20421e-15
1e-15
1e-15
1e-15
1.00007e-15
6.45764e-14
3.5616e-08
3.58119e-08
3.58116e-08
3.58112e-08
3.58109e-08
3.58106e-08
3.58104e-08
3.58102e-08
3.58103e-08
3.58105e-08
3.58108e-08
3.58113e-08
3.58119e-08
3.56163e-08
6.09636e-14
1.00007e-15
1e-15
1.00032e-15
1.02124e-15
2.40054e-13
3.57922e-08
3.59399e-08
3.59283e-08
3.59281e-08
3.59278e-08
3.59276e-08
3.59275e-08
3.59358e-08
3.59278e-08
3.5928e-08
3.59284e-08
3.59289e-08
3.59407e-08
3.57932e-08
2.3348e-13
1.02111e-15
1.00032e-15
8.64162e-14
3.06477e-13
3.09657e-08
4.54141e-08
4.11536e-08
3.7038e-08
3.70335e-08
3.70283e-08
3.70226e-08
3.70164e-08
4.11951e-08
3.70012e-08
3.69943e-08
3.69873e-08
3.69806e-08
4.10759e-08
4.53163e-08
3.08835e-08
3.00969e-13
8.63372e-14
3.12601e-10
1.24919e-08
2.26628e-07
2.75699e-07
2.47445e-07
2.47112e-07
2.4708e-07
2.47043e-07
2.47002e-07
2.46957e-07
2.47273e-07
2.46865e-07
2.46815e-07
2.46766e-07
2.46717e-07
2.46976e-07
2.7509e-07
2.26064e-07
1.24418e-08
3.12298e-10
9.38642e-05
0.000122741
0.000146465
0.000146402
0.0001464
0.0001464
0.000146399
0.000146397
0.000146395
0.000146393
0.00014639
0.000146388
0.000146384
0.000146381
0.000146378
0.000146374
0.000146373
0.000146432
0.000122709
9.38203e-05
5.84365e-07
4.72578e-06
6.82047e-06
6.83591e-06
6.83628e-06
6.83671e-06
6.83719e-06
6.83769e-06
6.83819e-06
6.83869e-06
6.83915e-06
6.83957e-06
6.83995e-06
6.84028e-06
6.84054e-06
6.84074e-06
6.84087e-06
6.82578e-06
4.73008e-06
5.84214e-07
7.42402e-08
8.78073e-09
3.10488e-08
3.62346e-08
3.15965e-08
3.15968e-08
3.15971e-08
3.15975e-08
3.15981e-08
3.15986e-08
3.15993e-08
3.15999e-08
3.16006e-08
3.16013e-08
3.1602e-08
3.16026e-08
3.62406e-08
3.10546e-08
8.77952e-09
7.4342e-08
1.12722e-13
3.54677e-12
1.34596e-11
6.87826e-09
5.47305e-09
5.4728e-09
5.47255e-09
5.47226e-09
5.47196e-09
5.47164e-09
5.47131e-09
5.47098e-09
5.47065e-09
5.47032e-09
5.47001e-09
5.46973e-09
6.87353e-09
1.3456e-11
3.54513e-12
1.21215e-13
1.03756e-15
3.8755e-15
3.60771e-14
1.4655e-08
1.47652e-08
1.4765e-08
1.47648e-08
1.47646e-08
1.47644e-08
1.47642e-08
1.4764e-08
1.47638e-08
1.47636e-08
1.47634e-08
1.47633e-08
1.47632e-08
1.46528e-08
3.56363e-14
3.87409e-15
1.03781e-15
1.00003e-15
1.00443e-15
2.95764e-14
1.63689e-08
1.6529e-08
1.65288e-08
1.65285e-08
1.65283e-08
1.6528e-08
1.65278e-08
1.65275e-08
1.65273e-08
1.65271e-08
1.65269e-08
1.65267e-08
1.65266e-08
1.63664e-08
3.06424e-14
1.00443e-15
1.00003e-15
1e-15
1.00001e-15
6.98228e-15
3.96687e-09
4.0084e-09
4.00832e-09
4.00823e-09
4.00814e-09
4.00804e-09
4.00794e-09
4.00784e-09
4.00775e-09
4.00766e-09
4.00757e-09
4.0075e-09
4.00745e-09
3.96581e-09
6.95313e-15
1.00001e-15
1e-15
1e-15
1.00001e-15
9.06702e-15
5.38629e-09
5.45704e-09
5.45693e-09
5.45681e-09
5.45667e-09
5.45653e-09
5.4564e-09
5.45626e-09
5.45613e-09
5.45601e-09
5.45589e-09
5.4558e-09
5.45572e-09
5.38484e-09
9.1304e-15
1.00001e-15
1e-15
1e-15
1e-15
1.71537e-15
6.44814e-10
6.53424e-10
6.5341e-10
6.53393e-10
6.53375e-10
6.53357e-10
6.53338e-10
6.5332e-10
6.53303e-10
6.53286e-10
6.53272e-10
6.53258e-10
6.53246e-10
6.44614e-10
1.70334e-15
1e-15
1e-15
1e-15
1e-15
1.80805e-15
7.3505e-10
7.45423e-10
7.45398e-10
7.45368e-10
7.45337e-10
7.45304e-10
7.45272e-10
7.4524e-10
7.45209e-10
7.4518e-10
7.45154e-10
7.45128e-10
7.45105e-10
7.34692e-10
1.79131e-15
1e-15
1e-15
1e-15
1e-15
1.10786e-15
1.51362e-10
1.53391e-10
1.5337e-10
1.53348e-10
1.53323e-10
1.53298e-10
1.53272e-10
1.53247e-10
1.53222e-10
1.532e-10
1.53179e-10
1.5316e-10
1.53143e-10
1.51086e-10
1.10256e-15
1e-15
1e-15
1e-15
1e-15
1.02233e-15
3.97741e-11
4.02554e-11
4.02449e-11
4.0233e-11
4.02203e-11
4.02069e-11
4.01935e-11
4.01802e-11
4.01674e-11
4.01554e-11
4.01442e-11
4.01342e-11
4.01253e-11
3.96294e-11
1.02054e-15
1e-15
1e-15
1e-15
1e-15
1.82946e-15
8.49411e-10
8.59433e-10
8.59378e-10
8.59315e-10
8.59249e-10
8.59179e-10
8.59111e-10
8.59044e-10
8.58982e-10
8.58924e-10
8.58875e-10
8.58834e-10
8.58802e-10
8.48718e-10
1.7958e-15
1e-15
1e-15
1e-15
1e-15
1.18923e-15
2.16043e-10
2.18149e-10
2.18133e-10
2.18115e-10
2.18097e-10
2.18077e-10
2.18059e-10
2.18041e-10
2.18025e-10
2.18011e-10
2.18e-10
2.17991e-10
2.17986e-10
2.15866e-10
1.17409e-15
1e-15
1e-15
1e-15
1.00001e-15
1.05574e-14
6.72002e-09
6.78057e-09
6.78044e-09
6.7803e-09
6.78017e-09
6.78003e-09
6.7799e-09
6.7798e-09
6.77971e-09
6.77966e-09
6.77964e-09
6.77966e-09
6.77972e-09
6.71916e-09
1.02231e-14
1.00001e-15
1e-15
1e-15
1e-15
5.8244e-15
3.37293e-09
3.39696e-09
3.3969e-09
3.39685e-09
3.39679e-09
3.39674e-09
3.3967e-09
3.39667e-09
3.39666e-09
3.39667e-09
3.39669e-09
3.39674e-09
3.39681e-09
3.37281e-09
5.42197e-15
1e-15
1e-15
1e-15
1.0001e-15
9.27922e-14
4.84106e-08
4.87203e-08
4.872e-08
4.87198e-08
4.87195e-08
4.87193e-08
4.87191e-08
4.8719e-08
4.8719e-08
4.87192e-08
4.87194e-08
4.87198e-08
4.87202e-08
4.84109e-08
8.93953e-14
1.0001e-15
1e-15
1.00003e-15
1.02196e-15
2.42592e-13
4.73627e-08
4.76256e-08
4.76457e-08
4.76457e-08
4.76457e-08
4.76457e-08
4.76457e-08
4.76296e-08
4.76444e-08
4.76447e-08
4.7645e-08
4.76453e-08
4.76257e-08
4.73633e-08
2.35286e-13
1.02186e-15
1.00003e-15
1.43418e-14
2.19954e-13
2.58298e-08
3.53929e-08
3.46254e-08
2.85898e-08
2.85878e-08
2.85856e-08
2.85832e-08
2.85806e-08
3.20131e-08
2.85724e-08
2.85694e-08
2.85666e-08
2.85639e-08
3.45862e-08
3.535e-08
2.58055e-08
2.17612e-13
1.43373e-14
4.51767e-11
1.30556e-08
1.63401e-07
1.971e-07
1.74628e-07
1.74158e-07
1.74152e-07
1.74145e-07
1.74137e-07
1.7413e-07
1.74322e-07
1.74115e-07
1.74107e-07
1.74099e-07
1.74092e-07
1.74549e-07
1.96988e-07
1.63295e-07
1.30169e-08
4.51652e-11
2.77174e-05
5.65229e-05
7.15343e-05
7.16459e-05
7.1645e-05
7.16452e-05
7.16452e-05
7.16451e-05
7.16449e-05
7.16446e-05
7.1644e-05
7.16436e-05
7.16429e-05
7.16421e-05
7.16412e-05
7.16403e-05
7.16403e-05
7.15279e-05
5.65156e-05
2.77031e-05
4.39384e-07
6.20021e-06
8.34866e-06
8.34256e-06
8.34296e-06
8.34339e-06
8.34387e-06
8.34439e-06
8.34492e-06
8.34545e-06
8.34596e-06
8.34645e-06
8.34689e-06
8.3473e-06
8.34765e-06
8.34794e-06
8.34812e-06
8.35466e-06
6.20532e-06
4.40545e-07
6.79975e-08
1.07522e-08
3.53917e-08
4.09096e-08
3.6438e-08
3.64371e-08
3.64362e-08
3.64352e-08
3.64341e-08
3.64329e-08
3.64317e-08
3.64305e-08
3.64292e-08
3.6428e-08
3.64268e-08
3.64256e-08
4.08927e-08
3.5376e-08
1.07496e-08
6.7935e-08
2.55365e-12
1.07502e-11
3.98665e-11
6.12763e-09
4.84135e-09
4.84118e-09
4.84101e-09
4.84083e-09
4.84064e-09
4.84045e-09
4.84024e-09
4.84004e-09
4.83985e-09
4.83966e-09
4.83947e-09
4.83932e-09
6.1246e-09
3.98541e-11
1.0746e-11
2.82311e-12
1.20606e-15
1.23182e-14
7.53033e-14
1.97253e-08
1.99029e-08
1.99027e-08
1.99025e-08
1.99022e-08
1.9902e-08
1.99017e-08
1.99015e-08
1.99012e-08
1.9901e-08
1.99008e-08
1.99007e-08
1.99007e-08
1.97229e-08
7.50995e-14
1.23133e-14
1.21899e-15
1.00017e-15
1.01658e-15
3.54871e-14
2.05657e-08
2.07743e-08
2.07741e-08
2.07738e-08
2.07735e-08
2.07732e-08
2.07729e-08
2.07726e-08
2.07723e-08
2.07721e-08
2.07719e-08
2.07717e-08
2.07717e-08
2.0563e-08
3.70954e-14
1.01658e-15
1.00017e-15
1e-15
1.00004e-15
9.11306e-15
5.75272e-09
5.8131e-09
5.81301e-09
5.81291e-09
5.81279e-09
5.81267e-09
5.81255e-09
5.81243e-09
5.81231e-09
5.81219e-09
5.8121e-09
5.81204e-09
5.81202e-09
5.7516e-09
9.19151e-15
1.00004e-15
1e-15
1e-15
1.00001e-15
1.06949e-14
6.72027e-09
6.8014e-09
6.8013e-09
6.80118e-09
6.80106e-09
6.80092e-09
6.80077e-09
6.80062e-09
6.80048e-09
6.80035e-09
6.80023e-09
6.80014e-09
6.80008e-09
6.71886e-09
1.08599e-14
1.00001e-15
1e-15
1e-15
1e-15
2.04728e-15
9.97596e-10
1.00974e-09
1.00972e-09
1.0097e-09
1.00967e-09
1.00964e-09
1.00962e-09
1.00959e-09
1.00956e-09
1.00954e-09
1.00951e-09
1.00949e-09
1.00947e-09
9.9729e-10
2.0405e-15
1e-15
1e-15
1e-15
1e-15
2.16188e-15
1.07785e-09
1.09143e-09
1.0914e-09
1.09137e-09
1.09133e-09
1.09129e-09
1.09125e-09
1.09121e-09
1.09117e-09
1.09113e-09
1.09109e-09
1.09105e-09
1.09101e-09
1.07736e-09
2.14538e-15
1e-15
1e-15
1e-15
1e-15
1.22774e-15
3.1095e-10
3.14734e-10
3.14706e-10
3.14675e-10
3.14641e-10
3.14606e-10
3.14569e-10
3.14533e-10
3.14497e-10
3.14462e-10
3.14429e-10
3.14397e-10
3.14367e-10
3.10536e-10
1.21869e-15
1e-15
1e-15
1e-15
1e-15
1.07933e-15
1.30448e-10
1.31932e-10
1.31914e-10
1.31892e-10
1.31869e-10
1.31844e-10
1.31818e-10
1.31793e-10
1.31768e-10
1.31744e-10
1.3172e-10
1.31698e-10
1.31678e-10
1.30162e-10
1.07392e-15
1e-15
1e-15
1e-15
1e-15
2.60653e-15
1.61474e-09
1.63275e-09
1.63269e-09
1.63262e-09
1.63255e-09
1.63248e-09
1.6324e-09
1.63232e-09
1.63225e-09
1.63218e-09
1.63212e-09
1.63206e-09
1.632e-09
1.61392e-09
2.56624e-15
1e-15
1e-15
1e-15
1e-15
1.67183e-15
7.60855e-10
7.68142e-10
7.68122e-10
7.68098e-10
7.68073e-10
7.68047e-10
7.68021e-10
7.67995e-10
7.67972e-10
7.67951e-10
7.67933e-10
7.67919e-10
7.67908e-10
7.606e-10
1.62464e-15
1e-15
1e-15
1e-15
1.00001e-15
1.6168e-14
1.09624e-08
1.10621e-08
1.1062e-08
1.10619e-08
1.10618e-08
1.10617e-08
1.10616e-08
1.10615e-08
1.10615e-08
1.10614e-08
1.10614e-08
1.10614e-08
1.10614e-08
1.09617e-08
1.58842e-14
1.00001e-15
1e-15
1e-15
1.00001e-15
1.24139e-14
8.33971e-09
8.40149e-09
8.40147e-09
8.40144e-09
8.40141e-09
8.40139e-09
8.40137e-09
8.40137e-09
8.40138e-09
8.40141e-09
8.40146e-09
8.40152e-09
8.4016e-09
8.33988e-09
1.1545e-14
1.00001e-15
1e-15
1e-15
1.00012e-15
1.06969e-13
5.88295e-08
5.92582e-08
5.92579e-08
5.92578e-08
5.92577e-08
5.92576e-08
5.92575e-08
5.92577e-08
5.92575e-08
5.92575e-08
5.92575e-08
5.92576e-08
5.92579e-08
5.88293e-08
1.05386e-13
1.00012e-15
1e-15
1.00011e-15
1.02197e-15
2.42368e-13
6.16112e-08
6.19897e-08
6.20164e-08
6.20163e-08
6.20163e-08
6.20162e-08
6.20162e-08
6.19955e-08
6.20159e-08
6.2016e-08
6.20162e-08
6.20164e-08
6.19899e-08
6.16116e-08
2.33685e-13
1.0219e-15
1.00011e-15
3.29645e-14
2.19498e-13
2.20132e-08
3.28368e-08
3.0091e-08
2.66351e-08
2.66337e-08
2.66321e-08
2.66304e-08
2.66285e-08
2.96713e-08
2.66228e-08
2.66206e-08
2.66186e-08
2.66166e-08
3.00695e-08
3.28057e-08
2.19896e-08
2.17945e-13
3.29484e-14
1.08288e-10
1.33617e-08
1.56094e-07
1.87784e-07
1.67772e-07
1.67709e-07
1.67699e-07
1.67688e-07
1.67676e-07
1.67663e-07
1.67739e-07
1.67637e-07
1.67623e-07
1.67608e-07
1.67594e-07
1.67636e-07
1.87607e-07
1.55926e-07
1.33323e-08
1.08232e-10
3.83374e-05
6.29461e-05
7.76783e-05
7.76956e-05
7.76954e-05
7.76958e-05
7.76962e-05
7.76965e-05
7.76968e-05
7.76971e-05
7.76972e-05
7.76974e-05
7.76974e-05
7.76974e-05
7.76974e-05
7.76972e-05
7.76975e-05
7.76799e-05
6.29458e-05
3.83324e-05
3.48797e-07
3.51296e-06
5.08184e-06
5.08753e-06
5.08785e-06
5.08813e-06
5.08844e-06
5.08879e-06
5.08916e-06
5.08953e-06
5.08991e-06
5.09027e-06
5.09063e-06
5.09096e-06
5.09127e-06
5.09154e-06
5.0917e-06
5.0864e-06
3.51686e-06
3.48728e-07
3.64804e-10
1.03735e-08
3.54155e-08
4.16811e-08
3.6306e-08
3.63054e-08
3.63048e-08
3.63042e-08
3.63035e-08
3.63028e-08
3.63021e-08
3.63014e-08
3.63007e-08
3.63001e-08
3.62995e-08
3.62989e-08
4.16709e-08
3.5406e-08
1.03705e-08
3.58122e-10
3.81497e-13
1.59903e-11
5.86051e-11
6.1839e-09
4.87939e-09
4.87924e-09
4.87912e-09
4.87899e-09
4.87886e-09
4.87872e-09
4.87858e-09
4.87845e-09
4.87832e-09
4.8782e-09
4.87807e-09
4.87799e-09
6.18151e-09
5.85886e-11
1.59839e-11
3.77341e-13
1.40185e-15
2.42143e-14
1.18987e-13
1.96914e-08
1.98665e-08
1.98663e-08
1.98661e-08
1.98659e-08
1.98657e-08
1.98655e-08
1.98653e-08
1.98651e-08
1.98649e-08
1.98647e-08
1.98647e-08
1.98647e-08
1.96896e-08
1.19192e-13
2.42039e-14
1.4017e-15
1.00048e-15
1.03766e-15
3.63583e-14
2.09118e-08
2.11283e-08
2.11281e-08
2.11279e-08
2.11276e-08
2.11274e-08
2.11271e-08
2.11268e-08
2.11266e-08
2.11264e-08
2.11262e-08
2.11261e-08
2.11262e-08
2.09098e-08
3.81269e-14
1.03765e-15
1.00048e-15
1e-15
1.00007e-15
9.90202e-15
6.41597e-09
6.48408e-09
6.484e-09
6.48391e-09
6.48381e-09
6.4837e-09
6.48359e-09
6.48347e-09
6.48335e-09
6.48325e-09
6.48318e-09
6.48314e-09
6.48317e-09
6.41511e-09
1.00685e-14
1.00007e-15
1e-15
1e-15
1.00001e-15
1.13464e-14
7.25087e-09
7.33609e-09
7.336e-09
7.33589e-09
7.33578e-09
7.33565e-09
7.33551e-09
7.33537e-09
7.33523e-09
7.3351e-09
7.33499e-09
7.33491e-09
7.33487e-09
7.24959e-09
1.15866e-14
1.00001e-15
1e-15
1e-15
1e-15
2.28228e-15
1.24257e-09
1.25717e-09
1.25715e-09
1.25713e-09
1.2571e-09
1.25707e-09
1.25704e-09
1.25701e-09
1.25698e-09
1.25695e-09
1.25692e-09
1.25689e-09
1.25686e-09
1.24222e-09
2.28528e-15
1e-15
1e-15
1e-15
1e-15
2.44488e-15
1.35227e-09
1.36815e-09
1.36812e-09
1.36808e-09
1.36803e-09
1.36798e-09
1.36793e-09
1.36788e-09
1.36782e-09
1.36776e-09
1.3677e-09
1.36764e-09
1.36756e-09
1.35157e-09
2.43879e-15
1e-15
1e-15
1e-15
1e-15
1.38492e-15
5.05201e-10
5.10997e-10
5.10965e-10
5.10927e-10
5.10885e-10
5.1084e-10
5.10792e-10
5.10743e-10
5.10692e-10
5.10641e-10
5.10587e-10
5.10533e-10
5.10475e-10
5.04599e-10
1.37433e-15
1e-15
1e-15
1e-15
1e-15
1.18105e-15
2.73432e-10
2.7642e-10
2.76394e-10
2.76364e-10
2.7633e-10
2.76294e-10
2.76256e-10
2.76216e-10
2.76176e-10
2.76135e-10
2.76093e-10
2.76052e-10
2.76009e-10
2.72964e-10
1.17218e-15
1e-15
1e-15
1e-15
1e-15
3.44413e-15
2.38697e-09
2.4128e-09
2.41274e-09
2.41267e-09
2.41259e-09
2.4125e-09
2.41241e-09
2.41232e-09
2.41222e-09
2.41212e-09
2.41201e-09
2.4119e-09
2.41179e-09
2.38582e-09
3.43183e-15
1e-15
1e-15
1e-15
1e-15
2.38789e-15
1.47807e-09
1.49225e-09
1.49222e-09
1.49219e-09
1.49216e-09
1.49212e-09
1.49208e-09
1.49204e-09
1.492e-09
1.49195e-09
1.49191e-09
1.49187e-09
1.49182e-09
1.47759e-09
2.32059e-15
1e-15
1e-15
1e-15
1.00002e-15
1.95692e-14
1.33493e-08
1.34736e-08
1.34735e-08
1.34734e-08
1.34733e-08
1.34731e-08
1.3473e-08
1.34728e-08
1.34727e-08
1.34725e-08
1.34723e-08
1.34722e-08
1.3472e-08
1.33474e-08
1.97501e-14
1.00002e-15
1e-15
1e-15
1.00001e-15
1.66889e-14
1.12282e-08
1.13154e-08
1.13154e-08
1.13153e-08
1.13152e-08
1.13151e-08
1.1315e-08
1.13149e-08
1.13148e-08
1.13147e-08
1.13146e-08
1.13145e-08
1.13144e-08
1.1227e-08
1.58408e-14
1.00001e-15
1e-15
1e-15
1.00012e-15
1.07857e-13
5.88302e-08
5.92767e-08
5.92766e-08
5.92765e-08
5.92764e-08
5.92762e-08
5.92761e-08
5.9276e-08
5.92759e-08
5.92758e-08
5.92757e-08
5.92755e-08
5.92755e-08
5.88289e-08
1.08742e-13
1.00012e-15
1e-15
1.00007e-15
1.02113e-15
2.23347e-13
5.94828e-08
5.98873e-08
5.98993e-08
5.98992e-08
5.98992e-08
5.98992e-08
5.98992e-08
5.98903e-08
5.9899e-08
5.9899e-08
5.9899e-08
5.9899e-08
5.9887e-08
5.94824e-08
2.18138e-13
1.0211e-15
1.00007e-15
2.08668e-14
1.89716e-13
2.04664e-08
2.82898e-08
2.65181e-08
2.26948e-08
2.26941e-08
2.26933e-08
2.26925e-08
2.26916e-08
2.54054e-08
2.26872e-08
2.26861e-08
2.26852e-08
2.26844e-08
2.65021e-08
2.82734e-08
2.04547e-08
1.90083e-13
2.08652e-14
6.76593e-11
1.32688e-08
1.38298e-07
1.66247e-07
1.4791e-07
1.47787e-07
1.47783e-07
1.47778e-07
1.47773e-07
1.47768e-07
1.47841e-07
1.47758e-07
1.47753e-07
1.47748e-07
1.47743e-07
1.47858e-07
1.66177e-07
1.3823e-07
1.32525e-08
6.76527e-11
2.24013e-05
4.11793e-05
5.21411e-05
5.22019e-05
5.22022e-05
5.22027e-05
5.22034e-05
5.2204e-05
5.22047e-05
5.22055e-05
5.22062e-05
5.2207e-05
5.22078e-05
5.22086e-05
5.22093e-05
5.22099e-05
5.22106e-05
5.21504e-05
4.11867e-05
2.24064e-05
3.41948e-07
3.44187e-06
4.92443e-06
4.92596e-06
4.92621e-06
4.92644e-06
4.9267e-06
4.92699e-06
4.9273e-06
4.92762e-06
4.92794e-06
4.92826e-06
4.92858e-06
4.92888e-06
4.92917e-06
4.92943e-06
4.9296e-06
4.92843e-06
3.44535e-06
3.41944e-07
6.47074e-10
1.20717e-08
3.90977e-08
4.68578e-08
3.98762e-08
3.98757e-08
3.98753e-08
3.98748e-08
3.98744e-08
3.9874e-08
3.98735e-08
3.98731e-08
3.98728e-08
3.98724e-08
3.9872e-08
3.98717e-08
4.68513e-08
3.9092e-08
1.20707e-08
6.47128e-10
6.88571e-13
2.17644e-11
7.80233e-11
6.74964e-09
5.12391e-09
5.12375e-09
5.12367e-09
5.12359e-09
5.1235e-09
5.12341e-09
5.12332e-09
5.12324e-09
5.12316e-09
5.12308e-09
5.123e-09
5.123e-09
6.74789e-09
7.80096e-11
2.17589e-11
6.88628e-13
1.76246e-15
3.68643e-14
1.63123e-13
1.97928e-08
1.99668e-08
1.99667e-08
1.99665e-08
1.99664e-08
1.99662e-08
1.99661e-08
1.99659e-08
1.99657e-08
1.99656e-08
1.99655e-08
1.99655e-08
1.99655e-08
1.97916e-08
1.63599e-13
3.68528e-14
1.7625e-15
1.00094e-15
1.06107e-15
3.6381e-14
2.09117e-08
2.11312e-08
2.1131e-08
2.11309e-08
2.11307e-08
2.11305e-08
2.11302e-08
2.113e-08
2.11298e-08
2.11297e-08
2.11296e-08
2.11295e-08
2.11296e-08
2.09104e-08
3.82635e-14
1.06106e-15
1.00094e-15
1e-15
1.00012e-15
1.02853e-14
6.81417e-09
6.88764e-09
6.88761e-09
6.88756e-09
6.8875e-09
6.88744e-09
6.88737e-09
6.88729e-09
6.88722e-09
6.88716e-09
6.88713e-09
6.88714e-09
6.8872e-09
6.81384e-09
1.05084e-14
1.00012e-15
1e-15
1e-15
1.00001e-15
1.17031e-14
7.61599e-09
7.7043e-09
7.70424e-09
7.70415e-09
7.70407e-09
7.70396e-09
7.70384e-09
7.70371e-09
7.7036e-09
7.70349e-09
7.70341e-09
7.70335e-09
7.70334e-09
7.61504e-09
1.20157e-14
1.00001e-15
1e-15
1e-15
1e-15
2.52978e-15
1.50486e-09
1.52223e-09
1.5222e-09
1.52218e-09
1.52215e-09
1.52212e-09
1.52208e-09
1.52205e-09
1.52201e-09
1.52197e-09
1.52194e-09
1.5219e-09
1.52186e-09
1.50444e-09
2.54484e-15
1e-15
1e-15
1e-15
1e-15
2.7684e-15
1.66109e-09
1.6799e-09
1.67985e-09
1.6798e-09
1.67973e-09