/*--------------------------------*- C++ -*----------------------------------*\
| =========                 |                                                 |
| \\      /  F ield         | OpenFOAM: The Open Source CFD Toolbox           |
|  \\    /   O peration     | Version:  2212                                  |
|   \\  /    A nd           | Website:  www.openfoam.com                      |
|    \\/     M anipulation  |                                                 |
\*---------------------------------------------------------------------------*/
FoamFile
{
    version     2.0;
    format      ascii;
    arch        "LSB;label=32;scalar=64";
    class       volVectorField;
    location    "0.109";
    object      U_0;
}
// * * * * * * * * * * * * * * * * * * * * * * * * * * * * * * * * * * * * * //

dimensions      [0 1 -1 0 0 0 0];

internalField   nonuniform List<vector> 
24240
(
(9.3435 0.619208 1.07671e-06)
(9.34358 0.619214 -2.91735e-08)
(9.34358 0.619213 5.69658e-07)
(9.34358 0.619212 4.51601e-07)
(9.34358 0.619211 6.13989e-07)
(9.34357 0.619209 6.17128e-07)
(9.34357 0.619207 6.35021e-07)
(9.34357 0.619206 5.89634e-07)
(9.34357 0.619204 5.25152e-07)
(9.34356 0.619202 4.31812e-07)
(9.34356 0.619201 3.24326e-07)
(9.34356 0.619199 2.13323e-07)
(9.34356 0.619198 1.08381e-07)
(9.34356 0.619197 1.22929e-08)
(9.34355 0.619196 -5.3614e-08)
(9.34355 0.619195 -1.43743e-07)
(9.34355 0.619194 -1.02434e-07)
(9.34355 0.619194 -3.49052e-07)
(9.34355 0.619194 1.40188e-07)
(9.34347 0.619187 -1.06635e-06)
(9.10722 0.620233 -3.04693e-07)
(9.10729 0.620239 -6.74282e-07)
(9.10729 0.620239 -9.95633e-07)
(9.1073 0.620239 -1.40825e-06)
(9.1073 0.62024 -1.67859e-06)
(9.1073 0.62024 -1.94009e-06)
(9.1073 0.62024 -2.11316e-06)
(9.1073 0.62024 -2.23687e-06)
(9.1073 0.62024 -2.29187e-06)
(9.10731 0.62024 -2.29135e-06)
(9.10731 0.62024 -2.23498e-06)
(9.10731 0.62024 -2.1299e-06)
(9.10731 0.62024 -1.98245e-06)
(9.10731 0.62024 -1.80052e-06)
(9.10731 0.62024 -1.5862e-06)
(9.10731 0.62024 -1.36965e-06)
(9.10731 0.62024 -1.09622e-06)
(9.10732 0.62024 -8.88919e-07)
(9.10732 0.62024 -5.24412e-07)
(9.10724 0.620234 -1.33784e-07)
(9.14215 0.323443 -5.97628e-08)
(9.14223 0.323447 2.63331e-07)
(9.14223 0.323447 5.68022e-07)
(9.14223 0.323447 6.91943e-07)
(9.14223 0.323446 8.35793e-07)
(9.14222 0.323446 8.73979e-07)
(9.14222 0.323446 8.75528e-07)
(9.14222 0.323446 8.13549e-07)
(9.14222 0.323446 7.13811e-07)
(9.14222 0.323446 5.82471e-07)
(9.14222 0.323445 4.35407e-07)
(9.14222 0.323445 2.87002e-07)
(9.14221 0.323445 1.47925e-07)
(9.14221 0.323445 3.0061e-08)
(9.14221 0.323445 -5.77289e-08)
(9.14221 0.323445 -1.24595e-07)
(9.14221 0.323445 -1.29767e-07)
(9.14221 0.323445 -1.60206e-07)
(9.14221 0.323445 -4.83871e-08)
(9.14213 0.323441 8.68855e-08)
(8.94298 0.320554 -2.43343e-07)
(8.94306 0.320557 -7.26014e-07)
(8.94306 0.320557 -1.13956e-06)
(8.94306 0.320556 -1.54975e-06)
(8.94306 0.320556 -1.87004e-06)
(8.94307 0.320555 -2.13952e-06)
(8.94307 0.320555 -2.32663e-06)
(8.94307 0.320554 -2.44696e-06)
(8.94307 0.320554 -2.49359e-06)
(8.94308 0.320553 -2.47481e-06)
(8.94308 0.320553 -2.39462e-06)
(8.94308 0.320552 -2.26029e-06)
(8.94308 0.320552 -2.08036e-06)
(8.94308 0.320551 -1.86334e-06)
(8.94309 0.320551 -1.61601e-06)
(8.94309 0.320551 -1.35352e-06)
(8.94309 0.32055 -1.06487e-06)
(8.94309 0.32055 -7.85512e-07)
(8.94309 0.32055 -4.76859e-07)
(8.94301 0.320547 -1.91819e-07)
(8.96488 0.167641 -5.72398e-08)
(8.96496 0.167643 2.17888e-08)
(8.96496 0.167643 8.46023e-08)
(8.96496 0.167643 8.94294e-08)
(8.96496 0.167643 8.69162e-08)
(8.96496 0.167643 4.48084e-08)
(8.96496 0.167643 -1.54791e-08)
(8.96496 0.167644 -9.84507e-08)
(8.96496 0.167644 -1.91769e-07)
(8.96496 0.167644 -2.88757e-07)
(8.96496 0.167644 -3.78572e-07)
(8.96496 0.167645 -4.52087e-07)
(8.96496 0.167645 -5.03814e-07)
(8.96496 0.167645 -5.25106e-07)
(8.96496 0.167645 -5.14662e-07)
(8.96496 0.167645 -4.70365e-07)
(8.96496 0.167645 -3.91547e-07)
(8.96496 0.167645 -2.90939e-07)
(8.96496 0.167646 -1.61117e-07)
(8.96488 0.167644 -2.15883e-08)
(8.83841 0.162315 -1.89778e-07)
(8.83848 0.162317 -5.63775e-07)
(8.83848 0.162317 -8.95262e-07)
(8.83849 0.162316 -1.2145e-06)
(8.83849 0.162316 -1.4739e-06)
(8.83849 0.162316 -1.69285e-06)
(8.83849 0.162315 -1.85301e-06)
(8.83849 0.162315 -1.96083e-06)
(8.83849 0.162314 -2.0114e-06)
(8.83849 0.162314 -2.00815e-06)
(8.8385 0.162313 -1.95313e-06)
(8.8385 0.162313 -1.85071e-06)
(8.8385 0.162312 -1.70702e-06)
(8.8385 0.162312 -1.52805e-06)
(8.8385 0.162312 -1.31897e-06)
(8.8385 0.162311 -1.09107e-06)
(8.8385 0.162311 -8.39854e-07)
(8.8385 0.162311 -5.92504e-07)
(8.83851 0.162311 -3.44267e-07)
(8.83843 0.162309 -1.31077e-07)
(8.85215 0.0731661 -9.90668e-08)
(8.85222 0.0731669 -2.07278e-07)
(8.85222 0.0731669 -3.10418e-07)
(8.85222 0.0731669 -4.32912e-07)
(8.85223 0.0731669 -5.47469e-07)
(8.85223 0.0731669 -6.6266e-07)
(8.85223 0.0731669 -7.7018e-07)
(8.85223 0.0731669 -8.69306e-07)
(8.85223 0.0731669 -9.54691e-07)
(8.85223 0.0731668 -1.02263e-06)
(8.85223 0.0731668 -1.06938e-06)
(8.85223 0.0731668 -1.08908e-06)
(8.85223 0.0731667 -1.07948e-06)
(8.85223 0.0731666 -1.0369e-06)
(8.85223 0.0731666 -9.59983e-07)
(8.85223 0.0731665 -8.49061e-07)
(8.85223 0.0731664 -7.03599e-07)
(8.85223 0.0731663 -5.31604e-07)
(8.85223 0.0731662 -3.27252e-07)
(8.85216 0.0731652 -1.02068e-07)
(8.79084 0.0650901 -1.77859e-07)
(8.79092 0.0650906 -5.4347e-07)
(8.79092 0.0650903 -8.78686e-07)
(8.79092 0.0650899 -1.19725e-06)
(8.79092 0.0650892 -1.46266e-06)
(8.79092 0.0650885 -1.68444e-06)
(8.79093 0.0650877 -1.85088e-06)
(8.79093 0.0650869 -1.96536e-06)
(8.79093 0.065086 -2.0261e-06)
(8.79093 0.0650852 -2.03485e-06)
(8.79093 0.0650843 -1.99516e-06)
(8.79094 0.0650835 -1.90956e-06)
(8.79094 0.0650827 -1.78243e-06)
(8.79094 0.065082 -1.62002e-06)
(8.79094 0.0650813 -1.42571e-06)
(8.79094 0.0650807 -1.21298e-06)
(8.79094 0.0650802 -9.76047e-07)
(8.79094 0.0650798 -7.40264e-07)
(8.79094 0.0650794 -4.74914e-07)
(8.79087 0.0650785 -1.80563e-07)
(8.8032 0.00325902 -2.23703e-07)
(8.80327 0.00325911 -6.00002e-07)
(8.80327 0.00325916 -9.69182e-07)
(8.80327 0.00325924 -1.32232e-06)
(8.80327 0.00325934 -1.63348e-06)
(8.80328 0.00325946 -1.90035e-06)
(8.80328 0.00325958 -2.11683e-06)
(8.80328 0.00325971 -2.2811e-06)
(8.80328 0.00325983 -2.39283e-06)
(8.80328 0.00325994 -2.451e-06)
(8.80328 0.00326003 -2.45728e-06)
(8.80329 0.00326009 -2.41254e-06)
(8.80329 0.00326013 -2.31701e-06)
(8.80329 0.00326014 -2.17479e-06)
(8.80329 0.00326013 -1.98528e-06)
(8.80329 0.00326009 -1.7585e-06)
(8.80329 0.00326004 -1.48186e-06)
(8.80329 0.00325998 -1.16895e-06)
(8.80329 0.00325992 -7.72709e-07)
(8.80322 0.00325985 -2.59085e-07)
(8.79517 -0.0127539 -1.59803e-07)
(8.79525 -0.0127543 -4.79956e-07)
(8.79525 -0.0127546 -7.77104e-07)
(8.79525 -0.012755 -1.05861e-06)
(8.79525 -0.0127555 -1.30125e-06)
(8.79525 -0.0127562 -1.50626e-06)
(8.79525 -0.0127568 -1.66828e-06)
(8.79525 -0.0127576 -1.7882e-06)
(8.79525 -0.0127583 -1.86677e-06)
(8.79526 -0.012759 -1.90414e-06)
(8.79526 -0.0127597 -1.90233e-06)
(8.79526 -0.0127603 -1.86053e-06)
(8.79526 -0.0127609 -1.77823e-06)
(8.79526 -0.0127614 -1.65927e-06)
(8.79526 -0.0127619 -1.50053e-06)
(8.79526 -0.0127622 -1.31789e-06)
(8.79526 -0.0127625 -1.09544e-06)
(8.79526 -0.0127628 -8.64425e-07)
(8.79526 -0.0127629 -5.58492e-07)
(8.79519 -0.0127628 -1.913e-07)
(8.80906 -0.0655686 -3.21108e-07)
(8.80914 -0.0655693 -9.66662e-07)
(8.80914 -0.0655693 -1.56942e-06)
(8.80914 -0.0655692 -2.12273e-06)
(8.80914 -0.0655691 -2.59529e-06)
(8.80914 -0.0655689 -2.98253e-06)
(8.80914 -0.0655688 -3.27652e-06)
(8.80914 -0.0655687 -3.47785e-06)
(8.80914 -0.0655686 -3.58939e-06)
(8.80915 -0.0655686 -3.6151e-06)
(8.80915 -0.0655685 -3.56136e-06)
(8.80915 -0.0655685 -3.43471e-06)
(8.80915 -0.0655686 -3.23972e-06)
(8.80915 -0.0655686 -2.98663e-06)
(8.80915 -0.0655687 -2.67751e-06)
(8.80915 -0.0655688 -2.33326e-06)
(8.80915 -0.0655689 -1.93577e-06)
(8.80916 -0.0655689 -1.50964e-06)
(8.80916 -0.065569 -9.67587e-07)
(8.80908 -0.0655682 -3.29811e-07)
(8.85443 -0.0826339 -1.66206e-07)
(8.85451 -0.082635 -4.20785e-07)
(8.85451 -0.0826351 -6.64919e-07)
(8.85451 -0.0826352 -9.07012e-07)
(8.85451 -0.0826353 -1.13166e-06)
(8.85451 -0.0826355 -1.33511e-06)
(8.8545 -0.0826356 -1.51358e-06)
(8.8545 -0.0826358 -1.6647e-06)
(8.8545 -0.082636 -1.78679e-06)
(8.8545 -0.0826362 -1.87576e-06)
(8.8545 -0.0826364 -1.92806e-06)
(8.8545 -0.0826366 -1.93802e-06)
(8.8545 -0.0826367 -1.899e-06)
(8.8545 -0.0826368 -1.81097e-06)
(8.8545 -0.082637 -1.66495e-06)
(8.8545 -0.082637 -1.48059e-06)
(8.8545 -0.0826371 -1.23701e-06)
(8.8545 -0.0826371 -9.65365e-07)
(8.8545 -0.0826371 -5.82592e-07)
(8.85443 -0.082636 -1.51974e-07)
(8.86556 -0.151826 -3.29665e-07)
(8.86563 -0.151828 -1.06366e-06)
(8.86563 -0.151828 -1.72107e-06)
(8.86563 -0.151828 -2.32754e-06)
(8.86564 -0.151828 -2.84301e-06)
(8.86564 -0.151828 -3.26803e-06)
(8.86564 -0.151828 -3.59116e-06)
(8.86564 -0.151829 -3.81287e-06)
(8.86564 -0.151829 -3.934e-06)
(8.86564 -0.151829 -3.95872e-06)
(8.86564 -0.15183 -3.8926e-06)
(8.86564 -0.15183 -3.74164e-06)
(8.86564 -0.15183 -3.5118e-06)
(8.86564 -0.15183 -3.21393e-06)
(8.86565 -0.151831 -2.85148e-06)
(8.86565 -0.151831 -2.45136e-06)
(8.86565 -0.151831 -1.99394e-06)
(8.86565 -0.151831 -1.52741e-06)
(8.86565 -0.151831 -9.37473e-07)
(8.86557 -0.15183 -3.2276e-07)
(8.97611 -0.163277 -2.30171e-07)
(8.97618 -0.163279 -5.21583e-07)
(8.97618 -0.163279 -8.1014e-07)
(8.97618 -0.163279 -1.1057e-06)
(8.97618 -0.16328 -1.38803e-06)
(8.97618 -0.16328 -1.65038e-06)
(8.97618 -0.16328 -1.88565e-06)
(8.97618 -0.16328 -2.08964e-06)
(8.97618 -0.16328 -2.25716e-06)
(8.97618 -0.163281 -2.38195e-06)
(8.97618 -0.163281 -2.45653e-06)
(8.97618 -0.163281 -2.47374e-06)
(8.97618 -0.163281 -2.42471e-06)
(8.97618 -0.163281 -2.30812e-06)
(8.97618 -0.163281 -2.11449e-06)
(8.97618 -0.163281 -1.8644e-06)
(8.97618 -0.163282 -1.53872e-06)
(8.97618 -0.163282 -1.16579e-06)
(8.97618 -0.163282 -6.75266e-07)
(8.9761 -0.16328 -1.49775e-07)
(8.97697 -0.278384 -3.43877e-07)
(8.97705 -0.278387 -1.17012e-06)
(8.97705 -0.278387 -1.89066e-06)
(8.97705 -0.278387 -2.56528e-06)
(8.97705 -0.278387 -3.13284e-06)
(8.97705 -0.278386 -3.60745e-06)
(8.97705 -0.278386 -3.96682e-06)
(8.97705 -0.278386 -4.21261e-06)
(8.97705 -0.278385 -4.34261e-06)
(8.97706 -0.278385 -4.36073e-06)
(8.97706 -0.278385 -4.27213e-06)
(8.97706 -0.278384 -4.08443e-06)
(8.97706 -0.278384 -3.80641e-06)
(8.97706 -0.278384 -3.45152e-06)
(8.97706 -0.278384 -3.02801e-06)
(8.97706 -0.278384 -2.56971e-06)
(8.97706 -0.278384 -2.05377e-06)
(8.97706 -0.278384 -1.55333e-06)
(8.97706 -0.278384 -9.43261e-07)
(8.97699 -0.278381 -3.46758e-07)
(9.16946 -0.281781 -2.10137e-07)
(9.16954 -0.281784 -3.19458e-07)
(9.16954 -0.281784 -4.64071e-07)
(9.16954 -0.281784 -6.68882e-07)
(9.16954 -0.281783 -8.78585e-07)
(9.16954 -0.281783 -1.10396e-06)
(9.16953 -0.281783 -1.32452e-06)
(9.16953 -0.281783 -1.54269e-06)
(9.16953 -0.281782 -1.74481e-06)
(9.16953 -0.281782 -1.92283e-06)
(9.16953 -0.281782 -2.06332e-06)
(9.16953 -0.281782 -2.15493e-06)
(9.16952 -0.281781 -2.18314e-06)
(9.16952 -0.281781 -2.14106e-06)
(9.16952 -0.281781 -2.01497e-06)
(9.16952 -0.281781 -1.81792e-06)
(9.16952 -0.281781 -1.52496e-06)
(9.16952 -0.281781 -1.17878e-06)
(9.16952 -0.281781 -6.9271e-07)
(9.16944 -0.281777 -1.24599e-07)
(9.15145 -0.500081 -2.97232e-07)
(9.15153 -0.500086 -1.03787e-06)
(9.15153 -0.500086 -1.67476e-06)
(9.15153 -0.500086 -2.31054e-06)
(9.15153 -0.500086 -2.83782e-06)
(9.15154 -0.500085 -3.28791e-06)
(9.15154 -0.500085 -3.62639e-06)
(9.15154 -0.500085 -3.86377e-06)
(9.15154 -0.500085 -3.99202e-06)
(9.15154 -0.500084 -4.01599e-06)
(9.15154 -0.500084 -3.93931e-06)
(9.15154 -0.500084 -3.76952e-06)
(9.15154 -0.500083 -3.515e-06)
(9.15154 -0.500083 -3.19191e-06)
(9.15154 -0.500083 -2.80277e-06)
(9.15155 -0.500083 -2.38809e-06)
(9.15155 -0.500083 -1.91427e-06)
(9.15155 -0.500083 -1.47669e-06)
(9.15155 -0.500083 -9.09277e-07)
(9.15147 -0.500078 -3.45537e-07)
(9.43485 -0.495496 -2.69636e-07)
(9.43492 -0.495501 -1.92815e-07)
(9.43492 -0.495501 -1.68085e-07)
(9.43492 -0.495501 -3.46903e-07)
(9.43492 -0.4955 -4.5936e-07)
(9.43492 -0.4955 -6.5817e-07)
(9.43492 -0.4955 -8.46685e-07)
(9.43491 -0.495499 -1.06613e-06)
(9.43491 -0.495499 -1.28058e-06)
(9.43491 -0.495498 -1.48967e-06)
(9.43491 -0.495498 -1.67392e-06)
(9.4349 -0.495497 -1.81926e-06)
(9.4349 -0.495497 -1.90564e-06)
(9.4349 -0.495497 -1.92892e-06)
(9.4349 -0.495496 -1.85555e-06)
(9.43489 -0.495496 -1.72346e-06)
(9.43489 -0.495496 -1.44416e-06)
(9.43489 -0.495496 -1.1885e-06)
(9.43489 -0.495496 -6.64558e-07)
(9.43481 -0.495491 -3.02655e-08)
(9.38846 -0.925901 -2.55332e-07)
(9.38854 -0.92591 -7.4684e-07)
(9.38854 -0.92591 -1.27561e-06)
(9.38854 -0.92591 -1.87096e-06)
(9.38854 -0.92591 -2.27305e-06)
(9.38854 -0.92591 -2.67236e-06)
(9.38854 -0.92591 -2.95639e-06)
(9.38854 -0.92591 -3.17831e-06)
(9.38855 -0.92591 -3.30858e-06)
(9.38855 -0.925909 -3.35729e-06)
(9.38855 -0.925909 -3.32209e-06)
(9.38855 -0.925909 -3.2118e-06)
(9.38855 -0.925909 -3.02345e-06)
(9.38855 -0.925909 -2.77986e-06)
(9.38855 -0.925909 -2.45732e-06)
(9.38855 -0.925908 -2.13973e-06)
(9.38855 -0.925908 -1.70477e-06)
(9.38856 -0.925908 -1.40402e-06)
(9.38856 -0.925908 -9.15746e-07)
(9.38848 -0.925899 -2.92477e-07)
(9.70069 -0.912024 9.05216e-07)
(9.70076 -0.912031 -2.38355e-07)
(9.70076 -0.912029 6.00471e-08)
(9.70076 -0.912029 -4.56564e-07)
(9.70075 -0.912028 -5.12723e-07)
(9.70075 -0.912026 -7.44544e-07)
(9.70075 -0.912025 -9.02299e-07)
(9.70074 -0.912024 -1.0974e-06)
(9.70074 -0.912023 -1.27389e-06)
(9.70074 -0.912022 -1.44536e-06)
(9.70073 -0.912021 -1.58695e-06)
(9.70073 -0.91202 -1.69797e-06)
(9.70073 -0.912019 -1.75253e-06)
(9.70072 -0.912018 -1.76177e-06)
(9.70072 -0.912018 -1.66922e-06)
(9.70072 -0.912017 -1.59627e-06)
(9.70072 -0.912017 -1.28106e-06)
(9.70072 -0.912017 -1.39247e-06)
(9.70072 -0.912018 -6.0426e-07)
(9.70065 -0.912011 -1.18914e-06)
(8.70051 0.709032 6.09634e-07)
(8.70058 0.709037 7.54761e-07)
(8.70058 0.709035 1.37933e-06)
(8.70058 0.709032 1.67031e-06)
(8.70058 0.709029 2.09242e-06)
(8.70058 0.709025 2.32511e-06)
(8.70058 0.709021 2.5117e-06)
(8.70058 0.709016 2.5691e-06)
(8.70058 0.709011 2.54946e-06)
(8.70058 0.709007 2.44036e-06)
(8.70058 0.709002 2.2675e-06)
(8.70058 0.708998 2.05028e-06)
(8.70058 0.708994 1.80172e-06)
(8.70058 0.70899 1.53719e-06)
(8.70058 0.708987 1.28626e-06)
(8.70058 0.708985 1.00559e-06)
(8.70058 0.708983 8.18829e-07)
(8.70058 0.708981 4.54281e-07)
(8.70058 0.70898 3.76129e-07)
(8.70051 0.708973 -2.64958e-07)
(8.80129 0.717402 -4.83275e-07)
(8.80136 0.717409 -1.50626e-06)
(8.80136 0.717408 -2.43855e-06)
(8.80136 0.717408 -3.35762e-06)
(8.80136 0.717408 -4.04379e-06)
(8.80136 0.717408 -4.63331e-06)
(8.80137 0.717408 -5.02831e-06)
(8.80137 0.717407 -5.28122e-06)
(8.80137 0.717407 -5.36751e-06)
(8.80137 0.717407 -5.31214e-06)
(8.80137 0.717406 -5.12126e-06)
(8.80137 0.717406 -4.81818e-06)
(8.80137 0.717405 -4.42197e-06)
(8.80137 0.717405 -3.95767e-06)
(8.80137 0.717405 -3.43686e-06)
(8.80137 0.717404 -2.90694e-06)
(8.80137 0.717404 -2.30637e-06)
(8.80137 0.717404 -1.77433e-06)
(8.80137 0.717404 -1.14485e-06)
(8.8013 0.717397 -4.72872e-07)
(8.83914 0.463684 1.80364e-07)
(8.83921 0.463689 6.47102e-07)
(8.83921 0.463689 1.1646e-06)
(8.83921 0.463689 1.49419e-06)
(8.83921 0.46369 1.81015e-06)
(8.83921 0.46369 1.96993e-06)
(8.83921 0.463691 2.05029e-06)
(8.83921 0.463691 2.019e-06)
(8.83921 0.463692 1.91244e-06)
(8.83921 0.463693 1.74337e-06)
(8.83921 0.463693 1.53503e-06)
(8.83921 0.463694 1.31017e-06)
(8.83921 0.463694 1.08297e-06)
(8.83921 0.463695 8.7355e-07)
(8.83921 0.463695 6.90516e-07)
(8.83921 0.463696 5.26982e-07)
(8.83921 0.463696 4.23658e-07)
(8.83921 0.463696 2.80236e-07)
(8.83921 0.463696 2.22579e-07)
(8.83914 0.463692 5.61909e-08)
(8.77694 0.458794 -4.11998e-07)
(8.77702 0.458799 -1.2339e-06)
(8.77702 0.458798 -1.95585e-06)
(8.77702 0.458798 -2.64619e-06)
(8.77702 0.458797 -3.19875e-06)
(8.77702 0.458796 -3.65416e-06)
(8.77702 0.458795 -3.96874e-06)
(8.77702 0.458794 -4.16566e-06)
(8.77702 0.458793 -4.23458e-06)
(8.77702 0.458792 -4.19055e-06)
(8.77702 0.458791 -4.04212e-06)
(8.77702 0.45879 -3.80298e-06)
(8.77702 0.458789 -3.48904e-06)
(8.77702 0.458788 -3.11523e-06)
(8.77702 0.458788 -2.69236e-06)
(8.77702 0.458787 -2.24515e-06)
(8.77703 0.458787 -1.75774e-06)
(8.77703 0.458787 -1.27972e-06)
(8.77703 0.458787 -7.70781e-07)
(8.77695 0.458782 -3.04263e-07)
(8.79982 0.271097 2.45649e-09)
(8.79989 0.2711 1.22203e-07)
(8.79989 0.271101 2.69696e-07)
(8.79989 0.271101 3.41466e-07)
(8.79989 0.271102 3.99596e-07)
(8.79989 0.271103 3.99635e-07)
(8.79989 0.271104 3.69481e-07)
(8.79989 0.271105 2.99501e-07)
(8.79989 0.271106 2.07951e-07)
(8.79989 0.271107 1.04406e-07)
(8.79989 0.271108 9.43865e-10)
(8.79989 0.271109 -8.78837e-08)
(8.79989 0.27111 -1.57009e-07)
(8.79989 0.27111 -1.95428e-07)
(8.79989 0.271111 -2.01266e-07)
(8.79989 0.271112 -1.71382e-07)
(8.79989 0.271112 -1.09626e-07)
(8.79989 0.271112 -4.24117e-08)
(8.79989 0.271113 2.78954e-08)
(8.79982 0.27111 7.24417e-09)
(8.72899 0.263824 -2.3967e-07)
(8.72907 0.263827 -6.82708e-07)
(8.72907 0.263826 -1.08691e-06)
(8.72907 0.263826 -1.4696e-06)
(8.72907 0.263825 -1.77835e-06)
(8.72907 0.263825 -2.04177e-06)
(8.72907 0.263824 -2.23165e-06)
(8.72907 0.263823 -2.35939e-06)
(8.72907 0.263822 -2.41757e-06)
(8.72907 0.263821 -2.41158e-06)
(8.72907 0.26382 -2.34327e-06)
(8.72907 0.26382 -2.21991e-06)
(8.72907 0.263819 -2.04877e-06)
(8.72907 0.263818 -1.83517e-06)
(8.72907 0.263818 -1.58285e-06)
(8.72907 0.263817 -1.31062e-06)
(8.72907 0.263817 -1.00188e-06)
(8.72907 0.263816 -7.0555e-07)
(8.72907 0.263816 -4.08376e-07)
(8.729 0.263813 -1.46832e-07)
(8.74181 0.121612 -1.42416e-07)
(8.74189 0.121614 -2.95719e-07)
(8.74189 0.121614 -4.38513e-07)
(8.74189 0.121613 -5.97038e-07)
(8.74189 0.121613 -7.43558e-07)
(8.74189 0.121613 -8.8876e-07)
(8.74189 0.121613 -1.02079e-06)
(8.74189 0.121612 -1.13958e-06)
(8.74189 0.121612 -1.23892e-06)
(8.74189 0.121612 -1.31189e-06)
(8.74189 0.121611 -1.35487e-06)
(8.74189 0.121611 -1.36169e-06)
(8.74189 0.12161 -1.33073e-06)
(8.74189 0.12161 -1.2574e-06)
(8.74189 0.12161 -1.14049e-06)
(8.74189 0.12161 -9.82619e-07)
(8.74189 0.121609 -7.8263e-07)
(8.74189 0.121609 -5.59006e-07)
(8.74189 0.121609 -3.13027e-07)
(8.74182 0.121608 -8.54381e-08)
(8.70489 0.108393 -2.66125e-07)
(8.70496 0.108394 -8.09534e-07)
(8.70496 0.108394 -1.312e-06)
(8.70496 0.108393 -1.77881e-06)
(8.70496 0.108393 -2.16939e-06)
(8.70497 0.108392 -2.49635e-06)
(8.70497 0.108391 -2.74068e-06)
(8.70497 0.10839 -2.90732e-06)
(8.70497 0.108389 -2.99281e-06)
(8.70497 0.108387 -2.9991e-06)
(8.70497 0.108386 -2.93239e-06)
(8.70497 0.108385 -2.79741e-06)
(8.70497 0.108384 -2.60038e-06)
(8.70497 0.108383 -2.35284e-06)
(8.70497 0.108382 -2.05648e-06)
(8.70497 0.108382 -1.73508e-06)
(8.70497 0.108381 -1.37003e-06)
(8.70497 0.108381 -1.01e-06)
(8.70497 0.10838 -6.14784e-07)
(8.7049 0.108379 -2.20187e-07)
(8.71389 -0.000673836 -3.07634e-07)
(8.71397 -0.000673771 -8.051e-07)
(8.71397 -0.000673696 -1.29193e-06)
(8.71397 -0.000673563 -1.74809e-06)
(8.71397 -0.000673405 -2.15017e-06)
(8.71397 -0.000673214 -2.49396e-06)
(8.71397 -0.000673005 -2.77056e-06)
(8.71397 -0.000672784 -2.97818e-06)
(8.71397 -0.000672564 -3.11593e-06)
(8.71397 -0.000672351 -3.18072e-06)
(8.71397 -0.000672156 -3.1764e-06)
(8.71397 -0.000671983 -3.10392e-06)
(8.71397 -0.000671838 -2.96403e-06)
(8.71397 -0.00067172 -2.76318e-06)
(8.71397 -0.000671631 -2.49697e-06)
(8.71397 -0.000671562 -2.18304e-06)
(8.71397 -0.000671523 -1.79646e-06)
(8.71398 -0.000671488 -1.37531e-06)
(8.71398 -0.000671485 -8.59269e-07)
(8.7139 -0.000671447 -2.57915e-07)
(8.71342 -0.02506 -2.45371e-07)
(8.71349 -0.0250604 -7.15557e-07)
(8.71349 -0.0250605 -1.15212e-06)
(8.71349 -0.0250608 -1.55521e-06)
(8.71349 -0.0250611 -1.90197e-06)
(8.71349 -0.0250614 -2.1927e-06)
(8.71349 -0.0250618 -2.41785e-06)
(8.7135 -0.0250622 -2.57887e-06)
(8.7135 -0.0250626 -2.67496e-06)
(8.7135 -0.025063 -2.70598e-06)
(8.7135 -0.0250633 -2.67529e-06)
(8.7135 -0.0250637 -2.58378e-06)
(8.7135 -0.025064 -2.43243e-06)
(8.7135 -0.0250643 -2.23074e-06)
(8.7135 -0.0250645 -1.97346e-06)
(8.7135 -0.0250647 -1.69079e-06)
(8.7135 -0.0250649 -1.34974e-06)
(8.7135 -0.025065 -1.01236e-06)
(8.7135 -0.0250651 -5.91336e-07)
(8.71342 -0.0250648 -1.6858e-07)
(8.72298 -0.123465 -3.37784e-07)
(8.72306 -0.123466 -1.00909e-06)
(8.72306 -0.123466 -1.63528e-06)
(8.72306 -0.123466 -2.20983e-06)
(8.72306 -0.123465 -2.70383e-06)
(8.72306 -0.123465 -3.11499e-06)
(8.72306 -0.123465 -3.43356e-06)
(8.72306 -0.123464 -3.65942e-06)
(8.72306 -0.123464 -3.7944e-06)
(8.72306 -0.123464 -3.84033e-06)
(8.72306 -0.123464 -3.8023e-06)
(8.72305 -0.123464 -3.68464e-06)
(8.72305 -0.123463 -3.49013e-06)
(8.72305 -0.123463 -3.22856e-06)
(8.72305 -0.123463 -2.89451e-06)
(8.72305 -0.123463 -2.51597e-06)
(8.72305 -0.123463 -2.05356e-06)
(8.72305 -0.123463 -1.56857e-06)
(8.72305 -0.123463 -9.51102e-07)
(8.72298 -0.123462 -2.94084e-07)
(8.76223 -0.147676 -2.43014e-07)
(8.7623 -0.147678 -5.88637e-07)
(8.7623 -0.147678 -9.21279e-07)
(8.7623 -0.147679 -1.23574e-06)
(8.7623 -0.147679 -1.52081e-06)
(8.7623 -0.147679 -1.77113e-06)
(8.7623 -0.14768 -1.98179e-06)
(8.7623 -0.14768 -2.1503e-06)
(8.7623 -0.147681 -2.27475e-06)
(8.7623 -0.147681 -2.35072e-06)
(8.7623 -0.147681 -2.37514e-06)
(8.7623 -0.147682 -2.344e-06)
(8.7623 -0.147682 -2.25059e-06)
(8.7623 -0.147683 -2.1012e-06)
(8.7623 -0.147683 -1.8819e-06)
(8.7623 -0.147683 -1.62572e-06)
(8.7623 -0.147683 -1.29401e-06)
(8.7623 -0.147683 -9.54685e-07)
(8.7623 -0.147684 -5.23472e-07)
(8.76223 -0.147682 -9.02796e-08)
(8.76691 -0.270977 -3.77467e-07)
(8.76698 -0.27098 -1.22114e-06)
(8.76698 -0.27098 -1.98699e-06)
(8.76698 -0.27098 -2.69086e-06)
(8.76698 -0.27098 -3.28781e-06)
(8.76698 -0.27098 -3.78907e-06)
(8.76698 -0.27098 -4.17394e-06)
(8.76698 -0.27098 -4.44474e-06)
(8.76698 -0.27098 -4.59912e-06)
(8.76698 -0.27098 -4.64062e-06)
(8.76698 -0.27098 -4.57478e-06)
(8.76698 -0.27098 -4.40753e-06)
(8.76698 -0.27098 -4.14548e-06)
(8.76698 -0.27098 -3.80093e-06)
(8.76698 -0.27098 -3.37286e-06)
(8.76698 -0.270981 -2.89418e-06)
(8.76698 -0.270981 -2.32157e-06)
(8.76698 -0.270981 -1.74641e-06)
(8.76698 -0.270981 -1.04675e-06)
(8.76691 -0.270978 -3.48957e-07)
(8.84942 -0.285562 -2.80797e-07)
(8.8495 -0.285565 -6.02548e-07)
(8.8495 -0.285565 -9.1238e-07)
(8.8495 -0.285565 -1.22575e-06)
(8.8495 -0.285566 -1.52081e-06)
(8.8495 -0.285566 -1.79293e-06)
(8.8495 -0.285566 -2.03261e-06)
(8.8495 -0.285566 -2.23738e-06)
(8.8495 -0.285567 -2.39991e-06)
(8.8495 -0.285567 -2.51413e-06)
(8.8495 -0.285567 -2.57195e-06)
(8.8495 -0.285568 -2.56692e-06)
(8.8495 -0.285568 -2.48926e-06)
(8.8495 -0.285568 -2.34171e-06)
(8.8495 -0.285568 -2.11036e-06)
(8.8495 -0.285569 -1.82408e-06)
(8.8495 -0.285569 -1.449e-06)
(8.8495 -0.285569 -1.05078e-06)
(8.8495 -0.285569 -5.70205e-07)
(8.84942 -0.285566 -8.51302e-08)
(8.843 -0.462955 -4.17028e-07)
(8.84307 -0.462959 -1.38433e-06)
(8.84307 -0.462959 -2.24444e-06)
(8.84307 -0.462959 -3.04196e-06)
(8.84307 -0.462959 -3.70084e-06)
(8.84307 -0.462959 -4.26861e-06)
(8.84307 -0.462958 -4.70063e-06)
(8.84307 -0.462958 -5.0042e-06)
(8.84307 -0.462958 -5.1705e-06)
(8.84307 -0.462958 -5.20555e-06)
(8.84307 -0.462958 -5.11463e-06)
(8.84307 -0.462958 -4.90705e-06)
(8.84307 -0.462958 -4.59418e-06)
(8.84307 -0.462957 -4.18953e-06)
(8.84307 -0.462957 -3.69866e-06)
(8.84307 -0.462957 -3.15366e-06)
(8.84307 -0.462958 -2.49839e-06)
(8.84307 -0.462958 -1.85945e-06)
(8.84307 -0.462958 -1.10348e-06)
(8.843 -0.462953 -3.8518e-07)
(8.95916 -0.465963 -2.54488e-07)
(8.95924 -0.465968 -4.84037e-07)
(8.95924 -0.465968 -6.70462e-07)
(8.95924 -0.465968 -9.34963e-07)
(8.95924 -0.465968 -1.19035e-06)
(8.95924 -0.465968 -1.4498e-06)
(8.95924 -0.465968 -1.68932e-06)
(8.95924 -0.465969 -1.91955e-06)
(8.95924 -0.465969 -2.11964e-06)
(8.95924 -0.465969 -2.28642e-06)
(8.95924 -0.465969 -2.40246e-06)
(8.95924 -0.465969 -2.45988e-06)
(8.95924 -0.46597 -2.44084e-06)
(8.95924 -0.46597 -2.34483e-06)
(8.95924 -0.46597 -2.1542e-06)
(8.95924 -0.46597 -1.8961e-06)
(8.95924 -0.46597 -1.53943e-06)
(8.95924 -0.46597 -1.14027e-06)
(8.95924 -0.46597 -6.16543e-07)
(8.95916 -0.465965 -1.13192e-07)
(8.93435 -0.720136 -4.60023e-07)
(8.93443 -0.720144 -1.52341e-06)
(8.93443 -0.720143 -2.39892e-06)
(8.93443 -0.720143 -3.27351e-06)
(8.93443 -0.720143 -4.00393e-06)
(8.93443 -0.720142 -4.62532e-06)
(8.93443 -0.720142 -5.08692e-06)
(8.93443 -0.720141 -5.41045e-06)
(8.93443 -0.720141 -5.57865e-06)
(8.93443 -0.72014 -5.60381e-06)
(8.93443 -0.72014 -5.49041e-06)
(8.93443 -0.720139 -5.25313e-06)
(8.93443 -0.720139 -4.90315e-06)
(8.93443 -0.720139 -4.46455e-06)
(8.93443 -0.720138 -3.93505e-06)
(8.93443 -0.720138 -3.3675e-06)
(8.93443 -0.720138 -2.69973e-06)
(8.93444 -0.720138 -2.03592e-06)
(8.93444 -0.720138 -1.2115e-06)
(8.93436 -0.720131 -4.52099e-07)
(9.02124 -0.710325 -1.64307e-07)
(9.02131 -0.710332 -2.05267e-07)
(9.02131 -0.710333 -1.88251e-07)
(9.02131 -0.710333 -3.62682e-07)
(9.02131 -0.710333 -4.48531e-07)
(9.02131 -0.710334 -6.41657e-07)
(9.02131 -0.710334 -8.20344e-07)
(9.02132 -0.710335 -1.04376e-06)
(9.02132 -0.710335 -1.26313e-06)
(9.02132 -0.710336 -1.48463e-06)
(9.02132 -0.710336 -1.67578e-06)
(9.02132 -0.710337 -1.83206e-06)
(9.02132 -0.710337 -1.91727e-06)
(9.02132 -0.710337 -1.93974e-06)
(9.02132 -0.710338 -1.84354e-06)
(9.02132 -0.710338 -1.70803e-06)
(9.02132 -0.710338 -1.39933e-06)
(9.02132 -0.710338 -1.13038e-06)
(9.02132 -0.710339 -6.60817e-07)
(9.02124 -0.710332 -1.65328e-07)
(8.96363 -1.06593 -4.75799e-07)
(8.96371 -1.06594 -1.6799e-06)
(8.96371 -1.06594 -2.75825e-06)
(8.96371 -1.06594 -3.86094e-06)
(8.96371 -1.06594 -4.66455e-06)
(8.96371 -1.06594 -5.39452e-06)
(8.96371 -1.06594 -5.90334e-06)
(8.96371 -1.06594 -6.26548e-06)
(8.96371 -1.06593 -6.43708e-06)
(8.96372 -1.06593 -6.4466e-06)
(8.96372 -1.06593 -6.29359e-06)
(8.96372 -1.06593 -6.00756e-06)
(8.96372 -1.06593 -5.59021e-06)
(8.96372 -1.06593 -5.09488e-06)
(8.96372 -1.06593 -4.48865e-06)
(8.96372 -1.06593 -3.89217e-06)
(8.96372 -1.06593 -3.13181e-06)
(8.96372 -1.06593 -2.53434e-06)
(8.96372 -1.06593 -1.70493e-06)
(8.96364 -1.06592 -6.9267e-07)
(8.7935 -1.02085 -6.21242e-07)
(8.79356 -1.02086 2.60745e-07)
(8.79356 -1.02085 5.67926e-07)
(8.79356 -1.02085 4.86626e-07)
(8.79356 -1.02085 6.53468e-07)
(8.79356 -1.02085 6.0682e-07)
(8.79356 -1.02084 5.71628e-07)
(8.79356 -1.02084 4.29622e-07)
(8.79356 -1.02083 2.59281e-07)
(8.79356 -1.02083 4.31135e-08)
(8.79356 -1.02083 -1.80644e-07)
(8.79356 -1.02082 -4.08992e-07)
(8.79357 -1.02082 -5.91003e-07)
(8.79357 -1.02082 -7.47803e-07)
(8.79357 -1.02081 -7.86695e-07)
(8.79357 -1.02081 -8.35851e-07)
(8.79357 -1.02081 -6.39871e-07)
(8.79357 -1.02081 -6.99408e-07)
(8.79357 -1.02081 -3.1161e-07)
(8.79351 -1.0208 6.3019e-07)
(8.8797 0.754496 4.39155e-07)
(8.87977 0.754502 -2.8863e-07)
(8.87977 0.754501 3.04844e-07)
(8.87977 0.7545 3.20343e-07)
(8.87977 0.754498 5.20343e-07)
(8.87977 0.754496 5.39579e-07)
(8.87977 0.754493 5.88959e-07)
(8.87977 0.754491 5.62776e-07)
(8.87977 0.754488 5.25834e-07)
(8.87977 0.754485 4.60319e-07)
(8.87978 0.754482 3.88357e-07)
(8.87978 0.75448 3.19321e-07)
(8.87978 0.754477 2.58073e-07)
(8.87978 0.754475 2.01482e-07)
(8.87978 0.754473 1.84021e-07)
(8.87978 0.754471 1.31291e-07)
(8.87978 0.75447 2.34166e-07)
(8.87978 0.754469 1.2266e-07)
(8.87978 0.754468 5.69593e-07)
(8.87971 0.75446 -3.75558e-07)
(8.74013 0.758738 -7.60251e-07)
(8.74021 0.758745 -1.40579e-06)
(8.74021 0.758745 -1.93239e-06)
(8.74021 0.758745 -2.57208e-06)
(8.74021 0.758746 -3.06563e-06)
(8.74021 0.758746 -3.53629e-06)
(8.74021 0.758746 -3.86589e-06)
(8.74021 0.758747 -4.10836e-06)
(8.74021 0.758747 -4.22786e-06)
(8.74021 0.758747 -4.24377e-06)
(8.74021 0.758747 -4.15487e-06)
(8.74021 0.758748 -3.97226e-06)
(8.74021 0.758748 -3.70783e-06)
(8.74021 0.758748 -3.37795e-06)
(8.74021 0.758748 -2.97243e-06)
(8.74021 0.758749 -2.54713e-06)
(8.74021 0.758749 -2.00907e-06)
(8.74021 0.758749 -1.47554e-06)
(8.74021 0.758749 -7.50913e-07)
(8.74014 0.758742 -3.67071e-08)
(8.77683 0.486698 -2.02043e-07)
(8.77691 0.486703 2.21828e-07)
(8.77691 0.486703 5.73866e-07)
(8.77691 0.486703 7.71086e-07)
(8.77691 0.486703 9.97565e-07)
(8.77691 0.486703 1.0928e-06)
(8.77691 0.486703 1.155e-06)
(8.77691 0.486703 1.14375e-06)
(8.77691 0.486703 1.09255e-06)
(8.77691 0.486703 1.0073e-06)
(8.77691 0.486703 9.02664e-07)
(8.77691 0.486703 7.95069e-07)
(8.77691 0.486703 6.89683e-07)
(8.77691 0.486703 5.98237e-07)
(8.77691 0.486703 5.29943e-07)
(8.77691 0.486703 4.6405e-07)
(8.77691 0.486704 4.65979e-07)
(8.77691 0.486704 3.91835e-07)
(8.77691 0.486704 3.80962e-07)
(8.77684 0.486699 3.56845e-07)
(8.68869 0.485808 -4.93899e-07)
(8.68877 0.485812 -1.1959e-06)
(8.68877 0.485812 -1.82794e-06)
(8.68877 0.485811 -2.45254e-06)
(8.68877 0.485811 -2.97845e-06)
(8.68877 0.48581 -3.43141e-06)
(8.68877 0.48581 -3.7666e-06)
(8.68877 0.485809 -4.00213e-06)
(8.68877 0.485809 -4.12139e-06)
(8.68877 0.485808 -4.13241e-06)
(8.68877 0.485808 -4.0394e-06)
(8.68877 0.485807 -3.8503e-06)
(8.68877 0.485807 -3.57669e-06)
(8.68877 0.485806 -3.23201e-06)
(8.68877 0.485806 -2.81922e-06)
(8.68877 0.485805 -2.36599e-06)
(8.68877 0.485805 -1.8428e-06)
(8.68877 0.485805 -1.29048e-06)
(8.68877 0.485805 -7.10103e-07)
(8.6887 0.485801 -1.87674e-07)
(8.70961 0.283015 -8.85535e-08)
(8.70969 0.283018 5.03972e-08)
(8.70969 0.283018 1.80882e-07)
(8.70969 0.283018 2.51285e-07)
(8.70969 0.283019 3.02328e-07)
(8.70969 0.283019 3.02443e-07)
(8.70969 0.28302 2.77337e-07)
(8.70969 0.283021 2.176e-07)
(8.70969 0.283021 1.41691e-07)
(8.70969 0.283022 6.17077e-08)
(8.70969 0.283023 -1.50573e-08)
(8.70969 0.283023 -7.38369e-08)
(8.70969 0.283024 -1.10193e-07)
(8.70969 0.283024 -1.19204e-07)
(8.70969 0.283025 -9.44914e-08)
(8.70969 0.283025 -3.43734e-08)
(8.70969 0.283025 5.8372e-08)
(8.70969 0.283026 1.42473e-07)
(8.70969 0.283026 1.95391e-07)
(8.70961 0.283023 1.4132e-07)
(8.653 0.277175 -3.047e-07)
(8.65307 0.277178 -8.11956e-07)
(8.65307 0.277177 -1.29067e-06)