/*--------------------------------*- C++ -*----------------------------------*\
| =========                 |                                                 |
| \\      /  F ield         | OpenFOAM: The Open Source CFD Toolbox           |
|  \\    /   O peration     | Version:  2212                                  |
|   \\  /    A nd           | Website:  www.openfoam.com                      |
|    \\/     M anipulation  |                                                 |
\*---------------------------------------------------------------------------*/
FoamFile
{
    version     2.0;
    format      ascii;
    arch        "LSB;label=32;scalar=64";
    class       volVectorField;
    location    "0.109";
    object      UMean;
}
// * * * * * * * * * * * * * * * * * * * * * * * * * * * * * * * * * * * * * //

dimensions      [0 1 -1 0 0 0 0];

internalField   nonuniform List<vector> 
24240
(
(9.64649 0.539691 6.28756e-07)
(9.64653 0.539694 -5.12159e-07)
(9.64653 0.539693 -4.30522e-07)
(9.64653 0.539693 -7.49593e-07)
(9.64652 0.539693 -8.9853e-07)
(9.64652 0.539693 -1.09647e-06)
(9.64652 0.539693 -1.25482e-06)
(9.64652 0.539693 -1.40173e-06)
(9.64652 0.539693 -1.52111e-06)
(9.64652 0.539692 -1.61135e-06)
(9.64652 0.539692 -1.66743e-06)
(9.64652 0.539692 -1.68484e-06)
(9.64652 0.539692 -1.66133e-06)
(9.64652 0.539693 -1.59692e-06)
(9.64652 0.539693 -1.49197e-06)
(9.64652 0.539693 -1.36378e-06)
(9.64652 0.539693 -1.15902e-06)
(9.64652 0.539693 -1.06176e-06)
(9.64652 0.539693 -4.81733e-07)
(9.64649 0.53969 -1.00466e-06)
(9.14853 0.547662 -2.10619e-07)
(9.14857 0.547665 -4.83588e-07)
(9.14857 0.547665 -6.85036e-07)
(9.14857 0.547666 -9.46067e-07)
(9.14857 0.547666 -1.1433e-06)
(9.14857 0.547666 -1.3337e-06)
(9.14857 0.547666 -1.48029e-06)
(9.14857 0.547667 -1.59458e-06)
(9.14857 0.547667 -1.66825e-06)
(9.14857 0.547667 -1.70192e-06)
(9.14857 0.547668 -1.69582e-06)
(9.14857 0.547668 -1.64947e-06)
(9.14857 0.547668 -1.56516e-06)
(9.14857 0.547668 -1.44589e-06)
(9.14857 0.547668 -1.297e-06)
(9.14857 0.547669 -1.12907e-06)
(9.14857 0.547669 -9.28944e-07)
(9.14857 0.547669 -7.37535e-07)
(9.14857 0.547669 -4.55781e-07)
(9.14854 0.547666 -1.47604e-07)
(9.16845 0.234396 -1.48445e-07)
(9.16849 0.234398 -1.50881e-07)
(9.16849 0.234398 -1.77885e-07)
(9.16849 0.234398 -2.81567e-07)
(9.16849 0.234398 -3.72004e-07)
(9.16849 0.234399 -4.97359e-07)
(9.16849 0.234399 -6.27123e-07)
(9.16848 0.2344 -7.66336e-07)
(9.16848 0.2344 -9.02865e-07)
(9.16848 0.234401 -1.02914e-06)
(9.16848 0.234401 -1.13615e-06)
(9.16848 0.234401 -1.21486e-06)
(9.16848 0.234402 -1.25865e-06)
(9.16848 0.234402 -1.26078e-06)
(9.16848 0.234403 -1.2202e-06)
(9.16848 0.234403 -1.13444e-06)
(9.16848 0.234404 -1.00104e-06)
(9.16848 0.234404 -8.31153e-07)
(9.16848 0.234404 -5.53111e-07)
(9.16844 0.234403 -1.40755e-07)
(8.90834 0.23443 -7.94214e-08)
(8.90838 0.234432 -2.4692e-07)
(8.90838 0.234432 -3.60293e-07)
(8.90838 0.234432 -4.82332e-07)
(8.90838 0.234432 -5.77165e-07)
(8.90838 0.234432 -6.67923e-07)
(8.90838 0.234433 -7.39866e-07)
(8.90838 0.234433 -7.95923e-07)
(8.90838 0.234433 -8.30217e-07)
(8.90838 0.234433 -8.41356e-07)
(8.90838 0.234434 -8.27419e-07)
(8.90838 0.234434 -7.88108e-07)
(8.90838 0.234434 -7.24848e-07)
(8.90838 0.234435 -6.38894e-07)
(8.90838 0.234435 -5.33863e-07)
(8.90838 0.234435 -4.13793e-07)
(8.90838 0.234436 -2.79126e-07)
(8.90838 0.234436 -1.49347e-07)
(8.90838 0.234436 -5.49535e-08)
(8.90834 0.234435 -3.96624e-08)
(8.9071 0.111979 -4.64355e-08)
(8.90714 0.111979 -2.73346e-08)
(8.90714 0.11198 -1.66488e-08)
(8.90714 0.11198 -3.16294e-08)
(8.90714 0.11198 -5.86004e-08)
(8.90714 0.11198 -1.10702e-07)
(8.90714 0.11198 -1.78731e-07)
(8.90714 0.111981 -2.59604e-07)
(8.90714 0.111981 -3.46352e-07)
(8.90714 0.111981 -4.30851e-07)
(8.90714 0.111982 -5.05511e-07)
(8.90713 0.111982 -5.62871e-07)
(8.90713 0.111982 -5.97285e-07)
(8.90713 0.111983 -6.02536e-07)
(8.90713 0.111983 -5.76881e-07)
(8.90713 0.111983 -5.13836e-07)
(8.90713 0.111983 -4.19716e-07)
(8.90713 0.111983 -2.97226e-07)
(8.90713 0.111983 -1.73527e-07)
(8.90709 0.111983 -4.25481e-08)
(8.77384 0.106014 -2.37948e-08)
(8.77388 0.106014 -7.73769e-08)
(8.77388 0.106014 -1.06702e-07)
(8.77388 0.106014 -1.43404e-07)
(8.77388 0.106014 -1.69631e-07)
(8.77388 0.106014 -1.98506e-07)
(8.77388 0.106014 -2.23767e-07)
(8.77388 0.106013 -2.46099e-07)
(8.77388 0.106013 -2.6197e-07)
(8.77387 0.106013 -2.69473e-07)
(8.77387 0.106013 -2.66576e-07)
(8.77387 0.106013 -2.51977e-07)
(8.77387 0.106013 -2.25634e-07)
(8.77387 0.106013 -1.865e-07)
(8.77387 0.106013 -1.35039e-07)
(8.77387 0.106013 -7.23115e-08)
(8.77387 0.106013 -2.09698e-10)
(8.77387 0.106013 6.16516e-08)
(8.77387 0.106013 8.09426e-08)
(8.77383 0.106012 2.16092e-08)
(8.77019 0.0482117 -3.86354e-08)
(8.77023 0.048212 -8.45987e-08)
(8.77023 0.048212 -1.32283e-07)
(8.77023 0.048212 -1.88562e-07)
(8.77023 0.0482119 -2.45166e-07)
(8.77023 0.0482118 -3.05875e-07)
(8.77023 0.0482118 -3.68306e-07)
(8.77023 0.0482117 -4.30166e-07)
(8.77023 0.0482116 -4.89079e-07)
(8.77023 0.0482116 -5.41124e-07)
(8.77023 0.0482115 -5.83175e-07)
(8.77023 0.0482115 -6.1093e-07)
(8.77023 0.0482114 -6.21034e-07)
(8.77023 0.0482113 -6.09805e-07)
(8.77023 0.0482113 -5.75024e-07)
(8.77023 0.0482112 -5.14235e-07)
(8.77023 0.0482111 -4.29842e-07)
(8.77023 0.048211 -3.25603e-07)
(8.77023 0.0482108 -2.12952e-07)
(8.77019 0.0482104 -7.69003e-08)
(8.71334 0.0409548 -3.19002e-08)
(8.71337 0.040955 -1.01894e-07)
(8.71337 0.0409549 -1.5967e-07)
(8.71337 0.0409548 -2.18069e-07)
(8.71337 0.0409546 -2.61279e-07)
(8.71337 0.0409544 -2.96232e-07)
(8.71337 0.0409542 -3.20468e-07)
(8.71337 0.0409539 -3.36385e-07)
(8.71337 0.0409537 -3.44365e-07)
(8.71337 0.0409535 -3.44944e-07)
(8.71337 0.0409532 -3.39218e-07)
(8.71337 0.040953 -3.26402e-07)
(8.71337 0.0409528 -3.06193e-07)
(8.71337 0.0409525 -2.78252e-07)
(8.71337 0.0409523 -2.41691e-07)
(8.71337 0.0409521 -2.00561e-07)
(8.71337 0.0409519 -1.54385e-07)
(8.71337 0.0409517 -1.17875e-07)
(8.71337 0.0409515 -7.52648e-08)
(8.71333 0.0409511 -3.27965e-08)
(8.71654 0.00444659 -6.98452e-08)
(8.71658 0.00444655 -1.88581e-07)
(8.71658 0.0044464 -3.12847e-07)
(8.71658 0.0044462 -4.3602e-07)
(8.71658 0.00444594 -5.47314e-07)
(8.71658 0.00444563 -6.45807e-07)
(8.71658 0.00444528 -7.31503e-07)
(8.71658 0.0044449 -8.04784e-07)
(8.71658 0.0044445 -8.67116e-07)
(8.71658 0.00444409 -9.17945e-07)
(8.71658 0.00444368 -9.57045e-07)
(8.71658 0.00444326 -9.82366e-07)
(8.71658 0.00444285 -9.8929e-07)
(8.71658 0.00444245 -9.75406e-07)
(8.71658 0.00444208 -9.36403e-07)
(8.71658 0.00444173 -8.7414e-07)
(8.71658 0.00444141 -7.78376e-07)
(8.71658 0.00444113 -6.51719e-07)
(8.71658 0.00444091 -4.52462e-07)
(8.71654 0.00444079 -1.57575e-07)
(8.71137 -0.00912445 -9.15116e-08)
(8.7114 -0.00912466 -2.79176e-07)
(8.7114 -0.00912493 -4.52681e-07)
(8.7114 -0.00912532 -6.13186e-07)
(8.7114 -0.00912581 -7.47204e-07)
(8.7114 -0.00912638 -8.54981e-07)
(8.7114 -0.009127 -9.36305e-07)
(8.7114 -0.00912766 -9.93524e-07)
(8.7114 -0.00912834 -1.03022e-06)
(8.7114 -0.009129 -1.04795e-06)
(8.71141 -0.00912965 -1.0491e-06)
(8.71141 -0.00913027 -1.0333e-06)
(8.71141 -0.00913084 -9.97989e-07)
(8.71141 -0.00913135 -9.43124e-07)
(8.71141 -0.00913181 -8.66326e-07)
(8.71141 -0.00913219 -7.75258e-07)
(8.71141 -0.00913251 -6.62019e-07)
(8.71141 -0.00913275 -5.4256e-07)
(8.7114 -0.00913294 -3.47327e-07)
(8.71137 -0.00913291 -1.10534e-07)
(8.72823 -0.0372488 -1.75566e-07)
(8.72827 -0.0372492 -5.27814e-07)
(8.72827 -0.0372494 -8.59388e-07)
(8.72827 -0.0372496 -1.1634e-06)
(8.72827 -0.0372499 -1.42241e-06)
(8.72827 -0.0372503 -1.63353e-06)
(8.72827 -0.0372508 -1.79535e-06)
(8.72827 -0.0372513 -1.91011e-06)
(8.72828 -0.0372518 -1.98135e-06)
(8.72828 -0.0372524 -2.01299e-06)
(8.72828 -0.037253 -2.00797e-06)
(8.72828 -0.0372536 -1.96793e-06)
(8.72828 -0.0372542 -1.89164e-06)
(8.72828 -0.0372548 -1.78073e-06)
(8.72828 -0.0372553 -1.63322e-06)
(8.72828 -0.0372558 -1.46046e-06)
(8.72828 -0.0372562 -1.24756e-06)
(8.72828 -0.0372566 -1.00892e-06)
(8.72828 -0.0372568 -6.51046e-07)
(8.72824 -0.0372567 -2.11047e-07)
(8.7657 -0.0533581 -1.7281e-07)
(8.76574 -0.0533586 -4.97287e-07)
(8.76574 -0.0533588 -8.07964e-07)
(8.76574 -0.0533591 -1.0977e-06)
(8.76574 -0.0533595 -1.35316e-06)
(8.76574 -0.05336 -1.57049e-06)
(8.76574 -0.0533605 -1.74828e-06)
(8.76574 -0.053361 -1.88673e-06)
(8.76574 -0.0533616 -1.98744e-06)
(8.76574 -0.0533622 -2.05082e-06)
(8.76574 -0.0533627 -2.07652e-06)
(8.76574 -0.0533633 -2.06176e-06)
(8.76575 -0.0533637 -2.0028e-06)
(8.76575 -0.0533642 -1.89832e-06)
(8.76575 -0.0533645 -1.74433e-06)
(8.76575 -0.0533648 -1.55583e-06)
(8.76575 -0.0533649 -1.32092e-06)
(8.76575 -0.053365 -1.05915e-06)
(8.76575 -0.0533651 -6.60112e-07)
(8.76571 -0.0533647 -1.93523e-07)
(8.79895 -0.0913902 -2.63577e-07)
(8.79899 -0.0913909 -8.11281e-07)
(8.79899 -0.0913911 -1.30269e-06)
(8.79899 -0.0913914 -1.7534e-06)
(8.79899 -0.0913917 -2.13798e-06)
(8.79899 -0.0913922 -2.4518e-06)
(8.79899 -0.0913927 -2.69189e-06)
(8.799 -0.0913933 -2.85756e-06)
(8.799 -0.091394 -2.95113e-06)
(8.799 -0.0913947 -2.97587e-06)
(8.799 -0.0913953 -2.93469e-06)
(8.799 -0.091396 -2.82959e-06)
(8.799 -0.0913967 -2.66212e-06)
(8.799 -0.0913973 -2.43754e-06)
(8.799 -0.0913978 -2.15755e-06)
(8.799 -0.0913982 -1.84731e-06)
(8.799 -0.0913986 -1.4976e-06)
(8.79901 -0.0913988 -1.14495e-06)
(8.79901 -0.091399 -6.56558e-07)
(8.79897 -0.0913984 -1.84721e-07)
(8.89248 -0.104667 -2.69588e-07)
(8.89252 -0.104667 -7.50164e-07)
(8.89252 -0.104668 -1.22098e-06)
(8.89252 -0.104668 -1.66368e-06)
(8.89252 -0.104668 -2.06602e-06)
(8.89253 -0.104668 -2.41565e-06)
(8.89253 -0.104668 -2.70788e-06)
(8.89253 -0.104669 -2.93875e-06)
(8.89253 -0.104669 -3.10603e-06)
(8.89253 -0.104669 -3.207e-06)
(8.89253 -0.104669 -3.23686e-06)
(8.89253 -0.10467 -3.19191e-06)
(8.89253 -0.10467 -3.0672e-06)
(8.89253 -0.10467 -2.86391e-06)
(8.89253 -0.10467 -2.58165e-06)
(8.89253 -0.10467 -2.24554e-06)
(8.89254 -0.10467 -1.85123e-06)
(8.89254 -0.10467 -1.419e-06)
(8.89254 -0.10467 -8.48849e-07)
(8.8925 -0.104669 -2.35768e-07)
(8.93303 -0.178951 -2.83122e-07)
(8.93306 -0.178952 -9.27087e-07)
(8.93306 -0.178952 -1.5005e-06)
(8.93307 -0.178952 -2.03312e-06)
(8.93307 -0.178952 -2.48906e-06)
(8.93307 -0.178953 -2.86419e-06)
(8.93307 -0.178953 -3.1506e-06)
(8.93307 -0.178953 -3.34518e-06)
(8.93307 -0.178954 -3.4486e-06)
(8.93307 -0.178954 -3.46135e-06)
(8.93307 -0.178955 -3.38565e-06)
(8.93308 -0.178955 -3.22493e-06)
(8.93308 -0.178956 -2.9826e-06)
(8.93308 -0.178956 -2.66913e-06)
(8.93308 -0.178957 -2.29595e-06)
(8.93308 -0.178957 -1.90282e-06)
(8.93308 -0.178958 -1.49049e-06)
(8.93308 -0.178958 -1.12768e-06)
(8.93308 -0.178959 -6.71961e-07)
(8.93304 -0.178958 -2.22248e-07)
(9.1219 -0.184866 -3.11466e-07)
(9.12194 -0.184867 -7.9967e-07)
(9.12194 -0.184867 -1.33529e-06)
(9.12194 -0.184867 -1.876e-06)
(9.12194 -0.184867 -2.38612e-06)
(9.12194 -0.184867 -2.85078e-06)
(9.12194 -0.184867 -3.25922e-06)
(9.12194 -0.184868 -3.60318e-06)
(9.12194 -0.184868 -3.87539e-06)
(9.12194 -0.184868 -4.06659e-06)
(9.12194 -0.184868 -4.16773e-06)
(9.12194 -0.184869 -4.17025e-06)
(9.12195 -0.184869 -4.06601e-06)
(9.12195 -0.184869 -3.85429e-06)
(9.12195 -0.18487 -3.53736e-06)
(9.12195 -0.18487 -3.13879e-06)
(9.12195 -0.18487 -2.66867e-06)
(9.12195 -0.18487 -2.17752e-06)
(9.12195 -0.18487 -1.49073e-06)
(9.12191 -0.184869 -4.8494e-07)
(9.14985 -0.365175 -2.64092e-07)
(9.14989 -0.365177 -9.42592e-07)
(9.14989 -0.365178 -1.58497e-06)
(9.14989 -0.365178 -2.2137e-06)
(9.14989 -0.365178 -2.75531e-06)
(9.14989 -0.365178 -3.21018e-06)
(9.14989 -0.365178 -3.56583e-06)
(9.14989 -0.365179 -3.81742e-06)
(9.14989 -0.365179 -3.96338e-06)
(9.1499 -0.36518 -4.00038e-06)
(9.1499 -0.36518 -3.9297e-06)
(9.1499 -0.365181 -3.75395e-06)
(9.1499 -0.365181 -3.48044e-06)
(9.1499 -0.365182 -3.12448e-06)
(9.1499 -0.365182 -2.70029e-06)
(9.1499 -0.365183 -2.25691e-06)
(9.1499 -0.365183 -1.81958e-06)
(9.1499 -0.365184 -1.49867e-06)
(9.1499 -0.365184 -9.66599e-07)
(9.14986 -0.365182 -3.29879e-07)
(9.51659 -0.356577 -4.65805e-07)
(9.51663 -0.356579 -9.80758e-07)
(9.51663 -0.356579 -1.54913e-06)
(9.51663 -0.356579 -2.20658e-06)
(9.51663 -0.356579 -2.80333e-06)
(9.51663 -0.356579 -3.38076e-06)
(9.51663 -0.356579 -3.89074e-06)
(9.51663 -0.356579 -4.33474e-06)
(9.51663 -0.356578 -4.69408e-06)
(9.51664 -0.356578 -4.95786e-06)
(9.51664 -0.356578 -5.11502e-06)
(9.51664 -0.356578 -5.15467e-06)
(9.51664 -0.356578 -5.06992e-06)
(9.51664 -0.356578 -4.85768e-06)
(9.51664 -0.356578 -4.51058e-06)
(9.51664 -0.356578 -4.04321e-06)
(9.51664 -0.356578 -3.43079e-06)
(9.51665 -0.356578 -2.74577e-06)
(9.51665 -0.356578 -1.7866e-06)
(9.51661 -0.356575 -5.09528e-07)
(9.49313 -0.82635 -3.93871e-07)
(9.49317 -0.826354 -1.05367e-06)
(9.49317 -0.826354 -1.54557e-06)
(9.49318 -0.826354 -2.12082e-06)
(9.49318 -0.826354 -2.60005e-06)
(9.49318 -0.826354 -3.04117e-06)
(9.49318 -0.826354 -3.38849e-06)
(9.49318 -0.826353 -3.64874e-06)
(9.49318 -0.826353 -3.80954e-06)
(9.49318 -0.826353 -3.86984e-06)
(9.49319 -0.826353 -3.82771e-06)
(9.49319 -0.826352 -3.68643e-06)
(9.49319 -0.826352 -3.45237e-06)
(9.49319 -0.826352 -3.13923e-06)
(9.49319 -0.826351 -2.74638e-06)
(9.49319 -0.826351 -2.31205e-06)
(9.49319 -0.82635 -1.78788e-06)
(9.49319 -0.82635 -1.32166e-06)
(9.49319 -0.82635 -6.04128e-07)
(9.49315 -0.826345 -8.6475e-08)
(10.1994 -0.805555 6.60751e-07)
(10.1994 -0.805559 -1.28038e-06)
(10.1994 -0.805558 -1.51142e-06)
(10.1994 -0.805558 -2.31356e-06)
(10.1994 -0.805559 -2.84333e-06)
(10.1994 -0.805559 -3.40458e-06)
(10.1994 -0.805559 -3.86228e-06)
(10.1994 -0.805559 -4.2497e-06)
(10.1994 -0.80556 -4.53933e-06)
(10.1994 -0.80556 -4.72859e-06)
(10.1994 -0.805561 -4.80741e-06)
(10.1994 -0.805562 -4.77321e-06)
(10.1994 -0.805563 -4.62371e-06)
(10.1994 -0.805563 -4.36666e-06)
(10.1994 -0.805564 -3.98836e-06)
(10.1994 -0.805565 -3.54081e-06)
(10.1994 -0.805566 -2.90476e-06)
(10.1994 -0.805566 -2.42544e-06)
(10.1995 -0.805567 -1.19908e-06)
(10.1994 -0.805564 -1.50576e-06)
(8.83371 0.617626 2.62333e-07)
(8.83375 0.617629 -2.78242e-07)
(8.83375 0.617628 -2.69398e-07)
(8.83375 0.617628 -4.87456e-07)
(8.83375 0.617628 -5.99372e-07)
(8.83375 0.617627 -7.68694e-07)
(8.83375 0.617627 -9.21852e-07)
(8.83375 0.617627 -1.08483e-06)
(8.83375 0.617626 -1.23426e-06)
(8.83374 0.617626 -1.37036e-06)
(8.83374 0.617626 -1.4795e-06)
(8.83374 0.617626 -1.55365e-06)
(8.83374 0.617627 -1.59116e-06)
(8.83374 0.617627 -1.58176e-06)
(8.83374 0.617628 -1.53534e-06)
(8.83374 0.617628 -1.45055e-06)
(8.83374 0.617629 -1.32741e-06)
(8.83374 0.617629 -1.2181e-06)
(8.83374 0.61763 -8.05962e-07)
(8.83371 0.617627 -7.36185e-07)
(8.85545 0.636099 -1.47245e-07)
(8.85549 0.636102 -5.1702e-07)
(8.85549 0.636102 -7.6127e-07)
(8.85549 0.636103 -1.03235e-06)
(8.85549 0.636103 -1.20625e-06)
(8.85549 0.636104 -1.36146e-06)
(8.85549 0.636105 -1.45421e-06)
(8.85549 0.636105 -1.50336e-06)
(8.85549 0.636106 -1.49967e-06)
(8.85549 0.636107 -1.45121e-06)
(8.85549 0.636107 -1.35876e-06)
(8.85549 0.636108 -1.2295e-06)
(8.85549 0.636108 -1.07321e-06)
(8.85549 0.636109 -8.95044e-07)
(8.85549 0.636109 -7.12139e-07)
(8.85549 0.63611 -5.27933e-07)
(8.85549 0.63611 -3.51745e-07)
(8.85548 0.636111 -2.31668e-07)
(8.85548 0.636111 -1.08875e-07)
(8.85545 0.636108 -1.07514e-07)
(8.88515 0.371987 2.7148e-08)
(8.88518 0.371989 9.97384e-08)
(8.88518 0.371989 2.36239e-07)
(8.88518 0.371989 2.76563e-07)
(8.88518 0.37199 3.10881e-07)
(8.88518 0.37199 2.7144e-07)
(8.88518 0.371991 1.94756e-07)
(8.88518 0.371991 7.38683e-08)
(8.88518 0.371992 -7.16097e-08)
(8.88518 0.371992 -2.30244e-07)
(8.88518 0.371993 -3.86257e-07)
(8.88518 0.371993 -5.25078e-07)
(8.88518 0.371994 -6.37686e-07)
(8.88518 0.371994 -7.09725e-07)
(8.88518 0.371994 -7.43238e-07)
(8.88518 0.371995 -7.24295e-07)
(8.88518 0.371995 -6.6995e-07)
(8.88518 0.371995 -5.68976e-07)
(8.88518 0.371995 -4.11359e-07)
(8.88514 0.371993 -2.22551e-07)
(8.7729 0.371438 -5.66121e-08)
(8.77293 0.37144 -2.11627e-07)
(8.77293 0.37144 -3.00755e-07)
(8.77293 0.37144 -3.99297e-07)
(8.77293 0.37144 -4.58867e-07)
(8.77293 0.37144 -5.12683e-07)
(8.77293 0.37144 -5.42315e-07)
(8.77293 0.37144 -5.56229e-07)
(8.77293 0.37144 -5.48142e-07)
(8.77293 0.37144 -5.19534e-07)
(8.77293 0.37144 -4.701e-07)
(8.77293 0.371441 -4.02202e-07)
(8.77293 0.371441 -3.19677e-07)
(8.77293 0.371441 -2.24627e-07)
(8.77293 0.371441 -1.23714e-07)
(8.77293 0.371442 -1.95664e-08)
(8.77293 0.371442 8.01506e-08)
(8.77293 0.371442 1.3912e-07)
(8.77293 0.371443 1.31743e-07)
(8.77289 0.371441 6.86934e-09)
(8.78426 0.210248 1.72129e-08)
(8.78429 0.21025 1.17918e-07)
(8.78429 0.21025 2.32768e-07)
(8.78429 0.21025 3.06831e-07)
(8.78429 0.21025 3.61086e-07)
(8.78429 0.21025 3.70986e-07)
(8.78429 0.210251 3.47809e-07)
(8.78429 0.210251 2.93378e-07)
(8.78429 0.210252 2.17558e-07)
(8.78429 0.210252 1.29563e-07)
(8.78429 0.210252 4.03763e-08)
(8.78429 0.210253 -3.98257e-08)
(8.78429 0.210253 -1.05442e-07)
(8.78429 0.210253 -1.44909e-07)
(8.78429 0.210254 -1.59473e-07)
(8.78429 0.210254 -1.3338e-07)
(8.78429 0.210254 -9.00459e-08)
(8.78429 0.210254 -2.69802e-08)
(8.78429 0.210254 6.96988e-10)
(8.78425 0.210253 -1.75897e-08)
(8.69394 0.20127 -1.8914e-09)
(8.69398 0.201271 -3.9105e-09)
(8.69398 0.201271 1.7538e-08)
(8.69398 0.20127 3.21956e-08)
(8.69398 0.20127 6.15365e-08)
(8.69398 0.20127 8.45392e-08)
(8.69398 0.201269 1.09659e-07)
(8.69398 0.201269 1.32617e-07)
(8.69398 0.201269 1.57127e-07)
(8.69398 0.201268 1.83163e-07)
(8.69398 0.201268 2.11638e-07)
(8.69398 0.201268 2.43132e-07)
(8.69398 0.201268 2.75639e-07)
(8.69398 0.201267 3.1099e-07)
(8.69398 0.201267 3.46734e-07)
(8.69398 0.201267 3.80141e-07)
(8.69398 0.201267 4.06188e-07)
(8.69397 0.201267 3.87394e-07)
(8.69397 0.201267 2.91307e-07)
(8.69394 0.201265 9.23279e-08)
(8.6966 0.0939766 -3.54544e-08)
(8.69663 0.0939771 -5.12759e-08)
(8.69663 0.093977 -6.47417e-08)
(8.69663 0.093977 -8.93837e-08)
(8.69663 0.0939769 -1.16735e-07)
(8.69663 0.0939768 -1.53899e-07)
(8.69663 0.0939767 -1.97828e-07)
(8.69663 0.0939766 -2.47374e-07)
(8.69663 0.0939765 -2.99534e-07)
(8.69663 0.0939764 -3.49104e-07)
(8.69663 0.0939764 -3.92858e-07)
(8.69663 0.0939763 -4.25244e-07)
(8.69663 0.0939762 -4.42738e-07)
(8.69663 0.0939762 -4.39161e-07)
(8.69663 0.0939761 -4.13741e-07)
(8.69663 0.093976 -3.60366e-07)
(8.69663 0.0939759 -2.86925e-07)
(8.69663 0.0939758 -1.98366e-07)
(8.69663 0.0939758 -1.1441e-07)
(8.69659 0.0939752 -3.81988e-08)
(8.65528 0.0800539 -1.69561e-08)
(8.65532 0.0800543 -5.47719e-08)
(8.65532 0.0800541 -6.91148e-08)
(8.65532 0.0800538 -8.09239e-08)
(8.65532 0.0800535 -7.26723e-08)
(8.65532 0.080053 -5.72489e-08)
(8.65532 0.0800526 -3.08906e-08)
(8.65532 0.0800521 6.66202e-10)
(8.65532 0.0800516 3.61393e-08)
(8.65532 0.0800512 7.35786e-08)
(8.65532 0.0800507 1.09544e-07)
(8.65532 0.0800502 1.44814e-07)
(8.65532 0.0800498 1.77868e-07)
(8.65532 0.0800494 2.08844e-07)
(8.65532 0.080049 2.38346e-07)
(8.65532 0.0800486 2.59604e-07)
(8.65532 0.0800482 2.74619e-07)
(8.65532 0.0800479 2.52259e-07)
(8.65532 0.0800477 2.07184e-07)
(8.65528 0.0800471 7.94441e-08)
(8.6591 0.00465527 -1.1161e-07)
(8.65913 0.00465516 -2.83132e-07)
(8.65913 0.00465487 -4.54052e-07)
(8.65913 0.00465445 -6.1453e-07)
(8.65913 0.00465392 -7.54116e-07)
(8.65913 0.00465329 -8.72296e-07)
(8.65913 0.00465258 -9.68421e-07)
(8.65913 0.00465181 -1.04471e-06)
(8.65913 0.00465101 -1.10401e-06)
(8.65913 0.00465018 -1.1455e-06)
(8.65913 0.00464935 -1.17112e-06)
(8.65913 0.00464852 -1.1783e-06)
(8.65913 0.00464772 -1.16388e-06)
(8.65913 0.00464697 -1.1253e-06)
(8.65913 0.00464626 -1.058e-06)
(8.65913 0.00464562 -9.65516e-07)
(8.65913 0.00464506 -8.31581e-07)
(8.65913 0.0046446 -6.71271e-07)
(8.65913 0.00464425 -4.22736e-07)
(8.6591 0.00464408 -1.19068e-07)
(8.65756 -0.0217622 -1.43027e-07)
(8.6576 -0.0217625 -4.20795e-07)
(8.6576 -0.0217628 -6.69477e-07)
(8.6576 -0.0217632 -8.90278e-07)
(8.6576 -0.0217637 -1.06801e-06)
(8.6576 -0.0217642 -1.20418e-06)
(8.6576 -0.0217649 -1.29601e-06)
(8.6576 -0.0217656 -1.34916e-06)
(8.6576 -0.0217662 -1.36834e-06)
(8.6576 -0.0217669 -1.3566e-06)
(8.6576 -0.0217676 -1.31934e-06)
(8.6576 -0.0217682 -1.25698e-06)
(8.6576 -0.0217688 -1.17011e-06)
(8.6576 -0.0217694 -1.06028e-06)
(8.6576 -0.0217699 -9.26122e-07)
(8.6576 -0.0217703 -7.81485e-07)
(8.6576 -0.0217706 -6.12861e-07)
(8.6576 -0.0217708 -4.57213e-07)
(8.6576 -0.021771 -2.27248e-07)
(8.65756 -0.0217709 -3.76435e-08)
(8.67248 -0.0828191 -2.13149e-07)
(8.67251 -0.0828198 -6.2959e-07)
(8.67251 -0.0828201 -1.01827e-06)
(8.67251 -0.0828205 -1.3688e-06)
(8.67251 -0.082821 -1.66304e-06)
(8.67251 -0.0828217 -1.9e-06)
(8.67251 -0.0828224 -2.07702e-06)
(8.67251 -0.0828232 -2.19893e-06)
(8.67251 -0.0828241 -2.27076e-06)
(8.67251 -0.0828251 -2.29656e-06)
(8.67251 -0.082826 -2.28071e-06)
(8.67251 -0.0828269 -2.22445e-06)
(8.67251 -0.0828279 -2.1276e-06)
(8.67251 -0.0828287 -1.98998e-06)
(8.67251 -0.0828295 -1.80764e-06)
(8.67251 -0.0828302 -1.59389e-06)
(8.67251 -0.0828308 -1.32382e-06)
(8.67251 -0.0828313 -1.03445e-06)
(8.67251 -0.0828316 -6.12442e-07)
(8.67248 -0.0828312 -1.6811e-07)
(8.70699 -0.113723 -2.85598e-07)
(8.70703 -0.113724 -7.95234e-07)
(8.70703 -0.113724 -1.27449e-06)
(8.70703 -0.113725 -1.7112e-06)
(8.70703 -0.113725 -2.08829e-06)
(8.70703 -0.113726 -2.39915e-06)
(8.70703 -0.113727 -2.64039e-06)
(8.70703 -0.113728 -2.81257e-06)
(8.70703 -0.113728 -2.91925e-06)
(8.70703 -0.113729 -2.96049e-06)
(8.70703 -0.11373 -2.93913e-06)
(8.70703 -0.113731 -2.85398e-06)
(8.70703 -0.113732 -2.70438e-06)
(8.70703 -0.113732 -2.4937e-06)
(8.70703 -0.113733 -2.21919e-06)
(8.70703 -0.113733 -1.90393e-06)
(8.70703 -0.113733 -1.52936e-06)
(8.70703 -0.113734 -1.1478e-06)
(8.70703 -0.113734 -6.36336e-07)
(8.70699 -0.113733 -1.39767e-07)
(8.73155 -0.192767 -3.36322e-07)
(8.73159 -0.192768 -1.03994e-06)
(8.73159 -0.192768 -1.6777e-06)
(8.73159 -0.192769 -2.25459e-06)
(8.73159 -0.192769 -2.74211e-06)
(8.73159 -0.192769 -3.13947e-06)
(8.73159 -0.192769 -3.43707e-06)
(8.73159 -0.19277 -3.6381e-06)
(8.73159 -0.19277 -3.74364e-06)
(8.73159 -0.192771 -3.75787e-06)
(8.73159 -0.192771 -3.68618e-06)
(8.73159 -0.192772 -3.53178e-06)
(8.73159 -0.192772 -3.29879e-06)
(8.73159 -0.192773 -2.99394e-06)
(8.73159 -0.192773 -2.62219e-06)
(8.73159 -0.192774 -2.20663e-06)
(8.73159 -0.192774 -1.73661e-06)
(8.73159 -0.192774 -1.27526e-06)
(8.73159 -0.192775 -6.87278e-07)
(8.73155 -0.192774 -1.78429e-07)
(8.80999 -0.216122 -3.58506e-07)
(8.81003 -0.216123 -9.61659e-07)
(8.81003 -0.216123 -1.53998e-06)
(8.81003 -0.216123 -2.08234e-06)
(8.81003 -0.216123 -2.56794e-06)
(8.81003 -0.216123 -2.98659e-06)
(8.81003 -0.216124 -3.33069e-06)
(8.81003 -0.216124 -3.59574e-06)
(8.81003 -0.216124 -3.77959e-06)
(8.81003 -0.216124 -3.87853e-06)
(8.81003 -0.216124 -3.88979e-06)
(8.81003 -0.216124 -3.80955e-06)
(8.81003 -0.216124 -3.63486e-06)
(8.81003 -0.216124 -3.36718e-06)
(8.81003 -0.216124 -3.00556e-06)
(8.81003 -0.216124 -2.57552e-06)
(8.81003 -0.216124 -2.06395e-06)
(8.81003 -0.216124 -1.53271e-06)
(8.81003 -0.216124 -8.78306e-07)
(8.80999 -0.216123 -2.13841e-07)
(8.83389 -0.347143 -3.4649e-07)
(8.83393 -0.347145 -1.11933e-06)
(8.83393 -0.347145 -1.7937e-06)
(8.83393 -0.347145 -2.41312e-06)
(8.83393 -0.347146 -2.93368e-06)
(8.83393 -0.347146 -3.36506e-06)
(8.83393 -0.347146 -3.68868e-06)
(8.83393 -0.347147 -3.90465e-06)
(8.83393 -0.347148 -4.01115e-06)
(8.83393 -0.347148 -4.01081e-06)
(8.83393 -0.347149 -3.90852e-06)
(8.83393 -0.34715 -3.70972e-06)
(8.83393 -0.34715 -3.42239e-06)
(8.83393 -0.347151 -3.05602e-06)
(8.83393 -0.347152 -2.62563e-06)
(8.83393 -0.347153 -2.15719e-06)
(8.83393 -0.347153 -1.64723e-06)
(8.83393 -0.347154 -1.17971e-06)
(8.83393 -0.347154 -6.28646e-07)
(8.83389 -0.347153 -1.87055e-07)
(8.96531 -0.35518 -4.09523e-07)
(8.96535 -0.355182 -1.10807e-06)
(8.96535 -0.355182 -1.78782e-06)
(8.96535 -0.355182 -2.46746e-06)
(8.96535 -0.355182 -3.09864e-06)
(8.96535 -0.355182 -3.67168e-06)
(8.96535 -0.355182 -4.16595e-06)
(8.96535 -0.355182 -4.57519e-06)
(8.96535 -0.355182 -4.88718e-06)
(8.96535 -0.355182 -5.09357e-06)
(8.96535 -0.355182 -5.1854e-06)
(8.96535 -0.355182 -5.15566e-06)
(8.96535 -0.355182 -4.99797e-06)
(8.96535 -0.355182 -4.71258e-06)
(8.96535 -0.355182 -4.30121e-06)
(8.96535 -0.355182 -3.78306e-06)
(8.96535 -0.355181 -3.15395e-06)
(8.96535 -0.355181 -2.45587e-06)
(8.96535 -0.355181 -1.5477e-06)
(8.96531 -0.355179 -4.79159e-07)
(8.97124 -0.578417 -3.39575e-07)
(8.97128 -0.57842 -1.14766e-06)
(8.97128 -0.57842 -1.79881e-06)
(8.97128 -0.578421 -2.42562e-06)
(8.97128 -0.578421 -2.95211e-06)
(8.97128 -0.578421 -3.39429e-06)
(8.97128 -0.578422 -3.72088e-06)
(8.97128 -0.578422 -3.93601e-06)
(8.97128 -0.578423 -4.03275e-06)
(8.97128 -0.578424 -4.01472e-06)
(8.97128 -0.578425 -3.88915e-06)
(8.97128 -0.578425 -3.66379e-06)
(8.97128 -0.578426 -3.35289e-06)
(8.97128 -0.578427 -2.97226e-06)
(8.97128 -0.578428 -2.53817e-06)
(8.97128 -0.578429 -2.08609e-06)
(8.97128 -0.57843 -1.59597e-06)
(8.97128 -0.578431 -1.12474e-06)
(8.97128 -0.578431 -5.69333e-07)
(8.97124 -0.578428 -1.94818e-07)
(9.12105 -0.563212 -4.50312e-07)
(9.12109 -0.563215 -1.2956e-06)
(9.12109 -0.563215 -2.05998e-06)
(9.12109 -0.563215 -2.90996e-06)
(9.12109 -0.563215 -3.67693e-06)
(9.12109 -0.563215 -4.41625e-06)
(9.12109 -0.563215 -5.06613e-06)
(9.12109 -0.563214 -5.63089e-06)
(9.12109 -0.563214 -6.08417e-06)
(9.12109 -0.563214 -6.41452e-06)
(9.12109 -0.563213 -6.60708e-06)
(9.12109 -0.563213 -6.65331e-06)
(9.12109 -0.563212 -6.53979e-06)
(9.12109 -0.563212 -6.2647e-06)
(9.12109 -0.563211 -5.81609e-06)
(9.12109 -0.56321 -5.21499e-06)
(9.12109 -0.56321 -4.42723e-06)
(9.12109 -0.563209 -3.51747e-06)
(9.12109 -0.563209 -2.28618e-06)
(9.12105 -0.563205 -8.14196e-07)
(9.08361 -0.945056 -3.27142e-07)
(9.08365 -0.945061 -1.13099e-06)
(9.08365 -0.945061 -1.69329e-06)
(9.08365 -0.945061 -2.28823e-06)
(9.08365 -0.945062 -2.72461e-06)
(9.08365 -0.945062 -3.09837e-06)
(9.08365 -0.945062 -3.34063e-06)
(9.08365 -0.945062 -3.47346e-06)
(9.08365 -0.945062 -3.48327e-06)
(9.08365 -0.945063 -3.37819e-06)
(9.08365 -0.945063 -3.16904e-06)
(9.08365 -0.945063 -2.87031e-06)
(9.08365 -0.945063 -2.4965e-06)
(9.08365 -0.945064 -2.07504e-06)
(9.08365 -0.945064 -1.61362e-06)
(9.08365 -0.945064 -1.16514e-06)
(9.08365 -0.945064 -6.73955e-07)
(9.08365 -0.945064 -3.32432e-07)
(9.08365 -0.945065 2.35176e-07)
(9.08362 -0.94506 2.18944e-07)
(9.01578 -0.88586 -6.91508e-07)
(9.01581 -0.885864 -1.57334e-06)
(9.01581 -0.885864 -2.23159e-06)
(9.01581 -0.885865 -3.19466e-06)
(9.01581 -0.885865 -3.98516e-06)
(9.01581 -0.885866 -4.77928e-06)
(9.01581 -0.885867 -5.46024e-06)
(9.01581 -0.885869 -6.05465e-06)
(9.01581 -0.885871 -6.52143e-06)
(9.01581 -0.885873 -6.85167e-06)
(9.01581 -0.885875 -7.03477e-06)
(9.01581 -0.885877 -7.07104e-06)
(9.01581 -0.88588 -6.94386e-06)
(9.01581 -0.885883 -6.65555e-06)
(9.01581 -0.885886 -6.19117e-06)
(9.01581 -0.885888 -5.5894e-06)
(9.01581 -0.885891 -4.75802e-06)
(9.01581 -0.885893 -3.85036e-06)
(9.01581 -0.885896 -2.40077e-06)
(9.01578 -0.885893 -7.53546e-07)
(8.89574 0.711169 7.16589e-08)
(8.89578 0.711172 -3.70838e-07)
(8.89577 0.711172 -1.9464e-07)
(8.89577 0.711172 -3.16666e-07)
(8.89577 0.711171 -3.37019e-07)
(8.89577 0.711171 -4.39693e-07)
(8.89577 0.711171 -5.25335e-07)
(8.89577 0.71117 -6.29635e-07)
(8.89577 0.71117 -7.24634e-07)
(8.89577 0.711169 -8.11357e-07)
(8.89577 0.711169 -8.78826e-07)
(8.89577 0.711169 -9.20785e-07)
(8.89577 0.711169 -9.36102e-07)
(8.89577 0.711169 -9.21884e-07)
(8.89577 0.711169 -8.85846e-07)
(8.89577 0.711169 -8.3483e-07)
(8.89577 0.711169 -7.60543e-07)
(8.89577 0.711169 -7.16427e-07)
(8.89577 0.711169 -3.37714e-07)
(8.89573 0.711165 -4.23726e-07)
(8.75585 0.730262 -2.9996e-07)
(8.75589 0.730266 -5.0263e-07)
(8.75589 0.730266 -6.24788e-07)
(8.75589 0.730266 -8.11961e-07)
(8.75589 0.730267 -9.42159e-07)
(8.75588 0.730267 -1.08301e-06)
(8.75588 0.730267 -1.18536e-06)
(8.75588 0.730268 -1.26561e-06)
(8.75588 0.730269 -1.30891e-06)
(8.75588 0.730269 -1.31824e-06)
(8.75588 0.73027 -1.29049e-06)
(8.75588 0.73027 -1.22799e-06)
(8.75588 0.73027 -1.13583e-06)
(8.75588 0.730271 -1.01556e-06)
(8.75588 0.730271 -8.7898e-07)
(8.75588 0.730272 -7.3399e-07)
(8.75588 0.730272 -5.80611e-07)
(8.75588 0.730272 -4.44122e-07)
(8.75588 0.730272 -2.76567e-07)
(8.75584 0.730269 -5.70333e-08)
(8.79106 0.437447 -1.36685e-07)
(8.7911 0.43745 4.73412e-08)
(8.7911 0.43745 2.21594e-07)
(8.7911 0.43745 3.0744e-07)
(8.7911 0.43745 3.88897e-07)
(8.7911 0.437451 3.89826e-07)
(8.7911 0.437451 3.5607e-07)
(8.7911 0.437452 2.77979e-07)
(8.7911 0.437452 1.76384e-07)
(8.7911 0.437453 6.19434e-08)
(8.79109 0.437454 -5.10891e-08)
(8.79109 0.437454 -1.50048e-07)
(8.79109 0.437455 -2.29477e-07)
(8.79109 0.437455 -2.77189e-07)
(8.79109 0.437456 -2.98334e-07)
(8.79109 0.437456 -2.76979e-07)
(8.79109 0.437457 -2.32521e-07)
(8.79109 0.437457 -1.71399e-07)
(8.79109 0.437458 -1.18386e-07)
(8.79105 0.437456 9.84337e-09)
(8.67986 0.439625 -9.0225e-08)
(8.6799 0.439627 -1.6085e-07)
(8.6799 0.439627 -1.88459e-07)
(8.67989 0.439627 -2.29035e-07)
(8.67989 0.439627 -2.49985e-07)
(8.67989 0.439628 -2.78204e-07)
(8.67989 0.439628 -2.95641e-07)
(8.67989 0.439628 -3.08078e-07)
(8.67989 0.439628 -3.0728e-07)
(8.67989 0.439629 -2.91679e-07)
(8.67989 0.439629 -2.59208e-07)
(8.67989 0.439629 -2.1059e-07)
(8.67989 0.43963 -1.48784e-07)
(8.67989 0.43963 -7.38241e-08)
(8.67989 0.43963 1.11431e-08)
(8.67989 0.439631 1.05532e-07)
(8.67989 0.439631 2.07737e-07)
(8.67989 0.439631 2.82599e-07)
(8.67989 0.439631 2.48227e-07)
(8.67985 0.43963 8.93434e-08)
(8.69448 0.249867 1.44008e-08)
(8.69452 0.249869 2.06967e-07)
(8.69452 0.249869 3.99183e-07)
(8.69451 0.249869 5.51266e-07)
(8.69451 0.249869 6.72212e-07)
(8.69451 0.249869 7.38475e-07)
(8.69451 0.24987 7.60838e-07)
(8.69451 0.24987 7.40115e-07)
(8.69451 0.249871 6.87925e-07)
(8.69451 0.249871 6.16193e-07)
(8.69451 0.249871 5.34287e-07)
(8.69451 0.249872 4.53644e-07)
(8.69451 0.249872 3.7967e-07)
(8.69451 0.249872 3.25643e-07)
(8.69451 0.249873 2.89468e-07)
(8.69451 0.249873 2.94046e-07)
(8.69451 0.249873 3.08749e-07)
(8.69451 0.249873 3.25407e-07)