/*--------------------------------*- C++ -*----------------------------------*\
| =========                 |                                                 |
| \\      /  F ield         | OpenFOAM: The Open Source CFD Toolbox           |
|  \\    /   O peration     | Version:  2212                                  |
|   \\  /    A nd           | Website:  www.openfoam.com                      |
|    \\/     M anipulation  |                                                 |
\*---------------------------------------------------------------------------*/
FoamFile
{
    version     2.0;
    format      ascii;
    arch        "LSB;label=32;scalar=64";
    class       volScalarField;
    location    "0.0115";
    object      nut;
}
// * * * * * * * * * * * * * * * * * * * * * * * * * * * * * * * * * * * * * //

dimensions      [0 2 -1 0 0 0 0];

internalField   nonuniform List<scalar> 
44662
(
0.296875
0.305465
0.305896
0.304212
0.304966
0.249267
0.297471
0.23882
0.310695
0.29942
0.26321
0.0760703
0.296253
0.186284
0.00927995
0.0935162
0.00827871
0.00886589
0.190908
0.302916
0.30029
0.0083756
0.285427
0.321335
0.0134733
0.190804
0.295027
0.157322
0.304121
0.181851
0.00869694
0.205827
0.0104102
0.147648
0.0296351
0.32213
0.154474
0.121881
0.190439
0.295092
0.284141
0.184599
0.0341205
0.247791
0.267028
0.2728
0.0861519
0.31446
0.272647
0.27495
0.303197
0.0626886
0.198143
0.01921
0.303169
0.274641
0.194206
0.0438416
0.273589
0.269569
0.269594
0.0351029
0.296184
0.154877
0.314029
0.264495
0.0308771
0.0125555
0.152518
0.205548
0.0227538
0.0441324
0.0899188
0.260425
0.194099
0.235201
0.0700469
0.273768
0.264796
0.0286128
0.275934
0.184156
0.312327
0.15187
0.279337
0.308293
0.174704
0.293343
0.230861
0.297727
0.154921
0.165301
0.319474
0.0705077
0.257213
0.220653
0.083685
0.247106
0.296997
0.316141
0.309607
0.293545
0.28553
0.0448652
0.29531
0.134811
0.294467
0.272895
0.318193
0.304809
0.293537
0.301693
0.293679
0.318207
0.108693
0.292377
0.259298
0.3093
0.0397601
0.291116
0.286984
0.290046
0.233991
0.290023
0.287895
0.30414
0.288876
0.285551
0.299545
0.287513
0.283025
0.203874
0.255542
0.2527
0.28574
0.280353
0.23858
0.235326
0.283632
0.277567
0.23348
0.281271
0.0888814
0.0682646
0.278697
0.299404
0.30717
0.306636
0.302515
0.311275
0.299408
0.302699
0.275
0.0223387
0.296921
0.300825
0.295375
0.309896
0.31018
0.310466
0.310755
0.311046
0.311338
0.311631
0.311928
0.31223
0.312536
0.312847
0.313163
0.313484
0.313808
0.314137
0.314471
0.31481
0.315154
0.315503
0.315856
0.316216
0.316581
0.316952
0.317328
0.317711
0.3181
0.318495
0.318896
0.319305
0.31972
0.320142
0.320572
0.321009
0.321454
0.321907
0.322368
0.322837
0.323313
0.323798
0.324292
0.324794
0.325306
0.325826
0.326355
0.326893
0.32744
0.327998
0.328566
0.329146
0.328514
0.329092
0.327947
0.0264707
0.309616
0.309897
0.309619
0.329737
0.330339
0.330279
0.32968
0.326846
0.327392
0.325782
0.326309
0.324754
0.325264
0.323761
0.324253
0.3228
0.323276
0.321872
0.322332
0.320976
0.32142
0.320113
0.32054
0.31928
0.319693
0.318474
0.318874
0.317692
0.31808
0.316936
0.317311
0.316202
0.316566
0.315491
0.315844
0.314802
0.315144
0.314133
0.314465
0.31348
0.313804
0.312845
0.313161
0.312227
0.312533
0.311628
0.311925
0.311041
0.311334
0.310461
0.310751
0.310175
0.310464
0.310179
0.31104
0.310751
0.311627
0.311332
0.312226
0.311925
0.312842
0.312531
0.313476
0.313157
0.314128
0.3138
0.314799
0.314461
0.31549
0.315142
0.316202
0.315843
0.316936
0.316566
0.317694
0.317312
0.318476
0.318082
0.319284
0.318877
0.32012
0.319698
0.320984
0.320548
0.321878
0.321427
0.322804
0.322337
0.323763
0.32328
0.324756
0.324255
0.325784
0.325266
0.326848
0.326311
0.32795
0.327394
0.329092
0.328516
0.33028
0.32968
0.328356
0.328927
0.327795
0.0346637
0.0282617
0.309893
0.309618
0.330888
0.330096
0.330695
0.330094
0.33089
0.330696
0.309346
0.309341
0.329507
0.326704
0.327245
0.325651
0.326173
0.324634
0.325138
0.323651
0.324138
0.322701
0.323172
0.321782
0.322238
0.320895
0.321335
0.320038
0.320463
0.319211
0.319621
0.318411
0.318808
0.317637
0.318021
0.316886
0.317258
0.316159
0.31652
0.315453
0.315803
0.314768
0.315108
0.314103
0.314433
0.313455
0.313777
0.312827
0.313139
0.312213
0.312519
0.311613
0.311911
0.311028
0.311319
0.310451
0.310739
0.310166
0.304219
0.330952
0.310454
0.310172
0.311026
0.310739
0.311608
0.311315
0.312204
0.311904
0.312817
0.312508
0.313447
0.31313
0.314096
0.313769
0.314763
0.314427
0.315449
0.315103
0.316157
0.3158
0.316886
0.316518
0.317638
0.317259
0.318415
0.318024
0.319217
0.318813
0.320045
0.319627
0.320901
0.320469
0.321787
0.32134
0.322705
0.322242
0.323655
0.323176
0.324638
0.324142
0.325654
0.325141
0.326706
0.326175
0.327794
0.327245
0.328922
0.328353
0.329503
0.309348
0.330363
0.32978
0.32808
0.328639
0.32753
0.33151
0.331308
0.309339
0.309082
0.309079
0.309074
0.330954
0.329868
0.330435
0.308818
0.308823
0.329206
0.326458
0.326989
0.325424
0.325937
0.324426
0.324921
0.323461
0.323939
0.322528
0.32299
0.321625
0.322072
0.320751
0.321184
0.319906
0.320324
0.31909
0.319494
0.318302
0.318693
0.317539
0.317918
0.316799
0.317166
0.316081
0.316438
0.315384
0.31573
0.314707
0.315043
0.314048
0.314375
0.313408
0.313726
0.312785
0.313094
0.312179
0.31248
0.311585
0.311881
0.311004
0.311292
0.310433
0.310718
0.312816
0.31015
0.331507
0.331575
0.331304
0.308823
0.309343
0.309081
0.309881
0.30961
0.310434
0.310156
0.311
0.310716
0.311575
0.311285
0.312167
0.311869
0.312773
0.312468
0.313397
0.313083
0.314039
0.313716
0.314699
0.314366
0.315377
0.315035
0.316076
0.315724
0.316797
0.316434
0.31754
0.317166
0.318306
0.31792
0.319097
0.318699
0.319913
0.319502
0.320756
0.320331
0.321628
0.321189
0.322531
0.322076
0.323464
0.322994
0.324429
0.323943
0.325427
0.324924
0.326458
0.325938
0.327523
0.326986
0.328627
0.32807
0.329772
0.329194
0.330956
0.330359
0.308568
0.308571
0.309336
0.32931
0.309074
0.331556
0.331012
0.329182
0.329716
0.330431
0.331561
0.331014
0.308813
0.308563
0.30832
0.327132
0.327666
0.328208
0.308323
0.309316
0.309329
0.328756
0.32609
0.326606
0.325085
0.325583
0.324114
0.324595
0.323175
0.32364
0.322267
0.322717
0.321386
0.321823
0.320532
0.320956
0.319704
0.320115
0.318906
0.319302
0.318136
0.318518
0.317391
0.317761
0.316666
0.317026
0.315961
0.316311
0.315276
0.315617
0.314611
0.314941
0.313963
0.314284
0.313332
0.313646
0.312718
0.313023
0.312119
0.312417
0.311533
0.311824
0.310961
0.311245
0.310404
0.310682
0.308519
0.310125
0.299637
0.33214
0.331929
0.332136
0.332207
0.331923
0.308322
0.308816
0.308566
0.309328
0.309069
0.309857
0.30959
0.3104
0.310127
0.310956
0.310677
0.311525
0.311239
0.312108
0.311815
0.312706
0.312405
0.31332
0.313011
0.313951
0.313634
0.3146
0.314274
0.315267
0.314931
0.315954
0.315608
0.316661
0.316305
0.31739
0.317023
0.318141
0.317762
0.318915
0.318525
0.319713
0.319311
0.320537
0.320122
0.321388
0.320959
0.322268
0.321824
0.323177
0.322719
0.324115
0.323642
0.325085
0.324596
0.326085
0.325581
0.327118
0.326597
0.328185
0.327647
0.32929
0.328733
0.329856
0.308081
0.308082
0.30907
0.328655
0.327087
0.327606
0.326575
0.330259
0.332175
0.331605
0.309292
0.309055
0.309035
0.308812
0.308557
0.308314
0.308076
0.307843
0.307847
0.309065
0.328129
0.325574
0.32607
0.324608
0.325087
0.323675
0.324138
0.322773
0.32322
0.321898
0.322332
0.321049
0.32147
0.320222
0.320632
0.319419
0.319817
0.318645
0.319028
0.3179
0.318269
0.317178
0.317536
0.316474
0.316824
0.315788
0.316128
0.31512
0.315452
0.314471
0.314793
0.313838
0.314152
0.313221
0.313527
0.312619
0.312918
0.312031
0.312323
0.311455
0.311741
0.310894
0.311172
0.31035
0.310618
0.309817
0.310085
0.309552
0.332779
0.332559
0.332775
0.33285
0.332168
0.332552
0.330812
0.331599
0.307842
0.308309
0.308074
0.308795
0.30855
0.309296
0.309043
0.309815
0.309554
0.310346
0.310079
0.310892
0.310617
0.311449
0.311169
0.31202
0.311733
0.312606
0.312311
0.313207
0.312904
0.313824
0.313513
0.314458
0.314139
0.315109
0.314781
0.315778
0.315441
0.316466
0.31612
0.317175
0.316818
0.317904
0.317537
0.318655
0.318277
0.319429
0.319039
0.320226
0.319825
0.321048
0.320634
0.321896
0.321469
0.322771
0.32233
0.323674
0.323219
0.324604
0.324135
0.325563
0.32508
0.32655
0.326052
0.327568
0.327055
0.328619
0.328089
0.329702
0.329156
0.330814
0.330254
0.307616
0.307615
0.308782
0.308798
0.308809
0.328263
0.328756
0.327775
0.308557
0.331376
0.329764
0.330283
0.329759
0.331381
0.330284
0.308754
0.308533
0.30851
0.308308
0.308069
0.307836
0.30761
0.30739
0.326795
0.326308
0.325824
0.307393
0.308806
0.329255
0.327286
0.324877
0.325346
0.323963
0.324416
0.32308
0.323518
0.322225
0.32265
0.321395
0.321807
0.320587
0.320989
0.319797
0.32019
0.319027
0.319409
0.318285
0.318652
0.317574
0.317926
0.316883
0.317226
0.316207
0.316543
0.315546
0.315874
0.314902
0.315222
0.314273
0.314585
0.31366
0.313965
0.313062
0.31336
0.312478
0.312768
0.311904
0.312189
0.311343
0.311622
0.310797
0.311068
0.310264
0.310529
0.309759
0.310008
0.30925
0.309504
0.309
0.332799
0.332205
0.333428
0.333198
0.333424
0.333502
0.33279
0.333191
0.332196
0.307384
0.307823
0.307601
0.30828
0.30805
0.308754
0.308515
0.309243
0.308996
0.309748
0.309495
0.310264
0.310003
0.310795
0.310528
0.311338
0.311065
0.311894
0.311615
0.312463
0.312177
0.313046
0.312753
0.313644
0.313343
0.314258
0.313949
0.314887
0.31457
0.315533
0.315208
0.316196
0.315862
0.316878
0.316535
0.317578
0.317226
0.318299
0.317936
0.319039
0.318666
0.319801
0.319417
0.320584
0.32019
0.32139
0.320984
0.32222
0.321802
0.323075
0.322644
0.323953
0.323511
0.324856
0.324402
0.325784
0.325317
0.326738
0.326257
0.327719
0.327225
0.328726
0.328219
0.32924
0.307175
0.307171
0.308545
0.308554
0.327062
0.327502
0.326623
0.325282
0.325731
0.324836
0.328401
0.328864
0.331956
0.330815
0.308266
0.308286
0.308307
0.308062
0.307829
0.307603
0.307383
0.307169
0.306962
0.306963
0.308551
0.327947
0.326179
0.323958
0.324393
0.323111
0.32353
0.322293
0.322698
0.321499
0.321893
0.320727
0.32111
0.319972
0.320347
0.319229
0.319599
0.318501
0.318862
0.317802
0.318147
0.317135
0.317465
0.316485
0.316808
0.315844
0.316163
0.315216
0.315529
0.314602
0.314908
0.314002
0.314301
0.313416
0.313707
0.312842
0.313127
0.31228
0.31256
0.311728
0.312003
0.311186
0.311455
0.310659
0.31092
0.310148
0.310402
0.309651
0.309897
0.30918
0.309414
0.308702
0.30894
0.308239
0.308469
0.308017
0.308012
0.333431
0.332813
0.334087
0.333848
0.334083
0.334164
0.333423
0.333841
0.331949
0.332804
0.329336
0.330811
0.306948
0.307357
0.30715
0.307783
0.307568
0.308227
0.308003
0.308687
0.308455
0.309159
0.308921
0.309646
0.3094
0.310145
0.309894
0.310657
0.3104
0.311181
0.310918
0.311716
0.311447
0.312263
0.311988
0.312823
0.312542
0.313397
0.313108
0.313984
0.313688
0.314584
0.314282
0.3152
0.31489
0.31583
0.315513
0.316477
0.316152
0.31714
0.316806
0.317819
0.317477
0.318517
0.318166
0.319232
0.318872
0.319965
0.319596
0.320717
0.320339
0.32149
0.321101
0.322282
0.321883
0.323094
0.322685
0.323925
0.323507
0.324777
0.324348
0.325648
0.32521
0.326541
0.326092
0.327454
0.326995
0.328385
0.327917
0.329335
0.328858
0.30676
0.306751
0.308297
0.308304
0.325521
0.325896
0.325142
0.323959
0.324358
0.323559
0.308042
0.308062
0.329816
0.327456
0.327865
0.327448
0.329816
0.327859
0.307692
0.307773
0.307823
0.307595
0.307374
0.30716
0.306953
0.306755
0.30656
0.306562
0.308302
0.326661
0.327055
0.326275
0.324753
0.322768
0.32316
0.322004
0.322382
0.321267
0.321632
0.320551
0.320907
0.319852
0.3202
0.319164
0.319507
0.318482
0.318823
0.317809
0.318143
0.317165
0.317483
0.316553
0.316856
0.315954
0.316253
0.315361
0.315657
0.314775
0.315067
0.3142
0.314486
0.313636
0.313917
0.313084
0.313359
0.312542
0.312812
0.31201
0.312275
0.311485
0.311747
0.310968
0.311225
0.310467
0.310715
0.309982
0.310223
0.309511
0.309745
0.309049
0.309278
0.308612
0.308829
0.308176
0.308393
0.307773
0.307969
0.307485
0.307413
0.307594
0.332538
0.331353
0.334073
0.333429
0.334757
0.334507
0.334753
0.334837
0.334065
0.3345
0.332531
0.333421
0.331348
0.306198
0.306536
0.306376
0.306362
0.30691
0.30672
0.307303
0.307104
0.307714
0.307507
0.308141
0.307925
0.308577
0.308358
0.309032
0.308803
0.309498
0.309264
0.309976
0.309736
0.310464
0.310218
0.310962
0.310712
0.311471
0.311215
0.31199
0.311729
0.31252
0.312254
0.313061
0.312789
0.313614
0.313336
0.314178
0.313895
0.314754
0.314465
0.315343
0.315047
0.315944
0.315642
0.316559
0.31625
0.317187
0.316871
0.317828
0.317506
0.318484
0.318155
0.319154
0.318817
0.319838
0.319494
0.320537
0.320186
0.321251
0.320892
0.321979
0.321613
0.322721
0.322348
0.323476
0.323097
0.324245
0.323859
0.325028
0.324635
0.325824
0.325424
0.326631
0.326226
0.327038
0.308055
0.30806
0.323571
0.323871
0.323263
0.3251
0.325422
0.330302
0.328274
0.307807
0.307823
0.307541
0.307589
0.307219
0.307285
0.307366
0.30715
0.306942
0.306742
0.306552
0.306371
0.306199
0.30606
0.306044
0.322616
0.322278
0.321933
0.308059
0.324473
0.324783
0.32417
0.322945
0.321249
0.321589
0.320587
0.320915
0.319952
0.320267
0.319334
0.319642
0.318726
0.319029
0.318122
0.318423
0.317516
0.317819
0.316912
0.317212
0.316336
0.31662
0.315793
0.316062
0.31526
0.315526
0.314725
0.314992
0.314193
0.314458
0.313667
0.313929
0.31315
0.313408
0.312641
0.312895
0.31214
0.31239
0.311645
0.311892
0.311155
0.311399
0.31067
0.310912
0.310201
0.310433
0.30975
0.309974
0.309311
0.30953
0.308881
0.309095
0.30846
0.30867
0.308055
0.308255
0.307666
0.307857
0.307307
0.307485
0.307031
0.306941
0.307122
0.333128
0.331897
0.334725
0.334054
0.335437
0.335177
0.335433
0.335521
0.334717
0.33517
0.333121
0.334047
0.330301
0.331892
0.325748
0.328278
0.30648
0.306306
0.30684
0.306658
0.307214
0.307025
0.307604
0.30741
0.308004
0.307803
0.308422
0.308212
0.308851
0.308635
0.30929
0.30907
0.309739
0.309514
0.310197
0.309967
0.310663
0.310429
0.311138
0.3109
0.311622
0.311379
0.312114
0.311867
0.312614
0.312363
0.313123
0.312868
0.313641
0.313381
0.314168
0.313903
0.314703
0.314434
0.315247
0.314974
0.315801
0.315523
0.316364
0.316081
0.316936
0.316648
0.317517
0.317225
0.318107
0.317811
0.318706
0.318405
0.319314
0.319009
0.31993
0.319621
0.320554
0.320241
0.321185
0.320869
0.321823
0.321504
0.322466
0.322144
0.323115
0.32279
0.323768
0.323441
0.324424
0.324096
0.32508
0.324752
0.325737
0.325409
0.30782
0.307822
0.321139
0.321349
0.320922
0.320169
0.320434
0.319892
0.307576
0.30759
0.326074
0.322625
0.322845
0.322607
0.326065
0.322829
0.30733
0.30736
0.307088
0.307142
0.306766
0.306846
0.306931
0.306728
0.306537
0.306357
0.306186
0.306028
0.305898
0.305887
0.307823
0.322185
0.322405
0.321758
0.321969
0.321553
0.320685
0.319338
0.319614
0.318802
0.319067
0.318291
0.318544
0.317791
0.31804
0.317293
0.317542
0.316793
0.317044
0.316281
0.316539
0.315764
0.316021
0.315272
0.315513
0.314814
0.315041
0.314362
0.314589
0.3139
0.314132
0.313434
0.313667
0.312971
0.313202
0.312512
0.312741
0.312058
0.312285
0.311608
0.311832
0.31116
0.311384
0.310713
0.310937
0.310269
0.310489
0.309839
0.310051
0.309431
0.309633
0.309031
0.30923
0.308637
0.308833
0.308248
0.308442
0.307868
0.308057
0.307501
0.307682
0.307159
0.307327
0.306817
0.30699
0.306595
0.306486
0.306647
0.330792
0.32869
0.333725
0.332446
0.335386
0.334688
0.336128
0.335856
0.336124
0.336216
0.335379
0.335851
0.33372
0.334682
0.330791
0.332443
0.328695
0.30574
0.305716
0.306042
0.305871
0.306384
0.306214
0.306727
0.306555
0.307074
0.306899
0.307437
0.307252
0.307812
0.307623
0.3082
0.308005
0.308597
0.308398
0.309003
0.308799
0.309416
0.309209
0.309836
0.309625
0.310262
0.310048
0.310695
0.310478
0.311133
0.310913
0.311577
0.311354
0.312026
0.311801
0.312481
0.312253
0.31294
0.31271
0.313404
0.313172
0.313873
0.313638
0.314347
0.314109
0.314825
0.314585
0.315306
0.315065
0.315792
0.315549
0.316281
0.316036
0.316773
0.316527
0.317268
0.31702
0.317764
0.317516
0.318261
0.318013
0.318759
0.31851
0.319256
0.319007
0.319751
0.319503
0.320242
0.319997
0.320729
0.320486
0.321212
0.320971
0.321687
0.32145
0.322152
0.321921
0.322381
0.307589
0.30759
0.318149
0.31825
0.318034
0.31756
0.317738
0.317363
0.318825
0.31892
0.326392
0.323049
0.307355
0.30736
0.307123
0.307136
0.306894
0.306921
0.306664
0.306716
0.306329
0.306427
0.306521
0.306338
0.306166
0.306006
0.305862
0.305571
0.305728
0.305588
0.305384
0.305435
0.305267
0.307592
0.318626
0.318726
0.318434
0.318528
0.318343
0.317893
0.316964
0.317163
0.316581
0.31677
0.316217
0.316398
0.315858
0.316038
0.315496
0.315678
0.315121
0.31531
0.314723
0.314925
0.31431
0.314516
0.313922
0.314112
0.313568
0.313743
0.313215
0.313394
0.312843
0.313031
0.31246
0.312652
0.312074
0.312267
0.311687
0.31188
0.3113
0.311493
0.310914
0.311107
0.310525
0.31072
0.310132
0.310329
0.309737
0.309934
0.309357
0.309544
0.308998
0.309175
0.308647
0.308822
0.308296
0.308471
0.307946
0.308121
0.307601
0.307773
0.307265
0.307431
0.306947
0.307104
0.306641
0.306793
0.306336
0.30649
0.306175
0.306038
0.306183
0.331286
0.329109
0.33433
0.333002
0.336056
0.335331
0.336829
0.336546
0.336826
0.336921
0.336051
0.336542
0.334326
0.335326
0.331287
0.333
0.3264
0.329113
0.319009
0.323063
0.305641
0.305507
0.305935
0.305784
0.306241
0.306089
0.306547
0.306391
0.306869
0.306707
0.3072
0.307033
0.307541
0.307369
0.307892
0.307715
0.308249
0.30807
0.308613
0.308431
0.308982
0.308797
0.309354
0.309168
0.309731
0.309542
0.310111
0.30992
0.310493
0.310301
0.310877
0.310684
0.311263
0.31107
0.311649
0.311456
0.312037
0.311843
0.312424
0.31223
0.312811
0.312618
0.313197
0.313004
0.313582
0.31339
0.313965
0.313774
0.314346
0.314156
0.314723
0.314534
0.315095
0.31491
0.315463
0.31528
0.315825
0.315645
0.316179
0.316003
0.316525
0.316353
0.31686
0.316694
0.317185
0.317024
0.317496
0.317342
0.317793
0.317646
0.318073
0.317935
0.318335
0.318207
0.318576
0.318458
0.318795
0.318689
0.318988
0.318895
0.307363
0.307362
0.31449
0.314514
0.307139
0.307136
0.319095
0.314149
0.314084
0.314118
0.319075
0.314057
0.30692
0.306916
0.306704
0.306706
0.306486
0.306507
0.306261
0.306319
0.305901
0.306024
0.306143
0.30598
0.305833
0.305699
0.312496
0.294097
0.305572
0.305442
0.305304
0.304942
0.0926483
0.31445
0.305152
0.314367
0.307364
0.314253
0.314204
0.314334
0.314295
0.314414
0.314373
0.314455
0.314521
0.314503
0.31405
0.314264
0.314156
0.313848
0.313947
0.313658
0.313752
0.313468
0.313564
0.313265
0.313369
0.31304
0.313156
0.31278
0.312915
0.312494
0.312637
0.31223
0.312357
0.312002
0.312114
0.311768
0.311888
0.311504
0.311639
0.311222
0.311365
0.310929
0.311076
0.310631
0.310781
0.310327
0.31048
0.310019
0.310174
0.309702
0.309862
0.309376
0.30954
0.309043
0.309209
0.308722
0.308879
0.308426
0.308572
0.308131
0.308279
0.307834
0.307983
0.307532
0.307683
0.307231
0.307381
0.306935
0.307082
0.306653
0.306793
0.30638
0.306516
0.306113
0.306246
0.305858
0.305986
0.305768
0.305601
0.305728
0.326719
0.323264
0.331784
0.329529
0.334942
0.333564
0.336737
0.335982
0.337541
0.337247
0.337539
0.337637
0.336732
0.337243
0.33494
0.335979
0.331786
0.333564
0.326728
0.329534
0.323278
0.305499
0.305379
0.305754
0.305625
0.306016
0.305881
0.306294
0.306155
0.306578
0.306435
0.306869
0.306723
0.307168
0.307018
0.307473
0.30732
0.307782
0.307627
0.308094
0.307937
0.308408
0.308251
0.308723
0.308565
0.309038
0.30888
0.309352
0.309195
0.309665
0.309509
0.309976
0.309821
0.310283
0.31013
0.310587
0.310436
0.310886
0.310737
0.31118
0.311034
0.311467
0.311324
0.311747
0.311608
0.31202
0.311885
0.312283
0.312153
0.312537
0.312411
0.312779
0.312659
0.313009
0.312895
0.313225
0.313119
0.313426
0.313328
0.313611
0.313521
0.313777
0.313696
0.313923
0.313853
0.314047
0.313988
0.314147
0.3141
0.31422
0.314187
0.314266
0.314247
0.314281
0.314278
0.314264
0.314277
0.31421
0.314241
0.314169
0.307144
0.307138
0.308388
0.308154
0.278654
0.319155
0.313986
0.30693
0.306916
0.306722
0.306701
0.306517
0.306497
0.306311
0.306304
0.306099
0.306122
0.305876
0.305953
0.305485
0.305636
0.305801
0.305664
0.305539
0.30542
0.305301
0.305174
0.305038
0.304903
0.303883
0.305261
0.302853
0.307142
0.308819
0.308608
0.309219
0.309023
0.309607
0.309412
0.30998
0.309799
0.310299
0.310157
0.310466
0.310406
0.310507
0.310499
0.310511
0.310509
0.31052
0.310513
0.310535
0.310527
0.310544
0.310542
0.31053
0.31054
0.310481
0.310511
0.310383
0.31044
0.310247
0.310316
0.310135
0.310185
0.310056
0.310092
0.309963
0.310014
0.309829
0.309901
0.309667
0.309751
0.309488
0.30958
0.309296
0.309394
0.309094
0.309196
0.30888
0.308988
0.308651
0.308768
0.308405
0.30853
0.308146
0.308276
0.307899
0.308019
0.307676
0.307786
0.307454
0.307566
0.307221
0.30734
0.306979
0.307101
0.306733
0.306856
0.306489
0.30661
0.306253
0.30637
0.306023
0.306137
0.305798
0.30591
0.305578
0.305687
0.305367
0.305471
0.304702
0.304561
0.305268
0.303429
0.304784
0.30289
0.327044
0.323476
0.332286
0.329951
0.335562
0.334132
0.337427
0.336643
0.338264
0.337957
0.338262
0.338364
0.337423
0.337954
0.335561
0.33664
0.332289
0.334132
0.327053
0.329957
0.319173
0.32349
0.30791
0.314011
0.305269
0.305169
0.305487
0.305375
0.305712
0.305598
0.305943
0.305827
0.306179
0.30606
0.306421
0.3063
0.306667
0.306544
0.306915
0.306791
0.307165
0.30704
0.307413
0.307289
0.307661
0.307538
0.307905
0.307783
0.308145
0.308025
0.30838
0.308263
0.308608
0.308495
0.308829
0.30872
0.309042
0.308937
0.309245
0.309145
0.309438
0.309343
0.309618
0.30953
0.309786
0.309704
0.309939
0.309864
0.310077
0.31001
0.310198
0.310139
0.3103
0.310251
0.310383
0.310344
0.310444
0.310416
0.310482
0.310466
0.310495
0.310491
0.31048
0.310491
0.310437
0.310462
0.310362
0.310403
0.310254
0.310312
0.310109
0.310186
0.309926
0.310023
0.309703
0.30982
0.309436
0.309575
0.309123
0.309285
0.30876
0.308948
0.308346
0.308559
0.307876
0.308118
0.304823
0.30693
0.306919
0.306726
0.306702
0.307652
0.300782
0.30033
0.300738
0.30762
0.30029
0.306528
0.306491
0.306334
0.306293
0.306139
0.306105
0.30594
0.305929
0.305731
0.30577
0.305507
0.305627
0.305499
0.311392
0.305382
0.303364
0.305272
0.305162
0.304923
0.304785
0.304691
0.304658
0.304559
0.305046
0.30444
0.304371
0.304258
0.306925
0.301635
0.301217
0.302437
0.302041
0.30319
0.302816
0.303923
0.303557
0.304637
0.304284
0.305257
0.304968
0.305704
0.305504
0.306007
0.305867
0.306259
0.306135
0.306512
0.306384
0.306769
0.306641
0.307008
0.306892
0.307213
0.307116
0.307371
0.307299
0.307461
0.307425
0.307503
0.307484
0.307566
0.307528
0.307663
0.307611
0.307736
0.307706
0.307757
0.307753
0.307738
0.307751
0.307693
0.307718
0.307629
0.307663
0.307546
0.30759
0.307446
0.307499
0.307324
0.307388
0.307173
0.307252
0.307004
0.30709
0.306846
0.306922
0.306712
0.306777
0.306576
0.306646
0.306423
0.306502
0.306253
0.306339
0.306075
0.306165
0.305895
0.305985
0.305717
0.305806
0.305542
0.305629
0.305368
0.305454
0.305197
0.305282
0.305035
0.305114
0.30485
0.304958
0.302933
0.319228
0.313904
0.327369
0.323684
0.332792
0.330374
0.336189
0.334705
0.338126
0.337311
0.338998
0.338678
0.338996
0.339102
0.338124
0.338676
0.336189
0.33731
0.332796
0.334707
0.327378
0.330381
0.319246
0.323698
0.313928
0.304631
0.3045
0.304793
0.304723
0.304943
0.304865
0.305114
0.305027
0.305288
0.305201
0.305465
0.305377
0.305644
0.305555
0.305826
0.305735
0.306006
0.305916
0.306187
0.306097
0.306363
0.306275
0.306535
0.30645
0.306701
0.306619
0.30686
0.306781
0.307009
0.306935
0.307148
0.30708
0.307275
0.307213
0.307388
0.307333
0.307487
0.30744
0.30757
0.307531
0.307635
0.307605
0.307681
0.30766
0.307706
0.307696
0.307709
0.30771
0.307687
0.307701
0.30764
0.307667
0.307566
0.307607
0.307461
0.307517
0.307326
0.307398
0.307156
0.307245
0.306951
0.307058
0.306707
0.306834
0.306422
0.30657
0.306094
0.306264
0.30572
0.305913
0.305297
0.305515
0.304824
0.305067
0.304296
0.304566
0.303711
0.30401
0.303065
0.303395
0.302357
0.302719
0.301582
0.301978
0.301169
0.306721
0.306706
0.305379
0.292547
0.291883
0.30735
0.299823
0.306526
0.306493
0.306338
0.306287
0.306154
0.306094
0.305971
0.305911
0.305784
0.305743
0.304158
0.304332
0.305588
0.305592
0.305378
0.305458
0.305153
0.305338
0.30454
0.304937
0.305229
0.30469
0.294326
0.305127
0.185456
0.305026
0.304919
0.304067
0.30389
0.303813
0.306713
0.293815
0.29319
0.295016
0.294423
0.296164
0.295595
0.297278
0.296723
0.298357
0.297825
0.299315
0.298863
0.300072
0.299717
0.300676
0.300388
0.301213
0.300946
0.301747
0.301477
0.302278
0.302014
0.302779
0.302534
0.303234
0.303013
0.303627
0.303439
0.303937
0.303793
0.304185
0.304065
0.304451
0.304313
0.304753
0.3046
0.305019
0.304894
0.305219
0.305127
0.305368
0.305298
0.305482
0.305428
0.305568
0.305528
0.305628
0.305601
0.305662
0.305648
0.305666
0.305668
0.30563
0.305652
0.305567
0.305601
0.305515
0.305537
0.305488
0.305499
0.305457
0.305475
0.305399
0.305432
0.305317
0.30536
0.305222
0.305271
0.305119
0.305171
0.305013
0.305066
0.304905
0.304959
0.304794
0.304849
0.304682
0.304737
0.304574
0.304627
0.304437
0.304514
0.304331
0.319292
0.313811
0.327691
0.323888
0.333301
0.330799
0.336824
0.335284
0.338836
0.337989
0.339742
0.33941
0.339741
0.339851
0.338835
0.339409
0.336825
0.337989
0.333306
0.335286
0.327702
0.330806
0.319311
0.323902
0.30738
0.313835
0.291199
0.29986
0.30407
0.303974
0.304267
0.304175
0.304393
0.304336
0.30449
0.304439
0.304604
0.304547
0.304719
0.304662
0.30483
0.304774
0.30494
0.304885
0.305047
0.304994
0.30515
0.305099
0.305247
0.305199
0.305336
0.305293
0.305416
0.305378
0.305485
0.305452
0.30554
0.305514
0.305581
0.305562
0.305605
0.305595
0.30561
0.30561
0.305596
0.305606
0.30556
0.305581
0.3055
0.305533
0.305415
0.305461
0.305302
0.305362
0.30516
0.305235
0.304987
0.305078
0.30478
0.304888
0.304538
0.304664
0.304258
0.304403
0.303938
0.304103
0.303576
0.303762
0.303168
0.303378
0.302713
0.302947
0.302208
0.302467
0.301649
0.301935
0.301035
0.301349
0.300361
0.300705
0.299626
0.300001
0.298826
0.299234
0.297959
0.298401
0.29702
0.297498
0.296007
0.296523
0.294917
0.295472
0.293747
0.294343
0.292493
0.293131
0.291154
0.291834
0.306518
0.306498
0.306332
0.306289
0.290493
0.281332
0.280393
0.281279
0.290451
0.280343
0.306153
0.306088
0.305978
0.305899
0.303742
0.303982
0.305806
0.305722
0.304232
0.30563
0.305562
0.305447
0.30542
0.305253
0.305294
0.30443
0.305052
0.305181
0.304578
0.304831
0.30508
0.304685
0.220909
0.300739
0.304986
0.304894
0.304794
0.303676
0.303392
0.303338
0.306507
0.283138
0.282248
0.284852
0.284006
0.28649
0.285678
0.288066
0.287286
0.289591
0.288834
0.291059
0.290335
0.292389
0.291754
0.293498
0.292967
0.294437
0.293985
0.295293
0.294869
0.296142
0.295716
0.296979
0.296563
0.297775
0.297384
0.29851
0.29815
0.299171
0.298851
0.299733
0.299464
0.30022
0.299981
0.300718
0.300461
0.301252
0.300984
0.301739
0.301505
0.302145
0.301952
0.302488
0.302323
0.302786
0.302642
0.303047
0.302921
0.303274
0.303165
0.303466
0.303374
0.303618
0.303547
0.303717
0.303674
0.303781
0.303752
0.303853
0.303813
0.303955
0.303902
0.304047
0.304004
0.304103
0.30408
0.304127
0.304118
0.30413
0.304131
0.304121
0.304127
0.304102
0.304112
0.304075
0.30409
0.304041
0.304059
0.304
0.304021
0.303955
0.303978
0.303873
0.303921
0.303736
0.303808
0.303611
0.30367
0.303494
0.303556
0.307065
0.299338
0.31935
0.313707
0.328013
0.324086
0.333814
0.331225
0.337465
0.335868
0.339555
0.338675
0.340497
0.340152
0.340497
0.340611
0.339555
0.340152
0.337467
0.338676
0.33382
0.335872
0.328024
0.331233
0.319369
0.324102
0.307094
0.31373
0.299373
0.303505
0.303447
0.303635
0.303567
0.303764
0.303703
0.303843
0.303809
0.303881
0.303863
0.303927
0.303903
0.303968
0.303949
0.304
0.303985
0.304027
0.304014
0.304046
0.304037
0.304055
0.304052
0.304053
0.304056
0.304038
0.304047
0.304008
0.304025
0.30396
0.303986
0.303893
0.303929
0.303805
0.303852
0.303694
0.303752
0.303556
0.303628
0.303392
0.303478
0.303197
0.303298
0.302971
0.303088
0.302711
0.302845
0.302414
0.302567
0.302078
0.302251
0.301701
0.301895
0.301281
0.301497
0.300815
0.301054
0.3003
0.300564
0.299734
0.300024
0.299114
0.299431
0.298437
0.298783
0.2977
0.298076
0.296901
0.297309
0.296035
0.296476
0.295101
0.295577
0.294095
0.294607
0.293013
0.293564
0.291854
0.292443
0.290613
0.291243
0.289287
0.28996
0.287873
0.288591
0.286369
0.287132
0.28477
0.285581
0.283074
0.283934
0.282189
0.306319
0.306295
0.270218
0.269032
0.302975
0.302176
0.289726
0.279382
0.306141
0.30609
0.303291
0.303607
0.305971
0.305894
0.303901
0.305806
0.30571
0.304138
0.305643
0.30554
0.305479
0.305386
0.305308
0.305252
0.304325
0.305129
0.305133
0.304469
0.304938
0.305028
0.304578
0.304721
0.304934
0.170593
0.304849
0.304766
0.30467
0.303801
0.302215
0.306306
0.272507
0.271375
0.274691
0.273612
0.276793
0.275751
0.278821
0.277815
0.280791
0.279811
0.2827
0.281758
0.284421
0.283588
0.285914
0.285194
0.28722
0.286589
0.288422
0.287826
0.289617
0.289022
0.290793
0.29021
0.291914
0.291362
0.292962
0.292448
0.293921
0.293454
0.294771
0.294359
0.295527
0.295158
0.29629
0.295902
0.297083
0.296688
0.297819
0.297461
0.29846
0.298151
0.299025
0.29875
0.299535
0.299286
0.299998
0.299772
0.300416
0.300212
0.300791
0.30061
0.301114
0.30096
0.301374
0.301252
0.301585
0.301483
0.301802
0.301688
0.302054
0.301926
0.302291
0.302177
0.302483
0.302393
0.302633
0.302562
0.302753
0.302696
0.302854
0.302806
0.30294
0.302899
0.303012
0.302978
0.303069
0.303042
0.303114
0.303093
0.303146
0.303132
0.303139
0.303149
0.30309
0.303118
0.303038
0.303062
0.30301
0.306764
0.298834
0.319398
0.313591
0.328332
0.32428
0.33433
0.331651
0.338114
0.336458
0.340284
0.33937
0.341264
0.340904
0.341264
0.341382
0.340285
0.340905
0.338118
0.339372
0.334338
0.336463
0.328345
0.331661
0.319418
0.324296
0.306793
0.313614
0.289766
0.298868
0.267819
0.279428
0.301466
0.301454
0.302796
0.302816
0.303245
0.30286
0.302835
0.302918
0.302889
0.30298
0.302949
0.303046
0.303014
0.303099
0.303076
0.303113
0.303111
0.303083
0.3031
0.303043
0.303062
0.302997
0.303022
0.302935
0.302967
0.302862
0.3029
0.302776
0.302821
0.302674
0.302727
0.302555
0.302617
0.302416
0.302488
0.302256
0.302339
0.302072
0.302167
0.301861
0.30197
0.301622
0.301745
0.301352
0.301491
0.301048
0.301204
0.300709
0.300883
0.300331
0.300525
0.299912
0.300127
0.29945
0.299686
0.298941
0.299201
0.298384
0.298669
0.297775
0.298086
0.297112
0.297451
0.296392
0.29676
0.295612
0.29601
0.294769
0.295199