/*--------------------------------*- C++ -*----------------------------------*\
| =========                 |                                                 |
| \\      /  F ield         | OpenFOAM: The Open Source CFD Toolbox           |
|  \\    /   O peration     | Version:  2212                                  |
|   \\  /    A nd           | Website:  www.openfoam.com                      |
|    \\/     M anipulation  |                                                 |
\*---------------------------------------------------------------------------*/
FoamFile
{
    version     2.0;
    format      ascii;
    arch        "LSB;label=32;scalar=64";
    class       volVectorField;
    location    "0.185";
    object      U_0;
}
// * * * * * * * * * * * * * * * * * * * * * * * * * * * * * * * * * * * * * //

dimensions      [0 1 -1 0 0 0 0];

internalField   nonuniform List<vector> 
24240
(
(9.12755 0.70846 8.66981e-07)
(9.12767 0.70847 -7.54317e-07)
(9.12767 0.708469 -6.17896e-07)
(9.12768 0.708468 -1.22419e-06)
(9.12768 0.708466 -1.38907e-06)
(9.12768 0.708465 -1.69977e-06)
(9.12768 0.708463 -1.87903e-06)
(9.12769 0.708461 -2.06186e-06)
(9.12769 0.708459 -2.17587e-06)
(9.12769 0.708457 -2.25134e-06)
(9.12769 0.708456 -2.26612e-06)
(9.1277 0.708454 -2.2342e-06)
(9.1277 0.708453 -2.14566e-06)
(9.1277 0.708451 -2.02969e-06)
(9.1277 0.70845 -1.83952e-06)
(9.12771 0.70845 -1.69119e-06)
(9.12771 0.708449 -1.3424e-06)
(9.12771 0.708448 -1.34793e-06)
(9.12771 0.708449 -5.75288e-07)
(9.12759 0.708437 -1.40889e-06)
(9.0633 0.711297 -6.81299e-07)
(9.06343 0.711309 -1.57456e-06)
(9.06343 0.71131 -2.38573e-06)
(9.06343 0.711312 -3.29934e-06)
(9.06343 0.711314 -3.94337e-06)
(9.06343 0.711317 -4.52944e-06)
(9.06343 0.71132 -4.9098e-06)
(9.06343 0.711323 -5.16345e-06)
(9.06344 0.711326 -5.24837e-06)
(9.06344 0.711329 -5.20062e-06)
(9.06344 0.711332 -5.01977e-06)
(9.06344 0.711335 -4.73212e-06)
(9.06344 0.711338 -4.34606e-06)
(9.06344 0.71134 -3.90047e-06)
(9.06344 0.711342 -3.38685e-06)
(9.06345 0.711344 -2.89067e-06)
(9.06345 0.711346 -2.29863e-06)
(9.06345 0.711347 -1.80368e-06)
(9.06345 0.711348 -1.05945e-06)
(9.06332 0.711337 -2.59048e-07)
(9.09929 0.433509 5.18887e-08)
(9.09941 0.433517 8.24464e-07)
(9.09941 0.433518 1.60783e-06)
(9.09941 0.433518 2.08324e-06)
(9.09941 0.433519 2.58015e-06)
(9.09941 0.43352 2.86794e-06)
(9.09941 0.433521 3.07492e-06)
(9.09941 0.433522 3.13717e-06)
(9.0994 0.433523 3.1014e-06)
(9.0994 0.433524 2.96535e-06)
(9.0994 0.433525 2.75542e-06)
(9.0994 0.433526 2.48612e-06)
(9.0994 0.433527 2.182e-06)
(9.09939 0.433528 1.85097e-06)
(9.09939 0.433528 1.53738e-06)
(9.09939 0.433529 1.1978e-06)
(9.09939 0.43353 9.5632e-07)
(9.09939 0.43353 6.30629e-07)
(9.09939 0.433531 4.92016e-07)
(9.09926 0.433523 3.23336e-07)
(8.9803 0.428431 -4.1663e-07)
(8.98042 0.428439 -1.06008e-06)
(8.98042 0.428438 -1.58016e-06)
(8.98043 0.428438 -2.1405e-06)
(8.98043 0.428438 -2.57918e-06)
(8.98043 0.428438 -2.95017e-06)
(8.98043 0.428437 -3.19944e-06)
(8.98043 0.428437 -3.35881e-06)
(8.98043 0.428437 -3.41021e-06)
(8.98043 0.428437 -3.37125e-06)
(8.98043 0.428437 -3.24336e-06)
(8.98043 0.428436 -3.04105e-06)
(8.98043 0.428436 -2.77208e-06)
(8.98044 0.428436 -2.45806e-06)
(8.98044 0.428436 -2.10117e-06)
(8.98044 0.428436 -1.74618e-06)
(8.98044 0.428436 -1.35579e-06)
(8.98044 0.428436 -9.91854e-07)
(8.98044 0.428436 -5.02837e-07)
(8.98031 0.428428 -1.21024e-07)
(9.00467 0.244829 1.29036e-07)
(9.0048 0.244834 7.44884e-07)
(9.0048 0.244834 1.38251e-06)
(9.00479 0.244835 1.84173e-06)
(9.00479 0.244836 2.24071e-06)
(9.00479 0.244836 2.51487e-06)
(9.00479 0.244837 2.69938e-06)
(9.00479 0.244838 2.77055e-06)
(9.00479 0.244839 2.75215e-06)
(9.00478 0.24484 2.64883e-06)
(9.00478 0.244841 2.48048e-06)
(9.00478 0.244842 2.2624e-06)
(9.00478 0.244843 2.01347e-06)
(9.00478 0.244844 1.7444e-06)
(9.00477 0.244845 1.48064e-06)
(9.00477 0.244845 1.21191e-06)
(9.00477 0.244846 9.7166e-07)
(9.00477 0.244846 7.21092e-07)
(9.00477 0.244847 5.44625e-07)
(9.00464 0.244842 2.70532e-07)
(8.91322 0.237861 -2.17812e-07)
(8.91334 0.237865 -5.19705e-07)
(8.91334 0.237865 -7.54079e-07)
(8.91334 0.237864 -1.01264e-06)
(8.91334 0.237864 -1.20339e-06)
(8.91334 0.237863 -1.37532e-06)
(8.91334 0.237862 -1.49157e-06)
(8.91334 0.237861 -1.56991e-06)
(8.91334 0.23786 -1.59402e-06)
(8.91335 0.237859 -1.5754e-06)
(8.91335 0.237858 -1.51138e-06)
(8.91335 0.237857 -1.40807e-06)
(8.91335 0.237857 -1.26809e-06)
(8.91335 0.237856 -1.10582e-06)
(8.91335 0.237855 -9.10946e-07)
(8.91335 0.237855 -7.20852e-07)
(8.91335 0.237854 -4.99594e-07)
(8.91335 0.237854 -3.15754e-07)
(8.91335 0.237854 -8.53259e-08)
(8.91322 0.237849 2.19318e-08)
(8.92903 0.109529 7.54304e-09)
(8.92916 0.109531 2.85174e-07)
(8.92916 0.109531 5.86986e-07)
(8.92916 0.109531 7.91138e-07)
(8.92916 0.109531 9.67087e-07)
(8.92916 0.109531 1.08557e-06)
(8.92916 0.109531 1.16056e-06)
(8.92915 0.109531 1.18242e-06)
(8.92915 0.109531 1.16375e-06)
(8.92915 0.109532 1.10408e-06)
(8.92915 0.109532 1.01504e-06)
(8.92915 0.109532 9.06084e-07)
(8.92915 0.109532 7.8902e-07)
(8.92915 0.109532 6.67675e-07)
(8.92915 0.109532 5.60287e-07)
(8.92914 0.109532 4.56669e-07)
(8.92914 0.109532 3.78199e-07)
(8.92914 0.109532 2.94349e-07)
(8.92914 0.109532 2.66512e-07)
(8.92901 0.10953 1.64683e-07)
(8.88211 0.0985377 -1.68348e-07)
(8.88224 0.0985395 -4.4013e-07)
(8.88224 0.0985393 -6.53988e-07)
(8.88224 0.098539 -8.81503e-07)
(8.88224 0.0985385 -1.05517e-06)
(8.88224 0.0985381 -1.20905e-06)
(8.88224 0.0985375 -1.31671e-06)
(8.88224 0.098537 -1.39067e-06)
(8.88224 0.0985364 -1.4206e-06)
(8.88224 0.0985358 -1.4145e-06)
(8.88224 0.0985352 -1.3701e-06)
(8.88224 0.0985347 -1.28948e-06)
(8.88224 0.0985341 -1.16987e-06)
(8.88224 0.0985336 -1.02714e-06)
(8.88224 0.0985331 -8.51445e-07)
(8.88224 0.0985327 -6.79694e-07)
(8.88224 0.0985323 -4.80928e-07)
(8.88224 0.098532 -3.20675e-07)
(8.88224 0.0985317 -1.08396e-07)
(8.88211 0.0985297 3.08843e-09)
(8.89311 -0.000523211 -6.10068e-08)
(8.89324 -0.000523281 1.9421e-08)
(8.89323 -0.000523428 1.15401e-07)
(8.89323 -0.000523608 1.60122e-07)
(8.89323 -0.000523856 2.01e-07)
(8.89323 -0.000524141 2.18194e-07)
(8.89323 -0.000524467 2.21375e-07)
(8.89323 -0.000524818 2.02618e-07)
(8.89323 -0.000525191 1.66237e-07)
(8.89323 -0.000525577 1.10915e-07)
(8.89323 -0.000525968 4.31633e-08)
(8.89323 -0.000526355 -3.38019e-08)
(8.89323 -0.000526734 -1.07038e-07)
(8.89323 -0.000527093 -1.75739e-07)
(8.89322 -0.000527428 -2.15701e-07)
(8.89322 -0.000527726 -2.43554e-07)
(8.89322 -0.000527989 -2.20615e-07)
(8.89322 -0.000528198 -1.95272e-07)
(8.89322 -0.000528357 -8.09725e-08)
(8.89309 -0.000528403 4.06955e-08)
(8.89172 -0.0184952 -2.41997e-07)
(8.89184 -0.0184961 -6.14552e-07)
(8.89184 -0.018497 -9.29835e-07)
(8.89184 -0.0184981 -1.24416e-06)
(8.89184 -0.0184997 -1.50604e-06)
(8.89184 -0.0185014 -1.72793e-06)
(8.89184 -0.0185034 -1.89404e-06)
(8.89184 -0.0185055 -2.01056e-06)
(8.89184 -0.0185076 -2.07336e-06)
(8.89184 -0.0185098 -2.08556e-06)
(8.89184 -0.0185119 -2.04482e-06)
(8.89184 -0.0185138 -1.95606e-06)
(8.89184 -0.0185157 -1.81417e-06)
(8.89184 -0.0185173 -1.63447e-06)
(8.89184 -0.0185187 -1.40685e-06)
(8.89183 -0.0185199 -1.17322e-06)
(8.89183 -0.0185209 -8.96804e-07)
(8.89183 -0.0185216 -6.45858e-07)
(8.89183 -0.0185221 -3.02405e-07)
(8.89171 -0.0185218 -2.8139e-08)
(8.89695 -0.110697 -3.51041e-07)
(8.89708 -0.110699 -1.0017e-06)
(8.89708 -0.110699 -1.56725e-06)
(8.89708 -0.110698 -2.10165e-06)
(8.89707 -0.110698 -2.54589e-06)
(8.89707 -0.110697 -2.91066e-06)
(8.89707 -0.110697 -3.17833e-06)
(8.89707 -0.110696 -3.35596e-06)
(8.89707 -0.110695 -3.44415e-06)
(8.89707 -0.110695 -3.4493e-06)
(8.89707 -0.110694 -3.37557e-06)
(8.89707 -0.110694 -3.23228e-06)
(8.89707 -0.110693 -3.01933e-06)
(8.89707 -0.110693 -2.75164e-06)
(8.89707 -0.110693 -2.4216e-06)
(8.89707 -0.110692 -2.06586e-06)
(8.89707 -0.110692 -1.64353e-06)
(8.89706 -0.110692 -1.22807e-06)
(8.89706 -0.110692 -6.84255e-07)
(8.89694 -0.11069 -1.80296e-07)
(8.94579 -0.128325 -1.84587e-07)
(8.94592 -0.128328 -2.99289e-07)
(8.94592 -0.128328 -3.87236e-07)
(8.94592 -0.128329 -5.12567e-07)
(8.94592 -0.12833 -6.28586e-07)
(8.94592 -0.128331 -7.43362e-07)
(8.94591 -0.128332 -8.48365e-07)
(8.94591 -0.128334 -9.45874e-07)
(8.94591 -0.128335 -1.03457e-06)
(8.94591 -0.128336 -1.11238e-06)
(8.94591 -0.128338 -1.16899e-06)
(8.94591 -0.128339 -1.20517e-06)
(8.9459 -0.12834 -1.20369e-06)
(8.9459 -0.128341 -1.16749e-06)
(8.9459 -0.128342 -1.07567e-06)
(8.9459 -0.128343 -9.57843e-07)
(8.9459 -0.128344 -7.69932e-07)
(8.9459 -0.128344 -5.77244e-07)
(8.9459 -0.128344 -2.81171e-07)
(8.94577 -0.128342 1.02657e-08)
(8.94165 -0.240842 -5.36913e-07)
(8.94178 -0.240847 -1.63815e-06)
(8.94178 -0.240847 -2.59711e-06)
(8.94178 -0.240847 -3.49384e-06)
(8.94178 -0.240846 -4.24075e-06)
(8.94178 -0.240846 -4.85954e-06)
(8.94178 -0.240846 -5.31756e-06)
(8.94178 -0.240846 -5.62031e-06)
(8.94178 -0.240846 -5.7647e-06)
(8.94178 -0.240846 -5.75903e-06)
(8.94178 -0.240846 -5.61025e-06)
(8.94178 -0.240846 -5.33338e-06)
(8.94178 -0.240846 -4.93656e-06)
(8.94178 -0.240846 -4.44283e-06)
(8.94178 -0.240846 -3.85488e-06)
(8.94178 -0.240846 -3.22572e-06)
(8.94178 -0.240846 -2.51202e-06)
(8.94178 -0.240846 -1.82379e-06)
(8.94178 -0.240846 -9.91493e-07)
(8.94165 -0.240841 -2.84606e-07)
(9.04333 -0.252875 -2.16383e-07)
(9.04345 -0.252881 -2.46394e-07)
(9.04345 -0.252881 -2.47905e-07)
(9.04345 -0.252881 -3.31052e-07)
(9.04345 -0.252882 -4.2531e-07)
(9.04345 -0.252883 -5.33226e-07)
(9.04345 -0.252883 -6.46479e-07)
(9.04344 -0.252884 -7.69013e-07)
(9.04344 -0.252885 -8.92254e-07)
(9.04344 -0.252886 -1.0126e-06)
(9.04344 -0.252887 -1.11594e-06)
(9.04344 -0.252888 -1.20217e-06)
(9.04343 -0.252889 -1.24442e-06)
(9.04343 -0.252889 -1.24252e-06)
(9.04343 -0.25289 -1.16823e-06)
(9.04343 -0.25289 -1.04902e-06)
(9.04343 -0.252891 -8.49049e-07)
(9.04343 -0.252891 -6.19328e-07)
(9.04343 -0.252891 -2.77826e-07)
(9.0433 -0.252886 4.81323e-08)
(9.02739 -0.414243 -6.74793e-07)
(9.02752 -0.414251 -2.05503e-06)
(9.02752 -0.414251 -3.25769e-06)
(9.02752 -0.414251 -4.3946e-06)
(9.02752 -0.41425 -5.32771e-06)
(9.02752 -0.41425 -6.121e-06)
(9.02752 -0.41425 -6.70701e-06)
(9.02752 -0.41425 -7.09738e-06)
(9.02752 -0.41425 -7.27974e-06)
(9.02752 -0.41425 -7.26566e-06)
(9.02752 -0.414249 -7.0624e-06)
(9.02753 -0.414249 -6.68981e-06)
(9.02753 -0.414249 -6.16231e-06)
(9.02753 -0.414249 -5.51167e-06)
(9.02753 -0.414249 -4.74825e-06)
(9.02753 -0.41425 -3.94013e-06)
(9.02753 -0.41425 -3.02661e-06)
(9.02753 -0.41425 -2.16997e-06)
(9.02753 -0.41425 -1.15254e-06)
(9.0274 -0.414242 -3.25882e-07)
(9.17833 -0.419315 -2.41285e-07)
(9.17846 -0.419323 -1.40811e-07)
(9.17846 -0.419323 -1.38861e-08)
(9.17846 -0.419323 -6.62423e-08)
(9.17845 -0.419324 -1.42835e-07)
(9.17845 -0.419324 -2.51951e-07)
(9.17845 -0.419325 -3.70712e-07)
(9.17845 -0.419325 -5.23344e-07)
(9.17845 -0.419325 -6.84032e-07)
(9.17844 -0.419326 -8.5886e-07)
(9.17844 -0.419326 -1.02291e-06)
(9.17844 -0.419327 -1.17364e-06)
(9.17844 -0.419327 -1.27946e-06)
(9.17843 -0.419328 -1.3433e-06)
(9.17843 -0.419328 -1.32067e-06)
(9.17843 -0.419328 -1.24628e-06)
(9.17843 -0.419329 -1.07831e-06)
(9.17843 -0.419329 -8.46e-07)
(9.17843 -0.419329 -4.29288e-07)
(9.1783 -0.419321 1.95279e-08)
(9.14712 -0.668851 -7.50323e-07)
(9.14725 -0.668863 -2.23359e-06)
(9.14725 -0.668863 -3.51046e-06)
(9.14725 -0.668863 -4.81144e-06)
(9.14725 -0.668864 -5.91633e-06)
(9.14725 -0.668864 -6.83569e-06)
(9.14725 -0.668864 -7.51216e-06)
(9.14726 -0.668865 -7.96986e-06)
(9.14726 -0.668866 -8.18529e-06)
(9.14726 -0.668866 -8.17809e-06)
(9.14726 -0.668867 -7.95245e-06)
(9.14726 -0.668868 -7.53669e-06)
(9.14726 -0.668868 -6.9464e-06)
(9.14727 -0.668869 -6.23107e-06)
(9.14727 -0.668869 -5.40077e-06)
(9.14727 -0.66887 -4.53882e-06)
(9.14727 -0.668871 -3.59265e-06)
(9.14727 -0.668871 -2.65977e-06)
(9.14727 -0.668872 -1.46278e-06)
(9.14714 -0.66886 -4.35365e-07)
(9.31943 -0.66658 -4.15514e-07)
(9.31956 -0.666592 -3.34811e-07)
(9.31956 -0.666592 -3.39323e-07)
(9.31955 -0.666592 -6.42765e-07)
(9.31955 -0.666592 -7.79962e-07)
(9.31955 -0.666593 -1.04161e-06)
(9.31955 -0.666593 -1.23912e-06)
(9.31955 -0.666593 -1.47829e-06)
(9.31955 -0.666594 -1.69075e-06)
(9.31954 -0.666594 -1.90229e-06)
(9.31954 -0.666595 -2.07963e-06)
(9.31954 -0.666595 -2.23158e-06)
(9.31954 -0.666596 -2.31538e-06)
(9.31954 -0.666596 -2.35707e-06)
(9.31954 -0.666597 -2.27485e-06)
(9.31954 -0.666597 -2.17275e-06)
(9.31954 -0.666598 -1.84471e-06)
(9.31954 -0.666598 -1.58121e-06)
(9.31954 -0.666599 -9.7401e-07)
(9.31941 -0.666587 -9.75692e-08)
(9.26578 -1.05418 -7.45156e-07)
(9.26591 -1.0542 -2.13707e-06)
(9.26591 -1.0542 -3.70527e-06)
(9.26592 -1.0542 -5.31687e-06)
(9.26592 -1.0542 -6.50009e-06)
(9.26592 -1.0542 -7.5685e-06)
(9.26592 -1.05421 -8.3214e-06)
(9.26593 -1.05421 -8.85956e-06)
(9.26593 -1.05421 -9.11771e-06)
(9.26593 -1.05422 -9.13865e-06)
(9.26593 -1.05422 -8.913e-06)
(9.26594 -1.05422 -8.48605e-06)
(9.26594 -1.05423 -7.85862e-06)
(9.26594 -1.05423 -7.1172e-06)
(9.26595 -1.05423 -6.23378e-06)
(9.26595 -1.05423 -5.36843e-06)
(9.26595 -1.05423 -4.30767e-06)
(9.26595 -1.05423 -3.43954e-06)
(9.26595 -1.05424 -2.21402e-06)
(9.26582 -1.05422 -6.77311e-07)
(9.34328 -1.03406 5.80368e-07)
(9.34339 -1.03408 -1.29905e-06)
(9.34339 -1.03407 -2.13708e-06)
(9.34339 -1.03407 -3.74019e-06)
(9.34339 -1.03407 -4.5475e-06)
(9.34339 -1.03407 -5.44476e-06)
(9.3434 -1.03407 -6.04607e-06)
(9.3434 -1.03407 -6.55429e-06)
(9.3434 -1.03407 -6.8602e-06)
(9.3434 -1.03407 -7.02474e-06)
(9.34341 -1.03407 -7.01761e-06)
(9.34341 -1.03406 -6.86831e-06)
(9.34341 -1.03406 -6.55984e-06)
(9.34342 -1.03406 -6.16499e-06)
(9.34342 -1.03406 -5.58791e-06)
(9.34342 -1.03406 -5.05706e-06)
(9.34342 -1.03406 -4.17014e-06)
(9.34342 -1.03406 -3.86713e-06)
(9.34343 -1.03406 -2.55782e-06)
(9.34331 -1.03405 -1.94191e-06)
(8.71479 0.769433 3.79129e-07)
(8.71491 0.769443 -1.10143e-06)
(8.71491 0.769443 -1.67298e-06)
(8.71491 0.769443 -2.57264e-06)
(8.71491 0.769443 -3.046e-06)
(8.71491 0.769442 -3.59245e-06)
(8.71491 0.769442 -3.93242e-06)
(8.71491 0.769442 -4.2206e-06)
(8.71491 0.769442 -4.36015e-06)
(8.71491 0.769441 -4.4022e-06)
(8.71491 0.769441 -4.32124e-06)
(8.71491 0.769441 -4.14724e-06)
(8.71492 0.769441 -3.87737e-06)
(8.71492 0.769441 -3.56695e-06)
(8.71492 0.769441 -3.15026e-06)
(8.71492 0.76944 -2.78522e-06)
(8.71492 0.76944 -2.22006e-06)
(8.71492 0.76944 -1.93866e-06)
(8.71492 0.769441 -1.2451e-06)
(8.7148 0.76943 -1.27343e-06)
(8.76391 0.776103 -5.83767e-07)
(8.76403 0.776116 -1.36218e-06)
(8.76403 0.776117 -2.09128e-06)
(8.76403 0.77612 -2.89695e-06)
(8.76403 0.776123 -3.46177e-06)
(8.76403 0.776127 -4.01804e-06)
(8.76403 0.776132 -4.38605e-06)
(8.76403 0.776137 -4.67165e-06)
(8.76403 0.776142 -4.80942e-06)
(8.76403 0.776147 -4.83897e-06)
(8.76402 0.776152 -4.7374e-06)
(8.76402 0.776156 -4.53702e-06)
(8.76402 0.776161 -4.22287e-06)
(8.76402 0.776165 -3.84663e-06)
(8.76402 0.776169 -3.37162e-06)
(8.76402 0.776172 -2.91563e-06)
(8.76402 0.776174 -2.31595e-06)
(8.76402 0.776176 -1.7905e-06)
(8.76402 0.776178 -1.08249e-06)
(8.76389 0.776167 -3.09177e-07)
(8.80006 0.535592 1.96679e-07)
(8.80018 0.5356 1.04172e-06)
(8.80018 0.5356 1.86082e-06)
(8.80018 0.535601 2.46649e-06)
(8.80019 0.535601 3.11767e-06)
(8.80019 0.535601 3.53519e-06)
(8.80019 0.535602 3.87638e-06)
(8.80019 0.535603 4.05123e-06)
(8.80019 0.535603 4.11491e-06)
(8.80019 0.535604 4.0516e-06)
(8.80019 0.535605 3.88535e-06)
(8.80019 0.535605 3.62601e-06)
(8.80019 0.535606 3.30216e-06)
(8.80019 0.535607 2.92033e-06)
(8.80019 0.535607 2.53687e-06)
(8.80019 0.535608 2.08601e-06)
(8.80019 0.535609 1.73703e-06)
(8.80019 0.535609 1.24262e-06)
(8.80019 0.53561 8.29493e-07)
(8.80007 0.535601 3.70084e-07)
(8.77477 0.532108 -4.50511e-07)
(8.7749 0.532117 -1.13587e-06)
(8.7749 0.532117 -1.70715e-06)
(8.7749 0.532117 -2.30681e-06)
(8.7749 0.532117 -2.78701e-06)
(8.7749 0.532117 -3.19103e-06)
(8.7749 0.532117 -3.45766e-06)
(8.7749 0.532116 -3.63231e-06)
(8.7749 0.532116 -3.68582e-06)
(8.7749 0.532116 -3.64364e-06)
(8.7749 0.532116 -3.50284e-06)
(8.7749 0.532116 -3.28509e-06)
(8.7749 0.532116 -2.99311e-06)
(8.7749 0.532116 -2.66083e-06)
(8.7749 0.532116 -2.27382e-06)
(8.7749 0.532116 -1.89851e-06)
(8.7749 0.532116 -1.47344e-06)
(8.7749 0.532116 -1.06008e-06)
(8.7749 0.532117 -5.43598e-07)
(8.77477 0.532108 -1.35987e-07)
(8.79791 0.324647 2.65124e-07)
(8.79804 0.324652 1.05989e-06)
(8.79804 0.324652 1.88267e-06)
(8.79804 0.324653 2.534e-06)
(8.79804 0.324654 3.10089e-06)
(8.79804 0.324655 3.52435e-06)
(8.79804 0.324656 3.83691e-06)
(8.79804 0.324657 4.00162e-06)
(8.79804 0.324658 4.05011e-06)
(8.79804 0.32466 3.98084e-06)
(8.79804 0.324661 3.8191e-06)
(8.79804 0.324662 3.57593e-06)
(8.79804 0.324663 3.27692e-06)
(8.79804 0.324664 2.92907e-06)
(8.79804 0.324665 2.56761e-06)
(8.79804 0.324666 2.16935e-06)
(8.79804 0.324666 1.77846e-06)
(8.79804 0.324667 1.34483e-06)
(8.79804 0.324667 9.417e-07)
(8.79791 0.324662 3.77162e-07)
(8.76098 0.316645 -2.05989e-07)
(8.76111 0.31665 -5.03789e-07)
(8.76111 0.31665 -7.69064e-07)
(8.76111 0.316649 -1.02188e-06)
(8.76111 0.316648 -1.19178e-06)
(8.76111 0.316647 -1.35878e-06)
(8.76111 0.316646 -1.46041e-06)
(8.76111 0.316645 -1.53327e-06)
(8.76111 0.316644 -1.54796e-06)
(8.76111 0.316643 -1.52108e-06)
(8.76111 0.316642 -1.44353e-06)
(8.76111 0.316641 -1.33325e-06)
(8.76111 0.31664 -1.18199e-06)
(8.76111 0.316639 -1.01423e-06)
(8.76111 0.316638 -8.07851e-07)
(8.7611 0.316638 -6.21807e-07)
(8.7611 0.316637 -3.82053e-07)
(8.7611 0.316637 -2.05829e-07)
(8.7611 0.316637 -2.75449e-08)
(8.76098 0.316632 3.59338e-08)
(8.77313 0.147196 7.53818e-08)
(8.77325 0.147199 4.93993e-07)
(8.77325 0.147199 9.19143e-07)
(8.77325 0.147199 1.26399e-06)
(8.77325 0.147199 1.56531e-06)
(8.77325 0.147198 1.79398e-06)
(8.77325 0.147198 1.96465e-06)
(8.77325 0.147198 2.05996e-06)
(8.77325 0.147198 2.09579e-06)
(8.77325 0.147198 2.06976e-06)
(8.77325 0.147198 1.99891e-06)
(8.77325 0.147198 1.88566e-06)
(8.77325 0.147198 1.74943e-06)
(8.77325 0.147198 1.58717e-06)
(8.77325 0.147198 1.42595e-06)
(8.77325 0.147198 1.24031e-06)
(8.77325 0.147198 1.06416e-06)
(8.77325 0.147198 8.46848e-07)
(8.77325 0.147198 6.37702e-07)
(8.77313 0.147196 3.03901e-07)
(8.7543 0.132418 -1.75072e-07)
(8.75443 0.13242 -4.9159e-07)
(8.75443 0.13242 -7.67104e-07)
(8.75443 0.132419 -1.01797e-06)
(8.75443 0.132419 -1.20093e-06)
(8.75443 0.132418 -1.37007e-06)
(8.75443 0.132418 -1.47794e-06)
(8.75443 0.132417 -1.55029e-06)
(8.75443 0.132416 -1.57001e-06)
(8.75443 0.132416 -1.54715e-06)
(8.75443 0.132415 -1.47405e-06)
(8.75443 0.132414 -1.3629e-06)
(8.75443 0.132414 -1.20522e-06)
(8.75443 0.132413 -1.0293e-06)
(8.75443 0.132413 -8.12078e-07)
(8.75443 0.132412 -6.1718e-07)
(8.75443 0.132412 -3.82132e-07)
(8.75443 0.132411 -2.14914e-07)
(8.75443 0.132411 -2.49124e-08)
(8.7543 0.132409 3.78128e-08)
(8.7604 -0.00980265 -1.47319e-08)
(8.76052 -0.00980287 1.53447e-07)
(8.76052 -0.00980297 3.24562e-07)
(8.76052 -0.00980307 4.74961e-07)
(8.76052 -0.00980323 6.21829e-07)
(8.76052 -0.00980341 7.3565e-07)
(8.76052 -0.00980362 8.30772e-07)
(8.76052 -0.00980385 8.8884e-07)
(8.76052 -0.00980411 9.15814e-07)
(8.76052 -0.00980438 9.05763e-07)
(8.76052 -0.00980466 8.67833e-07)
(8.76052 -0.00980493 7.98312e-07)
(8.76052 -0.00980521 7.16773e-07)
(8.76052 -0.00980547 6.16858e-07)
(8.76052 -0.00980571 5.36516e-07)
(8.76052 -0.00980592 4.4252e-07)
(8.76052 -0.00980609 3.94238e-07)
(8.76052 -0.00980623 3.01576e-07)
(8.76052 -0.00980632 2.55297e-07)
(8.7604 -0.00980615 1.7261e-07)
(8.76685 -0.0308499 -2.45726e-07)
(8.76697 -0.0308511 -6.15969e-07)
(8.76697 -0.0308519 -9.43971e-07)
(8.76697 -0.0308531 -1.24902e-06)
(8.76697 -0.0308547 -1.49741e-06)
(8.76697 -0.0308566 -1.71304e-06)
(8.76697 -0.0308587 -1.86904e-06)
(8.76697 -0.0308609 -1.97965e-06)
(8.76697 -0.0308632 -2.03392e-06)
(8.76697 -0.0308656 -2.03466e-06)
(8.76697 -0.0308679 -1.97297e-06)
(8.76697 -0.0308701 -1.86264e-06)
(8.76696 -0.0308722 -1.68987e-06)
(8.76696 -0.030874 -1.4812e-06)
(8.76696 -0.0308757 -1.21866e-06)
(8.76696 -0.0308771 -9.66812e-07)
(8.76696 -0.0308783 -6.66471e-07)
(8.76696 -0.0308791 -4.2545e-07)
(8.76696 -0.0308797 -1.21806e-07)
(8.76684 -0.0308792 6.08494e-08)
(8.76884 -0.16914 -3.13958e-07)
(8.76897 -0.169143 -9.18208e-07)
(8.76897 -0.169143 -1.45024e-06)
(8.76897 -0.169143 -1.92998e-06)
(8.76896 -0.169142 -2.31565e-06)
(8.76896 -0.169142 -2.63661e-06)
(8.76896 -0.169141 -2.86202e-06)
(8.76896 -0.16914 -3.01086e-06)
(8.76896 -0.16914 -3.0775e-06)
(8.76896 -0.169139 -3.07123e-06)
(8.76896 -0.169138 -2.99288e-06)
(8.76896 -0.169138 -2.85488e-06)
(8.76896 -0.169137 -2.65076e-06)
(8.76895 -0.169137 -2.40103e-06)
(8.76895 -0.169136 -2.08305e-06)
(8.76895 -0.169136 -1.75344e-06)
(8.76895 -0.169136 -1.33736e-06)
(8.76895 -0.169136 -9.66385e-07)
(8.76895 -0.169136 -4.96161e-07)
(8.76883 -0.169133 -1.03516e-07)
(8.80455 -0.18753 -2.03641e-07)
(8.80468 -0.187533 -3.34851e-07)
(8.80468 -0.187534 -4.43967e-07)
(8.80468 -0.187535 -5.57608e-07)
(8.80468 -0.187536 -6.54145e-07)
(8.80468 -0.187538 -7.43979e-07)
(8.80468 -0.18754 -8.14601e-07)
(8.80468 -0.187542 -8.76521e-07)
(8.80468 -0.187543 -9.22831e-07)
(8.80468 -0.187545 -9.56122e-07)
(8.80467 -0.187547 -9.63759e-07)
(8.80467 -0.187549 -9.51485e-07)
(8.80467 -0.187551 -8.97619e-07)
(8.80467 -0.187553 -8.19285e-07)
(8.80467 -0.187554 -6.80819e-07)
(8.80467 -0.187555 -5.40025e-07)
(8.80467 -0.187556 -3.3823e-07)
(8.80467 -0.187557 -1.76394e-07)
(8.80467 -0.187557 2.76856e-08)
(8.80454 -0.187554 1.4871e-07)
(8.79873 -0.349448 -5.81912e-07)
(8.79885 -0.349454 -1.8088e-06)
(8.79885 -0.349454 -2.91674e-06)
(8.79885 -0.349453 -3.91776e-06)
(8.79885 -0.349453 -4.73409e-06)
(8.79885 -0.349453 -5.4239e-06)
(8.79885 -0.349453 -5.93168e-06)
(8.79885 -0.349453 -6.27148e-06)
(8.79885 -0.349453 -6.4327e-06)
(8.79885 -0.349453 -6.42772e-06)
(8.79885 -0.349452 -6.26144e-06)
(8.79884 -0.349452 -5.95288e-06)
(8.79884 -0.349452 -5.50741e-06)
(8.79884 -0.349452 -4.95672e-06)
(8.79884 -0.349452 -4.28856e-06)
(8.79884 -0.349452 -3.57736e-06)
(8.79884 -0.349452 -2.73761e-06)
(8.79884 -0.349452 -1.95361e-06)
(8.79884 -0.349452 -1.06197e-06)
(8.79872 -0.349446 -3.02836e-07)
(8.86116 -0.360241 -2.2191e-07)
(8.86128 -0.360247 -2.68755e-07)
(8.86128 -0.360248 -2.78109e-07)
(8.86128 -0.360249 -3.3946e-07)
(8.86128 -0.36025 -4.09347e-07)
(8.86128 -0.360251 -4.79842e-07)
(8.86128 -0.360252 -5.46862e-07)
(8.86128 -0.360254 -6.22167e-07)
(8.86128 -0.360255 -6.91028e-07)
(8.86128 -0.360257 -7.60055e-07)
(8.86128 -0.360258 -8.10359e-07)
(8.86128 -0.36026 -8.4535e-07)
(8.86128 -0.360261 -8.32485e-07)
(8.86128 -0.360263 -7.87332e-07)
(8.86128 -0.360264 -6.67846e-07)
(8.86128 -0.360265 -5.26382e-07)
(8.86128 -0.360265 -3.20188e-07)
(8.86128 -0.360266 -1.25638e-07)
(8.86128 -0.360266 1.07053e-07)
(8.86115 -0.36026 2.05085e-07)
(8.84374 -0.568143 -8.12329e-07)
(8.84386 -0.568153 -2.49788e-06)
(8.84386 -0.568153 -4.05742e-06)
(8.84386 -0.568152 -5.46274e-06)
(8.84386 -0.568152 -6.58251e-06)
(8.84386 -0.568152 -7.56875e-06)
(8.84386 -0.568152 -8.29868e-06)
(8.84386 -0.568151 -8.79634e-06)
(8.84386 -0.568151 -9.03699e-06)
(8.84386 -0.568151 -9.03953e-06)
(8.84386 -0.568151 -8.80896e-06)
(8.84386 -0.56815 -8.37226e-06)
(8.84386 -0.56815 -7.74261e-06)
(8.84386 -0.56815 -6.96191e-06)
(8.84386 -0.56815 -6.0271e-06)
(8.84386 -0.56815 -5.02631e-06)
(8.84386 -0.56815 -3.83074e-06)
(8.84386 -0.56815 -2.71787e-06)
(8.84386 -0.56815 -1.48993e-06)
(8.84374 -0.568141 -4.32213e-07)
(8.91686 -0.569122 -2.00222e-07)
(8.91698 -0.569131 -8.90806e-08)
(8.91698 -0.569132 9.44234e-08)
(8.91698 -0.569132 9.27487e-08)
(8.91698 -0.569133 3.90685e-08)
(8.91699 -0.569134 -1.13262e-08)
(8.91699 -0.569135 -6.19954e-08)
(8.91699 -0.569136 -1.52994e-07)
(8.91699 -0.569138 -2.49737e-07)
(8.91699 -0.569139 -3.71211e-07)
(8.91699 -0.56914 -4.81344e-07)
(8.91699 -0.569141 -5.91367e-07)
(8.91699 -0.569142 -6.54009e-07)
(8.91699 -0.569143 -6.93007e-07)
(8.91699 -0.569144 -6.4384e-07)
(8.91699 -0.569145 -5.73489e-07)
(8.91699 -0.569146 -4.5903e-07)
(8.91698 -0.569146 -2.83601e-07)
(8.91698 -0.569147 1.9072e-09)
(8.91686 -0.569138 1.54785e-07)
(8.88213 -0.83852 -9.95881e-07)
(8.88226 -0.838533 -2.99292e-06)
(8.88226 -0.838533 -4.74185e-06)
(8.88226 -0.838533 -6.49574e-06)
(8.88226 -0.838533 -8.03184e-06)
(8.88226 -0.838533 -9.29088e-06)
(8.88226 -0.838534 -1.02255e-05)
(8.88226 -0.838534 -1.0868e-05)
(8.88226 -0.838534 -1.11798e-05)
(8.88226 -0.838535 -1.11928e-05)
(8.88226 -0.838535 -1.09081e-05)
(8.88226 -0.838536 -1.03709e-05)
(8.88226 -0.838536 -9.59351e-06)
(8.88226 -0.838536 -8.64814e-06)
(8.88226 -0.838537 -7.53744e-06)
(8.88226 -0.838537 -6.36478e-06)
(8.88226 -0.838538 -5.08627e-06)
(8.88226 -0.838539 -3.74738e-06)
(8.88226 -0.838539 -2.1138e-06)
(8.88214 -0.838526 -6.71492e-07)
(8.92275 -0.826113 -2.27612e-07)
(8.92288 -0.826126 -4.50545e-08)
(8.92288 -0.826126 -9.07949e-08)
(8.92288 -0.826127 -2.85909e-07)
(8.92288 -0.826128 -2.63014e-07)
(8.92288 -0.826129 -4.20967e-07)
(8.92288 -0.82613 -5.02624e-07)
(8.92288 -0.826131 -6.67407e-07)
(8.92288 -0.826132 -8.1289e-07)
(8.92288 -0.826133 -9.96541e-07)
(8.92288 -0.826135 -1.15601e-06)
(8.92288 -0.826136 -1.32362e-06)
(8.92288 -0.826137 -1.42484e-06)
(8.92288 -0.826138 -1.51326e-06)
(8.92288 -0.826139 -1.45333e-06)
(8.92288 -0.82614 -1.41641e-06)
(8.92288 -0.826141 -1.11046e-06)
(8.92288 -0.826142 -9.56876e-07)
(8.92288 -0.826143 -6.97313e-07)
(8.92275 -0.82613 -9.92559e-08)
(8.86159 -1.14604 -1.08422e-06)
(8.86171 -1.14606 -3.261e-06)
(8.86171 -1.14606 -5.57535e-06)
(8.86171 -1.14606 -7.81076e-06)
(8.86171 -1.14606 -9.54696e-06)
(8.86171 -1.14607 -1.10858e-05)
(8.86171 -1.14607 -1.21786e-05)
(8.86171 -1.14608 -1.29567e-05)
(8.86171 -1.14608 -1.33248e-05)
(8.86171 -1.14609 -1.33539e-05)
(8.86171 -1.14609 -1.30237e-05)
(8.86172 -1.14609 -1.24093e-05)
(8.86172 -1.1461 -1.15123e-05)
(8.86172 -1.1461 -1.04574e-05)
(8.86172 -1.14611 -9.19321e-06)
(8.86172 -1.14611 -7.93184e-06)
(8.86172 -1.14611 -6.40158e-06)
(8.86172 -1.14611 -4.9992e-06)
(8.86172 -1.14612 -3.27936e-06)
(8.86159 -1.1461 -1.12475e-06)
(8.79302 -1.10794 9.71504e-07)
(8.79313 -1.10795 -1.22666e-06)
(8.79313 -1.10795 -3.01562e-06)
(8.79313 -1.10795 -4.90137e-06)
(8.79313 -1.10794 -5.99084e-06)
(8.79313 -1.10794 -7.09799e-06)
(8.79313 -1.10794 -7.83853e-06)
(8.79313 -1.10794 -8.44999e-06)
(8.79313 -1.10793 -8.7929e-06)
(8.79313 -1.10793 -8.95063e-06)
(8.79313 -1.10793 -8.87047e-06)
(8.79314 -1.10793 -8.62029e-06)
(8.79314 -1.10792 -8.15058e-06)
(8.79314 -1.10792 -7.5807e-06)
(8.79314 -1.10792 -6.7788e-06)
(8.79314 -1.10792 -6.03407e-06)
(8.79314 -1.10792 -4.93599e-06)
(8.79314 -1.10792 -4.37358e-06)
(8.79315 -1.10792 -3.42884e-06)
(8.79304 -1.1079 -2.57904e-06)
(8.8322 0.739633 3.30049e-07)
(8.83232 0.739644 -1.56575e-06)
(8.83232 0.739644 -1.2999e-06)
(8.83232 0.739644 -1.94304e-06)
(8.83232 0.739644 -2.14801e-06)
(8.83232 0.739643 -2.55091e-06)
(8.83232 0.739643 -2.77022e-06)
(8.83232 0.739643 -2.99103e-06)
(8.83232 0.739642 -3.10124e-06)
(8.83232 0.739642 -3.15624e-06)
(8.83232 0.739642 -3.12e-06)
(8.83231 0.739641 -3.02839e-06)
(8.83231 0.739641 -2.85246e-06)
(8.83231 0.739641 -2.65542e-06)
(8.83231 0.739641 -2.34163e-06)
(8.83231 0.73964 -2.10032e-06)
(8.83231 0.73964 -1.55331e-06)
(8.83231 0.73964 -1.3556e-06)
(8.83231 0.73964 -1.61594e-07)
(8.83219 0.739629 -9.86884e-07)
(8.72878 0.740573 -8.77308e-07)
(8.7289 0.740584 -1.38832e-06)
(8.7289 0.740585 -1.74354e-06)
(8.7289 0.740587 -2.32061e-06)
(8.7289 0.740589 -2.70351e-06)
(8.7289 0.740591 -3.14065e-06)
(8.7289 0.740594 -3.42029e-06)
(8.7289 0.740597 -3.65566e-06)
(8.7289 0.7406 -3.76835e-06)
(8.7289 0.740603 -3.80372e-06)
(8.7289 0.740607 -3.73479e-06)
(8.7289 0.74061 -3.5975e-06)
(8.7289 0.740613 -3.36816e-06)
(8.7289 0.740615 -3.10042e-06)
(8.7289 0.740618 -2.72885e-06)
(8.7289 0.74062 -2.38319e-06)
(8.7289 0.740622 -1.85338e-06)
(8.7289 0.740623 -1.38415e-06)
(8.7289 0.740624 -5.78491e-07)
(8.72878 0.740614 1.64427e-07)
(8.76048 0.503611 -2.31108e-07)
(8.76061 0.503619 3.97809e-07)
(8.76061 0.503619 9.48359e-07)
(8.76061 0.503619 1.28678e-06)
(8.76061 0.503618 1.7538e-06)
(8.76061 0.503618 1.9939e-06)
(8.76061 0.503618 2.22066e-06)
(8.76061 0.503618 2.3314e-06)
(8.76061 0.503618 2.38628e-06)
(8.76061 0.503618 2.36376e-06)
(8.76061 0.503618 2.28946e-06)
(8.76061 0.503618 2.16092e-06)
(8.76061 0.503618 1.9998e-06)
(8.76061 0.503618 1.79476e-06)
(8.76061 0.503618 1.60914e-06)
(8.76061 0.503618 1.34215e-06)
(8.76061 0.503618 1.22772e-06)
(8.76061 0.503618 9.11399e-07)
(8.76061 0.503618 7.25878e-07)
(8.76049 0.50361 5.59341e-07)
(8.70381 0.501756 -5.69323e-07)
(8.70394 0.501764 -1.22492e-06)
(8.70394 0.501764 -1.78095e-06)
(8.70394 0.501764 -2.40126e-06)
(8.70394 0.501765 -2.92189e-06)
(8.70394 0.501765 -3.36716e-06)
(8.70394 0.501766 -3.67629e-06)
(8.70394 0.501767 -3.89472e-06)
(8.70394 0.501767 -3.98844e-06)
(8.70394 0.501768 -3.98309e-06)
(8.70394 0.501768 -3.87023e-06)
(8.70394 0.501769 -3.67552e-06)
(8.70394 0.50177 -3.39439e-06)
(8.70394 0.50177 -3.06965e-06)
(8.70394 0.501771 -2.67354e-06)
(8.70394 0.501771 -2.27973e-06)
(8.70394 0.501771 -1.81826e-06)
(8.70394 0.501772 -1.33229e-06)
(8.70394 0.501772 -6.93772e-07)
(8.70382 0.501765 -1.08342e-07)
(8.72514 0.304876 9.49389e-08)
(8.72526 0.304881 8.2804e-07)
(8.72526 0.304882 1.55106e-06)
(8.72526 0.304883 2.11319e-06)
(8.72526 0.304884 2.60439e-06)
(8.72526 0.304885 2.971e-06)
(8.72526 0.304886 3.24931e-06)
(8.72526 0.304888 3.40263e-06)
(8.72526 0.304889 3.46363e-06)
(8.72526 0.304891 3.42607e-06)
(8.72526 0.304892 3.31541e-06)
(8.72526 0.304894 3.13554e-06)
(8.72526 0.304895 2.91011e-06)
(8.72526 0.304896 2.63737e-06)
(8.72526 0.304898 2.35312e-06)
(8.72526 0.304899 2.02053e-06)
(8.72526 0.3049 1.69807e-06)
(8.72526 0.3049 1.31302e-06)
(8.72526 0.304901 9.68082e-07)
(8.72514 0.304897 4.916e-07)
(8.68856 0.297807 -2.28879e-07)
(8.68868 0.297811 -4.68355e-07)
(8.68868 0.297811 -6.81736e-07)
(8.68868 0.29781 -8.96556e-07)
(8.68868 0.297809 -1.02403e-06)
(8.68868 0.297809 -1.17112e-06)
(8.68868 0.297808 -1.25807e-06)