/*--------------------------------*- C++ -*----------------------------------*\
| =========                 |                                                 |
| \\      /  F ield         | OpenFOAM: The Open Source CFD Toolbox           |
|  \\    /   O peration     | Version:  2212                                  |
|   \\  /    A nd           | Website:  www.openfoam.com                      |
|    \\/     M anipulation  |                                                 |
\*---------------------------------------------------------------------------*/
FoamFile
{
    version     2.0;
    format      ascii;
    arch        "LSB;label=32;scalar=64";
    class       volScalarField;
    location    "120";
    object      k;
}
// * * * * * * * * * * * * * * * * * * * * * * * * * * * * * * * * * * * * * //

dimensions      [0 2 -2 0 0 0 0];

internalField   nonuniform List<scalar> 
12225
(
0.308577
0.226138
0.181583
0.152229
0.133271
0.121449
0.113663
0.108085
0.103806
0.100357
0.0975002
0.0951119
0.0931471
0.0915405
0.0903697
0.0895341
0.0894037
0.089157
0.352584
0.25516
0.191003
0.15706
0.13743
0.125027
0.116371
0.109738
0.104321
0.0997331
0.0957843
0.092351
0.0893787
0.0867384
0.0845049
0.0824435
0.080698
0.0793896
0.35828
0.290218
0.233325
0.195697
0.171263
0.154729
0.142853
0.133758
0.126422
0.120306
0.115105
0.110612
0.106715
0.103269
0.100285
0.0975598
0.0951709
0.0928629
0.361093
0.310635
0.263694
0.227397
0.201076
0.181834
0.167374
0.156105
0.147008
0.139459
0.133069
0.127575
0.12281
0.118618
0.114946
0.111635
0.108732
0.105941
0.3625
0.322853
0.283682
0.250491
0.224387
0.204106
0.188198
0.175477
0.165076
0.156398
0.149037
0.142706
0.137208
0.132379
0.128128
0.124326
0.120973
0.11782
0.363255
0.330517
0.297219
0.267432
0.242563
0.222294
0.205798
0.192256
0.180996
0.171501
0.163394
0.156393
0.150293
0.144931
0.140194
0.135969
0.132223
0.128749
0.363659
0.335492
0.306639
0.279984
0.256769
0.237121
0.220627
0.206759
0.19502
0.184997
0.176362
0.168858
0.162287
0.156493
0.151355
0.146772
0.142687
0.138924
0.363868
0.338777
0.313302
0.28934
0.267867
0.24916
0.233051
0.219217
0.207309
0.197009
0.188046
0.180198
0.173284
0.167159
0.161706
0.156829
0.152459
0.148447
0.363967
0.340953
0.318035
0.296317
0.276503
0.258868
0.24337
0.22982
0.217979
0.20761
0.198495
0.190448
0.183312
0.176956
0.17127
0.166165
0.161568
0.157349
0.364006
0.342382
0.321372
0.301489
0.283166
0.266616
0.251842
0.238735
0.227132
0.216854
0.207733
0.199615
0.192367
0.185872
0.180034
0.174767
0.170002
0.165625
0.364014
0.343299
0.32369
0.30527
0.288238
0.272711
0.258697
0.246119
0.234864
0.224796
0.215783
0.2077
0.200434
0.193886
0.187968
0.182604
0.177727
0.173241
0.364011
0.343822
0.325128
0.307751
0.291708
0.277026
0.263687
0.251625
0.240746
0.230942
0.222105
0.21413
0.20692
0.200388
0.194457
0.189058
0.184128
0.179585
0.364004
0.344155
0.326122
0.309558
0.294335
0.280396
0.267683
0.256127
0.245642
0.236136
0.227517
0.219695
0.212587
0.206116
0.200215
0.194821
0.189877
0.185311
0.363996
0.344374
0.326844
0.310958
0.29647
0.283237
0.271158
0.260142
0.250102
0.240954
0.232616
0.225009
0.21806
0.211705
0.205882
0.200536
0.195617
0.191064
0.363989
0.344496
0.327303
0.311923
0.298033
0.285419
0.273928
0.263443
0.253867
0.245111
0.237097
0.229755
0.223018
0.216828
0.211132
0.205881
0.20103
0.19653
0.363984
0.344551
0.327549
0.312495
0.29903
0.286892
0.275888
0.26587
0.256723
0.24835
0.24067
0.233613
0.227115
0.221124
0.21559
0.21047
0.205724
0.201312
0.363981
0.344568
0.327651
0.312767
0.29955
0.287717
0.27705
0.267377
0.258565
0.250506
0.243111
0.236308
0.230034
0.224235
0.218865
0.213884
0.209253
0.204941
0.363979
0.344569
0.327677
0.312852
0.299734
0.288034
0.277526
0.268027
0.259393
0.251508
0.244278
0.237626
0.231488
0.225809
0.220543
0.21565
0.211096
0.206849
0.363979
0.344565
0.327659
0.312809
0.299653
0.287908
0.277347
0.267793
0.259103
0.251163
0.243881
0.23718
0.230996
0.225275
0.21997
0.215042
0.210456
0.206184
0.363982
0.344544
0.32755
0.312525
0.299113
0.287045
0.276121
0.266184
0.257113
0.248806
0.24118
0.234163
0.227694
0.221717
0.216187
0.211061
0.206303
0.201884
0.363986
0.344466
0.327227
0.311795
0.297853
0.285189
0.27365
0.263115
0.253485
0.244671
0.236595
0.229183
0.222373
0.216105
0.210327
0.204993
0.200062
0.195501
0.363994
0.344225
0.326402
0.310136
0.29524
0.281609
0.269159
0.257809
0.247471
0.238057
0.229481
0.22166
0.214518
0.207985
0.201998
0.196502
0.191448
0.186799
0.364001
0.343616
0.324617
0.306905
0.290541
0.275569
0.261972
0.249679
0.23859
0.228594
0.219577
0.211431
0.204057
0.197366
0.19128
0.18573
0.180658
0.176021
0.363989
0.342285
0.321212
0.301286
0.28292
0.266309
0.25145
0.238232
0.226495
0.216069
0.206788
0.198502
0.19108
0.184408
0.178388
0.172938
0.167986
0.163489
0.363901
0.339668
0.315263
0.292226
0.271386
0.253007
0.236981
0.22306
0.210959
0.200405
0.191157
0.183011
0.175795
0.169369
0.163616
0.158443
0.153768
0.149548
0.363618
0.334828
0.305351
0.278221
0.254656
0.234703
0.217926
0.2038
0.191835
0.181617
0.172812
0.165158
0.158447
0.152521
0.147249
0.142534
0.138287
0.134476
0.362909
0.325998
0.289013
0.256953
0.23097
0.210209
0.193572
0.180092
0.169005
0.159736
0.151868
0.1451
0.13921
0.134035
0.129446
0.125358
0.121674
0.118388
0.361263
0.309486
0.26154
0.224762
0.197897
0.178079
0.163159
0.151601
0.142358
0.134752
0.128346
0.122853
0.118075
0.113879
0.110149
0.106836
0.103826
0.101169
0.355887
0.276248
0.215133
0.177759
0.154159
0.138557
0.127633
0.119471
0.113011
0.107674
0.103137
0.0992073
0.0957547
0.092704
0.0899631
0.0875351
0.085288
0.083329
0.302816
0.220068
0.178769
0.152535
0.134427
0.121982
0.113291
0.106966
0.10214
0.0982867
0.0950841
0.0923436
0.0899483
0.0878321
0.0859304
0.0842309
0.0826639
0.0812607
0.000781148
0.0010423
0.00135352
0.00166182
0.00192881
0.00214247
0.00231554
0.00244748
0.00254648
0.00262678
0.00271348
0.00285592
0.00309692
0.00340736
0.00376812
0.00417525
0.00463035
0.00513583
0.00569201
0.00629771
0.00694986
0.00764393
0.00837334
0.00913239
0.00991438
0.010715
0.011529
0.012354
0.013175
0.0139858
0.0147822
0.0155633
0.0163254
0.0170692
0.0177918
0.0184948
0.0191756
0.0198364
0.0204745
0.0210925
0.0216875
0.0222623
0.0228138
0.0233448
0.023852
0.0243381
0.0247997
0.0252392
0.0256531
0.026044
0.0264088
0.0267513
0.027071
0.0273759
0.0276567
0.0279169
0.0281532
0.0283675
0.0285569
0.0287225
0.028862
0.028976
0.0290618
0.0291186
0.0291599
0.0291661
0.0291463
0.0291122
0.0290317
0.0289249
0.028789
0.0286228
0.0284255
0.0281933
0.0279342
0.0276505
0.0273429
0.027009
0.0266525
0.0262722
0.0258726
0.0254525
0.0250167
0.0245637
0.0240991
0.0236216
0.0231367
0.0226443
0.0221497
0.0216597
0.0212033
0.0208947
0.0207564
0.0206653
0.02058
0.0204907
0.0203956
0.0202944
0.0201877
0.0200761
0.0199602
0.0198408
0.0197186
0.0195941
0.0194681
0.019341
0.0192133
0.0190853
0.0189576
0.0188304
0.0187041
0.0185788
0.0184552
0.0183331
0.018213
0.0180947
0.0179784
0.0178642
0.0177524
0.0176432
0.0175365
0.0174326
0.0173315
0.0172332
0.0171378
0.0170451
0.0169551
0.0168677
0.0167829
0.0167006
0.0166208
0.0165434
0.0164685
0.0163958
0.0163255
0.0162573
0.0161912
0.0161271
0.016065
0.0160047
0.0159462
0.0158894
0.0158343
0.0157808
0.015729
0.0156786
0.0156297
0.0155822
0.0155359
0.0154908
0.0154465
0.0154032
0.0153606
0.0153215
0.0152814
0.0152436
0.0152044
0.0151674
0.0151291
0.0150932
0.0150556
0.0150207
0.014985
0.0149487
0.0149135
0.0148768
0.0148402
0.0148011
0.0147613
0.0147169
0.01467
0.0146161
0.0145535
0.0144796
0.0143914
0.0142743
0.0141399
0.0139086
0.0136755
0.0129433
0.00158569
0.00192372
0.0026114
0.00323913
0.00378291
0.00426151
0.00469071
0.00509328
0.00548419
0.00587399
0.00627164
0.00668595
0.00712307
0.00758381
0.00806913
0.00858183
0.00912554
0.00970319
0.010316
0.0109639
0.0116457
0.0123599
0.0131036
0.0138746
0.0146707
0.0154908
0.0163338
0.0171882
0.0180479
0.0189118
0.0197779
0.020646
0.0215149
0.0223848
0.0232547
0.0241253
0.0249959
0.0258672
0.0267386
0.0276108
0.028483
0.0293561
0.0302291
0.0311026
0.0319753
0.0328475
0.0337175
0.0345852
0.0354485
0.0363066
0.0371569
0.0379981
0.0388277
0.039645
0.0404527
0.0412495
0.0420326
0.0428
0.0435486
0.044276
0.0449787
0.0456541
0.0462989
0.0469106
0.0474845
0.0480182
0.0485094
0.0489559
0.0493523
0.0496994
0.0499946
0.0502353
0.0504211
0.0505344
0.0505819
0.0505805
0.0505243
0.0504126
0.0502469
0.0500279
0.0497581
0.0494394
0.0490749
0.0486669
0.0482191
0.0477341
0.047216
0.046668
0.0460948
0.0455018
0.0448996
0.0443043
0.0437183
0.0431286
0.0425293
0.0419196
0.0413008
0.0406748
0.0400436
0.039409
0.0387729
0.038137
0.0375027
0.0368717
0.0362452
0.0356245
0.0350105
0.0344043
0.0338066
0.0332182
0.0326397
0.0320716
0.0315143
0.0309683
0.0304338
0.0299105
0.0293982
0.0288978
0.0284095
0.0279334
0.0274695
0.0270177
0.0265781
0.0261503
0.0257343
0.0253298
0.0249365
0.0245541
0.0241824
0.023821
0.0234697
0.0231284
0.0227967
0.0224744
0.0221611
0.0218566
0.0215606
0.0212727
0.0209927
0.0207202
0.0204551
0.0201973
0.0199465
0.0197025
0.019465
0.0192338
0.0190086
0.0187893
0.0185755
0.018367
0.0181633
0.0179644
0.0177727
0.0175871
0.017407
0.0172286
0.0170556
0.0168846
0.0167191
0.0165562
0.0163978
0.0162446
0.0160916
0.015945
0.0157999
0.0156602
0.0155213
0.0153871
0.0152542
0.0151238
0.0149972
0.0148682
0.0147427
0.0146167
0.0144926
0.0143679
0.0142425
0.0141113
0.0139471
0.0136239
0.00239596
0.00319475
0.00427354
0.00516687
0.00592862
0.00661359
0.00725541
0.0078756
0.00848756
0.00909922
0.00971533
0.0103392
0.0109735
0.0116204
0.0122828
0.0129653
0.0136726
0.0144092
0.015178
0.0159802
0.0168147
0.0176807
0.0185763
0.0194992
0.0204465
0.0214149
0.0224006
0.0233994
0.0244077
0.0254233
0.0264439
0.027468
0.028494
0.0295209
0.0305475
0.0315737
0.0325987
0.0336225
0.0346449
0.0356662
0.0366861
0.0377052
0.0387233
0.0397407
0.0407573
0.0417733
0.0427881
0.0438017
0.0448134
0.0458228
0.0468291
0.0478317
0.0488298
0.0498224
0.0508073
0.0517824
0.0527448
0.0536916
0.0546195
0.0555249
0.056404
0.057253
0.0580677
0.0588442
0.0595775
0.060264
0.0608995
0.06148
0.0620018
0.0624623
0.0628588
0.0631887
0.0634499
0.0636374
0.0637404
0.0637742
0.063739
0.0636355
0.0634637
0.0632251
0.062922
0.062557
0.0621333
0.0616545
0.0611243
0.0605467
0.059926
0.0592667
0.0585739
0.0578538
0.0571142
0.0563627
0.0556012
0.0548274
0.0540403
0.0532404
0.0524297
0.0516105
0.0507852
0.0499561
0.0491255
0.0482955
0.0474679
0.0466448
0.0458275
0.0450178
0.0442169
0.043426
0.042646
0.0418779
0.0411225
0.0403804
0.0396522
0.0389382
0.0382389
0.0375544
0.0368847
0.03623
0.0355906
0.0349663
0.0343572
0.0337633
0.0331842
0.03262
0.0320703
0.0315349
0.0310135
0.0305057
0.0300113
0.0295298
0.0290612
0.028605
0.0281611
0.0277291
0.0273085
0.0268991
0.0265004
0.0261122
0.025734
0.0253655
0.0250066
0.0246571
0.0243167
0.023985
0.0236617
0.0233465
0.0230392
0.0227394
0.0224468
0.0221614
0.0218828
0.0216107
0.0213459
0.0210878
0.0208371
0.020591
0.0203515
0.0201162
0.0198873
0.0196628
0.0194439
0.0192303
0.0190207
0.0188166
0.0186162
0.0184214
0.0182298
0.0180432
0.0178599
0.0176805
0.017505
0.0173317
0.0171618
0.0169942
0.0168293
0.0166707
0.016515
0.0163674
0.0162066
0.0159222
0.00291428
0.00448514
0.00595457
0.00708477
0.00802476
0.00885976
0.00963767
0.0103869
0.0111246
0.0118606
0.0126003
0.0133473
0.0141042
0.0148745
0.0156623
0.0164724
0.0173092
0.0181764
0.0190759
0.0200083
0.0209731
0.0219683
0.0229911
0.0240382
0.025106
0.0261907
0.0272883
0.0283955
0.029509
0.0306266
0.0317459
0.0328654
0.0339836
0.0350997
0.0362129
0.037323
0.0384297
0.0395333
0.0406338
0.0417317
0.0428276
0.0439219
0.0450152
0.0461081
0.0472011
0.0482946
0.0493889
0.0504841
0.0515802
0.052677
0.053774
0.0548706
0.0559654
0.0570569
0.0581429
0.0592209
0.0602879
0.0613408
0.0623759
0.0633891
0.0643763
0.065333
0.0662543
0.0671356
0.0679716
0.0687575
0.0694884
0.0701596
0.0707668
0.0713061
0.0717739
0.0721675
0.072484
0.0727213
0.0728703
0.0729345
0.0729213
0.0728294
0.0726592
0.0724125
0.0720916
0.0716996
0.0712398
0.0707161
0.0701327
0.0694941
0.0688049
0.0680703
0.0672958
0.0664875
0.0656515
0.0647935
0.0639166
0.0630221
0.0621111
0.0611856
0.0602478
0.0593005
0.0583463
0.057388
0.056428
0.0554688
0.0545125
0.0535612
0.0526168
0.051681
0.0507553
0.049841
0.0489394
0.0480514
0.047178
0.0463199
0.0454776
0.0446518
0.0438428
0.0430507
0.0422758
0.0415183
0.0407781
0.0400552
0.0393496
0.0386611
0.0379897
0.037335
0.0366968
0.0360748
0.0354688
0.0348782
0.0343028
0.0337422
0.033196
0.0326639
0.0321456
0.0316406
0.0311485
0.0306691
0.0302018
0.0297462
0.0293021
0.028869
0.0284472
0.0280361
0.0276353
0.0272445
0.0268632
0.0264913
0.0261283
0.0257739
0.0254279
0.0250903
0.0247608
0.0244391
0.0241252
0.0238187
0.02352
0.0232277
0.0229425
0.0226634
0.022391
0.0221245
0.0218642
0.0216097
0.0213607
0.0211175
0.0208794
0.0206469
0.0204193
0.020197
0.0199793
0.0197663
0.0195581
0.019354
0.0191544
0.018959
0.0187681
0.0185835
0.0184078
0.0182419
0.0180909
0.017819
0.00319057
0.00568425
0.00752534
0.00887608
0.00997438
0.0109317
0.0118092
0.0126436
0.0134579
0.0142667
0.0150793
0.0159018
0.0167389
0.0175951
0.0184745
0.0193809
0.0203175
0.0212862
0.0222874
0.0233205
0.0243834
0.0254735
0.0265874
0.0277215
0.028872
0.0300355
0.0312083
0.0323875
0.0335703
0.0347545
0.0359383
0.0371203
0.0382993
0.0394746
0.0406456
0.0418123
0.0429747
0.0441332
0.045288
0.0464399
0.0475895
0.0487377
0.0498852
0.0510329
0.0521816
0.053332
0.0544847
0.05564
0.056798
0.0579588
0.0591219
0.0602865
0.0614513
0.0626149
0.0637749
0.064929
0.0660742
0.0672069
0.0683234
0.0694195
0.0704905
0.0715316
0.0725375
0.073503
0.0744224
0.0752903
0.0761011
0.0768497
0.0775309
0.0781402
0.0786734
0.0791269
0.0794976
0.0797831
0.0799788
0.08008
0.0800964
0.0800258
0.0798691
0.0796279
0.0793047
0.0789025
0.0784248
0.0778759
0.0772601
0.0765823
0.0758475
0.0750613
0.0742291
0.0733568
0.0724501
0.0715141
0.0705528
0.0695692
0.0685659
0.0675456
0.0665113
0.0654659
0.0644126
0.0633542
0.0622936
0.0612335
0.0601763
0.0591243
0.0580796
0.0570441
0.0560196
0.0550075
0.0540092
0.0530258
0.0520583
0.0511076
0.0501744
0.0492591
0.0483624
0.0474843
0.0466253
0.0457852
0.0449643
0.0441624
0.0433795
0.0426154
0.04187
0.041143
0.0404341
0.039743
0.0390693
0.0384126
0.0377726
0.0371489
0.0365409
0.0359484
0.035371
0.0348081
0.0342594
0.0337246
0.033203
0.0326945
0.0321984
0.0317146
0.0312426
0.0307823
0.0303332
0.029895
0.0294672
0.0290497
0.0286419
0.0282437
0.0278547
0.0274754
0.0271051
0.0267435
0.0263904
0.0260454
0.0257085
0.0253792
0.0250576
0.0247433
0.0244364
0.0241363
0.0238429
0.023556
0.0232754
0.0230013
0.0227331
0.0224711
0.0222148
0.0219643
0.0217193
0.0214797
0.0212457
0.0210169
0.0207935
0.0205756
0.0203636
0.0201591
0.0199637
0.0197792
0.0196288
0.019358
0.00368921
0.00678542
0.00892089
0.010455
0.0116848
0.0127417
0.013697
0.0145946
0.0154633
0.0163226
0.0171857
0.0180619
0.0189578
0.0198783
0.0208272
0.0218069
0.022819
0.0238637
0.02494
0.0260462
0.0271795
0.0283368
0.0295145
0.0307094
0.0319178
0.0331366
0.0343626
0.0355933
0.0368261
0.0380592
0.0392909
0.04052
0.0417454
0.0429666
0.044183
0.0453948
0.0466019
0.0478048
0.0490039
0.0501999
0.0513937
0.0525862
0.0537783
0.0549711
0.0561653
0.057362
0.0585619
0.0597654
0.0609729
0.0621844
0.0633996
0.0646178
0.0658379
0.0670582
0.0682768
0.0694912
0.0706984
0.071895
0.0730769
0.07424
0.0753793
0.0764897
0.0775658
0.0786019
0.079592
0.0805303
0.0814108
0.0822279
0.0829759
0.0836497
0.0842445
0.0847562
0.0851812
0.0855165
0.0857598
0.0859053
0.0859575
0.0859169
0.085784
0.0855601
0.0852474
0.0848492
0.0843689
0.0838109
0.0831799
0.0824808
0.0817189
0.0808998
0.080029
0.0791123
0.078155
0.0771626
0.0761394
0.0750894
0.0740162
0.0729232
0.0718137
0.0706913
0.0695592
0.0684206
0.0672788
0.0661366
0.0649968
0.063862
0.0627344
0.0616161
0.0605092
0.0594152
0.0583357
0.0572719
0.0562249
0.0551958
0.0541853
0.0531941
0.0522226
0.0512712
0.0503401
0.0494295
0.0485394
0.0476698
0.0468206
0.0459917
0.0451828
0.0443937
0.043624
0.0428735
0.0421418
0.0414284
0.0407329
0.040055
0.039394
0.0387497
0.0381215
0.0375091
0.036912
0.0363297
0.0357618
0.0352079
0.0346675
0.0341403
0.0336258
0.0331238
0.0326338
0.0321555
0.0316886
0.0312326
0.0307873
0.0303522
0.0299272
0.0295121
0.0291067
0.0287105
0.0283235
0.0279452
0.0275755
0.0272141
0.0268612
0.0265167
0.0261801
0.025851
0.0255292
0.0252144
0.0249067
0.0246061
0.0243122
0.024025
0.0237442
0.0234696
0.0232013
0.0229392
0.0226832
0.0224333
0.0221896
0.0219525
0.0217223
0.0215005
0.0212886
0.0210873
0.0209237
0.0206542
0.00468968
0.00778317
0.0101032
0.0117708
0.0131016
0.0142387
0.0152591
0.0162112
0.0171275
0.0180309
0.0189375
0.0198588
0.0208026
0.0217741
0.0227766
0.0238117
0.0248796
0.0259796
0.02711
0.0282681
0.029451
0.0306557
0.0318787
0.0331169
0.0343672
0.0356266
0.0368924
0.0381623
0.039434
0.0407058
0.0419762
0.043244
0.0445083
0.0457684
0.047024
0.0482749
0.0495213
0.0507634
0.0520019
0.0532373
0.0544705
0.0557024
0.056934
0.0581664
0.0594006
0.0606374
0.0618778
0.0631222
0.0643713
0.065625
0.0668831
0.068145
0.0694098
0.0706759
0.0719413
0.0732038
0.0744603
0.0757075
0.0769415
0.0781578
0.0793517
0.0805178
0.0816508
0.0827446
0.0837932
0.0847905
0.0857304
0.0866067
0.0874136
0.0881454
0.088797
0.0893638
0.0898417
0.0902274
0.0905183
0.0907109
0.0908051
0.0908021
0.0907019
0.0905053
0.0902146
0.0898329
0.0893639
0.0888117
0.0881812
0.0874772
0.086705
0.0858702
0.0849782
0.0840347
0.0830452
0.082015
0.0809491
0.0798518
0.0787275
0.07758
0.0764133
0.0752311
0.074037
0.0728347
0.0716275
0.0704186
0.069211
0.0680076
0.0668108
0.0656231
0.0644466
0.063283
0.0621342
0.0610015
0.0598861
0.0587893
0.0577119
0.0566545
0.0556179
0.0546023
0.0536081
0.0526356
0.0516847
0.0507555
0.0498479
0.0489617
0.0480967
0.0472527
0.0464293
0.0456262
0.0448431
0.0440793
0.0433347
0.0426086
0.0419006
0.0412103
0.0405372
0.0398808
0.0392407
0.0386164
0.0380074
0.0374133
0.0368337
0.036268
0.035716
0.0351772
0.0346512
0.0341377
0.0336363
0.0331466
0.0326682
0.0322009
0.0317442
0.0312981
0.0308622
0.0304362
0.0300198
0.0296128
0.029215
0.028826
0.0284458
0.0280742
0.027711
0.0273559
0.0270086
0.0266689
0.0263368
0.0260127
0.0256959
0.0253863
0.0250836
0.0247876
0.0244986
0.0242164
0.0239411
0.0236725
0.0234107
0.0231563
0.0229098
0.0226723
0.0224454
0.0222294
0.0220454
0.0217883
0.00568631
0.00857306
0.0110179
0.0127883
0.0142003
0.0154057
0.0164853
0.0174897
0.0184534
0.019401
0.0203502
0.0213135
0.0222993
0.0233132
0.024358
0.0254351
0.0265442
0.0276841
0.0288526
0.0300472
0.0312649
0.0325029
0.0337582
0.0350279
0.0363091
0.0375993
0.038896
0.040197
0.0415004
0.0428046
0.044108
0.0454096
0.0467084
0.0480037
0.049295
0.0505823
0.0518654
0.0531446
0.0544202
0.055693
0.0569636
0.058233
0.059502
0.0607718
0.0620431
0.063317
0.0645943
0.0658756
0.0671613
0.0684517
0.0697464
0.071045
0.0723465
0.0736495
0.0749521
0.076252
0.0775465
0.0788321
0.0801052
0.0813613
0.0825958
0.0838035
0.0849789
0.0861162
0.0872094
0.0882522
0.0892386
0.0901622
0.0910171
0.0917975
0.092498
0.0931136
0.0936401
0.0940737
0.0944114
0.0946507
0.0947903
0.0948299
0.0947695
0.0946087
0.09435
0.0939965
0.0935516
0.0930195
0.0924043
0.0917111
0.0909448
0.0901109
0.0892147
0.0882618
0.0872576
0.0862075
0.0851167
0.08399
0.082832
0.0816471
0.0804395
0.0792135
0.0779728
0.0767215
0.0754631
0.0742012
0.0729391
0.0716797
0.070426
0.0691804
0.0679454
0.066723
0.0655151
0.0643233
0.0631491
0.0619936
0.0608579
0.0597429
0.0586491
0.0575772
0.0565275
0.0555001
0.0544954
0.0535132
0.0525536
0.0516163
0.0507013
0.0498081
0.0489366
0.0480864
0.0472571
0.0464481
0.0456592
0.0448899
0.0441396
0.0434078
0.0426942
0.0419983
0.0413194
0.0406572
0.0400113
0.039381
0.038766
0.0381658
0.0375799
0.0370081
0.0364498
0.0359046
0.0353723
0.0348523
0.0343444
0.0338481
0.0333632
0.0328894
0.0324264
0.0319738
0.0315315
0.031099
0.0306763
0.0302629
0.0298587
0.0294636
0.0290773
0.0286995
0.0283301
0.0279687
0.0276152
0.0272698
0.0269321
0.026602
0.0262792
0.0259636
0.0256558
0.0253555
0.0250625
0.0247767
0.0244984
0.0242282
0.0239666
0.0237146
0.0234735
0.0232441
0.0230399
0.0227855
0.00659428
0.00914007
0.0116601
0.0135095
0.0149884
0.0162539
0.0173892
0.0184456
0.019458
0.0204513
0.0214435
0.0224474
0.0234717
0.0245219
0.0256013
0.0267109
0.0278505
0.0290189
0.030214
0.0314337
0.0326755
0.0339368
0.0352149
0.0365075
0.0378118
0.0391257
0.040447
0.0417737
0.043104
0.0444364
0.0457693
0.0471018
0.0484328
0.0497615
0.0510874
0.05241
0.0537292
0.0550452
0.0563581
0.0576686
0.0589772
0.0602845
0.0615914
0.0628988
0.0642073
0.0655179
0.0668312
0.0681477
0.0694678
0.0707916
0.0721189
0.0734489
0.0747809
0.0761133
0.0774445
0.0787721
0.0800933
0.0814052
0.0827039
0.0839854
0.0852452
0.0864783
0.0876796
0.0888434
0.0899641
0.0910356
0.0920519
0.0930072
0.0938954
0.0947109
0.0954482
0.0961025
0.0966692
0.0971445
0.0975252
0.0978086
0.0979933
0.0980782
0.0980624
0.0979454
0.0977274
0.0974127
0.0970042
0.0965054
0.0959202
0.0952531
0.0945088
0.0936924
0.092809
0.091864
0.0908625
0.0898102
0.088712
0.0875732
0.0863986
0.0851929
0.0839606
0.0827061
0.0814338
0.0801477
0.0788519
0.0775502
0.076246
0.0749427
0.0736435
0.0723511
0.0710681
0.0697969
0.0685396
0.0672979
0.0660736
0.0648678
0.063682
0.0625169
0.0613734
0.0602521
0.0591535
0.0580779
0.0570255
0.0559963
0.0549903
0.0540075
0.0530477
0.0521106
0.0511959
0.0503033
0.0494324
0.0485828
0.047754
0.0469455
0.046157
0.0453878
0.0446375
0.0439057
0.0431918
0.0424953
0.0418158
0.0411527
0.0405056
0.039874
0.0392576
0.0386557
0.0380681
0.0374944
0.036934
0.0363867
0.035852
0.0353297
0.0348193
0.0343205
0.0338331
0.0333567
0.032891
0.0324357
0.0319906
0.0315554
0.0311299
0.0307139
0.030307
0.0299092
0.02952
0.0291394
0.0287672
0.0284032
0.0280473
0.0276994
0.0273591
0.0270265
0.0267017
0.0263846
0.0260752
0.0257734
0.0254796
0.0251948
0.0249191
0.0246533
0.0243985
0.0241562
0.0239338
0.023677
0.00736604
0.00949697
0.0120509
0.0139593
0.0154936
0.0168122
0.0179998
0.019107
0.020168
0.0212072
0.0222421
0.0232853
0.0243453
0.0254278
0.0265358
0.0276708
0.0288329
0.0300215
0.031235
0.0324719
0.03373
0.0350073
0.0363016
0.0376107
0.0389325
0.0402652
0.0416067
0.0429553
0.0443094
0.0456675
0.0470282
0.0483903
0.0497528
0.0511147
0.0524753
0.0538342
0.0551911
0.0565458
0.0578985
0.0592493
0.0605985
0.0619467
0.0632942
0.0646418
0.0659898
0.0673389
0.0686894
0.0700417
0.0713959
0.0727518
0.0741091
0.0754669
0.0768242
0.0781795
0.079531
0.0808765
0.0822132
0.0835382
0.084848
0.0861389
0.0874066
0.0886466
0.0898541
0.0910242
0.0921516
0.0932309
0.0942566
0.0952233
0.0961257
0.0969583
0.0977159
0.098394
0.0989883
0.0994949
0.0999107
0.100233
0.10046
0.10059
0.100621
0.100555
0.100386
0.100119
0.0997581
0.0993055
0.0987645
0.0981388
0.0974326
0.0966504
0.095797
0.0948774
0.0938965
0.0928595
0.0917718
0.0906383
0.089464
0.088254
0.0870129
0.0857455
0.0844562
0.0831497
0.0818301
0.0805014
0.0791677
0.0778324
0.076499
0.0751706
0.07385
0.0725399
0.0712425
0.0699599
0.0686939
0.0674461
0.0662178
0.0650101
0.063824
0.0626601
0.0615191
0.0604014
0.0593072
0.0582366
0.0571898
0.0561667
0.055167
0.0541907
0.0532375
0.052307
0.0513988
0.0505126
0.0496479
0.0488042
0.0479812
0.0471782
0.0463948
0.0456305
0.0448849
0.0441573
0.0434473
0.0427545
0.0420784
0.0414184
0.0407741
0.0401451
0.0395309
0.0389312
0.0383455
0.0377734
0.0372145
0.0366685
0.036135
0.0356137
0.0351042
0.0346062
0.0341195
0.0336437
0.0331785
0.0327237
0.032279
0.0318441
0.0314189
0.0310031
0.0305964
0.0301987
0.0298097
0.0294293
0.0290573
0.0286936
0.028338
0.0279903
0.0276507
0.027319
0.0269954
0.0266798
0.0263724
0.0260739
0.0257848
0.0255058
0.0252378
0.0249829
0.0247442
0.0244819
0.00796854
0.0096692
0.0122228
0.0141737
0.0157532
0.0171186
0.018354
0.019509
0.0206165
0.0217001
0.0227761
0.0238562
0.0249487
0.0260591
0.0271909
0.0283461
0.0295253
0.0307285
0.0319549
0.0332034
0.0344725
0.0357607
0.0370664
0.0383879
0.0397235
0.0410717
0.0424308
0.0437993
0.0451758
0.0465589
0.0479472
0.0493395
0.0507344
0.0521313
0.0535291
0.0549274
0.0563254
0.057723
0.0591197
0.0605155
0.0619103
0.0633042
0.0646973
0.0660896
0.0674814
0.0688728
0.0702636
0.0716538
0.0730431
0.0744311
0.0758168
0.0771994
0.0785773
0.079949
0.0813124
0.0826654
0.0840051
0.0853289
0.0866335
0.0879154
0.089171
0.0903963
0.0915873
0.0927397
0.0938492
0.0949113
0.0959213
0.0968748
0.0977677
0.098595
0.0993519
0.100035
0.10064
0.101164
0.101603
0.101956
0.102219
0.102391
0.102471
0.102457
0.102345
0.102135
0.101832
0.101438
0.100955
0.100386
0.0997335
0.0990024
0.0981965
0.0973201
0.0963777
0.0953741
0.0943145
0.0932039
0.0920471
0.0908494
0.0896156
0.0883507
0.0870595
0.0857467
0.0844169
0.0830745
0.0817236
0.0803682
0.079012
0.0776584
0.0763106
0.0749714
0.0736433
0.0723287
0.0710297
0.0697479
0.0684849
0.067242
0.0660203
0.0648206
0.0636436
0.0624899
0.0613598
0.0602535
0.0591711
0.0581128
0.0570783
0.0560675
0.0550802
0.0541161
0.0531749
0.0522561
0.0513594
0.0504843
0.0496303
0.048797
0.0479838
0.0471904
0.0464161
0.0456606
0.0449232
0.0442035
0.0435011
0.0428154
0.042146
0.0414925
0.0408543
0.0402311
0.0396225
0.039028
0.0384472
0.0378799
0.0373255
0.0367838
0.0362544
0.035737
0.0352313
0.034737
0.0342537
0.0337812
0.0333193
0.0328676
0.0324259
0.031994
0.0315716
0.0311586
0.0307546
0.0303595
0.0299732
0.0295955
0.0292262
0.0288652
0.0285125
0.028168
0.0278319
0.027504
0.0271847
0.0268744
0.0265736
0.026283
0.0260034
0.0257362
0.0254828
0.0252132
0.00836576
0.00966122
0.0121981
0.0141791
0.0158006
0.0172104
0.0184911
0.019691
0.0208406
0.0219642
0.0230772
0.0241905
0.0253118
0.0264466
0.0275985
0.0287701
0.0299628
0.0311771
0.0324128
0.0336696
0.0349466
0.036243
0.0375576
0.0388894
0.0402373
0.0415999
0.0429761
0.0443647
0.0457644
0.0471737
0.0485914
0.0500163
0.0514471
0.0528829
0.0543227
0.0557656
0.0572107
0.0586573
0.0601047
0.0615523
0.0629996
0.0644461
0.0658913
0.0673347
0.068776
0.0702145
0.0716496
0.0730806
0.0745066
0.0759265
0.0773391
0.0787429
0.0801359
0.0815163
0.0828819
0.0842301
0.0855585
0.0868643
0.0881446
0.0893965
0.0906168
0.0918026
0.0929506
0.0940577
0.0951209
0.0961372
0.0971027
0.0980134
0.0988653
0.0996547
0.10038
0.10104
0.101632
0.102153
0.102601
0.102972
0.103265
0.103477
0.103606
0.10365
0.103607
0.103469
0.103235
0.102912
0.1025
0.102003
0.10142
0.100757
0.100017
0.0992014
0.0983155
0.0973634
0.0963498
0.0952796
0.0941576
0.0929889
0.0917785
0.0905317
0.0892534
0.0879487
0.0866224
0.0852793
0.0839239
0.0825604
0.0811928
0.079825
0.0784603
0.0771019
0.0757527
0.0744152
0.0730917
0.0717842
0.0704944
0.0692238
0.0679736
0.0667449
0.0655384
0.0643549
0.0631948
0.0620584
0.0609459
0.0598575
0.0587931
0.0577526
0.0567359
0.0557425
0.0547724
0.0538251
0.0529002
0.0519973
0.0511161
0.0502559
0.0494163
0.0485969
0.0477972
0.0470166
0.0462548
0.0455111
0.0447852
0.0440765
0.0433845
0.0427089
0.0420492
0.041405
0.0407757
0.0401611
0.0395607
0.0389742
0.0384011
0.0378411
0.0372939
0.036759
0.0362363
0.0357254
0.0352259
0.0347376
0.0342602
0.0337934
0.033337
0.0328907
0.0324543
0.0320275
0.0316102
0.0312021
0.030803
0.0304128
0.0300314
0.0296585
0.0292942
0.0289384
0.0285911
0.0282525
0.0279226
0.0276018
0.0272907
0.0269898
0.0266998
0.0264218
0.0261559
0.0258795
0.00856913
0.00956755
0.0120704
0.0140709
0.0157135
0.0171482
0.0184572
0.0196885
0.0208731
0.0220322
0.0231785
0.0243215
0.0254685
0.0266244
0.0277925
0.0289778
0.0301819
0.0314058
0.03265
0.0339145
0.0351991
0.0365035
0.0378273
0.0391701
0.0405313
0.0419103
0.043306
0.0447175
0.0461436
0.0475832
0.0490352
0.0504983
0.0519714
0.0534533
0.0549426
0.0564381
0.0579386
0.0594429
0.0609498
0.062458
0.0639663
0.0654736
0.0669786
0.0684801
0.0699767
0.0714673
0.0729502
0.0744239
0.0758869
0.0773372
0.0787729
0.0801918
0.0815917
0.0829701
0.0843246
0.0856526
0.0869515
0.0882189
0.0894522
0.0906493
0.0918077
0.0929254
0.0940006
0.0950317
0.0960164
0.0969498
0.0978276
0.0986536
0.0994277
0.10015
0.100823
0.101442
0.102004
0.102507
0.102948
0.103324
0.103632
0.103872
0.104039
0.104133
0.104151
0.104092
0.103943
0.103708
0.103388
0.102984
0.102496
0.101921
0.101264
0.100528
0.0997166
0.0988335
0.0978839
0.0968716
0.0958013
0.0946779
0.093507
0.0922936
0.0910431
0.0897607
0.0884516
0.0871208
0.0857734
0.0844137
0.0830463
0.0816752
0.0803041
0.0789366
0.0775758
0.0762245
0.0748853
0.0735604
0.0722518
0.0709611
0.0696897
0.0684389
0.0672096
0.0660026
0.0648186
0.0636579
0.0625209
0.0614077
0.0603185
0.0592531
0.0582115
0.0571934
0.0561986
0.0552269
0.0542778
0.0533509
0.052446
0.0515624
0.0506998
0.0498577
0.0490357
0.0482332
0.0474497
0.0466849
0.0459382
0.0452091
0.0444973
0.0438021
0.0431233
0.0424603
0.0418128
0.0411803
0.0405624
0.0399588
0.039369
0.0387928
0.0382296
0.0376793
0.0371414
0.0366157
0.0361018
0.0355994
0.0351083
0.0346281
0.0341586
0.0336995
0.0332507
0.0328117
0.0323825
0.0319628
0.0315524
0.0311512
0.0307589
0.0303756
0.030001
0.0296351
0.029278
0.0289297
0.0285904
0.0282604
0.02794
0.0276299
0.0273306
0.027043
0.0267665
0.0264837
0.00854165
0.00934268
0.0118004
0.013814
0.0154852
0.0169522
0.0182945
0.0195578
0.0207701
0.0219531
0.0231213
0.0242846
0.0254499
0.0266225
0.0278061
0.0290058
0.0302227
0.0314583
0.0327134
0.0339887
0.0352845
0.0366007
0.0379368
0.0392949
0.0406744
0.0420752
0.0434965
0.0449377
0.046398
0.0478764
0.0493718
0.0508831
0.0524088
0.0539474
0.0554973
0.0570568
0.0586239
0.060197
0.061774
0.063353
0.0649318
0.0665084
0.0680805
0.069646
0.0712024
0.0727476
0.0742788
0.0757938
0.0772899
0.0787643
0.0802144
0.0816372
0.08303
0.08439
0.0857144
0.0870007
0.0882465
0.0894497
0.0906084
0.0917213
0.0927872
0.0938049
0.0947746
0.0956912
0.0965514
0.0973616
0.0981334
0.0988617
0.0995452
0.100184
0.100778
0.101328
0.101835
0.102296
0.10271
0.103076
0.10339
0.10365
0.103853
0.103997
0.104077
0.104091
0.10403
0.10388
0.103651
0.103341
0.10295
0.102481
0.10193
0.101297
0.100584
0.099792
0.0989242
0.0979866
0.0969842
0.0959219
0.0948058
0.0936408
0.0924323
0.0911859
0.0899072
0.0886017
0.0872744
0.0859305
0.0845745
0.0832109
0.081844
0.0804773
0.0791146
0.0777587
0.0764126
0.0750788
0.0737594
0.0724563