/*--------------------------------*- C++ -*----------------------------------*\
| =========                 |                                                 |
| \\      /  F ield         | OpenFOAM: The Open Source CFD Toolbox           |
|  \\    /   O peration     | Version:  2212                                  |
|   \\  /    A nd           | Website:  www.openfoam.com                      |
|    \\/     M anipulation  |                                                 |
\*---------------------------------------------------------------------------*/
FoamFile
{
    version     2.0;
    format      ascii;
    arch        "LSB;label=32;scalar=64";
    class       volScalarField;
    location    "0.2347";
    object      s;
}
// * * * * * * * * * * * * * * * * * * * * * * * * * * * * * * * * * * * * * //

dimensions      [0 0 0 0 0 0 0];

internalField   nonuniform List<scalar> 
24240
(
4.57773e-91
4.51297e-91
4.57072e-91
4.45816e-91
4.51631e-91
4.53804e-91
4.53441e-91
4.41193e-91
4.45696e-91
4.56871e-91
4.47678e-91
4.58502e-91
4.474e-91
4.56884e-91
4.43737e-91
4.60449e-91
4.42515e-91
4.48195e-91
4.50365e-91
4.38489e-91
2.67066e-88
2.63294e-88
2.66606e-88
2.60155e-88
2.63434e-88
2.64783e-88
2.64544e-88
2.57428e-88
2.60055e-88
2.66559e-88
2.61233e-88
2.67475e-88
2.61102e-88
2.66588e-88
2.58951e-88
2.68643e-88
2.58253e-88
2.61547e-88
2.62737e-88
2.55898e-88
8.29833e-86
8.18133e-86
8.28237e-86
8.08555e-86
8.18391e-86
8.22832e-86
8.22008e-86
7.99992e-86
8.08158e-86
8.28304e-86
8.11878e-86
8.31036e-86
8.11561e-86
8.28457e-86
8.04834e-86
8.34761e-86
8.02715e-86
8.12883e-86
8.16339e-86
7.95388e-86
1.4767e-83
1.45592e-83
1.47357e-83
1.43919e-83
1.45607e-83
1.46442e-83
1.46281e-83
1.42381e-83
1.43835e-83
1.47408e-83
1.44507e-83
1.47874e-83
1.44468e-83
1.47447e-83
1.43262e-83
1.48553e-83
1.42896e-83
1.44693e-83
1.45264e-83
1.41591e-83
1.8942e-81
1.86763e-81
1.8898e-81
1.84657e-81
1.8674e-81
1.87868e-81
1.87643e-81
1.82665e-81
1.84533e-81
1.89095e-81
1.85406e-81
1.89666e-81
1.85374e-81
1.89159e-81
1.83816e-81
1.90555e-81
1.83365e-81
1.85648e-81
1.86322e-81
1.81689e-81
1.69014e-79
1.66653e-79
1.68588e-79
1.64809e-79
1.66594e-79
1.67651e-79
1.67437e-79
1.63018e-79
1.6469e-79
1.68735e-79
1.65476e-79
1.69223e-79
1.65464e-79
1.68806e-79
1.64061e-79
1.70027e-79
1.6368e-79
1.65693e-79
1.66241e-79
1.62183e-79
1.04644e-77
1.03192e-77
1.0436e-77
1.0207e-77
1.0313e-77
1.03815e-77
1.03675e-77
1.00955e-77
1.01997e-77
1.04477e-77
1.02484e-77
1.04765e-77
1.02485e-77
1.04529e-77
1.01607e-77
1.05267e-77
1.01389e-77
1.02615e-77
1.02919e-77
1.00463e-77
4.3075e-76
4.24839e-76
4.29501e-76
4.20303e-76
4.2447e-76
4.27406e-76
4.26817e-76
4.15698e-76
4.20048e-76
4.30083e-76
4.22036e-76
4.31219e-76
4.22045e-76
4.3033e-76
4.18382e-76
4.33267e-76
4.17615e-76
4.22525e-76
4.23623e-76
4.13836e-76
4.72278e-75
4.65991e-75
4.70868e-75
4.61093e-75
4.6541e-75
4.68736e-75
4.68142e-75
4.5607e-75
4.61035e-75
4.71573e-75
4.6311e-75
4.72801e-75
4.63045e-75
4.71882e-75
4.58935e-75
4.7491e-75
4.58409e-75
4.63474e-75
4.64495e-75
4.54374e-75
2.80604e-75
2.80704e-75
2.81328e-75
2.77034e-75
2.78856e-75
2.79724e-75
2.8164e-75
2.75365e-75
2.82796e-75
2.79572e-75
2.80967e-75
2.81827e-75
2.77733e-75
2.79674e-75
2.73954e-75
2.78756e-75
2.79528e-75
2.76696e-75
2.77245e-75
2.79802e-75
4.41689e-75
4.45125e-75
4.49017e-75
4.41792e-75
4.39053e-75
4.40929e-75
4.45917e-75
4.37037e-75
4.50654e-75
4.47066e-75
4.49556e-75
4.47347e-75
4.44696e-75
4.39816e-75
4.36565e-75
4.40976e-75
4.38055e-75
4.38833e-75
4.41936e-75
4.43349e-75
5.07366e-75
5.11086e-75
5.13499e-75
5.0423e-75
5.03964e-75
4.9509e-75
5.06099e-75
4.98022e-75
5.09619e-75
5.20953e-75
5.1578e-75
5.03623e-75
5.15624e-75
5.07911e-75
5.07232e-75
5.10514e-75
4.90336e-75
5.07614e-75
4.9955e-75
5.01283e-75
5.83807e-75
5.93096e-75
5.91998e-75
5.88915e-75
5.92239e-75
5.96851e-75
6.10677e-75
5.92184e-75
5.9378e-75
5.86046e-75
5.88218e-75
5.88994e-75
5.94654e-75
5.95976e-75
5.8499e-75
5.92093e-75
5.95263e-75
5.87116e-75
5.83898e-75
5.85863e-75
6.38151e-75
6.36813e-75
6.40567e-75
6.52776e-75
6.47594e-75
6.54282e-75
6.43095e-75
6.55073e-75
6.43019e-75
6.25227e-75
6.31173e-75
6.34482e-75
6.37281e-75
6.27044e-75
6.2437e-75
6.31159e-75
6.25481e-75
6.37817e-75
6.31258e-75
6.44068e-75
6.52025e-75
6.50762e-75
6.6257e-75
6.55822e-75
6.50358e-75
6.61494e-75
6.59306e-75
6.69628e-75
6.52098e-75
6.62587e-75
6.59221e-75
6.60589e-75
6.6327e-75
6.62099e-75
6.56639e-75
6.73646e-75
6.55955e-75
6.48466e-75
6.56115e-75
6.56138e-75
6.56504e-75
6.44801e-75
6.47653e-75
6.45112e-75
6.54152e-75
6.58921e-75
6.58816e-75
6.54182e-75
6.40362e-75
6.44603e-75
6.38008e-75
6.57199e-75
6.56178e-75
6.64971e-75
6.62571e-75
6.61533e-75
6.55648e-75
6.56898e-75
6.49195e-75
6.51737e-75
6.02003e-75
6.10288e-75
6.02096e-75
6.23035e-75
6.04987e-75
6.19025e-75
6.07461e-75
6.15907e-75
6.07257e-75
6.10685e-75
6.09019e-75
6.20894e-75
6.09129e-75
6.26427e-75
6.0627e-75
6.16967e-75
6.15849e-75
5.99111e-75
6.18066e-75
6.17629e-75
5.4315e-75
5.6367e-75
5.57067e-75
5.51831e-75
5.46106e-75
5.69511e-75
5.59683e-75
5.61589e-75
5.57154e-75
5.47757e-75
5.55568e-75
5.66078e-75
5.53952e-75
5.75856e-75
5.548e-75
5.64751e-75
5.6798e-75
5.5841e-75
5.68411e-75
5.69465e-75
4.99843e-75
4.99462e-75
4.98183e-75
5.05514e-75
5.08546e-75
5.07893e-75
4.97655e-75
5.03837e-75
5.13385e-75
4.98212e-75
5.0886e-75
5.11125e-75
4.9632e-75
5.14906e-75
5.12052e-75
5.2233e-75
5.06557e-75
5.14736e-75
5.08261e-75
5.20829e-75
3.52105e-75
3.54741e-75
3.53312e-75
3.50308e-75
3.55662e-75
3.53717e-75
3.5638e-75
3.54213e-75
3.55245e-75
3.5983e-75
3.52216e-75
3.61276e-75
3.51901e-75
3.64468e-75
3.52749e-75
3.53046e-75
3.55389e-75
3.61998e-75
3.56113e-75
3.6526e-75
1.62479e-89
1.60181e-89
1.62205e-89
1.58272e-89
1.60272e-89
1.61092e-89
1.60946e-89
1.56615e-89
1.58208e-89
1.62178e-89
1.58927e-89
1.62735e-89
1.58847e-89
1.62189e-89
1.5754e-89
1.63444e-89
1.57103e-89
1.59117e-89
1.59847e-89
1.5567e-89
9.54555e-87
9.41081e-87
9.52765e-87
9.30073e-87
9.41412e-87
9.46525e-87
9.45564e-87
9.20232e-87
9.29588e-87
9.52855e-87
9.33885e-87
9.55998e-87
9.33532e-87
9.52992e-87
9.25801e-87
9.60275e-87
9.23286e-87
9.35044e-87
9.39064e-87
9.14841e-87
2.94886e-84
2.90733e-84
2.94277e-84
2.87396e-84
2.90773e-84
2.92442e-84
2.92116e-84
2.84325e-84
2.87216e-84
2.94383e-84
2.88565e-84
2.95314e-84
2.8849e-84
2.94448e-84
2.86086e-84
2.96669e-84
2.85328e-84
2.88937e-84
2.90092e-84
2.82714e-84
5.30258e-82
5.22812e-82
5.29063e-82
5.16924e-82
5.22769e-82
5.25931e-82
5.25292e-82
5.11351e-82
5.1655e-82
5.29394e-82
5.19011e-82
5.30994e-82
5.18937e-82
5.29551e-82
5.14581e-82
5.33486e-82
5.13261e-82
5.19702e-82
5.21619e-82
5.08551e-82
6.74441e-80
6.65005e-80
6.72792e-80
6.57657e-80
6.64799e-80
6.69026e-80
6.68148e-80
6.50506e-80
6.57128e-80
6.73389e-80
6.60295e-80
6.7533e-80
6.60272e-80
6.73638e-80
6.54687e-80
6.7856e-80
6.53076e-80
6.61193e-80
6.63423e-80
6.47078e-80
5.96297e-78
5.87994e-78
5.94726e-78
5.81621e-78
5.87677e-78
5.91593e-78
5.90765e-78
5.75252e-78
5.81123e-78
5.95413e-78
5.83947e-78
5.97047e-78
5.83985e-78
5.95676e-78
5.79003e-78
5.99944e-78
5.77653e-78
5.84746e-78
5.86527e-78
5.72342e-78
3.6359e-76
3.58563e-76
3.62564e-76
3.54749e-76
3.58281e-76
3.60775e-76
3.60245e-76
3.50842e-76
3.54444e-76
3.63075e-76
3.5617e-76
3.64022e-76
3.5622e-76
3.63261e-76
3.5315e-76
3.658e-76
3.52392e-76
3.56646e-76
3.57608e-76
3.49154e-76
1.47902e-74
1.45881e-74
1.47459e-74
1.44357e-74
1.45727e-74
1.46782e-74
1.46562e-74
1.42763e-74
1.44249e-74
1.47701e-74
1.44944e-74
1.48069e-74
1.44968e-74
1.47787e-74
1.43702e-74
1.48785e-74
1.43437e-74
1.45121e-74
1.4546e-74
1.42131e-74
1.59872e-73
1.57754e-73
1.59382e-73
1.56132e-73
1.57528e-73
1.58704e-73
1.58484e-73
1.54419e-73
1.56091e-73
1.59665e-73
1.56806e-73
1.60056e-73
1.56807e-73
1.59771e-73
1.55407e-73
1.60783e-73
1.55226e-73
1.56939e-73
1.57245e-73
1.53849e-73
9.33996e-74
9.34323e-74
9.36584e-74
9.22343e-74
9.2816e-74
9.31253e-74
9.37439e-74
9.16653e-74
9.41429e-74
9.30699e-74
9.35387e-74
9.3808e-74
9.24666e-74
9.30986e-74
9.12156e-74
9.27737e-74
9.30491e-74
9.21125e-74
9.22957e-74
9.31425e-74
1.4766e-73
1.48787e-73
1.50101e-73
1.47675e-73
1.46764e-73
1.47374e-73
1.49016e-73
1.4608e-73
1.5062e-73
1.49437e-73
1.50272e-73
1.49505e-73
1.48655e-73
1.47028e-73
1.45948e-73
1.47393e-73
1.46401e-73
1.46689e-73
1.47714e-73
1.48168e-73
1.68621e-73
1.69844e-73
1.7065e-73
1.67557e-73
1.67501e-73
1.64579e-73
1.68226e-73
1.65572e-73
1.69351e-73
1.73098e-73
1.71365e-73
1.67379e-73
1.71334e-73
1.68799e-73
1.6856e-73
1.69652e-73
1.62984e-73
1.68663e-73
1.66017e-73
1.66579e-73
1.9432e-73
1.97341e-73
1.97013e-73
1.96028e-73
1.97116e-73
1.98659e-73
2.03174e-73
1.97133e-73
1.97625e-73
1.95033e-73
1.95748e-73
1.96018e-73
1.97909e-73
1.98387e-73
1.9474e-73
1.97067e-73
1.98109e-73
1.9544e-73
1.94356e-73
1.95019e-73
2.10697e-73
2.10209e-73
2.1143e-73
2.15464e-73
2.13771e-73
2.15965e-73
2.12266e-73
2.16253e-73
2.12197e-73
2.06454e-73
2.08356e-73
2.09487e-73
2.10368e-73
2.07026e-73
2.06136e-73
2.08392e-73
2.06472e-73
2.10549e-73
2.08393e-73
2.12605e-73
2.15793e-73
2.15348e-73
2.19246e-73
2.16996e-73
2.15217e-73
2.18938e-73
2.1816e-73
2.21599e-73
2.1582e-73
2.19304e-73
2.18174e-73
2.18638e-73
2.19474e-73
2.19169e-73
2.17344e-73
2.22918e-73
2.17093e-73
2.14606e-73
2.17137e-73
2.17083e-73
2.1519e-73
2.11376e-73
2.12227e-73
2.11451e-73
2.14417e-73
2.15978e-73
2.15916e-73
2.14397e-73
2.09903e-73
2.11266e-73
2.0909e-73
2.15366e-73
2.15074e-73
2.17932e-73
2.17167e-73
2.16776e-73
2.14894e-73
2.15328e-73
2.12799e-73
2.13626e-73
1.98089e-73
2.00854e-73
1.98132e-73
2.04993e-73
1.99019e-73
2.0364e-73
1.99833e-73
2.0266e-73
1.9982e-73
2.00972e-73
2.00405e-73
2.0431e-73
2.00417e-73
2.06095e-73
1.99497e-73
2.02975e-73
2.02635e-73
1.97158e-73
2.03375e-73
2.03235e-73
1.77348e-73
1.83987e-73
1.8187e-73
1.80122e-73
1.78293e-73
1.85878e-73
1.82664e-73
1.83308e-73
1.81864e-73
1.78816e-73
1.81323e-73
1.84747e-73
1.80823e-73
1.87907e-73
1.81086e-73
1.84323e-73
1.85342e-73
1.82289e-73
1.85508e-73
1.85872e-73
1.64389e-73
1.64262e-73
1.6387e-73
1.66263e-73
1.67222e-73
1.67013e-73
1.6364e-73
1.65754e-73
1.68828e-73
1.63875e-73
1.67345e-73
1.6811e-73
1.63208e-73
1.69328e-73
1.68395e-73
1.71771e-73
1.66603e-73
1.69251e-73
1.67122e-73
1.71235e-73
1.15376e-73
1.16246e-73
1.15788e-73
1.14792e-73
1.16514e-73
1.15901e-73
1.16744e-73
1.1607e-73
1.16348e-73
1.1788e-73
1.15373e-73
1.18338e-73
1.15288e-73
1.19391e-73
1.1556e-73
1.1566e-73
1.1641e-73
1.18578e-73
1.16661e-73
1.19637e-73
5.95429e-88
5.87012e-88
5.94332e-88
5.80153e-88
5.87236e-88
5.90431e-88
5.89825e-88
5.74022e-88
5.79838e-88
5.94401e-88
5.82529e-88
5.96362e-88
5.82315e-88
5.94466e-88
5.77496e-88
5.99025e-88
5.75887e-88
5.83253e-88
5.85781e-88
5.70615e-88
3.45964e-85
3.41086e-85
3.45264e-85
3.37177e-85
3.41143e-85
3.43106e-85
3.42717e-85
3.33576e-85
3.36954e-85
3.45396e-85
3.38544e-85
3.46487e-85
3.38461e-85
3.45458e-85
3.35642e-85
3.48074e-85
3.34726e-85
3.38981e-85
3.4035e-85
3.31653e-85
1.04968e-82
1.03492e-82
1.04736e-82
1.02329e-82
1.03487e-82
1.04115e-82
1.03986e-82
1.01226e-82
1.0225e-82
1.04805e-82
1.0274e-82
1.05121e-82
1.02728e-82
1.04831e-82
1.01866e-82
1.05614e-82
1.01596e-82
1.02878e-82
1.03262e-82
1.00661e-82
1.86751e-80
1.84134e-80
1.86305e-80
1.82104e-80
1.84084e-80
1.85258e-80
1.85011e-80
1.80124e-80
1.81947e-80
1.86476e-80
1.82831e-80
1.87013e-80
1.8283e-80
1.86537e-80
1.81286e-80
1.8791e-80
1.80819e-80
1.83084e-80
1.83711e-80
1.79151e-80
2.33504e-78
2.30247e-78
2.32904e-78
2.27757e-78
2.30131e-78
2.3167e-78
2.31338e-78
2.2526e-78
2.27542e-78
2.3318e-78
2.28659e-78
2.33817e-78
2.28684e-78
2.33272e-78
2.26737e-78
2.34959e-78
2.26177e-78
2.28984e-78
2.29694e-78
2.24088e-78
2.04081e-76
2.0125e-76
2.0352e-76
1.99116e-76
2.01103e-76
2.02509e-76
2.02201e-76
1.96919e-76
1.98918e-76
2.03816e-76
1.99902e-76
2.04345e-76
1.99944e-76
2.0391e-76
1.98227e-76
2.05356e-76
1.97764e-76
2.00188e-76
2.00743e-76
1.95934e-76
1.22457e-74
1.20771e-74
1.22099e-74
1.19515e-74
1.20653e-74
1.21533e-74
1.21339e-74
1.18189e-74
1.19396e-74
1.22307e-74
1.19987e-74
1.22608e-74
1.20022e-74
1.22372e-74
1.18981e-74
1.23218e-74
1.18725e-74
1.20156e-74
1.20447e-74
1.17626e-74
4.91264e-73
4.84584e-73
4.89749e-73
4.79637e-73
4.83978e-73
4.87643e-73
4.86851e-73
4.74305e-73
4.79212e-73
4.90697e-73
4.81561e-73
4.91844e-73
4.81713e-73
4.90991e-73
4.77478e-73
4.94265e-73
4.76596e-73
4.82182e-73
4.83179e-73
4.72221e-73
5.23142e-72
5.16251e-72
5.21504e-72
5.11068e-72
5.15414e-72
5.19435e-72
5.18644e-72
5.05419e-72
5.10859e-72
5.22582e-72
5.13241e-72
5.23779e-72
5.13324e-72
5.22929e-72
5.08711e-72
5.26199e-72
5.08113e-72
5.13714e-72
5.1458e-72
5.03566e-72
3.00142e-72
3.00246e-72
3.01034e-72
2.96474e-72
2.98261e-72
2.99321e-72
3.01246e-72
2.94601e-72
3.02575e-72
2.9913e-72
3.00649e-72
3.01459e-72
2.97219e-72
2.99204e-72
2.93222e-72
2.98096e-72
2.9904e-72
2.96052e-72
2.96643e-72
2.99347e-72
4.76707e-72
4.80272e-72
4.84555e-72
4.76692e-72
4.73765e-72
4.75683e-72
4.80896e-72
4.71524e-72
4.86143e-72
4.82373e-72
4.85076e-72
4.8251e-72
4.79886e-72
4.74647e-72
4.71181e-72
4.75752e-72
4.72499e-72
4.7352e-72
4.76786e-72
4.7819e-72
5.41537e-72
5.45419e-72
5.48026e-72
5.38048e-72
5.37975e-72
5.28679e-72
5.40349e-72
5.31933e-72
5.43815e-72
5.55793e-72
5.50176e-72
5.37554e-72
5.50143e-72
5.42095e-72
5.41289e-72
5.44795e-72
5.23506e-72
5.41537e-72
5.33155e-72
5.34914e-72
6.25144e-72
6.34626e-72
6.33694e-72
6.30654e-72
6.34096e-72
6.39082e-72
6.53323e-72
6.34261e-72
6.35721e-72
6.27339e-72
6.29607e-72
6.30509e-72
6.3662e-72
6.38282e-72
6.26579e-72
6.33946e-72
6.37252e-72
6.28809e-72
6.25276e-72
6.27431e-72
6.73449e-72
6.71738e-72
6.75572e-72
6.88476e-72
6.83127e-72
6.90092e-72
6.78256e-72
6.91098e-72
6.77888e-72
6.59957e-72
6.65835e-72
6.69582e-72
6.72253e-72
6.61699e-72
6.58834e-72
6.66081e-72
6.5981e-72
6.72851e-72
6.65989e-72
6.79389e-72
6.91549e-72
6.90013e-72
7.02465e-72
6.95212e-72
6.89632e-72
7.01647e-72
6.98973e-72
7.10069e-72
6.91628e-72
7.02815e-72
6.99144e-72
7.00673e-72
7.03183e-72
7.02494e-72
6.96587e-72
7.14244e-72
6.95695e-72
6.87699e-72
6.95794e-72
6.95426e-72
6.84497e-72
6.72451e-72
6.74902e-72
6.72627e-72
6.8203e-72
6.86982e-72
6.86693e-72
6.81911e-72
6.67723e-72
6.71998e-72
6.6503e-72
6.84886e-72
6.84108e-72
6.93104e-72
6.90745e-72
6.89359e-72
6.83495e-72
6.84965e-72
6.76917e-72
6.79518e-72
6.32724e-72
6.41648e-72
6.32871e-72
6.54646e-72
6.35513e-72
6.50262e-72
6.38113e-72
6.47263e-72
6.38218e-72
6.41972e-72
6.40088e-72
6.52586e-72
6.40089e-72
6.58166e-72
6.37228e-72
6.48177e-72
6.47186e-72
6.29806e-72
6.49565e-72
6.49138e-72
5.62986e-72
5.83859e-72
5.77264e-72
5.71618e-72
5.65918e-72
5.89805e-72
5.79589e-72
5.81709e-72
5.77125e-72
5.67529e-72
5.75332e-72
5.86186e-72
5.7385e-72
5.96107e-72
5.74628e-72
5.84861e-72
5.87989e-72
5.7852e-72
5.88597e-72
5.89811e-72
5.25457e-72
5.25069e-72
5.23905e-72
5.31474e-72
5.34405e-72
5.33789e-72
5.22991e-72
5.30007e-72
5.39588e-72
5.23896e-72
5.34877e-72
5.37394e-72
5.21628e-72
5.41213e-72
5.38226e-72
5.48999e-72
5.32578e-72
5.40871e-72
5.34097e-72
5.47153e-72
3.66015e-72
3.68778e-72
3.67366e-72
3.64183e-72
3.69546e-72
3.67662e-72
3.70233e-72
3.68223e-72
3.68922e-72
3.7386e-72
3.65881e-72
3.75264e-72
3.65655e-72
3.7862e-72
3.66523e-72
3.66857e-72
3.69146e-72
3.7605e-72
3.69993e-72
3.7937e-72
2.11359e-86
2.08375e-86
2.10938e-86
2.05989e-86
2.08416e-86
2.09617e-86
2.09377e-86
2.03792e-86
2.05848e-86
2.11023e-86
2.06823e-86
2.1169e-86
2.06774e-86
2.11054e-86
2.05053e-86
2.12658e-86
2.04479e-86
2.0709e-86
2.07933e-86
2.02599e-86
1.24495e-83
1.22743e-83
1.24226e-83
1.21365e-83
1.2274e-83
1.23486e-83
1.23332e-83
1.20057e-83
1.21268e-83
1.24309e-83
1.21851e-83
1.24684e-83
1.21838e-83
1.24336e-83
1.20817e-83
1.25269e-83
1.20486e-83
1.22015e-83
1.22475e-83
1.19375e-83
3.73441e-81
3.68203e-81
3.72567e-81
3.6415e-81
3.68115e-81
3.70467e-81
3.69966e-81
3.60192e-81
3.6382e-81
3.72919e-81
3.65598e-81
3.73991e-81
3.65603e-81
3.73026e-81
3.62519e-81
3.75785e-81
3.61552e-81
3.66109e-81
3.67377e-81
3.58208e-81
6.55992e-79
6.46828e-79
6.54344e-79
6.39849e-79
6.46529e-79
6.50864e-79
6.49916e-79
6.32835e-79
6.39207e-79
6.55139e-79
6.42371e-79
6.56928e-79
6.42459e-79
6.5537e-79
6.36998e-79
6.60145e-79
6.35354e-79
6.433e-79
6.45326e-79
6.2946e-79
8.06383e-77
7.95175e-77
8.04219e-77
7.86765e-77
7.94624e-77
8.00199e-77
7.98955e-77
7.78073e-77
7.85911e-77
8.0541e-77
7.8984e-77
8.07492e-77
7.90041e-77
8.05747e-77
7.83271e-77
8.11515e-77
7.81333e-77
7.91012e-77
7.9325e-77
7.7407e-77
6.95569e-75
6.85961e-75
6.93587e-75
6.78851e-75
6.85326e-75
6.90346e-75
6.89211e-75
6.71304e-75
6.7808e-75
6.94802e-75
6.81494e-75
6.96498e-75
6.81739e-75
6.95137e-75
6.75845e-75
7.00012e-75
6.74263e-75
6.82516e-75
6.84221e-75
6.6798e-75
4.10708e-73
4.05082e-73
4.09469e-73
4.00966e-73
4.04606e-73
4.07692e-73
4.06991e-73
3.96485e-73
4.00508e-73
4.10291e-73
4.02527e-73
4.11235e-73
4.02705e-73
4.10514e-73
3.99187e-73
4.13319e-73
3.98327e-73
4.0312e-73
4.03987e-73
3.94613e-73
1.62337e-71
1.60143e-71
1.61824e-71
1.58546e-71
1.59911e-71
1.61175e-71
1.60893e-71
1.56771e-71
1.58383e-71
1.62186e-71
1.59172e-71
1.62539e-71
1.59247e-71
1.62284e-71
1.57837e-71
1.63353e-71
1.57545e-71
1.59389e-71
1.59675e-71
1.56087e-71
1.70302e-70
1.68074e-70
1.69759e-70
1.66426e-70
1.67769e-70
1.69134e-70
1.68854e-70
1.64574e-70
1.66334e-70
1.7016e-70
1.67123e-70
1.70522e-70
1.67177e-70
1.70272e-70
1.65665e-70
1.71323e-70
1.65468e-70
1.67289e-70
1.67527e-70
1.63973e-70
9.58912e-71
9.59244e-71
9.61957e-71
9.47438e-71
9.52882e-71
9.56481e-71
9.62422e-71
9.41317e-71
9.66826e-71
9.55833e-71
9.60722e-71
9.63136e-71
9.49816e-71
9.56007e-71
9.3712e-71
9.52265e-71
9.55466e-71
9.45992e-71
9.47889e-71
9.56468e-71
1.53059e-70
1.54181e-70
1.55569e-70
1.53034e-70
1.521e-70
1.52698e-70
1.54344e-70
1.51371e-70
1.5605e-70
1.54857e-70
1.55726e-70
1.54874e-70
1.54069e-70
1.52392e-70
1.51286e-70
1.52723e-70
1.51662e-70
1.52019e-70
1.53054e-70
1.53484e-70
1.73043e-70
1.74268e-70
1.75107e-70
1.71906e-70
1.71916e-70
1.68974e-70
1.72689e-70
1.70035e-70
1.73749e-70
1.77558e-70
1.75747e-70
1.71772e-70
1.75758e-70
1.73218e-70
1.72947e-70
1.74068e-70
1.67304e-70
1.73e-70
1.7036e-70
1.70907e-70
2.00159e-70
2.03119e-70
2.0286e-70
2.01929e-70
2.03011e-70
2.04616e-70
2.09082e-70
2.031e-70
2.03528e-70
2.00831e-70
2.01546e-70
2.01845e-70
2.03809e-70
2.04381e-70
2.00645e-70
2.02965e-70
2.04009e-70
2.01352e-70
2.00205e-70
2.00904e-70
2.1448e-70
2.13886e-70
2.15087e-70
2.19198e-70
2.17515e-70
2.19718e-70
2.15945e-70
2.20066e-70
2.1578e-70
2.10207e-70
2.12014e-70
2.13249e-70
2.14052e-70
2.10733e-70
2.09814e-70
2.12134e-70
2.10094e-70
2.1425e-70
2.12075e-70
2.1632e-70
2.20886e-70
2.20361e-70
2.24325e-70
2.21994e-70
2.20251e-70
2.24117e-70
2.23206e-70
2.26774e-70
2.20909e-70
2.24491e-70
2.23301e-70
2.23802e-70
2.24551e-70
2.24424e-70
2.22518e-70
2.28091e-70
2.22205e-70
2.19645e-70
2.22223e-70
2.22043e-70
2.17422e-70
2.13622e-70
2.1432e-70
2.13661e-70
2.16636e-70
2.18203e-70
2.18082e-70
2.1658e-70
2.12109e-70
2.13447e-70
2.11219e-70
2.17488e-70
2.17289e-70
2.20117e-70
2.19395e-70
2.18905e-70
2.17083e-70
2.17584e-70
2.15023e-70
2.15838e-70
2.01847e-70
2.04727e-70
2.01899e-70
2.08805e-70
2.02679e-70
2.07384e-70
2.0351e-70
2.06466e-70
2.03591e-70
2.04814e-70
2.0419e-70
2.08186e-70
2.04177e-70
2.09924e-70
2.03287e-70
2.06729e-70
2.06446e-70
2.00934e-70
2.07211e-70
2.0708e-70
1.78901e-70
1.85467e-70
1.83413e-70
1.81583e-70
1.79811e-70
1.87339e-70
1.84088e-70
1.84786e-70
1.83331e-70
1.80303e-70
1.82735e-70
1.8618e-70
1.82298e-70
1.89298e-70
1.8253e-70
1.85768e-70
1.86726e-70
1.8379e-70
1.86943e-70
1.87351e-70
1.68121e-70
1.67998e-70
1.67655e-70
1.70054e-70
1.70951e-70
1.70764e-70
1.67304e-70
1.69633e-70
1.72624e-70
1.67646e-70
1.71125e-70
1.71952e-70
1.66876e-70
1.73148e-70
1.72196e-70
1.75636e-70
1.70409e-70
1.73012e-70
1.7085e-70
1.75002e-70
1.16783e-70
1.1767e-70
1.17231e-70
1.16205e-70
1.17883e-70
1.17305e-70
1.18095e-70
1.17491e-70
1.17652e-70
1.19257e-70
1.167e-70
1.19689e-70
1.16646e-70
1.20766e-70
1.16918e-70
1.17029e-70
1.17738e-70
1.19945e-70
1.18023e-70
1.20993e-70
7.77016e-85
7.66062e-85
7.75357e-85
7.57472e-85
7.66071e-85
7.70734e-85
7.6976e-85
7.49322e-85
7.56847e-85
7.75897e-85
7.60505e-85
7.78237e-85
7.6043e-85
7.76037e-85
7.54061e-85
7.81878e-85
7.51941e-85
7.61527e-85
7.64424e-85
7.44998e-85
4.5061e-82
4.44282e-82
4.49573e-82
4.39399e-82
4.44189e-82
4.47034e-82
4.46421e-82
4.34626e-82
4.38985e-82
4.50008e-82
4.41139e-82
4.513e-82
4.41153e-82
4.50119e-82
4.37433e-82
4.53463e-82
4.3623e-82
4.41757e-82
4.43304e-82
4.32187e-82
1.32759e-79
1.30902e-79
1.32432e-79
1.29493e-79
1.30846e-79
1.31725e-79
1.31531e-79
1.28074e-79
1.29357e-79
1.32596e-79
1.30001e-79
1.32958e-79
1.30022e-79
1.32638e-79
1.28917e-79
1.33609e-79
1.28573e-79
1.30191e-79
1.30606e-79
1.27377e-79
2.30101e-77
2.26898e-77
2.29496e-77
2.24504e-77
2.2675e-77
2.28345e-77
2.27985e-77
2.22024e-77
2.24247e-77
2.29844e-77
2.25377e-77
2.30437e-77
2.25441e-77
2.29931e-77
2.23512e-77
2.31589e-77
2.22934e-77
2.25718e-77
2.26367e-77
2.20853e-77
2.77987e-75
2.7414e-75
2.77212e-75
2.71306e-75
2.73897e-75
2.75909e-75
2.75446e-75
2.68286e-75
2.70973e-75
2.77706e-75
2.72352e-75
2.78382e-75
2.72461e-75
2.77828e-75
2.70111e-75
2.79796e-75
2.69441e-75
2.72774e-75
2.7347e-75
2.66919e-75
2.36438e-73
2.33188e-73
2.35741e-73
2.30827e-73
2.32927e-73
2.34711e-73
2.34295e-73
2.28242e-73
2.30532e-73
2.36226e-73
2.31713e-73
2.36766e-73
2.31831e-73
2.36344e-73
2.29813e-73
2.37983e-73
2.29274e-73
2.32076e-73
2.32592e-73
2.27121e-73
1.37331e-71
1.35461e-71
1.36906e-71
1.34117e-71
1.35275e-71
1.36352e-71
1.361e-71
1.32608e-71
1.33944e-71
1.37222e-71
1.34631e-71
1.37516e-71
1.34711e-71
1.37298e-71
1.33526e-71
1.38225e-71
1.33238e-71
1.34839e-71
1.35092e-71
1.31985e-71
5.34314e-70
5.27139e-70
5.32589e-70
5.2201e-70
5.26272e-70
5.3061e-70
5.29612e-70
5.16127e-70
5.21398e-70
5.33941e-70
5.2404e-70
5.35019e-70
5.24369e-70
5.34266e-70
5.19693e-70
5.37742e-70
5.1873e-70
5.24792e-70
5.25589e-70
5.13883e-70
5.5208e-69
5.44909e-69
5.50292e-69
5.39699e-69
5.43814e-69
5.48421e-69
5.4744e-69
5.33654e-69
5.39322e-69
5.51756e-69
5.41924e-69
5.52839e-69
5.42184e-69
5.52117e-69
5.37246e-69
5.55477e-69
5.36602e-69
5.42504e-69
5.43128e-69
5.31703e-69
3.04878e-69
3.04983e-69
3.05909e-69
3.01307e-69
3.02954e-69
3.04163e-69
3.05986e-69
2.99317e-69
3.07437e-69
3.03949e-69
3.05513e-69
3.06226e-69
3.02063e-69
3.03983e-69
2.98049e-69
3.02729e-69
3.03804e-69
3.00817e-69
3.01423e-69
3.0413e-69
4.89171e-69
4.92681e-69
4.97157e-69
4.89023e-69
4.86055e-69
4.87916e-69
4.93082e-69
4.83697e-69
4.98605e-69
4.94849e-69
4.97626e-69
4.9482e-69
4.92359e-69
4.87022e-69
4.83502e-69
4.88001e-69
4.84559e-69
4.85788e-69
4.89052e-69
4.90363e-69
5.50655e-69
5.54507e-69
5.57194e-69
5.4697e-69
5.47102e-69
5.37834e-69
5.49611e-69
5.4128e-69
5.52829e-69
5.64894e-69
5.59081e-69
5.46614e-69
5.59182e-69
5.51204e-69
5.50297e-69
5.53866e-69
5.3247e-69
5.50379e-69
5.42112e-69
5.43798e-69
6.38354e-69
6.47549e-69
6.46848e-69
6.44015e-69
6.47401e-69
6.52549e-69
6.66483e-69
6.478e-69
6.49038e-69
6.40402e-69
6.42641e-69
6.43628e-69
6.49915e-69
6.5186e-69
6.39987e-69
6.47259e-69
6.50545e-69
6.42217e-69
6.38504e-69
6.40764e-69
6.81029e-69
6.78994e-69
6.82742e-69
6.95795e-69
6.90516e-69
6.97469e-69
6.85473e-69
6.9865e-69
6.84794e-69
6.6754e-69
6.73066e-69
6.77123e-69
6.79523e-69
6.69117e-69
6.66183e-69
6.7358e-69
6.66972e-69
6.80173e-69
6.73301e-69
6.86707e-69
7.03554e-69
7.01778e-69
7.14351e-69
7.0689e-69
7.01468e-69
7.13867e-69
7.10778e-69
7.22221e-69
7.03626e-69
7.1505e-69
7.11205e-69
7.12844e-69
7.15064e-69
7.14957e-69
7.0882e-69
7.26359e-69
7.07733e-69
6.9957e-69
7.07755e-69
7.06982e-69
6.89318e-69
6.77383e-69
6.79346e-69
6.7745e-69
6.8682e-69
6.91778e-69
6.91304e-69
6.86618e-69
6.72549e-69
6.76732e-69
6.69626e-69
6.89371e-69
6.88889e-69
6.97742e-69
6.95534e-69
6.93856e-69
6.88189e-69
6.89869e-69
6.81765e-69
6.84314e-69
6.42869e-69
6.52124e-69
6.43026e-69
6.64872e-69
6.4533e-69
6.60293e-69
6.47978e-69
6.57494e-69
6.48369e-69
6.52348e-69
6.50274e-69
6.63042e-69
6.50209e-69
6.68449e-69
6.47467e-69
6.5824e-69
6.57451e-69
6.40016e-69
6.59895e-69
6.59495e-69
5.68013e-69
5.88647e-69
5.82257e-69
5.76351e-69
5.70832e-69
5.94536e-69
5.842e-69
5.86489e-69
5.81876e-69
5.72339e-69
5.79904e-69
5.90824e-69
5.78625e-69
6.00613e-69
5.79312e-69
5.89547e-69
5.92476e-69
5.83381e-69
5.93236e-69
5.94597e-69
5.37573e-69
5.37197e-69
5.36196e-69
5.43782e-69
5.46512e-69
5.45962e-69
5.34886e-69
5.42599e-69
5.51911e-69
5.36139e-69
5.47149e-69
5.49868e-69
5.3354e-69
5.53609e-69
5.50572e-69
5.61544e-69
5.44934e-69
5.53079e-69
5.46196e-69
5.59379e-69
3.72495e-69
3.75333e-69
3.73974e-69
3.70673e-69
3.75921e-69
3.74143e-69
3.76559e-69
3.74762e-69
3.75085e-69
3.80288e-69
3.72103e-69
3.81613e-69
3.71978e-69
3.85068e-69
3.72849e-69
3.73218e-69
3.75393e-69
3.82453e-69
3.76353e-69
3.85757e-69
2.85095e-83
2.81085e-83
2.84447e-83
2.78e-83
2.81035e-83
2.82838e-83
2.82446e-83
2.74984e-83
2.77731e-83
2.8473e-83
2.791e-83
2.85548e-83
2.79111e-83
2.84791e-83
2.76758e-83
2.86914e-83
2.75978e-83
2.79491e-83
2.80478e-83
2.73416e-83
1.62968e-80
1.60686e-80
1.62572e-80
1.58958e-80
1.60622e-80
1.61703e-80
1.61462e-80
1.57217e-80
1.58786e-80
1.62778e-80
1.5958e-80
1.63222e-80
1.59608e-80
1.62823e-80
1.58253e-80
1.64021e-80
1.57817e-80
1.59813e-80
1.60329e-80
1.56345e-80
4.71529e-78
4.64958e-78
4.7031e-78
4.60061e-78
4.64668e-78
4.67945e-78
4.67197e-78
4.54981e-78
4.59514e-78
4.71037e-78
4.61843e-78
4.72251e-78
4.61984e-78
4.71197e-78
4.58034e-78
4.74613e-78
4.56807e-78
4.62547e-78
4.63895e-78
4.5253e-78
8.0546e-76
7.94297e-76
8.03257e-76
7.86106e-76
7.93623e-76
7.9947e-76
7.98109e-76
7.77358e-76
7.85095e-76
8.0472e-76
7.89121e-76
8.06674e-76
7.89463e-76
8.0504e-76
7.82661e-76
8.10785e-76
7.80634e-76
7.90365e-76
7.92419e-76
7.73292e-76
9.56135e-74
9.42971e-74
9.53377e-74
9.33447e-74
9.41948e-74
9.49186e-74
9.47473e-74
9.22985e-74
9.32169e-74
9.55371e-74
9.36994e-74
9.57547e-74
9.37514e-74
9.55805e-74
9.29368e-74
9.62501e-74
9.27064e-74
9.38513e-74
9.40647e-74
9.18314e-74
8.00964e-72
7.9002e-72
7.98538e-72
7.82209e-72
7.88978e-72
7.95286e-72
7.93778e-72
7.73392e-72
7.81098e-72
8.00427e-72
7.85166e-72
8.02131e-72
7.8569e-72
8.00833e-72
7.788e-72
8.06326e-72
7.76975e-72
7.86455e-72
7.87982e-72
7.69613e-72
4.57534e-70
4.51344e-70
4.56084e-70
4.46974e-70
4.50635e-70
4.54375e-70
4.53478e-70
4.41912e-70
4.46336e-70
4.57279e-70
4.48661e-70
4.58186e-70
4.49e-70
4.57534e-70
4.4502e-70
4.60588e-70
4.44062e-70
4.49388e-70
4.50105e-70
4.39846e-70
1.75101e-68
1.72767e-68
1.74525e-68
1.71127e-68
1.72448e-68
1.73928e-68
1.73578e-68
1.69187e-68
1.70902e-68
1.75022e-68
1.71782e-68
1.75347e-68
1.71917e-68
1.75128e-68
1.70373e-68
1.76254e-68
1.70057e-68
1.72041e-68
1.72255e-68
1.68452e-68
1.7817e-67
1.75875e-67
1.77586e-67
1.74236e-67
1.75487e-67
1.77033e-67
1.76692e-67
1.72272e-67
1.74088e-67
1.78112e-67
1.74942e-67
1.78432e-67
1.75055e-67
1.78227e-67
1.73449e-67
1.79296e-67
1.7324e-67
1.75143e-67
1.75297e-67
1.7164e-67
9.64424e-68
9.64758e-68
9.67888e-68
9.53376e-68
9.58315e-68
9.62347e-68
9.67902e-68
9.46943e-68
9.72654e-68
9.6165e-68
9.66619e-68
9.68705e-68
9.55763e-68
9.61688e-68
9.43141e-68
9.57513e-68
9.61096e-68
9.51727e-68
9.53656e-68
9.62148e-68
1.55584e-67
1.56677e-67
1.58113e-67
1.55516e-67
1.54578e-67
1.55153e-67
1.56766e-67
1.53819e-67
1.58545e-67
1.57369e-67
1.58251e-67
1.57333e-67
1.56585e-67
1.54896e-67
1.53781e-67
1.55182e-67
1.5407e-67
1.54489e-67
1.55514e-67
1.5591e-67
1.74445e-67
1.75649e-67
1.76506e-67
1.73256e-67
1.7333e-67
1.70423e-67
1.74139e-67
1.71538e-67
1.75109e-67
1.78914e-67
1.77056e-67
1.73165e-67
1.77109e-67
1.74616e-67
1.74315e-67
1.75446e-67
1.68708e-67
1.74313e-67
1.71737e-67
1.72254e-67
2.02712e-67
2.05554e-67
2.05371e-67
2.04515e-67
2.05569e-67
2.07214e-67
2.11539e-67
2.05732e-67
2.06085e-67
2.03333e-67
2.0403e-67
2.04353e-67
2.06357e-67
2.07012e-67
2.03256e-67
2.05525e-67
2.06554e-67
2.03957e-67
2.0276e-67
2.03488e-67
2.15491e-67
2.14799e-67
2.15965e-67
2.20094e-67
2.18445e-67
2.20631e-67
2.16832e-67
2.2103e-67
2.16567e-67
2.11249e-67
2.12929e-67
2.14256e-67
2.14967e-67
2.11717e-67
2.10784e-67
2.13134e-67
2.11003e-67
2.15181e-67
2.13018e-67
2.17234e-67
2.2334e-67
2.22743e-67
2.26716e-67
2.24337e-67
2.22658e-67
2.2662e-67
2.2558e-67
2.29237e-67
2.23362e-67
2.26993e-67
2.25754e-67
2.26288e-67
2.26941e-67
2.27003e-67
2.25032e-67
2.30532e-67
2.2466e-67
2.22065e-67
2.24654e-67
2.24346e-67
2.18116e-67
2.14379e-67
2.14921e-67
2.14382e-67
2.17324e-67
2.18892e-67
2.18711e-67
2.17255e-67
2.12837e-67
2.14143e-67
2.11881e-67
2.18086e-67
2.1798e-67
2.20743e-67
2.20071e-67
2.19502e-67
2.17743e-67
2.18303e-67
2.15746e-67
2.16541e-67
2.04339e-67
2.07306e-67
2.04385e-67
2.1128e-67
2.0506e-67
2.09808e-67
2.05902e-67
2.08958e-67
2.06069e-67
2.0736e-67
2.06673e-67
2.10746e-67
2.06645e-67
2.12423e-67
2.05805e-67
2.09165e-67
2.08952e-67
2.0345e-67
2.09731e-67
2.09609e-67
1.80205e-67
1.86681e-67
1.84697e-67
1.82794e-67
1.81077e-67
1.88532e-67
1.85249e-67
1.85999e-67
1.84537e-67
1.81536e-67
1.83886e-67
1.87345e-67
1.83516e-67
1.90416e-67
1.83718e-67
1.86951e-67
1.87844e-67
1.8503e-67
1.88106e-67
1.8856e-67
1.717e-67
1.71587e-67
1.71297e-67
1.73692e-67
1.74519e-67
1.7436e-67
1.70819e-67
1.73367e-67
1.76259e-67
1.71269e-67
1.74749e-67
1.75642e-67
1.70397e-67
1.7681e-67
1.75841e-67
1.79335e-67
1.74067e-67
1.76609e-67
1.74422e-67
1.78601e-67
1.18435e-67
1.19339e-67
1.1892e-67
1.17863e-67
1.19499e-67
1.18953e-67
1.19688e-67
1.19158e-67
1.19201e-67
1.2088e-67
1.18271e-67
1.21286e-67
1.18245e-67
1.2239e-67
1.18524e-67
1.18647e-67
1.19309e-67
1.21561e-67
1.1963e-67
1.22599e-67
1.04575e-81
1.03108e-81
1.04324e-81
1.02001e-81
1.0307e-81
1.03766e-81
1.03609e-81
1.00886e-81
1.01888e-81
1.04459e-81
1.024e-81
1.04744e-81
1.02418e-81
1.04484e-81
1.01549e-81
1.05256e-81
1.01262e-81
1.02549e-81
1.02883e-81
1.00317e-81
5.88028e-79
5.79824e-79
5.8653e-79
5.73727e-79
5.7948e-79
5.83574e-79
5.82631e-79
5.67396e-79
5.73024e-79
5.87453e-79
5.75942e-79
5.88965e-79
5.76125e-79
5.87629e-79
5.71202e-79
5.91908e-79
5.69625e-79
5.76819e-79
5.78521e-79
5.64279e-79
1.67072e-76
1.64754e-76
1.66623e-76
1.63058e-76
1.6462e-76