/*--------------------------------*- C++ -*----------------------------------*\
| =========                 |                                                 |
| \\      /  F ield         | OpenFOAM: The Open Source CFD Toolbox           |
|  \\    /   O peration     | Version:  2212                                  |
|   \\  /    A nd           | Website:  www.openfoam.com                      |
|    \\/     M anipulation  |                                                 |
\*---------------------------------------------------------------------------*/
FoamFile
{
    version     2.0;
    format      ascii;
    arch        "LSB;label=32;scalar=64";
    class       volScalarField;
    location    "0.0155";
    object      alphat;
}
// * * * * * * * * * * * * * * * * * * * * * * * * * * * * * * * * * * * * * //

dimensions      [1 -1 -1 0 0 0 0];

internalField   nonuniform List<scalar> 
7220
(
6.91293e-05
0.00195101
0.00193272
0.00190359
0.00192581
0.00191625
0.00157514
0.0015991
0.00157737
0.00159746
5.32643e-05
0.000523235
0.00182771
7.76954e-05
4.46745e-05
0.00050378
0.000151898
0.000109174
0.000247252
8.69654e-05
0.00108753
0.000282981
0.00169599
0.000590586
0.00110646
0.000347957
0.000942547
7.36008e-05
0.000822473
0.00124891
0.00132453
0.00148595
0.00179039
0.00111268
0.000343333
0.00010277
0.00193103
5.8231e-05
5.44438e-05
0.000111518
0.000115491
0.000123321
0.000118589
0.000426553
0.00042759
0.000400694
0.000411333
0.000407779
0.000119993
0.000125126
0.000134898
0.000128734
0.000130969
0.000137615
0.000149814
0.000141897
0.000145162
0.000153732
0.000168938
0.000158765
0.000163446
0.000174437
0.000193221
0.000180372
0.000186835
0.000200798
0.000223529
0.000207576
0.000216531
0.000234013
0.000260608
0.000241095
0.000253387
0.000274573
0.000305803
0.000282223
0.000296463
0.000314764
0.000350143
0.000329968
0.000328998
0.000340713
0.000377577
0.000365346
0.000398242
0.000388292
0.000350709
0.000359576
0.000367991
0.000415118
0.000108025
0.000114462
0.000129094
0.000123841
0.000392741
0.00036688
0.000371873
0.000359544
0.000302476
0.000281755
0.000292968
0.000251853
0.000268353
0.000217945
0.000234707
0.000188105
0.000202308
0.000164163
0.00017541
0.000145491
0.000154242
0.00013101
0.000137788
0.000119849
0.000125061
0.000111272
0.000115287
0.000104498
0.000107683
0.00014188
0.000135079
0.000158187
0.000149546
0.00017863
0.000167871
0.000204131
0.000190685
0.000235733
0.000219118
0.000274245
0.000254072
0.000319344
0.000296205
0.000362686
0.000342137
0.000392216
0.000379057
0.0004039
0.000310492
0.000101702
0.000119295
0.000421485
0.000406335
0.000334824
0.000305286
0.000317683
0.000314715
0.00026575
0.000425785
0.000270265
0.000231706
0.000258139
0.000264437
0.000239917
0.000250073
0.000212553
0.000226543
0.000186683
0.000199351
0.000163772
0.000174734
0.000145216
0.000153937
0.000130775
0.000137531
0.000119651
0.000124845
0.000111175
0.000115119
0.000104625
0.000107723
9.94243e-05
0.000101857
9.92635e-05
9.54313e-05
9.72919e-05
0.000110872
0.000104976
0.000120955
0.000117052
0.00011536
0.000130704
0.000125505
0.000143396
0.000136661
0.000159476
0.000150983
0.000179473
0.000168947
0.000204122
0.000191159
0.000234339
0.000218505
0.00027038
0.000251656
0.000310441
0.000290213
0.000348915
0.000330263
0.000380125
0.000366081
0.000392965
0.000337396
0.00039621
0.000370143
0.000358159
9.71554e-05
9.38054e-05
0.000118964
0.000115478
0.000308791
0.000293485
0.00029975
0.000191336
0.000204517
0.000244021
0.000309772
0.000161651
0.00037593
0.000142677
0.000226211
0.000230494
0.000211913
0.000220502
0.000186178
0.000198763
0.000165042
0.000175065
0.000147446
0.000155847
0.000133055
0.000139846
0.000121762
0.000127044
0.000113148
0.000117151
0.000106709
0.000109698
0.000101672
0.000104055
9.77829e-05
9.96069e-05
9.4744e-05
9.61686e-05
0.000107775
0.000102347
0.000113761
0.000111991
0.00012782
0.00012307
0.000139378
0.000133243
0.000153873
0.000146245
0.000171597
0.000162305
0.000193162
0.00018188
0.000218721
0.000205452
0.000247756
0.000232891
0.000278652
0.000263051
0.000311132
0.000294613
0.00033713
0.000325815
0.000347401
0.000359634
9.34933e-05
0.000112685
0.000225068
0.000256634
0.000192245
0.00025726
0.000108038
0.000305063
0.00029648
0.00031083
0.000124652
9.84034e-05
9.74229e-05
0.000111199
0.000110668
0.000149873
0.00027185
0.000165774
0.000207438
0.000132616
0.000131933
0.000152688
0.000181945
8.64495e-05
0.000134405
0.000100287
0.000209853
0.000190611
0.000201239
0.000207576
0.000176076
0.000189204
0.000155648
0.000164904
0.000140805
0.000147759
0.000128993
0.000134575
0.000119738
0.000124057
0.000112836
0.000116021
0.000107761
0.000110131
0.000103803
0.000105632
0.00010079
0.000102213
9.95329e-05
9.24089e-05
9.53431e-05
9.23977e-05
0.000105158
0.000100107
0.000109221
0.000109442
0.000114308
0.000111532
0.000121596
0.000117673
0.000131183
0.000126101
0.000143099
0.000136855
0.000157466
0.000149952
0.000174344
0.000165594
0.000193534
0.000183673
0.000214321
0.000203799
0.000235883
0.000224993
0.000259284
0.000247272
0.000280484
0.000271441
0.000288396
0.00023217
0.000295194
0.000144798
0.000172997
0.00013442
9.51226e-05
9.65659e-05
0.000108191
0.000248329
0.000242558
0.000249426
0.000111449
0.000111055
0.000218401
0.00022083
0.00014485
0.000132769
0.000113355
7.85959e-05
0.000165106
8.15132e-05
7.49891e-05
0.000129327
0.000103738
8.61454e-05
0.000197494
0.000142666
0.000203412
0.000204457
0.000182095
0.000196408
0.000158277
0.000168698
0.000143508
0.000150146
0.000132959
0.000137857
0.000125098
0.000128721
0.000119461
0.000122035
0.000115298
0.000117276
0.000112164
0.000113623
0.000109717
0.000110876
0.00010775
0.00010868
0.000106254
0.000106945
0.000105701
9.14705e-05
9.58484e-05
9.38347e-05
9.11854e-05
0.000103085
9.82829e-05
0.000109501
0.000107174
0.000107641
0.000109558
0.000104479
0.000105247
0.000104735
0.000108355
0.000106463
0.000113753
0.000110821
0.00012103
0.000117162
0.000130099
0.000125356
0.000140827
0.000135272
0.000153067
0.000146767
0.000166489
0.000159672
0.000180489
0.000173459
0.000194847
0.000187575
0.000210605
0.000202482
0.000228651
0.000219433
0.00023612
0.000157326
0.000217786
0.00011387
0.000125898
0.000110917
7.94859e-05
9.13354e-05
0.00016327
7.3096e-05
0.000206868
0.000203414
0.000198368
0.000122679
0.000122282
0.000107126
0.000104268
0.000180575
0.000159526
0.000140387
0.000110526
9.41706e-05
9.39238e-05
0.000107252
7.86776e-05
0.000107807
0.000132509
0.000128233
7.20716e-05
0.000121104
7.12228e-05
7.76179e-05
7.3783e-05
9.71678e-05
8.43574e-05
0.000172939
0.000124034
0.000205726
0.000201609
0.00019593
0.000203949
0.000170467
0.000182197
0.000154483
0.000161439
0.000144566
0.000148988
0.000138041
0.000140967
0.000133613
0.000135634
0.000130285
0.000131846
0.000127713
0.000128928
0.000125598
0.000126604
0.000123896
0.000124692
0.00012322
0.000105272
9.06972e-05
9.52516e-05
9.26939e-05
9.02152e-05
0.000101709
9.69374e-05
0.000108597
0.000105958
0.000108837
0.000101452
0.000101315
0.000101378
0.000102698
0.000101693
0.000106179
0.000104211
0.000111265
0.000108519
0.000117811
0.000114365
0.000125542
0.00012155
0.000134222
0.000129771
0.000143552
0.000138831
0.00015313
0.000148327
0.000162979
0.000157987
0.000174402
0.00016832
0.000190666
0.000181905
0.00019819
0.000113407
0.000146865
9.45926e-05
9.94435e-05
9.47437e-05
9.41671e-05
9.47112e-05
9.00949e-05
6.93453e-05
0.000122046
0.000101621
0.000175932
0.000175739
7.1622e-05
7.84795e-05
0.000147379
0.000147565
0.000126243
0.000119955
9.30973e-05
0.000101478
6.30765e-05
0.000110427
0.000709818
0.000116211
6.79378e-05
6.78261e-05
7.35673e-05
7.04153e-05
8.22884e-05
7.73549e-05
0.000101785
8.95669e-05
0.000162993
0.000123809
0.000211493
0.000199747
0.000211185
0.000213922
0.000190474
0.000202661
0.000172835
0.000180357
0.000163576
0.000167423
0.000158824
0.000160823
0.000155909
0.000157265
0.000153514
0.000154631
0.000151464
0.000152459
0.000149661
0.00015052
0.000148248
0.000148891
0.000147391
0.000147736
0.000147239
0.00014721
0.000147464
0.000105013
0.000121981
9.01465e-05
9.48424e-05
9.20556e-05
8.95829e-05
0.000101059
9.62141e-05
0.000107875
0.00010532
0.000106707
0.00010821
0.000101984
0.000104188
0.000101511
9.99116e-05
0.000100576
9.89474e-05
9.94054e-05
9.88019e-05
9.86499e-05
0.000100572
9.94872e-05
0.000103848
0.000102036
0.000108506
0.000106023
0.000114214
0.000111277
0.000120736
0.000117386
0.000127862
0.000124238
0.000135301
0.000131558
0.000143068
0.000139101
0.000153235
0.000147564
0.000169142
0.000160899
0.000173896
9.30269e-05
0.00015061
0.000112236
8.22177e-05
8.48424e-05
8.13011e-05
8.1701e-05
7.98325e-05
8.04756e-05
7.97905e-05
7.95977e-05
7.5584e-05
7.89508e-05
9.02025e-05
7.98817e-05
8.85526e-05
0.0013272
6.70111e-05
6.58089e-05
0.000135459
0.00191014
0.000182488
0.000183141
0.000102672
0.000102714
0.000120634
8.42597e-05
0.000107858
9.23198e-05
9.80206e-05
0.000104066
0.000101503
0.00157934
0.000802554
0.00091944
0.000930292
0.000364074
0.00115455
7.15307e-05
7.8765e-05
0.00120751
7.14204e-05
6.69014e-05
6.75037e-05
0.000111885
9.92314e-05
6.61856e-05
0.00126827
6.41273e-05
0.000397692
6.5557e-05
6.27021e-05
0.00153979
5.78098e-05
6.13518e-05
6.13641e-05
5.94141e-05
6.57182e-05
6.34266e-05
7.15623e-05
6.83292e-05
8.00558e-05
7.54051e-05
9.1967e-05
8.53898e-05
0.000113973
0.000100762
0.000168381
0.000135253
0.000219653
0.000202374
0.000227584
0.00022598
0.000216555
0.000224828
0.000198794
0.000206419
0.000191008
0.000193864
0.000188686
0.000189489
0.000187529
0.000188122
0.000186212
0.000186905
0.000184687
0.000185456
0.00018327
0.000183941
0.000182278
0.000182701
0.000181952
0.000182019
0.000182097
0.000148004
0.000105004
0.000122189
8.99549e-05
9.4715e-05
9.19649e-05
8.94601e-05
0.000100721
9.60776e-05
0.000107311
0.000104807
0.00010653
0.000107779
0.000104392
0.000104348
0.000101429
0.000102714
9.94256e-05
0.000100364
9.80464e-05
9.85705e-05
9.83614e-05
9.80025e-05
0.000100239
9.91214e-05
0.000103596
0.000101756
0.000108195
0.000105772
0.000113734
0.000110859
0.000120054
0.000116811
0.000126881
0.000123422
0.000134392
0.000130462
0.000145812
0.000139226
0.000160763
0.000154243
0.000164011
0.000163931
0.000123301
0.000156489
8.48827e-05
9.76676e-05
7.60798e-05
7.8783e-05
7.30265e-05
7.44802e-05
6.98488e-05
7.13733e-05
6.79911e-05
6.86876e-05
6.77013e-05
0.000834809
0.000969163
0.00104626
8.80681e-05
0.000124202
0.00090266
4.71356e-05
0.000409014
6.36391e-05
0.000184134
0.000106227
0.000817656
7.90234e-05
9.84653e-05
0.000108486
0.000119885
7.60481e-05
0.00109015
7.14092e-05
5.9233e-05
5.87096e-05
6.50592e-05
0.000103553
8.26419e-05
8.75033e-05
6.49861e-05
0.000160546
9.56257e-05
7.53091e-05
6.02265e-05
0.000948239
9.31424e-05
9.10773e-05
0.00120286
0.000989228
6.0595e-05
0.000736521
0.000795303
0.00194911
6.50798e-05
6.24129e-05
7.10012e-05
6.7823e-05
7.91372e-05
7.46915e-05
9.05927e-05
8.44555e-05
0.000106454
9.78261e-05
0.000132625
0.000117382
0.000183789
0.000154381
0.000233522
0.000213907
0.000247944
0.000243163
0.000246825
0.00024908
0.000231996
0.000238659
0.000226814
0.00022821
0.000227294
0.0002268
0.000227958
0.000227752
0.000227673
0.000227922
0.000226838
0.000227283
0.000226058
0.000226407
0.000225776
0.000225834
0.000226304
0.000225923
0.000227877
0.000226936
0.00023072
0.00022912
0.000232716
0.000148919
0.000185513
0.000105404
0.000122787
9.0253e-05
9.5024e-05
9.21282e-05
8.9777e-05
0.000100529
9.60472e-05
0.000107031
0.000104502
0.000106759
0.000107713
0.000103565
0.000105034
0.000108389
0.000104017
0.000119257
0.000112585
0.000115628
0.000107896
0.000110067
0.00010437
0.00010601
0.000101809
0.000102934
0.000100825
0.000101068
0.000101563
0.000100963
0.00010402
0.000102569
0.00010812
0.000105838
0.000113369
0.000110606
0.000119685
0.000116419
0.000126696
0.000123111
0.000135115
0.000130575
0.000148704
0.000140995
0.000160144
0.000156082
0.000159587
0.000161144
0.000116151
0.000146542
8.56798e-05
9.64547e-05
7.60303e-05
7.96346e-05
7.05212e-05
7.31714e-05
6.5368e-05
6.78598e-05
6.1442e-05
6.32116e-05
6.01389e-05
0.000681502
0.000730991
5.92065e-05
0.00135036
0.00112174
8.83235e-05
0.000116119
0.000668371
6.82981e-05
7.01259e-05
0.000747729
0.000658083
0.00158053
7.93947e-05
5.66009e-05
5.51375e-05
5.81897e-05
0.000105307
9.77208e-05
0.000104728
0.000632205
7.65005e-05
0.00197118
0.000284832
0.000287639
0.00011094
0.000123522
8.14342e-05
0.00120878
7.14977e-05
6.10758e-05
0.00151148
0.0019202
0.00189351
0.00185354
0.00066281
9.2991e-05
0.000550457
0.000586012
0.000656597
0.000313977
0.000551614
0.000522566
6.47415e-05
5.7125e-05
0.00177955
0.00186577
0.00187223
0.00181953
0.00145839
8.90198e-05
8.48802e-05
5.93464e-05
0.00128718
8.68263e-05
0.000701701
0.000796107
0.000546962
5.67808e-05
0.00109308
0.000616773
0.000889821
0.000720348
6.73642e-05
0.00196075
5.90814e-05
0.000347952
7.20388e-05
6.8689e-05
7.99148e-05
7.56874e-05
9.05357e-05
8.47705e-05
0.0001053
9.73673e-05
0.000125503
0.000114475
0.000156056
0.000138836
0.000206846
0.000179241
0.000253956
0.000233872
0.00027297
0.000265702
0.000277301
0.000276369
0.000269097
0.000273853
0.000267476
0.000267109
0.000270507
0.000268919
0.000272681
0.000271792
0.000273549
0.00027324
0.00027381
0.000273705
0.000274189
0.000273946
0.000275191
0.000274589
0.000277162
0.00027604
0.000280326
0.000278581
0.000282405
0.000235111
0.000150263
0.000187315
0.000106252
0.000123822
9.0778e-05
9.57141e-05
9.23898e-05
9.01683e-05
0.000100588
9.61775e-05
0.00010722
0.000104555
0.000107464
0.000108222
0.000104474
0.000105756
0.000105489
0.000138815
0.000128882
0.000133425
0.000121468
0.00012498
0.000115767
0.000118414
0.00011165
0.000113502
0.000109329
0.000110207
0.000108987
0.000108879
0.000110675
0.000109574
0.000114368
0.000112278
0.000119594
0.000116804
0.000126004
0.000122685
0.000133157
0.000129482
0.000142475
0.000137309
0.000156855
0.000149158
0.000163892
0.000161554
0.000159831
0.000163855
0.000120895
0.000145439
9.35144e-05
0.000104083
8.17448e-05
8.66428e-05
7.3699e-05
7.75649e-05
6.65167e-05
6.9955e-05
6.07152e-05
6.34113e-05
5.84331e-05
0.000799363
0.00149561
0.00156147
0.00154301
0.000785987
0.0012248
0.000417374
8.85378e-05
5.58717e-05
5.3936e-05
0.00010731
0.000589939
0.000593012
0.000566332
0.000696623
0.00062628
0.000663803
0.000620394
0.00170889
0.000112934
7.37689e-05
5.82376e-05
0.00184956
0.00029078
0.000145184
7.85699e-05
0.000978527
0.000638398
0.000814555
0.000756639
0.00120253
7.97715e-05
0.0019814
5.65089e-05
0.00190072
0.00167538
0.00137978
0.00156767
0.00155522
9.4271e-05
9.54768e-05
9.8747e-05
0.000573955
0.000640617
0.000588455
0.000606052
0.00177869
0.0018022
0.00177771
0.00177138
0.00174981
0.000611264
0.000475036
0.00169028
0.0018156
0.0018481
0.0011049
0.000566154
7.18623e-05
5.68048e-05
0.00145155
0.0017522
0.000716563
8.75103e-05
0.000642893
0.00178056
0.00172538
0.00173821
8.19343e-05
6.45976e-05
0.000116644
5.31675e-05
0.00146262
0.00182335
0.00158904
0.00147145
0.00154292
0.00152138
0.00136398
8.55236e-05
0.000955438
0.000826281
0.00158496
0.00165745
5.99855e-05
0.000302278
8.38074e-05
5.86124e-05
0.00120026
0.00130675
0.0011417
0.00146458
0.000557904
5.59094e-05
0.00101271
0.00181945
0.00168527
0.00067622
0.000825773
0.00146457
6.70436e-05
7.32428e-05
9.83231e-05
0.00112172
0.00159072
5.81707e-05
0.000139532
8.25558e-05
7.86187e-05
9.23105e-05
8.70332e-05
0.000105612
9.84638e-05
0.000123813
0.000114066
0.000148434
0.000134966
0.000185245
0.000164951
0.000235216
0.000209209
0.000278323
0.000259486
0.000300726
0.000291417
0.000308782
0.000305447
0.000306967
0.000308783
0.000309319
0.000307317
0.000314139
0.000311821
0.000317561
0.00031604
0.000319853
0.000318814
0.000321708
0.000320784
0.000323864
0.000322709
0.000326833
0.000325224
0.000330912
0.000328723
0.000336234
0.000333415
0.000342813
0.000339369
0.000350636
0.000346578
0.000355002
0.000237841
0.000294234
0.000151986
0.000189488
0.000107181
0.000125079
9.1366e-05
9.64385e-05
9.28199e-05
9.06743e-05
0.00010107
9.65874e-05
0.000108108
0.000105202
0.000108101
0.000109016
0.000105395
0.000106363
0.000114081
0.000107242
0.000152539
0.000128484
0.000187258
0.000168964
0.000177587
0.00015498
0.000161462
0.000143872
0.000149089
0.00013532
0.000139308
0.00012903
0.000131897
0.000124975
0.000126669
0.000123285
0.000123821
0.000123967
0.000123346
0.000126886
0.000125155
0.000131874
0.000129179
0.000138005
0.000134825
0.000144921
0.000141338
0.000154663
0.000149143
0.000166616
0.000161485
0.000170832
0.000169642
0.000164944
0.000170098
0.000133406
0.000151967
0.000107092
0.00011806
9.29646e-05
9.9209e-05
8.22906e-05
8.74615e-05
7.29189e-05
7.73857e-05
6.53524e-05
6.88646e-05
5.97672e-05
6.2314e-05
5.76317e-05
7.75688e-05
0.000299517
0.00198965
0.00153605
0.00174726
0.000888166
0.000695581
0.00152468
0.00150146
0.00152708
0.00138929
0.00145212
0.00126104
0.00131772
0.00122441
8.84142e-05
5.29686e-05
9.91132e-05
0.00158467
9.74111e-05
0.00057603
0.000624641
0.00175981
0.000595669
0.000593287
0.00114739
6.57427e-05
0.00196117
0.00197485
0.00192321
0.00190572
0.00114769
0.000953352
9.25759e-05
0.00111144
0.00152308
0.00160753
0.00179631
0.00174626
0.00101804
0.000624753
0.000858372
0.000778794
0.0012903
8.00469e-05
5.47716e-05
0.00150102
0.00167262
0.00198449
0.00152219
8.74714e-05
9.11841e-05
9.078e-05
0.00060902
0.000602566
0.000588965
0.000591856
0.00173912
8.06986e-05
0.00193622
0.000408627
0.000414281
0.000160949
0.000197777
0.00104549
0.000516018
7.20885e-05
0.000465654
5.15709e-05
0.00163636
0.00178768
0.00155287
0.00144172
0.00143133
8.48311e-05
0.000734713
0.00169014
0.000341976
8.25173e-05
0.000479906
6.43978e-05
5.07366e-05
0.00173469
0.00129908
8.38702e-05
0.000993424
0.00157411
0.000510381
5.80301e-05
0.00113702
0.00183325
0.00176501
0.00132831
0.000589915
5.51549e-05
0.000963823
0.00160391
6.70045e-05
7.31289e-05
0.000805859
0.00130132
7.74464e-05
0.0019025
0.0009363
0.000723465
0.000908586
5.74694e-05
0.00157802
0.00156272
0.00136952
0.00155384
6.31241e-05
7.32901e-05
8.35311e-05
7.7971e-05
9.51622e-05
8.95744e-05
0.000107696
0.000101115
0.00012399
0.000115342
0.000145865
0.000134004
0.000176329
0.000159798
0.000217291
0.000195539
0.000265065
0.000240932
0.000304837
0.000287337
0.000325912
0.000317379
0.000333581
0.000330119
0.000335785
0.000334974
0.000341077
0.000338046
0.000347049
0.000344166
0.000351997
0.000349681
0.000356356
0.000354164
0.000360974
0.000358607
0.000366284
0.000363516
0.000372639
0.000369319
0.000380111
0.00037624
0.000388636
0.000384247
0.000398133
0.000393265
0.00040325
0.000359671
0.000240881
0.000297981
0.000153766
0.00019193
0.000108164
0.000126376
9.21044e-05
9.72466e-05
9.3559e-05
9.13868e-05
0.000102204
9.74672e-05
0.000109176
0.000106478
0.000108625
0.000109764
0.000106443
0.000106924
0.000117909
0.000109343
0.00013443
0.000231311
0.000209748
0.00022015
0.000191463
0.000200285
0.00017624
0.000183413
0.000164295
0.000169889
0.000155228
0.00015943
0.000148899
0.000151683
0.000145397
0.000146796
0.000144629
0.00014469
0.000146367
0.00014519
0.000150443
0.0001482
0.000155811
0.000153018
0.000161904
0.000158732
0.000170865
0.000165763
0.000179276
0.00017607
0.000181628
0.00018124
0.000174356
0.000179989
0.000149461
0.00016348
0.000125202
0.000136229
0.000108953
0.000116372
9.56887e-05
0.000102145
8.40549e-05
8.96982e-05
7.44965e-05
7.90001e-05
6.72996e-05
7.06309e-05
6.21711e-05
6.45161e-05
6.01428e-05
0.00128634
0.00149725
0.00140924
0.00155167
0.00154333
0.00151656
0.00149661
0.00153184
0.0018993
0.00189358
0.00188374
0.00188763
0.00188601
0.00196079
0.0019737
0.00196159
0.00183861
0.00192172
0.00154969
0.00171416
0.0013518
0.000756058
0.00095477
6.61319e-05
0.00168411
0.000935334
0.000697472
0.00135089
0.00114779
0.00125461
0.0014791
0.0014274
0.00150051
0.00150352
0.00143659
0.00147517
0.00135327
0.00138942
0.00132177
8.72405e-05
5.21813e-05
0.00159137
5.68341e-05
0.00198397
0.00155381
8.85854e-05
0.000592818
0.000597045
0.00174594
0.00174293
0.00171185
8.03452e-05
3.74146e-05
0.000574613
6.47358e-05
0.000924682
0.000420241
0.000242976
5.89948e-05
0.00010725
0.00194333
0.00192799
0.00194492
0.000540056
0.000952409
0.00132033
0.00146022
0.00174596
0.00166881
0.000977729
0.000573632
0.000823992
0.000734941
0.00134268
7.95293e-05
5.23022e-05
5.19022e-05
0.00165193
0.00173662
6.97913e-05
6.0292e-05
0.00195572
0.00196368
0.00152388
0.00148116
4.84586e-05
4.19362e-05
8.41813e-05
8.47863e-05
8.3515e-05
0.000673188
0.000106644
0.000125012
0.000113264
0.000590161
0.000610306
0.000597888
0.00170004
8.12796e-05
0.000328025
0.00033523
0.000759409
8.21161e-05
0.000608294
5.65671e-05
0.00120148
0.00104133
0.000881596
0.000450639
7.17584e-05
4.71326e-05
0.00172612
0.00179307
0.00149503
0.00145739
0.0014764
0.00137984
8.37008e-05
0.0008735
0.00163474
5.61885e-05
0.00046505
8.3264e-05
6.38669e-05
0.000126121
0.000144132
4.92123e-05
0.000131552
0.000140342
0.00174306
0.00190145
0.00124865
0.00180802
0.00182362
0.00118324
0.00147517
0.000524326
5.75182e-05
0.000160454
0.000158956
0.00189476
0.00189251
0.00109834
0.00171871
6.71187e-05
7.31704e-05
0.000106663
0.000144133
0.000150792
0.000167506
0.000166994
0.000179549
0.000170546
0.00017634
0.00094047
0.00147674
7.75337e-05
0.00186084
0.000778099
0.00082997
0.00111506
8.03866e-05
0.000112137
0.000745602
0.00190238
5.69415e-05
3.52222e-05
6.69823e-05
8.05188e-05
8.81106e-05
8.38943e-05
9.92066e-05
9.34639e-05
0.000111998
0.000105518
0.000126454
0.000118879
0.000145722
0.000135327
0.000172196
0.000158005
0.00020643
0.000188298
0.000249281
0.000226816
0.000294367
0.00027249
0.000326151
0.0003128
0.000339626
0.000334972
0.000342675
0.000341194
0.000345699
0.000343609
0.000351809
0.000348608
0.000358484
0.00035515
0.000365523
0.000361916
0.000373189
0.00036924
0.000382168
0.000377512
0.000392449
0.000387154
0.000403899
0.000398043
0.000416273
0.000409989
0.000429267
0.000422705
0.000442777
0.000435955
0.000456941
0.000449762
0.000472006
0.000464339
0.000479962
0.000364674
0.000426556
0.000244136
0.000302028
0.00015562
0.000194459
0.000109268
0.000127759
9.31157e-05
9.82261e-05
9.48131e-05
9.24722e-05
0.000103929
9.90809e-05
0.000110251
0.000107997
0.000108983
0.000110378
0.000107731
0.000107469
0.000122437
0.000111936
0.000170334
0.000141363
0.000254752
0.000208894
0.000299384
0.000279374
0.000289913
0.000257415
0.000268372
0.000236118
0.000246558
0.00021761
0.000226436
0.00020255
0.000209653
0.000190557
0.000196183
0.000181602
0.000185694
0.000175859
0.000178334
0.000173142
0.000174129
0.000173106
0.000172804
0.000175369
0.000173975
0.000179053
0.000177121
0.000183212
0.000181068
0.000189363
0.000185874
0.000193957
0.000192224
0.000194584
0.000194934
0.000187341
0.000192452
0.000167497
0.000178763
0.000145413
0.000155893
0.000128315
0.000136452
0.000113403
0.000120745
9.97096e-05
0.000106349
8.79839e-05
9.35406e-05
7.86714e-05
8.30098e-05
7.17277e-05
7.49414e-05
6.88709e-05
0.00144582
0.00134317
0.00151716
0.00150213
0.00147002
0.00150208
0.00142183
0.00139925
0.00143279
0.00188668
0.00188934
0.0018841
0.00189331
0.001853
0.00186806
0.00184629
0.00185309
0.00189903
0.00189557
0.00192997
0.00171823
0.00182837
0.00136709
0.00156209
0.000920579
0.00114134
0.000727861
0.000459937
0.00114114
0.00157362
0.000903481
0.000648143
0.00126864
0.00101776
0.0011486
0.00143828
0.0013666
0.00149901
0.00148191
0.0014759
0.0014945
0.00142497
0.00145197
0.00139214
8.42355e-05
5.13404e-05
0.00168902
5.44822e-05
5.53019e-05
0.00196673
0.00151399
4.16608e-05
3.76861e-05
8.35504e-05
0.000133768
0.000633581
8.49695e-05
9.95345e-05
0.000591512
0.00170414
9.43887e-05
3.53111e-05
0.00129012
0.00109853
0.000120282
4.52036e-05
5.36872e-05
8.21001e-05
0.00188668
5.20084e-05
0.00181754
0.000394661
0.000813694
5.65376e-05
8.66755e-05
5.95276e-05
0.000888528
0.00178629
0.00190011
0.00180918
0.00115018
0.00164172
0.00153908
0.000838491
0.000496889
0.000708524
0.00062939
7.75537e-05
5.18597e-05
4.81933e-05
0.00173016
0.00176968
5.83095e-05
0.00192373
0.00193198
0.00148348
0.00143755
3.8354e-05
8.29142e-05
7.8495e-05
7.93606e-05
0.000153421
0.00012391
0.000240387
0.000783575
0.000133821
0.000611131
0.00066921
0.000639551
0.00165995
8.90572e-05
6.61786e-05
0.000418966
9.25293e-05
8.32119e-05
0.000158543
0.000508031
0.000517435
0.000265922
0.000307283
0.00183439
0.00176065
0.000652665
0.000666092
0.000387206
7.04422e-05
4.42978e-05
6.82986e-05
0.00013423
0.000119746
0.00174721
0.0014825
7.80773e-05
6.51592e-05
0.00190069
0.00144039
0.00133785
0.00172917
0.00185742
8.34322e-05
0.000162148
0.00105353
0.000163183
0.00172156
0.00157025
4.71223e-05
0.000468134
7.81751e-05
7.5168e-05
4.60851e-05
6.29201e-05
4.79407e-05
0.000153008
0.00188663
0.00137439
0.00139436
0.00121669
0.00180563
0.000323994
0.00136269
0.000184268
6.81075e-05
7.3249e-05
5.6924e-05
3.99532e-05
0.000178878
0.00187976
0.00107959
0.00163001
0.000190179
7.76844e-05
0.00182027
0.000656219
0.00186978
0.0018671
0.000956701
0.0013103
8.05778e-05
0.000931538
0.000129304
0.00086123
8.23339e-05
0.00179029
0.00183819
6.40993e-05
6.76576e-05
5.57603e-05
7.59855e-05
9.22288e-05
9.78166e-05
9.47882e-05
0.000105952
0.000101469
0.000117201
0.00011135
0.0001307
0.0001236
0.000147842
0.00013865
0.000170169
0.00015826
0.000199083
0.000183689
0.000235901
0.000216516
0.00027793
0.000256755
0.000314158
0.000297681
0.000332654
0.00032599
0.000333862
0.00033477
0.000330133
0.000331588
0.000331258
0.000329922
0.000336223
0.000333352
0.000344011
0.000339784
0.000354457
0.000348907
0.000367304
0.000360625
0.000382202
0.00037449
0.000398859
0.000390342
0.00041663
0.000407652
0.000434848
0.000425718
0.00045306
0.000443966
0.000471133
0.000462096
0.000489425
0.000480239
0.000498681
0.000488286
0.000370122
0.000433374
0.000247697
0.000306429
0.000157615
0.000197096
0.000110641
0.000129357
9.46164e-05
9.95561e-05
9.67924e-05
9.41876e-05
0.000105858
0.000101181
0.000111133
0.000109471
0.000109296
0.000110794
0.000109413
0.000108174
0.000127764
0.000115224
0.000180498
0.000149251
0.000220353
0.00033127
0.000320158
0.000326719
0.000302783
0.000312081
0.000282594
0.000292749
0.000263296
0.000272685
0.000246535
0.000254591
0.000232588
0.000239278
0.000221242
0.00022654
0.000213081
0.000216756
0.000207932
0.000210156
0.000205304
0.000206328
0.000204637
0.00020476
0.000205028
0.000204762
0.000205631
0.000205321
0.000207098
0.000206166
0.000207875
0.000207671
0.000206532
0.000207727
0.000199591
0.000203768
0.000185044
0.000193291
0.000166126
0.000175659
0.000148762
0.000157067
0.000133697
0.000141029
0.000119236
0.000126392
0.000105924
0.000112382
9.44807e-05
9.99363e-05
8.53111e-05
8.96037e-05
8.15197e-05
0.000779303
0.00112567
0.000948219
0.00139685
0.0012824
0.00148155
0.00146123
0.00144203
0.00147045
0.00137859
0.00140842
0.00136073
0.00134969
0.00135813
0.001839
0.00183266
0.00188689
0.00186698
0.00187107
0.00188753
0.00181872
0.00184552
0.00179343
0.00180068
0.00179217
0.00187947
0.00178809
0.00184968
0.00155405
0.00169272
0.00115678
0.00137283
0.000710786
0.000923163
0.00044696
0.00055069
0.00038446
0.000993301
0.00142039
0.000780747
0.000556953
0.000905531
0.000638078
0.000754551
0.00120401
0.00106084
0.0014104
0.00132194
0.00150196
0.0014693
0.00151085
0.00151372
0.00147063
0.00149682
0.00134544
0.0014239
6.87827e-05
7.92462e-05
4.99141e-05
0.00174233
5.38989e-05
5.40983e-05
0.00193348
0.00147229
3.59603e-05
8.12892e-05
0.000138956
4.28941e-05
4.912e-05
0.000716833
0.000121194
0.000621131
0.00166955
7.76202e-05
0.000398287
0.000373913
8.34287e-05
0.000145136
0.00180473
4.23729e-05
0.000459525
0.00127173
0.00166457
0.000505422
0.000526824
0.000333442
0.00169617
0.00165787
0.00184892
0.000498627
0.000963847
0.00147946
0.00136173
0.000650126
0.000418113
0.000564463
0.000509336
0.000774045
0.000959018
7.38969e-05
5.1302e-05
4.44335e-05
0.000245588
0.000278268
0.000227342
0.00026416
0.00175254
0.00177523
5.68247e-05
0.00189717
0.00144776
0.00140063
0.00158581
0.00185574
8.26765e-05
7.46629e-05
7.75544e-05
0.000152153
0.000556483
4.93021e-05
7.33292e-05
0.00012806
0.000114294
0.000947438
0.000632022
0.000153548
0.000728139
0.00168292
0.00161856
0.000360326
5.41815e-05
0.000416392
9.56677e-05
9.17555e-05
7.1557e-05
0.000512684
0.00033837
0.000491571
7.27376e-05
0.000390069
6.79361e-05
4.22788e-05
4.07386e-05
4.4483e-05
8.02432e-05
0.000143032
8.1463e-05
0.0017288
0.000128699
6.3822e-05
0.00187799
0.00141246
0.00131073
0.000174109
0.00141867
0.00186406
0.000312638
8.36369e-05
0.000154032
0.00179286
0.00181994
0.00177465
0.0012468
0.000214554
0.000228933
0.00113903
0.000183399
0.000452839
0.000379825
0.000450868
7.39045e-05
0.00149578
6.13249e-05
8.12306e-05
7.55011e-05
4.05167e-05
4.67155e-05
0.00017656
6.23528e-05
8.01757e-05
9.03312e-05
7.4582e-05
0.00186947
0.00137721
0.00120404
0.00141151
0.00137734
0.00141106
0.00142824
0.00175473
0.000904715
0.0013441
0.000200123
0.00111157
7.82879e-05
0.0017712
5.56891e-05
0.00167577
5.59106e-05
0.000166625
6.41824e-05
0.000459159
0.000197813
0.000564437
0.00186005
0.00135443
0.00135932
0.00109036
0.0013722
0.000475312
0.00149905
8.10267e-05
0.000771878
0.000112507
0.00183995
0.000994365
0.0011243
8.26133e-05
8.37596e-05
0.000131574
0.00180506
0.000907482
0.000606869
0.000126642
7.53102e-05
4.21903e-05
4.7369e-05
3.93238e-05
4.12901e-05
4.03413e-05
8.90861e-05
0.000105596
0.000109326
0.00010714
0.000115497
0.000112104
0.000124105
0.000119497
0.000135698
0.000129478
0.000150337
0.000142694
0.000168591
0.000158821
0.000192632
0.000179769
0.000223515
0.000207216
0.000259313
0.000241138
0.000293053
0.000277047
0.000314564
0.000306006
0.000316717
0.000318029
0.000305875
0.000312116
0.000295421
0.000299914
0.000292278
0.000292812
0.000296311
0.000293515
0.000306102
0.000300537
0.000320901
0.000312925
0.000339792
0.000329913
0.000361402
0.000350321
0.000384921
0.000372998
0.000409102
0.000397004
0.000432943
0.00042111
0.000455932
0.000444562
0.00047808
0.00046709
0.000499657
0.000488914
0.000520599
0.000510268
0.000539926
0.000530537
0.000548563
0.000496874
0.000535985
0.000376196
0.000440739
0.000251381
0.000311364
0.000159892
0.000199885
0.000112451
0.000131296
9.67262e-05
0.000101484
9.92057e-05
9.64406e-05
0.000107833
0.000103533
0.000111865
0.000110837
0.000109638
0.000111116
0.000111519
0.000109079