/*--------------------------------*- C++ -*----------------------------------*\
| =========                 |                                                 |
| \\      /  F ield         | OpenFOAM: The Open Source CFD Toolbox           |
|  \\    /   O peration     | Version:  2212                                  |
|   \\  /    A nd           | Website:  www.openfoam.com                      |
|    \\/     M anipulation  |                                                 |
\*---------------------------------------------------------------------------*/
FoamFile
{
    version     2.0;
    format      ascii;
    arch        "LSB;label=32;scalar=64";
    class       volScalarField;
    location    "0.1819";
    object      s;
}
// * * * * * * * * * * * * * * * * * * * * * * * * * * * * * * * * * * * * * //

dimensions      [0 0 0 0 0 0 0];

internalField   nonuniform List<scalar> 
24240
(
1.95694e-99
1.93108e-99
1.96212e-99
1.89872e-99
1.93896e-99
1.93685e-99
1.93898e-99
1.88411e-99
1.90313e-99
1.95179e-99
1.90747e-99
1.96333e-99
1.90227e-99
1.94897e-99
1.88771e-99
1.96652e-99
1.88332e-99
1.9093e-99
1.92733e-99
1.8662e-99
1.42648e-96
1.40745e-96
1.42976e-96
1.38422e-96
1.41293e-96
1.41183e-96
1.41327e-96
1.37333e-96
1.38729e-96
1.42259e-96
1.39065e-96
1.43086e-96
1.387e-96
1.42078e-96
1.37637e-96
1.43348e-96
1.3732e-96
1.39198e-96
1.40477e-96
1.36078e-96
5.7092e-94
5.6323e-94
5.72028e-94
5.54075e-94
5.65315e-94
5.65045e-94
5.65573e-94
5.49609e-94
5.55233e-94
5.69289e-94
5.56646e-94
5.72534e-94
5.55236e-94
5.68652e-94
5.50973e-94
5.73689e-94
5.4972e-94
5.5717e-94
5.62138e-94
5.44776e-94
1.29846e-91
1.28082e-91
1.30052e-91
1.26032e-91
1.28531e-91
1.28509e-91
1.28618e-91
1.24993e-91
1.26281e-91
1.2946e-91
1.26618e-91
1.30184e-91
1.26309e-91
1.29337e-91
1.25337e-91
1.30471e-91
1.25057e-91
1.26736e-91
1.2783e-91
1.23938e-91
2.14734e-89
2.11791e-89
2.14995e-89
2.08454e-89
2.12489e-89
2.12519e-89
2.12681e-89
2.06698e-89
2.0884e-89
2.14067e-89
2.09422e-89
2.15238e-89
2.0893e-89
2.13897e-89
2.07318e-89
2.15751e-89
2.06863e-89
2.09613e-89
2.11362e-89
2.05025e-89
2.45986e-87
2.42588e-87
2.46193e-87
2.38827e-87
2.43337e-87
2.43448e-87
2.43613e-87
2.36775e-87
2.39245e-87
2.45194e-87
2.3994e-87
2.46506e-87
2.39397e-87
2.45039e-87
2.37543e-87
2.47136e-87
2.37036e-87
2.40152e-87
2.4208e-87
2.34938e-87
1.98436e-85
1.95677e-85
1.98527e-85
1.92692e-85
1.96237e-85
1.96388e-85
1.96506e-85
1.91004e-85
1.93013e-85
1.97769e-85
1.93592e-85
1.98805e-85
1.93169e-85
1.97678e-85
1.91664e-85
1.99342e-85
1.91273e-85
1.93752e-85
1.95242e-85
1.89588e-85
1.06392e-83
1.0491e-83
1.06396e-83
1.03333e-83
1.05181e-83
1.05293e-83
1.05354e-83
1.02415e-83
1.03508e-83
1.06018e-83
1.03824e-83
1.06562e-83
1.036e-83
1.05989e-83
1.02784e-83
1.06861e-83
1.02598e-83
1.03897e-83
1.04656e-83
1.01706e-83
1.49198e-82
1.47186e-82
1.49116e-82
1.44989e-82
1.47468e-82
1.47654e-82
1.47788e-82
1.43713e-82
1.45345e-82
1.48629e-82
1.45745e-82
1.494e-82
1.45386e-82
1.48628e-82
1.44187e-82
1.49796e-82
1.44121e-82
1.4576e-82
1.4673e-82
1.42945e-82
1.09285e-82
1.09401e-82
1.09218e-82
1.07419e-82
1.08642e-82
1.08468e-82
1.09636e-82
1.07115e-82
1.09927e-82
1.08591e-82
1.09078e-82
1.09735e-82
1.07699e-82
1.08687e-82
1.06034e-82
1.08709e-82
1.08793e-82
1.07474e-82
1.0769e-82
1.08929e-82
1.65395e-82
1.67164e-82
1.68268e-82
1.65828e-82
1.6468e-82
1.65673e-82
1.68088e-82
1.64272e-82
1.69473e-82
1.6811e-82
1.68704e-82
1.68525e-82
1.66782e-82
1.64877e-82
1.63536e-82
1.65785e-82
1.64773e-82
1.64662e-82
1.6596e-82
1.66884e-82
1.93707e-82
1.95356e-82
1.9615e-82
1.93064e-82
1.92221e-82
1.88444e-82
1.92801e-82
1.89129e-82
1.94739e-82
1.99508e-82
1.97806e-82
1.92148e-82
1.97397e-82
1.9413e-82
1.93995e-82
1.95297e-82
1.87034e-82
1.9463e-82
1.91041e-82
1.9193e-82
2.20776e-82
2.25578e-82
2.24376e-82
2.22693e-82
2.24114e-82
2.25926e-82
2.32439e-82
2.23609e-82
2.24733e-82
2.22069e-82
2.23035e-82
2.23157e-82
2.24963e-82
2.2455e-82
2.20343e-82
2.23808e-82
2.25307e-82
2.21479e-82
2.20421e-82
2.21295e-82
2.43895e-82
2.44226e-82
2.46295e-82
2.50622e-82
2.48191e-82
2.51237e-82
2.46864e-82
2.50996e-82
2.47821e-82
2.38645e-82
2.41998e-82
2.42463e-82
2.44318e-82
2.39681e-82
2.38996e-82
2.41229e-82
2.39964e-82
2.4446e-82
2.41979e-82
2.47021e-82
2.48251e-82
2.48493e-82
2.53057e-82
2.5081e-82
2.48069e-82
2.51573e-82
2.51864e-82
2.55449e-82
2.4827e-82
2.52227e-82
2.51037e-82
2.51344e-82
2.53583e-82
2.51434e-82
2.49503e-82
2.57444e-82
2.49853e-82
2.47072e-82
2.50214e-82
2.51551e-82
2.52817e-82
2.47737e-82
2.50255e-82
2.48152e-82
2.51935e-82
2.53704e-82
2.54357e-82
2.52013e-82
2.46084e-82
2.4808e-82
2.45904e-82
2.54178e-82
2.52561e-82
2.56668e-82
2.55408e-82
2.5549e-82
2.528e-82
2.52819e-82
2.49701e-82
2.50979e-82
2.30612e-82
2.33467e-82
2.30794e-82
2.39702e-82
2.3282e-82
2.38424e-82
2.33897e-82
2.36379e-82
2.33103e-82
2.33978e-82
2.33609e-82
2.38096e-82
2.3395e-82
2.40826e-82
2.32253e-82
2.37433e-82
2.36448e-82
2.29099e-82
2.37295e-82
2.36932e-82
2.09566e-82
2.18601e-82
2.15307e-82
2.13889e-82
2.11092e-82
2.21212e-82
2.17522e-82
2.17773e-82
2.1616e-82
2.11977e-82
2.15992e-82
2.20165e-82
2.14656e-82
2.24614e-82
2.15578e-82
2.19646e-82
2.21514e-82
2.16427e-82
2.20999e-82
2.21227e-82
1.89502e-82
1.89138e-82
1.88116e-82
1.91341e-82
1.9339e-82
1.9277e-82
1.8905e-82
1.89665e-82
1.94777e-82
1.88282e-82
1.93007e-82
1.93361e-82
1.88536e-82
1.95164e-82
1.9433e-82
1.98106e-82
1.9169e-82
1.95756e-82
1.9314e-82
1.98481e-82
1.38148e-82
1.39212e-82
1.3839e-82
1.37355e-82
1.40105e-82
1.38941e-82
1.40749e-82
1.39013e-82
1.40592e-82
1.41888e-82
1.39068e-82
1.42779e-82
1.3865e-82
1.43914e-82
1.38985e-82
1.38977e-82
1.4052e-82
1.42905e-82
1.40465e-82
1.44483e-82
8.22077e-98
8.11116e-98
8.24012e-98
7.97733e-98
8.14301e-98
8.13665e-98
8.14501e-98
7.91481e-98
7.99521e-98
8.19907e-98
8.01459e-98
8.2468e-98
7.99361e-98
8.18835e-98
7.9324e-98
8.26176e-98
7.91388e-98
8.02234e-98
8.09635e-98
7.84233e-98
6.24468e-95
6.16066e-95
6.25721e-95
6.06057e-95
6.18363e-95
6.1807e-95
6.18652e-95
6.0119e-95
6.07334e-95
6.22743e-95
6.08884e-95
6.26299e-95
6.07347e-95
6.22024e-95
6.02688e-95
6.27552e-95
6.01294e-95
6.09462e-95
6.14921e-95
5.95883e-95
2.53934e-92
2.50486e-92
2.54353e-92
2.4648e-92
2.51369e-92
2.51328e-92
2.51542e-92
2.44452e-92
2.46966e-92
2.53199e-92
2.47626e-92
2.54615e-92
2.47024e-92
2.52945e-92
2.45123e-92
2.55171e-92
2.44563e-92
2.47856e-92
2.50007e-92
2.42375e-92
5.9289e-90
5.84773e-90
5.93655e-90
5.75566e-90
5.86713e-90
5.868e-90
5.87248e-90
5.70725e-90
5.76628e-90
5.91103e-90
5.7824e-90
5.94338e-90
5.76887e-90
5.90599e-90
5.72436e-90
5.95742e-90
5.71149e-90
5.78767e-90
5.83624e-90
5.66068e-90
9.8337e-88
9.698e-88
9.84278e-88
9.54774e-88
9.72808e-88
9.73259e-88
9.73914e-88
9.46568e-88
9.56417e-88
9.80278e-88
9.592e-88
9.85523e-88
9.57042e-88
9.79595e-88
9.4963e-88
9.88023e-88
9.47546e-88
9.60056e-88
9.67821e-88
9.39168e-88
1.13056e-85
1.11485e-85
1.13118e-85
1.09785e-85
1.11806e-85
1.11894e-85
1.1196e-85
1.08823e-85
1.09963e-85
1.12688e-85
1.10295e-85
1.13277e-85
1.10057e-85
1.12627e-85
1.09201e-85
1.13583e-85
1.08969e-85
1.1039e-85
1.11248e-85
1.08009e-85
8.97648e-84
8.85108e-84
8.978e-84
8.71833e-84
8.87453e-84
8.88427e-84
8.88885e-84
8.64057e-84
8.73185e-84
8.9461e-84
8.75899e-84
8.99181e-84
8.74068e-84
8.94281e-84
8.67222e-84
9.01737e-84
8.65476e-84
8.76599e-84
8.83099e-84
8.57896e-84
4.7608e-82
4.69425e-82
4.75964e-82
4.62493e-82
4.70536e-82
4.71195e-82
4.71427e-82
4.58313e-82
4.63228e-82
4.74401e-82
4.64687e-82
4.76777e-82
4.63728e-82
4.74314e-82
4.60053e-82
4.78176e-82
4.59245e-82
4.64998e-82
4.68262e-82
4.55277e-82
6.57752e-81
6.48832e-81
6.57239e-81
6.39327e-81
6.49958e-81
6.5101e-81
6.51521e-81
6.33595e-81
6.40795e-81
6.55263e-81
6.42635e-81
6.58566e-81
6.41132e-81
6.55305e-81
6.35832e-81
6.604e-81
6.35496e-81
6.42708e-81
6.46821e-81
6.30321e-81
4.75903e-81
4.76383e-81
4.75686e-81
4.6791e-81
4.73092e-81
4.72483e-81
4.77473e-81
4.66488e-81
4.78785e-81
4.7294e-81
4.75114e-81
4.77861e-81
4.69125e-81
4.73357e-81
4.61925e-81
4.73338e-81
4.73794e-81
4.6809e-81
4.69022e-81
4.74394e-81
7.22091e-81
7.29662e-81
7.34607e-81
7.23863e-81
7.18879e-81
7.23121e-81
7.33538e-81
7.16968e-81
7.39683e-81
7.33706e-81
7.36447e-81
7.35426e-81
7.28079e-81
7.19748e-81
7.13955e-81
7.23593e-81
7.19147e-81
7.18798e-81
7.24436e-81
7.28368e-81
8.4055e-81
8.47648e-81
8.51116e-81
8.37579e-81
8.34151e-81
8.17849e-81
8.36762e-81
8.20938e-81
8.45015e-81
8.6555e-81
8.58106e-81
8.33815e-81
8.56445e-81
8.42314e-81
8.41704e-81
8.47332e-81
8.11612e-81
8.44329e-81
8.28836e-81
8.32675e-81
9.58781e-81
9.79275e-81
9.74283e-81
9.67103e-81
9.73268e-81
9.8111e-81
1.00908e-80
9.71189e-81
9.75916e-81
9.64196e-81
9.68398e-81
9.69016e-81
9.76957e-81
9.75411e-81
9.57138e-81
9.71973e-81
9.7844e-81
9.61979e-81
9.57372e-81
9.61131e-81
1.0492e-80
1.05036e-80
1.05908e-80
1.07784e-80
1.06752e-80
1.08043e-80
1.06164e-80
1.07957e-80
1.06552e-80
1.02665e-80
1.04082e-80
1.04302e-80
1.05082e-80
1.03105e-80
1.02798e-80
1.03774e-80
1.03199e-80
1.05142e-80
1.04073e-80
1.06246e-80
1.06975e-80
1.07059e-80
1.0903e-80
1.08046e-80
1.0688e-80
1.08412e-80
1.08511e-80
1.10064e-80
1.06982e-80
1.08694e-80
1.08181e-80
1.08314e-80
1.09247e-80
1.08362e-80
1.07532e-80
1.10916e-80
1.07663e-80
1.06459e-80
1.07812e-80
1.0835e-80
1.07599e-80
1.0544e-80
1.06471e-80
1.05605e-80
1.07221e-80
1.07974e-80
1.08233e-80
1.07239e-80
1.04735e-80
1.05569e-80
1.04628e-80
1.08142e-80
1.07487e-80
1.09222e-80
1.08693e-80
1.0871e-80
1.07579e-80
1.07602e-80
1.06272e-80
1.0681e-80
9.84826e-81
9.97174e-81
9.85622e-81
1.02359e-80
9.94006e-81
1.01793e-80
9.98566e-81
1.00946e-80
9.95441e-81
9.99263e-81
9.97719e-81
1.01677e-80
9.98936e-81
1.02831e-80
9.91795e-81
1.01374e-80
1.00967e-80
9.78464e-81
1.01332e-80
1.01185e-80
8.84889e-81
9.22775e-81
9.09043e-81
9.02799e-81
8.91228e-81
9.33696e-81
9.18091e-81
9.19265e-81
9.12443e-81
8.94888e-81
9.11618e-81
9.29195e-81
9.06152e-81
9.47812e-81
9.0987e-81
9.26993e-81
9.34726e-81
9.13636e-81
9.32755e-81
9.33767e-81
8.05812e-81
8.04248e-81
8.00054e-81
8.13698e-81
8.22213e-81
8.19589e-81
8.03728e-81
8.06812e-81
8.28227e-81
8.00743e-81
8.20672e-81
8.22284e-81
8.01535e-81
8.29869e-81
8.26271e-81
8.42409e-81
8.15139e-81
8.32267e-81
8.21119e-81
8.43745e-81
5.86604e-81
5.91121e-81
5.87701e-81
5.83234e-81
5.94729e-81
5.89926e-81
5.97406e-81
5.90266e-81
5.96634e-81
6.02314e-81
5.90262e-81
6.06003e-81
5.88598e-81
6.10855e-81
5.89963e-81
5.89945e-81
5.96384e-81
6.0655e-81
5.96242e-81
6.1318e-81
3.936e-96
3.88303e-96
3.94405e-96
3.81996e-96
3.89759e-96
3.89575e-96
3.89942e-96
3.78934e-96
3.82801e-96
3.92532e-96
3.83779e-96
3.94773e-96
3.82811e-96
3.92062e-96
3.79874e-96
3.95554e-96
3.7898e-96
3.8414e-96
3.87593e-96
3.75571e-96
2.96013e-93
2.91996e-93
2.96517e-93
2.87328e-93
2.93031e-93
2.92985e-93
2.93234e-93
2.84968e-93
2.87893e-93
2.95176e-93
2.88665e-93
2.96826e-93
2.87965e-93
2.94866e-93
2.8575e-93
2.97468e-93
2.85083e-93
2.88931e-93
2.91449e-93
2.82531e-93
1.18076e-90
1.16461e-90
1.18235e-90
1.14628e-90
1.16849e-90
1.16867e-90
1.16956e-90
1.13665e-90
1.14838e-90
1.17728e-90
1.1516e-90
1.18372e-90
1.14891e-90
1.17622e-90
1.14005e-90
1.1865e-90
1.13743e-90
1.15264e-90
1.16236e-90
1.1273e-90
2.73197e-88
2.6943e-88
2.73469e-88
2.65259e-88
2.70271e-88
2.704e-88
2.70581e-88
2.62981e-88
2.65711e-88
2.72361e-88
2.66487e-88
2.73818e-88
2.65891e-88
2.72157e-88
2.63833e-88
2.74508e-88
2.63237e-88
2.66725e-88
2.68895e-88
2.60906e-88
4.45286e-86
4.39102e-86
4.45567e-86
4.32415e-86
4.40375e-86
4.40727e-86
4.40981e-86
4.28624e-86
4.331e-86
4.43872e-86
4.34413e-86
4.4619e-86
4.33481e-86
4.43606e-86
4.30111e-86
4.47391e-86
4.29164e-86
4.34793e-86
4.38194e-86
4.25388e-86
5.06727e-84
4.99647e-84
5.06862e-84
4.92164e-84
5.00984e-84
5.01547e-84
5.01794e-84
4.8777e-84
4.92897e-84
5.05068e-84
4.94443e-84
5.07643e-84
4.93427e-84
5.04846e-84
4.89571e-84
5.09091e-84
4.88532e-84
4.94861e-84
4.98569e-84
4.84252e-84
3.95778e-82
3.90224e-82
3.95733e-82
3.84476e-82
3.91173e-82
3.91737e-82
3.91902e-82
3.80985e-82
3.85024e-82
3.94436e-82
3.86263e-82
3.96398e-82
3.85497e-82
3.94326e-82
3.82462e-82
3.97582e-82
3.81699e-82
3.86565e-82
3.89323e-82
3.78373e-82
2.07169e-80
2.04263e-80
2.07061e-80
2.01301e-80
2.04701e-80
2.05059e-80
2.05141e-80
1.99451e-80
2.01599e-80
2.06439e-80
2.02254e-80
2.07445e-80
2.01858e-80
2.06419e-80
2.00249e-80
2.08082e-80
1.99904e-80
2.02385e-80
2.03747e-80
1.98187e-80
2.81835e-79
2.77993e-79
2.81549e-79
2.74e-79
2.78423e-79
2.78976e-79
2.79159e-79
2.71498e-79
2.74584e-79
2.8078e-79
2.75406e-79
2.82153e-79
2.74798e-79
2.80818e-79
2.7252e-79
2.82977e-79
2.72358e-79
2.75442e-79
2.77131e-79
2.70143e-79
2.01194e-79
2.01386e-79
2.01136e-79
1.97871e-79
2e-79
1.99807e-79
2.01873e-79
1.97228e-79
2.02449e-79
1.99968e-79
2.00908e-79
2.0202e-79
1.98384e-79
2.00143e-79
1.95363e-79
2.00085e-79
2.00316e-79
1.97922e-79
1.98312e-79
2.00573e-79
3.06144e-79
3.09287e-79
3.11437e-79
3.06843e-79
3.04743e-79
3.06501e-79
3.1086e-79
3.03878e-79
3.1351e-79
3.10965e-79
3.12188e-79
3.11655e-79
3.08651e-79
3.05116e-79
3.02683e-79
3.06693e-79
3.04797e-79
3.04705e-79
3.07083e-79
3.08707e-79
3.54453e-79
3.57418e-79
3.58892e-79
3.53121e-79
3.51774e-79
3.44936e-79
3.52911e-79
3.4629e-79
3.56327e-79
3.6492e-79
3.61755e-79
3.51624e-79
3.611e-79
3.55162e-79
3.54896e-79
3.57259e-79
3.42255e-79
3.55946e-79
3.4945e-79
3.51059e-79
4.04733e-79
4.13229e-79
4.11221e-79
4.08242e-79
4.10842e-79
4.14138e-79
4.25812e-79
4.10012e-79
4.11945e-79
4.06942e-79
4.08714e-79
4.09008e-79
4.12403e-79
4.11862e-79
4.04147e-79
4.10316e-79
4.13024e-79
4.06147e-79
4.04196e-79
4.05765e-79
4.39585e-79
4.39959e-79
4.43536e-79
4.51453e-79
4.47177e-79
4.52517e-79
4.44659e-79
4.52236e-79
4.46179e-79
4.30154e-79
4.35979e-79
4.36992e-79
4.40181e-79
4.31968e-79
4.30635e-79
4.3478e-79
4.32245e-79
4.40425e-79
4.35939e-79
4.45056e-79
4.49092e-79
4.4935e-79
4.5764e-79
4.53448e-79
4.48616e-79
4.55156e-79
4.55454e-79
4.61997e-79
4.49113e-79
4.56323e-79
4.54172e-79
4.54745e-79
4.58511e-79
4.54978e-79
4.51498e-79
4.65535e-79
4.51976e-79
4.46893e-79
4.52557e-79
4.54656e-79
4.47456e-79
4.38493e-79
4.42614e-79
4.39139e-79
4.45868e-79
4.49003e-79
4.49999e-79
4.45896e-79
4.35555e-79
4.3897e-79
4.35009e-79
4.49564e-79
4.46972e-79
4.54138e-79
4.51966e-79
4.51962e-79
4.47319e-79
4.47474e-79
4.41926e-79
4.44142e-79
4.11134e-79
4.16337e-79
4.11465e-79
4.27247e-79
4.14852e-79
4.24825e-79
4.16735e-79
4.21403e-79
4.15533e-79
4.17169e-79
4.16521e-79
4.24448e-79
4.16958e-79
4.29207e-79
4.14026e-79
4.23096e-79
4.21448e-79
4.08517e-79
4.22985e-79
4.22407e-79
3.66272e-79
3.81837e-79
3.76232e-79
3.73554e-79
3.68849e-79
3.86317e-79
3.79847e-79
3.80385e-79
3.77547e-79
3.70336e-79
3.77159e-79
3.84418e-79
3.74975e-79
3.92052e-79
3.76434e-79
3.83499e-79
3.86635e-79
3.78064e-79
3.85907e-79
3.86343e-79
3.3589e-79
3.35253e-79
3.33566e-79
3.39213e-79
3.42661e-79
3.41603e-79
3.34969e-79
3.36457e-79
3.45226e-79
3.3384e-79
3.42073e-79
3.42799e-79
3.3405e-79
3.45927e-79
3.44389e-79
3.51148e-79
3.39809e-79
3.46855e-79
3.42218e-79
3.51597e-79
2.42796e-79
2.44654e-79
2.43268e-79
2.414e-79
2.46086e-79
2.44145e-79
2.47151e-79
2.44297e-79
2.46802e-79
2.49211e-79
2.44202e-79
2.50701e-79
2.43551e-79
2.52724e-79
2.44108e-79
2.44115e-79
2.46711e-79
2.50944e-79
2.46692e-79
2.53656e-79
1.85625e-94
1.83105e-94
1.85949e-94
1.80179e-94
1.83758e-94
1.8373e-94
1.83886e-94
1.78701e-94
1.80533e-94
1.85109e-94
1.81017e-94
1.86144e-94
1.80578e-94
1.84907e-94
1.7919e-94
1.86542e-94
1.78763e-94
1.81183e-94
1.82768e-94
1.77163e-94
1.39848e-91
1.37934e-91
1.40043e-91
1.35765e-91
1.38397e-91
1.3842e-91
1.38525e-91
1.34626e-91
1.36012e-91
1.39443e-91
1.36394e-91
1.40206e-91
1.36077e-91
1.39311e-91
1.35027e-91
1.40531e-91
1.34709e-91
1.36516e-91
1.37672e-91
1.33508e-91
5.48744e-89
5.41179e-89
5.49321e-89
5.32808e-89
5.4288e-89
5.43144e-89
5.43504e-89
5.28235e-89
5.33706e-89
5.47101e-89
5.35268e-89
5.50024e-89
5.34076e-89
5.46662e-89
5.29942e-89
5.51399e-89
5.28712e-89
5.35742e-89
5.40122e-89
5.24025e-89
1.25571e-86
1.23827e-86
1.25659e-86
1.21944e-86
1.2419e-86
1.24291e-86
1.24361e-86
1.20875e-86
1.22134e-86
1.25183e-86
1.22506e-86
1.25836e-86
1.22245e-86
1.25101e-86
1.21296e-86
1.26173e-86
1.2102e-86
1.22614e-86
1.23579e-86
1.19953e-86
2.01147e-84
1.98337e-84
2.01216e-84
1.9537e-84
1.98872e-84
1.99098e-84
1.99193e-84
1.93624e-84
1.95651e-84
2.00505e-84
1.96269e-84
2.01525e-84
1.95869e-84
2.00404e-84
1.94341e-84
2.02099e-84
1.93911e-84
1.96438e-84
1.97922e-84
1.92212e-84
2.26044e-82
2.22869e-82
2.2604e-82
2.19592e-82
2.23419e-82
2.23747e-82
2.23835e-82
2.17595e-82
2.19888e-82
2.25302e-82
2.20604e-82
2.2642e-82
2.20175e-82
2.25224e-82
2.18447e-82
2.271e-82
2.17983e-82
2.20788e-82
2.22382e-82
2.16081e-82
1.73663e-80
1.71215e-80
1.73595e-80
1.6874e-80
1.71595e-80
1.71903e-80
1.71958e-80
1.67181e-80
1.68958e-80
1.73075e-80
1.69521e-80
1.73912e-80
1.69204e-80
1.73042e-80
1.67865e-80
1.74457e-80
1.67531e-80
1.69652e-80
1.70814e-80
1.66079e-80
8.96024e-79
8.83415e-79
8.9532e-79
8.70848e-79
8.85111e-79
8.86977e-79
8.8724e-79
8.6271e-79
8.72027e-79
8.92889e-79
8.74957e-79
8.97111e-79
8.73337e-79
8.92874e-79
8.66336e-79
8.99987e-79
8.64862e-79
8.75511e-79
8.81149e-79
8.57473e-79
1.20024e-77
1.1838e-77
1.19875e-77
1.16714e-77
1.18541e-77
1.1882e-77
1.18883e-77
1.15629e-77
1.16943e-77
1.19581e-77
1.17308e-77
1.20147e-77
1.17064e-77
1.19606e-77
1.16091e-77
1.20514e-77
1.16015e-77
1.17325e-77
1.18013e-77
1.15072e-77
8.44863e-78
8.45623e-78
8.44765e-78
8.31153e-78
8.39827e-78
8.39291e-78
8.47777e-78
8.28269e-78
8.50285e-78
8.39829e-78
8.43862e-78
8.48328e-78
8.33301e-78
8.40554e-78
8.20708e-78
8.40102e-78
8.41236e-78
8.31257e-78
8.32884e-78
8.42329e-78
1.28967e-77
1.30263e-77
1.31191e-77
1.2924e-77
1.2836e-77
1.29084e-77
1.30895e-77
1.27974e-77
1.32031e-77
1.30955e-77
1.31495e-77
1.31229e-77
1.3001e-77
1.2852e-77
1.27505e-77
1.29161e-77
1.28358e-77
1.28342e-77
1.29338e-77
1.30005e-77
1.48588e-77
1.4982e-77
1.50442e-77
1.47997e-77
1.47474e-77
1.44624e-77
1.47965e-77
1.45213e-77
1.4937e-77
1.52944e-77
1.51606e-77
1.47407e-77
1.51351e-77
1.48872e-77
1.48756e-77
1.49742e-77
1.43478e-77
1.49172e-77
1.46466e-77
1.47135e-77
1.69908e-77
1.73409e-77
1.72607e-77
1.7138e-77
1.72469e-77
1.73847e-77
1.7869e-77
1.72142e-77
1.72926e-77
1.70803e-77
1.71546e-77
1.71683e-77
1.73126e-77
1.72946e-77
1.69706e-77
1.72257e-77
1.73384e-77
1.70529e-77
1.69706e-77
1.70358e-77
1.83425e-77
1.83535e-77
1.84994e-77
1.88322e-77
1.86557e-77
1.88757e-77
1.85484e-77
1.88672e-77
1.86073e-77
1.79498e-77
1.8188e-77
1.82341e-77
1.83637e-77
1.80242e-77
1.79665e-77
1.81419e-77
1.80309e-77
1.83737e-77
1.81862e-77
1.85671e-77
1.8784e-77
1.87906e-77
1.91379e-77
1.89601e-77
1.8761e-77
1.90387e-77
1.90462e-77
1.93209e-77
1.87844e-77
1.90868e-77
1.89967e-77
1.90216e-77
1.91726e-77
1.9033e-77
1.8887e-77
1.94672e-77
1.89042e-77
1.86902e-77
1.89267e-77
1.90077e-77
1.85912e-77
1.8219e-77
1.83832e-77
1.82446e-77
1.85244e-77
1.86545e-77
1.86926e-77
1.85234e-77
1.80969e-77
1.82367e-77
1.80701e-77
1.8672e-77
1.85699e-77
1.88659e-77
1.8777e-77
1.8773e-77
1.85829e-77
1.85923e-77
1.83606e-77
1.84517e-77
1.7151e-77
1.73704e-77
1.7165e-77
1.78206e-77
1.73013e-77
1.77169e-77
1.73792e-77
1.75787e-77
1.73333e-77
1.74033e-77
1.7376e-77
1.77057e-77
1.73914e-77
1.79015e-77
1.72709e-77
1.76458e-77
1.75792e-77
1.70434e-77
1.76439e-77
1.76212e-77
1.5198e-77
1.58389e-77
1.56097e-77
1.54944e-77
1.5303e-77
1.60231e-77
1.57542e-77
1.57786e-77
1.56604e-77
1.53634e-77
1.56422e-77
1.59428e-77
1.55549e-77
1.62565e-77
1.56122e-77
1.59044e-77
1.60318e-77
1.56829e-77
1.60052e-77
1.60241e-77
1.40297e-77
1.40033e-77
1.39356e-77
1.41699e-77
1.43098e-77
1.42667e-77
1.39887e-77
1.40594e-77
1.44193e-77
1.39466e-77
1.42874e-77
1.43199e-77
1.39502e-77
1.44489e-77
1.43834e-77
1.4667e-77
1.41944e-77
1.4485e-77
1.42915e-77
1.46812e-77
1.00923e-77
1.01693e-77
1.01129e-77
1.00342e-77
1.02259e-77
1.01475e-77
1.02688e-77
1.01543e-77
1.02526e-77
1.03555e-77
1.01462e-77
1.04159e-77
1.01209e-77
1.05006e-77
1.01435e-77
1.01443e-77
1.02497e-77
1.04264e-77
1.02505e-77
1.05379e-77
8.77359e-93
8.65353e-93
8.78628e-93
8.51753e-93
8.68277e-93
8.68424e-93
8.69079e-93
8.44611e-93
8.53295e-93
8.7487e-93
8.55694e-93
8.79651e-93
8.53708e-93
8.74002e-93
8.47124e-93
8.81673e-93
8.45085e-93
8.56455e-93
8.63737e-93
8.37548e-93
6.61842e-90
6.52718e-90
6.62574e-90
6.42628e-90
6.54785e-90
6.55108e-90
6.5554e-90
6.37119e-90
6.43703e-90
6.59902e-90
6.45593e-90
6.63426e-90
6.4416e-90
6.59342e-90
6.39177e-90
6.65072e-90
6.37655e-90
6.46161e-90
6.51469e-90
6.31995e-90
2.5493e-87
2.51391e-87
2.55124e-87
2.4757e-87
2.52132e-87
2.52339e-87
2.52481e-87
2.45402e-87
2.4795e-87
2.54159e-87
2.48708e-87
2.55483e-87
2.48181e-87
2.5398e-87
2.46254e-87
2.56163e-87
2.45677e-87
2.48925e-87
2.50895e-87
2.43507e-87
5.75799e-85
5.67754e-85
5.76038e-85
5.59271e-85
5.69302e-85
5.69959e-85
5.70225e-85
5.54276e-85
5.60061e-85
5.7401e-85
5.61838e-85
5.76929e-85
5.60705e-85
5.7369e-85
5.56334e-85
5.78564e-85
5.55057e-85
5.62328e-85
5.66604e-85
5.50182e-85
9.06252e-83
8.93519e-83
9.06309e-83
8.80397e-83
8.95747e-83
8.97079e-83
8.97412e-83
8.72382e-83
8.81536e-83
9.03353e-83
8.84426e-83
9.07826e-83
8.82729e-83
9.02981e-83
8.75811e-83
9.1055e-83
8.73861e-83
8.85186e-83
8.91631e-83
8.66231e-83
1.00465e-80
9.90473e-81
1.00436e-80
9.7618e-81
9.9271e-81
9.94519e-81
9.94801e-81
9.67144e-81
9.77357e-81
1.00137e-80
9.80658e-81
1.00619e-80
9.78866e-81
1.0011e-80
9.71148e-81
1.00937e-80
9.69076e-81
9.81475e-81
9.88282e-81
9.60653e-81
7.59002e-79
7.48263e-79
7.58503e-79
7.37651e-79
7.4976e-79
7.51375e-79
7.51533e-79
7.30718e-79
7.38503e-79
7.5645e-79
7.41051e-79
7.59999e-79
7.3975e-79
7.56369e-79
7.33866e-79
7.62489e-79
7.32409e-79
7.4162e-79
7.46487e-79
7.26081e-79
3.85599e-77
3.80157e-77
3.85197e-77
3.74855e-77
3.80803e-77
3.81744e-77
3.81816e-77
3.71294e-77
3.75313e-77
3.84265e-77
3.76615e-77
3.86025e-77
3.75962e-77
3.84288e-77
3.72931e-77
3.87315e-77
3.72301e-77
3.76852e-77
3.79168e-77
3.69132e-77
5.08506e-76
5.01518e-76
5.07762e-76
4.94605e-76
5.02099e-76
5.03472e-76
5.03668e-76
4.89926e-76
4.95492e-76
5.06668e-76
4.97098e-76
5.08984e-76
4.96133e-76
5.06803e-76
4.91996e-76
5.10605e-76
4.91642e-76
4.97182e-76
4.99958e-76
4.87649e-76
3.5274e-76
3.5304e-76
3.52764e-76
3.47119e-76
3.50629e-76
3.50519e-76
3.53981e-76
3.45839e-76
3.55067e-76
3.50689e-76
3.52407e-76
3.54186e-76
3.48013e-76
3.50986e-76
3.42795e-76
3.50709e-76
3.51251e-76
3.47117e-76
3.47791e-76
3.51713e-76
5.40309e-76
5.45624e-76
5.49601e-76
5.4136e-76
5.37698e-76
5.40659e-76
5.48141e-76
5.35988e-76
5.52979e-76
5.48462e-76
5.50822e-76
5.4954e-76
5.44621e-76
5.38378e-76
5.34165e-76
5.40967e-76
5.37583e-76
5.37615e-76
5.41763e-76
5.44478e-76
6.19772e-76
6.24856e-76
6.27476e-76
6.17169e-76
6.15159e-76
6.0334e-76
6.17268e-76
6.05891e-76
6.23007e-76
6.37805e-76
6.32171e-76
6.14865e-76
6.31189e-76
6.20896e-76
6.20391e-76
6.24492e-76
5.98471e-76
6.22025e-76
6.10816e-76
6.13584e-76
7.09924e-76
7.24271e-76
7.21092e-76
7.16068e-76
7.20602e-76
7.26339e-76
7.46324e-76
7.19326e-76
7.22492e-76
7.13533e-76
7.16625e-76
7.17251e-76
7.23357e-76
7.22804e-76
7.09267e-76
7.19758e-76
7.24425e-76
7.12628e-76
7.09176e-76
7.11869e-76
7.62559e-76
7.62822e-76
7.68752e-76
7.8268e-76
7.75428e-76
7.84463e-76
7.70877e-76
7.84237e-76
7.73133e-76
7.46267e-76
7.55967e-76
7.58041e-76
7.63282e-76
7.49304e-76
7.46823e-76
7.54213e-76
7.49382e-76
7.63698e-76
7.5589e-76
7.71736e-76
7.83048e-76
7.83148e-76
7.97643e-76
7.90133e-76
7.8196e-76
7.93711e-76
7.93805e-76
8.0531e-76
7.83042e-76
7.95677e-76
7.91919e-76
7.92994e-76
7.9902e-76
7.93548e-76
7.87451e-76
8.11327e-76
7.88038e-76
7.79081e-76
7.88901e-76
7.91997e-76
7.70573e-76
7.55186e-76
7.61698e-76
7.56197e-76
7.67776e-76
7.73166e-76
7.7461e-76
7.67672e-76
7.50122e-76
7.55833e-76
7.48846e-76
7.73652e-76
7.6966e-76
7.81837e-76
7.78214e-76
7.7791e-76
7.70131e-76
7.70639e-76
7.6101e-76
7.64743e-76
7.14035e-76
7.23252e-76
7.14611e-76
7.41768e-76
7.20083e-76
7.37359e-76
7.23298e-76
7.31791e-76
7.21555e-76
7.2455e-76
7.23393e-76
7.37092e-76
7.23928e-76
7.45128e-76
7.19e-76
7.34439e-76
7.31762e-76
7.09625e-76
7.34473e-76
7.33587e-76
6.30013e-76
6.56366e-76
6.47006e-76
6.42062e-76
6.34283e-76
6.63931e-76
6.52763e-76
6.53869e-76
6.48943e-76
6.36725e-76
6.48099e-76
6.6054e-76
6.44627e-76
6.73418e-76
6.46871e-76
6.58943e-76
6.64104e-76
6.49921e-76
6.63147e-76
6.63971e-76
5.85623e-76
5.84535e-76
5.81818e-76
5.91531e-76
5.97198e-76
5.95452e-76
5.83807e-76
5.87118e-76
6.01862e-76
5.82258e-76
5.96352e-76
5.97803e-76
5.82198e-76
6.03121e-76
6.00335e-76
6.12223e-76
5.9254e-76
6.0451e-76
5.96445e-76
6.12623e-76
4.20832e-76
4.24039e-76
4.21737e-76
4.18413e-76
4.26276e-76
4.23094e-76
4.28002e-76
4.23405e-76
4.27261e-76
4.31663e-76
4.2289e-76
4.34112e-76
4.21905e-76
4.37674e-76
4.22828e-76
4.22881e-76
4.27173e-76
4.34576e-76
4.27269e-76
4.39169e-76
4.2085e-91
4.15046e-91
4.21335e-91
4.08634e-91
4.16371e-91
4.16578e-91
4.16851e-91
4.05135e-91
4.09313e-91
4.19638e-91
4.10517e-91
4.21879e-91
4.09608e-91
4.19264e-91
4.0644e-91
4.22917e-91
4.05451e-91
4.10876e-91
4.14266e-91
4.01849e-91
3.12977e-88
3.08631e-88
3.13232e-88
3.03944e-88
3.09549e-88
3.09806e-88
3.09979e-88
3.01285e-88
3.04406e-88
3.1205e-88
3.05339e-88
3.13676e-88
3.04696e-88
3.11817e-88
3.02331e-88
3.14505e-88
3.01604e-88
3.05606e-88
3.08037e-88
2.98936e-88
1.1833e-85
1.16677e-85
1.18387e-85
1.14935e-85
1.16998e-85
1.17134e-85
1.17188e-85
1.13909e-85
1.15094e-85
1.1797e-85
1.15461e-85
1.1857e-85
1.15229e-85
1.17898e-85
1.14332e-85
1.18904e-85
1.14061e-85
1.15561e-85
1.16445e-85
1.13057e-85
2.63431e-83
2.59729e-83
2.63467e-83
2.55919e-83
2.60385e-83
2.60776e-83
2.6087e-83
2.53591e-83
2.56242e-83
2.62612e-83
2.57088e-83
2.63911e-83
2.566e-83
2.6249e-83
2.54591e-83
2.647e-83
2.54002e-83
2.57311e-83
2.59198e-83
2.51778e-83
4.07276e-81
4.01524e-81
4.0719e-81
3.95738e-81
4.02442e-81
4.03183e-81
4.03289e-81
3.9207e-81
3.96191e-81
4.05977e-81
3.97539e-81
4.0793e-81
3.96824e-81
4.05846e-81
3.93701e-81
4.09216e-81
3.92818e-81
3.97881e-81
4.00667e-81
3.89398e-81
4.44785e-79
4.3848e-79
4.44537e-79
4.32275e-79
4.39378e-79
4.40337e-79
4.40413e-79
4.28204e-79
4.32732e-79
4.43341e-79
4.34246e-79
4.45415e-79
4.33506e-79
4.43263e-79
4.30072e-79
4.46885e-79
4.29149e-79
4.3461e-79
4.375e-79
4.2543e-79
3.30352e-77
3.25662e-77
3.30049e-77
3.21135e-77
3.26243e-77
3.27065e-77
3.27096e-77
3.18066e-77
3.21459e-77
3.29255e-77
3.22606e-77
3.3075e-77
3.22079e-77
3.29245e-77
3.19504e-77
3.31882e-77
3.18868e-77
3.22855e-77
3.2488e-77
3.16121e-77
1.6511e-75
1.62774e-75
1.64897e-75
1.60549e-75
1.63014e-75
1.63478e-75
1.63489e-75
1.59e-75
1.60723e-75
1.64547e-75
1.61298e-75
1.65276e-75
1.61039e-75
1.6457e-75
1.59734e-75
1.65851e-75
1.59464e-75
1.61401e-75
1.62345e-75
1.58111e-75
2.14331e-74
2.11376e-74
2.13971e-74
2.08524e-74
2.11578e-74
2.12238e-74
2.12292e-74
2.06519e-74
2.08863e-74
2.13574e-74
2.09565e-74
2.14515e-74
2.09188e-74
2.13643e-74
2.07437e-74
2.15226e-74
2.07276e-74
2.09606e-74
2.10717e-74
2.05592e-74
1.46441e-74
1.46558e-74
1.46479e-74
1.4415e-74
1.45561e-74
1.45562e-74
1.46965e-74
1.43587e-74
1.47433e-74
1.4561e-74
1.46337e-74
1.47041e-74
1.4452e-74
1.45731e-74
1.42371e-74
1.4558e-74
1.45833e-74
1.4413e-74
1.44409e-74
1.46027e-74
2.25138e-74
2.27305e-74
2.28998e-74
2.25537e-74
2.24021e-74
2.25226e-74
2.28297e-74
2.23272e-74
2.30348e-74
2.28463e-74
2.29486e-74
2.28883e-74
2.26911e-74
2.2431e-74
2.22571e-74
2.25348e-74
2.23929e-74
2.23983e-74
2.257e-74
2.26799e-74
2.57214e-74
2.59302e-74
2.60398e-74
2.56078e-74
2.55314e-74
2.50439e-74
2.56213e-74
2.51536e-74
2.58544e-74
2.6464e-74
2.6228e-74
2.55186e-74
2.61906e-74
2.57656e-74
2.57437e-74
2.59134e-74
2.4838e-74
2.58073e-74
2.53456e-74
2.54593e-74
2.95211e-74
3.01059e-74
2.99809e-74
2.97764e-74
2.99641e-74
3.02019e-74
3.10222e-74
2.9915e-74
3.00419e-74
2.96659e-74
2.97939e-74
2.9822e-74
3.0079e-74
3.00644e-74
2.95015e-74
2.99308e-74
3.0123e-74
2.96382e-74
2.94938e-74
2.96047e-74
3.15818e-74
3.15847e-74
3.18246e-74
3.24052e-74
3.21084e-74
3.2478e-74
3.19162e-74
3.24739e-74
3.20015e-74
3.09087e-74
3.13017e-74
3.13943e-74
3.1605e-74
3.10319e-74
3.09258e-74
3.12358e-74
3.10269e-74
3.16223e-74
3.12984e-74
3.1955e-74
3.25255e-74
3.25224e-74
3.31249e-74
3.28091e-74
3.24751e-74
3.29703e-74
3.2965e-74
3.34452e-74
3.25244e-74
3.30503e-74
3.28939e-74
3.29402e-74
3.31793e-74
3.29667e-74
3.27129e-74
3.36917e-74
3.27317e-74
3.23584e-74
3.27645e-74
3.28815e-74
3.18788e-74
3.12447e-74
3.15019e-74
3.12843e-74
3.1762e-74
3.1985e-74
3.2039e-74
3.17557e-74
3.1035e-74
3.12678e-74
3.09754e-74
3.19949e-74
3.18403e-74
3.23394e-74
3.21923e-74
3.21745e-74
3.18565e-74
3.18823e-74
3.14836e-74
3.16362e-74
2.96704e-74
3.00564e-74
2.96935e-74
3.08159e-74
2.99128e-74
3.06294e-74
3.00452e-74
3.04055e-74
2.99795e-74
3.01074e-74
3.00581e-74
3.06268e-74
3.00763e-74
3.09556e-74
2.98757e-74
3.05095e-74
3.04027e-74
2.949e-74
3.05158e-74
3.04813e-74
2.61094e-74
2.71924e-74
2.68106e-74
2.65992e-74
2.62829e-74
2.7503e-74
2.70394e-74
2.70891e-74
2.68838e-74
2.63817e-74
2.68451e-74
2.73599e-74
2.67074e-74
2.78882e-74
2.67949e-74
2.72935e-74
2.75025e-74
2.69263e-74
2.74687e-74
2.75045e-74
2.44313e-74
2.43872e-74
2.42785e-74
2.46803e-74
2.49091e-74
2.48392e-74
2.43517e-74
2.4505e-74
2.51078e-74
2.42957e-74
2.48779e-74
2.49427e-74
2.42844e-74
2.51617e-74
2.50429e-74
2.55407e-74
2.47224e-74
2.52142e-74
2.48787e-74
2.55495e-74
1.74838e-74
1.76164e-74
1.75229e-74
1.73835e-74
1.77048e-74
1.7576e-74
1.77734e-74
1.75898e-74
1.77402e-74
1.79274e-74
1.75614e-74
1.80264e-74
1.75232e-74
1.81755e-74
1.75612e-74
1.75644e-74
1.77376e-74
1.8047e-74
1.77445e-74
1.82355e-74
2.01736e-89
1.98934e-89
2.0191e-89
1.95914e-89
1.99531e-89
1.99697e-89
1.99808e-89
1.94202e-89
1.9621e-89
2.0115e-89
1.96813e-89
2.02197e-89
1.96399e-89
2.0099e-89
1.94876e-89
2.02728e-89
1.94396e-89
1.96983e-89
1.98558e-89
1.92675e-89
1.47633e-86
1.45569e-86
1.47711e-86
1.43398e-86
1.45974e-86
1.46145e-86
1.46211e-86
1.42119e-86
1.43594e-86
1.47193e-86
1.44053e-86
1.47941e-86
1.43766e-86
1.47097e-86
1.42647e-86
1.48355e-86
1.42299e-86
1.44178e-86
1.45287e-86
1.41045e-86
5.47825e-84
5.40125e-84
5.47933e-84
5.3221e-84
5.41503e-84
5.42322e-84
5.42511e-84