/*--------------------------------*- C++ -*----------------------------------*\
| =========                 |                                                 |
| \\      /  F ield         | OpenFOAM: The Open Source CFD Toolbox           |
|  \\    /   O peration     | Version:  2212                                  |
|   \\  /    A nd           | Website:  www.openfoam.com                      |
|    \\/     M anipulation  |                                                 |
\*---------------------------------------------------------------------------*/
FoamFile
{
    version     2.0;
    format      ascii;
    arch        "LSB;label=32;scalar=64";
    class       volScalarField;
    location    "0.05";
    object      s;
}
// * * * * * * * * * * * * * * * * * * * * * * * * * * * * * * * * * * * * * //

dimensions      [0 0 0 0 0 0 0];

internalField   nonuniform List<scalar> 
24240
(
1.33188e-143
1.37748e-143
1.38594e-143
1.33615e-143
1.37419e-143
1.378e-143
1.38081e-143
1.3613e-143
1.32592e-143
1.40858e-143
1.32417e-143
1.40321e-143
1.32886e-143
1.38251e-143
1.29904e-143
1.38179e-143
1.30489e-143
1.35584e-143
1.38101e-143
1.30032e-143
3.13952e-140
3.24437e-140
3.26585e-140
3.14651e-140
3.23795e-140
3.24487e-140
3.25121e-140
3.20475e-140
3.12416e-140
3.31711e-140
3.11927e-140
3.30562e-140
3.12966e-140
3.25601e-140
3.06053e-140
3.25576e-140
3.0739e-140
3.19307e-140
3.25221e-140
3.06246e-140
4.57288e-137
4.72137e-137
4.75443e-137
4.57776e-137
4.71373e-137
4.7199e-137
4.729e-137
4.66087e-137
4.54823e-137
4.82516e-137
4.5399e-137
4.81067e-137
4.55371e-137
4.73681e-137
4.45454e-137
4.73902e-137
4.47452e-137
4.64554e-137
4.73116e-137
4.45682e-137
3.87585e-134
3.99786e-134
4.02701e-134
3.87495e-134
3.99266e-134
3.99397e-134
4.00179e-134
3.94385e-134
3.85291e-134
4.0831e-134
3.84476e-134
4.07314e-134
3.85509e-134
4.00894e-134
3.7722e-134
4.01334e-134
3.79044e-134
3.93233e-134
4.00424e-134
3.77454e-134
2.51525e-131
2.5917e-131
2.61095e-131
2.51084e-131
2.58894e-131
2.58662e-131
2.59199e-131
2.55446e-131
2.49888e-131
2.64427e-131
2.49281e-131
2.63971e-131
2.49833e-131
2.59674e-131
2.44515e-131
2.60158e-131
2.45875e-131
2.54791e-131
2.59394e-131
2.44783e-131
1.14827e-128
1.18183e-128
1.19055e-128
1.14428e-128
1.18076e-128
1.17797e-128
1.18069e-128
1.16369e-128
1.14011e-128
1.20416e-128
1.13697e-128
1.20315e-128
1.13882e-128
1.18283e-128
1.11474e-128
1.18611e-128
1.12222e-128
1.16113e-128
1.18173e-128
1.11694e-128
3.83233e-126
3.93941e-126
3.96701e-126
3.81115e-126
3.93578e-126
3.9191e-126
3.92979e-126
3.87413e-126
3.80268e-126
4.00573e-126
3.79074e-126
4.00707e-126
3.79397e-126
3.93623e-126
3.71377e-126
3.95169e-126
3.74563e-126
3.86693e-126
3.93365e-126
3.72712e-126
8.45203e-124
8.67613e-124
8.7297e-124
8.38452e-124
8.666e-124
8.60853e-124
8.63804e-124
8.51938e-124
8.38136e-124
8.79716e-124
8.35136e-124
8.81372e-124
8.34989e-124
8.64915e-124
8.17196e-124
8.69588e-124
8.26547e-124
8.5067e-124
8.64744e-124
8.22341e-124
8.76063e-122
8.9791e-122
9.02036e-122
8.66439e-122
8.96279e-122
8.87511e-122
8.91577e-122
8.7999e-122
8.68232e-122
9.0668e-122
8.64657e-122
9.10309e-122
8.63304e-122
8.92118e-122
8.44513e-122
8.98694e-122
8.57857e-122
8.79003e-122
8.92601e-122
8.5344e-122
1.08421e-121
1.10141e-121
1.08577e-121
1.04902e-121
1.0896e-121
1.04933e-121
1.06324e-121
1.06044e-121
1.07251e-121
1.07445e-121
1.06311e-121
1.09758e-121
1.05112e-121
1.05733e-121
1.02256e-121
1.08555e-121
1.08109e-121
1.06319e-121
1.0697e-121
1.07463e-121
1.48478e-121
1.52461e-121
1.49778e-121
1.53135e-121
1.49265e-121
1.52048e-121
1.53621e-121
1.52252e-121
1.53325e-121
1.59585e-121
1.51975e-121
1.57566e-121
1.5333e-121
1.50161e-121
1.51245e-121
1.53446e-121
1.51714e-121
1.51083e-121
1.49855e-121
1.52131e-121
1.87301e-121
1.8963e-121
1.87998e-121
1.89963e-121
1.85254e-121
1.8262e-121
1.83173e-121
1.80917e-121
1.84027e-121
1.94359e-121
1.91649e-121
1.87129e-121
1.86852e-121
1.87452e-121
1.85456e-121
1.88935e-121
1.81107e-121
1.89996e-121
1.88199e-121
1.85347e-121
2.06832e-121
2.18305e-121
2.11712e-121
2.1558e-121
2.10374e-121
2.14797e-121
2.19929e-121
2.14124e-121
2.14655e-121
2.13921e-121
2.13592e-121
2.12883e-121
2.08727e-121
2.09068e-121
2.03469e-121
2.11348e-121
2.12945e-121
2.08737e-121
2.07408e-121
2.08343e-121
2.34192e-121
2.39256e-121
2.45437e-121
2.44733e-121
2.40333e-121
2.47395e-121
2.41646e-121
2.44696e-121
2.43796e-121
2.3523e-121
2.3666e-121
2.34776e-121
2.36254e-121
2.30092e-121
2.33592e-121
2.32485e-121
2.35532e-121
2.36084e-121
2.35345e-121
2.38017e-121
2.41717e-121
2.46959e-121
2.47989e-121
2.50847e-121
2.4737e-121
2.44312e-121
2.45021e-121
2.50974e-121
2.43468e-121
2.477e-121
2.41349e-121
2.446e-121
2.53122e-121
2.44899e-121
2.39948e-121
2.5505e-121
2.42017e-121
2.42918e-121
2.4511e-121
2.55561e-121
2.56794e-121
2.58484e-121
2.62579e-121
2.54276e-121
2.57053e-121
2.56389e-121
2.6244e-121
2.57881e-121
2.49695e-121
2.54241e-121
2.57509e-121
2.63219e-121
2.57162e-121
2.60001e-121
2.65182e-121
2.59402e-121
2.62772e-121
2.54502e-121
2.55315e-121
2.56524e-121
2.29057e-121
2.37658e-121
2.31805e-121
2.42312e-121
2.36669e-121
2.44246e-121
2.41211e-121
2.36939e-121
2.37871e-121
2.39105e-121
2.35058e-121
2.42516e-121
2.44299e-121
2.44714e-121
2.37613e-121
2.4319e-121
2.44643e-121
2.33084e-121
2.46497e-121
2.39519e-121
2.27652e-121
2.38155e-121
2.33884e-121
2.3413e-121
2.31077e-121
2.38777e-121
2.37596e-121
2.3385e-121
2.36414e-121
2.27938e-121
2.33422e-121
2.39485e-121
2.32609e-121
2.46596e-121
2.39642e-121
2.44284e-121
2.47157e-121
2.37228e-121
2.4225e-121
2.43216e-121
1.93611e-121
1.93245e-121
1.89274e-121
1.95162e-121
1.99273e-121
1.98295e-121
1.95976e-121
1.88858e-121
1.9697e-121
1.9295e-121
1.96447e-121
1.98663e-121
1.95773e-121
1.97067e-121
2.02313e-121
2.00473e-121
1.97504e-121
2.0285e-121
2.00661e-121
2.05925e-121
1.60275e-121
1.62551e-121
1.60964e-121
1.5962e-121
1.66056e-121
1.61642e-121
1.71205e-121
1.61471e-121
1.70993e-121
1.68052e-121
1.64878e-121
1.7103e-121
1.61996e-121
1.70041e-121
1.65931e-121
1.63305e-121
1.69971e-121
1.71577e-121
1.66263e-121
1.75959e-121
1.72638e-141
1.78472e-141
1.79748e-141
1.7318e-141
1.78159e-141
1.78724e-141
1.79026e-141
1.7641e-141
1.71827e-141
1.827e-141
1.7158e-141
1.8195e-141
1.72217e-141
1.79309e-141
1.68441e-141
1.79182e-141
1.68945e-141
1.7573e-141
1.79031e-141
1.68324e-141
4.92229e-138
5.08416e-138
5.12272e-138
4.93232e-138
5.07724e-138
5.08946e-138
5.09779e-138
5.02264e-138
4.89688e-138
5.20303e-138
4.8886e-138
5.18392e-138
4.90553e-138
5.10704e-138
4.79965e-138
5.10606e-138
4.81405e-138
5.00526e-138
5.09896e-138
4.79521e-138
7.9077e-135
8.15996e-135
8.22462e-135
7.91379e-135
8.15167e-135
8.16366e-135
8.177e-135
8.0557e-135
7.86266e-135
8.34606e-135
7.84719e-135
8.31982e-135
7.87178e-135
8.19317e-135
7.70426e-135
8.19655e-135
7.72923e-135
8.03089e-135
8.18031e-135
7.6971e-135
7.21254e-132
7.43517e-132
7.49606e-132
7.20821e-132
7.4299e-132
7.43306e-132
7.44555e-132
7.33466e-132
7.16745e-132
7.59916e-132
7.15132e-132
7.57987e-132
7.17099e-132
7.46119e-132
7.02033e-132
7.46925e-132
7.04611e-132
7.31488e-132
7.44982e-132
7.01507e-132
4.83328e-129
4.97703e-129
5.01828e-129
4.82269e-129
4.9746e-129
4.97027e-129
4.97933e-129
4.90523e-129
4.80008e-129
5.08111e-129
4.78777e-129
5.07208e-129
4.79853e-129
4.98992e-129
4.69869e-129
4.99934e-129
4.71982e-129
4.89381e-129
4.9829e-129
4.69786e-129
2.27031e-126
2.3351e-126
2.35426e-126
2.26129e-126
2.33428e-126
2.32869e-126
2.33353e-126
2.29903e-126
2.25332e-126
2.38044e-126
2.2468e-126
2.37843e-126
2.25046e-126
2.3384e-126
2.20393e-126
2.34502e-126
2.2166e-126
2.29453e-126
2.33551e-126
2.2057e-126
7.55405e-124
7.75966e-124
7.81998e-124
7.50802e-124
7.7566e-124
7.72293e-124
7.74255e-124
7.63002e-124
7.49268e-124
7.89345e-124
7.4681e-124
7.89639e-124
7.47419e-124
7.75712e-124
7.31952e-124
7.7883e-124
7.3763e-124
7.6177e-124
7.74979e-124
7.33829e-124
1.64381e-121
1.68618e-121
1.69774e-121
1.62966e-121
1.68502e-121
1.67356e-121
1.67907e-121
1.65543e-121
1.62944e-121
1.71015e-121
1.62338e-121
1.71352e-121
1.62297e-121
1.68157e-121
1.58905e-121
1.69087e-121
1.6062e-121
1.65336e-121
1.68079e-121
1.59771e-121
1.67038e-119
1.71076e-119
1.71947e-119
1.65083e-119
1.70829e-119
1.69106e-119
1.69877e-119
1.67622e-119
1.65486e-119
1.72742e-119
1.64779e-119
1.7347e-119
1.64494e-119
1.69999e-119
1.60969e-119
1.71289e-119
1.63465e-119
1.6747e-119
1.70053e-119
1.62597e-119
2.05987e-119
2.092e-119
2.0628e-119
1.9929e-119
2.06976e-119
1.99392e-119
2.02076e-119
2.01482e-119
2.03779e-119
2.04088e-119
2.01988e-119
2.08481e-119
1.99673e-119
2.00924e-119
1.94262e-119
2.06249e-119
2.05386e-119
2.01965e-119
2.03174e-119
2.04184e-119
2.81601e-119
2.89183e-119
2.84155e-119
2.90343e-119
2.83051e-119
2.88329e-119
2.91377e-119
2.88718e-119
2.90872e-119
3.02538e-119
2.88324e-119
2.98811e-119
2.90738e-119
2.84795e-119
2.86708e-119
2.90946e-119
2.87665e-119
2.86464e-119
2.84237e-119
2.88522e-119
3.53575e-119
3.57978e-119
3.54991e-119
3.58587e-119
3.49745e-119
3.44691e-119
3.4583e-119
3.41507e-119
3.47513e-119
3.66939e-119
3.61835e-119
3.5315e-119
3.52907e-119
3.53932e-119
3.50172e-119
3.56698e-119
3.41866e-119
3.58655e-119
3.55201e-119
3.49985e-119
3.89242e-119
4.10662e-119
3.98372e-119
4.0547e-119
3.95784e-119
4.04167e-119
4.13933e-119
4.02746e-119
4.03813e-119
4.02386e-119
4.0179e-119
4.00425e-119
3.92823e-119
3.93276e-119
3.82855e-119
3.9757e-119
4.00655e-119
3.92618e-119
3.90136e-119
3.91996e-119
4.36242e-119
4.45579e-119
4.57046e-119
4.55754e-119
4.47626e-119
4.60802e-119
4.49978e-119
4.55743e-119
4.54166e-119
4.37879e-119
4.40723e-119
4.37198e-119
4.40031e-119
4.28527e-119
4.34964e-119
4.32946e-119
4.3859e-119
4.39755e-119
4.38312e-119
4.43342e-119
4.48621e-119
4.58249e-119
4.60279e-119
4.65501e-119
4.5896e-119
4.53461e-119
4.5479e-119
4.65826e-119
4.51808e-119
4.59646e-119
4.47973e-119
4.53918e-119
4.69701e-119
4.54535e-119
4.45353e-119
4.73408e-119
4.49234e-119
4.50827e-119
4.54937e-119
4.74198e-119
4.68089e-119
4.70879e-119
4.78523e-119
4.63445e-119
4.68583e-119
4.67399e-119
4.78375e-119
4.70074e-119
4.5517e-119
4.6334e-119
4.69215e-119
4.79838e-119
4.68717e-119
4.74051e-119
4.83164e-119
4.72929e-119
4.7884e-119
4.63973e-119
4.65378e-119
4.67584e-119
4.17185e-119
4.32632e-119
4.22105e-119
4.41253e-119
4.3092e-119
4.4472e-119
4.39142e-119
4.31502e-119
4.33094e-119
4.35256e-119
4.27934e-119
4.41511e-119
4.4458e-119
4.45699e-119
4.32631e-119
4.42885e-119
4.45312e-119
4.243e-119
4.4863e-119
4.362e-119
4.03137e-119
4.21843e-119
4.14258e-119
4.14698e-119
4.0921e-119
4.23094e-119
4.20903e-119
4.14375e-119
4.18761e-119
4.03821e-119
4.13648e-119
4.24337e-119
4.11925e-119
4.36993e-119
4.24401e-119
4.32668e-119
4.37795e-119
4.20183e-119
4.29056e-119
4.30886e-119
3.44455e-119
3.43761e-119
3.36727e-119
3.4711e-119
3.54515e-119
3.52736e-119
3.48572e-119
3.35943e-119
3.50436e-119
3.43137e-119
3.49523e-119
3.53304e-119
3.4824e-119
3.50643e-119
3.59787e-119
3.56666e-119
3.51205e-119
3.60788e-119
3.56852e-119
3.66333e-119
2.76056e-119
2.79994e-119
2.77249e-119
2.74943e-119
2.8602e-119
2.78467e-119
2.94824e-119
2.78206e-119
2.9448e-119
2.89483e-119
2.84072e-119
2.94612e-119
2.79082e-119
2.9302e-119
2.85787e-119
2.81378e-119
2.92715e-119
2.95519e-119
2.86457e-119
3.03016e-119
2.7347e-139
2.82568e-139
2.84863e-139
2.74274e-139
2.82252e-139
2.8322e-139
2.83611e-139
2.79342e-139
2.72122e-139
2.89547e-139
2.71701e-139
2.88307e-139
2.72749e-139
2.84174e-139
2.66911e-139
2.83947e-139
2.67347e-139
2.78338e-139
2.83623e-139
2.66314e-139
8.75681e-136
9.03967e-136
9.11662e-136
8.77193e-136
9.0329e-136
9.05598e-136
9.06815e-136
8.9306e-136
8.70895e-136
9.25855e-136
8.69307e-136
9.22334e-136
8.72397e-136
9.08769e-136
8.54006e-136
9.08557e-136
8.55504e-136
8.90176e-136
9.06997e-136
8.51978e-136
1.47693e-132
1.52311e-132
1.53656e-132
1.47749e-132
1.52248e-132
1.52483e-132
1.5269e-132
1.50362e-132
1.46801e-132
1.55896e-132
1.46492e-132
1.55392e-132
1.4696e-132
1.53041e-132
1.43906e-132
1.53104e-132
1.44205e-132
1.49935e-132
1.52748e-132
1.43574e-132
1.40002e-129
1.44231e-129
1.4554e-129
1.39857e-129
1.44214e-129
1.4428e-129
1.44484e-129
1.42274e-129
1.39076e-129
1.47507e-129
1.38744e-129
1.47124e-129
1.39131e-129
1.44832e-129
1.36277e-129
1.44992e-129
1.36627e-129
1.41925e-129
1.44564e-129
1.35994e-129
9.45582e-127
9.73046e-127
9.81955e-127
9.43045e-127
9.73139e-127
9.72277e-127
9.73808e-127
9.58927e-127
9.38722e-127
9.93964e-127
9.36186e-127
9.92171e-127
9.38308e-127
9.76165e-127
9.19243e-127
9.78051e-127
9.22422e-127
9.56936e-127
9.74485e-127
9.1792e-127
4.48999e-124
4.61487e-124
4.65658e-124
4.4697e-124
4.61586e-124
4.6045e-124
4.61304e-124
4.54305e-124
4.45459e-124
4.70677e-124
4.44108e-124
4.70283e-124
4.4483e-124
4.62393e-124
4.35844e-124
4.63734e-124
4.37934e-124
4.53531e-124
4.61683e-124
4.35681e-124
1.46458e-121
1.50335e-121
1.51623e-121
1.45481e-121
1.50358e-121
1.4969e-121
1.50041e-121
1.47804e-121
1.45208e-121
1.5299e-121
1.44713e-121
1.53053e-121
1.44827e-121
1.50361e-121
1.41896e-121
1.50979e-121
1.42875e-121
1.47602e-121
1.50176e-121
1.42107e-121
3.13865e-119
3.21714e-119
3.24149e-119
3.10965e-119
3.21652e-119
3.19415e-119
3.2042e-119
3.15795e-119
3.10996e-119
3.26377e-119
3.09797e-119
3.27051e-119
3.09696e-119
3.20963e-119
3.03356e-119
3.22779e-119
3.06422e-119
3.15476e-119
3.20728e-119
3.04741e-119
3.12475e-117
3.19784e-117
3.21575e-117
3.08592e-117
3.19444e-117
3.16126e-117
3.1756e-117
3.13254e-117
3.0946e-117
3.2289e-117
3.08091e-117
3.24318e-117
3.07509e-117
3.17824e-117
3.01025e-117
3.20303e-117
3.05601e-117
3.13038e-117
3.17855e-117
3.03929e-117
3.83767e-117
3.89646e-117
3.84302e-117
3.71268e-117
3.8554e-117
3.71542e-117
3.76621e-117
3.75395e-117
3.79686e-117
3.80147e-117
3.76336e-117
3.88324e-117
3.71957e-117
3.74418e-117
3.61907e-117
3.84264e-117
3.8263e-117
3.7622e-117
3.78421e-117
3.80442e-117
5.23871e-117
5.38021e-117
5.28787e-117
5.39955e-117
5.26491e-117
5.36304e-117
5.42099e-117
5.37028e-117
5.41266e-117
5.62562e-117
5.36547e-117
5.55831e-117
5.40739e-117
5.29812e-117
5.33099e-117
5.41105e-117
5.35014e-117
5.32771e-117
5.28816e-117
5.3673e-117
6.5477e-117
6.62934e-117
6.5758e-117
6.6402e-117
6.4774e-117
6.38227e-117
6.4052e-117
6.32391e-117
6.43769e-117
6.7959e-117
6.70164e-117
6.53791e-117
6.53876e-117
6.55566e-117
6.48624e-117
6.60628e-117
6.33056e-117
6.64165e-117
6.57649e-117
6.4831e-117
7.19305e-117
7.58562e-117
7.3607e-117
7.48839e-117
7.3117e-117
7.46758e-117
7.65009e-117
7.43843e-117
7.45939e-117
7.4322e-117
7.42168e-117
7.39586e-117
7.25951e-117
7.26438e-117
7.07397e-117
7.34379e-117
7.40217e-117
7.25157e-117
7.20602e-117
7.24228e-117
7.9874e-117
8.15654e-117
8.36564e-117
8.3424e-117
8.19485e-117
8.43624e-117
8.23622e-117
8.34321e-117
8.3161e-117
8.01188e-117
8.06734e-117
8.00251e-117
8.05583e-117
7.84477e-117
7.9611e-117
7.92495e-117
8.02773e-117
8.05156e-117
8.0239e-117
8.11696e-117
8.19561e-117
8.3696e-117
8.40882e-117
8.50316e-117
8.38165e-117
8.28441e-117
8.30899e-117
8.51035e-117
8.25276e-117
8.39555e-117
8.18446e-117
8.2914e-117
8.57944e-117
8.30376e-117
8.13621e-117
8.64955e-117
8.2078e-117
8.23545e-117
8.31135e-117
8.66105e-117
8.41933e-117
8.46419e-117
8.60484e-117
8.33485e-117
8.42865e-117
8.40777e-117
8.60414e-117
8.45512e-117
8.18738e-117
8.33225e-117
8.43625e-117
8.63129e-117
8.42992e-117
8.5287e-117
8.68642e-117
8.50803e-117
8.60991e-117
8.34653e-117
8.37031e-117
8.40989e-117
7.51037e-117
7.78377e-117
7.59683e-117
7.94212e-117
7.75518e-117
8.00347e-117
7.90219e-117
7.76729e-117
7.79383e-117
7.83134e-117
7.70053e-117
7.94475e-117
7.99665e-117
8.02276e-117
7.78524e-117
7.97145e-117
8.01117e-117
7.63378e-117
8.07035e-117
7.85127e-117
7.1058e-117
7.43745e-117
7.30335e-117
7.31128e-117
7.21303e-117
7.46223e-117
7.42175e-117
7.3086e-117
7.38308e-117
7.12124e-117
7.29629e-117
7.48385e-117
7.26119e-117
7.70805e-117
7.48118e-117
7.62772e-117
7.71879e-117
7.40788e-117
7.56398e-117
7.59824e-117
6.1097e-117
6.09669e-117
5.9725e-117
6.15494e-117
6.28777e-117
6.25562e-117
6.18106e-117
5.95783e-117
6.21589e-117
6.08366e-117
6.19997e-117
6.26418e-117
6.17563e-117
6.22021e-117
6.37888e-117
6.32644e-117
6.22631e-117
6.3974e-117
6.32698e-117
6.49706e-117
4.85386e-117
4.92339e-117
4.8749e-117
4.83455e-117
5.02912e-117
4.89728e-117
5.18265e-117
4.89323e-117
5.177e-117
5.09041e-117
4.99625e-117
5.18057e-117
4.90812e-117
5.15454e-117
5.02466e-117
4.9492e-117
5.14591e-117
5.19587e-117
5.03817e-117
5.32676e-117
5.48673e-137
5.66583e-137
5.71681e-137
5.50062e-137
5.66279e-137
5.68241e-137
5.68869e-137
5.6008e-137
5.45773e-137
5.80953e-137
5.4484e-137
5.78421e-137
5.46965e-137
5.70163e-137
5.35521e-137
5.69717e-137
5.35795e-137
5.58182e-137
5.68863e-137
5.33606e-137
1.74379e-133
1.79899e-133
1.8159e-133
1.74606e-133
1.79871e-133
1.80336e-133
1.8053e-133
1.77719e-133
1.73364e-133
1.84377e-133
1.73023e-133
1.83664e-133
1.73646e-133
1.80976e-133
1.70071e-133
1.80938e-133
1.70179e-133
1.77189e-133
1.80563e-133
1.6944e-133
2.90197e-130
2.99077e-130
3.01984e-130
2.90176e-130
2.99131e-130
2.99598e-130
2.99925e-130
2.9523e-130
2.88337e-130
3.06311e-130
2.8769e-130
3.05306e-130
2.88621e-130
3.00708e-130
2.82765e-130
3.0084e-130
2.83038e-130
2.94466e-130
3.00035e-130
2.81736e-130
2.78453e-127
2.86668e-127
2.89525e-127
2.78027e-127
2.86806e-127
2.86933e-127
2.87266e-127
2.82754e-127
2.76502e-127
2.93355e-127
2.75805e-127
2.92585e-127
2.76582e-127
2.88045e-127
2.71045e-127
2.88375e-127
2.71448e-127
2.82135e-127
2.87421e-127
2.70128e-127
1.86714e-124
1.92002e-124
1.93927e-124
1.86115e-124
1.92133e-124
1.91956e-124
1.92211e-124
1.89196e-124
1.85283e-124
1.96237e-124
1.84758e-124
1.95881e-124
1.85179e-124
1.92732e-124
1.81508e-124
1.93115e-124
1.81948e-124
1.88853e-124
1.92341e-124
1.81017e-124
8.79954e-122
9.03771e-122
9.12715e-122
8.75491e-122
9.04489e-122
9.02209e-122
9.03677e-122
8.89601e-122
8.72647e-122
9.2223e-122
8.69892e-122
9.21466e-122
8.71304e-122
9.06059e-122
8.54128e-122
9.08748e-122
8.57384e-122
8.88323e-122
9.04399e-122
8.5277e-122
2.81287e-119
2.88518e-119
2.91227e-119
2.79245e-119
2.88722e-119
2.87415e-119
2.88031e-119
2.83621e-119
2.78768e-119
2.93739e-119
2.77783e-119
2.9387e-119
2.77994e-119
2.88718e-119
2.72501e-119
2.89927e-119
2.74136e-119
2.8331e-119
2.88279e-119
2.726e-119
5.92592e-117
6.06948e-117
6.11987e-117
5.86741e-117
6.07138e-117
6.02827e-117
6.04635e-117
5.95683e-117
5.8693e-117
6.15924e-117
5.84595e-117
6.17249e-117
5.84364e-117
6.05787e-117
5.72659e-117
6.09283e-117
5.78035e-117
5.95233e-117
6.05179e-117
5.74742e-117
5.77711e-115
5.90764e-115
5.94372e-115
5.7011e-115
5.90358e-115
5.84051e-115
5.86691e-115
5.78565e-115
5.71926e-115
5.96479e-115
5.69315e-115
5.99247e-115
5.68146e-115
5.87241e-115
5.56362e-115
5.91946e-115
5.6465e-115
5.78294e-115
5.87168e-115
5.6147e-115
7.06298e-115
7.1692e-115
7.07265e-115
6.83263e-115
7.09432e-115
6.83919e-115
6.93416e-115
6.9093e-115
6.98857e-115
6.9949e-115
6.92665e-115
7.14524e-115
6.84486e-115
6.89256e-115
6.66052e-115
7.07232e-115
7.04177e-115
6.92316e-115
6.96273e-115
7.00249e-115
9.63075e-115
9.8916e-115
9.72416e-115
9.923e-115
9.67752e-115
9.85764e-115
9.96657e-115
9.87097e-115
9.95323e-115
1.0337e-114
9.86682e-115
1.02171e-114
9.93835e-115
9.73988e-115
9.79527e-115
9.94471e-115
9.83299e-115
9.7916e-115
9.72237e-115
9.86681e-115
1.19851e-114
1.21346e-114
1.204e-114
1.21537e-114
1.18576e-114
1.16806e-114
1.17261e-114
1.15749e-114
1.1788e-114
1.24407e-114
1.22687e-114
1.19636e-114
1.19751e-114
1.20021e-114
1.18756e-114
1.20937e-114
1.15871e-114
1.21569e-114
1.20353e-114
1.18703e-114
1.31521e-114
1.38637e-114
1.34566e-114
1.36835e-114
1.3365e-114
1.36515e-114
1.3989e-114
1.35929e-114
1.36335e-114
1.35823e-114
1.35641e-114
1.35158e-114
1.32741e-114
1.32766e-114
1.29324e-114
1.34219e-114
1.3531e-114
1.3252e-114
1.31693e-114
1.32389e-114
1.44888e-114
1.47923e-114
1.517e-114
1.51287e-114
1.48634e-114
1.53012e-114
1.49354e-114
1.51319e-114
1.50858e-114
1.45232e-114
1.463e-114
1.45119e-114
1.46113e-114
1.42277e-114
1.44359e-114
1.43719e-114
1.45572e-114
1.4605e-114
1.45526e-114
1.47231e-114
1.48537e-114
1.51654e-114
1.52403e-114
1.54093e-114
1.51856e-114
1.50153e-114
1.50604e-114
1.54255e-114
1.49552e-114
1.52139e-114
1.48348e-114
1.50255e-114
1.55467e-114
1.50498e-114
1.47466e-114
1.56782e-114
1.48776e-114
1.4925e-114
1.50641e-114
1.56936e-114
1.5081e-114
1.51516e-114
1.54091e-114
1.49275e-114
1.50984e-114
1.50618e-114
1.54115e-114
1.51452e-114
1.46661e-114
1.4922e-114
1.51051e-114
1.54617e-114
1.50983e-114
1.52807e-114
1.55519e-114
1.52426e-114
1.54171e-114
1.49529e-114
1.49926e-114
1.50631e-114
1.34815e-114
1.39636e-114
1.36329e-114
1.42537e-114
1.39163e-114
1.43617e-114
1.41783e-114
1.39411e-114
1.39847e-114
1.40497e-114
1.38168e-114
1.42547e-114
1.43417e-114
1.43992e-114
1.39689e-114
1.4306e-114
1.43701e-114
1.36944e-114
1.44753e-114
1.40907e-114
1.25854e-114
1.31762e-114
1.29379e-114
1.29526e-114
1.27758e-114
1.32252e-114
1.31501e-114
1.29531e-114
1.30799e-114
1.26193e-114
1.29322e-114
1.32629e-114
1.28622e-114
1.36617e-114
1.32512e-114
1.35121e-114
1.36747e-114
1.31231e-114
1.33995e-114
1.34632e-114
1.0892e-114
1.08677e-114
1.06474e-114
1.09693e-114
1.12086e-114
1.11504e-114
1.10162e-114
1.06199e-114
1.10815e-114
1.08406e-114
1.10536e-114
1.11629e-114
1.1007e-114
1.10906e-114
1.13669e-114
1.12788e-114
1.10945e-114
1.14013e-114
1.12747e-114
1.15813e-114
8.57134e-115
8.69453e-115
8.60849e-115
8.53773e-115
8.8808e-115
8.64983e-115
9.1495e-115
8.64355e-115
9.1402e-115
8.98977e-115
8.82514e-115
9.14884e-115
8.669e-115
9.10635e-115
8.87229e-115
8.74274e-115
9.08535e-115
9.17473e-115
8.89924e-115
9.40417e-115
1.09925e-134
1.13442e-134
1.14564e-134
1.10156e-134
1.13449e-134
1.13846e-134
1.1394e-134
1.12134e-134
1.09306e-134
1.16398e-134
1.09103e-134
1.15884e-134
1.09535e-134
1.14237e-134
1.07298e-134
1.14151e-134
1.07231e-134
1.11784e-134
1.1394e-134
1.06769e-134
3.53105e-131
3.64043e-131
3.6779e-131
3.534e-131
3.64204e-131
3.65147e-131
3.65442e-131
3.59605e-131
3.50918e-131
3.73341e-131
3.50178e-131
3.71882e-131
3.51453e-131
3.6646e-131
3.44393e-131
3.66397e-131
3.44227e-131
3.58626e-131
3.65509e-131
3.42653e-131
5.82284e-128
5.99692e-128
6.06058e-128
5.81956e-128
6.00161e-128
6.0109e-128
6.01588e-128
5.91926e-128
5.78322e-128
6.14568e-128
5.76945e-128
6.12532e-128
5.78829e-128
6.03341e-128
5.67377e-128
6.03633e-128
5.67301e-128
5.90549e-128
6.01803e-128
5.64555e-128
5.59796e-125
5.75903e-125
5.82155e-125
5.58645e-125
5.76525e-125
5.76759e-125
5.77282e-125
5.67978e-125
5.55641e-125
5.8967e-125
5.54166e-125
5.88112e-125
5.55738e-125
5.79018e-125
5.44893e-125
5.79713e-125
5.45118e-125
5.66886e-125
5.77587e-125
5.42334e-125
3.68363e-122
3.78519e-122
3.82653e-122
3.66981e-122
3.79005e-122
3.78637e-122
3.79048e-122
3.72945e-122
3.65382e-122
3.87078e-122
3.64303e-122
3.86374e-122
3.65137e-122
3.80186e-122
3.58083e-122
3.80963e-122
3.58574e-122
3.72371e-122
3.79301e-122
3.5665e-122
1.71041e-119
1.75539e-119
1.77431e-119
1.70077e-119
1.75782e-119
1.75329e-119
1.75574e-119
1.72766e-119
1.69546e-119
1.79215e-119
1.68991e-119
1.79068e-119
1.69265e-119
1.76085e-119
1.66014e-119
1.76619e-119
1.66478e-119
1.72565e-119
1.75711e-119
1.65541e-119
5.35635e-117
5.48985e-117
5.54603e-117
5.3143e-117
5.49687e-117
5.47155e-117
5.48213e-117
5.39595e-117
5.30603e-117
5.59167e-117
5.28669e-117
5.59435e-117
5.29061e-117
5.49662e-117
5.18865e-117
5.52006e-117
5.21493e-117
5.39151e-117
5.48668e-117
5.18446e-117
1.10758e-114
1.13353e-114
1.1438e-114
1.09594e-114
1.13447e-114
1.12627e-114
1.12947e-114
1.11231e-114
1.09653e-114
1.15065e-114
1.09204e-114
1.15322e-114
1.09154e-114
1.13187e-114
1.07017e-114
1.13852e-114
1.07941e-114
1.11176e-114
1.13042e-114
1.07303e-114
1.05679e-112
1.07982e-112
1.08696e-112
1.04211e-112
1.07948e-112
1.06763e-112
1.07245e-112
1.05727e-112
1.04582e-112
1.09021e-112
1.0409e-112
1.09551e-112
1.03859e-112
1.07356e-112
1.01742e-112
1.08238e-112
1.03226e-112
1.05701e-112
1.07319e-112
1.02628e-112
1.28561e-112
1.30458e-112
1.28733e-112
1.24363e-112
1.29108e-112
1.2451e-112
1.26267e-112
1.25771e-112
1.2722e-112
1.27296e-112
1.26089e-112
1.30029e-112
1.24579e-112
1.2549e-112
1.21235e-112
1.28734e-112
1.2817e-112
1.25999e-112
1.26703e-112
1.27474e-112
1.75171e-112
1.79927e-112
1.76926e-112
1.80421e-112
1.75997e-112
1.79265e-112
1.81292e-112
1.79508e-112
1.81086e-112
1.87919e-112
1.79519e-112
1.85809e-112
1.80718e-112
1.77153e-112
1.78068e-112
1.80827e-112
1.78801e-112
1.78045e-112
1.7685e-112
1.79458e-112
2.17108e-112
2.19818e-112
2.18167e-112
2.20148e-112
2.1482e-112
2.1156e-112
2.1245e-112
2.09668e-112
2.13617e-112
2.25381e-112
2.22276e-112
2.16654e-112
2.17045e-112
2.1746e-112
2.1518e-112
2.19102e-112
2.0989e-112
2.20215e-112
2.17972e-112
2.15092e-112
2.38197e-112
2.50971e-112
2.43674e-112
2.47661e-112
2.41982e-112
2.47192e-112
2.53377e-112
2.46037e-112
2.46814e-112
2.45861e-112
2.45549e-112
2.44656e-112
2.40419e-112
2.40349e-112
2.34185e-112
2.42979e-112
2.44994e-112
2.39882e-112
2.38391e-112
2.39713e-112
2.60621e-112
2.66017e-112
2.72783e-112
2.72058e-112
2.67328e-112
2.75198e-112
2.68568e-112
2.72146e-112
2.7137e-112
2.61058e-112
2.63094e-112
2.60961e-112
2.62796e-112
2.55884e-112
2.59577e-112
2.58454e-112
2.61769e-112
2.62708e-112
2.61724e-112
2.64822e-112
2.67267e-112
2.7282e-112
2.74226e-112
2.77229e-112
2.73151e-112
2.70186e-112
2.71011e-112
2.77576e-112
2.69056e-112
2.73709e-112
2.66953e-112
2.70328e-112
2.79686e-112
2.70797e-112
2.65351e-112
2.82129e-112
2.6773e-112
2.68533e-112
2.71072e-112
2.82307e-112
2.68815e-112
2.69899e-112
2.74586e-112
2.66037e-112
2.69138e-112
2.685e-112
2.74694e-112
2.69955e-112
2.61427e-112
2.65922e-112
2.69133e-112
2.75617e-112
2.69092e-112
2.72443e-112
2.77074e-112
2.71741e-112
2.7471e-112
2.66577e-112
2.67229e-112
2.68478e-112
2.411e-112
2.49563e-112
2.43737e-112
2.54855e-112
2.48789e-112
2.56746e-112
2.53437e-112
2.49288e-112
2.49992e-112
2.51115e-112
2.46984e-112
2.54805e-112
2.56249e-112
2.57467e-112
2.49702e-112
2.55782e-112
2.56797e-112
2.44747e-112
2.58662e-112
2.51938e-112
2.22766e-112
2.33282e-112
2.29048e-112
2.29325e-112
2.26145e-112
2.34243e-112
2.3285e-112
2.29427e-112
2.31576e-112
2.23486e-112
2.29068e-112
2.34896e-112
2.27698e-112
2.41983e-112
2.34564e-112
2.39207e-112
2.42105e-112
2.3233e-112
2.3722e-112
2.384e-112
1.94153e-112
1.93701e-112
1.89798e-112
1.95473e-112
1.99782e-112
1.98729e-112
1.96313e-112
1.89282e-112
1.97538e-112
1.93148e-112
1.97045e-112
1.98903e-112
1.96158e-112
1.97722e-112
2.02528e-112
2.0106e-112
1.97668e-112
2.03169e-112
2.00891e-112
2.06418e-112
1.52131e-112
1.54324e-112
1.5279e-112
1.51544e-112
1.57622e-112
1.53557e-112
1.62346e-112
1.53461e-112
1.62193e-112
1.5957e-112
1.56675e-112
1.62389e-112
1.53897e-112
1.61696e-112
1.57459e-112
1.55226e-112
1.61222e-112
1.62828e-112
1.57992e-112
1.66869e-112
2.30359e-132
2.3757e-132
2.40131e-132
2.30731e-132
2.37726e-132
2.38551e-132
2.38686e-132
2.34808e-132
2.2897e-132
2.43905e-132
2.28512e-132
2.4282e-132
2.29422e-132
2.39379e-132
2.2485e-132
2.39211e-132
2.24463e-132
2.34132e-132
2.38682e-132
2.23443e-132
7.33944e-129
7.56153e-129
7.64612e-129
7.3418e-129
7.56942e-129
7.58872e-129
7.59286e-129
7.46852e-129
7.29096e-129
7.75912e-129
7.27454e-129
7.72865e-129
7.3012e-129
7.61626e-129
7.1582e-129
7.61541e-129
7.14695e-129
7.45012e-129
7.59418e-129
7.1125e-129
1.1844e-125
1.21894e-125
1.23298e-125
1.18311e-125
1.22063e-125
1.22247e-125
1.22317e-125
1.20302e-125
1.17584e-125
1.24989e-125
1.17289e-125
1.24573e-125
1.17674e-125
1.2271e-125
1.15406e-125
1.22777e-125
1.15265e-125
1.20055e-125
1.2236e-125
1.14678e-125
1.12111e-122
1.15252e-122
1.16608e-122
1.11819e-122
1.15447e-122
1.15488e-122
1.15563e-122
1.13653e-122
1.1123e-122
1.18073e-122
1.10921e-122
1.1776e-122
1.11237e-122
1.15946e-122
1.09124e-122
1.16091e-122
1.0905e-122
1.13466e-122
1.15624e-122
1.08465e-122
7.22617e-120
7.41979e-120
7.50759e-120
7.19499e-120
7.43387e-120
7.4263e-120
7.43249e-120
7.30966e-120
7.16446e-120
7.5917e-120
7.14247e-120
7.57789e-120
7.15893e-120
7.45699e-120
7.02433e-120
7.47267e-120
7.02637e-120
7.30052e-120
7.43743e-120
6.98686e-120
3.29914e-117
3.38329e-117
3.42281e-117
3.27863e-117
3.39004e-117
3.38112e-117
3.38502e-117
3.32943e-117
3.26879e-117
3.45593e-117
3.25775e-117
3.45313e-117
3.26305e-117
3.39585e-117
3.20205e-117
3.40634e-117
3.20764e-117
3.32653e-117
3.38763e-117
3.18876e-117
1.01178e-114
1.03618e-114
1.04768e-114
1.00322e-114
1.03811e-114
1.03325e-114
1.03502e-114
1.01832e-114
1.0018e-114
1.05588e-114
9.98052e-115
1.05641e-114
9.98777e-115
1.03803e-114
9.80031e-115
1.04253e-114
9.84043e-115
1.01777e-114
1.03586e-114
9.78049e-115
2.05083e-112
2.0972e-112
2.11784e-112
2.02796e-112
2.10007e-112
2.08464e-112
2.09021e-112
2.05762e-112
2.02944e-112
2.12959e-112
2.02094e-112
2.13448e-112
2.0199e-112
2.09511e-112
1.9813e-112
2.10762e-112
1.99683e-112
2.05716e-112
2.09186e-112
1.98457e-112
1.91412e-110
1.95426e-110
1.96817e-110
1.88612e-110
1.95438e-110
1.93237e-110
1.94107e-110
1.91301e-110
1.89352e-110
1.97297e-110
1.88439e-110
1.98299e-110
1.8799e-110
1.94327e-110
1.84223e-110
1.95963e-110
1.86854e-110
1.91298e-110
1.94218e-110
1.85741e-110
2.31618e-110
2.34968e-110
2.31918e-110
2.24048e-110
2.32557e-110
2.24363e-110
2.27576e-110
2.26604e-110
2.29229e-110
2.29294e-110
2.27181e-110
2.3421e-110
2.24424e-110
2.26142e-110
2.18423e-110
2.31932e-110
2.30903e-110
2.26973e-110
2.28212e-110
2.29683e-110
3.15486e-110
3.24065e-110
3.18746e-110
3.24817e-110
3.16927e-110
3.22796e-110
3.2653e-110
3.23231e-110
3.26226e-110
3.38259e-110
3.23411e-110
3.34591e-110
3.25385e-110
3.19045e-110
3.20527e-110
3.25571e-110
3.21931e-110
3.20566e-110
3.18529e-110
3.23191e-110
3.8952e-110
3.94383e-110
3.91537e-110
3.94946e-110
3.85456e-110
3.79508e-110
3.81229e-110
3.76157e-110
3.83405e-110
4.04397e-110
3.9885e-110
3.8859e-110
3.89624e-110
3.90231e-110
3.86165e-110
3.93147e-110
3.76557e-110
3.95088e-110
3.90987e-110
3.86019e-110
4.27583e-110
4.50302e-110
4.37345e-110
4.44274e-110
4.34252e-110
4.43635e-110
4.54866e-110
4.41393e-110
4.42859e-110
4.41102e-110
4.40582e-110
4.38945e-110
4.31592e-110
4.31259e-110
4.20321e-110
4.35979e-110
4.39662e-110
4.30382e-110
4.2772e-110