/*--------------------------------*- C++ -*----------------------------------*\
| =========                 |                                                 |
| \\      /  F ield         | OpenFOAM: The Open Source CFD Toolbox           |
|  \\    /   O peration     | Version:  2212                                  |
|   \\  /    A nd           | Website:  www.openfoam.com                      |
|    \\/     M anipulation  |                                                 |
\*---------------------------------------------------------------------------*/
FoamFile
{
    version     2.0;
    format      ascii;
    arch        "LSB;label=32;scalar=64";
    class       volVectorField;
    location    "0.0199";
    object      U;
}
// * * * * * * * * * * * * * * * * * * * * * * * * * * * * * * * * * * * * * //

dimensions      [0 1 -1 0 0 0 0];

internalField   nonuniform List<vector> 
2308
(
(-4.70718 9.74213 -1.01502e-15)
(0.0134014 0.886519 0)
(-1.4381 15.7159 7.20938e-17)
(0.0482265 6.81012 -3.56938e-16)
(1.24142 13.4464 0)
(1.9847 11.9261 -9.46997e-19)
(0.19996 11.8946 6.51588e-20)
(0.0110486 12.4884 -4.94547e-16)
(0.674486 13.5898 8.98819e-16)
(-2.04668 6.75109 -1.19068e-16)
(-1.84217 6.15616 2.12171e-16)
(-1.28509 5.30074 -3.11351e-16)
(-0.962867 5.01243 1.54414e-16)
(-0.602576 5.02922 -7.81428e-17)
(-0.285965 5.39555 1.33262e-17)
(-0.0402516 6.05082 1.10709e-16)
(0.169816 6.85808 1.48153e-17)
(0.127324 7.83133 3.42361e-17)
(-0.113219 7.0346 4.61338e-17)
(-0.329923 6.25954 3.41225e-18)
(-0.633358 5.681 2.59964e-17)
(-1.01339 5.40072 -7.59987e-17)
(-1.42962 5.45221 9.75103e-17)
(-1.83271 5.82462 -4.5045e-17)
(-2.09366 6.28848 -1.9325e-16)
(-2.25786 6.7753 -9.19533e-17)
(-2.23621 7.1554 4.69707e-17)
(-1.66236 6.96464 -5.17315e-17)
(0.671593 11.8521 0)
(0.350373 7.70738 -3.16233e-16)
(-1.19426 6.64615 2.75292e-18)
(-0.647827 6.19923 7.04887e-19)
(-0.162346 5.84273 -1.20547e-17)
(0.144408 5.71866 1.13933e-17)
(0.204049 5.88663 -1.20772e-17)
(0.0294812 6.29214 1.14159e-17)
(-0.294775 6.80658 -5.68576e-18)
(-0.674183 7.31919 5.70408e-18)
(-1.00794 7.7257 -5.6815e-18)
(-1.15153 7.89334 2.84129e-18)
(-0.961847 7.69081 5.67587e-18)
(-0.366633 7.01948 8.54819e-18)
(0.709974 5.86828 -1.71401e-17)
(2.01091 4.58168 1.14328e-17)
(3.04023 3.99986 5.71299e-18)
(2.23975 5.01028 -5.71903e-18)
(0.801938 6.01443 5.74202e-18)
(-0.48495 7.11722 -8.54492e-18)
(-1.2924 7.78303 -9.24328e-18)
(-1.61688 7.97768 1.42311e-17)
(-1.53332 7.79001 -2.8503e-18)
(-1.16259 7.36979 5.72172e-18)
(-0.672863 6.86433 1.45066e-18)
(-0.199343 6.38794 -8.55705e-18)
(0.151168 6.01784 -2.86609e-18)
(0.295304 5.83996 5.70931e-18)
(0.173525 5.93142 0)
(-0.172281 6.26562 -7.10764e-19)
(-0.667307 6.73873 -2.33966e-17)
(-1.22649 7.17385 -8.05327e-17)
(-1.70605 7.36036 9.50523e-17)
(-1.62211 7.27819 9.84039e-17)
(-1.63918 6.77524 1.12633e-16)
(-1.32033 6.06875 3.55617e-20)
(-1.06616 5.38196 1.26432e-16)
(-0.766255 4.8686 -2.34049e-16)
(-0.480445 4.65098 -5.37381e-17)
(-0.211222 4.75704 0)
(0.0210363 5.22662 0)
(0.202209 5.95441 0)
(0.381399 6.80404 0)
(3.1819 4.67389 -2.86973e-18)
(3.18622 4.7695 2.86903e-18)
(-0.339341 7.3222 -1.5907e-16)
(-0.650616 6.56379 -3.2133e-18)
(-1.00416 6.04671 1.25885e-17)
(-1.42544 5.82283 0)
(-1.87572 5.89416 -2.41302e-17)
(-2.28117 6.19682 -2.3607e-17)
(-2.54824 6.50975 1.18419e-17)
(-2.55887 6.74267 4.74277e-17)
(-2.3061 6.7811 0)
(-1.83606 6.46924 -7.62796e-20)
(-1.21642 6.04029 8.797e-20)
(-0.620715 5.63732 -1.13908e-17)
(-0.158001 5.44197 1.7077e-17)
(0.110262 5.54846 -2.56801e-20)
(0.140904 5.95434 -9.99467e-18)
(-0.00401924 6.53304 0)
(-0.241748 7.12385 -1.42477e-18)
(-0.484246 7.60739 8.53746e-18)
(-0.634855 7.86312 -1.13765e-17)
(-0.56004 7.74518 -3.57448e-21)
(-0.169242 7.16411 1.13838e-17)
(0.585265 6.0484 0)
(1.64808 4.64731 1.14024e-17)
(2.58022 3.58526 1.1697e-20)
(2.94135 3.77847 -5.7094e-18)
(0.255285 8.63641 -1.3564e-16)
(2.23108 5.53444 -5.73084e-18)
(0.500446 8.51692 1.38319e-16)
(0.549923 7.70299 6.97561e-20)
(2.08844 5.74421 -5.73931e-18)
(0.705102 6.49087 7.21079e-18)
(-0.656611 7.41392 0)
(-1.56008 8.04798 -2.1374e-18)
(-1.97326 8.19822 5.01221e-18)
(-1.94574 7.94351 5.73496e-18)
(-1.58416 7.42415 -5.72414e-18)
(-1.04418 6.83692 0)
(-0.471899 6.3131 -1.4308e-18)
(0.013775 5.94477 2.86724e-18)
(0.317443 5.77995 4.19517e-21)
(0.375641 5.86534 -2.87116e-18)
(0.177115 6.20169 0)
(-0.202851 6.70558 4.31271e-18)
(-0.676788 7.23695 -1.7162e-17)
(-1.08844 7.60347 -1.14523e-17)
(-1.31638 7.66586 4.6616e-17)
(-1.34135 7.29042 1.73098e-16)
(-1.16763 6.62078 1.3068e-17)
(-0.900572 5.79924 1.24214e-16)
(-0.613615 5.05146 -5.61171e-17)
(-0.341547 4.53562 0)
(-0.102246 4.36864 0)
(0.0904058 4.58318 0)
(0.229796 5.15391 1.86033e-16)
(0.370471 5.93081 -2.16123e-16)
(0.520391 6.79891 2.20301e-16)
(-0.703068 12.2475 -3.95938e-16)
(1.99895 11.4438 0)
(1.67456 10.9348 0)
(1.88177 11.3209 0)
(-0.420234 8.65607 3.17117e-16)
(-0.618779 7.74729 8.97075e-17)
(-0.96335 6.94905 8.21576e-21)
(-1.36764 6.46254 -1.52367e-18)
(-1.8081 6.26512 1.51645e-18)
(-2.25254 6.31762 1.20246e-17)
(-2.62032 6.50253 -2.3725e-17)
(-2.79953 6.62967 1.03264e-20)
(-2.71128 6.58738 0)
(-2.37308 6.32976 5.24442e-17)
(-1.83363 5.87594 3.44046e-17)
(-1.19143 5.40302 -5.71903e-18)
(-0.604511 5.09064 5.70094e-18)
(-0.163746 5.07218 0)
(0.0773969 5.39779 0)
(0.118988 5.99733 -7.14964e-19)
(0.0459513 6.68511 0)
(-0.0667148 7.3008 4.28355e-18)
(-0.156115 7.72423 -2.9653e-21)
(-0.136811 7.80682 -2.85448e-18)
(0.0868025 7.41499 0)
(0.556773 6.50694 -2.85259e-18)
(1.28761 5.13702 4.28432e-18)
(2.07108 3.80139 -7.13968e-18)
(2.4774 3.23957 0)
(2.16162 4.35544 -1.13898e-17)
(0.774541 7.19053 2.84209e-18)
(-1.51687 11.9067 -4.10901e-20)
(0.505696 9.24199 0)
(2.30068 7.20412 -1.43678e-18)
(3.27849 6.09446 -4.64773e-18)
(0.301437 12.693 4.31106e-16)
(3.03714 6.03638 3.59493e-19)
(-1.46562 11.4528 -1.24405e-15)
(-2.43983 10.0879 -2.86627e-16)
(0.702536 8.58749 0)
(-1.12719 12.6934 4.12711e-16)
(0.987577 13.0066 -8.62522e-16)
(0.571935 9.59393 5.66062e-17)
(0.693369 7.70111 -3.33111e-16)
(-4.55021 16.5642 -2.89258e-18)
(-2.38126 13.5851 -2.84927e-18)
(0.0657955 10.8011 -3.60972e-19)
(2.02344 8.69835 5.75914e-18)
(2.88415 7.56202 3.58817e-19)
(2.26852 7.49365 0)
(1.5106 6.90887 2.87986e-18)
(0.200178 7.17614 5.76086e-18)
(-1.04156 7.8603 -1.48206e-18)
(-1.90327 8.37061 -5.77198e-18)
(-2.27349 8.49457 -6.47102e-18)
(-2.22495 8.1957 8.63972e-18)
(-1.84945 7.59132 2.8884e-18)
(-1.29246 6.8696 -5.77111e-18)
(-0.682407 6.22085 4.32433e-18)
(-0.124346 5.76606 -1.25845e-18)
(0.285995 5.56622 0)
(0.484847 5.64137 0)
(0.428005 5.98402 0)
(0.163251 6.52861 5.78903e-18)
(-0.2289 7.1429 -2.90174e-18)
(-0.629354 7.65764 1.4548e-20)
(-0.915475 7.89446 -2.33627e-17)
(-1.02922 7.73866 0)
(-0.932235 7.19715 -2.46099e-17)
(-0.705577 6.39802 2.54189e-17)
(-0.429347 5.52228 5.23604e-17)
(-0.182061 4.7659 2.67067e-17)
(0.012612 4.28895 1.065e-16)
(0.155954 4.19326 -1.05449e-16)
(0.258014 4.51409 0)
(0.327058 5.14746 2.61856e-17)
(0.442242 5.93918 -5.25887e-17)
(0.576981 6.80623 -1.06623e-16)
(0.00615334 10.6052 5.11839e-17)
(-4.61007 14.8352 0)
(1.64794 13.1222 5.06478e-19)
(-0.604768 11.9708 5.47594e-16)
(-0.456641 11.9846 -1.17116e-16)
(-0.309055 11.8419 1.33012e-16)
(-0.283182 11.4166 -2.53349e-17)
(-0.382968 10.7174 4.94817e-17)
(-0.549376 9.84594 -2.42488e-17)
(-0.746126 8.88866 0)
(-0.995481 8.00573 -2.34481e-17)
(-1.32851 7.29716 -2.37864e-17)
(-1.71765 6.86088 0)
(-2.13859 6.68632 0)
(-2.54479 6.69283 1.48957e-18)
(-2.84226 6.72923 -1.33332e-17)
(-2.93227 6.63778 0)
(-2.7574 6.3312 0)
(-2.34694 5.83279 -1.7459e-17)
(-1.76584 5.24818 -1.15711e-17)
(-1.13208 4.7702 2.30344e-17)
(-0.57335 4.56765 5.75168e-18)
(-0.162231 4.7294 1.43689e-18)
(0.0596431 5.2458 5.73236e-18)
(0.139606 5.97981 -6.47424e-18)
(0.15736 6.7217 0)
(0.160144 7.3311 -2.86989e-18)
(0.19197 7.68258 0)
(0.313371 7.61655 0)
(0.584908 7.03497 0)
(1.02143 5.92687 -1.14705e-17)
(1.57812 4.48913 0)
(2.00124 3.42776 -6.43673e-18)
(1.91174 3.51799 1.0719e-18)
(1.08326 5.55331 2.25214e-17)
(-0.692665 9.36203 0)
(-3.13422 14.7364 -1.13946e-17)
(-5.71416 19.174 1.78196e-19)
(-5.54181 11.9352 0)
(-1.41051 12.0182 6.76451e-16)
(1.1151 9.99525 1.08728e-15)
(-0.744139 5.28125 0)
(-1.92307 6.61903 -3.28243e-16)
(-2.20616 10.6617 1.41718e-15)
(0.899476 8.58226 -3.33088e-19)
(0.350136 10.4889 1.07522e-16)
(0.331827 8.31707 -3.61682e-19)
(-0.727642 8.14895 -2.91183e-18)
(-1.79415 8.38914 2.88943e-18)
(-2.47202 8.67655 0)
(-2.69189 8.70542 0)
(-2.49999 8.40402 3.61919e-19)
(-2.01922 7.79167 -1.44571e-18)
(-1.39217 7.0067 -5.05824e-18)
(-0.746374 6.2347 3.59956e-19)
(-0.168239 5.63226 -7.46076e-19)
(0.284398 5.3129 -8.88628e-19)
(0.558378 5.3163 3.98614e-18)
(0.612494 5.63011 3.65769e-19)
(0.451351 6.19609 -2.90526e-18)
(0.142157 6.88542 0)
(-0.225949 7.53422 1.16422e-17)
(-0.529583 7.95775 1.31568e-21)
(-0.686753 8.0265 5.89265e-17)
(-0.669993 7.67894 -4.77622e-17)
(-0.490963 6.99468 0)
(-0.238258 6.12861 5.00511e-17)
(-0.00400162 5.25402 -1.53344e-16)
(0.166699 4.55592 7.77059e-17)
(0.255915 4.153 1.03371e-16)
(0.289524 4.13346 -9.42148e-21)
(0.288376 4.52388 -1.02669e-16)
(0.320716 5.16911 1.02694e-16)
(0.40859 5.94848 1.03347e-16)
(0.557686 6.78704 -1.03026e-16)
(0.753019 7.68614 -2.11869e-16)
(-0.886397 13.4482 8.48195e-19)
(-2.89622 8.33449 -2.34581e-19)
(-0.951552 11.5758 -9.67996e-17)
(-0.760738 11.7615 -1.2806e-17)
(-0.677715 11.7402 -3.78876e-17)
(-0.673628 11.4247 -1.23664e-17)
(-0.756009 10.8173 0)
(-0.897867 9.99778 2.40506e-17)
(-1.08822 9.10458 -1.18876e-17)
(-1.33898 8.27331 -1.18356e-17)
(-1.65716 7.62823 5.94844e-18)
(-2.01853 7.23369 5.96314e-18)
(-2.39704 7.06268 1.19152e-17)
(-2.7328 6.99542 0)
(-2.93709 6.86421 1.1815e-17)
(-2.92924 6.54418 -1.15837e-17)
(-2.68121 5.99771 -1.83432e-19)
(-2.22876 5.30046 -3.50696e-17)
(-1.64358 4.61965 2.90861e-18)
(-1.04473 4.16548 -1.44701e-17)
(-0.530598 4.0803 0)
(-0.159409 4.40817 -4.679e-18)
(0.0538189 5.07607 3.70529e-19)
(0.184378 5.88866 6.49e-18)
(0.284431 6.65708 0)
(0.372425 7.26183 0)
(0.469087 7.57105 -1.7969e-19)
(0.611256 7.40716 -5.56235e-18)
(0.848019 6.69174 5.75423e-18)
(1.18726 5.48755 7.19641e-18)
(1.524 4.1446 -1.4333e-18)
(1.61087 3.47437 4.31132e-18)
(1.1778 4.23801 -1.42178e-18)
(0.0758494 7.09211 -1.14812e-17)
(-1.74702 11.6199 1.14661e-17)
(-3.84651 17.1642 2.58315e-17)
(-5.51565 20.8343 1.14527e-17)
(-5.72231 22.209 0)
(-7.16995 22.2656 -5.89424e-18)
(-6.95226 20.9428 -2.62399e-20)
(-5.23039 18.5376 6.48093e-18)
(-2.63851 15.6218 2.17995e-18)
(0.0192543 12.7977 -2.85876e-18)
(1.87496 10.6367 5.78061e-18)
(2.30181 9.4957 -5.75209e-18)
(1.06113 9.46545 -2.88842e-18)
(0.0911441 10.9784 -4.04034e-16)
(-3.78703 14.2083 -9.30778e-17)
(-3.07396 2.30672 -1.62545e-16)
(-2.26319 11.2546 -6.87908e-16)
(-4.70445 10.7999 -3.40702e-16)
(3.06404 7.98335 9.76268e-17)
(0.761028 7.61073 0)
(0.939008 8.54091 4.23766e-16)
(-1.83112 13.2763 1.00303e-15)
(-2.53939 12.0561 4.11087e-16)
(-4.46798 13.494 -4.12796e-16)
(1.38765 12.7271 8.83553e-16)
(-1.50285 11.1451 0)
(-1.22566 11.4896 1.25873e-17)
(-1.08126 11.6214 -3.10003e-18)
(-1.04559 11.411 -5.79704e-17)
(-1.0941 10.8964 1.20667e-17)
(-1.21709 10.1365 0)
(-1.3965 9.30043 -5.58495e-21)
(-1.63756 8.52718 -2.96427e-18)
(-1.93411 7.9312 0)
(-2.25519 7.55956 -5.92906e-18)
(-2.57375 7.3651 -5.92491e-18)
(-2.82133 7.19843 0)
(-2.9252 6.89647 1.47346e-18)
(-2.82468 6.35776 -1.48205e-18)
(-2.5167 5.60032 1.46993e-18)
(-2.0424 4.74894 2.19503e-17)
(-1.48083 4.01202 0)
(-0.936884 3.6041 2.90774e-18)
(-0.481282 3.63572 -1.45081e-18)
(-0.155714 4.10543 3.62548e-19)
(0.0626723 4.87266 1.08587e-18)
(0.241068 5.7252 -6.52368e-18)
(0.401915 6.51225 0)
(0.537084 7.13009 1.44646e-18)
(0.649365 7.43068 2.88541e-18)
(0.768443 7.21823 2.88593e-18)
(0.93375 6.4348 -2.15702e-21)
(1.13716 5.22738 -1.44428e-18)
(1.26059 4.06129 -4.32061e-18)
(1.11328 3.79782 -2.87571e-18)
(0.529915 5.15596 -2.86008e-18)
(-0.565042 8.62215 0)
(-2.02279 13.4898 -1.15371e-17)
(-3.3443 18.7203 -1.15144e-17)
(-3.79084 21.2857 -8.55936e-18)
(-2.81099 20.948 -1.57371e-17)
(-0.253107 15.1231 7.11107e-18)
(-4.09388 17.8936 -5.75973e-18)
(-6.84914 19.7351 0)
(-8.24875 20.3834 2.86931e-18)
(-7.92049 19.9486 2.90637e-18)
(-5.9795 18.5198 -5.72862e-18)
(-3.15658 16.3641 5.77369e-18)
(-0.469451 14.0512 2.17708e-21)
(1.10464 12.2063 -2.87729e-18)
(0.863848 11.2925 8.66672e-18)
(-0.88031 11.2139 -8.7378e-18)
(-1.23368 10.0533 1.47341e-18)
(-2.06599 9.31738 -1.09132e-18)
(-2.85048 9.1128 2.1727e-18)
(-3.33114 9.00248 -7.24662e-18)
(-3.34324 8.81079 2.72466e-18)
(-2.95113 8.42857 0)
(-2.27681 7.83766 3.6401e-19)
(-1.48154 7.08491 5.08959e-18)
(-0.715381 6.29947 -7.25186e-19)
(-0.0803466 5.61468 1.8157e-18)
(0.387867 5.15365 9.07343e-22)
(0.679674 5.0113 7.31888e-19)
(0.784702 5.22062 -3.63844e-19)
(0.698539 5.73702 2.54777e-18)
(0.464581 6.45903 -8.74022e-18)
(0.150297 7.21949 3.45479e-21)
(-0.14893 7.82538 5.84549e-18)
(-0.33352 8.11913 -5.86637e-18)
(-0.365429 8.01492 -4.73151e-17)
(-0.241561 7.50779 4.76957e-17)
(-0.0268269 6.73295 0)
(0.189644 5.87579 -9.85657e-17)
(0.335104 5.05758 7.45634e-17)
(0.3928 4.44717 -7.57018e-17)
(0.361225 4.1295 0)
(0.282973 4.17545 0)
(0.195484 4.57971 0)
(0.200045 5.19833 -1.2562e-17)
(0.277949 5.93737 5.74305e-21)
(0.439621 6.72647 2.00483e-16)
(-0.732325 14.2017 -4.5084e-16)
(1.01444 8.40922 2.12438e-16)
(1.09242 9.42799 -1.99512e-16)
(0.148685 11.3715 2.53747e-17)
(-2.66862 12.7801 4.82242e-16)
(-3.44015 11.1997 4.11231e-16)
(-3.17551 10.3459 -4.41595e-19)
(-2.98338 9.71848 -4.2854e-16)
(-3.07007 6.80508 -2.98525e-16)
(-1.87038 10.6204 -2.97009e-16)
(-2.20303 9.98521 1.07173e-16)
(-1.86571 10.5998 -2.49102e-17)
(-1.61644 11.165 -4.91064e-17)
(-1.43467 11.4521 0)
(-1.36224 11.3555 4.82983e-17)
(-1.37715 10.9289 0)
(-1.47558 10.2498 0)
(-1.63948 9.47047 1.18761e-17)
(-1.86464 8.75028 2.96283e-18)
(-2.13364 8.18751 0)
(-2.41001 7.81597 5.91551e-18)
(-2.66031 7.57116 -1.01504e-20)
(-2.81937 7.28859 -2.69422e-21)
(-2.82694 6.81344 5.89339e-18)
(-2.64653 6.07966 6.61715e-18)
(-2.29755 5.15188 -6.61559e-18)
(-1.82177 4.19126 -1.20842e-17)
(-1.30403 3.43597 3.65406e-19)
(-0.82452 3.08867 -2.18882e-18)
(-0.433016 3.22842 7.31509e-19)
(-0.149135 3.80235 2.91278e-18)
(0.0818329 4.62148 -2.18696e-18)
(0.297139 5.49297 2.91052e-18)
(0.495121 6.30766 -4.59373e-21)
(0.643076 6.96544 -7.25947e-18)
(0.737093 7.2913 2.90602e-18)
(0.806671 7.06906 2.89477e-18)
(0.882999 6.27031 -4.33856e-18)
(0.953965 5.1165 5.78238e-18)
(0.925242 4.13869 5.79391e-18)
(0.677478 4.21079 0)
(0.158871 5.98426 1.73151e-17)
(-0.609115 9.75439 2.89906e-18)
(-1.3088 14.5335 2.89531e-18)
(-1.51683 19.0763 0)
(-0.625803 20.4837 0)
(1.23353 18.7944 8.52574e-18)
(4.14801 11.9589 8.14417e-20)
(7.24904 3.62779 -1.37415e-18)
(3.51073 7.35789 1.4567e-18)
(-0.840627 11.5495 0)
(-4.55153 15.3994 0)
(-6.94627 18.3553 -1.42552e-18)
(-7.80244 20.365 4.30059e-18)
(-7.15446 21.2138 0)
(-5.2377 20.5079 -2.90374e-18)
(-2.74426 18.5021 -2.90426e-18)
(-0.625828 16.1736 5.78013e-18)
(-0.0242912 14.3517 -2.90394e-18)
(-0.996012 13.4086 8.71059e-18)
(-2.88255 13.3153 1.42416e-18)
(-3.25578 11.6466 1.45917e-18)
(-3.6844 10.7729 2.92976e-18)
(-4.15959 10.033 0)
(-4.36946 9.49569 -1.09502e-18)
(-4.20448 8.93105 -2.73741e-19)
(-3.63608 8.31393 1.64082e-18)
(-2.77018 7.63413 -3.63714e-19)
(-1.76372 6.91129 -7.25723e-19)
(-0.790173 6.19473 -5.82123e-18)
(0.00372657 5.56314 1.45872e-18)
(0.562456 5.08204 -3.64131e-18)
(0.886837 4.82344 1.81818e-18)
(1.00446 4.87341 -7.28889e-19)
(0.948913 5.25861 0)
(0.761539 5.91687 0)
(0.497257 6.7149 0)
(0.225643 7.47541 -2.92022e-18)
(0.0339302 7.98616 0)
(-0.0237509 8.13785 -3.44225e-21)
(0.0492276 7.87485 2.36114e-17)
(0.221711 7.26713 -1.19031e-17)
(0.406605 6.4869 2.40201e-17)
(0.532043 5.68953 7.31091e-17)
(0.560277 4.96012 7.64416e-21)
(0.481401 4.45215 -2.4726e-17)
(0.32276 4.20478 -4.93604e-17)
(0.140865 4.28565 9.80614e-17)
(0.0030278 4.65436 -4.92503e-17)
(-0.0205584 5.20546 -1.31601e-22)
(0.0576077 5.88669 2.45156e-17)
(0.237157 6.61341 8.15913e-20)
(0.6669 7.50141 -3.05036e-16)
(-1.70912 14.0987 -4.63828e-16)
(-0.512747 14.947 8.74841e-16)
(3.61028 4.75624 0)
(0.959796 8.24882 -2.08397e-16)
(-3.22409 8.32655 7.683e-16)
(-3.53049 8.43277 -4.09555e-16)
(-3.80699 9.20869 -7.84549e-16)
(1.57271 10.1615 -6.68079e-17)
(0.0834169 12.2031 -6.36664e-17)
(0.629039 11.299 -2.5362e-17)
(1.33743 9.18481 4.10869e-19)
(-3.54079 12.1481 -4.72157e-16)
(-4.08781 10.3349 3.93319e-16)
(10.2575 -9.28488 -1.41783e-18)
(7.85271 -6.89243 -1.41585e-18)
(3.64646 -1.91246 0)
(-0.464244 4.19517 -1.42915e-18)
(-3.991 9.61609 1.45139e-18)
(-6.51941 14.1424 -1.41213e-18)
(-7.76798 17.9171 1.43324e-18)
(-7.57024 20.1038 2.88472e-18)
(-5.83134 20.0853 -2.87942e-18)
(-3.51949 18.5225 5.78133e-18)
(-2.03332 16.2186 -8.65351e-18)
(-1.9032 14.3138 0)
(-2.89603 13.5915 -8.77457e-21)
(-4.66092 14.6122 0)
(-5.31127 14.0151 -8.76743e-18)
(-5.78944 12.2321 2.91733e-18)
(-5.84106 11.1495 0)
(-5.65939 10.1083 0)
(-5.20018 9.19065 7.31604e-19)
(-4.46006 8.24932 -9.13748e-20)
(-3.46873 7.32386 0)
(-2.32229 6.48449 -3.66729e-19)
(-1.16719 5.77234 3.65778e-19)
(-0.152556 5.22649 1.459e-18)
(0.603234 4.8554 7.29668e-19)
(1.06636 4.64014 1.46008e-18)
(1.25794 4.61927 2.08954e-21)
(1.23371 4.85787 -2.92162e-18)
(1.06718 5.37047 7.29346e-19)
(0.831895 6.09974 2.92556e-18)
(0.594116 6.90305 7.3239e-19)
(0.414538 7.59028 -1.46004e-18)
(0.348496 7.97777 2.93046e-18)
(0.399343 7.99859 -8.81338e-18)
(0.529641 7.65332 -1.17962e-17)
(0.680638 7.02828 5.92019e-18)
(0.778426 6.29698 -1.19401e-17)
(0.777236 5.59091 0)
(0.660057 4.97469 -3.64074e-17)
(0.441319 4.55798 7.3597e-17)
(0.166904 4.35743 0)
(-0.0987051 4.41996 0)
(-0.264834 4.70966 0)
(-0.310754 5.17013 1.81092e-17)
(-0.224225 5.76816 -2.27192e-20)
(-0.0226521 6.42469 -1.94658e-19)
(0.50187 7.32853 -1.96662e-16)
(1.9484 13.5338 -4.63401e-16)
(-2.65087 13.826 -3.00694e-19)
(0.202892 5.90565 3.83343e-16)
(-1.20249 6.56604 0)
(-2.24092 9.97048 -2.34209e-17)
(-1.92827 10.7735 0)
(-1.70326 11.2177 0)
(-1.59012 11.2492 1.19826e-17)
(-1.58003 10.9135 -2.38484e-17)
(-1.65066 10.3152 0)
(-1.79534 9.59623 1.18939e-17)
(-2.00036 8.92373 0)
(-2.24075 8.3785 -2.95985e-18)
(-2.47462 7.98516 2.95116e-18)
(-2.66291 7.66729 -1.47701e-17)
(-2.74374 7.25506 6.46229e-21)
(-2.67229 6.61201 -5.8901e-18)
(-2.43388 5.71227 1.17819e-17)
(-2.06357 4.65354 8.81517e-18)
(-1.60443 3.62762 -8.8125e-18)
(-1.13847 2.88359 0)
(-0.720402 2.60247 -3.00376e-21)
(-0.387964 2.83459 -4.39096e-18)
(-0.128049 3.47007 0)
(0.123161 4.30755 0)
(0.370146 5.19141 1.45991e-18)
(0.580317 6.04867 4.37612e-18)
(0.718449 6.77287 -2.91097e-18)
(0.774521 7.15092 2.90885e-18)
(0.782397 6.95398 -5.79645e-18)
(0.769569 6.17057 -1.45241e-18)
(0.73507 5.07816 -1.16302e-17)
(0.631377 4.24128 5.79389e-18)
(0.438282 4.49885 0)
(0.214938 6.42303 -1.15881e-17)
(0.101307 10.0972 -5.7812e-18)
(0.454935 14.4064 0)
(1.52054 18.0884 5.8141e-18)
(3.51667 18.6597 -5.46927e-20)
(5.78428 16.3507 8.52042e-18)
(8.08027 9.59508 8.61186e-18)
(9.27403 2.03744 0)
(9.60445 -8.91682 -2.88673e-18)
(-0.221424 15.6393 -4.30738e-16)
(-1.55 14.9505 -8.86679e-16)
(-2.89143 12.8388 1.33982e-16)
(1.67543 9.83547 -1.85246e-16)
(-4.38422 11.792 7.99778e-16)
(1.26504 8.98786 -1.70028e-19)
(-7.28178 16.8736 1.45929e-18)
(-8.17663 14.7898 7.30119e-18)
(-8.28609 12.3489 -5.85069e-18)
(-7.63092 10.7505 0)
(-6.66318 9.38686 0)
(-5.53299 8.20146 0)
(-4.31864 7.05199 0)
(-3.06432 6.00191 1.46435e-18)
(-1.81841 5.14597 -7.31088e-19)
(-0.659856 4.54894 3.66872e-19)
(0.299473 4.23142 -2.19568e-18)
(0.989122 4.15277 1.46213e-18)
(1.37176 4.23716 7.31362e-19)
(1.47976 4.46803 -1.09722e-18)
(1.37992 4.87248 0)
(1.17509 5.46516 -5.41232e-22)
(0.958586 6.19352 -7.3185e-19)
(0.797174 6.93033 7.33242e-19)
(0.733637 7.5138 1.46484e-18)
(0.771308 7.80184 -1.64834e-18)
(0.879501 7.74809 1.65281e-18)
(1.00663 7.38131 -4.41505e-18)
(1.09019 6.80535 -8.85868e-18)
(1.06116 6.17347 5.93168e-18)
(0.911049 5.58115 0)
(0.644495 5.07453 2.17988e-21)
(0.295873 4.72548 -3.63496e-17)
(-0.0722508 4.5389 3.02014e-17)
(-0.386452 4.53477 -6.04895e-18)
(-0.575243 4.71631 0)
(-0.629407 5.06647 -5.96966e-18)
(-0.534897 5.56368 8.25164e-17)
(-0.307755 6.15574 -4.57373e-17)
(0.244339 7.08396 1.85768e-16)
(2.12284 12.8894 9.48297e-16)
(-3.45874 13.4256 -4.71575e-19)
(7.69836 0.58323 -7.13614e-19)
(9.95756 0.435275 4.25327e-18)
(10.4653 1.74208 6.95324e-19)
(9.19366 3.04977 0)
(6.04111 4.6936 -1.42491e-18)
(1.69042 6.91297 1.45871e-18)
(-2.23358 11.0258 -2.14634e-18)
(-5.11711 16.5214 -5.02153e-18)
(-6.85268 21.2529 5.75631e-18)
(-7.11222 23.5782 0)
(-6.09021 23.303 -2.89248e-18)
(-4.5807 21.2 8.68134e-18)
(-3.29438 18.8302 -5.75553e-18)
(-2.41874 17.3712 -2.89629e-18)
(-2.413 18.067 4.33011e-18)
(-3.75756 21.1661 -5.83651e-18)
(2.20653 13.974 8.9737e-16)
(-4.51424 9.17494 -3.65527e-16)
(-4.15993 7.83659 3.72167e-16)
(-3.79634 6.98903 7.45277e-16)
(-3.41992 6.671 3.53588e-16)
(1.60466 12.2561 -3.97834e-19)
(2.10473 12.2742 2.71878e-16)
(-0.332378 -0.212809 0)
(-0.139935 5.92837 0)
(-2.27843 9.39411 0)
(-2.02672 10.3392 5.93521e-18)
(-1.83482 10.9122 -1.19598e-17)
(-1.71529 11.062 -1.96219e-20)
(-1.6851 10.8173 3.57569e-17)
(-1.72675 10.304 -2.38319e-17)
(-1.8514 9.65093 -7.57313e-21)
(-2.03547 9.02124 1.18491e-17)
(-2.25008 8.48014 -2.07032e-17)
(-2.44897 8.04705 2.96936e-18)
(-2.58952 7.63852 1.18146e-17)
(-2.61462 7.08903 -2.95286e-18)
(-2.49268 6.2891 2.94867e-18)
(-2.22692 5.25154 -8.83376e-18)
(-1.85311 4.09476 2.94383e-18)
(-1.42252 3.03639 8.81044e-18)
(-1.00495 2.32173 -5.86994e-18)
(-0.637755 2.10674 5.86865e-18)
(-0.347427 2.40593 2.19898e-18)
(-0.081068 3.06156 5.11792e-18)
(0.187551 3.89328 -6.60244e-18)
(0.456843 4.80341 4.37965e-18)
(0.670297 5.72659 -8.05785e-18)
(0.792064 6.5382 -5.83838e-18)
(0.807927 6.99522 5.84316e-18)
(0.746892 6.8441 2.91035e-18)
(0.646375 6.08709 -2.90936e-18)
(0.539545 5.02642 0)
(0.449217 4.22032 -5.81328e-18)
(0.463379 4.43463 2.89508e-18)
(0.749944 6.14934 -5.78705e-18)
(1.53427 9.34319 -8.71426e-18)
(3.0843 12.9576 -5.7856e-18)
(5.32141 15.9007 -1.15283e-17)
(7.99349 16.2724 2.90429e-18)
(10.1006 14.4603 -2.86628e-18)
(11.2506 8.99049 -5.75834e-18)
(10.3926 3.24864 0)
(8.64519 -6.37755 0)
(3.7239 4.24433 0)
(-3.00483 13.7502 0)
(0.822502 8.05324 -6.25408e-19)
(1.7497 10.7704 1.00002e-15)
(0.203525 16.1783 4.28326e-16)
(-2.59559 14.8345 4.39791e-16)
(-1.28543 15.7795 8.66553e-16)
(1.85097 12.6783 -4.64049e-16)
(-3.47684 13.1279 -1.14705e-16)
(-5.35407 10.3434 0)
(1.78688 11.616 -5.28455e-16)
(1.53993 9.78987 -2.15143e-16)
(0.053396 6.682 -8.21515e-17)
(1.37782 11.712 -1.38374e-15)
(-0.85493 12.296 4.22413e-16)
(1.01016 6.19667 3.77333e-16)
(-4.51916 13.6198 -6.19089e-17)
(-7.92549 23.8472 -2.9091e-18)
(-11.3347 18.198 -7.29673e-19)
(-11.5905 14.5571 -2.20109e-18)
(-10.762 11.3719 1.80232e-21)
(-9.17716 9.28578 0)
(-7.38351 7.72518 0)
(-5.63073 6.5064 0)
(-4.04428 5.40883 -3.66358e-19)
(-2.6444 4.44159 -4.58357e-19)
(-1.40672 3.69876 4.56561e-19)
(-0.327092 3.27422 -3.65484e-19)
(0.53736 3.19817 9.14553e-19)
(1.14734 3.40838 -1.09853e-18)
(1.47774 3.78533 0)
(1.56068 4.24802 0)
(1.46613 4.79434 0)
(1.30306 5.41911 0)
(1.16204 6.09963 0)
(1.10064 6.74693 0)
(1.13401 7.23243 -3.6622e-19)
(1.24032 7.45144 1.46574e-18)
(1.36475 7.3808 0)
(1.44188 7.06034 -3.67633e-18)
(1.40974 6.59208 6.62763e-18)
(1.23812 6.09067 5.9095e-18)
(0.936941 5.61816 0)
(0.535279 5.20382 1.79397e-17)
(0.0874573 4.88672 -1.8004e-17)
(-0.34044 4.67218 -5.97433e-18)
(-0.680096 4.5702 1.19936e-17)
(-0.885696 4.62697 -1.79339e-17)
(-0.942309 4.841 8.89145e-18)
(-0.858936 5.20585 -2.34078e-17)
(-0.680242 5.6814 5.75352e-18)
(-0.521398 6.34403 1.7792e-16)
(2.4116 13.5101 5.04088e-16)
(-4.49953 7.65161 6.7895e-16)
(-4.83417 10.0187 3.2995e-16)
(4.19225 -6.27375 0)
(7.59292 -14.4756 1.44799e-20)
(10.4722 -18.4705 -1.47532e-18)
(7.66209 -17.8515 -7.3573e-19)
(3.28972 -18.3032 -1.79434e-19)
(0.289052 -15.8785 1.79691e-19)
(-1.14568 -10.3619 0)
(-2.04586 -2.37172 0)
(-3.96292 7.17769 2.15697e-18)
(-6.53354 15.2426 -5.7181e-18)
(-8.15315 19.781 7.18827e-18)
(-7.90708 20.6208 0)
(-6.26084 18.1534 -5.75956e-18)
(-4.13635 14.4773 5.74642e-18)
(-2.62887 12.0998 1.43939e-18)
(-1.86838 13.5857 1.44728e-18)
(-1.55094 20.2018 0)
(-3.55377 26.5225 0)
(0.435512 12.3682 0)
(-4.4187 7.66083 3.51213e-16)
(-4.076 6.14857 0)
(-3.68734 5.21903 -7.33666e-16)
(-3.29611 4.91911 3.69333e-16)
(-3.03923 5.03294 6.69483e-16)
(-1.80116 5.76605 -1.03494e-16)
(-4.18493 15.2499 4.10771e-16)
(-2.47466 7.64225 1.24632e-17)
(-2.24935 8.85156 -9.67463e-17)
(-2.03629 9.87941 4.2121e-17)
(-1.85242 10.5315 -4.79788e-17)
(-1.72868 10.7739 -2.09413e-17)
(-1.6836 10.6174 2.97912e-17)
(-1.70494 10.1855 5.96496e-18)
(-1.80699 9.59698 -2.97034e-17)
(-1.97431 9.00189 1.77827e-17)
(-2.1693 8.45548 0)
(-2.34544 7.97105 -1.47707e-17)
(-2.45697 7.46368 8.86989e-18)
(-2.45297 6.77585 1.47619e-17)
(-2.31137 5.83293 2.94979e-18)
(-2.04711 4.67628 -1.17928e-17)
(-1.6885 3.44599 -5.89176e-18)
(-1.2931 2.37246 0)
(-0.908946 1.69171 0)
(-0.580273 1.53927 -1.46882e-18)
(-0.300793 1.87187 -7.34148e-19)
(-0.0235322 2.52693 7.3293e-18)
(0.271218 3.35933 1.44456e-18)
(0.559153 4.29495 -5.14521e-18)
(0.777743 5.29785 9.46304e-23)
(0.879174 6.22078 0)
(0.855398 6.78158 0)
(0.731289 6.70049 -5.84572e-18)
(0.558265 5.96268 8.75714e-18)
(0.419645 4.86141 -2.91895e-18)
(0.423422 3.91577 -1.13667e-21)
(0.75493 3.80489 2.90706e-18)
(1.67524 4.95539 2.90777e-18)
(3.38846 7.37537 1.74151e-17)
(5.97713 10.2366 0)
(9.01909 12.8388 8.66139e-18)
(11.9143 13.7061 -8.6826e-18)
(13.6117 13.2036 5.82187e-18)
(13.9155 9.58328 -5.72384e-18)
(11.7544 5.48829 5.73151e-18)
(8.96858 -1.63507 0)
(0.747171 7.30486 0)
(4.12725 3.62204 -2.83334e-18)
(2.62781 14.2201 8.78787e-16)
(0.621574 7.82266 -1.89525e-16)
(-5.10659 12.2101 -3.47906e-16)
(2.56112 15.3965 8.52255e-16)
(1.7073 15.9754 6.61316e-19)
(0.686995 16.5081 8.54363e-16)
(1.17732 8.78693 2.07927e-16)
(-3.52265 14.5525 -9.29239e-16)
(-0.891526 16.4883 0)
(-2.36019 15.8105 0)
(-4.00937 10.6389 -6.78434e-17)
(2.69751 11.1776 -4.21379e-16)
(-2.10029 12.4907 2.87163e-17)
(1.33226 10.2433 -8.35216e-16)
(-0.379541 5.90946 -9.52152e-17)
(2.51841 12.8385 -5.59699e-16)
(-1.91562 12.9816 0)
(-2.21207 14.072 -5.96866e-17)
(-0.661563 5.53136 0)
(-0.955514 5.11433 2.97179e-18)
(-1.13834 4.71542 5.91555e-18)
(-1.20616 4.46009 2.2205e-18)
(-1.14245 4.37798 3.71857e-19)
(-0.936829 4.45325 0)
(-0.589385 4.66218 7.44625e-18)
(-0.141772 4.94018 -7.45327e-18)
(0.367608 5.26238 2.96248e-18)
(0.868847 5.61648 -5.90433e-18)
(1.29735 5.98113 1.47368e-18)
(1.61189 6.34117 0)
(1.77564 6.66617 2.93942e-18)
(1.78877 6.87739 -1.46869e-18)
(1.69781 6.90459 1.46469e-18)
(1.5635 6.70799 -2.56695e-18)
(1.45135 6.29404 2.9811e-18)
(1.40884 5.73526 -1.8945e-21)
(1.44169 5.11363 -1.55946e-18)
(1.50819 4.47886 7.33194e-19)
(1.53105 3.83055 -8.24938e-19)
(1.41883 3.17056 0)
(1.10762 2.5485 3.66531e-19)
(0.57724 2.08514 -1.8319e-19)
(-0.169736 1.92665 -7.3266e-19)
(-1.13399 2.13889 6.35628e-19)
(-2.31101 2.66108 9.1482e-20)
(-3.78326 3.3526 -3.66331e-19)
(-5.63497 4.1407 0)
(-7.8974 5.10565 0)
(-10.4824 6.56861 -1.46286e-18)
(-13.1599 8.86097 8.03992e-18)
(-15.3608 12.5345 -1.46356e-18)
(-16.3725 17.3317 0)
(-13.9617 24.2171 5.83183e-18)
(-8.59004 29.6122 -9.58533e-21)
(-3.16936 14.8221 3.18466e-16)
(-13.9869 33.1859 2.87634e-18)
(-11.4695 33.1993 0)
(-3.96808 30.2631 -7.28623e-19)
(4.0721 34.8519 7.42988e-19)
(5.81989 37.0501 1.77676e-18)
(5.29797 32.8236 -1.42357e-18)
(7.6691 24.3725 3.36137e-19)
(7.15128 15.3869 6.80345e-19)
(4.37206 10.9041 5.02208e-18)
(0.0103046 12.1345 -7.2374e-18)
(-5.10602 18.2562 -5.71233e-18)
(-8.9975 23.5413 5.78533e-18)
(-10.477 25.8455 -7.17382e-19)
(-9.08142 24.7473 1.43553e-18)
(-5.51108 22.1162 -5.76146e-18)
(-0.927444 19.735 -1.44057e-18)
(3.2555 19.7491 5.77759e-18)
(6.33649 24.2848 0)
(7.34597 31.3936 2.88388e-18)
(5.22177 37.1706 -1.45026e-18)
(2.83157 13.5911 4.60816e-16)
(0.363434 7.56095 -1.66089e-16)
(3.20586 14.7605 -4.23244e-16)
(-4.30826 12.0988 0)
(-3.3851 11.8764 0)
(-2.5038 11.7067 -1.10298e-16)
(-1.47584 11.909 -2.76054e-17)
(-0.341929 12.4655 -3.44362e-17)
(-0.874736 13.4777 -8.47236e-17)
(-1.32996 14.533 1.17754e-16)
(-1.73333 15.4702 6.4187e-17)
(-0.0590643 5.27356 0)
(-3.95516 15.5265 -6.30625e-17)
(3.15294 9.8415 1.06197e-18)
(0.807105 5.17044 3.75645e-16)
(1.87219 8.50045 -3.59887e-16)
(3.05719 15.0799 -4.2716e-16)
(2.19791 15.7939 0)
(1.15883 16.4881 0)
(1.56935 9.54174 4.35547e-16)
(3.1046 14.2554 8.5872e-16)
(-4.84372 12.7075 -8.44246e-17)
(-4.06985 5.6046 3.51577e-16)
(-3.63044 4.11212 -3.63818e-16)
(-3.23101 3.21583 0)
(-2.90676 2.82084 -7.72252e-16)
(-2.6216 2.79574 3.88335e-16)
(-2.522 4.73403 -5.23373e-16)
(-1.03561 0.534897 -3.19929e-16)
(-2.17605 5.62903 1.01268e-16)
(-2.14559 6.99683 -1.12721e-16)
(-2.04545 8.2897 4.95022e-17)
(-1.89017 9.35073 -4.87455e-17)
(-1.73814 10.0485 0)
(-1.62502 10.3537 -3.00121e-18)
(-1.57705 10.2648 -4.48414e-18)
(-1.59088 9.90559 1.79021e-17)
(-1.68184 9.37194 5.96379e-18)
(-1.83435 8.80583 -2.96741e-17)
(-2.0134 8.24961 1.18498e-17)
(-2.1778 7.71027 1.47813e-17)
(-2.27997 7.10234 -1.18255e-17)
(-2.27458 6.28304 7.38315e-18)
(-2.14329 5.21071 -7.38004e-18)
(-1.90141 3.9469 -2.95533e-18)
(-1.57128 2.65394 8.83818e-18)
(-1.20874 1.56867 1.47389e-18)
(-0.839769 0.921952 5.88208e-18)
(-0.547023 0.81456 -5.8888e-18)
(-0.269882 1.16607 0)
(0.036228 1.80468 -1.47011e-18)
(0.373854 2.62292 -7.34513e-19)
(0.687248 3.60675 -7.3298e-18)
(0.903822 4.71584 6.61941e-18)
(0.985213 5.77189 -7.33401e-19)
(0.923056 6.45737 5.86174e-18)
(0.740833 6.45836 -1.09877e-17)
(0.517115 5.71694 5.8479e-18)
(0.386187 4.48159 2.92659e-18)
(0.533254 3.20832 1.46239e-18)
(1.2155 2.49699 -2.91255e-18)
(2.73575 2.81666 8.73942e-18)
(5.20693 4.35232 -8.70233e-18)
(8.38282 6.64035 -2.92847e-18)
(11.7075 9.35009 -8.71552e-18)
(14.5046 11.1676 1.15936e-17)
(15.9292 12.2116 -8.65065e-18)
(16.0731 10.4766 5.81915e-18)
(13.9304 7.81219 -1.15674e-17)
(10.725 3.15337 0)
(2.79357 7.74097 5.7041e-18)