/*--------------------------------*- C++ -*----------------------------------*\
| =========                 |                                                 |
| \\      /  F ield         | OpenFOAM: The Open Source CFD Toolbox           |
|  \\    /   O peration     | Version:  2212                                  |
|   \\  /    A nd           | Website:  www.openfoam.com                      |
|    \\/     M anipulation  |                                                 |
\*---------------------------------------------------------------------------*/
FoamFile
{
    version     2.0;
    format      ascii;
    arch        "LSB;label=32;scalar=64";
    class       volScalarField;
    location    "0.417";
    object      k_0;
}
// * * * * * * * * * * * * * * * * * * * * * * * * * * * * * * * * * * * * * //

dimensions      [0 2 -2 0 0 0 0];

internalField   nonuniform List<scalar> 
24240
(
1.16021e-06
1.85568e-05
2.67169e-05
2.67046e-05
2.67097e-05
2.67157e-05
2.67224e-05
2.67296e-05
2.67371e-05
2.67447e-05
2.67523e-05
2.67595e-05
2.67663e-05
2.67726e-05
2.67783e-05
2.67833e-05
2.67873e-05
2.68065e-05
1.86305e-05
1.1619e-06
4.62236e-08
7.44745e-07
1.38709e-07
1.45721e-07
1.3964e-07
1.39655e-07
1.39673e-07
1.39692e-07
1.39712e-07
1.39732e-07
1.39752e-07
1.39771e-07
1.39789e-07
1.39805e-07
1.3982e-07
1.39833e-07
1.45937e-07
1.38942e-07
7.46557e-07
4.62571e-08
3.95444e-10
7.06702e-08
6.81656e-10
7.47899e-09
5.80244e-09
5.80228e-09
5.80222e-09
5.80215e-09
5.80207e-09
5.802e-09
5.80192e-09
5.80184e-09
5.80176e-09
5.80168e-09
5.8016e-09
5.80161e-09
7.47737e-09
6.82316e-10
7.08312e-08
3.96087e-10
2.57511e-12
1.38728e-09
4.83938e-12
1.07156e-07
1.0801e-07
1.08007e-07
1.08005e-07
1.08002e-07
1.07999e-07
1.07996e-07
1.07993e-07
1.0799e-07
1.07988e-07
1.07985e-07
1.07983e-07
1.07982e-07
1.07125e-07
4.69625e-12
1.39044e-09
2.58321e-12
1.7123e-14
6.0217e-12
1.17077e-12
1.16356e-07
1.17461e-07
1.17458e-07
1.17455e-07
1.17451e-07
1.17447e-07
1.17443e-07
1.17439e-07
1.17436e-07
1.17432e-07
1.17429e-07
1.17427e-07
1.17425e-07
1.16317e-07
1.26162e-12
6.03389e-12
1.72007e-14
1.09509e-15
2.09979e-14
5.58094e-13
5.67916e-08
5.7337e-08
5.73334e-08
5.73294e-08
5.7325e-08
5.73205e-08
5.73159e-08
5.73113e-08
5.73069e-08
5.73028e-08
5.72991e-08
5.72959e-08
5.72934e-08
5.67437e-08
5.03487e-13
2.10379e-14
1.09571e-15
1.00057e-15
1.06982e-15
5.33834e-13
5.82082e-08
5.88225e-08
5.88187e-08
5.88143e-08
5.88096e-08
5.88047e-08
5.87997e-08
5.87947e-08
5.879e-08
5.87854e-08
5.87813e-08
5.87776e-08
5.87746e-08
5.81552e-08
5.45669e-13
1.07004e-15
1.00057e-15
1e-15
1.00128e-15
2.22365e-13
2.60098e-08
2.62823e-08
2.62796e-08
2.62766e-08
2.62733e-08
2.62699e-08
2.62664e-08
2.62629e-08
2.62595e-08
2.62563e-08
2.62533e-08
2.62506e-08
2.62483e-08
2.59719e-08
2.12473e-13
1.00122e-15
1e-15
1e-15
1.00087e-15
1.92869e-13
2.31935e-08
2.34363e-08
2.34339e-08
2.34312e-08
2.34282e-08
2.34251e-08
2.3422e-08
2.34189e-08
2.34158e-08
2.34129e-08
2.34102e-08
2.34077e-08
2.34054e-08
2.3159e-08
1.84406e-13
1.00082e-15
1e-15
1e-15
1.00065e-15
1.54097e-13
2.10968e-08
2.13128e-08
2.13103e-08
2.13075e-08
2.13045e-08
2.13013e-08
2.1298e-08
2.12947e-08
2.12915e-08
2.12885e-08
2.12856e-08
2.12829e-08
2.12805e-08
2.10607e-08
1.61738e-13
1.00068e-15
1e-15
1e-15
1.00053e-15
1.31249e-13
1.65689e-08
1.67308e-08
1.67282e-08
1.67252e-08
1.6722e-08
1.67187e-08
1.67153e-08
1.67119e-08
1.67087e-08
1.67055e-08
1.67026e-08
1.67e-08
1.66977e-08
1.6532e-08
1.14106e-13
1.00044e-15
1e-15
1e-15
1.00139e-15
3.11302e-13
3.99744e-08
4.03625e-08
4.03591e-08
4.03552e-08
4.0351e-08
4.03465e-08
4.0342e-08
4.03375e-08
4.03332e-08
4.0329e-08
4.03252e-08
4.03217e-08
4.03187e-08
3.99256e-08
3.41467e-13
1.00153e-15
1e-15
1e-15
1.0014e-15
3.10723e-13
3.42495e-08
3.45508e-08
3.45474e-08
3.45435e-08
3.45394e-08
3.4535e-08
3.45306e-08
3.45263e-08
3.45222e-08
3.45183e-08
3.45148e-08
3.45118e-08
3.45092e-08
3.42033e-08
2.54335e-13
1.00109e-15
1e-15
1e-15
1.00471e-15
9.71277e-13
1.07064e-07
1.07921e-07
1.07915e-07
1.07909e-07
1.07902e-07
1.07895e-07
1.07888e-07
1.07882e-07
1.07875e-07
1.07869e-07
1.07864e-07
1.0786e-07
1.07856e-07
1.06993e-07
1.10084e-12
1.00543e-15
1e-15
1e-15
1.00609e-15
1.20379e-12
1.05364e-07
1.06086e-07
1.0608e-07
1.06073e-07
1.06066e-07
1.06059e-07
1.06052e-07
1.06045e-07
1.06038e-07
1.06032e-07
1.06027e-07
1.06023e-07
1.0602e-07
1.05292e-07
9.47381e-13
1.00453e-15
1e-15
1e-15
1.01593e-15
3.04509e-12
2.97906e-07
3.0012e-07
3.00118e-07
3.00116e-07
3.00115e-07
3.00113e-07
3.00112e-07
3.00111e-07
3.0011e-07
3.0011e-07
3.00111e-07
3.00111e-07
3.00112e-07
2.97899e-07
3.45761e-12
1.01846e-15
1e-15
1.00501e-15
1.11694e-15
4.44801e-12
3.19459e-07
3.21478e-07
3.21492e-07
3.21491e-07
3.21491e-07
3.2149e-07
3.2149e-07
3.2148e-07
3.21491e-07
3.21492e-07
3.21494e-07
3.21497e-07
3.21485e-07
3.19468e-07
3.75513e-12
1.11196e-15
1.00502e-15
3.08502e-13
1.35652e-12
1.77298e-08
4.34667e-08
4.18548e-08
3.8284e-08
3.82831e-08
3.82822e-08
3.82812e-08
3.82802e-08
4.08925e-08
3.82757e-08
3.82745e-08
3.82735e-08
3.82725e-08
4.18369e-08
4.34498e-08
1.77194e-08
1.36354e-12
3.08957e-13
1.02898e-09
1.45387e-08
1.37856e-07
1.64507e-07
1.47061e-07
1.46632e-07
1.46629e-07
1.46626e-07
1.46622e-07
1.46618e-07
1.46864e-07
1.46611e-07
1.46607e-07
1.46603e-07
1.466e-07
1.47021e-07
1.64452e-07
1.37803e-07
1.4521e-08
1.03027e-09
6.33435e-05
0.000186234
0.000237944
0.000238075
0.000238094
0.000238119
0.000238148
0.000238179
0.000238211
0.000238244
0.000238277
0.000238309
0.00023834
0.000238368
0.000238394
0.000238417
0.000238439
0.000238339
0.000186561
6.34994e-05
3.64656e-07
1.52642e-05
2.51898e-05
2.51884e-05
2.5197e-05
2.52068e-05
2.52179e-05
2.523e-05
2.52426e-05
2.52555e-05
2.52682e-05
2.52806e-05
2.52923e-05
2.53031e-05
2.5313e-05
2.53217e-05
2.53287e-05
2.53426e-05
1.53773e-05
3.64942e-07
2.06494e-08
2.84624e-07
1.28099e-07
1.35051e-07
1.28142e-07
1.28171e-07
1.28203e-07
1.28239e-07
1.28276e-07
1.28314e-07
1.28352e-07
1.28389e-07
1.28425e-07
1.28458e-07
1.28489e-07
1.28516e-07
1.35474e-07
1.28555e-07
2.85565e-07
2.05399e-08
4.47405e-10
3.43183e-08
7.70753e-10
7.23873e-09
5.31669e-09
5.31668e-09
5.31684e-09
5.31703e-09
5.31723e-09
5.31745e-09
5.31768e-09
5.31792e-09
5.31815e-09
5.31838e-09
5.31859e-09
5.31894e-09
7.24148e-09
7.71781e-10
3.4396e-08
4.47348e-10
3.57057e-12
2.06681e-09
6.24041e-12
1.7545e-07
1.76925e-07
1.76921e-07
1.76916e-07
1.76911e-07
1.76905e-07
1.76899e-07
1.76894e-07
1.76888e-07
1.76883e-07
1.76878e-07
1.76873e-07
1.76869e-07
1.75389e-07
6.06646e-12
2.07152e-09
3.57652e-12
2.4156e-14
9.39452e-12
1.52338e-12
1.88743e-07
1.90587e-07
1.90583e-07
1.90578e-07
1.90573e-07
1.90567e-07
1.90561e-07
1.90555e-07
1.90549e-07
1.90543e-07
1.90538e-07
1.90533e-07
1.90529e-07
1.88679e-07
1.65407e-12
9.41392e-12
2.42395e-14
1.13627e-15
3.1135e-14
8.21887e-13
1.079e-07
1.08942e-07
1.08936e-07
1.08928e-07
1.08921e-07
1.08912e-07
1.08904e-07
1.08895e-07
1.08887e-07
1.08879e-07
1.08872e-07
1.08865e-07
1.0886e-07
1.07809e-07
7.55525e-13
3.1196e-14
1.13701e-15
1.00078e-15
1.0924e-15
7.94773e-13
1.10238e-07
1.11363e-07
1.11355e-07
1.11347e-07
1.11337e-07
1.11327e-07
1.11317e-07
1.11307e-07
1.11297e-07
1.11287e-07
1.11278e-07
1.11271e-07
1.11264e-07
1.10128e-07
8.2507e-13
1.0927e-15
1.00078e-15
1e-15
1.00167e-15
3.84085e-13
5.62829e-08
5.68524e-08
5.68457e-08
5.68382e-08
5.68301e-08
5.68215e-08
5.68128e-08
5.68041e-08
5.67955e-08
5.67874e-08
5.67798e-08
5.6773e-08
5.67669e-08
5.61876e-08
3.7928e-13
1.00162e-15
1e-15
1e-15
1.00137e-15
3.53127e-13
5.15292e-08
5.20427e-08
5.20367e-08
5.20299e-08
5.20226e-08
5.20149e-08
5.2007e-08
5.19991e-08
5.19914e-08
5.19841e-08
5.19772e-08
5.19708e-08
5.1965e-08
5.14422e-08
3.45677e-13
1.00133e-15
1e-15
1e-15
1.00118e-15
3.21644e-13
5.04726e-08
5.09681e-08
5.09624e-08
5.0956e-08
5.09489e-08
5.09415e-08
5.09338e-08
5.09262e-08
5.09186e-08
5.09114e-08
5.09044e-08
5.0898e-08
5.08922e-08
5.03875e-08
3.47118e-13
1.00129e-15
1e-15
1e-15
1.00109e-15
2.94817e-13
4.28404e-08
4.32472e-08
4.32409e-08
4.32338e-08
4.32261e-08
4.32179e-08
4.32096e-08
4.32013e-08
4.31932e-08
4.31854e-08
4.31782e-08
4.31716e-08
4.31658e-08
4.27494e-08
2.59212e-13
1.00094e-15
1e-15
1e-15
1.00243e-15
6.26835e-13
9.25539e-08
9.34357e-08
9.34281e-08
9.34195e-08
9.34102e-08
9.34004e-08
9.33904e-08
9.33804e-08
9.33707e-08
9.33613e-08
9.33526e-08
9.33447e-08
9.33376e-08
9.24445e-08
7.17782e-13
1.00285e-15
1e-15
1e-15
1.00268e-15
6.76212e-13
8.46032e-08
8.53392e-08
8.53311e-08
8.5322e-08
8.53122e-08
8.53018e-08
8.52914e-08
8.5281e-08
8.5271e-08
8.52617e-08
8.52531e-08
8.52455e-08
8.5239e-08
8.44917e-08
5.59411e-13
1.00216e-15
1e-15
1e-15
1.00683e-15
1.60594e-12
2.14805e-07
2.16687e-07
2.16678e-07
2.16669e-07
2.16659e-07
2.16648e-07
2.16637e-07
2.16626e-07
2.16615e-07
2.16606e-07
2.16596e-07
2.16588e-07
2.1658e-07
2.14686e-07
1.90616e-12
1.00842e-15
1e-15
1e-15
1.00851e-15
1.93805e-12
2.1231e-07
2.14053e-07
2.14044e-07
2.14034e-07
2.14023e-07
2.14011e-07
2.14e-07
2.13988e-07
2.13977e-07
2.13967e-07
2.13958e-07
2.13949e-07
2.13942e-07
2.12186e-07
1.58897e-12
1.00675e-15
1e-15
1e-15
1.01844e-15
4.02029e-12
4.50218e-07
4.53851e-07
4.53854e-07
4.53857e-07
4.5386e-07
4.53863e-07
4.53866e-07
4.53871e-07
4.53875e-07
4.5388e-07
4.53885e-07
4.53889e-07
4.53892e-07
4.50265e-07
4.75877e-12
1.02273e-15
1e-15
1.00189e-15
1.11776e-15
5.22073e-12
4.69836e-07
4.73315e-07
4.73344e-07
4.73347e-07
4.73349e-07
4.73352e-07
4.73355e-07
4.73339e-07
4.73362e-07
4.73366e-07
4.7337e-07
4.73374e-07
4.73349e-07
4.69872e-07
4.42705e-12
1.11266e-15
1.0019e-15
1.58719e-13
1.17093e-12
1.52905e-08
3.63334e-08
3.52373e-08
3.23099e-08
3.23105e-08
3.23113e-08
3.23121e-08
3.23131e-08
3.43333e-08
3.23126e-08
3.23136e-08
3.23148e-08
3.23159e-08
3.52435e-08
3.63482e-08
1.52827e-08
1.18785e-12
1.59423e-13
5.60322e-10
1.46669e-08
1.0224e-07
1.20994e-07
1.0774e-07
1.07634e-07
1.07639e-07
1.07645e-07
1.07651e-07
1.07659e-07
1.07692e-07
1.07674e-07
1.07683e-07
1.07691e-07
1.077e-07
1.07819e-07
1.21094e-07
1.02332e-07
1.46561e-08
5.62064e-10
4.75095e-05
0.000197515
0.000256421
0.00025655
0.000256582
0.00025662
0.000256664
0.000256713
0.000256765
0.000256818
0.000256871
0.000256924
0.000256975
0.000257023
0.000257068
0.00025711
0.000257146
0.00025707
0.000198062
4.77339e-05
3.21387e-07
1.33842e-05
2.25936e-05
2.2578e-05
2.25867e-05
2.25967e-05
2.26083e-05
2.26207e-05
2.26338e-05
2.26472e-05
2.26605e-05
2.26734e-05
2.26857e-05
2.26972e-05
2.27076e-05
2.27169e-05
2.27246e-05
2.27532e-05
1.34941e-05
3.21609e-07
7.11351e-09
1.24426e-08
1.18234e-07
1.27538e-07
1.18778e-07
1.18805e-07
1.18835e-07
1.18869e-07
1.18904e-07
1.1894e-07
1.18977e-07
1.19013e-07
1.19047e-07
1.1908e-07
1.1911e-07
1.19137e-07
1.27941e-07
1.18678e-07
1.22613e-08
7.05604e-09
4.4468e-10
3.01999e-09
7.82871e-10
8.05273e-09
5.98721e-09
5.98707e-09
5.9871e-09
5.98712e-09
5.98716e-09
5.98719e-09
5.98723e-09
5.98727e-09
5.98731e-09
5.98734e-09
5.98736e-09
5.98754e-09
8.05291e-09
7.84046e-10
3.02738e-09
4.43684e-10
3.90557e-12
1.27432e-09
6.78647e-12
2.04819e-07
2.06572e-07
2.06568e-07
2.06563e-07
2.06557e-07
2.0655e-07
2.06544e-07
2.06537e-07
2.06531e-07
2.06524e-07
2.06518e-07
2.06513e-07
2.06507e-07
2.04746e-07
6.61892e-12
1.27723e-09
3.90479e-12
2.66362e-14
5.3192e-12
1.6284e-12
2.19536e-07
2.21708e-07
2.21704e-07
2.21698e-07
2.21692e-07
2.21685e-07
2.21679e-07
2.21672e-07
2.21665e-07
2.21659e-07
2.21652e-07
2.21647e-07
2.21641e-07
2.19462e-07
1.76516e-12
5.33127e-12
2.66833e-14
1.14845e-15
1.53073e-14
9.09299e-13
1.32494e-07
1.33783e-07
1.33776e-07
1.33768e-07
1.33759e-07
1.3375e-07
1.3374e-07
1.3373e-07
1.3372e-07
1.33711e-07
1.33702e-07
1.33694e-07
1.33687e-07
1.32387e-07
8.47316e-13
1.53391e-14
1.14903e-15
1.00082e-15
1.0347e-15
8.83376e-13
1.35616e-07
1.36996e-07
1.36988e-07
1.36978e-07
1.36967e-07
1.36956e-07
1.36944e-07
1.36932e-07
1.3692e-07
1.36909e-07
1.36899e-07
1.36889e-07
1.3688e-07
1.35487e-07
9.20225e-13
1.03494e-15
1.00083e-15
1e-15
1.00171e-15
4.51706e-13
7.83104e-08
7.90985e-08
7.90903e-08
7.9081e-08
7.90708e-08
7.906e-08
7.9049e-08
7.90378e-08
7.90267e-08
7.9016e-08
7.90059e-08
7.89964e-08
7.89879e-08
7.81867e-08
4.51329e-13
1.00168e-15
1e-15
1e-15
1.00154e-15
4.20426e-13
7.42859e-08
7.50115e-08
7.50034e-08
7.49943e-08
7.49844e-08
7.49741e-08
7.49634e-08
7.49527e-08
7.49421e-08
7.49318e-08
7.4922e-08
7.49128e-08
7.49044e-08
7.41656e-08
4.15232e-13
1.0015e-15
1e-15
1e-15
1.00139e-15
4.04261e-13
7.69427e-08
7.76863e-08
7.76779e-08
7.76685e-08
7.76581e-08
7.76471e-08
7.76358e-08
7.76243e-08
7.76129e-08
7.76018e-08
7.7591e-08
7.7581e-08
7.75717e-08
7.6814e-08
4.42652e-13
1.00153e-15
1e-15
1e-15
1.00134e-15
3.93988e-13
6.96482e-08
7.03024e-08
7.02939e-08
7.02842e-08
7.02736e-08
7.02624e-08
7.02509e-08
7.02392e-08
7.02277e-08
7.02164e-08
7.02057e-08
7.01957e-08
7.01866e-08
6.95184e-08
3.53501e-13
1.00118e-15
1e-15
1e-15
1.00278e-15
7.63945e-13
1.3148e-07
1.32723e-07
1.32713e-07
1.32701e-07
1.32689e-07
1.32675e-07
1.32661e-07
1.32647e-07
1.32633e-07
1.3262e-07
1.32607e-07
1.32595e-07
1.32584e-07
1.31323e-07
8.8621e-13
1.00331e-15
1e-15
1e-15
1.00318e-15
8.55478e-13
1.2651e-07
1.27646e-07
1.27636e-07
1.27625e-07
1.27612e-07
1.27599e-07
1.27585e-07
1.27571e-07
1.27557e-07
1.27544e-07
1.27532e-07
1.2752e-07
1.27509e-07
1.26356e-07
7.29879e-13
1.00263e-15
1e-15
1e-15
1.00736e-15
1.82377e-12
2.62954e-07
2.65382e-07
2.65373e-07
2.65363e-07
2.65352e-07
2.6534e-07
2.65327e-07
2.65315e-07
2.65303e-07
2.65292e-07
2.6528e-07
2.6527e-07
2.6526e-07
2.62816e-07
2.18105e-12
1.00922e-15
1e-15
1e-15
1.00893e-15
2.15216e-12
2.60195e-07
2.62483e-07
2.62474e-07
2.62462e-07
2.62451e-07
2.62438e-07
2.62425e-07
2.62412e-07
2.624e-07
2.62388e-07
2.62376e-07
2.62365e-07
2.62355e-07
2.60051e-07
1.81677e-12
1.00735e-15
1e-15
1e-15
1.01894e-15
4.25946e-12
5.02731e-07
5.06902e-07
5.06907e-07
5.06911e-07
5.06915e-07
5.0692e-07
5.06925e-07
5.06931e-07
5.06937e-07
5.06944e-07
5.0695e-07
5.06956e-07
5.06959e-07
5.02794e-07
5.08796e-12
1.02358e-15
1e-15
1.00268e-15
1.11242e-15
5.61778e-12
5.21107e-07
5.25253e-07
5.25278e-07
5.25282e-07
5.25286e-07
5.25291e-07
5.25296e-07
5.25286e-07
5.25307e-07
5.25312e-07
5.25317e-07
5.25322e-07
5.25304e-07
5.21162e-07
4.84881e-12
1.10808e-15
1.00269e-15
1.70427e-13
1.00828e-12
1.49833e-08
3.19972e-08
3.0253e-08
2.79203e-08
2.79197e-08
2.79189e-08
2.79181e-08
2.79172e-08
2.99124e-08
2.79138e-08
2.79128e-08
2.79119e-08
2.7911e-08
3.02441e-08
3.19819e-08
1.49775e-08
1.02445e-12
1.70814e-13
5.88108e-10
1.42443e-08
1.10866e-07
1.32293e-07
1.18166e-07
1.18004e-07
1.18003e-07
1.18001e-07
1.17999e-07
1.17996e-07
1.18193e-07
1.17992e-07
1.17989e-07
1.17987e-07
1.17985e-07
1.18143e-07
1.32262e-07
1.10835e-07
1.42481e-08
5.88266e-10
4.08064e-05
0.000196287
0.000256741
0.000256871
0.000256907
0.000256951
0.000257001
0.000257056
0.000257115
0.000257176
0.000257237
0.000257297
0.000257356
0.000257412
0.000257464
0.000257512
0.000257554
0.000257486
0.000196944
4.10354e-05
2.9847e-07
7.40635e-06
1.34615e-05
1.34633e-05
1.34681e-05
1.34737e-05
1.34801e-05
1.3487e-05
1.34944e-05
1.35019e-05
1.35095e-05
1.35169e-05
1.3524e-05
1.35308e-05
1.3537e-05
1.35426e-05
1.35472e-05
1.35529e-05
7.45758e-06
2.98691e-07
3.66917e-09
4.75795e-08
1.42766e-07
1.52824e-07
1.43323e-07
1.4335e-07
1.4338e-07
1.43413e-07
1.43448e-07
1.43484e-07
1.43521e-07
1.43556e-07
1.4359e-07
1.43622e-07
1.43652e-07
1.43679e-07
1.53224e-07
1.43202e-07
4.77638e-08
3.6441e-09
3.59234e-10
1.35032e-10
8.84361e-10
8.44231e-09
6.22226e-09
6.22212e-09
6.22217e-09
6.22223e-09
6.2223e-09
6.22237e-09
6.22244e-09
6.22251e-09
6.22258e-09
6.22264e-09
6.22269e-09
6.22294e-09
8.44295e-09
8.85634e-10
1.35036e-10
3.56675e-10
3.52551e-12
1.41765e-12
7.40047e-12
2.15275e-07
2.17152e-07
2.17148e-07
2.17144e-07
2.17139e-07
2.17133e-07
2.17127e-07
2.17121e-07
2.17115e-07
2.1711e-07
2.17104e-07
2.17099e-07
2.17093e-07
2.15209e-07
7.24591e-12
1.41885e-12
3.5088e-12
2.37854e-14
1.11359e-14
1.67061e-12
2.30563e-07
2.32879e-07
2.32875e-07
2.3287e-07
2.32864e-07
2.32858e-07
2.32852e-07
2.32845e-07
2.32839e-07
2.32833e-07
2.32827e-07
2.32821e-07
2.32815e-07
2.30492e-07
1.80645e-12
1.11425e-14
2.37125e-14
1.12672e-15
1.06947e-15
9.56738e-13
1.44117e-07
1.45537e-07
1.45531e-07
1.45524e-07
1.45516e-07
1.45508e-07
1.45499e-07
1.4549e-07
1.45481e-07
1.45472e-07
1.45464e-07
1.45456e-07
1.45449e-07
1.44018e-07
8.9987e-13
1.06923e-15
1.12656e-15
1.00065e-15
1.0041e-15
9.30458e-13
1.46751e-07
1.48256e-07
1.48248e-07
1.48238e-07
1.48228e-07
1.48217e-07
1.48205e-07
1.48194e-07
1.48182e-07
1.48171e-07
1.48161e-07
1.48151e-07
1.48142e-07
1.46625e-07
9.72922e-13
1.0043e-15
1.00065e-15
1e-15
1.00183e-15
5.03207e-13
8.8881e-08
8.97823e-08
8.9774e-08
8.97646e-08
8.97542e-08
8.97433e-08
8.97319e-08
8.97204e-08
8.97089e-08
8.96977e-08
8.9687e-08
8.96769e-08
8.96677e-08
8.87525e-08
5.09803e-13
1.00183e-15
1e-15
1e-15
1.00175e-15
4.77293e-13
8.49296e-08
8.57597e-08
8.57512e-08
8.57418e-08
8.57314e-08
8.57205e-08
8.57093e-08
8.5698e-08
8.56867e-08
8.56757e-08
8.5665e-08
8.5655e-08
8.56457e-08
8.48013e-08
4.73556e-13
1.00172e-15
1e-15
1e-15
1.0016e-15
4.63934e-13
8.90823e-08
8.99486e-08
8.99398e-08
8.99298e-08
8.99188e-08
8.99072e-08
8.98951e-08
8.98829e-08
8.98706e-08
8.98585e-08
8.98468e-08
8.98357e-08
8.98255e-08
8.89439e-08
5.11511e-13
1.00178e-15
1e-15
1e-15
1.00155e-15
4.53457e-13
8.2333e-08
8.3113e-08
8.31045e-08
8.30947e-08
8.30841e-08
8.30727e-08
8.3061e-08
8.3049e-08
8.3037e-08
8.30252e-08
8.30139e-08
8.30031e-08
8.29932e-08
8.21985e-08
4.1439e-13
1.0014e-15
1e-15
1e-15
1.00311e-15
8.50037e-13
1.48261e-07
1.49671e-07
1.49661e-07
1.49649e-07
1.49636e-07
1.49622e-07
1.49607e-07
1.49592e-07
1.49578e-07
1.49563e-07
1.49549e-07
1.49536e-07
1.49523e-07
1.48094e-07
9.95251e-13
1.00376e-15
1e-15
1e-15
1.00351e-15
9.5018e-13
1.45172e-07
1.46504e-07
1.46494e-07
1.46482e-07
1.4647e-07
1.46457e-07
1.46443e-07
1.46429e-07
1.46415e-07
1.46401e-07
1.46388e-07
1.46375e-07
1.46363e-07
1.45014e-07
8.27839e-13
1.003e-15
1e-15
1e-15
1.00763e-15
1.92353e-12
2.81958e-07
2.84648e-07
2.8464e-07
2.84629e-07
2.84619e-07
2.84607e-07
2.84595e-07
2.84583e-07
2.84571e-07
2.84559e-07
2.84547e-07
2.84536e-07
2.84525e-07
2.81818e-07
2.32402e-12
1.00973e-15
1e-15
1e-15
1.00903e-15
2.22713e-12
2.8009e-07
2.82652e-07
2.82644e-07
2.82634e-07
2.82624e-07
2.82613e-07
2.82602e-07
2.8259e-07
2.82578e-07
2.82567e-07
2.82555e-07
2.82544e-07
2.82534e-07
2.79955e-07
1.93036e-12
1.00765e-15
1e-15
1e-15
1.01867e-15
4.27339e-12
5.08884e-07
5.13224e-07
5.13229e-07
5.13232e-07
5.13236e-07
5.1324e-07
5.13245e-07
5.1325e-07
5.13256e-07
5.13262e-07
5.13268e-07
5.13272e-07
5.13275e-07
5.08939e-07
5.14226e-12
1.02387e-15
1e-15
1.00304e-15
1.11071e-15
5.47435e-12
5.25615e-07
5.30058e-07
5.3007e-07
5.30076e-07
5.30082e-07
5.30087e-07
5.30094e-07
5.30097e-07
5.30107e-07
5.30113e-07
5.30119e-07
5.30123e-07
5.30119e-07
5.2568e-07
4.85146e-12
1.10772e-15
1.00304e-15
1.57827e-13
9.41842e-13
1.35359e-08
2.57305e-08
2.4846e-08
2.20522e-08
2.20524e-08
2.20525e-08
2.20527e-08
2.2053e-08
2.38042e-08
2.20513e-08
2.20516e-08
2.20519e-08
2.20524e-08
2.48286e-08
2.57186e-08
1.3543e-08
9.59923e-13
1.58192e-13
5.38276e-10
1.33061e-08
1.0371e-07
1.23229e-07
1.09826e-07
1.09685e-07
1.09685e-07
1.09685e-07
1.09686e-07
1.09686e-07
1.0975e-07
1.09687e-07
1.09688e-07
1.09689e-07
1.0969e-07
1.09833e-07
1.23238e-07
1.0372e-07
1.33097e-08
5.38844e-10
3.11598e-05
0.000146059
0.000194445
0.000194612
0.000194636
0.000194666
0.0001947
0.000194739
0.000194781
0.000194825
0.00019487
0.000194916
0.000194961
0.000195006
0.000195049
0.000195091
0.000195127
0.00019501
0.000146541
3.13092e-05
2.71865e-07
6.52363e-06
1.19727e-05
1.19698e-05
1.19737e-05
1.19782e-05
1.19834e-05
1.19891e-05
1.19951e-05
1.20013e-05
1.20075e-05
1.20137e-05
1.20197e-05
1.20254e-05
1.20306e-05
1.20354e-05
1.20394e-05
1.20486e-05
6.5693e-06
2.72128e-07
8.66071e-10
4.03173e-08
5.92093e-08
7.1766e-08
5.94885e-08
5.94894e-08
5.9491e-08
5.94931e-08
5.94955e-08
5.94982e-08
5.95012e-08
5.95045e-08
5.95079e-08
5.95113e-08
5.95147e-08
5.95185e-08
7.18013e-08
5.92475e-08
4.04225e-08
8.70483e-10
7.97182e-11
2.25202e-10
4.34641e-10
8.44611e-09
6.03005e-09
6.02982e-09
6.02983e-09
6.02983e-09
6.02984e-09
6.02985e-09
6.02986e-09
6.02987e-09
6.02989e-09
6.0299e-09
6.0299e-09
6.0302e-09
8.44646e-09
4.34605e-10
2.25521e-10
7.84674e-11
2.94833e-13
1.40434e-12
5.00734e-12
2.26231e-07
2.28267e-07
2.28264e-07
2.28261e-07
2.28256e-07
2.28252e-07
2.28247e-07
2.28241e-07
2.28236e-07
2.28231e-07
2.28226e-07
2.28221e-07
2.28215e-07
2.26172e-07
4.88558e-12
1.4054e-12
2.85996e-13
2.28141e-15
1.03626e-14
1.69785e-12
2.38082e-07
2.40504e-07
2.40501e-07
2.40497e-07
2.40493e-07
2.40488e-07
2.40483e-07
2.40477e-07
2.40472e-07
2.40467e-07
2.40462e-07
2.40457e-07
2.40451e-07
2.38021e-07
1.82741e-12
1.03667e-14
2.25054e-15
1.00562e-15
1.06893e-15
9.95619e-13
1.55621e-07
1.57238e-07
1.57234e-07
1.57229e-07
1.57224e-07
1.57218e-07
1.57211e-07
1.57204e-07
1.57198e-07
1.57191e-07
1.57185e-07
1.57178e-07
1.57172e-07
1.55547e-07
9.48961e-13
1.0687e-15
1.00551e-15
1.00002e-15
1.00428e-15
9.87256e-13
1.59086e-07
1.60767e-07
1.60761e-07
1.60754e-07
1.60747e-07
1.60739e-07
1.6073e-07
1.60721e-07
1.60712e-07
1.60704e-07
1.60695e-07
1.60687e-07
1.6068e-07
1.58989e-07
1.03258e-12
1.00448e-15
1.00002e-15
1e-15
1.00203e-15
5.66986e-13
1.02841e-07
1.03922e-07
1.03914e-07
1.03906e-07
1.03896e-07
1.03887e-07
1.03876e-07
1.03866e-07
1.03855e-07
1.03844e-07
1.03834e-07
1.03824e-07
1.03815e-07
1.02721e-07
5.82076e-13
1.00206e-15
1e-15
1e-15
1.00197e-15
5.49009e-13
9.96859e-08
1.00685e-07
1.00676e-07
1.00667e-07
1.00658e-07
1.00647e-07
1.00637e-07
1.00626e-07
1.00615e-07
1.00604e-07
1.00594e-07
1.00584e-07
1.00574e-07
9.95614e-08
5.46796e-13
1.00196e-15
1e-15
1e-15
1.00188e-15
5.49021e-13
1.05521e-07
1.06578e-07
1.0657e-07
1.06561e-07
1.06551e-07
1.06541e-07
1.0653e-07
1.06518e-07
1.06507e-07
1.06495e-07
1.06484e-07
1.06473e-07
1.06463e-07
1.05393e-07
6.06301e-13
1.0021e-15
1e-15
1e-15
1.00183e-15
5.39577e-13
9.93507e-08
1.00332e-07
1.00324e-07
1.00316e-07
1.00307e-07
1.00297e-07
1.00287e-07
1.00276e-07
1.00266e-07
1.00255e-07
1.00244e-07
1.00234e-07
1.00225e-07
9.92305e-08
5.04096e-13
1.00169e-15
1e-15
1e-15
1.00349e-15
9.65328e-13
1.67229e-07
1.68897e-07
1.68888e-07
1.68878e-07
1.68867e-07
1.68855e-07
1.68843e-07
1.6883e-07
1.68817e-07
1.68805e-07
1.68792e-07
1.6878e-07
1.68769e-07
1.67085e-07
1.12921e-12
1.00422e-15
1e-15
1e-15
1.00383e-15
1.05059e-12
1.64277e-07
1.65839e-07
1.65831e-07
1.65821e-07
1.65811e-07
1.65799e-07
1.65788e-07
1.65776e-07
1.65764e-07
1.65751e-07
1.65739e-07
1.65728e-07
1.65717e-07
1.6414e-07
9.43532e-13
1.0034e-15
1e-15
1e-15
1.00773e-15
1.98496e-12
2.91263e-07
2.94124e-07
2.94117e-07
2.94108e-07
2.94099e-07
2.94089e-07
2.94079e-07
2.94068e-07
2.94058e-07
2.94047e-07
2.94036e-07
2.94025e-07
2.94015e-07
2.91139e-07
2.39455e-12
1.00987e-15
1e-15
1e-15
1.00901e-15
2.26419e-12
2.91017e-07
2.93734e-07
2.93727e-07
2.93719e-07
2.9371e-07
2.93699e-07
2.93689e-07
2.93678e-07
2.93668e-07
2.93657e-07
2.93646e-07
2.93635e-07
2.93624e-07
2.90891e-07
2.00109e-12
1.00782e-15
1e-15
1e-15
1.01726e-15
4.20289e-12
5.07386e-07
5.12181e-07
5.12186e-07
5.1219e-07
5.12195e-07
5.122e-07
5.12206e-07
5.12212e-07
5.12219e-07
5.12225e-07
5.12231e-07
5.12235e-07
5.12236e-07
5.07445e-07
5.10898e-12
1.02278e-15
1e-15
1.0043e-15
1.1191e-15
5.15252e-12
5.27747e-07
5.32406e-07
5.3241e-07
5.32416e-07
5.32422e-07
5.32428e-07
5.32435e-07
5.32442e-07
5.32448e-07
5.32454e-07
5.3246e-07
5.32464e-07
5.32467e-07
5.27812e-07
4.76981e-12
1.11737e-15
1.0043e-15
1.08848e-13
8.05005e-13
1.10587e-08
2.55029e-08
2.46748e-08
2.23829e-08
2.23829e-08
2.23831e-08
2.23832e-08
2.23833e-08
2.40157e-08
2.23817e-08
2.23818e-08
2.23821e-08
2.23824e-08
2.46179e-08
2.5513e-08
1.10602e-08
8.24121e-13
1.09223e-13
3.26585e-10
1.22892e-08
8.00943e-08
9.45183e-08
8.40535e-08
8.39157e-08
8.39181e-08
8.39205e-08
8.3923e-08
8.39258e-08
8.39881e-08
8.39319e-08
8.39354e-08
8.39395e-08
8.39441e-08
8.40872e-08
9.45662e-08
8.01432e-08
1.22986e-08
3.28708e-10
2.76587e-05
0.000135226
0.000180025
0.000180165
0.000180186
0.00018021
0.000180239
0.000180272
0.000180308
0.000180346
0.000180385
0.000180426
0.000180466
0.000180507
0.000180546
0.000180585
0.000180619
0.000180523
0.000135653
2.78292e-05
2.25883e-07
3.3305e-06
6.84534e-06
6.84098e-06
6.84334e-06
6.84598e-06
6.84905e-06
6.85242e-06
6.85601e-06
6.85975e-06
6.86355e-06
6.86734e-06
6.87102e-06
6.87456e-06
6.87781e-06
6.88079e-06
6.88321e-06
6.89142e-06
3.35503e-06
2.26189e-07
2.07808e-09
3.01255e-08
8.7938e-08
9.96903e-08
8.80513e-08
8.80618e-08
8.80744e-08
8.80884e-08
8.81034e-08
8.8119e-08
8.81349e-08
8.81508e-08
8.81663e-08
8.81811e-08
8.81949e-08
8.8208e-08
9.98669e-08
8.81314e-08
3.02297e-08
2.08513e-09
6.57955e-12
1.91253e-10
6.12128e-10
8.58559e-09
6.13763e-09
6.13745e-09
6.13748e-09
6.13753e-09
6.13757e-09
6.13762e-09
6.13768e-09
6.13773e-09
6.13778e-09
6.13782e-09
6.13786e-09
6.13826e-09
8.58631e-09
6.12634e-10
1.91512e-10
6.41391e-12
1.29404e-14
1.27743e-12
5.90459e-12
2.23508e-07
2.25596e-07
2.25594e-07
2.25591e-07
2.25588e-07
2.25585e-07
2.25581e-07
2.25577e-07
2.25573e-07
2.25569e-07
2.25564e-07
2.25559e-07
2.25554e-07
2.23461e-07
5.79324e-12
1.27819e-12
1.28553e-14
1.15378e-15
9.56992e-15
1.64451e-12
2.36095e-07
2.38567e-07
2.38565e-07
2.38562e-07
2.38559e-07
2.38555e-07
2.38552e-07
2.38548e-07
2.38543e-07
2.38539e-07
2.38535e-07
2.3853e-07
2.38524e-07
2.36047e-07
1.75527e-12
9.57292e-15
1.1526e-15
1.0005e-15
1.06096e-15
1.00909e-12
1.58923e-07
1.60626e-07
1.60623e-07
1.60619e-07
1.60614e-07
1.60609e-07
1.60603e-07
1.60597e-07
1.60591e-07
1.60585e-07
1.60579e-07
1.60573e-07
1.60568e-07
1.58857e-07
9.70765e-13
1.06077e-15
1.0005e-15
1e-15
1.00428e-15
1.00371e-12
1.62552e-07
1.64302e-07
1.64297e-07
1.64291e-07
1.64285e-07
1.64278e-07
1.6427e-07
1.64263e-07
1.64255e-07
1.64247e-07
1.6424e-07
1.64233e-07
1.64226e-07
1.62467e-07
1.04927e-12
1.00448e-15
1e-15
1e-15
1.00214e-15
5.96837e-13
1.08257e-07
1.09416e-07
1.09409e-07
1.09401e-07
1.09392e-07
1.09383e-07
1.09373e-07
1.09363e-07
1.09353e-07
1.09342e-07
1.09332e-07
1.09322e-07
1.09313e-07
1.08141e-07
6.17149e-13
1.00219e-15
1e-15
1e-15
1.00209e-15
5.80579e-13
1.05361e-07
1.06435e-07
1.06427e-07
1.06418e-07
1.06408e-07
1.06398e-07
1.06388e-07
1.06377e-07
1.06367e-07
1.06356e-07
1.06346e-07
1.06336e-07
1.06326e-07
1.05239e-07
5.79624e-13
1.00207e-15
1e-15
1e-15
1.00202e-15
5.85726e-13
1.11879e-07
1.13017e-07
1.13009e-07
1.13001e-07
1.12991e-07
1.12981e-07
1.12971e-07
1.1296e-07
1.12949e-07
1.12938e-07
1.12927e-07
1.12916e-07
1.12907e-07
1.11755e-07
6.4668e-13
1.00225e-15
1e-15
1e-15
1.00198e-15
5.78262e-13
1.06455e-07
1.07525e-07
1.07519e-07
1.07511e-07
1.07503e-07
1.07493e-07
1.07484e-07
1.07474e-07
1.07464e-07
1.07454e-07
1.07444e-07
1.07434e-07
1.07425e-07
1.06342e-07
5.47992e-13
1.00187e-15
1e-15
1e-15
1.00366e-15
1.00949e-12
1.74202e-07
1.75983e-07
1.75975e-07
1.75966e-07
1.75956e-07
1.75945e-07
1.75934e-07
1.75922e-07
1.7591e-07
1.75899e-07
1.75887e-07
1.75876e-07
1.75866e-07
1.74071e-07
1.17752e-12
1.00441e-15
1e-15
1e-15
1.00399e-15
1.09324e-12
1.72315e-07
1.73975e-07
1.73967e-07
1.73959e-07
1.73949e-07
1.73939e-07
1.73929e-07
1.73918e-07
1.73907e-07
1.73896e-07
1.73885e-07
1.73875e-07
1.73865e-07
1.72192e-07
1.0007e-12
1.00363e-15
1e-15
1e-15
1.00774e-15
1.98915e-12
2.92209e-07
2.95133e-07
2.95127e-07
2.95119e-07
2.95111e-07
2.95101e-07
2.95091e-07
2.95081e-07
2.95071e-07
2.95061e-07
2.9505e-07
2.9504e-07
2.95029e-07
2.92091e-07
2.39421e-12
1.00985e-15
1e-15
1e-15
1.00883e-15
2.22225e-12
2.91607e-07
2.9442e-07
2.94414e-07
2.94407e-07
2.94399e-07
2.9439e-07
2.94381e-07
2.94371e-07
2.94362e-07
2.94351e-07
2.94341e-07
2.94331e-07
2.9432e-07
2.91493e-07
2.01484e-12
1.0079e-15
1e-15
1e-15
1.01558e-15
3.7798e-12
4.64909e-07
4.69619e-07
4.69625e-07
4.6963e-07
4.69637e-07
4.69643e-07
4.69651e-07
4.69658e-07
4.69666e-07
4.69674e-07
4.69682e-07
4.69688e-07
4.69693e-07
4.64991e-07
4.57825e-12
1.02038e-15
1e-15
1.01049e-15
1.16399e-15
4.36566e-12
4.77875e-07
4.82582e-07
4.82591e-07
4.82597e-07
4.82605e-07
4.82612e-07
4.82621e-07
4.82626e-07
4.82637e-07
4.82645e-07
4.82652e-07
4.82658e-07
4.82661e-07
4.77961e-07
4.09243e-12
1.16281e-15
1.0105e-15
9.60956e-14
7.82423e-13
1.05188e-08
1.83796e-08
1.76087e-08
1.55496e-08
1.55497e-08
1.55498e-08
1.55498e-08
1.55499e-08
1.6975e-08
1.55484e-08
1.55484e-08
1.55486e-08
1.55489e-08
1.73877e-08
1.83805e-08
1.05159e-08
8.00964e-13
9.63521e-14
3.02534e-10
1.22051e-08
7.66002e-08
9.0846e-08
8.07171e-08
8.07163e-08
8.07168e-08
8.0717e-08
8.0717e-08
8.0717e-08
8.07543e-08
8.07173e-08
8.07177e-08
8.07186e-08
8.072e-08
8.07193e-08
9.08563e-08
7.66124e-08
1.22045e-08
3.03063e-10
2.05437e-05
0.000108726
0.000146689
0.000146823
0.000146838
0.000146855
0.000146875
0.000146899
0.000146925
0.000146952
0.000146982
0.000147012
0.000147043
0.000147075
0.000147106
0.000147136
0.000147163
0.000147063
0.000109048
2.06593e-05
1.69201e-07
2.52974e-06
5.35264e-06
5.34664e-06
5.34829e-06
5.35019e-06
5.3524e-06
5.35484e-06
5.35746e-06
5.3602e-06
5.363e-06
5.36582e-06
5.36857e-06
5.37122e-06
5.37366e-06
5.3759e-06
5.37774e-06
5.38654e-06
2.5481e-06
1.69424e-07
1.90904e-09
2.87182e-08
7.3756e-08
8.52784e-08
7.35141e-08
7.35211e-08
7.35303e-08
7.35403e-08
7.35512e-08
7.35626e-08
7.35743e-08
7.3586e-08
7.35975e-08
7.36084e-08
7.36184e-08
7.36284e-08
8.54058e-08
7.38957e-08
2.87942e-08
1.91258e-09
2.47784e-12
1.80062e-10
5.02467e-10
8.42901e-09
5.96464e-09
5.96449e-09
5.96454e-09
5.9646e-09
5.96467e-09
5.96473e-09
5.9648e-09
5.96487e-09
5.96493e-09
5.96499e-09
5.96503e-09
5.96585e-09
8.42993e-09
5.02839e-10
1.8029e-10
2.52709e-12
2.74102e-14
1.06598e-12
4.76551e-12
2.24957e-07
2.27143e-07
2.27142e-07
2.2714e-07
2.27138e-07
2.27136e-07
2.27133e-07
2.2713e-07
2.27127e-07
2.27123e-07
2.2712e-07
2.27116e-07
2.27111e-07
2.24919e-07
4.68426e-12
1.06684e-12
2.75118e-14
1.11054e-15
7.18855e-15
1.6427e-12
2.3535e-07
2.37906e-07
2.37906e-07
2.37906e-07
2.37905e-07
2.37903e-07
2.37902e-07
2.379e-07
2.37898e-07
2.37896e-07
2.37893e-07
2.37889e-07
2.37885e-07
2.35324e-07
1.73535e-12
7.19288e-15
1.1116e-15
1.00056e-15