/*--------------------------------*- C++ -*----------------------------------*\
| =========                 |                                                 |
| \\      /  F ield         | OpenFOAM: The Open Source CFD Toolbox           |
|  \\    /   O peration     | Version:  2212                                  |
|   \\  /    A nd           | Website:  www.openfoam.com                      |
|    \\/     M anipulation  |                                                 |
\*---------------------------------------------------------------------------*/
FoamFile
{
    version     2.0;
    format      ascii;
    arch        "LSB;label=32;scalar=64";
    class       volScalarField;
    location    "0.0402";
    object      p;
}
// * * * * * * * * * * * * * * * * * * * * * * * * * * * * * * * * * * * * * //

dimensions      [1 -1 -2 0 0 0 0];

internalField   nonuniform List<scalar> 
2308
(
605.585
600.665
601.806
587.485
592.846
590.712
598.003
595.847
592.998
608.188
606.735
604.193
602.288
600.457
598.784
597.309
596.065
597.537
598.543
599.721
600.958
602.307
603.784
605.343
606.971
608.379
609.397
610.199
596.244
595.131
610.85
611.314
611.554
611.502
611.151
610.551
609.776
608.863
607.81
606.652
605.461
604.338
603.412
602.773
602.331
605.081
605.694
606.241
606.796
607.365
607.984
608.683
609.459
610.236
610.933
611.442
611.665
611.569
611.227
610.731
610.108
609.351
608.369
607.014
605.267
603.234
601.087
598.923
596.914
595.172
593.759
601.755
604.13
601.083
602.328
603.442
604.511
605.605
606.76
607.909
608.913
609.699
610.319
610.799
611.11
611.174
610.944
610.437
609.736
608.906
607.914
606.685
605.221
603.617
602.06
600.839
600.141
599.874
596.903
599.708
594.58
592.785
606.207
607.502
608.32
608.845
609.1
609.152
609.153
609.289
609.681
610.287
610.893
611.342
611.496
611.326
610.978
610.594
610.19
609.653
608.852
607.529
605.564
603.129
600.426
597.823
595.408
593.343
591.741
595.987
589.236
589.894
589.586
602.413
603.653
605.011
606.086
606.971
607.729
608.48
609.133
609.623
609.979
610.25
610.431
610.491
610.335
609.923
609.283
608.497
607.618
606.588
605.297
603.717
601.955
600.255
598.987
598.397
598.451
598.732
598.773
599.298
600.739
602.596
594.764
604.305
596.329
598.035
592.346
594.064
593.578
596.081
590.692
598.464
598.519
599.28
600.571
601.939
602.747
605.176
607.31
609.004
610.154
610.817
610.966
610.605
610.047
609.628
609.547
609.902
610.513
611.024
611.255
611.154
610.9
610.675
610.502
610.285
609.72
608.507
606.435
603.611
600.41
597.201
594.317
591.889
590.066
600.089
599.212
592.422
597.088
598.213
599.405
600.728
602.157
603.643
605.108
606.512
607.778
608.799
609.546
610.039
610.37
610.5
610.421
610.219
609.996
609.763
609.479
609.074
608.487
607.75
606.915
606.012
604.985
603.733
602.233
600.59
599.076
598.066
597.814
598.189
598.726
599.031
598.941
590.725
595.165
592.567
589.633
609.332
597.06
590.226
597.829
602.79
605.048
607.252
609.31
610.835
611.818
612.078
611.523
610.55
609.684
609.253
609.439
610.041
610.672
611.061
611.138
611.065
611.087
611.257
611.376
611.098
610.007
607.839
604.676
600.952
597.119
593.679
590.88
588.817
588.909
593.16
599.821
597.723
598.908
600.357
602.006
603.782
605.597
607.364
608.989
610.355
611.397
612.067
612.326
612.293
611.908
611.246
610.45
609.657
608.929
608.24
607.539
606.77
605.942
605.074
604.173
603.198
602.091
600.846
599.566
598.498
597.957
598.109
598.75
599.447
599.816
599.729
599.336
598.604
597.873
597.492
597.624
598.337
599.357
600.131
600.367
590.275
586.609
608.973
596.051
601.746
611.582
587.53
588.417
593.654
595.285
597.473
593.053
598.287
599.298
600.814
602.679
604.748
606.889
608.981
610.889
612.463
613.618
614.279
614.422
614.091
613.267
612.09
610.736
609.385
608.135
606.996
605.947
604.953
603.996
603.081
602.205
601.345
600.486
599.631
598.858
598.355
598.335
598.859
599.694
600.401
600.583
600.273
599.64
598.859
598.786
598.218
597.351
596.591
596.198
596.279
596.857
597.37
597.576
597.125
599.811
601.937
603.913
606.11
608.492
610.488
611.837
612.343
611.836
610.698
609.566
608.923
608.985
609.607
610.378
610.995
611.319
611.518
611.872
612.453
612.954
612.974
612.043
609.79
606.316
602.019
597.639
593.593
590.357
588.072
592.493
586.921
588.537
598.969
594.704
597.112
597.8
598.55
601.57
597.845
598.433
598.524
599.255
600.718
602.691
604.964
607.375
609.783
612.017
613.88
615.239
615.998
616.121
615.623
614.506
612.945
611.154
609.327
607.593
605.99
604.53
603.231
602.078
601.079
600.241
599.562
599.036
598.647
598.423
598.446
598.814
599.505
600.324
600.895
600.869
600.377
599.474
598.421
597.776
598.564
598.755
598.345
597.37
596.314
595.412
594.872
594.659
594.515
594.19
593.418
591.968
595.799
598.405
600.361
602.218
604.399
606.905
609.257
610.999
611.833
611.566
610.516
609.345
608.639
608.656
609.326
610.257
611.103
611.705
612.22
612.946
613.97
614.909
615.316
614.569
612.284
608.521
603.706
598.661
594.122
590.46
587.872
586.657
592.917
592.025
611.203
586.004
600.462
600.764
600.294
588.783
597.245
596.973
587.002
596.39
599.646
597.982
599.021
599.376
599.012
597.894
596.621
595.332
594.14
592.976
591.734
590.42
589.053
587.475
585.859
589.684
593.464
596.201
598.412
600.459
602.666
605.065
607.467
609.463
610.611
610.72
610.016
609.065
608.47
608.546
609.285
610.348
611.378
612.241
613.074
614.172
615.637
617.08
617.932
617.446
615.194
611.232
605.98
600.364
595.226
591.109
588.202
586.31
592.149
593.918
588.875
607.471
598.504
598.894
600.107
602.042
604.425
607.044
609.721
612.267
614.457
616.109
617.075
617.283
616.797
615.57
613.818
611.758
609.585
607.436
605.399
603.519
601.827
600.391
599.263
598.451
597.977
597.821
597.921
598.199
598.599
599.105
599.754
600.422
600.785
600.55
599.829
598.662
597.417
596.476
596.324
591.741
592.341
595.039
587.512
598.805
586.1
584.164
586.4
590.216
593.384
596.3
598.844
601.145
603.321
605.476
607.462
608.872
609.438
609.276
608.782
608.469
608.704
609.525
610.673
611.817
612.868
613.964
615.4
617.267
619.236
620.593
620.453
618.358
614.307
608.753
602.674
597.016
592.386
589.054
586.457
591.566
595.583
596.049
598.147
599.603
600.34
599.917
598.31
596.796
595.196
593.592
591.522
589.033
586.515
584.596
582.759
580.797
578.644
592.176
602.906
603.481
603.613
602.89
592.201
590.341
607.588
588.186
598.25
598.275
599.115
600.858
603.191
605.9
608.79
611.634
614.156
616.138
617.415
617.867
617.52
616.427
614.684
612.545
610.183
607.733
605.313
603.032
600.971
599.207
597.865
597.034
596.739
596.934
597.479
598.137
598.688
599.091
599.447
599.773
599.9
599.545
598.627
597.273
595.775
594.467
593.927
593.014
593.991
585.574
588.415
591.618
593.255
591.893
591.699
592.79
589.801
591.112
586.767
587.05
592.981
588.561
590.538
588.147
576.62
582.487
582.548
586.632
590.367
594.178
597.362
599.847
601.77
603.551
605.306
606.838
607.949
608.419
608.534
608.638
609.105
610.018
611.205
612.394
613.552
614.831
616.526
618.729
621.132
623.036
623.389
621.564
617.577
611.876
605.468
599.379
594.299
590.567
588.265
591.719
609.705
608.066
596.767
599.32
601.818
603.642
603.399
601.858
600.403
597.083
594.524
592.648
590.111
586.779
583.652
581.775
581.122
584.752
589.991
592.778
595.926
606.713
607.167
606.965
605.958
604.338
608.575
596.398
598.825
597.663
597.378
597.908
599.341
601.506
604.171
607.134
610.168
612.991
615.333
616.996
617.826
617.799
617.014
615.499
613.462
611.078
608.472
605.776
603.153
600.739
598.691
597.158
596.248
596.03
596.495
597.348
598.18
598.695
598.861
598.811
598.689
598.535
598.081
597.005
595.35
593.385
591.356
590.282
588.408
593.192
592.52
585.595
604.05
593.124
592.305
591.625
585.644
594.931
591.563
592.633
587.055
594.764
605.912
590.21
588.391
591.017
597.148
596.035
589.975
592.641
596.726
602.165
608.597
615.205
620.815
624.594
625.955
624.98
622.715
619.9
617.46
615.612
614.267
613.105
611.915
610.707
609.692
608.948
608.335
607.539
606.386
604.84
603.232
601.777
600.416
598.785
596.233
592.545
588.121
583.928
579.318
582.137
575.949
594.253
593.076
580.629
586.769
590.269
592.033
593.65
597.042
595.501
589.935
591.152
591.582
590.717
588.233
584.793
581.375
577.257
572.101
567.905
570.351
580.566
585.637
592.105
586.023
593.77
592.643
594.455
596.483
598.559
600.603
599.27
598.192
597.283
588.833
590.558
596.982
596.067
595.19
593.791
592.726
591.754
586.364
593.154
589.352
610.766
611.064
610.625
609.493
607.883
603.4
608.367
600.402
598.33
596.914
596.325
596.59
597.654
599.592
602.109
605.025
608.125
611.128
613.774
615.854
617.169
617.635
617.282
616.187
614.434
612.173
609.55
606.733
603.901
601.233
598.922
597.183
596.153
595.925
596.498
597.471
598.318
598.642
598.53
598.093
597.562
597.05
596.357
595.036
592.897
590.236
587.179
585.643
582.566
588.777
572.559
594.405
596.222
597.787
585.575
598.764
585.623
602.172
599.945
588.428
592.055
594.143
591.333
595.399
593.244
594.566
595.112
593.824
586.21
599.558
597.481
599.999
597.865
600.381
601.37
602.586
591.703
594.928
599.442
605.22
611.863
618.486
623.875
627.264
627.828
626.313
623.806
620.862
618.266
616.362
615.027
613.902
612.743
611.501
610.364
609.318
608.209
606.755
604.912
602.992
601.38
600.225
599.245
597.895
595.48
591.905
587.406
582.93
578.879
582.619
578.64
596.63
582.98
611.342
612.981
614.29
614.943
614.989
614.171
612.995
591.342
586.693
594.655
596.736
596.569
592.301
592.667
591.991
593.225
585.729
611.633
594.869
592.777
593.745
589.669
590.863
612.774
609.748
614.022
616.144
617.105
618.711
616.261
608.699
601.915
606.28
597.776
592.659
590.026
587.189
584.21
583.613
586.344
592.054
612.766
616.014
614.301
617.189
620.193
594.997
596.532
598.367
600.276
602.161
603.987
602.001
585.977
594.019
598.846
600.678
590.255
598.982
589.871
593.244
605.3
591.717
591.169
587.792
586.387
610.779
592.639
591.535
604.992
602.398
599.843
597.668
596.03
595.203
595.242
596.014
597.672
599.975
602.743
605.773
608.832
611.683
614.128
615.955
617.017
617.25
616.676
615.337
613.353
610.855
608.072
605.178
602.41
599.953
598.026
596.818
596.482
596.955
597.812
598.464
598.52
598.096
597.294
596.439
595.683
594.749
593.063
590.38
586.788
582.789
580.476
575.198
583.607
563.615
605.819
603.918
587.271
610.591
595.664
594.348
592.287
588.25
599.463
594.618
587.254
591.961
598.92
612.238
614.219
616.11
617.615
618.552
618.847
618.319
617.075
611.196
615.381
591.705
601.78
589.33
605.834
589.653
591.148
593.628
597.306
602.226
608.289
615.024
621.476
626.561
629.241
629.094
627.107
624.357
621.493
618.946
617.138
615.878
614.789
613.616
612.337
611.037
609.701
608.096
606.034
603.641
601.409
599.801
598.899
598.218
597.116
594.935
591.768
587.801
583.771
581.876
584.467
584.216
601.157
590.429
614.023
602.615
603.428
604.486
605.719
604.782
610.238
602.607
601.188
598.872
588.618
593.197
590.637
592.629
610.12
588.111
586.606
595.093
597.603
600.791
598.518
596.24
591.689
606.768
595.095
591.159
586.328
590.062
586.343
586.689
591.154
591.044
587.447
587.605
590.663
593.146
602.264
607.12
606.337
602.632
606.68
609.849
595.204
596.25
597.47
598.903
600.524
602.195
603.855
605.474
606.998
593.732
586.755
591.05
592.363
599.178
585.366
594.381
604.8
602.036
599.38
597.035
595.222
594.157
593.963
594.511
595.868
597.94
600.489
603.352
606.359
609.315
612.055
614.351
616.024
616.922
616.951
616.109
614.47
612.215
609.607
606.842
604.124
601.66
599.625
598.209
597.598
597.742
598.247
598.534
598.288
597.551
596.437
595.298
594.374
593.38
591.731
588.879
584.858
580.118
576.433
573.287
582.082
560.616
608.189
535.74
531.88
539.898
547.452
555.216
559.561
561.415
562.456
564.957
556.75
545.127
559.358
570.493
581.452
582.942
579.883
572.411
558.221
534.433
514.47
515.053
535.351
542.554
536.828
580.541
599.362
589.334
613.331
609.464
589.939
611.175
594.485
589.105
594.185
587.481
613.965
616.389
618.564
620.331
621.548
622.114
621.844
620.727
618.938
616.594
611.384
611.059
613.964
587.38
596.316
600.172
593.842
602.427
590.375
585.716
608.809
587.4
591.022
587.376
589.066
603.139
595.011
590.878
593.766
596.866
599.801
602.136
603.566
603.862
601.9
591.83
600.895
604.617
604.819
605.358
606.213
607.255
608.319
592.956
588.036
611.713
591.49
597.627
597.823
598.308
599.226
600.295
601.522
602.858
604.227
605.585
606.92
608.174
609.258
586.304
599.46
591.716
600.502
591.654
611.713
593.864
608.046
604.952
601.946
599.097
596.574
594.578
593.3
592.872
593.241
594.311
596.159
598.461
601.11
603.985
606.96
609.899
612.604
614.832
616.369
617.022
616.706
615.435
613.48
611.137
608.636
606.143
603.799
601.74
600.108
599.089
598.699
598.644
598.471
597.901
596.892
595.574
594.254
593.205
592.204
590.674
588.199
584.414
579.224
574.551
572.933
576.047
557.154
601.974
503.784
653.381
668.111
660.705
657.751
660.034
656.676
653.588
649.636
651.032
670.757
669.277
649.724
644.615
625.007
607.544
595.107
590.563
610.008
643.49
669.914
677.707
689.996
724.811
698.818
638.229
607.114
645.198
525.316
617.259
583.475
604.243
589.753
587.322
586.184
586.817
589.395
592.224
594.595
596.343
597.249
597.736
598.464
600.116
602.636
605.421
607.972
609.999
611.631
613.127
614.546
615.771
616.742
617.852
619.44
621.774
624.565
627.469
629.826
630.583
628.625
624.002
617.819
611.111
604.846
599.563
595.432
592.403
590.399
589.535
589.43
590.102
588.51
593.932
603.024
597.399
599.683
590.187
602.762
593.743
612.617
587.395
589.026
597.906
594.98
596.916
599.233
591.285
596.254
605.485
604.028
607.47
588.656
587.517
590.569
589.924
589.048
588.901
588.306
589.569
588.933
590.132
587.859
605.491
598.199
601.552
593.587
598.473
596.418
588.196
615.897
619.147
621.679
623.536
624.549
624.59
623.753
622.305
620.329
618.014
615.439
595.564
596.205
588.913
604.259
604.851
604.47
603.005
600.59
597.554
594.271
591.07
597.012
591.911
585.125
585.495
586.282
587.468
594.013
588.492
594.392
588.747
593.549
599.846
592.344
606.848
606.747
607.002
607.636
608.482
609.366
610.12
593.461
599.154
596.915
594.5
592.488
590.868
589.849
589.514
589.991
591.239
593.572
596.991
601.488
607.045
613.425
620.023
625.927
630.058
631.374
630.143
627.546
624.583
621.886
619.801
618.433
617.577
616.65
615.382
613.823
612.123
610.221
607.852
604.943
601.839
599.12
597.389
596.734
596.344
595.507
594.095
592.508
591.183
590.624
590.955
594.087
599.547
605.623
605.705
615.735
629.455
704.093
589.031
590.595
370.947
428.684
455.738
472.723
482.092
499.073
513.509
520.368
520.268
491.028
469.132
471.829
491.675
524.754
560.668
579.953
579.295
549.592
484.417
434.892
407.198
388.388
351.307
386.92
378.095
494.824
427.884
179.921
586.32
601.378
601.56
601.942
602.61
603.426
604.342
605.309
606.284
607.261
608.24
609.165
609.975
610.599
591.154
593.673
597.08
601.251
611.401
608.269
605.047
601.898
598.926
596.26
594.111
592.649
592.031
592.242
593.076
594.705
596.788
599.233
601.962
604.899
607.95
610.952
613.644
615.731
616.932
617.115
616.178
614.53
612.496
610.323
608.144
606.005
603.965
602.133
600.65
599.632
598.937
598.257
597.372
596.182
594.766
593.389
592.312
591.312
589.886
587.593
584.297
580.367
578.618
578.551
579.667
580.539
595.148
614.222
752.022
207.297
600.592
603.71
591.081
596.357
595.345
597.629
588.767
590.457
596.466
592.466
613.932
594.01
593.779
603.617
605.006
605.59
605.163
603.689
601.285
598.217
594.823
591.453
587.111
599.619
585.178
584.851
585.105
585.877
616.52
616.076
619.597
622.923
625.089
626.121
626.079
625.13
623.528
621.415
619.011
589.632
596.006
596.806
593.476
599.899
601.922
588.664
589.716
600.707
598.419
596.093
593.909
591.979
590.54
589.693
589.599
590.299
591.844
594.458
598.125
602.855
608.581
614.956
621.405
627.087
630.917
631.774
630.252
627.556
624.603
621.994
620.062
618.898
618.188
617.324
616.027
614.355
612.489
610.385
607.78
604.656
601.295
598.403
596.636
595.969
595.622
594.721
593.434
592.503
592.545
593.04
594.935
598.96
604.426
608.716
611.331
613.571
615.104
679.01
139.043
609.687
608.565
608.134
608.174
608.618
609.304
610.032
610.654
611.024
592.206
596.575
591.196
597.044
590.948
593.896
590.473
589.888
592.667
596.245
600.568
593.024
609.445
605.333
605.457
605.581
605.836
606.245
606.724
607.237
607.762
608.291
608.843
609.421
609.972
610.459
610.869
611.251
611.644
14.8969
16.5715
15.6422
16.6091
15.8494
16.5278
16.2817
17.1295
17.461
18.1393
17.1911
16.1956
15.6921
15.7669
16.8025
18.7236
20.4915
19.559
16.9192
15.4623
14.5397
14.7301
14.4037
14.5698
14.2972
14.4991
14.8213
15.0991
13.2603
18.4246
611.171
608.216
605.066
601.894
598.852
596.116
593.837
592.225
591.45
591.528
592.219
593.668
595.577
597.858
600.449
603.325
606.43
609.637
612.668
615.159
616.783
617.339
616.693
615.305
613.539
611.666
609.78
607.85
605.857
603.845
601.958
600.35
599.102
597.997
596.848
595.54
594.072
592.676
591.614
590.7
589.47
587.444
584.367
582.213
581.783
584.152
588.671
592.974
597.669
608.822
723.504
183.59
20.2625
589.815
598.155
593.474
595.183
591.34
284.643
489.062
603.312
601.909
24.7253
5122.21
5019.82
4628.32
5071.71
4845.37
5091.23
4981.25
4990.75
4946.84
4803.29
4799.42
4472.34
4536.47
4516.62
4508.17
4641.5
4561.13
4582.84
4643.74
4628.51
4561.97
4685.44
4585.66
4748.33
4600.83
4777.7
4590.72
4677.34
4468.09
333.576
25.245
4774.27
4292.37
571.637
517.098
596.798
600.319
586.184
591.43
582.622
583
586.073
583.599
589.96
588.395
592.171
591.032
595.093
593.609
597.798
596.491
600.747
599.147
604.843
602.693
608.914
606.973
612.422
610.701
615.735
614.124
617.349
616.943
614.794
616.627
608.905
612.083
602.425
605.584
597.093
599.583
593.11
594.929
591.128
591.758
592.071
591.163
596.203
593.808
601.941
598.94
608.227
605.093
614.084
611.238
619.316
616.765
623.984
621.75
626.903
625.748
626.29
627.143
621.012
624.228
614.105
617.16
609.706
611.38
608.742
608.942
609.724
609.064
611.228
610.527
611.997
611.346
611.435
611.087
611.21
610.713
610.911
610.451
610.562
610.214
610.345
609.913
610.058
609.749
609.805
608.241
609.772
611.449
606.312
610.173
611.459
604.109
607.354
595.37
599.713
588.862
591.669
585.804
586.936
584.835
585.035
586.761
585.331
592.289
589.166
599.097
595.736
604.287
602.045
605.967
605.623
604.108
605.414
600.149
602.281
595.635
597.888
591.732
593.525
589.617
590.395
590.439
589.609
594.946
592.164
603.584
598.758
615.639
609.337
627.374
621.948
631.705
630.922
627.729
630.409
622.12
624.748
619.125
620.218
617.695
618.5
614.665
616.399
610.478
612.704
604.564
607.828
598.143
601.087
595.552
596.305
593.997
595.02
591.44
592.583
593.559
591.73
601.62
596.833
612.682
608.587
609.025
613.237
562.839
611.664
611.816
590.886
588.829
3804.6
592.38
3651.14
591.321
611.92
611.951
611.874
611.966
611.979
611.993
611.992
587.722
586.319
593.67
594.598
590.452
601.254
595.429
598.678
592.43
592.443
592.491
592.077
592.353
592.277
591.945
592.569
592.325
592.026
593.059
592.621
586.576
592.794
611.22
600.542
611.414
590.842
593.08
587.313
598.784
599.018
591.715
592.123
599.64
609.343
591.063
595.427
598.694
588.563
595.244
591.981
589.52
597.189
585.237
594.891
611.469
593.098
599.444
588.311
588.979
596.709
594.374
611.864
592.317
602.094
613.6
602.221
587.72
594.837
598.632
600.784
606.412
589.134
587.538
588.957
603.132
594.376
589.34
607.042
597.476
590.952
605.43
609.108
601.071
)
;

boundaryField
{
    wall
    {
        type            zeroGradient;
    }
    outlet
    {
        type            fixedValue;
        value           uniform 1e-05;
    }
    inlet
    {
        type            fixedValue;
        value           uniform 612;
    }
    frontAndBackPlanes
    {
        type            empty;
    }
}


// ************************************************************************* //
