/*--------------------------------*- C++ -*----------------------------------*\
| =========                 |                                                 |
| \\      /  F ield         | OpenFOAM: The Open Source CFD Toolbox           |
|  \\    /   O peration     | Version:  2212                                  |
|   \\  /    A nd           | Website:  www.openfoam.com                      |
|    \\/     M anipulation  |                                                 |
\*---------------------------------------------------------------------------*/
FoamFile
{
    version     2.0;
    format      ascii;
    arch        "LSB;label=32;scalar=64";
    class       surfaceScalarField;
    location    "0.0264";
    object      phi;
}
// * * * * * * * * * * * * * * * * * * * * * * * * * * * * * * * * * * * * * //

dimensions      [1 0 -1 0 0 0 0];

oriented        oriented;

internalField   nonuniform List<scalar> 
4475
(
1.96381e-05
-1.84174e-05
2.71183e-05
-2.82375e-05
1.06579e-06
-4.41462e-06
-1.25466e-08
3.47387e-06
4.91967e-05
-5.57612e-05
4.6265e-06
2.07403e-06
-9.96294e-06
2.15756e-05
8.37454e-06
-1.98248e-05
-2.05764e-05
1.87641e-05
1.9755e-05
-1.80645e-05
1.7298e-05
-1.49611e-05
-1.94146e-05
1.69282e-05
-4.17186e-06
3.13723e-06
2.70804e-05
-2.62621e-05
-1.67503e-05
-2.06152e-05
1.96681e-05
1.7578e-05
1.91822e-05
-2.14787e-05
-1.83764e-05
-2.27938e-05
-1.92056e-07
2.03409e-06
2.03066e-05
-3.53422e-06
2.5484e-06
-2.25128e-05
-2.42103e-05
3.77657e-06
-2.78816e-06
2.25406e-05
-2.46453e-05
1.28927e-06
-1.51216e-06
-2.48849e-05
6.80485e-07
-1.05385e-06
-2.48978e-05
4.30429e-07
-9.76385e-07
-2.46488e-05
3.14242e-07
-1.06133e-06
3.81216e-07
-2.36257e-05
-1.83342e-06
2.31621e-05
-1.90033e-06
-2.25049e-05
9.00513e-07
2.47493e-05
-1.62082e-06
2.50624e-05
-5.05342e-07
2.50382e-05
-1.197e-07
2.49057e-05
1.79994e-07
2.49133e-05
5.84388e-07
2.70935e-05
7.9762e-07
2.36633e-05
-9.27831e-07
2.22929e-05
4.474e-07
2.79819e-05
3.01463e-06
-9.53512e-06
2.63778e-05
-1.61635e-07
8.08206e-07
2.79677e-05
-2.78609e-05
-4.55009e-06
-2.29821e-05
-2.91215e-06
2.58525e-05
-2.84346e-07
-8.99685e-08
2.55534e-05
-3.11064e-07
-2.61941e-07
2.53684e-05
-3.49648e-07
-3.24346e-07
2.5164e-05
-3.03387e-07
-3.38399e-07
2.50136e-05
-3.77757e-07
-3.01011e-07
2.48203e-05
-3.35173e-07
-2.74449e-07
2.46497e-05
-3.40909e-07
-2.59172e-07
2.44983e-05
-3.7129e-07
-2.10726e-07
2.43674e-05
-3.92053e-07
-1.71588e-07
2.42206e-05
-3.51439e-07
-1.55071e-07
2.41116e-05
-3.67965e-07
-1.33235e-07
2.39925e-05
-3.53554e-07
-9.46208e-08
2.38623e-05
-3.33671e-07
-5.99019e-08
2.37797e-05
-3.65639e-07
-3.25508e-08
-4.28131e-07
2.38055e-05
-3.7396e-08
-2.37922e-05
2.367e-05
-7.35436e-07
-2.39066e-05
-7.23401e-07
-2.3943e-05
-8.11753e-07
-2.40708e-05
-7.81888e-07
-2.4182e-05
-8.55722e-07
-2.42796e-05
-8.94264e-07
-2.43616e-05
-9.9003e-07
-2.46177e-05
-8.34346e-07
-2.47541e-05
-9.61364e-07
-2.4886e-05
-9.90728e-07
-2.51546e-05
-9.20944e-07
-2.532e-05
-9.6407e-07
-2.55568e-05
-9.53026e-07
-2.57952e-05
-9.25122e-07
-2.6385e-05
-5.70217e-07
-2.79786e-05
5.09426e-07
-2.20426e-05
3.74635e-06
-1.04624e-05
-2.30485e-05
2.37551e-06
-2.22305e-05
1.12123e-06
-2.26403e-05
-3.83568e-07
2.40494e-07
-2.42177e-05
-1.78628e-06
-2.46134e-05
-1.71609e-06
-2.47915e-05
-1.44881e-06
-2.47721e-05
-1.52335e-06
-2.43887e-05
-1.92078e-06
-2.41348e-05
-2.51448e-06
-3.24887e-07
-6.11598e-09
2.37374e-05
-7.3422e-07
2.36905e-05
2.47615e-05
-3.46938e-06
-2.33759e-05
2.50569e-05
-1.32135e-06
2.51233e-05
-7.61832e-07
2.50814e-05
-4.09281e-07
2.52917e-05
-3.12522e-07
2.56775e-05
-3.2621e-07
2.46703e-05
-6.85606e-07
2.45602e-05
-2.27313e-07
2.61923e-05
5.62566e-07
2.61557e-05
-1.7833e-08
2.58007e-05
-5.98002e-07
2.55438e-05
-8.61057e-07
2.53318e-05
-9.55732e-07
2.51584e-05
-9.99081e-07
2.49835e-05
-9.40806e-07
2.4781e-05
-8.60866e-07
2.46356e-05
-8.707e-07
2.44751e-05
-7.7172e-07
2.43304e-05
-7.10301e-07
2.41885e-05
-6.5638e-07
2.40942e-05
-6.39898e-07
2.39899e-05
-5.49481e-07
2.39092e-05
-4.95913e-07
2.38309e-05
-4.2851e-07
2.3753e-05
-3.92267e-07
-2.60481e-06
-2.25752e-05
2.35856e-06
-3.89642e-07
2.37426e-05
-4.96183e-06
-2.09316e-05
-2.35161e-05
-3.90853e-06
-2.36537e-05
2.36766e-05
-1.12273e-06
-2.37566e-05
-1.03725e-06
-2.37558e-05
-1.16909e-06
-2.39043e-05
-1.14871e-06
-2.39622e-05
-1.25031e-06
-2.40479e-05
-1.33691e-06
-2.41705e-05
-1.37846e-06
-2.44042e-05
-1.40325e-06
-2.4471e-05
-1.45162e-06
-2.46226e-05
-1.52752e-06
-2.48717e-05
-1.48956e-06
-2.50406e-05
-1.5204e-06
-2.52412e-05
-1.54283e-06
-2.54575e-05
-1.52453e-06
-2.57851e-05
-1.39733e-06
-2.61118e-05
-1.04519e-06
-2.61636e-05
-2.24604e-07
-2.40938e-05
9.45113e-07
-2.32358e-05
8.4437e-07
-2.30762e-05
3.4774e-07
-2.32894e-05
-7.49328e-07
-2.4009e-05
-1.62873e-06
-2.44701e-05
-1.80489e-06
-2.46497e-05
-1.79177e-06
-2.47759e-05
-1.88431e-06
-2.46832e-05
-2.46222e-06
-2.43675e-05
-3.23675e-06
-2.02941e-05
2.76625e-05
-2.42349e-05
1.26862e-05
-2.13547e-05
-8.76855e-06
1.73319e-05
-1.5077e-05
-1.21668e-05
1.6415e-05
1.06915e-05
1.47878e-05
2.7827e-05
4.79547e-07
-3.4022e-06
-2.5354e-05
2.5408e-05
-1.55824e-06
2.52345e-05
-1.66389e-06
2.51493e-05
-1.23149e-06
2.51925e-05
-1.05309e-06
2.52706e-05
-1.03627e-06
2.53665e-05
-1.11083e-06
2.51497e-05
-1.18809e-06
2.51275e-05
-9.55146e-07
2.56301e-05
-7.12511e-07
2.5756e-05
-9.39359e-07
2.56283e-05
-1.27508e-06
2.54542e-05
-1.49124e-06
2.53015e-05
-1.60299e-06
2.50874e-05
-1.5754e-06
2.49187e-05
-1.54471e-06
2.47759e-05
-1.46709e-06
2.45676e-05
-1.38133e-06
2.44078e-05
-1.29707e-06
2.42582e-05
-1.21002e-06
2.41835e-05
-1.19354e-06
2.4047e-05
-1.07584e-06
2.3934e-05
-9.68115e-07
2.3886e-05
-9.38956e-07
2.38621e-05
-8.56e-07
2.37913e-05
-7.33379e-07
2.37036e-05
-6.75198e-07
3.13511e-07
2.37084e-05
-6.54185e-07
1.77606e-08
2.36836e-05
-2.86576e-07
2.36815e-05
-6.25837e-07
2.36789e-05
-1.87523e-05
1.83851e-05
-2.03784e-05
2.36551e-05
-9.33025e-07
-2.26936e-05
-2.30993e-05
2.53939e-05
-1.71425e-05
2.92309e-05
1.36645e-05
-2.5788e-05
-6.47433e-06
-2.23305e-05
2.16058e-05
-1.70558e-05
2.36024e-05
-2.82084e-05
1.96491e-05
1.87278e-05
-1.97637e-05
-2.82884e-05
-5.69897e-07
5.94132e-06
-2.43391e-05
-4.30495e-06
3.90046e-07
-6.4142e-07
2.36585e-05
8.11491e-08
2.36734e-05
-2.18062e-07
2.36573e-05
-5.78283e-07
2.37239e-05
-9.02507e-07
2.36852e-05
-2.36774e-05
-1.18117e-06
2.36931e-05
-2.35636e-05
-1.34191e-06
-2.36767e-05
-1.33939e-06
-2.36238e-05
-1.45636e-06
-2.37582e-05
-1.43842e-06
-2.37905e-05
-1.55834e-06
-2.38537e-05
-1.66725e-06
-2.39059e-05
-1.80229e-06
-2.40206e-05
-1.81748e-06
-2.41835e-05
-1.8305e-06
-2.43442e-05
-1.91608e-06
-2.45435e-05
-1.98607e-06
-2.46967e-05
-2.02015e-06
-2.48798e-05
-2.03752e-06
-2.50641e-05
-2.06619e-06
-2.52322e-05
-2.06836e-06
-2.54561e-05
-1.88951e-06
-2.55586e-05
-1.65552e-06
-2.53313e-05
-1.14805e-06
-2.44684e-05
-5.82165e-07
-2.39541e-05
-2.90772e-07
-2.34349e-05
-7.5726e-07
-2.35461e-05
-1.18237e-06
-2.39545e-05
-1.73843e-06
-2.42378e-05
-2.01352e-06
-2.4514e-05
-1.97896e-06
-2.46916e-05
-2.14663e-06
-2.48989e-05
-2.66218e-06
-3.58043e-06
-2.49243e-05
8.20713e-07
-9.40674e-07
-2.55928e-05
2.54085e-05
2.53016e-05
-3.32308e-05
2.92101e-05
-2.11806e-05
1.912e-05
-1.83928e-05
1.88861e-05
2.37744e-05
-3.48972e-07
4.11546e-06
2.54753e-05
2.32463e-06
-4.1648e-06
2.60732e-05
2.35366e-06
2.59912e-05
1.64476e-06
-1.79715e-06
2.57754e-05
7.55494e-07
2.59068e-05
1.48345e-07
-6.09153e-07
2.64246e-05
-4.20655e-07
2.575e-05
-1.31223e-06
2.53894e-05
-1.76868e-06
2.52542e-05
-1.59973e-06
2.52615e-05
-1.603e-06
2.52556e-05
-1.6132e-06
2.53076e-05
-1.78286e-06
2.52031e-05
-1.73249e-06
2.5247e-05
-1.67308e-06
2.54551e-05
-1.6168e-06
2.55279e-05
-1.72891e-06
2.54304e-05
-1.90379e-06
2.52764e-05
-2.06615e-06
2.51675e-05
-2.22139e-06
2.49632e-05
-2.0906e-06
2.48233e-05
-2.10895e-06
2.46404e-05
-1.96733e-06
2.44746e-05
-1.87247e-06
2.43082e-05
-1.75831e-06
2.42513e-05
-1.7491e-06
2.40983e-05
-1.60247e-06
2.39622e-05
-1.46489e-06
2.39355e-05
-1.42939e-06
2.39156e-05
-1.37012e-06
2.38351e-05
-1.18904e-06
2.38092e-05
-1.08374e-06
2.37952e-05
-1.00159e-06
2.37818e-05
-9.46425e-07
-9.44012e-07
2.38111e-05
2.61365e-07
5.22735e-05
-4.10427e-05
-1.14104e-05
-2.25671e-05
2.13996e-05
-3.04711e-05
3.0332e-05
8.37986e-06
-8.09365e-06
1.4981e-06
1.85507e-05
-7.18752e-07
-1.90652e-05
-3.32194e-05
-7.46143e-06
1.13875e-05
2.94303e-05
-2.22139e-05
-1.80769e-05
-6.37589e-06
-2.47762e-05
-2.48646e-05
-2.29287e-06
2.59069e-05
-2.35141e-05
2.35976e-05
-1.48579e-06
-2.3593e-05
-1.51415e-06
-2.35106e-05
-1.70494e-06
-2.36516e-05
-1.63228e-06
-2.36479e-05
-1.79347e-06
-2.36912e-05
-1.90066e-06
-2.37573e-05
-2.02092e-06
-2.38654e-05
-2.14808e-06
-2.40012e-05
-2.16877e-06
-2.40911e-05
-2.25993e-06
-2.4227e-05
-2.32995e-06
-2.43924e-05
-2.39853e-06
-2.45245e-05
-2.48811e-06
-2.47185e-05
-2.45683e-06
-2.48776e-05
-2.52379e-06
-2.50683e-05
-2.49549e-06
-2.51314e-05
-2.44389e-06
-2.51575e-05
-2.24013e-06
-2.49547e-05
-1.95024e-06
-2.45255e-05
-1.58871e-06
-2.40749e-05
-1.28824e-06
-2.36738e-05
-1.67259e-06
-2.37085e-05
-1.62412e-06
-2.39581e-05
-1.93504e-06
-2.4171e-05
-2.22064e-06
-2.43973e-05
-2.15352e-06
-2.46301e-05
-2.29243e-06
-2.48302e-05
-2.80651e-06
-2.52987e-05
-3.42958e-06
-4.40272e-06
-2.51675e-05
-2.03605e-05
-1.90561e-05
2.23196e-05
-1.04173e-05
-2.6985e-05
2.62802e-05
1.11339e-05
2.53109e-05
1.72726e-06
-2.74948e-05
2.56948e-05
1.81348e-06
2.59198e-05
1.96782e-06
2.58449e-05
1.522e-06
2.5789e-05
5.72869e-07
2.58267e-05
-1.67138e-07
2.58928e-05
-8.05886e-07
2.56435e-05
-1.41856e-06
2.53103e-05
-1.82625e-06
2.52787e-05
-1.99419e-06
2.51974e-05
-1.9825e-06
2.52423e-05
-2.15294e-06
2.52243e-05
-2.29311e-06
2.5208e-05
-2.27034e-06
2.52324e-05
-2.27685e-06
2.53029e-05
-2.2866e-06
2.53304e-05
-2.37368e-06
2.53118e-05
-2.51307e-06
2.52474e-05
-2.63541e-06
2.50389e-05
-2.64632e-06
2.4922e-05
-2.60143e-06
2.46976e-05
-2.49954e-06
2.45304e-05
-2.39729e-06
2.43638e-05
-2.28144e-06
2.43175e-05
-2.26432e-06
2.4157e-05
-2.11352e-06
2.40056e-05
-1.94518e-06
2.39724e-05
-1.89463e-06
2.39535e-05
-1.84059e-06
2.38422e-05
-1.65427e-06
2.37804e-05
-1.48804e-06
2.37937e-05
-1.42399e-06
2.37819e-05
-1.28382e-06
2.38123e-05
-1.23906e-06
2.38032e-05
-1.16814e-06
9.08624e-07
-1.14014e-06
2.3829e-05
6.5083e-07
2.38253e-05
3.8964e-07
2.36501e-05
1.05705e-07
2.36717e-05
-2.79227e-07
2.37522e-05
-5.13254e-07
2.36754e-05
-7.66131e-07
2.36751e-05
-1.03273e-06
2.37258e-05
2.36958e-05
-1.32598e-06
-3.277e-05
-9.25316e-06
1.16936e-05
-1.71303e-06
3.37244e-06
-4.86498e-05
4.71382e-05
-1.20995e-05
1.05534e-05
-1.00864e-05
1.16318e-05
-2.76786e-05
-1.715e-05
2.35301e-05
2.63118e-05
-3.01214e-05
-7.76839e-06
1.24586e-05
1.62726e-05
-2.55217e-05
-4.4704e-06
-5.68581e-06
-2.61701e-05
-1.81039e-05
-2.0919e-05
1.86439e-05
-2.24663e-05
-1.48244e-05
9.57944e-06
-3.08112e-05
1.70817e-05
-1.99601e-05
3.37547e-05
1.81197e-05
2.04749e-05
2.54488e-05
-2.54406e-05
1.64572e-06
2.51755e-05
1.99075e-06
2.53536e-05
1.6697e-06
2.54574e-05
1.26913e-06
2.54993e-05
3.5182e-07
2.55343e-05
-4.07378e-07
2.55074e-05
-1.01879e-06
2.53865e-05
-1.56841e-06
2.5237e-05
-1.97686e-06
2.51417e-05
-2.22999e-06
2.51636e-05
-2.3656e-06
2.51487e-05
-2.5282e-06
2.51228e-05
-2.68467e-06
2.51284e-05
-2.71761e-06
2.51388e-05
-2.74964e-06
2.51666e-05
-2.79697e-06
2.51768e-05
-2.88261e-06
2.51503e-05
-2.99638e-06
2.50219e-05
-3.02295e-06
2.48691e-05
-3.01139e-06
2.47103e-05
-2.9577e-06
2.45675e-05
-2.86387e-06
2.44029e-05
-2.72751e-06
2.43514e-05
-2.70965e-06
2.42007e-05
-2.57464e-06
2.40113e-05
-2.36213e-06
2.39839e-05
-2.33081e-06
2.39609e-05
-2.25853e-06
2.38381e-05
-2.07558e-06
2.37551e-05
-1.899e-06
2.37772e-05
-1.80814e-06
2.37096e-05
-1.62394e-06
2.37404e-05
-1.55275e-06
2.3779e-05
-1.48752e-06
2.38013e-05
-1.37372e-06
2.38149e-05
-1.31285e-06
1.10444e-06
-1.26902e-06
2.38425e-05
8.82772e-07
2.38693e-05
7.16895e-07
2.3774e-05
3.19288e-07
2.38059e-05
-3.99503e-09
2.37386e-05
-2.17825e-07
2.37052e-05
-4.84174e-07
2.3688e-05
-8.0183e-07
2.37576e-05
-1.00414e-06
2.37198e-05
-1.2131e-06
2.37333e-05
-2.354e-05
2.36037e-05
-1.40199e-06
-2.3494e-05
-1.51852e-06
-2.35083e-05
-1.64243e-06
-2.34833e-05
-1.73695e-06
-2.35745e-05
-1.84138e-06
-2.3514e-05
-1.95062e-06
-2.35433e-05
-2.05253e-06
-2.35928e-05
-2.16997e-06
-2.3639e-05
-2.32321e-06
-2.37939e-05
-2.37137e-06
-2.38921e-05
-2.47734e-06
-2.40075e-05
-2.57835e-06
-2.41121e-05
-2.68498e-06
-2.42753e-05
-2.71857e-06
-2.44298e-05
-2.83537e-06
-2.45526e-05
-2.8452e-06
-2.46805e-05
-2.90534e-06
-2.47973e-05
-2.88397e-06
-2.4873e-05
-2.87033e-06
-2.48611e-05
-2.74773e-06
-2.47395e-05
-2.55773e-06
-2.44835e-05
-2.31237e-06
-2.42455e-05
-1.97004e-06
-2.39733e-05
-2.36552e-06
-2.39836e-05
-2.00092e-06
-2.3986e-05
-2.28805e-06
-2.41078e-05
-2.43397e-06
-2.42736e-05
-2.30908e-06
-2.4497e-05
-2.36286e-06
-2.49057e-05
-2.6664e-06
-3.40306e-06
-2.51792e-05
-2.12793e-05
-2.00109e-05
2.2205e-05
-5.41371e-06
-2.60546e-05
-2.95413e-05
-5.36593e-06
8.4358e-06
-5.73156e-07
-1.77321e-05
-2.28419e-05
2.48942e-05
-2.36477e-05
-1.60562e-05
2.30928e-05
-1.53556e-05
-1.47211e-05
1.9729e-05
-2.3146e-05
-1.1227e-05
2.40054e-05
1.59002e-06
2.14184e-06
2.53285e-05
1.0274e-06
-2.47915e-05
2.47328e-05
2.20071e-06
2.45589e-05
2.11014e-06
2.45714e-05
1.58643e-06
2.48465e-05
9.02939e-07
2.49717e-05
1.15677e-07
2.50847e-05
-6.50801e-07
2.50457e-05
-1.1302e-06
2.50173e-05
-1.71421e-06
2.49618e-05
-2.11783e-06
2.49276e-05
-2.41589e-06
2.49576e-05
-2.64011e-06
2.4953e-05
-2.7914e-06
2.49382e-05
-2.95963e-06
2.49349e-05
-3.02476e-06
2.49571e-05
-3.10195e-06
2.49795e-05
-3.16829e-06
2.49457e-05
-3.21281e-06
2.48986e-05
-3.32454e-06
2.47954e-05
-3.30408e-06
2.46699e-05
-3.27517e-06
2.45378e-05
-3.2157e-06
2.44148e-05
-3.12753e-06
2.43307e-05
-3.0242e-06
2.4189e-05
-2.93895e-06
2.3999e-05
-2.74167e-06
2.3982e-05
-2.68576e-06
2.39394e-05
-2.60981e-06
2.37974e-05
-2.41548e-06
2.36909e-05
-2.2445e-06
2.36925e-05
-2.15148e-06
2.36009e-05
-1.94105e-06
2.36465e-05
-1.8683e-06
2.36848e-05
-1.76481e-06
2.36573e-05
-1.60899e-06
2.36998e-05
-1.54173e-06
2.37451e-05
-1.46315e-06
2.37826e-05
-1.3939e-06
1.26555e-06
2.3796e-05
-1.349e-06
1.12998e-06
2.38591e-05
9.21842e-07
2.39164e-05
6.5651e-07
2.38459e-05
4.6003e-07
2.37844e-05
1.18838e-07
2.38478e-05
-1.97108e-07
2.37853e-05
-5.22651e-07
2.37842e-05
-7.39403e-07
2.37618e-05
-9.96819e-07
2.37914e-05
-1.14096e-06
2.37275e-05
-1.28136e-06
2.36368e-05
-2.34201e-05
2.34646e-05
-1.38591e-06
-2.33793e-05
-1.51727e-06
-2.33435e-05
-1.64628e-06
-2.33366e-05
-1.76226e-06
-2.33318e-05
-1.87833e-06
-2.33368e-05
-1.99852e-06
-2.33682e-05
-2.10861e-06
-2.34094e-05
-2.2272e-06
-2.34757e-05
-2.34613e-06
-2.35886e-05
-2.47879e-06
-2.36397e-05
-2.61313e-06
-2.37656e-05
-2.6671e-06
-2.38859e-05
-2.79518e-06
-2.40188e-05
-2.90949e-06
-2.41273e-05
-2.98592e-06
-2.42767e-05
-3.07586e-06
-2.43773e-05
-3.14004e-06
-2.45302e-05
-3.14317e-06
-2.4598e-05
-3.19731e-06
-2.46535e-05
-3.18779e-06
-2.46451e-05
-3.12197e-06
-2.45575e-05
-3.0022e-06
-2.44104e-05
-2.80338e-06
-2.41363e-05
-2.57239e-06
-2.4153e-05
-2.65431e-06
-2.39879e-05
-2.43822e-06
-2.40092e-05
-2.51644e-06
-2.40084e-05
-2.67158e-06
-2.40924e-05
-2.44332e-06
-2.42504e-05
-2.40263e-06
-2.45067e-05
-2.58539e-06
-3.11917e-06
-2.4954e-05
-2.54766e-05
-4.39757e-06
-2.00918e-05
-2.21127e-05
-2.05443e-05
-2.26345e-05
2.31548e-05
9.76716e-06
1.51693e-05
-1.89244e-05
-5.99714e-06
-2.55942e-05
-5.50021e-06
-2.27023e-05
-1.03342e-05
6.06318e-06
-2.43154e-05
-1.30919e-05
-2.45223e-05
-1.51184e-05
-1.67319e-06
-7.82381e-06
-2.02467e-05
-8.92359e-06
-2.16484e-05
2.24679e-06
-2.61991e-05
-5.45663e-06
-1.81649e-05
-2.32022e-05
-2.32014e-05
-1.73524e-05
1.27315e-06
-1.30298e-06
2.37682e-05
1.11287e-06
2.39165e-05
9.42158e-07
2.39443e-05
7.30168e-07
2.38831e-05
4.29661e-07
2.38877e-05
1.8337e-07
2.38826e-05
-1.5028e-07
2.39035e-05
-4.13701e-07
2.38388e-05
-7.00063e-07
2.38548e-05
-8.88582e-07
2.38123e-05
-1.04045e-06
2.3746e-05
-1.18098e-06
2.36844e-05
-1.30547e-06
2.35409e-05
-2.32522e-05
-1.34711e-06
2.32934e-05
-2.31644e-05
-1.48219e-06
-2.31372e-05
-1.56425e-06
-2.30958e-05
-1.72121e-06
-2.31016e-05
-1.80751e-06
-2.31078e-05
-1.94235e-06
-2.31111e-05
-2.08712e-06
-2.31552e-05
-2.17877e-06
-2.31939e-05
-2.32538e-06
-2.3277e-05
-2.42188e-06
-2.33746e-05
-2.56043e-06
-2.34919e-05
-2.69429e-06
-2.35549e-05
-2.81998e-06
-2.36811e-05
-2.90066e-06
-2.38099e-05
-3.02681e-06
-2.39107e-05
-3.1436e-06
-2.40502e-05
-3.20424e-06
-2.41802e-05
-3.28024e-06
-2.42512e-05
-3.33436e-06
-2.43432e-05
-3.35288e-06
-2.43903e-05
-3.37525e-06
-2.4388e-05
-3.34841e-06
-2.43308e-05
-3.27322e-06
-2.42006e-05
-3.13848e-06
-2.40077e-05
-2.95793e-06
-2.38057e-05
-3.03108e-06
-2.38988e-05
-2.49217e-06
-2.37298e-05
-2.81815e-06
-2.38586e-05
-2.65861e-06
-2.37704e-05
-2.6341e-06
-2.37964e-05
-2.46425e-06
-2.40216e-05
-2.43772e-06
-2.63958e-06
-2.4577e-05
-4.17086e-06
-2.53327e-05
1.9429e-05
-1.68916e-05
-2.10455e-05
-1.84927e-05
-2.44287e-05
1.39784e-05
-5.71557e-06
7.11983e-06
-1.52034e-05
3.19273e-05
-6.44475e-07
-3.12747e-05
1.30876e-07
2.34418e-05
2.69461e-06
-2.39367e-05
2.35191e-05
2.0242e-06
2.37696e-05
1.31782e-06
2.40549e-05
5.88738e-07
2.42371e-05
-1.0643e-07
2.43882e-05
-8.49682e-07
2.44571e-05
-1.25491e-06
2.45014e-05
-1.82796e-06
2.45241e-05
-2.22355e-06
2.45467e-05
-2.53722e-06
2.45726e-05
-2.78187e-06
2.46265e-05
-2.97903e-06
2.46388e-05
-3.12315e-06
2.46565e-05
-3.21181e-06
2.4666e-05
-3.29866e-06
2.46673e-05
-3.37378e-06
2.46799e-05
-3.44518e-06
2.45912e-05
-3.4683e-06
2.45028e-05
-3.45933e-06
2.43982e-05
-3.42231e-06
2.42859e-05
-3.35963e-06
2.41762e-05
-3.27597e-06
2.4073e-05
-3.17832e-06
2.3954e-05
-3.07326e-06
2.39091e-05
-2.94278e-06
2.37749e-05
-2.78714e-06
2.36728e-05
-2.72874e-06
2.35663e-05
-2.51353e-06
2.35383e-05
-2.40318e-06
2.34355e-05
-2.21526e-06
2.3445e-05
-2.09655e-06
2.34679e-05
-2.01613e-06
2.34039e-05
-1.80323e-06
2.34187e-05
-1.7064e-06
2.34649e-05
-1.65147e-06
2.35323e-05
-1.5768e-06
2.35538e-05
-1.44738e-06
2.35851e-05
-1.39945e-06
2.35873e-05
-1.31387e-06
-2.06595e-05
-2.41673e-05
2.42888e-05
-2.201e-05
-2.27291e-05
5.1328e-05
-2.30408e-06
3.85177e-06
-5.2802e-05
-2.2002e-05
-6.05818e-06
-1.77939e-05
-2.51825e-05
-6.05394e-06
-2.28105e-05
2.28402e-05
-1.32776e-06
-2.28e-05
-1.4488e-06
-2.27372e-05
-1.59051e-06
-2.27489e-05
-1.68358e-06
-2.27136e-05
-1.82958e-06
-2.2744e-05
-1.91363e-06
-2.27813e-05
-2.06854e-06
-2.27933e-05
-2.20304e-06
-2.28774e-05
-2.29519e-06
-2.29181e-05
-2.4521e-06
-2.30225e-05
-2.54225e-06
-2.31237e-05
-2.69276e-06
-2.32378e-05
-2.81781e-06
-2.33219e-05
-2.93834e-06
-2.34487e-05
-3.02971e-06
-2.35785e-05
-3.15012e-06
-2.36785e-05
-3.24427e-06
-2.37864e-05
-3.31123e-06
-2.38832e-05
-3.36662e-06
-2.39437e-05
-3.4033e-06
-2.39867e-05
-3.42414e-06
-2.39879e-05
-3.42371e-06
-2.39405e-05
-3.3839e-06
-2.38333e-05
-3.29963e-06
-2.36656e-05
-3.17086e-06
-2.36921e-05
-3.0388e-06
-2.33733e-05
-2.82843e-06
-2.32484e-05
-2.94254e-06
-2.32274e-05
-2.66827e-06
-2.32394e-05
-2.6007e-06
-2.31842e-05
-2.49383e-06
-2.32607e-05
-2.33547e-06
-2.38396e-05
-2.0359e-06
-3.62034e-06
-2.52014e-05
1.93183e-05
-1.58864e-05
1.58709e-05
-2.56911e-05
-1.59819e-05
1.2691e-06
-1.25155e-06
2.35685e-05
1.19745e-06
2.37923e-05
1.07898e-06
2.39449e-05
9.57019e-07
2.39381e-05
7.0349e-07
2.39775e-05
3.99125e-07
2.40107e-05
1.32494e-07
2.39547e-05
-7.69155e-08
2.39143e-05
-3.7782e-07
2.39472e-05
-6.06696e-07
2.3906e-05
-8.0373e-07
2.3856e-05
-1.01666e-06
2.38379e-05
-1.15067e-06
2.37363e-05
-1.22126e-06
2.35721e-05
-1.2563e-06
2.33337e-05
-1.28618e-06
2.29205e-05
2.34068e-05
-1.69267e-05
-2.34624e-05
2.5463e-05
-1.64402e-05
2.42645e-05
-1.38737e-05
2.30045e-05
-1.17892e-05
-1.0434e-05
-1.86305e-05
1.69838e-05
1.95859e-05
-8.86556e-06
-2.7574e-05
-8.53801e-06
8.20523e-06
2.11034e-07
1.85749e-07
-8.1125e-06
-1.69291e-05
1.5282e-05
2.19209e-05
2.42117e-06
-2.16087e-05
2.23262e-05
1.65623e-06
2.27229e-05
9.5713e-07
2.30509e-05
2.98087e-07
2.33395e-05
-3.48347e-07
2.34669e-05
-9.36259e-07
2.369e-05
-1.43516e-06
2.37975e-05
-1.89438e-06
2.38841e-05
-2.27375e-06
2.39583e-05
-2.58202e-06
2.40264e-05
-2.83026e-06
2.40805e-05
-3.02596e-06
2.41303e-05
-3.18031e-06
2.4174e-05
-3.2777e-06
2.42109e-05
-3.37366e-06
2.42211e-05
-3.43812e-06
2.41913e-05
-3.4848e-06
2.41381e-05
-3.49938e-06
2.40654e-05
-3.4848e-06
2.39779e-05
-3.44461e-06
2.3881e-05
-3.38145e-06
2.37798e-05
-3.30047e-06
2.3677e-05
-3.20564e-06
2.35714e-05
-3.09936e-06
2.34772e-05
-2.97856e-06
2.34122e-05
-2.84734e-06
2.329e-05
-2.72369e-06
2.32345e-05
-2.56453e-06
2.31361e-05
-2.39818e-06
2.31141e-05
-2.27145e-06
2.31225e-05
-2.16753e-06
2.30165e-05
-1.95641e-06
2.30597e-05
-1.87643e-06
2.31086e-05
-1.7686e-06
2.31334e-05
-1.67534e-06
2.30965e-05
-1.52632e-06
2.31411e-05
-1.46597e-06
2.31755e-05
-1.39947e-06
2.31845e-05
-1.28214e-06
2.31986e-05
-1.22085e-06
3.45797e-06
5.15291e-05
-3.58364e-06
-6.01567e-06
-2.49582e-05
-1.69497e-05
9.61027e-06
-2.027e-05
-2.62555e-05
2.58918e-05
-2.01997e-05
-2.62103e-05
-2.25664e-05
-2.43039e-05
-5.27827e-05
-7.21433e-06
5.77821e-05
4.15884e-05
-2.36591e-06
-3.88805e-05
2.15687e-05
-5.6036e-06
-2.58082e-05
-1.05565e-06
-2.63775e-05
2.04314e-05
1.45193e-05
-1.5579e-05
-1.02498e-05
-3.55447e-05
1.3163e-05
7.05056e-06
-1.27739e-05
-1.19812e-05
1.78493e-05
-1.49648e-06
-5.04804e-05
-2.42445e-06
5.45379e-05
-2.22142e-05
2.22186e-05
-1.19515e-06
-2.21828e-05
-1.26262e-06
-2.21356e-05
-1.39971e-06
-2.21348e-05
-1.49844e-06
-2.21092e-05
-1.62243e-06
-2.21361e-05
-1.72438e-06
-2.2116e-05
-1.86648e-06
-2.21612e-05
-1.96831e-06
-2.22224e-05
-2.09939e-06
-2.22636e-05
-2.22394e-06
-2.23509e-05
-2.34655e-06
-2.24142e-05
-2.47106e-06
-2.25109e-05
-2.59671e-06
-2.26162e-05
-2.7195e-06
-2.27304e-05
-2.83541e-06
-2.28305e-05
-2.94242e-06
-2.29448e-05
-3.04837e-06
-2.30567e-05
-3.14249e-06
-2.31527e-05
-3.22006e-06
-2.32287e-05
-3.28429e-06
-2.32904e-05
-3.31644e-06
-2.33192e-05
-3.34691e-06
-2.33204e-05
-3.35312e-06
-2.32853e-05
-3.33274e-06
-2.31892e-05
-3.29678e-06
-2.30266e-05
-3.22599e-06
-2.28821e-05
-3.06854e-06
-2.27817e-05
-2.80591e-06
-2.26452e-05
-2.94456e-06
-2.25292e-05
-2.64388e-06
-2.24196e-05
-2.5657e-06
-2.23651e-05
-2.40459e-06
-2.24908e-05
-2.06994e-06
-2.2709e-05
-1.68286e-06
-3.85976e-07
-2.32476e-05
2.22603e-05
-1.48276e-05
-3.39602e-05
2.91977e-05
-1.35469e-05
2.1634e-05
-1.4245e-05
-4.12233e-05
1.23055e-06
-1.16405e-06
2.31799e-05
1.24878e-06
2.35542e-05
1.16445e-06
2.38364e-05
1.07656e-06
2.39515e-05
8.92429e-07
2.40059e-05
6.72438e-07
2.40506e-05
4.8066e-07
2.40338e-05
2.47357e-07
2.40066e-05
-6.42149e-08
2.40397e-05
-3.05545e-07
2.40085e-05
-5.33217e-07
2.39681e-05
-7.64749e-07
2.39456e-05
-9.3686e-07
2.38993e-05
-1.0537e-06
2.37787e-05
-1.15067e-06
2.36347e-05
-1.18861e-06
2.33793e-05
-1.1394e-06
2.29214e-05
-1.08245e-06
2.2253e-05
-1.73003e-05
2.56476e-05
-1.48816e-05
2.3757e-05
-1.19154e-05
2.194e-05
-9.91808e-06
1.97329e-05
-8.17613e-06
-9.25363e-06
1.7815e-05
7.53139e-07
-1.90483e-06
2.50181e-05
-3.04466e-05
2.03093e-05
3.08233e-06
-1.95059e-05
-3.8176e-06
2.06645e-05
2.141e-06
2.10812e-05
1.32185e-06
2.14979e-05
6.32537e-07
2.18804e-05
2.31783e-08
2.21915e-05
-5.38978e-07
2.24399e-05
-1.04977e-06
2.26599e-05
-1.51172e-06
2.28208e-05
-1.90456e-06
2.29592e-05
-2.25588e-06
2.30812e-05
-2.54605e-06
2.31857e-05
-2.77973e-06
2.32737e-05
-2.96615e-06
2.33462e-05
-3.11436e-06
2.34122e-05
-3.21722e-06
2.34521e-05
-3.30111e-06
2.34708e-05
-3.35956e-06
2.34609e-05
-3.39389e-06
2.34271e-05
-3.40114e-06
2.33724e-05
-3.38216e-06
2.33011e-05
-3.34095e-06
2.32184e-05
-3.28014e-06
2.31264e-05
-3.20219e-06
2.30293e-05
-3.11191e-06
2.29276e-05
-3.00776e-06
2.28303e-05
-2.89502e-06
2.27414e-05
-2.77301e-06
2.265e-05
-2.64521e-06
2.25808e-05
-2.50281e-06
2.25459e-05
-2.36301e-06
2.25095e-05
-2.22532e-06
2.24143e-05
-2.05148e-06
2.24352e-05
-1.94489e-06
2.24338e-05
-1.83028e-06
2.24581e-05
-1.7363e-06
2.24174e-05
-1.56798e-06
2.24692e-05
-1.50261e-06
2.2507e-05
-1.42081e-06
2.24779e-05
-1.28226e-06
2.25187e-05
-1.23229e-06
2.2515e-05
-1.12625e-06
2.25141e-05
-1.07303e-06
2.40679e-05
-1.67033e-05
-2.43556e-05
-6.72545e-06
-2.45685e-05
2.07818e-05
-2.72774e-05
-2.62986e-05
2.55485e-05
-1.69066e-05
1.76679e-05
-2.69368e-05
-1.79289e-05
1.85934e-05
-1.93949e-05
-2.77691e-05
-2.46538e-05
-6.48887e-06
-2.87668e-05
-2.66069e-05
-2.2171e-05
-2.59e-05
-2.45676e-05
4.36132e-05
-4.2767e-05
-2.21878e-06
2.48588e-05
-1.48888e-05
1.284e-05
-2.27088e-05
-4.38379e-05
4.06899e-05
-4.18679e-06
2.05971e-05
-1.22041e-05
1.99957e-05
3.26931e-06
-1.23265e-05
2.27418e-05
1.17508e-05
5.27544e-05
-5.14352e-05
2.61092e-06
3.39395e-06
5.29038e-05
2.10275e-05
-1.2161e-06
2.10612e-05
-1.48483e-06
2.11373e-05
-1.89954e-06
2.12176e-05
-2.22696e-06
2.13891e-05
-2.47151e-06
2.15934e-05
-2.57935e-06
2.16047e-05
-2.6866e-06
2.18962e-05
-2.83116e-06
2.20345e-05
-2.94351e-06
2.21291e-05
-3.06385e-06
2.22072e-05
-3.12827e-06
2.22445e-05
-3.1398e-06
2.22467e-05
-3.1461e-06
2.22199e-05
-3.13616e-06
2.21763e-05
-3.11291e-06
2.21021e-05
-3.06943e-06
2.20187e-05
-3.00979e-06
2.19182e-05
-2.9254e-06
2.18181e-05
-2.84003e-06
2.17182e-05
-2.74064e-06
2.16136e-05
-2.63237e-06
2.15181e-05
-2.52721e-06
2.14251e-05
-2.40657e-06
2.13419e-05
-2.28781e-06
2.12749e-05
-2.17399e-06
2.12164e-05
-2.05361e-06
2.11704e-05
-1.93401e-06
2.11479e-05
-1.81835e-06
2.11245e-05
-1.70795e-06
2.11135e-05
-1.57264e-06
2.11268e-05
-1.49086e-06
2.11305e-05
-1.35562e-06
2.11354e-05
-1.2593e-06
2.11696e-05
-1.15481e-06
2.11616e-05
-1.05048e-06
2.11898e-05
-9.81102e-07
3.89671e-06
5.25468e-05
-4.82685e-06
1.15965e-06
-1.03776e-06
2.24796e-05
1.22051e-06
2.31669e-05
1.19888e-06
2.3582e-05
1.15665e-06
2.38434e-05
1.07215e-06
2.39625e-05
9.01022e-07
2.40677e-05
7.46927e-07
2.40669e-05
5.29083e-07
2.40931e-05
2.46204e-07
2.41181e-05
-7.51507e-09
2.41176e-05
-2.56108e-07
2.40853e-05
-5.09889e-07
2.40654e-05
-7.3044e-07
2.40319e-05
-8.81645e-07
2.39463e-05
-1.01321e-06
2.384e-05
-1.09789e-06
2.36877e-05
-1.09452e-06
2.33852e-05
-1.08285e-06
2.29573e-05
-9.80152e-07
2.22364e-05
-8.72039e-07
2.12035e-05
2.39663e-05
-1.48045e-05
-9.67976e-06
-2.34213e-05
-1.60017e-05
2.46262e-05
1.69206e-05
1.4521e-05
5.58125e-05
-4.29216e-05
-2.7334e-05
9.3847e-06
-4.75738e-05
5.42526e-06
-4.8775e-05
3.12649e-06
-4.90676e-05
4.99754e-05
1.1474e-06
-4.79262e-05
5.07226e-05
1.94372e-06
5.1362e-05
2.84174e-06
-5.28098e-06
6.97131e-06
4.97601e-05
1.58491e-05
-9.75215e-06
2.78851e-06
4.98503e-05
-4.92736e-05
-3.26983e-06
1.09666e-05
2.34214e-05
-9.43985e-06
8.63332e-06
2.06567e-05
-2.38351e-05
-5.3265e-06
2.42101e-05
-2.69614e-05
-1.5822e-05
2.59071e-05
-2.7905e-05
-1.69428e-05
-1.8229e-05
-2.9013e-05
-6.4505e-06
-2.3927e-05
2.3708e-05
-1.60335e-05
-2.44208e-05
3.88299e-06
-1.97738e-06
2.5594e-05
-1.11817e-05
2.30452e-05
-9.29118e-06
2.08047e-05
-7.61284e-06
1.9593e-05
-6.90226e-06
-6.93806e-06
1.73477e-05
-1.38826e-05
2.22454e-05
9.52594e-06
7.67897e-06
-3.54729e-06
-1.24435e-05
8.36632e-06
1.79847e-05
4.08196e-06
-4.8342e-06
-1.71441e-05
1.85462e-05
2.61948e-06
1.90766e-05
1.72166e-06
1.95436e-05
9.81858e-07
1.9967e-05
3.56599e-07
2.03528e-05
-1.89602e-07
2.06929e-05
-6.83504e-07
2.09907e-05
-1.12682e-06
2.12373e-05
-1.51791e-06
2.14579e-05
-1.86752e-06
2.16359e-05
-2.16264e-06
2.17966e-05
-2.42637e-06
2.19347e-05
-2.63315e-06
2.20519e-05
-2.79952e-06
2.21489e-05
-2.93283e-06
2.22333e-05
-3.03174e-06
2.22921e-05
-3.1019e-06
2.23287e-05
-3.15274e-06
2.2338e-05
-3.17658e-06
2.23261e-05
-3.18107e-06
2.22878e-05
-3.15449e-06
2.22305e-05
-3.11343e-06
2.21637e-05
-3.06146e-06
2.20815e-05
-2.9845e-06
2.1996e-05
-2.90573e-06
2.18976e-05
-2.80057e-06
2.18043e-05
-2.70227e-06
2.17121e-05
-2.58757e-06
2.163e-05
-2.47299e-06
2.15488e-05
-2.33139e-06
2.15026e-05
-2.22406e-06
2.1455e-05
-2.08035e-06
2.14527e-05
-1.9456e-06
2.14424e-05
-1.82434e-06
2.14346e-05
-1.70524e-06
2.13915e-05
-1.56945e-06
2.13987e-05
-1.44519e-06
2.14348e-05
-1.40398e-06
2.14096e-05
-1.25887e-06
2.14511e-05
-1.18531e-06
2.14654e-05
-1.10928e-06
2.14564e-05
-9.8218e-07
2.14658e-05
-9.52807e-07
2.14509e-05
-8.9979e-07
2.62091e-05
1.40774e-05
-2.73686e-05
2.45259e-05
1.27239e-05
-9.35155e-06
1.16544e-05
2.22887e-05
-3.90024e-05
2.14825e-06
3.96152e-05
-2.61687e-06
2.02701e-05
-6.12641e-06
-7.3232e-06
-2.38093e-05
-8.10257e-07
4.94486e-05
6.87447e-07
9.89844e-06
1.77696e-05
-7.33488e-06
6.32692e-06
5.04111e-05
-9.31752e-06
-4.7291e-05
-2.76117e-05
-2.48323e-05
-2.82524e-05
-2.13667e-05
-2.85133e-05
1.44121e-05
-2.70424e-05
2.54159e-05
2.71844e-05
-1.54513e-05
-2.86177e-05
2.58221e-05
5.16101e-05
-2.83456e-05
4.1943e-05
3.27926e-06
-1.47036e-06
-5.10548e-05
8.77606e-06
4.93573e-05
3.04687e-05
-2.79905e-05
-3.55987e-05
-2.18453e-05
-4.68375e-06
2.04917e-05
-6.97012e-06
-5.03877e-05
2.27165e-06
-4.93334e-05
9.75054e-07
-4.71757e-05
-9.38169e-07
1.88516e-05
-1.22725e-06
1.91605e-05
-1.47326e-06
1.9345e-05
-1.73889e-06
1.95084e-05
-2.02501e-06
1.96567e-05
-2.23903e-06
1.98735e-05
-2.4042e-06
2.00344e-05
-2.4482e-06
2.02399e-05
-2.63413e-06
2.03571e-05
-2.65934e-06
2.04514e-05
-2.76393e-06
2.05048e-05
-2.80049e-06
2.05699e-05
-2.843e-06
2.05933e-05
-2.83062e-06
2.05941e-05
-2.82355e-06
2.05631e-05
-2.79235e-06
2.05084e-05
-2.74543e-06
2.04406e-05
-2.69014e-06
2.03614e-05
-2.61021e-06
2.02741e-05
-2.53044e-06
2.01836e-05
-2.43962e-06
2.00906e-05
-2.33777e-06
1.99981e-05
-2.24004e-06
1.99153e-05
-2.13372e-06
1.98428e-05
-2.02738e-06
1.97751e-05
-1.91794e-06
1.97225e-05
-1.81106e-06
1.96855e-05
-1.7042e-06
1.96583e-05
-1.59541e-06
1.96374e-05
-1.48885e-06
1.965e-05
-1.38536e-06
1.9629e-05
-1.27095e-06
1.96393e-05
-1.16976e-06
1.96677e-05
-1.09654e-06
1.96717e-05
-9.75025e-07
1.96969e-05
-9.01481e-07
1.96905e-05
-8.09906e-07
1.97249e-05
-7.53288e-07
-1.77095e-05
-4.87887e-06
1.57189e-05
-1.95241e-05
-5.01619e-06
-2.14756e-05
-5.58213e-06
-2.41532e-05
-6.52209e-06
-2.74086e-05
-7.81668e-06
-3.15658e-05
-9.25756e-06
-1.77808e-05
1.53247e-05
1.40024e-05
-1.18254e-05
2.33911e-05
-2.11384e-05
1.99234e-05
-1.47841e-05
2.47075e-05
1.3367e-05
2.37571e-05
-2.73694e-06
5.08309e-05
1.75635e-06
3.17975e-06
5.22567e-05
1.42342e-05
-3.03991e-05
-1.11202e-05
-1.65342e-05
-3.02424e-05
2.74891e-05
-9.6669e-06
6.29768e-06