/*--------------------------------*- C++ -*----------------------------------*\
| =========                 |                                                 |
| \\      /  F ield         | OpenFOAM: The Open Source CFD Toolbox           |
|  \\    /   O peration     | Version:  2212                                  |
|   \\  /    A nd           | Website:  www.openfoam.com                      |
|    \\/     M anipulation  |                                                 |
\*---------------------------------------------------------------------------*/
FoamFile
{
    version     2.0;
    format      ascii;
    arch        "LSB;label=32;scalar=64";
    class       volSymmTensorField;
    location    "0.473";
    object      UPrime2Mean;
}
// * * * * * * * * * * * * * * * * * * * * * * * * * * * * * * * * * * * * * //

dimensions      [0 2 -2 0 0 0 0];

internalField   nonuniform List<symmTensor> 
24240
(
(0.0692786 -0.0246664 -4.63017e-08 0.00906513 1.69176e-08 1.6313e-13)
(0.0692397 -0.0246608 1.02293e-08 0.00906646 -1.62425e-09 9.22444e-13)
(0.0692399 -0.0246607 -6.30347e-08 0.00906634 2.69469e-08 2.30022e-12)
(0.0692398 -0.0246606 -5.49776e-08 0.00906622 2.56797e-08 4.15511e-12)
(0.0692398 -0.0246603 -9.924e-08 0.00906606 4.36285e-08 6.28108e-12)
(0.0692397 -0.0246601 -1.10058e-07 0.00906587 4.88227e-08 8.3026e-12)
(0.0692397 -0.0246598 -1.36234e-07 0.00906566 5.96219e-08 1.00788e-11)
(0.0692397 -0.0246595 -1.47648e-07 0.00906543 6.45835e-08 1.13526e-11)
(0.0692396 -0.0246592 -1.62698e-07 0.00906519 7.07357e-08 1.20759e-11)
(0.0692396 -0.0246589 -1.69283e-07 0.00906494 7.34175e-08 1.21642e-11)
(0.0692396 -0.0246586 -1.76011e-07 0.0090647 7.59587e-08 1.16897e-11)
(0.0692396 -0.0246583 -1.74796e-07 0.00906447 7.52251e-08 1.07073e-11)
(0.0692396 -0.024658 -1.74545e-07 0.00906424 7.47053e-08 9.38135e-12)
(0.0692396 -0.0246577 -1.63646e-07 0.00906404 6.99031e-08 7.80824e-12)
(0.0692396 -0.0246575 -1.61824e-07 0.00906386 6.84636e-08 6.23345e-12)
(0.0692396 -0.0246573 -1.37872e-07 0.00906369 5.85248e-08 4.63989e-12)
(0.0692396 -0.0246571 -1.45195e-07 0.00906356 6.0286e-08 3.34664e-12)
(0.0692397 -0.024657 -9.36427e-08 0.00906344 4.00454e-08 1.99477e-12)
(0.0692395 -0.0246569 -1.13085e-07 0.0090634 4.54372e-08 1.07902e-12)
(0.0692784 -0.0246624 1.21037e-08 0.00906199 -2.21448e-09 1.37508e-13)
(0.00282357 -0.00470373 2.01212e-08 0.0085041 -3.32304e-08 2.25811e-13)
(0.00281488 -0.00469679 3.13307e-08 0.00850551 -5.29074e-08 7.38785e-13)
(0.00281488 -0.00469681 3.91837e-08 0.00850554 -6.7515e-08 1.41406e-12)
(0.00281487 -0.00469682 5.36715e-08 0.00850563 -9.28572e-08 2.57593e-12)
(0.00281486 -0.00469685 6.09308e-08 0.00850574 -1.05899e-07 3.57132e-12)
(0.00281485 -0.00469688 7.01854e-08 0.00850587 -1.21942e-07 4.71623e-12)
(0.00281484 -0.00469691 7.44178e-08 0.00850601 -1.2944e-07 5.49738e-12)
(0.00281482 -0.00469695 7.81394e-08 0.00850617 -1.35787e-07 6.11105e-12)
(0.00281481 -0.00469698 7.83226e-08 0.00850634 -1.3609e-07 6.29714e-12)
(0.00281479 -0.00469702 7.72929e-08 0.00850651 -1.34135e-07 6.21908e-12)
(0.00281477 -0.00469706 7.35695e-08 0.00850667 -1.27599e-07 5.77183e-12)
(0.00281475 -0.00469709 6.8905e-08 0.00850683 -1.19298e-07 5.1311e-12)
(0.00281473 -0.00469712 6.19872e-08 0.00850699 -1.07242e-07 4.27017e-12)
(0.00281471 -0.00469714 5.533e-08 0.00850713 -9.54824e-08 3.42182e-12)
(0.00281469 -0.00469716 4.59817e-08 0.00850725 -7.93617e-08 2.49296e-12)
(0.00281467 -0.00469718 3.8943e-08 0.00850736 -6.705e-08 1.76982e-12)
(0.00281464 -0.00469719 2.6766e-08 0.00850746 -4.64003e-08 1.01349e-12)
(0.00281463 -0.00469719 1.98357e-08 0.00850752 -3.45221e-08 5.52505e-13)
(0.0028146 -0.00469719 3.69858e-09 0.0085076 -7.46295e-09 1.40982e-13)
(0.00282329 -0.00470415 -8.65805e-09 0.00850624 1.35185e-08 5.33385e-14)
(0.00253198 -0.00583465 3.13372e-09 0.0154814 -4.54878e-09 2.56594e-14)
(0.00252366 -0.00582459 -1.64318e-08 0.0154829 4.88319e-08 2.35655e-13)
(0.00252366 -0.00582459 -3.64881e-08 0.0154828 1.0375e-07 8.99733e-13)
(0.00252364 -0.00582456 -5.03853e-08 0.0154828 1.42371e-07 1.68986e-12)
(0.00252362 -0.00582453 -6.93849e-08 0.0154827 1.92566e-07 2.97858e-12)
(0.00252359 -0.0058245 -8.01812e-08 0.0154826 2.22625e-07 3.99696e-12)
(0.00252356 -0.00582447 -9.12934e-08 0.0154825 2.52548e-07 5.11728e-12)
(0.00252353 -0.00582444 -9.76825e-08 0.0154823 2.70436e-07 5.88789e-12)
(0.0025235 -0.00582441 -1.02511e-07 0.0154822 2.83649e-07 6.48696e-12)
(0.00252347 -0.00582438 -1.03792e-07 0.0154821 2.87619e-07 6.70461e-12)
(0.00252344 -0.00582435 -1.03161e-07 0.0154819 2.8611e-07 6.66672e-12)
(0.00252341 -0.00582433 -9.93787e-08 0.0154818 2.76355e-07 6.27004e-12)
(0.00252339 -0.00582431 -9.42792e-08 0.0154817 2.62563e-07 5.70135e-12)
(0.00252336 -0.00582429 -8.61297e-08 0.0154816 2.4092e-07 4.861e-12)
(0.00252334 -0.00582428 -7.86876e-08 0.0154814 2.2013e-07 4.08817e-12)
(0.00252333 -0.00582427 -6.68834e-08 0.0154813 1.88539e-07 3.07764e-12)
(0.00252331 -0.00582426 -6.06879e-08 0.0154813 1.69527e-07 2.48877e-12)
(0.0025233 -0.00582425 -4.5868e-08 0.0154812 1.29287e-07 1.52451e-12)
(0.00252329 -0.00582425 -3.51201e-08 0.0154811 9.83939e-08 8.78714e-13)
(0.00253156 -0.00583427 -2.0815e-08 0.0154796 5.52236e-08 2.59402e-13)
(0.00207488 0.00533985 -1.63273e-08 0.0150476 -4.78508e-08 1.95667e-13)
(0.00208194 0.00535037 -3.49052e-08 0.015049 -1.00787e-07 8.79233e-13)
(0.00208196 0.00535038 -4.83834e-08 0.015049 -1.38529e-07 1.67822e-12)
(0.00208197 0.0053504 -6.57007e-08 0.015049 -1.88123e-07 3.08226e-12)
(0.002082 0.00535043 -8.02335e-08 0.015049 -2.29968e-07 4.61736e-12)
(0.00208204 0.00535048 -9.20464e-08 0.0150491 -2.63997e-07 6.08231e-12)
(0.00208208 0.00535053 -9.97925e-08 0.0150491 -2.86357e-07 7.173e-12)
(0.00208212 0.00535058 -1.04996e-07 0.0150491 -3.01565e-07 7.96724e-12)
(0.00208216 0.00535064 -1.06567e-07 0.0150491 -3.06321e-07 8.23898e-12)
(0.00208221 0.0053507 -1.05694e-07 0.0150491 -3.04165e-07 8.14068e-12)
(0.00208226 0.00535076 -1.01933e-07 0.0150491 -2.93654e-07 7.60089e-12)
(0.00208231 0.00535082 -9.62871e-08 0.0150491 -2.77784e-07 6.81229e-12)
(0.00208235 0.00535088 -8.83784e-08 0.0150491 -2.55277e-07 5.76104e-12)
(0.0020824 0.00535093 -7.96903e-08 0.015049 -2.30567e-07 4.70052e-12)
(0.00208244 0.00535099 -6.92171e-08 0.015049 -2.0051e-07 3.56143e-12)
(0.00208248 0.00535103 -5.91855e-08 0.015049 -1.71725e-07 2.60865e-12)
(0.00208252 0.00535108 -4.79968e-08 0.015049 -1.39511e-07 1.73352e-12)
(0.00208255 0.00535113 -3.68373e-08 0.015049 -1.07109e-07 1.02097e-12)
(0.00208259 0.00535118 -1.73993e-08 0.015049 -5.01195e-08 2.5864e-13)
(0.00207553 0.00534066 -9.97818e-10 0.0150475 -2.27755e-09 1.6309e-14)
(0.00341278 0.00481257 1.91657e-09 0.00814688 2.08104e-09 1.77806e-14)
(0.00342138 0.0048205 2.36636e-08 0.00814761 4.07339e-08 3.57107e-13)
(0.00342136 0.00482049 4.91382e-08 0.00814763 8.71727e-08 1.40029e-12)
(0.00342134 0.00482049 6.68315e-08 0.00814769 1.19063e-07 2.61804e-12)
(0.00342133 0.0048205 8.28714e-08 0.00814774 1.47971e-07 4.02587e-12)
(0.00342131 0.00482051 9.55075e-08 0.0081478 1.70869e-07 5.36697e-12)
(0.00342129 0.00482051 1.06158e-07 0.00814786 1.90421e-07 6.6324e-12)
(0.00342127 0.00482052 1.12792e-07 0.00814793 2.02651e-07 7.50385e-12)
(0.00342124 0.00482053 1.16814e-07 0.00814801 2.1036e-07 8.06526e-12)
(0.00342122 0.00482053 1.17159e-07 0.00814808 2.1134e-07 8.14033e-12)
(0.00342119 0.00482054 1.14945e-07 0.00814815 2.07846e-07 7.8723e-12)
(0.00342116 0.00482054 1.09551e-07 0.00814822 1.98433e-07 7.1927e-12)
(0.00342114 0.00482055 1.02283e-07 0.00814828 1.85774e-07 6.31973e-12)
(0.00342112 0.00482055 9.23399e-08 0.00814834 1.68025e-07 5.20633e-12)
(0.0034211 0.00482055 8.17268e-08 0.00814839 1.49249e-07 4.13433e-12)
(0.00342108 0.00482055 6.85119e-08 0.00814844 1.2543e-07 2.97919e-12)
(0.00342108 0.00482056 5.54309e-08 0.00814848 1.01944e-07 2.01238e-12)
(0.00342108 0.00482057 4.0207e-08 0.00814848 7.43187e-08 1.12493e-12)
(0.00342108 0.00482058 3.13536e-08 0.00814851 5.89432e-08 6.65764e-13)
(0.00341251 0.00481269 1.66652e-08 0.0081478 3.19661e-08 1.79102e-13)
(0.00924465 0.00852194 -2.82402e-08 0.0079976 -2.68553e-08 1.17241e-13)
(0.0092609 0.00852996 -5.92594e-08 0.00799826 -5.62203e-08 5.6665e-13)
(0.00926091 0.00852994 -8.30784e-08 0.00799822 -7.87615e-08 1.2122e-12)
(0.00926094 0.00852991 -1.10222e-07 0.00799814 -1.0446e-07 2.1663e-12)
(0.00926098 0.00852988 -1.29283e-07 0.00799805 -1.22493e-07 3.08236e-12)
(0.00926102 0.00852985 -1.47948e-07 0.00799795 -1.40171e-07 4.0675e-12)
(0.00926107 0.00852981 -1.59705e-07 0.00799784 -1.51301e-07 4.82471e-12)
(0.00926113 0.00852977 -1.68298e-07 0.00799772 -1.5944e-07 5.4092e-12)
(0.00926119 0.00852973 -1.70907e-07 0.00799759 -1.61905e-07 5.66708e-12)
(0.00926125 0.00852969 -1.69995e-07 0.00799746 -1.61034e-07 5.67396e-12)
(0.00926132 0.00852965 -1.64116e-07 0.00799733 -1.55447e-07 5.38032e-12)
(0.00926138 0.00852961 -1.5551e-07 0.00799721 -1.47275e-07 4.89853e-12)
(0.00926145 0.00852958 -1.42719e-07 0.0079971 -1.35124e-07 4.21839e-12)
(0.00926151 0.00852955 -1.28924e-07 0.00799699 -1.22024e-07 3.49608e-12)
(0.00926157 0.00852953 -1.11199e-07 0.0079969 -1.05184e-07 2.69403e-12)
(0.00926163 0.00852951 -9.49359e-08 0.00799682 -8.97346e-08 1.99748e-12)
(0.00926169 0.0085295 -7.26305e-08 0.00799676 -6.85402e-08 1.27981e-12)
(0.00926173 0.0085295 -5.45406e-08 0.00799672 -5.13785e-08 7.51774e-13)
(0.0092618 0.00852952 -2.53895e-08 0.0079967 -2.3769e-08 2.65018e-13)
(0.00924556 0.00852149 3.12397e-10 0.00799599 4.74359e-10 3.31936e-14)
(0.0107845 0.00425975 -8.14471e-09 0.00175342 -3.57427e-09 3.28376e-14)
(0.0108017 0.00426354 1.17292e-08 0.00175358 4.75282e-09 2.42937e-13)
(0.0108017 0.00426356 3.93218e-08 0.0017536 1.64363e-08 8.27506e-13)
(0.0108017 0.0042636 5.54975e-08 0.00175365 2.32662e-08 1.56536e-12)
(0.0108017 0.00426365 7.08507e-08 0.00175369 2.97748e-08 2.43131e-12)
(0.0108016 0.00426371 8.23197e-08 0.00175374 3.4663e-08 3.26887e-12)
(0.0108016 0.00426377 9.25462e-08 0.0017538 3.90609e-08 4.04856e-12)
(0.0108016 0.00426383 9.86656e-08 0.00175386 4.17351e-08 4.61621e-12)
(0.0108015 0.0042639 1.02987e-07 0.00175392 4.36769e-08 4.99266e-12)
(0.0108015 0.00426397 1.03621e-07 0.00175399 4.40631e-08 5.0855e-12)
(0.0108014 0.00426403 1.02559e-07 0.00175405 4.37467e-08 4.96537e-12)
(0.0108014 0.0042641 9.82198e-08 0.00175411 4.20292e-08 4.59359e-12)
(0.0108014 0.00426416 9.29056e-08 0.00175417 3.98996e-08 4.0884e-12)
(0.0108013 0.00426421 8.45578e-08 0.00175422 3.64515e-08 3.4292e-12)
(0.0108013 0.00426426 7.64422e-08 0.00175427 3.30893e-08 2.76635e-12)
(0.0108013 0.0042643 6.50322e-08 0.00175431 2.82801e-08 2.05498e-12)
(0.0108013 0.00426434 5.50299e-08 0.00175435 2.40392e-08 1.43767e-12)
(0.0108013 0.00426436 4.16212e-08 0.00175437 1.82811e-08 8.46918e-13)
(0.0108013 0.00426439 3.91144e-08 0.00175439 1.71264e-08 4.83424e-13)
(0.0107841 0.00426064 2.5774e-08 0.00175425 1.12138e-08 1.30102e-13)
(0.0145906 0.00474059 -1.96712e-08 0.00155984 -6.5962e-09 5.82593e-14)
(0.0146113 0.00474415 -2.90073e-08 0.00155995 -9.9938e-09 3.77389e-13)
(0.0146113 0.00474411 -3.05874e-08 0.00155993 -1.08327e-08 9.89394e-13)
(0.0146112 0.00474406 -3.82473e-08 0.00155989 -1.36211e-08 1.82763e-12)
(0.0146112 0.00474399 -4.00393e-08 0.00155985 -1.44594e-08 2.79471e-12)
(0.0146111 0.00474391 -4.57013e-08 0.00155981 -1.65071e-08 3.74385e-12)
(0.014611 0.00474382 -4.78822e-08 0.00155975 -1.7367e-08 4.59167e-12)
(0.014611 0.00474372 -5.09717e-08 0.0015597 -1.84636e-08 5.22357e-12)
(0.0146109 0.00474362 -5.13355e-08 0.00155964 -1.86135e-08 5.60109e-12)
(0.0146108 0.00474352 -5.15541e-08 0.00155958 -1.86566e-08 5.67534e-12)
(0.0146108 0.00474342 -4.91891e-08 0.00155952 -1.78038e-08 5.47243e-12)
(0.0146107 0.00474333 -4.66262e-08 0.00155947 -1.68361e-08 5.00801e-12)
(0.0146107 0.00474324 -4.12859e-08 0.00155942 -1.49228e-08 4.36568e-12)
(0.0146106 0.00474317 -3.65898e-08 0.00155937 -1.31885e-08 3.60018e-12)
(0.0146106 0.0047431 -2.83739e-08 0.00155933 -1.02876e-08 2.81713e-12)
(0.0146105 0.00474305 -2.26966e-08 0.0015593 -8.20704e-09 2.05254e-12)
(0.0146105 0.00474301 -1.0703e-08 0.00155928 -4.06748e-09 1.39416e-12)
(0.0146105 0.00474298 -4.82278e-09 0.00155926 -1.93104e-09 8.05591e-13)
(0.0146105 0.00474297 9.5129e-09 0.00155925 2.96268e-09 3.71419e-13)
(0.0145898 0.00473938 1.40897e-08 0.00155913 4.58633e-09 7.76638e-14)
(0.0147459 -0.0011711 -2.1394e-08 0.000129054 2.37955e-09 7.10342e-14)
(0.0147665 -0.00117211 -2.72156e-08 0.000129061 3.04159e-09 3.16749e-13)
(0.0147665 -0.00117205 -2.36066e-08 0.00012905 2.62766e-09 7.10143e-13)
(0.0147665 -0.00117197 -2.77684e-08 0.000129032 3.07067e-09 1.27988e-12)
(0.0147665 -0.00117188 -2.79359e-08 0.00012901 3.02001e-09 1.90426e-12)
(0.0147665 -0.00117176 -3.06241e-08 0.000128985 3.26919e-09 2.53865e-12)
(0.0147665 -0.00117163 -3.04999e-08 0.000128956 3.17226e-09 3.08535e-12)
(0.0147665 -0.00117149 -3.10481e-08 0.000128926 3.16322e-09 3.5019e-12)
(0.0147665 -0.00117134 -2.92362e-08 0.000128894 2.87144e-09 3.73135e-12)
(0.0147666 -0.0011712 -2.73286e-08 0.000128861 2.5842e-09 3.76572e-12)
(0.0147666 -0.00117105 -2.32781e-08 0.000128829 2.05157e-09 3.60243e-12)
(0.0147666 -0.00117091 -1.92986e-08 0.000128798 1.55221e-09 3.27555e-12)
(0.0147666 -0.00117078 -1.33016e-08 0.000128769 8.31927e-10 2.82641e-12)
(0.0147666 -0.00117066 -8.35035e-09 0.000128743 2.64575e-10 2.31337e-12)
(0.0147666 -0.00117055 -9.5093e-10 0.00012872 -5.52241e-10 1.79294e-12)
(0.0147666 -0.00117046 3.79465e-09 0.0001287 -1.01909e-09 1.30286e-12)
(0.0147666 -0.00117038 1.26117e-08 0.000128683 -1.90554e-09 8.84693e-13)
(0.0147665 -0.00117033 1.54198e-08 0.000128672 -2.07507e-09 5.203e-13)
(0.0147666 -0.00117028 2.68139e-08 0.000128663 -3.17126e-09 2.77795e-13)
(0.0147459 -0.00116923 2.31354e-08 0.000128646 -2.59961e-09 7.76687e-14)
(0.016187 -0.00139069 -4.65122e-10 0.000140198 -3.45447e-10 2.9035e-14)
(0.0162088 -0.00139186 3.86273e-08 0.000140224 -5.48702e-09 5.16266e-13)
(0.0162086 -0.00139191 8.50045e-08 0.000140236 -1.14041e-08 1.78684e-12)
(0.0162085 -0.001392 1.18172e-07 0.000140253 -1.57994e-08 3.37068e-12)
(0.0162083 -0.0013921 1.50193e-07 0.000140274 -1.99964e-08 5.29104e-12)
(0.0162081 -0.00139221 1.73276e-07 0.000140299 -2.31013e-08 7.07786e-12)
(0.0162079 -0.00139234 1.9227e-07 0.000140327 -2.56482e-08 8.71139e-12)
(0.0162077 -0.00139249 2.03445e-07 0.000140357 -2.72021e-08 9.85426e-12)
(0.0162074 -0.00139263 2.09911e-07 0.000140389 -2.81126e-08 1.05458e-11)
(0.0162071 -0.00139278 2.09591e-07 0.000140421 -2.81375e-08 1.06164e-11)
(0.0162069 -0.00139293 2.05246e-07 0.000140452 -2.75953e-08 1.02135e-11)
(0.0162067 -0.00139307 1.95214e-07 0.000140482 -2.63013e-08 9.29667e-12)
(0.0162064 -0.0013932 1.82616e-07 0.00014051 -2.46193e-08 8.10947e-12)
(0.0162062 -0.00139331 1.65342e-07 0.000140535 -2.23316e-08 6.66554e-12)
(0.016206 -0.00139342 1.4793e-07 0.000140557 -1.99431e-08 5.24961e-12)
(0.0162059 -0.0013935 1.26617e-07 0.000140575 -1.70669e-08 3.82263e-12)
(0.0162057 -0.00139356 1.0815e-07 0.00014059 -1.44209e-08 2.63607e-12)
(0.0162056 -0.00139361 8.42558e-08 0.000140599 -1.11326e-08 1.53352e-12)
(0.0162056 -0.00139364 6.54239e-08 0.000140606 -8.36849e-09 7.77487e-13)
(0.0161837 -0.00139251 3.42552e-08 0.00014059 -4.1768e-09 1.64413e-13)
(0.0140253 -0.00745477 -4.05327e-08 0.00419252 2.39096e-08 1.6179e-13)
(0.0140455 -0.00746082 -9.47651e-08 0.00419287 5.48547e-08 8.73333e-13)
(0.0140455 -0.00746078 -1.37557e-07 0.00419282 7.90407e-08 1.87451e-12)
(0.0140456 -0.00746072 -1.81927e-07 0.00419274 1.04308e-07 3.28923e-12)
(0.0140456 -0.00746064 -2.15264e-07 0.00419265 1.22969e-07 4.62692e-12)
(0.0140456 -0.00746055 -2.46389e-07 0.00419253 1.40626e-07 6.07508e-12)
(0.0140457 -0.00746045 -2.67614e-07 0.0041924 1.52491e-07 7.19054e-12)
(0.0140457 -0.00746034 -2.82269e-07 0.00419226 1.60702e-07 8.0254e-12)
(0.0140457 -0.00746022 -2.87073e-07 0.00419212 1.63199e-07 8.34106e-12)
(0.0140458 -0.0074601 -2.84085e-07 0.00419197 1.613e-07 8.21956e-12)
(0.0140458 -0.00745999 -2.71945e-07 0.00419182 1.5412e-07 7.60302e-12)
(0.0140459 -0.00745987 -2.53234e-07 0.00419168 1.43249e-07 6.67527e-12)
(0.0140459 -0.00745976 -2.27192e-07 0.00419154 1.28162e-07 5.47716e-12)
(0.014046 -0.00745967 -1.97745e-07 0.00419142 1.11232e-07 4.25718e-12)
(0.014046 -0.00745958 -1.62812e-07 0.00419131 9.113e-08 3.01899e-12)
(0.014046 -0.0074595 -1.28775e-07 0.00419121 7.17201e-08 2.00953e-12)
(0.014046 -0.00745944 -8.84193e-08 0.00419113 4.8546e-08 1.10304e-12)
(0.014046 -0.00745939 -5.51565e-08 0.00419108 2.97889e-08 5.42641e-13)
(0.0140461 -0.00745937 -1.72479e-08 0.00419104 8.27729e-09 1.7364e-13)
(0.0140258 -0.00745326 4.89561e-09 0.00419064 -3.81049e-09 2.81079e-14)
(0.0137687 -0.00719713 1.50591e-08 0.00404811 -1.02051e-08 5.97858e-14)
(0.0137884 -0.00720312 8.57388e-08 0.00404853 -5.53379e-08 1.17125e-12)
(0.0137882 -0.00720311 1.62937e-07 0.00404857 -1.04763e-07 3.99041e-12)
(0.013788 -0.00720312 2.23085e-07 0.00404864 -1.43457e-07 7.45699e-12)
(0.0137878 -0.00720311 2.76299e-07 0.00404871 -1.77764e-07 1.14343e-11)
(0.0137875 -0.0072031 3.18885e-07 0.0040488 -2.05368e-07 1.52923e-11)
(0.0137872 -0.0072031 3.52374e-07 0.0040489 -2.27186e-07 1.875e-11)
(0.0137869 -0.00720309 3.74131e-07 0.00404901 -2.41521e-07 2.12561e-11)
(0.0137865 -0.00720308 3.86132e-07 0.00404912 -2.49611e-07 2.27649e-11)
(0.0137861 -0.00720307 3.86832e-07 0.00404923 -2.5044e-07 2.29891e-11)
(0.0137858 -0.00720305 3.78656e-07 0.00404934 -2.45538e-07 2.21525e-11)
(0.0137854 -0.00720304 3.60561e-07 0.00404944 -2.34239e-07 2.0225e-11)
(0.0137851 -0.00720303 3.3571e-07 0.00404954 -2.18523e-07 1.76434e-11)
(0.0137848 -0.00720301 3.03209e-07 0.00404963 -1.9785e-07 1.45218e-11)
(0.0137845 -0.00720299 2.67176e-07 0.00404971 -1.74712e-07 1.13492e-11)
(0.0137843 -0.00720298 2.26488e-07 0.00404977 -1.48454e-07 8.22718e-12)
(0.0137841 -0.00720297 1.8491e-07 0.00404983 -1.21239e-07 5.4722e-12)
(0.0137839 -0.00720295 1.3982e-07 0.00404986 -9.16131e-08 3.11346e-12)
(0.0137838 -0.00720294 9.7766e-08 0.00404989 -6.41168e-08 1.50659e-12)
(0.0137641 -0.00719695 4.38745e-08 0.0040495 -2.84789e-08 2.78645e-13)
(0.00949842 -0.0113295 -4.39784e-08 0.0141743 5.86522e-08 2.95823e-13)
(0.00951484 -0.0113404 -1.11147e-07 0.0141756 1.46081e-07 1.79469e-12)
(0.00951485 -0.0113404 -1.69827e-07 0.0141755 2.22572e-07 4.18688e-12)
(0.0095149 -0.0113404 -2.26228e-07 0.0141754 2.96064e-07 7.39592e-12)
(0.00951494 -0.0113404 -2.68499e-07 0.0141752 3.50582e-07 1.03551e-11)
(0.00951499 -0.0113404 -3.08194e-07 0.0141751 4.0224e-07 1.36197e-11)
(0.00951505 -0.0113403 -3.35868e-07 0.0141749 4.3802e-07 1.61358e-11)
(0.00951511 -0.0113403 -3.54769e-07 0.0141747 4.62511e-07 1.79889e-11)
(0.00951518 -0.0113403 -3.61846e-07 0.0141745 4.71472e-07 1.87008e-11)
(0.00951525 -0.0113402 -3.58848e-07 0.0141743 4.67364e-07 1.84071e-11)
(0.00951532 -0.0113402 -3.45046e-07 0.014174 4.491e-07 1.70479e-11)
(0.00951538 -0.0113401 -3.22839e-07 0.0141738 4.19946e-07 1.49812e-11)
(0.00951545 -0.0113401 -2.92315e-07 0.0141736 3.79904e-07 1.23556e-11)
(0.0095155 -0.0113401 -2.57154e-07 0.0141735 3.33918e-07 9.65117e-12)
(0.00951555 -0.0113401 -2.16194e-07 0.0141733 2.8028e-07 6.9167e-12)
(0.00951559 -0.01134 -1.75354e-07 0.0141732 2.27003e-07 4.64338e-12)
(0.00951563 -0.01134 -1.26447e-07 0.0141731 1.62897e-07 2.5134e-12)
(0.00951565 -0.01134 -8.46169e-08 0.014173 1.08548e-07 1.20498e-12)
(0.00951572 -0.01134 -4.10384e-08 0.014173 5.18065e-08 3.56073e-13)
(0.00949925 -0.011329 -6.43399e-09 0.0141717 6.9532e-09 2.66558e-14)
(0.00726844 -0.00908516 1.65879e-08 0.0137136 -3.15603e-08 1.18129e-13)
(0.00728142 -0.00909583 7.91372e-08 0.0137149 -1.43664e-07 2.02283e-12)
(0.00728129 -0.00909575 1.46896e-07 0.0137149 -2.66269e-07 6.7751e-12)
(0.00728111 -0.00909566 1.99708e-07 0.0137151 -3.62067e-07 1.25113e-11)
(0.0072809 -0.00909554 2.44826e-07 0.0137151 -4.4388e-07 1.87945e-11)
(0.00728064 -0.0090954 2.82597e-07 0.0137152 -5.13e-07 2.51316e-11)
(0.00728036 -0.00909525 3.12187e-07 0.0137154 -5.67549e-07 3.0796e-11)
(0.00728005 -0.00909508 3.31864e-07 0.0137155 -6.04329e-07 3.49769e-11)
(0.00727972 -0.0090949 3.42648e-07 0.0137156 -6.25195e-07 3.74998e-11)
(0.00727939 -0.00909472 3.4333e-07 0.0137158 -6.27773e-07 3.78899e-11)
(0.00727906 -0.00909453 3.35556e-07 0.0137159 -6.15137e-07 3.64612e-11)
(0.00727873 -0.00909435 3.18689e-07 0.013716 -5.86026e-07 3.31925e-11)
(0.00727842 -0.00909418 2.95144e-07 0.0137161 -5.44758e-07 2.87782e-11)
(0.00727814 -0.00909402 2.64698e-07 0.0137163 -4.90837e-07 2.34805e-11)
(0.00727789 -0.00909387 2.30474e-07 0.0137164 -4.29479e-07 1.80697e-11)
(0.00727766 -0.00909375 1.92774e-07 0.0137164 -3.61119e-07 1.2863e-11)
(0.00727748 -0.00909364 1.52858e-07 0.0137165 -2.87095e-07 8.16711e-12)
(0.00727736 -0.00909357 1.12574e-07 0.0137165 -2.11705e-07 4.46413e-12)
(0.00727727 -0.00909351 7.61627e-08 0.0137166 -1.4459e-07 2.11002e-12)
(0.00726422 -0.00908281 3.26464e-08 0.0137153 -6.13228e-08 3.67249e-13)
(0.00314276 -0.00894382 -2.68226e-08 0.0288263 9.80948e-08 4.28719e-13)
(0.00315137 -0.00895891 -6.8761e-08 0.0288289 2.46187e-07 2.66459e-12)
(0.00315138 -0.00895893 -1.06719e-07 0.0288288 3.81363e-07 6.42666e-12)
(0.00315141 -0.00895897 -1.42625e-07 0.0288287 5.08945e-07 1.14263e-11)
(0.00315144 -0.00895901 -1.69412e-07 0.0288287 6.03172e-07 1.60683e-11)
(0.00315147 -0.00895907 -1.94969e-07 0.0288286 6.94151e-07 2.12507e-11)
(0.0031515 -0.00895913 -2.13046e-07 0.0288285 7.58184e-07 2.53264e-11)
(0.00315154 -0.00895919 -2.25409e-07 0.0288284 8.02203e-07 2.83314e-11)
(0.00315159 -0.00895926 -2.30337e-07 0.0288283 8.19536e-07 2.95577e-11)
(0.00315163 -0.00895933 -2.28888e-07 0.0288282 8.14331e-07 2.91961e-11)
(0.00315168 -0.0089594 -2.2077e-07 0.0288281 7.85199e-07 2.71738e-11)
(0.00315172 -0.00895947 -2.07401e-07 0.028828 7.37538e-07 2.40262e-11)
(0.00315177 -0.00895953 -1.8906e-07 0.0288278 6.72e-07 2.00042e-11)
(0.00315181 -0.00895959 -1.67834e-07 0.0288277 5.96364e-07 1.58079e-11)
(0.00315185 -0.00895964 -1.43273e-07 0.0288276 5.08678e-07 1.15576e-11)
(0.00315188 -0.00895969 -1.1835e-07 0.0288275 4.20051e-07 7.91693e-12)
(0.00315191 -0.00895974 -8.75675e-08 0.0288275 3.10091e-07 4.39418e-12)
(0.00315193 -0.00895977 -6.01282e-08 0.0288274 2.1317e-07 2.12963e-12)
(0.00315199 -0.00895985 -3.0395e-08 0.0288274 1.08182e-07 6.11533e-13)
(0.00314334 -0.00894468 -5.52576e-09 0.0288247 1.84058e-08 3.26664e-14)
(0.00144559 -0.000328128 -4.33943e-09 0.0282771 -4.61841e-08 1.30543e-13)
(0.00144491 -0.00034258 -1.48097e-08 0.0282797 -2.15592e-07 2.23575e-12)
(0.00144488 -0.000342461 -2.67176e-08 0.0282797 -4.0632e-07 7.62794e-12)
(0.00144484 -0.000342272 -3.55459e-08 0.0282798 -5.50431e-07 1.39616e-11)
(0.00144478 -0.000342089 -4.22461e-08 0.0282797 -6.70276e-07 2.06484e-11)
(0.00144471 -0.000341875 -4.86215e-08 0.0282797 -7.76982e-07 2.77076e-11)
(0.00144462 -0.000341624 -5.38188e-08 0.0282797 -8.64832e-07 3.42567e-11)
(0.00144453 -0.000341352 -5.72379e-08 0.0282796 -9.24842e-07 3.91256e-11)
(0.00144443 -0.000341059 -5.9292e-08 0.0282796 -9.62095e-07 4.22729e-11)
(0.00144433 -0.000340757 -5.94394e-08 0.0282796 -9.7018e-07 4.2927e-11)
(0.00144422 -0.000340451 -5.82597e-08 0.0282795 -9.5509e-07 4.15346e-11)
(0.00144412 -0.000340149 -5.54183e-08 0.0282795 -9.1324e-07 3.7919e-11)
(0.00144402 -0.000339858 -5.15764e-08 0.0282794 -8.52611e-07 3.29883e-11)
(0.00144393 -0.000339584 -4.6436e-08 0.0282794 -7.70573e-07 2.69069e-11)
(0.00144385 -0.000339335 -4.05517e-08 0.0282794 -6.77681e-07 2.07564e-11)
(0.00144378 -0.000339112 -3.36015e-08 0.0282794 -5.71542e-07 1.47332e-11)
(0.00144372 -0.000338928 -2.47211e-08 0.0282793 -4.52213e-07 9.17495e-12)
(0.00144367 -0.00033883 -1.57396e-08 0.0282792 -3.38639e-07 5.10297e-12)
(0.00144364 -0.000338722 -9.84043e-09 0.0282792 -2.43416e-07 2.6233e-12)
(0.00144427 -0.000324222 -3.72795e-09 0.0282767 -1.0493e-07 4.78031e-13)
(0.00116983 0.00457652 1.77367e-08 0.0381817 1.07028e-07 4.32385e-13)
(0.00116486 0.00456041 4.21544e-08 0.0381855 2.61423e-07 2.68974e-12)
(0.00116484 0.0045604 5.90102e-08 0.0381855 3.71808e-07 5.67318e-12)
(0.00116484 0.00456041 8.13567e-08 0.0381855 5.093e-07 1.06316e-11)
(0.00116482 0.00456039 1.04086e-07 0.0381857 6.42481e-07 1.6928e-11)
(0.0011648 0.00456037 1.20366e-07 0.0381858 7.4142e-07 2.2564e-11)
(0.00116477 0.00456035 1.32247e-07 0.038186 8.12504e-07 2.72138e-11)
(0.00116474 0.00456032 1.40011e-07 0.0381862 8.58615e-07 3.05002e-11)
(0.00116471 0.00456029 1.42814e-07 0.0381864 8.7457e-07 3.18261e-11)
(0.00116468 0.00456025 1.41846e-07 0.0381866 8.66915e-07 3.14609e-11)
(0.00116465 0.00456021 1.365e-07 0.0381867 8.32991e-07 2.92639e-11)
(0.00116462 0.00456017 1.28261e-07 0.0381869 7.80883e-07 2.59034e-11)
(0.00116459 0.00456013 1.16891e-07 0.038187 7.1014e-07 2.15895e-11)
(0.00116456 0.00456009 1.04138e-07 0.0381871 6.30781e-07 1.71121e-11)
(0.00116454 0.00456005 9.00784e-08 0.0381872 5.43087e-07 1.27409e-11)
(0.00116452 0.00456 7.55016e-08 0.0381873 4.53099e-07 8.85874e-12)
(0.0011645 0.00455996 6.30637e-08 0.0381874 3.68445e-07 5.9407e-12)
(0.00116447 0.0045599 4.56245e-08 0.0381875 2.5757e-07 3.06691e-12)
(0.00116444 0.00455982 2.0606e-08 0.0381876 1.10475e-07 7.06087e-13)
(0.00116945 0.00457603 3.74787e-09 0.0381838 1.79222e-08 3.9297e-14)
(0.0226047 0.0288915 -2.88159e-08 0.0385675 -3.68075e-08 1.2785e-13)
(0.0225788 0.0288766 -1.63271e-07 0.0385711 -2.08222e-07 2.02633e-12)
(0.022579 0.0288766 -2.68465e-07 0.0385709 -3.4588e-07 5.45487e-12)
(0.022579 0.0288767 -3.64515e-07 0.0385707 -4.69179e-07 1.01532e-11)
(0.0225792 0.0288767 -4.82506e-07 0.0385704 -6.18864e-07 1.70372e-11)
(0.0225794 0.0288768 -5.58905e-07 0.0385701 -7.18093e-07 2.30526e-11)
(0.0225796 0.0288768 -6.32821e-07 0.0385698 -8.13656e-07 2.93567e-11)
(0.0225798 0.0288769 -6.78952e-07 0.0385694 -8.74745e-07 3.40167e-11)
(0.02258 0.028877 -7.1234e-07 0.038569 -9.19295e-07 3.75203e-11)
(0.0225803 0.0288771 -7.21448e-07 0.0385686 -9.33315e-07 3.88176e-11)
(0.0225806 0.0288772 -7.15284e-07 0.0385682 -9.2745e-07 3.8409e-11)
(0.0225808 0.0288774 -6.86951e-07 0.0385678 -8.93412e-07 3.58767e-11)
(0.0225811 0.0288775 -6.47079e-07 0.0385674 -8.43926e-07 3.21418e-11)
(0.0225814 0.0288776 -5.87359e-07 0.0385671 -7.69022e-07 2.7007e-11)
(0.0225816 0.0288778 -5.26548e-07 0.0385668 -6.91417e-07 2.19159e-11)
(0.0225818 0.0288779 -4.44391e-07 0.0385666 -5.86501e-07 1.61693e-11)
(0.022582 0.028878 -3.83907e-07 0.0385664 -5.06216e-07 1.19389e-11)
(0.0225822 0.0288781 -2.85929e-07 0.0385663 -3.79252e-07 7.08789e-12)
(0.0225823 0.0288782 -1.77566e-07 0.0385663 -2.40086e-07 3.15227e-12)
(0.0226081 0.0288932 -8.29205e-08 0.0385626 -1.11173e-07 6.01608e-13)
(0.0262617 0.0196549 5.44288e-08 0.0157611 3.52933e-08 3.04456e-13)
(0.0262342 0.0196469 1.10673e-07 0.0157638 7.39495e-08 1.81477e-12)
(0.0262342 0.019647 1.98844e-07 0.0157639 1.37865e-07 4.84206e-12)
(0.0262342 0.0196472 2.89005e-07 0.0157641 2.02827e-07 9.18845e-12)
(0.0262343 0.0196474 3.47391e-07 0.0157644 2.44222e-07 1.35404e-11)
(0.0262343 0.0196478 4.04798e-07 0.0157647 2.84718e-07 1.81119e-11)
(0.0262344 0.0196481 4.3691e-07 0.0157652 3.07307e-07 2.16048e-11)
(0.0262344 0.0196485 4.61113e-07 0.0157656 3.2415e-07 2.42223e-11)
(0.0262345 0.0196489 4.6485e-07 0.0157661 3.26741e-07 2.51902e-11)
(0.0262345 0.0196493 4.58873e-07 0.0157666 3.22287e-07 2.4864e-11)
(0.0262345 0.0196497 4.36581e-07 0.0157671 3.0654e-07 2.30163e-11)
(0.0262346 0.0196501 4.07576e-07 0.0157675 2.85881e-07 2.02621e-11)
(0.0262346 0.0196505 3.66373e-07 0.015768 2.56784e-07 1.66862e-11)
(0.0262346 0.0196508 3.25608e-07 0.0157684 2.27886e-07 1.30849e-11)
(0.0262347 0.0196511 2.76045e-07 0.0157688 1.92961e-07 9.48987e-12)
(0.0262347 0.0196513 2.36391e-07 0.0157691 1.65409e-07 6.57374e-12)
(0.0262347 0.0196515 1.84501e-07 0.0157694 1.29311e-07 3.98569e-12)
(0.0262347 0.0196517 1.47287e-07 0.0157696 1.05088e-07 2.18558e-12)
(0.0262346 0.0196518 1.05198e-07 0.0157698 7.77866e-08 8.87202e-13)
(0.0262622 0.01966 2.54492e-08 0.0157673 2.05493e-08 8.86006e-14)
(0.205458 0.0570878 -3.42652e-07 0.0162807 -1.05622e-07 1.47956e-12)
(0.205395 0.0570825 -2.76698e-07 0.0162828 -8.95723e-08 3.33261e-12)
(0.205398 0.0570822 -2.74042e-07 0.0162824 -9.22367e-08 7.43628e-12)
(0.205398 0.0570817 -2.16242e-07 0.0162821 -8.07999e-08 1.2994e-11)
(0.205399 0.0570811 -3.02757e-07 0.0162817 -1.09681e-07 1.97366e-11)
(0.205399 0.0570804 -3.33284e-07 0.0162812 -1.22342e-07 2.63967e-11)
(0.205399 0.0570796 -4.08283e-07 0.0162807 -1.47044e-07 3.25455e-11)
(0.2054 0.0570787 -4.49831e-07 0.0162801 -1.61433e-07 3.71962e-11)
(0.205401 0.0570778 -5.01723e-07 0.0162795 -1.77947e-07 4.00704e-11)
(0.205401 0.0570769 -5.28626e-07 0.0162789 -1.86409e-07 4.07267e-11)
(0.205402 0.057076 -5.53725e-07 0.0162783 -1.93453e-07 3.93135e-11)
(0.205403 0.0570751 -5.52504e-07 0.0162777 -1.92054e-07 3.59567e-11)
(0.205403 0.0570743 -5.49825e-07 0.0162771 -1.89403e-07 3.13082e-11)
(0.205404 0.0570736 -5.12751e-07 0.0162766 -1.76127e-07 2.57831e-11)
(0.205405 0.0570729 -4.87511e-07 0.0162761 -1.65638e-07 2.02369e-11)
(0.205406 0.0570723 -4.01536e-07 0.0162757 -1.37356e-07 1.47349e-11)
(0.205406 0.0570719 -3.57849e-07 0.0162754 -1.20391e-07 1.00342e-11)
(0.205407 0.0570715 -1.63396e-07 0.0162751 -6.04302e-08 5.71028e-12)
(0.205404 0.0570713 6.71702e-09 0.0162751 -5.16392e-09 2.76054e-12)
(0.205467 0.0570763 2.63671e-07 0.0162728 7.67688e-08 1.08371e-12)
(0.00480615 -0.00347247 -8.92455e-09 0.00432932 1.24455e-08 2.69392e-13)
(0.00480196 -0.00346862 -1.17012e-08 0.00433003 2.5286e-09 1.90519e-12)
(0.004802 -0.00346861 -2.47095e-08 0.00432994 2.03818e-08 4.74006e-12)
(0.004802 -0.00346855 -3.08211e-08 0.00432985 2.23066e-08 8.69866e-12)
(0.004802 -0.00346847 -4.23473e-08 0.00432972 3.58339e-08 1.31726e-11)
(0.004802 -0.00346838 -4.96188e-08 0.00432957 4.14423e-08 1.76181e-11)
(0.00480199 -0.00346828 -5.79644e-08 0.00432939 5.06465e-08 2.15567e-11)
(0.00480199 -0.00346817 -6.3904e-08 0.0043292 5.59557e-08 2.45803e-11)
(0.00480199 -0.00346805 -6.93404e-08 0.00432899 6.18993e-08 2.64525e-11)
(0.00480198 -0.00346792 -7.2985e-08 0.00432878 6.53433e-08 2.70591e-11)