/*--------------------------------*- C++ -*----------------------------------*\
| =========                 |                                                 |
| \\      /  F ield         | OpenFOAM: The Open Source CFD Toolbox           |
|  \\    /   O peration     | Version:  2212                                  |
|   \\  /    A nd           | Website:  www.openfoam.com                      |
|    \\/     M anipulation  |                                                 |
\*---------------------------------------------------------------------------*/
FoamFile
{
    version     2.0;
    format      ascii;
    arch        "LSB;label=32;scalar=64";
    class       volScalarField;
    location    "0.00184";
    object      p;
}
// * * * * * * * * * * * * * * * * * * * * * * * * * * * * * * * * * * * * * //

dimensions      [1 -1 -2 0 0 0 0];

internalField   nonuniform List<scalar> 
7220
(
346.486
609.103
608.96
608.868
608.942
608.838
611.558
612.967
610.375
611.344
379.108
945.029
502.274
388.983
399.147
727.685
442.056
291.861
443.057
299.754
457.868
549.278
610.148
528.89
649.228
542.221
515.815
346.227
457.61
476.44
647.176
486.166
614.782
472.7
669.836
364.435
609.152
388.394
381.728
293.166
298.115
298.126
293.175
366.298
365.691
364.772
365.088
365.459
303.426
309.039
309.056
303.44
314.881
320.866
320.885
314.9
326.894
332.856
332.875
326.914
338.63
344.084
344.1
338.647
349.085
353.498
353.504
349.098
357.205
360.135
360.131
357.204
362.311
363.831
363.813
362.301
364.831
365.452
365.406
364.802
365.81
365.989
365.876
365.738
365.734
365.872
366.04
365.964
365.795
366.736
288.621
288.628
299.115
294.145
365.236
364.249
365.53
365.141
367.453
367.117
367.347
366.081
366.725
363.525
365.062
358.386
361.333
350.23
354.662
339.735
345.21
327.959
333.941
315.905
321.909
304.412
310.043
294.122
299.085
310.088
304.45
321.96
315.953
333.991
328.009
345.253
339.783
354.682
350.264
361.32
358.389
365.003
363.492
366.585
365.988
367.017
366.902
366.965
367.399
289.565
289.581
368.571
369.166
364.488
364.552
367.283
367.074
370.227
368.066
366.666
370.015
370.39
370.326
369.939
370.227
368.832
369.507
366.221
367.785
361.022
364
352.796
357.265
342.217
347.735
330.35
336.378
318.205
324.255
306.627
312.3
296.264
301.261
285.435
287.524
291.677
284.506
284.501
291.706
287.545
285.446
301.311
296.303
312.369
306.688
324.333
318.28
336.455
330.428
347.8
342.29
357.292
352.846
363.964
361.02
367.66
366.144
369.23
368.643
369.608
369.527
369.495
366.89
367.629
372.572
373.117
281.73
283.803
295.011
290.811
363.466
365.832
363.421
366.058
374.476
369.67
370.767
369.625
372.064
374.237
374.69
374.599
374.212
374.522
373.055
373.755
370.388
371.983
365.111
368.131
356.783
361.306
346.078
351.662
334.075
340.172
321.792
327.911
310.083
315.82
299.606
304.657
290.784
294.974
280.806
280.803
283.818
281.738
304.717
299.654
315.9
310.153
328.001
321.879
340.263
334.166
351.737
346.165
361.329
356.838
368.058
365.091
371.777
370.253
373.342
372.763
373.672
373.617
373.505
371.54
287.036
287.055
363.718
364.427
368.192
362.371
373.837
377.88
378.393
377.346
369.009
295.034
291.254
280.498
283.72
365.244
362.011
366.267
362.642
365.237
368.247
363.829
362.55
379.166
379.873
379.602
380.144
380.032
379.708
380.019
378.525
379.24
375.797
377.426
370.423
373.496
361.964
366.557
351.1
356.766
338.921
345.107
326.46
332.667
314.583
320.402
303.962
309.081
299.271
283.706
278.424
280.487
277.503
277.501
278.429
291.277
299.314
295.067
309.147
304.016
320.489
314.66
332.767
326.555
345.209
339.023
356.851
351.198
366.571
362.022
373.378
370.378
377.13
375.594
378.689
378.121
378.993
378.941
378.793
375.886
376.736
373.102
374.702
371.011
373.179
287.907
287.923
384.242
384.741
383.662
373.371
368.176
360.902
360.246
360.95
364.023
368.489
385.417
360.374
378.429
384.576
362.316
386.238
385.929
386.572
386.444
386.22
386.508
385.021
385.751
382.229
383.897
376.744
379.878
368.131
372.806
357.079
362.842
344.694
350.984
332.026
338.336
319.954
325.868
309.168
314.365
300.125
304.412
292.951
296.312
290.006
280.754
284.955
275.475
277.537
274.553
274.552
277.544
275.478
284.966
280.763
290.02
296.339
292.971
304.46
300.163
314.435
309.227
325.958
320.035
338.441
332.125
351.095
344.804
362.931
357.185
372.803
368.185
379.705
376.665
383.502
381.949
385.06
384.501
385.344
385.296
385.13
381.99
382.955
378.881
380.665
376.515
377.307
372.153
360.954
383.339
391.435
391.943
390.794
298.77
295.852
282.361
287.444
359.089
358.034
357.582
364.848
371.5
367.056
360.472
375.753
366.725
357.735
362.261
381.685
358.872
390.091
392.454
391.486
393.482
393.097
393.86
393.729
393.6
393.861
392.39
393.133
389.528
391.239
383.918
387.121
375.132
379.899
363.87
369.742
351.256
357.662
338.36
344.783
326.078
332.093
315.121
320.397
305.969
310.301
302.131
287.434
278.133
282.353
272.831
274.903
271.906
271.905
274.908
272.834
278.14
295.868
302.163
298.794
310.353
306.01
320.47
315.183
332.185
326.16
344.891
338.46
357.777
351.37
369.828
363.979
379.87
375.174
386.882
383.795
390.732
389.159
392.289
391.74
392.562
392.513
392.332
388.857
389.968
385.33
387.349
378.983
382.662
375.348
370.589
388.253
293.331
293.343
399.882
399.332
379.643
373.877
359.008
356.864
355.262
354.296
362.181
355.626
347.128
354.639
638.998
354.081
385.999
392.802
397.406
395.332
400.165
399.01
401.49
400.971
401.939
401.804
401.76
401.988
400.538
401.297
397.595
399.353
391.85
395.127
382.876
387.743
371.385
377.374
358.525
365.054
345.385
351.928
332.886
339.005
321.762
327.114
312.52
316.886
305.331
308.673
300.017
302.461
297.952
285.193
291.166
275.801
280.059
270.448
272.54
269.514
269.513
272.544
270.45
280.065
275.806
291.175
285.2
297.964
302.481
300.033
308.708
305.358
316.94
312.565
327.187
321.826
339.098
332.969
352.038
345.487
365.172
358.641
377.451
371.492
387.676
382.895
394.808
391.67
398.718
397.123
400.285
399.738
400.543
400.499
400.295
396.349
398.6
397.637
392.401
394.63
386.125
389.568
378.519
382.511
369.278
374.085
353.242
358.839
356.966
364.18
368.798
630.075
383.292
389.847
356.581
608.959
307.355
305.397
289.328
296.232
354.089
351.481
351.943
350.404
349.863
350.516
349.862
615.421
644.14
649.558
645.931
563.414
658.824
377.158
371.583
646.397
374.079
361.708
366.904
359.35
362.543
380.072
637.81
386.454
564.414
376.407
382.69
619.15
377.033
378.597
385.11
380.894
393.023
389.171
399.818
396.603
405.03
402.651
408.306
406.905
410.011
409.327
410.626
410.433
410.493
410.683
409.257
410.036
406.226
408.034
400.338
403.694
391.166
396.138
379.436
385.549
366.319
372.978
352.93
359.595
340.22
346.438
328.947
334.364
319.644
324.028
312.506
315.808
309.706
296.221
283.249
289.321
273.727
278.042
268.293
270.419
267.343
267.342
270.421
268.294
278.047
273.73
283.255
305.413
309.73
307.374
315.846
312.537
324.084
319.691
334.437
329.011
346.531
340.303
359.705
353.032
373.093
366.435
385.607
379.535
396.021
391.152
403.281
400.085
407.257
405.636
408.84
408.292
409.069
409.033
408.341
408.796
406.872
407.714
404.261
405.747
399.907
402.321
393.647
396.984
385.887
389.939
376.82
381.487
371.952
645.802
650.523
654.485
366.686
357.351
642.913
349.876
621.048
339.99
303.775
303.788
640.204
368.621
359.76
356.641
353.842
345.733
646.238
370.464
375.392
370.876
358.26
350.757
344.918
344.706
372.314
406.713
348.09
380.409
374.341
640.381
346.238
345.145
630.524
636.23
335.297
641.166
639.262
609.075
391.522
387.243
399.614
395.663
406.758
403.328
412.593
409.872
416.527
414.807
418.711
417.814
419.576
419.284
419.497
419.655
418.244
419.047
415.124
416.984
409.09
412.526
399.717
404.795
387.746
393.983
374.374
381.16
360.752
367.529
347.856
354.16
336.472
341.934
327.151
331.531
320.096
323.345
315.07
317.356
311.586
313.17
310.251
294.787
302.432
281.58
287.766
271.894
276.283
266.35
268.522
265.377
265.377
268.525
266.351
276.287
271.897
287.772
281.585
302.444
294.796
310.265
313.19
311.603
317.384
315.093
323.387
320.13
331.587
327.199
342.006
336.535
354.251
347.938
367.639
360.853
381.268
374.488
394.012
387.828
404.613
399.657
412.004
408.751
416.049
414.4
417.65
417.097
417.832
417.823
417.009
417.523
415.301
416.282
412.303
413.995
407.591
410.178
401.202
404.586
393.431
397.472
384.655
389.149
380.03
628.454
634.258
382.638
642.832
654.39
363.803
354.632
637.006
333.677
339.643
622.904
632.296
616.116
365.038
383.777
379.646
367.199
350.523
356.271
353.225
631.089
339.244
609.234
319.05
317.661
301.326
309.112
339.296
669.478
366.378
355.182
618.22
609.055
609.187
609.327
624.783
346.876
591.004
596.331
622.797
683.429
586.543
579.345
367.949
343.023
624.766
618.791
617.696
622.89
631.145
343.756
340.053
370.194
623.985
341.521
602.038
599.856
588.256
373.963
629.272
593.998
633.766
635.338
328.558
609.182
331.292
560.164
397.849
393.309
406.075
402.075
413.394
409.853
419.675
416.681
424.293
422.218
427.083
425.911
428.288
427.857
428.31
428.43
427.053
427.875
423.849
425.758
417.674
421.187
408.107
413.288
395.909
402.263
382.306
389.205
368.485
375.356
355.446
361.813
343.993
349.479
334.681
339.048
327.658
330.895
322.609
324.916
320.677
309.1
293.607
301.316
280.171
286.475
270.301
274.774
264.623
266.854
263.621
263.621
266.856
264.624
274.778
270.304
286.481
280.175
293.615
317.676
320.699
319.068
324.947
322.636
330.939
327.696
339.104
334.731
349.55
344.056
361.903
355.526
375.463
368.585
389.299
382.414
402.252
395.966
413.028
407.991
420.545
417.236
424.657
422.983
426.279
425.721
426.384
426.453
425.444
426.036
423.461
424.596
420.097
421.976
415.069
417.79
408.588
411.982
400.958
404.885
392.514
396.813
388.123
629.422
629.675
616.709
621.818
620.302
657.892
567.627
360.259
384.664
376.01
351.285
590.588
597.753
593.995
613.339
601.988
607.275
632.67
619.567
414.195
333.479
379.831
616.615
316.432
316.446
333.739
633.49
595.725
616.651
609.4
653.862
360.933
609.341
363.865
609.27
632.081
643.856
639.201
614.841
346.631
352.213
349.236
598.663
617.421
604.372
607.983
611.139
606.703
610.348
614.033
621.029
626.173
572.848
626.494
619.707
609.256
640.45
583.614
361.926
351.605
637.973
629.053
620.903
342.511
603.911
608.023
612.178
614.658
334.714
363.519
347.607
339.433
644.867
620.984
613.339
610.602
610.499
611.733
619.195
338.998
607.205
608.915
612.357
615.245
335.556
682.21
336.451
366.263
623.224
610.827
612.789
614.815
585.588
370.778
627.492
603.02
608.721
591.535
630.693
607.842
324.182
327.845
370.583
604.812
611.131
327.879
408.061
404.232
399.823
412.311
408.355
419.661
416.093
426.121
423.009
431.292
428.922
434.736
433.246
436.388
435.77
436.576
436.642
435.339
436.172
432.058
434.012
425.753
429.338
416.013
421.285
403.616
410.07
389.827
396.816
375.857
382.796
362.721
369.129
351.223
356.727
341.873
346.264
334.744
338.044
329.564
331.931
325.954
327.596
323.283
324.549
322.054
308.064
315.282
292.641
300.368
279.011
285.424
268.957
273.515
263.131
265.43
262.095
262.094
265.432
263.132
273.518
268.96
285.429
279.015
300.377
292.648
315.295
308.075
322.069
324.566
323.298
327.618
325.973
331.964
329.592
338.089
334.783
346.319
341.923
356.796
351.285
369.217
362.799
382.896
375.953
396.887
389.921
410.008
403.638
420.939
415.829
428.568
425.209
432.744
431.043
434.366
433.817
434.388
434.521
433.285
433.975
431.014
432.307
427.312
429.363
422.047
424.86
415.532
418.926
408.081
411.894
400.002
404.089
391.823
395.877
388.033
328.152
664.06
609.732
635.21
614.494
625.11
601.953
617.021
630.286
622.342
652.915
641.137
663.924
663.262
660.207
356.158
372.767
361.09
612.609
347.366
601.348
612.346
617.197
628.571
662.025
653.699
388.893
609.291
609.461
614.67
615.138
648.261
657.531
384.101
637.828
623.651
616.741
601.596
605.822
630.03
589.257
611.732
603.473
662.394
356.417
360.642
640.754
635.058
609.655
614.11
342.237
347.692
344.763
605.79
621.26
610.311
613.377
616.674
329.242
609.249
329.559
328.263
314.141
320.789
639.584
577.443
357.267
671.346
348.435
633.499
626.093
613.639
611.821
615.804
337.725
610.313
617.048
681.679
331.15
659.638
359.077
336.461
625.566
618.514
333.902
613.978
617.075
577.421
362.316
621.833
597.453
604.084
616.158
582.812
366.882
625.057
603.833
320.469
322.668
626.644
601.515
322.695
613.885
597.163
626.134
650.98
325.127
610.253
610.914
610.659
610.145
384.999
393.453
401.497
397.003
410.309
406.18
418.124
414.281
425.381
421.841
431.827
428.715
437.285
434.723
441.292
439.493
443.477
442.621
443.917
443.895
442.748
443.573
439.412
441.401
433.003
436.645
423.124
428.47
410.576
417.105
396.653
403.705
382.582
389.568
369.374
375.816
357.803
363.348
348.307
352.784
340.983
344.376
335.739
338.113
332.211
333.805
330.837
320.773
307.071
314.128
291.838
299.523
278.086
284.58
267.873
272.506
261.904
264.271
260.831
260.83
264.273
261.905
272.51
267.876
284.586
278.09
299.533
291.845
307.082
328.28
330.854
329.576
333.827
332.23
338.146
335.766
344.42
341.022
352.839
348.357
363.415
357.864
375.901
369.45
389.658
382.674
403.746
396.729
416.984
410.554
428.03
422.865
435.748
432.348
439.971
438.254
441.569
441.041
441.499
441.693
440.209
441.004
437.657
439.099
433.668
435.856
428.274
431.132
421.777
425.145
414.516
418.235
406.808
410.687
399.303
402.977
393.025
395.945
390.558
610.028
609.916
609.982
609.774
609.841
610.053
609.708
609.727
608.788
608.917
609.029
608.964
609.105
610.766
609.872
612.248
615.429
612.417
627.627
620.263
637.489
662.315
654.123
391.063
610.741
620.612
595.828
611.837
610.05
610.667
617.128
613.847
630.771
622.511
654.959
641.804
669.409
667.212
666.991
351.611
369.846
639.555
375.962
610.583
612.191
342.944
607.854
617.009
621.464
618.816
620.641
323.751
380.024
668.794
395.967
661.699
326.857
326.876
386.65
378.486
609.394
609.344
609.571
437.522
633.778
620.52
612.632
595.957
600.599
628.542
583.031
608.059
598.872
670.394
351.604
377.24
357.916
635.289
630.954
390.533
381.492
612.087
609.517
610.711
613.446
383.536
388.476
337.447
342.801
339.895
611.622
356.64
361.409
369.399
623.97
614.988
617.459
618.18
373.269
554.833
557.65
652.997
325.725
649.986
387.12
609.715
609.747
639.257
572.248
352.488
345.919
629.61
623.259
613.801
609.72
609.985
615.181
332.601
614.766
618.136
377.152
570.195
328.575
354.567
353.869
350.356
334.064
365.653
358.466
624.074
608.715
617.433
591.453
598.734
616.739
617.678
574.388
358.08
356.656
363.709
608.894
608.725
619.971
598.979
317.48
318.076
350.575
366.563
358.683
364.519
356.909
363.177
356.105
362.84
622.063
597.318
317.545
613.289
588.639
622.848
593.714
318.375
418.325
622.955
609.488
323.218
380.886
388.284
397.1
401.231
398.858
407.849
404.218
415.821
411.915
423.403
419.658
430.528
427.034
436.866
433.806
442.387
439.734
446.741
444.727
449.445
448.336
450.214
450.064
449.164
449.948
445.798
447.81
439.317
442.999
429.346
434.739
416.699
423.277
402.696
409.785
388.561
395.577
375.28
381.762
363.569
369.195
353.854
358.444
346.402
349.832
341.256
343.557
337.864
339.405
335.101
336.478
331.954
333.617
330.076
319.371
325.277
306.049
312.896
291.142
298.714
277.378
283.906
267.065
271.748
260.977
263.406
259.869
259.868
263.408
260.978
271.752
267.068
283.912
277.383
298.723
291.15
312.908
306.06
325.296
319.387
330.094
333.635
331.972
336.497
335.119
339.427
337.884
343.589
341.283
349.875
346.439
358.497
353.902
369.262
363.628
381.843
375.354
395.652
388.644
409.788
402.746
423.085
416.623
434.199
429
441.972
438.548
446.214
444.493
447.762
447.267
447.582
447.846
446.091
446.994
443.294
444.861
439.096
441.375
433.624
436.502
427.194
430.506
420.112
423.711
412.877
416.47
406.21
409.425
400.872
403.338
398.795
609.629
609.674
609.554
609.586
609.569
609.546
609.765
609.735
609.631
608.901
609.119
609.074
609.08
609.136
609.096
609.192
609.4
609.356
610.913
610.004
615.536
612.63
627.912
620.454
649.447
637.99
660.216
609.72
627.026
605.986
617.907
590.444
611.824
610.053
610.658
617.098
613.841
630.852
622.533
656.132
642.304
675.101
670.592
673.754
346.722
367.598
634.452
362.799
372.171
610.427
611.812
381.004
386.08
338.12
352.853
613.089
383.85
376.823
620.485
619.289
365.21
384.721
607.024
601.417
361.091
395.689
396.846
320.283
609.658
391.683
615.53
670.652
627.862
388.98
322.838
402.939
609.77
609.469
609.436
619.066
614.401
589.871
594.83
627.332
578.181
604.985
594.862
346.6
377.078
355.918
630.556
626.935
378.709
611.628
609.3
610.522
612.964
392.064
332.335
337.633
334.731
350.232
338.028
504.955
615.46
373.745
624.968
617.61
619.517
618.463
353.102
369.809
564.303
332.742
323.132
348.82
335.79
333.605
323.508
328.01
609.475
609.533
649.943
637.506
567.801
347.597
343.976
404.946
416.789
371.909
625.882
627.355
395.89
386.707
608.759
609.931
614.363
585.128
592.872
327.255
348.801
616.865
371.602
621.872
617.882
374.729
567.025
404.641
403.548
342.15
349.936
332.424
370.083
608.599
609.872
609.835
616.042
593.473
560.322
617.444
369.903
315.22
314.09
353.725
389.445
368.9
608.686
617.747
592.463
368.842
312.858
612.806
579.77
609.198
608.942
619.03
589.49
313.254
585.105
344.465
619.798
314.941
618.13
609.572
405.826
398.234
404.092
395.188
403.472
404.878
403.97
408.171
406.247
413.814
410.698
420.832
417.271
428.079
424.464
435.047
431.621
441.265
438.27
446.678
444.044
451.186
449.074
454.309
452.97
455.456
455.142
454.581
455.288
451.223
453.24
444.71
448.41
434.699
440.112
422.013
428.61
407.974
415.082
393.786
400.834
380.393
386.942
368.476
374.216
358.563
363.236
351.12
354.515
346.146
348.357
342.763
344.342
339.598
341.229
337.793
327.991
317.796
323.488
304.937
311.529
290.494
297.874
276.865
283.356
266.561
271.243
260.422
262.888
259.287
259.286
262.891
260.423
271.247
266.564
283.362
276.87
297.884
290.502
311.542
304.948
317.813
333.621
337.808
335.805
341.247
339.614
344.365
342.784
348.387
346.172
354.554
351.154
363.288
358.609
374.282
368.535
387.017
380.465
400.888
393.857
415.04
407.994
428.344
421.879
439.47
434.264
447.254
443.826
451.486
449.774
452.96
452.509
452.662
453.002
450.984
451.985
447.986
449.651
443.653
445.983
438.164
441.033
431.815
435.077
424.988
428.426
418.319
421.59
412.46
415.255
407.852
409.981
406.069
609.662
609.594
609.628
609.531
609.561
609.5
609.508
609.561
609.515
609.768
609.645
610.026
610.101
609.926
609.317
609.55
609.328
609.422
609.246
609.271
609.269
609.248
609.352
609.304
609.408
609.44
610.952
610.073
615.51
612.664
627.296
620.079
649.789
637.521
671.862
661.842
678.427
621.238
600.439
615.808
585.814
610.049
609.694
609.783
611.7
610.617
616.715
613.61
630.316
621.983
657.022
642.262
680.484
673.104
678.642
680.141
380.552
341.598
366.182
629.401
358.969
368.812
610.099
611.472
389.807
332.996
343.703
394.57
391.22
616.319
380.217
622.12
618.713
361.744
466.66
560.068
317.686
341.436
609.728
353.379
702.858
463.46
625.483
643.561
331.264
331.282
609.559
609.611
609.521
644.805
609.022
583.621
588.953
624.988
574.12
601.649
590.878
667.981
676.943
341.46
377.769
354.662
513.446
528.301
493.674
539.792
626.006
622.55
376.595
609.03
610.324
612.386
578.616
586.701
327.015
332.315
329.376
341.228
561.616
396.98
389.844
328.103
324.103
616.78
613.876
378.031
619.087
619.018
617.369
546.474
367.624
561.128
410.804
409.838
401.704
632.004
564.097
609.732
351.58
609.742
342.639
343.661
394.421
390.022
359.126
375.999
395.003
622.183
421.263
385.68
608.566
609.883
613.375
454.608
467.741
587.499
557.56
321.781
340.446
609.709
609.699
609.835
616.658
461.139
456.586
582.902
376.234
832.351
746.326
569.661
310.839
616.859
345.304
315.884
325.239
374.306
333.499
374.526
402.069
400.084
403.411
395.102
608.496
609.915
614.414
610.398
610.416
610.571
472.393
587.02
464.278
480.926
374.737
612.376
308.733
614.276
323.686
609.799
349.537
447.715
393.285
690.295
374.075
571.106
608.67
610.277
610.177
615.428
610.446
573.126
584.67
308.565
576.159
339.798
609.021
616.323
580.853
309.877
312.4
334.532
609.473
617.211
659.619
420.503
404.319
398.725
399.622
393.25
396.762
397.724
403.723
410.653
410.337
410.35
411.476
410.726
414.229
412.611
419.081
416.402
425.326
422.098
432.156
428.706
438.919
435.586
445.014
442.079
450.259
447.714
454.792
452.664
458.176
456.67
459.684
459.199
459.021
459.624
455.717
457.72
449.214
452.909
439.216
444.623
426.549
433.137
412.503
419.619
398.255
405.341
384.718
391.35
372.6
378.44
362.59
367.286
355.264
358.579
350.423
352.591
346.806
348.563
343.062
344.997
338.809
340.994
334.138
336.524
331.63
325.707
328.768
316.026
321.485
303.692
309.994
289.84
296.952
276.529
282.889
266.47
271.018
260.438
262.885
259.3
259.299
262.887
260.439
271.023
266.474
282.896
276.535
296.963
289.849
310.008
303.704
321.505
316.043
328.788
325.727
331.654
336.543
334.159
341.009
338.825
345.013
343.076
348.585
346.825
352.618
350.448
358.616
355.296
367.336
362.634
378.504
372.657
391.416
384.785
405.372
398.31
419.529
412.487
432.795
426.351
443.875
438.69
451.619
448.21
455.806
454.118
457.198
456.79
456.771
457.18
454.929
456.016
451.779
453.515
447.368
449.723
441.902
444.751
435.669
438.857
429.165
432.407
423.062
426.028
417.808
420.312
413.601
415.561
412.013
609.656
609.69
609.59
609.621
609.544
609.564
609.538
609.534
609.61
609.561
609.801
609.689
610.091
609.939
610.25
609.503
609.587
609.415
609.446
609.412
609.406
609.467
609.434
609.51
609.659
609.543
609.591
609.518
610.92
610.107
615.05
612.467
625.907
619.235
648.158
635.663
673.795
661.738
682.785
655.771
303.115
594.704
612.964
581.451
610.042
609.804
611.54
610.554
616.24
613.333
629.249
621.21
656.719
641.123
685.711
674.614
686.558
686.459
683.444
336.338
366.386
536.255
498.72
624.318
355.729
366.076
609.723
611.086
462.733
462.419
573.747
580.299
609.595
588.617
577.324
390.898
393.18
388.615
826.485
388.674
327.659
334.051
323.273
393.928
322.543
616.9
457.283
383.704
620.865
616.306
616.684
359.926
466.115
538.217
543.526
557.163
741.447
406.853
391.724
597.172
388.273
409.245
403.397
408.635
433.544
609.796
694.204
639.533
604.905
619.969
569.794
586.558
609.795
336.29
389.978
378.585
355.429
384.424
368.983
381.622
391.172
621.741
343.351
468.696
615.701
509.079
342.534
375.151
608.712
610.102
611.666
610.474
610.16
610.185
610.509
466.967
467.265
567.119
562.304
568.657
581.304
555.354
402.41
400.152
321.593
326.924
323.946
332.031
609.988
861.584
609.82
399.148
318.271
314.341
313.41
611.093
615.845
452.964
452.271
382.014
567.109
308.364
394.608
616.446
618.723
664.716
338.262
615.537
613.1
685.674
676.552
336.938
334.5
326.169
329.04
609.747
609.69
609.774
551.527
555.773
555.978
558.574
337.734
334.898
304.792
367.546
344.488
388.605
357.342
379.862
397.185
612.108
385.547
459.243
610.748
608.377
609.828
612.237
610.665
471.747
472.12
557.419
581.156
554.102
452.775
421.95
316.329
332.16
609.891
307.15
307.885
615.438
380.395
396.357
305.362
418.287
551.557
449.41
553.182
340.803
330.025
375.721
334.484
396.258
392.56
334.303
379.05
402.684
563.52
395.489
608.399
609.987
612.745
610.587
476.508
547.61
579.458
411.156
437.092
432.939
447.939
379.314
304.437
451.565
345.809
328.329
383.387
567.467
411.241
404.564
336.409
608.681
610.314
613.288
538.883
576.094
438.438
305.277
307.429
328.875
609.138
614.012
571.941
461.882
653.493
519.475
733.73
618.658
405.452
400.965
402.053
399.22
400.008
396.13
398.987
398.944
411.753
416.984
416.261
416.708
415.927
415.967
416.834
416.2
419.248
417.821
423.48
421.149
429.128
426.168
435.557
432.285
442.098
438.857
448.098
445.202
453.215
450.748
457.672
455.564
461.158
459.563
462.963
462.324
462.526
463.018
459.331
461.301
452.891
456.553
442.966
448.336
430.354
436.919
416.31
423.434
401.984
409.12
388.288
395.008
376.008
381.92
365.99
370.664
358.807
362.043
353.955
356.174
349.942
351.931
345.84
347.913
341.54
343.721
339.296
329.014
323.255
326.148
314.059
319.279
302.301
308.285
289.148
295.923
276.356
282.479
266.527
271.031
260.529
262.962
259.396
259.395
262.965
260.531
271.036
266.53
282.487
276.362
295.935
289.158
308.3
302.314
319.3
314.077
323.277
334.528
339.319
336.964
343.739
341.56
347.928
345.857
351.95
349.958
356.199
353.976
362.077
358.836
370.712
366.031
381.979
376.062
395.062
388.348
409.124
402.022
423.291
416.256
436.494
430.089
447.48
442.344
455.125
451.765
459.226
457.581
460.522
460.16
459.973
460.446
457.995
459.149
454.736
456.521
450.287
452.648
444.866
447.683
438.804
441.885
432.663
435.7
427.019
429.758
422.089
424.459
418.231
419.97
416.191
416.991
415.043
415.613
609.713
609.747
609.653
609.681
609.617
609.632
609.613
609.61
609.664
609.631
609.785
609.715
609.967
609.871
610.113
610.063
610.125
610.192
610.343
610.448
610.134
610.175
609.931
610.039
609.749
609.834
609.623
609.678
609.561
609.584
609.555
609.552
609.594
609.569
609.666
609.627
609.708
609.588
609.632
609.578
610.837
610.129
614.522
612.184
624.344
618.247
645.74
633.441
674.711
660.233
686.795
652.841
476.034
571.813
607.905
577.34
609.737
609.801
609.749
610.02
609.808
611.364
610.477
615.698
613
627.854
620.276
655.371
639.435
690.615
674.852
694.18
693.746
692.694
331.014
366.974
377.466
386.737
620.197
733.284
577.132
353.333
364.14
391.847
610.632
610.502
467.089
575.021
549.661
552.796
401.122
398.409
400.555
624.332
394.491
392.143
391.652
414.871
407.959
322.226
324.36
432.91
609.652
396.392
312.954
486.713
452.575
387.188
398.608
617.506
615.591
532.093
527.268
614.148
668.772
439.54
468.45
446.35
482.073
394.721
416.997
498.422
331.946
331.976
414.647
609.805
438.118
636.104
599.106
560.242
612.391
563.604
581.082
331.176
543.561
360.258
390.815
379.844
356.556
382.787
367.226
384.849
393.579
617.879
614.657
462.198
488.285
374.812
609.383
608.41
609.855
610.847
610.698
471.875
471.913
563.184
575.087
552.037
464.277
504.246
420.264
400.192
316.162
321.54
318.514
323.15
610.074
610.573
610.431
685.068
401.308
309.346
305.794
305.234
694.501
684.135
610.112
612.345
614.02
447.858
448.072
385.678
385.463
302.52
608.863
615.246
414.717
612.887
542.31
432.926
445.234
552.863
947.018
554.28
610.002
609.886
610.063
332.955
339.263
369.799
346.193
387.841
357.656
399.601
403.43
400.536
383.785
399.95
557.574
553.784
716.361
475.349
386.061
608.176
609.754
610.959
610.662
615.421
476.726
476.603
552.04
573.853
337.283
428.512
458.438
702.704
417.537
418.023
414.202
414.679
311.058
324.58
609.658
448.422
314.774
301.108
613.539
384.416
541.033
300.949
409.837
410.264
410.345
581.773
342.779
336.682
337.064
378.248
337.885
392.306
396.338
383.734
891.013
544.837
559.658
348.159
396.683
392.493
608.312
610.029
611.062
610.404
481.03
542.079
571.037
533.171
433.88
423.015
680.114
384.616
405.461
301.22
302.895
324.855
608.721
611.344
567.231
438.77
645.215
664.697
404.374
406.2
402.193
403.206
400.757
401.353
400.858
400.674
401.582
413.07
421.127
421.045
420.519
420.95
420.113
420.2
420.898
420.319
423.089
421.806
426.914
424.792
432.166
429.392
438.291
435.16
444.645
441.482
450.575
447.698
455.617
453.212
459.953
457.898
463.424
461.808
465.436
464.676
465.212
465.609
462.184
464.092
455.868
459.467
446.069
451.377
433.534
440.069
419.491
426.626
405.07
412.267
391.213
398.016
378.828
384.777
368.86
373.49
361.761
364.97
356.726
359.083
352.356
354.512
348.146
350.235
343.956
346.049
339.687
341.857
334.927
337.377
332.361
326.291
329.284
320.678
323.414
311.911
316.901
300.776
306.415
288.402
294.79
276.199
282.068
266.716
271.05
260.874
263.257
259.757
259.757
263.259
260.876
271.055
266.72
282.077
276.206
294.802
288.413
306.431
300.79
316.923
311.931
323.437
320.7
329.316
326.318
332.397
337.41
334.962
341.885
339.718
346.071
343.981
350.252
348.165
354.528
352.371
359.105
356.745
365.001
361.788
373.533
368.897
384.828
378.877
398.054
391.262
412.237
405.084
426.426
419.393
439.56
433.199
450.415
445.351
457.899
454.619
461.865
460.283
463.05
462.739
462.393
462.92
460.315
461.516
457.001
458.807
452.557
454.908
447.211
449.977
441.355
444.311
435.563
438.42
430.236
432.829
425.523
427.788
422.197
423.598
420.903
421.361
420.492
420.618
420.281
420.496
419.582
609.881
609.885
609.857
609.871
609.828
609.842
609.806
609.817
609.788
609.796
609.789
609.786
609.817
609.799
609.869
609.841
609.877
609.89
609.842
609.846
609.88
609.857
609.92
609.905
609.87
609.905
609.813
609.839
609.778
609.792
609.768
609.77
609.777
609.771
609.798
609.786
609.835
609.814
609.875
609.857
609.897
609.883
610.064
609.957
609.99
609.843
609.905
433.9
609.811
609.911
438.585
610.743
610.166
613.908
611.874
622.361
617.101
642.455
630.713
673.822
657.433
700.077
688.8
651.49
685.084
546.057
564.21
599.392
571.315
609.964
609.968
610.175
610.013
611.297
610.546
615.166
612.713
626.266
619.277
653.104
637.281
694.841
673.274
701.997
701.899
701.161
325.729
607.054
368.265
375.685
471.567
405.111
407.526
389.438
616.404
617.736
463.885
351.535
363.288
608.691
610.129
610.665
471.919
569.081
549.479
480.865
473.928
469.55
443.236
403.072
404.687
399.293
401.34
395.811
397.444
394.053
394.767
394.019
393.8
395.452
418.704
419.477
407.842
316.795
315.291
610.259
449.148
398.946
304.675
677.901
407.76
478.057
488.629
609.234
609.471
491.656
612.871
447.847
390.44
300.945
659.328
421.13
425.442
342.783
346.557
515.894
632.849
613.86
694.222
478.336
397.668
418.451
542.447
435.858
410.139
448.635
409.591
733.652
421.102
632.052
592.495
563.934
554.202
405.644
558.783
577.642
609.735
609.916
326.165
347.912
363.227
391.347
380.838
358.025
382.081
367.198
407.392
402.207
388.366
396.398
693.917
545.935
614.462
440.945
714.428
479.663
375.585
576.016
498.119
414.025
608.847
608.083
609.574
609.973
610.668
476.956
476.734
556.982
568.07
413.012
416.068
416.558
424.208
468.258
553.54
463.966
447.538
416.93
413.365
413.031
416.979
353.178
415.343
414.092
400.206
310.863
316.244
313.186
315.374
609.858
610.466
610.282
388.951
403.689
302.057
298.915
298.591
611.697
443.496
389.196
296.884
409.822
406.203
453.264
649.624
336.399
333.386
326.51
329.771
609.752
609.93
706.67
340.412
509.933
326.545
328.518
345.904
373.074
349.251
387.603
358.496
397.071
387.975
542.563
403.006
645.824
553.285
609.114
694.934
387.7
334.435
607.961
609.641
609.683
610.424
482.116
481.305
545.676
565.736
526.903
413.384
429.304
441.989
417.035
522.063
457.793
416.169
412.133