/*--------------------------------*- C++ -*----------------------------------*\
| =========                 |                                                 |
| \\      /  F ield         | OpenFOAM: The Open Source CFD Toolbox           |
|  \\    /   O peration     | Version:  2212                                  |
|   \\  /    A nd           | Website:  www.openfoam.com                      |
|    \\/     M anipulation  |                                                 |
\*---------------------------------------------------------------------------*/
FoamFile
{
    version     2.0;
    format      ascii;
    arch        "LSB;label=32;scalar=64";
    class       volScalarField;
    location    "0.0228";
    object      T;
}
// * * * * * * * * * * * * * * * * * * * * * * * * * * * * * * * * * * * * * //

dimensions      [0 0 0 1 0 0 0];

internalField   nonuniform List<scalar> 
2308
(
272.386
272.28
272.741
272.138
272.232
272.187
272.164
272.208
272.249
271.902
271.923
271.952
271.973
271.993
272.014
272.034
272.053
272.068
272.05
272.031
272.011
271.99
271.968
271.946
271.923
271.901
271.879
271.857
272.168
272.071
271.834
271.812
271.789
271.767
271.745
271.723
271.701
271.679
271.657
271.634
271.612
271.591
271.569
271.548
271.527
271.54
271.56
271.58
271.601
271.621
271.642
271.664
271.685
271.707
271.728
271.75
271.772
271.793
271.815
271.837
271.86
271.881
271.902
271.922
271.94
271.959
271.978
271.998
272.018
272.037
272.057
271.506
271.521
272.051
272.03
272.009
271.987
271.965
271.943
271.921
271.898
271.875
271.853
271.831
271.808
271.785
271.763
271.74
271.717
271.695
271.672
271.649
271.626
271.603
271.58
271.557
271.535
271.512
272.086
271.49
272.089
272.076
271.536
271.553
271.571
271.59
271.61
271.63
271.65
271.671
271.692
271.713
271.734
271.755
271.776
271.797
271.818
271.84
271.861
271.881
271.902
271.923
271.943
271.962
271.982
272.002
272.022
272.041
272.061
272.222
272.181
272.163
272.174
272.075
272.052
272.029
272.007
271.985
271.963
271.94
271.918
271.895
271.872
271.85
271.827
271.804
271.781
271.758
271.735
271.712
271.689
271.665
271.641
271.618
271.594
271.57
271.546
271.521
271.497
271.473
271.449
271.468
271.486
271.503
272.22
271.52
272.237
272.244
272.094
272.27
272.217
272.105
272.08
271.424
271.446
271.467
271.486
271.505
271.521
271.534
271.549
271.565
271.582
271.6
271.619
271.638
271.657
271.677
271.698
271.718
271.739
271.759
271.78
271.801
271.822
271.842
271.863
271.883
271.904
271.925
271.945
271.965
271.985
272.006
272.026
272.045
272.065
272.12
272.418
272.217
272.204
272.182
272.161
272.139
272.118
272.095
272.073
272.05
272.028
272.005
271.983
271.96
271.938
271.915
271.892
271.869
271.846
271.823
271.8
271.777
271.754
271.73
271.706
271.682
271.658
271.634
271.609
271.584
271.559
271.534
271.508
271.482
271.456
271.43
271.403
272.909
272.256
272.452
272.118
272.652
272.255
272.1
272.123
271.535
271.547
271.561
271.576
271.592
271.609
271.627
271.645
271.664
271.684
271.703
271.723
271.743
271.763
271.784
271.804
271.825
271.845
271.866
271.886
271.907
271.927
271.948
271.968
271.989
272.009
272.029
272.049
272.069
272.085
272.283
272.244
272.204
272.181
272.159
272.137
272.115
272.093
272.071
272.048
272.026
272.003
271.981
271.958
271.935
271.912
271.889
271.866
271.843
271.82
271.797
271.773
271.749
271.725
271.701
271.676
271.651
271.626
271.601
271.575
271.549
271.522
271.495
271.468
271.44
271.411
271.381
271.351
271.375
271.4
271.424
271.448
271.471
271.491
271.51
271.525
272.485
272.715
273.139
272.274
272.368
273.148
272.089
272.104
272.299
272.294
272.379
272.202
272.201
272.179
272.157
272.135
272.113
272.091
272.069
272.046
272.024
272.001
271.979
271.956
271.933
271.91
271.887
271.864
271.84
271.817
271.793
271.769
271.745
271.72
271.695
271.67
271.645
271.619
271.592
271.566
271.538
271.511
271.482
271.453
271.423
271.393
271.361
271.328
271.293
271.319
271.347
271.375
271.403
271.43
271.456
271.48
271.501
271.518
271.531
271.538
271.546
271.558
271.57
271.585
271.6
271.617
271.634
271.652
271.67
271.689
271.708
271.728
271.748
271.767
271.788
271.808
271.828
271.848
271.869
271.889
271.909
271.93
271.95
271.971
271.991
272.012
272.032
272.053
272.073
272.298
272.108
272.124
272.142
272.314
272.31
272.291
272.273
272.253
272.223
272.221
272.199
272.177
272.155
272.133
272.111
272.089
272.067
272.044
272.022
271.999
271.977
271.954
271.931
271.908
271.884
271.861
271.837
271.814
271.789
271.765
271.741
271.716
271.69
271.664
271.638
271.612
271.585
271.557
271.529
271.5
271.47
271.44
271.408
271.376
271.342
271.307
271.269
271.23
271.257
271.286
271.317
271.349
271.382
271.414
271.444
271.471
271.495
271.515
271.529
271.538
271.541
271.547
271.555
271.566
271.579
271.593
271.608
271.624
271.64
271.658
271.676
271.694
271.713
271.732
271.752
271.771
271.791
271.811
271.831
271.851
271.871
271.891
271.912
271.932
271.952
271.973
271.993
272.014
272.035
272.055
272.076
272.092
272.316
272.314
273.084
272.112
272.266
272.287
272.307
272.142
272.184
272.145
272.127
272.329
272.327
271.187
271.218
271.251
271.286
271.324
271.361
271.399
271.434
271.466
271.494
271.515
271.531
271.54
271.543
271.543
271.547
271.553
271.562
271.573
271.585
271.599
271.614
271.629
271.646
271.663
271.681
271.699
271.717
271.736
271.755
271.775
271.794
271.814
271.833
271.853
271.873
271.893
271.914
271.934
271.954
271.975
271.995
272.016
272.037
272.057
272.078
272.096
272.232
272.332
272.172
272.726
272.198
272.175
272.153
272.13
272.109
272.087
272.065
272.042
272.02
271.997
271.975
271.952
271.929
271.905
271.882
271.858
271.835
271.811
271.786
271.761
271.736
271.711
271.685
271.659
271.632
271.605
271.577
271.549
271.519
271.489
271.459
271.427
271.394
271.36
271.324
271.287
271.247
271.205
271.16
272.331
272.333
272.876
272.145
272.348
272.131
271.541
271.544
271.549
271.557
271.567
271.578
271.59
271.604
271.619
271.634
271.651
271.668
271.685
271.703
271.721
271.74
271.758
271.777
271.797
271.816
271.836
271.856
271.875
271.895
271.915
271.936
271.956
271.976
271.996
272.017
272.038
272.059
272.08
272.099
272.217
272.347
271.112
271.142
271.175
271.213
271.254
271.297
271.341
271.385
271.427
271.465
271.497
271.522
271.539
271.547
271.547
271.542
272.247
272.344
272.321
272.299
272.277
272.188
272.196
272.26
272.145
272.195
272.172
272.15
272.128
272.106
272.084
272.062
272.04
272.018
271.995
271.973
271.95
271.927
271.903
271.88
271.856
271.832
271.808
271.783
271.758
271.733
271.707
271.681
271.654
271.627
271.599
271.57
271.541
271.511
271.48
271.448
271.415
271.381
271.345
271.308
271.269
271.228
271.184
271.137
271.086
272.842
272.115
272.16
272.347
272.35
272.35
272.202
272.871
272.905
272.174
272.15
272.102
272.172
272.517
272.2
272.812
271.532
271.536
271.542
271.55
271.559
271.569
271.581
271.594
271.608
271.623
271.639
271.655
271.672
271.689
271.706
271.724
271.743
271.761
271.78
271.799
271.818
271.838
271.857
271.877
271.897
271.917
271.937
271.957
271.977
271.997
272.018
272.038
272.059
272.08
272.101
272.232
272.4
272.428
271.031
271.059
271.091
271.129
271.172
271.218
271.268
271.32
271.373
271.423
271.469
271.508
271.537
271.555
271.561
271.557
271.546
271.53
272.19
272.36
272.335
272.312
272.289
272.268
272.685
272.403
272.211
272.19
272.169
272.147
272.126
272.104
272.082
272.061
272.038
272.016
271.994
271.971
271.948
271.925
271.901
271.878
271.854
271.829
271.805
271.78
271.755
271.729
271.703
271.676
271.649
271.621
271.593
271.564
271.534
271.503
271.471
271.439
271.405
271.369
271.332
271.294
271.253
271.211
271.165
271.117
271.065
271.009
272.26
272.119
272.412
272.323
272.343
272.364
272.135
272.367
272.367
272.369
272.811
272.41
272.663
272.148
272.119
272.217
272.875
272.84
272.099
272.079
272.059
272.039
272.018
271.998
271.978
271.958
271.938
271.918
271.898
271.879
271.859
271.84
271.82
271.801
271.782
271.764
271.745
271.727
271.709
271.692
271.675
271.658
271.642
271.626
271.611
271.597
271.583
271.571
271.559
271.548
271.538
271.529
271.52
271.512
272.809
270.948
270.971
271
271.036
271.078
271.126
271.179
271.238
271.299
271.362
271.423
271.48
271.527
271.562
271.582
271.585
271.575
271.555
271.53
271.504
272.243
272.123
272.304
272.914
272.912
272.912
272.912
272.911
272.873
272.836
272.801
272.154
272.779
272.386
272.43
272.422
272.337
272.357
272.379
272.154
272.272
272.863
272.373
272.348
272.324
272.303
272.284
272.252
272.269
272.225
272.206
272.186
272.165
272.144
272.123
272.102
272.08
272.059
272.037
272.014
271.992
271.969
271.946
271.923
271.899
271.876
271.852
271.827
271.803
271.777
271.752
271.726
271.7
271.673
271.645
271.617
271.588
271.558
271.528
271.496
271.464
271.43
271.395
271.359
271.321
271.282
271.24
271.196
271.15
271.1
271.048
270.991
270.93
272.396
272.374
272.353
272.673
272.363
272.139
272.701
272.343
272.754
272.387
272.387
272.385
272.362
272.371
272.35
272.805
272.384
272.764
272.792
272.442
272.37
272.395
272.831
272.87
272.91
272.099
272.079
272.059
272.039
272.019
271.999
271.979
271.959
271.939
271.919
271.899
271.88
271.86
271.841
271.822
271.803
271.784
271.766
271.748
271.73
271.712
271.694
271.677
271.661
271.645
271.629
271.614
271.599
271.585
271.571
271.558
271.545
271.533
271.52
271.508
271.495
271.479
272.296
272.315
272.335
272.358
272.383
272.41
272.625
272.227
272.13
272.317
272.341
272.768
272.773
272.418
272.393
272.129
272.717
272.664
272.238
272.254
272.956
272.818
272.868
272.438
270.864
270.881
270.905
270.936
270.974
271.02
271.074
271.135
271.203
271.277
271.353
271.428
271.499
271.559
271.603
271.624
271.622
271.601
271.569
271.531
271.495
271.461
272.955
272.953
272.951
272.951
272.951
272.95
272.782
272.144
272.285
272.333
272.325
272.195
272.738
272.742
272.407
272.698
272.448
272.401
272.71
272.158
273.153
272.953
272.406
272.249
272.235
272.218
272.201
272.182
272.162
272.142
272.121
272.1
272.079
272.057
272.035
272.013
271.99
271.968
271.945
271.921
271.898
271.874
271.85
271.825
271.8
271.775
271.749
271.723
271.696
271.669
271.641
271.613
271.583
271.553
271.522
271.49
271.457
271.423
271.387
271.35
271.311
271.271
271.229
271.184
271.137
271.087
271.034
270.978
270.917
270.852
273.103
272.557
273.151
272.329
272.77
272.406
272.859
272.275
272.201
272.763
272.235
272.221
272.289
272.305
272.323
272.344
272.367
272.392
272.419
272.447
272.468
272.477
272.213
272.339
272.177
272.258
272.136
272.117
272.098
272.078
272.059
272.039
272.019
271.999
271.979
271.959
271.94
271.92
271.9
271.881
271.862
271.842
271.823
271.805
271.786
271.767
271.749
271.731
271.714
271.697
271.68
271.663
271.647
271.631
271.615
271.6
271.585
271.571
271.556
271.542
271.527
271.512
271.496
271.478
271.458
271.433
272.825
272.866
272.908
272.949
272.736
273.147
272.351
272.374
272.401
272.525
272.46
272.492
272.112
272.274
272.164
272.15
272.297
272.321
272.307
272.27
272.733
272.737
272.459
272.425
272.136
272.67
272.202
272.627
272.588
272.442
272.417
272.668
272.177
272.216
272.225
272.321
272.6
272.63
272.665
272.269
272.282
272.993
272.994
272.993
272.992
272.991
272.99
272.99
272.989
272.989
272.266
272.164
272.424
272.427
272.701
272.642
272.237
272.245
272.23
272.214
272.197
272.178
272.159
272.139
272.119
272.098
272.077
272.056
272.034
272.012
271.989
271.966
271.943
271.92
271.896
271.872
271.848
271.824
271.799
271.773
271.747
271.721
271.694
271.666
271.638
271.609
271.58
271.549
271.518
271.485
271.451
271.417
271.38
271.343
271.303
271.262
271.219
271.174
271.127
271.077
271.024
270.968
270.909
270.846
270.778
270.782
270.791
270.808
270.832
270.863
270.904
270.954
271.014
271.084
271.163
271.251
271.343
271.437
271.527
271.607
271.665
271.689
271.677
271.639
271.587
271.532
271.481
271.438
271.402
272.314
272.703
272.509
272.5
272.477
272.276
272.995
272.902
272.156
272.172
272.293
272.311
272.33
272.35
272.373
272.398
272.425
272.455
272.486
272.519
272.579
272.54
272.551
272.157
272.309
272.289
272.734
272.454
272.119
272.631
272.569
272.551
272.431
272.627
272.196
272.631
272.242
272.501
272.467
272.435
272.406
272.38
272.357
272.334
272.294
272.952
272.233
272.777
272.82
272.863
272.905
272.948
272.989
272.246
272.183
273.158
272.448
273.036
273.034
273.033
273.032
273.032
273.03
273.029
273.029
273.028
273.028
273.028
273.028
272.596
272.665
272.214
272.392
272.16
273.153
272.252
272.259
272.243
272.227
272.211
272.194
272.176
272.157
272.138
272.118
272.097
272.076
272.054
272.033
272.01
271.988
271.965
271.942
271.919
271.895
271.871
271.847
271.822
271.797
271.771
271.745
271.719
271.692
271.664
271.636
271.606
271.576
271.546
271.514
271.481
271.447
271.412
271.375
271.337
271.297
271.256
271.212
271.167
271.119
271.069
271.016
270.961
270.904
270.843
270.78
270.713
270.706
270.705
270.712
270.727
270.75
270.782
270.824
270.878
270.944
271.023
271.115
271.22
271.331
271.448
271.565
271.675
271.76
271.79
271.759
271.69
271.608
271.529
271.461
271.406
271.363
271.332
271.376
271.411
271.44
271.465
271.486
271.505
271.522
271.539
271.554
271.57
271.585
271.601
271.616
271.632
271.648
271.665
271.681
271.698
271.715
271.733
271.751
271.769
271.787
271.806
271.824
271.843
271.862
271.882
271.901
271.921
271.94
271.96
271.979
271.999
272.019
272.039
272.058
272.078
272.098
272.117
272.137
272.156
272.175
272.192
272.537
272.231
272.242
272.258
272.276
272.209
272.299
272.448
272.598
272.17
272.184
272.303
272.278
272.26
272.296
272.699
272.698
272.493
272.597
272.532
272.508
272.575
272.441
272.469
272.664
272.59
272.55
272.202
272.627
272.457
272.541
272.564
272.48
272.487
272.697
272.278
272.291
272.177
272.566
272.53
272.495
272.461
272.43
272.402
272.377
272.354
272.333
272.315
272.297
272.467
272.25
272.186
272.318
272.338
272.36
272.384
272.41
272.439
272.471
272.508
272.256
272.228
272.712
272.762
272.811
272.857
272.186
272.555
272.259
272.559
272.232
272.629
272.219
272.77
272.815
272.859
272.903
272.947
272.99
273.031
272.242
272.218
272.255
272.239
272.222
272.206
272.189
272.172
272.154
272.136
272.117
272.097
272.078
272.058
272.039
272.019
271.999
271.98
271.96
271.941
271.921
271.902
271.882
271.863
271.844
271.825
271.807
271.788
271.77
271.752
271.734
271.716
271.699
271.682
271.666
271.649
271.633
271.617
271.601
271.585
271.569
271.553
271.536
271.518
271.499
271.478
271.454
271.427
271.395
271.357
271.313
272.498
272.467
270.642
270.628
270.621
270.624
270.637
270.659
270.69
270.732
270.789
270.86
270.948
271.055
271.181
271.315
271.457
271.609
271.768
271.907
271.951
271.878
271.753
271.627
271.516
271.426
271.363
271.311
271.277
271.26
272.603
273.074
273.072
273.071
273.07
273.069
273.068
273.067
273.067
273.066
273.066
273.066
273.067
273.071
272.947
272.99
273.034
273.075
272.274
272.257
272.241
272.225
272.209
272.192
272.174
272.156
272.136
272.116
272.096
272.075
272.053
272.032
272.01
271.987
271.964
271.941
271.918
271.894
271.87
271.846
271.821
271.796
271.77
271.744
271.717
271.69
271.662
271.634
271.604
271.574
271.543
271.511
271.478
271.444
271.408
271.371
271.333
271.292
271.251
271.207
271.161
271.113
271.064
271.011
270.957
270.901
270.843
270.784
270.724
270.663
272.592
272.525
272.66
272.661
272.25
272.285
272.19
272.204
272.51
272.472
272.285
272.494
272.234
272.304
272.322
272.341
272.363
272.387
272.413
272.442
272.475
272.512
272.862
272.081
272.654
272.707
272.761
272.812
272.3
272.587
272.543
272.501
272.465
272.433
272.406
272.38
272.357
272.337
272.317
272.197
272.273
272.267
272.659
272.519
272.558
272.528
272.484
272.281
272.266
272.251
272.236
272.221
272.205
272.188
272.171
272.153
272.135
272.116
272.097
272.078
272.058
272.039
272.019
272
271.98
271.96
271.941
271.921
271.902
271.883
271.864
271.845
271.826
271.807
271.789
271.77
271.752
271.735
271.717
271.7
271.683
271.666
271.65
271.634
271.617
271.601
271.585
271.569
271.552
271.534
271.515
271.495
271.472
271.447
271.418
271.385
271.346
271.302
271.252
272.714
272.763
272.81
272.856
272.902
272.948
272.993
273.037
273.076
272.223
272.623
272.495
272.586
272.62
272.24
272.21
272.932
272.98
273.028
273.071
272.266
272.622
273.111
273.109
273.108
273.107
273.107
273.106
273.105
273.105
273.104
273.104
273.104
273.104
273.104
273.108
273.112
273.138
270.6
270.564
270.543
270.526
270.525
270.538
270.56
270.587
270.626
270.684
270.759
270.855
270.976
271.132
271.289
271.454
271.647
271.881
272.146
272.231
272.048
271.817
271.63
271.481
271.366
271.306
271.241
271.206
271.196
271.196
272.271
272.255
272.24
272.224
272.208
272.191
272.173
272.155
272.136
272.116
272.095
272.074
272.053
272.031
272.009
271.987
271.964
271.941
271.917
271.894
271.87
271.845
271.82
271.795
271.769
271.743
271.716
271.689
271.661
271.632
271.603
271.572
271.541
271.509
271.476
271.441
271.405
271.368
271.33
271.289
271.247
271.203
271.158
271.11
271.06
271.008
270.955
270.9
270.845
270.789
270.734
270.684
270.636
272.514
272.552
272.619
272.256
272.216
271.244
271.295
272.313
272.303
271.184
271.143
271.11
271.132
271.177
271.156
271.381
271.261
271.84
271.566
272.772
272.28
271.955
272.561
271.393
271.628
271.035
271.208
270.755
270.881
270.573
270.654
270.497
270.518
270.453
270.477
270.437
270.434
270.489
270.465
270.697
270.668
270.603
270.54
270.792
270.741
270.9
270.846
271.007
270.954
271.108
271.058
271.202
271.156
271.288
271.246
271.367
271.328
271.44
271.404
271.508
271.475
271.572
271.54
271.632
271.602
271.688
271.66
271.743
271.716
271.795
271.769
271.845
271.82
271.893
271.869
271.94
271.917
271.986
271.964
272.031
272.009
272.074
272.053
272.115
272.095
272.154
272.135
272.191
272.173
272.223
272.207
272.254
272.239
272.286
272.27
272.319
272.302
272.359
272.338
272.407
272.382
272.467
272.435
272.548
272.504
272.649
272.597
272.757
272.704
272.853
272.807
272.951
272.901
273.047
273.001
273.122
273.142
273.144
273.141
273.141
273.141
273.141
273.142
273.142
273.142
273.142
273.143
273.142
273.143
273.143
273.134
273.144
273.115
273.122
273.149
273.156
273.099
273.123
273.021
273.065
272.918
272.971
272.815
272.865
272.708
272.762
272.606
272.656
272.515
272.558
272.444
272.477
272.388
272.415
272.343
272.364
272.307
272.324
272.278
272.292
272.249
272.264
272.22
272.235
272.188
272.204
272.153
272.171
272.116
272.134
272.077
272.097
272.039
272.058
272
272.019
271.96
271.98
271.921
271.941
271.883
271.902
271.845
271.864
271.807
271.826
271.771
271.789
271.735
271.753
271.7
271.718
271.667
271.683
271.634
271.65
271.601
271.618
271.568
271.585
271.533
271.551
271.493
271.514
271.444
271.47
271.38
271.414
271.34
273.149
273.156
272.58
272.191
271.126
272.523
270.67
272.817
273.158
273.159
273.159
273.16
273.16
273.16
273.16
272.168
272.593
272.579
272.543
272.545
272.098
272.126
272.102
272.281
272.247
272.264
272.296
272.263
272.279
272.312
272.277
272.294
272.328
272.291
272.309
272.584
272.232
273.155
272.236
273.1
272.217
272.426
272.562
272.237
272.26
272.212
272.148
272.066
272.6
272.206
272.144
272.267
272.899
272.243
272.921
272.187
272.222
272.676
272.17
273.133
272.145
272.457
272.168
272.155
272.199
272.286
273.155
272.844
272.43
272.285
272.292
272.598
273.003
272.766
272.351
273.122
272.16
272.116
272.133
272.333
272.104
272.784
272.259
272.36
272.209
271.938
271.886
272.29
)
;

boundaryField
{
    wall
    {
        type            zeroGradient;
    }
    outlet
    {
        type            inletOutlet;
        inletValue      uniform 85;
        value           nonuniform List<scalar> 
33
(
271.479
271.501
271.502
271.566
271.509
271.795
271.652
272.238
271.972
273.196
272.687
272.332
272.924
271.799
272.017
271.501
271.642
271.299
271.384
271.179
271.234
271.109
271.137
271.074
271.091
271.066
271.065
271.11
271.089
271.222
271.161
271.51
271.286
)
;
    }
    inlet
    {
        type            fixedValue;
        value           uniform 273.16;
    }
    frontAndBackPlanes
    {
        type            empty;
    }
}


// ************************************************************************* //
