/*--------------------------------*- C++ -*----------------------------------*\
| =========                 |                                                 |
| \\      /  F ield         | OpenFOAM: The Open Source CFD Toolbox           |
|  \\    /   O peration     | Version:  2212                                  |
|   \\  /    A nd           | Website:  www.openfoam.com                      |
|    \\/     M anipulation  |                                                 |
\*---------------------------------------------------------------------------*/
FoamFile
{
    version     2.0;
    format      ascii;
    arch        "LSB;label=32;scalar=64";
    class       volScalarField;
    location    "0.1415";
    object      s;
}
// * * * * * * * * * * * * * * * * * * * * * * * * * * * * * * * * * * * * * //

dimensions      [0 0 0 0 0 0 0];

internalField   nonuniform List<scalar> 
24240
(
9.62239e-108
9.52572e-108
9.71535e-108
9.32315e-108
9.59686e-108
9.54025e-108
9.55794e-108
9.28938e-108
9.36224e-108
9.63723e-108
9.3623e-108
9.70752e-108
9.32833e-108
9.59797e-108
9.25873e-108
9.69201e-108
9.22927e-108
9.39076e-108
9.51677e-108
9.13471e-108
8.75363e-105
8.66285e-105
8.83431e-105
8.48082e-105
8.72661e-105
8.67708e-105
8.69261e-105
8.44761e-105
8.51503e-105
8.76368e-105
8.51649e-105
8.82714e-105
8.48602e-105
8.7297e-105
8.42319e-105
8.81507e-105
8.39597e-105
8.54143e-105
8.65469e-105
8.31013e-105
4.46934e-102
4.42146e-102
4.50858e-102
4.32971e-102
4.45359e-102
4.42937e-102
4.4369e-102
4.31142e-102
4.34631e-102
4.47275e-102
4.34783e-102
4.50483e-102
4.33258e-102
4.45627e-102
4.3008e-102
4.49975e-102
4.28644e-102
4.3602e-102
4.41735e-102
4.24264e-102
1.28895e-99
1.27468e-99
1.29972e-99
1.24858e-99
1.28385e-99
1.27719e-99
1.27922e-99
1.24292e-99
1.25308e-99
1.28948e-99
1.25377e-99
1.29863e-99
1.24948e-99
1.28499e-99
1.24043e-99
1.2975e-99
1.23608e-99
1.25728e-99
1.27357e-99
1.22344e-99
2.75128e-97
2.71966e-97
2.77317e-97
2.66479e-97
2.73919e-97
2.72572e-97
2.7296e-97
2.65179e-97
2.67353e-97
2.75146e-97
2.67562e-97
2.7707e-97
2.66682e-97
2.74239e-97
2.64783e-97
2.76903e-97
2.63774e-97
2.68313e-97
2.71759e-97
2.61059e-97
4.04377e-95
3.99532e-95
4.07453e-95
3.91603e-95
4.02428e-95
4.00568e-95
4.01046e-95
3.8955e-95
3.92716e-95
4.0429e-95
3.9314e-95
4.07063e-95
3.91923e-95
4.03032e-95
3.89202e-95
4.06944e-95
3.87519e-95
3.9428e-95
3.99312e-95
3.83471e-95
4.24036e-93
4.18661e-93
4.27156e-93
4.10519e-93
4.21806e-93
4.20004e-93
4.20331e-93
4.08174e-93
4.11373e-93
4.23853e-93
4.11999e-93
4.26671e-93
4.1086e-93
4.226e-93
4.0814e-93
4.26712e-93
4.05956e-93
4.13315e-93
4.18605e-93
4.01573e-93
2.9467e-91
2.9061e-91
2.96811e-91
2.85113e-91
2.92982e-91
2.91851e-91
2.91866e-91
2.83294e-91
2.853e-91
2.94514e-91
2.85958e-91
2.96371e-91
2.85348e-91
2.93682e-91
2.83629e-91
2.96575e-91
2.81535e-91
2.87084e-91
2.90829e-91
2.78287e-91
5.40904e-90
5.3488e-90
5.43152e-90
5.24224e-90
5.37315e-90
5.34833e-90
5.36351e-90
5.2153e-90
5.27056e-90
5.39263e-90
5.27235e-90
5.43304e-90
5.24941e-90
5.38309e-90
5.20502e-90
5.4327e-90
5.21261e-90
5.27486e-90
5.33005e-90
5.16856e-90
4.63717e-90
4.64898e-90
4.6248e-90
4.53706e-90
4.61267e-90
4.57767e-90
4.64286e-90
4.54272e-90
4.65092e-90
4.59775e-90
4.61034e-90
4.6577e-90
4.5483e-90
4.59967e-90
4.46762e-90
4.62045e-90
4.61461e-90
4.54924e-90
4.56035e-90
4.62028e-90
6.80751e-90
6.90691e-90
6.92797e-90
6.84685e-90
6.79114e-90
6.84639e-90
6.96428e-90
6.8007e-90
7.00768e-90
6.97212e-90
6.96e-90
6.99358e-90
6.8807e-90
6.80244e-90
6.74095e-90
6.85909e-90
6.81322e-90
6.79571e-90
6.84648e-90
6.90086e-90
8.10994e-90
8.18876e-90
8.21607e-90
8.11683e-90
8.0427e-90
7.87582e-90
8.05137e-90
7.88332e-90
8.14444e-90
8.37608e-90
8.30988e-90
8.03892e-90
8.27444e-90
8.14199e-90
8.1324e-90
8.19568e-90
7.83379e-90
8.18236e-90
8.02648e-90
8.06273e-90
9.18348e-90
9.43654e-90
9.34671e-90
9.27284e-90
9.31895e-90
9.41161e-90
9.71401e-90
9.29537e-90
9.35551e-90
9.26202e-90
9.30105e-90
9.29387e-90
9.34539e-90
9.28914e-90
9.11501e-90
9.29653e-90
9.36787e-90
9.18544e-90
9.14047e-90
9.19257e-90
1.02201e-89
1.02728e-89
1.03986e-89
1.05462e-89
1.04251e-89
1.05855e-89
1.0388e-89
1.0548e-89
1.04685e-89
1.00035e-89
1.01751e-89
1.01631e-89
1.0264e-89
1.00433e-89
1.00421e-89
1.01095e-89
1.0104e-89
1.02733e-89
1.01778e-89
1.03772e-89
1.0394e-89
1.04445e-89
1.06211e-89
1.05566e-89
1.04156e-89
1.05203e-89
1.05701e-89
1.07214e-89
1.03978e-89
1.05625e-89
1.04987e-89
1.05112e-89
1.0667e-89
1.05119e-89
1.04175e-89
1.08277e-89
1.04619e-89
1.03574e-89
1.04972e-89
1.06214e-89
1.06952e-89
1.04786e-89
1.06424e-89
1.05026e-89
1.06654e-89
1.0734e-89
1.07972e-89
1.06762e-89
1.03977e-89
1.05005e-89
1.04335e-89
1.08151e-89
1.0682e-89
1.08791e-89
1.08218e-89
1.08373e-89
1.07176e-89
1.06917e-89
1.05651e-89
1.06285e-89
9.71724e-90
9.83512e-90
9.73099e-90
1.0138e-89
9.85066e-90
1.0102e-89
9.90993e-90
9.97218e-90
9.84744e-90
9.87328e-90
9.84755e-90
1.00508e-89
9.8954e-90
1.01845e-89
9.80067e-90
1.00551e-89
9.99547e-90
9.64414e-90
1.00334e-89
9.99852e-90
8.92151e-90
9.34435e-90
9.17673e-90
9.15094e-90
9.00323e-90
9.47103e-90
9.31856e-90
9.30835e-90
9.24945e-90
9.04848e-90
9.25622e-90
9.44189e-90
9.16786e-90
9.65964e-90
9.24979e-90
9.43109e-90
9.53194e-90
9.25612e-90
9.46985e-90
9.48203e-90
7.96311e-90
7.94042e-90
7.87293e-90
8.0224e-90
8.14794e-90
8.10774e-90
7.96089e-90
7.90646e-90
8.17805e-90
7.88604e-90
8.10992e-90
8.10606e-90
7.94366e-90
8.18941e-90
8.17712e-90
8.31538e-90
8.04058e-90
8.24505e-90
8.13065e-90
8.37654e-90
5.95961e-90
6.01295e-90
5.96533e-90
5.92844e-90
6.07472e-90
6.00701e-90
6.12479e-90
6.00722e-90
6.12639e-90
6.15939e-90
6.0441e-90
6.2135e-90
6.0096e-90
6.25578e-90
6.03141e-90
6.02492e-90
6.12036e-90
6.21233e-90
6.10133e-90
6.29557e-90
4.72751e-106
4.67903e-106
4.77085e-106
4.58049e-106
4.71289e-106
4.68598e-106
4.6948e-106
4.56274e-106
4.59951e-106
4.73268e-106
4.59993e-106
4.76706e-106
4.5831e-106
4.7141e-106
4.54871e-106
4.76017e-106
4.53516e-106
4.61273e-106
4.67362e-106
4.48921e-106
4.68779e-103
4.63821e-103
4.72868e-103
4.54173e-103
4.67126e-103
4.64568e-103
4.6541e-103
4.5228e-103
4.55985e-103
4.69113e-103
4.56103e-103
4.72494e-103
4.54461e-103
4.67366e-103
4.51077e-103
4.71922e-103
4.49708e-103
4.57327e-103
4.63287e-103
4.45161e-103
2.50111e-100
2.47382e-100
2.52183e-100
2.42303e-100
2.49121e-100
2.47819e-100
2.48247e-100
2.41222e-100
2.43225e-100
2.50201e-100
2.43333e-100
2.51988e-100
2.42476e-100
2.49322e-100
2.40688e-100
2.51747e-100
2.39933e-100
2.43971e-100
2.47111e-100
2.37511e-100
7.52756e-98
7.44277e-98
7.5867e-98
7.29206e-98
7.49453e-98
7.4573e-98
7.46936e-98
7.25731e-98
7.31819e-98
7.52772e-98
7.32292e-98
7.58089e-98
7.29782e-98
7.50282e-98
7.24462e-98
7.5756e-98
7.22079e-98
7.34182e-98
7.43517e-98
7.14783e-98
1.62672e-95
1.60775e-95
1.63884e-95
1.57568e-95
1.61888e-95
1.61128e-95
1.61364e-95
1.56764e-95
1.58084e-95
1.62622e-95
1.58223e-95
1.63754e-95
1.57701e-95
1.62117e-95
1.5657e-95
1.63685e-95
1.56011e-95
1.58633e-95
1.60628e-95
1.54427e-95
2.43014e-93
2.40066e-93
2.44735e-93
2.35356e-93
2.41737e-93
2.40677e-93
2.40976e-93
2.34072e-93
2.3603e-93
2.42872e-93
2.36305e-93
2.4453e-93
2.35569e-93
2.42163e-93
2.33918e-93
2.44501e-93
2.32975e-93
2.36937e-93
2.39893e-93
2.30578e-93
2.51032e-91
2.47826e-91
2.52738e-91
2.4306e-91
2.49603e-91
2.48594e-91
2.4881e-91
2.41626e-91
2.43587e-91
2.50829e-91
2.43972e-91
2.52492e-91
2.43287e-91
2.50139e-91
2.4165e-91
2.52556e-91
2.40457e-91
2.44686e-91
2.47737e-91
2.37908e-91
1.72787e-89
1.70411e-89
1.73932e-89
1.67218e-89
1.71722e-89
1.71096e-89
1.71136e-89
1.6613e-89
1.6737e-89
1.72624e-89
1.67754e-89
1.73715e-89
1.67376e-89
1.72174e-89
1.66335e-89
1.73853e-89
1.65222e-89
1.6835e-89
1.70476e-89
1.63365e-89
3.11459e-88
3.07919e-88
3.12648e-88
3.01881e-88
3.09282e-88
3.07958e-88
3.088e-88
3.00249e-88
3.03456e-88
3.10468e-88
3.03608e-88
3.12756e-88
3.02317e-88
3.0996e-88
2.99775e-88
3.12794e-88
3.00164e-88
3.03735e-88
3.06855e-88
2.97638e-88
2.64635e-88
2.6528e-88
2.63942e-88
2.58992e-88
2.6322e-88
2.61325e-88
2.65002e-88
2.59249e-88
2.65479e-88
2.62411e-88
2.63173e-88
2.65793e-88
2.5964e-88
2.62538e-88
2.55069e-88
2.63646e-88
2.63356e-88
2.59649e-88
2.60272e-88
2.63689e-88
3.8902e-88
3.94596e-88
3.95903e-88
3.91184e-88
3.88033e-88
3.91131e-88
3.9782e-88
3.88467e-88
4.00344e-88
3.98209e-88
3.97679e-88
3.9942e-88
3.93139e-88
3.88658e-88
3.85168e-88
3.91832e-88
3.89222e-88
3.88274e-88
3.91197e-88
3.9425e-88
4.60611e-88
4.65055e-88
4.66623e-88
4.6087e-88
4.56805e-88
4.4735e-88
4.57377e-88
4.47848e-88
4.62624e-88
4.75635e-88
4.71882e-88
4.56586e-88
4.6995e-88
4.6238e-88
4.61865e-88
4.65414e-88
4.44917e-88
4.64612e-88
4.5575e-88
4.57838e-88
5.21622e-88
5.35803e-88
5.30858e-88
5.26645e-88
5.29352e-88
5.34543e-88
5.51627e-88
5.27993e-88
5.31362e-88
5.25953e-88
5.28197e-88
5.2785e-88
5.3087e-88
5.27786e-88
5.17902e-88
5.28072e-88
5.32115e-88
5.21816e-88
5.19277e-88
5.22185e-88
5.74501e-88
5.77313e-88
5.84247e-88
5.92689e-88
5.85956e-88
5.94848e-88
5.83774e-88
5.92824e-88
5.88202e-88
5.62282e-88
5.71845e-88
5.71271e-88
5.76891e-88
5.64568e-88
5.64393e-88
5.68291e-88
5.67794e-88
5.77387e-88
5.71998e-88
5.83278e-88
5.84808e-88
5.87477e-88
5.97494e-88
5.93744e-88
5.85896e-88
5.91935e-88
5.94648e-88
6.03133e-88
5.84991e-88
5.94295e-88
5.9078e-88
5.91445e-88
5.99979e-88
5.91478e-88
5.86249e-88
6.09034e-88
5.88631e-88
5.82684e-88
5.90529e-88
5.97261e-88
5.92967e-88
5.80898e-88
5.898e-88
5.82204e-88
5.91285e-88
5.95117e-88
5.98477e-88
5.91809e-88
5.76477e-88
5.82095e-88
5.78272e-88
5.99386e-88
5.92216e-88
6.03104e-88
5.99914e-88
6.00731e-88
5.94104e-88
5.9279e-88
5.85704e-88
5.89197e-88
5.40279e-88
5.46865e-88
5.41039e-88
5.63648e-88
5.47584e-88
5.6153e-88
5.50821e-88
5.54458e-88
5.47478e-88
5.48917e-88
5.47579e-88
5.58776e-88
5.50049e-88
5.66172e-88
5.44838e-88
5.58908e-88
5.5566e-88
5.36222e-88
5.57772e-88
5.55916e-88
4.88479e-88
5.11548e-88
5.02433e-88
5.00854e-88
4.92894e-88
5.18414e-88
5.10053e-88
5.09552e-88
5.06297e-88
4.95348e-88
5.06637e-88
5.16769e-88
5.01883e-88
5.28615e-88
5.06222e-88
5.16116e-88
5.21607e-88
5.06698e-88
5.18334e-88
5.18986e-88
4.38912e-88
4.37633e-88
4.34012e-88
4.42226e-88
4.49046e-88
4.46825e-88
4.38702e-88
4.3597e-88
4.50791e-88
4.34731e-88
4.46994e-88
4.46818e-88
4.37745e-88
4.51385e-88
4.50647e-88
4.58355e-88
4.43166e-88
4.54373e-88
4.48063e-88
4.61575e-88
3.27678e-88
3.3058e-88
3.28003e-88
3.25941e-88
3.33885e-88
3.3023e-88
3.36571e-88
3.30253e-88
3.36632e-88
3.38537e-88
3.32169e-88
3.41452e-88
3.30338e-88
3.43801e-88
3.31487e-88
3.31146e-88
3.36313e-88
3.41401e-88
3.35321e-88
3.45926e-88
2.96666e-104
2.93553e-104
2.99244e-104
2.87439e-104
2.95621e-104
2.93998e-104
2.94552e-104
2.86256e-104
2.88619e-104
2.96879e-104
2.88681e-104
2.99027e-104
2.87628e-104
2.95769e-104
2.85469e-104
2.98654e-104
2.84656e-104
2.89434e-104
2.93194e-104
2.818e-104
2.89822e-101
2.86691e-101
2.92211e-101
2.80796e-101
2.88676e-101
2.8716e-101
2.87682e-101
2.79558e-101
2.81903e-101
2.89922e-101
2.8201e-101
2.92002e-101
2.80998e-101
2.88896e-101
2.78902e-101
2.91706e-101
2.78095e-101
2.82716e-101
2.86339e-101
2.75312e-101
1.51426e-98
1.49741e-98
1.52607e-98
1.46703e-98
1.50762e-98
1.50009e-98
1.50269e-98
1.46013e-98
1.47254e-98
1.51426e-98
1.47337e-98
1.52501e-98
1.4682e-98
1.50921e-98
1.45734e-98
1.52384e-98
1.453e-98
1.47696e-98
1.49563e-98
1.43849e-98
4.55018e-96
4.49802e-96
4.58368e-96
4.40802e-96
4.52826e-96
4.50685e-96
4.51419e-96
4.38598e-96
4.42365e-96
4.54866e-96
4.42701e-96
4.58061e-96
4.41189e-96
4.53446e-96
4.37959e-96
4.57828e-96
4.36595e-96
4.43761e-96
4.49295e-96
4.32236e-96
9.66115e-94
9.54675e-94
9.72822e-94
9.35858e-94
9.61038e-94
9.56768e-94
9.58185e-94
9.30876e-94
9.38907e-94
9.6548e-94
9.39831e-94
9.7216e-94
9.36736e-94
9.62659e-94
9.29971e-94
9.71929e-94
9.26854e-94
9.4208e-94
9.53683e-94
9.17569e-94
1.43058e-91
1.41302e-91
1.43996e-91
1.38563e-91
1.42245e-91
1.41657e-91
1.41838e-91
1.37777e-91
1.38962e-91
1.42925e-91
1.39136e-91
1.43895e-91
1.38702e-91
1.42535e-91
1.3772e-91
1.43903e-91
1.37203e-91
1.39478e-91
1.41177e-91
1.35813e-91
1.45368e-89
1.43498e-89
1.46275e-89
1.4077e-89
1.44478e-89
1.43929e-89
1.44066e-89
1.39914e-89
1.41087e-89
1.45198e-89
1.41319e-89
1.46157e-89
1.40917e-89
1.44827e-89
1.39953e-89
1.46217e-89
1.39318e-89
1.41696e-89
1.43415e-89
1.37869e-89
9.8869e-88
9.75125e-88
9.94621e-88
9.57038e-88
9.82169e-88
9.78817e-88
9.79216e-88
9.50684e-88
9.58146e-88
9.87364e-88
9.60324e-88
9.93615e-88
9.58058e-88
9.8501e-88
9.51911e-88
9.94513e-88
9.46189e-88
9.63382e-88
9.75141e-88
9.35833e-88
1.74972e-86
1.72943e-86
1.75579e-86
1.69607e-86
1.73685e-86
1.73003e-86
1.73457e-86
1.68645e-86
1.7046e-86
1.74389e-86
1.70573e-86
1.75652e-86
1.69866e-86
1.74128e-86
1.68444e-86
1.75706e-86
1.68636e-86
1.70635e-86
1.72354e-86
1.67223e-86
1.47183e-86
1.47525e-86
1.46806e-86
1.44085e-86
1.46386e-86
1.45391e-86
1.47411e-86
1.4419e-86
1.47685e-86
1.45961e-86
1.46409e-86
1.47819e-86
1.44448e-86
1.46041e-86
1.41926e-86
1.46613e-86
1.46476e-86
1.44429e-86
1.44769e-86
1.46666e-86
2.16733e-86
2.19781e-86
2.20567e-86
2.1789e-86
2.16153e-86
2.17847e-86
2.21544e-86
2.16332e-86
2.22976e-86
2.21729e-86
2.21525e-86
2.22396e-86
2.18992e-86
2.1649e-86
2.1456e-86
2.18222e-86
2.16775e-86
2.16276e-86
2.17916e-86
2.19586e-86
2.55212e-86
2.57654e-86
2.58534e-86
2.55281e-86
2.5311e-86
2.47885e-86
2.53469e-86
2.48202e-86
2.56356e-86
2.63486e-86
2.61408e-86
2.52987e-86
2.60382e-86
2.56162e-86
2.55893e-86
2.57835e-86
2.46508e-86
2.57364e-86
2.52451e-86
2.53623e-86
2.8914e-86
2.96891e-86
2.94237e-86
2.91894e-86
2.93441e-86
2.96276e-86
3.05695e-86
2.92677e-86
2.9452e-86
2.91471e-86
2.92728e-86
2.92568e-86
2.94295e-86
2.92652e-86
2.87175e-86
2.92734e-86
2.94967e-86
2.89295e-86
2.87895e-86
2.89477e-86
3.15794e-86
3.17254e-86
3.20987e-86
3.25708e-86
3.22047e-86
3.26862e-86
3.208e-86
3.25802e-86
3.2317e-86
3.09051e-86
3.14262e-86
3.14004e-86
3.17061e-86
3.10333e-86
3.10176e-86
3.1238e-86
3.12003e-86
3.17321e-86
3.14342e-86
3.20582e-86
3.21891e-86
3.2328e-86
3.28836e-86
3.26694e-86
3.22421e-86
3.25831e-86
3.27267e-86
3.31926e-86
3.21972e-86
3.27113e-86
3.2522e-86
3.25568e-86
3.3015e-86
3.25581e-86
3.22747e-86
3.35138e-86
3.23996e-86
3.20685e-86
3.25003e-86
3.28569e-86
3.2266e-86
3.16057e-86
3.20797e-86
3.16752e-86
3.2172e-86
3.23822e-86
3.25576e-86
3.21967e-86
3.13683e-86
3.16696e-86
3.14557e-86
3.26023e-86
3.22233e-86
3.28139e-86
3.26399e-86
3.26814e-86
3.23219e-86
3.22567e-86
3.18677e-86
3.20563e-86
2.95031e-86
2.98634e-86
2.95442e-86
3.07758e-86
2.9895e-86
3.0654e-86
3.00684e-86
3.02769e-86
2.98927e-86
2.99722e-86
2.99036e-86
3.05095e-86
3.00288e-86
3.09107e-86
2.97475e-86
3.05111e-86
3.03367e-86
2.92818e-86
3.04519e-86
3.03556e-86
2.63751e-86
2.76145e-86
2.71266e-86
2.70336e-86
2.66101e-86
2.79824e-86
2.753e-86
2.75067e-86
2.73291e-86
2.67416e-86
2.73456e-86
2.78906e-86
2.70941e-86
2.85251e-86
2.73197e-86
2.78523e-86
2.81454e-86
2.73513e-86
2.79766e-86
2.8011e-86
2.38678e-86
2.37987e-86
2.36066e-86
2.40512e-86
2.44153e-86
2.42961e-86
2.38526e-86
2.37191e-86
2.45158e-86
2.36444e-86
2.43073e-86
2.43004e-86
2.37996e-86
2.45481e-86
2.45033e-86
2.49272e-86
2.41007e-86
2.47051e-86
2.43623e-86
2.50939e-86
1.77239e-86
1.7879e-86
1.77419e-86
1.76288e-86
1.80533e-86
1.7859e-86
1.81941e-86
1.78606e-86
1.81961e-86
1.83037e-86
1.79581e-86
1.84583e-86
1.78627e-86
1.85868e-86
1.79224e-86
1.7905e-86
1.81794e-86
1.84565e-86
1.8129e-86
1.86985e-86
1.86331e-102
1.84332e-102
1.87863e-102
1.80538e-102
1.85596e-102
1.84619e-102
1.84966e-102
1.7975e-102
1.81268e-102
1.86397e-102
1.81329e-102
1.87739e-102
1.80671e-102
1.85734e-102
1.79313e-102
1.87541e-102
1.78823e-102
1.8177e-102
1.84093e-102
1.77046e-102
1.79986e-99
1.78001e-99
1.81384e-99
1.74384e-99
1.79198e-99
1.78299e-99
1.78623e-99
1.73574e-99
1.75062e-99
1.79986e-99
1.75151e-99
1.8127e-99
1.74526e-99
1.79382e-99
1.73223e-99
1.81122e-99
1.72744e-99
1.75561e-99
1.77772e-99
1.71033e-99
9.19265e-97
9.08843e-97
9.25994e-97
8.90626e-97
9.14842e-97
9.10496e-97
9.12073e-97
8.86226e-97
8.93927e-97
9.18949e-97
8.94539e-97
9.25434e-97
8.91415e-97
9.16055e-97
8.84805e-97
9.24905e-97
8.82294e-97
8.96563e-97
9.07689e-97
8.73578e-97
2.74352e-94
2.71153e-94
2.76238e-94
2.65795e-94
2.72913e-94
2.71692e-94
2.72135e-94
2.64403e-94
2.66725e-94
2.74168e-94
2.66959e-94
2.7608e-94
2.66051e-94
2.73362e-94
2.64095e-94
2.75992e-94
2.63316e-94
2.6755e-94
2.7082e-94
2.60717e-94
5.72368e-92
5.6549e-92
5.76057e-92
5.54484e-92
5.69116e-92
5.66735e-92
5.67581e-92
5.51406e-92
5.56274e-92
5.71804e-92
5.56883e-92
5.7573e-92
5.55056e-92
5.70238e-92
5.51023e-92
5.75702e-92
5.49284e-92
5.58112e-92
5.64836e-92
5.43854e-92
8.37574e-90
8.2717e-90
8.42635e-90
8.11337e-90
8.32454e-90
8.2923e-90
8.30315e-90
8.06564e-90
8.13673e-90
8.36516e-90
8.14772e-90
8.42155e-90
8.1223e-90
8.34392e-90
8.06427e-90
8.42355e-90
8.03605e-90
8.16605e-90
8.26317e-90
7.95586e-90
8.37109e-88
8.26267e-88
8.41872e-88
8.10751e-88
8.31623e-88
8.28684e-88
8.29525e-88
8.05661e-88
8.1263e-88
8.35847e-88
8.14016e-88
8.41334e-88
8.1168e-88
8.33879e-88
8.06046e-88
8.41817e-88
8.02689e-88
8.15985e-88
8.2561e-88
7.94498e-88
5.61654e-86
5.53961e-86
5.6468e-86
5.43797e-86
5.5771e-86
5.55945e-86
5.56257e-86
5.40112e-86
5.44551e-86
5.60693e-86
5.45783e-86
5.64239e-86
5.44443e-86
5.59476e-86
5.40848e-86
5.64813e-86
5.37944e-86
5.47327e-86
5.53779e-86
5.32212e-86
9.76071e-85
9.64535e-85
9.79118e-85
9.46247e-85
9.68537e-85
9.65084e-85
9.67506e-85
9.40622e-85
9.5082e-85
9.7269e-85
9.51609e-85
9.796e-85
9.47767e-85
9.71361e-85
9.39873e-85
9.8009e-85
9.40791e-85
9.51904e-85
9.61293e-85
9.32944e-85
8.12336e-85
8.14136e-85
8.10314e-85
7.95468e-85
8.07891e-85
8.0272e-85
8.13723e-85
7.95834e-85
8.15292e-85
8.05677e-85
8.08283e-85
8.15809e-85
7.97487e-85
8.06165e-85
7.83671e-85
8.09079e-85
8.08461e-85
7.97244e-85
7.99084e-85
8.09537e-85
1.19868e-84
1.21521e-84
1.21987e-84
1.20482e-84
1.19531e-84
1.2045e-84
1.22478e-84
1.19596e-84
1.23284e-84
1.22564e-84
1.225e-84
1.22928e-84
1.21098e-84
1.19712e-84
1.18652e-84
1.20648e-84
1.19853e-84
1.19593e-84
1.20506e-84
1.21412e-84
1.40446e-84
1.41779e-84
1.42269e-84
1.40442e-84
1.39293e-84
1.36425e-84
1.39514e-84
1.36623e-84
1.4109e-84
1.44971e-84
1.43827e-84
1.39225e-84
1.43287e-84
1.40952e-84
1.40812e-84
1.41867e-84
1.35652e-84
1.41594e-84
1.38889e-84
1.39541e-84
1.59261e-84
1.6347e-84
1.62056e-84
1.60762e-84
1.61638e-84
1.63177e-84
1.68336e-84
1.61213e-84
1.62214e-84
1.60507e-84
1.61206e-84
1.61136e-84
1.62116e-84
1.6125e-84
1.58233e-84
1.61251e-84
1.62476e-84
1.59373e-84
1.58607e-84
1.59461e-84
1.7278e-84
1.73532e-84
1.75531e-84
1.78157e-84
1.76172e-84
1.78771e-84
1.75467e-84
1.78221e-84
1.76728e-84
1.69078e-84
1.71902e-84
1.71793e-84
1.73446e-84
1.69791e-84
1.69672e-84
1.70911e-84
1.70648e-84
1.73582e-84
1.71943e-84
1.75378e-84
1.76439e-84
1.77157e-84
1.80225e-84
1.79009e-84
1.76694e-84
1.78608e-84
1.79368e-84
1.81912e-84
1.76477e-84
1.79303e-84
1.78287e-84
1.78468e-84
1.80916e-84
1.78472e-84
1.76943e-84
1.83652e-84
1.77598e-84
1.75758e-84
1.78125e-84
1.80002e-84
1.75476e-84
1.71863e-84
1.74384e-84
1.72237e-84
1.74952e-84
1.76102e-84
1.77016e-84
1.75061e-84
1.70588e-84
1.72204e-84
1.7101e-84
1.77234e-84
1.75231e-84
1.78435e-84
1.77488e-84
1.77692e-84
1.75749e-84
1.75427e-84
1.7329e-84
1.74308e-84
1.61053e-84
1.63025e-84
1.61276e-84
1.6798e-84
1.63153e-84
1.67282e-84
1.64082e-84
1.65275e-84
1.63161e-84
1.63601e-84
1.63248e-84
1.66526e-84
1.63882e-84
1.68701e-84
1.62363e-84
1.66506e-84
1.65568e-84
1.59847e-84
1.66199e-84
1.657e-84
1.42978e-84
1.49661e-84
1.47041e-84
1.46493e-84
1.44233e-84
1.5164e-84
1.49182e-84
1.49077e-84
1.48104e-84
1.4494e-84
1.48182e-84
1.51126e-84
1.46849e-84
1.54537e-84
1.48024e-84
1.50903e-84
1.52472e-84
1.48228e-84
1.51601e-84
1.51784e-84
1.30238e-84
1.29863e-84
1.28841e-84
1.31255e-84
1.33204e-84
1.32563e-84
1.30133e-84
1.29488e-84
1.33783e-84
1.29041e-84
1.32635e-84
1.32613e-84
1.29838e-84
1.3396e-84
1.3369e-84
1.3603e-84
1.31518e-84
1.34787e-84
1.32918e-84
1.36892e-84
9.6068e-85
9.68995e-85
9.61686e-85
9.55463e-85
9.78185e-85
9.67847e-85
9.85586e-85
9.67959e-85
9.85613e-85
9.91698e-85
9.72903e-85
9.99911e-85
9.67919e-85
1.00695e-84
9.71027e-85
9.70147e-85
9.84746e-85
9.9986e-85
9.82185e-85
1.01283e-84
1.12999e-100
1.11761e-100
1.13875e-100
1.09488e-100
1.12505e-100
1.11939e-100
1.12149e-100
1.08983e-100
1.09922e-100
1.12999e-100
1.09973e-100
1.13806e-100
1.09575e-100
1.12615e-100
1.08751e-100
1.13708e-100
1.08466e-100
1.1022e-100
1.11606e-100
1.07397e-100
1.11105e-97
1.09855e-97
1.11916e-97
1.07651e-97
1.10571e-97
1.10044e-97
1.10243e-97
1.07124e-97
1.08061e-97
1.11067e-97
1.0813e-97
1.11854e-97
1.07746e-97
1.10714e-97
1.0694e-97
1.11784e-97
1.06656e-97
1.08364e-97
1.09705e-97
1.0561e-97
5.5957e-95
5.53109e-95
5.63401e-95
5.42163e-95
5.56641e-95
5.5414e-95
5.55094e-95
5.39354e-95
5.44137e-95
5.59195e-95
5.44578e-95
5.63111e-95
5.4269e-95
5.57534e-95
5.38655e-95
5.62899e-95
5.37193e-95
5.4572e-95
5.52363e-95
5.31944e-95
1.649e-92
1.62945e-92
1.65955e-92
1.59767e-92
1.63966e-92
1.63275e-92
1.63541e-92
1.58893e-92
1.60317e-92
1.64737e-92
1.60477e-92
1.65876e-92
1.59935e-92
1.64282e-92
1.58755e-92
1.65856e-92
1.58309e-92
1.60806e-92
1.62731e-92
1.56765e-92
3.3796e-90
3.3384e-90
3.39973e-90
3.27428e-90
3.35896e-90
3.34582e-90
3.35083e-90
3.25535e-90
3.28471e-90
3.37521e-90
3.28868e-90
3.39819e-90
3.27796e-90
3.36658e-90
3.254e-90
3.39866e-90
3.24432e-90
3.29536e-90
3.33417e-90
3.21266e-90
4.8808e-88
4.81947e-88
4.90782e-88
4.72843e-88
4.8489e-88
4.83145e-88
4.83787e-88
4.69959e-88
4.74199e-88
4.87313e-88
4.74887e-88
4.90569e-88
4.73411e-88
4.86166e-88
4.69998e-88
4.90775e-88
4.68464e-88
4.75864e-88
4.81382e-88
4.63859e-88
4.79657e-86
4.73402e-86
4.82131e-86
4.64626e-86
4.76311e-86
4.74759e-86
4.75266e-86
4.61619e-86
4.65727e-86
4.78783e-86
4.66554e-86
4.81903e-86
4.65208e-86
4.77748e-86
4.61932e-86
4.82259e-86
4.60169e-86
4.67573e-86
4.72931e-86
4.5556e-86
3.17075e-84
3.12737e-84
3.18596e-84
3.07066e-84
3.14715e-84
3.13802e-84
3.1402e-84
3.04941e-84
3.07554e-84
3.16424e-84
3.08249e-84
3.18419e-84
3.07467e-84
3.15803e-84
3.05383e-84
3.18781e-84
3.03926e-84
3.09018e-84
3.12534e-84
3.00773e-84
5.41172e-83
5.3466e-83
5.42674e-83
5.24698e-83
5.36799e-83
5.35083e-83
5.36363e-83
5.2144e-83
5.27131e-83
5.3923e-83
5.27656e-83
5.42985e-83
5.25584e-83
5.38564e-83
5.21225e-83
5.4336e-83
5.21653e-83
5.27794e-83
5.32885e-83
5.17321e-83
4.45352e-83
4.46291e-83
4.4428e-83
4.36233e-83
4.42889e-83
4.40233e-83
4.46182e-83
4.36315e-83
4.47073e-83
4.41751e-83
4.43251e-83
4.47236e-83
4.37347e-83
4.42042e-83
4.29833e-83
4.43506e-83
4.43243e-83
4.3714e-83
4.3813e-83
4.43846e-83
6.58729e-83
6.67628e-83
6.70365e-83
6.61953e-83
6.56783e-83
6.61733e-83
6.72778e-83
6.56949e-83
6.77288e-83
6.73169e-83
6.73089e-83
6.75143e-83
6.65374e-83
6.57742e-83
6.51964e-83
6.62775e-83
6.58425e-83
6.57089e-83
6.62135e-83
6.67017e-83
7.68319e-83
7.75543e-83
7.7826e-83
7.68065e-83
7.62031e-83
7.46387e-83
7.6336e-83
7.476e-83
7.71916e-83
7.92912e-83
7.86647e-83
7.61656e-83
7.83824e-83
7.70988e-83
7.70264e-83
7.75968e-83
7.42061e-83
7.74387e-83
7.59594e-83
7.63199e-83
8.72384e-83
8.951e-83
8.87618e-83
8.80523e-83
8.85449e-83
8.93755e-83
9.21843e-83
8.83103e-83
8.88504e-83
8.79012e-83
8.82869e-83
8.82582e-83
8.88109e-83
8.83583e-83
8.6706e-83
8.83353e-83
8.90027e-83
8.73152e-83
8.68974e-83
8.73559e-83
9.41178e-83
9.45019e-83
9.55666e-83
9.70208e-83
9.59499e-83
9.73448e-83
9.55538e-83
9.70621e-83
9.62193e-83
9.20945e-83
9.36175e-83
9.35759e-83
9.44656e-83
9.24891e-83
9.24061e-83
9.30988e-83
9.29246e-83
9.45359e-83
9.36383e-83
9.55202e-83
9.63359e-83
9.67014e-83
9.83886e-83
9.77019e-83
9.64533e-83
9.75247e-83
9.79216e-83
9.93058e-83
9.6352e-83
9.78974e-83
9.73539e-83
9.74504e-83
9.87498e-83
9.74508e-83
9.66271e-83
1.00244e-82
9.69685e-83
9.59527e-83
9.72427e-83
9.82252e-83
9.51667e-83
9.31971e-83
9.45312e-83
9.33978e-83
9.48744e-83
9.55012e-83
9.59762e-83
9.49231e-83
9.25142e-83
9.33788e-83
9.27146e-83
9.60803e-83
9.50272e-83
9.67598e-83
9.62463e-83
9.63449e-83
9.52963e-83
9.51413e-83
9.39711e-83
9.45191e-83
8.77186e-83
8.87956e-83
8.78397e-83
9.14784e-83
8.88404e-83
9.10818e-83
8.93371e-83
9.00156e-83
8.88552e-83
8.90988e-83
8.89177e-83
9.06884e-83
8.92372e-83
9.18635e-83
8.84193e-83
9.0661e-83
9.01587e-83
8.70637e-83
9.05025e-83
9.02454e-83
7.74402e-83
8.10392e-83
7.96345e-83
7.93139e-83
7.81097e-83
8.21024e-83
8.07688e-83
8.07229e-83
8.01909e-83
7.84882e-83
8.02268e-83
8.18152e-83
7.95211e-83
8.36466e-83
8.01319e-83
8.16867e-83
8.25246e-83
8.02601e-83
8.20771e-83
8.21747e-83
7.10228e-83
7.08195e-83
7.02769e-83
7.15869e-83
7.2629e-83
7.2284e-83
7.09537e-83
7.06481e-83
7.29615e-83
7.03823e-83
7.23296e-83
7.2326e-83
7.07897e-83
7.30581e-83
7.28974e-83
7.41872e-83
7.17262e-83
7.34929e-83
7.24735e-83
7.46316e-83
5.23472e-83
5.27958e-83
5.24045e-83
5.20598e-83
5.32817e-83
5.27298e-83
5.36732e-83
5.27374e-83
5.36694e-83
5.40157e-83
5.29872e-83
5.44539e-83
5.27266e-83
5.48414e-83
5.28886e-83
5.28438e-83
5.36248e-83
5.44533e-83
5.34949e-83
5.51517e-83
7.10537e-99
7.0259e-99
7.15718e-99
6.88477e-99
7.07131e-99
7.03752e-99
7.05058e-99
6.8513e-99
6.91155e-99
7.10299e-99
6.91564e-99
7.15338e-99
6.89085e-99
7.08015e-99
6.83894e-99
7.14859e-99
6.82163e-99
6.93011e-99
7.0157e-99
6.75508e-99
6.88562e-96
6.80667e-96
6.93269e-96
6.67182e-96
6.84966e-96
6.81879e-96
6.83097e-96
6.63753e-96
6.69677e-96
6.88108e-96
6.70187e-96
6.9294e-96
6.67833e-96
6.86041e-96
6.62828e-96
6.92645e-96
6.61134e-96
6.71535e-96
6.7969e-96
6.54714e-96
3.40219e-93
3.36221e-93
3.42389e-93
3.29654e-93
3.38295e-93
3.36866e-93
3.3744e-93
3.27867e-93
3.3083e-93
3.39886e-93
3.3114e-93
3.42245e-93
3.30004e-93
3.38936e-93
3.27544e-93
3.42183e-93
3.26691e-93
3.31784e-93
3.35743e-93
3.23533e-93
9.88356e-91
9.76452e-91
9.94213e-91
9.57662e-91
9.82341e-91
9.78477e-91
9.80053e-91
9.52195e-91
9.60894e-91
9.87087e-91
9.61973e-91
9.93846e-91
9.58759e-91
9.84534e-91
9.51656e-91
9.93916e-91
9.49107e-91
9.63792e-91
9.75085e-91
9.39957e-91
1.98939e-88
1.9648e-88
2.00028e-88
1.92757e-88
1.97641e-88
1.96923e-88
1.97217e-88
1.91599e-88
1.93362e-88
1.98623e-88
1.93618e-88
1.99961e-88
1.92992e-88
1.9815e-88
1.91574e-88
2.00027e-88
1.91034e-88
1.93979e-88
1.96211e-88
1.89194e-88
2.83111e-86
2.79514e-86
2.84539e-86
2.74306e-86
2.81142e-86
2.80212e-86
2.80586e-86
2.72573e-86
2.75086e-86
2.82585e-86
2.75514e-86
2.84454e-86
2.74663e-86
2.81971e-86
2.72666e-86
2.84626e-86
2.71835e-86
2.76031e-86
2.7915e-86
2.69202e-86
2.73491e-84
2.69899e-84
2.74759e-84
2.64963e-84
2.71469e-84
2.70663e-84
2.70963e-84
2.63196e-84
2.65601e-84
2.72913e-84
2.66093e-84
2.74676e-84
2.65324e-84
2.72374e-84
2.6343e-84
2.74923e-84
2.62509e-84
2.66616e-84
2.69581e-84
2.59928e-84
1.77933e-82
1.755e-82
1.78685e-82
1.72356e-82
1.76535e-82
1.76072e-82
1.76214e-82
1.71138e-82
1.72661e-82
1.77512e-82
1.73053e-82
1.78625e-82
1.72602e-82
1.77199e-82
1.71404e-82
1.7885e-82
1.70681e-82
1.73431e-82
1.75334e-82
1.68956e-82
2.98285e-81
2.94634e-81
2.9901e-81
2.89243e-81
2.95767e-81
2.94933e-81
2.95603e-81
2.8737e-81
2.90526e-81
2.97181e-81
2.90864e-81
2.99208e-81
2.89755e-81
2.96853e-81
2.87361e-81
2.99471e-81
2.87553e-81
2.90928e-81
2.93667e-81
2.85176e-81
2.42607e-81
2.43092e-81
2.42045e-81
2.37711e-81
2.41252e-81
2.39904e-81
2.43096e-81
2.37691e-81
2.43599e-81
2.40674e-81
2.41529e-81
2.43623e-81
2.38321e-81
2.40844e-81
2.34261e-81
2.41568e-81
2.41467e-81
2.38168e-81
2.38697e-81
2.41802e-81
3.59796e-81
3.64557e-81
3.66145e-81
3.61476e-81
3.58682e-81
3.61331e-81
3.67308e-81
3.58671e-81
3.69816e-81
3.67481e-81
3.67582e-81
3.68543e-81
3.63366e-81
3.5919e-81
3.56059e-81
3.61874e-81
3.59511e-81
3.58831e-81
3.61601e-81
3.64214e-81
4.17924e-81
4.21818e-81
4.23314e-81
4.1766e-81
4.14516e-81
4.06032e-81
4.15302e-81
4.06763e-81
4.19918e-81
4.31215e-81
4.278e-81
4.14311e-81
4.26334e-81
4.19322e-81
4.18949e-81
4.22015e-81
4.03625e-81
4.21108e-81
4.13066e-81
4.15044e-81
4.75307e-81
4.87496e-81
4.83563e-81
4.79698e-81
4.82444e-81
4.86904e-81
5.0211e-81
4.81161e-81
4.84058e-81
4.78811e-81
4.80926e-81
4.80822e-81
4.83918e-81
4.81577e-81
4.72574e-81
4.81319e-81
4.84935e-81
4.7581e-81
4.73544e-81
4.75991e-81
5.10483e-81
5.12427e-81
5.1807e-81
5.26083e-81
5.20332e-81
5.27776e-81
5.18118e-81
5.26346e-81
5.21596e-81
4.99477e-81
5.07649e-81
5.07523e-81
5.12283e-81
5.01644e-81
5.01097e-81
5.0495e-81
5.03837e-81
5.12647e-81
5.0775e-81
5.18016e-81
5.23893e-81
5.25736e-81
5.34975e-81
5.31121e-81
5.24416e-81
5.30389e-81
5.3244e-81
5.39946e-81
5.23959e-81
5.32374e-81
5.29477e-81
5.29993e-81
5.36851e-81
5.29993e-81
5.25575e-81
5.44983e-81
5.27331e-81
5.21751e-81
5.28749e-81
5.3386e-81
5.15003e-81
5.04307e-81
5.11341e-81
5.05379e-81
5.13381e-81
5.1679e-81
5.19246e-81
5.13599e-81
5.00655e-81
5.0527e-81
5.01586e-81
5.19731e-81
5.14225e-81
5.23559e-81
5.20786e-81
5.21261e-81
5.15609e-81
5.14872e-81
5.08493e-81
5.11437e-81
4.76774e-81
4.82636e-81
4.77424e-81
4.9712e-81
4.82747e-81
4.94885e-81
4.85396e-81
4.89235e-81
4.82881e-81
4.84231e-81
4.833e-81
4.92853e-81
4.84902e-81
4.99185e-81
4.80514e-81
4.92607e-81
4.89929e-81
4.73228e-81
4.91796e-81
4.90473e-81
4.19383e-81
4.3876e-81
4.31232e-81
4.2937e-81
4.22952e-81
4.4447e-81
4.37233e-81
4.37048e-81
4.34134e-81
4.24978e-81
4.34292e-81
4.42866e-81
4.30565e-81
4.52696e-81
4.33732e-81
4.42127e-81
4.46601e-81
4.34522e-81
4.44307e-81
4.4483e-81
3.87173e-81
3.86077e-81
3.83199e-81
3.90302e-81
3.9586e-81
3.94017e-81
3.86734e-81
3.85325e-81
3.97768e-81
3.83753e-81
3.94296e-81
3.94328e-81
3.85823e-81
3.98302e-81
3.97349e-81
4.04456e-81
3.91043e-81
4.00578e-81
3.95028e-81
4.06736e-81
2.84362e-81
2.86771e-81
2.84684e-81
2.82783e-81
2.89335e-81
2.86394e-81
2.9139e-81
2.86443e-81
2.91344e-81
2.933e-81
2.87693e-81
2.9563e-81
2.86334e-81
2.97758e-81
2.87181e-81
2.86956e-81
2.91112e-81
2.95645e-81
2.90459e-81
2.99393e-81
4.46237e-97
4.41146e-97
4.49287e-97
4.32399e-97
4.43911e-97
4.41906e-97
4.42715e-97
4.3019e-97
4.34043e-97
4.45948e-97
4.34358e-97
4.49084e-97
4.32817e-97
4.44591e-97
4.29555e-97
4.48873e-97
4.28501e-97
4.35203e-97
4.40481e-97
4.24359e-97
4.25584e-94
4.20613e-94
4.28298e-94
4.12391e-94
4.23183e-94
4.21391e-94
4.22133e-94
4.1017e-94
4.13897e-94