/*--------------------------------*- C++ -*----------------------------------*\
| =========                 |                                                 |
| \\      /  F ield         | OpenFOAM: The Open Source CFD Toolbox           |
|  \\    /   O peration     | Version:  2212                                  |
|   \\  /    A nd           | Website:  www.openfoam.com                      |
|    \\/     M anipulation  |                                                 |
\*---------------------------------------------------------------------------*/
FoamFile
{
    version     2.0;
    format      ascii;
    arch        "LSB;label=32;scalar=64";
    class       volScalarField;
    location    "0.028";
    object      k;
}
// * * * * * * * * * * * * * * * * * * * * * * * * * * * * * * * * * * * * * //

dimensions      [0 2 -2 0 0 0 0];

internalField   nonuniform List<scalar> 
7220
(
8103.35
2634.42
2509.81
2015.89
2221.35
2115.42
2480.97
2184.57
1995.71
2088.29
14767.7
102409
7532.34
25170.4
48413.8
70217
63319.6
9262.35
40228.6
9429.92
12515.3
15776.9
782.185
27598.8
7077.43
35557.8
145110
14794.1
13958.9
18099.5
4102.04
15188.2
1785.61
19293.7
11494.1
4663.41
3485.71
17626.9
14509.2
3352.34
3351.11
3351.08
3352.3
3914.43
4009.34
3976.9
3910.59
3850.41
3351.17
3352.61
3352.58
3351.14
3355.53
3360.08
3360.09
3355.53
3366.37
3374.56
3374.63
3366.41
3384.8
3397.25
3397.41
3384.91
3412.11
3429.55
3429.82
3412.32
3449.79
3473.05
3473.46
3450.13
3499.55
3529.54
3530.08
3500.04
3563.28
3601.08
3601.46
3563.82
3643.25
3690.03
3689.2
3643.18
3793.46
3739.28
3741.98
3799.01
3860.85
3861.03
3354.75
3354.7
3434.61
3436.21
4089.3
4048.32
3927.42
3997.48
3817.38
3717.53
3764.69
3638.04
3675.41
3575.66
3604.93
3527.36
3549.89
3491.06
3507.83
3464.99
3476.84
3447.68
3455.33
3437.85
3441.9
3434.38
3435.39
3436.35
3434.73
3435.3
3434.27
3441.92
3437.8
3455.51
3447.77
3477.27
3465.29
3508.58
3491.63
3551.03
3528.3
3606.4
3576.99
3676.35
3639.47
3761.6
3717.07
3809.61
3876.14
3439.13
3438.98
4047.24
4000.77
4174.16
4071.89
3940.5
4009.83
4092.74
4114.51
4083.13
4163.2
3968.99
4027.82
3869.98
3916.58
3792.48
3828.68
3732.76
3760.67
3687.24
3708.4
3653.54
3669.04
3629.85
3640.54
3614.67
3621.28
3606.78
3609.9
3605.03
3605.24
3608.61
3606.22
3442.97
3616.66
3612.13
3358.2
3358.25
3611.82
3616.36
3442.81
3605.97
3608.33
3605.02
3604.83
3609.86
3606.66
3621.5
3614.76
3641.14
3630.25
3670.13
3654.37
3710.07
3688.62
3762.73
3734.7
3829.56
3794.33
3910.22
3868.31
3954.73
4293.72
4204.72
4270.82
4224.58
3447.82
3622.16
3882.19
3887.75
4129.45
4386.7
4265.58
4161.44
4325.93
4591.92
4499.97
4238.88
4333.26
4396.06
4204.62
4262.04
4108.72
4153.61
4035.28
4069.45
3980
4005.73
3938.57
3957.72
3908.67
3922.3
3888.43
3897.44
3876.4
3881.48
3871.32
3873.06
3872.17
3871.06
3878.09
3874.55
3888.24
3882.68
3362.71
3362.76
3621.85
3447.65
3874.1
3877.59
3870.72
3871.77
3872.91
3871.06
3881.65
3876.39
3898.09
3888.83
3923.57
3909.61
3959.67
3940.18
4008.12
3982.25
4069.95
4037.38
4143.9
4105.66
4183.72
4412.88
3894.7
3894.24
4153.17
4486.14
4689.09
4218.94
4472.42
4593.77
4549.59
4652.23
4320.71
4271.95
4279.7
3628.26
3901.58
4248.05
4365.02
4791.34
4593.11
5274.59
5176.65
4899.09
4241.18
4797.8
4654.24
4722.7
4538.11
4592.72
4448.13
4490
4381.14
4412.08
4331.77
4354.54
4295.9
4312.35
4270.96
4282.18
4255.24
4262.05
4247.27
4250.36
4245.82
4245.84
4250.05
4247.3
4259.02
4253.99
4265.04
3902.03
3453.59
3628.56
3368.16
3368.22
3453.42
4279.02
4264.29
4271.23
4253.29
4258.28
4246.74
4249.41
4245.47
4245.38
4250.38
4247.08
4262.59
4255.49
4283.4
4271.83
4314.37
4297.51
4357.12
4334.19
4412.2
4383.2
4477.85
4443.91
4512.84
4807.44
4725.3
4989.55
4895.99
5084.78
4555.18
4288.25
4287.6
5037.89
4996.68
5091.45
5577.65
4412.32
4317
4473.51
5015.49
4329.97
5751.69
5236.6
4708.38
4879.37
5315.81
5404.42
5099.5
5164.41
4991.48
5041.99
4910.33
4947.7
4851.35
4878.4
4809.42
4828.58
4780.36
4793.48
4761.53
4769.78
4751.27
4755.42
4748.22
4748.92
4751.24
4749.04
4759.47
4754.75
4772.12
4765.29
4788.42
4779.86
4807.76
4797.74
4818.47
3910.18
4297.53
3460.24
3635.8
3374.49
3374.55
3635.5
3460.06
4296.95
3909.73
4817.71
4796.82
4806.92
4778.84
4787.43
4764.3
4771.1
4753.91
4758.55
4748.41
4750.5
4748.66
4747.76
4755.69
4751.26
4770.75
4762.13
4795.34
4781.76
4830.92
4811.71
4877.47
4852.97
4933.26
4904.29
4963.36
5234.86
5158.29
5406.61
5318.23
5495.66
4968.1
4645.09
4339.62
5402.34
5630.49
5592.87
5679.11
5489.24
5501.58
4307
4829.13
4423.26
4591.58
4832.22
5912.04
6406.97
6570.58
6069.66
5066.77
4502.66
5146.59
4420.41
5498.98
5551.18
5977.35
5819.04
5894.85
5691.95
5751.39
5595.37
5640.02
5524.76
5557.06
5475.68
5497.91
5442.64
5457.51
5421.51
5430.79
5409.78
5414.58
5405.85
5406.92
5408.45
5406.4
5416.57
5411.87
5429.39
5422.43
5446.22
5437.34
5466.39
5455.94
5477.51
4829.84
3919.07
4307.54
3467.67
3643.84
3381.63
3381.69
3643.54
3467.5
3918.65
5500.6
5476.3
5488.16
5454.62
5465.12
5436.07
5444.92
5421.28
5428.16
5410.9
5415.5
5405.75
5407.62
5406.76
5405.42
5415.07
5409.92
5432.13
5422.4
5459.05
5444.35
5495.17
5476.18
5540.02
5516.57
5564.17
5809.39
5739.49
5963.6
5885.15
6104.89
6039.35
6225.43
4742.11
6069.08
5514.44
5513.6
6380.4
6412.33
5611.01
5183.27
4438.32
4539.53
4717.64
4965.5
6735.5
6233.84
8908.65
5704.7
2252.34
5289.7
6175.1
6915.92
6733.62
6818.34
6586.76
6656.81
6473.3
6525.98
6390.51
6428.23
6332.79
6359.03
6295.2
6311.84
6272.2
6282.16
6259.93
6264.9
6256.06
6257.05
6259.13
6256.8
6267.97
6262.88
6281.66
6274.26
6299.49
6290.09
6320.87
6309.76
6345.18
6332.66
6371.85
6358.25
6400.41
6385.89
6415.36
4841.8
5527.87
3928.68
4318.24
3475.84
3652.58
3389.5
3389.56
3652.29
3475.67
4317.72
3928.26
5527.13
4841.17
6414.5
6384.7
6399.4
6356.75
6370.48
6331.07
6343.61
6308.18
6319.26
6288.58
6297.94
6272.88
6280.2
6261.75
6266.69
6256.07
6258.17
6256.79
6255.57
6265.26
6260
6282.06
6272.67
6306.64
6293.44
6339.5
6322.36
6357.53
6569.34
6454.64
6507.76
6701.6
6634.87
6844.24
6767.94
7099.8
6954.72
7416.13
7255.08
7982.32
7777.39
6910.11
7588.59
4863.65
2238.64
6296.02
7028.56
4545.7
2392.15
7540.72
7557.18
5541.16
6430.07
4664.26
7096.3
4851.7
6408.68
5868.73
5108.84
5443.07
2286.18
2584.67
2954.4
3272.51
5740.74
3946.66
5739.76
5321.01
2865.76
5878.18
8907.85
8687.07
4678.27
4808.52
6427.89
2514.17
7152.9
4049.7
6569.04
7287.41
2399.45
8705.33
7431.06
8376.93
8515.25
8107.89
8235.28
7890.71
7993.22
7728.1
7803.2
7596.77
7658.91
7500.31
7544.51
7433.63
7463.45
7390.92
7409.8
7365.86
7376.42
7353.72
7358.4
7350.96
7351.33
7355.46
7352.37
7365.94
7360.02
7381.35
7373.09
7400.86
7390.64
7423.86
7411.96
7449.81
7436.51
7478.31
7463.78
7508.78
7493.35
7524.59
6430.77
4854.37
5541.84
3938.92
4329.55
3484.68
3661.99
3398.06
3398.12
3661.72
3484.51
4329.06
3938.52
4853.79
7556.2
7523.18
7539.51
7491.6
7507.17
7461.93
7476.49
7434.61
7447.94
7410.08
7421.97
7388.79
7398.99
7371.4
7379.57
7358.61
7364.37
7351.23
7354.2
7350.37
7349.75
7355.57
7352.16
7367.21
7360.49
7386.28
7375.82
7415.09
7399.29
7473.79
7439.01
7569.17
7518.18
7678.28
7622.21
7816.88
7739.5
8039.52
7916.91
8331.78
8179.73
8500.04
2356.32
2718.37
3388.69
5015.63
4596.94
2141.95
15290.4
12770
8233.81
7574.01
7573.21
2849.09
5465.6
4949.58
4804.49
4662.76
7289.12
4315.18
6023.41
9907.53
10139.9
9281.15
4797.24
6595.67
6044.42
6718.93
364302
4995.72
21546.5
7590.72
3578.23
5262.96
5607.85
1987.69
1937.98
8495.9
2058.65
1865.51
3006.92
9643.11
9783.59
9370.93
9492.88
9177.31
9266.78
9039.64
9102.51
8928.97
8981.65
8850.96
8885.65
8803.01
8823.96
8775.92
8787.4
8764.16
8768.33
8763.37
8762.61
8770.37
8766.04
8783.43
8776.19
8801.36
8791.85
8823.28
8811.87
8848.48
8835.51
8876.4
8862.12
8906.66
8891.26
8938.92
8922.57
8972.7
8955.61
9007.57
8990.02
9043.33
9025.34
9061.56
6446.7
7591.2
4867.48
5556.29
3949.73
4341.41
3494.13
3672
3407.24
3407.29
3671.74
3493.98
4340.95
3949.37
5555.7
4866.94
7590.52
6446.03
9060.78
9024.19
9042.4
8988.41
9006.19
8953.72
8970.9
8920.49
8936.89
8889.1
8904.54
8859.87
8874.19
8833.21
8846.19
8809.61
8820.99
8789.72
8799.17
8774.09
8781.31
8763.42
8768.17
8757.04
8759.18
8753.09
8753.22
8756.9
8753.78
8773.12
8763.3
8812.43
8787.36
8885.45
8846.06
8975.15
8928.71
9102.16
9031.38
9295.35
9189.56
9563.06
9422.55
9722.53
2228.86
2491.62
10348.1
3258.38
3168.65
5163.04
4711.68
1821.88
7675.68
7476.86
2595.23
1471.93
2700.58
5613.7
11549.3
11776.3
10463.2
4793.04
5090.93
4938.56
1909.79
6793.21
3146.22
10937
10955.6
7608.18
9079.38
6233.09
8709.57
6177.24
9740.17
2057.63
2871.39
3324.78
3888.35
1172.92
4940.87
1661.86
1370.01
2037.07
13181
2110.57
2614.69
6883.8
9198.94
3565.96
3411.58
2850.47
2999.94
3554.69
5150.92
5784.95
7790.42
1802.03
5428.94
1198.53
1215.23
1601.74
9026.2
1756.16
1349.22
1699.62
1633.23
7931.08
3640.22
8808.96
5377.73
11267.3
11404.4
11047.7
11150
10885
10959.3
10777.8
10825.7
10691.5
10732.4
10634.6
10659
10605.5
10617.3
10594.4
10598.3
10596.2
10594.1
10606.5
10600.4
10622.9
10614
10644.1
10633
10669
10656.1
10696.7
10682.5
10726.8
10711.5
10758.9
10742.6
10792.4
10775.5
10827.3
10809.7
10863.3
10845.2
10899.9
10881.6
10918.4
9080.07
6462.96
7608.83
4881.06
5571.24
3961.06
4353.78
3504.14
3682.54
3416.98
3417.03
3682.3
3503.99
4353.36
3960.72
5570.69
4880.55
6462.38
10954.7
10917.1
10935.9
10879.8
10898.4
10843.2
10861.4
10807.5
10825.2
10773.1
10790.1
10740.1
10756.4
10708.8
10724.2
10679.7
10694
10653.3
10666.2
10630.1
10641.2
10610.1
10619.7
10592
10601.1
10572.1
10581.9
10555.1
10562.7
10556.3
10553.5
10577.4
10563.2
10630.1
10600.8
10700.9
10662.3
10812.3
10749.1
10980.6
10886.7
11218.8
11091.3
11368.4
2910.82
3412.15
3214.92
3324.47
1024.66
3744.39
4309.37
5309.89
14227.9
12065
4840.97
2236.33
1845.05
1743.83
2277.62
1968.97
2118.8
1643.73
2582.18
240905
7002.38
10844
2413.31
10974.4
10973.7
6435.54
3929.92
2384.46
3044.46
2764.25
5209.21
5767.93
3790.65
10850.7
4093.59
3686.01
4533.97
3770.49
1944.41
4936.05
5239.38
5083.42
1411.27
1894.65
1553.2
1652.85
1818.98
2197.99
2302.63
1906.82
2135.52
1755.6
3316.36
4270.27
4116.03
3152.89
5195.91
2768.71
6343.45
10079.9
3526.17
3108.42
7718.09
5096.96
1204.16
1750.48
1483.5
1536.96
5975.94
7075.65
14314.3
9533.14
3877.38
2550.91
2588.97
2854.6
2373.08
2978.94
1649.46
5318.63
1128.8
1096.09
1267.24
1287.22
13564.1
15065.9
5607.97
8039.73
1601.01
1151.82
1075.49
1137.81
1561.61
9371.38
1552.14
2115.88
1448.6
1345.52
1489.95
1266.34
8229.14
7227.73
17510.7
1190.01
1778.49
9164.95
142930
13450.5
13531.4
13292.5
13369.7
13168.1
13224.4
13094.2
13125.6
13036.1
13064.1
13001.3
13015.3
12991.3
12993.7
12995.6
12992.2
13009.8
13001.9
13030.1
13019.4
13054.9
13042
13082.8
13068.5
13113.1
13097.7
13145.1
13128.9
13178.4
13161.6
13212.6
13195.4
13247.5
13230
13283
13265.2
13318.8
13300.8
13354.9
13336.8
13390.8
13372.9
13426.5
13408.6
13444.3
9098.88
10993.4
6479.68
7626.75
4895.05
5586.57
3972.85
4366.57
3514.63
3693.56
3427.23
3427.27
3693.34
3514.5
4366.18
3972.55
5586.05
4894.6
7626.13
6479.11
10992.8
9098.32
13443.7
13407.6
13425.6
13371.5
13389.5
13335.1
13353.3
13298.8
13316.9
13262.9
13280.8
13227.5
13245.1
13192.6
13210
13158.6
13175.5
13125.8
13142
13094.3
13109.9
13064.7
13079.3
13036.5
13050.5
13008.8
13022.6
12975
12993.1
12932.5
12953.3
12911.5
12918.9
12919.5
12913.2
12955
12934.9
13011.5
12978.5
13105.4
13053.8
13245.6
13166.5
13451.5
13337.6
13757.6
13589.2
13970.7
6652.39
17950.9
3944.77
4413.21
2430.69
3437.82
2559.21
3869.27
4074.6
3985.18
4262.46
4142.02
4669.47
4482.42
4888.47
5462.38
12395.9
15756.9
1861.16
4983.98
1472.89
1769.84
2013.42
1524.35
7279.46
4859.18
12886.4
4457.07
4613.67
3252.13
3957.77
5492.64
5777.4
21529.2
4671
3406.97
3176.58
2708.16
2828.81
4629.85
2942.42
3701.74
3386.69
6166.24
5933.04
11224.7
3414.94
3184.9
3302.7
1676.92
5092.06
5399.21
5241.28
1227.81
1622.39
1332.85
1412.06
1607.37
6181.12
4283.09
16624.2
16638.7
11012.1
13461.9
6271.49
3505.09
6528.09
8544.23
10445.2
2846.84
2648.7
3098.09
3615.3
1535.05
5266.4
1085.5
1324.9
11466.2
5800.7
8475.72
7294.43
9913.25
2258.99
1472.49
5499.45
1028.08
1143.54
1862.52
8310.32
1423.39
2618.37
1701.66
1047.59
1541.54
9667.55
1374.3
1432.7
8563.2
7484.37
1310.4
1288.62
6886.03
2679.28
1259.18
1231.67
8745.59
9571.63
1699.47
1533.09
3473.95
1465.93
13207.7
16064.3
16019.2
15796.3
16415.7
16404.2
16328.6
16381.6
16248.4
16283
16209.2
16223.9
16177.2
16192.4
16166.2
16168.9
16172.6
16168
16190.5
16180.3
16214.9
16202.1
16242.9
16228.5
16273.2
16257.8
16305
16288.9
16337.8
16321.3
16370.8
16354.3
16403.9
16387.4
16436.8
16420.4
16469.3
16453.1
16501.3
16485.4
16533
16517.2
16564.2
16548.6
16594.6
16579.5
16609.5
13462.3
9118.04
11012.6
6496.69
7644.95
4909.4
5602.22
3985.04
4379.74
3525.55
3704.98
3437.9
3437.94
3704.79
3525.44
4379.4
3984.77
5601.75
4908.99
7644.47
6496.18
9117.46
16638.2
16608.4
16623.4
16578.1
16593.4
16547
16562.7
16515.4
16531.3
16483.2
16499.4
16450.6
16467
16417.6
16434.1
16384.3
16401
16350.9
16367.6
16317.6
16334.3
16284.3
16300.9
16250.9
16267.8
16214.7
16234
16168
16193.8
16101.8
16135.5
16058.4
16076.2
16054.1
16051.8
16075.3
16062.5
16124.3
16097
16193
16157
16303.2
16243.6
16475
16379
16744.7
16595.6
17153.9
16931
17395.7
3317.44
2263.66
2723.29
1624.69
1905.34
1281.66
1231.66
1404.51
1719.08
1640.7
2276.93
1920.64
2733.45
4697.83
4747.59
3804.6
4846.21
4712.65
5151.09
4999.21
5297.49
6385.19
5392.51
12039.9
2983.35
4116.87
3143.93
4436.95
4093.15
4276.93
4712.97
4579.75
4935.02
4828.8
5183.35
5041.91
5586.66
5376.26
5832.71
5624.83
12739.5
3272.3
11158.2
3549.35
1604.38
5140.78
1271.23
1508.47
1785.61
1693.96
1523.65
6400.85
28540.9
7657.27
21903.5
9574.03
16653.2
16653
27196.4
18879.3
5518.07
5327.71
5674.75
18313.6
5499.1
4218.51
3925.57
3407.16
3535.11
5584.13
3706.44
4557.64
4207.41
7397.06
6112.9
15101.4
11613.6
2796.07
2702.84
16326.8
13491.4
3111.69
2777.91
1337.12
1460.01
27649.1
33012.2
5260.84
5573.71
5413.8
1093.99
15811
15597.8
17393.6
1413.31
1166.96
1230.08
1379.54
20137.2
5105.56
5183.05
6247.4
6007.79
7338.55
18404.2
3144.31
3878.08
7691.18
4545.97
6732.25
10853.1
2326.82
2286.7
3748.03
1095.87
1135.62
1370.83
5449.44
1003.25
1166.92
23657.5
2284.64
5694.12
7531.86
13983.7
12957.5
10345
15153.4
13896.4
1865.07
1802.01
1314.37
3321.65
2055.16
986.986
1040.38
1821.17
8580.66
13071.5
13883.2
1420.09
1483.51
1268.77
1671.11
8931.28
7770.79
14252.9
15404.8
14108.7
14066.2
13172.3
13350.1
12830.9
13295.8
1222.19
1438.68
7142.05
2251.98
1370.04
1161.94
1339.79
6636.8
151178
1116.83
6919.82
10038.8
29968.2
16605.8
20534.8
20091.8
20288.8
20150.4
19986.9
20477.8
20374.7
20483.4
20499.4
20443.7
20455.6
20434.1
20434.1
20428.4
20431.4
20436
20430.3
20455.4
20444.9
20483.4
20468.7
20513.5
20498.3
20544.3
20528.8
20575.1
20559.7
20605.6
20590.5
20635.2
20620.6
20663.6
20649.6
20690.4
20677.2
20715.6
20703.2
20739.2
20727.6
20761
20750.3
20781.3
20771.4
20800.3
20791
20817.7
20809.2
20833.6
20825.9
20848.5
20841.1
20854.9
13480.4
16667.7
9137.3
11032.1
6513.93
7663.46
4924.02
5618.14
3997.55
4393.21
3536.83
3716.76
3448.93
3448.97
3716.59
3536.73
4392.92
3997.32
5617.74
4923.67
7663
6513.5
11031.7
9136.91
16668
13480.4
20855.9
20840.7
20848.3
20825.1
20832.9
20808.2
20816.8
20789.9
20799.2
20770
20780.1
20748.6
20759.5
20725.5
20737.2
20700.7
20713.3
20674.5
20687.8
20646.6
20660.7
20616.9
20631.9
20585.6
20601.4
20551.7
20569.4
20510.1
20532.1
20452.6
20485.1
20369
20413.1
20307.5
20333
20290.9
20290.4
20305
20295.4
20340.4
20321.1
20397.2
20365.7
20475.1
20431.2
20604.6
20530.9
20816.7
20699.1
21127.9
20964.1
21282.2
2151.29
2583.5
1552.05
1814.83
1186.47
1347.08
988.723
961.801
1060.56
1245.78
1198.84
1565.29
1359.99
2162.01
1826.92
2593.12
4861.93
5109.68
5826.54
5771.1
5992.06
5889.36
6286.36
6132.76
6703.47
6468.99
7059.57
6373.29
4728.17
3707.26
5013.56
3934.37
5509.64
5118.56
5330.25
5805.44
5664.22
6051.07
5931.2
6342.92
6185.84
6760.08
6537.04
7032.35
5801.82
13136.5
2748.66
9953.45
11446.6
2950.07
1397.61
27960.1
32990.3
5311.59
14194
1121.32
22613.9
19677.1
1311.5
1450.76
17717.7
33141.5
4933.22
6362.83
4539.78
37302.6
36513.7
6229.58
7082.58
30570.9
2061.87
9768.42
6502.05
19636.8
12451.9
46793.9
4858.61
4580.08
6712.17
2195.99
5231.42
4388.19
4512.48
6838.51
4779.81
5690.06
5316.17
6309.68
15719.8
12061.2
2319.53
2310.15
13785.6
2575.03
2339.23
1181.43
1294.49
39452.7
5444.04
5763.53
5600.97
13074.2
13126.4
15827.7
997.473
17063.1
1256.31
1043.94
1093.75
1207.22
16071.9
20507.6
2884.47
13419.4
5903.42
12473.2
26423.9
26416.7
16683.2
20863.7
6173.17
5819.32
10663
9369.47
6054.31
6954.45
11314.4
45530.2
133941
16774.6
1915.67
2896.07
20840.8
16933
1889.19
1019.93
1226.36
4324.8
2551.37
5646.54
12514.3
949.079
15248.2
1574.71
1051
24015.9
2226.8
26828
26942.8
13797.5
7783.1
10853.4
14999.3
1551.11
884.586
904.264
1178.27
2010.4
7928.91
967.916
14074.8
9311.7
8083.61
8858.98
44494
13958.9
1295.96
1136.94
1658.68
13660.5
7420.67
1918.91
1538.58
1072.45
1108.36
1094.71
1470.43
6891.63
1429.47
12965
1054.85
6467.18
1934.64
8805.56
57332.1
35343.6
59250.3
21257.2
26748.3
26040
26334.9
25734.8
25842.1
25811.5
25701.2
26111.2
25971.3
26212
26190.1
26216.6
26210.1
26232.3
26221.4
26244.2
26239.1
26264.7
26252.1
26290.2
26277.5
26320
26305.1
26347.7
26334.2
26372.8
26360.7
26395.2
26384.3
26415.1
26405.5
26431.7
26423.8
26445.1
26438.8
26455.1
26450.5
26461.7
26458.8
26464.8
26463.7
26464.7
26465.2
26461.7
26463.6
26455.8
26459.1
26447.4
26451.9
26436.9
26442.4
26430.7
20862.4
13499
16682.7
9156.88
11051.7
6531.36
7682.11
4938.85
5634.23
4010.31
4406.91
3548.37
3728.79
3460.24
3460.27
3728.64
3548.28
4406.66
4010.11
5633.91
4938.56
7681.74
6531
11051.6
9156.57
13499
26418.1
26430.5
26424.3
26442.1
26436.6
26451.8
26447.2
26458.9
26455.7
26463.2
26461.4
26464.4
26464.1
26462.4
26463.8
26457.2
26460.2
26448.7
26453.4
26436.8
26443.2
26420.9
26429.4
26400.7
26411.4
26373.9
26388.7
26336.1
26357.4
26272.4
26308.6
26181.4
26228.2
26108.5
26139.7
26089.9
26089.3
26103.4
26093.8
26131.2
26114.8
26168
26148.8
26220.5
26191.5
26303.1
26257
26445.8
26366.2
26623.7
26539.2
26712.2
4515.55
2956.84
3632.58
2035.75
2437.65
1481.07
1724.05
1144.56
1291.95
939.349
1029.35
825.26
815.835
869.522
973.475
949.9
1155.06
1039.72
1491.75
1302.63
2045.96
1733.97
2973.17
2448.31
3662.94
6465.64
7278.25
7187.29
7478.51
7371.1
7786.87
7615.27
8261.21
7998.58
9250.92
8655.35
10095.7
5704.06
4696.93
6188.11
5029.73
6495.26
5666.29
6208.95
6927.45
6728.92
7248.66
7096.75
7529.18
7389.65
7849.25
7678.21
8282.76
8049.14
8919.97
8564.87
23253.1
5994.46
13640.6
2313.38
10254
11746.1
2475.27
1233.84
39252.4
5496.2
13084
39525
32666.5
1010.85
19153
1160.28
1267
18032.9
16107.8
3788.02
6128.02
12244.7
8974.07
15459.1
49947.5
14215.9
2752.58
12743.7
26409.9
26412.1
4267.17
5401.8
8582.03
8786.84
6694.81
5785.21
5885.73
8431.21
6336.36
7205.92
6847.67
11778.5
11428.5
6523.83
16532.8
12568.2
14003.9
27417.2
19377.7
19808.1
1938.24
1985.37
14117.7
1978.49
1057.31
1157.17
5788.29
3258.2
5641.53
5969.5
5803.69
12308.5
85978.7
39544.2
26502.6
12166.4
12200.3
928.601
9327.85
16799.1
990.525
1341.99
1078.27
35344.2
20904.2
2828.78
34434.9
34219.6
26348.3
11465.6
8319.99
8057.34
16419.4
7981.21
7194.12
11845.1
37644.6
30896.8
16276.8
16478.4
29275.5
1613.39
224198
17333.6
1622.33
928.452
1103.89
37314.5
12461.8
2496.47
7577.61
5859.16
12034.8
880.167
930.011
867.235
918.733
24412.3
24831.9
7811.85
15124.8
107631
60103.4
3126.7
8413.91
967.102
8052.35
11647.5
12677.3
24803.9
11466.7
14900.3
43973
34754.7
27309.3
21813.1
1349.76
838.966
1062.7
736.742
748.216
729.075
14221
1980.86
21643.6
16769.7
14220.8
836.122
7719.48
1583
11245.6
14715.5
9156.13
61567
30064.5
79178.3
14142.4
1796.15
1147.39
775.484
780.344
1027.1
745.939
2362.35
1670.62
7165.29
1572.56
13054.3
1000.04
995.327
1537.45
6721.26
6368.2
12126.7
896.317
973.667
12655.6
112018
44335.8
46283.4
45292.3
37834.3
46459.1
46513.1
28080.3
35844.2
34505.8
35066.4
33859.3
34124.9
33641.1
33712.4
33731.6
33622.6
34037.9
33882.8
34215.6
34150
34259.7
34242.5
34291
34277.9
34310
34301.7
34331.7
34319.9
34350.9
34342.1
34367.8
34360
34378.6
34374
34382.5
34382.1
34380.4
34381.9
34373.1
34377.6
34359.7
34367.1
34340.3
34350.7
34315.1
34328.4
34284.1
34300.3
34247.4
34266.5
34205.4
34227.1
34158.3
34182.4
34106.5
34132.9
34050.6
34079.1
33991.2
34021.3
33928.7
33960.4
33864.8
33896.7
33833.9
20870.6
26404
13517.8
16698.1
9176.54
11071.7
6548.86
7700.84
4953.8
5650.44
4023.22
4420.75
3560.1
3740.99
3471.73
3471.75
3740.87
3560.02
4420.54
4023.05
5650.18
4953.57
7700.59
6548.6
11071.6
9176.33
16698.9
13518
26406.5
20872
33837.4
33898.8
33867.7
33961.5
33930.3
34022.5
33992.4
34080.5
34052
34134.4
34108
34183.7
34159.6
34227.9
34206.4
34266.9
34248.1
34300.6
34284.4
34328.7
34315.4
34350.8
34340.6
34366.6
34359.5
34373.7
34370.7
34369.6
34374.9
34345.3
34365
34290.9
34326.5
34209.9
34252.3
34142.5
34172.5
34139
34134.5
34158.7
34147.8
34185.3
34172.7
34207.5
34196.2
34231.6
34218.4
34275.3
34249.3
34338.6
34304.7
34404.4
34374.2
34429.1
4162.07
5138.13
2762.73
3376.2
1919.68
2287.29
1412.15
1633.94
1106.3
1239.83
921.769
1002.42
811.07
859.303
774.08
1114.85
1010.89
1420.38
1248.42
1928.66
1642.52
2784.44
2299.81
3421.37
6933.94
7964.84
7527.75
8305.63
9206.61
9098.28
9450.68
9324.13
9789.86
9600.61
10311.7
10024.9
11321.1
10729.1
12106.6
10175.8
9414.85
6088.68
7729.44
6599.37
8367.67
8114.35
8830.3
8614.33
9176.86
9015.52
9488
9329.79
9843.06
9658.55
10290.6
10051.1
10896.2
10569
11147.7
6203.75
14249.3
23741.6
17799.1
1944.93
10585.7
12080.8
2102.5
1102.49
12041.5
11649.7
5801.24
4282.96
11144
8047.95
15867.3
45885.5
56499.1
21819.9
106029
44033.8
5696.38
12199.8
10600.3
32104.1
12300.1
929.208
17751
18861.9
1039.07
1173.29
1124.4
18422.8
23451.3
21260.7
15466.4
3752.99
98146.4
43197.9
21231.2
9259.6
38626.2
60357.5
56897
34022
64983.7
11569.4
15314.3
10755.5
8718.67
10536.9
8656.87
9006.47
7680.27
6756.43
20951.9
17382.3
13144.8
25698.1
18435.6
18454.5
24617.7
1646.5
15114.5
20974.7
887.202
34642.5
14791.4
14511.7
1694.16
958.729
1044.01
727.568
740.905
737.682
723.646
12312.6
10884.6
8085.09
8120.57
5788.16
3199.08
7382.76
60739.6
26283
5853.98
6193.01
6023.45
11723
818.925
104445
14991.8
38457.7
11398
11356.5
11480.6
2044.72
887.508
14732.8
25435.2
16534.2
2961.23
8748.26
47710.9
910.844
1383.01
14657.4
13686.3
981.371
1045.43
14227.8
14720.4
44026.6
43952.4
26402
33808.9
6306.06
8998.83
8041.11
11907.3
11790.4
11205.1
11713.4
7454.04
13851
10043.4
21634.4
12474.7
31168.8
16628.2
16205.3
28459.6
1651.63
17863.2
37944.4
1771.77
1406.77
857.104
1001.06
717.745
14863.6
11257
8121.39
2449.61
10828.5
57317.7
101146
6087.83
11695.9
826.804
9123.42
10787.6
908.021
15054
58788.3
8034.08
231354
4961.46
14097.4
16007.3
8342.84
13062.3
26187.7
12166.9
46393.3
37912.7
13322.3
14874.4
34246.3
2175
22560.7
1190.04
788.956
966.812
724.571
13061.1
10984.5
1969.19
79149.3
63929.7
64464.5
38173.1
14492.2
7457.73
93026.7
9480.53
12357.8
33069.3
1793.28
36920.5
29128.3
13190.3
1029.8
747.192
939.665
14226.1
1712.71
42302.2
6991.83
6623.41
12087.1
915.065
920.718
1651.93
17037.7
14766.3
24099.4
59245.5
1834.01
56970.7
58116.2
57622.6
57758.8
58036.1
46329.8
57332.6
57409.2
38417.7
49574.8
46949
48030.1
45641.5
46179.8
45047.6
45281.1
44905.2
44947.9
45022.2
44903
45354.1
45185.4
45554.4
45477.2
45628.3
45609.7
45667.8
45657.1
45679.1
45673.4
45677.4
45679
45667.2
45673.6
45646.1
45657.9
45613.4
45631.2
45569.2
45592.8
45514.7
45543.1
45450.8
45484
45377.2
45415.2
45294.1
45336.8
45201.9
45249.1
45100.6
45152.3
44990.6
45046.7
44872.2
44932.4
44746
44810
44612.6
44680.1
44472.6
44543.3
44327.3
44400.5
44178
44253
44102.1
33805.1
20879.6
26399.6
13536.9
16714.1
9196.24
11091.7
6566.36
7719.57
4968.76
5666.62
4036.17
4434.61
3571.88
3753.25
3483.28
3483.3
3753.15
3571.82
4434.45
4036.04
5666.44
4968.58
7719.42
6566.18
11091.8
9196.2
16715
13537.3
20881.1
43957.5
44105.9
44031.1
44256.4
44181.3
44404.3
44330.8
44547.4
44476.6
44684.4
44616.8
44814.2
44750.2
44936.3
44876.3
45050.4
44994.4
45156.1
45104.3
45253
45205.7
45341.2
45298.3
45419.4
45381.8
45486.7
45454.8
45531.7
45512.2
45548.2
45542.6
45526.3
45542.5
45481.4
45505.3
45458.2
45461.3
45483.3
45466.6
45530.4
45505.1
45568.5
45552.5
45585.2
45577.9
45594.5
45589.5
45603.8
45601.2
45603.8
45603.9
45586.6
45603.8
45423.3
45551.5
45136.5
45128.4
3849.77
4780.97
2568.87
3128.04
1803.08
2136.82
1345.72
1545.47
1072.22
1191.66
909.052
980.2
812.15
854.374
760.372
780.181
748.636
739.306
747.274
732.956
760.073
746.367
816.568
783.325
914.835
859.384
1078.82
986.469
1352.3
1197.97
1811.49
1552.21
2589.82
2148.56
3937.33
3169.83
4957.34
10456.6
9970.63
10837.1
11841.8
11699.9
12119.4
11976.6
12501.9
12290.2
13071.1
12753.6
14082.7
13496.8
14798.9
12428.1
623287
7981.47
9800.7
8943.77
10558.8
10017.7
10339.6
10946.8
10740
11428.7
11196.9
11808.3
11633.9
12145.8
11977.8
12527
12328.9
12989.5
12746.8
13552.1
13261.4
13865.3
6431.7
14912.6
21611.2
21097.3
1662.51
52746.4
7856.41
10959
12465.8
56723
996.645
725.291
10750.5
4233.98
7082.87
7250.27
48153
59585.9
60391.2
14544.7
57748.1
55511.6
55076.4
45230.3
34113.5
5912.55
11516.2
159961
11386.9
31256.4
11387.2
105013
18356.7
18487.6
23823.5
943.764
1213.77
20461.6
21661.7
1008.35
15709.5
152981
30428.6
16204.2
46322.2
20363.6
51733.1
38015.2
43881.1
43886.4
45448.1
10339.2
65715.5
13728.4
11902.9
11528.3
13416.9
12132.8
12295
7009.92
24469.9
19027.3
21779.3
18171.1
13816.1
26004.9
18939.7
18009.1
23856.9
1416.93
1473.44
13159.6
689493
15008.3
1634.18
1463.45
881.008
951.377
712.909
11359.2
9868.44
5722.01
3138.7
10717.9
37078.7
35804.4
74115.5
26987.8
6083.54
6436.13
6261.8
11283.9
787.423
722.436
736.844
41984.9
37084.9
10786.6
10675.6
10671.8
18095.5
18716.1
1538.5
833.625
868.472
39778.8
27118.8
16243
37054.8
8352.91
1185.35
915.225
103023
850.304
25673.6
99748.2
14926.6
15534.7
107384
16707.1
13311.8
9473.33
12663.6
7735.84
14382.9
22791.2
13218.7
31348.4
16870.6
58159.5
73702.9
58457.6
15967
27421
2747.88
3619.85
59529.5
27118.2
18585.8
1236.69
801.921
916.362
711.174
875.122
13389.6
10229.1
7747.89
2413.67
12188.4
66812.1
75843.8
76418.1
89371.3
82428.3
71461.9
65244.2
6332.41
11468.5
836.753
24978.4
10021
10049.9
910.574
15066.8
23405.2
7769.32
74275.7
54241.6
56640.5
10933.1
9840.92
8659.99
13639.4
28194.6
13087
37905.9
46488.2
14993.4
116161
15461.9
2135.11
14557.9
23553.3
47017.6
1063.24
751.391
890.469
722.885
11943
10274.6
1984.06
14084.4
44263.6
151756
17425.1
35943.6
30514.7
7279.53
6893.87
12106.6
936.858
873.015
1796.63
29568.4
17345.3
17692.1
76226.9
75242.2
74985
75840.3
73086.4
74030.3
71806.4
72209.6
72668.4
76502.2
65790.1
68011.8
63152.4
64235.3
61893.8
62407
61357.6
61553.9
61259.5
61284.7
61434.2
61275.9
61759.5
61593.9
61956.9
61881.8
62015.4
61999.3
62023.2
62026.4
61995.5
62013.3
61936.8
61969.2
61852.2
61897.5
61747.8
61802.3
61624.5
61688.4
61483.7
61556.2
61326.8
61407.3
61155.1
61242.8
60968.4
61063.6
60767.4
60869.6
60552.4
60661.6
60323.9
60439.8
60082.3
60204.7
59828.2
59956.7
59562.5
59696.8
59285.9
59425.6
58999.5
59143.8
58705.3
58853.2
58405
58555.8
58103
58253.9
57809
57954
57670.1
33779.4
43814.1
20889.6
26396.8
13556.2
16730.6
9215.84
11111.7
6583.7
7738.18
4983.58
5682.67
4049.02
4448.35
3583.59
3765.42
3494.75
3494.77
3765.34
3583.54
4448.23
4048.92
5682.55
4983.45
7738.14
6583.6
11112
9215.92
16731.6
13556.8
26399.4
20891.3
43819.4
33783.1
57677.7
57961.4
57816.5
58260.6
58109.8
58562.6
58411.7
58861.1
58712.6
59152.5
59007.8
59434.5
59294.7
59706
59571.6
59966
59837.4
60214
60091.5
60449.5
60333.4
60672.2
60562.5
60881.6
60778.5
61077.2
60981
61255.3
61169.4
61405.9
61335.5
61505.2
61466.5
61562.7
61538.3
61605.3
61585.1
61663.7
61629.9
61757.6
61707
61879.8
61816.4
61957.8
61928.2
61999.2
61984.3
62015.4
62014
62001.2
62022.4
61967.3
62003.3
61865.7
61939.7
61557.2
61773.4
61148.3
61202.2
61370.1
61201.1
61753.4
5596.84
7213.23
3547.89
4422.46
2375.08
2882.55
1687.93
1985.83
1282.69
1458.91
1042.93
1147.13
901.239
962.741
818.579
854.047
775.1
792.539
757.731
764.206
756.655
755.149
774.649
762.816
820.96
793.701
905.058
857.396
1047.5
967.068
1287.75
1151.95
1695.01
1464.71
2391.58
1996.43
3604.22
2913.03
5743.73
4522.12
9622.24
7380.03
12775.2
13505
13415.8
13970.6
13542.5
44919.6
14375.5
15190.6
43603.9
15495.1
15353
15816.7
15645.1
16244.1
16014.4
16861.5
16533.1
17847.2
17285
19310
18521.3
15583.6
69052.2
10458.5
11325.5
12753.4
12430.3
14039.4
13719.8
14530.9
14300.5
15049.1
14791.5
15470.7
15275.8
15839.8
15650.8
16235.1
16030.2
16709.9
16458.4
17281.2
16976.4
17638.4
6679.82
1051.36
15640.7
22003.8
21282.4
73459.1
76506.2
20476.1
1439.81
953.512
32703.7
11369.5
12909.6
1530.12
911.979
714.432
9843.88
4162.46
10624
17959.2
27072.5
31586
42084.3
77490.5
76662.4
75650.4
76541.1
72333
74149.4
70042.7
70933.3
71469.6
69622.9
75648.3
78320.2
76115
34513.8
6146.31
10985.6
758.236
14957.4
30130.8
10648.8
19789.1
55173.7
23261
15755.7
1341.47
806.325
41354.4
843.867
19643.3
17941.7
8712.29
7894.11
100525
96408.2
11449.9
14975
22849.9
68063.3
876.68
67684.9
68952.9
19293.2
62613.7
35810
103044
77979.6
18343.3
104210
78698.8
106444
18542.8
16578.4
15673.5
16563.8
33938.2
17110.2
17235.2
8755.64
11783.3
7284.8
15887
19978.8
22707.7
19081.3
14623.5
26261
19249.6
62071.9
58519.9
17539.5
22906.6
16277.7
6841
1242.02
15671
63591.7
24976.3
15705.1
2475.8
11856.2
17975.6
1436.32
1288.68
820.197
876.138
705.388
10345.3
8955.1
5535.16
3073.09
75526.3
104033
72738.2
68033.2
15588.2
15740
60888.8
61227.7
104100
77084
106616
54833
12344.7
61155
46047.3
27894.5
6330.25
6701.13
6521.02
10961.6
791.414
715.658
732.079
45584.6
36403.1
10297.5
10114.6
10010.8
860.409
28902.1
15990.4
8945.25
41946.5
46326.5
158510
5867.24
77407
77143.3
43758.6
57547.9
8825.75
11839.7
20604.6
10226.1
24094.2
11172.8
8043.58
15112.2
24351.6
14195.5
31450.5
17060.3
46773.2
15819.4
10101.1
25243.2
2470.91
2669.49
798.518
19993.3
19539.8
13445.3
1101.27
759.93
849.506
707.537
12277.6
9279.81
7363.74
2395.71
14271.6
54428.1
46127.7
17297.3
74013
22210.4
128311
151121
40475.2
52299.7
23512.6
24215.4
6590.8
11325.6
848.855
866.386
1833.35
44853.3
9432.99
924.805
12552.8
9011.05
14458.7
30254.8
37987.8
5410.61
15296.4
142186