/*--------------------------------*- C++ -*----------------------------------*\
| =========                 |                                                 |
| \\      /  F ield         | OpenFOAM: The Open Source CFD Toolbox           |
|  \\    /   O peration     | Version:  2212                                  |
|   \\  /    A nd           | Website:  www.openfoam.com                      |
|    \\/     M anipulation  |                                                 |
\*---------------------------------------------------------------------------*/
FoamFile
{
    version     2.0;
    format      ascii;
    arch        "LSB;label=32;scalar=64";
    class       volVectorField;
    location    "0.351";
    object      UMean;
}
// * * * * * * * * * * * * * * * * * * * * * * * * * * * * * * * * * * * * * //

dimensions      [0 1 -1 0 0 0 0];

internalField   nonuniform List<vector> 
24240
(
(9.2831 0.667051 9.38856e-07)
(9.28322 0.667061 -3.65236e-07)
(9.28322 0.66706 2.03117e-08)
(9.28322 0.667059 -3.05049e-07)
(9.28322 0.667058 -2.55205e-07)
(9.28322 0.667056 -3.82347e-07)
(9.28322 0.667055 -4.2203e-07)
(9.28322 0.667053 -5.10089e-07)
(9.28322 0.667052 -5.69477e-07)
(9.28322 0.66705 -6.35846e-07)
(9.28322 0.667049 -6.78892e-07)
(9.28322 0.667047 -7.14133e-07)
(9.28322 0.667046 -7.15957e-07)
(9.28322 0.667045 -7.15318e-07)
(9.28322 0.667044 -6.51581e-07)
(9.28322 0.667043 -6.46908e-07)
(9.28321 0.667043 -4.60213e-07)
(9.28321 0.667042 -6.1631e-07)
(9.28322 0.667042 -4.90472e-08)
(9.2831 0.667032 -1.12978e-06)
(9.08711 0.671784 -5.12268e-07)
(9.08723 0.671795 -1.00647e-06)
(9.08723 0.671795 -1.41621e-06)
(9.08723 0.671796 -1.97578e-06)
(9.08723 0.671797 -2.3358e-06)
(9.08723 0.671798 -2.70339e-06)
(9.08723 0.671799 -2.93543e-06)
(9.08723 0.671801 -3.11055e-06)
(9.08723 0.671802 -3.18038e-06)
(9.08723 0.671803 -3.17798e-06)
(9.08723 0.671805 -3.08905e-06)
(9.08723 0.671806 -2.93516e-06)
(9.08723 0.671807 -2.70981e-06)
(9.08723 0.671808 -2.44778e-06)
(9.08723 0.671809 -2.12185e-06)
(9.08723 0.671809 -1.81481e-06)
(9.08723 0.67181 -1.40664e-06)
(9.08723 0.671811 -1.10067e-06)
(9.08723 0.671811 -5.69317e-07)
(9.08711 0.671801 -5.47156e-08)
(9.11658 0.391839 -8.88765e-08)
(9.1167 0.391847 4.16467e-07)
(9.1167 0.391847 9.21575e-07)
(9.11669 0.391847 1.18394e-06)
(9.11669 0.391847 1.50892e-06)
(9.11669 0.391847 1.6606e-06)
(9.11669 0.391847 1.77934e-06)
(9.11669 0.391847 1.79316e-06)
(9.11669 0.391847 1.7529e-06)
(9.11669 0.391847 1.64621e-06)
(9.11669 0.391847 1.50138e-06)
(9.11669 0.391847 1.31948e-06)
(9.11669 0.391847 1.12786e-06)
(9.11669 0.391847 9.22568e-07)
(9.11669 0.391847 7.49256e-07)
(9.11669 0.391847 5.50928e-07)
(9.11668 0.391847 4.60808e-07)
(9.11668 0.391847 2.71492e-07)
(9.11668 0.391847 2.66049e-07)
(9.11656 0.39184 2.66735e-07)
(8.96887 0.388718 -4.08965e-07)
(8.96899 0.388726 -9.82252e-07)
(8.96899 0.388726 -1.42213e-06)
(8.96899 0.388726 -1.92728e-06)
(8.96899 0.388726 -2.33233e-06)
(8.96899 0.388726 -2.67783e-06)
(8.96899 0.388726 -2.91464e-06)
(8.96899 0.388726 -3.07567e-06)
(8.96899 0.388726 -3.13755e-06)
(8.96899 0.388726 -3.11909e-06)
(8.96899 0.388726 -3.01655e-06)
(8.96899 0.388726 -2.84524e-06)
(8.96899 0.388726 -2.60661e-06)
(8.96899 0.388726 -2.32684e-06)
(8.96899 0.388726 -1.99615e-06)
(8.96899 0.388726 -1.66084e-06)
(8.969 0.388726 -1.28493e-06)
(8.969 0.388726 -9.27873e-07)
(8.969 0.388726 -4.47298e-07)
(8.96888 0.388719 -8.51489e-08)
(8.98494 0.220676 2.46997e-08)
(8.98506 0.22068 4.59805e-07)
(8.98506 0.22068 9.39705e-07)
(8.98506 0.220681 1.25695e-06)
(8.98506 0.220681 1.5321e-06)
(8.98506 0.220682 1.71596e-06)
(8.98506 0.220682 1.84062e-06)
(8.98505 0.220683 1.88014e-06)
(8.98505 0.220683 1.86007e-06)
(8.98505 0.220684 1.77669e-06)
(8.98505 0.220684 1.65141e-06)
(8.98505 0.220685 1.4887e-06)
(8.98505 0.220685 1.31001e-06)
(8.98505 0.220686 1.11674e-06)
(8.98505 0.220686 9.37066e-07)
(8.98505 0.220686 7.53648e-07)
(8.98505 0.220686 6.01325e-07)
(8.98505 0.220687 4.39921e-07)
(8.98505 0.220687 3.73873e-07)
(8.98493 0.220682 2.25843e-07)
(8.89231 0.2139 -2.81358e-07)
(8.89243 0.213904 -6.79034e-07)
(8.89243 0.213904 -9.99161e-07)
(8.89243 0.213903 -1.3397e-06)
(8.89243 0.213902 -1.59852e-06)
(8.89243 0.213901 -1.83498e-06)
(8.89243 0.2139 -1.99839e-06)
(8.89243 0.213899 -2.11375e-06)
(8.89243 0.213898 -2.16119e-06)
(8.89243 0.213897 -2.15421e-06)
(8.89243 0.213897 -2.08661e-06)
(8.89243 0.213896 -1.97096e-06)
(8.89243 0.213895 -1.80363e-06)
(8.89243 0.213894 -1.60619e-06)
(8.89243 0.213893 -1.36404e-06)
(8.89243 0.213893 -1.11819e-06)
(8.89243 0.213892 -8.21382e-07)
(8.89243 0.213892 -5.61149e-07)
(8.89243 0.213892 -2.46358e-07)
(8.89232 0.213887 -2.79996e-08)
(8.90124 0.0987231 -1.00639e-07)
(8.90136 0.0987252 -5.32888e-09)
(8.90136 0.0987253 1.36784e-07)
(8.90136 0.0987255 1.87936e-07)
(8.90136 0.0987257 2.33128e-07)
(8.90136 0.0987259 2.46604e-07)
(8.90136 0.0987261 2.47784e-07)
(8.90136 0.0987264 2.22699e-07)
(8.90136 0.0987266 1.86148e-07)
(8.90136 0.0987269 1.33919e-07)
(8.90136 0.0987272 7.86879e-08)
(8.90136 0.0987274 1.91056e-08)
(8.90136 0.0987276 -3.0136e-08)
(8.90136 0.0987278 -7.42375e-08)
(8.90136 0.0987279 -9.31936e-08)
(8.90136 0.098728 -1.05243e-07)
(8.90136 0.0987281 -8.26697e-08)
(8.90136 0.0987281 -6.13748e-08)
(8.90136 0.0987281 4.52285e-08)
(8.90124 0.098726 9.98793e-08)
(8.858 0.0884687 -2.10529e-07)
(8.85812 0.0884704 -5.17241e-07)
(8.85812 0.0884701 -7.59901e-07)
(8.85812 0.0884697 -1.0197e-06)
(8.85812 0.0884692 -1.21688e-06)
(8.85812 0.0884687 -1.39721e-06)
(8.85812 0.088468 -1.52358e-06)
(8.85812 0.0884673 -1.61551e-06)
(8.85812 0.0884666 -1.65815e-06)
(8.85812 0.0884659 -1.6624e-06)
(8.85812 0.0884652 -1.62162e-06)
(8.85812 0.0884645 -1.54621e-06)
(8.85812 0.0884639 -1.42858e-06)
(8.85812 0.0884632 -1.28779e-06)
(8.85812 0.0884627 -1.10734e-06)
(8.85813 0.0884622 -9.2566e-07)
(8.85813 0.0884618 -6.99409e-07)
(8.85813 0.0884614 -5.05887e-07)
(8.85813 0.0884611 -2.45253e-07)
(8.85801 0.0884592 -3.98485e-08)
(8.86502 -0.00205822 -1.86379e-07)
(8.86514 -0.00205831 -3.2944e-07)
(8.86514 -0.00205821 -4.30783e-07)
(8.86514 -0.00205802 -5.73748e-07)
(8.86514 -0.00205782 -6.89869e-07)
(8.86514 -0.00205757 -8.03756e-07)
(8.86514 -0.0020573 -8.94467e-07)
(8.86514 -0.00205701 -9.74938e-07)
(8.86514 -0.00205672 -1.03542e-06)
(8.86515 -0.00205643 -1.08282e-06)
(8.86515 -0.00205617 -1.10946e-06)
(8.86515 -0.00205593 -1.12063e-06)
(8.86515 -0.00205573 -1.10388e-06)
(8.86515 -0.00205557 -1.0686e-06)
(8.86515 -0.00205546 -9.9261e-07)
(8.86515 -0.0020554 -9.01088e-07)
(8.86515 -0.00205537 -7.49804e-07)
(8.86515 -0.00205539 -5.94664e-07)
(8.86515 -0.00205542 -3.19073e-07)
(8.86503 -0.00205529 -3.03096e-08)
(8.86481 -0.0183338 -1.84882e-07)
(8.86493 -0.0183348 -3.82212e-07)
(8.86493 -0.0183355 -5.24824e-07)
(8.86493 -0.0183365 -6.98499e-07)
(8.86493 -0.0183378 -8.33742e-07)
(8.86493 -0.0183394 -9.5888e-07)
(8.86493 -0.0183411 -1.05127e-06)
(8.86493 -0.0183429 -1.12566e-06)
(8.86492 -0.0183448 -1.17267e-06)
(8.86492 -0.0183467 -1.20103e-06)
(8.86492 -0.0183486 -1.20342e-06)
(8.86492 -0.0183504 -1.1873e-06)
(8.86492 -0.018352 -1.1399e-06)
(8.86492 -0.0183534 -1.07504e-06)
(8.86492 -0.0183547 -9.7083e-07)
(8.86492 -0.0183558 -8.59829e-07)
(8.86492 -0.0183566 -6.9758e-07)
(8.86492 -0.0183572 -5.47479e-07)
(8.86492 -0.0183577 -2.88767e-07)
(8.8648 -0.0183572 -3.36878e-08)
(8.87168 -0.102922 -4.42759e-07)
(8.8718 -0.102924 -1.22066e-06)
(8.8718 -0.102924 -1.89973e-06)
(8.8718 -0.102924 -2.55018e-06)
(8.8718 -0.102923 -3.09041e-06)
(8.8718 -0.102923 -3.54543e-06)
(8.8718 -0.102923 -3.88275e-06)
(8.8718 -0.102922 -4.11416e-06)
(8.8718 -0.102922 -4.23126e-06)
(8.8718 -0.102921 -4.24445e-06)
(8.8718 -0.102921 -4.15396e-06)
(8.8718 -0.102921 -3.97348e-06)
(8.8718 -0.10292 -3.70233e-06)
(8.87181 -0.10292 -3.36388e-06)
(8.87181 -0.10292 -2.95012e-06)
(8.87181 -0.10292 -2.50789e-06)
(8.87181 -0.10292 -1.98995e-06)
(8.87181 -0.10292 -1.48107e-06)
(8.87181 -0.10292 -8.22933e-07)
(8.87169 -0.102917 -2.08197e-07)
(8.91422 -0.119312 -1.5275e-07)
(8.91434 -0.119315 -1.74219e-07)
(8.91434 -0.119315 -1.55042e-07)
(8.91434 -0.119316 -1.9894e-07)
(8.91434 -0.119317 -2.39233e-07)
(8.91434 -0.119318 -2.91419e-07)
(8.91434 -0.119319 -3.43392e-07)
(8.91433 -0.11932 -4.0664e-07)
(8.91433 -0.119321 -4.72815e-07)
(8.91433 -0.119322 -5.47861e-07)
(8.91433 -0.119323 -6.19683e-07)
(8.91433 -0.119324 -6.90849e-07)
(8.91433 -0.119325 -7.41025e-07)
(8.91433 -0.119326 -7.75932e-07)
(8.91433 -0.119327 -7.65397e-07)
(8.91433 -0.119327 -7.34771e-07)
(8.91433 -0.119328 -6.41406e-07)
(8.91433 -0.119328 -5.31925e-07)
(8.91433 -0.119328 -2.80397e-07)
(8.91421 -0.119326 2.30088e-09)
(8.91997 -0.220441 -6.02605e-07)
(8.92009 -0.220446 -1.75147e-06)
(8.92009 -0.220446 -2.75961e-06)
(8.92009 -0.220446 -3.70786e-06)
(8.92009 -0.220446 -4.48893e-06)
(8.92009 -0.220446 -5.15188e-06)
(8.9201 -0.220445 -5.64331e-06)
(8.9201 -0.220445 -5.97526e-06)
(8.9201 -0.220445 -6.13563e-06)
(8.9201 -0.220445 -6.13561e-06)
(8.9201 -0.220445 -5.97804e-06)
(8.9201 -0.220445 -5.67994e-06)
(8.9201 -0.220444 -5.24858e-06)
(8.9201 -0.220444 -4.71511e-06)
(8.92011 -0.220444 -4.07929e-06)
(8.92011 -0.220444 -3.40674e-06)
(8.92011 -0.220444 -2.63949e-06)
(8.92011 -0.220444 -1.91141e-06)
(8.92011 -0.220444 -1.03063e-06)
(8.91999 -0.220439 -2.70209e-07)
(9.01004 -0.232182 -1.59441e-07)
(9.01016 -0.232187 -7.83772e-08)
(9.01016 -0.232187 4.96786e-08)
(9.01016 -0.232188 6.65387e-08)
(9.01016 -0.232188 5.80334e-08)
(9.01016 -0.232189 2.95174e-08)
(9.01015 -0.232189 -1.54278e-08)
(9.01015 -0.23219 -8.83164e-08)
(9.01015 -0.232191 -1.77363e-07)
(9.01015 -0.232191 -2.88661e-07)
(9.01015 -0.232192 -4.03399e-07)
(9.01015 -0.232193 -5.22973e-07)
(9.01015 -0.232193 -6.19128e-07)
(9.01014 -0.232194 -6.95439e-07)
(9.01014 -0.232194 -7.1675e-07)
(9.01014 -0.232194 -7.06743e-07)
(9.01014 -0.232195 -6.35864e-07)
(9.01014 -0.232195 -5.23013e-07)
(9.01014 -0.232195 -2.49116e-07)
(9.01002 -0.23219 4.1245e-08)
(9.0102 -0.375014 -7.09369e-07)
(9.01032 -0.375022 -2.07911e-06)
(9.01032 -0.375021 -3.29405e-06)
(9.01032 -0.375021 -4.43827e-06)
(9.01033 -0.375021 -5.36381e-06)
(9.01033 -0.375021 -6.16991e-06)
(9.01033 -0.375021 -6.76432e-06)
(9.01033 -0.37502 -7.16485e-06)
(9.01033 -0.37502 -7.35128e-06)
(9.01033 -0.37502 -7.33683e-06)
(9.01033 -0.37502 -7.12389e-06)
(9.01034 -0.37502 -6.73487e-06)
(9.01034 -0.37502 -6.18244e-06)
(9.01034 -0.37502 -5.50718e-06)
(9.01034 -0.37502 -4.71776e-06)
(9.01034 -0.37502 -3.89751e-06)
(9.01034 -0.37502 -2.96667e-06)
(9.01034 -0.37502 -2.12908e-06)
(9.01034 -0.37502 -1.15258e-06)
(9.01022 -0.375013 -3.12768e-07)
(9.1564 -0.379724 -1.67798e-07)
(9.15652 -0.379731 5.50979e-08)
(9.15652 -0.379731 3.16325e-07)
(9.15652 -0.379732 3.66694e-07)
(9.15652 -0.379732 3.62476e-07)
(9.15652 -0.379732 3.3365e-07)
(9.15652 -0.379732 2.82719e-07)
(9.15652 -0.379732 1.79897e-07)
(9.15652 -0.379732 5.27974e-08)
(9.15651 -0.379733 -1.12292e-07)
(9.15651 -0.379733 -2.85222e-07)
(9.15651 -0.379733 -4.69189e-07)
(9.15651 -0.379733 -6.24831e-07)
(9.15651 -0.379733 -7.59928e-07)
(9.15651 -0.379733 -8.2652e-07)
(9.15651 -0.379734 -8.57647e-07)
(9.1565 -0.379734 -8.38372e-07)
(9.1565 -0.379734 -7.61291e-07)
(9.1565 -0.379734 -4.45774e-07)
(9.15638 -0.379726 -1.39155e-08)
(9.14251 -0.607575 -7.21714e-07)
(9.14263 -0.607586 -2.10134e-06)
(9.14263 -0.607586 -3.27391e-06)
(9.14263 -0.607586 -4.50836e-06)
(9.14263 -0.607586 -5.59012e-06)
(9.14264 -0.607587 -6.47049e-06)
(9.14264 -0.607587 -7.12279e-06)
(9.14264 -0.607588 -7.56351e-06)
(9.14264 -0.607588 -7.76846e-06)
(9.14264 -0.607589 -7.75811e-06)
(9.14264 -0.607589 -7.52943e-06)
(9.14264 -0.60759 -7.11363e-06)
(9.14265 -0.60759 -6.52243e-06)
(9.14265 -0.607591 -5.81061e-06)
(9.14265 -0.607591 -4.99123e-06)
(9.14265 -0.607591 -4.14961e-06)
(9.14265 -0.607592 -3.28581e-06)
(9.14265 -0.607592 -2.46163e-06)
(9.14265 -0.607592 -1.33357e-06)
(9.14253 -0.607581 -3.68502e-07)
(9.35472 -0.602317 -3.09718e-07)
(9.35484 -0.602328 -6.84978e-08)
(9.35484 -0.602327 1.63308e-08)
(9.35483 -0.602327 -1.37115e-07)
(9.35483 -0.602326 -1.34114e-07)
(9.35483 -0.602325 -2.89914e-07)
(9.35483 -0.602324 -3.98613e-07)
(9.35483 -0.602324 -5.77793e-07)
(9.35483 -0.602323 -7.47499e-07)
(9.35483 -0.602322 -9.46015e-07)
(9.35483 -0.602321 -1.12719e-06)
(9.35482 -0.60232 -1.30695e-06)
(9.35482 -0.602319 -1.43244e-06)
(9.35482 -0.602319 -1.53523e-06)
(9.35482 -0.602318 -1.52056e-06)
(9.35482 -0.602318 -1.5001e-06)
(9.35482 -0.602318 -1.26424e-06)
(9.35482 -0.602317 -1.13743e-06)
(9.35482 -0.602317 -7.38828e-07)
(9.3547 -0.602306 -2.43481e-08)
(9.31078 -0.997326 -5.74313e-07)
(9.3109 -0.997341 -1.51614e-06)
(9.3109 -0.997341 -2.58193e-06)
(9.3109 -0.997342 -3.71993e-06)
(9.3109 -0.997343 -4.54268e-06)
(9.3109 -0.997344 -5.3113e-06)
(9.3109 -0.997346 -5.84266e-06)
(9.3109 -0.997347 -6.23475e-06)
(9.3109 -0.997349 -6.41861e-06)
(9.3109 -0.99735 -6.43861e-06)
(9.3109 -0.997352 -6.27099e-06)
(9.3109 -0.997353 -5.95797e-06)
(9.3109 -0.997354 -5.48779e-06)
(9.3109 -0.997355 -4.93435e-06)
(9.31091 -0.997356 -4.25609e-06)
(9.31091 -0.997357 -3.60253e-06)
(9.31091 -0.997357 -2.79747e-06)
(9.31091 -0.997358 -2.19044e-06)
(9.31091 -0.997359 -1.31803e-06)
(9.31079 -0.997343 -3.21628e-07)
(9.58675 -0.976812 1.39761e-06)
(9.58686 -0.976824 -3.87388e-07)
(9.58686 -0.976822 -7.10935e-07)
(9.58686 -0.976821 -1.70877e-06)
(9.58686 -0.97682 -2.05893e-06)
(9.58686 -0.976818 -2.55639e-06)
(9.58686 -0.976816 -2.85323e-06)
(9.58686 -0.976814 -3.14868e-06)
(9.58686 -0.976812 -3.33264e-06)
(9.58685 -0.976811 -3.46778e-06)
(9.58685 -0.976809 -3.50569e-06)
(9.58685 -0.976807 -3.48404e-06)
(9.58685 -0.976806 -3.35656e-06)
(9.58685 -0.976805 -3.19167e-06)
(9.58685 -0.976804 -2.88389e-06)
(9.58685 -0.976803 -2.64545e-06)
(9.58685 -0.976803 -2.13009e-06)
(9.58685 -0.976802 -2.16919e-06)
(9.58686 -0.976804 -1.42979e-06)
(9.58675 -0.976791 -2.0328e-06)
(8.77151 0.715451 6.25559e-07)
(8.77162 0.71546 -9.05529e-08)
(8.77162 0.715459 2.55401e-07)
(8.77162 0.715458 8.76054e-08)
(8.77162 0.715457 2.48492e-07)
(8.77162 0.715455 2.05668e-07)
(8.77162 0.715453 2.42649e-07)
(8.77162 0.715451 1.95083e-07)
(8.77162 0.715449 1.65291e-07)
(8.77162 0.715447 9.97445e-08)
(8.77162 0.715445 4.49615e-08)
(8.77162 0.715444 -2.55904e-08)
(8.77162 0.715442 -7.05882e-08)
(8.77162 0.715441 -1.33696e-07)
(8.77162 0.715439 -1.29024e-07)
(8.77162 0.715438 -2.05384e-07)
(8.77162 0.715438 -9.94921e-08)
(8.77162 0.715437 -3.09614e-07)
(8.77162 0.715437 -1.17702e-08)
(8.77151 0.715427 -7.29095e-07)
(8.79993 0.724721 -4.92833e-07)
(8.80005 0.724731 -1.05207e-06)
(8.80005 0.724732 -1.50823e-06)
(8.80005 0.724733 -2.07727e-06)
(8.80005 0.724734 -2.42862e-06)
(8.80004 0.724735 -2.80178e-06)
(8.80004 0.724736 -3.02128e-06)
(8.80004 0.724738 -3.19219e-06)
(8.80004 0.724739 -3.24432e-06)
(8.80004 0.724741 -3.2266e-06)
(8.80004 0.724743 -3.11277e-06)
(8.80004 0.724744 -2.93761e-06)
(8.80004 0.724745 -2.68244e-06)
(8.80004 0.724747 -2.40021e-06)
(8.80004 0.724748 -2.04194e-06)
(8.80004 0.724749 -1.71971e-06)
(8.80004 0.72475 -1.27799e-06)
(8.80004 0.72475 -9.60878e-07)
(8.80004 0.724751 -4.744e-07)
(8.79992 0.724741 -5.83964e-08)
(8.83081 0.484137 7.82351e-08)
(8.83092 0.484145 7.01961e-07)
(8.83092 0.484144 1.31014e-06)
(8.83092 0.484144 1.73897e-06)
(8.83092 0.484144 2.25004e-06)
(8.83092 0.484144 2.52902e-06)
(8.83092 0.484144 2.76406e-06)
(8.83092 0.484143 2.8537e-06)
(8.83092 0.484143 2.86611e-06)
(8.83092 0.484143 2.77767e-06)
(8.83092 0.484142 2.63007e-06)
(8.83092 0.484142 2.41474e-06)
(8.83092 0.484142 2.17163e-06)
(8.83092 0.484141 1.89244e-06)
(8.83092 0.484141 1.63874e-06)
(8.83092 0.484141 1.32952e-06)
(8.83092 0.484141 1.14934e-06)
(8.83092 0.484141 8.09849e-07)
(8.83092 0.484141 5.56168e-07)
(8.8308 0.484133 2.88024e-07)
(8.78143 0.481456 -4.4778e-07)
(8.78155 0.481463 -1.14383e-06)
(8.78155 0.481463 -1.70626e-06)
(8.78155 0.481463 -2.31278e-06)
(8.78155 0.481463 -2.81385e-06)
(8.78155 0.481463 -3.23135e-06)
(8.78155 0.481462 -3.51434e-06)
(8.78154 0.481462 -3.70816e-06)
(8.78154 0.481462 -3.77849e-06)
(8.78154 0.481462 -3.75256e-06)
(8.78154 0.481461 -3.62381e-06)
(8.78154 0.481461 -3.41227e-06)
(8.78154 0.481461 -3.11723e-06)
(8.78154 0.481461 -2.78031e-06)
(8.78154 0.481461 -2.3768e-06)
(8.78154 0.481461 -1.97409e-06)
(8.78154 0.481461 -1.52917e-06)
(8.78154 0.481461 -1.09688e-06)
(8.78154 0.481461 -5.54165e-07)
(8.78143 0.481453 -1.37464e-07)
(8.80001 0.292029 1.06428e-07)
(8.80013 0.292034 6.10588e-07)
(8.80013 0.292034 1.15578e-06)
(8.80013 0.292034 1.56195e-06)
(8.80013 0.292035 1.91617e-06)
(8.80013 0.292035 2.17223e-06)
(8.80013 0.292036 2.36459e-06)
(8.80013 0.292037 2.45306e-06)
(8.80013 0.292037 2.47213e-06)
(8.80013 0.292038 2.40982e-06)
(8.80013 0.292038 2.29552e-06)
(8.80013 0.292039 2.12653e-06)
(8.80013 0.29204 1.93332e-06)
(8.80013 0.29204 1.70863e-06)
(8.80013 0.292041 1.49286e-06)
(8.80013 0.292041 1.25283e-06)
(8.80013 0.292041 1.03018e-06)
(8.80013 0.292041 7.75459e-07)
(8.80013 0.292042 5.75632e-07)
(8.80001 0.292037 2.6498e-07)
(8.75292 0.283536 -3.04377e-07)
(8.75304 0.28354 -7.90301e-07)
(8.75304 0.28354 -1.22938e-06)
(8.75304 0.283539 -1.64215e-06)
(8.75304 0.283538 -1.94166e-06)
(8.75304 0.283537 -2.22476e-06)
(8.75304 0.283536 -2.41275e-06)
(8.75304 0.283535 -2.54661e-06)
(8.75304 0.283534 -2.59429e-06)
(8.75304 0.283533 -2.5787e-06)
(8.75304 0.283531 -2.48787e-06)
(8.75304 0.28353 -2.34292e-06)
(8.75304 0.283529 -2.13402e-06)
(8.75304 0.283528 -1.89575e-06)
(8.75304 0.283527 -1.59897e-06)
(8.75304 0.283527 -1.30777e-06)
(8.75304 0.283526 -9.40844e-07)
(8.75304 0.283526 -6.36603e-07)
(8.75304 0.283525 -3.19935e-07)
(8.75292 0.283521 -6.9105e-08)
(8.76151 0.131576 -7.82115e-08)
(8.76163 0.131578 3.47013e-08)
(8.76163 0.131578 1.75327e-07)
(8.76163 0.131579 2.5564e-07)
(8.76163 0.131579 3.28103e-07)
(8.76163 0.131579 3.66551e-07)
(8.76163 0.131579 3.94388e-07)
(8.76163 0.13158 3.88835e-07)
(8.76163 0.13158 3.71921e-07)
(8.76163 0.131581 3.32981e-07)
(8.76163 0.131581 2.90781e-07)
(8.76163 0.131581 2.37271e-07)
(8.76163 0.131582 1.94462e-07)
(8.76163 0.131582 1.48044e-07)
(8.76163 0.131582 1.28897e-07)
(8.76163 0.131582 1.04256e-07)
(8.76163 0.131582 1.13504e-07)
(8.76163 0.131582 1.04921e-07)
(8.76163 0.131582 1.47883e-07)
(8.76151 0.13158 1.3147e-07)
(8.73995 0.117338 -2.25338e-07)
(8.74007 0.11734 -5.98688e-07)
(8.74007 0.117339 -9.29586e-07)
(8.74007 0.117339 -1.23495e-06)
(8.74007 0.117338 -1.45316e-06)
(8.74007 0.117337 -1.65997e-06)
(8.74007 0.117337 -1.79566e-06)
(8.74007 0.117336 -1.89358e-06)
(8.74007 0.117335 -1.92873e-06)
(8.74007 0.117334 -1.92029e-06)
(8.74007 0.117333 -1.85548e-06)
(8.74007 0.117332 -1.75331e-06)
(8.74007 0.117331 -1.59937e-06)
(8.74007 0.11733 -1.42519e-06)
(8.74007 0.117329 -1.20035e-06)
(8.74007 0.117329 -9.84975e-07)
(8.74007 0.117328 -7.05845e-07)
(8.74007 0.117328 -4.83784e-07)
(8.74007 0.117327 -2.32394e-07)
(8.73995 0.117325 -3.93023e-08)
(8.74441 -0.00964938 -2.10779e-07)
(8.74453 -0.00964963 -4.25029e-07)
(8.74453 -0.00964951 -6.12737e-07)
(8.74453 -0.00964927 -8.01075e-07)
(8.74453 -0.00964903 -9.45593e-07)
(8.74453 -0.00964873 -1.08387e-06)
(8.74453 -0.0096484 -1.18274e-06)
(8.74453 -0.00964805 -1.26619e-06)
(8.74453 -0.00964769 -1.31695e-06)
(8.74453 -0.00964733 -1.34917e-06)
(8.74453 -0.00964698 -1.35079e-06)
(8.74453 -0.00964667 -1.33486e-06)
(8.74453 -0.00964639 -1.28303e-06)
(8.74453 -0.00964616 -1.21506e-06)
(8.74453 -0.00964596 -1.09719e-06)
(8.74453 -0.00964582 -9.72374e-07)
(8.74453 -0.00964571 -7.74295e-07)
(8.74453 -0.00964568 -5.92106e-07)
(8.74453 -0.00964565 -3.09688e-07)
(8.74442 -0.0096453 -2.06706e-08)
(8.74936 -0.0311568 -2.0117e-07)
(8.74948 -0.0311579 -4.43462e-07)
(8.74948 -0.0311586 -6.46924e-07)
(8.74948 -0.0311596 -8.45948e-07)
(8.74948 -0.0311609 -9.90896e-07)
(8.74948 -0.0311624 -1.12699e-06)
(8.74948 -0.031164 -1.21745e-06)
(8.74948 -0.0311658 -1.28847e-06)
(8.74948 -0.0311677 -1.32172e-06)
(8.74948 -0.0311695 -1.33299e-06)
(8.74948 -0.0311714 -1.30854e-06)
(8.74948 -0.0311731 -1.26326e-06)
(8.74948 -0.0311747 -1.178e-06)
(8.74948 -0.0311762 -1.0777e-06)
(8.74948 -0.0311775 -9.29726e-07)
(8.74947 -0.0311786 -7.87001e-07)
(8.74947 -0.0311795 -5.85551e-07)
(8.74947 -0.0311802 -4.21177e-07)
(8.74947 -0.0311806 -1.83888e-07)
(8.74936 -0.03118 1.51413e-08)
(8.75419 -0.152333 -4.5024e-07)
(8.75431 -0.152336 -1.28083e-06)
(8.75431 -0.152336 -2.03591e-06)
(8.7543 -0.152335 -2.72661e-06)
(8.7543 -0.152335 -3.28611e-06)
(8.7543 -0.152335 -3.76825e-06)
(8.7543 -0.152334 -4.12061e-06)
(8.7543 -0.152334 -4.3672e-06)
(8.7543 -0.152333 -4.49131e-06)
(8.7543 -0.152333 -4.50887e-06)
(8.7543 -0.152333 -4.41556e-06)
(8.7543 -0.152332 -4.23097e-06)
(8.7543 -0.152332 -3.94826e-06)
(8.7543 -0.152332 -3.59885e-06)
(8.7543 -0.152331 -3.15917e-06)
(8.7543 -0.152331 -2.69246e-06)
(8.7543 -0.152331 -2.1185e-06)
(8.7543 -0.152331 -1.56786e-06)
(8.7543 -0.152331 -8.87201e-07)
(8.75418 -0.152328 -2.34499e-07)
(8.78651 -0.173204 -1.72117e-07)
(8.78662 -0.173207 -2.42939e-07)
(8.78662 -0.173208 -2.81242e-07)
(8.78662 -0.173208 -3.45593e-07)
(8.78662 -0.173209 -3.93134e-07)
(8.78662 -0.17321 -4.44601e-07)
(8.78662 -0.173211 -4.81774e-07)
(8.78662 -0.173213 -5.24579e-07)
(8.78663 -0.173214 -5.58767e-07)
(8.78663 -0.173215 -5.96953e-07)
(8.78663 -0.173217 -6.21905e-07)
(8.78663 -0.173218 -6.44032e-07)
(8.78663 -0.173219 -6.37102e-07)
(8.78663 -0.17322 -6.19774e-07)
(8.78663 -0.173221 -5.5442e-07)
(8.78662 -0.173222 -4.85201e-07)
(8.78662 -0.173222 -3.61283e-07)
(8.78662 -0.173223 -2.55969e-07)
(8.78662 -0.173223 -6.22335e-08)
(8.78651 -0.17322 9.56258e-08)
(8.78897 -0.314103 -6.33224e-07)
(8.78908 -0.314109 -1.89305e-06)
(8.78908 -0.314109 -3.05503e-06)
(8.78908 -0.314108 -4.10206e-06)
(8.78908 -0.314108 -4.9398e-06)
(8.78908 -0.314108 -5.67358e-06)
(8.78908 -0.314107 -6.2146e-06)
(8.78908 -0.314107 -6.58836e-06)
(8.78908 -0.314106 -6.77265e-06)
(8.78908 -0.314106 -6.7842e-06)
(8.78908 -0.314105 -6.62232e-06)
(8.78908 -0.314105 -6.31043e-06)
(8.78908 -0.314104 -5.85131e-06)
(8.78908 -0.314104 -5.28399e-06)
(8.78908 -0.314104 -4.59368e-06)
(8.78908 -0.314104 -3.8603e-06)
(8.78908 -0.314103 -2.98206e-06)
(8.78908 -0.314103 -2.15913e-06)
(8.78908 -0.314103 -1.22875e-06)
(8.78896 -0.314098 -3.59968e-07)
(8.84944 -0.327732 -1.2451e-07)
(8.84955 -0.327738 -1.43387e-08)
(8.84955 -0.327738 1.41616e-07)
(8.84955 -0.327739 2.13212e-07)
(8.84955 -0.327739 2.54021e-07)
(8.84955 -0.32774 2.8224e-07)
(8.84955 -0.327741 2.96083e-07)
(8.84955 -0.327741 2.75851e-07)
(8.84955 -0.327742 2.3926e-07)
(8.84955 -0.327743 1.72372e-07)
(8.84955 -0.327744 1.00382e-07)
(8.84955 -0.327744 1.38599e-08)
(8.84955 -0.327745 -5.09048e-08)
(8.84955 -0.327746 -1.09832e-07)
(8.84955 -0.327746 -1.20963e-07)
(8.84955 -0.327747 -1.2254e-07)
(8.84955 -0.327747 -8.82525e-08)
(8.84955 -0.327747 -4.91289e-08)
(8.84955 -0.327747 8.59823e-08)
(8.84943 -0.327741 1.61002e-07)
(8.84393 -0.51104 -7.4778e-07)
(8.84405 -0.511048 -2.24908e-06)
(8.84405 -0.511048 -3.66044e-06)
(8.84405 -0.511048 -4.92138e-06)
(8.84404 -0.511048 -5.89963e-06)
(8.84404 -0.511047 -6.79173e-06)
(8.84404 -0.511047 -7.44724e-06)
(8.84404 -0.511046 -7.90013e-06)
(8.84404 -0.511046 -8.11771e-06)
(8.84404 -0.511046 -8.12063e-06)
(8.84404 -0.511045 -7.90817e-06)
(8.84404 -0.511045 -7.51029e-06)
(8.84404 -0.511045 -6.93635e-06)
(8.84404 -0.511045 -6.2331e-06)
(8.84404 -0.511045 -5.39445e-06)
(8.84404 -0.511044 -4.51078e-06)
(8.84404 -0.511044 -3.43904e-06)
(8.84404 -0.511045 -2.47273e-06)
(8.84404 -0.511045 -1.42887e-06)
(8.84392 -0.511036 -4.37357e-07)
(8.92629 -0.513613 -7.14273e-08)
(8.92641 -0.513622 2.2303e-07)
(8.92641 -0.513622 5.90693e-07)
(8.92641 -0.513622 7.54061e-07)
(8.92641 -0.513623 8.26363e-07)
(8.92641 -0.513623 8.96502e-07)
(8.92641 -0.513623 9.42123e-07)
(8.92641 -0.513623 9.16612e-07)
(8.92641 -0.513623 8.59679e-07)
(8.92641 -0.513623 7.43093e-07)
(8.92641 -0.513624 6.09442e-07)
(8.92641 -0.513624 4.43152e-07)
(8.92641 -0.513624 2.97173e-07)
(8.92641 -0.513624 1.4722e-07)
(8.92641 -0.513624 5.41009e-08)
(8.92641 -0.513624 -3.42156e-08)
(8.92641 -0.513624 -1.24127e-07)
(8.92641 -0.513624 -1.55057e-07)
(8.92641 -0.513624 4.72345e-10)
(8.92629 -0.513616 1.21573e-07)
(8.90441 -0.75915 -7.67948e-07)
(8.90453 -0.759162 -2.29983e-06)
(8.90453 -0.759161 -3.57226e-06)
(8.90453 -0.759161 -4.9127e-06)
(8.90453 -0.759161 -6.12729e-06)
(8.90453 -0.759162 -7.09078e-06)
(8.90453 -0.759162 -7.8001e-06)
(8.90453 -0.759162 -8.28102e-06)
(8.90453 -0.759162 -8.49935e-06)
(8.90453 -0.759163 -8.48951e-06)
(8.90452 -0.759163 -8.24329e-06)
(8.90452 -0.759163 -7.8057e-06)
(8.90452 -0.759164 -7.18317e-06)
(8.90452 -0.759164 -6.44237e-06)
(8.90452 -0.759165 -5.58641e-06)
(8.90452 -0.759165 -4.69782e-06)
(8.90452 -0.759165 -3.78934e-06)
(8.90452 -0.759166 -2.8032e-06)
(8.90452 -0.759166 -1.53327e-06)
(8.90441 -0.759155 -4.8679e-07)
(8.9759 -0.746177 -9.92729e-08)
(8.97602 -0.746189 2.46782e-07)
(8.97602 -0.746188 3.45631e-07)
(8.97602 -0.746188 3.4561e-07)
(8.97602 -0.746187 5.67019e-07)
(8.97602 -0.746186 5.3969e-07)
(8.97602 -0.746186 5.65378e-07)
(8.97602 -0.746185 4.66452e-07)
(8.97602 -0.746184 3.62404e-07)
(8.97602 -0.746183 1.87882e-07)
(8.97602 -0.746182 1.38484e-08)
(8.97602 -0.746181 -1.94176e-07)
(8.97602 -0.74618 -3.55324e-07)
(8.97602 -0.746179 -5.26632e-07)
(8.97602 -0.746178 -5.67007e-07)
(8.97602 -0.746177 -6.49154e-07)
(8.97602 -0.746177 -4.63629e-07)
(8.97602 -0.746176 -4.88222e-07)
(8.97602 -0.746176 -4.26204e-07)
(8.9759 -0.746164 -1.97595e-08)
(8.92608 -1.07007 -5.87111e-07)
(8.9262 -1.07009 -1.69815e-06)
(8.9262 -1.07009 -2.91711e-06)
(8.9262 -1.07009 -4.1434e-06)
(8.9262 -1.07009 -5.01368e-06)
(8.9262 -1.07009 -5.82732e-06)
(8.9262 -1.0701 -6.35856e-06)
(8.9262 -1.0701 -6.74315e-06)
(8.9262 -1.0701 -6.88434e-06)
(8.9262 -1.0701 -6.85281e-06)
(8.9262 -1.0701 -6.61211e-06)
(8.9262 -1.07011 -6.22821e-06)
(8.9262 -1.07011 -5.67575e-06)
(8.92619 -1.07011 -5.05942e-06)
(8.92619 -1.07011 -4.31077e-06)
(8.92619 -1.07011 -3.61452e-06)
(8.92619 -1.07011 -2.7527e-06)
(8.92619 -1.07011 -2.09614e-06)
(8.92619 -1.07012 -1.24258e-06)
(8.92608 -1.0701 -3.4071e-07)
(8.87747 -1.02899 1.21261e-06)
(8.87757 -1.02901 -5.57505e-08)
(8.87756 -1.029 -7.21428e-07)
(8.87756 -1.029 -1.66874e-06)
(8.87756 -1.029 -1.99368e-06)
(8.87756 -1.029 -2.47836e-06)
(8.87756 -1.029 -2.74957e-06)
(8.87756 -1.02899 -3.05146e-06)
(8.87756 -1.02899 -3.23458e-06)
(8.87756 -1.02899 -3.38713e-06)
(8.87756 -1.02899 -3.43608e-06)
(8.87756 -1.02899 -3.44053e-06)
(8.87756 -1.02898 -3.32572e-06)
(8.87756 -1.02898 -3.18711e-06)
(8.87756 -1.02898 -2.87761e-06)
(8.87756 -1.02898 -2.65427e-06)
(8.87756 -1.02898 -2.14632e-06)
(8.87756 -1.02898 -2.14327e-06)
(8.87757 -1.02898 -1.78234e-06)
(8.87747 -1.02897 -1.88663e-06)
(8.83266 0.730528 3.37583e-07)
(8.83278 0.730538 -5.95089e-07)
(8.83277 0.730538 8.66252e-08)
(8.83277 0.730537 -8.29441e-09)
(8.83277 0.730535 2.16531e-07)
(8.83277 0.730534 1.93367e-07)
(8.83277 0.730532 2.57187e-07)
(8.83277 0.730531 2.30258e-07)
(8.83277 0.730529 2.25337e-07)
(8.83277 0.730527 1.83812e-07)
(8.83277 0.730526 1.55202e-07)
(8.83277 0.730524 1.0697e-07)
(8.83277 0.730523 8.6016e-08)
(8.83277 0.730521 3.90866e-08)
(8.83277 0.73052 6.50442e-08)
(8.83277 0.730519 -3.41075e-09)
(8.83277 0.730518 1.49662e-07)
(8.83277 0.730518 -1.9466e-08)
(8.83277 0.730517 5.83173e-07)
(8.83266 0.730506 -4.01527e-07)
(8.74472 0.737221 -7.34139e-07)
(8.74483 0.737232 -1.13594e-06)
(8.74483 0.737232 -1.37248e-06)
(8.74483 0.737233 -1.81264e-06)
(8.74483 0.737234 -2.07457e-06)
(8.74483 0.737235 -2.39653e-06)
(8.74483 0.737236 -2.58454e-06)
(8.74483 0.737237 -2.74745e-06)
(8.74483 0.737238 -2.80596e-06)
(8.74483 0.73724 -2.81137e-06)
(8.74483 0.737241 -2.73237e-06)
(8.74483 0.737242 -2.60475e-06)
(8.74483 0.737243 -2.4016e-06)
(8.74483 0.737244 -2.17825e-06)
(8.74483 0.737245 -1.87183e-06)
(8.74483 0.737246 -1.60229e-06)
(8.74483 0.737247 -1.18496e-06)
(8.74483 0.737247 -8.68213e-07)
(8.74483 0.737248 -2.81277e-07)
(8.74471 0.737238 2.14322e-07)
(8.77648 0.487872 -1.88178e-07)
(8.7766 0.487879 4.46196e-07)
(8.7766 0.487879 1.0233e-06)
(8.7766 0.487879 1.41064e-06)
(8.7766 0.487879 1.91561e-06)
(8.7766 0.487878 2.17151e-06)
(8.7766 0.487878 2.40276e-06)
(8.7766 0.487878 2.49947e-06)
(8.7766 0.487878 2.53397e-06)
(8.7766 0.487877 2.47804e-06)
(8.7766 0.487877 2.37742e-06)
(8.7766 0.487877 2.21215e-06)
(8.7766 0.487876 2.02682e-06)
(8.7766 0.487876 1.80751e-06)
(8.7766 0.487876 1.61713e-06)
(8.7766 0.487876 1.36055e-06)
(8.77659 0.487876 1.25857e-06)
(8.77659 0.487876 9.5548e-07)
(8.77659 0.487876 7.409e-07)
(8.77648 0.487869 5.34229e-07)
(8.70993 0.486281 -5.03706e-07)
(8.71004 0.486288 -1.06186e-06)
(8.71004 0.486288 -1.48079e-06)
(8.71004 0.486288 -1.99266e-06)
(8.71004 0.486287 -2.42546e-06)
(8.71004 0.486287 -2.79172e-06)
(8.71004 0.486287 -3.04288e-06)
(8.71004 0.486287 -3.22414e-06)
(8.71004 0.486287 -3.29796e-06)
(8.71004 0.486287 -3.29146e-06)
(8.71004 0.486287 -3.19447e-06)
(8.71004 0.486287 -3.02519e-06)
(8.71004 0.486286 -2.77844e-06)
(8.71004 0.486286 -2.49934e-06)
(8.71004 0.486286 -2.15022e-06)
(8.71004 0.486286 -1.79833e-06)
(8.71004 0.486286 -1.3941e-06)
(8.71004 0.486286 -9.83897e-07)
(8.71004 0.486286 -4.33737e-07)
(8.70993 0.486279 -1.74401e-08)
(8.72891 0.292863 -2.23924e-08)
(8.72903 0.292867 4.80701e-07)
(8.72903 0.292868 1.01147e-06)
(8.72903 0.292868 1.39108e-06)
(8.72903 0.292869 1.72924e-06)
(8.72903 0.292869 1.96945e-06)
(8.72903 0.292869 2.15484e-06)
(8.72903 0.29287 2.24322e-06)
(8.72903 0.292871 2.27208e-06)
(8.72902 0.292871 2.2279e-06)
(8.72902 0.292872 2.14074e-06)
(8.72902 0.292872 2.0035e-06)
(8.72902 0.292873 1.84828e-06)
(8.72902 0.292873 1.66142e-06)
(8.72902 0.292873 1.48678e-06)
(8.72902 0.292874 1.28349e-06)
(8.72902 0.292874 1.10436e-06)
(8.72902 0.292874 8.7158e-07)
(8.72902 0.292874 6.99793e-07)
(8.72891 0.29287 4.01268e-07)
(8.68564 0.284943 -3.398e-07)
(8.68575 0.284947 -7.46486e-07)
(8.68575 0.284946 -1.1005e-06)
(8.68575 0.284945 -1.45936e-06)
(8.68575 0.284945 -1.70735e-06)
(8.68575 0.284944 -1.95834e-06)