/*--------------------------------*- C++ -*----------------------------------*\
| =========                 |                                                 |
| \\      /  F ield         | OpenFOAM: The Open Source CFD Toolbox           |
|  \\    /   O peration     | Version:  2212                                  |
|   \\  /    A nd           | Website:  www.openfoam.com                      |
|    \\/     M anipulation  |                                                 |
\*---------------------------------------------------------------------------*/
FoamFile
{
    version     2.0;
    format      ascii;
    arch        "LSB;label=32;scalar=64";
    class       volScalarField;
    location    "9.3e-05";
    object      T;
}
// * * * * * * * * * * * * * * * * * * * * * * * * * * * * * * * * * * * * * //

dimensions      [0 0 0 1 0 0 0];

internalField   nonuniform List<scalar> 
37872
(
58.8381
59.0164
59.2321
59.298
59.622
59.2479
59.5525
59.15
59.1023
59.1121
59.1869
59.1424
59.1795
59.0575
58.9307
58.826
58.9058
59.0997
59.2822
59.4495
59.4853
59.4085
59.3179
59.1104
59.2575
59.3054
59.2723
59.1933
59.1646
59.1489
59.045
59.1119
59.3811
59.1123
59.1754
59.4518
59.147
59.0172
58.9572
58.895
58.9585
58.9375
59.5539
60.8482
65.3353
71.9231
74.4554
63.5651
63.8484
63.9635
63.9034
63.9272
63.9288
63.8172
63.7599
63.7809
63.7245
63.8064
63.8862
63.8951
63.7429
63.5499
63.6497
63.7403
63.6816
63.986
64.0006
63.7345
64.0092
63.9019
63.7765
63.8667
63.9674
63.9323
63.6774
63.8797
63.8713
63.6532
63.6247
63.686
63.7731
63.7366
63.6446
63.5858
63.4694
63.5654
63.5813
63.4114
63.5409
64.0268
65.8143
70.9153
77.9014
79.9593
61.1804
61.503
61.3815
61.3699
61.1853
61.3621
61.11
61.1818
61.268
61.2229
61.2929
61.4392
61.3648
61.2202
61.1745
61.4138
61.4382
61.2365
61.5429
61.2396
61.1795
61.3136
61.3242
61.4386
61.4676
61.5161
61.473
61.2498
61.3625
61.3943
61.3238
61.1832
61.1317
61.3819
61.2742
61.0906
61.1352
61.0567
61.1595
61.2778
61.0373
61.2324
61.5725
63.6627
68.923
76.1724
79.4769
61.2305
61.3532
61.1521
61.3276
61.1404
61.1123
61.0803
61.1623
61.1867
61.2612
61.3217
61.2049
61.1209
61.1356
61.2366
61.3371
61.169
61.2365
61.2561
61.0207
61.2495
61.0539
61.1241
61.2387
61.347
61.1593
61.1267
61.2936
61.1173
61.1739
61.2548
61.1537
61.1581
61.201
61.1505
61.0856
61.1645
61.0308
61.0743
61.1444
61.0829
61.0832
61.4777
63.5432
69.3299
76.8576
80.6737
60.9846
60.846
60.8129
60.9627
60.7942
60.7064
60.7633
60.8609
60.8425
61.0115
61.0198
60.8334
60.7825
60.792
60.9354
60.7458
60.8034
61.0035
60.8199
60.7239
60.8939
60.7904
60.8391
60.8067
60.8002
60.7381
60.7514
60.9072
60.8524
60.8586
60.8632
60.924
60.8222
60.7078
60.7437
60.7883
60.9182
60.7645
60.7096
60.7183
60.8444
60.7059
61.2029
63.4973
69.2088
76.8051
81.1068
61.0113
60.8714
60.8422
60.9276
60.766
60.7139
60.7929
60.9186
60.8375
61.0247
61.0109
60.8448
60.7958
60.7821
60.8899
60.6876
60.8488
61.0856
60.8333
60.731
60.8239
60.8845
60.8779
60.8095
60.7215
60.786
60.8136
60.8427
60.868
60.8183
60.8406
60.9027
60.7667
60.6727
60.7231
60.7509
60.9394
60.718
60.6644
60.6902
60.8517
60.706
61.2183
63.5374
69.1997
77.0721
81.0045
61.2472
60.9253
60.8332
60.8617
60.7277
60.7351
60.938
61.1492
60.845
60.7369
60.678
60.7948
60.7653
60.752
60.6732
60.6829
60.8427
61.0525
60.8254
60.7313
60.7414
60.9734
60.9528
60.8449
60.7503
60.8883
60.9162
60.7941
60.7338
60.7742
60.8205
60.8051
60.7171
60.6768
60.7022
60.6814
60.789
60.6258
60.6102
60.6597
60.5842
60.7179
61.2139
63.5334
69.124
77.0542
80.7711
61.2537
60.9254
60.8173
60.7452
60.7244
60.8347
60.8969
61.1135
60.8812
60.7263
60.6114
60.7888
60.7526
60.7404
60.6807
60.6746
60.81
60.8136
60.8811
60.8401
60.737
60.8856
60.9293
60.9666
60.8127
60.8977
60.9051
60.7728
60.7153
60.7926
60.8592
60.7503
60.7255
60.692
60.7147
60.5793
60.5159
60.6162
60.5971
60.612
60.5673
60.7386
61.1976
63.5896
69.1432
76.9305
80.6636
61.0546
60.7778
60.6829
60.6331
60.6943
60.8215
60.7069
60.9736
60.848
60.7577
60.6525
60.7998
60.7126
60.6847
60.7237
60.7957
60.7873
60.8147
61.1315
60.9275
60.7332
60.7203
60.8609
60.9502
60.8037
60.7418
60.7194
60.7364
60.7088
60.8856
60.9874
60.7728
60.7172
60.6653
60.702
60.5714
60.4288
60.641
60.5991
60.5543
60.5826
60.6719
61.2337
63.5606
69.1668
76.9044
80.6527
60.6786
60.7282
60.6839
60.6395
60.6195
60.7908
60.7287
60.6279
60.8391
60.7427
60.7917
60.9763
60.723
60.6918
60.7198
60.9985
60.8369
60.948
61.108
60.8187
60.7757
60.7698
60.8778
60.7755
60.7492
60.6626
60.7292
60.7331
60.8445
60.997
60.9879
60.7872
60.6751
60.6519
60.6452
60.5938
60.5951
60.6923
60.6239
60.5574
60.5657
60.6626
61.2565
63.464
69.1777
77.0679
80.7135
60.7051
60.7356
60.6894
60.636
60.6319
60.7042
60.7437
60.6484
60.8157
60.6974
60.9038
61.0162
60.7204
60.7106
60.7193
60.9942
60.8911
60.9568
61.0454
60.7544
60.7938
60.7719
60.8646
60.7544
60.7411
60.744
60.7398
60.752
60.8729
60.914
60.8747
60.755
60.637
60.6587
60.6196
60.6366
60.6501
60.9655
60.9014
60.6613
60.5736
60.6693
61.2481
63.4669
69.3105
77.0528
80.7354
60.7604
60.7793
60.637
60.5775
60.6484
60.696
60.6976
60.7099
60.7225
60.702
60.7705
60.7438
60.702
60.7104
60.7282
60.8983
60.8416
60.9423
60.9249
60.8137
60.7403
60.7478
60.8249
60.7786
60.7379
60.8332
60.7047
60.7542
60.8003
60.894
60.8808
60.6607
60.654
60.704
60.6643
60.6399
60.6031
60.9494
60.9179
60.7012
60.5954
60.6671
61.2832
63.5161
69.3866
76.884
80.6821
60.7595
60.9696
60.632
60.5272
60.6871
60.7039
60.6727
60.6983
60.7279
60.7194
60.5907
60.6262
60.6889
60.7127
60.7441
60.8205
60.8326
60.8097
60.5742
60.8132
60.7363
60.7361
60.7829
61.0061
60.8666
60.7796
60.692
60.7753
60.8278
60.8999
60.9032
60.6938
60.7255
60.7759
60.7389
60.5503
60.581
60.7292
60.8614
60.6304
60.5962
60.6749
61.3286
63.5355
69.3794
76.8575
80.6162
60.7605
60.948
60.634
60.5406
60.919
60.8624
60.7041
60.6476
60.7313
60.8484
60.6171
60.6992
60.692
60.6981
60.7451
60.817
60.8488
60.6717
60.5745
60.7702
60.74
60.7323
60.7989
61.0704
61.0731
60.7748
60.6913
60.8494
60.8638
60.8855
60.8996
60.767
60.7283
60.7154
60.7256
60.5412
60.574
60.6049
60.7266
60.6273
60.5951
60.6997
61.3716
63.4351
69.404
76.946
80.5271
60.8096
60.8968
60.6226
60.5549
60.8937
60.9706
60.7126
60.6456
60.7363
60.8931
60.6605
60.6934
60.692
60.6741
60.7081
60.7862
60.9593
60.7349
60.6898
60.6732
60.737
60.7519
60.8623
60.9914
60.9985
60.8272
60.7602
60.8291
60.8464
60.8725
60.8745
60.7608
60.6935
60.6644
60.6534
60.5552
60.6075
60.6366
60.6317
60.6465
60.607
60.7048
61.3984
63.3791
69.4432
77.1081
80.4632
60.9758
60.7002
60.5871
60.5648
60.7872
60.8214
60.7155
60.6542
60.8586
60.7814
60.7155
60.6647
60.6805
60.6871
60.6986
60.7725
61.0081
60.8351
60.6941
60.6782
60.7352
60.7611
60.9331
60.9891
60.975
60.8477
60.8367
60.7862
60.8432
60.8503
60.7532
60.7435
60.6923
60.6913
60.6591
60.6168
60.7244
60.6368
60.6041
60.6443
60.6147
60.699
61.4167
63.392
69.4585
77.0235
80.379
60.9504
60.4938
60.5888
60.5906
60.8098
60.7654
60.7225
60.6639
60.9544
60.7674
60.7529
60.6587
60.6741
60.7201
60.7084
60.7675
60.9113
60.8211
60.6533
60.6776
60.7234
60.7654
60.9473
60.9919
60.9802
60.8431
60.8191
60.8013
60.8477
60.8271
60.6891
60.6856
60.7025
60.6844
60.6912
60.8073
60.7149
60.6357
60.634
60.6374
60.6121
60.7016
61.482
63.5666
69.47
76.8444
80.3354
60.8247
60.5299
60.6106
60.6426
60.8094
60.7951
60.8237
60.7107
60.8879
60.786
60.7341
60.6454
60.6742
61.0353
60.8574
60.7836
60.8936
60.7512
60.6371
60.6547
60.6937
60.7682
60.922
60.9797
60.9272
60.8358
60.7996
60.8064
60.8506
60.8141
60.6973
60.6714
60.7019
60.6481
60.6875
60.7806
60.71
60.6309
60.7267
60.5868
60.6009
60.7181
61.5626
63.6015
69.4881
76.8169
80.3647
60.4875
60.5584
60.7872
60.7918
60.7681
60.7906
61.1422
61.088
60.8901
60.8186
60.7211
60.6362
60.6902
61.0414
61.0348
61.0895
60.9997
60.7506
60.6448
60.656
60.6902
60.7894
60.7864
60.9438
60.8356
60.8349
60.8032
60.8046
60.8506
60.7465
60.6959
60.6857
60.6998
60.6474
60.6472
60.7122
60.7822
60.6312
60.7119
60.543
60.6085
60.851
61.5324
63.5386
69.5065
76.8476
80.3182
60.5275
60.572
60.9692
61.1035
60.7694
60.7967
61.0883
61.0682
61.08
60.949
60.7272
60.6392
60.7144
60.916
60.9633
61.1199
61.1087
60.7632
60.6444
60.6592
60.7218
60.899
60.78
60.8066
60.8568
60.7783
60.7613
60.8096
60.8445
60.7147
60.6692
60.6862
60.6681
60.6486
60.6362
60.7219
60.8667
60.6483
60.6697
60.5563
60.613
60.8333
61.4733
63.6022
69.5312
76.8503
79.9936
60.5313
60.5855
60.9139
61.0465
60.7752
60.8111
61.0643
61.0458
61.1448
60.9347
60.7403
60.6429
60.7459
60.8887
60.9787
61.0825
61.0856
60.7631
60.6429
60.8431
60.9728
61.0729
60.7786
60.8023
60.8426
60.7484
60.7213
60.8071
60.8148
60.7343
60.6436
60.6707
60.6601
60.6765
60.6432
60.7218
60.8011
60.9091
60.6813
60.6384
60.6058
60.7265
61.44
63.6912
69.5885
76.7835
79.9119
60.527
60.594
60.8439
60.9996
60.7903
60.8679
61.0753
61.0655
61.1176
60.9033
60.7385
60.6777
60.9874
60.8845
61.005
61.095
61.0083
60.7585
60.6509
61.1646
61.1681
61.0418
60.8835
60.812
60.8249
60.7595
60.7333
60.746
60.7807
60.7554
60.657
60.6594
60.6403
60.683
60.6497
60.7979
60.7675
60.9424
60.7522
60.7018
60.6072
60.7244
61.3852
63.8181
69.6455
76.7079
80.0023
60.5158
60.6001
60.8298
61.0254
60.8361
60.9961
61.101
61.1299
61.1247
60.9092
60.7442
60.6926
61.3045
60.8957
61.028
61.0885
60.9432
60.748
60.6926
61.149
61.1387
61.0447
61.0852
60.96
60.8488
60.8124
60.881
60.7402
60.7886
60.9405
60.6766
60.6159
60.5867
60.6771
60.674
61.0355
60.7888
60.9361
60.8325
60.6654
60.6303
60.7313
61.3732
64.0158
69.8702
76.6773
79.8555
60.686
60.6479
60.8064
61.0513
61.0976
61.0462
61.2024
61.2138
61.1229
60.9113
60.7558
60.7608
61.2583
60.9096
61.0309
61.0861
60.94
60.7374
60.7887
61.1595
61.2075
61.1288
61.0276
61.0434
61.0194
61.0423
60.9744
60.7342
60.7874
60.9555
60.686
60.599
60.5812
60.6528
60.6761
61.0086
60.847
60.9485
60.8188
60.6537
60.8456
60.7363
61.4978
64.0135
69.955
76.7791
79.6684
60.7855
60.9824
60.8096
61.0935
61.3046
61.111
61.2473
61.3603
61.1054
60.916
60.7731
60.8432
61.2431
60.9599
61.0601
61.0847
60.9434
60.7719
60.8947
61.1535
61.3886
61.1716
61.0311
60.9969
61.0241
61.0207
60.8879
60.7326
60.7514
60.7754
60.6714
60.6134
60.5882
60.6084
60.6837
61.0205
61.0671
60.9556
60.7975
60.6727
60.9628
60.7788
61.4885
63.9995
69.9019
76.8727
79.6452
60.7666
61.0226
60.819
61.1019
61.295
61.2104
61.2655
61.3651
61.0956
60.9295
60.8336
60.9384
61.2613
61.0591
61.1576
61.1574
60.9709
60.8494
61.2713
61.1663
61.383
61.1905
61.0519
60.9961
60.9351
60.9347
60.863
60.7605
60.7506
60.7471
60.6594
60.6642
60.6691
60.5973
60.686
61.0032
61.0694
60.9542
60.7878
60.6791
60.9059
61.0539
61.4863
64.0388
69.9023
76.725
79.6581
60.7713
61.0196
60.8733
61.1068
61.296
61.2353
61.2687
61.3847
61.113
60.9154
60.894
60.9777
61.2656
61.107
61.2135
61.2583
61.0195
60.9265
61.34
61.2038
61.3996
61.2328
61.1347
61.0004
60.9364
60.9379
60.8741
61.0497
60.7507
60.7891
60.6653
60.9678
60.8961
60.6006
60.6691
60.9641
61.0814
60.9423
60.784
60.7174
60.9182
61.2145
61.5648
64.0459
69.9152
76.6689
79.6866
60.7931
61.0376
60.9573
61.1125
61.2829
61.2691
61.2563
61.3371
61.104
60.9206
60.9935
61.0167
61.3515
61.1394
61.2721
61.3415
61.0421
61.0097
61.3251
61.2462
61.4089
61.259
61.2843
61.064
60.9389
60.9425
60.9014
61.1258
60.745
60.8031
60.6725
60.9637
60.8556
60.6015
60.7034
60.86
61.107
60.9437
60.7829
60.7909
60.9487
61.2499
61.5854
64.0293
69.9228
76.6519
79.8276
60.815
61.0775
61.0009
61.1275
61.2744
61.4825
61.2469
61.2874
61.1395
60.9859
61.0771
61.2871
61.4016
61.1591
61.3869
61.3727
61.1027
61.1655
61.3231
61.3199
61.4236
61.3576
61.3138
61.0721
60.9332
60.9397
60.9503
61.1021
60.7772
60.8083
60.6932
60.9045
60.8188
60.6289
60.7851
60.8143
61.1008
60.9426
60.8236
60.8781
61.014
61.2574
61.6118
64.0276
69.9284
76.6585
79.8738
60.8637
61.2387
61.0673
61.1341
61.2758
61.7134
61.2691
61.2555
61.3291
61.4214
61.6955
61.8851
61.4125
61.3127
61.4707
61.416
61.3746
61.2293
61.3352
61.6559
61.4502
61.4784
61.3521
61.0605
60.9569
60.9554
61.0115
61.1399
60.8631
60.809
60.7074
60.907
60.8531
60.6988
60.875
60.8077
61.0625
60.9477
60.8718
61.0183
61.4103
61.2678
61.654
64.1429
69.9385
76.6662
79.7089
60.9127
61.4387
61.4697
61.1477
61.546
61.6793
61.3609
61.2586
61.3255
61.4769
61.8375
61.8946
61.4299
61.383
61.6646
61.4474
61.4743
61.359
61.4525
61.6371
61.5357
61.4779
61.3471
61.0643
61.0671
61.0168
61.0989
61.1585
61.0969
60.8306
60.7556
60.9009
60.8947
60.8087
60.9533
60.806
61.0181
60.9472
60.9146
61.4438
61.5173
61.286
61.6953
64.3507
69.9484
76.6645
79.6366
60.9545
61.3893
61.6765
61.3017
61.7873
61.6957
61.3988
61.3463
61.326
61.4707
61.8253
61.8917
61.4804
61.7146
61.8358
61.426
61.4227
61.4922
61.5504
61.638
61.6214
61.4972
61.3442
61.0821
61.2524
61.1162
61.1724
61.1836
61.3979
60.8532
60.8281
60.9102
60.9704
60.9351
61.0638
60.8236
61.0333
60.9734
60.9992
61.5427
61.4924
61.3385
61.7449
64.3248
69.9735
76.6514
79.5974
61.008
61.4137
61.6662
61.9055
61.8207
61.697
61.522
61.4368
61.3505
61.4937
61.869
61.9552
61.679
61.9681
61.9132
61.4082
61.4391
61.5472
61.623
61.6884
61.5956
61.5109
61.342
61.1178
61.231
61.1692
61.2314
61.2072
61.3739
60.8941
60.9394
60.9656
61.0604
61.0505
61.1572
60.8896
61.0422
61.0479
61.1843
61.5855
61.4968
61.3564
61.8346
64.3223
70.0048
76.6448
79.564
61.1762
61.4384
61.6812
62.0891
61.8411
61.6915
61.8269
61.74
61.3662
61.5262
61.9481
62.138
62.0116
62.0585
61.8718
61.435
61.4639
61.6418
61.912
61.7035
61.5855
61.5476
61.3434
61.1729
61.2222
61.3623
61.464
61.3196
61.3596
60.9454
61.0506
61.0452
61.1271
61.2091
61.2593
60.9864
61.0304
61.2296
61.2666
61.591
61.4873
61.3544
61.8811
64.3287
70.0401
76.6381
79.5438
61.2548
61.4844
61.7605
62.0687
61.8511
61.7
61.8693
61.7532
61.3741
61.625
62.0566
62.2044
62.1858
62.1055
61.8382
61.5632
61.5223
61.681
62.0499
61.6889
61.5976
61.6152
61.3898
61.1977
61.2145
61.5133
61.7259
61.6628
61.3351
61.0142
61.1678
61.1752
61.1974
61.8386
61.4751
61.1054
61.0433
61.3011
61.3359
61.5622
61.4556
61.3465
61.8996
64.3553
70.0919
76.6268
79.5497
61.3915
61.553
61.8242
62.1205
61.8499
61.7254
61.8362
61.7369
61.3784
61.801
62.2093
62.2654
62.2596
62.1814
61.8723
61.7301
61.5949
61.893
62.0761
61.6857
61.6005
61.6185
61.3747
61.264
61.2121
61.5201
61.7837
61.6839
61.4027
61.0909
61.569
61.2316
61.3203
61.9176
61.9102
61.2521
61.0858
61.3604
61.3643
61.4867
61.4039
61.347
61.9017
64.3933
70.1513
76.6295
79.5658
61.5865
61.5872
61.9244
62.1262
61.9045
61.8271
61.8219
61.8047
61.5246
61.8642
62.2583
62.2932
62.2932
62.1427
61.9095
61.7961
61.7374
62.3519
62.1183
61.7911
61.6034
61.5622
61.3479
61.329
61.2328
61.5534
61.78
61.659
61.4272
61.1512
61.7724
61.3555
61.462
61.8774
61.9089
61.4561
61.3136
61.4791
61.3732
61.4827
61.4037
61.369
61.91
64.4267
70.1995
76.6779
79.5909
61.8138
61.6594
61.9933
62.1327
62.0784
62.006
61.8137
61.8362
61.8067
61.9165
62.3198
62.2901
62.293
62.1093
61.9564
61.8662
61.9064
62.3215
62.1834
61.9126
61.6142
61.542
61.5309
61.5657
61.3448
61.6211
61.7677
61.6386
61.4438
61.266
61.7322
61.6583
61.5578
61.8813
61.9168
61.6394
61.4963
61.5737
61.4287
61.4827
61.4114
61.4029
61.9482
64.4916
70.2768
77.0996
79.6452
62.2571
62.1537
62.0458
62.3218
62.0913
62.0386
61.8926
61.853
62.0222
61.9829
62.3076
62.291
62.2858
62.1226
62.0227
61.8966
61.9934
62.3478
62.2309
61.9114
61.6358
61.5288
62.0206
61.9192
61.4588
61.6691
61.7405
61.6305
61.5218
61.3866
61.7996
61.7276
61.6574
61.8914
61.9578
61.7047
61.5737
61.6122
61.4969
61.5227
61.4017
61.4406
62.0419
64.5775
70.3672
77.3306
79.9298
62.9985
62.6689
62.1309
62.5709
62.1367
62.0561
61.954
61.863
62.1826
62.0682
62.4003
62.334
62.3444
62.3982
62.3155
61.9238
62.0281
62.4248
62.2448
61.8882
61.6973
61.5992
61.9692
61.9088
61.5909
61.6813
61.7442
61.692
61.59
61.4913
61.824
61.8096
61.742
62.0025
62.004
61.7608
61.6195
61.685
61.5709
61.5395
61.3966
61.5307
62.1789
64.6541
70.4949
77.2044
80.0851
63.1057
62.7173
62.7271
62.7881
62.425
62.1936
62.0919
61.8559
62.3158
62.4287
62.49
62.4702
62.5923
62.7003
62.6797
61.981
62.0504
62.4414
62.2371
61.8735
61.7546
61.7524
61.9607
61.9506
61.7457
61.7191
61.7563
61.7398
61.6479
61.6123
61.8426
61.8343
61.781
62.2508
62.009
61.7797
61.6706
61.7623
61.6688
61.5674
61.3926
61.6248
62.2993
64.7855
70.8479
77.1456
79.9548
63.0811
62.8046
62.9951
62.733
62.5033
62.2499
62.1785
62.0916
62.6043
62.6042
62.5174
62.5938
62.5809
62.6993
62.6001
62.0457
62.1949
62.4429
62.2172
61.8637
61.7841
61.8543
62.0165
62.0334
61.9086
61.8214
61.7614
61.7803
61.7273
61.7635
61.8474
61.8604
61.7946
62.2819
62.0116
61.7813
61.6832
62.0772
61.7509
61.6084
61.4061
61.7072
62.6403
65.1886
70.9722
77.1222
79.8898
63.1394
63.1081
63.0538
62.7288
62.629
62.3245
62.2065
62.3456
62.9156
62.6745
62.5645
62.6157
62.6031
62.7472
62.5913
62.1788
62.3013
62.4282
62.2176
61.9287
61.8255
61.8691
62.1037
62.0691
62.0764
61.9624
61.7924
61.8215
62.0304
61.9327
61.8437
61.8758
62.0101
62.2942
62.0216
61.7777
61.6946
62.1758
61.8015
61.6347
61.4306
61.83
63.1165
65.3366
71.0075
77.1723
79.8459
63.5305
63.4659
63.1355
62.9172
62.6993
62.3794
62.22
62.4305
62.8848
62.7482
62.693
62.655
62.6516
62.8443
62.6199
62.3057
62.4206
62.4142
62.2008
61.9735
61.8708
61.9176
62.1399
62.1145
62.1401
62.0397
61.7889
61.8363
62.4663
62.0517
61.8536
61.8861
62.2575
62.2638
62.0135
61.7927
61.7428
62.1342
61.8546
61.6487
61.4952
62.2359
63.1609
65.4034
71.101
77.2649
79.8401
63.6268
63.4907
63.2374
63.0498
62.7424
62.4255
62.261
62.5165
62.9241
62.8744
62.7746
62.6538
62.6808
62.8735
62.6583
62.4232
62.5857
62.4068
62.1828
62.0624
62.0232
62.0339
62.1472
62.1384
62.1824
62.0764
61.8438
61.8679
62.4109
62.2424
62.118
62.1699
62.4839
62.2947
62.0259
61.8563
61.8139
62.1436
62.0182
61.6983
61.7311
62.3758
63.1725
65.3983
71.1388
77.2837
79.853
63.6949
63.5277
63.2949
63.1037
62.7674
62.4978
62.3287
62.5943
62.9207
63.1602
62.8385
62.6657
62.7234
62.874
62.6621
62.6062
62.807
62.4001
62.1873
62.114
62.1593
62.2291
62.145
62.2213
62.2575
62.2499
61.9421
61.9652
62.4022
62.4001
62.2577
62.413
62.5563
62.3162
62.0016
62.0573
61.9113
62.1506
62.4503
62.0283
61.8528
62.4907
63.1285
65.3746
71.1472
77.2517
79.8896
63.7184
63.5389
63.3748
63.0827
62.8178
62.563
62.5588
62.646
62.9203
63.383
62.9045
62.67
62.7842
62.8598
62.6921
62.8299
62.8667
62.4251
62.2141
62.1734
62.215
62.3241
62.1726
62.3651
62.3982
62.3042
62.1278
62.0943
62.4293
62.4145
62.418
62.5436
62.6357
62.3051
61.9953
62.1898
62.16
62.1857
62.4255
62.3209
61.9504
62.577
63.0968
65.3472
71.1249
77.2336
79.9702
63.4963
63.4993
63.3828
62.9782
62.8594
62.7154
62.7992
62.91
63.0157
63.3713
62.9594
62.7294
62.8175
62.838
62.8646
63.3064
62.8671
62.4915
62.2603
62.2659
62.2679
62.4115
62.3722
62.464
62.5891
62.388
62.2406
62.2785
62.5243
62.4903
62.5075
62.6112
62.738
62.2934
62.053
62.2539
62.3859
62.2383
62.4226
62.2819
62.082
62.5912
63.093
65.3376
71.1235
77.2427
80.105
63.4233
63.4011
63.3438
62.97
62.8554
62.8197
62.9307
63.0803
63.1216
63.3813
63.2404
62.8915
62.8412
62.8265
63.0403
63.4274
62.8665
62.4957
62.3102
62.4058
62.439
62.4872
62.4634
62.5256
62.6622
62.4764
62.3303
62.4071
62.8145
62.742
62.5542
62.6246
62.8073
62.2986
62.2315
62.3224
62.4942
62.2679
62.4589
62.2614
62.1272
62.5842
63.1911
65.3779
71.3939
77.39
80.5693
63.4141
63.379
63.2871
62.9724
62.9312
62.8696
62.9801
63.1727
63.1969
63.362
63.3667
63.0357
62.8795
62.9851
63.2703
63.4144
62.9421
62.4716
62.371
62.562
63.0858
62.6899
62.5299
62.5696
62.8692
62.6625
62.3832
62.4871
62.8673
62.8789
62.7014
62.6951
62.7585
62.3497
62.78
62.4493
62.5754
62.3454
62.5007
62.2763
62.1582
62.5944
63.4044
65.7726
71.8344
77.9673
80.7162
63.4588
63.3936
63.2599
62.9917
62.9935
62.936
63.0824
63.2696
63.4891
63.3201
63.3191
63.1757
63.1056
63.1634
63.3138
63.3451
63.0467
62.4668
62.5096
62.7008
63.1413
63.1449
62.6716
62.7307
62.9909
62.7314
62.6134
62.6479
62.8751
62.9589
62.8159
62.8428
62.7317
62.4253
63.0202
62.5958
62.7806
62.5729
62.5295
62.2714
62.2186
62.5854
63.4479
66.0509
71.8038
77.9864
80.6183
63.5501
63.3959
63.2412
63.0262
63.0644
63.57
63.6878
63.9197
63.8261
63.3345
63.3247
63.2439
63.6726
63.2713
63.3453
63.2709
63.0054
62.6344
62.6817
62.8274
63.1202
63.1787
62.7864
62.8503
63.0732
62.811
62.8883
62.8649
62.8743
63.023
62.8376
62.9139
62.8393
62.4746
62.9515
62.8283
62.8617
62.724
62.6516
62.3103
62.3351
62.6053
63.4988
66.1799
71.823
77.9609
80.6023
63.5327
63.3897
63.2297
63.0946
63.2274
63.9364
64.1604
64.0146
63.7448
63.3875
63.458
63.2949
63.7058
63.404
63.3688
63.292
62.9976
62.751
62.8328
62.9577
63.1759
63.1942
62.8611
62.9299
63.1063
63.0069
63.1372
63.0492
62.9005
63.0838
62.9703
63.0106
62.8991
62.5649
62.9676
63.1981
63.01
62.88
62.7079
62.489
62.5423
62.7675
63.5401
66.3745
71.9001
77.9707
80.626
63.4631
63.42
63.2549
63.154
63.3831
63.9596
64.0805
64.0833
63.7965
63.5661
63.5836
63.4531
63.7296
63.5021
63.4079
63.331
63.0441
62.9859
63.0146
63.1123
63.3647
63.2614
63.0966
63.0878
63.1603
63.2505
63.8457
63.1534
62.9632
63.1071
63.0024
63.0867
62.9179
62.6901
63.1558
63.6996
63.204
62.9847
62.7443
62.6516
62.7234
63.2265
63.5832
66.5869
71.988
78.0088
80.6364
63.4633
63.4583
63.3591
63.2802
63.5657
63.9994
64.1563
64.0944
63.8993
63.7021
63.6323
63.5874
63.7977
63.5792
63.4123
63.3356
63.0829
63.4075
63.1327
63.2223
63.3825
63.3214
63.1663
63.1803
63.3191
63.4953
63.9985
63.6561
62.9722
63.1797
63.0377
63.0896
62.9437
62.7981
63.2165
63.6951
63.3084
63.0077
62.7702
62.7956
62.9597
63.3429
63.6604
66.6869
72.0507
78.0011
80.6394
63.4821
63.4545
63.4965
63.4449
63.9517
64.0536
64.3062
64.1839
64.0265
63.8481
63.6592
63.8633
63.8289
63.6179
63.3973
63.317
63.2263
63.7911
63.2692
63.5452
63.3774
63.3749
63.2234
63.3199
63.4468
63.5713
63.9996
63.9408
62.9747
63.295
63.2009
63.1478
63.0359
62.897
63.2367
63.6979
63.4319
62.9961
62.8339
62.947
63.1371
63.4262
63.7669
66.7489
72.1121
78.0117
80.6322
63.4572
63.5069
63.7325
63.6878
64.4266
64.1069
64.3579
64.2603
64.104
64.1755
63.9201
64.0206
63.8673
63.7564
63.44
63.3686
63.3595
63.7574
63.5198
64.1802
63.3907
63.3845
63.4225
63.4977
63.5481
63.629
64.14
63.9328
63.0958
63.4235
63.2736
63.2454
63.2205
63.0454
63.2288
63.7053
63.6507
63.1007
62.8601
63.103
63.2732
63.5216
63.9818
66.8033
72.1971
78.0528
80.6065
63.4886
63.6384
64.3809
63.9189
64.3757
64.1461
64.3812
64.2914
64.1481
64.4256
64.3512
64.1436
63.8986
63.9932
63.7556
63.53
63.5223
63.7599
63.7887
64.206
63.4968
63.4073
64.0104
63.6371
63.5522
63.6385
64.141
63.9708
63.3284
63.4764
63.3703
63.2844
63.8411
63.2722
63.2055
63.8115
64.0199
63.2325
62.9755
63.2493
63.3608
63.5063
64.2098
66.825
72.2983
78.1111
80.6311
63.5751
63.7788
64.3403
64.1272
64.4178
64.2004
64.581
64.3782
64.1727
64.4166
64.5946
64.2652
63.8949
63.9697
64.1119
63.6007
63.7609
63.8248
64.0402
64.2699
63.7215
63.4733
64.0945
63.7183
63.8005
63.8927
64.1103
63.9867
63.5311
63.5424
63.5027
63.4373
63.9758
63.5084
63.3404
63.8667
63.9546
63.3734
63.1332
63.3916
63.4482
63.4919
64.3794
66.8823
72.3695
78.182
80.6718
63.6618
63.8567
64.324
64.7202
64.4689
64.3339
64.8829
64.5696
64.3039
64.476
64.6834
64.3323
63.9174
64.0308
64.0641
63.7173
64.0033
63.978
64.2237
64.4013
63.8782
63.7256
64.1208
63.8506
63.9534
64.4214
64.2173
64.0064
63.7037
63.6262
63.699
63.639
63.9182
63.7157
63.6774
63.8917
63.8667
63.4398
63.2722
63.592
63.65
63.5168
64.4606
67.031
72.4719
78.2449
80.5552
63.8869
64.0067
64.4614
64.9586
64.6101
64.7158
64.8501
64.6097
64.3579
64.5946
64.661
64.4632
63.9459
64.069
64.1302
63.9158
64.123
64.1413
64.5026
64.4753
63.963
64.0602
64.2624
63.9062
64.1824
64.8146
64.3329
63.9997
63.7981
63.722
63.8965
63.8317
64.0062
63.7976
63.7838
63.941
63.9143
63.5217
63.3348
63.7562
63.7703
63.554
64.5438
67.2105
72.6239
78.4701
80.4953
63.9812
64.5109
64.53
65.0092
64.7467
65.3465
64.908
64.6711
64.3872
64.6974
64.6493
64.4861
63.9464
64.0949
64.2168
64.1158
64.1766
64.2616
64.6333
64.4932
64.0968
64.1687
64.3189
64.0117
64.4023
64.8155
64.3797
64.0157
63.9063
63.8608
63.9632
63.9038
64.0194
63.8531
63.854
63.9853
63.9485
63.5786
63.4315
63.8741
63.8771
63.695
64.6681
67.3056
72.8052
78.8069
80.4677
64.1513
65.0272
64.5541
65.1337
65.0178
65.3527
64.9449
64.8562
64.6142
64.7562
64.6275
64.616
64.0983
64.1492
64.2734
64.3181
64.3724
64.368
64.8203
64.4738
64.2099
64.2937
64.336
64.3021
64.5385
64.841
64.3987
64.011
64.0966
64.0749
64.0136
64.0082
64.0173
64.0205
63.9687
64.0236
64.0595
63.7136
63.5299
63.9271
64.0018
63.9029
64.6905
67.4074
72.8813
78.6943
80.4827
64.3726
65.0047
64.6667
65.2056
65.5377
65.4089
64.9857
65.3651
64.9777
64.7803
64.6551
65.0077
64.5234
64.3817
64.3767
64.6053
65.1075
64.5469
65.0471
64.4637
64.3158
64.3787
64.4173
64.4762
64.7308
64.8632
64.4316
64.0404
64.1766
64.2082
64.0923
64.1647
64.0348
64.1474
64.1682
64.0374
64.0676
64.0088
63.72
63.9883
64.1957
64.036
64.669
67.4333
72.9097
78.6016
80.5445
64.5926
65.0391
64.8958
65.3483
65.6867
65.4807
65.1369
65.4382
65.2228
64.9406
64.781
64.9242
65.0484
64.4783
64.6562
65.243
65.5902
64.8346
65.0935
64.4752
64.5334
64.414
64.7401
64.6519
64.8747
64.983
64.4677
64.3666
64.3253
64.4277
64.3321
64.2599
64.0742
64.2592
64.3205
64.0224
64.049
64.1612
64.0194
64.246
64.3438
64.2364
64.882
67.411
73.0326
78.5529
80.6573
64.929
65.1969
65.4076
65.5513
65.8029
65.5373
65.4635
65.4594
65.4917
65.0663
64.9378
65.0633
65.061
64.5327
64.79
65.8162
65.5978
65.2187
65.1996
64.6367
64.966
64.6706
64.8225
64.9483
65.0633
65.013
64.6124
64.6235
64.5937
64.5736
64.5769
64.4271
64.2151
64.5254
64.4155
64.0984
64.0331
64.286
64.3235
64.4038
64.4357
64.3369
65.2169
67.732
73.162
78.5398
80.803
65.1872
65.413
65.7347
65.9701
65.9903
65.8275
65.637
65.5152
65.956
65.1409
64.9854
65.2428
65.0814
64.6233
64.9298
65.7747
65.7623
65.5101
65.221
64.9504
65.2301
64.9767
64.8988
65.3019
65.377
65.0736
64.8386
64.7229
64.6991
64.6252
64.7543
64.6578
64.5193
64.7227
64.4752
64.232
64.0976
64.5343
64.6435
64.8535
64.5437
64.4223
65.4454
68.3529
73.3088
78.5814
80.96
65.5875
65.6024
65.8796
66.1414
66.1049
66.0034
65.8465
65.5077
65.9235
65.4269
65.0435
65.3849
65.1419
64.8546
65.0941
65.7976
65.8466
65.6493
65.2054
65.1112
65.3049
65.1436
65.1297
65.4797
65.5136
65.1852
64.962
64.8265
64.7902
64.8807
64.8681
64.7866
64.6896
64.9848
64.7797
64.3449
64.2985
64.7409
65.2975
65.2244
64.6029
64.6188
65.5826
68.3725
73.3363
78.6955
81.1888
65.9634
65.7516
66.0638
66.1914
66.1715
66.1164
65.9937
65.5329
65.8751
65.5101
65.1789
65.4313
65.2369
65.2945
65.3129
65.8349
65.8717
65.7043
65.3798
65.2497
65.3628
65.3165
65.3881
65.6251
65.6445
65.2272
65.0462
65.0815
65.0067
65.0839
65.0523
64.8956
64.8486
65.1831
64.9001
64.504
64.442
64.9811
65.4966
65.23
64.7642
64.7532
65.689
68.3183
73.5034
78.8745
81.4824
66.259
65.9142
66.1608
66.2213
66.2488
66.2157
66.0022
65.7534
65.8753
65.6165
65.5957
65.417
65.309
65.5953
65.5638
65.8563
65.8575
65.6788
65.6302
65.3101
65.4763
65.5441
65.4547
65.6684
65.6785
65.2392
65.2163
65.3107
65.2773
65.2247
65.1369
65.0652
65.0473
65.2928
64.9848
64.6315
64.6344
65.1182
65.5226
65.2209
65.1073
64.9269
65.7508
68.4879
74.1075
79.0076
81.5241
66.5264
66.0465
66.265
66.4355
66.2666
66.2392
66.0543
65.8336
65.9627
65.9863
65.9056
65.4245
65.5027
66.2697
65.8076
65.9178
65.8567
65.7568
65.7607
65.4351
65.6376
65.7726
65.4678
65.7066
65.7042
65.284
65.3296
65.4214
65.4869
65.4711
65.2656
65.1352
65.0628
65.4317
65.1069
64.8506
64.8894
65.172
65.6989
65.3283
65.344
65.103
66.0658
68.9278
74.3012
79.1731
81.5999
66.7857
66.2183
66.8669
66.7265
66.2662
66.2435
66.1281
65.9407
65.9665
66.0426
65.9066
65.4424
65.6875
66.506
66.0927
65.9734
65.8797
66.0522
65.9929
65.6082
65.8384
65.9358
65.4681
65.7331
65.7149
65.3726
65.3807
65.5707
65.6523
65.5871
65.4686
65.2717
65.1752
65.8827
65.2417
65.155
65.0108
65.1925
65.776
65.5885
65.4668
65.2954
66.2134
68.8656
74.1849
79.3521
81.8626
67.3314
66.5021
66.9888
66.644
66.2823
66.2401
66.271
66.0123
66.0015
66.1215
65.9234
65.5187
65.7946
66.5252
66.6894
65.9979
66.047
66.6887
66.2422
65.866
65.9323
66.0617
65.7276
65.8126
65.7242
65.4277
65.4476
65.739
65.8975
65.7295
65.6416
65.4936
65.4386
65.9708
65.3745
65.2848
65.0761
65.4429
65.8575
65.65
65.4937
65.5463
66.2673
68.8642
74.2094
79.4705
82.1213
67.5861
67.0458
66.9782
66.736
66.3507
66.4191
66.6385
66.2295
66.0968
66.2366
65.9931
65.7383
65.8514
66.5792
66.7715
66.0669
66.1549
66.7924
66.7664
66.2305
66.0139
66.186
66.3731
66.0408
65.8037
65.4742
65.6961
65.8013
66.1702
65.9916
65.826
65.7584
65.591
65.9231
65.595
65.35
65.1997
65.6649
65.8774
65.6465
65.5971
65.8401
66.3557
68.9097
74.2695
79.6354
81.9846
67.7812
67.4952
67.133
66.9845
66.5912
66.7648
66.7592
66.4022
66.3558
66.3162
66.1252
65.9223
66.0535
66.6895
66.8071
66.1706
66.2719
66.8411
66.8215
66.5025
66.2988
66.5378
66.7568
66.4491
65.8804
65.7056
65.8112
66.0746
66.3818
66.169
65.9958
65.9277
65.7586
65.9254
65.7962
65.5785
65.4209
65.8536
65.8868
65.6538
65.6482
65.976
66.8576
69.0865
74.2817
79.8666
81.9414
67.879
67.6308
67.5634
67.1548
66.7994
66.7587
66.653
66.5803
66.475
66.5133
66.3184
66.244
66.5043
66.8457
66.9122
66.307
66.4038
66.8577
66.801
66.6356
66.5037
66.8386
66.9056
66.6775
66.2456
66.136
66.0275
66.3585
66.4742
66.3774
66.1086
66.1028
65.9319
65.9262
66.0509
65.8368
65.7375
65.9924
65.8905
65.7047
65.7445
66.0861
67.2938
69.2843
74.438
80.0517
81.9434
67.9008
67.8329
67.6468
67.4567
67.2002
66.8703
66.6878
66.7148
66.6806
66.7135
66.6262
67.041
67.2455
66.9185
66.9384
66.6352
66.787
66.7443
66.8526
66.6926
66.6967
66.9744
67.0885
66.8282
66.6062
66.5046
66.2461
66.4792
66.5967
66.4815
66.2933
66.3949
66.4931
66.0639
66.149
66.0137
66.1027
66.1001
65.8709
65.7608
65.8184
66.2474
67.3348
69.2838
74.8372
80.142
82.0024
67.9088
67.9235
67.6321
67.3403
67.2455
66.9305
66.7333
67.0043
66.776
66.8555
66.8494
67.4609
67.3632
67.0452
67.0019
67.2721
66.96
66.7241
66.8973
66.9615
67.0608
67.2401
67.2783
67.0797
66.7031
66.6866
66.6596
66.5472
66.7784
66.5381
66.5292
66.5866
66.6641
66.2826
66.1911
66.2593
66.2338
66.1368
66.0097
65.9544
65.9085
66.3627
67.3427
69.283
75.0336
80.378
82.1126
67.8961
67.9791
67.6559
67.1539
67.1922
66.9343
66.833
67.0246
66.8913
67.0517
67.0763
67.5224
67.471
67.1582
67.0979
67.4994
67.1173
66.8808
66.9009
67.1059
67.3838
67.4312
67.3189
67.2366