/*--------------------------------*- C++ -*----------------------------------*\
| =========                 |                                                 |
| \\      /  F ield         | OpenFOAM: The Open Source CFD Toolbox           |
|  \\    /   O peration     | Version:  2212                                  |
|   \\  /    A nd           | Website:  www.openfoam.com                      |
|    \\/     M anipulation  |                                                 |
\*---------------------------------------------------------------------------*/
FoamFile
{
    version     2.0;
    format      ascii;
    arch        "LSB;label=32;scalar=64";
    class       volScalarField;
    location    "0.016";
    object      p;
}
// * * * * * * * * * * * * * * * * * * * * * * * * * * * * * * * * * * * * * //

dimensions      [1 -1 -2 0 0 0 0];

internalField   nonuniform List<scalar> 
2308
(
597.786
607.874
601.934
603.463
606.412
602.937
610.075
610.014
607.117
611.226
610.823
610.379
609.955
609.469
608.869
608.138
607.354
607.525
607.985
608.423
608.781
609.021
609.181
609.402
609.687
610.265
611.454
613.091
608.291
606.625
615.388
618.132
621.039
623.671
625.693
626.999
627.694
627.969
627.979
627.767
627.275
626.472
625.431
624.332
623.353
624.516
625.955
627.28
628.286
628.906
629.139
629.068
628.726
628.035
626.86
625.102
622.813
620.228
617.679
615.463
613.763
612.81
612.363
612.005
611.616
611.059
610.39
609.584
608.597
607.52
606.445
622.55
623.159
608.4
608.509
608.485
608.381
608.272
608.305
608.65
609.426
610.878
612.96
615.621
618.714
621.75
624.234
625.914
626.837
627.198
627.214
626.979
626.457
625.612
624.541
623.456
622.634
622.23
607.12
622.097
606.051
605.476
623.976
625.684
627.398
628.857
629.869
630.405
630.472
630.118
629.355
628.126
626.396
624.234
621.832
619.481
617.432
615.843
614.686
613.944
613.472
612.992
612.357
611.493
610.487
609.273
607.935
606.587
605.33
610.724
601.843
602.336
602.075
608.979
608.82
608.531
608.146
607.745
607.446
607.421
607.853
608.828
610.554
613.004
616.033
619.293
622.235
624.429
625.781
626.435
626.643
626.545
626.112
625.258
624.018
622.648
621.534
621.007
621.178
621.686
622.177
622.033
621.937
622.091
609.003
622.603
610.52
609.503
604.861
607.427
607.083
606.69
604.255
622.302
621.817
621.418
621.302
621.604
622.319
623.463
624.984
626.81
628.627
630.152
631.189
631.673
631.602
630.943
629.698
627.904
625.683
623.261
620.943
618.97
617.472
616.4
615.616
615.04
614.502
613.795
612.798
611.596
610.168
608.602
607.004
605.478
604.146
609.456
595.179
605.328
611.585
611.845
611.587
611.166
610.724
610.252
609.718
609.166
608.521
607.846
607.236
606.835
606.834
607.4
608.593
610.587
613.314
616.514
619.734
622.425
624.291
625.375
625.909
626.114
625.985
625.375
624.201
622.583
620.943
619.819
619.582
620.217
621.237
622.218
622.7
590.331
608.716
592.319
604.288
606.742
608.609
603.542
608.03
623.332
624.546
626.072
627.866
629.639
631.144
632.189
632.61
632.321
631.311
629.625
627.373
624.835
622.382
620.327
618.801
617.807
617.129
616.601
616.056
615.321
614.27
612.933
611.293
609.508
607.694
605.933
604.36
603.056
603.082
606.037
607.198
612.44
612.929
612.794
612.355
611.777
611.066
610.283
609.407
608.514
607.641
606.923
606.509
606.599
607.32
608.722
610.931
613.811
616.999
620.002
622.354
623.919
624.845
625.399
625.686
625.544
624.767
623.302
621.356
619.512
618.396
618.372
619.297
620.649
621.987
622.819
624.299
623.898
623.114
622.221
621.466
621.077
621.147
621.708
622.512
590.295
586.641
607.561
606.8
597.656
609.361
602.071
602.381
604.267
604.583
596.44
605.824
613.097
613.734
613.701
613.215
612.518
611.64
610.65
609.598
608.549
607.586
606.852
606.501
606.728
607.603
609.182
611.531
614.421
617.449
620.123
622.122
623.459
624.353
625.019
625.404
625.225
624.281
622.539
620.326
618.344
617.246
617.341
618.367
619.854
621.388
622.503
624.035
622.332
622.063
621.548
620.921
620.447
620.275
620.389
620.75
621.259
621.81
622.172
623.28
624.373
625.673
627.159
628.84
630.491
631.881
632.804
633.044
632.451
631.073
629.052
626.578
624.018
621.763
620.072
618.986
618.375
617.97
617.542
616.878
615.848
614.439
612.66
610.673
608.643
606.675
604.902
603.39
602.201
604.542
601.444
602.037
609.725
602.312
602.167
604.192
605.961
603.887
611.604
611.095
612.95
613.939
614.092
613.635
612.878
611.932
610.852
609.739
608.651
607.713
607.052
606.822
607.2
608.213
609.931
612.329
615.118
617.877
620.179
621.863
623.067
624.026
624.838
625.285
625.028
623.893
621.863
619.417
617.343
616.267
616.408
617.397
618.854
620.441
621.74
623.165
622.392
625.588
625.951
625.771
625.021
624.184
623.445
622.822
622.181
621.674
621.44
621.411
621.136
620.808
622.256
623.782
625.213
626.651
628.122
629.677
631.135
632.306
632.949
632.815
631.877
630.245
628.111
625.696
623.372
621.469
620.165
619.438
619.068
618.778
618.288
617.399
616.04
614.223
612.107
609.891
607.719
605.759
604.058
602.68
601.673
601.36
602.516
603.013
607.376
600.867
605.31
603.465
601.764
601.858
610.522
608.044
601.153
600.307
600.052
620.983
620.155
619.464
618.842
618.108
617.662
617.792
618.424
619.348
620.032
620.078
619.534
619.037
619.472
620.791
622.199
623.921
625.629
627.262
628.793
630.244
631.465
632.296
632.506
631.931
630.686
628.948
626.925
624.833
622.945
621.475
620.521
620.022
619.741
619.404
618.732
617.562
615.863
613.743
611.41
609.074
606.927
605.051
603.496
602.319
601.513
601.015
605.026
600.384
605.816
606.658
611.862
613.399
613.876
613.56
612.839
611.927
610.891
609.843
608.848
608.026
607.51
607.448
607.972
609.104
610.914
613.282
615.887
618.32
620.26
621.703
622.863
623.937
624.869
625.318
624.94
623.559
621.19
618.517
616.367
615.323
615.474
616.36
617.72
619.284
620.719
622.106
622.413
624.976
622.316
601.458
600.765
594.821
601.108
598.498
600.686
621.457
621.569
622.353
623.795
625.548
627.356
629.008
630.366
631.322
631.746
631.483
630.506
629.048
627.376
625.661
624.069
622.719
621.694
621.012
620.592
620.248
619.731
618.813
617.365
615.414
613.106
610.697
608.403
606.356
604.632
603.281
602.32
601.734
601.053
603.989
598.635
630.205
630.665
630.406
629.727
628.756
628.093
627.769
627.457
626.256
624.283
622.76
621.466
620.247
619.898
621.197
623.33
604.87
598.899
600.165
601.349
602.603
604.461
602.617
591.862
604.613
610.165
612.074
612.966
612.974
612.429
611.667
610.804
609.938
609.145
608.524
608.202
608.32
608.972
610.215
612.075
614.352
616.723
618.819
620.441
621.712
622.879
624.06
625.064
625.467
624.92
623.185
620.42
617.515
615.307
614.302
614.471
615.296
616.616
618.186
619.768
621.304
622.493
624.569
624.088
629.651
593.871
600.687
601.423
599.939
598.519
599.052
604.084
592.572
589.258
603.253
600.752
601.488
605.009
588.863
606.565
587.62
627.137
625.388
623.942
623.243
623.696
625.054
626.882
628.623
629.911
630.651
630.7
630.027
628.757
627.238
625.758
624.471
623.433
622.613
621.973
621.466
621.01
620.479
619.703
618.523
616.867
614.777
612.446
610.113
607.953
606.075
604.552
603.424
602.677
602.277
602.201
604.073
598.945
598.543
622.414
617.522
614.175
612.761
612.151
612.131
611.788
610.67
610.143
610.776
612.851
614.578
615.1
614.581
614.014
615.285
619.508
626.565
609.063
598.61
599.393
599.969
600.373
600.415
606.962
594.996
605.301
607.994
610.107
611.379
611.818
611.641
611.171
610.617
610.044
609.535
609.169
609.069
609.364
610.136
611.482
613.348
615.502
617.62
619.4
620.76
621.909
623.094
624.355
625.394
625.7
624.897
622.685
619.531
616.389
614.114
613.145
613.383
614.285
615.722
617.432
619.21
620.977
622.652
624.605
625.67
629.417
626.662
604.815
600.891
596.957
603.014
601.003
598.518
600.614
596.975
597.441
596.799
586.272
595.609
604.462
602.675
603.337
603.223
596.882
595.949
603.105
603.064
603.311
603.874
604.79
606.092
607.756
609.704
611.851
614.073
616.168
617.937
619.336
620.387
621.17
621.746
622.184
622.544
622.918
623.444
624.29
625.517
626.973
628.389
629.342
629.554
628.938
627.645
625.889
624.317
623.909
625.164
627.695
630.347
631.536
630.32
593.08
640.013
644.323
645.611
643.918
641.447
639.395
637.496
636.431
636.687
637.345
636.128
631.584
628.999
627.287
626.281
627.227
631.67
632.791
631.033
629.79
604.214
601.487
604.306
592.405
594.197
596.141
598.054
599.905
598.918
598.106
597.415
605.72
590.572
598.054
594.378
594.832
602.105
599.815
597.217
600.779
604.847
588.798
599.265
599.467
599.422
599.048
598.46
599.768
594.707
599.83
602.433
605.124
607.476
609.183
610.16
610.52
610.501
610.352
610.174
610.002
609.918
610.054
610.515
611.425
612.846
614.686
616.696
618.561
620.058
621.202
622.259
623.456
624.764
625.792
625.941
624.767
622.1
618.556
615.155
612.787
611.854
612.245
613.402
615.158
617.163
619.148
621.08
622.932
624.882
626.543
629.243
628.522
635.352
596.747
599.068
601.295
585.662
600.336
600.924
601.932
602.304
588.375
595.264
595.455
595.974
600.121
598.705
601.131
595.198
597.684
585.625
599.708
593.956
599.827
597.391
600.281
600.918
601.689
604.02
603.96
604.119
604.547
605.277
606.361
607.789
609.485
611.378
613.384
615.377
617.17
618.729
620.025
621.059
621.808
622.258
622.446
622.48
622.587
623.075
624.067
625.451
626.861
627.956
628.267
627.639
626.275
624.629
623.671
624.617
627.45
631.242
633.527
632.682
629.847
626.855
597.432
598.575
599.581
600.266
600.603
600.747
608.487
603.42
602.37
603.773
602.246
596.888
592.478
594.487
596.101
604.94
585.493
608.514
609.463
604.469
593.567
589.365
590.488
600.851
619.083
614.363
607.531
601.708
598.156
596.08
594.863
594.338
594.255
592.72
590.819
591.598
595.454
598.807
600.489
600.325
600.138
601.505
608.078
617.335
622.961
622.267
594.75
596.144
597.749
599.38
600.981
602.52
602.051
601.586
604.862
603.138
603.846
607.441
599.31
590.102
594.08
604.463
592.279
594.691
588.054
601.158
609.992
592.476
593.916
593.872
594.938
596.742
599.112
601.786
604.368
606.535
608.119
609.131
609.714
610.067
610.322
610.522
610.73
611.09
611.732
612.768
614.242
616.037
617.897
619.525
620.767
621.731
622.708
623.901
625.225
626.192
626.149
624.552
621.404
617.51
613.864
611.393
610.517
611.144
612.71
614.932
617.321
619.501
621.456
623.261
625.124
626.658
628.405
627.477
629.641
617.071
603.053
587.529
609.254
603.086
594.633
595.183
587.477
607.345
607.914
586.941
603.805
609.292
594.988
596.822
598.599
600.166
601.417
602.305
602.93
603.368
600.961
603.657
607.855
602.647
606.7
595.922
605.633
605.332
605.068
604.939
605.026
605.348
605.925
606.808
607.995
609.425
611.041
612.779
614.585
616.335
617.978
619.474
620.733
621.653
622.165
622.218
622.004
621.873
622.156
623.032
624.378
625.776
626.782
627.015
626.234
624.76
623.328
623.118
625.215
629.247
633.345
634.046
631.108
626.025
621.584
617.564
602.419
602.838
603.362
603.967
604.459
608.466
601.542
599.365
596.852
588.61
592.072
590.109
604.681
593.246
604.742
602.494
604.738
603.864
605.094
607.099
596.674
592.067
598.369
593.653
603.457
586.639
602.42
586.901
587.273
592.412
593.663
587.954
601.601
602.998
607.108
604.217
603.65
604.26
601.961
597.513
596.205
595.038
595.998
597.018
598.18
599.453
600.774
602.093
603.374
604.59
604.816
601.839
592.769
592.877
599.375
585.305
608.518
591.485
592.057
593.425
595.57
598.213
601.017
603.629
605.85
607.607
608.881
609.799
610.503
611.064
611.562
612.135
612.937
614.084
615.598
617.345
619.057
620.463
621.477
622.286
623.191
624.365
625.667
626.513
626.27
624.213
620.697
616.498
612.619
610.044
609.219
610.132
612.199
614.919
617.741
620.082
621.942
623.612
625.39
626.487
627.388
624.596
624.387
613.806
627.125
639.191
652.304
662.921
671.069
672.339
672.907
672.011
668.736
665.187
662.891
661.299
659.303
657.645
652.242
650.555
650.024
648.978
650.231
652.504
651.892
646.089
636.394
628.772
621.7
604.516
589.782
603.805
601.038
590.45
591.503
594.355
588.332
605.859
601.199
593.693
596.341
598.747
600.853
602.605
603.967
604.987
605.715
606.145
606.31
605.718
603.761
606.177
603.553
604.41
606.224
594.3
596.135
603.216
585.984
603.558
587.898
592.892
588.024
602.195
601.732
607.034
589.828
591.832
594.064
596.415
598.737
600.939
603.135
606.526
591.551
602.557
604.399
604.444
604.603
604.867
605.25
605.645
604.408
602.243
611.421
591.882
597.323
597.523
597.9
598.607
599.365
600.216
601.173
602.185
603.218
604.232
605.202
606.053
586.143
599.303
606.288
596.382
603.691
610.263
608.257
589.855
589.05
589.185
590.177
592.105
594.71
597.69
600.727
603.615
606.072
608.041
609.552
610.705
611.594
612.352
613.11
614.049
615.282
616.824
618.522
620.101
621.317
622.139
622.811
623.63
624.765
626.023
626.83
626.207
623.803
619.992
615.66
611.546
608.841
608.048
609.254
611.777
614.976
618.312
620.653
622.421
624.098
625.734
626.769
626.83
622.854
618.803
596.996
612.419
597.255
598.246
584.047
580.044
574.88
569.324
572.33
560.406
553.624
552.18
553.449
553.655
553.705
554.632
555.214
558.331
562.85
566.773
570.016
570.038
572.511
573.906
579.221
588.088
599.12
593.394
624.32
622.501
613.825
617.622
622.481
628.738
633.54
634.091
630.148
625.412
622.452
622.097
623.369
624.988
626.019
626.017
625.106
623.744
622.407
621.547
621.318
621.535
621.854
621.854
621.335
620.243
618.816
617.191
615.526
613.875
612.291
610.82
609.476
608.3
607.338
606.626
606.165
605.913
605.853
605.953
606.219
606.53
607.12
607.593
608.141
588.177
607.875
597.577
608.591
607.783
602.595
606.448
592.489
607.402
602.757
605.007
604.952
605.088
606.779
605.519
591.799
596.684
598.348
601.284
601.082
589.147
588.128
591.854
590.691
589.624
589.436
587.709
602.779
589.539
591.153
588.442
601.119
594.142
596.034
594.103
606.262
605.147
603.827
608.061
608.272
608.135
607.593
606.637
605.319
603.59
601.436
598.924
596.21
593.233
592.86
607.635
601.698
604.689
602.695
600.542
598.321
596.096
593.858
591.684
589.617
608.104
604
584.655
584.686
585.278
586.502
606.512
587.565
605.018
589.108
606.3
598.997
608.677
606.366
606.146
606.059
606.062
606.165
606.436
606.741
604.82
607.409
609.062
609.347
609.24
609.159
608.796
608.299
607.819
607.378
607.024
606.797
606.677
606.714
606.913
607.283
607.855
608.626
609.579
610.688
611.928
613.304
614.833
616.471
618.172
619.717
620.882
621.457
621.437
621.092
620.881
621.163
622.08
623.462
624.829
625.602
625.343
624.072
622.316
621.099
621.763
625.378
630.646
633.89
632
626.613
620.555
617.962
620.571
629.754
658.253
589.588
591.038
652.719
683.535
701.035
710.88
713.307
715.801
723.137
727.431
729.056
728.462
723.262
716.111
710.211
705.603
702.742
701.63
701.127
699.102
695.936
695.564
695.634
702.375
712.029
725.09
716.697
705.884
666.715
690.958
585.899
600.417
600.498
600.695
601.084
601.503
601.972
602.51
603.137
603.874
604.669
605.456
606.176
606.801
590.672
593.32
596.777
600.373
589.618
587.825
586.751
586.594
587.329
589.052
591.6
594.756
598.209
601.605
604.679
607.283
609.328
610.877
612.06
613.036
613.937
614.981
616.285
617.843
619.488
620.95
622.016
622.688
623.247
623.979
625.071
626.362
626.956
626.063
623.424
619.398
614.952
610.887
607.846
607.063
608.498
611.422
615.169
618.598
621.101
622.873
624.535
626.129
627.261
627.677
626.595
618.239
605.912
606.861
603.426
685.752
598.595
598.375
591.579
596.539
606.248
605.628
603.115
605.274
593.522
591.566
590.27
592.078
608.02
606.181
604.375
602.359
600.248
598.07
595.894
593.739
591.6
589.517
585.96
608.111
584.774
584.285
584.144
584.748
593.116
609.326
609.584
609.444
608.877
607.808
606.279
604.269
601.841
599.1
596.15
604.137
605.456
606.03
593.852
595.766
598.436
589.099
590.255
608.021
608.985
609.587
609.807
609.815
609.607
609.231
608.775
608.326
607.909
607.576
607.368
607.309
607.353
607.512
607.812
608.278
608.902
609.68
610.604
611.666
612.882
614.299
615.896
617.638
619.276
620.505
621.11
621.087
620.755
620.584
620.945
621.949
623.4
624.796
625.434
624.974
623.526
621.662
620.46
621.273
625.299
630.635
633.36
630.663
625.056
619.787
618.422
622.97
638.438
693.423
488.523
608.101
607.707
607.364
607.014
606.79
606.723
606.901
607.262
607.29
605.441
596.172
590.749
595.763
591.344
605.572
603.602
589.04
592.334
595.988
599.945
607.071
606.11
603.24
602.904
602.684
602.605
602.627
602.688
602.8
602.968
603.278
603.731
604.263
604.88
605.57
606.342
607.244
609.154
20.174
21.1977
21.9747
23.9381
24.5497
24.0264
23.0052
22.5088
22.7062
22.5694
21.9633
21.5692
21.4547
21.369
21.3768
21.6762
22.2045
23.0474
23.7006
24.3137
24.7786
25.1838
24.9704
24.7572
22.353
21.9637
20.6056
21.8177
21.9167
28.4269
587.834
585.966
584.805
584.488
585.091
586.69
589.245
592.518
596.231
600.029
603.6
606.685
609.155
611.039
612.446
613.56
614.567
615.693
617.035
618.586
620.181
621.558
622.513
623.096
623.581
624.256
625.3
626.503
626.991
625.95
623.166
619.026
614.462
610.411
607.3
606.252
607.872
611.126
615.16
618.84
621.417
623.18
624.82
626.438
627.901
629.537
630.899
628.64
623.193
631.545
645.22
584.42
25.7005
589.876
595.709
593.504
605.556
604.45
524.556
563.864
604.944
605.625
62.4012
3440.11
3478.3
3122.19
3299.45
3197.85
3384.36
3066.04
3398.69
3314.92
3412.55
3411.62
3318.54
3348.59
3293.71
3292.31
3267.25
3279.67
3243.06
3255.36
3231.14
3224.61
3278.68
3250.67
3257.13
3255.51
3292.75
3204.27
3393.22
3088.74
646.736
30.9128
3325.49
2998.5
630.17
570.699
628.613
621.736
628.118
628.204
626.512
627.541
623.346
624.997
618.918
621.593
610.814
615.042
606.007
607.539
610.202
607.014
618.943
614.374
625.866
623.088
626.431
626.875
624.398
625.364
623.349
623.779
621.885
622.818
619.014
620.557
616.184
617.495
613.967
615.05
611.218
612.76
606.325
609.111
598.998
602.893
591.095
594.945
585.267
587.766
583.243
583.766
584.804
583.607
589.226
586.731
595.284
592.117
601.618
598.502
606.582
604.36
609.44
608.284
610.252
610.049
609.772
610.015
608.444
608.996
607.492
608.053
606.919
607.114
607.809
607.107
609.789
607.881
608.349
607.048
607.391
606.702
606.876
606.63
606.629
606.736
606.671
606.939
606.826
607.27
607.062
606.372
607.668
608.027
604.723
609.07
610.8
603.208
606.67
594.94
599.189
587.874
590.97
584.679
585.568
584.049
583.972
585.823
584.635
589.526
587.508
593.774
591.647
598.057
595.906
602.223
600.166
605.831
604.151
608.433
607.287
609.81
609.271
609.988
610.032
609.391
609.731
608.656
609.018
608.061
608.324
607.767
607.88
607.879
607.764
608.528
608.129
609.74
609.067
611.509
610.551
613.93
612.611
617.121
615.46
619.966
618.71
620.773
620.661
620.438
620.548
621.915
620.851
624.891
623.429
625.029
625.542
621.461
623.457
621.051
620.187
630.442
625.108
629.579
632.908
617.329
623.698
610.518
613.812
611.17
609.792
610.951
591.02
601.822
2831.11
591.377
2684.06
591.116
611.522
611.73
611.711
611.906
611.903
611.969
611.973
601.107
586.704
592.984
593.101
590.263
609.218
606.381
608.047
605.881
605.867
606.265
604.67
605.429
605.451
603.436
605.066
604.656
602.211
604.718
603.861
586.605
604.892
610.747
604.698
607.547
603.274
594.079
587.323
609.169
607.082
607.167
604.091
608.103
605.191
608.665
606.695
608.667
587.616
608.88
591.767
605.804
611.597
585.058
607.006
608.305
604.842
594.722
601.349
601.822
610.752
605.675
611.099
592.107
596.104
591.131
607.233
588.363
594.631
598.939
601.588
605.284
606.551
602.502
604.699
603.159
605.746
589.179
593.443
597.668
603.236
610.837
611.837
606.6
)
;

boundaryField
{
    wall
    {
        type            zeroGradient;
    }
    outlet
    {
        type            fixedValue;
        value           uniform 1e-05;
    }
    inlet
    {
        type            fixedValue;
        value           uniform 612;
    }
    frontAndBackPlanes
    {
        type            empty;
    }
}


// ************************************************************************* //
