/*--------------------------------*- C++ -*----------------------------------*\
| =========                 |                                                 |
| \\      /  F ield         | OpenFOAM: The Open Source CFD Toolbox           |
|  \\    /   O peration     | Version:  2212                                  |
|   \\  /    A nd           | Website:  www.openfoam.com                      |
|    \\/     M anipulation  |                                                 |
\*---------------------------------------------------------------------------*/
FoamFile
{
    version     2.0;
    format      ascii;
    arch        "LSB;label=32;scalar=64";
    class       surfaceScalarField;
    location    "0.0126";
    object      phi;
}
// * * * * * * * * * * * * * * * * * * * * * * * * * * * * * * * * * * * * * //

dimensions      [1 0 -1 0 0 0 0];

oriented        oriented;

internalField   nonuniform List<scalar> 
4475
(
2.30648e-05
-2.3032e-05
2.68043e-05
-2.75361e-05
4.88018e-06
-1.54578e-05
-1.02947e-06
1.23244e-05
6.00451e-05
-6.81794e-05
3.1503e-06
5.08458e-06
-1.30653e-05
2.52627e-05
1.02115e-05
-2.24495e-05
-1.94083e-05
1.76914e-05
1.84717e-05
-1.72616e-05
1.62064e-05
-1.4699e-05
-1.80791e-05
1.62081e-05
-3.73196e-06
2.67856e-06
2.5645e-05
-2.49882e-05
-1.64821e-05
-1.91317e-05
1.88385e-05
1.63486e-05
1.79623e-05
-2.04989e-05
-1.74188e-05
-2.34981e-05
-1.30144e-07
2.07531e-06
2.12012e-05
-3.53897e-06
2.62882e-06
-2.28775e-05
-2.41954e-05
3.77633e-06
-2.56249e-06
2.27875e-05
-2.43146e-05
1.27511e-06
-1.29218e-06
-2.42419e-05
6.91512e-07
-8.66891e-07
-2.4004e-05
4.50179e-07
-7.87608e-07
-2.35707e-05
3.25609e-07
-8.63247e-07
3.84167e-07
-2.24553e-05
-1.61382e-06
2.20537e-05
-1.83679e-06
-2.1306e-05
9.76336e-07
2.37166e-05
-1.3874e-06
2.41915e-05
-2.62979e-07
2.44112e-05
1.10364e-07
2.45717e-05
3.89017e-07
2.48829e-05
7.91111e-07
2.73798e-05
1.03638e-06
2.43687e-05
-8.57563e-07
2.32822e-05
5.57901e-07
2.94117e-05
3.34e-06
-1.00778e-05
2.79192e-05
-2.51394e-07
8.1004e-07
2.62301e-05
-2.62755e-05
-4.14025e-06
-2.17409e-05
-2.67907e-06
2.73618e-05
-4.12707e-07
-1.76064e-07
2.68074e-05
-4.78284e-07
-3.77298e-07
2.61457e-05
-5.60625e-07
-4.90401e-07
2.52594e-05
-5.53343e-07
-5.55493e-07
2.42236e-05
-6.68676e-07
-5.62762e-07
2.29678e-05
-6.64186e-07
-5.78895e-07
2.15959e-05
-7.0311e-07
-6.00661e-07
2.01627e-05
-7.56923e-07
-5.86997e-07
1.87335e-05
-7.94208e-07
-5.76588e-07
1.73507e-05
-7.78199e-07
-5.76205e-07
1.61139e-05
-7.98353e-07
-5.63755e-07
1.5038e-05
-7.91022e-07
-5.33839e-07
1.41582e-05
-7.75168e-07
-5.01045e-07
1.35282e-05
-7.85612e-07
-4.67821e-07
-8.11154e-07
1.31794e-05
-4.48791e-07
-1.35551e-05
1.31285e-05
-1.9435e-06
-1.41988e-05
-1.97761e-06
-1.50139e-05
-2.06263e-06
-1.60852e-05
-2.05943e-06
-1.73127e-05
-2.10857e-06
-1.86477e-05
-2.1166e-06
-2.0023e-05
-2.15012e-06
-2.15327e-05
-1.95975e-06
-2.28642e-05
-1.98924e-06
-2.40513e-05
-1.91844e-06
-2.51963e-05
-1.7372e-06
-2.60361e-05
-1.65821e-06
-2.67432e-05
-1.52023e-06
-2.72182e-05
-1.37019e-06
-2.78466e-05
-8.91856e-07
-2.9344e-05
3.5348e-07
-2.29828e-05
3.98969e-06
-1.09119e-05
-2.3818e-05
2.55015e-06
-2.27576e-05
1.31873e-06
-2.29461e-05
-1.58825e-07
1.80226e-07
-2.41421e-05
-1.49401e-06
-2.41965e-05
-1.35103e-06
-2.41044e-05
-1.05744e-06
-2.38673e-05
-1.12579e-06
-2.33134e-05
-1.52743e-06
-2.29194e-05
-2.13483e-06
-7.41412e-07
-4.06569e-07
1.29905e-05
-1.89425e-06
1.29911e-05
2.37104e-05
-2.92899e-06
-2.23079e-05
2.41823e-05
-8.62301e-07
2.44903e-05
-3.22353e-07
2.47327e-05
5.72242e-09
2.52755e-05
7.8478e-08
2.60668e-05
2.42457e-08
2.53765e-05
-4.73804e-07
2.55738e-05
-7.47632e-08
2.7602e-05
6.92728e-07
2.76352e-05
-7.6103e-08
2.72103e-05
-8.48409e-07
2.67154e-05
-1.25964e-06
2.60463e-05
-1.49025e-06
2.52038e-05
-1.66664e-06
2.41555e-05
-1.73337e-06
2.29003e-05
-1.77272e-06
2.15596e-05
-1.88142e-06
2.01289e-05
-1.87876e-06
1.86992e-05
-1.89001e-06
1.733e-05
-1.88827e-06
1.61106e-05
-1.89029e-06
1.50494e-05
-1.82607e-06
1.42023e-05
-1.76959e-06
1.35751e-05
-1.69109e-06
1.31687e-05
-1.61812e-06
-2.50197e-06
-2.12682e-05
2.32633e-06
-1.55972e-06
1.30131e-05
-4.6702e-06
-1.97138e-05
-2.22138e-05
-3.53358e-06
-1.31809e-05
1.30525e-05
-2.95236e-06
-1.35877e-05
-2.97988e-06
-1.41462e-05
-3.12569e-06
-1.5011e-05
-3.16084e-06
-1.60126e-05
-3.25379e-06
-1.71943e-05
-3.31143e-06
-1.85181e-05
-3.30918e-06
-1.99898e-05
-3.26172e-06
-2.13145e-05
-3.20152e-06
-2.26334e-05
-3.13635e-06
-2.39129e-05
-2.94146e-06
-2.49415e-05
-2.7889e-06
-2.58049e-05
-2.61409e-06
-2.64774e-05
-2.39143e-06
-2.70536e-05
-2.05735e-06
-2.74536e-05
-1.48284e-06
-2.74576e-05
-3.85935e-07
-2.50502e-05
1.05793e-06
-2.39175e-05
1.0804e-06
-2.34896e-05
6.57992e-07
-2.3435e-05
-3.76361e-07
-2.38721e-05
-1.17572e-06
-2.40547e-05
-1.26914e-06
-2.39922e-05
-1.21901e-06
-2.3908e-05
-1.31807e-06
-2.36391e-05
-1.9204e-06
-2.31778e-05
-2.74376e-06
-2.06999e-05
2.6147e-05
-2.25176e-05
1.24964e-05
-2.0224e-05
-9.03663e-06
1.64623e-05
-1.44976e-05
-1.13082e-05
1.55997e-05
9.97694e-06
1.39423e-05
2.64089e-05
8.19921e-07
-3.45718e-06
-2.39966e-05
2.43125e-05
-1.01717e-06
2.43684e-05
-1.06552e-06
2.45257e-05
-6.11831e-07
2.48405e-05
-4.42743e-07
2.52322e-05
-4.67197e-07
2.56817e-05
-6.22319e-07
2.57811e-05
-8.41828e-07
2.60643e-05
-7.45846e-07
2.68504e-05
-6.49943e-07
2.71017e-05
-1.09108e-06
2.69126e-05
-1.66168e-06
2.64875e-05
-2.1053e-06
2.58785e-05
-2.43749e-06
2.50053e-05
-2.62103e-06
2.3978e-05
-2.79143e-06
2.27969e-05
-2.90183e-06
2.14253e-05
-2.98593e-06
2.00213e-05
-3.04796e-06
1.86159e-05
-3.07809e-06
1.73183e-05
-3.12769e-06
1.60938e-05
-3.07476e-06
1.50477e-05
-3.00199e-06
1.42363e-05
-2.95033e-06
1.36491e-05
-2.84286e-06
1.32544e-05
-2.69934e-06
1.30553e-05
-2.57793e-06
1.45163e-06
1.3101e-05
-2.46998e-06
3.86473e-07
1.30233e-05
-7.059e-07
1.30035e-05
-1.78375e-06
1.3028e-05
-1.82623e-05
1.75691e-05
-1.89528e-05
1.30835e-05
-2.76022e-06
-2.07248e-05
-2.41846e-05
2.33783e-05
-1.48261e-05
2.95691e-05
1.15028e-05
-2.68971e-05
-6.04455e-06
-2.10089e-05
1.95219e-05
-1.56065e-05
2.30474e-05
-2.76158e-05
1.84622e-05
1.75083e-05
-1.87714e-05
-2.65628e-05
-4.25634e-07
5.51754e-06
-2.30211e-05
-3.86791e-06
1.43185e-06
-2.36703e-06
1.32803e-05
3.96758e-07
1.32301e-05
-6.51865e-07
1.32037e-05
-1.70376e-06
1.3264e-05
-2.65685e-06
1.33062e-05
-1.32017e-05
-3.47064e-06
1.34121e-05
-1.30893e-05
-3.67564e-06
-1.32899e-05
-3.78094e-06
-1.35891e-05
-3.95148e-06
-1.42099e-05
-4.02428e-06
-1.49718e-05
-4.16197e-06
-1.59419e-05
-4.26537e-06
-1.706e-05
-4.35377e-06
-1.83373e-05
-4.31759e-06
-1.97081e-05
-4.2371e-06
-2.10715e-05
-4.17149e-06
-2.23997e-05
-4.0543e-06
-2.35583e-05
-3.87196e-06
-2.45791e-05
-3.64495e-06
-2.54145e-05
-3.40817e-06
-2.60407e-05
-3.13361e-06
-2.65323e-05
-2.6671e-06
-2.67139e-05
-2.14297e-06
-2.63771e-05
-1.33861e-06
-2.52487e-05
-4.99117e-07
-2.44731e-05
1.48632e-08
-2.36905e-05
-3.13655e-07
-2.35634e-05
-6.33868e-07
-2.37424e-05
-1.09665e-06
-2.38065e-05
-1.29859e-06
-2.3884e-05
-1.24344e-06
-2.38834e-05
-1.43636e-06
-2.39294e-05
-2.01591e-06
-3.02493e-06
-2.38206e-05
8.05371e-07
-9.33286e-07
-2.41826e-05
2.4015e-05
2.61261e-05
-3.15317e-05
2.77321e-05
-2.29308e-05
1.81202e-05
-1.76823e-05
1.7567e-05
2.28737e-05
-1.76913e-06
4.54002e-06
2.45172e-05
1.43683e-06
-3.51236e-06
2.49707e-05
1.80733e-06
2.47911e-05
1.34277e-06
-1.55507e-06
2.45438e-05
7.19355e-07
2.46778e-05
3.67679e-07
-7.84388e-07
2.52373e-05
2.65279e-08
2.47208e-05
-6.95807e-07
2.45423e-05
-1.04169e-06
2.46198e-05
-8.27229e-07
2.48772e-05
-8.26005e-07
2.51588e-05
-8.81503e-07
2.55237e-05
-1.15028e-06
2.57145e-05
-1.25479e-06
2.60331e-05
-1.38235e-06
2.64682e-05
-1.54759e-06
2.66466e-05
-1.9171e-06
2.64925e-05
-2.37193e-06
2.60902e-05
-2.82096e-06
2.55345e-05
-3.26506e-06
2.46863e-05
-3.41333e-06
2.37085e-05
-3.69693e-06
2.25217e-05
-3.81016e-06
2.12241e-05
-3.94121e-06
1.98544e-05
-4.02408e-06
1.85589e-05
-4.1492e-06
1.7246e-05
-4.12922e-06
1.60591e-05
-4.0794e-06
1.50971e-05
-4.05678e-06
1.43255e-05
-3.98153e-06
1.37285e-05
-3.8075e-06
1.33708e-05
-3.65424e-06
1.32194e-05
-3.49745e-06
1.32522e-05
-3.34621e-06
-3.22617e-06
1.34711e-05
6.55698e-06
6.47845e-05
-5.19158e-05
-1.92078e-05
-2.33402e-05
2.13458e-05
-3.89436e-05
3.8751e-05
1.21622e-05
-1.24308e-05
2.25664e-06
2.38141e-05
-1.07805e-06
-2.49556e-05
-6.09565e-05
-1.38197e-05
2.54417e-05
4.93966e-05
-2.00315e-05
-1.97313e-05
-5.95647e-06
-2.33238e-05
-2.33258e-05
-2.22996e-06
2.43556e-05
-1.32441e-05
1.34913e-05
-4.16053e-06
-1.32441e-05
-4.30242e-06
-1.33171e-05
-4.54252e-06
-1.37166e-05
-4.61028e-06
-1.42235e-05
-4.8086e-06
-1.49569e-05
-4.94471e-06
-1.58877e-05
-5.05569e-06
-1.70011e-05
-5.13299e-06
-1.82474e-05
-5.08449e-06
-1.95141e-05
-5.04099e-06
-2.08113e-05
-4.93145e-06
-2.20668e-05
-4.77433e-06
-2.31721e-05
-4.59633e-06
-2.41764e-05
-4.27476e-06
-2.49702e-05
-4.01801e-06
-2.56109e-05
-3.6544e-06
-2.59361e-05
-3.26212e-06
-2.60406e-05
-2.72041e-06
-2.57544e-05
-2.10829e-06
-2.51216e-05
-1.45533e-06
-2.44267e-05
-8.86754e-07
-2.37939e-05
-1.07546e-06
-2.36248e-05
-8.92227e-07
-2.36886e-05
-1.10854e-06
-2.37343e-05
-1.33524e-06
-2.38108e-05
-1.26946e-06
-2.39129e-05
-1.4634e-06
-2.40004e-05
-2.08786e-06
-2.43627e-05
-2.86242e-06
-3.96247e-06
-2.39399e-05
-2.01253e-05
-1.76873e-05
2.16219e-05
-1.49852e-05
-2.6613e-05
2.69442e-05
1.40846e-05
2.4674e-05
1.69971e-07
-2.7212e-05
2.49659e-05
6.4112e-07
2.51046e-05
1.19325e-06
2.49332e-05
1.09237e-06
2.48123e-05
4.80128e-07
2.48281e-05
4.67281e-08
2.49203e-05
-3.16906e-07
2.47527e-05
-7.31563e-07
2.45437e-05
-9.99912e-07
2.46694e-05
-1.08934e-06
2.47923e-05
-1.06321e-06
2.50759e-05
-1.276e-06
2.53223e-05
-1.52057e-06
2.55675e-05
-1.6636e-06
2.5834e-05
-1.88694e-06
2.60865e-05
-2.15352e-06
2.61913e-05
-2.53441e-06
2.61058e-05
-2.99292e-06
2.57898e-05
-3.44791e-06
2.51409e-05
-3.79733e-06
2.4396e-05
-4.08678e-06
2.33651e-05
-4.30799e-06
2.22293e-05
-4.50913e-06
2.09752e-05
-4.66776e-06
1.97498e-05
-4.86739e-06
1.84263e-05
-4.91364e-06
1.71648e-05
-4.90328e-06
1.609e-05
-4.92816e-06
1.51723e-05
-4.90102e-06
1.43825e-05
-4.75142e-06
1.38228e-05
-4.58153e-06
1.35041e-05
-4.43833e-06
1.33647e-05
-4.23729e-06
1.34212e-05
-4.07319e-06
1.36074e-05
-3.89709e-06
3.08928e-06
-3.75113e-06
1.39408e-05
2.28171e-06
1.38103e-05
1.3742e-06
1.36169e-05
3.89123e-07
1.35792e-05
-6.71517e-07
1.36093e-05
-1.61747e-06
1.35847e-05
-2.50017e-06
1.36391e-05
-3.28088e-06
1.37564e-05
1.38622e-05
-3.94379e-06
-4.14698e-05
-1.28074e-05
1.49812e-05
1.41857e-07
1.80717e-06
-6.04716e-05
5.86252e-05
-1.58268e-05
1.34821e-05
-1.30309e-05
1.54198e-05
-2.55011e-05
-1.86793e-05
2.59293e-05
2.46186e-05
-2.82429e-05
-9.61171e-06
1.49137e-05
2.20224e-05
-2.44956e-05
-4.07336e-06
-5.3416e-06
-2.48102e-05
-1.84145e-05
-1.93048e-05
1.70335e-05
-2.07231e-05
-1.63211e-05
1.08511e-05
-2.91021e-05
1.78966e-05
-2.19377e-05
3.25032e-05
1.69213e-05
1.92185e-05
2.52592e-05
-2.53973e-05
-2.37051e-07
2.48762e-05
5.26053e-07
2.4946e-05
6.52434e-07
2.49253e-05
6.77945e-07
2.48743e-05
1.6056e-07
2.4845e-05
-2.31244e-07
2.47971e-05
-5.37912e-07
2.46947e-05
-8.49802e-07
2.46014e-05
-1.0845e-06
2.46071e-05
-1.23225e-06
2.47731e-05
-1.33119e-06
2.49394e-05
-1.52767e-06
2.51212e-05
-1.78376e-06
2.53399e-05
-1.98402e-06
2.55452e-05
-2.24489e-06
2.57145e-05
-2.5657e-06
2.57723e-05
-2.9662e-06
2.56589e-05
-3.42396e-06
2.5272e-05
-3.81462e-06
2.46893e-05
-4.17705e-06
2.39231e-05
-4.49575e-06
2.29997e-05
-4.76292e-06
2.19064e-05
-4.96972e-06
2.07965e-05
-5.24585e-06
1.95417e-05
-5.37801e-06
1.82554e-05
-5.40476e-06
1.71381e-05
-5.51554e-06
1.61218e-05
-5.53941e-06
1.51882e-05
-5.44127e-06
1.44563e-05
-5.30423e-06
1.39723e-05
-5.17604e-06
1.36317e-05
-4.96416e-06
1.35279e-05
-4.79473e-06
1.35946e-05
-4.61193e-06
1.37937e-05
-4.40157e-06
1.41018e-05
-4.22568e-06
3.6116e-06
-4.07411e-06
1.45031e-05
2.9725e-06
1.43713e-05
2.24462e-06
1.42037e-05
1.28076e-06
1.41521e-05
3.0464e-07
1.40692e-05
-6.26016e-07
1.40366e-05
-1.55779e-06
1.40407e-05
-2.45084e-06
1.41229e-05
-3.17251e-06
1.41711e-05
-3.76883e-06
1.42818e-05
-1.39262e-05
1.43421e-05
-4.21305e-06
-1.35995e-05
-4.40021e-06
-1.34205e-05
-4.60491e-06
-1.33548e-05
-4.7987e-06
-1.35215e-05
-4.99633e-06
-1.37718e-05
-5.18465e-06
-1.42682e-05
-5.34861e-06
-1.4966e-05
-5.49182e-06
-1.58353e-05
-5.62126e-06
-1.69322e-05
-5.631e-06
-1.80948e-05
-5.63102e-06
-1.93274e-05
-5.57373e-06
-2.05477e-05
-5.46836e-06
-2.17553e-05
-5.25206e-06
-2.2844e-05
-5.06327e-06
-2.37547e-05
-4.74269e-06
-2.45011e-05
-4.43905e-06
-2.50568e-05
-4.0443e-06
-2.53975e-05
-3.65032e-06
-2.54786e-05
-3.15863e-06
-2.53104e-05
-2.6249e-06
-2.49076e-05
-2.07318e-06
-2.44702e-05
-1.45184e-06
-2.40006e-05
-1.61636e-06
-2.38378e-05
-1.10511e-06
-2.37023e-05
-1.2998e-06
-2.37091e-05
-1.40453e-06
-2.3781e-05
-1.3061e-06
-2.39366e-05
-1.45255e-06
-2.42896e-05
-1.91546e-06
-2.86382e-06
-2.45137e-05
-2.07092e-05
-1.88569e-05
2.12603e-05
-5.18698e-06
-2.49314e-05
-2.79795e-05
-5.1705e-06
8.02243e-06
-4.53878e-07
-1.86688e-05
-2.10595e-05
2.26719e-05
-2.15296e-05
-1.81529e-05
2.10427e-05
-1.77531e-05
-1.73462e-05
1.80454e-05
-2.27899e-05
-1.66998e-05
2.40223e-05
-5.77323e-07
4.15416e-06
2.5888e-05
-1.60687e-06
-2.53611e-05
2.51974e-05
-3.98347e-08
2.48698e-05
3.85067e-07
2.47166e-05
3.75674e-07
2.48248e-05
1.6302e-07
2.48117e-05
-1.80679e-07
2.48117e-05
-5.55501e-07
2.46914e-05
-6.88924e-07
2.46108e-05
-9.98321e-07
2.45421e-05
-1.19884e-06
2.4541e-05
-1.36223e-06
2.46487e-05
-1.52939e-06
2.47609e-05
-1.6988e-06
2.48921e-05
-1.95529e-06
2.50464e-05
-2.17979e-06
2.521e-05
-2.4795e-06
2.53298e-05
-2.82282e-06
2.53116e-05
-3.18814e-06
2.51516e-05
-3.6549e-06
2.47837e-05
-4.01432e-06
2.42338e-05
-4.37766e-06
2.35099e-05
-4.71135e-06
2.26333e-05
-5.00618e-06
2.16512e-05
-5.26465e-06
2.05153e-05
-5.50303e-06
1.92882e-05
-5.60732e-06
1.81905e-05
-5.77351e-06
1.71201e-05
-5.86678e-06
1.60835e-05
-5.82308e-06
1.52133e-05
-5.74562e-06
1.45747e-05
-5.66731e-06
1.40624e-05
-5.47509e-06
1.38115e-05
-5.33138e-06
1.37264e-05
-5.14302e-06
1.37627e-05
-4.91147e-06
1.39696e-05
-4.72343e-06
1.42847e-05
-4.53497e-06
1.46691e-05
-4.36246e-06
3.96955e-06
1.50809e-05
-4.22717e-06
3.53496e-06
1.49468e-05
2.91819e-06
1.48618e-05
2.14787e-06
1.47334e-05
1.32774e-06
1.46449e-05
3.6021e-07
1.46566e-05
-6.05413e-07
1.46083e-05
-1.54938e-06
1.46151e-05
-2.3621e-06
1.46263e-05
-3.09803e-06
1.46908e-05
-3.64159e-06
1.47279e-05
-4.04568e-06
1.47853e-05
-1.44155e-05
1.48397e-05
-4.28773e-06
-1.4033e-05
-4.46935e-06
-1.37269e-05
-4.66808e-06
-1.35397e-05
-4.87247e-06
-1.34821e-05
-5.08315e-06
-1.3582e-05
-5.29205e-06
-1.38661e-05
-5.4816e-06
-1.43361e-05
-5.65365e-06
-1.50021e-05
-5.79265e-06
-1.58689e-05
-5.89902e-06
-1.68334e-05
-5.95945e-06
-1.79581e-05
-5.90592e-06
-1.91361e-05
-5.85231e-06
-2.03261e-05
-5.73382e-06
-2.14401e-05
-5.53238e-06
-2.24854e-05
-5.29759e-06
-2.33469e-05
-5.00392e-06
-2.40976e-05
-4.62681e-06
-2.46037e-05
-4.28018e-06
-2.49318e-05
-3.87189e-06
-2.50435e-05
-3.41866e-06
-2.49457e-05
-2.94334e-06
-2.47034e-05
-2.43157e-06
-2.42811e-05
-1.92271e-06
-2.41396e-05
-1.77749e-06
-2.3856e-05
-1.40659e-06
-2.37876e-05
-1.40566e-06
-2.37268e-05
-1.53454e-06
-2.37774e-05
-1.36936e-06
-2.39258e-05
-1.45991e-06
-2.42019e-05
-1.83994e-06
-2.63793e-06
-2.46709e-05
-2.47578e-05
-4.09852e-06
-2.00015e-05
-2.06251e-05
-1.97067e-05
-2.16982e-05
2.19017e-05
1.15279e-05
2.38029e-05
-2.68753e-05
-8.27085e-06
-2.48043e-05
-5.45086e-06
-2.17393e-05
-1.45563e-05
9.10096e-06
-2.26918e-05
-1.69953e-05
-2.2517e-05
-1.86028e-05
-1.78632e-06
-7.22778e-06
-1.92316e-05
-8.16397e-06
-2.07321e-05
2.11313e-06
-2.50151e-05
-5.40949e-06
-1.94619e-05
-2.13392e-05
-2.09866e-05
-2.03773e-05
3.8999e-06
-4.11623e-06
1.54789e-05
3.45888e-06
1.54336e-05
2.87887e-06
1.53612e-05
2.15629e-06
1.52693e-05
1.28568e-06
1.52489e-05
3.91451e-07
1.52354e-05
-5.73011e-07
1.5244e-05
-1.4661e-06
1.52016e-05
-2.30594e-06
1.52153e-05
-2.9871e-06
1.52071e-05
-3.52294e-06
1.52096e-05
-3.91693e-06
1.52526e-05
-4.16413e-06
1.52952e-05
-1.49346e-05
-4.23039e-06
1.53423e-05
-1.45074e-05
-4.39233e-06
-1.41549e-05
-4.54487e-06
-1.3858e-05
-4.76268e-06
-1.36835e-05
-4.94688e-06
-1.36284e-05
-5.16633e-06
-1.37122e-05
-5.3864e-06
-1.39799e-05
-5.55877e-06
-1.44127e-05
-5.74162e-06
-1.5045e-05
-5.85674e-06
-1.58473e-05
-5.95758e-06
-1.68037e-05
-6.00482e-06
-1.78207e-05
-5.9937e-06
-1.89426e-05
-5.89201e-06
-2.00736e-05
-5.76929e-06
-2.11339e-05
-5.58953e-06
-2.21319e-05
-5.32021e-06
-2.29923e-05
-5.02896e-06
-2.36507e-05
-4.69334e-06
-2.41745e-05
-4.31102e-06
-2.45062e-05
-3.92936e-06
-2.46524e-05
-3.51363e-06
-2.46292e-05
-3.07945e-06
-2.44575e-05
-2.63255e-06
-2.41756e-05
-2.18999e-06
-2.38735e-05
-2.05395e-06
-2.38912e-05
-1.37706e-06
-2.36973e-05
-1.61888e-06
-2.38281e-05
-1.46477e-06
-2.37864e-05
-1.51716e-06
-2.38896e-05
-1.51284e-06
-2.4202e-05
-1.72946e-06
-2.25323e-06
-2.4823e-05
-4.02154e-06
-2.50354e-05
1.79742e-05
-1.65994e-05
-1.95703e-05
-1.90091e-05
-2.2663e-05
1.86447e-05
-1.01065e-05
1.07057e-05
-1.89748e-05
5.95831e-05
-3.33834e-06
-5.82632e-05
2.22884e-06
2.46405e-05
-3.92654e-09
-2.51581e-05
2.4534e-05
7.93643e-08
2.45973e-05
-6.195e-08
2.46841e-05
-2.59544e-07
2.46839e-05
-4.99416e-07
2.46646e-05
-8.27647e-07
2.45847e-05
-8.65488e-07
2.45115e-05
-1.14206e-06
2.44468e-05
-1.30943e-06
2.44307e-05
-1.46622e-06
2.44622e-05
-1.6334e-06
2.45626e-05
-1.82925e-06
2.46529e-05
-2.04697e-06
2.47658e-05
-2.2796e-06
2.48627e-05
-2.57458e-06
2.49158e-05
-2.91753e-06
2.49062e-05
-3.30066e-06
2.46776e-05
-3.67799e-06
2.43148e-05
-4.04847e-06
2.3788e-05
-4.40726e-06
2.30986e-05
-4.74324e-06
2.22619e-05
-5.04762e-06
2.13026e-05
-5.31864e-06
2.0237e-05
-5.54985e-06
1.9179e-05
-5.71774e-06
1.80535e-05
-5.81964e-06
1.70071e-05
-5.94018e-06
1.60533e-05
-5.89089e-06
1.52849e-05
-5.86362e-06
1.46296e-05
-5.73673e-06
1.42141e-05
-5.60986e-06
1.39776e-05
-5.47004e-06
1.38513e-05
-5.22473e-06
1.39162e-05
-5.03331e-06
1.4123e-05
-4.85748e-06
1.44372e-05
-4.67247e-06
1.47955e-05
-4.46843e-06
1.51931e-05
-4.32624e-06
1.55833e-05
-4.18882e-06
-2.02469e-05
-2.28396e-05
2.27171e-05
-2.14927e-05
-2.14697e-05
5.52741e-05
-1.73992e-06
4.61347e-06
-5.80718e-05
-2.09405e-05
-6.18431e-06
-1.52066e-05
-2.43282e-05
-6.22957e-06
-1.49747e-05
1.535e-05
-4.14168e-06
-1.46169e-05
-4.29716e-06
-1.42614e-05
-4.4835e-06
-1.40117e-05
-4.65695e-06
-1.38169e-05
-4.87331e-06
-1.37711e-05
-5.05513e-06
-1.38609e-05
-5.27181e-06
-1.40837e-05
-5.46072e-06
-1.45093e-05
-5.60042e-06
-1.50692e-05
-5.74248e-06
-1.58226e-05
-5.80279e-06
-1.67079e-05
-5.85125e-06
-1.77062e-05
-5.82937e-06
-1.8741e-05
-5.7511e-06
-1.98167e-05
-5.59876e-06
-2.08542e-05
-5.42084e-06
-2.17823e-05
-5.18072e-06
-2.2598e-05
-4.88623e-06
-2.32655e-05
-4.56128e-06
-2.37589e-05
-4.20714e-06
-2.40992e-05
-3.8384e-06
-2.42759e-05
-3.4623e-06
-2.43063e-05
-3.07414e-06
-2.42077e-05
-2.68776e-06
-2.402e-05
-2.30838e-06
-2.40194e-05
-1.98877e-06
-2.37061e-05
-1.6505e-06
-2.36156e-05
-1.71088e-06
-2.36716e-05
-1.45864e-06
-2.37885e-05
-1.49852e-06
-2.38664e-05
-1.57655e-06
-2.4099e-05
-1.67655e-06
-2.48214e-05
-1.74324e-06
-3.64325e-06
-2.54941e-05
1.86896e-05
-1.57072e-05
1.45133e-05
-2.38836e-05
-1.70269e-05
4.04212e-06
-4.08846e-06
1.59411e-05
3.80421e-06
1.58981e-05
3.40311e-06
1.58868e-05
2.86785e-06
1.58293e-05
2.12669e-06
1.58427e-05
1.25771e-06
1.58747e-05
3.55881e-07
1.58492e-05
-5.26461e-07
1.58251e-05
-1.44021e-06
1.58342e-05
-2.23975e-06
1.57855e-05
-2.91772e-06
1.57368e-05
-3.47965e-06
1.57281e-05
-3.85878e-06
1.57091e-05
-4.06471e-06
1.57078e-05
-4.12076e-06
1.57334e-05
-4.05863e-06
1.57416e-05
2.17725e-05
-1.71673e-05
-2.17804e-05
2.41132e-05
-2.05741e-05
2.33129e-05
-1.84531e-05
2.23872e-05
-1.6655e-05
-1.54827e-05
-1.77385e-05
1.58179e-05
1.84603e-05
-9.14288e-06
-2.61651e-05
-1.58674e-05
1.54296e-05
-1.74821e-06
2.49491e-06
-1.18768e-05
-2.05102e-05
1.94185e-05
2.39695e-05
-1.15721e-07
-2.40976e-05
2.41579e-05
-3.76725e-07
2.43515e-05
-5.22437e-07
2.44765e-05
-6.52137e-07
2.45495e-05
-8.25886e-07
2.44602e-05
-9.80387e-07
2.44767e-05
-1.10821e-06
2.43966e-05
-1.2599e-06
2.43284e-05
-1.39741e-06
2.42928e-05
-1.53497e-06
2.42934e-05
-1.68703e-06
2.43236e-05
-1.86407e-06
2.43834e-05
-2.07259e-06
2.44584e-05
-2.29433e-06
2.45245e-05
-2.57701e-06
2.45359e-05
-2.88756e-06
2.44419e-05
-3.23223e-06
2.42231e-05
-3.58656e-06
2.38631e-05
-3.93797e-06
2.33516e-05
-4.28198e-06
2.2688e-05
-4.60785e-06
2.18851e-05
-4.90775e-06
2.09644e-05
-5.17575e-06
1.99573e-05
-5.4036e-06
1.89169e-05
-5.57988e-06
1.79008e-05
-5.70173e-06
1.68959e-05
-5.77997e-06
1.60359e-05
-5.77943e-06
1.52767e-05
-5.72367e-06
1.47192e-05
-5.64701e-06
1.4341e-05
-5.53891e-06
1.40551e-05
-5.33113e-06
1.40115e-05
-5.17806e-06
1.41021e-05
-4.98724e-06
1.42934e-05
-4.79925e-06
1.4536e-05
-4.5778e-06
1.48856e-05
-4.4194e-06
1.52659e-05
-4.27263e-06
1.56353e-05
-4.1132e-06
1.59904e-05
-4.00951e-06
3.92039e-06
5.45705e-05
-3.15391e-06
-6.23066e-06
-2.45842e-05
-1.66104e-05
9.34377e-06
-2.0424e-05
-2.45378e-05
2.40486e-05
-2.02935e-05
-2.45001e-05
-2.16644e-05
-2.32933e-05
-5.84156e-05
-5.33535e-06
6.21007e-05
5.92193e-05
2.5864e-06
-5.49704e-05
2.03925e-05
-6.01882e-06
-2.48772e-05
-1.18746e-06
-2.75365e-05
1.9169e-05
1.35221e-05
-1.45793e-05
-1.31154e-05
-4.42683e-05
1.56422e-05
8.28688e-06
-1.44896e-05
-1.81995e-05
2.47212e-05
1.524e-06
-6.24452e-05
-5.85052e-06
6.70004e-05
-1.53368e-05
1.56576e-05
-3.82163e-06
-1.49835e-05
-3.92252e-06
-1.46274e-05
-4.08597e-06
-1.43299e-05
-4.24021e-06
-1.40706e-05
-4.42474e-06
-1.39205e-05
-4.60457e-06
-1.38428e-05
-4.80934e-06
-1.39233e-05
-4.98407e-06
-1.41518e-05
-5.15839e-06
-1.45189e-05
-5.30417e-06
-1.50658e-05
-5.41547e-06
-1.57452e-05
-5.48699e-06
-1.65747e-05
-5.51311e-06
-1.75096e-05
-5.4873e-06
-1.85122e-05
-5.40471e-06
-1.95202e-05
-5.26649e-06
-2.05057e-05
-5.0857e-06
-2.14137e-05
-4.8579e-06
-2.21984e-05
-4.58985e-06
-2.28383e-05
-4.29272e-06
-2.3335e-05
-3.9576e-06
-2.36766e-05
-3.62582e-06
-2.38829e-05
-3.28315e-06
-2.3965e-05
-2.94133e-06
-2.39287e-05
-2.62405e-06
-2.38009e-05
-2.32183e-06
-2.36984e-05
-1.99229e-06
-2.36672e-05
-1.6179e-06
-2.36307e-05
-1.72986e-06
-2.3657e-05
-1.46595e-06
-2.37294e-05
-1.50512e-06
-2.38831e-05
-1.54029e-06
-2.42327e-05
-1.47534e-06
-2.47073e-05
-1.42748e-06
-4.06411e-07
-2.56659e-05
2.08375e-05
-1.5265e-05
-3.6656e-05
3.17906e-05
-1.87854e-05
2.54191e-05
-1.86302e-05
-4.40503e-05
4.04156e-06
-3.93174e-06
1.62865e-05
4.00511e-06
1.62629e-05
3.77107e-06
1.62907e-05
3.40186e-06
1.62885e-05
2.83511e-06
1.63125e-05
2.11918e-06
1.63785e-05
1.32375e-06
1.64181e-05
4.36047e-07
1.64419e-05
-5.23352e-07
1.64768e-05
-1.40726e-06
1.64286e-05
-2.20883e-06
1.63466e-05
-2.90455e-06
1.62692e-05
-3.43515e-06
1.61959e-05
-3.79334e-06
1.61236e-05
-4.00211e-06
1.60991e-05
-4.0483e-06
1.60882e-05
-3.92649e-06
1.6046e-05
-3.70551e-06
1.59655e-05
-1.60559e-05
2.56323e-05
-2.0065e-05
2.39028e-05
-1.73127e-05
2.20756e-05
-1.53293e-05
1.94702e-05
-1.32706e-05
-1.46368e-05
1.7131e-05
3.69852e-06
-4.9342e-06
2.50154e-05
-2.85944e-05
2.38832e-05
4.67973e-07
-2.34074e-05
-1.03069e-06
2.38454e-05
-2.03099e-07
2.39923e-05
-6.48883e-07
2.41747e-05
-8.39862e-07
2.43287e-05
-9.55556e-07
2.43988e-05
-1.0577e-06
2.43926e-05
-1.14666e-06
2.43578e-05
-1.24499e-06
2.42715e-05
-1.3324e-06
2.41879e-05
-1.4393e-06
2.4127e-05
-1.5543e-06
2.40951e-05
-1.68402e-06
2.40873e-05
-1.83491e-06
2.40998e-05
-2.01908e-06
2.41272e-05
-2.22279e-06
2.4138e-05
-2.47243e-06
2.41092e-05
-2.75365e-06
2.3993e-05
-3.06039e-06
2.37643e-05
-3.38133e-06
2.34045e-05
-3.70325e-06
2.29026e-05
-4.02114e-06
2.22592e-05
-4.32662e-06
2.14838e-05
-4.60973e-06
2.05988e-05
-4.86547e-06
1.96348e-05
-5.08181e-06
1.86399e-05
-5.25673e-06
1.76616e-05
-5.38145e-06
1.67358e-05
-5.45447e-06
1.59213e-05
-5.46893e-06
1.52543e-05
-5.43604e-06
1.47303e-05
-5.36016e-06
1.43247e-05
-5.22115e-06
1.41427e-05
-5.09103e-06
1.40847e-05
-4.92736e-06
1.41697e-05
-4.76138e-06
1.43167e-05
-4.53892e-06
1.46002e-05
-4.38072e-06
1.49301e-05
-4.21923e-06
1.52457e-05
-4.03353e-06
1.56108e-05
-3.92075e-06
1.59311e-05
-3.78728e-06
1.62182e-05
-3.7064e-06
2.24443e-05
-1.76187e-05
-2.26163e-05
-7.32962e-06
-2.47232e-05
2.31368e-05
-2.58925e-05
-2.4334e-05
2.3678e-05
-1.874e-05
1.87213e-05
-2.49468e-05
-1.92986e-05
1.92461e-05
-2.02167e-05
-2.58052e-05
-2.41803e-05
-6.99639e-06
-2.68704e-05
-2.51069e-05
-2.17421e-05
-2.44535e-05
-2.39865e-05
6.34413e-05
-6.16637e-05
1.91684e-08
2.80329e-05
-2.09833e-05
1.67592e-05
-2.42748e-05
-6.30852e-05
5.67059e-05
-7.40531e-06
1.94971e-05
-1.13735e-05
2.34983e-05
3.97086e-06
-1.29666e-05
2.15428e-05
1.18373e-05
5.69201e-05
-5.69671e-05
4.74259e-06
4.99126e-06
5.59151e-05
2.43493e-05
-1.33165e-06
2.40456e-05
-1.21516e-06
2.38176e-05
-1.34357e-06
2.36217e-05
-1.42877e-06
2.35515e-05
-1.4889e-06
2.35446e-05
-1.47161e-06
2.33796e-05
-1.52575e-06
2.35445e-05
-1.69419e-06
2.35771e-05
-1.89547e-06
2.35776e-05
-2.16927e-06
2.35406e-05
-2.43755e-06
2.34143e-05
-2.69882e-06
2.3178e-05
-2.99025e-06
2.28183e-05
-3.29235e-06
2.23314e-05
-3.59552e-06
2.16945e-05
-3.8856e-06
2.0932e-05
-4.15654e-06
2.00559e-05
-4.39271e-06
1.91131e-05
-4.60615e-06
1.81461e-05
-4.77707e-06
1.71943e-05
-4.9028e-06
1.63117e-05
-4.98641e-06
1.55314e-05
-5.01391e-06
1.48831e-05
-4.99629e-06
1.43838e-05
-4.93837e-06
1.40348e-05
-4.83968e-06
1.38333e-05
-4.70966e-06
1.37738e-05
-4.55857e-06
1.38255e-05
-4.3944e-06
1.39759e-05
-4.20807e-06
1.42111e-05
-4.05425e-06
1.44874e-05
-3.87349e-06
1.47913e-05
-3.73032e-06
1.51194e-05
-3.59286e-06
1.54069e-05
-3.46948e-06
1.56913e-05
-3.38063e-06
4.24199e-06
5.47812e-05
-4.39236e-06
3.90709e-06
-3.64997e-06
1.64331e-05
4.02635e-06
1.65322e-05
3.97375e-06
1.65601e-05
3.78613e-06
1.65967e-05
3.43365e-06
1.66347e-05
2.88232e-06
1.67446e-05
2.21355e-06
1.68326e-05
1.38996e-06
1.69559e-05
4.48079e-07
1.70555e-05
-4.96272e-07
1.70799e-05
-1.40439e-06
1.70132e-05
-2.23559e-06
1.69018e-05
-2.92607e-06
1.67595e-05
-3.43658e-06
1.66065e-05
-3.79033e-06
1.64931e-05
-3.97566e-06
1.64255e-05
-3.9824e-06
1.6362e-05
-3.87014e-06
1.63191e-05
-3.60705e-06
1.61918e-05
-3.2701e-06
1.59264e-05
2.25843e-05
-1.59742e-05
-1.09322e-05
-2.42383e-05
-1.82062e-05
2.28928e-05
1.83184e-05
1.35543e-05
6.40236e-05
-4.99071e-05
-2.75371e-05
9.34013e-06
-5.41022e-05
6.74855e-06
-5.54045e-05
6.02302e-06
-5.61581e-05
5.64239e-05
5.49696e-06
-5.57928e-05
5.58294e-05
5.43798e-06
5.53907e-05
5.52271e-06
-6.53254e-06
9.11364e-06
5.28776e-05
2.2806e-05
-1.57734e-05
2.2044e-06
5.27539e-05
-5.27798e-05
-2.11975e-06
1.56398e-05
2.68866e-05
-1.49352e-05
1.42083e-05
3.25647e-05
-3.68715e-05
-1.03159e-05
3.14826e-05
-2.51593e-05
-1.84335e-05
2.42043e-05
-2.60151e-05
-1.90807e-05
-1.97899e-05
-2.70598e-05
-7.23779e-06
-2.33508e-05
2.2158e-05
-1.77709e-05
-2.26584e-05
3.09043e-07
2.26056e-06
2.79507e-05
-1.68042e-05
2.52102e-05
-1.50692e-05
2.26755e-05
-1.31863e-05
2.15166e-05
-1.23845e-05
-1.21858e-05
1.89266e-05
-1.94612e-05
2.77841e-05
8.7532e-06
1.33585e-05
-8.04142e-06
-1.73691e-05
1.2216e-05
2.34583e-05
2.52491e-06
-2.47217e-06
-2.33667e-05
2.34619e-05
5.67767e-07
2.3634e-05
-2.93986e-07
2.3819e-05
-7.68496e-07
2.39915e-05
-9.90974e-07
2.41286e-05
-1.10984e-06
2.42043e-05
-1.18496e-06
2.42224e-05
-1.24218e-06
2.41723e-05
-1.29277e-06
2.4092e-05
-1.35504e-06
2.39874e-05
-1.41949e-06
2.39003e-05
-1.51475e-06
2.38303e-05
-1.61458e-06
2.37812e-05
-1.73601e-06
2.37487e-05
-1.89029e-06
2.37312e-05
-2.07177e-06
2.37001e-05
-2.28275e-06
2.3631e-05
-2.52693e-06
2.34872e-05
-2.79176e-06
2.32451e-05
-3.07508e-06
2.28774e-05
-3.35495e-06
2.23768e-05
-3.63828e-06
2.17492e-05
-3.92043e-06
2.09936e-05
-4.17401e-06
2.01404e-05
-4.41315e-06
1.92099e-05
-4.60629e-06
1.82566e-05
-4.77603e-06
1.73195e-05
-4.89415e-06
1.64487e-05
-4.97117e-06
1.56715e-05
-4.98295e-06
1.50423e-05
-4.97694e-06
1.45504e-05
-4.90311e-06
1.42324e-05
-4.79936e-06
1.40516e-05
-4.67277e-06
1.40047e-05
-4.5219e-06
1.40491e-05
-4.34457e-06
1.42172e-05
-4.16431e-06
1.4478e-05
-4.03922e-06
1.47458e-05
-3.84795e-06
1.50824e-05
-3.71596e-06
1.54052e-05
-3.59304e-06
1.56973e-05
-3.44837e-06
1.59723e-05
-3.38216e-06
1.61854e-05
-3.30365e-06
2.71184e-05
1.759e-05
-2.84057e-05
2.55608e-05
1.67143e-05
-1.43433e-05
1.60889e-05
2.3362e-05
-5.76265e-05
4.65336e-07
5.89909e-05
-1.76172e-06
2.33202e-05
-1.11513e-05
-8.29061e-06
-2.37946e-05
1.05295e-06
6.01319e-05
-1.09145e-06
1.52516e-05
2.03676e-05
-1.25949e-05
5.37041e-06
5.64605e-05
-8.43903e-06
-5.33003e-05
-2.64139e-05
-2.37791e-05
-2.64572e-05
-2.1538e-05
-2.66361e-05
1.77672e-05
-2.66264e-05
2.50333e-05
2.58446e-05
-1.83078e-05
-2.72094e-05
2.45777e-05
5.36856e-05
-2.78741e-05
6.16285e-05
1.73343e-06
3.03163e-07
-5.75884e-05
1.29478e-05
5.38565e-05
3.03299e-05
-2.63654e-05
-3.60323e-05
-2.9027e-05
-1.03986e-05
2.79328e-05
-1.2885e-05
-5.8024e-05
6.08714e-06
-5.80593e-05
5.61879e-06
-5.68844e-05
4.46962e-06
2.37839e-05
-1.31546e-06
2.37606e-05
-1.21765e-06
2.35863e-05
-1.21303e-06
2.3408e-05
-1.29192e-06
2.32405e-05
-1.34412e-06
2.31867e-05
-1.40248e-06
2.31023e-05
-1.37869e-06
2.31144e-05
-1.59414e-06
2.30527e-05
-1.67707e-06
2.29845e-05
-1.91421e-06
2.28622e-05
-2.12142e-06
2.27178e-05
-2.38018e-06
2.24653e-05
-2.60784e-06
2.21049e-05
-2.86892e-06
2.16102e-05
-3.12063e-06
2.09796e-05
-3.36487e-06
2.02295e-05
-3.60226e-06
1.93803e-05
-3.80883e-06
1.84659e-05
-3.99824e-06
1.75313e-05
-4.15313e-06
1.6619e-05
-4.2657e-06
1.57747e-05
-4.34538e-06
1.50346e-05
-4.37627e-06
1.4424e-05
-4.3684e-06
1.39516e-05
-4.3202e-06
1.36256e-05
-4.24022e-06
1.34401e-05
-4.13132e-06
1.33805e-05
-4.00097e-06
1.34271e-05
-3.85645e-06
1.35777e-05
-3.70728e-06
1.3769e-05
-3.549e-06
1.40218e-05
-3.40476e-06
1.43093e-05
-3.28898e-06
1.45856e-05
-3.14912e-06
1.48679e-05
-3.0539e-06
1.51052e-05
-2.95179e-06
1.5341e-05
-2.87618e-06
-2.26055e-05
-1.0255e-05
2.06484e-05
-2.46529e-05
-1.05025e-05
-2.69042e-05
-1.12236e-05
-3.01112e-05
-1.22568e-05
-3.38741e-05
-1.35093e-05
-3.85053e-05
-1.46602e-05
-4.48524e-05
3.04977e-05
3.98374e-05
-1.3172e-05
2.22704e-05
-2.26536e-05
2.17494e-05
-1.77882e-05
2.31402e-05
1.71147e-05
2.3482e-05
-3.63134e-06
5.34144e-05
3.13576e-06
3.36482e-06
5.36653e-05
1.72254e-05
-3.16376e-05
-1.44214e-05