/*--------------------------------*- C++ -*----------------------------------*\
| =========                 |                                                 |
| \\      /  F ield         | OpenFOAM: The Open Source CFD Toolbox           |
|  \\    /   O peration     | Version:  2212                                  |
|   \\  /    A nd           | Website:  www.openfoam.com                      |
|    \\/     M anipulation  |                                                 |
\*---------------------------------------------------------------------------*/
FoamFile
{
    version     2.0;
    format      ascii;
    arch        "LSB;label=32;scalar=64";
    class       surfaceScalarField;
    location    "0.0468";
    object      phi;
}
// * * * * * * * * * * * * * * * * * * * * * * * * * * * * * * * * * * * * * //

dimensions      [1 0 -1 0 0 0 0];

oriented        oriented;

internalField   nonuniform List<scalar> 
4475
(
3.82744e-05
-3.56864e-05
-4.56088e-05
4.86898e-05
-8.62883e-06
-6.89209e-05
1.058e-05
6.01681e-05
-7.14035e-05
8.70779e-05
2.1088e-05
-2.62913e-05
-1.61132e-05
-0.000157132
3.13705e-05
0.000144243
-9.24022e-05
9.0507e-05
8.50099e-05
-8.64386e-05
3.79122e-05
-9.12318e-05
-5.65151e-05
0.000111491
2.36946e-05
-5.28441e-05
0.000138323
-0.000101288
-6.45967e-05
-3.09089e-05
8.93397e-05
4.89539e-06
6.51324e-05
-9.17784e-05
-7.03305e-05
-0.000732445
-2.95316e-05
6.28804e-05
0.000692488
-0.000125266
6.23465e-05
-0.00067361
-0.000646967
0.000108652
-0.00010533
0.000645167
-0.000602555
3.87159e-05
-7.80456e-05
-0.000551665
2.63934e-05
-6.93106e-05
-0.000495778
2.14849e-05
-6.59001e-05
-0.00043719
2.00938e-05
-6.45176e-05
1.95747e-05
-0.000370482
-7.12875e-05
0.000378361
-4.15681e-05
-0.000327066
2.97918e-06
0.000453465
-4.27085e-05
0.000514717
-2.94172e-05
0.000573446
-2.69213e-05
0.000631388
-2.40762e-05
0.00069512
-2.0983e-05
0.000818986
-1.46367e-05
0.000766155
-7.64869e-05
0.000771528
-4.19221e-05
0.00101439
5.19272e-05
-0.000304739
0.000982343
4.80384e-05
-2.80551e-05
0.000192508
-0.000155651
-3.99348e-06
-0.000318306
-7.88966e-05
0.000979579
5.65753e-05
-6.61853e-05
0.000971766
6.5916e-05
-7.32409e-05
0.000950442
7.87355e-05
-7.2898e-05
0.000920042
9.19057e-05
-6.80651e-05
0.000875477
9.79756e-05
-5.53835e-05
0.000813461
0.000101641
-3.96995e-05
0.000737824
9.88984e-05
-2.3741e-05
0.000652025
9.03782e-05
-7.24966e-06
0.000562585
7.92599e-05
6.24031e-06
0.000476138
6.93343e-05
1.30038e-05
0.000400691
6.22556e-05
1.05307e-05
0.000338222
6.14834e-05
5.77638e-08
0.000288371
6.56208e-05
-1.67076e-05
0.000247331
7.12973e-05
-3.37782e-05
7.90025e-05
0.000210867
-5.09619e-05
-0.000254357
0.000217932
0.000105948
-0.00029452
0.000106904
-0.000341647
0.000110884
-0.000401679
0.000119918
-0.000473894
0.000131656
-0.000554799
0.000146089
-0.000637673
0.000157868
-0.000720201
0.000169914
-0.000789445
0.000166902
-0.000844694
0.00015608
-0.00088855
0.000139227
-0.00091549
0.000112036
-0.000935367
8.41806e-05
-0.000940253
5.63827e-05
-0.000935552
3.89261e-05
-0.000947024
4.82729e-05
-0.000698
0.000126732
-0.0003844
-0.000684511
4.28245e-05
-0.00061297
-1.22834e-05
-0.0005731
-6.82758e-05
2.89737e-05
-0.000566548
-0.000108311
-0.000527194
-0.000109972
-0.000479898
-0.000105796
-0.000428737
-0.000103806
-0.000374657
-0.00010325
-0.000326616
-0.000103096
8.56872e-05
-6.31127e-05
0.000173772
0.000105354
0.000183137
0.000414092
-0.00010306
-0.000340873
0.000474081
-7.90824e-05
0.000532939
-7.76817e-05
0.000592167
-7.76044e-05
0.000656671
-8.20433e-05
0.000728852
-8.66424e-05
0.000750082
-0.000101212
0.000792825
-9.17664e-05
0.00089389
-5.79843e-05
0.000924887
-6.94977e-05
0.00092726
-7.93038e-05
0.000918656
-7.67207e-05
0.000895608
-6.31987e-05
0.000862797
-4.02063e-05
0.000815896
-9.23199e-06
0.000753825
2.33277e-05
0.000680439
5.01141e-05
0.000597971
7.40141e-05
0.000513259
8.80462e-05
0.000433596
8.97195e-05
0.000365949
7.66274e-05
0.000311391
5.45005e-05
0.000267646
2.73097e-05
0.000230246
1.77376e-06
0.00019523
-2.23298e-05
-4.41233e-05
-0.000287289
1.76858e-05
-4.08067e-05
0.000160955
-9.25166e-05
-0.000256745
-0.000281434
-0.000108745
-0.00021885
0.000188404
0.000121742
-0.000250244
0.000127771
-0.000283159
0.000134972
-0.000323458
0.000149304
-0.000372227
0.000167669
-0.000431761
0.000189439
-0.000499916
0.000211265
-0.000573283
0.000227663
-0.000639292
0.000232933
-0.000698717
0.000224576
-0.000748671
0.000204723
-0.000782852
0.00017062
-0.000805097
0.000128239
-0.000818629
8.50448e-05
-0.000820825
4.64264e-05
-0.000808738
1.65142e-05
-0.000773504
4.21041e-06
-0.000657528
3.55915e-06
-0.000585995
-3.37064e-05
-0.000530386
-6.92648e-05
-0.000487494
-0.000109155
-0.00045733
-0.000132887
-0.000419971
-0.000138228
-0.000377043
-0.000136659
-0.000334042
-0.000132343
-0.000291817
-0.000129869
-0.000253528
-0.000126328
-6.35438e-05
-3.54859e-06
-1.64677e-06
8.10059e-05
-2.96235e-05
-6.3894e-05
1.38777e-05
-9.80596e-05
-2.9936e-05
0.000120396
1.0893e-05
2.28936e-05
0.000333365
-7.58408e-05
9.83227e-06
-0.000252029
0.000347548
-0.000104675
0.000393204
-0.000116024
0.000442993
-0.000120996
0.000496865
-0.000127258
0.000552183
-0.000134668
0.000607298
-0.000141105
0.000648626
-0.000144755
0.00068765
-0.000135912
0.000741252
-0.000118571
0.000773025
-0.000108393
0.000783236
-9.6965e-05
0.000775291
-7.79974e-05
0.000752237
-4.94782e-05
0.000719165
-9.6636e-06
0.000675392
3.47965e-05
0.000621482
7.9768e-05
0.000556238
0.000117667
0.000486865
0.000144387
0.00041843
0.000156523
0.000357941
0.00015017
0.000306742
0.000128688
0.00026612
9.70152e-05
0.000233206
6.19876e-05
0.00020421
3.04326e-05
0.000175209
2.83259e-06
0.000145703
-1.913e-05
6.19787e-05
0.000118477
-4.40106e-05
8.04394e-05
0.000126508
9.73687e-05
0.00013758
0.000111646
0.000149673
-8.07305e-05
9.88619e-05
-5.22035e-05
0.000160143
0.000123787
3.67646e-05
-3.69196e-05
-7.15483e-05
8.32336e-05
-4.5045e-05
-8.20928e-05
3.6344e-05
-0.000121595
-0.000238904
-1.8905e-05
-6.30948e-06
7.96119e-05
-6.05117e-05
0.000107075
8.20305e-05
-0.000100951
-0.000309651
-2.42519e-05
6.10558e-05
-0.000223419
-0.000124765
7.28097e-05
-5.78165e-05
9.82173e-05
8.64413e-05
9.99893e-05
9.81233e-05
0.000108764
0.000108561
0.000122573
0.000119251
0.000137304
-0.00016914
0.000131012
0.000152097
-0.000189727
0.000133252
-0.000214035
0.000134395
-0.000236594
0.000141738
-0.000261057
0.000155113
-0.000287566
0.000174723
-0.00031988
0.000200307
-0.000359653
0.000229224
-0.000406722
0.000257116
-0.000457782
0.000276456
-0.000507383
0.000280123
-0.00055161
0.000267028
-0.00058534
0.000237115
-0.000609005
0.000191699
-0.000623955
0.000138155
-0.000632262
8.39205e-05
-0.000631035
3.62068e-05
-0.000615556
-6.45165e-06
-0.000579944
-3.78117e-05
-0.000517707
-6.3962e-05
-0.000463541
-9.0541e-05
-0.00040982
-0.000122145
-0.000369759
-0.000145033
-0.000335508
-0.000159607
-0.000299438
-0.00016385
-0.000263468
-0.000159862
-0.000227911
-0.000153675
-0.000196707
-0.000146948
-0.00013877
-0.000170928
-6.63441e-05
3.85822e-05
-0.000164891
0.0002049
5.79477e-05
2.54989e-05
-2.82308e-05
-5.01168e-05
0.00011127
-9.71918e-05
6.9381e-05
1.64515e-05
-7.74971e-05
5.56321e-05
4.38505e-05
-7.38101e-05
4.86107e-05
7.46224e-05
-7.64775e-05
0.000105363
-8.16975e-05
6.00476e-05
0.000138626
-8.8918e-05
0.000177161
-9.88049e-05
7.18855e-05
0.00022226
-0.000109942
0.000253154
-0.000126973
0.000287172
-0.000143693
0.0003257
-0.000154945
0.000368042
-0.000166177
0.000410675
-0.000174628
0.000452831
-0.000181512
0.000488293
-0.000180077
0.000522158
-0.000171422
0.000555295
-0.000154636
0.000576488
-0.000132981
0.000581877
-0.000106215
0.000572149
-7.29596e-05
0.000551172
-3.18153e-05
0.000521193
2.02617e-05
0.000484204
7.45746e-05
0.000440636
0.000128085
0.000392839
0.000170165
0.000344375
0.000196934
0.000301974
0.000202454
0.000265061
0.000190455
0.000236311
0.000161067
0.000213816
0.000123282
0.000193307
8.5601e-05
0.000172263
5.28837e-05
0.000151545
2.2598e-05
0.000129797
-1.27029e-07
0.000111239
-2.77538e-05
-4.4405e-05
9.88256e-05
-2.44925e-06
-8.68055e-05
7.3035e-05
2.23936e-05
-5.78911e-05
6.8127e-05
-8.44482e-06
6.33098e-06
-2.01459e-05
2.04608e-05
8.37632e-05
-0.000120147
-5.74396e-05
9.5744e-05
2.59954e-05
2.94009e-05
-2.26559e-05
-2.13519e-05
5.71328e-05
-1.84008e-05
-0.000125989
-0.000205255
-0.000205588
-3.00071e-06
0.000259647
-0.000177376
0.000168017
0.000141354
-0.000190428
0.000141255
-0.000204432
0.000140727
-0.000218846
0.000149781
-0.000230907
0.000164064
-0.000242886
0.00018681
-0.000256678
0.000215931
-0.000274359
0.00024872
-0.00029695
0.000280311
-0.000322555
0.000301237
-0.000348749
0.00030459
-0.000373314
0.000289807
-0.000392865
0.000255341
-0.000408308
0.000205219
-0.00041809
0.000144077
-0.000424538
8.38413e-05
-0.000421807
2.72226e-05
-0.000410527
-2.30134e-05
-0.00038594
-6.69807e-05
-0.000350526
-0.000102159
-0.000310833
-0.000130333
-0.000272665
-0.000157372
-0.00024024
-0.000171491
-0.000210476
-0.000180635
-0.000180975
-0.000182535
-0.000152125
-0.000176439
-0.000125398
-0.000167472
-0.000103221
-0.000156446
-8.45958e-05
-0.000144989
-0.000130538
-0.000151853
-7.19196e-05
-2.61955e-05
8.68962e-05
-1.10043e-05
9.05941e-05
-0.00010083
1.20737e-05
-1.56816e-05
-7.3639e-05
8.28186e-06
-5.16168e-06
-8.31685e-05
1.44822e-05
-8.96016e-05
3.78883e-05
-9.70912e-05
6.26906e-05
-0.000106047
8.94893e-05
-0.000117694
0.000118099
-0.000131257
0.000143463
-0.000147204
0.000167658
-0.000163935
0.000195156
-0.000179327
0.000223628
-0.000191487
0.000253553
-0.000201261
0.000281643
-0.000205983
0.000307647
-0.000202689
0.000330214
-0.000191162
0.000348723
-0.000171004
0.000359551
-0.000142483
0.000360004
-0.000105531
0.000349735
-6.18991e-05
0.000329044
-1.02985e-05
0.000304936
4.75849e-05
0.000276622
0.000108426
0.000249144
0.000162474
0.000223048
0.000203357
0.000202057
0.000224914
0.000185591
0.000225633
0.000175446
0.000207025
0.00016921
0.00017336
0.000162262
0.000135618
0.000152119
9.99897e-05
0.000139303
6.8645e-05
0.000126534
3.73842e-05
0.00011253
1.57679e-05
0.000100967
-1.4038e-05
9.35642e-05
-3.36825e-05
7.01662e-05
-6.64402e-05
9.04161e-05
7.73414e-05
9.36465e-05
9.14688e-05
8.17671e-05
0.000108981
7.21231e-05
0.000118989
8.26471e-05
0.000125558
0.000100566
0.000135279
0.000119703
0.000149349
0.000138831
0.000162479
0.000160112
-9.28423e-06
1.84686e-05
-1.78005e-05
1.9449e-05
-2.5638e-05
4.62622e-05
-3.32593e-05
-7.17633e-06
1.43698e-06
-6.58022e-06
1.28577e-05
3.13487e-05
-3.93258e-05
4.38689e-05
-4.75017e-05
4.40961e-05
4.44653e-06
-1.30186e-05
-1.1776e-06
-7.34881e-05
-0.000129837
-0.000119981
-0.000145589
-6.22889e-05
-1.12339e-05
-2.45014e-06
1.24679e-05
-5.15152e-05
6.51926e-05
9.2363e-06
5.45675e-05
-6.31725e-05
1.01907e-06
9.36331e-05
0.000125058
-5.69008e-05
5.39295e-05
-7.46091e-05
-5.24765e-05
-8.72805e-05
-4.0867e-05
-9.70015e-05
-2.60768e-05
-0.000106483
-1.07753e-05
-0.000116867
5.12315e-06
-0.000129374
2.14044e-05
-0.000143562
3.63265e-05
-0.000159595
5.05686e-05
-0.000176159
6.50606e-05
-0.000191589
8.0935e-05
-0.000204138
9.67429e-05
-0.000212534
0.000111963
-0.000215191
0.00012597
-0.000209495
0.000137371
-0.000194989
0.000144877
-0.000171364
0.000146779
-0.000138093
0.000142575
-9.54898e-05
0.000131341
-4.51612e-05
0.000116542
1.05722e-05
0.000100379
7.04682e-05
8.72393e-05
0.000129642
7.85231e-05
0.000179944
7.62713e-05
0.000214611
7.9751e-05
0.000230515
8.90061e-05
0.000225189
0.000101665
0.000202741
0.000111911
0.000170664
0.000115884
0.000137968
0.000114899
0.000105919
0.000109638
7.78819e-05
0.000102884
4.78314e-05
9.49676e-05
2.72345e-05
8.76232e-05
-3.8194e-06
8.28527e-05
-2.75863e-05
7.61077e-05
-6.47196e-05
0.000109851
-0.000116722
7.38668e-05
0.000107078
8.89127e-05
0.000108121
9.26843e-05
0.000108997
7.98488e-05
0.000107976
6.67249e-05
0.000105723
7.26105e-05
0.0001062
8.82394e-05
0.000109653
0.000109164
0.000118394
0.000128354
0.000126949
0.000152881
-0.000186819
0.000177315
0.000127362
-0.000185474
0.000160854
-0.000187313
0.000146813
-0.000190281
0.000144803
-0.000195545
0.000143719
-0.000198652
0.000150549
-0.00019943
0.000164627
-0.000196991
0.000186985
-0.000192693
0.000215767
-0.000188831
0.000248878
-0.0001862
0.000280361
-0.000186323
0.000302074
-0.000189298
0.000306635
-0.000194496
0.000293404
-0.000199937
0.000259244
-0.000204971
0.000208726
-0.000210454
0.000147161
-0.000214294
8.4038e-05
-0.000214419
2.36726e-05
-0.000208262
-3.22893e-05
-0.000196062
-8.1269e-05
-0.000177812
-0.000120695
-0.000155845
-0.000150106
-0.000133591
-0.000174864
-0.000112676
-0.000185227
-9.11524e-05
-0.000192886
-7.04496e-05
-0.000192494
-5.04716e-05
-0.000184776
-3.18347e-05
-0.000174209
-1.56623e-05
-0.000161089
-0.000144574
-4.73904e-06
-7.49359e-05
-3.80113e-05
8.25569e-05
-0.000115187
-6.83285e-05
-0.00016024
-0.000103886
0.000129146
4.28905e-05
-5.67219e-05
3.40792e-06
-4.88392e-05
3.3851e-05
-4.04129e-05
-6.25427e-05
-3.07745e-05
-1.81795e-05
-6.85564e-05
7.78984e-05
2.54889e-06
-0.000101722
-6.32485e-05
6.60954e-05
-8.56467e-05
-5.72003e-05
7.30494e-05
-8.9847e-05
-7.57926e-05
-8.97783e-05
-8.8447e-05
-8.56825e-05
-9.90985e-05
-8.04164e-05
-0.000109495
-7.46176e-05
-0.000120858
-6.90916e-05
-0.000133682
-6.34436e-05
-0.000148235
-5.88233e-05
-0.000163751
-5.52109e-05
-0.00017922
-5.19516e-05
-0.000193129
-4.8297e-05
-0.000204213
-4.40707e-05
-0.000210531
-3.97665e-05
-0.000210594
-3.5835e-05
-0.000202439
-3.35104e-05
-0.000185615
-3.44827e-05
-0.000159165
-3.78692e-05
-0.000124212
-4.35422e-05
-8.00967e-05
-5.0913e-05
-2.85471e-05
-5.7854e-05
2.64477e-05
-6.11504e-05
8.28725e-05
-5.77851e-05
0.000135864
-4.64301e-05
0.000178454
-2.74248e-05
0.000205578
-2.36406e-06
0.000215006
2.43584e-05
0.000208499
4.88063e-05
0.000187352
6.72145e-05
0.00016005
7.82846e-05
0.000133058
8.40853e-05
0.000104839
8.38388e-05
8.22193e-05
8.20928e-05
5.35111e-05
7.85812e-05
3.40335e-05
7.23469e-05
3.53997e-06
6.78563e-05
-2.59202e-05
5.62705e-05
-6.32109e-05
5.37132e-05
-0.00012686
0.000154295
3.94258e-05
-0.000158604
0.000143394
7.00168e-05
0.000121485
0.000100891
0.000100873
0.000111221
0.000106369
7.66146e-05
0.000135005
3.87913e-05
0.000137749
6.83141e-05
0.000131076
9.04445e-05
0.000137066
0.000101339
0.000159157
0.000105213
0.000171703
0.000130648
0.000163115
0.000158653
-0.000192298
0.000177094
0.000135483
-0.00020317
0.000116979
-0.000198998
0.000149918
-0.000195447
0.00014344
-0.000190378
0.000142305
-0.000185642
0.000140941
-0.00017962
0.000145918
-0.000169918
0.000157363
-0.000155141
0.00017661
-0.000136374
0.000202303
-0.000114268
0.000231853
-9.16896e-05
0.0002615
-7.1346e-05
0.000283431
-5.48193e-05
0.000289589
-4.10395e-05
0.000278318
-3.17426e-05
0.000248477
-2.62873e-05
0.000201908
-2.5125e-05
0.000144431
-2.60341e-05
8.2561e-05
-2.66693e-05
2.23443e-05
-2.53803e-05
-3.47068e-05
-2.29671e-05
-8.365e-05
-1.80705e-05
-0.000123728
-9.94413e-06
-0.000154273
-3.34169e-06
-0.000175387
7.11892e-06
-0.000187529
1.5886e-05
-0.000192142
2.54781e-05
-0.000191535
3.57145e-05
-0.000184029
4.57524e-05
-0.000173433
5.48057e-05
-0.000159938
-0.000142949
6.24849e-05
2.33364e-06
-0.000127361
-6.705e-05
-2.25238e-05
-4.26964e-05
-7.25313e-05
7.39632e-05
1.17997e-06
1.08475e-05
-3.48236e-06
-6.66024e-06
6.01041e-06
-0.000111151
6.5262e-05
-1.62586e-05
3.49596e-05
6.14397e-05
-1.91359e-05
5.39931e-05
-2.6194e-05
-6.97165e-05
8.21007e-06
-9.30662e-05
1.04298e-05
-6.04573e-05
3.90022e-05
-6.06732e-05
-0.000104028
-4.17207e-05
1.69645e-05
4.72439e-05
-3.52696e-05
0.000262097
-0.0002934
5.14795e-05
0.000231238
7.75008e-05
0.000203525
0.000102498
0.000178002
0.000110987
0.000154762
8.08336e-05
0.000125727
5.28036e-05
0.000105719
6.94982e-05
8.78715e-05
8.40599e-05
6.65775e-05
9.58579e-05
5.24387e-05
8.73571e-05
4.14994e-05
0.000101383
2.71587e-05
0.000123109
7.39804e-06
0.000141776
-0.000174626
-1.04824e-05
0.000144303
-0.000192824
9.78284e-05
-0.000206902
9.91518e-05
-0.000204399
0.000130266
-0.000200024
0.000133064
-0.000190403
0.000133957
-0.00017807
0.000133212
-0.000163437
0.000136671
-0.00014518
0.000145201
-0.000122218
0.000161078
-9.4009e-05
0.000182339
-6.09075e-05
0.000206694
-2.51131e-05
0.000231781
1.0523e-05
0.000251105
4.4431e-05
0.000256329
7.37217e-05
0.000248382
9.71515e-05
0.000223895
0.000113497
0.000184316
0.000122964
0.000133767
0.000126636
7.78719e-05
0.000126398
2.19873e-05
0.000123412
-3.1225e-05
0.00011921
-7.80514e-05
0.000114815
-0.000116175
0.000110869
-0.000145277
0.000107651
-0.000165411
0.0001051
-0.000176858
0.000103467
-0.000181315
0.000101753
-0.000180032
0.000102863
-0.000175306
0.000104807
-0.000166106
0.000107868
-0.000154436
-0.000140445
0.000112643
-0.000123613
6.6299e-05
4.06356e-05
-7.65199e-05
-6.36194e-05
-5.93737e-05
-6.8427e-06
-7.69153e-05
-1.31764e-05
8.92905e-06
8.29373e-05
-3.3734e-05
1.92309e-05
3.91441e-05
-1.36974e-05
-0.000106541
-7.60711e-05
9.99127e-05
-0.000113466
-8.46831e-05
-0.000117833
-9.51324e-05
-0.000121491
-0.000106489
-0.000124064
-0.00011884
-0.000127414
-0.000131511
-0.000130931
-0.000146146
-0.000135313
-0.000160447
-0.000140594
-0.000174077
-0.000146156
-0.000185854
-0.000151494
-0.000194426
-0.000155624
-0.000198306
-0.000158643
-0.000195756
-0.000161463
-0.000185468
-0.000165435
-0.000167281
-0.00017003
-0.000140628
-0.000174958
-0.000105692
-0.000178661
-6.35604e-05
-0.000180049
-1.55079e-05
-0.000176896
3.43782e-05
-0.000167331
8.39339e-05
-0.000149576
0.000128408
-0.000123405
0.000162428
-9.04981e-05
0.000182676
-5.40492e-05
0.000188363
-1.75152e-05
0.000181247
1.26051e-05
0.000165623
3.52466e-05
0.000144239
5.03807e-05
0.000123012
5.91352e-05
9.98608e-05
6.34024e-05
8.12781e-05
6.42804e-05
5.56114e-05
6.32405e-05
3.6507e-05
5.66755e-05
8.06232e-06
5.07156e-05
-2.69859e-05
3.46111e-05
-6.11619e-05
3.02676e-05
-0.000137394
6.61874e-06
-0.000153134
2.18123e-05
-0.000320415
-4.00721e-05
-6.52958e-05
6.04316e-05
-6.84461e-05
-2.89513e-05
-9.39612e-05
1.3384e-05
-2.15148e-05
0.000107504
-3.11555e-05
-9.45727e-05
4.84032e-05
4.59737e-06
-9.70299e-05
-0.000157118
0.000137216
-1.97309e-05
-0.000181554
6.57608e-05
-0.000201043
7.77265e-05
-0.000204231
0.000108527
-0.000199117
0.00011685
-0.00018864
0.000121676
-0.000172309
0.000122497
-0.000151619
0.000125333
-0.000127314
0.000132378
-9.79373e-05
0.000144365
-6.36032e-05
0.00016058
-2.39413e-05
0.000177972
1.84253e-05
0.000197157
6.45975e-05
0.000210168
0.000108027
0.000215035
0.000147772
0.000209151
0.000181127
0.000190166
0.00020633
0.000158346
0.000222697
0.000116662
0.000231019
6.93282e-05
0.000232751
2.07506e-05
0.00022866
-2.55827e-05
0.000220966
-6.81003e-05
0.00021104
-0.000102533
0.000199857
-0.000128849
0.000188237
-0.000147234
0.000177986
-0.00015912
0.000167964
-0.000163165
0.000159837
-0.00016358
0.0001514
-0.000158768
0.000144435
-0.0001517
0.000140975
-0.000144398
0.000142164
-0.000136177
-0.0001215
0.000116396
0.000104204
-6.76857e-05
3.17096e-06
5.99603e-06
-4.93235e-05
0.000255322
-0.000240156
-9.92648e-06
0.000262023
1.88324e-05
0.000240282
6.23706e-05
0.000174438
0.000120479
9.85697e-05
0.000132339
0.000113746
9.91174e-06
0.000164659
-3.41952e-05
0.000102387
9.25495e-05
3.37842e-05
0.000107993
3.55802e-05
3.52894e-05
8.08658e-05
-2.06862e-05
9.78823e-05
-2.46705e-06
9.41896e-05
2.92791e-05
7.91007e-05
6.24562e-05
4.07357e-05
0.000117943
1.74414e-05
0.000144447
2.54604e-05
-6.06029e-05
-4.36782e-05
-5.18449e-05
-3.04334e-05
-5.72693e-05
-2.23101e-05
-6.41455e-05
-1.50817e-05
-8.2731e-06
-0.000117443
7.43708e-05
0.000139369
-5.95786e-05
-6.07399e-05
-4.34923e-05
3.85685e-05
4.79788e-08
2.20376e-06
-4.04702e-06
0.00011623
-0.000126049
-0.000108716
-6.32237e-05
8.79335e-05
-0.000124747
-7.3868e-05
-0.000137031
-8.55341e-05
-0.000148013
-9.83279e-05
-0.000158673
-0.000111133
-0.000168591
-0.000124539
-0.000179664
-0.000137995
-0.000190983
-0.000150929
-0.000202558
-0.000162825
-0.000214283
-0.000172154
-0.000224792
-0.000178315
-0.000233314
-0.0001796
-0.000240261
-0.000174631
-0.00024669
-0.000163222
-0.000253106
-0.000145147
-0.000257713
-0.000120221
-0.00026007
-8.80297e-05
-0.000258989
-4.97742e-05
-0.000253084
-7.99853e-06
-0.000241304
3.49957e-05
-0.000222103
7.59637e-05
-0.000194641
0.000111352
-0.000160013
0.000137629
-0.000120748
0.000152768
-8.04849e-05
0.000156912
-4.30117e-05
0.000151758
-1.10988e-05
0.000140474
1.25903e-05
0.00012574
2.94042e-05
0.000109442
4.0222e-05
9.10579e-05
4.71754e-05
7.58347e-05
4.92693e-05
5.44542e-05
4.98233e-05
3.494e-05
4.28114e-05
1.01404e-05
3.41315e-05
-2.85804e-05
1.47231e-05
-5.76762e-05
4.69655e-06
-0.000141981
-1.82057e-05
-0.000148015
-3.78511e-05
-0.000304963
-4.97334e-05
-0.000239713
-2.16376e-05
-8.47503e-05
1.77946e-05
-0.000101399
6.23532e-05
-8.64401e-05
8.08481e-05
-3.22725e-05
-5.48097e-05
4.54926e-05
-6.17706e-05
-1.47775e-05
-2.91867e-05
-6.64885e-05
0.000102543
2.06337e-05
-0.000103504
-6.01452e-05
1.28831e-06
6.21625e-05
0.000159482
-8.61688e-05
6.30242e-08
-0.00013804
0.000163377
0.000162166
8.52625e-05
-0.000102448
1.73711e-05
-6.52298e-06
-1.87573e-05
-3.31447e-05
6.21631e-05
2.77554e-05
-5.59029e-05
1.07516e-05
7.36782e-05
-8.41841e-06
-6.7927e-05
-0.000156012
0.000197877
-1.15952e-05
-0.00015842
-2.23458e-05
-0.00017063
4.12603e-05
-0.0001914
5.86788e-05
-0.000198974
8.50108e-05
-0.000196971
9.78651e-05
-0.000185872
0.000105498
-0.000167888
0.000108708
-0.000143585
0.000112391
-0.000114393
0.000117505
-8.11579e-05
0.000126189
-4.31315e-05
0.000137298
-1.57509e-06
0.000149595
4.52054e-05
0.000160792
9.35746e-05
0.000169028
0.000140934
0.000171928
0.000185358
0.000166922
0.00022409
0.000152302
0.000254781
0.000127829
0.000276223
9.53412e-05
0.000288568
5.75374e-05
0.000292727
1.78018e-05
0.000289833
-2.07575e-05
0.000281097
-5.67967e-05
0.000268742
-8.63648e-05
0.000253975
-0.000109346
0.000238844
-0.000126543
0.000224196
-0.000138306
0.000209422
-0.000141935
0.000195832
-0.000143578
0.000183644
-0.000140553
0.000172497
-0.000135112
0.000160371
-0.000127608
0.000145261
-0.000117241
-0.000106512
0.000116927
9.02974e-06
-5.24193e-05
3.71461e-05
-3.71154e-05
-2.76833e-05
3.92985e-05
-3.31747e-05
4.0848e-05
0.000479981
-0.000400527
-0.000135584
0.000465373
-2.38972e-06
0.000408013
5.25547e-05
0.000346855
0.000105386
0.000289625
0.000150921
0.00023778
0.00015975
0.000179397
5.27329e-05
9.03003e-05
3.22048e-05
4.26447e-05
0.000113663
-6.31976e-06
0.000113754
-8.5425e-05
4.77752e-05
-0.000119674
-9.34387e-05
-0.000144026
-9.67701e-05
-0.000161755
-4.72849e-05
-0.000199994
4.37928e-05
-0.000209116
0.0001237
-0.000197388
0.000164261
-0.000179817
0.000216134
-5.33021e-05
-4.5828e-05
-2.68781e-05
-4.83341e-05
-1.91099e-05
-5.32071e-05
-1.22453e-05
-5.765e-05
-6.55421e-06
1.57226e-06
-6.10713e-05
-1.61387e-05
1.97544e-05
6.07064e-05
9.39187e-06
-8.87048e-05
-4.17919e-05
6.76958e-05
5.3812e-05
-0.000109825
-5.05373e-05
-0.000129061
-6.13322e-05
-0.000146254
-7.32555e-05
-0.000162752
-8.63381e-05
-0.000178796
-9.97591e-05
-0.000194544
-0.000113048
-0.00021056
-0.000125841
-0.000226756
-0.000137332
-0.000242698
-0.000147069
-0.000257322
-0.000154723
-0.000270049
-0.000158464
-0.000279853
-0.00015777
-0.000287558
-0.000151674
-0.000294166
-0.000140512
-0.000298577
-0.000123926
-0.000300759
-0.000101157
-0.000299896
-7.28115e-05
-0.000294198
-3.99459e-05
-0.000282589
-5.32193e-06
-0.000264734
2.97283e-05
-0.000239722
6.22388e-05
-0.000207935
8.9759e-05
-0.000171014
0.000109955
-0.000131552
0.000121734
-9.25915e-05
0.00012552
-5.70441e-05
0.000122654
-2.68172e-05
0.000115143
-3.04997e-06
0.000104823
1.42949e-05
9.3314e-05
2.6112e-05
7.88773e-05
3.47538e-05
6.63876e-05
3.85264e-05
4.92527e-05
3.99342e-05
3.01649e-05
3.28968e-05
9.91952e-06
2.21557e-05
-2.99279e-05
8.42275e-07
-5.20325e-05
-1.77558e-05
-0.000135947
-3.82194e-05
-0.000143145
-7.74825e-05
-0.000270452
-9.52446e-05
-0.000232111
-0.000211734
-0.000289886
-1.94163e-06
-4.18692e-05
-1.85296e-05
-9.0332e-05
0.000109813
4.33664e-05
5.16735e-05
-1.45242e-05
-3.19308e-06
-1.7926e-05
3.41779e-05
-2.95126e-05
-2.17037e-05
3.51394e-05
-2.15552e-05
-4.13273e-05
5.77265e-05
-8.82362e-05
-1.03609e-06
-5.96909e-05
-2.50244e-05
-1.73268e-05
-6.41453e-05
-4.50322e-05
5.41266e-05
8.52027e-06
-2.51646e-06
2.40497e-05
-1.70141e-05
-6.92177e-06
5.70213e-05
-4.87752e-05
3.11506e-05
0.000186677
-5.25258e-05
-0.000139722
6.84792e-05
-5.0283e-05
1.19167e-06
5.7699e-05
-9.88005e-05
0.000106861
-2.3309e-05
-2.45822e-05
-8.93944e-05
-0.000153111
-9.10333e-05
-0.000167146
-0.000100781
-0.000182771
-0.000109132
-0.000198911
-0.000115605
-0.000215635
-0.000120026
-0.000232733
-0.000122298
-0.000248779
-0.000121481
-0.00026656
-0.000116194
-0.000282417
-0.000106575
-0.000296903
-9.12727e-05
-0.000308925
-7.12872e-05
-0.00031658
-4.67314e-05
-0.000317445
-1.79226e-05
-0.000310737
1.25584e-05
-0.000295505
4.34406e-05
-0.000271236
7.22958e-05
-0.00023857
9.69167e-05
-0.000198753
0.000115417
-0.000154056
0.000127025
-0.000106866
0.000132042
-5.9185e-05
0.000131699
-1.27575e-05
0.000127676
3.01191e-05
0.000121455
6.96665e-05
0.000113713
0.000105375
0.000106708
0.000137193
0.000100774
0.000163271
9.65674e-05
0.000181626
9.18524e-05
0.000191559
8.71048e-05
0.000192055
7.74743e-05
0.000182962
6.27822e-05
0.000170427
4.10123e-05
0.000175649
2.06295e-05
0.000187674
-2.55776e-05
0.000226737
-3.50789e-05
0.000243089
-0.000165981
-2.3761e-05
-7.71301e-05
2.21402e-05
0.000174559
-0.000147319
-0.00025111
0.000190282
-0.000169125
0.000215747
-5.86176e-05
0.000254037
-1.57242e-05
0.000248837
6.67149e-05
9.70347e-05
0.000252569
-1.92969e-05
0.000219988
8.95874e-05
-8.82401e-05
0.000160431
-4.99745e-05
-8.26727e-05
0.00035285
-0.000218336
0.000233917
-0.000158498
-7.45546e-05
-0.000160262
-0.000171334
-0.000201306
-0.000137552
-0.000221765
-0.000106717
-0.00015381
-5.52591e-05
-0.00013794
0.000126012
-0.000166196
0.000218911
-0.000184261
0.000249312
-0.000180473
0.000240256
-1.84874e-05
-3.72312e-05
-6.50546e-05
0.000141835
-1.22751e-05
-2.20048e-05
2.92908e-05
-3.13984e-05
-0.000101622
8.85795e-05
5.03487e-05
-2.70529e-05
0.000103535
-2.46563e-05
0.000110484
-2.45651e-05
0.000112574
-0.000102836
-2.42107e-05
0.000108502
-9.48433e-05
-2.47579e-05
-8.67328e-05
-2.59961e-05
2.81594e-05
-3.16297e-05
-7.67586e-05
-8.13344e-05
2.41369e-06
-2.23618e-05
-5.99818e-05
6.80655e-05
2.00549e-05
-2.29505e-05
-8.7135e-06
2.59206e-05
-2.26656e-05
1.91239e-05
-1.97805e-05
1.94518e-05
4.39199e-06
-1.2528e-06
-3.3231e-06
-1.49567e-05
-1.60149e-05
-8.35802e-06
-1.0295e-05
-2.81171e-05
-7.69338e-05
5.13567e-05
-2.47663e-05
-2.4042e-05
5.32754e-06
-1.15943e-05
5.94733e-06
-3.5852e-05
-2.23648e-05
-3.4294e-05
-1.74385e-05
-3.3132e-05
-1.26687e-05
-3.1945e-05
-8.89518e-06
-5.58876e-06
-2.81921e-05
1.52435e-05
-5.30209e-05
-3.06568e-05
8.41582e-06
-1.3364e-05
-1.48226e-05
1.75056e-05
-5.57909e-05
-2.07241e-05
3.48659e-05
3.32624e-05
-7.85236e-05
-2.86172e-05
-0.000101131
-3.71364e-05
-0.000122919
-4.74271e-05
-0.000143642
-5.91422e-05
-0.000163927
-7.19272e-05
-0.000184393
-8.4972e-05
-0.000204515
-9.78813e-05
-0.000224528
-0.000109878
-0.000244394
-0.000120189
-0.000263307
-0.000128468
-0.000280411
-0.000134268
-0.000293668
-0.000136811
-0.000303036
-0.000135342
-0.000310053
-0.000129525
-0.000315316
-0.000119378
-0.000317033
-0.000104617
-0.000316237
-8.48503e-05
-0.000311326
-6.11927e-05
-0.000301034
-3.44032e-05
-0.0002853
-6.78834e-06
-0.000263927
2.1012e-05
-0.000237
4.6525e-05
-0.000205082
6.77521e-05
-0.000169821
8.34546e-05
-0.000133257
9.2837e-05
-9.77457e-05
9.65189e-05
-6.53248e-05
9.53324e-05
-3.74045e-05
9.04819e-05
-1.48631e-05
8.34747e-05
3.17311e-06
7.45064e-05
1.5413e-05
6.44074e-05
2.55294e-05
5.34672e-05
3.04821e-05
4.06494e-05
3.24119e-05
2.29177e-05
2.56638e-05
7.64215e-06
1.37041e-05
-3.14979e-05
-5.99878e-06
-4.66312e-05
-2.74583e-05
-0.000126786
-4.86172e-05
-0.000134389
-7.93357e-05
-0.000245982
-0.00010306
-0.00021749
-0.000137135
-0.000261143
-0.000188412
-0.000103005
-8.52413e-06
-1.17671e-05
1.45829e-06
-1.65568e-05
-1.74226e-05
2.70836e-05
-2.32139e-05
-2.33361e-05
1.83759e-05
-2.21296e-05
-7.75931e-06
1.64246e-05
-1.13189e-05
2.63857e-05
-7.48496e-05
9.96875e-05
-2.33061e-05
-6.61381e-05
2.80498e-05
-3.15577e-05
-1.071e-05
2.75988e-05
-2.62563e-05
-4.7589e-05
3.08403e-05
5.01114e-05
-6.16373e-05
-1.50844e-05
-3.29683e-06
-1.74772e-05
-4.91733e-05
-8.7336e-06
1.04225e-05
-2.1153e-05
-6.87447e-06
3.28511e-06
-6.02918e-06
-2.07567e-05
-7.84855e-05
3.99117e-07
-3.20612e-05
-1.70071e-05
1.0837e-05
8.4164e-05
-4.02384e-05
-6.74208e-05
5.66611e-05
1.82547e-05
-4.40191e-05
2.41483e-07
3.24446e-05
-1.07766e-05
2.64678e-05
9.2702e-05
-2.69465e-05
9.89268e-05
-2.39569e-05
0.000102875
-2.18625e-05
-0.000139438
-7.02105e-05
-0.000159213
-7.97139e-05
-0.000178903
-8.82005e-05
-0.000198888
-9.42707e-05
-0.000218869
-9.85013e-05
-0.000239129
-0.000100254
-0.00025811
-0.000100413
-0.000276741
-9.53122e-05
-0.000292754
-8.8257e-05
-0.000306378
-7.5438e-05
-0.000316075
-5.98103e-05
-0.0003216
-3.96331e-05
-0.000320192
-1.79109e-05
-0.000311597
5.3517e-06
-0.000294928
2.84495e-05
-0.00027017
4.99454e-05
-0.000237983
6.83554e-05
-0.000199567
8.24343e-05
-0.000156707
9.19443e-05
-0.000111428
9.71e-05
-6.55799e-05
9.86219e-05
-2.05575e-05
9.76499e-05
2.21918e-05
9.51394e-05
6.21129e-05
9.08052e-05
9.88018e-05
8.65823e-05
0.000131535
8.22302e-05
0.000157473
7.84155e-05
0.000175216
7.30875e-05
0.000184052
6.752e-05
0.000182672
5.65252e-05
0.000173943
4.26216e-05
0.000171485
2.54418e-05
0.000187717
5.9758e-06
0.000203949
-2.73711e-05
0.000216508
-3.73424e-05
0.000229004
-0.000154265
0.000136261
-9.38224e-05
1.03691e-06
-1.37084e-05
6.52561e-06
7.52254e-06
-1.37816e-05
1.39461e-05
-1.53231e-05
2.0056e-05
-1.77238e-05
2.61481e-05
-2.04627e-05
3.15932e-05
-2.32542e-05
-7.11604e-06
4.69737e-06
-6.53821e-06
-3.6993e-05
-3.21918e-05
0.000155529
-0.000186507
3.00284e-06
-3.17433e-05
-1.50966e-05
-3.17553e-05
2.65097e-05
-7.36773e-05
-2.30769e-05
-2.58418e-05
-6.70994e-05
-8.33768e-06
-3.75408e-06
1.256e-05
5.52938e-08
-1.71908e-05
0.000275594
-0.000110385
7.10078e-05
-0.00022526
1.14628e-05
-3.02084e-06
-5.88886e-06
-1.99952e-05
-4.40541e-05
-1.88684e-05
-2.14842e-05
9.3957e-06
9.14516e-05
-7.51412e-05
8.51035e-05
-1.31767e-05
-7.29922e-05