/*--------------------------------*- C++ -*----------------------------------*\
| =========                 |                                                 |
| \\      /  F ield         | OpenFOAM: The Open Source CFD Toolbox           |
|  \\    /   O peration     | Version:  2212                                  |
|   \\  /    A nd           | Website:  www.openfoam.com                      |
|    \\/     M anipulation  |                                                 |
\*---------------------------------------------------------------------------*/
FoamFile
{
    version     2.0;
    format      ascii;
    arch        "LSB;label=32;scalar=64";
    class       volScalarField;
    location    "0.066";
    object      alphat;
}
// * * * * * * * * * * * * * * * * * * * * * * * * * * * * * * * * * * * * * //

dimensions      [1 -1 -1 0 0 0 0];

internalField   nonuniform List<scalar> 
44662
(
0.000214548
0.0014128
0.00140854
0.00141339
0.00141131
0.000208122
0.000318371
0.000202996
0.0011694
0.00178027
0.000222332
0.000326308
0.000317333
0.000902515
7.89715e-05
0.000341884
0.000103842
0.000122909
0.00151487
0.000326854
0.00158557
0.000113336
0.00101327
0.00171389
6.16893e-05
0.0013561
0.000306853
0.000433366
0.000202431
0.000487661
3.75335e-05
0.00134646
3.46081e-05
0.000249589
0.000153245
0.00173261
0.000545108
0.000482548
0.00148299
0.000921289
0.00083766
0.000622073
0.000215025
0.00139168
0.00127857
0.000201408
0.000713941
0.00179999
0.00178732
0.00145454
0.00138857
0.000544159
0.00108159
3.56879e-05
0.0017979
0.000187053
0.000970284
0.000261704
0.00031706
0.000320538
0.000211907
3.34316e-05
0.00184926
0.000979241
0.0017002
0.000232717
8.29795e-05
2.57361e-05
0.00105064
0.000857162
2.97063e-05
0.000145928
0.00086283
0.000233941
0.000809241
0.000604075
1.88175e-05
0.000324807
0.000314382
7.96307e-05
0.000195612
0.000762199
0.00129678
0.000792056
0.0001957
0.00120145
0.000714876
0.00143072
0.00155843
0.000334402
0.000605792
0.000665692
0.00172334
2.89216e-05
0.0012715
0.0014716
0.000227526
0.00127953
0.00147695
0.00149591
0.000172108
0.00142921
0.000273108
5.93719e-05
0.000311051
0.000522161
0.00030447
0.000184465
0.00138952
0.000197128
0.000298346
0.00102966
0.00142834
0.00165264
0.000153983
0.000291827
0.000304922
0.00127068
2.29344e-05
0.0002845
0.000946008
0.000293529
0.000338216
0.00027726
0.00029308
0.00146451
0.000270564
0.000291467
0.00140301
0.000264034
0.000289181
0.000362336
0.000226384
0.000334188
0.000256277
0.000286814
0.000313608
0.000315555
0.000247299
0.000284821
0.000346121
0.000237958
0.000538339
0.000416824
0.000228029
0.00140001
0.00132937
0.00131847
0.00146178
0.00144913
0.000962604
0.00140223
0.000231149
0.000118321
0.00144724
0.00145738
0.00095462
0.000171471
0.000173845
0.000177219
0.000181772
0.000187772
0.000195606
0.000205769
0.0002189
0.000235754
0.000257169
0.000283986
0.000316943
0.000356617
0.000403287
0.000456845
0.000516699
0.000581682
0.000650235
0.00072036
0.00078994
0.000856948
0.000919662
0.000976825
0.0010277
0.00107202
0.00110993
0.00114183
0.00116829
0.00119
0.00120762
0.00122177
0.00123302
0.00124186
0.00124872
0.00125394
0.0012578
0.00126052
0.00126231
0.00126329
0.00126362
0.00126337
0.00126266
0.00126147
0.00125995
0.00125827
0.00125635
0.00125417
0.00125183
0.00124938
0.00125097
0.00124854
0.00125327
4.09234e-05
0.000169831
0.000172677
0.000170872
0.00124685
0.00124427
0.00124345
0.00124603
0.00125728
0.00125541
0.00126043
0.00125893
0.00126224
0.00126156
0.001262
0.00126241
0.00125899
0.00126091
0.00125198
0.00125608
0.00123912
0.00124642
0.00121777
0.00122971
0.00118442
0.00120285
0.0011346
0.00116188
0.00106347
0.00110199
0.000967674
0.00101872
0.000848653
0.000910716
0.000714672
0.000782756
0.000579597
0.000646309
0.000457887
0.000516285
0.000359349
0.000405377
0.000286961
0.000319944
0.000238207
0.000259936
0.000207568
0.000221019
0.00018901
0.0001971
0.000178019
0.000182772
0.000174477
0.000178955
0.000175316
0.000190237
0.000183833
0.000209362
0.000198572
0.000240926
0.000223256
0.000290424
0.000263096
0.000362451
0.00032344
0.000458646
0.000407585
0.000576123
0.000515134
0.000706351
0.000640367
0.000836759
0.000772385
0.000954682
0.000897937
0.0010518
0.00100612
0.00112562
0.00109158
0.00117803
0.00115425
0.00121329
0.00119752
0.0012359
0.00122591
0.00124968
0.0012437
0.00125736
0.00125415
0.00126079
0.00125951
0.00126125
0.00126133
0.00125963
0.00126066
0.00125647
0.00125812
0.00125246
0.00125461
0.00124772
0.00125015
0.00124268
0.00124521
0.00124756
0.0012452
0.00124976
2.94522e-05
4.0927e-05
0.000175869
0.000173506
0.00124086
0.00124019
0.00123762
0.00123859
0.00124014
0.00123613
0.000170001
0.000169137
0.00124273
0.0012535
0.00125175
0.00125646
0.00125509
0.00125775
0.00125733
0.0012568
0.00125761
0.00125255
0.00125517
0.00124349
0.00124875
0.0012273
0.00123646
0.00120098
0.0012156
0.00116121
0.00118299
0.00110435
0.00113514
0.00102732
0.00106853
0.000929305
0.000980819
0.000814428
0.000873513
0.000691349
0.000753261
0.000570648
0.000630059
0.000461579
0.00051419
0.000370231
0.00041345
0.000299349
0.000332188
0.000248676
0.000271627
0.00021518
0.000230061
0.000194218
0.000203414
0.000181537
0.000187046
0.000177353
0.000203638
0.0012417
0.000183561
0.000179154
0.000196893
0.000189359
0.000219085
0.000206636
0.000254313
0.000234831
0.000306006
0.000277942
0.000375754
0.000338632
0.000462753
0.000417219
0.000564636
0.000512051
0.000677108
0.000619893
0.000793678
0.000735391
0.00090581
0.000850846
0.00100526
0.000957537
0.00108655
0.00104837
0.00114801
0.00111971
0.00119141
0.00117177
0.00122029
0.00120741
0.00123843
0.00123048
0.00124893
0.00124447
0.00125412
0.00125207
0.00125563
0.00125525
0.00125463
0.00125539
0.00125179
0.0012534
0.00124805
0.00125003
0.00124348
0.00124583
0.00124105
0.000172067
0.00123189
0.0012344
0.00124141
0.00123921
0.0012434
0.00123765
0.00123371
0.000169432
0.00017108
0.00016937
0.000168629
0.00122942
0.00122352
0.00122116
0.000169058
0.000170525
0.00123685
0.00124679
0.00124516
0.00124912
0.00124818
0.0012495
0.0012496
0.00124703
0.0012487
0.00124029
0.0012443
0.00122722
0.0012347
0.00120492
0.00121742
0.00116995
0.00118919
0.0011197
0.00114696
0.00105248
0.00108832
0.000968039
0.00101237
0.000869274
0.000920109
0.000763021
0.000816562
0.000657179
0.00070962
0.000557521
0.000606334
0.000467063
0.000511041
0.000387407
0.000425798
0.000320337
0.000352177
0.00026769
0.000292144
0.000229676
0.000246942
0.00020418
0.000215549
0.000188138
0.000195151
0.00173834
0.000182749
0.00123832
0.00123917
0.00123509
0.000172992
0.000175601
0.00017397
0.00018131
0.000177983
0.000191505
0.000185723
0.000208647
0.000199021
0.000235983
0.000220859
0.000276114
0.000254369
0.000329417
0.000301177
0.000394232
0.000360553
0.000468205
0.000430196
0.000550224
0.000508231
0.000640325
0.000594254
0.000737877
0.000688312
0.000839308
0.00078846
0.000938015
0.000889478
0.00102656
0.000983982
0.00109931
0.00106512
0.00115435
0.00112902
0.00119305
0.00117557
0.00121849
0.00120721
0.00123399
0.00122729
0.00124239
0.00123892
0.0012459
0.00124464
0.00124611
0.00124633
0.0012441
0.00124531
0.00124063
0.00124242
0.00123648
0.00123867
0.00123186
0.0012342
0.00122722
0.00122952
0.000170408
0.000172315
0.000170935
0.00122589
0.00016889
0.00122707
0.00121893
0.00121228
0.00121011
0.001218
0.001225
0.00121596
0.000168529
0.000169403
0.000170731
0.00123393
0.00123223
0.00123034
0.000172186
0.000178318
0.000173762
0.00122819
0.00123673
0.00123554
0.00123795
0.00123761
0.00123667
0.0012377
0.00123152
0.00123468
0.00122058
0.00122693
0.00120113
0.00121212
0.00116964
0.00118712
0.00112288
0.00114829
0.00105998
0.0010935
0.000982201
0.00102277
0.000892938
0.000938735
0.000798058
0.000845722
0.000705287
0.000750967
0.000619971
0.00066153
0.00054321
0.000580597
0.000473281
0.000507608
0.000408045
0.000440144
0.000347626
0.000377119
0.000294611
0.000319991
0.000251785
0.000271808
0.000219962
0.000234487
0.000198658
0.000208078
0.00124965
0.000191295
0.00145466
0.00123525
0.00123137
0.00123587
0.00123673
0.00123267
0.000174544
0.000176608
0.000175338
0.000181079
0.000178358
0.000189513
0.000184727
0.000203716
0.000195722
0.000226613
0.000213894
0.00026044
0.000242079
0.000305134
0.000281551
0.000357889
0.000330726
0.000414996
0.000386129
0.000474064
0.00044432
0.000535783
0.000504515
0.000603396
0.000568643
0.000679949
0.000640429
0.000766083
0.000721926
0.000858366
0.000811832
0.00094982
0.000904711
0.00103241
0.000992656
0.00110038
0.00106843
0.00115165
0.00112807
0.00118744
0.00117133
0.00121055
0.00120038
0.00122416
0.00121836
0.00123103
0.00122828
0.00123335
0.00123265
0.00123266
0.0012333
0.00123007
0.00123153
0.00122639
0.00122827
0.00122227
0.00122441
0.00122012
0.000172446
0.000174234
0.000170135
0.00121444
0.00121983
0.00121822
0.00122112
0.00120808
0.0012229
0.00121403
0.000185214
0.000176065
0.000181682
0.000168729
0.000168983
0.000169886
0.000171321
0.000173021
0.000174405
0.000172473
0.00121642
0.00122268
0.00122213
0.00122208
0.00122273
0.00121801
0.00122059
0.00120857
0.00121411
0.00119118
0.00120106
0.00116258
0.00117851
0.0011191
0.00114289
0.00105874
0.00109099
0.000983815
0.00102283
0.000899199
0.000942299
0.000811098
0.0008552
0.000726076
0.000767737
0.000650307
0.000686789
0.000585735
0.00061668
0.000530205
0.000557083
0.000479371
0.000504469
0.000429134
0.000454346
0.0003778
0.000403576
0.000327149
0.000352182
0.000280973
0.000303275
0.000242589
0.000260477
0.000214278
0.000227008
0.000196053
0.000203989
0.000189863
0.00123297
0.00122917
0.00123358
0.00123442
0.00122489
0.00123042
0.00120624
0.00121686
0.000176524
0.000178154
0.000177094
0.000181795
0.000179484
0.000189073
0.000184918
0.000201443
0.000194489
0.000221372
0.000210273
0.000251404
0.000235035
0.000291513
0.000270342
0.000338649
0.000314504
0.00038788
0.000363315
0.000435261
0.000411958
0.000479659
0.000457722
0.00052354
0.000501346
0.000571219
0.000546563
0.000627622
0.000598081
0.000695853
0.000660176
0.00077579
0.000734529
0.000863177
0.000818972
0.000950341
0.000907313
0.00102919
0.000991238
0.00109392
0.00106353
0.00114253
0.00112023
0.00117611
0.00116105
0.00119741
0.0011881
0.00120956
0.00120445
0.00121533
0.0012131
0.00121686
0.00121652
0.0012157
0.00121653
0.00121297
0.00121446
0.00120949
0.00121131
0.00120583
0.00120766
0.00120238
0.00120405
0.000174876
0.000176556
0.000179215
0.000174799
0.000169717
0.00119784
0.00119597
0.00119966
0.000169136
0.00120459
0.00119262
0.0011913
0.00118761
0.00120083
0.00118648
0.000185865
0.000177539
0.000182896
0.00016958
0.000170736
0.000172179
0.000173845
0.000175647
0.00120259
0.0012036
0.0012042
0.000176878
0.000171736
0.00119419
0.00120127
0.0012038
0.00120431
0.00120029
0.00120254
0.00119186
0.00119684
0.00117595
0.00118503
0.00114947
0.00116424
0.00110906
0.00113121
0.00105195
0.00108266
0.000978801
0.00101708
0.000895869
0.000938135
0.00081142
0.000853437
0.00073148
0.000770534
0.000661133
0.000694805
0.000603421
0.000630659
0.000557398
0.000579132
0.000519662
0.000537698
0.000484684
0.000501952
0.000448276
0.000466893
0.00040738
0.000428467
0.000362133
0.000385158
0.000315611
0.000338784
0.000272053
0.00029313
0.000236212
0.000252832
0.000211054
0.000222242
0.000195209
0.000202109
0.000189882
0.00122098
0.00121236
0.00123088
0.00122711
0.00123146
0.00123231
0.00122292
0.00122834
0.00121514
0.000178878
0.000179941
0.000179041
0.000183074
0.00018119
0.00018939
0.000185699
0.00020043
0.000194202
0.000218354
0.000208359
0.000245516
0.000230664
0.000282652
0.000262912
0.000327084
0.00030427
0.000373352
0.00035034
0.000416212
0.000395451
0.000453011
0.000435394
0.000484435
0.000469218
0.000513904
0.000499029
0.00054549
0.000528938
0.000584612
0.00056386
0.000634997
0.000608203
0.000698833
0.000665203
0.000775232
0.00073567
0.000859343
0.000816757
0.000943453
0.000901926
0.00101941
0.000982882
0.00108157
0.00105243
0.00112797
0.00110673
0.00115973
0.00114553
0.00117957
0.00117094
0.00119065
0.00118602
0.00119569
0.00119377
0.00119682
0.00119663
0.00119563
0.00119644
0.00119322
0.00119452
0.00119036
0.0011918
0.00118893
0.000177555
0.000178999
0.000173855
0.000169859
0.00117983
0.0011784
0.00118116
0.00118288
0.00118276
0.00118237
0.00117586
0.00117494
0.0011996
0.0011856
0.000180901
0.000176482
0.0001697
0.000170515
0.000171716
0.00017322
0.000174885
0.000176639
0.000178455
0.00017955
0.00017126
0.00117703
0.00118217
0.00117897
0.00118113
0.001171
0.00117568
0.0011561
0.0011646
0.00113117
0.00114508
0.00109306
0.00111395
0.00103927
0.00106822
0.000969358
0.00100619
0.000887747
0.000929458
0.000804102
0.000845549
0.000727276
0.000764552
0.000660967
0.000692633
0.000607298
0.000632462
0.000566348
0.000585336
0.000535624
0.000549936
0.000511329
0.000523038
0.000488828
0.00050013
0.000464083
0.000476988
0.000433645
0.000449721
0.000396119
0.000415726
0.000352887
0.000375049
0.000307175
0.000329968
0.000265009
0.000285224
0.000231999
0.000247167
0.000209421
0.000219437
0.000195396
0.000201522
0.000187378
0.000190717
0.000179527
0.000185238
0.00121939
0.00121083
0.00122898
0.00122537
0.00122958
0.00123038
0.00122133
0.0012266
0.00120323
0.00121358
0.00117437
0.0011903
0.000181296
0.000181896
0.000181319
0.000184663
0.000183009
0.000190207
0.000186886
0.000200168
0.000194528
0.000216448
0.000207354
0.000241514
0.000227767
0.000276281
0.000257735
0.000318838
0.000296875
0.000364123
0.000341549
0.000405997
0.000385793
0.000440621
0.000424346
0.000467309
0.000454877
0.000488117
0.000478255
0.000506495
0.000497429
0.000526251
0.00051614
0.000551505
0.000537904
0.000586094
0.000567424
0.000633088
0.000607889
0.000694093
0.00066184
0.0007678
0.000729582
0.000849286
0.000808012
0.000930769
0.000890563
0.00100422
0.000968925
0.00106411
0.00103606
0.00110858
0.00108826
0.00113876
0.0011253
0.00115747
0.00114935
0.00116781
0.0011635
0.0011725
0.00117071
0.00117369
0.00117342
0.00117292
0.00117347
0.00117127
0.00117214
0.00116954
0.00117036
0.00116846
0.00116888
0.000180319
0.000181598
0.000173334
0.000170309
0.00115778
0.00115699
0.00115836
0.00115674
0.00115797
0.00115459
0.000175756
0.000170617
0.0011742
0.00115516
0.00115555
0.0011479
0.00116837
0.00114841
0.000182211
0.000178611
0.000171556
0.000172912
0.000174442
0.000176103
0.000177826
0.000179586
0.000182234
0.000181361
0.000171503
0.00115557
0.00115519
0.00115621
0.00115847
0.00114665
0.00115129
0.00113223
0.00114044
0.00110841
0.00112169
0.00107204
0.00109197
0.00102077
0.00104834
0.000954399
0.000989378
0.000875945
0.000916309
0.000793171
0.000834409
0.000716817
0.000753612
0.000653276
0.000683373
0.000602997
0.000626508
0.000565257
0.00058262
0.000538343
0.00055061
0.000519712
0.000528128
0.000505067
0.00051227
0.000491743
0.000498563
0.000476127
0.000484435
0.000455087
0.000466469
0.000426315
0.000441754
0.000389349
0.000408841
0.000345547
0.000368066
0.000300022
0.000322447
0.000259926
0.000278846
0.000229514
0.000243369
0.000209168
0.000218176
0.000196858
0.000202146
0.000189979
0.000193022
0.000180983
0.000184998
0.000187388
0.00119867
0.00118504
0.00121794
0.00120952
0.00122748
0.00122388
0.00122809
0.00122888
0.0012199
0.00122512
0.00120228
0.00121229
0.00118969
0.000184786
0.000183758
0.000183092
0.00018417
0.000184
0.000183737
0.00018647
0.000185001
0.000191317
0.000188324
0.000200402
0.000195244
0.000215343
0.000206972
0.000238472
0.000225721
0.000271314
0.000253667
0.000312453
0.000291111
0.000357117
0.000334699
0.000399374
0.000378918
0.000434253
0.000417942
0.000460083
0.000448287
0.000477987
0.000469885
0.00049064
0.0004848
0.000501021
0.00049599
0.00051243
0.000506589
0.000526981
0.000519031
0.000548753
0.000536789
0.000580578
0.000563229
0.000625136
0.000601134
0.000683782
0.000652706
0.00075513
0.000718092
0.000834185
0.000794138
0.000913222
0.000874228
0.000984325
0.000950183
0.00104211
0.00101508
0.00108481
0.00106532
0.00111368
0.00110082
0.00113154
0.00112379
0.0011415
0.00113733
0.00114626
0.00114438
0.00114795
0.00114738
0.00114807
0.00114813
0.00114775
0.0011479
0.00114771
0.000173463
0.000171041
0.00113104
0.00113121
0.00113047
0.00113237
0.00113346
0.00116871
0.00114936
0.000175728
0.000171643
0.000177901
0.000172811
0.000183811
0.000180284
0.000174222
0.0001758
0.000177473
0.000179174
0.000180877
0.000182543
0.000184166
0.000186268
0.000185793
0.00112725
0.00112406
0.0011195
0.000171908
0.00113136
0.0011317
0.00113125
0.00112931
0.00110517
0.0011133
0.00108185
0.00109479
0.00104681
0.001066
0.000997556
0.00102405
0.000933909
0.000967413
0.00085905
0.000897548
0.000779276
0.000819238
0.000703514
0.000740243
0.00064044
0.000670116
0.000592662
0.000614792
0.000557859
0.000573801
0.000533646
0.000544551
0.00051792
0.000524849
0.000507874
0.000512424
0.000500248
0.000503657
0.000493391
0.000496889
0.000484614
0.000489407
0.000471338
0.000478713
0.000451079
0.000462224
0.000422093
0.000437762
0.000383788
0.000404007
0.000338878
0.000361788
0.000294419
0.000316158
0.000256464
0.000274301
0.000228429
0.000241131
0.000210131
0.000218171
0.000198762
0.000203859
0.000190995
0.000194423
0.000182848
0.000186947
0.000188638
0.00119812
0.00118488
0.00121678
0.00120865
0.00122614
0.00122258
0.00122676
0.00122752
0.00121873
0.00122384
0.00120174
0.00121138
0.00117451
0.00118952
0.00113506
0.00115644
0.000186234
0.00018601
0.000188315
0.000187006
0.000192662
0.000190104
0.000200995
0.000196246
0.000214759
0.000207026
0.000236261
0.000224363
0.000267307
0.000250541
0.000307023
0.000286277
0.000351439
0.000329017
0.000394226
0.000373413
0.000430269
0.000413337
0.000456914
0.000444813
0.000474552
0.000466746
0.000485377
0.000480656
0.000491994
0.000489052
0.00049676
0.000494429
0.000501971
0.00049897
0.000509335
0.000505321
0.000521076
0.000514371
0.000540525
0.000529715
0.000570175
0.000553897
0.000612607
0.000589667
0.000669079
0.000639096
0.000738147
0.000702267
0.000814828
0.000775971
0.000891462
0.000853666
0.000960295
0.000927264
0.00101607
0.000989997
0.00105717
0.00103842
0.00108496
0.00107257
0.00110229
0.00109474
0.00111225
0.00110801
0.00111752
0.00111533
0.00112021
0.00111908
0.00112182
0.00112107
0.00112358
0.00112261
0.00112655
0.00112485
0.000173811
0.000171993
0.00109882
0.00110036
0.00109672
0.00108335
0.0010893
0.00107534
0.00017582
0.000172882
0.00113729
0.00111003
0.00111313
0.00109993
0.00112879
0.0011031
0.000178007
0.000174156
0.000180269
0.000175674
0.00018582
0.000182734
0.000177289
0.000178966
0.000180643
0.000182305
0.000183913
0.000185458
0.000187424
0.000186819
0.00017269
0.00110559
0.00110756
0.00110273
0.00110402
0.00110158
0.00109362
0.00105246
0.00106533
0.00101814
0.00103689
0.000970493
0.000996094
0.000909111
0.000941427
0.000837095
0.000874096
0.00076081
0.000799006
0.000687777
0.000723385
0.000625287
0.000654784
0.000578085
0.000599737
0.000545484
0.000560234
0.000523808
0.000533489
0.000510252
0.000516117
0.000502848
0.000506025
0.000498327
0.000500468
0.000496012
0.000497102
0.000493802
0.000494998
0.000490035
0.000492214
0.00048281
0.000486987
0.000469937
0.000477219
0.000449199
0.000460687
0.000418655
0.00043522
0.00037827
0.000399491
0.000333376
0.000356018
0.000290193
0.000311172
0.000254408
0.000271125
0.000228528
0.000240215
0.000211166
0.000219003
0.000199488
0.000204664
0.000192482
0.000195477
0.000185291
0.00018907
0.000190565
0.00116955
0.00115084
0.00119803
0.0011852
0.00121604
0.00120824
0.0012251
0.00122163
0.00122573
0.00122645
0.00121802
0.00122291
0.00120169
0.001211
0.00117537
0.00118988
0.00115793
0.000188269
0.000189123
0.000188279
0.000188691
0.00019005
0.000188739
0.000194166
0.000191773
0.0002018
0.000197391
0.000214628
0.000207441
0.000234689
0.000223563
0.000264008
0.000248117
0.000302326
0.000282163
0.000346205
0.000323927
0.000389769
0.000368436
0.00042719
0.000409545
0.000455256
0.000442464
0.000473801
0.000465651
0.00048456
0.000480004
0.00048995
0.000487778
0.000492143
0.000491329
0.000492911
0.000492622
0.000493582
0.000493218
0.000496055
0.000494549
0.000500875
0.000498027
0.000510637
0.00050491
0.000528178
0.000518301
0.000555941
0.000540613
0.000596394
0.000574458
0.000650734
0.000621841
0.000717512
0.000682792
0.000791801
0.000754152
0.000866049
0.000829439
0.000932626
0.000900696
0.000986474
0.000961314
0.00102616
0.00100805
0.00105313
0.00104107
0.00107026
0.00106272
0.00108064
0.00107611
0.00108692
0.00108415
0.0010912
0.0010892
0.00109509
0.0010931
0.00109732
0.0001745
0.000173129
0.00106028
0.0010637
0.00105595
0.00103308
0.0010427
0.00102059
0.00108101
0.00108515
0.00113172
0.00110695
0.000176439
0.000174216
0.000178437
0.000175652
0.000180582
0.000177218
0.000182802
0.000178877
0.000188031
0.000185206
0.000180558
0.000182219
0.000183851
0.000185406
0.000186827
0.000189913
0.000188159
0.000189472
0.000191538
0.000190834
0.00019225
0.000173626
0.00107442
0.00107748
0.00106911
0.00107167
0.00106654
0.00105014
0.000986977
0.00100534
0.000940405
0.000965402
0.000880908
0.000912195
0.000811328
0.000847058
0.000737863
0.000774606
0.000668079
0.000702061
0.000608002
0.000636522
0.000561467
0.000582873
0.000529554
0.0005438
0.000509756
0.000518423
0.000498316
0.00050317
0.000492873
0.000495036
0.000490767
0.00049156
0.000490843
0.000490422
0.000491966
0.000491332
0.000493007
0.000492551
0.000492882
0.000493173
0.000490193
0.000491959
0.000483227
0.000487372
0.000469887
0.000477512
0.000447654
0.000460037
0.000414762
0.000432516
0.000373625
0.00039502
0.000328981
0.000351336
0.000287269
0.000307393
0.000253369
0.000269168
0.000228518
0.00023992
0.000211432
0.00021905
0.000200616
0.000205345
0.000194271
0.000197027
0.00018779
0.000191211
0.000192593
0.00117102
0.00115298
0.00119848
0.00118611
0.00121587
0.00120834
0.00122452
0.00122124
0.00122516
0.00122582
0.00121789
0.00122253
0.0012022
0.00121116
0.00117689
0.00119085
0.00114025
0.00116011
0.00109005
0.001117
0.000190963
0.000191099
0.00019191
0.000191212
0.000195566
0.000193357
0.000202785
0.000198563
0.000214894
0.000208135
0.000233721
0.000223279
0.000261422
0.00024637
0.000298371
0.000278822
0.000341649
0.000319536
0.000385626
0.000363928
0.000424398
0.000405971
0.000454163
0.000440533
0.000474041
0.000465279
0.000485517
0.000480696
0.000490846
0.000488804
0.000492179
0.000491897
0.000491158
0.000491878
0.000489028
0.000490169
0.000486717
0.000487859
0.000485048
0.000485753
0.000485454
0.000485152
0.000488425
0.000486479
0.000496666
0.000491695
0.000512572
0.00050352
0.000538588
0.000524151
0.000577112
0.000556168
0.000629314
0.000601514
0.000693772
0.000660232
0.000765632
0.000729205
0.000837466
0.000802053
0.000901819
0.000870963
0.000953852
0.000929536
0.000992304
0.000974726
0.00101873
0.00100685
0.00103606
0.00102834
0.00104734
0.00104228
0.00105526
0.00105158
0.00106194
0.00105864
0.00106914
0.00106539
0.00107831
0.00107339
0.000175405
0.000174409
0.00102029
0.0010143
0.00017726
0.000175696
0.00109588
0.00105901
0.00106599
0.0010454
0.00108408
0.00105236
0.000179231
0.000177214
0.000181242
0.00017886
0.000183352
0.000180545
0.000185507
0.000182234
0.000190453
0.000187764
0.000183905
0.000185506
0.00018699
0.000188354
0.00126637
0.00143102
0.000189587
0.000190776
0.000191987
0.000196007
0.000864158
0.000986084
0.000193212
0.000971488
0.000174786
0.00104757
0.00105293
0.00103831
0.00104276
0.00102983
0.00103407
0.00102535
0.00100698
0.000997742
0.000908207
0.000953664
0.000932575
0.000850172
0.00088066
0.000782648
0.00081727
0.000711661
0.000747121
0.000644574
0.00067719
0.000587391
0.00061448
0.000542956
0.000563492
0.000511751
0.000525708
0.00049267
0.000500866
0.000482769
0.000486802
0.000479085
0.000480344
0.000478896
0.00047863
0.000480533
0.000479339
0.000483784
0.000482051
0.000487502
0.000485629
0.00049102
0.000489327
0.000493583
0.000492476
0.000494252
0.000494225
0.000491783
0.000493512
0.000484494
0.000488886
0.00046995
0.000478306
0.000445623
0.000459114
0.000411359
0.000429691
0.000369598
0.000391141
0.000325518
0.000347466
0.00028507
0.000304516
0.000252175
0.000267563
0.000228152
0.00023912
0.000212112
0.000219263
0.000202075
0.000206469
0.0001964
0.000198811
0.000190224
0.000193415
0.0001947
0.00113548
0.00111165
0.00117322
0.0011559
0.00119959
0.00118771
0.00121629
0.00120906
0.0012246
0.00122144
0.00122525
0.00122586
0.00121836
0.00122277
0.00120339
0.00121194
0.00117919
0.00119253
0.00114409
0.00116312
0.00112178
0.000194342
0.000193626
0.000197535
0.000195688
0.000203821
0.000200018
0.000215222
0.000208804
0.000233163
0.00022326
0.000259523
0.000245159
0.000295027
0.000276161
0.000337449
0.000315622
0.000381719
0.000359746
0.000421667
0.00040255
0.000453064
0.000438613
0.000474491
0.000464994
0.000487035
0.000481754
0.000492856
0.000490647
0.000494092
0.000493933
0.000492418
0.000493535
0.00048899
0.000490862
0.000484637
0.000486888
0.00048001
0.000482326
0.000475777
0.000477785
0.000472551
0.000473892
0.000471299
0.000471742
0.000472927
0.000471673
0.000479842
0.000475549
0.000494274
0.000485976
0.000518635
0.000505054
0.000555262
0.000535299
0.000605312
0.00057862
0.000667409
0.000635072
0.000736796
0.000701611
0.000806198
0.000771984
0.000868379
0.000838562
0.000918721
0.000895175
0.000956168
0.000938997
0.000982404
0.000970515
0.00100039
0.000992228
0.00101321
0.00100726
0.00102357
0.00101855
0.00103369
0.00102853
0.00103924
0.000176538
0.000175825
0.00102347
0.00103168
0.000254719
0.00109086
0.0010603
0.000178372
0.000177255
0.00018023
0.000178878
0.000182146
0.000180568
0.000184089
0.000182283
0.000186118
0.000184005
0.000188227
0.000185673
0.000192809
0.000190364
0.00018724
0.000188677
0.000189962
0.000191154
0.000192296
0.000193373
0.000194413
0.000195276
0.000201309
0.000193094
0.000327488
0.000176085
0.00100923
0.00101602
0.00099669
0.00100283
0.000984066
0.000990501
0.000969059
0.000977062
0.000948486
0.000959754
0.000917876
0.000934744
0.000874135
0.000897755
0.00081763
0.000847309
0.000751881
0.000785554
0.00068306
0.000717366
0.000618386
0.000649771
0.000563682
0.000589529
0.000521701
0.000541059
0.000492248
0.000505493
0.000473833
0.000481752
0.000464591
0.000468213
0.000462179
0.000462692
0.000463424
0.000462407
0.000466444
0.000464679
0.000471189
0.000468729
0.0004767
0.000473879
0.000482406
0.000479567
0.000487806
0.000485175
0.00049242
0.000490251
0.000495595
0.000494233
0.000496478
0.000496391
0.000493826
0.000495696
0.000485666
0.000490602
0.000469486
0.000478753
0.000443656
0.00045786
0.00040829
0.000427049
0.000366229
0.000387815
0.000322629
0.000344249
0.000282997
0.000302017
0.000251135
0.000265945
0.000228311
0.000238602
0.00021321
0.000219916
0.000203733
0.000207889
0.000198342
0.000200535
0.000199508
0.000199205
0.000196338
0.000203455
0.000196541
0.000205868
0.0011402
0.00111736
0.00117629
0.00115974
0.00120145
0.00119012
0.00121738
0.00121048
0.00122533
0.0012223
0.001226
0.00122655
0.00121952
0.00122367
0.00120535
0.00121345
0.00118238
0.00119505
0.00114895
0.00116709
0.00110279
0.00112762
0.00104092
0.00107403
0.000199586
0.000197784
0.000205388
0.000202028
0.000215962
0.000210016
0.000232811
0.000223432
0.000258023
0.000244269
0.000292302
0.000274061
0.000333897
0.00031239
0.000378099
0.000356014
0.000418961
0.000399279
0.000451812
0.000436571
0.00047481
0.000464553
0.00048858
0.000482735
0.000495148
0.000492628
0.000496661
0.000496422
0.000494842
0.000496092
0.000490892
0.000493087
0.000485623
0.000488366
0.000479549
0.000482654
0.000473171
0.000476389
0.000466926
0.00047001
0.000461167
0.000463962
0.00045691
0.000458777
0.000454395
0.000455472
0.000454911
0.000454215
0.000460669
0.000456976
0.000473761
0.000466161
0.000496545
0.000483787
0.000531299
0.000512311
0.000579181
0.000553608
0.000638875
0.000607763
0.000705754
0.000671826
0.000772732
0.000739706
0.000832805
0.000803986
0.000881623
0.000858751
0.000918357
0.000901431
0.000944841
0.000932704
0.000964092
0.000955168
0.000979245
0.000971998
0.000993044
0.00098616
0.00100777
0.00100017
0.00102522
0.00101604
0.000195664
0.000177838
0.000177348
0.00017962
0.000178912
0.0010513
0.00100293
0.00101438
0.000985087
0.00103546
0.000996455
0.000181442
0.000180598
0.000183267
0.000182348
0.00018513
0.000184108
0.000187002
0.000185843
0.000188908
0.000187503
0.000190893
0.000189043
0.00019043
0.00126208
0.00019169
0.000203527
0.00019282
0.000193884
0.000195785
0.000196504
0.000196771
0.000197688
0.000197835
0.00019493
0.000199018
0.000199034
0.0001997
0.000177529
0.000982863
0.000992475
0.000965402
0.000973913
0.000948793
0.000957115
0.000930822
0.000940115
0.000908847
0.000920546
0.000879161
0.000895243
0.000837867
0.000860187
0.000783588
0.000812279
0.000719655
0.000752445
0.000652757
0.000686071
0.000590284
0.000620521
0.000537813
0.000562549
0.00049798
0.000516271
0.000470527
0.000482808
0.000453491
0.000460852
0.000444804
0.000448209
0.000442865
0.000443123
0.000445177
0.000443567
0.000449453
0.000447058
0.000455357
0.000452247
0.000462033
0.000458605
0.000469236
0.000465619
0.000476483
0.00047288
0.000483327
0.000479982
0.000489562
0.000486544
0.000494661
0.000492261
0.000498035
0.000496601
0.000498836
0.000498829
0.000495632
0.000497868
0.000486328
0.000491914
0.000468836
0.000478741
0.000441756
0.000456512
0.000405522
0.000424657
0.000363202
0.000384823
0.000319907
0.000341309
0.000281086
0.000299632
0.000250487
0.000264665
0.00022879
0.000238622
0.000214291
0.000220777
0.000204938
0.000209092
0.000200033
0.00020213
0.000206676
0.00109883
0.0010694
0.00114606
0.00112423
0.00118038
0.00116466
0.00120419
0.00119347
0.00121927
0.00121274
0.00122681
0.00122392
0.00122751
0.00122799
0.00122148
0.00122535
0.00120821
0.00121581
0.00118661
0.00119854
0.00115498
0.00117218
0.00111094
0.00113469
0.00108331
0.000198384
0.000198755
0.000201346
0.000199526
0.000207119
0.000203833
0.000217176
0.00021152
0.000233138
0.000224234
0.000256986
0.000243826
0.000290002
0.000272357
0.000330716
0.000309615
0.000374727
0.000352649
0.000416241
0.000396147
0.00045039
0.000434463
0.000474821
0.000463849
0.000489865
0.000483427
0.000497302
0.000494398
0.000499283
0.000498856
0.000497583
0.000498812
0.000493445
0.000495783
0.00048769
0.000490778
0.000481046
0.000484438
0.000473587
0.000477378
0.000465808
0.000469717
0.000458033
0.000461901
0.000450591
0.000454253
0.000443987
0.000447146
0.000438696