/*--------------------------------*- C++ -*----------------------------------*\
| =========                 |                                                 |
| \\      /  F ield         | OpenFOAM: The Open Source CFD Toolbox           |
|  \\    /   O peration     | Version:  2212                                  |
|   \\  /    A nd           | Website:  www.openfoam.com                      |
|    \\/     M anipulation  |                                                 |
\*---------------------------------------------------------------------------*/
FoamFile
{
    version     2.0;
    format      ascii;
    arch        "LSB;label=32;scalar=64";
    class       volScalarField;
    location    "0.032";
    object      T;
}
// * * * * * * * * * * * * * * * * * * * * * * * * * * * * * * * * * * * * * //

dimensions      [0 0 0 1 0 0 0];

internalField   nonuniform List<scalar> 
44662
(
272.317
273.025
273.029
273.026
273.028
272.523
271.614
272.541
273.078
272.214
272.468
273.159
271.654
273.06
273.197
273.158
273.176
273.158
272.409
271.417
272.026
273.17
271.699
272.58
272.702
272.723
271.711
272.019
271.817
271.924
272.862
271.958
272.859
272.355
272.706
272.558
273.136
273.142
272.536
273.104
273.111
273.129
272.29
272.852
271.825
272.462
272.023
272.611
272.281
272.856
273.046
272.093
272.981
272.885
272.241
272.489
273.036
272.231
271.967
271.984
272.489
272.89
272.36
272.973
272.154
272.427
272.492
272.609
272.914
271.761
272.881
272.392
272.524
272.428
271.778
273.125
272.852
271.93
272.045
272.508
272.46
271.797
273.059
271.855
272.458
273.076
271.82
273.013
272.085
271.569
271.89
271.847
272.705
272.831
271.83
272.025
272.333
271.845
271.941
272.917
270.961
273.021
272.106
272.662
271.697
271.968
271.744
272.498
273.001
271.479
271.798
273.082
273.022
272.661
272.535
271.858
272.117
273.068
272.885
271.925
273.091
271.889
272.061
271.997
271.93
273.019
272.07
271.976
273.041
272.141
272.024
272.069
272.464
272.016
272.215
272.072
272.137
272.137
272.286
272.114
272.033
272.352
272.022
272.097
272.409
273.043
273.059
273.061
273.022
272.959
273.099
273.04
272.408
272.38
273.031
273.022
273.093
270.937
270.926
270.916
270.906
270.895
270.885
270.875
270.865
270.855
270.845
270.834
270.824
270.814
270.803
270.793
270.783
270.772
270.761
270.751
270.74
270.729
270.719
270.708
270.697
270.685
270.674
270.663
270.651
270.64
270.628
270.616
270.604
270.592
270.58
270.567
270.554
270.541
270.528
270.515
270.501
270.487
270.473
270.458
270.444
270.428
270.413
270.397
270.381
270.364
270.387
270.37
270.403
272.894
270.947
270.941
270.951
270.347
270.33
270.336
270.353
270.435
270.419
270.465
270.45
270.493
270.479
270.521
270.507
270.548
270.535
270.573
270.561
270.599
270.586
270.623
270.611
270.646
270.635
270.669
270.658
270.691
270.68
270.713
270.702
270.735
270.724
270.756
270.746
270.777
270.767
270.798
270.788
270.819
270.808
270.839
270.829
270.859
270.849
270.88
270.87
270.9
270.89
270.92
270.91
270.93
270.92
270.93
270.899
270.91
270.879
270.889
270.859
270.869
270.839
270.849
270.819
270.829
270.798
270.808
270.777
270.788
270.756
270.767
270.735
270.745
270.713
270.724
270.691
270.702
270.668
270.68
270.645
270.657
270.622
270.634
270.598
270.61
270.573
270.585
270.547
270.56
270.521
270.534
270.493
270.507
270.464
270.479
270.434
270.45
270.403
270.419
270.37
270.387
270.336
270.353
270.405
270.388
270.421
272.89
272.895
270.952
270.962
270.318
270.353
270.335
270.353
270.318
270.335
270.961
270.957
270.371
270.453
270.437
270.483
270.468
270.512
270.498
270.54
270.526
270.566
270.553
270.592
270.579
270.617
270.605
270.641
270.629
270.665
270.653
270.687
270.676
270.709
270.698
270.731
270.72
270.752
270.741
270.773
270.762
270.793
270.783
270.813
270.803
270.833
270.823
270.853
270.843
270.873
270.863
270.893
270.883
270.913
270.903
270.932
270.923
270.942
271.813
270.312
270.932
270.942
270.912
270.922
270.892
270.902
270.873
270.883
270.853
270.863
270.833
270.843
270.813
270.823
270.793
270.803
270.772
270.783
270.751
270.762
270.73
270.741
270.708
270.719
270.686
270.697
270.663
270.674
270.639
270.651
270.616
270.628
270.591
270.603
270.565
270.578
270.539
270.552
270.511
270.525
270.482
270.497
270.453
270.468
270.421
270.437
270.388
270.405
270.371
270.972
270.364
270.382
270.434
270.417
270.451
270.299
270.316
270.96
270.982
270.971
270.967
270.346
270.404
270.385
270.981
270.992
270.4
270.483
270.467
270.514
270.499
270.543
270.529
270.571
270.557
270.597
270.584
270.623
270.61
270.648
270.635
270.672
270.66
270.695
270.684
270.717
270.706
270.738
270.728
270.759
270.749
270.78
270.769
270.8
270.79
270.82
270.81
270.839
270.829
270.858
270.849
270.878
270.868
270.897
270.887
270.916
270.906
270.935
270.925
270.953
270.944
272.192
270.962
270.299
270.293
270.317
271.01
270.991
271
270.972
270.981
270.952
270.962
270.933
270.943
270.914
270.924
270.896
270.905
270.877
270.886
270.858
270.867
270.839
270.848
270.819
270.829
270.799
270.809
270.779
270.789
270.758
270.768
270.737
270.747
270.715
270.726
270.692
270.704
270.669
270.681
270.646
270.657
270.621
270.633
270.596
270.608
270.569
270.582
270.541
270.555
270.513
270.527
270.482
270.498
270.451
270.467
270.418
270.435
270.383
270.4
270.345
270.364
271.002
271.019
270.971
270.422
270.97
270.327
270.366
270.454
270.435
270.385
270.326
270.365
270.978
270.991
271.012
270.492
270.475
270.457
271.029
271.015
270.989
270.44
270.525
270.509
270.556
270.541
270.585
270.571
270.613
270.599
270.64
270.627
270.665
270.653
270.69
270.678
270.715
270.703
270.737
270.726
270.758
270.748
270.779
270.769
270.799
270.789
270.819
270.809
270.838
270.828
270.857
270.847
270.875
270.866
270.894
270.884
270.912
270.903
270.93
270.921
270.948
270.939
270.965
270.957
270.982
270.974
273.071
270.99
273.024
270.28
270.297
270.28
270.274
270.298
271.053
271.035
271.044
271.017
271.026
270.999
271.008
270.981
270.99
270.963
270.972
270.946
270.955
270.928
270.937
270.911
270.92
270.893
270.902
270.874
270.884
270.856
270.865
270.837
270.846
270.817
270.827
270.797
270.807
270.777
270.787
270.755
270.766
270.733
270.745
270.711
270.722
270.687
270.699
270.663
270.675
270.638
270.651
270.611
270.625
270.583
270.597
270.554
270.569
270.524
270.539
270.492
270.508
270.459
270.476
270.423
270.441
270.404
271.038
271.062
270.981
270.472
270.526
270.509
270.544
270.416
270.306
270.345
271.049
271.024
271.057
270.98
270.988
271.001
271.021
271.047
271.07
270.998
270.49
270.578
270.561
270.609
270.594
270.639
270.624
270.667
270.653
270.694
270.68
270.719
270.707
270.744
270.732
270.769
270.757
270.791
270.78
270.811
270.801
270.831
270.821
270.85
270.84
270.869
270.86
270.887
270.878
270.905
270.896
270.922
270.914
270.939
270.931
270.956
270.948
270.973
270.964
270.99
270.981
271.006
270.998
271.02
271.013
271.035
271.027
271.042
270.26
270.278
270.261
270.255
270.307
270.278
270.396
270.346
271.101
271.084
271.092
271.068
271.076
271.052
271.06
271.035
271.044
271.019
271.027
271.003
271.011
270.987
270.995
270.971
270.979
270.955
270.963
270.938
270.946
270.921
270.93
270.904
270.912
270.886
270.895
270.867
270.876
270.848
270.858
270.828
270.838
270.808
270.818
270.786
270.797
270.764
270.775
270.741
270.752
270.716
270.729
270.691
270.704
270.664
270.678
270.637
270.651
270.607
270.622
270.576
270.592
270.544
270.56
270.51
270.527
270.473
270.492
270.435
270.455
270.395
270.415
271.079
271.109
271.065
271.032
270.99
270.513
270.494
270.532
270.99
270.375
270.454
270.433
270.453
270.374
270.431
271.107
271.073
271.114
270.997
271.011
271.031
271.057
271.088
270.569
270.587
270.605
271.117
271.008
270.474
270.55
270.64
270.623
270.672
270.656
270.702
270.687
270.731
270.717
270.758
270.744
270.784
270.771
270.809
270.796
270.833
270.821
270.855
270.845
270.875
270.865
270.893
270.884
270.912
270.903
270.93
270.921
270.947
270.939
270.964
270.956
270.98
270.972
270.995
270.988
271.011
271.003
271.026
271.018
271.042
271.034
271.055
271.049
271.068
271.062
271.08
271.074
271.093
271.086
271.1
270.286
270.325
270.24
270.257
270.241
270.235
270.287
270.258
270.326
271.153
271.138
271.145
271.124
271.131
271.11
271.117
271.095
271.102
271.081
271.088
271.066
271.073
271.052
271.059
271.038
271.045
271.023
271.031
271.009
271.016
270.994
271.001
270.978
270.986
270.962
270.97
270.945
270.954
270.928
270.937
270.909
270.919
270.89
270.9
270.87
270.881
270.849
270.86
270.827
270.839
270.804
270.816
270.78
270.792
270.755
270.768
270.728
270.742
270.7
270.714
270.67
270.685
270.638
270.654
270.605
270.622
270.57
270.588
270.533
270.552
270.494
270.514
270.474
271.125
271.16
271.041
271
270.58
270.56
270.599
270.656
270.637
270.675
270.52
270.498
270.352
270.409
271.122
271.082
271
271.007
271.021
271.04
271.066
271.097
271.133
271.167
271.017
270.54
270.618
270.71
270.693
270.743
270.727
270.774
270.759
270.803
270.789
270.831
270.817
270.857
270.844
270.882
270.87
270.907
270.895
270.929
270.919
270.948
270.939
270.966
270.957
270.984
270.975
271.001
270.992
271.017
271.009
271.033
271.025
271.048
271.04
271.062
271.055
271.075
271.069
271.089
271.082
271.103
271.097
271.115
271.109
271.125
271.12
271.135
271.13
271.146
271.14
271.157
271.151
271.172
271.164
271.132
271.181
270.265
270.303
270.22
270.237
270.22
270.214
270.266
270.237
270.353
270.305
270.475
270.411
271.208
271.196
271.202
271.184
271.19
271.172
271.178
271.16
271.166
271.147
271.153
271.135
271.141
271.123
271.129
271.111
271.117
271.098
271.105
271.086
271.092
271.073
271.079
271.059
271.066
271.045
271.052
271.03
271.038
271.015
271.023
270.998
271.007
270.981
270.99
270.962
270.972
270.943
270.953
270.922
270.933
270.901
270.912
270.877
270.889
270.853
270.865
270.827
270.84
270.8
270.814
270.771
270.786
270.741
270.756
270.709
270.725
270.675
270.692
270.639
270.657
270.601
270.62
270.561
270.581
270.518
270.54
270.473
270.496
271.174
271.214
271.05
271.01
270.652
270.632
270.672
270.731
270.711
270.75
271.091
271.01
270.452
270.545
270.521
270.543
270.45
270.519
271.186
271.141
271.017
271.031
271.05
271.075
271.105
271.141
271.219
271.181
271.026
270.59
270.568
270.612
270.692
270.787
270.769
270.821
270.804
270.852
270.837
270.882
270.867
270.91
270.896
270.937
270.923
270.963
270.95
270.988
270.976
271.01
271
271.029
271.02
271.046
271.038
271.064
271.055
271.081
271.072
271.096
271.088
271.111
271.104
271.124
271.118
271.137
271.131
271.15
271.144
271.162
271.156
271.175
271.169
271.185
271.18
271.192
271.188
271.2
271.196
271.208
271.204
271.217
271.213
271.229
271.222
271.242
271.236
271.188
271.243
271.243
270.33
270.386
270.243
270.282
270.199
270.215
270.199
270.193
270.244
270.216
270.331
270.283
270.388
271.27
271.265
271.224
271.268
271.257
271.261
271.248
271.252
271.238
271.243
271.228
271.233
271.219
271.223
271.209
271.214
271.199
271.204
271.189
271.194
271.179
271.184
271.169
271.174
271.158
271.163
271.147
271.152
271.135
271.141
271.122
271.128
271.108
271.115
271.093
271.101
271.078
271.086
271.061
271.069
271.043
271.052
271.023
271.033
271.003
271.013
270.981
270.992
270.958
270.969
270.933
270.945
270.907
270.92
270.879
270.893
270.849
270.864
270.818
270.834
270.785
270.802
270.75
270.768
270.713
270.732
270.674
270.694
270.633
270.654
270.589
270.611
270.566
271.059
271.019
270.728
270.707
270.748
270.617
270.592
270.426
270.494
271.1
271.02
271.143
271.027
271.246
271.193
271.04
271.059
271.084
271.114
271.148
271.187
271.229
271.326
271.276
270.789
270.809
270.828
271.036
270.664
270.641
270.686
270.769
270.866
270.848
270.901
270.884
270.934
270.918
270.964
270.949
270.993
270.979
271.021
271.007
271.047
271.034
271.073
271.061
271.096
271.085
271.114
271.105
271.132
271.123
271.15
271.141
271.166
271.158
271.182
271.174
271.196
271.189
271.209
271.202
271.221
271.215
271.232
271.226
271.243
271.238
271.254
271.249
271.263
271.259
271.269
271.266
271.274
271.271
271.28
271.277
271.287
271.283
271.295
271.291
271.305
271.301
271.306
271.306
271.249
271.31
271.307
270.307
270.363
270.221
270.259
270.177
270.193
270.177
270.171
270.222
270.194
270.308
270.26
270.427
270.364
270.567
270.496
271.319
271.32
271.314
271.317
271.308
271.311
271.301
271.305
271.294
271.298
271.287
271.29
271.279
271.283
271.272
271.276
271.264
271.268
271.256
271.26
271.248
271.252
271.238
271.243
271.228
271.234
271.218
271.223
271.206
271.212
271.193
271.199
271.178
271.186
271.163
271.171
271.146
271.155
271.128
271.138
271.109
271.119
271.088
271.099
271.066
271.077
271.042
271.054
271.017
271.03
270.99
271.003
270.961
270.976
270.931
270.946
270.899
270.915
270.865
270.882
270.829
270.847
270.791
270.81
270.75
270.771
270.708
270.729
270.663
270.686
270.615
270.639
270.565
270.59
271.068
271.029
270.804
270.783
270.825
270.887
270.866
270.907
271.105
271.029
270.54
270.638
270.611
270.636
270.539
270.609
271.149
271.037
271.198
271.05
271.312
271.253
271.069
271.093
271.122
271.156
271.193
271.236
271.333
271.284
271.045
270.69
270.664
270.738
270.714
270.761
270.846
270.946
270.927
270.982
270.964
271.015
270.999
271.047
271.031
271.076
271.062
271.105
271.091
271.132
271.119
271.159
271.146
271.182
271.171
271.202
271.192
271.22
271.211
271.238
271.229
271.255
271.247
271.271
271.263
271.285
271.278
271.298
271.291
271.309
271.303
271.32
271.315
271.331
271.325
271.341
271.336
271.349
271.345
271.352
271.351
271.356
271.354
271.36
271.358
271.365
271.362
271.371
271.368
271.377
271.375
271.378
271.378
271.379
271.378
271.315
271.382
271.38
270.401
270.468
270.283
270.338
270.198
270.236
270.154
270.171
270.155
270.149
270.199
270.172
270.284
270.237
270.402
270.34
270.47
271.337
271.393
271.382
271.389
271.382
271.381
271.381
271.382
271.377
271.379
271.373
271.375
271.368
271.371
271.364
271.366
271.358
271.361
271.353
271.356
271.347
271.35
271.341
271.344
271.333
271.337
271.325
271.33
271.316
271.321
271.306
271.311
271.294
271.3
271.282
271.288
271.267
271.275
271.252
271.26
271.235
271.244
271.216
271.226
271.196
271.207
271.175
271.186
271.152
271.164
271.127
271.14
271.101
271.115
271.073
271.088
271.044
271.059
271.013
271.029
270.98
270.996
270.945
270.962
270.908
270.926
270.868
270.888
270.827
270.848
270.783
270.805
270.737
270.76
270.688
270.713
270.663
271.076
271.038
270.877
270.855
270.899
270.962
270.941
270.983
270.707
270.679
270.512
270.582
271.112
271.039
271.155
271.046
271.203
271.06
271.258
271.078
271.383
271.318
271.102
271.13
271.163
271.201
271.243
271.394
271.29
271.34
271.455
271.394
271.452
271.054
270.76
270.734
270.81
270.785
270.833
270.92
271.022
271.002
271.059
271.041
271.093
271.076
271.125
271.11
271.156
271.141
271.185
271.171
271.214
271.2
271.241
271.228
271.265
271.254
271.286
271.276
271.306
271.296
271.325
271.315
271.343
271.334
271.359
271.351
271.374
271.367
271.387
271.381
271.399
271.393
271.41
271.405
271.421
271.416
271.431
271.426
271.438
271.435
271.441
271.44
271.444
271.443
271.447
271.445
271.45
271.448
271.454
271.452
271.457
271.456
271.457
271.457
271.456
271.457
271.457
271.456
271.385
271.457
271.457
270.375
270.442
270.259
270.314
270.175
270.212
270.131
270.148
270.132
270.126
270.176
270.148
270.26
270.213
270.377
270.315
270.513
270.443
270.65
270.583
271.458
271.457
271.454
271.457
271.455
271.454
271.455
271.455
271.454
271.455
271.453
271.454
271.45
271.452
271.448
271.449
271.444
271.446
271.44
271.442
271.436
271.438
271.43
271.433
271.423
271.427
271.416
271.42
271.407
271.411
271.396
271.402
271.384
271.39
271.371
271.378
271.356
271.364
271.34
271.348
271.322
271.331
271.302
271.312
271.282
271.292
271.259
271.271
271.235
271.247
271.21
271.223
271.183
271.196
271.154
271.168
271.123
271.139
271.091
271.108
271.057
271.074
271.021
271.04
270.983
271.003
270.943
270.964
270.901
270.922
270.856
270.879
270.809
270.833
270.759
270.784
270.706
270.733
270.65
270.678
271.084
271.048
270.923
270.945
271.119
271.049
270.621
270.714
270.684
270.713
270.62
270.683
271.161
271.056
271.208
271.069
271.262
271.087
271.322
271.111
271.457
271.387
271.138
271.171
271.208
271.249
273.063
273.032
271.294
271.342
271.394
271.635
272.416
271.01
271.453
271.031
271.062
270.771
270.743
270.825
270.799
270.876
270.851
270.9
270.967
270.989
271.092
271.052
271.072
271.129
271.111
271.164
271.147
271.197
271.181
271.228
271.213
271.258
271.243
271.288
271.273
271.316
271.302
271.341
271.329
271.364
271.353
271.385
271.374
271.405
271.395
271.424
271.415
271.442
271.433
271.458
271.45
271.473
271.466
271.487
271.48
271.499
271.493
271.51
271.505
271.521
271.516
271.529
271.525
271.532
271.531
271.535
271.534
271.537
271.536
271.539
271.538
271.542
271.541
271.543
271.543
271.542
271.543
271.541
271.541
271.539
271.54
271.537
271.538
271.457
271.534
271.536
270.484
270.553
270.349
270.415
270.234
270.288
270.15
270.187
270.107
270.124
270.108
270.102
270.151
270.124
270.235
270.188
270.35
270.289
270.485
270.416
270.554
271.533
271.53
271.533
271.534
271.535
271.534
271.538
271.536
271.539
271.538
271.539
271.539
271.538
271.538
271.536
271.537
271.534
271.535
271.531
271.533
271.526
271.529
271.521
271.524
271.514
271.517
271.505
271.51
271.495
271.5
271.484
271.49
271.471
271.477
271.456
271.464
271.44
271.448
271.422
271.431
271.403
271.413
271.382
271.393
271.36
271.371
271.336
271.348
271.311
271.324
271.285
271.298
271.257
271.271
271.227
271.242
271.196
271.212
271.163
271.18
271.128
271.146
271.092
271.11
271.053
271.073
271.013
271.033
270.97
270.991
270.924
270.947
270.876
270.9
270.825
270.851
270.771
270.798
270.742
271.092
271.057
270.77
270.74
272.272
270.59
270.653
271.127
271.058
271.168
271.066
271.214
271.079
271.267
271.096
271.325
271.119
271.389
271.147
271.532
271.458
271.179
271.215
271.255
271.297
271.344
271.396
271.456
271.534
271.821
271.534
271.421
271.071
270.829
270.8
270.884
270.857
270.935
270.91
270.983
270.959
271.028
271.006
271.071
271.049
271.113
271.092
271.153
271.133
271.19
271.172
271.225
271.208
271.258
271.242
271.29
271.274
271.321
271.306
271.351
271.336
271.379
271.365
271.406
271.393
271.43
271.418
271.452
271.441
271.474
271.464
271.496
271.485
271.515
271.506
271.534
271.525
271.551
271.542
271.566
271.558
271.58
271.573
271.594
271.587
271.606
271.6
271.615
271.611
271.62
271.618
271.624
271.622
271.627
271.626
271.63
271.629
271.632
271.631
271.632
271.632
271.631
271.632
271.629
271.63
271.627
271.628
271.623
271.625
271.618
271.621
271.719
271.734
271.614
271.903
271.661
271.98
270.455
270.524
270.322
270.387
270.208
270.261
270.126
270.162
270.083
270.099
270.083
270.078
270.126
270.099
270.209
270.163
270.323
270.263
270.456
270.388
270.591
270.525
270.708
270.653
271.615
271.611
271.619
271.618
271.622
271.62
271.625
271.623
271.627
271.626
271.628
271.628
271.628
271.628
271.627
271.627
271.624
271.625
271.62
271.622
271.615
271.618
271.608
271.612
271.599
271.604
271.589
271.595
271.577
271.584
271.564
271.571
271.549
271.557
271.532
271.541
271.514
271.523
271.495
271.504
271.474
271.484
271.451
271.463
271.428
271.44
271.403
271.415
271.377
271.39
271.349
271.363
271.321
271.335
271.29
271.306
271.259
271.275
271.226
271.242
271.191
271.208
271.154
271.172
271.115
271.135
271.074
271.095
271.03
271.052
270.984
271.008
270.936
270.96
270.884
270.91
270.829
270.857
270.771
270.8
270.709
270.74
271.604
271.1
271.066
271.134
271.068
270.676
270.756
270.723
270.757
270.676
270.724
271.174
271.075
271.22
271.088
271.271
271.106
271.328
271.128
271.391
271.155
271.458
271.186
271.221
273.067
271.26
271.904
271.301
271.347
271.464
271.544
271.618
271.559
271.629
271.399
271.638
271.708
271.714
271.08
270.819
270.788
270.878
270.849
270.934
270.907
270.986
270.96
271.034
271.01
271.079
271.057
271.122
271.101
271.163
271.143
271.203
271.183
271.24
271.222
271.275
271.257
271.308
271.291
271.34
271.324
271.37
271.355
271.4
271.385
271.429
271.415
271.456
271.443
271.482
271.469
271.506
271.494
271.53
271.518
271.553
271.541
271.574
271.564
271.595
271.585
271.615
271.605
271.633
271.624
271.65
271.641
271.666
271.658
271.681
271.673
271.693
271.687
271.701
271.697
271.707
271.704
271.712
271.71
271.717
271.715
271.72
271.718
271.721
271.72
271.721
271.721
271.719
271.72
271.716
271.718
271.713
271.715
271.707
271.71
271.702
271.703
271.979
270.559
270.621
270.426
270.493
270.294
270.359
270.181
270.234
270.1
270.136
270.058
270.074
270.058
270.052
270.1
270.074
270.182
270.137
270.295
270.235
270.427
270.36
270.56
270.494
270.621
271.682
271.696
271.693
271.687
271.704
271.699
271.708
271.706
271.712
271.71
271.715
271.713
271.717
271.716
271.717
271.717
271.716
271.717
271.714
271.715
271.71
271.712
271.704
271.707
271.696
271.7
271.687
271.692
271.676
271.681
271.663
271.669
271.648
271.655
271.632
271.64
271.614
271.623
271.595
271.605
271.575
271.585
271.553
271.564
271.53
271.542
271.506
271.518
271.482
271.494
271.456
271.469
271.429
271.442
271.401
271.415
271.372
271.386
271.341
271.357
271.31
271.326
271.277
271.293
271.242
271.259
271.205
271.224
271.166
271.186
271.126
271.146
271.082
271.104
271.036
271.059
270.987
271.012
270.935
270.961
270.879
270.907
270.82
270.85
270.789
271.108
271.075
271.53
270.794
270.761
270.643
270.69
271.142
271.077
271.181
271.084
271.226
271.097
271.276
271.115
271.332
271.137
271.717
271.642
271.393
271.163
271.461
271.193
271.533
271.227
271.57
271.588
271.265
271.5
273.03
271.306
272.716
271.352
271.404
271.718
271.797
271.797
271.089
270.858
270.827
270.918
270.889
270.975
270.947
271.027
271.001
271.075
271.051
271.12
271.098
271.163
271.142
271.204
271.183
271.242
271.223
271.278
271.26
271.312
271.295
271.345
271.329
271.376
271.361
271.406
271.391
271.436
271.421
271.465
271.45
271.492
271.479
271.518
271.505
271.544
271.531
271.569
271.556
271.593
271.581
271.617
271.605
271.64
271.629
271.662
271.651
271.683
271.673
271.703
271.693
271.722
271.713
271.74
271.732
271.756
271.749
271.768
271.763
271.779
271.774
271.787
271.783
271.795
271.791
271.8
271.798
271.804
271.803
271.806
271.805
271.806
271.806
271.805
271.806
271.802
271.804
271.797
271.8
271.795
271.794
271.805
270.527
270.588
270.395
270.462
270.265
270.329
270.154
270.206
270.073
270.109
270.032
270.047
270.032
270.026
270.074
270.048
270.155
270.11
270.266
270.207
270.396
270.33
270.528
270.463
270.642
270.588
270.726
270.689
271.791
271.794
271.777
271.784
271.784
271.779
271.793
271.789
271.797
271.796
271.8
271.799
271.802
271.801
271.802
271.803
271.801
271.802
271.798
271.8
271.792
271.795
271.785
271.789
271.776
271.781
271.765
271.771
271.752
271.759
271.737
271.745
271.721
271.729
271.703
271.712
271.683
271.693
271.663
271.673
271.641
271.652
271.619
271.63
271.595
271.607
271.571
271.583
271.546
271.558
271.52
271.533
271.494
271.507
271.467
271.48
271.439
271.453
271.41
271.424
271.38
271.395
271.349
271.364
271.316
271.333
271.282
271.299
271.246
271.264
271.208
271.227
271.167
271.188
271.124
271.146
271.078
271.101
271.029
271.054
270.976
271.003
270.92
270.949
270.86
270.891
270.796
270.829
270.728
270.763
271.117
271.084
271.15
271.086
270.69
270.754
270.718
270.757
270.692
270.72
271.188
271.094
271.232
271.106
271.796
271.718
271.281
271.124
271.644
271.336
271.145
271.396
271.17
271.461
271.2
271.574
271.519
271.233
271.508
271.59
271.27
271.449
271.746
271.935
271.311
271.357
271.407
271.794
271.877
271.875
271.098
270.824
270.79
270.889
270.857
270.949
270.919
271.006
270.978
271.058
271.033
271.107
271.083
271.151
271.129
271.194
271.173
271.233
271.214
271.271
271.252
271.306
271.289
271.339
271.323
271.371
271.355
271.401
271.386
271.431
271.416
271.459
271.445
271.487
271.473
271.514
271.501
271.54
271.527
271.566
271.553
271.592
271.579
271.617
271.604
271.642
271.629
271.666
271.654
271.691
271.679
271.714
271.702
271.737
271.726
271.76
271.749
271.782
271.771
271.802
271.792
271.819
271.811
271.834
271.827
271.847
271.841
271.859
271.853
271.869
271.864
271.877
271.873
271.882
271.88
271.885
271.884
271.887
271.886
271.886
271.887
271.884
271.885
271.884
271.883
271.893
271.889
271.897
271.896
271.9
271.898
270.608
270.655
270.494
270.554
270.364
270.43
270.236
270.299
270.126
270.177
270.046
270.081
270.005
270.02
270.005
270
270.046
270.021
270.126
270.082
270.237
270.178
270.365
270.3
270.495
270.431
270.608
270.554
270.653
271.879
271.879
271.876
271.878
271.87
271.873
271.873
271.871
271.88
271.877
271.883
271.882
271.883
271.883
271.882
271.883
271.879
271.881
271.874
271.877
271.867
271.871
271.858
271.863
271.846
271.852
271.833
271.84
271.817
271.825
271.8
271.809
271.781
271.79
271.76
271.771
271.739
271.75
271.716
271.728
271.693
271.705
271.669
271.681
271.645
271.657
271.621
271.633
271.596
271.608
271.57
271.583
271.544
271.557
271.518
271.531
271.491
271.505
271.464
271.478
271.436
271.45
271.407
271.421
271.376
271.392
271.344
271.361
271.311
271.328
271.276
271.294
271.239
271.258
271.199
271.219
271.156
271.178
271.11
271.134
271.061
271.086
271.009
271.035
270.952
270.981
270.891
270.922
270.826
270.859
270.792
271.125
271.094
270.773
270.736
271.976
272.057
270.655
270.683
271.157
271.096
271.872
271.792
271.195
271.103
271.717
271.238
271.115
271.645
271.286
271.132
271.34
271.153
271.398
271.178
271.577
271.457
271.207
271.513
271.521
271.239
271.454
271.592
271.276
272.739
271.316
271.361
271.404
271.824
272.055
271.106
270.843
270.809
270.909
270.877
270.971
270.941
271.028
271
271.081
271.055
271.129
271.105
271.174
271.152
271.215
271.195
271.254
271.235
271.291
271.273
271.325
271.308
271.357
271.341
271.388
271.373
271.417
271.402
271.445
271.431
271.473
271.459
271.499
271.486
271.525
271.512
271.551
271.538
271.576
271.564
271.602
271.589
271.627
271.614
271.652
271.64
271.677
271.665
271.703
271.69
271.728
271.715
271.753
271.74
271.778
271.765
271.802
271.79
271.826
271.814
271.848
271.837
271.869
271.859
271.888
271.879
271.905
271.897
271.921
271.913
271.934
271.927
271.944
271.939
271.952
271.948
271.958
271.955
271.961
271.96
271.962
271.962
271.965
271.963
271.97
271.968
271.973
271.972
271.974
270.573
270.618
270.461
270.52
270.332
270.397
270.205
270.267
270.096
270.148
270.018
270.053
269.977
269.992
269.977
269.972
270.018
269.993
270.097
270.053
270.206
270.148
270.333
270.268
270.461
270.398
270.572
270.52
270.653
270.617
270.697
270.68
272.121
272.124
271.938
271.942
271.869
271.953
271.949
271.959
271.957
271.961
271.961
271.96
271.961
271.957
271.958
271.957
271.957
271.959
271.958
271.958
271.959
271.955
271.957
271.95
271.953
271.942
271.946
271.932
271.938
271.92
271.926
271.905
271.913
271.888
271.897
271.869
271.879
271.848
271.859
271.826
271.837
271.803
271.815
271.78
271.791
271.756
271.768
271.731
271.743
271.706
271.719
271.682
271.694
271.657
271.669
271.632
271.645
271.607
271.62
271.582
271.595
271.557
271.57
271.531
271.544
271.506
271.519
271.479
271.492
271.452
271.466
271.424
271.438
271.394
271.409
271.364
271.379
271.331
271.348
271.297
271.315
271.26
271.279
271.221
271.241
271.179
271.2
271.133
271.157
271.084
271.109
271.031
271.058
270.974
271.003
270.913
270.944
270.847
270.881
270.776
270.812
270.7
270.739
272.018
271.864
271.133
271.103
271.79
271.165
271.105
270.657
270.704
270.663
270.707
270.66
270.667
271.715
271.202
271.112
271.645
271.244
271.124
271.291
271.141
271.343
271.161
271.579
271.399
271.185
271.516
271.458
271.213
271.458
271.524
271.246
271.593
271.281
272.712
271.321
271.406
271.362
271.746
271.826
271.982
271.905
272.02
271.939
271.86
271.983
272.504
271.115
270.781
270.743
270.853
270.818
270.92
270.887
270.983
270.952
271.041
271.012
271.094
271.068
271.143
271.119
271.188
271.166
271.229
271.209
271.268
271.249
271.304
271.286
271.337
271.321
271.368
271.353
271.398
271.383
271.426
271.412
271.453
271.44
271.48
271.467
271.506
271.493
271.531
271.518
271.555
271.543
271.58
271.568
271.605
271.592
271.63
271.617
271.654
271.642
271.679
271.667
271.705
271.692
271.73
271.717
271.756
271.743
271.782
271.769
271.807
271.794
271.833
271.82
271.858
271.846
271.883
271.87
271.907
271.895
271.93
271.918
271.951
271.941
271.97
271.961
271.987
271.979
272.002
271.995
272.013
272.008
272.022
272.018
272.028
272.025
272.034
272.031
272.04
272.037
272.044
272.042
272.047
272.045
272.052
272.05
272.054
270.617
270.644
270.536
270.581
270.426
270.484
270.299
270.363
270.174
270.235
270.066
270.117
269.989
270.023
269.948
269.964
269.948
269.943
269.989
269.964
270.067
270.024
270.175
270.118
270.3
270.236
270.426
270.364
270.536
270.484
270.615
270.58
270.641
272.033
272.029
272.038
272.036
272.038
272.038
272.036
272.037
272.032
272.034
272.029
272.031
272.026
272.028
272.02
272.023
272.012
272.016
272.001
272.007
271.987
271.994
271.97
271.979
271.951
271.961
271.93
271.941
271.908
271.919
271.884
271.896
271.86
271.872
271.835
271.847
271.81
271.822
271.785
271.797
271.759
271.772
271.734
271.747
271.709
271.722
271.685
271.697
271.66
271.672
271.636
271.648
271.611
271.623
271.587
271.599
271.563
271.575
271.538
271.55
271.513
271.526
271.488
271.5
271.461
271.475
271.434
271.448
271.406
271.42
271.376
271.391
271.345
271.361
271.311
271.328
271.275
271.293
271.236
271.256
271.194
271.215
271.148
271.171
271.099
271.124
271.045
271.072
270.987
271.017
270.925
270.956
270.857
270.891
270.785
270.822
270.747
271.786
271.142
271.112
272.511
270.703
270.662
270.619
270.625
271.714
271.173
271.114
271.645
271.209
271.121
271.25
271.133
271.296
271.15
271.58
271.346
271.17
271.519
271.4
271.193
271.462
271.461
271.22
271.525
271.252
271.595
271.287
271.41
271.325
271.67
271.747
271.365
271.826
271.906
272.024
272.099
272.1
272.545
273.022
271.984
272.023
271.942
271.86
271.784
271.124
270.781
270.743
270.855
270.819
270.923
270.889
270.986
270.955
271.045
271.016
271.099
271.073
271.149
271.125
271.195
271.172
271.236
271.216
271.275
271.256
271.311
271.293
271.344
271.327
271.375
271.36
271.404
271.39
271.432
271.418
271.458
271.445
271.484
271.471
271.509
271.496
271.533
271.521
271.557
271.545
271.581
271.569
271.605
271.593
271.629
271.617
271.653
271.641
271.677
271.665
271.701
271.689
271.726
271.713
271.751
271.738
271.777
271.764
271.803
271.79
271.83
271.816
271.857