/*--------------------------------*- C++ -*----------------------------------*\
| =========                 |                                                 |
| \\      /  F ield         | OpenFOAM: The Open Source CFD Toolbox           |
|  \\    /   O peration     | Version:  2212                                  |
|   \\  /    A nd           | Website:  www.openfoam.com                      |
|    \\/     M anipulation  |                                                 |
\*---------------------------------------------------------------------------*/
FoamFile
{
    version     2.0;
    format      ascii;
    arch        "LSB;label=32;scalar=64";
    class       volScalarField;
    location    "0.00416";
    object      epsilon;
}
// * * * * * * * * * * * * * * * * * * * * * * * * * * * * * * * * * * * * * //

dimensions      [0 2 -3 0 0 0 0];

internalField   nonuniform List<scalar> 
7220
(
45377.7
90331.9
83274.4
75753.6
84820.2
79592.3
82292.9
82320.9
74987.5
78189.7
45795.3
1.35785e+07
104850
221950
256348
2.33088e+07
246125
73335.8
142919
65724.1
75839.2
279726
64858.8
831546
682818
3.82899e+07
5.10455e+07
117803
76172.4
125273
367791
127363
100144
123011
9.50832e+06
42310.8
85234.6
45746
44698.3
36371.4
36851.1
36861.8
36381.7
43220.7
42785.3
42795.7
43012.8
43324.1
37423
38091.5
38102.8
37434.3
38889.5
39861.8
39874.1
38901.1
41019.1
42338.6
42354.5
41032.8
43747.3
45113
45137.5
43766.8
46280.2
46855.7
46881.1
46309
47040.4
47079.4
47098.6
47063.6
46950.4
46678.5
46689.9
46965.5
46278.1
45796.4
45805.1
46287
45268.4
44726.2
44741.1
45280.2
43734.8
44216.6
44196.3
43708.2
43295.9
43580.6
35961.8
35971.8
36702.2
36230.3
42576.7
42651.6
42961.5
42730.4
43978.1
45031.9
44495.8
46027.5
45553.8
46676.7
46416.6
46747.9
46795.2
45970
46557.4
43459.2
44810.7
40768.6
42068.9
38674.5
39629.9
37231.1
37889.6
36199.5
36670.3
37924.6
37264.8
39667.7
38710.3
42116.8
40810.2
44884
43517.9
46637.3
46058.5
46858.9
46821.6
46453.7
46728.2
45562.9
46048.5
44507.4
45036.2
44011.4
43504
35797.1
35827.1
42863.4
43215.7
42479.1
42582.8
43100.6
42768.7
42738.2
42566.3
42529.3
42411.1
43589.5
43132.8
44606.8
44088.5
45561.5
45109.1
46165
45926.9
46206
46265.2
45402.3
46009.7
42929.2
44255.3
40309.7
41573.1
38283.1
39206.6
36886.2
37523.2
35891.9
36345.8
35442.8
35160.6
35503.1
35610.9
35601.2
35549.7
35205.9
35471.9
36395.2
35939.7
37576.5
36937.8
39264
38337.8
41645.8
40372.4
44369.4
43019.2
46138.2
45542.8
46375
46327.6
45998.1
46257.8
45132.4
45606.2
44106.4
44617.5
43630.9
42218.1
42337.7
42425.7
42764.4
35125.4
34853.8
35173.7
34846.1
42586.1
42203.4
42480
42381.9
42259.1
41806.8
41822.1
42170.1
42155.3
41941.1
43078.7
42641
44041.3
43552.5
44928.8
44511.7
45468.1
45259.8
45474.5
45545.9
44639.9
45274.3
42215.7
43507.8
39693.4
40906.1
37760
38639.5
36429.5
37036.1
35485.8
35916.6
34789.9
35115.8
35287.4
35278.1
34897.2
35153.2
35977
35544.8
37099.4
36491.4
38706.4
37824.6
40989.9
39765.7
43643.6
42320.5
45433.8
44811.1
45690
45628.6
45366.2
45596
44569.8
45008
43614.2
44090.9
43163.7
41937.4
34497.7
34551.7
42518
42289.3
41888.8
42616.1
41704.5
41908.6
42230.8
41649.7
42025.3
34368.7
34094.7
34617.6
34285.1
42321.8
42575.5
42060.5
42470.4
42150
41867.7
42310.8
42562.3
41209.9
41726.7
41428.6
42496.4
42086.3
43388
42938.2
44190.7
43816.4
44653.9
44480.9
44621.1
44705.4
43749.9
44417.7
41383.5
42635.7
38976.5
40128.8
37154.7
37981.4
35905.1
36474.6
35021.8
35425.1
34674.7
34234
34838.5
34576.5
34994.8
34986
34864.8
34154.6
34738.6
34431.1
35490.8
35086.6
36541.4
35971.5
38049.9
37221.8
40213.5
39049.6
42778.4
41490.8
44595.1
43935.2
44870.9
44794
44613.7
44805.2
43908.4
44300.5
43037.3
43476.8
42612.9
41351.9
41455.3
41438.2
41346.4
41620.8
41564.8
33847.5
33904.3
41354.1
41660.4
41108
41401.2
41983.1
42726.1
42769.8
42636.9
42356.3
41937.8
40698.1
42732
41086.3
40588.7
42471.6
41168.2
40895.9
41875.1
41498.8
42682
42277
43393.1
43064.4
43776.2
43639.9
43703.1
43800.5
42783.7
43491.5
40482.9
41689.8
38205.5
39289.9
36509.5
37276.9
35350.8
35878.5
34535.1
34907.6
33930.7
34213.9
33449
33677.1
33244
33996.3
33624.9
34579.9
34326.7
34731
34722.8
34365.3
34604.7
33678.5
34044.4
33299.1
33739
33507.6
34279.6
33995
34974.6
34601.6
35944.4
35417.5
37342.5
36574.7
39370
38274.7
41831.2
40586.1
43680.5
42973
43977.9
43885.4
43793.7
43943.2
43189.2
43530.4
42409.7
42808.3
42017.4
40828.4
40927.5
40908.9
40821.2
41098.7
41064.9
41533.9
42699.6
40571
40790.7
41076.7
40558.7
33063.9
32878.3
33477.3
33113.4
42926.2
43042.5
43063.8
42320.8
41754.2
42225.9
42780.2
41139.8
42049.1
43017.8
42491.7
40640.9
42860.4
40076.2
40183.1
40087.2
40602.4
40358.6
41238.9
40900.6
41955
41597.8
42570.4
42289
42874.6
42773.7
42765.7
42873.4
41783
42538.1
39555.8
40712.5
37419.4
38430
35858.9
36562.7
34797.9
35280.7
34053.9
34393.8
33502.4
33760.8
33271.2
33061.3
33784.6
33426.6
34350.3
34104.5
34497
34489.1
34140.9
34373.7
33830.2
32932
33331.9
33121.3
33825.2
33565.5
34458.8
34118.9
35343.2
34862.1
36622.9
35919.8
38503.1
37482.3
40848.8
39652
42735.4
41969.5
43059.8
42954.8
42945.4
43055
42440.4
42730.7
41756.9
42111.2
41402
40293.6
40389
40367.7
40283.5
40894.6
40563.6
41339.8
41615.1
40150.7
32713
32763.5
40495.5
40235.6
40795.4
41299.9
42918.4
43215.5
43378.1
43444.1
42757.8
43300.3
46135
43326.9
102127
43409.6
40309.4
39855.1
39602.8
39686.5
39682
39602.2
40047.1
39833.2
40609.6
40311
41234.8
40925
41755.7
41519.6
41985
41916.9
41846.1
41960.5
40779.4
41586
38635.2
39737.9
36648.2
37580.6
35229.4
35867.1
34270.2
34706
33600.3
33906.5
33103.2
33336.1
32710.4
32895.5
32399
32545.6
32272
32903.1
32569.8
33601.8
33255.1
34152.5
33912.8
34295.3
34288
33947
34174.4
33302.7
33644.6
32617.1
32952.1
32315.7
32596.1
32446.1
32953.1
32764.7
33397
33163
33967.8
33661.6
34763.9
34330.3
35921.6
35285
37646.6
36704.7
39866.9
38723.8
41790.1
40962.4
42152.9
42038.8
42100.5
42174.2
41688.7
41930.4
41099.8
41409
40785.6
39790.6
40023.9
39872.2
39888.6
39792.1
40399
40092.4
41193.4
40771.4
42224.2
41680.9
44360.7
43531.3
43355.6
42834.1
41816.8
94618.1
40552.1
40105.7
43245.2
78277.1
32132
32022.1
32497.2
32210.3
43556.2
44032.6
43760
43877.1
43837.6
43852.2
43852.6
87562.1
116670
138587
153394
139112
226020
41033.1
41536.5
127652
41354.8
43851.7
43039.1
42846.2
42491.1
40875.5
105364
40433.7
109057
41269.4
40830.9
94135.1
41957.3
41287
40949.8
41457.8
40052.8
40470
39447.7
39710.4
39169.5
39266.8
39210.1
39152.3
39516.2
39333.8
40003
39744.3
40539.6
40275.4
40974
40778.2
41136.1
41096.5
40974.3
41091.9
39799.4
40646.7
37745.4
38790.6
35914.8
36765.8
34640.7
35211.3
33784.9
34173.1
33190.3
33462.2
32748.5
32955.5
32402.3
32564.8
32258.9
32170.3
32773.8
32453.7
33450.9
33114.1
33988.3
33754.1
34127.5
34120.8
33785.4
34008.3
33157.8
33490.1
32818.8
32060.9
32305.2
32174.4
32618
32452.4
33011.8
32803.8
33518.8
33247
34225.9
33840.2
35260.5
34691
36825.5
35965.6
38911.5
37826.8
40863.2
39977
41289.3
41169.5
41289.2
41332.7
40958.8
41159
40456.8
40722.7
39928.4
40182.5
39514.9
39699.6
39325.7
39386.9
39448.2
39342.3
39934.3
39648.8
40699.4
40281
41734.5
41187.9
42345.5
106998
125129
172426
42042.6
43126.6
97867
87195.8
5.88703e+06
46521.5
31935.4
31970.6
127294
41855.8
42798.2
43161.7
43571.1
44817.6
236144
41747.2
42640.3
43406.2
44706.3
43941.1
44521.1
44394.6
41725.6
1.66494e+07
44175.8
196606
41797
167801
44294.7
44341.8
89369.4
90228.1
47716.4
96103.8
89946.4
87815.7
40635.7
41158.7
39725.6
40151.7
39098.3
39373
38787.5
38902.8
38780.7
38749
39023.2
38874.6
39434.8
39215.2
39888.7
39666.9
40246
40085.8
40349.9
40334.1
40169.1
40291.1
38866.1
39728.4
36907.4
37891.2
35239.2
36006.4
34110.1
34614.1
33357.6
33698.1
32837.9
33075.6
32451.6
32632.5
32153.1
32292.2
31924.9
32031.7
31761.8
31832.8
31714.7
32093.9
31873.4
32671.6
32363.9
33328.5
33000.8
33853.7
33624.5
33989.3
33983.4
33652.6
33871.6
33040.1
33363.6
32403
32712
31905.2
32130
31740.8
31865.4
31790.8
32072.3
31961.4
32339.7
32197.5
32682.7
32500.9
33125.8
32888.4
33744.7
33406.6
34657.3
34154.3
36059.8
35284.2
38003
36981.3
39955.3
39034.1
40493.9
40370.4
40534.9
40554.4
40273
40439.3
39848.6
40075.2
39393.3
39612.5
39044
39198.2
38906.5
38943.9
39055.2
38940.9
39526.5
39251.4
40288.8
39870.5
41329.9
40776.8
41947.3
99480.5
109398
42064.4
149725
156668
42352.2
43431
89360.5
46882.3
45742.4
109126
81810.4
95944.2
42244.4
42319.6
43072.4
44227.8
43948.3
43178.1
43541.9
90645.3
45263.3
97243.7
31671
31639.3
31854.4
31705.5
45016.3
1.33275e+06
42201.5
45663.2
86631.3
81355.9
79393.5
77473.4
77508.3
44359.6
85234.9
82468.5
93501.9
1.0631e+07
90253.1
96161.3
42237.2
47263.8
279781
224826
165917
198514
209491
44620.8
44879.2
42352.6
84319.3
44774.9
80879.5
81210
84777.2
42490.3
84890.4
82477.7
85166.2
84712.5
48158.9
93659.5
49217.1
123846
40376.7
40987.7
39453.3
39876.2
38817.9
39100.6
38472.4
38607.7
38413
38409.6
38591.4
38475.9
38931.3
38748.2
39310.1
39126.4
39597.2
39470.4
39652.2
39656.3
39434
39586.6
38002.2
38856.3
36147.9
37065.8
34647.3
35329.2
33661.2
34099.9
33010
33303.8
32563.8
32767.5
32233.3
32388
31983.3
32098.6
31798.7
31884.5
31725.5
31682.1
32032.5
31826
32585.5
32289.5
33223.9
32904.6
33738.2
33513.5
33870.6
33865.3
33538.5
33754.2
32939.6
33255.2
32324.3
32621.5
32064.7
31657.4
31749.2
31691.3
31916.6
31826.6
32137
32018.9
32428.6
32273.3
32808.1
32604.7
33340.7
33049.1
34134.1
33696.1
35373.4
34683.6
37164.9
36211.3
39079.8
38157.2
39792.6
39651.8
39861.5
39862
39658.3
39794.8
39300.6
39493.6
38913.7
39099.4
38630.1
38752.1
38548.5
38559.8
38730.3
38603.6
39203.4
38930.3
39965.6
39548
41009.9
40453.5
41631
122227
146621
109770
126685
75339.9
212637
117020
42734.2
43733.1
43899.7
43811
92501.9
87358.8
86051.4
96791
89337.2
92435.5
85356.4
121163
2.65302e+06
46154.9
42761.5
132929
31622
31638.3
45737
179557
95892.5
122531
109645
336612
42692.5
106325
45198.9
82825.2
322314
514939
335146
81826.2
44368.7
43612.7
43972.7
82625.8
89452.4
83765.8
84956.8
89523.8
95377.5
101238
93241.4
105614
87315.5
104596
417380
327136
75198.6
300102
99890
42708.6
46809.4
232306
223324
658367
44808
80677.8
87017
84030.8
85583.7
45482.2
42792.1
144880
48716.5
340816
152214
88147.6
81830.4
77880.3
88226.6
80292.4
45100.7
80172
79683.8
81421.9
81875.8
88632.1
1.21661e+07
45302.6
42945
80994.3
80291.2
79479.3
80101.6
84568.8
43136.6
81328.8
91359.9
83131.5
82637.8
81158.6
81345
49705
47238.5
178135
80799.6
75236.1
51042.2
316511
40229.4
40829.8
39290.6
39720
38636.2
38930.5
38254
38409.7
38144.6
38167.5
38264.5
38179.2
38540.7
38389.8
38853.9
38703.1
39080
38982.7
39095.5
39115.8
38775.8
39027.4
37260.3
38098.3
35521.8
36368.4
34192.3
34788.7
33344.2
33720.2
32791.3
33039.8
32417.2
32587.2
32144
32271.4
31944.9
32035.2
31805.7
31869.9
31713
31751.5
31691.4
31695
31690.6
31652.1
31606.9
31975.2
31781.8
32506
32220.3
33128.1
32816.2
33632.9
33412.1
33762.7
33757.9
33434.6
33647.3
32847.5
33156.3
32251.3
32538.1
31806.7
32003.7
31620.7
31672.4
31693.5
31700.1
31696
31760.9
31719.3
31887.2
31819.1
32057.8
31965.4
32295.5
32167.7
32611
32441.6
33059.9
32813.5
33737.8
33362.5
34815.9
34212.2
36446.2
35566.5
38296.6
37390.8
39233.8
39010
39316.1
39302.1
39159.7
39270.5
38855.1
39020.3
38527.3
38683.1
38306.2
38396.9
38280.1
38265.1
38499.2
38356.9
38984.4
38708.1
39746.8
39330.1
40794.9
40235.5
42116.2
41421.9
42882
46599.4
1.57221e+07
126381
488195
109569
144646
101195
133204
198393
163127
260745
227689
310230
292894
320789
43174.1
44854.2
160997
78195.1
44235.2
83023.1
86794.4
98517.4
83201.1
1.40303e+06
572439
42427
101927
119541
176702
243783
821901
895503
213220
410806
176769
148473
104408
113941
225222
105526
146117
126776
485445
43189.9
46360.8
246907
234193
111730
77853.3
44816.8
44089.5
44439.2
80621.8
84675
81147.3
81839.7
87891.1
46184.1
90526.4
31998.2
32013.4
31600.6
31687.7
459268
110842
43259.8
2.91918e+06
48217.4
159641
166813
97184.1
97103.8
77063.9
45289.3
79305.4
82772.7
8.55842e+06
45897
2.26804e+06
43392.2
50469.7
114229
77898.2
45625.2
78824.2
80214.2
87301.2
43598.5
78368.2
97976.7
85454.8
79066.4
84541.5
43932.6
78493
82728.7
51581
48531.1
78189.4
81627.8
47632.2
135997
81666.3
77463.6
2.46958e+06
53291.4
72853
73122.4
87366.5
71266
43332.6
43206.4
41584
42300.1
40248.6
40861.6
39290.1
39730.4
38612
38918.4
38201.6
38372.2
38058.3
38098.8
38139.2
38074.3
38370.2
38242.3
38634.2
38506.7
38814.5
38740
38809
38836.1
38309.1
38719
36780.4
37601.5
35170.4
35939.6
34011.7
34524.9
33292.2
33610.2
32830.1
33036.9
32521.9
32661.1
32302.5
32403.6
32150.9
32218.8
32048.8
32095.3
31988.4
32011.4
31985.6
31686.9
31620.9
31589.5
31919.3
31737.6
32430.8
32154.1
33039.1
32733.4
33535.7
33318.2
33663.1
33658.8
33338.6
33548.7
32761.6
33064.5
32181.6
32459.6
31759.2
31944.3
31638.1
31996.1
31968.6
31981.3
31997.7
31972
32087.4
32038.4
32213.9
32145
32399
32297.9
32653.9
32516.5
33024.3
32820.2
33593.8
33277.2
34515.7
33996.5
35975.5
35176.5
37750.5
36864.5
38918.3
38521.9
39007.7
38990.9
38878.2
38971.5
38606.9
38753.8
38321.7
38456.1
38148.8
38214.9
38168.3
38131.5
38419.3
38263.6
38916.7
38636.3
39679.5
39263.2
40728
40167.3
42064.3
41359.9
43725.2
42848.4
44692.3
80730.8
74512.1
77179.4
70917.5
72469.1
70090.4
68812.1
69725
73670
71359.3
74629.9
72852.6
76745.4
186789
147991
181169
352930
244304
641668
495857
752956
1.06535e+06
677653
41661.2
128063
177184
114014
111025
85678.8
95487
174129
135761
287038
225853
388437
341074
447995
425555
462900
43659.8
45980.4
239679
43580.1
135869
75328.7
44687.5
80752.9
82948.9
95295.3
91157.1
88738.2
47024.6
172776
1.93503e+06
47581.7
3.06063e+06
32025
32006.8
213711
204952
113219
97322.1
139013
81085.6
465251
242497
187401
117967
132596
317397
120139
185178
154165
743945
43734.2
46984.6
47733.5
171075
172641
44179.5
44299.5
141864
100572
71599
75282.9
200151
212131
45294
44606.9
44944.1
79049.7
158673
173348
187994
81308.2
79112.6
79465.5
84194.6
187257
111398
116097
830487
46590.6
1.10685e+06
47851.9
76062.8
79207.5
1.19006e+06
128069
43861.5
49913.9
122839
134526
111740
68106.9
69206.2
75387.6
45814.9
78263
80671.4
185829
90952.8
46216.9
44064
156617
156230
52595.4
181073
169514
99735.6
76596.3
75958.9
108083
88783.7
78234
78902
87038.4
44373.8
170774
183689
70139.3
72021.9
76313.1
84595
53808.6
50064.8
143888
187590
173152
187121
172726
186236
171930
185042
76439.2
82746.4
48869.9
114526
82934
76337.2
82296.2
48033
910165
76321.2
128833
56144.3
162274
45239.6
45336
43345.4
44290.5
41811.4
42506.2
40514.2
41113.9
39570.4
40006.3
38898.6
39201.7
38498.3
38663.2
38366.9
38401.3
38459.9
38389.3
38696.6
38567.1
38961.3
38832.6
39140.6
39067.4
39149.9
39168.4
38453
38978.1
36952.5
37746.7
35482.9
36171.3
34482.3
34921.5
33870.7
34140.7
33483
33655.8
33229.2
33343
33050.9
33133.9
32929.3
32981.9
32860.8
32890.4
32830.5
32839.2
32870.4
32841.8
32932.7
32903.4
32957.9
31681
32033.1
31590.2
31571.1
31866.8
31695.3
32362.3
32093
32958.9
32658.5
33448.5
33233.9
33574
33570.1
33252.5
33460.4
32684.1
32982
32117.6
32388.2
31714.2
31889
31580.2
31604.9
32015.3
31680.6
32907.6
32847.7
32879.1
32780
32812.2
32775.7
32766.4
32830.2
32799.3
32921.3
32869.4
33067.9
32988
33271
33160.8
33574.5
33406.4
34050.2
33784.6
34831.3
34389.8
36116.9
35403.8
37794.7
36940.5
39122.3
38568.2
39252.7
39255.8
39105.7
39203.6
38820.2
38973.3
38530.5
38666.6
38361.5
38424.2
38392.1
38349.7
38650
38492
39144.7
38867.1
39891.1
39485.2
40913.8
40366.6
42226.8
41533.3
43874.4
43003
44858.9
71910.6
73722.3
69345.1
70472.6
67741.2
68454.8
67565.6
66707.3
67168.3
69157.9
67884.7
69548.4
68635.3
71957.7
70644.3
73432.3
80460.7
87182.5
252145
181347
542798
362942
1.0009e+06
772397
1.34876e+06
1.18895e+06
1.54427e+06
78776.5
341029
154419
235126
133870
133930
92920.5
108118
245292
177196
436137
337680
591188
523813
667926
638880
693204
44191.9
47308
173953
44897.2
44548.5
116243
73369.7
185815
197926
45177.2
158808
78959.3
214525
201655
80141.9
86248.5
173065
184698
228915
282642
42625.5
231858
242566
47424.6
168024
220014
112618
5.874e+06
540675
49472.6
93516.7
263832
83636.5
75697.1
105882
125235
289811
136985
157440
597927
144256
265996
205292
44332.5
48344.2
49362.2
130129
136370
45365.6
116847
92011.1
70463.5
73559.6
221670
45820.6
45178.9
45498.8
158661
131932
136541
77797.4
201030
78801.5
77530.7
77604.3
81459.7
144348
171384
95897.8
110277
46909.3
157298
35310
35360.4
32022.9
32934.9
84104.4
78585.3
8.79648e+06
5.23004e+06
161186
44537.8
51977.9
253858
316432
192559
103882
117476
46501.5
46422.1
80358.4
68548.5
73944.9
122759
93774.9
46411.5
158185
77522.7
200591
90946
79088.8
171073
90369.9
46513.7
47876.2
75433.3
44845.7
55236
195654
74356.9
66345.9
67146.1
74460.6
87206
196958
77827.8
199821
56288.2
51911.4
45311.6
170880
197341
70714
74818.9
84273.1
198579
50328.5
101059
84673
67292.2
68400.5
75044.3
83175.1
49234.4
83376.2
142719
75153.8
48439
110155
151625
269512
246660
280780
47818.6
48151.5
45763.6
46888.3
43888.2
44767
42468.5
43128.9
41316.7
41849
40496.9
40873.2
39935.5
40182.9
39656
39758.3
39659.1
39624.9
39896.1
39752.8
40277.7
40075.8
40687.2
40486
41005.6
40864.7
41116
41100.2
40325.4
40851.7
38886.1
39638.2
37556.1
38170.6
36670.6
37060.6
36114.6
36362.1
35751.9
35914.8
35503.1
35617.4
35314.7
35400.8
35200.9
35248.3
35148
35169
35137.7
35136.1
35204.6
35160.7
35257.6
32980.1
31673.7
32038.6
31561.6
31552.9
31820.2
31657
32302.9
32039.4
32890.2
32594.1
33374.1
33161.9
33498.1
33494.4
33179.1
33385.1
32617.6
32911.6
32061.9
32326.7
31674.1
31840.4
31561.2
31574.9
31673.5
35239.8
35119.5
35180.1
35004.7
35058
34968.9
34974.5
34994.8
34977.9
35062.7
35021.6
35200.9
35121.8
35398.9
35294.7
35676
35523.5
36100.6
35864.5
36783.1
36399.2
37909.5
37280.5
39459
38657
40788.7
40207.1
40966.5
41028.5
40669.3
40842.8
40230.1
40459.9
39798.1
40003.2
39513.1
39629.5
39456.5
39454.8
39643.1
39519.6
40060.1
39824
40713.3
40355.4
41635.5
41138.8
42851.9
42205.6
44409
43582
45361
77256.2
72579.1
74528.2
69898.3
71094.3
68133.9
68927.1
66906.6
67470.5
66019.6
66424.1
66100
65480
65700.4
66832.9
66031.2
66838.9
66383.6
68073.9
67415
69650.5
68797.8
71998.9
70703.2
73583.1
92319.9
351328
235215
846841
548221
1.57047e+06
1.2073e+06
2.2768e+06
1.90659e+06
3.94237e+06
2.78707e+06
6.22931e+06
383246
186985
375068
168304
104735
81053.6
90054.5
173707
129824
371408
250686
683765
529219
907209
811046
1.0315e+06
976853
1.27976e+06
1.09699e+06
200938
44780
48840.3
134275
46015.5
45638.5
102229
71918.5
206183
45716
144839
235070
225397
77529.3
212562
77910.7
82755
157585
88478.3
103328
47746.7
142921
210449
79759
2.51626e+07
89322.8
136792
1.55766e+07
35409.8
35300.2
72340.4
74750.6
117907
1.81e+06
358402
163380
190524
1.89043e+06
195391
529550
346358
1.00878e+07
6.48445e+06
45005.6
50003.3
51321.6
140529
226162
130017
208428
107606
112536
46565.9
85413
69646.4
72307.6
143905
101424
46422.3
45829
46128.2
144505
9.68299e+07
244931
224489
119952
109810
76877.9
903312
211881
76120.7
84933.6
79546.6
2.27997e+07
156491
94781.1
47816.8
48990.6
49565
1.32978e+07
259594
90924.9
131160
84650.5
45322.1
54515.6
216022
204037
145932
206684
238509
93068.8
2.26787e+06
47773.5
77233.3
68061.8
72828.3
118945
90690.8
91067.1
160845
47116.1
143846
65757.4
65425.1
65173.3
76966.1
96786.2
91963.2
246640
211613
1.70055e+07
1.48946e+07
100204
54090.3
77788.3
45775.9
81073.5
87384
158271
58649.4
208438
257422
246723
49575.7
49319.5
72602.1
66850.9
73344.3
64175.8
64784.7
64803
103258
86397.6
110112
127515
210727
74183.2
52050
92253
63729.8
156521
46418.3
258456
231776
1.65744e+07
209666
86958.9
69718.4
65390.5
65972.4
73739
65346.7
91962.5
84413
50639.7
84936.7
129957
67821.9
74031.3
84032
49658.8
48769.8
129687
66478
74359.6
1.33004e+07
130010
252392
243526
254334
197095
208044
227595
51182.3
51935.8
49185.2
50478.2
47035.3
48042
45427.7
46162.4
44329.2
44828.3
43583.2
43909.7
43175.2
43341.8
43047.4
43073.3
43227
43098.2
43707
43430.5
44457.5
44052.6
45378.9
44904.4
46347.5
45865.6
47211.5
46803.4
47683.3
47547.8
47091.7
47518.9
45790.3
46477
44554.1
45131.6
43658.7
44067.6
43011.4
43310.8
42523.5
42751.7
42131.6
42317.1
41822.8
41967.3
41610
41703.6
41488.3
41539.4
41442.6
41454.9
41507.5
41459.3
41661.4
41578.3
41854.7
41753.6
41964.7
32999.2
35458.1
31665
32041.5
31535.6
31535.1
31780.7
31623.7
32254.4
31994.9
32835.1
32542.1
33314.6
33104.2
33437.4
33434
33120.5
33325.1
32564.2
32855.3
32016.2
32276.8
31640
31799.8
31543.9
31548.7
32029.3
31666.5
35361
32960.7
41727.3
41466.4
41591.8
41246.6
41351.6
41082.4
41153.3
41042
41046.2
41092.7
41059.3
41216.6
41143.8
41436.7
41314
41743.7
41579.9
42125.9
41923.3
42629.6
42358.7
43332.3
42949.3
44370.6
43800
45757
45039.5
46890.2
46417.3
46880.1
47076.8
46045.4
46491.6
45044.3
45556.1
44077.7
44542.4
43344
43672.5
42916.5
43093.4
42764.3
42809.2
42859.6
42783.5
43206.4
43000.1
43833.2
43482.7
44766.3
44261.1
46038.6
45354.7
46843.7
73329.2
75579.2
70461.5
71675.3
68628.7
69456.4
67304.1
67927.1
66198
66728.4
65315.7
65720.3
64771.3
64999.3
64711.6
66137.7
65742.2
67298.2
66657.8
68721.4
68033.1
70056.8
69364.2
70943.6
78185.3
88192.3
81834.9
98674
510913
316753
1.30318e+06
839843
2.42296e+06
1.85977e+06
3.92898e+06
3.07763e+06
6.56027e+06
5.04121e+06
7.90169e+06
6.05648e+06
63330.6
228983
925235
250817
125697
101765
246318
168981
585754
378984
1.06997e+06
836047
1.40222e+06
1.25381e+06
1.68088e+06
1.53954e+06
2.6698e+06
1.91478e+06
4.14706e+06
45444.5
50664.5
226314
133611
110313
47298.9
46869.5
92895.4
70887.6
82169.4
79081.3
129769
112811
135332
305239
2.61355e+06
192664
197413
226902
3.60525e+07
151289
46329.1
131609
59730.5
234910
101096
76394.7
80893.6
220719
76167.1
81363
80321
143083
102464
548584
284760
101188
2.97015e+07
238852
232897
1.84015e+06
189849
85077.8
271485
50498.3
191225
266264
9.79538e+06
5.04943e+06
560683
6.78215e+06
370993
998246
79354
45786.3
51591.6
52167.9
53717.3
191213
162551
215665
231363
95428
109511
119275
75109.8
518443
120034
47957.3
80672.5
69068.8
71413.9
64242.9
63323.9
63305.3
64278.3
83679.2
85252.6
157073
141683
119441
96951.9
141461
280026
51494.9
47133.7
46583.7
46866
131027
64992
2.51133e+07
220752
250952
109119
100361
86511.3
98714.2
76369.1
73899.7
89259.5
220625
97633.1
56456.7
229923
74921.5
86541.7
1.34178e+07
81462.4
77946.9
78599.3
1.00729e+07
1.26183e+07
59918.3
60161.4
35420.6
41871.4
74763.8
82379.1
78070
177017
193980
414177
675482
46252.6
95093.5
68275.5
144033
57731.1
185567
130904
217437
240523
92001.8
49358.5
126287
91465.3
74863.6
67705.9
71988.1
64886.2
92660.5
93942.3
130144
89460
284787
209289
414194
47970.4
130271
65554.7
58920.1
75810.3
76719.8
220005
238307
54075.9
2.18832e+06
108214
72642.2
1.22803e+06
46881.2
82160.1
147643
63241.2
186699
176691
106853
218706
240772
90004.4
51023.9
71276.3
66657.8
72500.3
65256.5
106337
153878
86145.4
98708.8
234442
230119
141251
219529
52288.6
494026
47706.4
71486.8
153148
86986.4
53592.4
52995.9
117899
68973.4
65883
72920
212843
84982.3
146742
51090.9
50007.1
117757
67371.5
73372.6
85361.6
84465.3
1.74876e+07
551682
1.26391e+07
83190
268449
255676
266039
220253
240092
165543
175877
198089
55518.8
57519
54615.4
55952.7
52482.9
53463.9
50990.7
51662.2
50184.4
50492.6
50055.6
50066.8
50493.3
50203.1
51319.9
50864.5
52483.6
51852.5
54059.7
53218.6
56042.5
55004.8
58377.3
57166.8
60998.2
59660.2
63752.5
62370.6
66367.2
65103.2
68165.6
67437.9
68353.2
68466.5
67326.9
67927.6
65997.5
66661
64746.9
65359.3
63597
64158.5
62554.8
63063.5
61622.8
62074.7
60804.5
61197.2
60154.9
60455.8
59693.5
59900.9
59421.4
59532.6
59370.8
59365.7
59555.4
59437.5
59716.2
42081.8
33013.7
35503.8
31653.8
32040.2
31511.8
31516.9
31748.4
31595.1
32217.4
31960
32794.4
32503.2
33271
33061.8
33393.2
33389.8
33077.7
33281.2
32524.8
32814
31980.9
32239.3
31611.8
31767.5
31527.4
31525.8
32033.2
31658.3
32983.4
59553.3
58988.4
59250.2
58593.5
58769.2
58405.3
58467.7
58469
58408.4
58729.3
58577.2
59165.6
58925.2
59782.5
59451.9
60546.1
60150.9
61410
60967.3
62367.7
61876.2
63422
62883.2
64595.2
63991.4
65804.1
65220
66362.7
66233.3
65310.1
66066.2
62854.7
64168.1
60084.9
61480.5
57458.3
58725.9
55317.9
56319.9
53653.8
54432.1
52397.6
52979.5
51497.5
51904.8
50923.1
51170
50671.3
50757.9
50771.8
50686.4
51178.8
50933.2
52013.6
51526.1
53645.7
52689
70286
72090.4
68198.2
68996.4
67064.7
67577.1
66045.4
66576.5
64979.9
65508.4
64146.4
64519.6
63678.1
63870.8
63357.6
63483
63356.9
63332.2
64683.6
64440.2
63593
63433.3
63951.1
63786.8
64396.9
64142.3
65070.4
64710.8
65851.2
65469.3
66463.2
66175.5
67894.6
67120.8
69999.1
68836.3
71940
93501.1
84081.8
108314
735136
428331
1.94524e+06
1.25155e+06
3.5766e+06
2.71802e+06
6.00466e+06
4.66097e+06
8.30945e+06
7.33881e+06
9.08366e+06
1.18935e+07
1.286e+08
178261
4.06028e+06
580355
106921
87666.5
96096.5
162266
125669
368630
233513
938116
600926
1.63605e+06
1.3027e+06
2.17742e+06
1.90686e+06
2.89443e+06
2.48696e+06
5.29748e+06
3.79493e+06
7.45551e+06
46216.5
52918.7
178238
223785
97498.8
1.1523e+07
206669
48747.2
48289.4
141866
70172.3
64336.2
82859.1
105889
122948
130062
263458
255051
269833
2.10218e+07
218674
176151
157803
55052.5
52272.1
47055.2
119373
7.33187e+07
182259
240809
92935.9
3.31798e+07
78334.2
227435
233954
74940.8
82294.2
363036
292064
78200.5
1.40252e+07
6.5586e+07
169429
74475
1.4401e+06
232632
59379.9
703243
60444
59896.6
57005.6
84727.2
193826
1.31421e+07
1.39901e+06
220420
1.57278e+07
1.20964e+06
5.03989e+06
46713.2
1.67648e+07
130823
54276.5
54787
56678.7
172975
145672
224562
236049
87931.8
89841.7
79621
1.40475e+08
49632
84801.6
77446
68642.8
70768.8
64941
87967.2
89048.2
111874
94072.2
218229
129278
506510
73046.7
54089.1
48006.5
47481.8
47752.4
118670
65410.1
65134.1
65266.1
2.90798e+07
251330
99594
92176.9
80557.4
1.05253e+07
1.16926e+07
85874.8
74546.2
75883.7
121424
91331.3
226076
126193
56490.2
79143.8
73976.9
129367
73878.3
1.07276e+06
531231
73310.8
740687
1.65702e+07
2.26105e+06
104741
81043.1
95451.7
47369.7
89541.2
133834
61884.8
166130
116993
154275
143876
135099
225080
235720
93984.7
99613
3.65398e+07
173881
51167.5
73097.2
67439.8
71336.5
65315.1
75336.5
95885
97261.8
120273
88614.6
62863.8
229079
406025
1.20436e+07
87941
79400.4
79542.4
72968.1
49011.9
118011
66208.9
98030.7
60900.4
71710.2
76582.7
225322
3.70702e+06
54258.8
279985
242369
77819.7
530819
49200.6
48188.1
77717.4
138327
68455.5
156655
145695
225207
4.02291e+07
219299
89711.1
130670
52949.4
212227
70301.6
66521.9
71844.8
65800.6
108625
136280
86360.4
179210
152220
1.15391e+06
1.29554e+07
140997
55090.2
52735.6
51467
107084
68394.7
72356.2
85999.3
106566
2.00209e+07
1.5805e+07
291510
289427
276337
287369
238628
259559
192907
215473
172521
88520.6
66583.1
68112.9
64980.1
65605.3
64589.5
64648.9
65200.8
64769.5
66939.1
65903.6
70024
68323.8
74090.3
71966.5
78685
76338.6
83741.7
81143.5
89447.5
86505.9
95870.3
92566
103042
99369.9
110825
106858
119047
114909
126965
123128
132864
130300
135220
134496
134670
135207
132649
133775
130056
131392
127258
128668
124466
125850
121776
123104
119285
120494
117167
118172
115518
116281
114396
114890
113816
114033
113865
113762
114511
114120
115695
115036
116482
42205.7
60764.9
33023.1
35546.4
31640
32034.7
31490.6
31498.6
31724.4
31572
32193.2
31935.8
32769.5
32478.8
33244.9
33036.3
33366.8
33363.5
33052.1
33255
32500.5
32789.2
31957.1
32215.3
31589.9
31744.2
31512.1
31506.6
32034.1
31648.9
35478.3
33002.3
60279.9
42023.4
115120
113342
114165
112097
112652
111403
111676
111353
111293
111901
111562
112965
112368
114512
113682
116482
115449
118774
117602
121185
119970
123643
122414
125968
124837
127928
127014
128996
128626
128064
128886
123716
126363
116409
120294
108284
112352
100690
104356
94276.5
97336.2
88877
91462.8
84261.6
86489.1
80309.2
82208.2
76912.8
78551.4
74008.9
75411.8
71530
72734.1
69223.4
70374.1
67026
68091
65703.7
66165.2
66726.7
65936.6
68317.6
71725.3
74827.3
69111.1
70209.3
68210.4
68372.9
67308.4
67828.8
66064.8
66718.6
64775.1
65398.7
63843.7
64257.7
63308.8
63530.8
63197.3
63182.5
63236.1
63247.9
63153.5
63191.1
63186.4
63147.5
63662.6
63381.6
64135.1
63873.6
65010.3
64491.2
66628.1
65769.5
66867.6
67051.7
67420
66900.6
68835.3
68191.5
71382.9
69857.5
76195.9
73013.6
80371.1
99217.1
88415
100425
93084.2
132027
119539
336753
126288
997543
562882
2.64182e+06
1.72071e+06
4.62521e+06
3.60413e+06
6.60391e+06
5.6999e+06
7.70891e+06
7.20846e+06
8.73311e+06
8.15524e+06
1.64168e+07
2.08973e+07
158972
264826
1.38451e+07
2.33554e+06
131734
115973
214990
159006
569389
333999
1.48481e+06
967973
2.36304e+06
1.96372e+06
3.24237e+06
2.75881e+06
4.62485e+06
3.82212e+06
7.2816e+06
5.81879e+06
8.91583e+06
47133.6
76396.8
55663.8
159885
107420
127211
114269
230713
88897.8
76252.5
158231
50376.2
50050.7
80019.9
69659.8
65014.3
86974.4
101095
181492
109488
131256
129902
123025
304513
307303
273693
291253
231110
253438
187365
208667
153084
168781
141712
75407.8
73499.6
54599.2
47936.3
108411
65362
75880.2
242404
85932.2
1.26662e+07
256782
137388
113519
81204.3
73975.3
1.02728e+06
75204.9
79163
230075
59183.1
995563
351198
346348
55010.1
106116
213046
1.23576e+07
73866.5
2.56289e+07
8.29712e+06
225297
70818.6
2.19724e+06
627795
287518
83218
355513
2.42299e+07
117267
2.1291e+07
6.66346e+06
954389
462006
227241
4.59754e+06
1.86742e+07
78999.5
92142.5
47830.4
98849.4
121142
57271.4
57888.9
60310.3
154620
129585
93533.6
117948
229360
234064
1.02584e+07
117595
83043.5
75326.5
3.25221e+07
179519
51556.4
93616.1
117652
163901
81214.4
75210.3
68308.6
70265.9
65390.4
91842
92697.6
106070
92238.5
277827
409533
268211
233508
99997.5
501427
241935
206608
355058
270459
348267
61785.9
53478.3
68502
59560
57061
49088.5
48566.8
48824.5
107758
66004.7
65593.8
65695.3
134494
242649
91320
85134.7
75534.7
75516.3
93765.4
227509
63128.4
222612
78600.2
1.99801e+06
397810
306442
308771
60698.3
116203
72856.9
76928
9.61882e+06
50918.1
215606
62903.7
48712.5
84548.4
125073
66250.3
147266
104776
128127
227901
142625
222162
109768
93152.7
73371.5
1.18842e+07
53221
97085.1
71830.1
67244.9
70827
65832.4
98148
99824
112461
88332.1
157501
231490
160461
76749.6
253809
240074
1.70836e+06
661547
57762.8
71937.7
9.49676e+06
1.03412e+07
50256.8
107261
67007.6
73011.3
87178.6
239035
68201.6
76513.5
66997.6
49742.2
73986.8
128839
138145
556348
226681
312604
1.46322e+07
55221.1
54578.8
53138.9
97661.3
69558.9