/*--------------------------------*- C++ -*----------------------------------*\
| =========                 |                                                 |
| \\      /  F ield         | OpenFOAM: The Open Source CFD Toolbox           |
|  \\    /   O peration     | Version:  2212                                  |
|   \\  /    A nd           | Website:  www.openfoam.com                      |
|    \\/     M anipulation  |                                                 |
\*---------------------------------------------------------------------------*/
FoamFile
{
    version     2.0;
    format      ascii;
    arch        "LSB;label=32;scalar=64";
    class       volScalarField;
    location    "0.00416";
    object      T;
}
// * * * * * * * * * * * * * * * * * * * * * * * * * * * * * * * * * * * * * //

dimensions      [0 0 0 1 0 0 0];

internalField   nonuniform List<scalar> 
7220
(
248.857
272.89
273.101
273.119
272.739
272.949
272.466
272.254
272.554
272.41
249.457
264.221
263.551
256.299
255.74
268.055
252.525
253.052
253.473
252.296
255.311
265.578
272.631
266.517
270.991
258.156
272.625
254.928
255.301
258.186
269.375
260.487
270.909
257.153
268.478
246.455
273.599
249.581
249.176
241.327
241.547
241.545
241.326
245.829
245.89
245.9
245.853
245.822
241.809
242.115
242.113
241.808
242.468
242.883
242.88
242.466
243.36
243.885
243.882
243.357
244.434
244.975
244.973
244.431
245.546
245.815
245.813
245.546
245.847
245.874
245.87
245.845
245.88
245.881
245.876
245.875
245.87
245.848
245.842
245.864
245.826
245.817
245.812
245.82
245.809
245.81
245.816
245.817
245.834
245.812
241.14
241.139
241.553
241.335
245.964
245.963
245.867
245.916
245.83
245.843
245.832
245.888
245.867
245.897
245.899
245.863
245.891
245.546
245.828
244.439
244.98
243.365
243.89
242.475
242.889
241.818
242.123
241.338
241.556
242.118
241.814
242.881
242.469
243.879
243.355
244.972
244.429
245.824
245.549
245.88
245.855
245.885
245.884
245.846
245.871
245.811
245.82
245.811
245.831
241.151
241.15
245.859
245.831
246.046
245.982
245.852
245.889
245.869
245.902
245.943
245.907
245.849
245.849
245.865
245.852
245.911
245.89
245.919
245.92
245.884
245.912
245.544
245.847
244.438
244.98
243.366
243.889
242.482
242.893
241.83
242.132
241.354
241.571
240.987
241.006
241.169
240.974
240.975
241.168
241.006
240.986
241.567
241.352
242.125
241.825
242.88
242.473
243.873
243.351
244.969
244.422
245.843
245.55
245.9
245.875
245.906
245.905
245.864
245.891
245.828
245.836
245.828
246.063
245.974
245.885
245.857
240.841
240.861
241.191
241.031
246.048
246.173
246.156
246.015
245.89
246.203
246.09
245.963
245.93
245.925
245.872
245.872
245.889
245.876
245.934
245.913
245.942
245.943
245.908
245.935
245.535
245.87
244.43
244.974
243.361
243.881
242.486
242.892
241.841
242.141
241.374
241.587
241.03
241.191
240.829
240.829
240.863
240.841
241.583
241.372
242.132
241.836
242.877
242.475
243.861
243.342
244.96
244.41
245.868
245.543
245.926
245.902
245.931
245.93
245.888
245.916
245.855
245.861
245.854
245.997
240.887
240.89
246.068
246.303
246.334
246.157
245.981
245.914
245.887
245.962
246.042
241.053
240.913
240.736
240.765
246.103
246.285
246.484
246.452
246.86
246.687
246.649
246.178
246.007
245.912
245.949
245.893
245.893
245.907
245.897
245.953
245.931
245.961
245.962
245.929
245.954
245.512
245.888
244.406
244.953
243.344
243.859
242.482
242.881
241.848
242.142
241.391
241.599
241.212
240.763
240.714
240.735
240.701
240.701
240.714
240.918
241.214
241.057
241.597
241.391
242.134
241.844
242.865
242.47
243.837
243.323
244.94
244.385
245.893
245.524
245.953
245.929
245.958
245.957
245.912
245.942
245.884
245.888
245.883
246.128
246.032
246.379
246.245
246.529
246.061
240.791
240.795
245.945
245.916
245.995
246.753
246.14
246.286
246.435
246.828
246.207
247.011
246.03
246.62
246.089
246.115
247.042
245.928
245.968
245.905
245.906
245.916
245.908
245.961
245.939
245.969
245.971
245.937
245.962
245.465
245.888
244.359
244.908
243.306
243.815
242.462
242.852
241.843
242.13
241.4
241.602
241.071
241.225
240.814
240.934
240.711
240.653
240.684
240.601
240.624
240.588
240.588
240.624
240.601
240.687
240.655
240.716
240.94
240.82
241.23
241.077
241.603
241.403
242.124
241.841
242.837
242.452
243.793
243.286
244.898
244.34
245.906
245.482
245.971
245.948
245.978
245.977
245.932
245.963
245.909
245.913
245.909
246.165
246.068
246.424
246.284
246.582
246.197
246.166
246.312
246.225
245.969
245.937
246.022
240.83
240.73
240.593
240.625
246.434
246.604
246.803
247.244
247.252
247.487
247.472
246.333
246.254
247.022
246.343
246.36
247.237
246.24
246.039
246.128
245.931
245.974
245.903
245.906
245.91
245.905
245.953
245.931
245.96
245.962
245.927
245.951
245.383
245.857
244.28
244.829
243.24
243.74
242.422
242.799
241.824
242.1
241.398
241.592
241.079
241.229
240.946
240.622
240.557
240.591
240.5
240.525
240.485
240.486
240.524
240.499
240.557
240.736
240.954
240.837
241.235
241.087
241.595
241.402
242.097
241.824
242.787
242.415
243.723
243.225
244.826
244.266
245.894
245.407
245.975
245.953
245.984
245.983
245.941
245.97
245.926
245.927
245.926
246.196
246.098
246.454
246.315
246.807
246.615
247.031
246.302
246.376
240.644
240.649
245.944
245.979
246.516
246.494
246.454
246.603
246.789
247.001
247.727
247.709
249.189
247.459
271.015
247.226
246.53
246.536
246.239
246.378
246.033
246.124
245.918
245.965
245.885
245.891
245.887
245.885
245.925
245.904
245.929
245.932
245.893
245.917
245.256
245.783
244.162
244.71
243.145
243.631
242.359
242.721
241.788
242.051
241.382
241.568
241.076
241.22
240.835
240.947
240.657
240.739
240.585
240.539
240.567
240.467
240.505
240.407
240.433
240.392
240.392
240.433
240.406
240.506
240.468
240.57
240.542
240.589
240.746
240.664
240.956
240.844
241.228
241.085
241.573
241.389
242.051
241.79
242.713
242.356
243.621
243.135
244.717
244.157
245.839
245.291
245.956
245.934
245.97
245.968
245.932
245.959
245.925
245.924
245.928
246.216
246.036
246.115
246.48
246.337
246.838
246.646
247.265
247.049
247.748
247.503
248.56
248.272
247.978
248.003
246.469
271.542
246.705
246.714
246.618
273.273
240.662
240.595
240.494
240.516
246.786
248.241
246.988
247.957
247.692
247.21
247.445
272.08
270.996
270.941
270.874
268.575
270.704
246.689
246.671
271.147
246.885
248.567
248.277
246.638
246.641
246.899
271.356
246.908
268.52
247.105
247.115
271.902
247.796
247.33
247.334
247.562
246.911
247.119
246.532
246.714
246.226
246.369
246.011
246.107
245.887
245.938
245.845
245.855
245.844
245.843
245.877
245.856
245.878
245.881
245.837
245.862
245.089
245.648
244.008
244.552
243.022
243.489
242.275
242.618
241.736
241.984
241.354
241.53
241.062
241.2
240.831
240.939
240.74
240.513
240.46
240.49
240.384
240.423
240.323
240.349
240.308
240.308
240.349
240.322
240.425
240.385
240.463
240.601
240.749
240.67
240.95
240.841
241.209
241.072
241.538
241.363
241.987
241.742
242.616
242.276
243.487
243.018
244.569
244.012
245.728
245.133
245.916
245.892
245.935
245.932
245.904
245.927
245.903
245.9
245.929
245.908
246.03
245.968
246.218
246.113
246.492
246.344
246.855
246.662
247.279
247.058
247.763
247.517
248.016
271.109
271.055
270.853
246.654
246.641
271.256
253.715
271.049
249.188
240.527
240.532
270.919
246.869
246.837
246.827
246.796
248.518
270.77
247.093
248.294
248.573
248.86
246.985
248.218
247.938
247.323
256.8
247.2
256.055
247.557
270.858
247.431
247.677
271.542
271.404
249.507
271.137
271.265
273.266
247.366
247.605
246.913
247.133
246.519
246.708
246.201
246.35
245.974
246.076
245.836
245.894
245.783
245.799
245.778
245.779
245.807
245.787
245.806
245.809
245.755
245.788
244.892
245.443
243.821
244.358
242.874
243.319
242.174
242.495
241.673
241.901
241.318
241.482
241.041
241.172
240.824
240.925
240.665
240.738
240.539
240.602
240.48
240.447
240.464
240.391
240.423
240.314
240.354
240.252
240.278
240.237
240.237
240.279
240.251
240.356
240.315
240.426
240.394
240.467
240.45
240.483
240.609
240.544
240.747
240.673
240.937
240.834
241.182
241.052
241.491
241.327
241.907
241.68
242.498
242.178
243.324
242.877
244.383
243.834
245.545
244.941
245.859
245.829
245.883
245.879
245.857
245.879
245.859
245.855
245.893
245.867
246.003
245.937
246.203
246.093
246.487
246.335
246.853
246.66
247.288
247.061
247.777
247.528
248.032
270.892
270.921
247.932
271.12
270.957
246.852
246.813
271.131
249.143
248.821
270.792
271.193
272.056
247.078
248.318
248.591
248.849
246.991
247.042
247.022
270.975
248.494
273.06
240.556
240.503
240.423
240.441
248.199
269.278
247.313
249.153
271.916
273.433
273.723
273.966
271.123
247.196
269.513
269.457
270.809
265.183
269.574
269.366
247.554
249.498
270.489
271.024
271.027
270.577
269.54
247.423
247.924
247.791
271.698
247.665
269.413
269.194
269.264
248.028
271.548
269.221
271.401
271.26
249.496
273.443
249.871
268.182
247.365
247.622
246.902
247.127
246.496
246.691
246.165
246.32
245.922
246.032
245.769
245.835
245.703
245.726
245.694
245.697
245.719
245.701
245.716
245.72
245.626
245.701
244.662
245.187
243.608
244.132
242.709
243.127
242.061
242.357
241.601
241.81
241.276
241.427
241.018
241.141
240.817
240.911
240.671
240.738
240.613
240.438
240.401
240.42
240.342
240.376
240.262
240.303
240.197
240.225
240.182
240.182
240.225
240.197
240.304
240.262
240.378
240.344
240.404
240.505
240.621
240.561
240.748
240.68
240.922
240.828
241.151
241.029
241.436
241.285
241.817
241.61
242.363
242.067
243.138
242.717
244.165
243.627
245.292
244.718
245.789
245.731
245.815
245.81
245.795
245.814
245.799
245.794
245.84
245.809
245.963
245.89
246.177
246.06
246.474
246.315
246.848
246.651
247.294
247.062
247.792
247.538
248.052
270.843
271.41
272.015
271.724
271.231
270.812
268.875
247.06
248.9
248.864
247.007
269.824
269.99
269.755
270.619
270.213
270.426
271.073
269.565
251.044
248.792
248.212
270.993
240.463
240.466
248.48
270.875
270.068
270.734
270.553
270.628
247.298
273.248
249.138
273.882
270.017
269.137
269.586
272.061
247.203
247.258
247.236
269.691
270.676
270.132
270.334
269.335
269.23
269.377
269.459
269.633
270.891
269.128
270.324
271
273.82
271.008
269.635
247.545
249.475
269.518
270.17
270.699
247.421
269.637
269.2
269.331
269.45
248.187
247.794
255.537
249.855
269.453
270.628
272.275
272.708
272.63
272.515
271.827
247.66
269.381
269.589
269.343
269.476
253.89
262.303
247.914
248.038
271.686
269.358
269.548
269.511
269.012
248.266
271.546
269.075
269.19
268.99
271.396
269.18
249.869
249.122
256.05
269.18
272.355
250.266
252.793
247.355
247.618
246.884
247.114
246.467
246.668
246.122
246.285
245.864
245.982
245.695
245.768
245.616
245.644
245.602
245.607
245.621
245.607
245.615
245.621
245.412
245.598
244.405
244.909
243.375
243.881
242.534
242.921
241.942
242.211
241.529
241.716
241.236
241.372
241.001
241.114
240.82
240.904
240.689
240.75
240.586
240.636
240.501
240.538
240.474
240.409
240.436
240.37
240.39
240.308
240.343
240.223
240.266
240.157
240.185
240.14
240.141
240.184
240.156
240.266
240.223
240.344
240.309
240.394
240.372
240.44
240.413
240.478
240.539
240.502
240.644
240.591
240.759
240.697
240.913
240.829
241.121
241.01
241.38
241.244
241.723
241.537
242.22
241.95
242.937
242.545
243.919
243.399
245.005
244.464
245.711
245.55
245.737
245.73
245.723
245.737
245.728
245.722
245.777
245.741
245.915
245.834
246.144
246.019
246.456
246.29
246.843
246.64
247.3
247.064
247.812
247.551
248.352
248.079
248.626
248.783
260.612
273.015
269.73
269.488
270.818
270.314
271.995
271.35
271.668
270.768
271.019
270.414
270.512
270.466
247.28
249.148
255.831
272.217
247.219
269.917
270.516
269.559
270.983
268.306
268.937
248.139
273.629
273.439
271.528
271.616
268.407
267.981
256.366
269.534
269.567
269.537
269.145
269.331
270.961
269.906
270.696
270.45
270.08
247.53
249.452
269.531
269.817
272.813
272.065
247.43
247.488
247.464
269.86
270.764
270.273
270.459
269.553
248.472
273.773
240.548
240.521
240.417
240.458
271.219
269.435
247.788
267.355
249.822
269.612
270.282
272.283
272.565
271.936
247.661
269.805
269.588
267.213
248.181
269.244
248.048
250.24
269.675
271.807
247.912
269.748
269.642
268.786
248.3
271.676
268.959
269.048
269.696
268.763
248.546
271.547
269.019
250.266
249.481
271.42
268.991
249.115
271.461
268.98
271.297
270.98
250.698
272.487
272.311
272.789
272.436
248.471
248.472
247.892
248.162
247.363
247.629
246.869
247.109
246.435
246.644
246.077
246.246
245.806
245.93
245.622
245.703
245.528
245.564
245.507
245.514
245.517
245.51
245.506
245.515
245.11
245.455
244.125
244.627
243.132
243.612
242.358
242.711
241.827
242.068
241.463
241.627
241.205
241.324
240.997
241.096
240.84
240.913
240.721
240.777
240.627
240.672
240.583
240.452
240.383
240.412
240.339
240.361
240.272
240.309
240.184
240.229
240.114
240.144
240.097
240.098
240.142
240.113
240.228
240.183
240.311
240.272
240.365
240.341
240.388
240.525
240.583
240.548
240.679
240.631
240.784
240.728
240.919
240.847
241.101
241.002
241.33
241.21
241.634
241.469
242.077
241.834
242.728
242.371
243.652
243.158
244.718
244.185
245.603
245.257
245.652
245.643
245.644
245.653
245.652
245.644
245.711
245.669
245.865
245.776
246.112
245.978
246.438
246.266
246.84
246.631
247.312
247.068
247.84
247.571
248.402
248.118
248.972
248.685
249.269
272.97
272.775
272.87
272.619
272.69
272.4
272.52
272.563
272.973
273.107
273.411
273.258
273.565
272.784
273.201
272.141
271.673
272.319
269.956
270.873
269.007
268.015
268.901
247.885
269.464
270.861
270.18
272.64
273.085
272.888
272.009
272.345
271.19
271.623
270.352
270.771
269.868
270.002
269.906
247.511
249.441
269.646
248.502
272.526
272.187
247.445
270.073
270.622
269.708
269.638
269.825
248.779
254.98
266.499
249.992
269.951
240.501
240.507
255.901
256.382
273.825
273.956
273.638
254.44
269.745
269.637
269.572
269.077
269.3
271.155
269.745
270.694
270.384
268.972
247.776
249.757
249.785
269.68
269.989
248.788
248.788
271.971
272.637
272.281
272.048
255.593
255.518
247.671
247.733
247.709
270.02
255.684
255.991
256.095
270.865
270.416
270.592
269.683
255.876
267.409
267.806
269.053
248.469
269.553
249.968
273.116
273.237
271.366
269.221
248.046
250.193
269.729
270.383
272.298
272.482
272.374
271.917
247.917
269.958
269.752
255.587
268.545
248.183
248.317
255.893
255.984
250.655
256.278
256.158
269.779
272.807
271.795
268.857
268.908
269.89
269.825
268.517
248.583
256.26
256.434
272.965
272.835
271.671
268.868
250.686
249.855
255.611
256.276
256.148
256.409
256.244
256.48
256.282
256.491
271.548
268.815
249.474
271.358
268.761
271.415
268.776
249.114
251.282
271.276
274.018
251.166
254.679
249.108
249.139
248.513
248.823
247.936
248.214
247.384
247.656
246.869
247.121
246.415
246.633
246.044
246.219
245.761
245.891
245.567
245.653
245.462
245.503
245.433
245.44
245.429
245.431
245.393
245.419
244.799
245.227
243.832
244.333
242.891
243.339
242.194
242.509
241.726
241.937
241.414
241.555
241.193
241.295
241.014
241.1
240.872
240.937
240.765
240.815
240.681
240.722
240.608
240.642
240.564
240.583
240.545
240.431
240.481
240.355
240.387
240.304
240.33
240.231
240.271
240.139
240.186
240.066
240.097
240.048
240.049
240.095
240.065
240.184
240.137
240.272
240.231
240.332
240.305
240.392
240.359
240.487
240.436
240.552
240.585
240.57
240.64
240.607
240.724
240.683
240.819
240.769
240.94
240.875
241.1
241.015
241.296
241.193
241.558
241.416
241.944
241.731
242.524
242.204
243.377
242.915
244.42
243.89
245.408
244.931
245.572
245.555
245.579
245.579
245.59
245.581
245.661
245.613
245.829
245.733
246.09
245.948
246.432
246.251
246.853
246.633
247.342
247.09
247.887
247.609
248.465
248.173
249.05
248.757
249.348
272.909
273.008
272.753
272.824
272.639
272.693
272.445
272.525
272.583
272.837
272.941
273.215
273.071
273.522
273.368
273.672
274.112
274.047
272.976
273.368
271.598
272.414
268.866
270.409
266.601
267.438
266.207
273.83
269.671
269.469
270.981
270.065
272.756
273.229
273.021
272.033
272.433
270.883
271.514
269.477
270.19
268.712
268.921
268.798
247.756
249.751
269.807
248.851
248.813
272.34
272.164
255.282
255.218
247.688
255.854
270.227
256.194
256.165
270.744
269.761
255.802
254.947
269.671
269.883
246.484
255.837
256.07
248.781
273.842
255.943
270.964
268.76
270.134
250.314
254.079
256.067
273.382
274.159
274.133
270.677
269.812
269.05
269.299
271.341
269.602
270.768
270.371
248.037
250.066
250.138
269.836
270.145
249.114
271.832
272.491
272.262
272.031
255.381
247.931
247.995
247.97
255.976
255.353
263.137
270.172
256.349
270.994
270.561
270.732
269.849
255.347
255.546
268.294
254.676
248.476
256.044
240.643
240.623
240.465
240.531
274.264
274.292
269.571
270.912
268.999
248.321
250.584
256.112
252.892
256.309
269.867
271.552
249.457
249.433
272.604
272.353
271.908
268.791
268.769
248.192
256.038
270.096
256.524
269.905
269.939
255.261
268.258
249.727
250.052
253.068
248.605
251.095
256.545
272.679
272.468
272.404
271.788
268.716
268.274
270.014
256.637
251.115
250.246
248.888
254.319
256.656
272.712
271.668
268.653
256.685
249.851
271.252
268.52
272.826
272.727
271.543
268.583
249.475
268.54
255.691
271.401
249.122
270.661
274.2
255.78
256.283
255.759
249.778
249.807
249.176
249.489
248.562
248.866
247.979
248.269
247.415
247.691
246.883
247.144
246.4
246.633
246.003
246.19
245.702
245.841
245.493
245.586
245.373
245.422
245.333
245.345
245.311
245.324
245.203
245.284
244.48
244.9
243.518
244.008
242.647
243.055
242.032
242.308
241.63
241.81
241.372
241.488
241.189
241.275
241.028
241.105
240.911
240.964
240.824
240.865
240.752
240.788
240.687
240.718
240.662
240.524
240.407
240.459
240.326
240.361
240.267
240.296
240.189
240.231
240.092
240.141
240.016
240.048
239.997
239.998
240.046
240.014
240.139
240.089
240.23
240.187
240.297
240.267
240.365
240.327
240.411
240.631
240.663
240.649
240.716
240.685
240.787
240.752
240.864
240.824
240.962
240.91
241.102
241.025
241.271
241.185
241.489
241.37
241.814
241.633
242.321
242.04
243.09
242.669
244.094
243.574
245.085
244.605
245.462
245.402
245.491
245.483
245.507
245.496
245.587
245.535
245.769
245.665
246.05
245.897
246.423
246.225
246.871
246.639
247.377
247.117
247.935
247.65
248.529
248.229
249.127
248.828
249.426
273.482
273.233
273.355
273.037
273.129
272.889
272.958
272.754
272.823
272.6
272.678
272.42
272.478
272.531
272.726
272.801
273.023
272.905
273.296
273.154
273.601
273.446
273.893
273.752
274.028
274.21
273.171
273.582
271.175
272.415
266.814
269.247
264.469
265.086
265.527
264.699
266.958
269.934
269.508
271.15
269.983
273.391
273.636
273.555
272.916
273.186
272.009
272.563
270.046
271.181
267.57
268.72
266.615
266.808
267.613
266.892
255.899
248.018
250.082
269.971
249.176
249.141
272.208
272.147
255.078
247.948
255.677
255.67
255.819
270.378
256.396
270.885
269.938
255.467
256.619
268.055
248.795
255.764
274.061
253.301
266.147
255.706
269.592
264.075
240.6
240.609
274.182
274.294
274.299
270.632
270.15
269.071
269.34
271.48
269.456
270.919
270.394
267.402
268.391
248.315
250.374
250.506
263.791
262.046
261.588
263.825
269.992
270.323
249.448
272.348
272.25
272.023
268.769
268.634
248.211
248.276
248.252
255.76
248.171
255.944
256.196
255.125
254.782
270.313
270.973
256.586
270.87
270.061
270.047
261.71
255.214
267.978
249.846
250.143
250.349
267.332
268.737
273.845
255
273.929
248.615
250.991
255.579
255.668
255.51
256.598
256.43
270.012
251.442
249.764
272.494
272.329
271.903
254.677
256.712
268.559
267.871
248.491
255.79
272.71
272.865
272.773
270.213
255.329
254.893
269.44
256.743
269.169
270.902
268.866
250.65
270.124
248.915
253.429
253.719
254.951
251.549
256.765
256.13
256.427
250.128
250.101
272.565
272.364
271.784
272.517
272.485
272.47
257.442
268.491
255.295
259.293
256.819
270.995
250.242
270.836
252.075
274.677
249.211
252.503
256.197
272.32
256.832
268.256
272.607
272.443
272.385
271.662
272.422
268.828
268.404
249.852
268.282
255.379
272.633
271.527
268.326
249.486
249.139
255.453
272.638
271.38
265.018
252.732
256.209
255.687
255.895
255.294
255.186
255.452
250.453
250.48
249.859
250.169
249.245
249.551
248.645
248.943
248.056
248.352
247.482
247.765
246.937
247.204
246.448
246.684
246.034
246.231
245.71
245.86
245.489
245.587
245.365
245.415
245.32
245.335
245.271
245.303
245
245.203
244.211
244.648
243.256
243.731
242.465
242.828
241.933
242.169
241.594
241.743
241.382
241.477
241.222
241.299
241.092
241.153
240.999
241.041
240.928
240.962
240.865
240.896
240.804
240.834
240.757
240.778
240.71
240.735
240.676
240.497
240.569
240.38
240.433
240.296
240.334
240.232
240.264
240.15
240.194
240.049
240.1
239.969
240.003
239.95
239.951
240
239.967
240.097
240.045
240.193
240.148
240.264
240.231
240.337
240.297
240.439
240.384
240.58
240.505
240.688
240.744
240.72
240.778
240.762
240.829
240.8
240.89
240.86
240.953
240.921
241.03
240.99
241.14
241.08
241.289
241.21
241.469
241.372
241.738
241.588
242.17
241.93
242.849
242.473
243.799
243.297
244.797
244.317
245.4
245.205
245.483
245.454
245.513
245.499
245.595
245.542
245.78
245.673
246.077
245.915
246.466
246.262
246.924
246.687
247.442
247.176
248.011
247.72
248.621
248.313
249.236
248.929
249.541
273.553
273.696
273.329
273.42
273.166
273.243
273.025
273.096
272.863
272.949
272.678
272.77
272.543
272.6
272.51
273.091
272.971
273.369
273.224
273.666
273.52
273.94
273.808
274.065
274.378
274.368
274.381
274.34
273.246
273.812
270.141
272.172
264.782
267.04
263.945
263.994
264.968
264.312
265.424
270.487
251.953
269.606
271.354
269.919
273.585
273.744
273.121
273.39
271.76
272.65
268.183
270.249
264.357
265.999
263.819
263.656
265.94
264.633
267.671
248.3
250.432
263.298
262.584
270.156
249.523
249.485
272.091
272.137
255.813
255.906
268.452
268.522
274.439
269.78
270.579
254.62
254.446
256.557
265.51
254.045
248.23
255.454
251.646
256.099
254.434
270.521
255.237
256.602
271.013
270.224
270.135
255.123
256.32
266.807
266.996
267.71
268.983
256.143
256.797
270.694
254.805
253.114
255.835
250.434
253.213
274.266
262.842
271.204
270.543
270.066
269.281
270.474
273.972
248.614
250.644
250.714
250.886
255.725
255.708
256.617
256.547
270.145
254.479
256.196
270.848
265.859
254.852
249.792
272.28
272.239
272.018
272.514
272.566
272.565
272.517
256.752
256.802
268.417
268.03
268.124
268.397
267.457
255.636
250.676
248.513
248.58
248.556
255.503
272.695
270.372
274.553
256.166
254.852
254.503
253.795
271.663
270.412
254.618
254.304
256.8
268.597
251.063
255.182
270.998
270.169
264.004
253.484
270.238
270.475
264.901
262.211
240.759
240.724
240.543
240.649
274.379
274.392
274.434
267.488
267.985
267.958
268.572
248.931
253.985
252.548
254.889
251.402
255.365
255.144
256.813
256.599
271.174
250.102
255.405
271.534
272.396
272.299
271.898
272.468
257.417
257.654
267.641
268.32
267.491
254.313
253.21
248.815
255.502
272.634
251.469
253.147
270.318
256.901
254.961
250.637
251.798
267.034
254.503
267.86
249.246
253.386
254.641
251.986
254.906
254.995
254.675
256.925
256.475
267.965
250.434
272.466
272.329
271.775
272.413
258.547
267.092
268.23
253.267
252.521
252.686
253.424
256.945
250.24
253.423
249.551
252.7
254.418
268.001
250.792
250.775
255.041
272.519
272.363
271.647
266.624
268.125
253.499
249.867
249.505
255.12
272.551
271.502
268.049
255.704
258.696
265.175
269.967
271.856
255.869
255.496
255.689
255.056
255.287
254.624
254.556
254.803
251.11
251.123
250.532
250.828
249.932
250.234
249.325
249.628
248.72
249.022
248.117
248.419
247.523
247.818
246.953
247.233
246.436
246.686
246
246.207
245.648
245.814
245.38
245.501
245.222
245.289
245.139
245.175
245.014
245.093
244.581
244.855
243.757
244.203
242.858
243.294
242.172
242.48
241.74
241.93
241.48
241.592
241.323
241.394
241.203
241.259
241.104
241.15
241.031
241.064
240.972
241.001
240.917
240.944
240.86
240.889
240.81
240.833
240.785
240.634
240.461
240.531
240.347
240.399
240.262
240.3
240.196
240.229
240.112
240.157
240.007
240.06
239.924
239.959
239.903
239.904
239.956
239.922
240.057
240.003
240.155
240.109
240.229
240.195
240.304
240.264
240.407
240.353
240.472
240.739
240.797
240.773
240.835
240.817
240.886
240.857
240.938
240.912
240.991
240.964
241.051
241.02
241.132
241.088
241.245
241.186
241.381
241.31
241.58
241.468
241.927
241.731
242.502
242.18
243.366
242.901
244.359
243.869
245.09
244.781
245.319
245.246
245.396
245.363
245.504
245.439
245.721
245.598
246.041
245.87
246.452
246.235
246.942
246.689
247.484
247.207
248.071
247.771
248.696
248.38
249.328
249.013
249.946
249.64
250.533
250.245
273.655
273.762
273.433
273.559
273.242
273.323
273.1
273.172
272.936
273.022
272.753
272.843
272.617
272.675
272.57
272.579
272.571
272.574
272.564
272.543
272.617
272.591
272.723
272.656
272.888
272.799
273.109
272.991
273.379
273.239
273.673
273.524
273.953
273.815
274.19
274.079
274.289
274.408
274.395
274.427
273.123
273.91
268.435
271.4
264.239
265.505
264.071
263.878
264.095
264.267
263.869
268.986
244.397
268.788
270.51
269.925
273.948
273.998
273.986
273.825
273.883
273.269
273.652
270.831
272.447
265.178
268.24
261.917
262.954
262.164
261.814
264.944
263.201
265.584
248.602
250.786
255.75
256.608
270.317
267.894
269.135
249.889
249.843
253.658
272.133
272.526
256.803
268.243
266.633
267.059
255.916
255.208
255.456
260.596
254.702
254.178
253.925
250.838
250.758
248.535
255.188
265.239
274.41
256.358
254.151
247.186
254.457
256.827
256.824
271.122
270.347
266.245
265.791
270.346
259.703
270.181
255.843
254.42
261.285
256.921
251.419
264.221
240.679
240.697
251.152
274.44
253.095
269.158
271.027
268.45
264.129
269.254
269.373
248.935
263.697
254.775
251.003
251.054
251.269
255.405
255.322
256.836
256.721
270.308
270.676
255.854
240.983
250.149
271.772
272.209
272.221
272.012
272.47
257.625
257.718
267.791
268.138
267.134
256.268
265.139
251.92
251.024
248.844
248.909
248.888
255.207
272.572
272.484
272.5
260.623
256.333
254.544
254.191
253.496
260.999
258.793
271.448
270.851
270.505
253.805
254.023
256.943
253.771
251.044
271.186
271.33
253.201
271.132
267.252
253.337
254.429
267.393
262.781
268.006
274.285
273.977
274.246
249.267
253.693
254.569
251.812
255.048
254.752
254.274
253.95
254.045
256.967
256.684
267.676
267.369
265.485
257.54
250.454
272.307
272.267
271.889
272.411
270.674
258.386
258.713
267.275
268.048
252.036
252.872
253.973
270.671
252.792
252.583
252.861
252.619
249.166
255.18
272.563
253.799
251.665
252.866
270.444
257.012
267.206
250.639
255.223
255.564
252.859
269.94
249.903
249.596
253.074
254.354
252.444
254.696
254.352
257.027
262.224
265.338
267.699
255.291
250.766
254.895
272.386
272.303
271.761
272.353
259.594
266.725
267.933
266.239
253.564
250.744
259.847
254.109
251.093
250.26
249.888
254.767
272.445
271.622
267.825
253.897
256.7
257.237
255.441
255.464
255.255
255.366
254.895
255.096
254.473
254.667
254.237
253.045
251.169
251.435
250.616
250.895
250.038
250.331
249.44
249.741
248.828
249.135
248.213
248.52
247.608
247.908
247.034
247.314
246.523
246.77
246.082
246.293
245.726
245.892
245.464
245.585
245.296
245.365
245.204
245.247
245.014
245.139
244.457
244.792
243.575
244.035
242.73
243.128
242.134
242.398
241.778
241.932
241.575
241.661
241.455
241.51
241.366
241.407
241.295
241.328
241.244
241.268
241.201
241.222
241.159
241.18
241.108
241.136
241.056
241.08
241.003
241.029
240.921
240.965
240.867
240.584
240.626
240.42
240.485
240.31
240.361
240.228
240.265
240.162
240.195
240.078
240.124
239.971
240.025
239.884
239.921
239.863
239.864
239.918
239.882
240.022
239.967
240.122
240.075
240.196
240.161
240.27
240.231
240.371
240.318
240.5
240.434
240.644
240.601
240.882
240.976
240.935
241.034
241.012
241.075
241.056
241.122
241.098
241.159
241.142
241.193
241.175
241.231
241.211
241.282
241.254
241.359
241.317
241.462
241.409
241.614
241.526
241.892
241.733
242.382
242.103
243.16
242.734
244.153
243.647
244.998
244.623
245.375
245.242
245.478
245.441
245.585
245.52
245.799
245.679
246.126
245.948
246.549
246.328
247.041
246.788
247.584
247.307
248.171
247.872
248.798
248.481
249.44
249.119
250.073
249.759
250.684
250.383
251.3
250.986
251.6
273.888
273.978
273.598
273.74
273.432
273.481
273.364
273.399
273.255
273.318
273.082
273.175
272.889
272.983
272.742
272.807
272.668
272.697
272.636
272.647
272.648
272.636
272.713
272.673
272.828
272.763
273.005
272.909
273.236
273.115
273.506
273.367
273.77
273.636
274.002
273.894
274.193
274.1
274.357
274.28
274.393
274.438
274.698
274.743
274.714
274.733
274.747
253.747
274.72
274.368
253.691
273.139
274.022
267.255
270.923
265.05
265.448
264.977
264.951
262.932
264.411
259.781
261.268
263.334
271.214
266.244
268.891
265.526
269.601
274.239
274.285
274.053
274.168
273.287
273.816
269.012
271.958
262.844
265.223
261.336
261.832
261.574
261.401
262.458
261.986
262.371
248.928
271.331
251.148
255.395
257.116
253.766
253.558
256.799
270.474
270.704
255.026
250.271
250.222
271.997
272.125
272.475
257.715
267.954
266.655
258.604
258.396
257.39
253.755
255.3
255.388
254.944
255.137
254.481
254.712
254.02
254.255
253.556
253.786
253.283
252.357
252.131
251.08
248.869
254.883
272.526
254.398
256.548
253.84
257.532
255.793
259.734
259.914
271.388
270.979
262.753
270.69
254.281
256.955
251.473
270.304
253.169
252.993
251.076
254.537
264.606
264.961
271.24
270.393
267.076
256.985
251.885
266.849
253.223
255.124
254.192
254.943
265.827
252.563
261.778
270.521
269.915
268.616
256.424
267.864
264.77
274.132
274.45
249.28
254.002
254.447
251.345
251.399
251.647
255.063
254.928
253.301
253.808
256.978
256.824
261.338
266.29
270.481
254.443
267.817
258.936
250.522
269.099
262.723
256.51
271.699
272.127
272.195
272.005
272.412
258.625
258.767
267.455
267.853
254.935
253.911
254.413
253.236
256.551
266.804
254.531
253.523
253.47
254.686
253.858
251.696
250.799
252.36
251.465
251.358
249.198
249.266
249.248
254.878
272.502
272.417
272.431
253.738
256.395
254.201
253.847
253.181
270.63
254.005
257.046
251.972
255.991
252.913
255.299
270.786
240.785
240.714
240.577
240.81
274.323
274.662
258.613
250.267
263.638
251.994
249.624
253.402
254.278
252.218
254.721
254.348
254.085
257.066
265.832
256.717
271.224
267.323
271.142
258.132
250.8
254.287
272.235
272.239
271.877
272.349
259.367
259.784
266.915
267.739
265.788
255.375
253.713
254.407
254.216
265.353
255.994
253.483
251.424
252.609