/*--------------------------------*- C++ -*----------------------------------*\
| =========                 |                                                 |
| \\      /  F ield         | OpenFOAM: The Open Source CFD Toolbox           |
|  \\    /   O peration     | Version:  2212                                  |
|   \\  /    A nd           | Website:  www.openfoam.com                      |
|    \\/     M anipulation  |                                                 |
\*---------------------------------------------------------------------------*/
FoamFile
{
    version     2.0;
    format      ascii;
    arch        "LSB;label=32;scalar=64";
    class       volVectorField;
    location    "0.000192";
    object      U;
}
// * * * * * * * * * * * * * * * * * * * * * * * * * * * * * * * * * * * * * //

dimensions      [0 1 -1 0 0 0 0];

internalField   nonuniform List<vector> 
22212
(
(-5.12e-12 14.8 -0.356)
(-6.12e-12 13.8 -0.0727)
(1.35e-12 13.9 -0.228)
(-1.64e-11 14 -0.0287)
(2.5e-12 14.4 -0.148)
(-3.13e-11 14.8 0.0384)
(3.01e-11 15.1 -0.0233)
(-4.14e-11 15.2 0.14)
(1.18e-11 15.3 0.126)
(3.84e-11 15.4 0.246)
(-1.94e-11 15.4 0.271)
(2.78e-11 15.5 0.349)
(-2.75e-11 15.6 0.544)
(2.48e-11 15.6 0.754)
(2.31e-11 15.6 0.847)
(-7.7e-12 15.6 0.962)
(5.78e-13 15.6 1.06)
(-6.05e-12 15.5 1.13)
(3.48e-12 15.6 1.25)
(3.65e-12 15.6 1.44)
(1.24e-11 15.5 1.58)
(-1.99e-12 15.4 1.63)
(3.31e-12 15.3 1.7)
(8.54e-13 15.2 1.82)
(3.12e-13 15.2 2)
(-5.27e-12 15.2 2.34)
(6.84e-12 14.9 2.54)
(-1.95e-11 14.9 2.55)
(1.05e-11 14.9 2.59)
(-2.75e-11 15 2.55)
(1e-11 15.2 2.38)
(-2.5e-11 15.6 2.13)
(-7.67e-12 16.1 1.8)
(-2.75e-11 16.7 1.43)
(-1.43e-11 17.4 1.02)
(4.58e-11 18 0.642)
(-2.59e-11 18.5 0.311)
(2.73e-12 18.9 0.00722)
(7.75e-12 19.4 -0.241)
(-9.75e-12 19.8 -0.473)
(4.1e-12 20.2 -0.751)
(6.68e-12 20.6 -0.897)
(1.89e-11 21 -0.796)
(-9.06e-13 21.4 -0.94)
(8.59e-12 21.9 -0.947)
(-1.44e-12 22.2 -0.864)
(3.71e-12 22.6 -0.822)
(-4.55e-12 22.8 -0.709)
(1.07e-11 23.1 -0.668)
(-2.06e-11 23.5 -0.443)
(1.68e-11 23.8 -0.233)
(6.91e-12 24.1 -0.138)
(-1.71e-11 24.6 0.00958)
(-4.56e-12 24.9 0.415)
(-4.35e-11 25 0.572)
(4.38e-11 25.2 0.68)
(1.39e-11 25.4 0.968)
(4.08e-12 25.7 1.19)
(1.22e-11 25.8 1.38)
(-2.15e-13 26 1.57)
(-1.17e-11 26.4 1.68)
(1.51e-11 26.7 1.96)
(-1.52e-11 26.8 2.22)
(-1.12e-12 27 2.37)
(-3.6e-12 27.1 2.68)
(-2.85e-11 27.3 2.87)
(2.1e-11 27.4 3.03)
(9.18e-12 27.5 3.15)
(-2.82e-12 27.8 3.37)
(-1.72e-11 27.9 3.58)
(1.64e-11 28 3.79)
(4.28e-12 28.3 4.08)
(-2.73e-12 28.5 4.39)
(-8.5e-13 28.5 4.55)
(2.61e-11 28.7 4.78)
(-4.1e-11 28.8 5.15)
(1.51e-11 29 5.4)
(-1.7e-11 29.1 5.58)
(1.08e-11 29.1 5.73)
(-1.23e-12 29.1 5.87)
(1.76e-11 29.2 6.01)
(1.39e-12 29.4 6.27)
(-4.58e-12 29.6 6.58)
(4.22e-12 29.8 6.8)
(-2.59e-12 29.9 6.97)
(5.96e-13 30 7.15)
(-7.38e-14 30 7.33)
(-9.44e-13 30.2 7.6)
(7.99e-14 30.4 7.95)
(1e-12 30.4 8.18)
(3.45e-12 30.5 8.47)
(2.4e-12 30.6 8.86)
(-3.28e-13 30.5 9.08)
(-1.43e-12 30.5 9.29)
(2.71e-12 30.5 9.62)
(9.96e-12 30.5 9.93)
(3.54e-12 30.6 10.2)
(-1.96e-11 30.5 10.4)
(9.61e-12 30.3 10.5)
(4.97e-12 30.3 10.6)
(9.89e-12 30.3 10.8)
(-2.07e-11 30.3 11.1)
(2.42e-11 30.3 11.4)
(-3.26e-11 30.2 11.6)
(4.21e-12 30 11.9)
(1.45e-11 29.8 12.1)
(-2.34e-11 29.7 12.4)
(2.85e-11 29.6 12.7)
(-4.86e-13 29.5 12.9)
(1.18e-11 29.2 13)
(1.63e-11 28.9 13.1)
(1.75e-11 28.6 13.2)
(2.54e-12 28.4 13.3)
(-1.45e-11 28.1 13.3)
(-1.7e-11 27.8 13.3)
(-1.25e-11 27.7 13.3)
(-3.53e-11 27.6 13.3)
(2.68e-12 27.3 13.3)
(-3.29e-11 27 13.2)
(-2.37e-11 26.9 13.1)
(1.23e-11 26.8 13.1)
(-2.04e-12 26.8 13)
(-9.11e-12 26.7 13.1)
(3.12e-12 26.5 13)
(-3.77e-12 26.3 12.9)
(1.1e-11 26.1 12.8)
(1.03e-13 25.9 12.7)
(-3.09e-12 25.8 12.7)
(-7.79e-12 25.7 12.6)
(9.55e-12 25.7 12.5)
(3.75e-12 25.5 12.4)
(-9.42e-12 25.2 12.2)
(5.02e-12 25 12.1)
(1.83e-11 24.9 11.9)
(-9.28e-12 24.8 11.8)
(2.23e-11 24.5 11.5)
(7.46e-12 24.6 11.3)
(5.31e-12 24.5 11.3)
(-5.09e-13 24.4 11.3)
(-7.1e-12 24.2 11.1)
(4.25e-12 24.1 11)
(1.3e-12 24 10.8)
(-7.32e-13 24 10.6)
(1.79e-12 23.9 10.5)
(7.84e-12 23.7 10.3)
(-9.91e-12 23.3 10.1)
(5.25e-12 22.9 9.74)
(-7.62e-12 22.4 9.34)
(-7.37e-13 21.9 8.9)
(-1.22e-11 21.2 8.36)
(-4.59e-13 20.6 7.73)
(-7.53e-13 19.9 7.06)
(1.05e-11 19.4 6.52)
(-2.24e-12 19.2 6.27)
(-3.93e-12 19.4 6.45)
(-4.28e-12 19.7 6.87)
(-3.85e-12 19.9 7.04)
(-9.28e-12 20 6.97)
(-1.85e-11 20 6.92)
(1.53e-11 20 6.9)
(-2.09e-11 19.9 6.87)
(-3.75e-12 19.9 6.81)
(9.2e-12 19.8 6.77)
(3.63e-12 19.9 6.77)
(-4.39e-13 19.9 6.82)
(8.77e-12 19.9 6.83)
(2.31e-14 19.8 6.83)
(-1.61e-12 19.7 6.86)
(-2.53e-11 19.4 6.92)
(-1.01e-11 18.9 6.99)
(2.24e-11 18.4 7.07)
(6.15e-12 18.1 7.19)
(-2.17e-11 18.1 7.21)
(1.86e-11 18.1 7.51)
(-1.11e-11 18.3 7.38)
(1.66e-12 19.2 7.82)
(-2.4e-12 14.6 -0.439)
(-5e-12 13.9 -0.0677)
(3.61e-12 13.9 -0.217)
(-6.11e-12 14.1 0.045)
(1.52e-11 14.5 -0.0823)
(-4.01e-12 14.8 0.142)
(3.02e-11 15.1 0.0882)
(-1.2e-11 15.3 0.269)
(1.82e-11 15.3 0.243)
(4.21e-11 15.4 0.338)
(-1.12e-11 15.4 0.385)
(3.53e-11 15.5 0.52)
(-2.22e-11 15.6 0.659)
(8.8e-12 15.6 0.777)
(2.41e-11 15.5 0.899)
(-1.11e-11 15.5 1.02)
(5.48e-13 15.5 1.11)
(-1.3e-11 15.4 1.21)
(-8.77e-13 15.5 1.34)
(7.32e-12 15.4 1.44)
(1.2e-11 15.3 1.52)
(4.79e-12 15.3 1.66)
(6.76e-12 15.3 1.81)
(5.92e-11 15.3 1.99)
(5.56e-11 15.4 2.17)
(3.49e-12 15.3 2.33)
(-4.08e-12 15.1 2.47)
(-5.64e-12 15 2.65)
(-5.14e-12 15.1 2.78)
(-2.78e-11 15.1 2.81)
(1.07e-11 15.3 2.77)
(-3.56e-11 15.5 2.68)
(-9.6e-12 15.9 2.52)
(-2.39e-11 16.4 2.23)
(-2.09e-11 17.1 1.82)
(2.57e-11 17.7 1.39)
(-3.24e-11 18.2 1.02)
(-8.53e-12 18.7 0.667)
(-1.44e-12 19.2 0.351)
(-1.81e-11 19.7 0.0547)
(8.04e-12 20.1 -0.187)
(8.91e-12 20.7 -0.287)
(1.83e-11 21.1 -0.3)
(9.58e-12 21.5 -0.371)
(-1.45e-12 21.9 -0.374)
(1.25e-11 22.2 -0.359)
(3.06e-11 22.6 -0.397)
(-5.68e-12 22.8 -0.303)
(2.59e-11 23.1 -0.107)
(-4.34e-11 23.5 0.0546)
(2.8e-11 23.8 0.164)
(4e-11 24.1 0.345)
(-3.97e-11 24.5 0.561)
(1.85e-11 24.8 0.729)
(-4.19e-11 24.8 0.858)
(3.19e-11 25.2 1.11)
(4.16e-11 25.5 1.31)
(1.17e-11 25.6 1.47)
(1.87e-11 25.9 1.65)
(-8e-13 26.1 1.92)
(-2.2e-11 26.4 2.08)
(3.34e-11 26.7 2.29)
(-1.63e-11 26.9 2.4)
(9.94e-12 27 2.64)
(2.51e-12 27.2 2.92)
(-1.77e-11 27.4 3.01)
(6.34e-12 27.5 3.2)
(1.38e-11 27.7 3.43)
(6.84e-13 27.8 3.61)
(-9.91e-12 27.9 3.79)
(1.71e-12 28.2 4.06)
(1.68e-11 28.4 4.27)
(-3.36e-12 28.4 4.45)
(-6.2e-12 28.5 4.73)
(3.47e-11 28.8 5.06)
(-2.54e-11 29 5.3)
(1.84e-11 29.1 5.52)
(-8.08e-12 29 5.65)
(1.13e-11 29 5.76)
(-1.43e-12 29.1 5.96)
(7.5e-12 29.3 6.25)
(-4.79e-12 29.6 6.51)
(2.07e-13 29.8 6.73)
(2.47e-12 29.9 6.92)
(-2.44e-12 29.9 7.07)
(2.12e-13 29.9 7.25)
(7.21e-14 30.1 7.53)
(-1.06e-12 30.3 7.79)
(1.03e-12 30.4 7.99)
(4.47e-12 30.4 8.29)
(9.56e-12 30.6 8.63)
(5.38e-12 30.6 8.82)
(-3.36e-12 30.5 9.05)
(-5.43e-12 30.6 9.37)
(5.08e-12 30.7 9.65)
(1.12e-11 30.7 9.91)
(1.86e-12 30.6 10.1)
(-1.83e-11 30.4 10.2)
(5.76e-12 30.3 10.4)
(8.06e-12 30.3 10.7)
(5.67e-12 30.4 10.9)
(-1.52e-11 30.3 11.1)
(2.45e-11 30.3 11.3)
(-2.62e-11 30.2 11.5)
(4.57e-12 30 11.7)
(1.56e-11 29.9 12)
(2.14e-11 29.9 12.3)
(5.24e-11 29.8 12.5)
(6.51e-12 29.6 12.6)
(8.8e-12 29.2 12.7)
(1.65e-11 29 12.8)
(1.4e-11 28.9 13)
(-2.71e-12 28.7 13.1)
(-1.81e-11 28.4 13)
(-2.24e-11 28.2 13.1)
(-3.17e-11 28.1 13.1)
(-4.66e-11 27.9 13)
(2.28e-11 27.7 13)
(-4.44e-11 27.5 13)
(-2.54e-11 27.4 13)
(2.11e-11 27.2 12.9)
(-3.99e-12 27.1 12.9)
(-9.55e-12 26.9 12.8)
(4.05e-12 26.7 12.7)
(-3.22e-12 26.6 12.7)
(1.47e-11 26.5 12.6)
(-2.48e-12 26.3 12.6)
(-2.06e-12 26.2 12.5)
(-6.64e-12 26.1 12.4)
(1.68e-11 26 12.3)
(3.1e-12 25.7 12.1)
(-1.29e-11 25.6 12)
(1.18e-11 25.5 12)
(2.12e-11 25.3 11.8)
(-1.46e-11 25.1 11.5)
(2.27e-11 25 11.4)
(5.23e-12 25 11.3)
(3.81e-12 24.8 11.1)
(-2.66e-12 24.7 11)
(-8.2e-12 24.5 10.9)
(7.42e-12 24.4 10.8)
(9.07e-13 24.2 10.7)
(-3.72e-12 24 10.5)
(1.76e-12 23.9 10.3)
(1.04e-11 23.7 10)
(-9.73e-12 23.3 9.71)
(9.36e-12 22.8 9.3)
(-1.15e-11 22.3 8.79)
(-1.29e-12 21.7 8.21)
(-1.51e-11 21.1 7.64)
(1.11e-11 20.4 7.02)
(-2.87e-12 19.9 6.43)
(1.33e-11 19.5 6.11)
(-5.32e-12 19.4 6.23)
(1.89e-12 19.8 6.6)
(-4.33e-13 20 6.83)
(-5.48e-12 19.9 6.92)
(-1.44e-11 19.9 6.89)
(-3.9e-11 19.9 6.81)
(2.93e-11 19.9 6.76)
(-1.38e-11 19.9 6.72)
(-1.38e-11 19.8 6.68)
(1.13e-11 19.9 6.71)
(-5.46e-12 20 6.72)
(1.16e-12 20 6.68)
(2.74e-12 19.9 6.7)
(1.07e-11 19.8 6.71)
(-1.84e-13 19.6 6.74)
(-3.43e-11 19.3 6.81)
(-8.34e-12 18.8 6.91)
(2.15e-11 18.2 7)
(-1.27e-11 18 7.15)
(-1.28e-11 17.9 7.19)
(2.42e-11 17.9 7.52)
(-1.52e-11 18.2 7.45)
(1.67e-12 18.8 7.95)
(1.9e-12 14.4 -0.432)
(-9.03e-13 13.8 -0.0655)
(4.63e-12 13.8 -0.266)
(1.08e-11 14 -0.0336)
(-1.35e-11 14.4 -0.149)
(-2.68e-11 14.8 0.0964)
(1.73e-11 15.1 0.0593)
(-1.81e-11 15.2 0.206)
(-2.48e-11 15.3 0.19)
(7.24e-11 15.3 0.3)
(3.74e-11 15.4 0.369)
(4.18e-11 15.4 0.514)
(-1.67e-12 15.5 0.638)
(3.06e-13 15.5 0.726)
(2.18e-11 15.5 0.837)
(-1.97e-11 15.5 0.958)
(5.93e-12 15.4 1.06)
(-1.34e-11 15.4 1.17)
(-2.53e-12 15.4 1.28)
(6.31e-12 15.4 1.36)
(1.65e-11 15.3 1.47)
(3.83e-12 15.4 1.65)
(1.78e-12 15.4 1.83)
(-2.8e-11 15.4 1.97)
(-3.71e-11 15.4 2.08)
(-5.84e-12 15.3 2.18)
(-7.9e-12 15.2 2.37)
(-1.25e-12 15.2 2.6)
(-4.11e-12 15.2 2.76)
(-1.66e-11 15.3 2.84)
(2.42e-13 15.5 2.89)
(-7.92e-12 15.7 2.93)
(1.78e-11 15.9 2.87)
(-4.16e-12 16.4 2.7)
(-1.14e-11 16.9 2.35)
(-1.49e-11 17.4 1.9)
(-4.9e-11 18 1.49)
(-1.48e-11 18.5 1.1)
(-1.22e-11 19 0.758)
(-2.13e-11 19.5 0.472)
(1.15e-11 20 0.251)
(8.11e-12 20.6 0.122)
(1.25e-11 21 0.00329)
(1.08e-11 21.3 -0.0975)
(1.53e-12 21.7 -0.0988)
(6.4e-11 21.9 -0.138)
(9.2e-11 22.3 -0.167)
(-1.17e-11 22.7 -0.0137)
(4.71e-11 23.1 0.167)
(-3.66e-11 23.4 0.265)
(6.41e-11 23.6 0.344)
(9.46e-11 23.9 0.565)
(-3.18e-11 24.2 0.731)
(3.68e-11 24.4 0.828)
(-3.17e-12 24.7 1.04)
(4.58e-12 25 1.34)
(3.49e-11 25.2 1.43)
(2.26e-11 25.4 1.6)
(1.48e-11 25.7 1.87)
(4.65e-12 26 2.11)
(-3.25e-11 26.1 2.23)
(3.92e-11 26.4 2.44)
(-1.64e-11 26.5 2.65)
(1.32e-11 26.8 2.85)
(-1.97e-13 27 3.13)
(-1.71e-12 27.1 3.21)
(6.2e-12 27.3 3.43)
(9.51e-12 27.4 3.65)
(4.89e-12 27.5 3.78)
(4.75e-12 27.8 4.02)
(-5.03e-12 28 4.3)
(2.16e-11 28 4.44)
(-2.12e-12 28.2 4.6)
(-1.31e-11 28.4 4.96)
(3.6e-11 28.6 5.28)
(-4.93e-12 28.7 5.49)
(1.44e-11 28.8 5.59)
(-5.3e-12 28.7 5.67)
(5.52e-12 28.8 5.89)
(-1.36e-11 29 6.21)
(4.96e-11 29.2 6.52)
(4.44e-11 29.4 6.75)
(3.5e-12 29.6 6.91)
(2e-12 29.6 6.97)
(-2.65e-12 29.6 7.11)
(-5.42e-13 29.7 7.41)
(-1.64e-13 29.9 7.74)
(-2.2e-12 30 7.92)
(1.38e-12 30.1 8.08)
(8.65e-12 30.3 8.41)
(1.43e-11 30.3 8.7)
(3.74e-12 30.3 8.85)
(-1.29e-11 30.4 9.1)
(-1.33e-11 30.4 9.45)
(7.28e-12 30.4 9.71)
(1.26e-11 30.4 9.88)
(-1.77e-12 30.3 9.99)
(-1.54e-11 30.2 10.1)
(-2.02e-12 30.2 10.3)
(1.35e-11 30.2 10.6)
(1.87e-13 30.2 10.8)
(-4.67e-12 30.1 11)
(1.97e-11 30 11.2)
(-9.67e-12 29.9 11.4)
(3.22e-12 29.8 11.6)
(3.32e-12 29.8 11.9)
(-4.87e-11 29.7 12.2)
(-2.31e-11 29.5 12.3)
(1.96e-11 29.2 12.3)
(5.26e-12 29 12.4)
(1.23e-11 28.9 12.7)
(4.32e-12 28.8 12.8)
(-8.42e-12 28.5 12.8)
(-1.67e-11 28.3 12.8)
(-2.32e-11 28.2 12.9)
(-5.57e-11 28 12.9)
(-5.01e-11 27.8 12.8)
(4.4e-11 27.7 12.9)
(-5.08e-11 27.5 12.8)
(-7.58e-12 27.3 12.8)
(2.45e-11 27.2 12.7)
(-3.28e-12 27 12.6)
(-8.14e-12 26.8 12.6)
(2.15e-12 26.8 12.6)
(-9.93e-13 26.7 12.5)
(1.3e-11 26.5 12.4)
(-8.35e-12 26.4 12.4)
(-5.15e-13 26.2 12.4)
(-2.04e-13 26.1 12.2)
(2.01e-11 25.9 12)
(1.89e-12 25.7 11.9)
(-1.13e-11 25.7 11.9)
(2.26e-11 25.6 11.8)
(1.73e-11 25.3 11.5)
(-1.78e-11 25.2 11.4)
(2.01e-11 25.1 11.3)
(3.54e-12 25 11.1)
(-2.06e-12 24.9 10.9)
(-6.11e-12 24.7 10.9)
(-8.12e-12 24.5 10.8)
(1.14e-11 24.3 10.6)
(-2.49e-13 24.2 10.5)
(-7.36e-12 24 10.3)
(3.01e-12 23.8 10.1)
(1.3e-11 23.5 9.77)
(-7.79e-12 23.1 9.4)
(1.42e-11 22.6 8.88)
(-1.41e-11 22.1 8.28)
(-2.28e-12 21.5 7.65)
(-1.92e-11 20.9 7.02)
(2.53e-11 20.3 6.48)
(-5.56e-12 19.8 6.08)
(1.29e-11 19.6 6.01)
(-8.52e-12 19.7 6.44)
(1.16e-11 20 6.86)
(-4.1e-13 20.1 6.91)
(-6.72e-12 20.1 6.88)
(6.85e-12 20 6.89)
(3.42e-11 20 6.87)
(7.46e-11 19.9 6.79)
(7.92e-13 19.9 6.7)
(-1.72e-11 19.9 6.71)
(1.65e-11 19.9 6.82)
(-1.46e-11 19.9 6.8)
(-4.21e-12 20 6.73)
(-1.57e-12 19.9 6.73)
(9.6e-12 19.8 6.77)
(-1.76e-13 19.6 6.82)
(2.14e-11 19.2 6.9)
(6.14e-11 18.6 7.04)
(2.42e-11 18.1 7.17)
(-3.52e-11 17.8 7.35)
(-1.86e-12 17.7 7.36)
(8.87e-12 17.7 7.67)
(-1.73e-11 17.9 7.62)
(-5.47e-12 18.5 8.11)
(2.67e-12 14.4 -0.507)
(2.2e-12 13.7 -0.194)
(3.18e-12 13.8 -0.328)
(-4.49e-12 13.9 -0.0998)
(3.04e-11 14.3 -0.166)
(6.53e-12 14.7 0.125)
(-3.25e-12 15 0.0618)
(-4.78e-12 15.2 0.225)
(-2.1e-11 15.2 0.237)
(-5.19e-12 15.2 0.373)
(-1.37e-11 15.3 0.469)
(1.62e-11 15.3 0.573)
(7.88e-12 15.4 0.645)
(1.72e-12 15.4 0.726)
(2.34e-11 15.5 0.829)
(-2.9e-11 15.5 0.945)
(1.74e-11 15.4 1.06)
(-5.23e-12 15.4 1.18)
(-1.91e-12 15.3 1.25)
(7.92e-12 15.3 1.37)
(1.36e-11 15.4 1.55)
(1.18e-11 15.5 1.71)
(8.89e-13 15.5 1.85)
(1.04e-11 15.5 1.92)
(1.13e-11 15.4 2.01)
(-4.5e-12 15.3 2.19)
(-9.92e-12 15.4 2.43)
(-8.95e-12 15.4 2.66)
(-1.18e-11 15.5 2.86)
(-1.01e-11 15.5 2.99)
(-1.33e-11 15.6 3.11)
(6.13e-11 15.8 3.23)
(7.52e-11 16 3.25)
(7.03e-12 16.3 3.19)
(3.71e-12 16.7 2.93)
(-3.67e-11 17.2 2.53)
(-5.15e-11 17.7 2.13)
(-2.03e-11 18.3 1.75)
(-3.49e-12 18.8 1.4)
(-8.67e-12 19.4 1.11)
(1.49e-11 20 0.909)
(9.33e-12 20.5 0.73)
(-3.49e-12 21 0.467)
(7.34e-12 21.3 0.351)
(9.67e-12 21.7 0.291)
(-8.89e-11 21.9 0.279)
(-7.82e-11 22.3 0.393)
(-4.34e-11 22.7 0.481)
(4.73e-11 23 0.58)
(-2.59e-11 23.2 0.604)
(-1.02e-10 23.5 0.706)
(-7.8e-11 23.8 0.967)
(-1.01e-11 24 1.05)
(3.87e-11 24.3 1.15)
(-5.99e-12 24.6 1.41)
(-3.77e-12 24.9 1.62)
(2.59e-11 25 1.73)
(1.85e-11 25.4 1.98)
(1.51e-11 25.6 2.19)
(1.3e-11 25.8 2.36)
(-3.87e-11 26 2.53)
(3.83e-11 26.2 2.64)
(-1.41e-11 26.4 2.87)
(3.49e-12 26.7 3.1)
(-5.15e-12 26.8 3.18)
(2.34e-12 27 3.39)
(2.44e-11 27.2 3.62)
(-4.27e-12 27.3 3.75)
(-5.1e-13 27.5 3.97)
(2.44e-11 27.7 4.18)
(-4.22e-12 27.8 4.34)
(6.65e-12 27.9 4.5)
(-8.14e-12 28.1 4.78)
(-1.27e-11 28.3 5.09)
(2.11e-11 28.5 5.33)
(1.4e-11 28.5 5.47)
(-2.59e-12 28.5 5.56)
(7.11e-11 28.6 5.74)
(5.62e-11 28.8 6.02)
(-5.06e-11 29 6.31)
(-1.03e-10 29.2 6.57)
(-6.61e-11 29.3 6.78)
(6.54e-12 29.3 6.9)
(4.43e-12 29.3 6.98)
(-2.96e-12 29.5 7.23)
(-1.88e-12 29.7 7.58)
(-1.15e-12 29.8 7.8)
(-4.59e-12 29.8 7.95)
(-1.74e-12 30 8.22)
(2.67e-12 30.2 8.51)
(2.59e-12 30.1 8.67)
(-1.23e-11 30.2 8.91)
(-2.45e-11 30.3 9.19)
(-1.75e-11 30.3 9.39)
(1.22e-12 30.3 9.59)
(1.08e-11 30.2 9.8)
(-5.55e-12 30.1 9.94)
(-1.67e-11 30.1 10.1)
(-7.12e-12 30.2 10.3)
(1.68e-11 30.1 10.6)
(-2.53e-12 30.1 10.8)
(4.53e-12 29.9 10.9)
(4.52e-12 29.9 11.2)
(8.57e-12 29.8 11.4)
(-5.6e-13 29.8 11.6)
(3.27e-11 29.7 11.8)
(3.46e-11 29.6 12)
(3.15e-11 29.3 12.1)
(-1.47e-11 29.1 12.2)
(1.14e-11 29 12.4)
(2.53e-12 29 12.6)
(-1.9e-12 28.7 12.6)
(-2.42e-12 28.5 12.6)
(-4.56e-13 28.4 12.7)
(-1.39e-11 28.2 12.8)
(-6.51e-11 28.1 12.7)
(-4.07e-11 28 12.7)
(4.45e-11 27.8 12.7)
(-3.42e-11 27.6 12.7)
(2.42e-11 27.4 12.6)
(1.2e-11 27.2 12.5)
(6.14e-12 27 12.5)
(-5.76e-12 26.9 12.5)
(-3.33e-12 26.9 12.5)
(2.67e-12 26.7 12.3)
(-1.67e-13 26.6 12.2)
(-1.1e-11 26.5 12.2)
(-1.28e-12 26.3 12.2)
(7.54e-12 26.1 12)
(4.92e-12 25.9 11.8)
(1.79e-12 25.9 11.8)
(-2.26e-12 25.8 11.8)
(1.72e-11 25.6 11.6)
(5.95e-12 25.4 11.4)
(-1.38e-11 25.3 11.3)
(1.89e-11 25.2 11.2)
(8.4e-12 25.1 11)
(-1e-11 25 10.8)
(-2.92e-12 24.8 10.6)
(-4.09e-12 24.7 10.5)
(9.59e-12 24.5 10.5)
(-8.28e-13 24.2 10.3)
(-7.1e-12 24.1 10.1)
(5.88e-12 23.8 9.83)
(1.68e-11 23.5 9.47)
(-7.65e-12 23 8.98)
(1.36e-11 22.5 8.42)
(-1.82e-11 21.9 7.8)
(-9.22e-12 21.3 7.08)
(-2.89e-11 20.8 6.43)
(3.93e-11 20.3 5.98)
(-1.35e-11 19.9 5.79)
(6.36e-12 19.9 6.05)
(-1.03e-11 20.1 6.64)
(1.89e-11 20.2 6.95)
(-5.2e-12 20.2 6.92)
(-3.86e-12 20.2 6.83)
(4.39e-12 20.2 6.79)
(-3.51e-11 20.1 6.76)
(2.53e-11 20 6.7)
(1.12e-11 20 6.67)
(2.61e-11 20 6.72)
(3.99e-11 20 6.8)
(-1.87e-11 20 6.78)
(-3.98e-12 20 6.73)
(1.94e-12 20 6.72)
(3.99e-13 19.9 6.75)
(-1.25e-11 19.6 6.83)
(-3.06e-11 19.1 6.92)
(-4.19e-11 18.6 7.09)
(-2.8e-11 18 7.22)
(-4.27e-11 17.7 7.44)
(1.13e-12 17.6 7.48)
(-1.44e-11 17.6 7.84)
(-2.1e-11 17.8 7.81)
(-1.62e-11 18.3 8.3)
(-1.4e-12 14.1 -0.497)
(-2.55e-12 13.5 -0.232)
(5.94e-12 13.5 -0.322)
(-8.52e-12 13.7 -0.0173)
(-1.23e-11 14.2 -0.0751)
(5.61e-13 14.6 0.153)
(-3.41e-12 14.9 0.118)
(-2.05e-11 15.1 0.29)
(-1.94e-11 15.2 0.297)
(-1.34e-11 15.2 0.412)
(-1.29e-11 15.2 0.517)
(-2.25e-11 15.1 0.613)
(-1.23e-11 15.2 0.658)
(-4.17e-12 15.2 0.757)
(2.27e-11 15.3 0.846)
(-4.01e-11 15.3 0.947)
(2.32e-11 15.4 1.06)
(7.25e-12 15.3 1.13)
(1.07e-11 15.3 1.23)
(2.66e-12 15.3 1.41)
(6.55e-12 15.4 1.61)
(1.42e-11 15.4 1.75)
(6.53e-12 15.4 1.85)
(-4.36e-12 15.4 1.89)
(8.85e-13 15.5 2.03)
(1.78e-12 15.5 2.28)
(3.17e-13 15.5 2.49)
(-6.36e-12 15.6 2.71)
(-8.18e-12 15.6 2.91)
(1.81e-12 15.6 3.07)
(-2.04e-11 15.7 3.25)
(-3.47e-11 15.9 3.38)
(-7.95e-11 16 3.5)
(4.75e-12 16.3 3.54)
(1.5e-11 16.6 3.38)
(-1.8e-11 17 3.08)
(-1.92e-11 17.5 2.72)
(-1.27e-11 18 2.36)
(2.51e-11 18.5 2)
(1.8e-11 19.1 1.71)
(1.35e-11 19.8 1.44)
(3.84e-12 20.2 1.15)
(-1.39e-11 20.7 0.81)
(1.3e-12 21.1 0.625)
(-4.38e-12 21.4 0.537)
(5.02e-11 21.8 0.562)
(8.65e-11 22.2 0.727)
(-4.38e-11 22.5 0.757)
(3.13e-11 22.8 0.744)
(-2.3e-11 23 0.779)
(5.21e-11 23.4 0.949)
(6.73e-11 23.7 1.06)
(2.71e-11 23.8 1.17)
(1.62e-11 24.1 1.42)
(-2.16e-11 24.5 1.59)
(-1.59e-11 24.6 1.74)
(8.4e-12 24.9 1.96)
(1.22e-11 25.2 2.19)
(1.05e-11 25.4 2.32)
(3.23e-11 25.6 2.47)
(-4.6e-11 25.8 2.62)
(3.09e-11 26 2.84)
(-3.11e-12 26.3 3.11)
(-1.19e-11 26.4 3.2)
(4.71e-12 26.6 3.35)
(4.26e-12 26.8 3.57)
(2.97e-11 26.9 3.72)
(-1.82e-11 27.1 3.88)
(-6.95e-12 27.3 4.14)
(3.49e-11 27.5 4.33)
(-1.6e-11 27.5 4.44)
(6.96e-12 27.7 4.67)
(-2.12e-11 28 5.04)
(-7.08e-12 28.1 5.29)
(1.39e-11 28.2 5.4)
(1.97e-11 28.2 5.5)
(1.54e-12 28.3 5.65)
(-5.37e-11 28.5 5.9)
(-5.01e-11 28.7 6.19)
(8.29e-11 28.9 6.52)
(1.62e-10 29.1 6.77)
(5.64e-11 29.1 6.86)
(-1.52e-11 29.1 6.9)
(4.51e-12 29.2 7.11)
(-1.89e-12 29.4 7.42)
(-4.43e-12 29.6 7.69)
(-1.87e-12 29.6 7.85)
(-8.35e-12 29.7 8.07)
(-5.95e-12 29.8 8.38)
(-2.99e-12 29.8 8.55)
(-4.78e-12 29.9 8.72)
(-2.05e-11 30 9.03)
(-2.19e-11 30.1 9.28)
(-1.05e-11 30 9.42)
(-6.64e-12 30 9.56)
(7.73e-12 29.9 9.72)
(-8.8e-12 29.9 9.93)
(-2.52e-11 30 10.2)
(-1.32e-11 30 10.4)
(1.66e-11 30 10.6)
(-4.47e-12 29.8 10.7)
(-3.7e-12 29.8 10.9)
(-5.68e-12 29.8 11.1)
(-1.74e-13 29.7 11.3)
(-2.6e-11 29.6 11.5)
(6.54e-12 29.5 11.7)
(-3.39e-11 29.3 11.9)
(-4.77e-12 29.1 12)
(2.03e-11 29.1 12.1)
(1.57e-12 29 12.3)
(1.41e-12 28.9 12.4)
(-2.79e-12 28.6 12.4)
(4.43e-12 28.5 12.5)
(1.56e-11 28.4 12.7)
(2.18e-12 28.2 12.6)
(-3.96e-11 28 12.5)
(-1.8e-11 27.9 12.6)
(3.35e-11 27.8 12.6)
(-1.98e-11 27.7 12.5)
(2.39e-11 27.4 12.5)
(7.8e-13 27.2 12.3)
(2.24e-11 27.1 12.4)
(-6.2e-12 27 12.5)
(-3.69e-12 26.8 12.3)
(5.5e-13 26.7 12.2)
(-1.3e-11 26.6 12.1)
(-6.66e-12 26.5 12)
(-1.27e-12 26.3 11.9)
(1.24e-11 26.1 11.8)
(-4.21e-12 26 11.7)
(3.03e-12 25.9 11.7)
(5.24e-12 25.8 11.6)
(2.72e-12 25.7 11.4)
(-4.66e-12 25.5 11.2)
(-6.12e-12 25.4 11.2)
(1.46e-11 25.3 11.1)
(1.68e-11 25.1 10.9)
(-1.5e-11 25 10.6)
(8.85e-12 24.9 10.5)
(4.42e-13 24.8 10.4)
(1.45e-12 24.6 10.2)
(1.65e-12 24.3 10.1)
(-4.39e-12 24.1 9.86)
(8.86e-12 23.7 9.5)
(1.9e-11 23.3 9.12)
(-1.03e-11 22.9 8.57)
(8.74e-12 22.3 7.92)
(-1.94e-11 21.7 7.25)
(-1.31e-11 21.2 6.56)
(-3.1e-11 20.7 5.93)
(4.36e-11 20.2 5.59)
(-2.5e-11 20 5.68)
(-4.75e-12 20.1 6.22)
(-7.96e-12 20.3 6.82)
(1.97e-11 20.3 7.01)
(-9.8e-12 20.3 6.93)
(1.17e-11 20.2 6.81)
(2.78e-11 20.2 6.72)
(5.17e-11 20.1 6.68)
(6.53e-11 20.1 6.65)
(-1.45e-11 20 6.71)
(-3.25e-11 20.1 6.77)
(-2.05e-11 20 6.78)
(-2.19e-11 20 6.77)
(-8.74e-14 20 6.74)
(-1.04e-13 19.9 6.74)
(3.22e-12 19.8 6.78)
(-9.65e-12 19.4 6.87)
(-1.36e-11 18.9 6.97)
(-3.7e-11 18.3 7.18)
(-1.99e-11 17.7 7.28)
(-4.47e-11 17.4 7.55)
(3.74e-12 17.3 7.61)
(-3.05e-11 17.3 8)
(-1.43e-11 17.5 7.99)
(-1.78e-11 18 8.44)
(-4.24e-12 14 -0.555)
(-2.54e-12 13.4 -0.275)
(-1.41e-11 13.5 -0.274)
(1.18e-11 13.7 0.0204)
(-1.98e-11 14.1 -0.0546)
(2.77e-11 14.6 0.184)
(2.9e-11 15 0.147)
(-1.33e-12 15.1 0.32)
(1.52e-11 15.2 0.332)
(-3.01e-11 15.2 0.445)
(1.22e-12 15.2 0.497)
(7.63e-12 15.1 0.582)
(1.34e-11 15.1 0.675)
(-1.23e-11 15.2 0.788)
(2.6e-11 15.2 0.876)
(-3.8e-11 15.3 0.983)
(1.03e-11 15.3 1.09)
(7.21e-12 15.3 1.16)
(2.21e-11 15.3 1.28)
(-9.7e-12 15.4 1.49)
(1.03e-12 15.4 1.64)
(2.6e-12 15.4 1.75)
(1.04e-11 15.4 1.87)
(8.89e-12 15.5 2)
(-2.2e-12 15.6 2.16)
(4.15e-12 15.7 2.38)
(7.89e-12 15.7 2.61)
(2.02e-11 15.8 2.78)
(7.95e-12 15.8 2.96)
(2.11e-11 15.8 3.18)
(-1.48e-11 15.9 3.43)
(6.04e-11 16.1 3.6)
(-6.83e-12 16.2 3.72)
(1.5e-11 16.4 3.79)
(3.56e-14 16.6 3.72)
(-1.73e-12 16.9 3.56)
(1.44e-11 17.3 3.29)
(-5.81e-12 17.8 2.99)
(7.95e-11 18.4 2.65)
(5.92e-11 19 2.32)
(-1.68e-12 19.6 1.95)
(4.98e-12 20.1 1.6)
(-9.17e-12 20.5 1.22)
(1.07e-11 20.9 1)
(4.76e-12 21.3 0.936)
(-3.97e-11 21.8 0.988)
(-1.28e-12 22.1 1.08)
(-2.45e-11 22.3 1.01)
(3.27e-11 22.5 1.01)
(-1.88e-11 22.9 1.14)
(-4.9e-11 23.2 1.27)
(-2.24e-11 23.4 1.31)
(9.82e-11 23.7 1.49)
(1.2e-10 24 1.74)
(1.27e-11 24.2 1.83)
(6.92e-12 24.5 2)
(1.08e-11 24.8 2.27)
(5.13e-12 25.1 2.43)
(5e-12 25.2 2.54)
(5.27e-11 25.4 2.68)
(-4.78e-11 25.6 2.86)
(1.69e-11 25.9 3.1)
(1.7e-11 26.1 3.28)
(-2.8e-11 26.2 3.38)
(2.21e-11 26.4 3.57)
(-1.26e-11 26.7 3.75)
(2.53e-11 26.8 3.9)
(-1.99e-11 27 4.13)
(-1.72e-11 27.2 4.34)
(3.25e-11 27.2 4.41)
(-4.04e-11 27.3 4.59)
(2.31e-11 27.6 4.9)
(-2.61e-11 27.8 5.19)
(3.46e-12 27.9 5.36)
(3.43e-12 28 5.42)
(9.52e-12 28.1 5.54)
(2.76e-11 28.2 5.79)
(8.86e-11 28.4 6.05)
(4.23e-11 28.6 6.35)
(-9.44e-11 28.7 6.64)
(-1.29e-10 28.8 6.8)
(-5.64e-11 28.8 6.84)
(2.35e-11 28.9 6.98)
(-2.92e-13 29.1 7.3)
(-3.31e-12 29.3 7.56)
(-5.97e-12 29.3 7.71)
(-3.48e-12 29.4 7.91)
(-1.2e-11 29.5 8.2)
(-1.01e-11 29.6 8.4)
(-6.28e-12 29.6 8.56)
(-7.67e-12 29.7 8.84)
(-1.92e-11 29.9 9.1)
(-7.33e-12 29.9 9.25)
(4.48e-12 29.8 9.35)
(-8.79e-12 29.7 9.5)
(5.15e-12 29.7 9.73)
(-6.62e-12 29.8 9.99)
(-2.56e-11 29.8 10.3)
(-1.8e-11 29.8 10.4)
(1.6e-11 29.7 10.4)
(-8.82e-13 29.6 10.7)
(-6.74e-12 29.7 10.9)
(2.55e-12 29.6 11.1)
(9.59e-12 29.5 11.3)
(7.04e-11 29.4 11.4)
(8.39e-11 29.3 11.6)
(1.25e-11 29.2 11.7)
(1.24e-11 29.1 11.9)
(7.13e-12 29 12.1)
(9.23e-12 28.9 12.2)
(-9.25e-13 28.7 12.2)
(-5.05e-12 28.5 12.3)
(3.66e-12 28.5 12.4)
(1.19e-11 28.3 12.5)
(3.44e-12 28.1 12.4)
(-6.08e-12 28 12.4)
(-5.29e-12 27.9 12.5)
(2.02e-11 27.8 12.4)
(-1.06e-11 27.6 12.3)
(1.2e-11 27.3 12.3)
(9.09e-11 27.2 12.3)
(7.05e-11 27.2 12.3)
(-4.49e-12 27 12.3)
(-8.29e-13 26.8 12.2)
(-6.25e-12 26.7 12.1)
(-1.89e-11 26.6 12)
(-3.61e-12 26.4 11.9)
(1.92e-12 26.2 11.7)
(1.6e-11 26.1 11.6)
(-1.18e-11 26.1 11.7)
(1.01e-11 26 11.6)
(5.99e-12 25.9 11.4)
(-1.37e-11 25.7 11.2)
(-5.82e-12 25.5 11.1)
(-1.31e-13 25.4 11.1)
(6.15e-12 25.3 10.9)
(1.85e-11 25.1 10.8)
(-1.37e-11 25 10.5)
(2.38e-11 24.9 10.4)
(2.56e-13 24.8 10.2)
(-1.08e-11 24.6 10.1)
(1.05e-11 24.3 9.9)
(-1.21e-12 24.1 9.6)
(1.13e-11 23.7 9.19)
(1.82e-11 23.3 8.75)
(-1.58e-11 22.7 8.14)
(1.85e-12 22.2 7.41)
(-1.36e-11 21.6 6.69)
(-5.64e-12 21.1 6.03)
(-1.35e-11 20.7 5.53)
(4.05e-11 20.4 5.38)
(-3.29e-11 20.4 5.72)
(-5.87e-12 20.5 6.4)
(-5.19e-12 20.5 6.85)
(1.47e-11 20.4 6.9)
(-1.52e-11 20.3 6.85)
(8.79e-12 20.2 6.76)
(-1.54e-11 20.2 6.68)
(-3.78e-11 20.2 6.66)
(6.29e-12 20.2 6.66)
(2.01e-12 20.2 6.74)
(7.54e-12 20.2 6.76)
(-6.7e-12 20.1 6.74)
(-1.95e-11 20.1 6.75)
(-9.27e-12 20 6.73)
(-9.35e-12 19.9 6.77)
(-4.51e-12 19.8 6.8)
(-7.68e-12 19.4 6.9)
(-1.16e-11 18.8 7.03)
(-4.62e-11 18.2 7.24)
(-6.95e-12 17.6 7.37)
(-3.23e-11 17.3 7.69)
(-2.39e-12 17.2 7.74)
(-2.19e-11 17.1 8.13)
(-1.24e-11 17.3 8.11)
(-1.17e-11 17.8 8.59)
(-1.87e-12 13.8 -0.571)
(-1.59e-12 13.3 -0.251)
(-1.35e-11 13.4 -0.26)
(1.86e-11 13.6 0.0452)
(-4.57e-11 14 -0.0343)
(5.13e-12 14.4 0.208)
(1.19e-11 14.9 0.19)
(-1.83e-11 15.1 0.348)
(1.18e-11 15.1 0.353)
(-3.49e-11 15.1 0.441)
(-5.6e-11 15.1 0.486)
(-6.03e-11 15.1 0.558)
(6.59e-12 15.1 0.637)
(-1.59e-11 15.1 0.77)
(8.42e-11 15.1 0.885)
(2.58e-11 15.2 1.01)
(6.71e-12 15.2 1.1)
(-1.8e-12 15.2 1.19)
(2.88e-11 15.2 1.35)
(-1.27e-11 15.3 1.52)
(-2.27e-11 15.3 1.61)
(6.94e-12 15.3 1.72)
(2.9e-12 15.3 1.92)
(2.47e-12 15.5 2.1)
(8.61e-12 15.6 2.26)
(4.57e-12 15.7 2.49)
(1.37e-12 15.7 2.68)
(1.06e-12 15.8 2.82)
(2.89e-13 15.9 3.03)
(1.87e-11 16 3.3)
(-1.65e-11 16.1 3.56)
(2.23e-11 16.2 3.74)
(-3.47e-11 16.3 3.84)
(2.81e-11 16.4 3.9)
(6.24e-12 16.5 3.88)
(2.07e-11 16.7 3.82)
(4.03e-11 17.1 3.75)
(-9.66e-12 17.6 3.57)
(-3.65e-11 18.1 3.22)
(-8.65e-11 18.7 2.86)
(-2.24e-11 19.3 2.4)
(1.25e-11 19.8 2)
(-8.99e-13 20.2 1.61)
(2.3e-11 20.7 1.35)
(1.27e-11 21.1 1.34)
(-1.56e-12 21.6 1.36)
(3.27e-11 21.9 1.33)
(-5.66e-12 22.1 1.22)
(2.24e-11 22.4 1.3)
(-2.85e-11 22.8 1.45)
(4.23e-12 23 1.46)
(3.05e-11 23.2 1.51)
(-4.34e-11 23.6 1.74)
(-1.33e-10 23.9 1.92)
(-7.29e-11 24.1 2.02)
(1.83e-11 24.4 2.25)
(-6.43e-12 24.7 2.45)
(4.33e-12 24.9 2.56)
(-1.53e-11 25 2.66)
(6.9e-11 25.2 2.78)
(-3.95e-11 25.5 3.05)
(-4.12e-12 25.8 3.27)
(3.96e-11 25.9 3.38)
(-3.81e-11 26.1 3.54)
(2.76e-11 26.3 3.76)
(-1.88e-11 26.5 3.86)
(2.25e-11 26.7 4.05)
(-1.57e-11 26.9 4.29)
(-2.19e-11 27 4.37)
(3.92e-11 27.1 4.47)
(-5.96e-11 27.3 4.76)
(3.95e-11 27.5 5.09)
(-1.79e-11 27.7 5.32)
(1.36e-11 27.8 5.42)
(3.7e-12 27.8 5.52)
(-9.63e-12 28 5.72)
(-2.26e-11 28.2 5.93)
(-8.13e-11 28.4 6.2)
(-3.17e-11 28.5 6.49)
(7.61e-11 28.7 6.74)
(8.87e-11 28.7 6.79)
(1.56e-11 28.7 6.9)
(-1.53e-11 28.9 7.14)
(8.51e-12 29 7.4)
(-6.25e-12 29.1 7.59)
(-8.24e-12 29.1 7.76)
(-5.35e-12 29.3 8.07)
(-1.61e-11 29.4 8.31)
(-1.42e-11 29.4 8.43)
(-6.9e-12 29.5 8.65)
(-5.95e-12 29.6 8.96)
(-1.56e-11 29.7 9.14)
(4.73e-12 29.6 9.2)
(1.98e-11 29.6 9.33)
(-4.8e-12 29.6 9.55)
(7.53e-12 29.7 9.78)
(-2.67e-12 29.7 10)
(-1.74e-11 29.7 10.2)
(-1.78e-11 29.6 10.3)
(1.7e-11 29.6 10.4)
(3.73e-12 29.6 10.7)
(-2.99e-12 29.6 10.9)
(1.08e-11 29.5 11)
(-2.52e-12 29.4 11.1)
(-5.82e-11 29.2 11.3)
(-3.58e-11 29.2 11.5)
(9.69e-12 29.1 11.7)
(1.3e-11 29.1 11.9)
(1.37e-11 29 12)
(8.42e-12 28.9 12.1)
(-1.73e-12 28.6 12.1)
(-1.04e-11 28.6 12.2)
(-3.59e-12 28.5 12.4)
(-4.68e-12 28.3 12.3)
(-7.02e-12 28.1 12.3)
(4.45e-12 28 12.3)
(-2.13e-11 27.8 12.3)
(2.24e-12 27.7 12.3)
(-2.16e-12 27.5 12.2)
(-4e-11 27.3 12.1)
(-4.95e-11 27.3 12.2)
(-3.17e-11 27.2 12.2)
(2.2e-11 27.1 12.1)
(-2.78e-13 26.9 12)
(-1.09e-11 26.8 11.9)
(-1.41e-11 26.5 11.8)
(-8.53e-12 26.3 11.6)
(4.71e-12 26.2 11.6)
(1.55e-11 26.2 11.6)
(-1.23e-11 26.1 11.6)
(1.83e-11 26 11.5)
(3.76e-12 25.8 11.3)
(-2.08e-11 25.7 11.1)
(3.89e-12 25.6 11)
(1.11e-12 25.5 10.9)
(-4.17e-12 25.3 10.8)
(1.05e-11 25.2 10.6)
(-1.09e-11 25 10.4)
(2.75e-11 24.9 10.2)
(-7.89e-12 24.8 10.1)
(-2.33e-11 24.5 9.89)
(2.57e-11 24.3 9.67)
(-4.91e-13 23.9 9.32)
(1.47e-11 23.5 8.87)
(1.53e-11 23.1 8.35)
(-1.96e-11 22.5 7.72)
(-6.33e-12 22 6.97)
(-8.82e-12 21.5 6.21)
(1.85e-14 21 5.61)
(9.02e-11 20.7 5.24)
(7.06e-11 20.5 5.33)
(-3.81e-11 20.7 5.87)
(8.37e-12 20.7 6.49)
(-4.22e-15 20.5 6.74)
(8.17e-12 20.3 6.75)
(-1.39e-11 20.2 6.76)
(2.34e-11 20.1 6.74)
(8.2e-12 20.1 6.68)
(3.12e-11 20.1 6.67)
(3.97e-11 20.1 6.7)
(-1.81e-11 20.1 6.74)
(7.83e-12 20.1 6.73)
(-1.47e-11 20 6.71)
(6.55e-12 20 6.72)
(-5.47e-12 20 6.71)
(3.61e-13 19.9 6.78)
(-1.96e-11 19.7 6.84)
(-1.51e-11 19.2 6.97)
(7.35e-12 18.6 7.1)
(5.04e-11 17.9 7.34)
(5.11e-11 17.4 7.48)
(3.77e-11 17.1 7.81)
(2.13e-11 16.9 7.85)
(-1.01e-11 16.8 8.26)
(-8.8e-12 17 8.29)
(-7.36e-12 17.5 8.78)
(-7.46e-12 13.8 -0.552)
(-4.82e-12 13.3 -0.224)
(-2.91e-11 13.3 -0.263)
(1.42e-11 13.5 0.0246)
(-2.26e-11 13.9 -0.0107)
(-3.41e-11 14.4 0.272)
(6.63e-12 14.8 0.235)
(2.5e-11 15.1 0.367)
(1.59e-11 15.1 0.361)
(6.56e-11 15.1 0.45)
(5.93e-11 15.1 0.482)
(1.78e-12 15.1 0.561)
(1.67e-11 15 0.646)
(-4.25e-11 15.1 0.761)
(-1.63e-11 15.1 0.887)
(-4.87e-11 15.1 0.997)
(-2.7e-12 15.2 1.09)
(-3.06e-11 15.2 1.23)
(2.77e-11 15.3 1.38)
(-5.47e-12 15.2 1.5)
(-1.05e-11 15.2 1.59)
(2.59e-13 15.3 1.77)
(1.16e-11 15.4 2)
(5.11e-12 15.5 2.2)
(-3.2e-12 15.6 2.38)
(4.01e-12 15.7 2.57)
(5.72e-12 15.7 2.76)
(1.3e-11 15.9 2.98)
(8.13e-12 16.1 3.22)
(2.34e-11 16.2 3.44)
(-7.47e-12 16.3 3.66)
(5.26e-11 16.3 3.8)
(-2.55e-11 16.4 3.9)
(-1.75e-12 16.5 3.98)
(2.9e-11 16.6 4.04)
(-7.34e-11 16.8 4.11)
(-5.53e-11 17.1 4.13)
(-1.95e-11 17.4 4.03)
(9.59e-11 17.9 3.75)
(7.46e-11 18.5 3.35)
(-8.81e-12 19 2.86)
(2.95e-12 19.6 2.43)
(-1.39e-11 20.1 2.01)
(7.05e-12 20.6 1.75)
(-1.17e-12 21.1 1.73)
(4.23e-12 21.5 1.71)
(1.15e-11 21.7 1.57)
(-1.14e-11 22 1.48)
(1.01e-12 22.4 1.59)
(-3.67e-11 22.6 1.67)
(-1.17e-11 22.8 1.65)
(9.36e-13 23.2 1.79)
(8.23e-11 23.5 2)
(1.55e-10 23.7 2.11)
(9.92e-11 24 2.31)
(2.14e-12 24.3 2.55)
(-2.18e-11 24.5 2.68)
(3.32e-12 24.7 2.73)
(-3.75e-11 24.8 2.82)
(6.9e-11 25.1 3.03)
(-2.36e-11 25.4 3.31)
(-2.28e-11 25.6 3.44)
(5.13e-11 25.7 3.58)
(-3.68e-11 26 3.79)
(2.58e-11 26.2 3.93)
(7.09e-11 26.3 4.07)
(8.96e-11 26.6 4.28)
(-1.19e-11 26.7 4.42)
(-3.48e-11 26.8 4.48)
(1.45e-10 26.9 4.67)
(6.75e-14 27.2 5)
(4.19e-11 27.4 5.27)
(-2.19e-11 27.5 5.41)
(2.75e-11 27.5 5.49)
(1.65e-11 27.7 5.64)
(-1.09e-11 27.9 5.83)
(2.36e-11 28.1 6.06)
(9.09e-11 28.3 6.33)
(8.36e-12 28.4 6.58)
(-1.49e-10 28.4 6.73)
(-9.25e-11 28.4 6.82)
(-3.29e-11 28.6 7.05)
(1.96e-11 28.7 7.31)
(-1.59e-12 28.8 7.49)
(-5.6e-12 28.9 7.65)
(-1.14e-11 29 7.92)
(-6.7e-12 29.2 8.19)
(-1.81e-11 29.2 8.31)
(-1.44e-11 29.2 8.49)
(4.86e-13 29.4 8.79)
(7.91e-12 29.5 9)
(-3.17e-12 29.4 9.06)
(8.23e-12 29.4 9.19)
(2.11e-11 29.5 9.41)
(4.27e-12 29.5 9.61)
(1.58e-11 29.5 9.82)
(2.08e-12 29.5 10)
(-3.71e-13 29.5 10.2)
(-9.88e-12 29.5 10.3)
(1.6e-11 29.5 10.5)
(-1.01e-12 29.5 10.7)
(-1.56e-12 29.4 10.8)
(9.57e-12 29.3 10.9)
(2.71e-11 29.3 11.1)
(5.73e-11 29.2 11.3)
(2.99e-11 29.2 11.5)
(-4.74e-13 29.1 11.6)
(1.48e-11 29 11.8)
(1.16e-11 29 11.9)
(9.54e-12 28.8 11.9)
(-5.23e-12 28.6 12)
(-1.1e-11 28.6 12.1)
(-1.23e-11 28.4 12.2)
(-1.27e-11 28.2 12.2)
(-1.03e-11 28.1 12.2)
(6.51e-12 27.9 12.2)
(5.06e-11 27.8 12.2)
(4.25e-11 27.6 12.1)
(1.54e-11 27.4 12)
(-9.86e-13 27.3 12.1)
(7.83e-11 27.2 12.1)
(1.89e-11 27.2 12.1)
(1.47e-12 27.1 12)
(5.66e-12 26.9 11.8)
(-7.37e-12 26.8 11.6)
(-7.44e-12 26.6 11.5)
(-1.1e-11 26.5 11.5)
(6.24e-13 26.3 11.4)
(1.56e-11 26.3 11.5)
(-5.45e-12 26.2 11.5)
(1.69e-11 26 11.3)
(2.51e-12 25.8 11.1)
(-1.57e-11 25.7 11)
(1.6e-11 25.6 10.9)
(-3.04e-12 25.5 10.8)
(-9.63e-12 25.4 10.6)