/*--------------------------------*- C++ -*----------------------------------*\
| =========                 |                                                 |
| \\      /  F ield         | OpenFOAM: The Open Source CFD Toolbox           |
|  \\    /   O peration     | Version:  2212                                  |
|   \\  /    A nd           | Website:  www.openfoam.com                      |
|    \\/     M anipulation  |                                                 |
\*---------------------------------------------------------------------------*/
FoamFile
{
    version     2.0;
    format      ascii;
    arch        "LSB;label=32;scalar=64";
    class       volScalarField;
    location    "0.1532";
    object      s;
}
// * * * * * * * * * * * * * * * * * * * * * * * * * * * * * * * * * * * * * //

dimensions      [0 0 0 0 0 0 0];

internalField   nonuniform List<scalar> 
24240
(
4.15427e-105
4.10744e-105
4.18369e-105
4.02565e-105
4.13353e-105
4.11455e-105
4.12199e-105
4.0054e-105
4.0409e-105
4.15241e-105
4.04367e-105
4.18161e-105
4.02936e-105
4.13948e-105
3.99903e-105
4.17935e-105
3.98885e-105
4.05188e-105
4.10135e-105
3.94985e-105
3.51849e-102
3.47794e-102
3.54193e-102
3.40958e-102
3.49954e-102
3.48437e-102
3.49045e-102
3.39156e-102
3.42202e-102
3.51589e-102
3.42491e-102
3.54037e-102
3.41301e-102
3.50563e-102
3.38744e-102
3.53925e-102
3.37875e-102
3.43161e-102
3.47282e-102
3.34585e-102
1.66484e-99
1.64521e-99
1.67522e-99
1.61331e-99
1.6552e-99
1.64847e-99
1.65121e-99
1.60436e-99
1.61893e-99
1.66313e-99
1.62057e-99
1.67458e-99
1.61507e-99
1.6586e-99
1.60302e-99
1.67443e-99
1.59884e-99
1.62364e-99
1.64282e-99
1.58333e-99
4.46918e-97
4.4153e-97
4.4952e-97
4.33087e-97
4.44154e-97
4.42469e-97
4.43167e-97
4.3057e-97
4.3452e-97
4.46338e-97
4.35034e-97
4.49371e-97
4.33596e-97
4.45209e-97
4.30381e-97
4.49439e-97
4.29227e-97
4.35842e-97
4.40902e-97
4.25075e-97
8.79584e-95
8.68719e-95
8.84338e-95
8.52349e-95
8.73787e-95
8.70721e-95
8.71991e-95
8.47158e-95
8.54976e-95
8.78197e-95
8.56149e-95
8.84075e-95
8.53409e-95
8.76147e-95
8.47131e-95
8.84423e-95
8.44744e-95
8.57725e-95
8.67512e-95
8.36576e-95
1.19347e-92
1.17834e-92
1.19944e-92
1.15648e-92
1.18513e-92
1.18133e-92
1.18287e-92
1.14911e-92
1.15972e-92
1.1913e-92
1.16157e-92
1.19913e-92
1.15801e-92
1.18874e-92
1.14958e-92
1.19991e-92
1.14608e-92
1.16373e-92
1.17678e-92
1.13493e-92
1.15288e-90
1.13778e-90
1.15822e-90
1.11704e-90
1.14435e-90
1.14104e-90
1.14228e-90
1.10955e-90
1.11969e-90
1.15051e-90
1.12179e-90
1.1579e-90
1.11858e-90
1.14826e-90
1.11059e-90
1.15898e-90
1.1067e-90
1.124e-90
1.13643e-90
1.09577e-90
7.38725e-89
7.28652e-89
7.41884e-89
7.15637e-89
7.32943e-89
7.31072e-89
7.31632e-89
7.10557e-89
7.1687e-89
7.37049e-89
7.18513e-89
7.41644e-89
7.16667e-89
7.35751e-89
7.117e-89
7.42597e-89
7.08656e-89
7.20102e-89
7.27983e-89
7.01452e-89
1.23743e-87
1.22237e-87
1.2405e-87
1.20002e-87
1.22705e-87
1.22362e-87
1.22639e-87
1.19225e-87
1.20534e-87
1.23296e-87
1.20675e-87
1.24135e-87
1.20217e-87
1.2316e-87
1.19222e-87
1.24245e-87
1.19303e-87
1.20703e-87
1.21836e-87
1.1831e-87
1.01392e-87
1.01593e-87
1.01168e-87
9.93465e-88
1.00831e-87
1.00268e-87
1.01596e-87
9.93353e-88
1.01796e-87
1.00593e-87
1.00937e-87
1.01823e-87
9.96015e-88
1.00663e-87
9.79095e-88
1.00969e-87
1.00906e-87
9.95409e-88
9.97663e-88
1.01035e-87
1.50193e-87
1.52185e-87
1.52844e-87
1.50894e-87
1.49738e-87
1.5085e-87
1.53339e-87
1.49736e-87
1.54383e-87
1.53394e-87
1.53439e-87
1.53861e-87
1.51676e-87
1.49946e-87
1.48627e-87
1.51064e-87
1.50097e-87
1.49789e-87
1.50953e-87
1.52038e-87
1.77992e-87
1.79652e-87
1.80297e-87
1.77887e-87
1.76541e-87
1.72923e-87
1.76861e-87
1.7324e-87
1.78851e-87
1.83674e-87
1.82213e-87
1.76468e-87
1.81579e-87
1.78592e-87
1.78438e-87
1.79743e-87
1.71898e-87
1.79359e-87
1.7594e-87
1.76771e-87
2.01924e-87
2.07118e-87
2.0544e-87
2.03785e-87
2.04951e-87
2.0683e-87
2.13314e-87
2.04394e-87
2.05646e-87
2.03459e-87
2.04343e-87
2.04281e-87
2.05605e-87
2.04619e-87
2.0079e-87
2.04508e-87
2.06022e-87
2.02156e-87
2.01187e-87
2.02206e-87
2.24264e-87
2.25144e-87
2.27608e-87
2.31126e-87
2.28595e-87
2.31856e-87
2.27656e-87
2.31236e-87
2.29141e-87
2.19441e-87
2.23034e-87
2.2298e-87
2.25063e-87
2.20396e-87
2.2015e-87
2.21829e-87
2.21368e-87
2.25234e-87
2.2307e-87
2.27562e-87
2.28079e-87
2.2889e-87
2.32895e-87
2.31235e-87
2.28321e-87
2.30925e-87
2.31806e-87
2.35067e-87
2.2814e-87
2.31745e-87
2.30496e-87
2.30735e-87
2.33711e-87
2.30732e-87
2.28812e-87
2.37227e-87
2.29574e-87
2.27167e-87
2.30195e-87
2.3241e-87
2.33948e-87
2.29159e-87
2.3236e-87
2.29662e-87
2.33227e-87
2.34786e-87
2.35904e-87
2.33402e-87
2.27505e-87
2.29623e-87
2.27955e-87
2.36115e-87
2.33668e-87
2.37842e-87
2.36582e-87
2.36866e-87
2.34251e-87
2.33897e-87
2.31056e-87
2.32389e-87
2.12807e-87
2.15366e-87
2.13068e-87
2.21774e-87
2.15463e-87
2.20842e-87
2.1664e-87
2.18315e-87
2.15467e-87
2.16084e-87
2.15649e-87
2.19958e-87
2.16407e-87
2.22772e-87
2.1449e-87
2.19836e-87
2.18642e-87
2.11234e-87
2.19447e-87
2.1885e-87
1.94673e-87
2.03663e-87
2.00177e-87
1.99365e-87
1.96339e-87
2.06325e-87
2.02964e-87
2.02886e-87
2.01521e-87
1.9729e-87
2.01594e-87
2.05581e-87
1.99876e-87
2.10135e-87
2.01333e-87
2.05233e-87
2.07302e-87
2.01685e-87
2.06246e-87
2.0647e-87
1.74422e-87
1.73969e-87
1.72665e-87
1.75854e-87
1.78333e-87
1.7754e-87
1.74256e-87
1.73625e-87
1.7921e-87
1.72905e-87
1.77654e-87
1.77677e-87
1.73842e-87
1.79476e-87
1.79025e-87
1.82226e-87
1.76213e-87
1.80475e-87
1.77997e-87
1.83243e-87
1.29527e-87
1.30621e-87
1.29671e-87
1.28813e-87
1.31806e-87
1.30453e-87
1.32723e-87
1.30472e-87
1.32711e-87
1.3359e-87
1.31046e-87
1.34654e-87
1.30421e-87
1.35624e-87
1.3082e-87
1.30723e-87
1.32598e-87
1.34671e-87
1.32303e-87
1.36369e-87
1.94249e-103
1.92023e-103
1.95545e-103
1.88246e-103
1.93207e-103
1.92367e-103
1.92713e-103
1.87259e-103
1.88948e-103
1.94112e-103
1.891e-103
1.95467e-103
1.88437e-103
1.93539e-103
1.87017e-103
1.95397e-103
1.86559e-103
1.89459e-103
1.91732e-103
1.84752e-103
1.76649e-100
1.74581e-100
1.77752e-100
1.71192e-100
1.75631e-100
1.74914e-100
1.75216e-100
1.7025e-100
1.71806e-100
1.76474e-100
1.71971e-100
1.77692e-100
1.7138e-100
1.75986e-100
1.70093e-100
1.77668e-100
1.69673e-100
1.72285e-100
1.74317e-100
1.68038e-100
8.64965e-98
8.54621e-98
8.70001e-98
8.38256e-98
8.59636e-98
8.5636e-98
8.57772e-98
8.33426e-98
8.41124e-98
8.63862e-98
8.42072e-98
8.69754e-98
8.39244e-98
8.61643e-98
8.32968e-98
8.69833e-98
8.30878e-98
8.43558e-98
8.5333e-98
8.22902e-98
2.41108e-95
2.38161e-95
2.42409e-95
2.33665e-95
2.39526e-95
2.38681e-95
2.39052e-95
2.32258e-95
2.34424e-95
2.40735e-95
2.34728e-95
2.42355e-95
2.3396e-95
2.40164e-95
2.32219e-95
2.42434e-95
2.31623e-95
2.35132e-95
2.37805e-95
2.29406e-95
4.79058e-93
4.73069e-93
4.81441e-93
4.64271e-93
4.7572e-93
4.7418e-93
4.74864e-93
4.61346e-93
4.65676e-93
4.78186e-93
4.66365e-93
4.81353e-93
4.64889e-93
4.77145e-93
4.61452e-93
4.81626e-93
4.60214e-93
4.67159e-93
4.72371e-93
4.55815e-93
6.58638e-91
6.50203e-91
6.61646e-91
6.38301e-91
6.53786e-91
6.51869e-91
6.52718e-91
6.34103e-91
6.40067e-91
6.57281e-91
6.41148e-91
6.61556e-91
6.39202e-91
6.55977e-91
6.34518e-91
6.62096e-91
6.32692e-91
6.42245e-91
6.49275e-91
6.26619e-91
6.26104e-89
6.17851e-89
6.28719e-89
6.06737e-89
6.21237e-89
6.19615e-89
6.20297e-89
6.02555e-89
6.08184e-89
6.24668e-89
6.09372e-89
6.28639e-89
6.07631e-89
6.23548e-89
6.03244e-89
6.29324e-89
6.01284e-89
6.10459e-89
6.17026e-89
5.95439e-89
3.97154e-87
3.91736e-87
3.98655e-87
3.84824e-87
3.93898e-87
3.92999e-87
3.93331e-87
3.82037e-87
3.85536e-87
3.96151e-87
3.86427e-87
3.98603e-87
3.85419e-87
3.95522e-87
3.82695e-87
3.99162e-87
3.81228e-87
3.87183e-87
3.91282e-87
3.77439e-87
6.54353e-86
6.46271e-86
6.55771e-86
6.34651e-86
6.48647e-86
6.47062e-86
6.48453e-86
6.30392e-86
6.37348e-86
6.51925e-86
6.38189e-86
6.56276e-86
6.35835e-86
6.51282e-86
6.30591e-86
6.5697e-86
6.30933e-86
6.38316e-86
6.44172e-86
6.25704e-86
5.30863e-86
5.31868e-86
5.29736e-86
5.20298e-86
5.27898e-86
5.25148e-86
5.32002e-86
5.20111e-86
5.33091e-86
5.26737e-86
5.28613e-86
5.331e-86
5.21639e-86
5.27123e-86
5.12845e-86
5.2858e-86
5.28338e-86
5.21242e-86
5.22401e-86
5.29029e-86
7.87704e-86
7.97955e-86
8.01595e-86
7.91224e-86
7.85212e-86
7.90933e-86
8.0387e-86
7.85002e-86
8.09442e-86
8.0411e-86
8.04619e-86
8.06502e-86
7.95374e-86
7.8628e-86
7.79425e-86
7.92014e-86
7.86951e-86
7.85455e-86
7.91577e-86
7.9716e-86
9.27777e-86
9.36365e-86
9.39755e-86
9.2698e-86
9.20249e-86
9.01456e-86
9.22059e-86
9.03247e-86
9.32323e-86
9.57207e-86
9.49575e-86
9.19859e-86
9.46418e-86
9.30803e-86
9.30029e-86
9.36765e-86
8.95998e-86
9.34661e-86
9.16855e-86
9.21216e-86
1.05284e-85
1.07954e-85
1.07108e-85
1.06248e-85
1.06868e-85
1.07836e-85
1.11193e-85
1.06579e-85
1.0722e-85
1.0606e-85
1.06525e-85
1.06504e-85
1.07211e-85
1.06722e-85
1.04726e-85
1.06637e-85
1.07424e-85
1.05422e-85
1.0492e-85
1.05442e-85
1.15751e-85
1.16175e-85
1.17421e-85
1.19262e-85
1.17973e-85
1.19632e-85
1.17467e-85
1.19329e-85
1.18214e-85
1.13257e-85
1.15092e-85
1.15085e-85
1.16147e-85
1.13754e-85
1.13608e-85
1.14496e-85
1.1422e-85
1.1623e-85
1.15109e-85
1.17439e-85
1.17858e-85
1.18244e-85
1.20332e-85
1.19449e-85
1.17961e-85
1.19335e-85
1.19767e-85
1.21452e-85
1.17879e-85
1.19756e-85
1.1912e-85
1.19239e-85
1.20735e-85
1.1924e-85
1.1826e-85
1.22558e-85
1.18631e-85
1.17376e-85
1.18934e-85
1.20033e-85
1.19204e-85
1.16758e-85
1.1835e-85
1.17005e-85
1.18831e-85
1.19629e-85
1.20173e-85
1.18906e-85
1.15923e-85
1.16985e-85
1.16115e-85
1.20263e-85
1.19058e-85
1.21174e-85
1.20534e-85
1.20667e-85
1.19339e-85
1.1918e-85
1.17723e-85
1.18398e-85
1.0876e-85
1.10079e-85
1.08893e-85
1.13338e-85
1.10093e-85
1.12839e-85
1.10686e-85
1.11577e-85
1.10114e-85
1.10433e-85
1.10224e-85
1.12408e-85
1.10577e-85
1.13837e-85
1.09609e-85
1.12323e-85
1.11728e-85
1.07962e-85
1.12141e-85
1.1185e-85
9.81038e-86
1.02613e-85
1.00871e-85
1.0043e-85
9.89315e-86
1.0394e-85
1.02244e-85
1.02217e-85
1.01525e-85
9.94045e-86
1.01553e-85
1.03555e-85
1.00706e-85
1.05835e-85
1.01413e-85
1.03373e-85
1.04405e-85
1.01615e-85
1.03897e-85
1.04009e-85
8.84945e-86
8.82606e-86
8.76184e-86
8.92297e-86
9.0467e-86
9.00654e-86
8.83933e-86
8.81275e-86
9.09274e-86
8.7739e-86
9.01312e-86
9.01541e-86
8.81815e-86
9.10592e-86
9.08197e-86
9.24589e-86
8.94027e-86
9.15514e-86
9.02921e-86
9.29447e-86
6.56029e-86
6.61532e-86
6.56798e-86
6.52385e-86
6.67336e-86
6.6063e-86
6.71873e-86
6.60753e-86
6.71741e-86
6.76372e-86
6.63425e-86
6.8165e-86
6.60385e-86
6.86605e-86
6.6232e-86
6.61855e-86
6.71201e-86
6.81758e-86
6.69814e-86
6.90271e-86
1.11865e-101
1.10561e-101
1.12565e-101
1.08413e-101
1.11222e-101
1.10767e-101
1.10963e-101
1.0782e-101
1.08808e-101
1.11756e-101
1.08909e-101
1.12529e-101
1.08532e-101
1.11444e-101
1.07713e-101
1.12509e-101
1.07455e-101
1.09102e-101
1.10388e-101
1.06424e-101
1.0057e-98
9.93731e-99
1.01156e-98
9.74691e-99
9.99518e-99
9.95703e-99
9.97391e-99
9.6911e-99
9.78098e-99
1.00444e-98
9.79166e-99
1.01131e-98
9.75847e-99
1.00183e-98
9.68508e-99
1.01136e-98
9.66179e-99
9.80834e-99
9.92184e-99
9.56948e-99
4.83152e-96
4.77285e-96
4.85762e-96
4.68268e-96
4.7999e-96
4.78292e-96
4.79065e-96
4.65465e-96
4.69828e-96
4.82416e-96
4.70417e-96
4.85671e-96
4.6886e-96
4.81253e-96
4.65346e-96
4.85805e-96
4.64212e-96
4.7119e-96
4.76539e-96
4.59798e-96
1.33635e-93
1.31979e-93
1.343e-93
1.29521e-93
1.32707e-93
1.32276e-93
1.32478e-93
1.28713e-93
1.29931e-93
1.33396e-93
1.30115e-93
1.34284e-93
1.29696e-93
1.33101e-93
1.28728e-93
1.34352e-93
1.28408e-93
1.30323e-93
1.31773e-93
1.27192e-93
2.60889e-91
2.57588e-91
2.62076e-91
2.52863e-91
2.58972e-91
2.58208e-91
2.58574e-91
2.51217e-91
2.5361e-91
2.60355e-91
2.54016e-91
2.62058e-91
2.53223e-91
2.59829e-91
2.51342e-91
2.62253e-91
2.50696e-91
2.54415e-91
2.57188e-91
2.48326e-91
3.55369e-89
3.50772e-89
3.56837e-89
3.44441e-89
3.52617e-89
3.51686e-89
3.52138e-89
3.42105e-89
3.45377e-89
3.54557e-89
3.45997e-89
3.56835e-89
3.44959e-89
3.5391e-89
3.42414e-89
3.57188e-89
3.41482e-89
3.4654e-89
3.50236e-89
3.38246e-89
3.3228e-87
3.27871e-87
3.33517e-87
3.22054e-87
3.29572e-87
3.28808e-87
3.29172e-87
3.19774e-87
3.22822e-87
3.31443e-87
3.23479e-87
3.33526e-87
3.22561e-87
3.30903e-87
3.20207e-87
3.33941e-87
3.19243e-87
3.24001e-87
3.27385e-87
3.16188e-87
2.0816e-85
2.05318e-85
2.08846e-85
2.01742e-85
2.06377e-85
2.05965e-85
2.06151e-85
2.00251e-85
2.02137e-85
2.07586e-85
2.0261e-85
2.08859e-85
2.02076e-85
2.07292e-85
2.00622e-85
2.09178e-85
1.99935e-85
2.02958e-85
2.05033e-85
1.97992e-85
3.3723e-84
3.33006e-84
3.37854e-84
3.27122e-84
3.34177e-84
3.33482e-84
3.34159e-84
3.24849e-84
3.28451e-84
3.3595e-84
3.28935e-84
3.38145e-84
3.2776e-84
3.35658e-84
3.25062e-84
3.38562e-84
3.25197e-84
3.2899e-84
3.31933e-84
3.22513e-84
2.70587e-84
2.71074e-84
2.70039e-84
2.65278e-84
2.69062e-84
2.67762e-84
2.71204e-84
2.65115e-84
2.7178e-84
2.68514e-84
2.6951e-84
2.71717e-84
2.65964e-84
2.68721e-84
2.61516e-84
2.69388e-84
2.69311e-84
2.65721e-84
2.66302e-84
2.69671e-84
4.02316e-84
4.07449e-84
4.09404e-84
4.04033e-84
4.00989e-84
4.03854e-84
4.10398e-84
4.00779e-84
4.13295e-84
4.10496e-84
4.10898e-84
4.11692e-84
4.06177e-84
4.01523e-84
3.98053e-84
4.04382e-84
4.01803e-84
4.011e-84
4.04234e-84
4.07028e-84
4.71274e-84
4.756e-84
4.77339e-84
4.70739e-84
4.67468e-84
4.57953e-84
4.68454e-84
4.58938e-84
4.73615e-84
4.86128e-84
4.82239e-84
4.67265e-84
4.80709e-84
4.72756e-84
4.72377e-84
4.75765e-84
4.5512e-84
4.74644e-84
4.6561e-84
4.67839e-84
5.35134e-84
5.48498e-84
5.44352e-84
5.39998e-84
5.43199e-84
5.48062e-84
5.65004e-84
5.41741e-84
5.4494e-84
5.38959e-84
5.41335e-84
5.41288e-84
5.44962e-84
5.42616e-84
5.32468e-84
5.42045e-84
5.46024e-84
5.35926e-84
5.3338e-84
5.35985e-84
5.8357e-84
5.85552e-84
5.91699e-84
6.01108e-84
5.94684e-84
6.02926e-84
5.92046e-84
6.01495e-84
5.95689e-84
5.70971e-84
5.80111e-84
5.80187e-84
5.85465e-84
5.73493e-84
5.72657e-84
5.77238e-84
5.75659e-84
5.85866e-84
5.80187e-84
5.91994e-84
5.95116e-84
5.96925e-84
6.07528e-84
6.02946e-84
5.95517e-84
6.02614e-84
6.04661e-84
6.13171e-84
5.95199e-84
6.04709e-84
6.01547e-84
6.02132e-84
6.09476e-84
6.02148e-84
5.97254e-84
6.18694e-84
5.99012e-84
5.9262e-84
6.00483e-84
6.05787e-84
5.95406e-84
5.8315e-84
5.90898e-84
5.8435e-84
5.9351e-84
5.97516e-84
6.00103e-84
5.93808e-84
5.79018e-84
5.84241e-84
5.79802e-84
6.00464e-84
5.94647e-84
6.0517e-84
6.01982e-84
6.02574e-84
5.95989e-84
5.95294e-84
5.87969e-84
5.91307e-84
5.45231e-84
5.51872e-84
5.45891e-84
5.68108e-84
5.51777e-84
5.65502e-84
5.54697e-84
5.59341e-84
5.51958e-84
5.5359e-84
5.526e-84
5.63465e-84
5.54218e-84
5.70571e-84
5.49423e-84
5.62934e-84
5.60009e-84
5.41253e-84
5.62083e-84
5.60704e-84
4.86718e-84
5.0896e-84
5.00409e-84
4.98075e-84
4.90762e-84
5.1549e-84
5.07059e-84
5.06992e-84
5.03532e-84
4.93081e-84
5.03625e-84
5.13524e-84
4.99524e-84
5.24737e-84
5.02885e-84
5.1258e-84
5.17629e-84
5.03994e-84
5.15252e-84
5.15805e-84
4.42166e-84
4.4101e-84
4.37887e-84
4.45895e-84
4.51947e-84
4.49977e-84
4.4159e-84
4.40541e-84
4.54345e-84
4.3847e-84
4.50338e-84
4.50513e-84
4.40516e-84
4.55012e-84
4.53738e-84
4.62005e-84
4.4674e-84
4.57372e-84
4.51087e-84
4.64278e-84
3.25859e-84
3.28564e-84
3.26255e-84
3.24033e-84
3.31364e-84
3.28096e-84
3.33544e-84
3.28166e-84
3.33448e-84
3.3583e-84
3.29376e-84
3.38397e-84
3.27925e-84
3.40882e-84
3.28854e-84
3.28643e-84
3.33192e-84
3.38471e-84
3.3256e-84
3.4265e-84
6.43858e-100
6.36224e-100
6.47621e-100
6.24027e-100
6.3991e-100
6.37463e-100
6.38562e-100
6.20465e-100
6.26232e-100
6.43065e-100
6.26898e-100
6.47463e-100
6.24756e-100
6.41363e-100
6.20037e-100
6.47468e-100
6.18582e-100
6.2793e-100
6.35195e-100
6.12691e-100
5.72479e-97
5.65559e-97
5.75581e-97
5.54868e-97
5.68743e-97
5.66729e-97
5.67667e-97
5.51564e-97
5.56752e-97
5.71628e-97
5.57433e-97
5.7549e-97
5.55573e-97
5.70228e-97
5.51389e-97
5.75627e-97
5.50091e-97
5.58319e-97
5.64653e-97
5.44881e-97
2.69388e-94
2.66069e-94
2.70732e-94
2.61111e-94
2.67523e-94
2.66653e-94
2.67073e-94
2.5949e-94
2.61957e-94
2.68916e-94
2.62319e-94
2.70708e-94
2.61464e-94
2.6831e-94
2.595e-94
2.70834e-94
2.58884e-94
2.6272e-94
2.6564e-94
2.56445e-94
7.38848e-92
7.29571e-92
7.42217e-92
7.16176e-92
7.33438e-92
7.3127e-92
7.32356e-92
7.11547e-92
7.18374e-92
7.37367e-92
7.19484e-92
7.42207e-92
7.17205e-92
7.35845e-92
7.11834e-92
7.4272e-92
7.10119e-92
7.20552e-92
7.28389e-92
7.03458e-92
1.41737e-89
1.39922e-89
1.42322e-89
1.37392e-89
1.40642e-89
1.40269e-89
1.40463e-89
1.36468e-89
1.37787e-89
1.41416e-89
1.38024e-89
1.42329e-89
1.376e-89
1.41152e-89
1.36573e-89
1.42461e-89
1.36236e-89
1.38225e-89
1.39694e-89
1.34962e-89
1.90744e-87
1.88253e-87
1.9145e-87
1.84904e-87
1.89195e-87
1.88753e-87
1.88991e-87
1.83612e-87
1.85395e-87
1.90269e-87
1.85748e-87
1.91475e-87
1.852e-87
1.89951e-87
1.83824e-87
1.91697e-87
1.83349e-87
1.86016e-87
1.87947e-87
1.81633e-87
1.7541e-85
1.73066e-85
1.75985e-85
1.7004e-85
1.73914e-85
1.73564e-85
1.73756e-85
1.68804e-85
1.70443e-85
1.74932e-85
1.70804e-85
1.76017e-85
1.70325e-85
1.74674e-85
1.69069e-85
1.76264e-85
1.68596e-85
1.71054e-85
1.72787e-85
1.67007e-85
1.08359e-83
1.06877e-83
1.08665e-83
1.05041e-83
1.0739e-83
1.07209e-83
1.0731e-83
1.04248e-83
1.05254e-83
1.08037e-83
1.05505e-83
1.08692e-83
1.05226e-83
1.07901e-83
1.04457e-83
1.08872e-83
1.04137e-83
1.05664e-83
1.06707e-83
1.03146e-83
1.72629e-82
1.70437e-82
1.72893e-82
1.6748e-82
1.71009e-82
1.70716e-82
1.71042e-82
1.66276e-82
1.68129e-82
1.71961e-82
1.68402e-82
1.7306e-82
1.6782e-82
1.71831e-82
1.66441e-82
1.73303e-82
1.66489e-82
1.68426e-82
1.69892e-82
1.65121e-82
1.36908e-82
1.37142e-82
1.36646e-82
1.34262e-82
1.36131e-82
1.35525e-82
1.37239e-82
1.34145e-82
1.37541e-82
1.35875e-82
1.36399e-82
1.37476e-82
1.3461e-82
1.35985e-82
1.32377e-82
1.36284e-82
1.36269e-82
1.34466e-82
1.34755e-82
1.36454e-82
2.04044e-82
2.06594e-82
2.07634e-82
2.04873e-82
2.03343e-82
2.04766e-82
2.08052e-82
2.03184e-82
2.09548e-82
2.08092e-82
2.08366e-82
2.08684e-82
2.05973e-82
2.03608e-82
2.01864e-82
2.05022e-82
2.03717e-82
2.03392e-82
2.04985e-82
2.06372e-82
2.37833e-82
2.39997e-82
2.40884e-82
2.37497e-82
2.35921e-82
2.31136e-82
2.36452e-82
2.31672e-82
2.39028e-82
2.45281e-82
2.43309e-82
2.35817e-82
2.42574e-82
2.38552e-82
2.38367e-82
2.40061e-82
2.29675e-82
2.39467e-82
2.34917e-82
2.36047e-82
2.70347e-82
2.76995e-82
2.74976e-82
2.72788e-82
2.7443e-82
2.76858e-82
2.85353e-82
2.73701e-82
2.75286e-82
2.72221e-82
2.73428e-82
2.73432e-82
2.7533e-82
2.74217e-82
2.69088e-82
2.73856e-82
2.75856e-82
2.70795e-82
2.69512e-82
2.70804e-82
2.92904e-82
2.9382e-82
2.96838e-82
3.01623e-82
2.9843e-82
3.02513e-82
2.97068e-82
3.01844e-82
2.98833e-82
2.8657e-82
2.91101e-82
2.91196e-82
2.93805e-82
2.87842e-82
2.87372e-82
2.89724e-82
2.88836e-82
2.93996e-82
2.91133e-82
2.97087e-82
2.99298e-82
3.00138e-82
3.055e-82
3.03135e-82
2.99445e-82
3.03093e-82
3.04058e-82
3.08334e-82
2.99334e-82
3.04129e-82
3.02562e-82
3.02857e-82
3.06437e-82
3.02863e-82
3.00428e-82
3.11079e-82
3.01263e-82
2.98013e-82
3.01965e-82
3.04508e-82
2.97215e-82
2.91074e-82
2.94837e-82
2.9166e-82
2.96249e-82
2.98254e-82
2.99484e-82
2.96357e-82
2.89027e-82
2.91598e-82
2.89337e-82
2.99623e-82
2.96814e-82
3.02049e-82
3.00465e-82
3.00714e-82
2.97457e-82
2.97162e-82
2.93474e-82
2.95126e-82
2.73215e-82
2.76564e-82
2.73547e-82
2.84643e-82
2.76426e-82
2.83285e-82
2.77866e-82
2.80283e-82
2.7656e-82
2.77394e-82
2.76921e-82
2.82326e-82
2.77661e-82
2.85856e-82
2.75286e-82
2.82009e-82
2.80571e-82
2.71236e-82
2.81616e-82
2.80963e-82
2.42327e-82
2.53333e-82
2.49123e-82
2.47887e-82
2.44309e-82
2.56557e-82
2.52352e-82
2.52353e-82
2.50617e-82
2.45448e-82
2.50638e-82
2.55551e-82
2.48649e-82
2.61085e-82
2.5025e-82
2.55062e-82
2.57538e-82
2.50856e-82
2.56425e-82
2.56701e-82
2.21593e-82
2.21018e-82
2.19497e-82
2.23489e-82
2.26456e-82
2.25486e-82
2.21267e-82
2.20883e-82
2.27705e-82
2.1978e-82
2.25684e-82
2.25803e-82
2.2072e-82
2.28044e-82
2.27369e-82
2.31549e-82
2.23903e-82
2.29178e-82
2.2603e-82
2.3261e-82
1.62299e-82
1.63634e-82
1.62505e-82
1.61382e-82
1.64984e-82
1.6339e-82
1.66035e-82
1.63431e-82
1.65971e-82
1.672e-82
1.63972e-82
1.68451e-82
1.6328e-82
1.697e-82
1.63726e-82
1.6363e-82
1.6585e-82
1.68496e-82
1.65564e-82
1.70554e-82
3.59997e-98
3.55659e-98
3.61955e-98
3.48934e-98
3.57654e-98
3.56386e-98
3.56985e-98
3.46864e-98
3.50132e-98
3.59472e-98
3.50551e-98
3.61902e-98
3.49374e-98
3.58576e-98
3.46733e-98
3.61974e-98
3.45933e-98
3.51091e-98
3.55076e-98
3.42666e-98
3.25273e-95
3.21281e-95
3.26903e-95
3.15292e-95
3.23027e-95
3.21976e-95
3.22493e-95
3.13343e-95
3.16329e-95
3.24715e-95
3.16758e-95
3.26882e-95
3.15719e-95
3.2397e-95
3.13338e-95
3.27021e-95
3.12613e-95
3.17227e-95
3.20753e-95
3.09678e-95
1.50423e-92
1.48543e-92
1.51112e-92
1.45814e-92
1.49324e-92
1.48882e-92
1.4911e-92
1.44876e-92
1.46271e-92
1.50126e-92
1.46492e-92
1.51114e-92
1.46024e-92
1.4981e-92
1.44925e-92
1.51212e-92
1.44588e-92
1.46701e-92
1.48296e-92
1.43238e-92
4.07311e-90
4.0213e-90
4.09002e-90
3.94855e-90
4.04175e-90
4.03102e-90
4.03682e-90
3.92215e-90
3.96027e-90
4.06411e-90
3.9669e-90
4.09042e-90
3.95458e-90
4.05634e-90
3.92487e-90
4.094e-90
3.91566e-90
3.97237e-90
4.01457e-90
3.87928e-90
7.67625e-88
7.57684e-88
7.70476e-88
7.44189e-88
7.61407e-88
7.59623e-88
7.60638e-88
7.39023e-88
7.46259e-88
7.6574e-88
7.47632e-88
7.7061e-88
7.45383e-88
7.64425e-88
7.39797e-88
7.71462e-88
7.38029e-88
7.4864e-88
7.564e-88
7.31201e-88
1.01935e-85
1.00591e-85
1.0227e-85
9.88284e-86
1.0107e-85
1.00865e-85
1.00989e-85
9.81176e-86
9.90839e-86
1.01663e-85
9.92837e-86
1.02297e-85
9.89961e-86
1.01508e-85
9.82564e-86
1.02433e-85
9.8014e-86
9.94152e-86
1.00419e-85
9.71073e-86
9.21689e-84
9.09292e-84
9.24314e-84
8.9363e-84
9.13493e-84
9.11945e-84
9.12935e-84
8.86966e-84
8.95717e-84
9.19012e-84
8.97701e-84
9.24624e-84
8.95216e-84
9.17797e-84
8.88557e-84
9.26074e-84
8.86236e-84
8.98887e-84
9.07717e-84
8.78004e-84
5.60783e-82
5.53096e-82
5.62116e-82
5.43733e-82
5.55569e-82
5.54807e-82
5.55339e-82
5.3954e-82
5.44866e-82
5.59017e-82
5.4619e-82
5.62358e-82
5.4475e-82
5.58401e-82
5.40711e-82
5.63367e-82
5.39223e-82
5.46911e-82
5.52117e-82
5.34194e-82
8.78559e-81
8.67264e-81
8.79629e-81
8.5249e-81
8.70025e-81
8.68862e-81
8.70415e-81
8.46165e-81
8.55632e-81
8.75103e-81
8.57156e-81
8.80565e-81
8.54295e-81
8.74539e-81
8.47288e-81
8.81955e-81
8.47429e-81
8.57255e-81
8.6451e-81
8.40492e-81
6.88289e-81
6.89404e-81
6.87056e-81
6.75186e-81
6.84351e-81
6.81566e-81
6.90042e-81
6.74426e-81
6.91617e-81
6.83182e-81
6.85913e-81
6.91124e-81
6.76942e-81
6.83752e-81
6.65806e-81
6.85059e-81
6.85108e-81
6.76115e-81
6.77544e-81
6.86056e-81
1.02855e-80
1.04114e-80
1.04662e-80
1.03252e-80
1.02487e-80
1.0319e-80
1.04829e-80
1.02382e-80
1.05596e-80
1.04845e-80
1.05018e-80
1.05137e-80
1.03813e-80
1.02618e-80
1.01747e-80
1.03313e-80
1.02657e-80
1.02509e-80
1.03313e-80
1.03997e-80
1.19349e-80
1.20425e-80
1.20875e-80
1.19147e-80
1.18394e-80
1.16002e-80
1.18677e-80
1.16291e-80
1.19955e-80
1.23062e-80
1.22068e-80
1.18341e-80
1.21717e-80
1.19696e-80
1.19606e-80
1.20447e-80
1.15252e-80
1.20136e-80
1.17857e-80
1.18426e-80
1.3586e-80
1.39148e-80
1.38172e-80
1.37079e-80
1.37915e-80
1.39121e-80
1.43357e-80
1.37553e-80
1.38334e-80
1.36773e-80
1.37382e-80
1.37398e-80
1.38373e-80
1.37851e-80
1.35272e-80
1.37633e-80
1.38631e-80
1.36109e-80
1.35466e-80
1.36103e-80
1.46401e-80
1.4682e-80
1.48294e-80
1.50717e-80
1.49137e-80
1.51147e-80
1.48438e-80
1.50841e-80
1.49283e-80
1.43231e-80
1.45466e-80
1.45543e-80
1.46825e-80
1.43869e-80
1.43609e-80
1.4481e-80
1.4432e-80
1.46917e-80
1.45479e-80
1.48468e-80
1.49967e-80
1.50348e-80
1.53049e-80
1.51834e-80
1.5001e-80
1.51876e-80
1.52326e-80
1.54467e-80
1.49979e-80
1.52386e-80
1.51611e-80
1.5176e-80
1.53497e-80
1.51767e-80
1.50556e-80
1.55826e-80
1.50949e-80
1.49308e-80
1.51282e-80
1.52494e-80
1.47966e-80
1.44901e-80
1.46721e-80
1.45187e-80
1.47475e-80
1.48476e-80
1.49058e-80
1.47514e-80
1.43891e-80
1.45153e-80
1.44005e-80
1.49105e-80
1.47758e-80
1.50353e-80
1.49569e-80
1.4967e-80
1.48062e-80
1.47942e-80
1.46093e-80
1.46908e-80
1.36608e-80
1.38292e-80
1.36774e-80
1.423e-80
1.38178e-80
1.41598e-80
1.38886e-80
1.40137e-80
1.38265e-80
1.38691e-80
1.38465e-80
1.41151e-80
1.38802e-80
1.42899e-80
1.3763e-80
1.40965e-80
1.40261e-80
1.35627e-80
1.40785e-80
1.40477e-80
1.20538e-80
1.25977e-80
1.23907e-80
1.23257e-80
1.21508e-80
1.27567e-80
1.25472e-80
1.2549e-80
1.24619e-80
1.22066e-80
1.24617e-80
1.27054e-80
1.23654e-80
1.29781e-80
1.24415e-80
1.26802e-80
1.28013e-80
1.24744e-80
1.27495e-80
1.27633e-80
1.10982e-80
1.10696e-80
1.09957e-80
1.11946e-80
1.13399e-80
1.12921e-80
1.10799e-80
1.10679e-80
1.14048e-80
1.10094e-80
1.13029e-80
1.13104e-80
1.10522e-80
1.14219e-80
1.13864e-80
1.15976e-80
1.12147e-80
1.14763e-80
1.13187e-80
1.16467e-80
8.12224e-81
8.18852e-81
8.13311e-81
8.07599e-81
8.25374e-81
8.17575e-81
8.30476e-81
8.1781e-81
8.30049e-81
8.36432e-81
8.20194e-81
8.42551e-81
8.16894e-81
8.4886e-81
8.19038e-81
8.18604e-81
8.29497e-81
8.42813e-81
8.28207e-81
8.5299e-81
2.07623e-96
2.05082e-96
2.08669e-96
2.01258e-96
2.06193e-96
2.05522e-96
2.05857e-96
2.00018e-96
2.01926e-96
2.07274e-96
2.02195e-96
2.08657e-96
2.01529e-96
2.06789e-96
2.00004e-96
2.08738e-96
1.99548e-96
2.02486e-96
2.04738e-96
1.97679e-96
1.84912e-93
1.82609e-93
1.85764e-93
1.79254e-93
1.83565e-93
1.83022e-93
1.83307e-93
1.78105e-93
1.79823e-93
1.84556e-93
1.80091e-93
1.85771e-93
1.79512e-93
1.8416e-93
1.78156e-93
1.85884e-93
1.7775e-93
1.8034e-93
1.82302e-93
1.76095e-93
8.39062e-91
8.28432e-91
8.42567e-91
8.1344e-91
8.3262e-91
8.30409e-91
8.31631e-91
8.08022e-91
8.15894e-91
8.37242e-91
8.17238e-91
8.42668e-91
8.14681e-91
8.35603e-91
8.08535e-91
8.43372e-91
8.06686e-91
8.18323e-91
8.2702e-91
7.9922e-91
2.23956e-88
2.21072e-88
2.24796e-88
2.17133e-88
2.22149e-88
2.21628e-88
2.21935e-88
2.15633e-88
2.17754e-88
2.2342e-88
2.18147e-88
2.24844e-88
2.17484e-88
2.23025e-88
2.15845e-88
2.25082e-88
2.1535e-88
2.18427e-88
2.20691e-88
2.13367e-88
4.14543e-86
4.09114e-86
4.15914e-86
4.0194e-86
4.11031e-86
4.10199e-86
4.10726e-86
3.99063e-86
4.03018e-86
4.13451e-86
4.0381e-86
4.16039e-86
4.02623e-86
4.12802e-86
3.99592e-86
4.16574e-86
3.98666e-86
4.04315e-86
4.08397e-86
3.95014e-86
5.42385e-84
5.35164e-84
5.43943e-84
5.25934e-84
5.37579e-84
5.36666e-84
5.37298e-84
5.22043e-84
5.2725e-84
5.40843e-84
5.28375e-84
5.44161e-84
5.26877e-84
5.40099e-84
5.22918e-84
5.44984e-84
5.2168e-84
5.2902e-84
5.34209e-84
5.16909e-84
4.82057e-82
4.75528e-82
4.83228e-82
4.67466e-82
4.77594e-82
4.76942e-82
4.77445e-82
4.6389e-82
4.68535e-82
4.80579e-82
4.6962e-82
4.83464e-82
4.68343e-82
4.80014e-82
4.6483e-82
4.84302e-82
4.63691e-82
4.70182e-82
4.74654e-82
4.59442e-82
2.88588e-80
2.84621e-80
2.89149e-80
2.79877e-80
2.85802e-80
2.85505e-80
2.85778e-80
2.77671e-80
2.80466e-80
2.87634e-80
2.81165e-80
2.89326e-80
2.8043e-80
2.87359e-80
2.78324e-80
2.89886e-80
2.77633e-80
2.8149e-80
2.84072e-80
2.75091e-80
4.44604e-79
4.38821e-79
4.45006e-79
4.31486e-79
4.40139e-79
4.3972e-79
4.4045e-79
4.28185e-79
4.32994e-79
4.42832e-79
4.33832e-79
4.45529e-79
4.32437e-79
4.42595e-79
4.28893e-79
4.46308e-79
4.28915e-79
4.33873e-79
4.37434e-79
4.25418e-79
3.43911e-79
3.44437e-79
3.4334e-79
3.37466e-79
3.41929e-79
3.40669e-79
3.4483e-79
3.36999e-79
3.45646e-79
3.41403e-79
3.42815e-79
3.45318e-79
3.38346e-79
3.41696e-79
3.32827e-79
3.42252e-79
3.42338e-79
3.37881e-79
3.38584e-79
3.42819e-79
5.15431e-79
5.21606e-79
5.24473e-79
5.17317e-79
5.13518e-79
5.16965e-79
5.25086e-79
5.12863e-79
5.29002e-79
5.25158e-79
5.26192e-79
5.26578e-79
5.2016e-79
5.14163e-79
5.0984e-79
5.17549e-79
5.14268e-79
5.13607e-79
5.17639e-79
5.20992e-79
5.95647e-79
6.00966e-79
6.03234e-79
5.94473e-79
5.90906e-79
5.79013e-79
5.92392e-79
5.80552e-79
5.98698e-79
6.14052e-79
6.09061e-79
5.90635e-79
6.07401e-79
5.97303e-79
5.96862e-79
6.01027e-79
5.75182e-79
5.99398e-79
5.88055e-79
5.90903e-79
6.79226e-79
6.95394e-79
6.90704e-79
6.8528e-79
6.8951e-79
6.95469e-79
7.16473e-79
6.87732e-79
6.91556e-79
6.83647e-79
6.86702e-79
6.8685e-79
6.91826e-79
6.8941e-79
6.76513e-79
6.88137e-79
6.93092e-79
6.80592e-79
6.77383e-79
6.80506e-79
7.28739e-79
7.30629e-79
7.37793e-79
7.50002e-79
7.42224e-79
7.52074e-79
7.3865e-79
7.50695e-79
7.42665e-79
7.12945e-79
7.23915e-79
7.24444e-79
7.30714e-79
7.16119e-79
7.14707e-79
7.20809e-79
7.18135e-79
7.31152e-79
7.23961e-79
7.38901e-79
7.48526e-79
7.50234e-79
7.63782e-79
7.57574e-79
7.4859e-79
7.58107e-79
7.60172e-79
7.70858e-79
7.48561e-79
7.60595e-79
7.56781e-79
7.57533e-79
7.6591e-79
7.57589e-79
7.51597e-79
7.77548e-79
7.53419e-79
7.45165e-79
7.54986e-79
7.60725e-79
7.35131e-79
7.19886e-79
7.28652e-79
7.21275e-79
7.32644e-79
7.37629e-79
7.4037e-79
7.32775e-79
7.14905e-79
7.21084e-79
7.15272e-79
7.40489e-79
7.34068e-79
7.46884e-79
7.43015e-79
7.4342e-79
7.35482e-79
7.35017e-79
7.25786e-79
7.29801e-79
6.81681e-79
6.90117e-79
6.82492e-79
7.09943e-79
6.89323e-79
7.0634e-79
6.92804e-79
6.9925e-79
6.89854e-79
6.92035e-79
6.90948e-79
7.04277e-79
6.9247e-79
7.12908e-79
6.86707e-79
7.03205e-79
6.99775e-79
6.76822e-79
7.02395e-79
7.00944e-79
5.99502e-79
6.26375e-79
6.16205e-79
6.12794e-79
6.04247e-79
6.34211e-79
6.2377e-79
6.23951e-79
6.1958e-79
6.06975e-79
6.19501e-79
6.3159e-79
6.14857e-79
6.4503e-79
6.18461e-79
6.30295e-79
6.36221e-79
6.20227e-79
6.33813e-79
6.34508e-79
5.55628e-79
5.5422e-79
5.50628e-79
5.60525e-79
5.6762e-79
5.65286e-79
5.54623e-79
5.54385e-79
5.70994e-79
5.51291e-79
5.65867e-79
5.66327e-79
5.53215e-79
5.71872e-79
5.69997e-79
5.8066e-79
5.61517e-79
5.74463e-79
5.66587e-79
5.82922e-79
4.05125e-79
4.08399e-79
4.05689e-79
4.02802e-79
4.11544e-79
4.07735e-79
4.13997e-79
4.07867e-79
4.1374e-79
4.17029e-79
4.08897e-79
4.20012e-79
4.07326e-79
4.23189e-79
4.08363e-79
4.08172e-79
4.13482e-79
4.2017e-79
4.12912e-79
4.25185e-79
1.19619e-94
1.18133e-94
1.20174e-94
1.15962e-94
1.1875e-94
1.18399e-94
1.18585e-94
1.15221e-94
1.16333e-94
1.19393e-94
1.16504e-94
1.20179e-94
1.16128e-94
1.19131e-94
1.15249e-94
1.20248e-94
1.14988e-94
1.16661e-94
1.17931e-94
1.13919e-94
1.04844e-91
1.0352e-91
1.05286e-91
1.01646e-91
1.04042e-91
1.03766e-91
1.03921e-91
1.00971e-91
1.01956e-91
1.04622e-91
1.02122e-91
1.053e-91
1.01802e-91
1.04413e-91
1.01031e-91
1.05385e-91