/*--------------------------------*- C++ -*----------------------------------*\
| =========                 |                                                 |
| \\      /  F ield         | OpenFOAM: The Open Source CFD Toolbox           |
|  \\    /   O peration     | Version:  2212                                  |
|   \\  /    A nd           | Website:  www.openfoam.com                      |
|    \\/     M anipulation  |                                                 |
\*---------------------------------------------------------------------------*/
FoamFile
{
    version     2.0;
    format      ascii;
    arch        "LSB;label=32;scalar=64";
    class       volScalarField;
    location    "0.174";
    object      s;
}
// * * * * * * * * * * * * * * * * * * * * * * * * * * * * * * * * * * * * * //

dimensions      [0 0 0 0 0 0 0];

internalField   nonuniform List<scalar> 
24240
(
6.72993e-101
6.64375e-101
6.75458e-101
6.52694e-101
6.67477e-101
6.66108e-101
6.67008e-101
6.48098e-101
6.5451e-101
6.71469e-101
6.55737e-101
6.75676e-101
6.53776e-101
6.70258e-101
6.48803e-101
6.76423e-101
6.47324e-101
6.56484e-101
6.63172e-101
6.41356e-101
5.09612e-98
5.03005e-98
5.11289e-98
4.9429e-98
5.05263e-98
5.04374e-98
5.05017e-98
4.90705e-98
4.956e-98
5.08374e-98
4.96597e-98
5.11509e-98
4.95155e-98
5.07541e-98
4.91388e-98
5.12177e-98
4.90273e-98
4.97147e-98
5.02089e-98
4.85777e-98
2.13109e-95
2.10313e-95
2.1373e-95
2.06722e-95
2.11217e-95
2.10909e-95
2.1116e-95
2.0518e-95
2.07242e-95
2.12555e-95
2.07687e-95
2.13844e-95
2.07102e-95
2.12243e-95
2.05526e-95
2.14165e-95
2.05062e-95
2.07911e-95
2.09925e-95
2.03193e-95
5.05938e-93
4.99221e-93
5.0722e-93
4.90825e-93
5.01274e-93
5.00693e-93
5.01248e-93
4.87064e-93
4.91995e-93
5.04541e-93
4.93119e-93
5.07546e-93
4.91774e-93
5.03885e-93
4.88027e-93
5.08409e-93
4.86934e-93
4.93638e-93
4.98288e-93
4.82521e-93
8.75062e-91
8.6331e-91
8.76938e-91
8.4901e-91
8.66692e-91
8.65951e-91
8.66834e-91
8.42329e-91
8.50915e-91
8.72493e-91
8.52971e-91
8.7759e-91
8.50721e-91
8.71509e-91
8.4423e-91
8.79253e-91
8.42356e-91
8.53848e-91
8.61652e-91
8.34763e-91
1.04705e-88
1.03283e-88
1.04888e-88
1.01599e-88
1.03668e-88
1.03612e-88
1.03708e-88
1.0078e-88
1.01814e-88
1.04381e-88
1.02074e-88
1.04979e-88
1.01814e-88
1.04282e-88
1.01036e-88
1.05198e-88
1.00813e-88
1.02175e-88
1.03079e-88
9.99072e-89
8.84889e-87
8.72746e-87
8.8608e-87
8.5874e-87
8.75827e-87
8.7562e-87
8.76356e-87
8.51649e-87
8.60446e-87
8.82e-87
8.62747e-87
8.86946e-87
8.60626e-87
8.8132e-87
8.5403e-87
8.88948e-87
8.52171e-87
8.63569e-87
8.70934e-87
8.4453e-87
4.96858e-85
4.89992e-85
4.97307e-85
4.82249e-85
4.91606e-85
4.91637e-85
4.92026e-85
4.78189e-85
4.83182e-85
4.95141e-85
4.84523e-85
4.97866e-85
4.83359e-85
4.9486e-85
4.79627e-85
4.9906e-85
4.78649e-85
4.8494e-85
4.889e-85
4.74391e-85
7.28379e-84
7.18719e-84
7.28484e-84
7.07385e-84
7.20473e-84
7.20625e-84
7.2154e-84
7.01534e-84
7.0947e-84
7.25535e-84
7.11152e-84
7.29613e-84
7.09145e-84
7.25359e-84
7.03321e-84
7.31244e-84
7.03156e-84
7.11215e-84
7.16479e-84
6.97408e-84
5.50299e-84
5.50995e-84
5.49698e-84
5.40464e-84
5.47102e-84
5.45691e-84
5.51935e-84
5.39296e-84
5.53288e-84
5.46575e-84
5.48905e-84
5.52571e-84
5.41875e-84
5.47057e-84
5.33292e-84
5.47546e-84
5.4777e-84
5.40933e-84
5.42046e-84
5.48467e-84
8.27982e-84
8.3735e-84
8.42441e-84
8.30553e-84
8.24669e-84
8.2993e-84
8.42471e-84
8.23085e-84
8.49081e-84
8.42484e-84
8.44883e-84
8.44741e-84
8.35209e-84
8.25657e-84
8.18802e-84
8.30626e-84
8.2553e-84
8.24657e-84
8.31186e-84
8.36159e-84
9.72745e-84
9.81229e-84
9.85101e-84
9.70148e-84
9.65142e-84
9.45933e-84
9.67799e-84
9.48946e-84
9.77894e-84
1.00239e-83
9.94029e-84
9.64787e-84
9.91642e-84
9.75154e-84
9.74489e-84
9.81138e-84
9.39251e-84
9.78131e-84
9.59853e-84
9.64398e-84
1.10723e-83
1.13245e-83
1.12564e-83
1.11693e-83
1.12399e-83
1.1333e-83
1.16684e-83
1.12121e-83
1.12721e-83
1.11417e-83
1.11906e-83
1.11946e-83
1.1281e-83
1.12515e-83
1.10408e-83
1.1222e-83
1.12994e-83
1.11019e-83
1.10491e-83
1.10956e-83
1.22501e-83
1.22747e-83
1.23859e-83
1.25978e-83
1.24716e-83
1.263e-83
1.24088e-83
1.26128e-83
1.24653e-83
1.19855e-83
1.2162e-83
1.21784e-83
1.22775e-83
1.20388e-83
1.20091e-83
1.21165e-83
1.20624e-83
1.2285e-83
1.21617e-83
1.24138e-83
1.24647e-83
1.24846e-83
1.27122e-83
1.26041e-83
1.24608e-83
1.26285e-83
1.26527e-83
1.28312e-83
1.2466e-83
1.26644e-83
1.26035e-83
1.26178e-83
1.27426e-83
1.26201e-83
1.25222e-83
1.29358e-83
1.25459e-83
1.24077e-83
1.25676e-83
1.26479e-83
1.27179e-83
1.24598e-83
1.25989e-83
1.24827e-83
1.26745e-83
1.27626e-83
1.28023e-83
1.26796e-83
1.23758e-83
1.24798e-83
1.23746e-83
1.27984e-83
1.27043e-83
1.29166e-83
1.28513e-83
1.28589e-83
1.2721e-83
1.27172e-83
1.25603e-83
1.26269e-83
1.15922e-83
1.1734e-83
1.16027e-83
1.20576e-83
1.17122e-83
1.19965e-83
1.17685e-83
1.18851e-83
1.17222e-83
1.17631e-83
1.17444e-83
1.19714e-83
1.17666e-83
1.21131e-83
1.16763e-83
1.19451e-83
1.18913e-83
1.15131e-83
1.19341e-83
1.19128e-83
1.05505e-83
1.10142e-83
1.08421e-83
1.07774e-83
1.06308e-83
1.1149e-83
1.09642e-83
1.09725e-83
1.08929e-83
1.06774e-83
1.0888e-83
1.10995e-83
1.08141e-83
1.13294e-83
1.0868e-83
1.10745e-83
1.11735e-83
1.09049e-83
1.11401e-83
1.11512e-83
9.51639e-84
9.49635e-84
9.43999e-84
9.60531e-84
9.71655e-84
9.68213e-84
9.49719e-84
9.51152e-84
9.7811e-84
9.44954e-84
9.69278e-84
9.70603e-84
9.47209e-84
9.79899e-84
9.76102e-84
9.94754e-84
9.62316e-84
9.83502e-84
9.70253e-84
9.97561e-84
6.97255e-84
7.02732e-84
6.98337e-84
6.93261e-84
7.07722e-84
7.0148e-84
7.11372e-84
7.01766e-84
7.1079e-84
7.16869e-84
7.02788e-84
7.21678e-84
7.00378e-84
7.27284e-84
7.02141e-84
7.01978e-84
7.10356e-84
7.22173e-84
7.09752e-84
7.30429e-84
2.90788e-99
2.87023e-99
2.91759e-99
2.82049e-99
2.88315e-99
2.87807e-99
2.88177e-99
2.80012e-99
2.82803e-99
2.901e-99
2.83371e-99
2.9189e-99
2.82547e-99
2.89612e-99
2.80395e-99
2.92263e-99
2.79755e-99
2.83681e-99
2.8651e-99
2.77193e-99
2.31075e-96
2.28049e-96
2.31761e-96
2.24155e-96
2.29032e-96
2.28697e-96
2.28973e-96
2.22489e-96
2.24724e-96
2.30491e-96
2.25206e-96
2.3189e-96
2.24571e-96
2.30142e-96
2.2286e-96
2.32232e-96
2.22354e-96
2.25445e-96
2.27636e-96
2.20328e-96
9.86377e-94
9.73309e-94
9.88933e-94
9.5694e-94
9.77317e-94
9.76183e-94
9.77278e-94
9.49624e-94
9.59234e-94
9.83717e-94
9.61416e-94
9.89579e-94
9.5879e-94
9.82388e-94
9.51475e-94
9.91231e-94
9.49331e-94
9.62408e-94
9.71505e-94
9.40732e-94
2.41074e-91
2.37845e-91
2.41607e-91
2.33906e-91
2.38777e-91
2.38574e-91
2.38821e-91
2.3207e-91
2.34435e-91
2.40386e-91
2.35e-91
2.41792e-91
2.34379e-91
2.40101e-91
2.32588e-91
2.42242e-91
2.32069e-91
2.35236e-91
2.37395e-91
2.2998e-91
4.189e-89
4.13228e-89
4.19662e-89
4.0649e-89
4.14764e-89
4.1454e-89
4.14932e-89
4.03218e-89
4.07355e-89
4.17634e-89
4.08387e-89
4.20027e-89
4.07345e-89
4.1721e-89
4.04226e-89
4.2089e-89
4.03337e-89
4.08788e-89
4.12422e-89
3.99726e-89
5.0433e-87
4.97433e-87
5.05051e-87
4.89451e-87
4.99183e-87
4.9907e-87
4.99498e-87
4.85418e-87
4.90433e-87
5.02732e-87
4.91738e-87
5.05553e-87
4.90528e-87
5.02309e-87
4.86762e-87
5.06684e-87
4.85707e-87
4.92204e-87
4.96428e-87
4.81375e-87
4.19474e-85
4.13685e-85
4.19903e-85
4.07153e-85
4.15052e-85
4.15089e-85
4.15409e-85
4.03722e-85
4.07924e-85
4.18076e-85
4.09057e-85
4.20372e-85
4.08084e-85
4.17799e-85
4.04938e-85
4.21382e-85
4.04083e-85
4.09423e-85
4.12802e-85
4.0049e-85
2.33026e-83
2.29795e-83
2.33162e-83
2.26222e-83
2.30495e-83
2.30585e-83
2.30754e-83
2.24282e-83
2.26645e-83
2.32208e-83
2.27294e-83
2.33459e-83
2.26763e-83
2.321e-83
2.25e-83
2.3405e-83
2.24565e-83
2.27473e-83
2.29264e-83
2.22589e-83
3.36474e-82
3.31977e-82
3.36436e-82
3.26837e-82
3.3273e-82
3.32917e-82
3.333e-82
3.24073e-82
3.27746e-82
3.3516e-82
3.28565e-82
3.36995e-82
3.27677e-82
3.35107e-82
3.24983e-82
3.37797e-82
3.2488e-82
3.28594e-82
3.30945e-82
3.22232e-82
2.51267e-82
2.51568e-82
2.51028e-82
2.46845e-82
2.49799e-82
2.49238e-82
2.52038e-82
2.46257e-82
2.52679e-82
2.49596e-82
2.5069e-82
2.523e-82
2.47489e-82
2.49818e-82
2.43598e-82
2.49979e-82
2.50127e-82
2.47027e-82
2.47529e-82
2.5045e-82
3.78932e-82
3.83135e-82
3.85538e-82
3.80045e-82
3.77368e-82
3.79724e-82
3.85399e-82
3.76568e-82
3.88476e-82
3.85429e-82
3.86618e-82
3.86419e-82
3.82201e-82
3.77821e-82
3.74716e-82
3.80032e-82
3.77691e-82
3.77359e-82
3.80337e-82
3.82561e-82
4.42467e-82
4.46295e-82
4.48069e-82
4.41183e-82
4.39033e-82
4.30336e-82
4.40294e-82
4.3177e-82
4.44812e-82
4.55859e-82
4.52032e-82
4.38861e-82
4.51007e-82
4.4352e-82
4.43211e-82
4.46219e-82
4.27236e-82
4.44797e-82
4.36516e-82
4.38579e-82
5.03978e-82
5.15269e-82
5.12297e-82
5.08386e-82
5.1161e-82
5.15825e-82
5.30936e-82
5.10392e-82
5.13049e-82
5.07033e-82
5.09263e-82
5.09492e-82
5.13486e-82
5.12273e-82
5.02679e-82
5.10813e-82
5.14315e-82
5.05404e-82
5.03004e-82
5.05092e-82
5.52227e-82
5.53193e-82
5.58106e-82
5.67743e-82
5.62132e-82
5.69184e-82
5.59206e-82
5.68484e-82
5.6165e-82
5.4031e-82
5.48141e-82
5.48986e-82
5.53366e-82
5.42689e-82
5.4128e-82
5.46207e-82
5.43602e-82
5.53688e-82
5.48118e-82
5.59514e-82
5.62781e-82
5.63565e-82
5.73874e-82
5.689e-82
5.62516e-82
5.70212e-82
5.71158e-82
5.79255e-82
5.62828e-82
5.71824e-82
5.69086e-82
5.69731e-82
5.7519e-82
5.69879e-82
5.65474e-82
5.8394e-82
5.66442e-82
5.60164e-82
5.67371e-82
5.70795e-82
5.66877e-82
5.55382e-82
5.61375e-82
5.56345e-82
5.64927e-82
5.68859e-82
5.70522e-82
5.6508e-82
5.51636e-82
5.56193e-82
5.51423e-82
5.7027e-82
5.66254e-82
5.75656e-82
5.72773e-82
5.73028e-82
5.66944e-82
5.66859e-82
5.59841e-82
5.62782e-82
5.18414e-82
5.24827e-82
5.1889e-82
5.39198e-82
5.23653e-82
5.36359e-82
5.26141e-82
5.31517e-82
5.24212e-82
5.26076e-82
5.25274e-82
5.35359e-82
5.2613e-82
5.41639e-82
5.22145e-82
5.34076e-82
5.31742e-82
5.14925e-82
5.33668e-82
5.32764e-82
4.66203e-82
4.86565e-82
4.79048e-82
4.76048e-82
4.69695e-82
4.92461e-82
4.84282e-82
4.84707e-82
4.81182e-82
4.71716e-82
4.80909e-82
4.90226e-82
4.77733e-82
5.00298e-82
4.80014e-82
4.89113e-82
4.93414e-82
4.81746e-82
4.92046e-82
4.92555e-82
4.23445e-82
4.22542e-82
4.20119e-82
4.27439e-82
4.32286e-82
4.3076e-82
4.22508e-82
4.23395e-82
4.35222e-82
4.20535e-82
4.31272e-82
4.31919e-82
4.21382e-82
4.36016e-82
4.34289e-82
4.4264e-82
4.28204e-82
4.37552e-82
4.31645e-82
4.43749e-82
3.09831e-82
3.12258e-82
3.10343e-82
3.08051e-82
3.1438e-82
3.11679e-82
3.15966e-82
3.11822e-82
3.15658e-82
3.18451e-82
3.12154e-82
3.20536e-82
3.11141e-82
3.23045e-82
3.11892e-82
3.1183e-82
3.1549e-82
3.20763e-82
3.1527e-82
3.24394e-82
1.46051e-97
1.44139e-97
1.4649e-97
1.41678e-97
1.44762e-97
1.4455e-97
1.44725e-97
1.40627e-97
1.42038e-97
1.45687e-97
1.42342e-97
1.46571e-97
1.4194e-97
1.4546e-97
1.40858e-97
1.46783e-97
1.40534e-97
1.4249e-97
1.43879e-97
1.39255e-97
1.14851e-94
1.13332e-94
1.15155e-94
1.11426e-94
1.13799e-94
1.13668e-94
1.13796e-94
1.10576e-94
1.11694e-94
1.14549e-94
1.11948e-94
1.15231e-94
1.11642e-94
1.14389e-94
1.1079e-94
1.15421e-94
1.10538e-94
1.12062e-94
1.13124e-94
1.09536e-94
4.80849e-92
4.74416e-92
4.81936e-92
4.66563e-92
4.76279e-92
4.75877e-92
4.76372e-92
4.62906e-92
4.67619e-92
4.79504e-92
4.68743e-92
4.82307e-92
4.67505e-92
4.78913e-92
4.63929e-92
4.83193e-92
4.62882e-92
4.69206e-92
4.73526e-92
4.58715e-92
1.1648e-89
1.14906e-89
1.16699e-89
1.13033e-89
1.15334e-89
1.15272e-89
1.15382e-89
1.12125e-89
1.13274e-89
1.16137e-89
1.13561e-89
1.16803e-89
1.13272e-89
1.16013e-89
1.12404e-89
1.1704e-89
1.12153e-89
1.13671e-89
1.14685e-89
1.1115e-89
1.9889e-87
1.96176e-87
1.99188e-87
1.9303e-87
1.96865e-87
1.96823e-87
1.96993e-87
1.9144e-87
1.93415e-87
1.98274e-87
1.9393e-87
1.99387e-87
1.93453e-87
1.98095e-87
1.91966e-87
1.99828e-87
1.91546e-87
1.94112e-87
1.95787e-87
1.89842e-87
2.3707e-85
2.33806e-85
2.37333e-85
2.30117e-85
2.34578e-85
2.34603e-85
2.34785e-85
2.2818e-85
2.30551e-85
2.36304e-85
2.31192e-85
2.37601e-85
2.30644e-85
2.36131e-85
2.28865e-85
2.3817e-85
2.28375e-85
2.31401e-85
2.33324e-85
2.26352e-85
1.93958e-83
1.91267e-83
1.94095e-83
1.88298e-83
1.91855e-83
1.91937e-83
1.9207e-83
1.86679e-83
1.88634e-83
1.93301e-83
1.89179e-83
1.94339e-83
1.88746e-83
1.93194e-83
1.87283e-83
1.94835e-83
1.86897e-83
1.8934e-83
1.90848e-83
1.85248e-83
1.06357e-81
1.04876e-81
1.06385e-81
1.03273e-81
1.0517e-81
1.05247e-81
1.05317e-81
1.02371e-81
1.03459e-81
1.05979e-81
1.03764e-81
1.06536e-81
1.0353e-81
1.05941e-81
1.0272e-81
1.06821e-81
1.0253e-81
1.0384e-81
1.04626e-81
1.01637e-81
1.51186e-80
1.49151e-80
1.5113e-80
1.46886e-80
1.49462e-80
1.49602e-80
1.49755e-80
1.45616e-80
1.47269e-80
1.50598e-80
1.47657e-80
1.514e-80
1.47276e-80
1.50586e-80
1.46064e-80
1.51782e-80
1.46006e-80
1.4767e-80
1.48688e-80
1.44818e-80
1.11467e-80
1.11594e-80
1.11379e-80
1.09538e-80
1.10813e-80
1.10602e-80
1.1182e-80
1.09252e-80
1.12115e-80
1.10741e-80
1.11239e-80
1.11924e-80
1.09823e-80
1.1084e-80
1.0811e-80
1.10883e-80
1.10969e-80
1.09604e-80
1.09824e-80
1.11115e-80
1.68543e-80
1.70374e-80
1.71475e-80
1.69008e-80
1.67825e-80
1.68851e-80
1.71344e-80
1.67436e-80
1.72736e-80
1.71369e-80
1.71938e-80
1.71791e-80
1.69978e-80
1.68028e-80
1.6666e-80
1.68982e-80
1.67937e-80
1.67819e-80
1.69139e-80
1.70104e-80
1.9574e-80
1.97419e-80
1.9821e-80
1.95126e-80
1.94231e-80
1.90402e-80
1.94811e-80
1.91066e-80
1.96778e-80
2.01624e-80
1.99918e-80
1.94152e-80
1.99491e-80
1.96186e-80
1.96047e-80
1.9737e-80
1.89003e-80
1.96716e-80
1.93069e-80
1.93979e-80
2.23161e-80
2.28075e-80
2.26815e-80
2.25108e-80
2.26539e-80
2.28394e-80
2.35017e-80
2.26021e-80
2.27166e-80
2.24469e-80
2.25458e-80
2.25579e-80
2.27374e-80
2.26899e-80
2.22649e-80
2.26197e-80
2.27737e-80
2.23829e-80
2.22765e-80
2.23676e-80
2.42654e-80
2.43016e-80
2.45127e-80
2.494e-80
2.4696e-80
2.50018e-80
2.45645e-80
2.49755e-80
2.4666e-80
2.37422e-80
2.40805e-80
2.41225e-80
2.43109e-80
2.38457e-80
2.37806e-80
2.40007e-80
2.3879e-80
2.43246e-80
2.40792e-80
2.45811e-80
2.47758e-80
2.4805e-80
2.52602e-80
2.50374e-80
2.47598e-80
2.51048e-80
2.51403e-80
2.54977e-80
2.47776e-80
2.51747e-80
2.50547e-80
2.50834e-80
2.53155e-80
2.50916e-80
2.48983e-80
2.57016e-80
2.49365e-80
2.46587e-80
2.49753e-80
2.51168e-80
2.47121e-80
2.42111e-80
2.44633e-80
2.42511e-80
2.4626e-80
2.47978e-80
2.48657e-80
2.46299e-80
2.4048e-80
2.42436e-80
2.40326e-80
2.48512e-80
2.46839e-80
2.50911e-80
2.49668e-80
2.49739e-80
2.47118e-80
2.47115e-80
2.44045e-80
2.45314e-80
2.26859e-80
2.29689e-80
2.27067e-80
2.35919e-80
2.2909e-80
2.3464e-80
2.30165e-80
2.32585e-80
2.29377e-80
2.30214e-80
2.29867e-80
2.34259e-80
2.30196e-80
2.36978e-80
2.28479e-80
2.33652e-80
2.32658e-80
2.25352e-80
2.33507e-80
2.33135e-80
2.02181e-80
2.1095e-80
2.07733e-80
2.06377e-80
2.0367e-80
2.13485e-80
2.09931e-80
2.10144e-80
2.08606e-80
2.04531e-80
2.08463e-80
2.12494e-80
2.0713e-80
2.16822e-80
2.0807e-80
2.12004e-80
2.13835e-80
2.08862e-80
2.13293e-80
2.13521e-80
1.84935e-80
1.84547e-80
1.83523e-80
1.86699e-80
1.88761e-80
1.88113e-80
1.84496e-80
1.84997e-80
1.90077e-80
1.83698e-80
1.88348e-80
1.88659e-80
1.84001e-80
1.90432e-80
1.89654e-80
1.93323e-80
1.8703e-80
1.91063e-80
1.88488e-80
1.93746e-80
1.34403e-80
1.35448e-80
1.34634e-80
1.33628e-80
1.36334e-80
1.35189e-80
1.36996e-80
1.35256e-80
1.36847e-80
1.38092e-80
1.35349e-80
1.38975e-80
1.34931e-80
1.40072e-80
1.3525e-80
1.35231e-80
1.36781e-80
1.39082e-80
1.36707e-80
1.40639e-80
7.24949e-96
7.1536e-96
7.26892e-96
7.03335e-96
7.18322e-96
7.17494e-96
7.18305e-96
6.97977e-96
7.05027e-96
7.23069e-96
7.06626e-96
7.27377e-96
7.04695e-96
7.22027e-96
6.99311e-96
7.28552e-96
6.97697e-96
7.07332e-96
7.14057e-96
6.91379e-96
5.69256e-93
5.61648e-93
5.70573e-93
5.52354e-93
5.63861e-93
5.63388e-93
5.63976e-93
5.48033e-93
5.53606e-93
5.677e-93
5.54937e-93
5.71018e-93
5.53472e-93
5.66974e-93
5.49238e-93
5.72053e-93
5.47979e-93
5.55478e-93
5.6061e-93
5.43044e-93
2.34158e-90
2.30997e-90
2.34612e-90
2.27234e-90
2.3186e-90
2.31738e-90
2.31959e-90
2.2541e-90
2.27718e-90
2.33483e-90
2.28295e-90
2.34821e-90
2.27713e-90
2.33222e-90
2.25967e-90
2.35291e-90
2.25455e-90
2.28512e-90
2.30559e-90
2.23437e-90
5.61392e-88
5.5374e-88
5.62269e-88
5.44866e-88
5.55693e-88
5.5558e-88
5.56061e-88
5.40385e-88
5.45954e-88
5.59699e-88
5.47407e-88
5.62838e-88
5.46065e-88
5.59163e-88
5.41867e-88
5.64074e-88
5.40657e-88
5.47917e-88
5.52665e-88
5.35847e-88
9.42051e-86
9.29097e-86
9.43161e-86
9.14447e-86
9.32169e-86
9.32281e-86
9.33001e-86
9.06748e-86
9.16152e-86
9.39074e-86
9.18702e-86
9.44225e-86
9.16535e-86
9.38328e-86
9.09465e-86
9.46471e-86
9.07477e-86
9.19536e-86
9.27224e-86
8.99453e-86
1.10899e-83
1.09362e-83
1.10987e-83
1.07666e-83
1.097e-83
1.09749e-83
1.09824e-83
1.06741e-83
1.07855e-83
1.10535e-83
1.08168e-83
1.11128e-83
1.07923e-83
1.10466e-83
1.07087e-83
1.11411e-83
1.06859e-83
1.08263e-83
1.09133e-83
1.05919e-83
8.92423e-82
8.79973e-82
8.92771e-82
8.66552e-82
8.82482e-82
8.83162e-82
8.837e-82
8.58954e-82
8.68002e-82
8.89366e-82
8.70606e-82
8.94024e-82
8.68697e-82
8.88965e-82
8.61926e-82
8.96443e-82
8.60181e-82
8.71312e-82
8.78004e-82
8.52648e-82
4.82391e-80
4.7565e-80
4.82371e-80
4.6851e-80
4.7687e-80
4.77387e-80
4.77664e-80
4.64341e-80
4.69305e-80
4.80664e-80
4.70739e-80
4.83131e-80
4.69721e-80
4.80539e-80
4.66018e-80
4.84489e-80
4.65189e-80
4.7106e-80
4.74488e-80
4.61169e-80
6.75063e-79
6.65919e-79
6.74642e-79
6.56001e-79
6.67181e-79
6.68052e-79
6.6865e-79
6.50211e-79
6.57599e-79
6.72451e-79
6.59417e-79
6.75928e-79
6.57801e-79
6.72454e-79
6.52375e-79
6.77733e-79
6.52066e-79
6.59481e-79
6.63852e-79
6.46776e-79
4.91096e-79
4.91623e-79
4.90784e-79
4.82736e-79
4.88198e-79
4.87434e-79
4.92693e-79
4.81367e-79
4.94042e-79
4.87959e-79
4.9021e-79
4.93104e-79
4.83992e-79
4.88395e-79
4.76503e-79
4.88459e-79
4.88932e-79
4.82963e-79
4.83922e-79
4.89582e-79
7.44749e-79
7.52672e-79
7.57677e-79
7.46674e-79
7.41482e-79
7.45912e-79
7.5679e-79
7.39616e-79
7.63049e-79
7.5696e-79
7.59648e-79
7.58738e-79
7.5101e-79
7.42381e-79
7.36397e-79
7.46463e-79
7.41832e-79
7.4144e-79
7.4725e-79
7.5141e-79
8.60688e-79
8.67998e-79
8.71506e-79
8.57782e-79
8.54099e-79
8.37347e-79
8.5674e-79
8.40397e-79
8.65242e-79
8.86376e-79
8.78816e-79
8.53731e-79
8.77055e-79
8.62559e-79
8.61932e-79
8.6772e-79
8.31066e-79
8.64731e-79
8.48777e-79
8.52761e-79
9.82564e-79
1.00382e-78
9.98521e-79
9.91119e-79
9.97431e-79
1.00555e-78
1.0344e-78
9.95251e-79
1.00015e-78
9.88132e-79
9.92484e-79
9.93104e-79
1.00112e-78
9.99305e-79
9.80586e-79
9.95976e-79
1.0027e-78
9.85668e-79
9.80973e-79
9.84931e-79
1.06181e-78
1.06312e-78
1.07216e-78
1.09102e-78
1.08045e-78
1.09366e-78
1.07456e-78
1.09269e-78
1.07874e-78
1.03894e-78
1.05349e-78
1.05554e-78
1.0636e-78
1.04342e-78
1.04044e-78
1.05023e-78
1.04458e-78
1.06418e-78
1.05342e-78
1.07543e-78
1.08664e-78
1.08767e-78
1.10768e-78
1.09775e-78
1.08575e-78
1.10113e-78
1.10241e-78
1.11813e-78
1.08668e-78
1.10415e-78
1.0989e-78
1.1002e-78
1.10999e-78
1.10062e-78
1.09216e-78
1.12697e-78
1.09367e-78
1.08139e-78
1.09526e-78
1.10106e-78
1.07642e-78
1.05459e-78
1.06517e-78
1.05626e-78
1.07262e-78
1.08009e-78
1.08285e-78
1.07265e-78
1.04749e-78
1.05589e-78
1.04657e-78
1.08208e-78
1.07512e-78
1.09277e-78
1.08741e-78
1.08752e-78
1.07625e-78
1.07641e-78
1.06295e-78
1.06843e-78
9.92098e-79
1.0046e-78
9.93017e-79
1.03157e-78
1.00158e-78
1.02582e-78
1.00624e-78
1.01711e-78
1.00304e-78
1.00679e-78
1.00528e-78
1.02441e-78
1.00653e-78
1.03616e-78
9.99126e-79
1.02156e-78
1.01733e-78
9.85596e-79
1.02107e-78
1.01954e-78
8.79221e-79
9.17073e-79
9.03273e-79
8.97128e-79
8.85583e-79
9.27997e-79
9.12516e-79
9.1357e-79
9.06848e-79
8.89253e-79
9.06111e-79
9.23599e-79
9.00507e-79
9.42245e-79
9.04389e-79
9.21443e-79
9.29247e-79
9.08015e-79
9.27115e-79
9.2814e-79
8.09528e-79
8.07849e-79
8.03521e-79
8.17338e-79
8.26123e-79
8.23352e-79
8.07464e-79
8.10159e-79
8.32029e-79
8.0426e-79
8.24437e-79
8.25925e-79
8.05282e-79
8.33604e-79
8.30109e-79
8.4626e-79
8.18758e-79
8.36205e-79
8.24941e-79
8.47843e-79
5.85288e-79
5.89818e-79
5.86347e-79
5.81907e-79
5.9351e-79
5.88649e-79
5.96301e-79
5.88973e-79
5.95565e-79
6.01142e-79
5.89137e-79
6.04894e-79
5.87421e-79
6.0971e-79
5.88773e-79
5.8872e-79
5.95317e-79
6.0539e-79
5.95092e-79
6.12091e-79
3.57484e-94
3.52708e-94
3.58327e-94
3.46874e-94
3.54104e-94
3.53808e-94
3.54178e-94
3.44164e-94
3.47659e-94
3.56525e-94
3.48494e-94
3.58608e-94
3.47575e-94
3.56052e-94
3.44915e-94
3.59248e-94
3.44111e-94
3.48829e-94
3.52063e-94
3.41012e-94
2.82463e-91
2.78652e-91
2.83025e-91
2.74116e-91
2.79697e-91
2.79553e-91
2.7982e-91
2.71918e-91
2.74698e-91
2.81667e-91
2.75395e-91
2.8328e-91
2.74695e-91
2.81338e-91
2.72588e-91
2.83841e-91
2.71959e-91
2.75654e-91
2.78132e-91
2.69523e-91
1.14045e-88
1.12492e-88
1.14229e-88
1.1069e-88
1.1289e-88
1.12868e-88
1.12965e-88
1.0978e-88
1.1091e-88
1.13708e-88
1.11205e-88
1.14345e-88
1.10933e-88
1.13593e-88
1.1008e-88
1.14594e-88
1.09829e-88
1.11307e-88
1.12276e-88
1.08851e-88
2.69891e-86
2.66183e-86
2.70227e-86
2.61989e-86
2.67068e-86
2.67103e-86
2.67309e-86
2.59786e-86
2.62475e-86
2.69061e-86
2.63208e-86
2.70536e-86
2.6259e-86
2.68832e-86
2.60564e-86
2.71175e-86
2.5998e-86
2.63446e-86
2.6566e-86
2.5768e-86
4.44975e-84
4.38813e-84
4.45361e-84
4.32014e-84
4.40172e-84
4.40376e-84
4.40675e-84
4.28298e-84
4.32759e-84
4.43549e-84
4.34019e-84
4.45923e-84
4.3304e-84
4.43243e-84
4.29687e-84
4.47057e-84
4.28747e-84
4.34402e-84
4.37916e-84
4.24977e-84
5.1678e-82
5.09573e-82
5.17031e-82
5.01812e-82
5.11037e-82
5.11443e-82
5.11745e-82
4.97409e-82
5.02626e-82
5.15066e-82
5.04146e-82
5.17759e-82
5.03056e-82
5.14797e-82
4.99141e-82
5.19163e-82
4.98085e-82
5.04574e-82
5.08487e-82
4.93725e-82
4.0892e-80
4.03187e-80
4.08956e-80
3.97149e-80
4.04245e-80
4.047e-80
4.04908e-80
3.93599e-80
3.97764e-80
4.07511e-80
3.99004e-80
4.0959e-80
3.9817e-80
4.07367e-80
3.9505e-80
4.1076e-80
3.94261e-80
3.99317e-80
4.02267e-80
3.90829e-80
2.17655e-78
2.14602e-78
2.17582e-78
2.1144e-78
2.15102e-78
2.15412e-78
2.15518e-78
2.09524e-78
2.11776e-78
2.16874e-78
2.12445e-78
2.17957e-78
2.12007e-78
2.16838e-78
2.10325e-78
2.18601e-78
2.09961e-78
2.12583e-78
2.14066e-78
2.0816e-78
2.99819e-77
2.95734e-77
2.99557e-77
2.91417e-77
2.96237e-77
2.96736e-77
2.96963e-77
2.88793e-77
2.92077e-77
2.98669e-77
2.92923e-77
3.00167e-77
2.92243e-77
2.98693e-77
2.89827e-77
3.01011e-77
2.89669e-77
2.92954e-77
2.94816e-77
2.87323e-77
2.15085e-77
2.15303e-77
2.14985e-77
2.11487e-77
2.1381e-77
2.13548e-77
2.15803e-77
2.10839e-77
2.16416e-77
2.13741e-77
2.1475e-77
2.15963e-77
2.12036e-77
2.13931e-77
2.08781e-77
2.13904e-77
2.14152e-77
2.11558e-77
2.11974e-77
2.1444e-77
3.2723e-77
3.30637e-77
3.32896e-77
3.28017e-77
3.25751e-77
3.27654e-77
3.3237e-77
3.2487e-77
3.35168e-77
3.32475e-77
3.33728e-77
3.33218e-77
3.29944e-77
3.2615e-77
3.23546e-77
3.27884e-77
3.25842e-77
3.25727e-77
3.28269e-77
3.3005e-77
3.76498e-77
3.79665e-77
3.81212e-77
3.75138e-77
3.73636e-77
3.66346e-77
3.7483e-77
3.67738e-77
3.78484e-77
3.87654e-77
3.84319e-77
3.73467e-77
3.83599e-77
3.77277e-77
3.76995e-77
3.79515e-77
3.63542e-77
3.78157e-77
3.71217e-77
3.7295e-77
4.3052e-77
4.39665e-77
4.37451e-77
4.34261e-77
4.37027e-77
4.40563e-77
4.53065e-77
4.36119e-77
4.382e-77
4.32879e-77
4.34783e-77
4.3509e-77
4.38654e-77
4.3798e-77
4.29775e-77
4.36416e-77
4.39338e-77
4.31952e-77
4.29889e-77
4.31599e-77
4.62865e-77
4.63318e-77
4.67165e-77
4.75454e-77
4.709e-77
4.7658e-77
4.68276e-77
4.76243e-77
4.69981e-77
4.52909e-77
4.59131e-77
4.60123e-77
4.63549e-77
4.54835e-77
4.53477e-77
4.57809e-77
4.55212e-77
4.63799e-77
4.59095e-77
4.68706e-77
4.74952e-77
4.75289e-77
4.84056e-77
4.79647e-77
4.74477e-77
4.81314e-77
4.81744e-77
4.88638e-77
4.74955e-77
4.82606e-77
4.80319e-77
4.80907e-77
4.85017e-77
4.81125e-77
4.77434e-77
4.92452e-77
4.7801e-77
4.72619e-77
4.78656e-77
4.81013e-77
4.67704e-77
4.5823e-77
4.6265e-77
4.5893e-77
4.66031e-77
4.6928e-77
4.70394e-77
4.66006e-77
4.55153e-77
4.58747e-77
4.54644e-77
4.69989e-77
4.67118e-77
4.74734e-77
4.72442e-77
4.72404e-77
4.67565e-77
4.67709e-77
4.61842e-77
4.64195e-77
4.32969e-77
4.38471e-77
4.33366e-77
4.50114e-77
4.36984e-77
4.47541e-77
4.38993e-77
4.43859e-77
4.37699e-77
4.3938e-77
4.38719e-77
4.47043e-77
4.39193e-77
4.52103e-77
4.36012e-77
4.45705e-77
4.43915e-77
4.30169e-77
4.45558e-77
4.4493e-77
3.81978e-77
3.98298e-77
3.92387e-77
3.89613e-77
3.84692e-77
4.03e-77
3.96262e-77
3.96776e-77
3.93839e-77
3.86252e-77
3.93467e-77
4.0105e-77
3.91121e-77
4.09073e-77
3.92718e-77
4.00103e-77
4.03424e-77
3.94371e-77
4.02592e-77
4.03057e-77
3.54138e-77
3.53411e-77
3.51587e-77
3.57592e-77
3.61328e-77
3.60147e-77
3.53171e-77
3.54572e-77
3.63975e-77
3.51899e-77
3.60646e-77
3.61354e-77
3.52212e-77
3.64675e-77
3.63108e-77
3.70212e-77
3.58202e-77
3.65741e-77
3.60819e-77
3.70784e-77
2.55796e-77
2.5777e-77
2.56284e-77
2.54316e-77
2.59307e-77
2.57239e-77
2.60488e-77
2.57394e-77
2.60126e-77
2.62633e-77
2.57359e-77
2.64232e-77
2.56654e-77
2.66354e-77
2.5723e-77
2.5722e-77
2.60038e-77
2.64461e-77
2.5998e-77
2.67355e-77
1.79786e-92
1.77361e-92
1.80152e-92
1.74475e-92
1.7803e-92
1.77938e-92
1.78108e-92
1.73078e-92
1.74845e-92
1.79289e-92
1.75288e-92
1.80315e-92
1.74843e-92
1.79072e-92
1.73502e-92
1.80668e-92
1.73094e-92
1.75451e-92
1.77034e-92
1.71543e-92
1.40046e-89
1.38139e-89
1.4028e-89
1.35928e-89
1.38631e-89
1.38605e-89
1.38725e-89
1.34812e-89
1.36197e-89
1.39641e-89
1.3656e-89
1.40423e-89
1.36227e-89
1.39494e-89
1.3518e-89
1.40725e-89
1.34865e-89
1.36685e-89
1.37879e-89
1.33663e-89
5.54953e-87
5.47333e-87
5.55677e-87
5.38716e-87
5.49162e-87
5.4924e-87
5.49662e-87
5.34188e-87
5.39706e-87
5.53281e-87
5.41215e-87
5.56312e-87
5.39948e-87
5.52783e-87
5.35783e-87
5.57613e-87
5.34553e-87
5.41699e-87
5.46272e-87
5.29817e-87
1.29447e-84
1.27655e-84
1.29568e-84
1.25679e-84
1.28054e-84
1.28115e-84
1.28201e-84
1.24599e-84
1.25894e-84
1.29043e-84
1.26262e-84
1.29734e-84
1.25979e-84
1.28947e-84
1.25004e-84
1.30061e-84
1.24722e-84
1.26373e-84
1.27402e-84
1.23624e-84
2.09638e-82
2.06715e-82
2.09755e-82
2.0357e-82
2.07312e-82
2.0748e-82
2.076e-82
2.01782e-82
2.03891e-82
2.08959e-82
2.04511e-82
2.10049e-82
2.04072e-82
2.08836e-82
2.02486e-82
2.10617e-82
2.02041e-82
2.04688e-82
2.06287e-82
2.00274e-82
2.39855e-80
2.3649e-80
2.39899e-80
2.32955e-80
2.37118e-80
2.37391e-80
2.37508e-80
2.3087e-80
2.333e-80
2.39055e-80
2.34034e-80
2.40272e-80
2.33554e-80
2.38954e-80
2.31729e-80
2.40961e-80
2.31239e-80
2.34229e-80
2.35979e-80
2.29225e-80
1.86576e-78
1.83947e-78
1.86537e-78
1.81245e-78
1.84389e-78
1.84663e-78
1.84739e-78
1.79594e-78
1.81501e-78
1.85932e-78
1.82088e-78
1.86854e-78
1.81728e-78
1.85884e-78
1.80297e-78
1.87417e-78
1.79939e-78
1.82228e-78
1.83521e-78
1.78381e-78
9.77007e-77
9.63253e-77
9.76398e-77
9.49333e-77
9.65273e-77
9.67021e-77
9.67397e-77
9.40577e-77
9.50726e-77
9.73512e-77
9.53834e-77
9.78234e-77
9.51973e-77
9.73439e-77
9.44376e-77
9.81263e-77
9.42769e-77
9.54433e-77
9.60806e-77
9.3473e-77
1.32458e-75
1.30644e-75
1.3231e-75
1.28776e-75
1.3084e-75
1.31111e-75
1.31194e-75
1.27594e-75
1.29045e-75
1.31956e-75
1.29436e-75
1.32597e-75
1.29153e-75
1.31977e-75
1.28082e-75
1.32988e-75
1.28004e-75
1.29452e-75
1.30238e-75
1.26968e-75
9.36575e-76
9.37468e-76
9.36306e-76
9.21184e-76
9.30996e-76
9.30174e-76
9.39774e-76
9.18151e-76
9.42543e-76
9.30853e-76
9.35345e-76
9.40392e-76
9.23569e-76
9.31672e-76
9.09508e-76
9.31312e-76
9.32572e-76
9.21368e-76
9.23164e-76
9.33841e-76
1.42984e-75
1.44441e-75
1.45454e-75
1.43303e-75
1.4232e-75
1.43132e-75
1.45164e-75
1.41908e-75
1.46408e-75
1.45225e-75
1.45803e-75
1.45532e-75
1.44154e-75
1.42495e-75
1.41368e-75
1.43227e-75
1.42331e-75
1.42306e-75
1.43412e-75
1.44169e-75
1.6385e-75
1.65214e-75
1.65894e-75
1.6322e-75
1.62613e-75
1.59458e-75
1.63149e-75
1.60089e-75
1.6471e-75
1.6867e-75
1.67205e-75
1.62537e-75
1.66913e-75
1.64172e-75
1.64045e-75
1.65137e-75
1.58213e-75
1.64523e-75
1.61522e-75
1.62271e-75
1.87719e-75
1.91631e-75
1.90713e-75
1.89347e-75
1.90551e-75
1.92085e-75
1.97473e-75
1.90178e-75
1.91056e-75
1.88712e-75
1.8954e-75
1.89689e-75
1.91265e-75
1.91026e-75
1.87447e-75
1.90297e-75
1.9156e-75
1.88375e-75
1.87471e-75
1.88207e-75
2.00991e-75
2.01135e-75
2.02767e-75
2.06395e-75
2.0444e-75
2.06874e-75
2.03276e-75
2.06763e-75
2.03964e-75
1.96675e-75
1.99323e-75
1.99797e-75
2.01246e-75
1.97498e-75
1.96884e-75
1.98792e-75
1.97607e-75
2.01353e-75
1.99306e-75
2.03485e-75
2.06833e-75
2.06931e-75
2.10756e-75
2.08809e-75
2.06591e-75
2.09617e-75
2.09746e-75
2.1276e-75
2.06829e-75
2.10167e-75
2.09173e-75
2.09438e-75
2.11154e-75
2.09551e-75
2.07945e-75
2.14398e-75
2.08159e-75
2.05801e-75
2.08419e-75
2.09369e-75
2.02828e-75
1.98731e-75
2.0057e-75
1.99021e-75
2.02094e-75
2.03504e-75
2.03949e-75
2.0207e-75
1.97397e-75
1.98933e-75
1.97131e-75
2.03744e-75
2.02569e-75
2.05844e-75
2.04865e-75
2.04816e-75
2.0274e-75
2.02835e-75
2.00286e-75
2.01295e-75
1.88592e-75
1.91006e-75
1.8876e-75
1.96018e-75
1.90285e-75
1.94874e-75
1.91151e-75
1.9332e-75
1.9063e-75
1.91383e-75
1.91092e-75
1.9471e-75
1.91268e-75
1.96883e-75
1.89908e-75
1.94083e-75
1.9333e-75
1.8739e-75
1.94049e-75
1.93792e-75
1.65913e-75
1.72946e-75
1.70416e-75
1.69168e-75
1.6707e-75
1.7497e-75
1.72038e-75
1.72285e-75
1.71001e-75
1.67733e-75
1.70817e-75
1.74105e-75
1.69838e-75
1.77556e-75
1.70493e-75
1.7369e-75
1.75102e-75
1.71244e-75
1.74781e-75
1.74991e-75
1.54841e-75
1.54531e-75
1.53763e-75
1.56369e-75
1.57953e-75
1.57455e-75
1.54394e-75
1.55104e-75
1.59139e-75
1.53893e-75
1.57682e-75
1.58017e-75
1.53972e-75
1.59453e-75
1.58749e-75
1.6187e-75
1.56634e-75
1.59884e-75
1.57737e-75
1.62069e-75
1.11395e-75
1.1225e-75
1.11616e-75
1.1075e-75
1.1289e-75
1.12011e-75
1.13383e-75
1.12084e-75
1.13211e-75
1.1433e-75
1.12024e-75
1.15009e-75
1.11735e-75
1.1594e-75
1.11982e-75
1.11984e-75
1.13178e-75
1.15117e-75
1.13172e-75
1.16362e-75
9.03519e-91
8.91219e-91
9.05071e-91
8.76959e-91
8.9441e-91
8.94245e-91
8.95015e-91
8.6977e-91
8.78687e-91
9.00954e-91
8.81034e-91
9.06e-91
8.78887e-91
8.99963e-91
8.72129e-91
9.07926e-91
8.70057e-91
8.81828e-91
8.89563e-91
8.623e-91
6.92579e-88
6.83071e-88
6.9352e-88
6.72324e-88
6.85369e-88
6.85471e-88
6.85996e-88
6.6668e-88
6.73553e-88
6.90538e-88
6.75441e-88
6.94319e-88
6.73865e-88
6.89884e-88
6.68669e-88
6.95929e-88
6.67097e-88
6.76042e-88
6.81774e-88
6.6118e-88
2.69337e-85
2.6561e-85
2.69605e-85
2.61502e-85
2.66444e-85
2.66573e-85
2.66751e-85
2.59255e-85