/*--------------------------------*- C++ -*----------------------------------*\
| =========                 |                                                 |
| \\      /  F ield         | OpenFOAM: The Open Source CFD Toolbox           |
|  \\    /   O peration     | Version:  2212                                  |
|   \\  /    A nd           | Website:  www.openfoam.com                      |
|    \\/     M anipulation  |                                                 |
\*---------------------------------------------------------------------------*/
FoamFile
{
    version     2.0;
    format      ascii;
    arch        "LSB;label=32;scalar=64";
    class       volScalarField;
    location    "0.0348";
    object      p;
}
// * * * * * * * * * * * * * * * * * * * * * * * * * * * * * * * * * * * * * //

dimensions      [1 -1 -2 0 0 0 0];

internalField   nonuniform List<scalar> 
2308
(
597.428
599.847
600.33
596.678
597.371
597.308
595.956
596.471
597.382
606.159
603.271
600.509
599.688
599.093
598.351
598
597.88
597.288
597.294
597.359
597.628
598.302
598.862
599.964
602.019
605.463
609.125
612.569
596.692
597.861
615.204
616.519
616.712
616.264
614.971
613.5
612.12
611
610.438
610.643
611.497
612.994
615.099
616.98
620.503
620.525
616.496
614.538
612.518
611.149
610.439
610.324
610.853
611.862
613.124
614.532
615.961
616.527
616.489
615.358
612.967
609.698
606.264
603.42
601.415
600.148
599.429
598.836
598.224
597.978
597.934
617.733
617.363
595.975
595.831
595.872
596.21
596.886
598.156
600.591
604.092
607.621
611.228
613.977
615.566
616.156
615.908
614.936
613.506
612.091
610.934
610.392
610.706
611.687
613.284
615.367
617.022
619.851
597.35
617.262
597.916
598.012
616.335
620.027
615.684
613.825
611.975
610.735
610.133
610.04
610.449
611.25
612.359
613.672
615.174
615.86
615.897
614.877
612.605
609.219
605.838
602.888
600.697
599.314
598.547
597.804
597.438
597.368
597.486
595.949
597.055
597.482
597.265
594.472
594.034
593.621
593.523
593.673
594.329
595.856
598.377
601.645
605.14
608.722
611.703
613.778
614.915
615.009
614.475
613.218
611.851
610.744
610.313
610.747
611.777
613.36
615.248
616.553
618.593
615.939
621.58
622.696
624.157
625.606
596.863
626.617
595.932
596.263
598.054
596.913
597.171
597.499
597.689
621.087
622.042
622.637
622.744
622.358
621.291
626.648
615.302
619.249
614.796
613.129
611.439
610.29
609.666
609.525
609.76
610.364
611.318
612.552
613.916
614.612
614.611
613.578
611.322
607.986
604.732
601.9
599.741
598.298
597.378
596.74
596.496
596.513
596.738
595.502
598.868
597.348
595.906
595.529
595.122
594.674
594.103
593.315
592.578
591.855
591.261
591.056
591.183
591.788
593.366
595.861
598.969
602.483
606.152
609.407
611.919
613.505
614.054
613.712
612.722
611.504
610.53
610.22
610.714
611.716
613.192
614.761
615.714
617.004
614.779
620.612
618.247
611.009
596.692
613.055
597.484
596.682
596.396
597.794
596.685
620.101
625.946
614.553
618.494
614.027
612.532
610.933
609.8
609.093
608.826
608.897
609.347
610.186
611.348
612.601
613.199
613.203
612.137
609.953
606.931
603.882
601.246
599.182
597.693
596.699
596.092
595.871
595.908
596.117
596.991
597.547
596.027
595.31
594.869
594.305
593.63
592.804
591.852
590.906
590.03
589.349
589.045
589.168
589.771
591.34
593.757
596.788
600.338
604.083
607.544
610.388
612.306
613.171
613.03
612.272
611.192
610.341
610.106
610.582
611.477
612.77
613.958
614.615
615.277
613.901
619.105
615.604
627.784
626.556
626.428
626.717
627.363
627.74
627.734
627.889
628.371
613.676
613.212
611.509
596.764
597.602
611.448
596.362
597.129
597.599
597.298
598.309
597.24
594.966
594.324
593.657
592.896
592.02
591.066
590.104
589.195
588.491
588.133
588.225
588.861
590.425
592.761
595.761
599.305
603.037
606.546
609.486
611.56
612.553
612.551
611.923
610.941
610.154
609.918
610.309
611.055
612.135
612.979
613.402
613.7
613.069
616.959
614.479
626.596
617.624
619.094
622.61
624.191
623.9
623.889
623.187
622.485
622.603
622.482
621.598
628.749
619
625.133
614.044
617.869
613.504
612.096
610.502
609.313
608.505
608.103
608.053
608.398
609.152
610.255
611.411
611.967
611.976
611.015
609.089
606.552
603.973
601.531
599.532
597.985
596.85
596.141
595.816
595.788
595.917
597.997
596.57
597.219
595.759
597.556
597.337
596.969
596.66
596.347
595.301
595.401
594.772
594.082
593.377
592.626
591.802
590.925
590.058
589.251
588.652
588.389
588.555
589.309
590.836
593.109
596.064
599.546
603.202
606.604
609.361
611.37
612.304
612.324
611.676
610.713
609.909
609.589
609.833
610.417
611.302
611.952
612.214
612.341
612.062
614.896
613.262
623.854
616.203
633.278
635.671
636.435
637.14
635.401
635.708
635.688
635.452
636.361
636.447
636.356
636.513
636.121
620.429
629.161
617.409
624.552
613.947
617.419
613.286
611.802
610.167
608.914
608.06
607.577
607.448
607.718
608.392
609.38
610.396
611.061
611.082
610.365
608.933
606.99
604.712
602.561
600.76
599.229
597.956
596.995
596.415
596.156
596.037
596.095
598.07
598.556
607.356
596.27
596.52
596.885
597.163
597.28
596.02
596.744
596.827
597.588
597.427
620.474
620.541
620.493
619.157
621.919
616.909
615.53
612.007
610.491
612.904
614.934
615.469
616.084
616.912
635.437
619.07
629.468
615.617
624.256
614.568
617.053
613.338
611.649
610.001
608.776
607.936
607.425
607.274
607.487
608.017
608.832
609.71
610.348
610.528
610.193
609.352
608.031
606.609
604.888
603.224
601.539
599.932
598.592
597.637
596.987
596.522
596.08
597.526
598.079
596.367
597.32
594.733
594.01
593.333
592.7
592.081
591.454
590.861
590.306
589.961
589.88
590.206
591.062
592.555
594.686
597.433
600.64
603.993
607.167
609.805
611.588
612.348
612.303
611.53
610.494
609.563
609.078
609.131
609.576
610.32
610.915
611.124
611.177
610.896
613.113
611.785
621.752
614.563
634.499
619.937
599.31
598.677
606.79
597.108
597.734
596.466
616.64
633.917
618.368
628.831
616.483
623.325
615.942
616.607
613.559
611.766
610.164
609.043
608.219
607.73
607.538
607.699
608.095
608.669
609.352
609.933
610.262
610.321
610.144
609.821
608.996
607.659
606.092
604.247
602.3
600.589
599.211
598.098
597.243
596.354
597.448
598.088
649.232
641.902
642.543
639.355
648.618
646.043
653.426
655.384
653.211
651.139
647.856
645.832
645.723
645.897
643.701
640.779
597.699
597.38
597.199
597.017
596.741
597.358
597.108
595.541
596.615
594.762
594.11
593.583
593.164
592.838
592.556
592.31
592.137
592.098
592.273
592.831
593.863
595.398
597.454
599.983
602.816
605.754
608.466
610.644
612.043
612.595
612.356
611.437
610.31
609.147
608.418
608.241
608.565
609.233
609.892
610.14
610.15
609.692
611.411
610.371
619.928
614.04
633.625
624.409
644.193
606.829
596.165
596.827
600.276
598.743
599.491
597.312
608.268
611.988
597.439
596.659
596.798
597.479
613.892
596.511
611.931
637.207
617.229
631.137
619.263
626.851
618.601
621.995
617.255
616.489
613.974
612.221
610.739
609.857
609.138
608.65
608.392
608.317
608.508
608.89
609.33
609.8
610.234
610.711
611.23
611.59
611.226
610.205
608.721
606.795
604.656
602.612
600.792
599.232
598.077
597.218
597.539
597.049
597.348
618.256
619.684
620.477
619.302
615.348
602.326
611.361
592.039
587.545
582.644
584.222
593.968
601.819
603.268
606.007
609.504
606.954
606.278
596.605
597.231
597.115
597.002
596.802
596.536
596.86
599.141
595.472
594.87
594.409
594.086
593.921
593.905
593.992
594.117
594.32
594.637
595.13
595.91
597.025
598.539
600.471
602.75
605.235
607.719
609.952
611.696
612.684
612.971
612.512
611.43
610.05
608.685
607.681
607.265
607.461
608.109
608.895
609.237
609.211
608.552
609.764
609.29
618.367
614.938
633.782
626.184
647.357
604.215
598.016
596.245
597.909
600.392
600.985
601.462
596.308
598.69
600.514
599.53
613.403
609.965
598.124
597.696
597.155
597.326
605.531
605.385
597.788
598.832
600.261
602.093
604.211
606.44
608.773
610.823
612.215
613.105
613.138
612.339
611.252
610.447
609.97
609.589
609.351
609.332
609.516
609.836
610.248
610.714
611.319
612.136
613.103
614.762
616.818
618.383
621.368
620.491
625.136
621.047
628.067
619.561
632.056
611.382
606.986
670.739
662.177
667.553
654.521
655.664
649.301
671.478
665.54
685.004
690.143
685.774
672.786
663.679
660.81
661.686
664.98
666.994
659.144
644.92
642.257
597.717
596.384
599.72
609.252
608.067
606.905
605.761
604.703
604.255
603.946
603.804
596.746
608.804
608.884
614.083
612.096
601.609
602.33
602.922
596.487
598.429
611.337
596.917
596.845
596.765
596.647
596.477
596.388
595.839
595.946
595.579
595.182
594.936
594.788
594.849
595.117
595.534
596.021
596.568
597.207
597.975
598.924
600.124
601.619
603.405
605.417
607.535
609.596
611.411
612.749
613.373
613.419
612.734
611.451
609.813
608.168
606.893
606.277
606.348
607.021
607.957
608.412
608.348
607.567
608.292
608.522
616.626
616.088
634.594
627.911
645.35
609.043
666.583
607.671
606.778
605.586
615.37
607.497
596.29
599.883
605.966
610.987
600.604
599.449
601.801
604.895
603.953
603.123
605.367
605.809
614.223
602.211
599.787
609.204
610.835
602.502
603.056
603.686
598.382
599.557
601.154
603.099
605.387
607.766
610.166
612.293
613.703
614.571
614.458
613.431
612.034
610.915
610.368
610.088
610.15
610.502
611.021
611.614
612.219
612.8
613.383
614.011
614.773
616.141
617.831
619.41
621.446
621.899
624.325
622.796
626.535
622.023
629.616
616.05
639.153
596.047
596.152
596.297
596.392
596.437
596.51
595.68
597.429
596.53
600.819
603.85
603.722
607.097
608.359
604.644
597.796
614.905
595.797
596.643
598
609.821
610.213
609.937
596.677
580.833
567.752
608.693
602.188
592.495
602.577
592.277
556.003
602.393
537.389
550.446
534.214
543.572
574.121
590.176
581.242
576.162
567.085
567.349
573.721
586.083
598.469
608.895
607.998
607.096
606.156
605.285
604.454
600.706
596.329
599.084
604.313
604.584
596.399
601.927
609.088
600.509
598.345
611.04
603.347
611.323
596.444
612.065
610.654
601.978
595.953
596.058
595.978
595.802
595.641
595.548
595.603
595.871
596.369
597.047
597.826
598.674
599.578
600.584
601.707
602.986
604.435
606.066
607.823
609.606
611.299
612.769
613.736
614.106
613.924
613.012
611.488
609.588
607.667
606.118
605.276
605.271
606.01
607.138
607.748
607.676
606.876
607.23
608.148
615.046
616.856
636.737
621.768
648.383
605.84
658.315
576.192
610.872
615.703
612.043
602.203
605.366
606.521
612.633
600.057
597.071
612.527
597.522
595.564
595.399
595.444
595.546
595.675
595.766
595.842
595.925
596.05
596.982
596.239
596.584
606.489
596.535
596.105
597.214
597.924
598.93
600.21
601.886
603.855
606.174
608.582
611.007
613.215
614.745
615.678
615.616
614.571
613.056
611.794
611.207
610.968
611.208
611.809
612.618
613.496
614.325
615.05
615.676
616.288
616.978
617.78
619.292
620.676
622.235
623.103
624.559
624.359
626.212
624.167
628.513
620.535
636.36
608.465
601.186
601.887
602.703
603.644
598.695
611.836
608.478
610.58
612.601
615.782
615.102
615.67
597.934
595.423
596.397
596.38
600.024
602.709
603.127
599.689
603.512
607.179
597.823
600.249
597.727
613.569
597.141
613.738
613.709
609.099
605.156
611.481
596.672
597.328
597.1
604.905
597.805
598.013
599.591
596.317
595.948
610.362
609.68
608.975
608.216
607.474
606.744
606.055
605.409
604.787
598.464
596.447
603.49
601.847
601.529
617.735
597.192
595.761
595.993
596.077
596.107
596.119
596.214
596.444
596.871
597.544
598.414
599.422
600.519
601.652
602.861
604.136
605.492
606.914
608.397
609.919
611.408
612.79
613.971
614.648
614.844
614.461
613.351
611.586
609.407
607.181
605.344
604.339
604.289
605.048
606.493
607.333
607.395
606.655
606.834
608.116
613.92
617.919
636.115
624.003
647.804
616.651
660.333
586.035
689.685
690.421
706.935
701.351
734.992
748.288
675.309
696.945
681.817
741.274
737.813
745.957
739.245
733.426
719.545
700.401
702.58
706.533
708.077
705.828
704.405
694.607
683.912
669.475
659.909
603.027
609.287
596.492
597.36
611.604
594.827
610.973
612.724
597.546
596.749
594.746
594.74
594.847
594.994
595.134
595.252
595.352
595.448
595.593
595.806
596.587
596.877
596.138
596.428
601.244
601.464
605.307
598.679
597.852
615.706
597.349
613.871
607.023
611.279
596.79
599.34
597.886
617.544
616.957
615.894
614.297
612.192
609.769
606.825
601.945
611.438
595.984
599.241
599.944
600.822
601.797
602.883
604.178
597.876
596.648
612.1
603.405
610.909
610.71
610.309
609.829
609.258
608.681
608.109
607.56
607.041
606.558
606.105
605.657
618.356
601.217
596.832
598.068
597.555
611.807
596.948
595.188
595.533
595.902
596.169
596.389
596.586
596.843
597.207
597.75
598.54
599.548
600.724
602.014
603.344
604.722
606.138
607.565
608.969
610.335
611.658
612.9
614.028
614.981
615.451
615.524
614.988
613.704
611.711
609.258
606.753
604.655
603.481
603.36
604.23
605.988
607.178
607.554
606.872
606.984
608.297
613.222
618.149
633.236
625.208
645.214
625.109
653.854
608.125
668.645
574.656
529.861
523.949
491.935
439.446
403.969
407.75
440.604
494.493
445.832
376.26
354.129
372.631
389.1
418.055
448.757
529.259
539.252
535.465
528.882
532.48
531.205
532.117
532.394
555.714
589.696
627.299
641.023
620.41
632.104
624.218
627.815
625.96
626.492
625.67
625.437
624.404
623.531
622.218
621.081
619.778
619.156
618.587
617.962
617.212
616.298
615.237
614.124
613.103
612.341
612.026
612.275
612.892
614.197
615.679
616.582
616.453
615.415
613.689
611.407
609.001
606.62
604.369
602.449
600.793
599.466
598.357
597.556
596.842
596.557
596.371
617.638
597.221
596.171
598.162
599.8
597.212
602.224
601.624
596.125
596.476
596.478
601.574
599.26
599.011
601.698
607.22
603.252
598.277
598.959
597.828
611.771
611.483
605.336
609.462
609.348
608.743
618.943
596.918
609.128
607.34
611.722
598.405
600.36
599.245
605.169
600.353
600.316
596.475
595.6
595.282
595.101
594.978
594.853
594.701
594.51
594.326
594.168
594.076
594.029
601.23
598.21
596.85
604.855
607.661
610.609
613.337
615.595
617.299
618.438
619.028
598.305
597.518
616.393
615.584
614.563
613.649
597.157
620.086
598.557
608.866
597.505
600.868
596.389
598.01
598.888
599.926
601.015
602.176
603.582
605.236
597.885
595.464
597.82
596.787
596.531
596.224
596.323
596.649
597.129
597.892
598.789
599.91
601.247
602.845
604.679
606.811
609.12
611.502
613.839
615.772
616.95
617.318
616.658
615.332
614.054
613.408
613.12
613.427
614.241
615.381
616.662
617.914
619.005
619.886
620.576
621.172
621.797
622.762
623.823
624.993
625.839
626.699
626.921
627.366
627.404
627.869
626.358
629.461
622.712
631.757
595.979
609.531
605.237
743.464
759.361
768.585
811.895
888.627
940.73
953.92
958.909
955.675
947.019
933.537
940.106
946.738
919.925
845.588
811.573
769.67
789.638
773.368
769.841
760.399
765.325
739.222
756.867
697.244
736.219
638.907
625.441
619.456
610.894
610.791
610.524
610.156
609.771
609.377
608.976
608.586
608.212
607.885
607.62
607.362
607.217
611.978
611.272
610.876
610.812
594.53
594.843
595.277
595.754
596.19
596.586
596.945
597.333
597.798
598.43
599.288
600.386
601.685
603.115
604.593
606.126
607.664
609.15
610.543
611.821
612.989
614.043
614.982
615.764
616.109
616.107
615.471
614.057
611.877
609.182
606.413
604.07
602.747
602.617
603.659
605.509
607.176
607.987
607.43
607.481
608.628
612.792
617.854
630.413
626.796
644.45
633.773
662.119
636.982
662.486
642.74
728.797
600.385
598.929
607.083
602.989
598.419
600.48
596.686
596.72
601.588
603.193
593.79
602.698
597.085
602.562
605.25
608.158
611.126
613.898
616.288
618.205
619.553
620.192
614.312
596.059
618.682
617.545
616.493
615.413
593.621
595.282
594.967
594.794
594.675
594.508
594.274
594.011
593.772
593.602
593.539
596.706
599.453
599.415
604.953
600.194
599.686
609.396
607.285
599.812
598.264
597.124
596.454
596.149
596.071
596.285
596.736
597.373
598.179
599.113
600.217
601.506
603.033
604.778
606.809
609.026
611.383
613.784
615.877
617.236
617.8
617.376
616.252
615.056
614.364
614.036
614.319
615.141
616.329
617.711
619.097
620.316
621.275
622.037
622.671
623.311
624.154
625.208
626.282
627.119
627.89
628.153
628.44
628.398
628.211
627.192
627.812
621.398
627.95
589.021
639.149
596.237
597.017
598.052
599.288
600.402
601.551
603.068
604.802
607.167
597.208
602.646
604.978
602.138
606.734
597.972
597.139
612.524
611.432
610.639
610.753
597.4
596.856
611.229
611.177
611.072
610.897
610.697
610.493
610.278
610.037
609.794
609.569
609.392
609.273
609.192
609.154
609.103
610.593
10.1272
10.2671
9.82582
10.7724
10.8408
12.1786
12.873
12.5537
11.6936
11.5622
11.0768
10.9283
10.6211
10.3464
9.59131
8.96002
9.2507
9.14655
8.97541
8.78265
8.53726
8.77648
8.61547
8.73815
8.43182
8.58361
8.13221
8.5641
8.0974
10.4292
594.12
594.571
595.073
595.605
596.151
596.665
597.145
597.601
598.152
598.842
599.724
600.839
602.199
603.733
605.322
606.974
608.613
610.163
611.582
612.808
613.882
614.816
615.631
616.305
616.592
616.548
615.868
614.378
612.059
609.175
606.199
603.655
602.196
602.069
603.227
605.222
607.233
608.495
608.089
608.052
608.952
612.608
617.24
628.303
627.326
642.412
634.887
658.158
623.715
655.628
621.21
664.073
11.4331
607.03
601.231
604.613
598.707
597.149
732.465
561.148
604.427
602.914
11.4396
3312.43
3225.08
2851.42
3279.7
2985.55
3212.57
3045.78
3205.09
3077.22
3171.67
3110.04
3100.43
3103.4
3009.19
3065.04
3007.23
2987.03
3004.08
2981.56
2970.17
2922.16
2914.56
2844.7
3051.84
2808.13
3067.07
2730.5
3095.13
2676.32
742.724
12.9585
3127.25
2612.07
645.218
571.308
657.833
627.612
643.442
636.288
627.792
627.05
612.901
616.569
608.505
609.154
608.929
608.481
605.214
607.27
601.834
603.049
603.48
601.949
609.225
606.127
614.583
612.202
616.801
616.104
616.582
616.872
615.199
615.959
613.255
614.313
610.571
612.005
607.282
608.981
603.938
605.6
600.939
602.333
598.935
599.817
597.608
598.232
596.667
597.19
595.482
596.083
594.443
594.943
593.614
593.986
593.259
593.376
593.479
593.295
594.005
593.728
594.499
594.271
594.675
594.657
595.255
595.131
596.446
595.707
599.194
597.531
601.308
600.134
604.547
602.929
609.123
611.019
611.292
610.922
610.894
611.055
610.965
611.252
611.153
611.387
611.333
611.457
611.423
611.569
611.503
611.582
611.704
609.045
611.139
611.781
612.099
610.35
610.543
610.596
610.375
613.203
611.705
615.416
615.026
618.119
616.839
620.19
619.432
620.58
620.68
618.445
619.822
614.02
616.476
608.294
611.239
602.967
605.464
599.177
600.894
596.912
597.879
595.98
596.273
596.242
595.971
597.457
596.751
599.229
598.286
601.55
600.311
604.685
603.02
608.781
606.64
613.622
611.135
617.359
615.834
617.717
618.021
615.652
616.727
614.512
614.886
615.603
614.78
618.292
616.825
621.196
619.807
623.177
622.335
624.344
623.79
626.048
625.139
628.01
627.253
629.043
628.725
629.093
629.275
627.736
628.877
620.134
628.647
634.388
611.291
612.025
606.313
596.821
2641.19
604.476
2389.76
608.621
612.08
612.046
612.074
612.041
612.035
612.017
612.019
596.921
615.8
604.147
602.97
606.312
594.947
597.512
596.418
597.843
597.623
597.718
598.357
597.924
598.145
599.036
598.351
598.716
599.905
598.885
599.474
617.275
597.731
611.868
596.02
608.716
597.197
610.028
617.001
596.004
596.277
596.681
597.697
596.138
597.033
596.409
597.489
598.673
613.271
597.254
610.086
596.45
595.738
616.668
597.185
610.315
597.799
599.551
596.905
597.051
596.19
597.082
611.655
608.151
598.376
594.083
600.994
610.741
611.035
602.371
607.38
611.114
596.626
596.942
597.07
606.59
597.953
610.171
595.783
598.086
597.356
601.758
608.827
601.604
)
;

boundaryField
{
    wall
    {
        type            zeroGradient;
    }
    outlet
    {
        type            fixedValue;
        value           uniform 1e-05;
    }
    inlet
    {
        type            fixedValue;
        value           uniform 612;
    }
    frontAndBackPlanes
    {
        type            empty;
    }
}


// ************************************************************************* //
