/*--------------------------------*- C++ -*----------------------------------*\
| =========                 |                                                 |
| \\      /  F ield         | OpenFOAM: The Open Source CFD Toolbox           |
|  \\    /   O peration     | Version:  2212                                  |
|   \\  /    A nd           | Website:  www.openfoam.com                      |
|    \\/     M anipulation  |                                                 |
\*---------------------------------------------------------------------------*/
FoamFile
{
    version     2.0;
    format      ascii;
    arch        "LSB;label=32;scalar=64";
    class       volVectorField;
    location    "0.09";
    object      U;
}
// * * * * * * * * * * * * * * * * * * * * * * * * * * * * * * * * * * * * * //

dimensions      [0 1 -1 0 0 0 0];

internalField   nonuniform List<vector> 
7220
(
(121.77 725.968 -2.84918e-17)
(22.9485 23.7308 2.28971e-17)
(21.9986 22.5621 1.14588e-17)
(19.3645 20.8762 1.41571e-17)
(21.691 23.7389 -2.24245e-17)
(20.587 22.3477 -1.61014e-21)
(-22.0272 22.6475 0)
(-21.6482 23.7518 2.33962e-17)
(-19.3469 20.8888 0)
(-20.5559 22.3583 0)
(149.598 689.542 -5.37142e-19)
(-69.5191 -25.025 -2.09289e-16)
(25.6327 177.41 1.07259e-17)
(-130.684 604.477 1.32437e-16)
(190.821 581.287 1.33584e-16)
(-38.5858 -13.1399 9.39653e-17)
(-46.7087 436.619 0)
(-0.930058 686.053 -3.3755e-16)
(-34.3477 428.056 3.86421e-17)
(79.8164 692.838 -1.71351e-16)
(0.545563 342.828 4.32092e-17)
(-67.314 103.631 3.0262e-16)
(4.29895 13.4126 1.68188e-16)
(70.7288 114.624 2.29224e-16)
(-35.1106 22.2456 1.57263e-16)
(-75.6257 18.7927 -3.40093e-16)
(-22.0095 12.5677 1.07173e-16)
(-116.547 651.1 1.25635e-16)
(-2.74673 344.92 -4.13588e-17)
(33.865 259.344 7.36141e-17)
(31.0929 29.62 9.53511e-17)
(37.7678 221.379 -2.18327e-17)
(22.6356 32.0348 4.08788e-16)
(28.0179 280.869 -4.05026e-17)
(38.0664 13.2038 -1.72401e-16)
(-37.14 768.336 -2.24974e-16)
(23.3923 21.5601 5.6816e-18)
(133.803 674.489 0)
(136.105 690.945 -2.81798e-21)
(0.651183 593.39 -1.02374e-21)
(1.1297 592.52 -4.10075e-21)
(0.352183 592.268 -2.62397e-19)
(0.808833 593.116 2.31461e-19)
(7.50453 777.844 -5.07052e-17)
(11.2461 778.616 -2.17167e-16)
(2.58841 780.012 -3.79438e-17)
(2.55634 779.915 7.08209e-18)
(2.71768 779.444 -6.7703e-17)
(1.08266 591.714 5.1919e-19)
(0.0552654 590.764 -5.20062e-19)
(0.394717 590.975 -4.91469e-19)
(0.153913 591.649 5.26779e-19)
(-2.20744 589.176 5.31145e-19)
(-5.16558 586.954 -1.57256e-18)
(3.00674 587.906 5.3994e-19)
(1.24454 589.784 -5.62872e-19)
(-7.50988 584.311 -1.17856e-20)
(-8.54639 583.16 2.01153e-18)
(5.1683 582.073 1.05612e-18)
(4.44503 585.041 -5.30156e-19)
(-8.68124 581.85 -1.04617e-18)
(0.104249 580.111 1.03556e-18)
(3.63988 578.932 -5.25311e-19)
(5.47948 580.657 -1.05729e-18)
(17.5272 583.357 -1.07975e-18)
(42.2491 596.708 0)
(-23.2422 586.027 1.1017e-18)
(-8.82866 577.67 5.16035e-20)
(63.7192 618.337 0)
(75.5793 640.926 -9.09405e-20)
(-42.2256 639.708 3.12901e-20)
(-35.1219 608.356 1.48646e-20)
(73.2581 669.022 1.83841e-18)
(57.8241 704.18 -5.73223e-20)
(-29.7128 708.629 -1.9597e-18)
(-40.1712 672.905 1.60265e-18)
(37.2947 732.621 -2.11401e-19)
(23.433 751.271 -8.67255e-18)
(-10.5301 754.489 2.48813e-18)
(-16.6561 737.102 4.69866e-19)
(13.5594 764.329 6.89529e-18)
(7.19334 771.38 -2.0678e-17)
(-1.21632 772.932 6.70555e-18)
(-4.18245 766.437 -7.44964e-20)
(2.21819 778.472 -1.28774e-19)
(1.04801 776.521 -6.86973e-18)
(3.24571 775.417 6.98612e-18)
(0.481756 777.548 1.59412e-17)
(-1.94934 778.772 2.72202e-17)
(3.79548 775.943 2.66188e-17)
(-0.0614835 594.606 0)
(1.29121 594.288 3.29016e-20)
(1.51911 594.123 -8.261e-21)
(1.64906 595.209 8.21817e-21)
(14.2068 778.009 -1.37427e-17)
(4.09139 778.821 -4.09615e-19)
(-4.33239 779.517 1.49612e-17)
(-6.3639 779.559 2.98072e-17)
(9.69584 769.211 -7.29748e-18)
(40.8865 748.949 4.27458e-18)
(22.7962 761.694 -9.01876e-19)
(99.5333 702.359 0)
(67.8587 730.205 0)
(136.892 664.645 0)
(126.92 678.412 -4.25474e-19)
(120.98 645.75 0)
(133.446 654.579 6.16738e-20)
(67.2714 624.101 -9.74136e-19)
(98.2655 635.838 1.03967e-18)
(11.2003 591.743 -5.47868e-19)
(35.0525 606.463 0)
(-14.8548 584.452 -9.97972e-19)
(-6.7705 583.471 1.04251e-18)
(-11.0025 586.723 -5.27514e-19)
(-13.8423 585.413 4.88621e-19)
(-3.79122 592.453 8.16574e-21)
(-7.19468 589.667 5.43225e-19)
(-1.12798 596.089 0)
(-1.64749 594.581 4.0967e-21)
(5.31843 590.546 6.93152e-22)
(2.52544 592.621 0)
(12.5477 585.113 -1.51189e-20)
(9.00323 587.636 3.22822e-20)
(14.7059 582.789 -3.86986e-21)
(14.4426 584.32 0)
(-18.7383 595.089 1.09345e-21)
(0.684815 583.985 0)
(-80.279 626.769 -5.33184e-19)
(-46.8154 610.016 4.91476e-19)
(-121.92 650.465 -1.00873e-18)
(-107.942 639.47 9.3505e-19)
(-108.855 684.509 1.07099e-19)
(-123.212 664.206 -3.7556e-21)
(-48.8295 739.864 8.51714e-19)
(-78.3299 714.087 -4.3116e-19)
(-11.512 767.005 1.38621e-17)
(-26.0653 756.091 -3.70208e-18)
(-2.18195 772.658 1.34435e-17)
(1.61327 773.289 5.69083e-19)
(-1.50644 597.245 0)
(2.37014 596.201 0)
(11.1251 773.33 -5.90694e-17)
(1.99258 769.406 6.66136e-18)
(16.1254 776.561 0)
(-6.96426 778.514 4.25516e-19)
(-4.55394 775.371 -7.1877e-18)
(-9.42482 776.592 7.29514e-18)
(-2.16891 768.114 3.16789e-19)
(16.3901 774.899 0)
(-13.6618 777.168 7.1959e-18)
(-11.2504 770.906 7.24387e-18)
(28.1754 753.664 5.23033e-18)
(10.3928 763.171 -1.02751e-17)
(86.43 717.842 0)
(53.5512 739.318 -1.74543e-18)
(142.739 677.251 -9.71479e-19)
(119.965 692.65 2.03598e-18)
(154.821 665.147 2.31369e-19)
(152.551 669.914 0)
(146.185 659.224 4.64628e-19)
(151.951 662.1 -2.3604e-19)
(120.985 650.531 0)
(135.761 655.648 -2.94312e-20)
(71.6106 631.232 3.1776e-21)
(100.031 642.487 0)
(12.2166 596.409 -2.69974e-19)
(38.9934 613.227 -7.29359e-21)
(-17.5338 587.001 4.85875e-19)
(-6.66626 586.381 2.53566e-19)
(-15.2302 589.764 4.87709e-19)
(-17.1274 588.411 -4.92466e-19)
(-8.26951 596.546 2.09867e-18)
(-11.8039 593.195 -1.56687e-18)
(-2.30391 598.342 0)
(-5.05528 600.672 0)
(-5.84056 598.899 -1.05683e-18)
(1.64013 595.732 1.62085e-20)
(-0.694673 596.053 2.7751e-19)
(5.13877 598.676 0)
(5.17307 600.037 -6.55585e-20)
(3.29388 597.319 9.81594e-20)
(9.02455 594.464 2.68626e-19)
(6.13344 596.864 -2.72456e-19)
(15.4402 588.168 3.11371e-20)
(12.4738 590.911 0)
(16.211 585.475 -2.85616e-20)
(16.9539 587.199 -5.76336e-20)
(-20.328 601.391 0)
(-0.11127 587.611 0)
(-81.7328 634.825 -3.67932e-21)
(-50.5793 618.783 0)
(-126.881 651.433 -1.84494e-21)
(-108.145 644.137 -4.28063e-21)
(-146.59 659.921 0)
(-139.585 656.064 0)
(-146.202 671.259 -8.31595e-19)
(-149.529 664.407 9.12719e-19)
(-101.388 703.98 3.39694e-18)
(-131.865 681.587 0)
(-33.449 750.643 -1.34343e-17)
(-65.3023 731.142 -4.98915e-19)
(-12.3881 762.622 2.6698e-19)
(25.9853 774.373 -2.67029e-17)
(22.0045 775.066 3.9113e-17)
(6.4283 763.906 1.25859e-17)
(-11.2408 755.478 1.27114e-17)
(-3.19908 599.528 -3.26108e-20)
(-5.22607 602.088 3.27389e-20)
(14.3713 597.977 5.30318e-19)
(11.1096 600.646 -4.86462e-19)
(4.36959 777.35 2.78443e-17)
(29.1287 772.944 2.06409e-17)
(17.7965 774.702 -6.92083e-18)
(-16.9533 776.818 2.17402e-17)
(10.561 754.035 -2.20524e-17)
(37.6443 769.421 1.03448e-17)
(32.1134 769.747 0)
(-18.2494 772.26 7.0616e-18)
(17.1401 767.733 1.44363e-17)
(-6.50424 761.004 7.33828e-18)
(64.6421 725.474 0)
(33.3106 742.462 -8.1143e-18)
(129.165 683.033 5.52168e-18)
(99.4322 702.1 1.74433e-19)
(154.543 669.424 1.90266e-18)
(146.576 673.701 -2.59938e-18)
(158.154 666.449 2.20533e-19)
(158.374 667.614 -1.41502e-18)
(153.87 665.043 4.72225e-19)
(156.876 665.961 -4.40034e-19)
(142.25 662.258 0)
(148.88 664.101 -2.04715e-19)
(119.298 654.34 2.38013e-19)
(132.638 659.038 -2.44771e-19)
(72.3479 635.3 2.52783e-19)
(100.066 646.411 -2.44367e-19)
(10.9674 600.567 2.62789e-19)
(39.4931 617.295 -2.5925e-19)
(-21.4857 589.784 -2.57116e-19)
(-8.78263 589.723 2.66396e-19)
(-20.0171 592.971 1.91626e-20)
(-21.49 591.543 0)
(-13.4328 600.16 -1.12617e-18)
(-16.9541 596.485 1.03006e-18)
(1.83791 597.355 -6.56973e-20)
(-1.14504 597.657 -2.62743e-19)
(5.79917 601.183 -6.53647e-20)
(4.13102 598.616 -2.60583e-19)
(19.8831 591.658 0)
(17.7127 593.944 -5.06971e-19)
(19.8631 588.434 -1.23481e-19)
(21.4786 590.252 1.15655e-19)
(-19.4099 605.59 3.58543e-20)
(2.11555 591.221 2.87138e-20)
(-82.334 639.5 7.51595e-20)
(-51.1875 623.609 0)
(-123.825 655.596 4.04802e-21)
(-107.403 648.676 -6.348e-20)
(-144.749 662.215 -5.41718e-21)
(-136.078 659.327 -7.35499e-21)
(-153.983 664.489 0)
(-150.475 663.488 -7.27531e-21)
(-155.532 667.581 -5.89348e-19)
(-155.493 665.39 4.36512e-19)
(-138.783 677.192 8.03154e-19)
(-149.995 670.238 9.02268e-19)
(-77.1313 717.764 0)
(-113.957 691.725 -5.98115e-18)
(-39.1998 741.227 9.49449e-18)
(25.5167 769.252 -1.31008e-17)
(-10.8435 602.752 0)
(9.72997 602.664 1.63021e-18)
(-7.79449 776.987 4.92361e-19)
(31.7059 771.133 -1.0345e-17)
(42.1027 768.299 -1.03885e-17)
(5.09782 775.283 6.97124e-18)
(-18.6118 764.758 2.17813e-17)
(-13.1224 745.735 7.4668e-18)
(-45.9593 728.316 -1.39623e-17)
(7.48776 755.282 -2.51019e-18)
(-24.1153 772.853 -1.43201e-17)
(-24.903 595.901 1.06753e-19)
(-22.0407 599.507 1.05145e-18)
(6.65226 602.326 3.2428e-20)
(9.49848 604.27 -1.11422e-18)
(-19.4545 775.511 4.39779e-19)
(19.3101 772.567 0)
(45.4687 766.596 -1.08688e-17)
(33.8793 768.91 3.60584e-18)
(61.6854 759.46 -3.39951e-17)
(58.8704 761.283 -1.54372e-17)
(48.1885 764.428 2.88829e-19)
(-8.17587 774.962 -3.46975e-17)
(-9.2447 751.887 7.36441e-18)
(41.0676 728.797 -8.1183e-18)
(12.0643 742.558 7.64136e-18)
(108.779 687.177 1.13275e-17)
(76.0199 708.664 -2.65458e-18)
(144.13 669.87 0)
(131.967 674.993 -7.46315e-18)
(154.044 667.165 -4.68226e-19)
(150.516 668.021 -9.5705e-19)
(155.29 667.764 -1.10236e-19)
(155.442 667.309 4.47977e-19)
(152.779 668.582 -1.20409e-19)
(154.443 668.286 0)
(147.649 667.258 -1.183e-19)
(150.677 668.075 1.78014e-19)
(137.606 664.417 -1.17267e-19)
(143.429 666.166 1.18622e-19)
(116.345 656.763 -1.11485e-19)
(128.915 661.316 1.14506e-19)
(70.4946 638.69 0)
(97.8433 649.121 -1.70727e-20)
(8.13568 604.043 2.50723e-19)
(37.6285 620.855 -2.73127e-19)
(-25.6719 592.702 9.32407e-19)
(-12.2344 592.896 -5.02487e-19)
(-26.2242 594.307 -1.40498e-18)
(-9.83873 604.722 9.82364e-20)
(-3.98312 600.89 -2.61075e-19)
(-5.90003 603.322 4.87291e-19)
(1.92708 599.078 9.73869e-20)
(-1.42704 599.348 -2.58988e-19)
(4.74645 600.097 3.27406e-19)
(19.6 601.106 -5.62513e-19)
(24.776 594.637 -3.85202e-21)
(22.7764 596.831 4.7655e-19)
(21.6943 590.88 0)
(26.2991 593.123 0)
(-17.6853 608.16 -1.21626e-19)
(6.00671 595.114 0)
(-80.7474 642.6 3.50173e-20)
(-49.3311 627.295 2.41363e-20)
(-120.372 658.111 -1.98155e-20)
(-104.936 651.467 3.16456e-20)
(-139.137 664.546 3.7337e-21)
(-131.622 661.813 8.39049e-23)
(-148.476 666.744 7.49378e-21)
(-144.511 665.899 2.21643e-20)
(-152.808 667.389 5.40535e-20)
(-151.331 667.343 7.22135e-21)
(-153.972 666.88 -8.95905e-19)
(-153.871 667.132 0)
(-147.087 668.484 -1.9245e-18)
(-151.462 667.205 4.71952e-19)
(-119.061 681.431 3.94714e-18)
(-137.882 672.153 3.44043e-18)
(-85.8484 701.882 -1.38283e-17)
(33.278 762.141 6.7964e-18)
(22.7149 759.886 -1.02083e-17)
(48.8633 763.228 -5.21884e-18)
(42.0222 762.957 -1.64703e-18)
(54.6157 762.616 1.07152e-17)
(-27.9022 766.671 6.92991e-18)
(-18.639 603.302 -6.49277e-20)
(16.3271 604.052 0)
(-57.0985 711.267 -6.05685e-18)
(-94.22 686.512 -3.40357e-18)
(-20.6956 731.291 7.87758e-18)
(66.4227 756.093 1.08325e-16)
(-28.8183 772.474 2.9382e-17)
(5.93956 773.108 0)
(20.849 770.144 -1.44011e-17)
(50.2427 762.019 3.30314e-17)
(-21.4332 773.812 -8.7093e-17)
(73.5959 754.281 0)
(17.3507 728.509 -1.50572e-17)
(35.9159 766.4 -1.54423e-17)
(-25.6145 757.095 -1.4132e-17)
(-9.25806 740.254 5.77347e-19)
(64.631 757.136 -6.27802e-19)
(85.5457 690.591 0)
(51.3104 711.788 -1.40293e-18)
(129.738 669.121 -7.54087e-18)
(113.338 675.754 6.89988e-18)
(143.713 665.438 1.95054e-18)
(138.4 666.508 7.53223e-18)
(148.03 665.638 -4.88837e-19)
(146.672 665.266 -1.948e-18)
(148.629 668.222 1.20015e-19)
(148.643 666.765 4.86933e-19)
(148.391 669.661 0)
(148.697 669.306 0)
(146.702 669.53 -5.99301e-20)
(147.804 669.546 8.99038e-20)
(142.225 668.446 -4.68255e-22)
(144.973 669.096 6.66063e-20)
(132.778 665.937 0)
(138.368 667.494 3.75459e-21)
(111.577 659.194 6.21364e-20)
(124.204 663.318 0)
(66.3109 641.149 3.57025e-20)
(93.3011 651.647 -4.53477e-20)
(3.56647 606.323 2.50308e-19)
(33.42 623.217 -2.79489e-19)
(-30.0117 595.138 -5.15624e-19)
(-17.1663 595.352 5.40935e-19)
(-29.4754 598.245 9.96955e-19)
(-30.6417 596.558 -2.90339e-20)
(-26.7618 601.851 -9.85521e-19)
(-9.79744 606.326 0)
(-16.0401 606.031 9.6975e-19)
(-4.58228 602.41 5.21278e-19)
(-6.76293 604.555 -5.2306e-19)
(1.9616 600.857 -1.33016e-19)
(-1.59864 601.094 2.29494e-19)
(7.51529 603.595 0)
(5.15284 601.713 0)
(14.7646 606.228 -5.50417e-19)
(9.92894 605.641 -4.8626e-19)
(24.7073 603.37 1.04567e-18)
(29.6409 596.977 5.48765e-19)
(27.8103 599.146 -5.07131e-19)
(25.642 593.576 5.29613e-19)
(30.8808 595.333 -1.02074e-18)
(-13.6091 610.814 0)
(10.5297 597.628 2.92047e-20)
(-76.7714 644.681 0)
(-44.9889 629.691 0)
(-115.88 660.32 0)
(-100.59 653.967 1.66685e-20)
(-133.973 666.014 2.98209e-20)
(-126.954 663.74 -2.96545e-20)
(-142.156 668.207 1.48524e-20)
(-138.88 667.368 -1.46416e-20)
(-145.878 669.115 -3.00858e-20)
(-144.453 668.851 2.95642e-20)
(-147.624 668.662 -5.98107e-20)
(-147.043 669.03 7.03991e-23)
(-147.869 665.987 5.37257e-19)
(-147.962 667.329 -2.99485e-20)
(-145.061 665.258 -1.84858e-19)
(-147 665.265 6.04309e-20)
(-133.734 667.438 -3.56854e-18)
(-140.857 665.628 0)
(-120.478 672.849 6.68221e-18)
(25.8007 750.187 -3.67953e-18)
(6.80609 742.863 3.51759e-18)
(51.1156 755.426 1.55782e-17)
(40.5107 753.625 -2.62125e-18)
(59.756 755.846 -1.39336e-17)
(-37.3156 759.868 4.67707e-20)
(-35.4339 767.399 2.09876e-20)
(-7.76639 772.805 -3.3318e-18)
(-29.6558 747.886 0)
(-100.141 673.702 -3.50872e-18)
(-118.474 666.252 -1.99452e-18)
(-69.4159 690.108 3.93542e-18)
(-34.1901 596.512 0)
(-34.4226 597.82 9.35912e-19)
(14.2483 607.92 3.81872e-20)
(21.3508 606.318 -5.58352e-19)
(6.95636 770.573 -4.40078e-17)
(22.743 767.546 2.98909e-17)
(37.5258 763.687 1.30844e-17)
(79.0611 751.894 0)
(86.6634 747.408 -3.33599e-19)
(92.1651 745.41 2.9518e-17)
(82.5831 749.084 3.06731e-17)
(-46.596 760.953 1.41161e-17)
(-32.6635 771.364 -8.05592e-17)
(52.4893 759.286 -7.57343e-18)
(-20.6913 771.819 -1.09537e-17)
(-44.5639 751.612 5.26551e-19)
(68.1344 754.431 5.96622e-17)
(-4.48817 726.004 3.64173e-18)
(62.0668 692.607 1.60478e-17)
(27.8204 711.716 -8.06619e-18)
(112.831 667.347 3.79192e-18)
(92.3848 675.851 -1.28221e-18)
(130.635 662.701 5.88168e-18)
(123.648 664.062 -3.94111e-18)
(137.234 662.586 1.95982e-18)
(134.709 662.411 -3.927e-18)
(139.622 665.139 1.46033e-18)
(138.745 663.601 -9.7678e-19)
(141.163 667.474 0)
(140.249 666.408 -4.81541e-19)
(143.264 669.041 -3.04087e-20)
(142.256 668.365 0)
(143.462 670 -8.94286e-20)
(143.694 669.596 3.85585e-24)
(141.572 670.152 5.89831e-20)
(142.827 670.105 -7.38672e-21)
(136.649 669.49 -3.69566e-21)
(139.704 669.965 0)
(126.696 667.556 0)
(132.355 668.896 -7.31434e-21)
(105.718 660.82 0)
(118.301 664.984 -1.56007e-20)
(59.9984 642.148 1.27068e-19)
(87.158 653.311 -1.61221e-19)
(-2.44469 606.414 5.479e-19)
(26.9825 623.582 -3.37925e-21)
(-23.0917 596.358 -4.70483e-19)
(-23.4351 605.573 6.58569e-20)
(-10.275 607.71 5.13695e-19)
(-14.8504 608.089 -1.56507e-18)
(-5.00281 604.044 -2.77535e-19)
(-7.60853 605.892 2.03397e-20)
(1.96426 602.675 2.04336e-21)
(-1.70139 602.889 6.50489e-20)
(8.23254 605.017 -4.07174e-21)
(5.39653 603.42 -1.25439e-19)
(10.6402 606.899 5.22287e-19)
(33.5628 597.904 -4.9795e-19)
(30.2912 594.867 5.07302e-19)
(34.7108 596.452 -1.19382e-21)
(-7.75072 611.413 -5.00236e-19)
(16.3614 598.576 2.48871e-19)
(-70.6611 645.755 1.47095e-20)
(-38.9759 630.157 2.34196e-19)
(-110.228 661.728 -1.47106e-20)
(-94.3598 655.418 0)
(-128.112 667.382 -1.46597e-20)
(-121.16 665.199 0)
(-136.788 669.06 5.93504e-20)
(-133.105 668.489 0)
(-140.673 669.664 1.77079e-19)
(-139.209 669.456 -1.03726e-19)
(-141.767 669.564 0)
(-141.472 669.642 -1.26014e-19)
(-141.022 668.234 0)
(-141.771 668.958 -3.03649e-20)
(-139.826 665.878 -4.86481e-19)
(-140.295 667.158 -2.43364e-19)
(-138.433 662.997 2.38881e-18)
(-139.38 664.311 0)
(-133.614 662.567 0)
(-136.631 662.447 -4.81911e-19)
(-127.882 663.565 -1.87198e-18)
(0.330598 727.99 3.35189e-18)
(-33.9978 712.47 -3.34083e-18)
(45.8152 744.068 5.45189e-18)
(26.2289 737.776 -8.9121e-19)
(71.281 748.659 -1.5942e-17)
(60.2284 747.163 3.38419e-18)
(79.0832 748.655 -3.75493e-17)
(-41.9144 767.434 -1.30546e-17)
(-29.4828 736.194 -1.90109e-17)
(-33.2849 599.451 -2.0564e-18)
(31.5821 600.032 5.3744e-19)
(-120.192 659.541 1.80391e-18)
(-112.761 660.857 4.02642e-20)
(-55.6428 753.383 1.41256e-17)
(-53.9417 761.076 1.33703e-17)
(-7.50777 770.465 -2.93392e-17)
(9.31223 768.069 3.01223e-17)
(23.9324 764.699 3.68342e-19)
(39.2186 760.812 -2.30206e-17)
(96.8023 742.686 1.7753e-18)
(85.8462 745.991 6.85916e-19)
(131.868 719.781 -8.12631e-17)
(70.4571 751.562 7.1205e-19)
(-26.5912 35.6884 0)
(55.0262 756.371 2.68396e-17)
(-49.0195 741.757 0)
(-24.7949 721.202 -3.98156e-18)
(40.5594 692.192 4.40547e-18)
(5.94351 708.664 1.51678e-17)
(94.939 665.064 -3.12022e-18)
(71.5395 674.878 -8.54916e-18)
(116.086 659.569 -1.97893e-18)
(107.963 661.094 -1.74226e-19)
(124.503 659.099 0)
(121.172 659.161 1.98371e-18)
(128.307 661.215 0)
(126.749 659.828 0)
(130.829 663.752 -4.82937e-19)
(129.414 662.572 9.77643e-19)
(134.048 665.559 2.67037e-20)
(132.406 664.714 9.26301e-20)
(136.988 667.292 2.99826e-20)
(135.611 666.4 3.80342e-21)
(138.597 669.103 2.59077e-22)
(137.973 668.207 -1.48379e-20)
(138.021 670.404 9.41675e-22)
(138.612 669.893 3.40491e-20)
(135.219 671.097 3.78059e-21)
(136.811 670.676 0)
(130.078 670.584 -5.93845e-20)
(133.09 670.977 6.68148e-20)
(119.517 668.298 -5.90156e-20)
(125.431 669.75 5.89567e-20)
(98.4497 660.951 -8.7118e-20)
(111.025 665.557 1.20927e-19)
(51.7175 640.817 2.47309e-19)
(79.4492 653.003 -2.71977e-19)
(-9.9205 603.724 -6.48323e-20)
(18.7475 621.514 -5.49953e-19)
(-37.8838 595.779 -6.00352e-20)
(-29.2348 595.366 5.0487e-19)
(-37.5365 597.096 -8.92186e-19)
(-20.8428 608.28 0)
(-30.6094 602.943 1.49546e-18)
(-10.9747 608.997 -5.21271e-19)
(-14.5486 609.756 5.22088e-19)
(-5.28502 605.748 1.45425e-19)
(-8.30986 607.343 -1.62526e-20)
(1.95198 604.512 -6.46185e-20)
(-1.76332 604.712 -3.26319e-20)
(8.75625 606.555 -4.04979e-21)
(5.53659 605.181 1.27464e-21)
(14.3498 609.313 1.03898e-18)
(11.3977 608.158 4.06691e-21)
(28.345 603.924 -4.30969e-20)
(19.4571 608.444 0)
(35.5648 596.47 3.0338e-20)
(35.083 594.111 5.01e-19)
(36.6257 595.4 -4.50161e-20)
(-0.3289 609.076 2.71248e-19)
(22.3976 596.87 -7.77224e-19)
(-62.6783 644.955 8.82888e-20)
(-31.4286 628.002 0)
(-103.135 661.832 3.80564e-20)
(-86.9236 655.146 -1.86119e-19)
(-121.214 667.915 1.51239e-20)
(-114.031 665.6 0)
(-130.405 669.889 -5.92563e-20)
(-126.523 669.104 5.94527e-20)
(-134.686 670.245 7.52084e-20)
(-132.966 670.194 -5.94279e-20)
(-136.808 669.688 1.34693e-19)
(-136.082 669.914 -1.20185e-19)
(-136.555 668.229 -1.2021e-19)
(-137.086 669.014 1.2111e-19)
(-134.311 666.53 2.43032e-19)
(-135.591 667.394 2.99701e-20)
(-131.514 664.696 4.80561e-19)
(-132.892 665.639 -8.89937e-22)
(-129.453 662.236 9.75251e-19)
(-130.317 663.565 0)
(-126.914 659.543 -9.66021e-19)
(-128.481 660.663 9.74432e-21)
(-124.402 659.258 3.93352e-18)
(-46.9504 689.734 -8.82467e-19)
(-101.072 664.322 9.1413e-20)
(-78.9469 672.698 1.95691e-18)
(22.9657 723.364 -4.89229e-19)
(-10.9665 709.501 1.18704e-18)
(66.2511 737.669 1.97976e-17)
(47.4558 732.635 1.58096e-18)
(88.8684 740.007 -1.01021e-17)
(78.2031 739.708 1.29539e-17)
(104.342 737.793 1.19059e-17)
(97.1031 739.446 1.04593e-17)
(119.197 729.146 2.54247e-17)
(114.959 732.595 -3.59226e-18)
(100.615 739.72 1.77482e-17)
(110.159 735.483 -1.37296e-17)
(-46.6905 766.109 2.56953e-17)
(-23.9489 28.6084 4.01664e-16)
(-62.7959 744.294 1.45542e-17)
(-48.5632 729.763 0)
(-3.60357 767.884 -1.66934e-17)
(20.8954 21.2503 -1.14576e-17)
(-18.3151 598.132 6.79614e-20)
(-33.9183 590.902 -1.05512e-18)
(24.8781 606.699 -5.24936e-19)
(33.1298 598.832 4.77982e-19)
(9.90321 765.167 3.7847e-19)
(103.84 736.426 -2.09068e-17)
(25.1173 761.792 -1.50353e-17)
(88.4918 742.744 7.22015e-19)
(72.866 748.304 -5.86611e-17)
(40.8517 757.774 1.86951e-17)
(56.8659 753.322 -2.94788e-17)
(-22.6195 25.0353 0)
(-27.3964 33.4467 8.97631e-17)
(-27.6766 31.1921 0)
(-29.0314 30.9932 -8.81446e-17)
(-47.3108 67.8382 -3.0399e-16)
(-28.1338 26.7439 -6.21874e-17)
(-64.891 753.684 -2.53015e-18)
(-60.6818 759.909 -2.1992e-17)
(-26.0614 28.7711 1.49573e-16)
(-72.4506 752.897 1.86054e-18)
(128.233 724.357 0)
(121.918 727.187 -3.41769e-18)
(-30.5873 766.602 4.9939e-17)
(-41.4169 765.688 5.93545e-17)
(-74.0459 745.067 7.81964e-18)
(-25.0585 29.0281 -1.88855e-16)
(-67.2679 733.655 -1.74683e-17)
(-39.9083 71.5085 3.17584e-16)
(-82.9675 745.046 1.17314e-17)
(-80.8657 735.603 -5.61359e-18)
(-23.5471 26.0659 0)
(-108.336 724.657 4.48368e-18)
(-91.9044 735.927 1.97991e-17)
(-84.7394 723.983 -1.60615e-17)
(-98.3779 725.048 -4.22601e-18)
(-42.9698 713.887 -1.36565e-18)
(-66.7225 720.976 0)
(19.9793 688.4 3.7945e-18)
(-13.5676 702.71 -4.12735e-18)
(76.1971 662.129 -7.6639e-18)
(50.8342 672.297 -3.56338e-18)
(100.454 655.926 1.65858e-20)
(91.3775 657.676 1.34197e-17)
(110.565 655.176 -2.027e-18)
(106.582 655.418 -2.00342e-18)
(115.668 656.752 0)
(113.489 655.612 0)
(119.061 659.253 0)
(117.289 658.08 9.96152e-19)
(123.061 661.143 0)
(120.998 660.252 -4.85142e-19)
(126.925 662.916 5.29643e-20)
(125.081 662.012 -1.74842e-19)
(129.869 664.948 -6.03996e-20)
(128.524 663.891 -3.04258e-20)
(131.763 667.2 0)
(130.953 666.06 3.82987e-20)
(132.385 669.31 -6.03848e-20)
(132.261 668.304 2.63073e-20)
(131.001 670.552 -3.21191e-20)
(131.874 670.079 6.03388e-20)
(127.78 671.196 -3.76002e-21)
(129.609 670.859 0)
(122.452 670.423 2.23743e-20)
(125.599 670.995 3.70237e-21)
(111.818 667.377 -5.97585e-20)
(117.873 669.266 -1.49791e-20)
(90.4748 658.807 2.32221e-19)
(103.377 664.168 5.93679e-20)
(42.1937 635.716 1.41924e-20)
(70.9434 649.86 -2.36483e-19)
(9.37064 615.252 0)
(-35.9633 598.525 9.32787e-19)
(-19.4662 610.291 5.20244e-19)
(-27.2021 606.407 -1.00968e-18)
(-11.6961 610.313 -3.23919e-20)
(-14.7501 611.183 1.21732e-20)
(-5.46484 607.502 -1.94707e-19)
(-8.8272 608.897 1.61628e-20)
(1.93078 606.361 9.74019e-20)
(-1.80291 606.551 -1.20696e-20)
(9.07984 608.168 1.61823e-20)
(5.60074 606.974 1.90734e-19)
(14.6891 610.522 -5.1252e-19)
(12.0174 609.484 -2.43192e-20)
(18.4779 610.021 0)
(37.7378 590.466 -2.93036e-20)
(7.8132 602.179 2.46786e-19)
(28.4982 591.501 1.66224e-20)
(-53.3734 640.795 1.47731e-20)
(-22.097 621.746 -2.77553e-19)
(-95.4583 659.951 -1.06981e-19)
(-78.9338 652.363 1.20117e-19)
(-113.657 667.022 1.53887e-20)
(-106.426 664.27 -5.93119e-20)
(-122.979 669.551 7.43163e-20)
(-119.16 668.635 1.91135e-22)
(-127.508 670.064 1.51225e-20)
(-125.654 670.067 0)
(-130.195 669.565 -1.36129e-19)
(-129.137 669.84 0)
(-130.925 668.159 -1.0502e-19)
(-130.872 668.997 2.41467e-19)
(-129.743 666.098 0)
(-130.482 667.156 -3.04737e-20)
(-127.343 664.058 2.44126e-19)
(-128.684 665.055 -3.06044e-20)
(-123.992 662.245 -2.49913e-19)
(-125.77 663.125 -4.85904e-19)
(-120.307 660.389 0)
(-122.113 661.362 0)
(-117.383 657.883 -1.46668e-18)
(-118.676 659.228 4.90155e-19)
(-113.507 655.536 -1.95421e-18)
(-115.77 656.383 1.0683e-18)
(-104.724 655.816 1.94037e-18)
(-110.159 655.506 4.93038e-19)
(-82.6586 660.735 0)
(-96.1767 657.051 0)
(-25.245 688.958 -3.36861e-18)
(-58.2196 670.384 -2.05583e-18)
(41.572 718.676 0)
(10.726 706.87 -4.6111e-18)
(82.2398 728.783 -1.51638e-18)
(63.8314 725.837 0)
(105.977 729.655 4.30238e-19)
(94.9505 729.859 0)
(114.415 728.999 -3.44155e-18)
(-26.2049 32.8821 2.78005e-20)
(-26.6921 30.7998 -8.53513e-17)
(-27.8857 28.9485 -1.43795e-16)
(-52.1799 763.477 0)
(-17.4675 767.264 -1.80695e-17)
(-24.904 32.3579 -1.77633e-16)
(-161.824 662.212 -1.18461e-16)
(61.4377 32.1029 -2.99585e-16)
(120.506 722.987 6.04759e-17)
(-38.7321 591.49 9.74857e-19)
(37.5784 591.401 5.7189e-20)
(-28.7793 33.6021 -1.88019e-16)
(-65.8726 757.699 7.36888e-18)
(-44.3923 762.609 0)
(-31.5727 763.848 0)
(-4.44809 765.178 7.64274e-18)
(106.518 732.98 0)
(-30.9898 27.8277 0)
(-78.8628 751.317 7.62498e-18)
(122.17 718.061 0)
(131.019 716.961 2.83481e-17)
(133.713 720.67 0)
(10.5884 762.293 -3.08253e-17)
(90.829 739.311 -2.84586e-17)
(74.7967 744.971 2.90172e-17)
(-90.4885 744.011 -1.17448e-17)
(127.032 450.781 -7.54884e-17)
(26.0998 758.682 0)
(-127.769 618.259 3.38655e-18)
(-100.649 735.623 1.21829e-17)
(-30.2806 31.1408 7.29584e-17)
(42.2535 754.64 -2.34391e-19)
(58.6971 750.048 0)
(-23.2185 29.6408 1.97592e-16)
(-23.5495 31.5891 -1.835e-16)
(124.391 718.848 -1.21466e-19)
(-25.2993 34.6922 -9.27731e-17)
(-23.7664 33.8548 -3.6909e-20)
(23.1746 22.5877 5.78137e-18)
(-59.5263 704.642 -2.79251e-17)
(-83.7848 711.595 1.48146e-16)
(1.88782 682.082 -4.45539e-19)
(-30.5862 694.881 8.35379e-18)
(57.2087 658.009 4.27785e-18)
(31.9361 668.153 -4.41902e-18)
(83.6011 651.408 -2.04293e-18)
(73.6909 653.155 2.0429e-18)
(95.3064 650.564 1.00449e-18)
(90.6621 650.89 -2.02269e-18)
(101.898 651.789 1.96775e-18)
(99.0125 650.824 -1.00461e-18)
(106.366 654.121 -4.98631e-19)
(104.178 653.021 4.94505e-19)
(111.126 656.004 0)
(108.696 655.109 -1.47875e-18)
(115.729 657.783 0)
(113.507 656.876 -2.48981e-19)
(119.444 659.809 -6.08437e-20)
(117.717 658.76 9.15907e-20)
(122.145 662.07 0)
(120.911 660.917 1.5784e-20)
(124.005 664.43 0)
(123.172 663.246 3.71061e-21)
(125.086 666.719 -2.38238e-22)
(124.656 665.595 1.90996e-21)
(125.027 668.551 3.22588e-20)
(125.254 667.717 -3.00763e-20)
(123.2 669.362 5.66344e-21)
(124.29 669.102 -1.89295e-21)
(119.785 669.413 7.58045e-21)
(121.771 669.51 -3.77974e-21)
(114.4 667.892 -7.47126e-20)
(117.504 668.86 1.49829e-20)
(103.915 663.696 0)
(110.147 666.278 5.9723e-20)
(82.3882 652.727 -2.36077e-19)
(95.4319 659.491 2.44305e-19)
(32.4518 624.738 5.00005e-19)
(61.7978 642.313 -5.22487e-19)
(-23.8189 587.958 -4.6389e-19)
(0.869238 602.568 5.18425e-19)
(-35.73 581.635 5.32251e-19)
(-32.8008 601.562 0)
(-37.8947 592.325 0)
(-18.8052 611.833 -7.54224e-19)
(-24.3542 608.835 5.15428e-19)
(-12.2996 611.671 -1.6196e-20)
(-15.1299 612.433 -1.45038e-19)
(-5.58317 609.274 3.28395e-20)
(-9.17853 610.504 1.61469e-20)
(1.90655 608.204 -4.65955e-20)
(-1.83468 608.391 -1.59283e-20)
(9.24105 609.799 0)
(5.61613 608.761 -1.31442e-19)
(15.0577 611.635 1.20907e-19)
(12.4269 610.852 0)
(22.7016 608.68 -1.73769e-20)
(18.0884 611.283 2.67237e-19)
(35.8849 592.251 -5.13727e-19)
(29.5683 602.266 4.03035e-20)
(36.4099 580.697 5.1797e-19)
(16.0482 591.259 5.75541e-19)
(32.6967 582.255 -1.10676e-18)
(-43.5145 631.365 -4.44362e-21)
(-11.9354 610.384 0)
(-87.5187 654.45 -1.20732e-21)
(-70.5053 645.397 0)
(-105.91 663.556 0)
(-98.6637 659.929 0)
(-115.016 667.015 -1.49451e-20)
(-111.439 665.666 0)
(-119.808 668.235 -1.51519e-20)
(-117.794 667.816 0)
(-122.743 668.128 -1.51333e-20)
(-121.583 668.239 7.54808e-21)
(-123.975 667.176 1.2163e-19)
(-123.61 667.806 -1.51693e-20)
(-123.504 665.314 1.54789e-20)
(-123.898 666.315 -1.20392e-19)
(-122.054 663.14 2.11093e-19)
(-122.874 664.238 -2.14253e-19)
(-119.806 660.962 4.87771e-19)
(-121.039 662.04 -2.1491e-19)
(-116.599 658.946 4.7554e-19)
(-118.335 659.925 -7.33457e-19)
(-112.423 657.162 4.86832e-19)
(-114.609 658.031 -1.48038e-18)
(-107.986 655.351 -4.93731e-18)
(-110.158 656.297 9.84115e-19)
(-104.236 653.026 -9.75944e-19)
(-105.987 654.253 -2.89697e-18)
(-98.9705 651.157 4.99119e-19)
(-101.942 651.78 1.34051e-20)
(-88.9771 651.624 3.89028e-18)
(-95.0521 651.241 -1.96869e-18)
(-64.714 657.54 3.91909e-18)
(-80.0528 653.177 -4.97019e-18)
(-6.47487 684.853 -7.18562e-18)
(-38.2572 667.933 -6.48482e-19)
(56.7981 709.319 -1.71109e-18)
(27.1103 698.908 7.67876e-18)
(97.5647 718.019 1.43063e-17)
(79.3064 715.542 0)
(110.939 718.718 -1.42494e-17)
(-27.5739 38.8465 0)
(-28.2513 36.4117 0)
(-99.7652 711.812 1.79558e-16)
(-26.0408 26.8371 2.66988e-16)
(-26.8783 28.636 -7.53278e-17)
(-55.9693 760.732 0)
(-18.2789 764.668 0)
(-24.1124 36.3689 2.88555e-16)
(108.537 725.958 -3.15375e-17)
(108.22 729.438 2.97069e-17)
(-29.7654 39.1533 -2.26779e-16)
(-20.811 36.4654 1.62031e-16)
(-23.7549 24.8829 0)
(-70.3061 755.228 -7.64184e-18)
(110.437 706.246 0)
(124.034 706.569 -1.46585e-17)
(138.686 714.673 4.36967e-19)
(-4.17491 762.182 1.7461e-18)
(-46.763 759.639 0)
(-33.3662 760.845 0)
(-25.271 38.8597 -1.67576e-16)
(92.7162 735.754 -1.46263e-17)
(23.8982 23.4723 -2.61114e-21)
(22.7033 606.238 -4.88956e-19)
(-6.19308 583.135 0)
(32.0678 594.273 5.373e-19)
(35.1445 581.059 3.019e-20)
(76.5741 741.474 0)
(-31.6017 17.6471 -1.82878e-16)
(-83.9144 749.03 1.50167e-19)
(140.802 716.084 -1.67035e-17)
(-22.2914 26.248 -2.63271e-17)
(22.2593 21.502 -5.71816e-18)
(22.4596 20.5064 3.36598e-17)
(22.5918 19.5547 -6.96298e-22)
(-16.34 38.0869 -4.89461e-17)
(10.8935 759.092 -4.22998e-19)
(-21.3812 63.4998 0)
(-14.7149 64.5991 -1.57645e-16)
(-26.8232 41.6363 1.82847e-16)
(34.3207 11.1503 4.45425e-17)
(-27.6582 61.1872 0)
(-32.0003 62.4988 -4.68617e-21)
(-96.805 742.074 -1.58072e-17)
(135.621 715.862 4.91863e-17)
(26.757 27.0069 2.09195e-17)
(26.1167 26.7477 0)
(25.6984 28.3772 -2.09916e-17)
(26.4217 28.8401 -2.20583e-17)
(34.0194 37.0621 6.45906e-20)
(26.9312 755.436 1.51344e-17)
(60.0934 746.687 -3.02547e-17)
(-108.189 733.946 -9.6809e-20)
(-21.8439 28.5804 -1.05493e-16)
(43.4956 751.294 3.03793e-17)
(-7.92077 64.9074 -3.02062e-19)
(-4.66324 68.7319 3.1984e-16)
(-18.8815 67.7956 1.59378e-16)
(-115.099 722.603 -9.80553e-17)
(-22.1175 30.4572 9.73216e-17)
(-11.8356 68.6264 -3.20261e-16)
(-22.2407 32.5982 8.94045e-17)
(-22.2441 35.1172 0)
(110.793 721.805 -7.54793e-18)
(24.069 22.3733 -5.79597e-18)
(126.724 714.909 7.92555e-18)
(-44.886 75.6644 -1.41595e-16)
(-15.3032 672.933 3.63596e-18)
(-46.2716 684.941 0)
(38.1303 652.171 -2.15718e-18)
(13.4243 661.144 0)
(66.0413 645.979 -5.91689e-18)
(55.3277 647.641 1.01075e-17)