/*--------------------------------*- C++ -*----------------------------------*\
| =========                 |                                                 |
| \\      /  F ield         | OpenFOAM: The Open Source CFD Toolbox           |
|  \\    /   O peration     | Version:  2212                                  |
|   \\  /    A nd           | Website:  www.openfoam.com                      |
|    \\/     M anipulation  |                                                 |
\*---------------------------------------------------------------------------*/
FoamFile
{
    version     2.0;
    format      ascii;
    arch        "LSB;label=32;scalar=64";
    class       volVectorField;
    location    "0.000477";
    object      U;
}
// * * * * * * * * * * * * * * * * * * * * * * * * * * * * * * * * * * * * * //

dimensions      [0 1 -1 0 0 0 0];

internalField   nonuniform List<vector> 
56928
(
(3.31196e-11 -0.093659 4.65256)
(3.93435e-11 -0.161722 4.97267)
(6.3152e-11 -0.18326 5.02164)
(7.3517e-12 -0.199524 5.0417)
(-3.57394e-11 -0.209442 5.05372)
(-2.85814e-11 -0.212673 5.06094)
(1.46423e-11 -0.211999 5.06631)
(2.21621e-11 -0.210151 5.07031)
(6.11245e-11 -0.206288 5.07271)
(4.33539e-11 -0.202116 5.0744)
(-2.14844e-11 -0.196973 5.07537)
(-3.08393e-11 -0.191853 5.07604)
(-8.45082e-11 -0.18631 5.07625)
(-1.25398e-10 -0.180923 5.07628)
(-1.44193e-10 -0.175381 5.07598)
(-8.51016e-11 -0.169715 5.07554)
(8.7215e-11 -0.163548 5.07482)
(2.05519e-10 -0.157254 5.07386)
(1.50041e-10 -0.150796 5.07269)
(1.47785e-10 -0.144397 5.07136)
(7.58938e-11 -0.138082 5.06991)
(2.155e-11 -0.131884 5.06836)
(-5.56684e-11 -0.125757 5.0667)
(6.32987e-11 -0.119724 5.06496)
(1.36965e-10 -0.113759 5.06312)
(8.69868e-11 -0.108009 5.06129)
(2.75911e-11 -0.102583 5.05952)
(-6.693e-11 -0.0975794 5.05794)
(-5.73759e-12 -0.092993 5.05649)
(-1.34949e-10 -0.0886878 5.05511)
(-1.90707e-10 -0.0845461 5.05375)
(-1.29623e-10 -0.0803936 5.05243)
(-8.93336e-11 -0.0760594 5.05107)
(-1.06576e-10 -0.0714228 5.04966)
(-2.5595e-10 -0.0664947 5.04821)
(-3.39742e-10 -0.0613814 5.04693)
(-3.07881e-10 -0.0562012 5.04586)
(-3.05671e-11 -0.0509889 5.04496)
(-1.78132e-10 -0.0457381 5.04413)
(-1.56182e-11 -0.040431 5.0434)
(2.55273e-10 -0.0352424 5.04275)
(1.72385e-10 -0.0301552 5.04224)
(2.42803e-10 -0.0253108 5.04178)
(6.6532e-10 -0.0203187 5.04156)
(1.82469e-09 -0.0158218 5.04114)
(1.99906e-09 -0.0109444 5.04137)
(1.61517e-09 -0.00712182 5.04066)
(2.79426e-11 -0.113362 4.35125)
(4.28517e-11 -0.197021 4.8962)
(6.23893e-11 -0.208754 4.98997)
(7.01226e-12 -0.215633 5.02849)
(-3.26448e-11 -0.217876 5.05297)
(-2.50824e-11 -0.217188 5.0674)
(1.0973e-11 -0.214449 5.07643)
(2.88173e-11 -0.210975 5.08224)
(5.49882e-11 -0.206581 5.08665)
(4.20061e-11 -0.202215 5.08979)
(-1.75639e-11 -0.197017 5.09175)
(-2.28368e-11 -0.19186 5.09302)
(-8.16173e-11 -0.186256 5.09365)
(-1.21251e-10 -0.180805 5.09385)
(-1.40732e-10 -0.1752 5.09365)
(-8.86542e-11 -0.169487 5.09319)
(8.48805e-11 -0.163307 5.09242)
(2.02939e-10 -0.156978 5.09135)
(1.51179e-10 -0.150487 5.09004)
(1.53641e-10 -0.144075 5.08857)
(6.84522e-11 -0.137737 5.08696)
(7.66879e-12 -0.1315 5.08525)
(-4.51901e-11 -0.125319 5.08343)
(8.15849e-11 -0.119198 5.08155)
(1.55257e-10 -0.113166 5.07958)
(1.05136e-10 -0.10741 5.07764)
(2.89447e-11 -0.101981 5.0758)
(-5.48068e-11 -0.0969631 5.07419)
(-1.99011e-11 -0.0923564 5.07274)
(-1.47634e-10 -0.0880272 5.07137)
(-1.75434e-10 -0.0838761 5.07003)
(-1.3678e-10 -0.0797447 5.06871)
(-1.0142e-10 -0.0754487 5.0673)
(-1.33403e-10 -0.0708711 5.06584)
(-2.60125e-10 -0.0660488 5.06439)
(-3.27792e-10 -0.0610609 5.06312)
(-3.07953e-10 -0.055991 5.06199)
(-4.3217e-11 -0.0508436 5.06102)
(-1.55797e-10 -0.0456223 5.06015)
(-4.57522e-11 -0.0403349 5.0594)
(1.98858e-10 -0.0351779 5.05876)
(1.60865e-10 -0.0300912 5.0583)
(2.14171e-10 -0.025261 5.05789)
(6.30442e-10 -0.0202755 5.05764)
(1.72215e-09 -0.0158334 5.05733)
(2.03397e-09 -0.0108419 5.05745)
(1.45408e-09 -0.00719445 5.05686)
(2.06843e-11 -0.0982618 4.12105)
(2.77727e-11 -0.226664 4.813)
(5.07378e-11 -0.263096 4.98947)
(6.94842e-12 -0.254084 5.03919)
(-2.98532e-11 -0.244783 5.06561)
(-3.65768e-11 -0.235109 5.08218)
(6.97235e-12 -0.227707 5.09457)
(7.25877e-12 -0.220917 5.10419)
(4.47518e-11 -0.213188 5.10986)
(4.15741e-11 -0.20668 5.11392)
(-1.76996e-11 -0.199842 5.11653)
(-2.95648e-11 -0.193548 5.11815)
(-7.37833e-11 -0.187108 5.11897)
(-1.17895e-10 -0.181037 5.11917)
(-1.32433e-10 -0.174992 5.11897)
(-9.71247e-11 -0.168967 5.11839)
(5.7962e-11 -0.162558 5.11748)
(1.5757e-10 -0.156043 5.11623)
(1.45401e-10 -0.149475 5.11472)
(1.00108e-10 -0.14301 5.11304)
(6.85856e-11 -0.136621 5.11119)
(4.30294e-11 -0.130355 5.10924)
(-5.62321e-11 -0.124141 5.10723)
(4.29384e-11 -0.11799 5.10514)
(9.05486e-11 -0.111944 5.10304)
(7.77116e-11 -0.106179 5.10095)
(5.30062e-11 -0.100778 5.09897)
(-3.30748e-11 -0.0958259 5.09722)
(-3.84291e-12 -0.0912699 5.09567)
(-1.17703e-10 -0.0869871 5.09423)
(-1.4972e-10 -0.082892 5.09285)
(-6.79615e-11 -0.0788116 5.09148)
(-6.28776e-11 -0.0745694 5.09002)
(-1.04126e-10 -0.070078 5.08853)
(-2.63204e-10 -0.0653762 5.08709)
(-3.73139e-10 -0.0604987 5.08577)
(-2.92084e-10 -0.0555083 5.08459)
(-1.13681e-10 -0.0504606 5.0835)
(-1.69144e-10 -0.0453178 5.08252)
(3.45488e-11 -0.0400822 5.08167)
(2.25712e-10 -0.0349602 5.08103)
(9.72898e-11 -0.0299132 5.08053)
(2.53025e-10 -0.0251328 5.08017)
(7.15977e-10 -0.0201722 5.07979)
(1.74224e-09 -0.0157639 5.07967)
(1.95345e-09 -0.0106981 5.0793)
(1.62914e-09 -0.00717191 5.0794)
(1.59214e-11 -0.0742832 3.85399)
(1.81447e-11 -0.233856 4.65388)
(4.55682e-11 -0.300969 4.96716)
(2.81722e-11 -0.295621 5.06856)
(-1.08042e-11 -0.281874 5.09931)
(-2.59522e-11 -0.262683 5.11077)
(9.02133e-12 -0.247169 5.11927)
(2.27594e-11 -0.234259 5.1256)
(4.10548e-11 -0.222395 5.1299)
(3.79623e-11 -0.212814 5.13284)
(3.98406e-12 -0.203744 5.13467)
(-1.23226e-11 -0.195766 5.13561)
(-5.59802e-11 -0.18813 5.13592)
(-9.27565e-11 -0.181193 5.1357)
(-1.23269e-10 -0.17453 5.13513)
(-8.23996e-11 -0.167986 5.1342)
(5.0847e-11 -0.161267 5.13297)
(1.74335e-10 -0.154513 5.13141)
(1.40643e-10 -0.147752 5.12965)
(1.29453e-10 -0.14115 5.12768)
(5.95116e-11 -0.134685 5.12559)
(2.00107e-11 -0.128396 5.12342)
(-3.74841e-11 -0.122183 5.1212)
(3.84425e-11 -0.116069 5.11894)
(1.15314e-10 -0.110074 5.11672)
(1.07907e-10 -0.10432 5.11452)
(5.19378e-11 -0.098939 5.11244)
(-2.27384e-11 -0.0940302 5.11056)
(-4.9496e-11 -0.0895614 5.10892)
(-1.14361e-10 -0.0853831 5.10739)
(-1.23367e-10 -0.0813585 5.10595)
(-9.63337e-11 -0.0773534 5.10453)
(-9.18736e-11 -0.073242 5.10306)
(-7.92852e-11 -0.0689204 5.10152)
(-2.1517e-10 -0.0643422 5.10002)
(-2.96258e-10 -0.0595638 5.0986)
(-1.99536e-10 -0.0546991 5.09732)
(-4.86936e-11 -0.0497612 5.09613)
(-1.67675e-10 -0.0447595 5.09505)
(-2.02762e-11 -0.0396839 5.09412)
(9.66688e-11 -0.0346755 5.09339)
(6.13531e-11 -0.0297522 5.09284)
(3.68752e-10 -0.0250167 5.0924)
(6.01608e-10 -0.0202316 5.09198)
(1.28377e-09 -0.01576 5.09184)
(1.66423e-09 -0.0110341 5.09128)
(1.31671e-09 -0.00710176 5.09176)
(1.51197e-11 -0.0590519 3.60635)
(4.11481e-11 -0.219718 4.43794)
(3.7499e-11 -0.312291 4.92119)
(9.71668e-12 -0.3069 5.09347)
(-2.16245e-11 -0.295736 5.14306)
(-3.72681e-11 -0.272346 5.15189)
(1.318e-11 -0.255327 5.15523)
(8.80146e-13 -0.240028 5.15684)
(3.60947e-11 -0.226425 5.15791)
(3.86589e-11 -0.215247 5.15843)
(-9.11761e-12 -0.204952 5.15848)
(-3.63261e-11 -0.195993 5.15803)
(-9.19726e-11 -0.187657 5.15724)
(-1.08135e-10 -0.180115 5.15612)
(-1.13171e-10 -0.172999 5.1548)
(-6.36358e-11 -0.166121 5.15323)
(4.44715e-11 -0.159178 5.15141)
(1.56327e-10 -0.152305 5.14932)
(1.25021e-10 -0.145456 5.14707)
(1.29261e-10 -0.138734 5.1447)
(5.81568e-11 -0.132235 5.14229)
(2.12731e-11 -0.125959 5.13984)
(-4.93669e-11 -0.119792 5.13738)
(-5.03829e-14 -0.113751 5.13492)
(8.78371e-11 -0.107819 5.13251)
(8.45089e-11 -0.102115 5.13016)
(5.61369e-11 -0.0967687 5.12794)
(-1.67041e-11 -0.0918946 5.12596)
(-3.58861e-11 -0.0875054 5.12421)
(-8.78607e-11 -0.0834254 5.12262)
(-1.50068e-10 -0.0795327 5.12112)
(-1.35926e-10 -0.0756375 5.11965)
(-1.13868e-10 -0.0716107 5.11814)
(-1.14532e-10 -0.0673886 5.11656)
(-1.72414e-10 -0.0629172 5.11495)
(-3.14144e-10 -0.0582724 5.11341)
(-2.10632e-10 -0.0535437 5.112)
(-7.28289e-11 -0.048763 5.11073)
(-1.70175e-10 -0.0439008 5.10957)
(4.56543e-11 -0.0389942 5.10856)
(1.53064e-10 -0.0341858 5.1077)
(1.67576e-10 -0.0293741 5.10712)
(1.81764e-10 -0.0247659 5.10657)
(5.03997e-10 -0.0201248 5.1062)
(1.36343e-09 -0.0155969 5.10587)
(1.68368e-09 -0.011361 5.10552)
(1.34888e-09 -0.0068395 5.10574)
(3.643e-12 -0.0572679 3.3843)
(2.0053e-11 -0.211759 4.21748)
(3.42263e-11 -0.313722 4.85648)
(2.66957e-11 -0.306038 5.11531)
(-3.61746e-12 -0.298055 5.18387)
(-3.72381e-11 -0.273426 5.19192)
(-1.00367e-11 -0.256848 5.19162)
(1.66476e-11 -0.240492 5.18982)
(5.49232e-11 -0.226223 5.18821)
(5.71223e-11 -0.214366 5.18653)
(-1.04183e-13 -0.203542 5.18481)
(-1.12183e-11 -0.19409 5.18293)
(-3.74508e-11 -0.185403 5.18094)
(-1.00601e-10 -0.17759 5.17884)
(-9.26654e-11 -0.170307 5.17667)
(-8.25241e-11 -0.163277 5.17438)
(3.78128e-11 -0.156244 5.1719)
(1.30678e-10 -0.149313 5.16923)
(1.40223e-10 -0.142442 5.16643)
(1.2198e-10 -0.135773 5.16362)
(6.93616e-11 -0.129344 5.16086)
(2.04096e-11 -0.12313 5.15811)
(-1.99384e-11 -0.117051 5.15542)
(1.80558e-11 -0.111104 5.15277)
(1.06172e-10 -0.105261 5.15018)
(9.96852e-11 -0.099611 5.14769)
(2.19609e-11 -0.0943245 5.14534)
(-6.19594e-11 -0.089537 5.14325)
(-5.61177e-11 -0.0852375 5.14144)
(-1.07102e-10 -0.0812605 5.1398)
(-1.47232e-10 -0.0774373 5.13826)
(-1.11052e-10 -0.0736427 5.13674)
(-9.11741e-11 -0.0697292 5.13519)
(-8.10138e-11 -0.0655775 5.13357)
(-1.70245e-10 -0.0612224 5.13189)
(-2.89219e-10 -0.0566996 5.13027)
(-2.18514e-10 -0.0521317 5.12878)
(-3.9178e-11 -0.0475152 5.12746)
(-1.85898e-10 -0.0428109 5.12625)
(1.41822e-12 -0.0379995 5.12523)
(9.66356e-11 -0.0333908 5.12424)
(3.58883e-11 -0.0287535 5.12354)
(9.41439e-11 -0.0242139 5.1229)
(6.4715e-10 -0.0196665 5.12249)
(1.32377e-09 -0.015193 5.12202)
(1.48201e-09 -0.0111213 5.12183)
(1.57467e-09 -0.00655881 5.12172)
(8.9496e-12 -0.0585885 3.16876)
(1.10342e-11 -0.204256 4.01065)
(3.363e-11 -0.301411 4.79543)
(2.00374e-11 -0.295766 5.1338)
(-2.60045e-12 -0.292075 5.22163)
(-2.07066e-11 -0.268042 5.23137)
(-6.4357e-12 -0.252642 5.22826)
(8.83867e-12 -0.236183 5.22332)
(4.87231e-11 -0.222105 5.21909)
(5.09663e-11 -0.210241 5.21512)
(-2.77743e-11 -0.199466 5.21154)
(-3.13897e-11 -0.189985 5.20812)
(-5.53668e-11 -0.18132 5.20488)
(-1.17241e-10 -0.173521 5.20174)
(-1.21987e-10 -0.166284 5.19868)
(-7.92969e-11 -0.159319 5.1956)
(3.06995e-11 -0.152365 5.19245)
(1.2335e-10 -0.145502 5.18916)
(1.1426e-10 -0.138739 5.18584)
(1.23047e-10 -0.132214 5.18259)
(5.48286e-11 -0.125915 5.17945)
(-6.05346e-12 -0.119846 5.17641)
(-2.17394e-11 -0.113913 5.17346)
(1.147e-11 -0.108106 5.17062)
(1.1059e-10 -0.102372 5.16786)
(9.90597e-11 -0.0968241 5.16523)
(5.18795e-11 -0.0916531 5.16279)
(-4.47375e-11 -0.0869806 5.16063)
(-3.12416e-11 -0.0828023 5.15876)
(-7.61736e-11 -0.0789475 5.15705)
(-1.32507e-10 -0.0752324 5.15546)
(-7.74778e-11 -0.0715051 5.15391)
(-9.33482e-11 -0.0676961 5.1523)
(-6.99181e-11 -0.0636463 5.15066)
(-1.63116e-10 -0.0593743 5.14894)
(-2.72604e-10 -0.0550087 5.14726)
(-1.59984e-10 -0.0506328 5.14571)
(-1.22051e-10 -0.0461967 5.14435)
(-1.16314e-10 -0.0416812 5.1431)
(3.30188e-11 -0.0369523 5.14207)
(6.66126e-11 -0.032383 5.14104)
(1.22768e-10 -0.0279024 5.14021)
(1.8141e-10 -0.0235614 5.13945)
(4.65732e-10 -0.0191079 5.1389)
(1.29812e-09 -0.0147291 5.13842)
(1.36559e-09 -0.0107199 5.13809)
(1.28033e-09 -0.00638529 5.13802)
(9.70999e-12 -0.0590464 2.95115)
(3.20036e-12 -0.194507 3.80989)
(2.94212e-11 -0.283769 4.73736)
(1.84208e-11 -0.279394 5.14855)
(-7.96488e-12 -0.277739 5.25754)
(-3.62704e-11 -0.255651 5.26977)
(-1.21638e-11 -0.242215 5.26446)
(2.41617e-11 -0.226971 5.25657)
(4.70413e-11 -0.21407 5.24977)
(5.5471e-11 -0.202895 5.24366)
(1.12567e-11 -0.192754 5.23825)
(-6.16051e-12 -0.183741 5.23336)
(-4.75204e-11 -0.175446 5.22884)
(-7.72687e-11 -0.167962 5.22468)
(-1.09096e-10 -0.161014 5.22073)
(-7.03156e-11 -0.15431 5.21688)
(4.27434e-11 -0.147589 5.213)
(1.58896e-10 -0.140938 5.2091)
(1.37577e-10 -0.1344 5.20523)
(1.13541e-10 -0.128103 5.20151)
(8.37596e-11 -0.122044 5.198)
(1.37746e-11 -0.116186 5.19464)
(-2.67527e-11 -0.110438 5.19143)
(3.83517e-11 -0.104813 5.18839)
(9.09178e-11 -0.0992484 5.18545)
(8.45791e-11 -0.093875 5.18271)
(3.54277e-11 -0.0888656 5.18018)
(-3.68416e-11 -0.0843359 5.17795)
(-5.62174e-11 -0.0802908 5.17602)
(-6.60297e-11 -0.0765312 5.17427)
(-1.32695e-10 -0.0729302 5.17261)
(-1.45453e-10 -0.0693192 5.17102)
(-8.99517e-11 -0.0656177 5.16939)
(-1.06948e-10 -0.0616677 5.16768)
(-1.98998e-10 -0.0574957 5.16592)
(-2.59702e-10 -0.0532278 5.16423)
(-2.09559e-10 -0.049063 5.1626)
(-7.47367e-11 -0.0448408 5.16121)
(-8.16314e-11 -0.0405421 5.15987)
(-2.60679e-11 -0.0360046 5.15878)
(1.53273e-10 -0.0315163 5.15771)
(7.03485e-11 -0.0270982 5.15685)
(2.86251e-10 -0.0228227 5.15601)
(3.72947e-10 -0.0185571 5.15532)
(1.11752e-09 -0.0142833 5.15481)
(1.14918e-09 -0.0104966 5.15423)
(1.31922e-09 -0.00618692 5.1544)
(1.21507e-11 -0.0585926 2.73752)
(3.0361e-11 -0.177134 3.62023)
(3.53328e-11 -0.262339 4.68117)
(2.37013e-11 -0.257556 5.16144)
(1.41129e-11 -0.257786 5.2907)
(-2.08934e-11 -0.23881 5.30579)
(-7.1292e-12 -0.227355 5.29828)
(1.64951e-11 -0.213717 5.28818)
(4.58944e-11 -0.202643 5.27922)
(3.50564e-11 -0.192605 5.27136)
(-1.90978e-11 -0.183565 5.26438)
(-2.38017e-11 -0.175414 5.25819)
(-6.45049e-11 -0.167848 5.25249)
(-1.03893e-10 -0.160996 5.24739)
(-1.18296e-10 -0.154544 5.24259)
(-5.68149e-11 -0.148295 5.238)
(2.0861e-11 -0.141996 5.23345)
(1.26972e-10 -0.135757 5.22893)
(1.09573e-10 -0.129582 5.22454)
(9.81253e-11 -0.123656 5.22039)
(6.42265e-11 -0.117914 5.21653)
(-1.62475e-12 -0.11233 5.21288)
(-1.73854e-11 -0.10686 5.20942)
(1.39554e-11 -0.101447 5.20616)
(8.44153e-11 -0.0960931 5.20306)
(8.92154e-11 -0.0909318 5.20023)
(4.72229e-11 -0.0860899 5.19762)
(-7.61599e-11 -0.0817207 5.19533)
(-6.74733e-11 -0.0778033 5.19334)
(-9.0767e-11 -0.0741592 5.19154)
(-1.19001e-10 -0.0706614 5.18986)
(-1.00582e-10 -0.0671683 5.18823)
(-3.79015e-11 -0.0635791 5.18657)
(-6.36568e-11 -0.0597215 5.18482)
(-1.54531e-10 -0.055705 5.183)
(-2.59566e-10 -0.0515648 5.18129)
(-1.76855e-10 -0.0475366 5.17964)
(-6.7401e-11 -0.0434704 5.17821)
(-1.19476e-10 -0.0393394 5.17674)
(-4.26609e-11 -0.0349441 5.17558)
(1.47713e-10 -0.0305722 5.17441)
(1.08093e-10 -0.026262 5.17354)
(2.7704e-10 -0.0220441 5.17266)
(5.90635e-10 -0.0179384 5.17195)
(1.27806e-09 -0.0136399 5.17139)
(1.20039e-09 -0.0102816 5.17072)
(9.26132e-10 -0.00572202 5.17097)
(8.31688e-12 -0.0559638 2.54863)
(2.3908e-11 -0.157777 3.45377)
(3.78739e-11 -0.237556 4.6296)
(2.21919e-11 -0.232799 5.1722)
(-4.92957e-12 -0.235056 5.31922)
(-3.04289e-11 -0.218441 5.33751)
(-1.01963e-11 -0.20962 5.32847)
(9.62722e-12 -0.197802 5.31667)
(3.48827e-11 -0.18872 5.3059)
(3.71012e-11 -0.180166 5.29678)
(1.27008e-11 -0.17246 5.2886)
(-2.52149e-11 -0.165447 5.28142)
(-4.28088e-11 -0.158858 5.27485)
(-8.38908e-11 -0.152877 5.26901)
(-1.00323e-10 -0.147104 5.26356)
(-6.67086e-11 -0.141516 5.25841)
(5.10363e-11 -0.135777 5.25332)
(1.63569e-10 -0.130065 5.24835)
(1.29213e-10 -0.124384 5.2436)
(1.08334e-10 -0.118897 5.23915)
(7.86441e-11 -0.113558 5.23502)
(3.03518e-11 -0.108304 5.23117)
(-1.21213e-11 -0.103118 5.22755)
(2.82705e-11 -0.0979818 5.22417)
(9.00077e-11 -0.0928943 5.221)
(8.29405e-11 -0.0879847 5.21807)
(6.02255e-11 -0.083336 5.21541)
(-3.10451e-11 -0.0791082 5.21311)
(-4.25992e-11 -0.0753408 5.21111)
(-1.09874e-10 -0.0718383 5.20933)
(-1.24079e-10 -0.0684569 5.20763)
(-8.64792e-11 -0.0650761 5.20603)
(-9.76641e-11 -0.0615903 5.20437)
(-6.04734e-11 -0.0578195 5.20268)
(-1.64251e-10 -0.0539537 5.20089)
(-2.52681e-10 -0.0499215 5.19923)
(-1.34046e-10 -0.0460454 5.19754)
(-7.35101e-11 -0.0420351 5.19611)
(-8.09527e-11 -0.038019 5.19457)
(-2.23089e-11 -0.0337874 5.19335)
(1.53017e-10 -0.0295171 5.19206)
(8.77557e-11 -0.0253304 5.1912)
(2.72356e-10 -0.0211755 5.19023)
(5.85205e-10 -0.0172358 5.18962)
(1.30641e-09 -0.0129381 5.18895)
(1.27093e-09 -0.00994056 5.18853)
(8.30289e-10 -0.00515041 5.1884)
(2.18375e-11 -0.0518041 2.38088)
(2.49318e-11 -0.140173 3.30826)
(3.03902e-11 -0.21031 4.58346)
(7.38261e-12 -0.206883 5.18059)
(-7.19668e-12 -0.209771 5.34373)
(-2.98248e-11 -0.196642 5.36476)
(-4.72597e-12 -0.190076 5.35449)
(3.83963e-12 -0.180878 5.34139)
(4.28789e-11 -0.173566 5.32929)
(3.23939e-11 -0.16677 5.31937)
(-5.51737e-12 -0.160393 5.31038)
(-4.02686e-11 -0.154648 5.30255)
(-5.26038e-11 -0.149079 5.29544)
(-7.61693e-11 -0.144007 5.28911)
(-1.09037e-10 -0.138992 5.28326)
(-4.92366e-11 -0.134077 5.27777)
(4.04139e-11 -0.12893 5.27236)
(1.12194e-10 -0.123816 5.26716)
(1.09898e-10 -0.118645 5.26222)
(9.60101e-11 -0.113613 5.25764)
(7.51221e-11 -0.108655 5.2534)
(2.55135e-11 -0.103767 5.24946)
(-1.48882e-11 -0.0989359 5.2458)
(1.03898e-11 -0.0941286 5.2424)
(7.39337e-11 -0.0893286 5.23924)
(6.86687e-11 -0.0846537 5.23631)
(2.71953e-11 -0.0802358 5.23368)
(-2.37732e-11 -0.0761851 5.2314)
(-5.06748e-11 -0.0725646 5.22945)
(-6.36856e-11 -0.0691832 5.2277)
(-1.14365e-10 -0.0659287 5.22608)
(-1.22307e-10 -0.0626607 5.22454)
(-7.23276e-11 -0.0593024 5.22295)
(-1.01026e-10 -0.0556798 5.22136)
(-1.57581e-10 -0.0519683 5.21966)
(-1.86816e-10 -0.0480497 5.2181)
(-1.6559e-10 -0.0443098 5.21649)
(-6.83957e-11 -0.0404166 5.2151)
(-5.00731e-11 -0.0365349 5.21359)
(-9.34834e-12 -0.0324255 5.21241)
(1.25516e-10 -0.0283607 5.21107)
(5.73743e-11 -0.0243334 5.21025)
(2.52865e-10 -0.0202936 5.20926)
(6.63887e-10 -0.0165137 5.20874)
(1.18786e-09 -0.0123629 5.20798)
(1.30224e-09 -0.00937727 5.20784)
(8.43628e-10 -0.0049388 5.20717)
(2.20156e-11 -0.0467672 2.23082)
(3.95118e-11 -0.120027 3.18266)
(4.13895e-11 -0.179443 4.54429)
(1.38127e-11 -0.17746 5.18771)
(-4.59334e-12 -0.181263 5.36424)
(-2.71103e-11 -0.173178 5.38699)
(-1.19395e-11 -0.169119 5.377)
(-2.71964e-12 -0.163004 5.36328)
(2.66859e-11 -0.157358 5.35055)
(1.55624e-11 -0.152413 5.34016)
(-8.48834e-12 -0.147309 5.33073)
(-2.32821e-11 -0.142877 5.32255)
(-4.81419e-11 -0.138359 5.31512)
(-8.72851e-11 -0.13423 5.30854)
(-1.067e-10 -0.130054 5.30247)
(-8.63296e-11 -0.125879 5.29681)
(4.57636e-12 -0.12138 5.29124)
(1.2379e-10 -0.116937 5.28596)
(1.38029e-10 -0.112331 5.28092)
(1.19062e-10 -0.107788 5.27632)
(6.96408e-11 -0.103283 5.27206)
(1.28457e-11 -0.0988042 5.26812)
(-1.51375e-11 -0.0943465 5.26449)
(3.77655e-11 -0.089893 5.26112)
(8.98949e-11 -0.0854209 5.25801)
(7.87061e-11 -0.0810542 5.25517)
(2.1911e-11 -0.0769016 5.25265)
(-3.19485e-11 -0.0730891 5.25046)
(-7.83709e-11 -0.0696533 5.2486)
(-1.2996e-10 -0.0664183 5.24692)
(-1.18581e-10 -0.0632992 5.24541)
(-6.34641e-11 -0.0601539 5.24393)
(-7.2628e-11 -0.0569318 5.24246)
(-5.53895e-11 -0.0534138 5.24095)
(-1.62584e-10 -0.0498847 5.23938)
(-2.22483e-10 -0.0461037 5.23792)
(-1.529e-10 -0.0424816 5.23641)
(-7.8781e-11 -0.0386788 5.23508)
(-1.30495e-10 -0.0349718 5.23366)
(-2.60925e-11 -0.0310102 5.23251)
(1.37492e-10 -0.0271511 5.23127)
(1.71893e-10 -0.0233198 5.23047)
(2.57732e-10 -0.0194559 5.22953)
(6.56659e-10 -0.0157722 5.22901)
(1.26429e-09 -0.0118539 5.2283)
(1.27786e-09 -0.00868787 5.22818)
(1.53544e-09 -0.00489906 5.22755)
(1.78874e-11 -0.0429866 2.0996)
(2.62482e-11 -0.0996663 3.07786)
(5.13071e-11 -0.147117 4.51149)
(1.39039e-11 -0.145866 5.19279)
(1.53618e-12 -0.15053 5.37894)
(-2.36044e-11 -0.147173 5.40337)
(-1.8966e-11 -0.145602 5.39485)
(6.38948e-12 -0.142843 5.38163)
(2.61866e-11 -0.139438 5.36894)
(4.16701e-11 -0.136681 5.35857)
(2.00294e-11 -0.13323 5.34902)
(-1.86283e-11 -0.130353 5.34086)
(-3.89527e-11 -0.12705 5.33333)
(-8.04363e-11 -0.12401 5.32679)
(-1.09309e-10 -0.120777 5.32063)
(-5.4585e-11 -0.117441 5.31502)
(3.77693e-11 -0.113722 5.30943)
(1.24093e-10 -0.109985 5.30426)
(1.19113e-10 -0.105973 5.29923)
(1.12306e-10 -0.102001 5.29476)
(9.6202e-11 -0.0979265 5.29057)
(2.63055e-11 -0.0938758 5.28676)
(-4.87297e-11 -0.0898102 5.28323)
(3.20586e-12 -0.0857248 5.27997)
(6.73761e-11 -0.0816009 5.27697)
(1.00629e-10 -0.0775606 5.27427)
(6.69796e-11 -0.0736899 5.27181)
(3.1736e-11 -0.0701335 5.26977)
(-1.87596e-11 -0.0668928 5.268)
(-1.09595e-10 -0.0638438 5.26643)
(-1.2043e-10 -0.0608848 5.26497)
(-1.07862e-10 -0.0578639 5.26362)
(-9.65933e-11 -0.0548026 5.26221)
(-7.83363e-11 -0.0514184 5.26082)
(-2.01736e-10 -0.0480453 5.25934)
(-2.34573e-10 -0.0443704 5.25796)
(-1.40375e-10 -0.0408751 5.25658)
(-5.3701e-11 -0.0371613 5.25532)
(-2.50641e-11 -0.033578 5.25399)
(4.23039e-12 -0.0297385 5.25288)
(1.09135e-10 -0.026071 5.25174)
(2.94693e-11 -0.0223547 5.25093)
(2.18763e-10 -0.0186124 5.2501)
(5.95569e-10 -0.0150801 5.24951)
(1.05354e-09 -0.0113182 5.24903)
(1.43304e-09 -0.00812743 5.24862)
(1.13865e-09 -0.00467772 5.24848)
(1.39494e-11 -0.0398084 1.98898)
(1.02497e-11 -0.0794021 2.99993)
(4.10507e-11 -0.114412 4.48874)
(2.54471e-11 -0.114334 5.19647)
(4.65314e-12 -0.120511 5.38859)
(-1.94295e-11 -0.120829 5.41478)
(-1.90949e-11 -0.121789 5.40702)
(1.56179e-11 -0.122451 5.39503)
(3.1823e-11 -0.12165 5.38274)
(3.21592e-11 -0.121378 5.37317)
(-1.06728e-11 -0.119683 5.36385)
(-1.81569e-11 -0.118446 5.35622)
(-5.13909e-11 -0.116407 5.34883)
(-6.96645e-11 -0.114477 5.34267)
(-9.34008e-11 -0.112152 5.33663)
(-8.4006e-11 -0.109685 5.33133)
(2.03133e-12 -0.106716 5.32587)
(1.28955e-10 -0.103695 5.32098)
(1.42736e-10 -0.100228 5.31611)
(1.25628e-10 -0.0967853 5.31189)
(7.99716e-11 -0.0931058 5.30784)
(1.17381e-11 -0.089487 5.30425)
(-1.79484e-11 -0.0857452 5.30085)
(2.63478e-11 -0.0819873 5.29776)
(1.23366e-10 -0.0782007 5.29489)
(8.80718e-11 -0.0744129 5.29235)
(4.04279e-11 -0.0708055 5.29)
(-1.95315e-11 -0.0674876 5.28812)
(-3.71158e-11 -0.0644059 5.28646)
(-1.08004e-10 -0.0615068 5.28498)
(-1.31606e-10 -0.0587655 5.2836)
(-1.25821e-10 -0.0559033 5.28233)
(-9.67972e-11 -0.0529574 5.28098)
(-9.35096e-11 -0.0497363 5.27968)
(-1.76557e-10 -0.0464642 5.27828)
(-2.09024e-10 -0.042919 5.27699)
(-1.88418e-10 -0.0394935 5.27572)
(-7.47671e-11 -0.035819 5.27453)
(-7.74334e-11 -0.0323191 5.27329)
(1.5725e-11 -0.028581 5.27221)
(1.29863e-10 -0.0249897 5.27119)
(1.27278e-10 -0.021423 5.27032)
(1.5735e-10 -0.0177657 5.26969)
(5.60321e-10 -0.0144489 5.26895)
(1.1168e-09 -0.010696 5.26867)
(1.48009e-09 -0.00770038 5.26784)
(9.74165e-10 -0.00421118 5.26821)
(5.09669e-12 -0.0357275 1.90462)
(1.81939e-11 -0.0586191 2.95194)
(3.56573e-11 -0.0843607 4.47643)
(2.95337e-11 -0.0862148 5.19763)
(1.39049e-13 -0.0950331 5.39283)
(-2.12812e-11 -0.0990542 5.42137)
(-1.36587e-11 -0.102394 5.41369)
(9.19825e-12 -0.105902 5.40338)
(3.45337e-11 -0.106848 5.39162)
(4.16207e-11 -0.108688 5.38372)
(-1.33717e-11 -0.108238 5.37509)
(-2.36219e-11 -0.108421 5.36861)
(-5.45729e-11 -0.107333 5.36168)
(-6.10395e-11 -0.106388 5.35625)
(-1.03689e-10 -0.104748 5.35059)
(-6.11453e-11 -0.103024 5.3458)
(4.45734e-12 -0.10062 5.34068)
(1.0295e-10 -0.0982206 5.33619)
(1.39797e-10 -0.0951745 5.3316)
(9.57419e-11 -0.0922091 5.3277)
(5.67938e-11 -0.0888618 5.32389)
(2.21693e-11 -0.0856169 5.32054)
(-5.22251e-11 -0.0821502 5.31734)
(1.07358e-11 -0.0786878 5.31445)
(1.11465e-10 -0.0751806 5.31173)
(1.11305e-10 -0.0716127 5.30929)
(3.34751e-11 -0.0682369 5.30709)
(-1.64647e-11 -0.0651419 5.30524)
(-2.34461e-11 -0.062187 5.30368)
(-8.25075e-11 -0.0594652 5.30226)
(-1.12308e-10 -0.0568986 5.30098)
(-1.07408e-10 -0.0541414 5.29973)
(-8.95588e-11 -0.0513514 5.29845)
(-8.14598e-11 -0.0482552 5.2972)
(-1.4268e-10 -0.0450744 5.29586)
(-2.17235e-10 -0.0416308 5.29465)
(-2.48279e-10 -0.0382609 5.29343)
(-1.44374e-10 -0.0346342 5.29235)
(-1.14121e-10 -0.0312153 5.29119)
(-6.76687e-11 -0.0276241 5.2902)
(1.44272e-10 -0.0240832 5.28929)
(5.31037e-11 -0.020713 5.28842)
(3.83262e-10 -0.0171155 5.2879)
(5.89764e-10 -0.0139436 5.28706)
(1.10623e-09 -0.0101503 5.28684)
(1.32111e-09 -0.00753522 5.28573)
(9.39929e-10 -0.00375335 5.28643)
(1.37503e-11 -0.0312989 1.84314)
(8.88231e-12 -0.0402539 2.92296)
(3.1287e-11 -0.0597959 4.46633)
(2.11866e-11 -0.0642368 5.19394)
(-1.5464e-11 -0.0756269 5.39101)
(-1.65067e-11 -0.0839141 5.4232)
(9.60139e-13 -0.0884497 5.41697)
(2.60922e-11 -0.0946067 5.40908)
(3.78907e-11 -0.0959147 5.39841)
(4.39469e-11 -0.0990804 5.39227)
(-6.15507e-12 -0.0992079 5.38452)
(-3.6595e-11 -0.100465 5.37918)
(-4.754e-11 -0.0998081 5.37302)
(-7.68928e-11 -0.0996383 5.36837)
(-9.84844e-11 -0.0983744 5.36331)
(-8.69649e-11 -0.0972249 5.35912)
(1.16123e-11 -0.0951642 5.35451)
(1.35486e-10 -0.0932618 5.35049)
(1.51e-10 -0.0905317 5.3463)
(1.06888e-10 -0.0879705 5.34273)
(6.84897e-11 -0.0848785 5.3392)
(3.28764e-11 -0.0819558 5.33612)
(-2.68554e-11 -0.078736 5.33312)
(2.75688e-11 -0.0755568 5.33041)
(1.06819e-10 -0.0722776 5.32787)
(6.51617e-11 -0.0689854 5.32554)
(1.4795e-11 -0.0658259 5.32352)
(-3.17474e-11 -0.0629196 5.32174)
(-5.38348e-11 -0.0601411 5.32026)
(-9.5743e-11 -0.057582 5.31894)
(-1.19415e-10 -0.0551718 5.3177)
(-1.08592e-10 -0.0525216 5.31653)
(-7.33366e-11 -0.0499074 5.31533)
(-9.37342e-11 -0.0469392 5.31414)
(-1.62078e-10 -0.0438898 5.31286)
(-1.40082e-10 -0.040525 5.31173)
(-1.75777e-10 -0.0372459 5.31052)
(-1.42954e-10 -0.0336833 5.30956)
(-8.08613e-11 -0.0303099 5.30845)
(-7.91728e-11 -0.0268925 5.30758)
(5.53861e-11 -0.0234071 5.30669)
(1.23288e-10 -0.0202114 5.30593)
(3.56018e-10 -0.0166573 5.30539)
(5.52975e-10 -0.0136427 5.30463)
(9.30614e-10 -0.00974815 5.30437)
(1.41136e-09 -0.00765925 5.30325)
(8.69802e-10 -0.0034491 5.30399)
(9.5735e-12 -0.0257458 1.8012)
(1.90889e-11 -0.0262227 2.9111)
(2.78861e-11 -0.0409818 4.45816)
(4.63528e-12 -0.0488222 5.18561)
(-1.87017e-11 -0.061694 5.38484)
(-1.98121e-11 -0.0736495 5.42201)
(5.37502e-12 -0.0785735 5.41815)
(6.59645e-12 -0.0865895 5.41313)
(3.2999e-11 -0.0877997 5.40458)
(3.18656e-11 -0.0920715 5.39956)
(-5.9067e-12 -0.0921333 5.39312)
(-3.92653e-11 -0.0940727 5.38877)
(-6.48595e-11 -0.0934882 5.38368)
(-7.57449e-11 -0.0937779 5.37976)
(-1.01966e-10 -0.0926395 5.37549)
(-7.8619e-11 -0.0918547 5.37187)
(1.94152e-11 -0.0899807 5.36789)
(1.09161e-10 -0.0884264 5.36433)
(1.47735e-10 -0.0859197 5.3606)
(9.22023e-11 -0.0836949 5.35739)
(6.4755e-11 -0.0808489 5.35418)
(1.78191e-11 -0.0782338 5.35135)
(-2.13884e-11 -0.0752595 5.3486)
(1.20156e-11 -0.0723702 5.34611)
(7.93649e-11 -0.0692943 5.34374)
(7.96362e-11 -0.0662542 5.34158)
(1.48072e-11 -0.0633003 5.33972)
(-1.59401e-12 -0.0605394 5.33803)
(-2.26449e-11 -0.0580148 5.33663)
(-6.69526e-11 -0.0555823 5.33543)
(-8.83547e-11 -0.0532854 5.33423)
(-7.20448e-11 -0.0508078 5.33314)
(-6.91402e-11 -0.0483268 5.33202)
(-6.96865e-11 -0.0455086 5.33089)
(-1.80709e-10 -0.0426278 5.32973)
(-2.51714e-10 -0.0393432 5.3287)
(-2.12119e-10 -0.0361894 5.32757)
(-1.43459e-10 -0.0327449 5.32673)
(-4.60114e-11 -0.0294584 5.32573)
(-6.77787e-11 -0.0261899 5.325)
(1.40558e-10 -0.0227899 5.32418)
(5.97398e-11 -0.0197476 5.32357)
(4.00686e-10 -0.0162324 5.32297)
(6.00037e-10 -0.0134065 5.32243)
(9.04895e-10 -0.00939384 5.32203)
(1.11243e-09 -0.0078213 5.32127)
(9.40264e-10 -0.00320059 5.32164)
(1.26989e-11 -0.0175471 1.7758)
(2.20608e-11 -0.0171886 2.90616)
(2.7728e-11 -0.0285775 4.44959)
(3.14751e-12 -0.0404465 5.17387)
(-2.01162e-11 -0.0531027 5.37574)
(-2.9849e-11 -0.0674993 5.41714)
(-4.9605e-12 -0.072602 5.41783)
(9.71159e-12 -0.0815923 5.41591)
(2.7925e-11 -0.0825423 5.41005)
(3.49297e-11 -0.0873339 5.40629)
(-6.12778e-13 -0.0869453 5.40155)
(-3.43534e-11 -0.089056 5.39801)
(-6.72652e-11 -0.0882913 5.39407)
(-7.32883e-11 -0.0887217 5.39082)
(-1.05927e-10 -0.0875428 5.38742)
(-7.86727e-11 -0.0869261 5.3843)
(3.55661e-11 -0.0851289 5.38099)
(1.55687e-10 -0.0837728 5.37785)
(1.31628e-10 -0.08145 5.37462)
(9.0298e-11 -0.0794556 5.37174)
(8.98919e-11 -0.0767977 5.36888)
(3.76575e-11 -0.0744528 5.36631)
(-7.92991e-12 -0.0717183 5.36383)
(7.18656e-12 -0.0690938 5.36159)
(6.82924e-11 -0.066217 5.35942)
(5.15441e-11 -0.0634703 5.35746)
(-1.45144e-11 -0.0607125 5.35578)
(-2.67213e-11 -0.0580784 5.35424)
(6.40748e-13 -0.055783 5.35298)
(-7.31412e-11 -0.0534566 5.35186)
(-1.16589e-10 -0.0512604 5.35081)
(-1.03105e-10 -0.0489496 5.34981)
(-6.7672e-11 -0.0465866 5.34883)
(-6.36169e-11 -0.0438946 5.34781)
(-1.64825e-10 -0.0411697 5.34679)
(-1.80458e-10 -0.0379765 5.34589)
(-2.00042e-10 -0.0349864 5.34493)
(-1.21689e-10 -0.0316779 5.34419)
(-4.87974e-11 -0.0284938 5.34336)
(8.40404e-12 -0.0253614 5.34277)
(1.14549e-10 -0.0220798 5.34205)
(1.19756e-11 -0.0191349 5.34165)
(1.83614e-10 -0.0157059 5.34099)
(4.98551e-10 -0.0130242 5.34076)
(9.40884e-10 -0.00901132 5.34014)
(9.74871e-10 -0.0077042 5.34011)
(8.84993e-10 -0.00294169 5.33972)
(6.16831e-12 -0.0069034 1.76439)
(2.07438e-11 -0.012164 2.90299)
(2.8829e-11 -0.0231862 4.44157)
(6.77444e-12 -0.039818 5.16174)
(-1.55174e-11 -0.0507082 5.36679)
(-3.17111e-11 -0.0662818 5.41284)
(-2.6546e-12 -0.0688703 5.41803)
(1.31428e-11 -0.0784345 5.41842)
(2.83665e-11 -0.0788414 5.41525)
(4.28612e-11 -0.0836915 5.41278)
(-8.09222e-13 -0.0829327 5.40986)
(-2.94459e-11 -0.0850101 5.40697)
(-5.0707e-11 -0.0839987 5.40416)
(-6.12135e-11 -0.0844077 5.40144)
(-1.08652e-10 -0.0831506 5.39888)
(-6.62138e-11 -0.0825672 5.39621)
(7.23247e-12 -0.0808114 5.39353)
(1.10185e-10 -0.079542 5.39078)
(1.33419e-10 -0.0773563 5.38807)
(9.13445e-11 -0.0755239 5.38549)
(7.12511e-11 -0.0730348 5.38303)
(2.75784e-11 -0.0708928 5.38074)
(-1.14723e-11 -0.0683736 5.37857)
(1.69215e-11 -0.0659621 5.37659)
(6.59438e-11 -0.063276 5.37468)
(4.92719e-11 -0.0607927 5.37298)
(1.89423e-11 -0.0582105 5.37149)
(-4.52577e-11 -0.0557417 5.37017)
(-3.97233e-11 -0.0536198 5.36906)
(-8.37388e-11 -0.0514273 5.36809)
(-9.50038e-11 -0.0493546 5.36721)
(-1.42986e-10 -0.0471716 5.36637)
(-1.00411e-10 -0.0449228 5.36556)
(-8.22346e-11 -0.0423453 5.36475)
(-1.67694e-10 -0.0397768 5.36393)
(-2.44412e-10 -0.0366726 5.36324)
(-2.19653e-10 -0.0337777 5.36248)
(-2.04071e-10 -0.0306175 5.36191)
(-1.23014e-10 -0.0275594 5.36129)
(-2.12925e-11 -0.0244828 5.36091)