/*--------------------------------*- C++ -*----------------------------------*\
| =========                 |                                                 |
| \\      /  F ield         | OpenFOAM: The Open Source CFD Toolbox           |
|  \\    /   O peration     | Version:  2212                                  |
|   \\  /    A nd           | Website:  www.openfoam.com                      |
|    \\/     M anipulation  |                                                 |
\*---------------------------------------------------------------------------*/
FoamFile
{
    version     2.0;
    format      ascii;
    arch        "LSB;label=32;scalar=64";
    class       volScalarField;
    location    "0.015";
    object      alphat;
}
// * * * * * * * * * * * * * * * * * * * * * * * * * * * * * * * * * * * * * //

dimensions      [1 -1 -1 0 0 0 0];

internalField   nonuniform List<scalar> 
44662
(
0.00125784
0.00142667
0.00142734
0.00142521
0.00142619
0.000715241
0.00120471
0.000645856
0.00144129
0.00152897
0.00081776
0.000287532
0.00118463
0.00086642
4.40831e-05
0.000362277
3.71649e-05
3.83333e-05
0.000917531
0.00132776
0.0015356
3.68483e-05
0.00141183
0.00161166
6.64375e-05
0.000927545
0.00116065
0.00037746
0.00138319
0.000492945
4.45717e-05
0.000901952
5.5824e-05
0.000276836
0.00016835
0.00162232
0.000663086
0.000503955
0.000922102
0.00136524
0.0013001
0.000819059
8.78713e-05
0.00122263
0.00129481
0.000994003
0.000259142
0.00159819
0.00135767
0.0013678
0.00142109
0.000175906
0.000943917
3.5703e-05
0.00155193
0.000962303
0.000913443
0.000104802
0.000939924
0.000909403
0.000873955
6.51142e-05
0.00150424
0.0007211
0.00162248
0.000827255
6.98634e-05
4.80458e-05
0.000718196
0.000775497
3.82197e-05
9.17425e-05
0.000405953
0.000795621
0.000693702
0.00102094
9.52416e-05
0.000946672
0.000868867
6.67375e-05
0.000998157
0.000625517
0.00144887
0.000488485
0.00101559
0.00141635
0.000563249
0.00145201
0.00108523
0.00121687
0.00043709
0.000503729
0.00161206
9.08427e-05
0.00122217
0.00101286
0.000153716
0.00115077
0.00152135
0.00151386
0.00142704
0.00144659
0.00102802
7.51048e-05
0.00116808
0.000341536
0.00115254
0.000941946
0.0015205
0.00139545
0.00113616
0.0014395
0.0014447
0.00157328
0.000170029
0.00111701
0.000822783
0.00142454
6.25416e-05
0.00109697
0.00136442
0.00108832
0.000665494
0.00108072
0.0010627
0.00151433
0.0010647
0.00103622
0.00142293
0.00104706
0.0010091
0.000532325
0.000758596
0.000794844
0.00102526
0.000981951
0.000690058
0.000671839
0.00100068
0.000955274
0.000679377
0.000975231
0.000228117
0.000166017
0.00094952
0.00142192
0.00142027
0.00141673
0.00150707
0.0014546
0.00139124
0.0014235
0.000914129
6.37676e-05
0.00147722
0.00149914
0.00140414
0.00142832
0.00142943
0.00143053
0.00143165
0.00143276
0.00143387
0.00143498
0.0014361
0.00143723
0.00143838
0.00143953
0.0014407
0.00144188
0.00144307
0.00144427
0.00144548
0.0014467
0.00144793
0.00144917
0.00145042
0.00145168
0.00145296
0.00145424
0.00145554
0.00145684
0.00145816
0.00145949
0.00146083
0.00146218
0.00146354
0.00146492
0.00146632
0.00146772
0.00146913
0.00147055
0.00147198
0.00147343
0.00147489
0.00147636
0.00147784
0.00147934
0.00148084
0.00148236
0.00148389
0.00148543
0.00148698
0.00148855
0.00149013
0.00149172
0.0014896
0.00149118
0.00148803
5.60087e-05
0.00142723
0.00142827
0.00142719
0.00149333
0.00149495
0.00149435
0.00149276
0.00148493
0.00148647
0.00148188
0.0014834
0.00147889
0.00148038
0.00147594
0.00147741
0.00147304
0.00147448
0.00147018
0.0014716
0.00146735
0.00146876
0.00146459
0.00146596
0.00146188
0.00146323
0.00145922
0.00146055
0.00145661
0.00145791
0.00145403
0.00145532
0.0014515
0.00145276
0.00144901
0.00145025
0.00144656
0.00144778
0.00144415
0.00144535
0.00144179
0.00144297
0.00143946
0.00144062
0.00143716
0.00143831
0.00143491
0.00143603
0.00143269
0.0014338
0.00143047
0.00143158
0.00142937
0.00143046
0.00142936
0.00143266
0.00143156
0.00143488
0.00143377
0.00143712
0.00143599
0.00143941
0.00143826
0.00144174
0.00144057
0.00144411
0.00144292
0.00144652
0.00144531
0.00144896
0.00144773
0.00145145
0.0014502
0.00145399
0.00145272
0.00145657
0.00145528
0.0014592
0.00145788
0.00146187
0.00146053
0.00146459
0.00146322
0.00146734
0.00146596
0.00147014
0.00146874
0.00147299
0.00147156
0.00147589
0.00147444
0.00147884
0.00147736
0.00148182
0.00148032
0.00148485
0.00148333
0.00148791
0.00148638
0.00149104
0.00148947
0.00149423
0.00149263
0.00148785
0.00148938
0.00148633
5.91856e-05
6.08871e-05
0.00142809
0.00142703
0.00149594
0.00149241
0.00149392
0.00149217
0.00149585
0.00149372
0.00142611
0.00142615
0.0014909
0.00148331
0.00148481
0.00148036
0.00148183
0.00147747
0.00147891
0.00147462
0.00147604
0.00147181
0.00147321
0.00146904
0.00147042
0.0014663
0.00146767
0.00146361
0.00146495
0.00146097
0.00146228
0.00145839
0.00145967
0.00145585
0.00145712
0.00145336
0.0014546
0.00145089
0.00145212
0.00144846
0.00144967
0.00144607
0.00144726
0.00144371
0.00144488
0.0014414
0.00144255
0.00143912
0.00144026
0.00143689
0.001438
0.00143464
0.00143576
0.00143245
0.00143355
0.00143028
0.00143137
0.00142919
0.00138503
0.00149658
0.00143024
0.00142916
0.00143241
0.00143132
0.00143458
0.00143349
0.00143678
0.00143567
0.00143902
0.00143789
0.0014413
0.00144015
0.00144362
0.00144245
0.00144597
0.00144479
0.00144836
0.00144716
0.0014508
0.00144958
0.00145327
0.00145203
0.00145579
0.00145452
0.00145835
0.00145706
0.00146094
0.00145964
0.00146358
0.00146226
0.00146625
0.00146491
0.00146896
0.0014676
0.00147172
0.00147034
0.00147452
0.00147312
0.00147737
0.00147594
0.00148025
0.0014788
0.00148316
0.0014817
0.00148611
0.00148463
0.0014891
0.0014876
0.00149063
0.00142598
0.00149046
0.00148909
0.00148484
0.00148628
0.0014834
0.00149747
0.00149528
0.00142611
0.00142494
0.00142506
0.00142509
0.00149183
0.00148547
0.00148664
0.00142403
0.00142392
0.00148769
0.00148055
0.00148196
0.00147776
0.00147915
0.00147503
0.00147639
0.00147235
0.00147369
0.0014697
0.00147102
0.00146708
0.00146839
0.00146448
0.00146578
0.00146191
0.00146319
0.0014594
0.00146064
0.00145695
0.00145817
0.00145455
0.00145575
0.00145217
0.00145336
0.00144981
0.00145099
0.00144749
0.00144865
0.00144519
0.00144633
0.00144293
0.00144406
0.0014407
0.00144181
0.0014385
0.0014396
0.00143632
0.00143741
0.00143417
0.00143524
0.00143203
0.00143309
0.00142992
0.00143098
0.00161046
0.00142887
0.00149754
0.00149822
0.00149543
0.00142371
0.00142572
0.00142471
0.00142777
0.00142674
0.00142986
0.00142881
0.00143195
0.0014309
0.00143406
0.001433
0.00143619
0.00143512
0.00143836
0.00143727
0.00144055
0.00143945
0.00144278
0.00144166
0.00144505
0.00144391
0.00144734
0.00144619
0.00144968
0.0014485
0.00145204
0.00145085
0.00145444
0.00145324
0.00145689
0.00145566
0.00145936
0.00145812
0.00146186
0.00146061
0.0014644
0.00146313
0.00146696
0.00146567
0.00146957
0.00146826
0.00147221
0.00147088
0.00147488
0.00147354
0.00147759
0.00147623
0.00148031
0.00147895
0.00148306
0.00148168
0.00148585
0.00148445
0.0014887
0.00148727
0.00149158
0.00149014
0.00142292
0.00142272
0.00142598
0.00148427
0.00142506
0.00149321
0.00148783
0.00147878
0.00147972
0.00148627
0.00149303
0.00148755
0.00142405
0.00142301
0.00142193
0.00147914
0.00148046
0.00148177
0.00142175
0.00142537
0.00142575
0.00148304
0.00147653
0.00147783
0.00147398
0.00147525
0.0014715
0.00147273
0.00146905
0.00147027
0.00146663
0.00146784
0.00146423
0.00146543
0.00146182
0.00146302
0.00145942
0.00146062
0.0014571
0.00145825
0.00145485
0.00145596
0.00145263
0.00145374
0.00145042
0.00145153
0.00144822
0.00144932
0.00144604
0.00144713
0.00144388
0.00144496
0.00144175
0.00144281
0.00143964
0.00144069
0.00143755
0.0014386
0.00143547
0.00143651
0.00143341
0.00143444
0.00143138
0.00143239
0.00142938
0.00143039
0.00141971
0.00142837
0.00149339
0.0014991
0.00149684
0.00149915
0.00149986
0.00149695
0.00142145
0.00142336
0.0014224
0.0014253
0.00142432
0.00142727
0.00142628
0.00142927
0.00142827
0.00143127
0.00143027
0.00143329
0.00143228
0.00143532
0.0014343
0.00143737
0.00143634
0.00143945
0.00143841
0.00144156
0.0014405
0.00144369
0.00144262
0.00144585
0.00144476
0.00144803
0.00144694
0.00145024
0.00144913
0.00145248
0.00145136
0.00145475
0.00145362
0.00145705
0.0014559
0.00145937
0.0014582
0.0014617
0.00146053
0.00146406
0.00146288
0.00146645
0.00146525
0.00146886
0.00146765
0.00147129
0.00147007
0.00147374
0.00147251
0.00147621
0.00147497
0.00147868
0.00147744
0.00148117
0.00147992
0.00148371
0.00148244
0.00148499
0.00142079
0.00142051
0.00142494
0.00147782
0.00147456
0.00147569
0.00147341
0.00148066
0.00149447
0.00148882
0.00142482
0.00142438
0.00142387
0.00142403
0.00142303
0.00142201
0.00142095
0.00141984
0.00141957
0.00142472
0.00147679
0.00147112
0.00147226
0.00146889
0.00147
0.00146673
0.00146781
0.0014646
0.00146566
0.00146248
0.00146354
0.00146036
0.00146142
0.00145821
0.00145929
0.00145605
0.00145712
0.00145397
0.001455
0.00145197
0.00145296
0.00145001
0.00145099
0.00144802
0.00144902
0.00144603
0.00144702
0.00144404
0.00144503
0.00144207
0.00144305
0.00144011
0.00144109
0.00143816
0.00143913
0.00143622
0.00143719
0.00143428
0.00143525
0.00143235
0.00143331
0.00143044
0.00143139
0.00142859
0.00142949
0.00142671
0.00142765
0.00142576
0.00150074
0.00149841
0.00150077
0.00150152
0.00149461
0.00149849
0.00148161
0.00148904
0.00141918
0.00142099
0.00142008
0.00142282
0.0014219
0.00142468
0.00142375
0.00142655
0.00142562
0.00142843
0.0014275
0.00143031
0.00142937
0.0014322
0.00143126
0.0014341
0.00143315
0.001436
0.00143505
0.00143793
0.00143696
0.00143986
0.00143889
0.00144182
0.00144084
0.00144379
0.00144281
0.00144578
0.00144479
0.00144779
0.00144678
0.00144981
0.0014488
0.00145186
0.00145083
0.00145391
0.00145288
0.00145598
0.00145495
0.00145806
0.00145702
0.00146014
0.0014591
0.00146224
0.00146119
0.00146435
0.00146329
0.00146646
0.0014654
0.00146858
0.00146752
0.0014707
0.00146964
0.00147281
0.00147176
0.00147493
0.00147387
0.00147706
0.00147599
0.00147919
0.00147813
0.0014813
0.00148025
0.00141865
0.00141828
0.00142292
0.00142339
0.00142391
0.0014702
0.00147085
0.00146951
0.00142301
0.00148259
0.00147214
0.00147282
0.00147171
0.00148234
0.00147247
0.00142224
0.00142196
0.00142133
0.00142203
0.00142103
0.00141999
0.0014189
0.00141773
0.00146788
0.00146698
0.00146604
0.00141738
0.00142371
0.00147149
0.00146874
0.00146416
0.00146509
0.00146234
0.00146324
0.00146058
0.00146145
0.00145883
0.0014597
0.00145709
0.00145796
0.00145533
0.00145622
0.00145351
0.00145443
0.00145166
0.00145258
0.00144988
0.00145076
0.00144821
0.00144904
0.00144656
0.00144739
0.00144485
0.00144571
0.00144312
0.00144399
0.00144138
0.00144225
0.00143965
0.00144051
0.00143791
0.00143878
0.00143618
0.00143704
0.00143443
0.0014353
0.00143267
0.00143355
0.00143089
0.00143178
0.00142915
0.00143002
0.00142743
0.00142828
0.00142578
0.00142661
0.00142402
0.00142489
0.00142313
0.00149592
0.00149009
0.00150238
0.00149998
0.0015024
0.00150318
0.00149603
0.00150004
0.00149027
0.00141685
0.00141859
0.00141772
0.00142032
0.00141946
0.00142206
0.00142119
0.0014238
0.00142293
0.00142554
0.00142468
0.00142727
0.0014264
0.001429
0.00142814
0.00143073
0.00142987
0.00143244
0.00143159
0.00143416
0.0014333
0.00143589
0.00143503
0.00143761
0.00143675
0.00143935
0.00143848
0.00144108
0.00144021
0.00144282
0.00144195
0.00144457
0.0014437
0.00144632
0.00144544
0.00144807
0.0014472
0.00144983
0.00144895
0.00145158
0.0014507
0.00145333
0.00145245
0.00145507
0.0014542
0.0014568
0.00145593
0.00145853
0.00145766
0.00146024
0.00145939
0.00146195
0.0014611
0.00146363
0.00146279
0.00146529
0.00146446
0.00146693
0.00146611
0.00146855
0.00146774
0.00147015
0.00146936
0.00147094
0.00141649
0.00141599
0.00142241
0.0014229
0.00145951
0.00145982
0.00145916
0.00145749
0.00145812
0.00145682
0.00146039
0.0014607
0.00148338
0.00147322
0.0014204
0.001421
0.001422
0.00142104
0.00142006
0.00141904
0.00141797
0.00141682
0.00141559
0.00141512
0.00142271
0.0014601
0.00145869
0.00145543
0.00145612
0.00145411
0.00145476
0.00145284
0.00145347
0.00145157
0.0014522
0.0014503
0.00145094
0.00144897
0.00144965
0.00144755
0.00144828
0.00144608
0.00144681
0.00144468
0.00144536
0.00144342
0.00144404
0.00144214
0.00144279
0.00144079
0.00144147
0.00143938
0.00144009
0.00143795
0.00143866
0.0014365
0.00143723
0.00143504
0.00143577
0.00143357
0.00143431
0.00143207
0.00143282
0.00143053
0.00143131
0.00142897
0.00142975
0.00142743
0.00142819
0.00142591
0.00142667
0.00142439
0.00142516
0.00142291
0.00142367
0.00142128
0.00142209
0.00141961
0.00142045
0.0014194
0.00141872
0.00149736
0.00149136
0.00150402
0.00150155
0.00150404
0.00150485
0.00149746
0.0015016
0.00148359
0.00149151
0.00146103
0.00147351
0.00141443
0.00141611
0.00141527
0.00141775
0.00141693
0.00141938
0.00141857
0.00142099
0.00142019
0.00142259
0.0014218
0.00142416
0.00142337
0.00142572
0.00142494
0.00142726
0.00142649
0.00142877
0.00142802
0.00143027
0.00142952
0.00143176
0.00143101
0.00143323
0.00143249
0.00143469
0.00143396
0.00143615
0.00143542
0.00143759
0.00143687
0.00143902
0.00143831
0.00144044
0.00143974
0.00144186
0.00144115
0.00144325
0.00144256
0.00144463
0.00144395
0.001446
0.00144532
0.00144734
0.00144667
0.00144866
0.001448
0.00144994
0.0014493
0.00145121
0.00145058
0.00145244
0.00145183
0.00145363
0.00145304
0.00145479
0.00145422
0.00145589
0.00145535
0.00145695
0.00145643
0.00145797
0.00145747
0.00145893
0.00145846
0.00145983
0.00145939
0.00146065
0.00146025
0.00141425
0.00141359
0.00142143
0.0014219
0.00144647
0.00144636
0.00144649
0.00144587
0.00144616
0.00144551
0.00142004
0.00142102
0.00146137
0.00144588
0.00144578
0.0014454
0.00146102
0.00144536
0.00141749
0.00141842
0.00142007
0.00141911
0.00141811
0.00141705
0.00141592
0.0014147
0.00141275
0.00141338
0.00142172
0.0014461
0.00144598
0.00144623
0.00144638
0.00144471
0.00144511
0.00144397
0.00144433
0.00144328
0.00144362
0.0014426
0.00144295
0.00144189
0.00144225
0.00144109
0.0014415
0.00144015
0.00144064
0.00143913
0.00143964
0.00143819
0.00143864
0.00143741
0.00143779
0.00143659
0.00143701
0.00143565
0.00143613
0.00143464
0.00143515
0.00143358
0.00143412
0.00143249
0.00143304
0.00143137
0.00143194
0.00143022
0.0014308
0.00142902
0.00142963
0.00142776
0.0014284
0.00142645
0.00142711
0.00142516
0.0014258
0.00142391
0.00142454
0.00142262
0.00142327
0.00142128
0.00142196
0.00141994
0.00142063
0.00141844
0.00141919
0.0014169
0.00141767
0.00141674
0.0014156
0.00141627
0.00148441
0.00147395
0.00149881
0.00149263
0.00150567
0.00150312
0.00150569
0.00150652
0.0014989
0.00150317
0.0014846
0.00149276
0.00147422
0.00141031
0.00141187
0.00141191
0.00141108
0.00141349
0.00141268
0.00141507
0.00141428
0.00141661
0.00141584
0.0014181
0.00141736
0.00141955
0.00141883
0.00142096
0.00142025
0.00142233
0.00142165
0.00142367
0.00142301
0.00142497
0.00142432
0.00142623
0.0014256
0.00142746
0.00142685
0.00142865
0.00142806
0.00142982
0.00142924
0.00143096
0.0014304
0.00143208
0.00143152
0.00143317
0.00143263
0.00143423
0.0014337
0.00143526
0.00143474
0.00143626
0.00143576
0.00143723
0.00143675
0.00143816
0.0014377
0.00143905
0.00143861
0.00143991
0.00143949
0.00144071
0.00144032
0.00144147
0.0014411
0.00144218
0.00144183
0.00144283
0.00144251
0.00144342
0.00144313
0.00144394
0.00144369
0.00144439
0.00144418
0.00144476
0.00144459
0.00144506
0.00144492
0.00144527
0.00144518
0.00144539
0.00144534
0.00144541
0.00142047
0.00142092
0.00143078
0.00143022
0.00143123
0.00142777
0.00142718
0.00146138
0.00144529
0.00141909
0.00142005
0.00141758
0.00141912
0.00141487
0.00141594
0.00141817
0.00141718
0.00141614
0.00141502
0.00141382
0.00141251
0.00141109
0.00140864
0.00140952
0.00143176
0.00143185
0.00143184
0.00142075
0.00142898
0.00142837
0.00142961
0.00143156
0.00143174
0.00143179
0.00143168
0.00143171
0.00143169
0.00143169
0.00143169
0.0014317
0.00143163
0.00143167
0.00143145
0.00143156
0.00143109
0.00143129
0.00143061
0.00143085
0.00143021
0.00143039
0.00142999
0.00143009
0.00142971
0.00142987
0.00142928
0.00142951
0.00142873
0.00142901
0.00142812
0.00142843
0.00142746
0.00142779
0.00142674
0.0014271
0.00142597
0.00142636
0.00142514
0.00142556
0.00142422
0.00142469
0.00142322
0.00142372
0.00142223
0.00142272
0.00142129
0.00142176
0.00142029
0.0014208
0.00141921
0.00141976
0.00141803
0.00141864
0.00141676
0.00141742
0.00141539
0.00141607
0.00141412
0.00141475
0.00141411
0.00141275
0.00141345
0.00148543
0.00147467
0.00150026
0.00149389
0.00150733
0.0015047
0.00150735
0.00150821
0.00150035
0.00150475
0.00148561
0.00149402
0.0014617
0.00147492
0.00142658
0.00144568
0.00141068
0.00140993
0.0014122
0.00141144
0.00141366
0.00141294
0.00141506
0.00141437
0.00141637
0.00141572
0.00141762
0.00141701
0.00141881
0.00141823
0.00141994
0.00141938
0.00142101
0.00142048
0.00142202
0.00142152
0.00142297
0.0014225
0.00142386
0.00142342
0.00142471
0.00142429
0.00142552
0.00142512
0.00142627
0.0014259
0.00142698
0.00142663
0.00142764
0.00142732
0.00142826
0.00142796
0.00142882
0.00142855
0.00142933
0.00142908
0.00142979
0.00142957
0.0014302
0.00143
0.00143054
0.00143037
0.00143081
0.00143068
0.00143102
0.00143092
0.00143115
0.00143109
0.0014312
0.00143119
0.00143117
0.0014312
0.00143105
0.00143112
0.00143084
0.00143096
0.00143052
0.00143069
0.00143009
0.00143032
0.00142955
0.00142984
0.0014289
0.00142924
0.00142812
0.00142853
0.00142719
0.00142767
0.00142612
0.00142667
0.00141952
0.00141995
0.00141215
0.00141107
0.00141313
0.00141514
0.00141461
0.00141554
0.00141819
0.00141909
0.00142595
0.00140409
0.00140289
0.00140355
0.00142552
0.00140239
0.00141673
0.00141818
0.00141513
0.00141724
0.00141201
0.00141333
0.00141626
0.00141523
0.00141413
0.00141294
0.00141165
0.00141024
0.00140769
0.00140865
0.00141979
0.00140642
0.00140527
0.00140875
0.00140758
0.00140992
0.00141394
0.00141626
0.00141591
0.00141699
0.00141662
0.0014178
0.00141739
0.00141859
0.0014182
0.00141927
0.00141895
0.00141982
0.00141957
0.00142013
0.00142
0.00142028
0.00142021
0.00142052
0.00142037
0.00142094
0.00142072
0.0014213
0.00142114
0.00142145
0.00142139
0.00142145
0.00142146
0.00142137
0.00142142
0.00142121
0.0014213
0.00142097
0.0014211
0.00142066
0.00142083
0.00142026
0.00142047
0.00141974
0.00142001
0.00141911
0.00141943
0.00141848
0.00141879
0.00141791
0.00141819
0.00141726
0.0014176
0.00141649
0.00141689
0.00141558
0.00141605
0.00141452
0.00141507
0.00141337
0.00141395
0.00141222
0.0014128
0.00141096
0.0014116
0.00141124
0.00140956
0.00141029
0.00146172
0.0014452
0.00148644
0.00147538
0.00150171
0.00149515
0.001509
0.00150629
0.00150902
0.0015099
0.00150179
0.00150633
0.00148662
0.00149528
0.00146202
0.00147562
0.00144556
0.00140673
0.0014054
0.00140747
0.00140638
0.00140907
0.00140832
0.00141049
0.00140979
0.00141179
0.00141116
0.00141298
0.00141241
0.0014141
0.00141356
0.00141511
0.00141462
0.00141602
0.00141558
0.00141685
0.00141645
0.00141759
0.00141723
0.00141825
0.00141793
0.00141884
0.00141855
0.00141934
0.0014191
0.00141978
0.00141957
0.00142014
0.00141997
0.00142044
0.0014203
0.00142067
0.00142056
0.00142083
0.00142076
0.00142092
0.00142088
0.00142093
0.00142094
0.00142088
0.00142091
0.00142074
0.00142082
0.00142052
0.00142064
0.00142022
0.00142038
0.00141982
0.00142003
0.00141933
0.00141958
0.00141873
0.00141904
0.00141803
0.00141839
0.00141721
0.00141763
0.00141627
0.00141676
0.00141521
0.00141575
0.00141401
0.00141462
0.00141266
0.00141335
0.00141117
0.00141193
0.00140953
0.00141037
0.00140771
0.00140864
0.00140572
0.00140674
0.00140466
0.00141859
0.001419
0.00139032
0.00138865
0.00139188
0.00139547
0.00139445
0.00139634
0.00137793
0.00137608
0.00142489
0.00140118
0.00141729
0.00141815
0.00141588
0.00141725
0.00141431
0.00141633
0.00141252
0.00141536
0.0014088
0.00141045
0.00141434
0.00141324
0.00141206
0.00141077
0.00140936
0.00140447
0.00140774
0.0014058
0.00140181
0.00140354
0.00140092
0.00141885
0.00138152
0.00137973
0.0013851
0.00138331
0.00138689
0.00139322
0.00139796
0.00139716
0.00139962
0.00139879
0.00140134
0.00140048
0.00140301
0.00140218
0.00140456
0.0014038
0.00140593
0.00140527
0.00140702
0.00140651
0.00140788
0.00140746
0.00140886
0.00140835
0.00141003
0.00140944
0.00141111
0.0014106
0.00141195
0.00141156
0.00141259
0.00141229
0.00141312
0.00141287
0.00141354
0.00141334
0.00141387
0.00141372
0.0014141
0.001414
0.0014142
0.00141417
0.00141415
0.00141419
0.00141396
0.00141406
0.00141376
0.00141385
0.00141362
0.00141369
0.00141338
0.00141352
0.00141297
0.0014132
0.00141239
0.0014127
0.00141163
0.00141203
0.00141074
0.00141119
0.00140978
0.00141027
0.0014087
0.00140927
0.0014074
0.00140807
0.00140802
0.00140594
0.00140667
0.00146204
0.00144507
0.00148745
0.00147607
0.00150316
0.00149641
0.00151067
0.00150788
0.00151069
0.0015116
0.00150324
0.00150792
0.00148762
0.00149654
0.00146233
0.0014763
0.00142529
0.00144542
0.00137418
0.00140165
0.00140363
0.00140271
0.00140546
0.00140455
0.00140698
0.00140627
0.00140823
0.00140763
0.00140934
0.0014088
0.00141031
0.00140985
0.00141115
0.00141075
0.00141187
0.00141153
0.00141245
0.00141218
0.00141292
0.0014127
0.00141328
0.00141312
0.00141352
0.00141342
0.00141367
0.00141361
0.00141371
0.0014137
0.00141366
0.0014137
0.00141351
0.0014136
0.00141327
0.0014134
0.00141294
0.00141312
0.00141251
0.00141274
0.00141199
0.00141226
0.00141137
0.00141169
0.00141065
0.00141102
0.00140983
0.00141025
0.00140889
0.00140937
0.00140784
0.00140838
0.00140667
0.00140727
0.00140538
0.00140604
0.00140395
0.00140468
0.00140238
0.00140318
0.00140066
0.00140154
0.00139879
0.00139975
0.00139676
0.0013978
0.00139456
0.00139568
0.00139218
0.00139339
0.00138961
0.00139092
0.00138685
0.00138826
0.00138388
0.00138539
0.0013807
0.00138232
0.00137729
0.00137902
0.00137364
0.0013755
0.00141767
0.00141807
0.00136264
0.00136498
0.0014164
0.00141722
0.00137225
0.00134262
0.00133995
0.001342
0.00137173
0.00133937
0.00141502
0.00141634
0.00141347
0.00141542
0.0014117
0.00141447
0.00140963
0.00141346
0.00140516
0.0014072
0.00141236
0.00141116
0.00140987
0.00140845
0.00145078
0.00145053
0.00140681
0.00140487
0.0014026
0.00139433
0.000406918
0.00137098
0.00139986
0.00137252
0.00141791
0.00134779
0.00134523
0.00135279
0.0013503
0.00135775
0.00135527
0.00136022
0.00136719
0.00136921
0.00137657
0.00137391
0.00137524
0.00137927
0.00137791
0.001382
0.00138063
0.00138468
0.00138335
0.00138721
0.00138596
0.00138951
0.00138839
0.00139147
0.00139053
0.00139317
0.00139233
0.00139498
0.00139405
0.00139701
0.00139599
0.00139892
0.001398
0.00140053
0.00139976
0.00140191
0.00140124
0.00140314
0.00140254
0.00140424
0.00140371
0.00140522
0.00140475
0.00140607
0.00140566
0.00140676
0.00140644
0.00140726
0.00140703
0.00140758
0.00140743
0.00140788
0.00140772
0.00140825
0.00140807
0.00140848
0.00140839
0.00140852
0.00140853
0.00140833
0.00140845
0.00140793
0.00140815
0.00140736
0.00140766
0.00140666
0.00140702
0.00140578
0.00140625
0.00140468
0.00140526
0.00140335
0.00140407
0.00140432
0.00140178
0.00140259
0.00142421
0.00139991
0.00146233
0.00144492
0.00148844
0.00147675
0.00150461
0.00149766
0.00151234
0.00150947
0.00151236
0.0015133
0.0015047
0.00150952
0.00148862
0.00149779
0.00146262
0.00147698
0.00142461
0.00144526
0.00140037
0.00140124
0.00140037
0.00140288
0.00140208
0.00140422
0.00140359
0.00140532
0.00140481
0.00140619
0.00140578
0.00140688
0.00140656
0.0014074
0.00140716
0.00140775
0.0014076
0.00140795
0.00140787
0.00140799
0.00140799
0.00140789
0.00140796
0.00140765
0.00140779
0.00140728
0.00140748
0.00140678
0.00140704
0.00140616
0.00140648
0.00140542
0.0014058
0.00140455
0.001405
0.00140357
0.00140408
0.00140247
0.00140304
0.00140124
0.00140187
0.00139989
0.00140058
0.00139841
0.00139917
0.0013968
0.00139762
0.00139505
0.00139594
0.00139315
0.00139412
0.0013911
0.00139215
0.0013889
0.00139002
0.00138652
0.00138773
0.00138398
0.00138527
0.00138125
0.00138264
0.00137833
0.00137982
0.00137522
0.0013768
0.00137189
0.00137358
0.00136835
0.00137015
0.00136458
0.0013665
0.00136058
0.00136261
0.00135633
0.00135849
0.00135183
0.00135411
0.00134705
0.00134947
0.00134456
0.00141676
0.00141714
0.00130669
0.00130323
0.000951519
0.00136975
0.00133666
0.00141552
0.00141631
0.00141416
0.00141544
0.00141262
0.00141453
0.00141085
0.00141359
0.00140878
0.00141258
0.00140633
0.00141147
0.00140096
0.00140344
0.00141027
0.00140896
0.00140752
0.00140587
0.00140392
0.00140143
0.00139846
0.00139553
0.00137728
0.00139903
0.00132507
0.00141699
0.00131341
0.00131008
0.00131995
0.0013167
0.00132641
0.00132318
0.00133278
0.00132963
0.00133879
0.00133589
0.00134379
0.00134146
0.00134792
0.00134594
0.00135177
0.00134985
0.00135562
0.00135368
0.0013595
0.00135755
0.0013633
0.00136142
0.00136693
0.00136514
0.00137027
0.00136865
0.00137323
0.00137181
0.00137586
0.00137456
0.00137863
0.0013772
0.0013816
0.0013801
0.00138445
0.00138307
0.00138694
0.00138574
0.00138916
0.00138808
0.00139119
0.0013902
0.00139307
0.00139215
0.00139479
0.00139395
0.00139635
0.00139559
0.00139772
0.00139706
0.00139885
0.00139831
0.00139976
0.00139932
0.00140066
0.0014002
0.0014016
0.00140113
0.00140241
0.00140203
0.00140295
0.00140272
0.00140323
0.00140313
0.00140326
0.00140328
0.00140308
0.0014032
0.00140271
0.00140292
0.0014021
0.00140244
0.00140123
0.00140171
0.00140007
0.00140069
0.00139866
0.00139939
0.00139113
0.0013891
0.00139789
0.00136997
0.00139217
0.0013616
0.00142349
0.0013986
0.0014626
0.00144473
0.00148943
0.00147741
0.00150606
0.00149891
0.00151402
0.00151106
0.00151404
0.00151501
0.00150615
0.00151111
0.00148961
0.00149904
0.00146288
0.00147764
0.00142388
0.00144506
0.00137025
0.00139905
0.0012997
0.00133723
0.00139811
0.00139727
0.00139963
0.00139891
0.00140078
0.00140025
0.00140163
0.00140124
0.0014022
0.00140194
0.00140254
0.0014024
0.00140267
0.00140264
0.0014026
0.00140266
0.00140233
0.00140249
0.00140187
0.00140212
0.00140123
0.00140157
0.00140043
0.00140085
0.00139946
0.00139997
0.00139834
0.00139892
0.00139706
0.00139772
0.00139563
0.00139636
0.00139405
0.00139486
0.00139233
0.00139321
0.00139045
0.00139141
0.00138843
0.00138946
0.00138624
0.00138735
0.0013839
0.00138509
0.0013814
0.00138267
0.00137872
0.00138008
0.00137587
0.00137732
0.00137283
0.00137437
0.00136961
0.00137124
0.00136618
0.00136792
0.00136254
0.00136439
0.00135869
0.00136064
0.0013546
0.00135667
0.00135028
0.00135247
0.00134572
0.00134803
0.00134089
0.00134334
0.0013358
0.00133838
0.00133044
0.00133315
0.00132478
0.00132765
0.00131883
0.00132184
0.00131257
0.00131574
0.00130598
0.00130932
0.00129907
0.00130257
0.00139359
0.00141586
0.00141623
0.00141464
0.0014154
0.0012961
0.00125746
0.00125299
0.00125676
0.00129548
0.00125231
0.00141329
0.00141455
0.00141175
0.00141366
0.00140998
0.00141272
0.00140789
0.0014117
0.00140542
0.00141059
0.00140251
0.00140937
0.00140804
0.0014399
0.00140658
0.00136733
0.0014049
0.00140272
0.00139706
0.00139383
0.00139163
0.00139188
0.00138948
0.00140007
0.00138738
0.00138635
0.00138419
0.00141608
0.00126615
0.00126185
0.00127457
0.00127038
0.00128275
0.00127867
0.00129082
0.00128678
0.00129881
0.00129485
0.00130626
0.00130265
0.00131265
0.00130961
0.00131812
0.00131546
0.00132325
0.0013207
0.00132838
0.0013258
0.00133355
0.00133096
0.00133861
0.0013361
0.00134345
0.00134106
0.00134796
0.00134575
0.00135199
0.00135004
0.00135568
0.00135385
0.0013595
0.00135755
0.00136355
0.00136151
0.00136744
0.00136555
0.00137092
0.00136923
0.00137407
0.00137253
0.00137701
0.00137557
0.00137976
0.00137841
0.00138233
0.00138107
0.00138471
0.00138354
0.00138685
0.00138581
0.00138869
0.0013878
0.00139029
0.00138951
0.00139185
0.00139106
0.00139348
0.00139266
0.00139494
0.00139424
0.00139609
0.00139556
0.00139692
0.00139654
0.00139746
0.00139723
0.00139774
0.00139763
0.00139777
0.00139779
0.00139751
0.00139768
0.00139694
0.00139727
0.00139603
0.00139653
0.00139482
0.00139546
0.00139295
0.00139409
0.00136425
0.00136771
0.00133388
0.00142273
0.00139724
0.00146284
0.0014445
0.0014904
0.00147805
0.00150751
0.00150015
0.0015157
0.00151265
0.00151573
0.00151672
0.00150761
0.00151271
0.00149059
0.00150029
0.00146312
0.00147828
0.00142312
0.00144483
0.0013682
0.00139767
0.00133443
0.00139059
0.00138857
0.00139269
0.00139181
0.00139424
0.00139349
0.00139555
0.00139494
0.00139645
0.00139606
0.00139699
0.00139677
0.00139721
0.00139714
0.00139714
0.00139721
0.0013968
0.001397
0.00139622
0.00139654
0.0013954
0.00139584
0.00139436
0.00139491
0.00139311
0.00139376
0.00139165
0.0013924
0.00138999
0.00139085
0.00138815
0.00138909
0.00138612
0.00138716
0.00138391
0.00138504
0.00138152
0.00138274
0.00137895
0.00138026
0.0013762
0.0013776
0.00137327
0.00137476
0.00137016
0.00137174
0.00136685
0.00136853
0.00136334
0.00136512
0.00135964
0.00136152
0.00135572
0.00135771
0.00135159
0.00135368
0.00134722
0.00134943
0.00134263
0.00134496
0.00133778
0.00134024
0.00133268
0.00133527
0.00132732
0.00133004
0.00132168
0.00132453
0.00131575
0.00131875
0.00130953
0.00131268
0.001303
0.0013063
0.00129615
0.00129961
0.00128897
0.0012926
0.00128146
0.00128526
0.00127359
0.00127757
0.00126536
0.00126952
0.00126111
0.00141497
0.00141532
0.00140009
0.00121034
0.00120495
0.00129181
0.00124778
0.00141376
0.00141452
0.00141241
0.00141367
0.00141088
0.00141279
0.00140909
0.00141185
0.00140697
0.00141083
0.00138203
0.00138531
0.00140446
0.0014097
0.0014015
0.00140846
0.001398
0.0014071
0.00138998
0.00139479
0.0014056
0.00139359
0.00144186
0.00140371
0.000645023
0.00140138
0.00139877
0.00137987
0.00137798
0.00137576
0.00141519
0.00122083
0.00121562
0.00123101
0.00122595
0.00124098
0.00123601
0.00125078
0.00124587
0.00126043
0.00125566
0.00126938
0.00126501
0.00127727
0.00127348
0.00128423
0.00128082
0.00129079
0.00128752
0.00129733
0.00129404
0.0013039
0.00130061
0.00131032
0.00130714
0.00131648
0.00131344
0.00132226
0.00131943
0.0013275
0.00132495
0.00133236
0.00132995
0.00133735
0.00133482
0.00134258
0.00133994
0.00134761
0.00134514
0.00135218
0.00134996
0.00135639
0.00135432
0.00136034
0.00135839
0.00136407
0.00136223
0.00136758
0.00136585
0.00137087
0.00136926
0.00137388
0.00137242
0.00137654
0.00137526
0.00137891
0.00137775
0.00138124
0.00138006
0.00138365
0.00138244
0.00138587
0.0013848
0.00138772
0.00138685
0.00138919
0.0013885
0.00139033
0.0013898
0.00139115
0.00139078
0.00139167
0.00139145