/*--------------------------------*- C++ -*----------------------------------*\
| =========                 |                                                 |
| \\      /  F ield         | OpenFOAM: The Open Source CFD Toolbox           |
|  \\    /   O peration     | Version:  2212                                  |
|   \\  /    A nd           | Website:  www.openfoam.com                      |
|    \\/     M anipulation  |                                                 |
\*---------------------------------------------------------------------------*/
FoamFile
{
    version     2.0;
    format      ascii;
    arch        "LSB;label=32;scalar=64";
    class       volVectorField;
    location    "0.0235";
    object      U;
}
// * * * * * * * * * * * * * * * * * * * * * * * * * * * * * * * * * * * * * //

dimensions      [0 1 -1 0 0 0 0];

internalField   nonuniform List<vector> 
44662
(
(4.64377 84.2475 -9.42559e-17)
(4.89545 44.8033 -9.72731e-21)
(4.94581 44.3555 -2.2677e-16)
(4.55318 44.7327 2.82024e-16)
(4.71595 44.5415 1.14828e-20)
(-7.25402 58.6701 -1.37218e-16)
(-1.29983 114.023 -7.47585e-18)
(-7.0756 56.1161 -3.93606e-16)
(6.33613 38.3431 1.13511e-16)
(-9.95243 90.9621 0)
(-6.69959 64.8328 2.68759e-16)
(0.828216 24.1378 -7.77592e-17)
(1.72233 112.388 1.28876e-16)
(16.4334 31.8355 1.08366e-16)
(-4.41362 14.6062 0)
(0.850992 25.159 1.78607e-17)
(3.61391 16.58 4.41932e-16)
(-1.7697 17.5626 2.54822e-16)
(-22.3424 78.459 -9.68319e-20)
(0.0335439 120.795 -9.85921e-17)
(5.3544 99.3818 7.73348e-17)
(3.16503 17.1744 -1.46966e-16)
(0.873424 111.378 6.03043e-17)
(-4.682 74.2542 -1.13598e-16)
(-17.5623 58.4687 -5.77981e-17)
(27.4052 57.4001 -2.50615e-16)
(-1.69846 109.745 -4.09295e-19)
(-0.636178 93.7528 -1.29375e-16)
(6.07245 102.847 1.54974e-17)
(-0.799562 98.9873 -1.43476e-16)
(9.1459 10.1243 1.36874e-16)
(-8.37555 101.421 -1.43269e-17)
(9.30939 9.61899 1.54192e-16)
(-0.93073 68.3529 -3.75029e-16)
(-2.10948 19.0969 -5.49221e-17)
(-5.64256 75.2773 5.13759e-17)
(6.05713 26.1237 1.32577e-16)
(5.16413 25.0421 -2.26067e-16)
(25.2205 70.5558 0)
(-5.64011 34.9704 -1.09042e-16)
(-4.35686 34.3636 1.11843e-16)
(7.34268 27.2912 -5.82941e-17)
(4.21248 81.5257 -2.61629e-16)
(-24.386 49.6095 -1.1427e-16)
(-3.54332 106.923 6.85543e-17)
(5.70143 51.9515 1.51676e-17)
(-8.30633 97.8756 3.13629e-17)
(-17.3112 69.7761 6.68485e-17)
(14.069 87.1716 -1.17432e-16)
(-23.1508 50.2486 -3.29994e-16)
(-3.70664 42.9822 -1.19776e-16)
(-8.35619 94.4239 -3.09229e-17)
(21.6794 38.1348 1.58058e-20)
(12.3428 11.3506 4.36124e-17)
(-10.135 89.7818 5.5194e-17)
(-6.95494 54.8419 0)
(18.3127 33.8418 -1.15277e-16)
(-2.63916 84.0689 1.44048e-16)
(3.39886 95.0741 -2.8871e-16)
(3.46531 93.8375 0)
(-6.96222 63.5411 2.13369e-20)
(14.1247 11.1387 -1.07306e-16)
(14.1783 83.5385 0)
(-22.9463 37.6346 -1.08182e-16)
(-5.64593 94.1015 5.61246e-17)
(-6.12021 68.167 -3.91983e-16)
(0.834138 59.5294 1.23486e-16)
(1.77549 46.6029 -2.1123e-16)
(25.3865 42.2993 0)
(-2.15372 108.511 1.27801e-16)
(11.1057 12.1874 0)
(0.929147 69.5467 1.40757e-16)
(28.9361 69.0233 3.12209e-16)
(-6.18139 67.4468 1.60049e-16)
(-2.07505 107.796 1.24002e-16)
(-1.14667 33.648 -3.12272e-17)
(-8.21747 18.4841 -3.03397e-16)
(3.25986 97.0714 -4.20095e-16)
(3.63288 90.0546 2.71702e-16)
(-0.739094 56.6814 -1.40499e-16)
(5.71808 54.8685 3.37154e-17)
(-1.94635 106.857 -1.27003e-16)
(-6.55906 40.6753 1.30386e-16)
(-3.2171 104.753 5.3463e-17)
(5.24176 58.4115 -8.25858e-17)
(-4.77184 39.1949 0)
(-1.83651 105.738 3.87325e-16)
(-0.92875 46.3234 5.10587e-17)
(-11.0302 96.0697 -6.76307e-18)
(1.4532 115.87 2.40349e-16)
(-1.47823 102.195 -5.36284e-21)
(-1.65956 104.275 -1.30655e-16)
(16.8775 64.3939 1.86943e-16)
(-5.3279 21.9187 1.44856e-16)
(-3.97233 106.689 -7.05209e-17)
(-9.85149 98.64 2.98818e-17)
(-0.224923 72.137 -1.16314e-16)
(-4.59975 106.066 3.18607e-17)
(-3.82399 102.828 -2.45928e-17)
(-11.2587 51.9968 -2.08911e-16)
(0.324696 106.834 1.36767e-17)
(1.56708 45.6722 7.24085e-17)
(3.69713 89.8769 1.93712e-20)
(-0.996191 40.127 6.38921e-21)
(1.82767 110.507 -6.8562e-17)
(-1.22522 98.1242 8.11686e-21)
(1.96144 108.305 3.53064e-17)
(-7.43447 54.1133 0)
(12.0473 44.3296 -2.04786e-16)
(-4.48373 108.585 6.11961e-17)
(2.1172 105.773 -3.58145e-17)
(-10.4947 35.1409 0)
(1.67782 45.5635 -1.61914e-17)
(1.61443 70.0097 0)
(-1.10978 52.8066 2.39113e-16)
(2.33648 102.812 3.09402e-17)
(3.90005 85.7068 -2.43622e-16)
(4.94359 40.18 5.70341e-17)
(-11.5208 13.3691 -8.17292e-21)
(2.63334 99.5723 -1.16799e-16)
(-10.5266 33.4015 1.93306e-20)
(2.65351 101.083 -3.54288e-16)
(-2.36012 88.2392 2.705e-16)
(2.87325 96.1712 3.02699e-16)
(2.97377 98.7242 -1.3623e-16)
(-0.245066 45.6614 -5.75301e-17)
(3.22036 92.6017 -7.31414e-17)
(3.2227 96.1491 -1.8492e-20)
(-2.97506 43.5551 -1.23578e-16)
(3.56186 88.9551 1.89437e-17)
(3.48862 93.3749 0)
(1.48985 88.5325 -7.329e-21)
(-6.46081 64.1566 3.13091e-20)
(2.91179 91.363 -2.20739e-16)
(3.96174 85.0367 -4.2016e-17)
(3.77866 90.581 1.48412e-16)
(3.10372 83.8627 -8.76376e-22)
(2.86951 83.9049 -1.73566e-16)
(4.44824 80.8768 -8.40608e-18)
(4.02016 87.9869 -1.6358e-16)
(2.36236 90.1173 -1.2704e-16)
(5.01727 76.6839 3.32814e-18)
(3.87246 96.904 6.65124e-17)
(3.79771 92.9749 -1.30344e-16)
(5.60135 72.5097 2.74692e-19)
(-2.84387 43.3786 -1.94673e-16)
(-4.3649 41.379 -2.55065e-16)
(-4.12773 41.1573 2.93314e-17)
(0.398904 45.4211 3.70231e-17)
(7.17566 50.0874 0)
(-6.20184 35.3529 0)
(3.85977 43.5871 -8.13552e-17)
(5.81133 71.927 0)
(3.83851 73.2756 2.14595e-16)
(-0.441288 44.661 -1.48409e-17)
(0.471163 45.3927 1.55029e-17)
(9.56194 33.9353 0)
(0.075264 106.859 6.88208e-18)
(0.0767765 106.795 -1.15533e-21)
(0.0772583 106.752 -3.46074e-18)
(0.0766146 106.73 3.37352e-18)
(0.0758107 106.73 -3.30708e-18)
(0.0747456 106.745 4.24921e-19)
(0.073319 106.782 -8.73723e-19)
(0.0723132 106.84 -3.53509e-18)
(0.0716552 106.917 3.53798e-18)
(0.0712257 107.013 -7.14885e-22)
(0.0709482 107.129 -7.32863e-22)
(0.0706438 107.264 -1.77542e-18)
(0.0703519 107.418 2.21872e-19)
(0.0700615 107.592 -1.1096e-19)
(0.0698313 107.784 3.54875e-18)
(0.0696208 107.996 -3.55079e-18)
(0.0694664 108.227 -3.5481e-18)
(0.0693219 108.477 3.54895e-18)
(0.0691838 108.747 0)
(0.0690304 109.035 2.7699e-20)
(0.0688895 109.342 1.82684e-18)
(0.0687694 109.668 -9.36059e-22)
(0.0685693 110.013 -3.76211e-18)
(0.0680693 110.377 2.21211e-18)
(0.0669528 110.759 0)
(0.0651212 111.16 1.76571e-18)
(0.0626486 111.579 -3.52867e-18)
(0.0603439 112.017 0)
(0.0582352 112.473 -8.7921e-19)
(0.0569688 112.948 -2.18727e-19)
(0.0568575 113.44 1.75966e-18)
(0.058193 113.951 0)
(0.0602229 114.481 -1.76076e-18)
(0.0619419 115.028 0)
(0.0631921 115.595 -8.80397e-19)
(0.0635522 116.179 -4.38813e-19)
(0.0634347 116.782 8.81777e-19)
(0.0628826 117.402 8.81059e-19)
(0.0622533 118.04 2.58341e-18)
(0.0616285 118.696 -1.86976e-18)
(0.0610167 119.369 1.75762e-18)
(0.0607181 120.06 -4.41058e-19)
(0.0606325 120.769 1.31688e-18)
(0.0610144 121.495 -1.7606e-18)
(0.0625321 122.239 1.75979e-18)
(0.0655199 123 9.1371e-24)
(0.0698094 123.779 -3.51904e-18)
(0.0741501 124.576 7.93469e-22)
(0.0770964 125.393 3.51586e-18)
(-0.627744 124.556 3.52502e-18)
(-0.63836 125.373 -7.03601e-18)
(-0.618884 123.759 -1.76125e-18)
(15.1548 9.37989 3.36264e-17)
(0.0729262 106.944 0)
(-0.0311567 106.829 0)
(-0.0517112 106.911 6.94516e-18)
(0.0760812 126.23 -2.63611e-18)
(0.0706835 127.087 -1.75076e-18)
(-0.67217 127.066 0)
(-0.65246 126.21 2.63387e-18)
(-0.597087 122.219 -5.2838e-18)
(-0.609064 122.98 3.52611e-18)
(-0.568343 120.75 -1.7593e-18)
(-0.58338 121.476 7.26028e-22)
(-0.536711 119.35 -3.51879e-18)
(-0.552612 120.041 2.6407e-18)
(-0.503805 118.02 1.32832e-21)
(-0.520395 118.676 3.73841e-18)
(-0.470523 116.762 -1.76064e-18)
(-0.487117 117.382 -1.64903e-18)
(-0.438574 115.574 -8.80343e-19)
(-0.454247 116.159 1.75977e-18)
(-0.409838 114.459 3.52186e-18)
(-0.42384 115.008 -1.76146e-18)
(-0.380452 113.418 8.81104e-19)
(-0.395854 113.929 -2.64437e-18)
(-0.345034 112.45 -2.64492e-18)
(-0.363523 112.925 -1.10159e-19)
(-0.30558 111.556 -1.7647e-18)
(-0.325483 111.994 3.52624e-18)
(-0.266069 110.736 -1.76798e-18)
(-0.285521 111.137 -1.01527e-21)
(-0.229159 109.989 0)
(-0.247271 110.353 1.76772e-18)
(-0.193407 109.318 3.48906e-18)
(-0.211282 109.644 -1.88253e-18)
(-0.157449 108.722 -1.77375e-18)
(-0.175486 109.011 -1.79983e-18)
(-0.121102 108.202 3.56205e-18)
(-0.13933 108.453 -8.58939e-22)
(-0.0842374 107.759 -2.77313e-20)
(-0.102686 107.971 -1.76052e-18)
(-0.0470887 107.392 3.32686e-18)
(-0.0657003 107.566 -3.55043e-18)
(-0.00971418 107.102 -1.7739e-18)
(-0.0284016 107.237 0)
(0.028068 106.889 3.53869e-18)
(0.00907012 106.986 -1.05423e-21)
(0.06757 106.754 0)
(0.0475103 106.812 -3.53409e-18)
(0.107694 106.698 1.74634e-18)
(0.0878522 106.716 2.17657e-18)
(0.146579 106.723 1.03674e-17)
(0.127155 106.7 6.92289e-18)
(0.165111 106.767 -6.86916e-18)
(0.0078272 106.726 -3.4662e-18)
(-0.011225 106.767 -6.91164e-18)
(0.0442421 106.704 -8.70699e-19)
(0.0263546 106.705 -3.48894e-18)
(0.0793488 106.76 -5.27959e-18)
(0.0613284 106.722 3.56949e-18)
(0.115342 106.894 3.54014e-18)
(0.0973817 106.817 -8.82662e-19)
(0.151442 107.106 8.8655e-19)
(0.133314 106.991 0)
(0.18786 107.396 -1.33069e-18)
(0.169676 107.242 -8.87378e-19)
(0.224024 107.764 1.77552e-18)
(0.205977 107.57 1.11743e-19)
(0.2601 108.207 -1.74648e-18)
(0.242125 107.976 0)
(0.295816 108.728 -1.77302e-18)
(0.277976 108.458 1.77477e-18)
(0.331218 109.324 -3.54434e-18)
(0.313598 109.016 3.54519e-18)
(0.366132 109.996 3.98313e-18)
(0.348747 109.651 -1.09759e-19)
(0.399743 110.743 -3.5371e-18)
(0.383255 110.36 2.20973e-18)
(0.431019 111.565 1.76392e-18)
(0.415685 111.145 0)
(0.461779 112.46 -8.81972e-19)
(0.446371 112.003 8.8053e-19)
(0.494044 113.427 1.12256e-21)
(0.477486 112.934 -3.30075e-18)
(0.529288 114.468 1.76122e-18)
(0.511523 113.939 2.64074e-18)
(0.564149 115.583 8.80246e-19)
(0.546999 115.017 0)
(0.596821 116.77 -2.64167e-18)
(0.580834 116.168 1.31925e-18)
(0.627994 118.029 -1.70476e-18)
(0.612639 117.391 1.75879e-18)
(0.658272 119.359 8.7876e-19)
(0.643226 118.686 2.19855e-19)
(0.688802 120.76 6.15193e-18)
(0.673424 120.051 -2.85582e-18)
(0.7212 122.231 1.75953e-18)
(0.704516 121.486 -6.15311e-18)
(0.757599 123.772 1.75934e-18)
(0.738901 122.992 1.75892e-18)
(0.791208 125.389 5.27028e-18)
(0.77548 124.571 8.10801e-22)
(0.814076 127.082 1.7509e-18)
(0.803821 126.226 -2.63327e-18)
(-1.32834 124.511 8.81053e-18)
(-1.35255 125.328 -1.75825e-18)
(-1.30599 123.714 -5.28821e-18)
(-12.9352 12.0728 1.4034e-16)
(15.3452 9.25561 4.14636e-17)
(-0.136039 106.743 3.49027e-18)
(-0.174349 106.822 -6.97814e-18)
(-0.695259 127.942 1.80447e-21)
(-1.41476 127.02 -3.50397e-18)
(-1.45372 127.896 -6.98532e-18)
(1.55893 127.05 -2.62506e-18)
(0.822788 127.956 -1.74823e-18)
(1.5835 127.923 0)
(-0.0724881 107.014 -6.96925e-18)
(0.0696749 107.048 -6.95391e-18)
(-1.38125 126.165 3.50598e-18)
(-1.25505 122.173 -1.76221e-18)
(-1.28151 122.935 1.76246e-18)
(-1.19656 120.703 0)
(-1.22668 121.429 -8.80727e-19)
(-1.13432 119.302 8.7936e-19)
(-1.16564 119.994 -1.31994e-18)
(-1.07005 117.971 -9.35164e-19)
(-1.10244 118.628 -2.19957e-19)
(-1.0047 116.711 6.37286e-22)
(-1.03739 117.332 1.64977e-18)
(-0.940381 115.522 -8.80131e-19)
(-0.972253 116.107 -4.39781e-19)
(-0.879323 114.405 -4.40505e-18)
(-0.909582 114.954 -1.76034e-18)
(-0.817123 113.361 5.62272e-22)
(-0.849048 113.873 4.40429e-18)
(-0.748281 112.391 1.76225e-18)
(-0.783636 112.866 -1.65206e-18)
(-0.674254 111.495 -2.64886e-18)
(-0.711573 111.934 -5.28813e-22)
(-0.599687 110.674 0)
(-0.636644 111.075 -1.76692e-18)
(-0.527339 109.926 -1.77027e-18)
(-0.563208 110.29 1.76948e-18)
(-0.456325 109.253 0)
(-0.491822 109.58 1.10749e-19)
(-0.38462 108.655 6.92711e-21)
(-0.420593 108.944 0)
(-0.312143 108.133 1.75968e-18)
(-0.348477 108.384 -1.77633e-18)
(-0.23901 107.687 9.70449e-19)
(-0.275683 107.9 -9.01459e-19)
(-0.165149 107.318 0)
(-0.202166 107.493 5.54563e-20)
(-0.0908338 107.026 0)
(-0.128045 107.162 0)
(-0.0158844 106.81 -1.77e-18)
(-0.0535125 106.908 -1.77167e-18)
(0.0610499 106.671 -3.57444e-22)
(0.0222442 106.731 3.53392e-18)
(0.138767 106.613 1.74471e-18)
(0.100105 106.632 1.77085e-18)
(0.215722 106.638 -8.62581e-18)
(0.177312 106.615 -1.21244e-17)
(0.253223 106.682 -6.87365e-18)
(5.9577 102.659 3.03272e-17)
(0.0629749 127.962 5.24278e-18)
(-0.0603252 106.644 6.95643e-18)
(-0.0980707 106.683 -3.47331e-18)
(0.0134788 106.625 8.75713e-19)
(-0.0230638 106.624 -1.74621e-18)
(0.0859738 106.684 -1.76575e-18)
(0.0494836 106.644 1.7046e-18)
(0.159388 106.82 -8.86473e-19)
(0.122685 106.742 1.76528e-18)
(0.232789 107.035 0)
(0.19605 106.918 0)
(0.306207 107.327 8.87795e-19)
(0.269533 107.171 -8.8682e-19)
(0.379142 107.697 -2.71953e-18)
(0.342788 107.502 1.7743e-18)
(0.451496 108.143 -2.7726e-20)
(0.41534 107.91 8.31718e-19)
(0.523242 108.666 0)
(0.487466 108.395 0)
(0.594356 109.264 -8.86648e-19)
(0.558928 108.955 8.85894e-19)
(0.664552 109.939 6.63707e-19)
(0.629591 109.592 1.10684e-19)
(0.733569 110.688 4.98169e-22)
(0.699321 110.304 -1.76867e-18)
(0.800042 111.512 0)
(0.767117 111.091 1.76641e-18)
(0.865465 112.41 8.81158e-19)
(0.832826 111.952 -8.81653e-19)
(0.931199 113.379 -8.80315e-19)
(0.898176 112.885 0)
(0.998486 114.422 -1.76154e-18)
(0.964735 113.892 1.76087e-18)
(1.06547 115.538 0)
(1.0323 114.971 1.76119e-18)
(1.13066 116.727 6.6068e-19)
(1.09847 116.124 -1.3195e-18)
(1.19378 117.988 9.34868e-19)
(1.16239 117.349 -8.79059e-19)
(1.25558 119.32 0)
(1.22478 118.645 -1.09911e-19)
(1.31671 120.722 -4.39282e-19)
(1.28611 120.012 -2.66379e-24)
(1.37845 122.195 2.63606e-18)
(1.34724 121.45 -4.39137e-19)
(1.44235 123.739 -8.79753e-19)
(1.41003 122.958 -1.5353e-21)
(1.50433 125.357 0)
(1.4739 124.539 0)
(1.53261 126.194 -8.76179e-19)
(-0.213053 106.922 0)
(-2.2125 127.825 -3.49355e-18)
(-2.15851 126.95 7.0053e-18)
(-2.02995 124.442 -1.76166e-18)
(-2.06822 125.258 3.51381e-18)
(-1.99316 123.644 -6.17295e-18)
(0.830506 128.848 -3.48927e-18)
(1.6078 128.815 1.74391e-18)
(0.21327 107.024 -3.58432e-18)
(-0.251552 107.041 1.05589e-17)
(-0.0931657 107.136 1.75575e-17)
(0.0674746 107.172 -1.7554e-18)
(-2.26841 128.72 -3.48458e-18)
(-2.97279 127.73 -3.49112e-18)
(-3.04426 128.625 0)
(-0.112909 107.277 0)
(-0.2897 107.179 -1.41115e-17)
(-2.11149 126.095 -7.01201e-18)
(-1.91352 122.102 8.81883e-19)
(-1.95451 122.864 1.76337e-18)
(-1.82573 120.629 0)
(-1.87038 121.356 1.76194e-18)
(-1.73283 119.225 0)
(-1.77974 119.918 0)
(-1.6371 117.892 -7.70189e-19)
(-1.68529 118.55 0)
(-1.53986 116.629 -8.79902e-19)
(-1.58855 117.252 1.75985e-18)
(-1.44319 115.437 2.64309e-18)
(-1.49132 116.024 1.17769e-23)
(-1.34986 114.317 3.52491e-18)
(-1.39623 114.868 8.81214e-19)
(-1.25538 113.269 0)
(-1.30338 113.784 -7.04444e-18)
(-1.15293 112.296 -3.52334e-18)
(-1.20454 112.773 0)
(-1.04384 111.397 3.53379e-18)
(-1.09872 111.837 0)
(-0.934181 110.573 8.84151e-19)
(-0.988641 110.976 1.76834e-18)
(-0.826749 109.822 0)
(-0.88018 110.188 1.76931e-18)
(-0.720372 109.145 0)
(-0.773651 109.474 0)
(-0.613038 108.544 -6.92971e-21)
(-0.666795 108.835 0)
(-0.504677 108.018 -8.87033e-19)
(-0.559028 108.272 8.7498e-19)
(-0.395142 107.569 -9.42947e-19)
(-0.45003 107.784 8.87532e-19)
(-0.284644 107.196 0)
(-0.340022 107.373 -5.5456e-20)
(-0.173427 106.9 0)
(-0.229119 107.038 -8.87245e-19)
(-0.0613154 106.679 3.53828e-18)
(-0.117556 106.78 -8.86361e-19)
(0.0526236 106.536 -8.80319e-19)
(-0.00465421 106.598 1.76799e-18)
(0.168437 106.473 -8.73352e-18)
(0.110453 106.494 0)
(0.283133 106.497 6.91296e-18)
(0.226087 106.474 8.68686e-18)
(7.01106 92.3782 -3.04768e-18)
(0.33932 106.54 3.44165e-18)
(-0.719466 128.836 6.97846e-18)
(0.0547084 128.855 0)
(-1.49398 128.79 3.48838e-18)
(-0.464904 107.022 -1.4131e-17)
(-0.352675 106.772 -1.05559e-17)
(-0.409148 106.887 2.81582e-17)
(-0.238991 106.599 -1.05205e-17)
(-0.29579 106.676 0)
(-0.125944 106.506 1.74966e-18)
(-0.182095 106.543 6.98829e-18)
(-0.0150067 106.491 1.76041e-18)
(-0.0702215 106.488 -1.74701e-18)
(0.0954692 106.554 3.31767e-18)
(0.0400368 106.513 -5.28797e-18)
(0.205788 106.695 2.66124e-18)
(0.150657 106.615 -2.64914e-18)
(0.31619 106.914 4.43436e-19)
(0.260952 106.795 0)
(0.426428 107.21 -1.33156e-18)
(0.371389 107.052 8.86809e-19)
(0.536039 107.583 9.43489e-19)
(0.481285 107.387 -8.87438e-19)
(0.644741 108.033 -8.87523e-19)
(0.590558 107.799 9.42527e-19)
(0.752529 108.56 -8.59641e-19)
(0.698777 108.287 9.00939e-19)
(0.859295 109.163 8.86198e-19)
(0.806023 108.852 -1.38464e-20)
(0.964787 109.841 6.64267e-19)
(0.912242 109.492 -1.88178e-18)
(1.06881 110.594 2.21058e-19)
(1.01702 110.208 0)
(1.17054 111.422 0)
(1.11997 110.999 -8.83649e-19)
(1.27054 112.323 0)
(1.2207 111.863 4.4104e-19)
(1.37013 113.296 -9.90776e-19)
(1.32032 112.8 0)
(1.46985 114.342 4.40212e-19)
(1.41995 113.81 2.92132e-22)
(1.56905 115.461 4.40449e-19)
(1.51976 114.892 -1.76178e-18)
(1.66632 116.653 -4.81497e-24)
(1.61795 116.048 8.80077e-19)
(1.76124 117.916 4.39938e-19)
(1.71406 117.276 -4.3968e-19)
(1.85455 119.251 -4.39317e-19)
(1.80812 118.575 0)
(1.9467 120.656 -6.58489e-19)
(1.90074 119.945 7.69079e-19)
(2.0382 122.132 -1.75752e-18)
(1.99228 121.385 2.19496e-18)
(2.13039 123.679 -3.90814e-22)
(2.08416 122.896 8.78215e-19)
(2.22137 125.298 -6.58137e-19)
(2.17616 124.479 -8.02064e-22)
(2.30615 126.991 -1.81057e-23)
(2.26457 126.135 0)
(2.38671 128.756 -2.18087e-19)
(2.34672 127.864 2.18165e-19)
(-0.327849 107.337 0)
(-0.520027 107.176 -1.06433e-17)
(0.359734 106.939 0)
(-2.90404 126.856 -1.7537e-18)
(0.230449 107.148 1.8371e-18)
(-2.32327 129.632 6.96472e-18)
(-3.11467 129.538 -3.47946e-18)
(-3.73514 127.611 6.98773e-18)
(-3.82086 128.506 6.9646e-18)
(3.16723 128.672 4.35833e-19)
(2.42709 129.665 0)
(3.22268 129.581 -1.30695e-18)
(0.065554 107.315 -6.99151e-18)
(-0.132495 107.437 0)
(-0.364399 107.512 0)
(-2.68309 123.548 2.6448e-18)
(-2.73431 124.347 8.80999e-19)
(-2.78679 125.164 0)
(-0.573958 107.349 1.421e-17)
(0.643474 106.585 3.45146e-18)
(0.502411 106.793 -6.90474e-18)
(-2.8428 126 0)
(-2.57419 122.003 0)
(-2.62961 122.767 0)
(-2.45663 120.527 4.40266e-19)
(-2.51615 121.257 0)
(-2.33296 119.121 -4.40144e-19)
(-2.39539 119.815 -4.39776e-19)
(-2.20598 117.784 -5.49823e-19)
(-2.26985 118.443 8.80015e-19)
(-2.07677 116.517 0)
(-2.14148 117.141 0)
(-1.94801 115.321 -4.40176e-19)
(-2.01215 115.91 1.61317e-22)
(-1.82231 114.196 4.40519e-19)
(-1.88492 114.749 -4.4056e-19)
(-1.69523 113.143 -1.32054e-18)
(-1.75962 113.66 3.52532e-18)
(-1.55887 112.165 1.76659e-18)
(-1.62791 112.645 -4.40334e-19)
(-1.41535 111.262 8.83653e-19)
(-1.48781 111.704 -4.41666e-19)
(-1.27048 110.434 -1.77069e-18)
(-1.34263 110.839 3.09518e-18)
(-1.1284 109.678 8.85781e-19)
(-1.19918 110.047 -4.42851e-19)
(-0.986793 108.997 -4.42963e-19)
(-1.05771 109.328 8.86697e-19)
(-0.843888 108.39 0)
(-0.915556 108.684 -4.43227e-19)
(-0.699455 107.859 -2.10178e-22)
(-0.771854 108.115 -4.29763e-19)
(-0.553657 107.405 0)
(-0.626736 107.622 4.43642e-19)
(-0.406507 107.026 -1.10963e-18)
(-0.48022 107.206 3.88406e-19)
(-0.258373 106.724 2.2164e-18)
(-0.332553 106.866 1.33098e-18)
(-0.109246 106.497 -3.98e-18)
(-0.183964 106.601 -3.98406e-18)
(0.042232 106.346 8.81817e-19)
(-0.033896 106.412 4.42157e-19)
(0.19575 106.279 2.19102e-19)
(0.11888 106.302 8.80174e-19)
(0.348143 106.298 6.94287e-18)
(0.272091 106.278 6.75995e-18)
(4.62441 39.8897 0)
(0.423238 106.34 0)
(0.513582 45.2633 5.88485e-17)
(0.839443 129.757 2.39605e-18)
(1.63275 129.724 -8.71082e-19)
(-0.742207 129.747 -3.48998e-18)
(0.0477668 129.765 -3.48477e-18)
(-1.5332 129.702 1.80045e-21)
(-0.779069 107.125 -1.42279e-17)
(-0.635587 106.806 -4.00621e-21)
(-0.7081 106.956 1.06309e-17)
(-0.488313 106.563 -3.52227e-18)
(-0.56222 106.675 -1.41396e-17)
(-0.338813 106.398 3.51775e-18)
(-0.413523 106.471 -7.0391e-18)
(-0.189602 106.311 5.27349e-18)
(-0.26423 106.345 0)
(-0.0407681 106.303 0)
(-0.115094 106.297 -3.50309e-18)
(0.106762 106.372 -7.15189e-24)
(0.0330917 106.328 -4.13107e-20)
(0.254614 106.518 1.77433e-18)
(0.180645 106.435 -2.21252e-18)
(0.402038 106.742 -8.87177e-19)
(0.328358 106.621 0)
(0.549174 107.044 7.76988e-19)
(0.475771 106.883 8.87229e-19)
(0.695277 107.423 0)
(0.622364 107.224 -8.87957e-19)
(0.840427 107.879 0)
(0.76802 107.641 1.10902e-19)
(0.984172 108.411 -9.14725e-19)
(0.912428 108.135 -1.38632e-20)
(1.12658 109.019 -4.43101e-19)
(1.05559 108.705 9.00453e-19)
(1.26741 109.702 2.21398e-19)
(1.19722 109.351 5.53662e-19)
(1.40636 110.46 7.2544e-24)
(1.33714 110.072 -1.10601e-19)
(1.54289 111.293 2.20798e-19)
(1.47493 110.868 4.42008e-19)
(1.67762 112.199 0)
(1.61048 111.737 -8.82817e-19)
(1.81075 113.177 -2.75667e-19)
(1.74437 112.679 3.30507e-19)
(1.94335 114.228 2.20282e-19)
(1.87723 113.694 -2.20371e-19)
(2.07456 115.351 -4.40509e-19)
(2.00912 114.781 0)
(2.20379 116.547 -4.40246e-19)
(2.1394 115.94 -1.52014e-22)
(2.33061 117.814 8.24858e-19)
(2.26756 117.172 -3.29824e-19)
(2.4553 119.153 2.19838e-19)
(2.39313 118.475 -6.59513e-19)
(2.57822 120.562 -2.19588e-19)
(2.51692 119.848 -1.09829e-19)
(2.69992 122.041 8.7826e-19)
(2.63904 121.293 -4.38729e-19)
(2.82134 123.591 0)
(2.7608 122.807 -8.77844e-19)
(2.94129 125.213 -2.19171e-19)
(2.88155 124.393 0)
(3.05588 126.907 4.37267e-19)
(2.99914 126.051 0)
(3.11186 127.781 -4.36659e-19)
(-0.627066 107.54 -8.89337e-18)
(-0.848484 107.312 1.42422e-17)
(0.394825 107.063 -2.58795e-18)
(-3.65277 126.737 -1.74851e-18)
(-3.44151 124.228 4.40186e-18)
(-3.50873 125.046 -8.78722e-19)
(-3.37535 123.428 0)
(-3.90662 129.419 0)
(2.46804 130.591 -4.35288e-19)
(3.27833 130.508 1.3059e-18)
(0.778747 106.313 6.91447e-18)
(0.715962 106.704 -1.38548e-17)
(0.869676 106.429 0)
(0.246545 107.292 -3.48278e-18)
(0.0630257 107.476 7.10935e-18)
(-0.150944 107.614 3.53891e-18)
(-0.400593 107.706 -1.41462e-17)
(-0.679434 107.749 1.24608e-17)
(-0.916843 107.518 0)
(0.556169 106.915 1.0371e-17)
(-3.57768 125.882 -1.75436e-18)
(-3.23727 121.879 -3.08248e-18)
(-3.30738 122.645 0)
(-3.08988 120.399 -2.19871e-19)
(-3.16444 121.13 -2.19829e-19)
(-2.93493 118.987 3.4616e-22)
(-3.01274 119.684 4.40389e-19)
(-2.77692 117.646 -2.20073e-19)
(-2.85625 118.308 -4.40088e-19)
(-2.61609 116.374 2.20185e-19)
(-2.69669 117.001 -1.10037e-19)
(-2.45521 115.173 2.20402e-19)
(-2.53546 115.765 -2.20106e-19)
(-2.29733 114.042 3.52622e-18)
(-2.37605 114.598 -2.20278e-19)
(-2.13783 112.982 3.74787e-18)
(-2.21848 113.502 -2.20344e-19)
(-1.96772 111.998 2.20301e-19)
(-2.05413 112.48 8.81454e-19)
(-1.78946 111.09 -3.53715e-18)
(-1.87934 111.534 -2.20618e-19)
(-1.6098 110.256 0)
(-1.69936 110.664 -3.53747e-18)
(-1.43303 109.494 -4.42881e-19)
(-1.52122 109.866 -6.64144e-19)
(-1.25612 108.806 5.54326e-20)
(-1.3448 109.14 6.45118e-23)
(-1.07764 108.193 0)
(-1.16709 108.49 0)
(-0.897397 107.655 0)
(-0.98774 107.914 2.77312e-20)
(-0.71534 107.193 -4.43794e-19)
(-0.806581 107.415 4.43987e-19)
(-0.531644 106.808 4.40451e-23)
(-0.623687 106.991 2.77485e-19)
(-0.346742 106.498 -1.99521e-18)
(-0.43933 106.644 0)
(-0.160649 106.263 1.10756e-19)
(-0.253958 106.371 3.76845e-18)
(0.0280364 106.104 -1.1032e-19)
(-0.0666931 106.173 4.25443e-23)
(0.218758 106.029 -6.013e-23)
(0.123285 106.056 1.76243e-18)
(0.409079 106.043 -6.95993e-18)
(0.314307 106.026 -1.74713e-18)
(0.595695 106.139 -9.63963e-22)
(0.502881 106.081 0)
(0.687396 106.217 6.91492e-18)
(0.849957 130.683 1.90449e-18)
(1.65852 130.649 -4.35156e-19)
(-0.763375 130.674 -3.48394e-18)
(0.0425465 130.692 2.6121e-18)
(-2.37578 130.562 1.74021e-18)
(-1.57012 130.631 1.74063e-18)
(-3.99011 130.352 3.47417e-18)
(-3.18257 130.469 0)
(-1.15092 107.223 -1.42306e-17)
(-0.979827 106.839 -1.24736e-17)
(-1.06608 107.022 2.66851e-17)
(-0.801957 106.529 7.09415e-18)
(-0.891628 106.674 -1.06255e-17)
(-0.619861 106.295 -1.76676e-18)
(-0.711453 106.402 7.07996e-18)
(-0.434478 106.139 -5.30041e-18)
(-0.527501 106.207 1.05469e-17)
(-0.249244 106.06 -3.52461e-18)
(-0.341783 106.09 3.52984e-18)
(-0.0637581 106.059 1.76253e-18)
(-0.156535 106.05 -2.64004e-18)
(0.121808 106.136 2.2138e-19)
(0.0290943 106.088 -2.2654e-24)
(0.306861 106.289 8.87738e-19)
(0.214408 106.203 -4.42832e-19)
(0.491312 106.521 -4.4432e-19)
(0.399198 106.395 2.22072e-19)
(0.675299 106.83 -1.11059e-19)
(0.583319 106.666 0)
(0.857976 107.216 1.38781e-18)
(0.76682 107.013 -3.88509e-19)
(1.03935 107.679 4.43867e-19)
(0.948839 107.438 -9.42874e-19)
(1.21898 108.218 1.38631e-20)
(1.12938 107.939 -4.43944e-19)
(1.39693 108.833 -4.57017e-19)
(1.30816 108.516 0)
(1.57292 109.523 0)
(1.48519 109.168 4.43083e-19)
(1.74676 110.288 -2.212e-19)
(1.6601 109.896 -4.59519e-24)
(1.91799 111.127 7.06466e-23)
(1.83272 110.698 -2.2109e-19)
(2.08704 112.039 2.20647e-19)
(2.0028 111.573 4.41665e-19)
(2.25386 113.023 8.27113e-19)
(2.17075 112.522 -5.51477e-19)
(2.41903 114.08 6.61292e-19)
(2.33672 113.543 -2.20557e-19)
(2.58244 115.209 -2.20234e-19)
(2.50105 114.635 -4.40864e-19)
(2.74365 116.41 -2.20253e-19)
(2.66342 115.8 6.60495e-19)
(2.90213 117.682 1.09997e-19)
(2.82318 117.037 4.22057e-24)
(3.05798 119.025 0)
(2.98032 118.345 0)
(3.21182 120.439 0)
(3.13513 119.723 0)
(3.36373 121.923 -6.58529e-19)
(3.28786 121.172 1.0974e-19)
(3.51445 123.476 2.19365e-19)
(3.43933 122.691 0)
(3.66306 125.101 0)
(3.58914 124.28 -2.19252e-19)
(3.80766 126.798 3.27878e-19)
(3.73588 125.941 5.46797e-20)
(3.94925 128.565 -4.36096e-19)
(3.87875 127.672 4.36769e-19)
(4.0897 130.402 -4.35444e-19)
(4.0195 129.475 8.7215e-19)
(-0.983573 107.74 1.24884e-17)
(-1.23376 107.441 0)
(0.960455 106.563 1.3774e-17)
(0.787166 106.843 6.88188e-18)
(0.428206 107.206 -1.73417e-18)
(-4.50162 127.47 0)
(-4.60126 128.364 -3.48335e-18)
(-4.40468 126.596 1.75194e-18)
(0.262094 107.453 1.06021e-17)
(-4.07032 131.303 0)
(-4.79867 130.211 -3.47141e-18)
(-4.89381 131.164 0)
(4.90229 130.273 3.26766e-19)
(4.15976 131.347 9.79591e-19)
(4.98664 131.219 -4.35976e-19)
(1.12746 106.215 0)
(1.05221 106.714 -6.84937e-18)
(1.23963 106.358 -1.36996e-17)
(0.0622939 107.655 -1.40251e-17)
(-0.171034 107.81 7.06323e-18)
(-0.436611 107.917 1.60309e-17)
(-0.730217 107.975 1.78552e-18)
(-1.04853 107.98 -2.85645e-17)
(-4.23252 124.903 -1.75974e-18)
(-4.15015 124.084 -2.64491e-18)
(-4.06942 123.281 1.76432e-18)
(-1.31427 107.677 0)
(0.609402 107.056 8.60959e-19)
(-4.70067 129.278 -6.95561e-18)
(-4.31557 125.741 0)
(-3.9023 121.728 3.52593e-18)
(-3.98693 122.496 8.81987e-19)
(-3.72489 120.243 -8.80381e-19)
(-3.81477 120.977 0)
(-3.53982 118.826 -3.30036e-19)
(-3.63277 119.526 2.20139e-19)
(-3.35077 117.479 2.20093e-19)
(-3.4457 118.143 1.1003e-19)
(-3.15834 116.201 1.10062e-19)
(-3.25483 116.831 1.10024e-19)
(-2.96551 114.993 1.76267e-18)
(-3.06179 115.588 0)
(-2.77551 113.854 -3.47141e-18)
(-2.87033 114.415 0)
(-2.58369 112.786 1.10334e-19)
(-2.68064 113.311 -5.50838e-20)
(-2.38071 111.795 1.65375e-18)
(-2.48332 112.281 -9.91584e-19)
(-2.16701 110.88 3.53815e-18)
(-2.27453 111.328 3.64329e-18)
(-1.95278 110.039 1.10695e-19)
(-2.0596 110.451 0)
(-1.74133 109.269 4.43233e-19)
(-1.847 109.645 7.74999e-19)
(-1.52942 108.573 1.66232e-19)
(-1.63562 108.912 -4.43337e-19)
(-1.31549 107.951 -2.21915e-19)
(-1.42273 108.253 0)
(-1.09936 107.405 0)
(-1.20769 107.669 1.9414e-19)
(-0.881092 106.935 0)
(-0.990489 107.161 -3.46852e-21)
(-0.660972 106.541 3.33059e-19)
(-0.771247 106.728 1.11045e-19)
(-0.439307 106.222 1.7712e-18)
(-0.550338 106.372 8.91523e-19)
(-0.216207 105.976 0)
(-0.327971 106.09 0)
(0.00946382 105.807 1.76063e-18)
(-0.103866 105.881 0)
(0.237769 105.723 3.51542e-18)
(0.123452 105.754 8.81796e-19)
(0.465048 105.728 0)
(0.351583 105.715 -3.50607e-18)
(0.688838 105.814 -6.95931e-18)
(0.577264 105.762 0)
(0.909044 105.978 1.04316e-17)
(0.799514 105.887 -2.08479e-17)
(1.01801 106.088 0)
(2.50902 131.534 0)
(3.33399 131.452 -9.79571e-19)
(0.861812 131.627 4.89557e-19)
(1.68485 131.593 -1.30406e-18)
(-0.782686 131.619 0)
(0.0390604 131.636 -8.71672e-19)
(-2.42589 131.509 -3.47566e-18)
(-1.604 131.577 0)
(-3.24791 131.418 0)
(-1.57486 107.307 -2.86962e-17)
(-1.38058 106.862 -1.78182e-18)
(-1.47915 107.076 1.42948e-17)
(-1.17615 106.488 -1.78458e-18)
(-1.27918 106.667 1.77787e-18)
(-0.964356 106.189 7.11585e-18)
(-1.07089 106.33 -3.54912e-18)
(-0.746787 105.966 1.77184e-18)
(-0.856159 106.068 -7.08651e-18)
(-0.525434 105.82 1.77001e-18)
(-0.63613 105.883 -5.28709e-18)
(-0.304178 105.751 -3.53221e-18)
(-0.41499 105.776 0)
(-0.0815319 105.759 -1.7679e-18)
(-0.192828 105.746 8.39955e-18)
(0.141021 105.845 -2.21668e-19)
(0.0297813 105.792 -1.71469e-18)
(0.363285 106.008 1.33226e-18)
(0.252168 105.917 -4.43661e-19)
(0.584825 106.249 4.44722e-19)
(0.474156 106.119 -1.55501e-18)
(0.805424 106.567 4.34136e-23)
(0.695299 106.398 0)
(1.02474 106.962 -4.99765e-19)
(0.915255 106.755 6.10981e-19)
(1.24223 107.434 0)
(1.13369 107.188 -5.55107e-20)
(1.45782 107.981 -4.57748e-19)
(1.35032 107.698 4.45555e-19)
(1.67119 108.605 2.35592e-19)
(1.56478 108.284 -2.07857e-19)
(1.88236 109.303 0)
(1.7771 108.944 0)
(2.0909 110.076 -2.21328e-19)
(1.98696 109.68 2.76646e-19)
(2.29654 110.923 -1.10565e-19)
(2.19407 110.49 -2.21207e-19)
(2.49968 111.842 -5.52281e-20)
(2.39845 111.373 -4.8133e-23)
(2.70002 112.834 1.41092e-22)
(2.60021 112.329 -2.20677e-19)
(2.89796 113.899 -2.20594e-19)
(2.79924 113.357 4.96321e-19)
(3.09354 115.034 3.30411e-19)
(2.99607 114.457 1.10193e-19)
(3.28641 116.242 1.10103e-19)
(3.19027 115.629 -3.30511e-19)
(3.47635 117.52 -2.75005e-19)
(3.38176 116.872 -3.88051e-23)
(3.66352 118.869 2.19873e-19)
(3.57031 118.185 -1.64845e-19)
(3.84782 120.288 -2.74536e-20)
(3.756 119.569 0)
(4.02975 121.777 2.74388e-19)
(3.93901 121.023 -2.19464e-19)
(4.20981 123.335 -4.38609e-19)
(4.12011 122.547 0)
(4.38732 124.964 1.09475e-19)
(4.29908 124.141 4.38581e-19)
(4.56163 126.663 -1.09289e-19)
(4.47501 125.805 -5.47711e-20)
(4.73276 128.433 4.36737e-19)
(4.64753 127.539 -1.09075e-19)
(4.81765 129.344 0)
(-1.39216 107.929 0)
(-1.66742 107.555 2.87045e-17)
(0.858259 107 6.86616e-18)
(0.462322 107.367 1.62972e-18)
(-5.27002 127.305 1.74574e-18)
(-5.38353 128.199 -1.74421e-18)
(-5.15935 126.43 0)
(-4.86211 123.913 8.80993e-19)
(-4.95877 124.735 -2.64001e-18)
(-4.76652 123.109 1.95197e-22)
(-5.60929 130.047 1.72472e-21)
(-5.71891 131.002 0)