/*--------------------------------*- C++ -*----------------------------------*\
| =========                 |                                                 |
| \\      /  F ield         | OpenFOAM: The Open Source CFD Toolbox           |
|  \\    /   O peration     | Version:  2212                                  |
|   \\  /    A nd           | Website:  www.openfoam.com                      |
|    \\/     M anipulation  |                                                 |
\*---------------------------------------------------------------------------*/
FoamFile
{
    version     2.0;
    format      ascii;
    arch        "LSB;label=32;scalar=64";
    class       volScalarField;
    location    "0.2304";
    object      s;
}
// * * * * * * * * * * * * * * * * * * * * * * * * * * * * * * * * * * * * * //

dimensions      [0 0 0 0 0 0 0];

internalField   nonuniform List<scalar> 
24240
(
1.13212e-91
1.11608e-91
1.13062e-91
1.10217e-91
1.11718e-91
1.12207e-91
1.12134e-91
1.09089e-91
1.10206e-91
1.12967e-91
1.10681e-91
1.1339e-91
1.10592e-91
1.12961e-91
1.09692e-91
1.13853e-91
1.09392e-91
1.108e-91
1.11375e-91
1.08402e-91
6.72267e-89
6.62753e-89
6.71238e-89
6.54641e-89
6.63265e-89
6.66377e-89
6.65878e-89
6.47867e-89
6.54509e-89
6.7086e-89
6.57384e-89
6.73286e-89
6.56937e-89
6.7089e-89
6.51565e-89
6.76123e-89
6.49818e-89
6.58128e-89
6.61351e-89
6.43931e-89
2.1274e-86
2.09733e-86
2.12369e-86
2.07211e-86
2.09849e-86
2.10899e-86
2.1072e-86
2.05044e-86
2.07147e-86
2.12305e-86
2.08073e-86
2.13044e-86
2.07955e-86
2.12332e-86
2.06244e-86
2.13967e-86
2.05704e-86
2.08316e-86
2.09274e-86
2.0384e-86
3.85398e-84
3.79958e-84
3.84646e-84
3.75475e-84
3.80089e-84
3.82107e-84
3.81746e-84
3.71509e-84
3.75324e-84
3.84635e-84
3.77031e-84
3.85923e-84
3.7686e-84
3.84719e-84
3.73739e-84
3.87641e-84
3.7279e-84
3.77488e-84
3.79108e-84
3.6941e-84
5.03169e-82
4.96083e-82
5.0208e-82
4.90336e-82
4.96141e-82
4.98929e-82
4.9841e-82
4.85108e-82
4.90097e-82
5.02196e-82
4.92356e-82
5.03808e-82
4.92184e-82
5.02346e-82
4.88078e-82
5.061e-82
4.86887e-82
4.92964e-82
4.94924e-82
4.82475e-82
4.57498e-80
4.51078e-80
4.56412e-80
4.45949e-80
4.51028e-80
4.53701e-80
4.53189e-80
4.41157e-80
4.45708e-80
4.56639e-80
4.47783e-80
4.58044e-80
4.4767e-80
4.56815e-80
4.43904e-80
4.60164e-80
4.42877e-80
4.48338e-80
4.49973e-80
4.38864e-80
2.8871e-78
2.84681e-78
2.87962e-78
2.81502e-78
2.84579e-78
2.86351e-78
2.86008e-78
2.78457e-78
2.81348e-78
2.88179e-78
2.82662e-78
2.89028e-78
2.82612e-78
2.88314e-78
2.8021e-78
2.90377e-78
2.79614e-78
2.83002e-78
2.83935e-78
2.77084e-78
1.21143e-76
1.1947e-76
1.20804e-76
1.18159e-76
1.19394e-76
1.20171e-76
1.20024e-76
1.16877e-76
1.18107e-76
1.20924e-76
1.18654e-76
1.21266e-76
1.18635e-76
1.20991e-76
1.17613e-76
1.21829e-76
1.17399e-76
1.18782e-76
1.1913e-76
1.16347e-76
1.35171e-75
1.33359e-75
1.34779e-75
1.31918e-75
1.33223e-75
1.34121e-75
1.33973e-75
1.30495e-75
1.31925e-75
1.34933e-75
1.32505e-75
1.3531e-75
1.32462e-75
1.3502e-75
1.31295e-75
1.359e-75
1.31147e-75
1.32598e-75
1.32933e-75
1.30006e-75
8.17097e-76
8.17408e-76
8.19009e-76
8.06458e-76
8.12029e-76
8.14322e-76
8.20126e-76
8.01757e-76
8.23389e-76
8.13919e-76
8.17988e-76
8.20634e-76
8.08495e-76
8.14268e-76
7.974e-76
8.11779e-76
8.13926e-76
8.05559e-76
8.07152e-76
8.14743e-76
1.28198e-75
1.29218e-75
1.30333e-75
1.28247e-75
1.27446e-75
1.28005e-75
1.29483e-75
1.26873e-75
1.30837e-75
1.29785e-75
1.30501e-75
1.29887e-75
1.29083e-75
1.27659e-75
1.26711e-75
1.28022e-75
1.27183e-75
1.27386e-75
1.28297e-75
1.28729e-75
1.47483e-75
1.48577e-75
1.49271e-75
1.46594e-75
1.46483e-75
1.43877e-75
1.47091e-75
1.44708e-75
1.48154e-75
1.51467e-75
1.49979e-75
1.46389e-75
1.49915e-75
1.47647e-75
1.4746e-75
1.48415e-75
1.42512e-75
1.47598e-75
1.45216e-75
1.45737e-75
1.69561e-75
1.72329e-75
1.7197e-75
1.7104e-75
1.72022e-75
1.73359e-75
1.77457e-75
1.71974e-75
1.7247e-75
1.70232e-75
1.70876e-75
1.71094e-75
1.72725e-75
1.73066e-75
1.69866e-75
1.7197e-75
1.7291e-75
1.70496e-75
1.69576e-75
1.70146e-75
1.85507e-75
1.85161e-75
1.86279e-75
1.89821e-75
1.88292e-75
1.90255e-75
1.87002e-75
1.9046e-75
1.87032e-75
1.81726e-75
1.83518e-75
1.84437e-75
1.85297e-75
1.82279e-75
1.81512e-75
1.83473e-75
1.81864e-75
1.85445e-75
1.83533e-75
1.87278e-75
1.89463e-75
1.89128e-75
1.92573e-75
1.90623e-75
1.88996e-75
1.92201e-75
1.91631e-75
1.94602e-75
1.89482e-75
1.92528e-75
1.91563e-75
1.91946e-75
1.92783e-75
1.9235e-75
1.90781e-75
1.95793e-75
1.90614e-75
1.88435e-75
1.9067e-75
1.90742e-75
1.90927e-75
1.87483e-75
1.88388e-75
1.87591e-75
1.90242e-75
1.91625e-75
1.91629e-75
1.90251e-75
1.86199e-75
1.8745e-75
1.85548e-75
1.91176e-75
1.90824e-75
1.93422e-75
1.92702e-75
1.92429e-75
1.9069e-75
1.91031e-75
1.88778e-75
1.89534e-75
1.74997e-75
1.77385e-75
1.75031e-75
1.8117e-75
1.75923e-75
1.80015e-75
1.76645e-75
1.79068e-75
1.76548e-75
1.77519e-75
1.77059e-75
1.805e-75
1.77097e-75
1.82145e-75
1.76232e-75
1.79406e-75
1.79047e-75
1.74134e-75
1.79692e-75
1.79559e-75
1.57957e-75
1.63988e-75
1.62027e-75
1.6053e-75
1.58837e-75
1.65706e-75
1.62853e-75
1.63381e-75
1.62093e-75
1.5933e-75
1.61655e-75
1.64718e-75
1.6115e-75
1.67598e-75
1.61419e-75
1.64327e-75
1.65301e-75
1.62445e-75
1.65397e-75
1.65689e-75
1.45151e-75
1.45028e-75
1.44628e-75
1.46784e-75
1.47711e-75
1.47501e-75
1.44534e-75
1.46242e-75
1.49097e-75
1.44646e-75
1.47775e-75
1.48407e-75
1.44142e-75
1.49528e-75
1.48705e-75
1.51693e-75
1.47081e-75
1.49513e-75
1.47621e-75
1.51304e-75
1.02541e-75
1.03307e-75
1.02877e-75
1.02009e-75
1.03602e-75
1.03016e-75
1.03827e-75
1.03152e-75
1.03513e-75
1.04823e-75
1.02614e-75
1.05261e-75
1.02508e-75
1.06185e-75
1.02753e-75
1.02833e-75
1.03547e-75
1.05463e-75
1.03741e-75
1.06427e-75
4.07134e-90
4.01365e-90
4.06527e-90
3.96454e-90
4.01689e-90
4.03574e-90
4.03268e-90
3.92358e-90
3.96367e-90
4.06304e-90
3.98114e-90
4.07774e-90
3.97847e-90
4.06306e-90
3.94596e-90
4.09487e-90
3.9351e-90
3.98565e-90
4.00535e-90
3.89942e-90
2.43913e-87
2.40461e-87
2.43501e-87
2.37573e-87
2.40605e-87
2.41809e-87
2.416e-87
2.35091e-87
2.37493e-87
2.43431e-87
2.3856e-87
2.44279e-87
2.38428e-87
2.43453e-87
2.36468e-87
2.45336e-87
2.3583e-87
2.38841e-87
2.39951e-87
2.33688e-87
7.68346e-85
7.5749e-85
7.6689e-85
7.4856e-85
7.57778e-85
7.61807e-85
7.61074e-85
7.40658e-85
7.48229e-85
7.66877e-85
7.5165e-85
7.69445e-85
7.51322e-85
7.6701e-85
7.45108e-85
7.72866e-85
7.43147e-85
7.52568e-85
7.55837e-85
7.3639e-85
1.40803e-82
1.38817e-82
1.40507e-82
1.37212e-82
1.3884e-82
1.39621e-82
1.39473e-82
1.35749e-82
1.37137e-82
1.40542e-82
1.37774e-82
1.40994e-82
1.3773e-82
1.40578e-82
1.36583e-82
1.41636e-82
1.36234e-82
1.37947e-82
1.38504e-82
1.34994e-82
1.82552e-80
1.79986e-80
1.82132e-80
1.77943e-80
1.79974e-80
1.81043e-80
1.80833e-80
1.76029e-80
1.77831e-80
1.82225e-80
1.78667e-80
1.82785e-80
1.78629e-80
1.82286e-80
1.7713e-80
1.83635e-80
1.76696e-80
1.78897e-80
1.79562e-80
1.75088e-80
1.64495e-78
1.62192e-78
1.64083e-78
1.60385e-78
1.62143e-78
1.63156e-78
1.62953e-78
1.58647e-78
1.60276e-78
1.64211e-78
1.61037e-78
1.64693e-78
1.61018e-78
1.64279e-78
1.59656e-78
1.65472e-78
1.59285e-78
1.61245e-78
1.61791e-78
1.57835e-78
1.02227e-76
1.00804e-76
1.0195e-76
9.97025e-77
1.0075e-76
1.01409e-76
1.01276e-76
9.86151e-77
9.96343e-77
1.02056e-76
1.00108e-76
1.02342e-76
1.00104e-76
1.02106e-76
9.92487e-77
1.02829e-76
9.90365e-77
1.00234e-76
1.00539e-76
9.8136e-77
4.23921e-75
4.18087e-75
4.22692e-75
4.13598e-75
4.17745e-75
4.20599e-75
4.20033e-75
4.09074e-75
4.13361e-75
4.23232e-75
4.15309e-75
4.24368e-75
4.15301e-75
4.23475e-75
4.11703e-75
4.26373e-75
4.10949e-75
4.15783e-75
4.16892e-75
4.07247e-75
4.6632e-74
4.60094e-74
4.64925e-74
4.5523e-74
4.59541e-74
4.62788e-74
4.62216e-74
4.50279e-74
4.5519e-74
4.65588e-74
4.57229e-74
4.66818e-74
4.57147e-74
4.65893e-74
4.53096e-74
4.68892e-74
4.52578e-74
4.5758e-74
4.58617e-74
4.48613e-74
2.7728e-74
2.77384e-74
2.77982e-74
2.73739e-74
2.75555e-74
2.76396e-74
2.78309e-74
2.72103e-74
2.79457e-74
2.76242e-74
2.77638e-74
2.78484e-74
2.74429e-74
2.76347e-74
2.70686e-74
2.75444e-74
2.76227e-74
2.73406e-74
2.73948e-74
2.7651e-74
4.3687e-74
4.40279e-74
4.44121e-74
4.3698e-74
4.34263e-74
4.36119e-74
4.41079e-74
4.32277e-74
4.45752e-74
4.42211e-74
4.44664e-74
4.42482e-74
4.39857e-74
4.35015e-74
4.31806e-74
4.36183e-74
4.33279e-74
4.34055e-74
4.37123e-74
4.3854e-74
4.9963e-74
5.03297e-74
5.05664e-74
4.96552e-74
4.96276e-74
4.87525e-74
4.98382e-74
4.90397e-74
5.01852e-74
5.13015e-74
5.07934e-74
4.95933e-74
5.07779e-74
5.00174e-74
4.99505e-74
5.02738e-74
4.82856e-74
4.99898e-74
4.91927e-74
4.93654e-74
5.75268e-74
5.84449e-74
5.83344e-74
5.80307e-74
5.83587e-74
5.88145e-74
6.01796e-74
5.83527e-74
5.85095e-74
5.77448e-74
5.79609e-74
5.80386e-74
5.85944e-74
5.87217e-74
5.76386e-74
5.83413e-74
5.86564e-74
5.78501e-74
5.75343e-74
5.773e-74
6.24231e-74
6.22927e-74
6.2663e-74
6.38564e-74
6.33471e-74
6.40031e-74
6.29071e-74
6.40803e-74
6.29041e-74
6.11573e-74
6.17424e-74
6.20633e-74
6.23397e-74
6.13354e-74
6.10751e-74
6.17396e-74
6.11844e-74
6.23908e-74
6.17501e-74
6.30055e-74
6.39041e-74
6.37828e-74
6.49421e-74
6.42791e-74
6.37392e-74
6.48311e-74
6.4621e-74
6.56315e-74
6.3911e-74
6.49422e-74
6.46122e-74
6.47451e-74
6.50113e-74
6.48899e-74
6.43564e-74
6.60299e-74
6.42908e-74
6.35545e-74
6.43078e-74
6.43137e-74
6.37669e-74
6.26227e-74
6.29e-74
6.26508e-74
6.35372e-74
6.39987e-74
6.39915e-74
6.35315e-74
6.2189e-74
6.25985e-74
6.19585e-74
6.38342e-74
6.37296e-74
6.45901e-74
6.4356e-74
6.42502e-74
6.36828e-74
6.38038e-74
6.30502e-74
6.33006e-74
5.86714e-74
5.94834e-74
5.86861e-74
6.0736e-74
5.89663e-74
6.03387e-74
5.92081e-74
6.00349e-74
5.91918e-74
5.95242e-74
5.93651e-74
6.05174e-74
5.93701e-74
6.10587e-74
5.90861e-74
6.0138e-74
6.00259e-74
5.83879e-74
6.0245e-74
6.02021e-74
5.25384e-74
5.45267e-74
5.38858e-74
5.33762e-74
5.28252e-74
5.50928e-74
5.41425e-74
5.43249e-74
5.38971e-74
5.29846e-74
5.37447e-74
5.47612e-74
5.35853e-74
5.57095e-74
5.36699e-74
5.46335e-74
5.49473e-74
5.40187e-74
5.49872e-74
5.509e-74
4.86289e-74
4.8587e-74
4.84615e-74
4.91786e-74
4.94778e-74
4.94094e-74
4.84134e-74
4.90101e-74
4.99466e-74
4.84664e-74
4.95052e-74
4.97227e-74
4.82838e-74
5.00912e-74
4.98165e-74
5.0817e-74
4.92772e-74
5.00795e-74
4.94461e-74
5.06738e-74
3.42349e-74
3.44924e-74
3.43523e-74
3.40587e-74
3.45809e-74
3.43924e-74
3.46546e-74
3.44402e-74
3.45425e-74
3.49889e-74
3.42472e-74
3.51301e-74
3.42175e-74
3.54405e-74
3.42975e-74
3.43251e-74
3.45579e-74
3.51986e-74
3.46271e-74
3.55174e-74
1.5212e-88
1.49964e-88
1.51867e-88
1.48165e-88
1.50058e-88
1.5081e-88
1.50678e-88
1.46618e-88
1.48111e-88
1.51827e-88
1.48779e-88
1.52356e-88
1.48698e-88
1.51835e-88
1.47477e-88
1.53013e-88
1.47069e-88
1.48954e-88
1.49652e-88
1.45732e-88
9.01338e-86
8.88588e-86
8.99669e-86
8.78127e-86
8.88953e-86
8.93689e-86
8.92816e-86
8.68862e-86
8.77709e-86
8.9967e-86
8.8174e-86
9.0268e-86
8.81368e-86
8.9979e-86
8.74084e-86
9.06688e-86
8.71713e-86
8.8282e-86
8.86691e-86
8.63771e-86
2.78818e-83
2.74882e-83
2.78247e-83
2.71707e-83
2.74935e-83
2.76486e-83
2.76188e-83
2.68812e-83
2.71549e-83
2.78322e-83
2.72816e-83
2.79214e-83
2.72734e-83
2.78381e-83
2.70465e-83
2.80487e-83
2.6975e-83
2.73163e-83
2.74277e-83
2.67288e-83
5.05575e-81
4.98457e-81
5.0444e-81
4.9281e-81
4.98443e-81
5.01412e-81
5.0082e-81
4.87509e-81
4.92474e-81
5.04714e-81
4.94807e-81
5.06261e-81
4.94716e-81
5.0486e-81
4.90572e-81
5.08622e-81
4.89314e-81
4.95457e-81
4.97324e-81
4.84842e-81
6.44351e-79
6.35313e-79
6.4278e-79
6.28252e-79
6.35148e-79
6.3913e-79
6.38313e-79
6.21435e-79
6.27771e-79
6.43299e-79
6.30781e-79
6.45179e-79
6.30735e-79
6.43533e-79
6.25409e-79
6.48248e-79
6.2387e-79
6.31628e-79
6.33804e-79
6.18165e-79
5.74007e-77
5.65992e-77
5.72497e-77
5.59824e-77
5.65715e-77
5.69437e-77
5.68659e-77
5.53706e-77
5.59365e-77
5.73115e-77
5.62071e-77
5.7471e-77
5.62087e-77
5.73366e-77
5.573e-77
5.77485e-77
5.56001e-77
5.62832e-77
5.64584e-77
5.50911e-77
3.51034e-75
3.46167e-75
3.50043e-75
3.42466e-75
3.45911e-75
3.48292e-75
3.4779e-75
3.387e-75
3.42183e-75
3.50511e-75
3.43842e-75
3.51439e-75
3.43878e-75
3.50691e-75
3.4092e-75
3.53148e-75
3.40188e-75
3.44296e-75
3.45247e-75
3.37076e-75
1.4357e-73
1.41602e-73
1.43139e-73
1.40116e-73
1.41459e-73
1.42473e-73
1.42263e-73
1.38572e-73
1.40016e-73
1.43365e-73
1.40688e-73
1.43727e-73
1.40706e-73
1.43449e-73
1.39479e-73
1.44419e-73
1.39223e-73
1.40858e-73
1.41195e-73
1.3796e-73
1.55582e-72
1.53514e-72
1.55103e-72
1.51929e-72
1.53301e-72
1.54435e-72
1.54224e-72
1.50264e-72
1.51893e-72
1.5537e-72
1.52587e-72
1.55756e-72
1.52583e-72
1.55473e-72
1.51222e-72
1.5646e-72
1.51047e-72
1.52714e-72
1.5302e-72
1.49713e-72
9.08864e-73
9.09198e-73
9.11346e-73
8.97493e-73
9.03192e-73
9.06157e-73
9.12232e-73
8.91991e-73
9.16136e-73
9.05604e-73
9.1022e-73
9.12825e-73
8.9975e-73
9.05894e-73
8.87552e-73
9.02742e-73
9.05487e-73
8.96307e-73
8.98088e-73
9.06435e-73
1.43837e-72
1.44937e-72
1.46215e-72
1.43854e-72
1.42964e-72
1.43558e-72
1.45165e-72
1.42299e-72
1.46724e-72
1.45573e-72
1.46384e-72
1.45638e-72
1.4481e-72
1.4322e-72
1.4217e-72
1.43581e-72
1.42611e-72
1.42894e-72
1.43892e-72
1.4434e-72
1.63641e-72
1.64828e-72
1.65609e-72
1.6261e-72
1.62552e-72
1.59713e-72
1.63256e-72
1.60673e-72
1.6435e-72
1.67987e-72
1.66308e-72
1.62432e-72
1.66278e-72
1.63814e-72
1.63583e-72
1.64642e-72
1.58167e-72
1.63687e-72
1.61111e-72
1.61663e-72
1.88728e-72
1.91669e-72
1.91344e-72
1.90386e-72
1.91446e-72
1.92947e-72
1.97341e-72
1.91459e-72
1.91937e-72
1.89414e-72
1.90114e-72
1.90379e-72
1.92211e-72
1.92668e-72
1.89123e-72
1.91391e-72
1.92411e-72
1.89809e-72
1.88759e-72
1.89408e-72
2.03453e-72
2.02982e-72
2.04168e-72
2.08062e-72
2.06421e-72
2.08544e-72
2.04968e-72
2.08821e-72
2.04913e-72
1.99348e-72
2.01195e-72
2.02281e-72
2.03138e-72
1.99903e-72
1.99047e-72
2.01225e-72
1.99373e-72
2.0331e-72
2.01229e-72
2.05304e-72
2.08818e-72
2.08388e-72
2.12165e-72
2.09985e-72
2.08257e-72
2.11854e-72
2.11113e-72
2.14437e-72
2.08838e-72
2.12216e-72
2.11123e-72
2.1157e-72
2.12387e-72
2.12078e-72
2.10314e-72
2.15723e-72
2.10077e-72
2.07662e-72
2.10119e-72
2.10078e-72
2.06796e-72
2.0311e-72
2.03932e-72
2.03182e-72
2.06048e-72
2.07542e-72
2.07489e-72
2.06012e-72
2.01691e-72
2.03e-72
2.00911e-72
2.0696e-72
2.06668e-72
2.09431e-72
2.08694e-72
2.08308e-72
2.06504e-72
2.06924e-72
2.04478e-72
2.05282e-72
1.91059e-72
1.93731e-72
1.9111e-72
1.97744e-72
1.91965e-72
1.96431e-72
1.92752e-72
1.95482e-72
1.92743e-72
1.93848e-72
1.93309e-72
1.97068e-72
1.93313e-72
1.98794e-72
1.92412e-72
1.95789e-72
1.95452e-72
1.90154e-72
1.96171e-72
1.96038e-72
1.70009e-72
1.76382e-72
1.74346e-72
1.72667e-72
1.70916e-72
1.78197e-72
1.75117e-72
1.7573e-72
1.74346e-72
1.71417e-72
1.7383e-72
1.77114e-72
1.73346e-72
1.80149e-72
1.73602e-72
1.76707e-72
1.7769e-72
1.74753e-72
1.77845e-72
1.78195e-72
1.58447e-72
1.58317e-72
1.57935e-72
1.60247e-72
1.61181e-72
1.60974e-72
1.57723e-72
1.59747e-72
1.62725e-72
1.57943e-72
1.61294e-72
1.62025e-72
1.57306e-72
1.63203e-72
1.62306e-72
1.65562e-72
1.60573e-72
1.63136e-72
1.61081e-72
1.65054e-72
1.10704e-72
1.11538e-72
1.11097e-72
1.10141e-72
1.11799e-72
1.11208e-72
1.12023e-72
1.11369e-72
1.11645e-72
1.13112e-72
1.10706e-72
1.13553e-72
1.10623e-72
1.14562e-72
1.10883e-72
1.10977e-72
1.11703e-72
1.13782e-72
1.11941e-72
1.14802e-72
5.50779e-87
5.42977e-87
5.49778e-87
5.36592e-87
5.43217e-87
5.46116e-87
5.45576e-87
5.30936e-87
5.36323e-87
5.4979e-87
5.38796e-87
5.51629e-87
5.38574e-87
5.49843e-87
5.34126e-87
5.54072e-87
5.32638e-87
5.39456e-87
5.41841e-87
5.2778e-87
3.30653e-84
3.2598e-84
3.29989e-84
3.2222e-84
3.26053e-84
3.27896e-84
3.27537e-84
3.18788e-84
3.22021e-84
3.30085e-84
3.23531e-84
3.31143e-84
3.23438e-84
3.30142e-84
3.2075e-84
3.3265e-84
3.19875e-84
3.23944e-84
3.25278e-84
3.1695e-84
1.01126e-81
9.97008e-82
1.00904e-81
9.85731e-82
9.97012e-82
1.00296e-81
1.00176e-81
9.7513e-82
9.85016e-82
1.00961e-81
9.8971e-82
1.0127e-81
9.89548e-82
1.00986e-81
9.81266e-82
1.01743e-81
9.7866e-82
9.91021e-82
9.94797e-82
9.69691e-82
1.81058e-79
1.78515e-79
1.80627e-79
1.76535e-79
1.78475e-79
1.79598e-79
1.79364e-79
1.74619e-79
1.7639e-79
1.80778e-79
1.77242e-79
1.81306e-79
1.77234e-79
1.80836e-79
1.7574e-79
1.82171e-79
1.75288e-79
1.77485e-79
1.78105e-79
1.73678e-79
2.26858e-77
2.23685e-77
2.26276e-77
2.21253e-77
2.23584e-77
2.2506e-77
2.24745e-77
2.18832e-77
2.21052e-77
2.26527e-77
2.22133e-77
2.27155e-77
2.22148e-77
2.26615e-77
2.20261e-77
2.28259e-77
2.19717e-77
2.22444e-77
2.2315e-77
2.17696e-77
1.99461e-75
1.96686e-75
1.98913e-75
1.9459e-75
1.96552e-75
1.97911e-75
1.97616e-75
1.92446e-75
1.94403e-75
1.99188e-75
1.95361e-75
1.99712e-75
1.95395e-75
1.9928e-75
1.9372e-75
2.00696e-75
1.93267e-75
1.95638e-75
1.96193e-75
1.91487e-75
1.2003e-73
1.18373e-73
1.19679e-73
1.17136e-73
1.18262e-73
1.19116e-73
1.18929e-73
1.15838e-73
1.17022e-73
1.19875e-73
1.176e-73
1.20173e-73
1.1763e-73
1.19938e-73
1.16611e-73
1.20769e-73
1.1636e-73
1.17763e-73
1.18056e-73
1.15289e-73
4.83698e-72
4.77102e-72
4.82202e-72
4.7221e-72
4.76524e-72
4.80101e-72
4.79333e-72
4.66966e-72
4.71804e-72
4.83107e-72
4.7411e-72
4.84251e-72
4.74244e-72
4.83396e-72
4.7008e-72
4.86627e-72
4.69212e-72
4.74713e-72
4.75721e-72
4.64924e-72
5.16364e-71
5.09542e-71
5.14739e-71
5.04404e-71
5.08733e-71
5.12671e-71
5.11903e-71
4.98834e-71
5.04211e-71
5.15776e-71
5.06555e-71
5.16972e-71
5.06621e-71
5.16119e-71
5.02075e-71
5.19354e-71
5.01485e-71
5.07014e-71
5.07893e-71
4.97017e-71
2.96157e-71
2.96265e-71
2.97026e-71
2.92529e-71
2.94303e-71
2.95336e-71
2.97252e-71
2.90691e-71
2.9857e-71
2.95142e-71
2.96659e-71
2.97452e-71
2.93262e-71
2.95219e-71
2.89312e-71
2.94128e-71
2.9508e-71
2.92111e-71
2.92694e-71
2.95396e-71
4.70957e-71
4.74484e-71
4.78711e-71
4.70946e-71
4.68049e-71
4.69942e-71
4.75113e-71
4.65839e-71
4.80287e-71
4.76568e-71
4.79233e-71
4.76698e-71
4.74106e-71
4.68916e-71
4.65498e-71
4.70024e-71
4.66799e-71
4.67814e-71
4.7104e-71
4.72444e-71
5.33233e-71
5.37057e-71
5.39616e-71
5.29802e-71
5.2972e-71
5.20555e-71
5.3206e-71
5.23748e-71
5.35477e-71
5.47272e-71
5.41751e-71
5.293e-71
5.41718e-71
5.33784e-71
5.32991e-71
5.36444e-71
5.15464e-71
5.33248e-71
5.2497e-71
5.26721e-71
6.16189e-71
6.25555e-71
6.24618e-71
6.2162e-71
6.25018e-71
6.29943e-71
6.44005e-71
6.25174e-71
6.26612e-71
6.18329e-71
6.20581e-71
6.2148e-71
6.27489e-71
6.29107e-71
6.17565e-71
6.24848e-71
6.28136e-71
6.19778e-71
6.16306e-71
6.18448e-71
6.60699e-71
6.5902e-71
6.62803e-71
6.75459e-71
6.70194e-71
6.77038e-71
6.65414e-71
6.78025e-71
6.65086e-71
6.47443e-71
6.53237e-71
6.56893e-71
6.59533e-71
6.49156e-71
6.46353e-71
6.53467e-71
6.47316e-71
6.6011e-71
6.53382e-71
6.66553e-71
6.80074e-71
6.78567e-71
6.90828e-71
6.83683e-71
6.78174e-71
6.89982e-71
6.87389e-71
6.98286e-71
6.80133e-71
6.91158e-71
6.87549e-71
6.89043e-71
6.91537e-71
6.90821e-71
6.8502e-71
7.02426e-71
6.84155e-71
6.76274e-71
6.84253e-71
6.83923e-71
6.69704e-71
6.57843e-71
6.60256e-71
6.58026e-71
6.67274e-71
6.72092e-71
6.71834e-71
6.67101e-71
6.53214e-71
6.57393e-71
6.5058e-71
6.70057e-71
6.69262e-71
6.78119e-71
6.75813e-71
6.7441e-71
6.68696e-71
6.70157e-71
6.62222e-71
6.64789e-71
6.2141e-71
6.30204e-71
6.21589e-71
6.43042e-71
6.24176e-71
6.38699e-71
6.2674e-71
6.35739e-71
6.26858e-71
6.30532e-71
6.28707e-71
6.40956e-71
6.28676e-71
6.46445e-71
6.25818e-71
6.36646e-71
6.35651e-71
6.18522e-71
6.38008e-71
6.37592e-71
5.50738e-71
5.7118e-71
5.64711e-71
5.59158e-71
5.53609e-71
5.77005e-71
5.67014e-71
5.69073e-71
5.64595e-71
5.55174e-71
5.62841e-71
5.73466e-71
5.61378e-71
5.83192e-71
5.62156e-71
5.72174e-71
5.75246e-71
5.6596e-71
5.75825e-71
5.77025e-71
5.16794e-71
5.16374e-71
5.1522e-71
5.22694e-71
5.2561e-71
5.24966e-71
5.14346e-71
5.21212e-71
5.30693e-71
5.15227e-71
5.2605e-71
5.28504e-71
5.13006e-71
5.32266e-71
5.29348e-71
5.39952e-71
5.23758e-71
5.31965e-71
5.25277e-71
5.38159e-71
3.60034e-71
3.62761e-71
3.61362e-71
3.58219e-71
3.63507e-71
3.61659e-71
3.64214e-71
3.62207e-71
3.62909e-71
3.67772e-71
3.59911e-71
3.69156e-71
3.59697e-71
3.72459e-71
3.6053e-71
3.6085e-71
3.6314e-71
3.69917e-71
3.63964e-71
3.73196e-71
2.06432e-85
2.0351e-85
2.06024e-85
2.01166e-85
2.03562e-85
2.04715e-85
2.04488e-85
1.99025e-85
2.01036e-85
2.06089e-85
2.01983e-85
2.06749e-85
2.01927e-85
2.06117e-85
2.00249e-85
2.07688e-85
1.99689e-85
2.0224e-85
2.0308e-85
1.97861e-85
1.22009e-82
1.20287e-82
1.21746e-82
1.18928e-82
1.20291e-82
1.21011e-82
1.20864e-82
1.1765e-82
1.18838e-82
1.21817e-82
1.19407e-82
1.2219e-82
1.19389e-82
1.21843e-82
1.1839e-82
1.22759e-82
1.18066e-82
1.19565e-82
1.20025e-82
1.16982e-82
3.66487e-80
3.61333e-80
3.65632e-80
3.57333e-80
3.61265e-80
3.63542e-80
3.63062e-80
3.53457e-80
3.57023e-80
3.65947e-80
3.58758e-80
3.67014e-80
3.5875e-80
3.66051e-80
3.55729e-80
3.68766e-80
3.54781e-80
3.59254e-80
3.60525e-80
3.51513e-80
6.47445e-78
6.38376e-78
6.4582e-78
6.3145e-78
6.38112e-78
6.42337e-78
6.41422e-78
6.24541e-78
6.3084e-78
6.46556e-78
6.33948e-78
6.48346e-78
6.34012e-78
6.46782e-78
6.28632e-78
6.51506e-78
6.27009e-78
6.34854e-78
6.36898e-78
6.21218e-78
7.97251e-76
7.86138e-76
7.9511e-76
7.77781e-76
7.85629e-76
7.91081e-76
7.89874e-76
7.69202e-76
7.76962e-76
7.96231e-76
7.80831e-76
7.98318e-76
7.81001e-76
7.96562e-76
7.7432e-76
8.02278e-76
7.72405e-76
7.81977e-76
7.8424e-76
7.65256e-76
6.91207e-74
6.81632e-74
6.89233e-74
6.74532e-74
6.8103e-74
6.8597e-74
6.84861e-74
6.67044e-74
6.73787e-74
6.90396e-74
6.77168e-74
6.92105e-74
6.77388e-74
6.90728e-74
6.71542e-74
6.95584e-74
6.69969e-74
6.78172e-74
6.79907e-74
6.63753e-74
4.09157e-72
4.03535e-72
4.07919e-72
3.99417e-72
4.03077e-72
4.06125e-72
4.05437e-72
3.94958e-72
3.98972e-72
4.08713e-72
4.00977e-72
4.09666e-72
4.01141e-72
4.08935e-72
3.97642e-72
4.11736e-72
3.96785e-72
4.01561e-72
4.02447e-72
3.93102e-72
1.62305e-70
1.60104e-70
1.61789e-70
1.58501e-70
1.59878e-70
1.61133e-70
1.60854e-70
1.56728e-70
1.58342e-70
1.62142e-70
1.59129e-70
1.625e-70
1.59199e-70
1.62241e-70
1.57792e-70
1.63312e-70
1.575e-70
1.59343e-70
1.59637e-70
1.56048e-70
1.7065e-69
1.6841e-69
1.70102e-69
1.66753e-69
1.68109e-69
1.69468e-69
1.69191e-69
1.64898e-69
1.66664e-69
1.70496e-69
1.67453e-69
1.70863e-69
1.67502e-69
1.70609e-69
1.65988e-69
1.71664e-69
1.65791e-69
1.67617e-69
1.67862e-69
1.643e-69
9.60314e-70
9.60658e-70
9.6333e-70
9.48796e-70
9.54279e-70
9.57846e-70
9.63845e-70
9.42695e-70
9.68277e-70
9.5718e-70
9.6213e-70
9.64528e-70
9.51172e-70
9.57364e-70
9.38437e-70
9.53621e-70
9.56894e-70
9.47344e-70
9.49242e-70
9.57937e-70
1.53482e-69
1.54608e-69
1.55998e-69
1.53457e-69
1.52519e-69
1.53119e-69
1.54775e-69
1.51788e-69
1.56483e-69
1.55288e-69
1.56158e-69
1.55304e-69
1.54496e-69
1.52811e-69
1.51703e-69
1.53147e-69
1.5208e-69
1.52439e-69
1.53477e-69
1.53914e-69
1.73028e-69
1.74254e-69
1.7509e-69
1.71892e-69
1.71899e-69
1.68953e-69
1.72673e-69
1.70012e-69
1.73735e-69
1.77543e-69
1.75736e-69
1.71754e-69
1.75746e-69
1.73203e-69
1.72933e-69
1.74053e-69
1.67284e-69
1.72989e-69
1.70343e-69
1.70895e-69
2.00382e-69
2.03351e-69
2.03086e-69
2.02153e-69
2.03238e-69
2.04848e-69
2.09326e-69
2.03325e-69
2.03753e-69
2.01048e-69
2.01768e-69
2.0207e-69
2.04033e-69
2.046e-69
2.00858e-69
2.03186e-69
2.04241e-69
2.01569e-69
2.00424e-69
2.01128e-69
2.13905e-69
2.13313e-69
2.14516e-69
2.18616e-69
2.16932e-69
2.19133e-69
2.15366e-69
2.19478e-69
2.15211e-69
2.09637e-69
2.11447e-69
2.12673e-69
2.13481e-69
2.10163e-69
2.09249e-69
2.11563e-69
2.09529e-69
2.13674e-69
2.11506e-69
2.15748e-69
2.20858e-69
2.20334e-69
2.24301e-69
2.21968e-69
2.20219e-69
2.24082e-69
2.23181e-69
2.26745e-69
2.20876e-69
2.24462e-69
2.23273e-69
2.23772e-69
2.24528e-69
2.24389e-69
2.22486e-69
2.2807e-69
2.22176e-69
2.19613e-69
2.22195e-69
2.22025e-69
2.16467e-69
2.12667e-69
2.13368e-69
2.12708e-69
2.15679e-69
2.17234e-69
2.1712e-69
2.15614e-69
2.11159e-69
2.12491e-69
2.10275e-69
2.16529e-69
2.16321e-69
2.19149e-69
2.18429e-69
2.17935e-69
2.16122e-69
2.16624e-69
2.14064e-69
2.14882e-69
2.01774e-69
2.04656e-69
2.0183e-69
2.0875e-69
2.02613e-69
2.07322e-69
2.03445e-69
2.06401e-69
2.03526e-69
2.04745e-69
2.04127e-69
2.08117e-69
2.04108e-69
2.09858e-69
2.03209e-69
2.06666e-69
2.06378e-69
2.00854e-69
2.07146e-69
2.07017e-69
1.78256e-69
1.84805e-69
1.82753e-69
1.80925e-69
1.79163e-69
1.86673e-69
1.83435e-69
1.84125e-69
1.82677e-69
1.79652e-69
1.82084e-69
1.85518e-69
1.81645e-69
1.88631e-69
1.8188e-69
1.85108e-69
1.86067e-69
1.83134e-69
1.86278e-69
1.86687e-69
1.68455e-69
1.68323e-69
1.67977e-69
1.70387e-69
1.71294e-69
1.71099e-69
1.67633e-69
1.69956e-69
1.72967e-69
1.67971e-69
1.71463e-69
1.72286e-69
1.67203e-69
1.73487e-69
1.72536e-69
1.75986e-69
1.70739e-69
1.73359e-69
1.71188e-69
1.75358e-69
1.17084e-69
1.17973e-69
1.17531e-69
1.165e-69
1.18187e-69
1.17606e-69
1.18404e-69
1.17792e-69
1.1796e-69
1.19568e-69
1.17003e-69
1.20002e-69
1.16949e-69
1.21082e-69
1.17219e-69
1.17328e-69
1.18046e-69
1.20257e-69
1.1833e-69
1.21311e-69
7.72141e-84
7.6123e-84
7.70503e-84
7.52642e-84
7.6128e-84
7.65842e-84
7.64901e-84
7.44562e-84
7.52051e-84
7.70973e-84
7.55666e-84
7.73331e-84
7.55561e-84
7.71106e-84
7.49245e-84
7.76926e-84
7.47139e-84
7.56669e-84
7.59606e-84
7.40269e-84
4.49853e-81
4.43518e-81
4.48821e-81
4.38616e-81
4.43449e-81
4.46249e-81
4.45652e-81
4.33861e-81
4.38219e-81
4.49218e-81
4.4036e-81
4.50527e-81
4.40356e-81
4.49327e-81
4.36649e-81
4.52674e-81
4.3545e-81
4.40969e-81
4.42545e-81
4.3143e-81
1.32698e-78
1.30837e-78
1.32371e-78
1.2942e-78
1.30787e-78
1.31655e-78
1.31465e-78
1.28004e-78
1.29289e-78
1.32525e-78
1.2993e-78
1.32892e-78
1.29946e-78
1.32567e-78
1.28844e-78
1.3354e-78
1.285e-78
1.30117e-78
1.30542e-78
1.27309e-78
2.31042e-76
2.27817e-76
2.30435e-76
2.25401e-76
2.27679e-76
2.29263e-76
2.28908e-76
2.22915e-76
2.25151e-76
2.30768e-76
2.26281e-76
2.31372e-76
2.26337e-76
2.30854e-76
2.24404e-76
2.32523e-76
2.23823e-76
2.26619e-76
2.27285e-76
2.21742e-76
2.7954e-74
2.7566e-74
2.78759e-74
2.72796e-74
2.75427e-74
2.77432e-74
2.76973e-74
2.69764e-74
2.7247e-74
2.79238e-74
2.73852e-74
2.79926e-74
2.73953e-74
2.7936e-74
2.71593e-74
2.81343e-74
2.7092e-74
2.74272e-74
2.74989e-74
2.68394e-74
2.38708e-72
2.35417e-72
2.38003e-72
2.33023e-72
2.35163e-72
2.36948e-72
2.36535e-72
2.30417e-72
2.32731e-72
2.38478e-72
2.3392e-72
2.39031e-72
2.34032e-72
2.38596e-72
2.31998e-72
2.40255e-72
2.31454e-72
2.34283e-72
2.34817e-72
2.2929e-72
1.38962e-70
1.37064e-70
1.3853e-70
1.35698e-70
1.36881e-70
1.37962e-70
1.37711e-70
1.34173e-70
1.35527e-70
1.38842e-70
1.3622e-70
1.39144e-70
1.36298e-70
1.38919e-70
1.351e-70
1.3986e-70
1.34809e-70
1.36429e-70
1.36691e-70
1.33546e-70
5.42227e-69
5.34924e-69
5.40467e-69
5.29698e-69
5.34061e-69
5.38435e-69
5.37434e-69
5.23734e-69
5.2909e-69
5.41813e-69
5.31764e-69
5.42921e-69
5.32084e-69
5.42143e-69
5.27345e-69
5.45678e-69
5.26368e-69
5.3252e-69
5.33353e-69
5.2147e-69
5.61418e-68
5.54103e-68
5.59588e-68
5.48787e-68
5.53005e-68
5.57664e-68
5.56677e-68
5.42644e-68
5.48414e-68
5.61052e-68
5.51054e-68
5.62167e-68
5.51304e-68
5.61421e-68
5.4629e-68
5.64844e-68
5.45634e-68
5.51636e-68
5.52293e-68
5.40675e-68
3.09802e-68
3.09912e-68
3.1084e-68
3.06166e-68
3.07848e-68
3.09066e-68
3.10933e-68
3.04152e-68
3.12414e-68
3.08843e-68
3.10448e-68
3.11166e-68
3.06931e-68
3.0888e-68
3.02848e-68
3.07606e-68
3.0872e-68
3.05666e-68
3.06282e-68
3.09064e-68
4.9776e-68
5.01333e-68
5.05885e-68
4.9761e-68
4.94585e-68
4.96477e-68
5.01751e-68
4.92188e-68
5.07364e-68
5.03545e-68
5.06367e-68
5.03511e-68
5.01007e-68
4.95565e-68
4.91989e-68
4.96574e-68
4.93064e-68
4.94319e-68
4.9764e-68
4.98991e-68
5.58927e-68
5.62835e-68
5.65556e-68
5.55186e-68
5.55313e-68
5.45889e-68
5.57859e-68
5.49384e-68
5.61133e-68
5.73379e-68
5.67486e-68
5.54813e-68
5.67589e-68
5.59481e-68
5.58562e-68
5.62185e-68
5.40446e-68
5.58656e-68
5.50242e-68
5.51972e-68
6.48818e-68
6.58178e-68
6.5745e-68
6.54567e-68
6.58015e-68
6.6326e-68
6.77442e-68
6.58413e-68
6.59672e-68
6.50879e-68
6.53168e-68
6.54178e-68
6.60559e-68
6.62521e-68
6.50446e-68
6.57854e-68
6.61224e-68
6.52722e-68
6.48959e-68
6.5127e-68
6.90106e-68
6.88043e-68
6.91855e-68
7.05082e-68
6.99719e-68
7.06772e-68
6.94608e-68
7.07968e-68
6.93946e-68
6.76416e-68
6.8204e-68
6.86133e-68
6.88583e-68
6.78017e-68
6.7505e-68
6.82549e-68
6.75854e-68
6.89234e-68
6.82271e-68
6.9588e-68
7.14832e-68
7.13026e-68
7.25813e-68
7.18225e-68
7.12698e-68
7.2529e-68
7.2218e-68
7.33794e-68
7.14887e-68
7.26509e-68
7.22605e-68
7.24264e-68
7.26537e-68
7.26401e-68
7.2017e-68
7.38022e-68
7.19078e-68
7.10769e-68
7.19097e-68
7.18343e-68
6.98327e-68
6.8619e-68
6.88195e-68
6.86266e-68
6.95781e-68
7.00793e-68
7.00325e-68
6.95551e-68
6.8129e-68
6.85528e-68
6.78332e-68
6.98369e-68
6.97855e-68
7.06854e-68
7.04615e-68
7.02902e-68
6.97162e-68
6.98874e-68
6.90636e-68
6.93239e-68
6.53869e-68
6.63287e-68
6.54035e-68
6.76304e-68
6.56389e-68
6.71627e-68
6.59087e-68
6.68768e-68
6.59486e-68
6.63522e-68
6.61432e-68
6.74403e-68
6.61345e-68
6.79916e-68
6.58529e-68
6.6953e-68
6.68715e-68
6.50945e-68
6.71212e-68
6.70814e-68
5.76538e-68
5.97495e-68
5.90997e-68
5.84985e-68
5.79397e-68
6.03482e-68
5.92994e-68
5.95302e-68
5.9062e-68
5.80919e-68
5.88622e-68
5.9971e-68
5.87318e-68
6.09665e-68
5.88024e-68
5.98419e-68
6.01404e-68
5.9215e-68
6.02161e-68
6.03551e-68
5.48512e-68
5.48108e-68
5.47076e-68
5.54833e-68
5.57639e-68
5.57063e-68
5.45762e-68
5.536e-68
5.6314e-68
5.47025e-68
5.58275e-68
5.61037e-68
5.44385e-68
5.64863e-68
5.61767e-68
5.72969e-68
5.55999e-68
5.6434e-68
5.57307e-68
5.70787e-68
3.79519e-68
3.82405e-68
3.81015e-68
3.77651e-68
3.83011e-68
3.81194e-68
3.8367e-68
3.81822e-68
3.82172e-68
3.87466e-68
3.79127e-68
3.88822e-68
3.78997e-68
3.9234e-68
3.7988e-68
3.80252e-68
3.82484e-68
3.89673e-68
3.83455e-68
3.93051e-68
2.8873e-82
2.84658e-82
2.88077e-82
2.81516e-82
2.84623e-82
2.86423e-82
2.86036e-82
2.78468e-82
2.81255e-82
2.88339e-82
2.82634e-82
2.89179e-82
2.82634e-82
2.88399e-82
2.80256e-82
2.90555e-82
2.79466e-82
2.83025e-82
2.84046e-82
2.76883e-82
1.65476e-79
1.63152e-79
1.65074e-79
1.61388e-79
1.63095e-79
1.64179e-79
1.63939e-79
1.59624e-79
1.61219e-79
1.65271e-79
1.62021e-79
1.65727e-79
1.62043e-79
1.65316e-79
1.60671e-79
1.66535e-79
1.60228e-79
1.62255e-79
1.6279e-79
1.5874e-79
4.79306e-77
4.72608e-77
4.78067e-77
4.67605e-77
4.72335e-77
4.75629e-77
4.74883e-77
4.62449e-77