/*--------------------------------*- C++ -*----------------------------------*\
| =========                 |                                                 |
| \\      /  F ield         | OpenFOAM: The Open Source CFD Toolbox           |
|  \\    /   O peration     | Version:  2212                                  |
|   \\  /    A nd           | Website:  www.openfoam.com                      |
|    \\/     M anipulation  |                                                 |
\*---------------------------------------------------------------------------*/
FoamFile
{
    version     2.0;
    format      ascii;
    arch        "LSB;label=32;scalar=64";
    class       volScalarField;
    location    "0.336";
    object      pPrime2Mean;
}
// * * * * * * * * * * * * * * * * * * * * * * * * * * * * * * * * * * * * * //

dimensions      [0 4 -4 0 0 0 0];

internalField   nonuniform List<scalar> 
24240
(
214700
214699
214698
214695
214692
214688
214684
214679
214673
214667
214661
214655
214649
214643
214638
214632
214628
214624
214621
214619
195824
195824
195823
195823
195822
195821
195820
195819
195817
195816
195815
195813
195812
195810
195809
195808
195807
195806
195805
195805
184522
184522
184522
184522
184522
184522
184522
184523
184523
184523
184524
184524
184524
184525
184525
184525
184525
184525
184526
184526
177709
177709
177710
177710
177711
177712
177713
177714
177715
177716
177718
177719
177720
177721
177723
177724
177725
177726
177726
177727
173148
173148
173149
173150
173151
173152
173153
173155
173156
173158
173160
173162
173164
173166
173167
173169
173170
173172
173173
173173
170033
170033
170034
170035
170036
170037
170039
170041
170043
170045
170047
170050
170052
170054
170056
170058
170059
170061
170062
170063
167996
167996
167997
167998
167999
168000
168002
168004
168006
168008
168011
168013
168015
168018
168020
168022
168024
168025
168026
168027
166814
166814
166815
166816
166817
166818
166820
166822
166824
166826
166829
166831
166834
166836
166838
166840
166842
166843
166844
166845
166197
166198
166198
166199
166200
166201
166203
166205
166207
166209
166211
166213
166216
166218
166220
166222
166223
166225
166226
166227
166406
166406
166406
166407
166408
166410
166411
166413
166415
166417
166419
166421
166423
166425
166427
166428
166430
166431
166432
166433
167256
167256
167257
167257
167258
167260
167261
167262
167264
167266
167268
167270
167272
167273
167275
167277
167278
167280
167280
167281
168770
168770
168771
168771
168772
168773
168774
168775
168777
168778
168780
168782
168784
168785
168787
168788
168790
168791
168792
168792
171006
171006
171006
171007
171007
171008
171009
171010
171011
171013
171014
171015
171017
171018
171020
171021
171022
171023
171024
171024
174066
174067
174067
174067
174068
174068
174069
174070
174070
174071
174072
174074
174075
174076
174077
174078
174079
174080
174080
174081
178131
178131
178131
178132
178132
178132
178132
178133
178133
178134
178134
178135
178136
178137
178137
178138
178139
178139
178140
178140
183504
183504
183504
183504
183504
183504
183504
183504
183504
183504
183504
183504
183504
183504
183504
183505
183505
183505
183505
183506
190748
190748
190748
190748
190747
190746
190746
190745
190744
190743
190742
190742
190741
190740
190740
190739
190739
190739
190739
190739
201064
201063
201063
201062
201061
201059
201058
201056
201054
201052
201050
201048
201046
201044
201042
201041
201039
201038
201037
201037
217855
217855
217853
217852
217850
217847
217844
217841
217837
217833
217829
217824
217820
217816
217812
217809
217806
217803
217801
217801
242101
242100
242098
242094
242090
242085
242078
242071
242063
242054
242045
242035
242026
242016
242007
241998
241991
241984
241979
241976
1.81511e+06
1.81511e+06
1.8151e+06
1.81508e+06
1.81507e+06
1.81504e+06
1.81502e+06
1.81499e+06
1.81496e+06
1.81492e+06
1.81489e+06
1.81485e+06
1.81482e+06
1.81478e+06
1.81475e+06
1.81472e+06
1.8147e+06
1.81467e+06
1.81466e+06
1.81464e+06
1.72493e+06
1.72493e+06
1.72492e+06
1.72492e+06
1.72491e+06
1.72491e+06
1.7249e+06
1.72489e+06
1.72487e+06
1.72486e+06
1.72485e+06
1.72484e+06
1.72483e+06
1.72481e+06
1.7248e+06
1.72479e+06
1.72478e+06
1.72477e+06
1.72477e+06
1.72476e+06
1.64337e+06
1.64337e+06
1.64337e+06
1.64337e+06
1.64337e+06
1.64337e+06
1.64337e+06
1.64337e+06
1.64337e+06
1.64337e+06
1.64337e+06
1.64337e+06
1.64336e+06
1.64336e+06
1.64336e+06
1.64336e+06
1.64336e+06
1.64336e+06
1.64336e+06
1.64336e+06
1.58816e+06
1.58816e+06
1.58817e+06
1.58817e+06
1.58817e+06
1.58818e+06
1.58818e+06
1.58819e+06
1.5882e+06
1.5882e+06
1.58821e+06
1.58822e+06
1.58823e+06
1.58823e+06
1.58824e+06
1.58825e+06
1.58825e+06
1.58826e+06
1.58826e+06
1.58826e+06
1.54966e+06
1.54966e+06
1.54966e+06
1.54967e+06
1.54967e+06
1.54968e+06
1.54969e+06
1.5497e+06
1.54971e+06
1.54972e+06
1.54974e+06
1.54975e+06
1.54976e+06
1.54977e+06
1.54978e+06
1.54979e+06
1.5498e+06
1.54981e+06
1.54982e+06
1.54982e+06
1.52291e+06
1.52291e+06
1.52292e+06
1.52292e+06
1.52293e+06
1.52294e+06
1.52295e+06
1.52297e+06
1.52298e+06
1.523e+06
1.52301e+06
1.52303e+06
1.52304e+06
1.52306e+06
1.52307e+06
1.52308e+06
1.52309e+06
1.5231e+06
1.52311e+06
1.52311e+06
1.50514e+06
1.50514e+06
1.50515e+06
1.50515e+06
1.50516e+06
1.50517e+06
1.50518e+06
1.5052e+06
1.50521e+06
1.50523e+06
1.50525e+06
1.50526e+06
1.50528e+06
1.5053e+06
1.50531e+06
1.50533e+06
1.50534e+06
1.50535e+06
1.50536e+06
1.50536e+06
1.49495e+06
1.49495e+06
1.49496e+06
1.49496e+06
1.49497e+06
1.49498e+06
1.495e+06
1.49501e+06
1.49503e+06
1.49504e+06
1.49506e+06
1.49508e+06
1.49509e+06
1.49511e+06
1.49513e+06
1.49514e+06
1.49515e+06
1.49516e+06
1.49517e+06
1.49518e+06
1.49049e+06
1.49049e+06
1.4905e+06
1.4905e+06
1.49051e+06
1.49052e+06
1.49053e+06
1.49055e+06
1.49056e+06
1.49058e+06
1.49059e+06
1.49061e+06
1.49063e+06
1.49064e+06
1.49066e+06
1.49067e+06
1.49068e+06
1.49069e+06
1.4907e+06
1.4907e+06
1.49221e+06
1.49221e+06
1.49221e+06
1.49222e+06
1.49222e+06
1.49223e+06
1.49225e+06
1.49226e+06
1.49227e+06
1.49229e+06
1.4923e+06
1.49232e+06
1.49233e+06
1.49235e+06
1.49236e+06
1.49237e+06
1.49239e+06
1.49239e+06
1.4924e+06
1.49241e+06
1.49959e+06
1.49959e+06
1.49959e+06
1.4996e+06
1.4996e+06
1.49961e+06
1.49962e+06
1.49963e+06
1.49965e+06
1.49966e+06
1.49967e+06
1.49969e+06
1.4997e+06
1.49972e+06
1.49973e+06
1.49974e+06
1.49975e+06
1.49976e+06
1.49977e+06
1.49977e+06
1.51278e+06
1.51278e+06
1.51279e+06
1.51279e+06
1.5128e+06
1.5128e+06
1.51281e+06
1.51282e+06
1.51283e+06
1.51285e+06
1.51286e+06
1.51287e+06
1.51288e+06
1.51289e+06
1.51291e+06
1.51292e+06
1.51293e+06
1.51293e+06
1.51294e+06
1.51294e+06
1.53226e+06
1.53226e+06
1.53226e+06
1.53227e+06
1.53227e+06
1.53228e+06
1.53228e+06
1.53229e+06
1.5323e+06
1.53231e+06
1.53232e+06
1.53233e+06
1.53234e+06
1.53235e+06
1.53236e+06
1.53237e+06
1.53238e+06
1.53239e+06
1.53239e+06
1.53239e+06
1.55887e+06
1.55887e+06
1.55887e+06
1.55887e+06
1.55887e+06
1.55888e+06
1.55888e+06
1.55889e+06
1.55889e+06
1.5589e+06
1.55891e+06
1.55892e+06
1.55892e+06
1.55893e+06
1.55894e+06
1.55895e+06
1.55895e+06
1.55896e+06
1.55896e+06
1.55896e+06
1.59404e+06
1.59404e+06
1.59404e+06
1.59404e+06
1.59405e+06
1.59405e+06
1.59405e+06
1.59405e+06
1.59405e+06
1.59406e+06
1.59406e+06
1.59406e+06
1.59407e+06
1.59407e+06
1.59408e+06
1.59408e+06
1.59409e+06
1.59409e+06
1.59409e+06
1.59409e+06
1.64012e+06
1.64012e+06
1.64012e+06
1.64012e+06
1.64012e+06
1.64012e+06
1.64012e+06
1.64011e+06
1.64011e+06
1.64011e+06
1.64011e+06
1.64011e+06
1.64011e+06
1.64011e+06
1.64011e+06
1.64011e+06
1.64011e+06
1.64011e+06
1.64011e+06
1.64011e+06
1.70108e+06
1.70108e+06
1.70108e+06
1.70107e+06
1.70107e+06
1.70106e+06
1.70106e+06
1.70105e+06
1.70104e+06
1.70103e+06
1.70102e+06
1.70102e+06
1.70101e+06
1.701e+06
1.70099e+06
1.70099e+06
1.70098e+06
1.70098e+06
1.70098e+06
1.70098e+06
1.78398e+06
1.78398e+06
1.78398e+06
1.78397e+06
1.78396e+06
1.78395e+06
1.78393e+06
1.78392e+06
1.7839e+06
1.78388e+06
1.78386e+06
1.78384e+06
1.78382e+06
1.78381e+06
1.78379e+06
1.78378e+06
1.78376e+06
1.78375e+06
1.78375e+06
1.78374e+06
1.90259e+06
1.90259e+06
1.90258e+06
1.90257e+06
1.90255e+06
1.90253e+06
1.9025e+06
1.90247e+06
1.90244e+06
1.90241e+06
1.90238e+06
1.90234e+06
1.90231e+06
1.90227e+06
1.90224e+06
1.90221e+06
1.90218e+06
1.90216e+06
1.90215e+06
1.90214e+06
2.02038e+06
2.02037e+06
2.02035e+06
2.02033e+06
2.0203e+06
2.02027e+06
2.02023e+06
2.02018e+06
2.02012e+06
2.02007e+06
2.02001e+06
2.01995e+06
2.01989e+06
2.01983e+06
2.01977e+06
2.01971e+06
2.01966e+06
2.01962e+06
2.01959e+06
2.01957e+06
4.84114e+06
4.84113e+06
4.84111e+06
4.84108e+06
4.84105e+06
4.841e+06
4.84095e+06
4.84089e+06
4.84082e+06
4.84076e+06
4.84069e+06
4.84062e+06
4.84055e+06
4.84048e+06
4.84042e+06
4.84036e+06
4.84031e+06
4.84026e+06
4.84022e+06
4.8402e+06
4.66802e+06
4.66802e+06
4.66801e+06
4.668e+06
4.66798e+06
4.66796e+06
4.66794e+06
4.66792e+06
4.66789e+06
4.66787e+06
4.66784e+06
4.66781e+06
4.66778e+06
4.66776e+06
4.66773e+06
4.6677e+06
4.66768e+06
4.66767e+06
4.66765e+06
4.66764e+06
4.49463e+06
4.49463e+06
4.49463e+06
4.49463e+06
4.49463e+06
4.49463e+06
4.49463e+06
4.49462e+06
4.49462e+06
4.49462e+06
4.49462e+06
4.49461e+06
4.49461e+06
4.49461e+06
4.4946e+06
4.4946e+06
4.4946e+06
4.4946e+06
4.4946e+06
4.4946e+06
4.367e+06
4.367e+06
4.367e+06
4.36701e+06
4.36702e+06
4.36703e+06
4.36704e+06
4.36705e+06
4.36707e+06
4.36708e+06
4.3671e+06
4.36711e+06
4.36713e+06
4.36714e+06
4.36715e+06
4.36716e+06
4.36717e+06
4.36718e+06
4.36719e+06
4.3672e+06
4.27359e+06
4.27359e+06
4.2736e+06
4.27361e+06
4.27363e+06
4.27364e+06
4.27366e+06
4.27369e+06
4.27371e+06
4.27374e+06
4.27376e+06
4.27379e+06
4.27382e+06
4.27384e+06
4.27386e+06
4.27389e+06
4.27391e+06
4.27392e+06
4.27393e+06
4.27394e+06
4.20698e+06
4.20698e+06
4.20699e+06
4.20701e+06
4.20703e+06
4.20705e+06
4.20707e+06
4.2071e+06
4.20713e+06
4.20717e+06
4.2072e+06
4.20723e+06
4.20727e+06
4.2073e+06
4.20733e+06
4.20736e+06
4.20738e+06
4.2074e+06
4.20742e+06
4.20743e+06
4.16154e+06
4.16154e+06
4.16155e+06
4.16157e+06
4.16159e+06
4.16161e+06
4.16164e+06
4.16168e+06
4.16171e+06
4.16175e+06
4.16179e+06
4.16183e+06
4.16186e+06
4.1619e+06
4.16193e+06
4.16197e+06
4.16199e+06
4.16202e+06
4.16204e+06
4.16204e+06
4.13568e+06
4.13568e+06
4.13569e+06
4.13571e+06
4.13573e+06
4.13575e+06
4.13578e+06
4.13582e+06
4.13585e+06
4.13589e+06
4.13593e+06
4.13597e+06
4.13601e+06
4.13604e+06
4.13608e+06
4.13611e+06
4.13614e+06
4.13616e+06
4.13618e+06
4.13619e+06
4.12484e+06
4.12485e+06
4.12486e+06
4.12487e+06
4.12489e+06
4.12491e+06
4.12494e+06
4.12497e+06
4.12501e+06
4.12504e+06
4.12508e+06
4.12512e+06
4.12516e+06
4.12519e+06
4.12523e+06
4.12526e+06
4.12529e+06
4.12531e+06
4.12532e+06
4.12533e+06
4.1295e+06
4.12951e+06
4.12951e+06
4.12953e+06
4.12955e+06
4.12957e+06
4.1296e+06
4.12963e+06
4.12966e+06
4.12969e+06
4.12973e+06
4.12976e+06
4.1298e+06
4.12983e+06
4.12986e+06
4.12989e+06
4.12992e+06
4.12994e+06
4.12996e+06
4.12997e+06
4.14903e+06
4.14903e+06
4.14904e+06
4.14905e+06
4.14907e+06
4.14909e+06
4.14911e+06
4.14914e+06
4.14917e+06
4.1492e+06
4.14923e+06
4.14926e+06
4.14929e+06
4.14933e+06
4.14935e+06
4.14938e+06
4.14941e+06
4.14943e+06
4.14944e+06
4.14945e+06
4.18375e+06
4.18375e+06
4.18376e+06
4.18377e+06
4.18378e+06
4.1838e+06
4.18382e+06
4.18384e+06
4.18387e+06
4.1839e+06
4.18392e+06
4.18395e+06
4.18398e+06
4.18401e+06
4.18403e+06
4.18406e+06
4.18408e+06
4.1841e+06
4.18411e+06
4.18412e+06
4.23472e+06
4.23473e+06
4.23473e+06
4.23474e+06
4.23475e+06
4.23477e+06
4.23478e+06
4.2348e+06
4.23482e+06
4.23484e+06
4.23486e+06
4.23489e+06
4.23491e+06
4.23493e+06
4.23495e+06
4.23498e+06
4.23499e+06
4.23501e+06
4.23502e+06
4.23503e+06
4.30382e+06
4.30382e+06
4.30382e+06
4.30383e+06
4.30384e+06
4.30385e+06
4.30386e+06
4.30387e+06
4.30388e+06
4.3039e+06
4.30391e+06
4.30393e+06
4.30395e+06
4.30396e+06
4.30398e+06
4.30399e+06
4.30401e+06
4.30402e+06
4.30403e+06
4.30403e+06
4.39409e+06
4.39409e+06
4.39409e+06
4.39409e+06
4.39409e+06
4.39409e+06
4.3941e+06
4.3941e+06
4.39411e+06
4.39411e+06
4.39412e+06
4.39413e+06
4.39414e+06
4.39414e+06
4.39415e+06
4.39416e+06
4.39417e+06
4.39417e+06
4.39418e+06
4.39418e+06
4.51011e+06
4.51011e+06
4.51011e+06
4.5101e+06
4.5101e+06
4.5101e+06
4.51009e+06
4.51008e+06
4.51008e+06
4.51007e+06
4.51007e+06
4.51006e+06
4.51006e+06
4.51005e+06
4.51005e+06
4.51005e+06
4.51005e+06
4.51005e+06
4.51005e+06
4.51005e+06
4.65896e+06
4.65896e+06
4.65895e+06
4.65894e+06
4.65893e+06
4.65892e+06
4.6589e+06
4.65888e+06
4.65886e+06
4.65883e+06
4.65881e+06
4.65879e+06
4.65877e+06
4.65875e+06
4.65873e+06
4.65871e+06
4.6587e+06
4.65869e+06
4.65868e+06
4.65868e+06
4.8512e+06
4.8512e+06
4.85119e+06
4.85117e+06
4.85114e+06
4.85111e+06
4.85108e+06
4.85104e+06
4.85099e+06
4.85095e+06
4.8509e+06
4.85086e+06
4.85081e+06
4.85077e+06
4.85073e+06
4.85069e+06
4.85066e+06
4.85063e+06
4.85061e+06
4.85061e+06
5.10275e+06
5.10274e+06
5.10271e+06
5.10268e+06
5.10264e+06
5.10259e+06
5.10253e+06
5.10246e+06
5.10239e+06
5.10232e+06
5.10224e+06
5.10216e+06
5.10207e+06
5.102e+06
5.10192e+06
5.10185e+06
5.10179e+06
5.10174e+06
5.10171e+06
5.10169e+06
5.33498e+06
5.33497e+06
5.33494e+06
5.33489e+06
5.33482e+06
5.33474e+06
5.33465e+06
5.33455e+06
5.33443e+06
5.33431e+06
5.33418e+06
5.33405e+06
5.33392e+06
5.33379e+06
5.33367e+06
5.33355e+06
5.33345e+06
5.33336e+06
5.33329e+06
5.33325e+06
9.19263e+06
9.19262e+06
9.19259e+06
9.19254e+06
9.19249e+06
9.19242e+06
9.19234e+06
9.19225e+06
9.19216e+06
9.19206e+06
9.19196e+06
9.19185e+06
9.19175e+06
9.19166e+06
9.19156e+06
9.19148e+06
9.1914e+06
9.19133e+06
9.19128e+06
9.19125e+06
8.93559e+06
8.93558e+06
8.93557e+06
8.93555e+06
8.93553e+06
8.9355e+06
8.93547e+06
8.93543e+06
8.93539e+06
8.93535e+06
8.9353e+06
8.93526e+06
8.93521e+06
8.93517e+06
8.93513e+06
8.93509e+06
8.93506e+06
8.93503e+06
8.93501e+06
8.935e+06
8.66656e+06
8.66656e+06
8.66656e+06
8.66655e+06
8.66655e+06
8.66655e+06
8.66654e+06
8.66654e+06
8.66653e+06
8.66653e+06
8.66652e+06
8.66652e+06
8.66651e+06
8.6665e+06
8.6665e+06
8.66649e+06
8.66649e+06
8.66648e+06
8.66648e+06
8.66648e+06
8.45864e+06
8.45864e+06
8.45865e+06
8.45866e+06
8.45867e+06
8.45869e+06
8.4587e+06
8.45872e+06
8.45874e+06
8.45877e+06
8.45879e+06
8.45881e+06
8.45883e+06
8.45885e+06
8.45887e+06
8.45889e+06
8.4589e+06
8.45892e+06
8.45893e+06
8.45893e+06
8.3011e+06
8.3011e+06
8.30112e+06
8.30113e+06
8.30116e+06
8.30119e+06
8.30122e+06
8.30125e+06
8.30129e+06
8.30133e+06
8.30137e+06
8.30141e+06
8.30145e+06
8.30149e+06
8.30153e+06
8.30156e+06
8.30159e+06
8.30162e+06
8.30164e+06
8.30165e+06
8.18581e+06
8.18582e+06
8.18584e+06
8.18586e+06
8.18589e+06
8.18593e+06
8.18597e+06
8.18602e+06
8.18607e+06
8.18612e+06
8.18617e+06
8.18623e+06
8.18628e+06
8.18633e+06
8.18638e+06
8.18643e+06
8.18646e+06
8.1865e+06
8.18652e+06
8.18654e+06
8.10746e+06
8.10747e+06
8.10749e+06
8.10752e+06
8.10755e+06
8.10759e+06
8.10764e+06
8.10769e+06
8.10774e+06
8.1078e+06
8.10786e+06
8.10792e+06
8.10798e+06
8.10804e+06
8.1081e+06
8.10815e+06
8.10819e+06
8.10823e+06
8.10825e+06
8.10827e+06
8.06188e+06
8.06189e+06
8.06191e+06
8.06194e+06
8.06197e+06
8.06201e+06
8.06206e+06
8.06211e+06
8.06217e+06
8.06223e+06
8.06229e+06
8.06235e+06
8.06242e+06
8.06248e+06
8.06253e+06
8.06258e+06
8.06263e+06
8.06266e+06
8.06269e+06
8.06271e+06
8.04358e+06
8.04359e+06
8.0436e+06
8.04363e+06
8.04366e+06
8.0437e+06
8.04375e+06
8.0438e+06
8.04386e+06
8.04391e+06
8.04397e+06
8.04404e+06
8.0441e+06
8.04415e+06
8.04421e+06
8.04426e+06
8.0443e+06
8.04434e+06
8.04436e+06
8.04438e+06
8.05281e+06
8.05282e+06
8.05283e+06
8.05285e+06
8.05289e+06
8.05292e+06
8.05297e+06
8.05302e+06
8.05307e+06
8.05312e+06
8.05318e+06
8.05324e+06
8.05329e+06
8.05335e+06
8.0534e+06
8.05345e+06
8.05349e+06
8.05352e+06
8.05355e+06
8.05356e+06
8.08904e+06
8.08905e+06
8.08906e+06
8.08909e+06
8.08911e+06
8.08915e+06
8.08919e+06
8.08923e+06
8.08928e+06
8.08933e+06
8.08938e+06
8.08943e+06
8.08949e+06
8.08954e+06
8.08958e+06
8.08963e+06
8.08967e+06
8.0897e+06
8.08972e+06
8.08973e+06
8.15281e+06
8.15281e+06
8.15283e+06
8.15284e+06
8.15287e+06
8.1529e+06
8.15293e+06
8.15297e+06
8.15301e+06
8.15305e+06
8.1531e+06
8.15315e+06
8.15319e+06
8.15323e+06
8.15328e+06
8.15331e+06
8.15335e+06
8.15338e+06
8.1534e+06
8.15341e+06
8.24569e+06
8.24569e+06
8.2457e+06
8.24572e+06
8.24574e+06
8.24576e+06
8.24579e+06
8.24582e+06
8.24585e+06
8.24588e+06
8.24592e+06
8.24596e+06
8.24599e+06
8.24603e+06
8.24606e+06
8.24609e+06
8.24612e+06
8.24615e+06
8.24616e+06
8.24617e+06
8.37041e+06
8.37042e+06
8.37042e+06
8.37043e+06
8.37044e+06
8.37046e+06
8.37048e+06
8.3705e+06
8.37052e+06
8.37054e+06
8.37057e+06
8.37059e+06
8.37062e+06
8.37064e+06
8.37066e+06
8.37069e+06
8.37071e+06
8.37072e+06
8.37074e+06
8.37074e+06
8.53126e+06
8.53127e+06
8.53127e+06
8.53127e+06
8.53127e+06
8.53128e+06
8.53128e+06
8.53129e+06
8.5313e+06
8.53131e+06
8.53132e+06
8.53133e+06
8.53134e+06
8.53135e+06
8.53136e+06
8.53137e+06
8.53138e+06
8.53139e+06
8.53139e+06
8.5314e+06
8.73424e+06
8.73424e+06
8.73424e+06
8.73423e+06
8.73423e+06
8.73422e+06
8.73421e+06
8.7342e+06
8.73418e+06
8.73417e+06
8.73416e+06
8.73415e+06
8.73414e+06
8.73413e+06
8.73412e+06
8.73412e+06
8.73411e+06
8.73411e+06
8.73411e+06
8.73411e+06
8.98788e+06
8.98788e+06
8.98787e+06
8.98785e+06
8.98783e+06
8.9878e+06
8.98777e+06
8.98774e+06
8.9877e+06
8.98766e+06
8.98762e+06
8.98758e+06
8.98755e+06
8.98751e+06
8.98748e+06
8.98745e+06
8.98742e+06
8.9874e+06
8.98739e+06
8.98738e+06
9.30337e+06
9.30336e+06
9.30334e+06
9.30331e+06
9.30327e+06
9.30321e+06
9.30316e+06
9.30309e+06
9.30302e+06
9.30294e+06
9.30287e+06
9.30279e+06
9.30271e+06
9.30264e+06
9.30257e+06
9.30251e+06
9.30246e+06
9.30241e+06
9.30238e+06
9.30236e+06
9.69529e+06
9.69527e+06
9.69524e+06
9.69519e+06
9.69512e+06
9.69503e+06
9.69494e+06
9.69483e+06
9.69471e+06
9.69459e+06
9.69446e+06
9.69433e+06
9.6942e+06
9.69407e+06
9.69396e+06
9.69385e+06
9.69375e+06
9.69367e+06
9.69361e+06
9.69358e+06
1.0047e+07
1.0047e+07
1.00469e+07
1.00469e+07
1.00468e+07
1.00466e+07
1.00465e+07
1.00463e+07
1.00461e+07
1.00459e+07
1.00457e+07
1.00455e+07
1.00453e+07
1.00451e+07
1.0045e+07
1.00448e+07
1.00446e+07
1.00445e+07
1.00444e+07
1.00443e+07
1.4799e+07
1.4799e+07
1.4799e+07
1.47989e+07
1.47989e+07
1.47988e+07
1.47987e+07
1.47986e+07
1.47984e+07
1.47983e+07
1.47982e+07
1.47981e+07
1.47979e+07
1.47978e+07
1.47977e+07
1.47976e+07
1.47975e+07
1.47974e+07
1.47973e+07
1.47973e+07
1.44599e+07
1.44599e+07
1.44599e+07
1.44599e+07
1.44599e+07
1.44598e+07
1.44598e+07
1.44597e+07
1.44597e+07
1.44596e+07
1.44596e+07
1.44595e+07
1.44594e+07
1.44594e+07
1.44593e+07
1.44593e+07
1.44592e+07
1.44592e+07
1.44592e+07
1.44592e+07
1.40967e+07
1.40967e+07
1.40967e+07
1.40967e+07
1.40967e+07
1.40967e+07
1.40967e+07
1.40966e+07
1.40966e+07
1.40966e+07
1.40966e+07
1.40966e+07
1.40966e+07
1.40966e+07
1.40966e+07
1.40966e+07
1.40966e+07
1.40966e+07
1.40966e+07
1.40966e+07
1.38078e+07
1.38078e+07
1.38078e+07
1.38078e+07
1.38079e+07
1.38079e+07
1.38079e+07
1.38079e+07
1.38079e+07
1.3808e+07
1.3808e+07
1.3808e+07
1.38081e+07
1.38081e+07
1.38081e+07
1.38081e+07
1.38081e+07
1.38082e+07
1.38082e+07
1.38082e+07
1.35833e+07
1.35833e+07
1.35834e+07
1.35834e+07
1.35834e+07
1.35835e+07
1.35835e+07
1.35836e+07
1.35836e+07
1.35837e+07
1.35837e+07
1.35838e+07
1.35838e+07
1.35839e+07
1.35839e+07
1.3584e+07
1.3584e+07
1.35841e+07
1.35841e+07
1.35841e+07
1.34176e+07
1.34176e+07
1.34176e+07
1.34176e+07
1.34177e+07
1.34177e+07
1.34178e+07
1.34178e+07
1.34179e+07
1.3418e+07
1.3418e+07
1.34181e+07
1.34182e+07
1.34182e+07
1.34183e+07
1.34184e+07
1.34184e+07
1.34185e+07
1.34185e+07
1.34185e+07
1.33038e+07
1.33038e+07
1.33038e+07
1.33039e+07
1.33039e+07
1.3304e+07
1.3304e+07
1.33041e+07
1.33042e+07
1.33042e+07
1.33043e+07
1.33044e+07
1.33045e+07
1.33046e+07
1.33046e+07
1.33047e+07
1.33048e+07
1.33048e+07
1.33048e+07
1.33049e+07
1.32376e+07
1.32376e+07
1.32376e+07
1.32376e+07
1.32377e+07
1.32377e+07
1.32378e+07
1.32379e+07
1.3238e+07
1.3238e+07
1.32381e+07
1.32382e+07
1.32383e+07
1.32384e+07
1.32384e+07
1.32385e+07
1.32386e+07
1.32386e+07
1.32387e+07
1.32387e+07
1.32122e+07
1.32123e+07
1.32123e+07
1.32123e+07
1.32124e+07
1.32124e+07
1.32125e+07
1.32125e+07
1.32126e+07
1.32127e+07
1.32128e+07
1.32129e+07
1.32129e+07
1.3213e+07
1.32131e+07
1.32132e+07
1.32132e+07
1.32133e+07
1.32133e+07
1.32133e+07
1.32279e+07
1.32279e+07
1.3228e+07
1.3228e+07
1.3228e+07
1.32281e+07
1.32281e+07
1.32282e+07
1.32283e+07
1.32284e+07
1.32284e+07
1.32285e+07
1.32286e+07
1.32287e+07
1.32287e+07
1.32288e+07
1.32288e+07
1.32289e+07
1.32289e+07
1.32289e+07
1.32845e+07
1.32845e+07
1.32845e+07
1.32845e+07
1.32846e+07
1.32846e+07
1.32847e+07
1.32847e+07
1.32848e+07
1.32849e+07
1.3285e+07
1.3285e+07
1.32851e+07
1.32852e+07
1.32852e+07
1.32853e+07
1.32853e+07
1.32854e+07
1.32854e+07
1.32854e+07
1.33826e+07
1.33826e+07
1.33827e+07
1.33827e+07
1.33827e+07
1.33828e+07
1.33828e+07
1.33828e+07
1.33829e+07
1.3383e+07
1.3383e+07
1.33831e+07
1.33832e+07
1.33832e+07
1.33833e+07
1.33833e+07
1.33834e+07
1.33834e+07
1.33834e+07
1.33834e+07
1.35243e+07
1.35243e+07
1.35243e+07
1.35243e+07
1.35244e+07
1.35244e+07
1.35244e+07
1.35245e+07
1.35245e+07
1.35246e+07
1.35246e+07
1.35247e+07
1.35247e+07
1.35248e+07
1.35248e+07
1.35248e+07
1.35249e+07
1.35249e+07
1.35249e+07
1.35249e+07
1.37127e+07
1.37127e+07
1.37128e+07
1.37128e+07
1.37128e+07
1.37128e+07
1.37128e+07
1.37129e+07
1.37129e+07
1.37129e+07
1.3713e+07
1.3713e+07
1.3713e+07
1.37131e+07
1.37131e+07
1.37131e+07
1.37131e+07
1.37131e+07
1.37132e+07
1.37132e+07
1.39529e+07
1.39529e+07
1.39529e+07
1.39529e+07
1.39529e+07
1.39529e+07
1.39529e+07
1.39529e+07
1.39529e+07
1.3953e+07
1.3953e+07
1.3953e+07
1.3953e+07
1.3953e+07
1.3953e+07
1.3953e+07
1.3953e+07
1.3953e+07
1.3953e+07
1.3953e+07
1.42512e+07
1.42512e+07
1.42512e+07
1.42512e+07
1.42512e+07
1.42512e+07
1.42512e+07
1.42512e+07
1.42512e+07
1.42511e+07
1.42511e+07
1.42511e+07
1.42511e+07
1.42511e+07
1.42511e+07
1.42511e+07
1.4251e+07
1.4251e+07
1.4251e+07
1.4251e+07
1.46165e+07
1.46165e+07
1.46165e+07
1.46165e+07
1.46165e+07
1.46164e+07
1.46164e+07
1.46163e+07
1.46163e+07
1.46162e+07
1.46162e+07
1.46161e+07
1.46161e+07
1.4616e+07
1.4616e+07
1.46159e+07
1.46159e+07
1.46159e+07
1.46158e+07
1.46158e+07
1.50592e+07
1.50591e+07
1.50591e+07
1.50591e+07
1.5059e+07
1.50589e+07
1.50589e+07
1.50588e+07
1.50587e+07
1.50586e+07
1.50585e+07
1.50584e+07
1.50582e+07
1.50581e+07
1.50581e+07
1.5058e+07
1.50579e+07
1.50578e+07
1.50578e+07
1.50578e+07
1.55917e+07
1.55917e+07
1.55916e+07
1.55916e+07
1.55915e+07
1.55914e+07
1.55912e+07
1.55911e+07
1.55909e+07
1.55908e+07
1.55906e+07
1.55904e+07
1.55902e+07
1.55901e+07
1.55899e+07
1.55898e+07
1.55896e+07
1.55895e+07
1.55895e+07
1.55894e+07
1.60625e+07
1.60625e+07
1.60624e+07
1.60623e+07
1.60622e+07
1.6062e+07
1.60618e+07
1.60616e+07
1.60613e+07
1.60611e+07
1.60608e+07
1.60606e+07
1.60603e+07
1.606e+07
1.60598e+07
1.60596e+07
1.60594e+07
1.60592e+07
1.60591e+07
1.60591e+07
2.16032e+07
2.16032e+07
2.16031e+07
2.16031e+07
2.1603e+07
2.16029e+07
2.16028e+07
2.16026e+07
2.16025e+07
2.16024e+07
2.16022e+07
2.16021e+07
2.16019e+07
2.16018e+07
2.16016e+07
2.16015e+07
2.16014e+07
2.16013e+07
2.16012e+07
2.16012e+07
2.11846e+07
2.11846e+07
2.11846e+07
2.11846e+07
2.11845e+07
2.11845e+07
2.11844e+07
2.11844e+07
2.11843e+07
2.11843e+07
2.11842e+07
2.11841e+07
2.11841e+07
2.1184e+07
2.11839e+07
2.11839e+07
2.11838e+07
2.11838e+07
2.11838e+07
2.11837e+07
2.07299e+07
2.07299e+07
2.07299e+07
2.07299e+07
2.07299e+07
2.07299e+07
2.07299e+07
2.07299e+07
2.07299e+07
2.07299e+07
2.07299e+07
2.07299e+07
2.07299e+07
2.07299e+07
2.07298e+07
2.07298e+07
2.07298e+07
2.07298e+07
2.07298e+07
2.07298e+07
2.03618e+07
2.03618e+07
2.03618e+07
2.03618e+07
2.03618e+07
2.03619e+07
2.03619e+07
2.03619e+07
2.0362e+07
2.0362e+07
2.0362e+07
2.03621e+07
2.03621e+07
2.03621e+07
2.03622e+07
2.03622e+07
2.03622e+07
2.03622e+07
2.03623e+07
2.03623e+07
2.00728e+07
2.00728e+07
2.00728e+07
2.00729e+07
2.00729e+07
2.00729e+07
2.0073e+07
2.00731e+07
2.00731e+07
2.00732e+07
2.00733e+07
2.00733e+07
2.00734e+07
2.00734e+07
2.00735e+07
2.00736e+07
2.00736e+07
2.00736e+07
2.00737e+07
2.00737e+07
1.98567e+07
1.98568e+07
1.98568e+07
1.98568e+07
1.98569e+07
1.98569e+07
1.9857e+07
1.98571e+07
1.98572e+07
1.98572e+07
1.98573e+07
1.98574e+07
1.98575e+07
1.98576e+07
1.98576e+07
1.98577e+07
1.98578e+07
1.98578e+07
1.98579e+07
1.98579e+07
1.97079e+07
1.97079e+07
1.97079e+07
1.9708e+07
1.9708e+07
1.97081e+07
1.97082e+07
1.97083e+07
1.97084e+07
1.97085e+07
1.97086e+07
1.97086e+07
1.97087e+07
1.97088e+07
1.97089e+07
1.9709e+07
1.97091e+07
1.97091e+07
1.97091e+07
1.97092e+07
1.9622e+07
1.9622e+07
1.9622e+07
1.96221e+07
1.96221e+07
1.96222e+07
1.96223e+07
1.96224e+07
1.96225e+07
1.96226e+07
1.96227e+07
1.96228e+07
1.96229e+07
1.96229e+07
1.9623e+07
1.96231e+07
1.96232e+07
1.96232e+07
1.96233e+07
1.96233e+07
1.95911e+07
1.95911e+07
1.95912e+07
1.95912e+07
1.95913e+07
1.95913e+07
1.95914e+07
1.95915e+07
1.95916e+07
1.95917e+07
1.95918e+07
1.95919e+07
1.9592e+07
1.95921e+07
1.95921e+07
1.95922e+07
1.95923e+07
1.95923e+07
1.95924e+07
1.95924e+07
1.96152e+07
1.96153e+07
1.96153e+07
1.96153e+07
1.96154e+07
1.96154e+07
1.96155e+07
1.96156e+07
1.96157e+07
1.96158e+07
1.96159e+07
1.9616e+07
1.96161e+07
1.96162e+07
1.96162e+07
1.96163e+07
1.96164e+07
1.96164e+07
1.96164e+07
1.96165e+07
1.9695e+07
1.9695e+07
1.9695e+07
1.9695e+07
1.96951e+07
1.96952e+07
1.96952e+07
1.96953e+07
1.96954e+07
1.96955e+07
1.96955e+07
1.96956e+07
1.96957e+07
1.96958e+07
1.96959e+07
1.96959e+07
1.9696e+07
1.9696e+07
1.96961e+07
1.96961e+07
1.98311e+07
1.98311e+07
1.98311e+07
1.98311e+07
1.98312e+07
1.98312e+07
1.98313e+07
1.98314e+07
1.98314e+07
1.98315e+07
1.98316e+07
1.98316e+07
1.98317e+07
1.98318e+07
1.98318e+07
1.98319e+07
1.98319e+07
1.9832e+07
1.9832e+07
1.9832e+07
2.00257e+07
2.00257e+07
2.00257e+07
2.00258e+07
2.00258e+07
2.00258e+07
2.00259e+07
2.00259e+07
2.0026e+07
2.0026e+07
2.00261e+07
2.00262e+07
2.00262e+07
2.00263e+07
2.00263e+07
2.00264e+07
2.00264e+07
2.00264e+07
2.00264e+07
2.00264e+07
2.02823e+07
2.02823e+07
2.02823e+07
2.02823e+07
2.02823e+07
2.02824e+07
2.02824e+07
2.02824e+07
2.02825e+07
2.02825e+07
2.02826e+07
2.02826e+07
2.02826e+07
2.02827e+07
2.02827e+07
2.02827e+07
2.02827e+07
2.02828e+07
2.02828e+07
2.02828e+07
2.06059e+07
2.06059e+07
2.06059e+07
2.06059e+07
2.06059e+07
2.06059e+07
2.06059e+07
2.0606e+07
2.0606e+07
2.0606e+07
2.0606e+07
2.0606e+07
2.0606e+07
2.0606e+07
2.0606e+07
2.0606e+07
2.0606e+07
2.0606e+07
2.0606e+07
2.0606e+07
2.10029e+07
2.10029e+07
2.10029e+07
2.10029e+07
2.10029e+07
2.10029e+07
2.10029e+07
2.10028e+07
2.10028e+07
2.10028e+07
2.10028e+07
2.10028e+07
2.10027e+07
2.10027e+07
2.10027e+07
2.10027e+07
2.10026e+07
2.10026e+07
2.10026e+07
2.10026e+07
2.14816e+07
2.14816e+07
2.14816e+07
2.14815e+07
2.14815e+07
2.14815e+07
2.14814e+07
2.14813e+07
2.14813e+07
2.14812e+07
2.14811e+07
2.14811e+07
2.1481e+07
2.14809e+07
2.14809e+07
2.14808e+07
2.14808e+07
2.14807e+07
2.14807e+07
2.14807e+07
2.2051e+07
2.2051e+07
2.2051e+07
2.20509e+07
2.20508e+07
2.20508e+07
2.20507e+07
2.20505e+07
2.20504e+07
2.20503e+07
2.20502e+07
2.205e+07
2.20499e+07
2.20498e+07
2.20497e+07
2.20496e+07
2.20495e+07
2.20494e+07
2.20493e+07
2.20493e+07
2.2722e+07
2.2722e+07
2.27219e+07
2.27218e+07
2.27217e+07
2.27216e+07
2.27214e+07
2.27212e+07
2.2721e+07
2.27208e+07
2.27206e+07
2.27204e+07
2.27202e+07
2.272e+07
2.27198e+07
2.27197e+07
2.27195e+07
2.27194e+07
2.27193e+07
2.27193e+07
2.33098e+07
2.33097e+07
2.33096e+07
2.33095e+07
2.33093e+07
2.33091e+07
2.33089e+07
2.33086e+07
2.33083e+07
2.3308e+07
2.33077e+07
2.33074e+07
2.33071e+07
2.33068e+07
2.33065e+07
2.33063e+07
2.3306e+07
2.33059e+07
2.33058e+07
2.33058e+07
2.95548e+07
2.95548e+07
2.95548e+07
2.95547e+07
2.95546e+07
2.95545e+07
2.95544e+07
2.95542e+07
2.95541e+07
2.95539e+07
2.95538e+07
2.95536e+07
2.95535e+07
2.95533e+07
2.95532e+07
2.95531e+07
2.9553e+07
2.95529e+07
2.95528e+07
2.95527e+07
2.90594e+07
2.90594e+07
2.90594e+07
2.90594e+07
2.90593e+07
2.90593e+07
2.90592e+07
2.90592e+07
2.90591e+07
2.9059e+07
2.9059e+07
2.90589e+07
2.90588e+07
2.90588e+07
2.90587e+07
2.90586e+07
2.90586e+07
2.90586e+07
2.90585e+07
2.90585e+07
2.85166e+07
2.85166e+07
2.85166e+07
2.85166e+07
2.85166e+07
2.85166e+07
2.85166e+07
2.85166e+07
2.85166e+07
2.85166e+07
2.85166e+07
2.85166e+07
2.85166e+07
2.85166e+07
2.85165e+07
2.85165e+07
2.85165e+07
2.85165e+07
2.85165e+07
2.85165e+07
2.80728e+07
2.80728e+07
2.80729e+07
2.80729e+07
2.80729e+07
2.80729e+07
2.8073e+07
2.8073e+07
2.8073e+07
2.80731e+07
2.80731e+07
2.80731e+07
2.80732e+07
2.80732e+07
2.80732e+07
2.80733e+07
2.80733e+07
2.80733e+07
2.80734e+07
2.80734e+07
2.77216e+07
2.77216e+07
2.77216e+07
2.77217e+07
2.77217e+07
2.77217e+07
2.77218e+07
2.77219e+07
2.77219e+07
2.7722e+07
2.77221e+07
2.77221e+07
2.77222e+07
2.77223e+07
2.77223e+07
2.77224e+07
2.77225e+07
2.77225e+07
2.77225e+07
2.77225e+07
2.74576e+07
2.74576e+07
2.74576e+07
2.74576e+07
2.74577e+07
2.74578e+07
2.74578e+07
2.74579e+07
2.7458e+07
2.74581e+07
2.74582e+07
2.74583e+07
2.74584e+07
2.74585e+07
2.74585e+07
2.74586e+07
2.74587e+07
2.74587e+07
2.74588e+07
2.74588e+07
2.72757e+07
2.72757e+07
2.72757e+07
2.72758e+07
2.72759e+07
2.72759e+07
2.7276e+07
2.72761e+07
2.72762e+07
2.72763e+07
2.72764e+07
2.72765e+07
2.72766e+07
2.72767e+07
2.72768e+07
2.72769e+07
2.7277e+07
2.7277e+07
2.72771e+07
2.72771e+07
2.71721e+07
2.71721e+07
2.71722e+07
2.71722e+07
2.71723e+07
2.71724e+07
2.71724e+07
2.71725e+07
2.71727e+07
2.71728e+07
2.71729e+07
2.7173e+07
2.71731e+07
2.71732e+07
2.71733e+07
2.71734e+07
2.71734e+07
2.71735e+07
2.71735e+07
2.71736e+07
2.71378e+07
2.71378e+07
2.71379e+07
2.71379e+07
2.7138e+07
2.7138e+07
2.71381e+07
2.71382e+07
2.71383e+07
2.71384e+07
2.71386e+07
2.71387e+07
2.71388e+07
2.71389e+07
2.7139e+07
2.7139e+07
2.71391e+07
2.71392e+07
2.71392e+07
2.71392e+07
2.71724e+07
2.71725e+07
2.71725e+07
2.71725e+07
2.71726e+07
2.71727e+07
2.71728e+07
2.71728e+07
2.71729e+07
2.7173e+07
2.71732e+07
2.71733e+07
2.71734e+07
2.71735e+07
2.71735e+07
2.71736e+07
2.71737e+07
2.71737e+07
2.71738e+07
2.71738e+07
2.72775e+07
2.72775e+07
2.72776e+07
2.72776e+07
2.72777e+07
2.72777e+07
2.72778e+07
2.72779e+07
2.7278e+07
2.72781e+07