/*--------------------------------*- C++ -*----------------------------------*\
| =========                 |                                                 |
| \\      /  F ield         | OpenFOAM: The Open Source CFD Toolbox           |
|  \\    /   O peration     | Version:  2212                                  |
|   \\  /    A nd           | Website:  www.openfoam.com                      |
|    \\/     M anipulation  |                                                 |
\*---------------------------------------------------------------------------*/
FoamFile
{
    version     2.0;
    format      ascii;
    arch        "LSB;label=32;scalar=64";
    class       volVectorField;
    location    "0.0795";
    object      U;
}
// * * * * * * * * * * * * * * * * * * * * * * * * * * * * * * * * * * * * * //

dimensions      [0 1 -1 0 0 0 0];

internalField   nonuniform List<vector> 
2308
(
(-133.308 574.912 -4.33253e-16)
(57.7176 139.598 0)
(4.60375 382.224 3.37839e-17)
(105.143 594.191 -1.4093e-16)
(9.68099 640.897 0)
(65.2731 661.269 -4.38559e-18)
(-66.2993 669.321 1.47238e-18)
(-64.5254 650.336 -2.08856e-16)
(-7.2994 632.717 3.75901e-16)
(8.64448 736.832 -4.54551e-17)
(11.1254 736.34 7.81791e-17)
(14.0787 732.978 -1.18512e-16)
(14.9069 729.847 5.96047e-17)
(14.9336 725.596 -2.92584e-17)
(15.2143 721.003 5.11135e-18)
(15.2448 715.986 4.35087e-17)
(14.9882 710.636 7.57109e-18)
(-6.86153 705.394 1.32645e-17)
(-6.41598 710.83 1.78271e-17)
(-5.74681 716.184 1.31507e-18)
(-5.00772 721.283 9.62503e-18)
(-3.69739 726.134 -2.9434e-17)
(-3.14639 730.406 3.6632e-17)
(-0.273602 734.438 -1.76049e-17)
(-0.460197 737.175 -6.98159e-17)
(-0.528885 737.224 -3.28482e-17)
(3.42817 736.2 1.73418e-17)
(3.23137 734.857 -1.96251e-17)
(-39.3152 668.51 0)
(13.9206 705.032 -1.2178e-16)
(2.85682 732.154 1.06929e-18)
(3.10743 727.046 2.76277e-19)
(3.01518 717.532 -4.88274e-18)
(4.92925 700.739 4.2967e-18)
(6.01372 664.385 -5.59555e-18)
(9.81996 629.283 4.23559e-18)
(7.71472 587.428 -2.91567e-18)
(5.55053 545.201 2.18602e-18)
(-0.440233 544.437 -2.47384e-18)
(-2.48019 547.325 1.23612e-18)
(-1.97769 551.03 2.55422e-18)
(-1.47703 558.591 3.73641e-18)
(-1.01188 565.372 -7.61204e-18)
(-0.463187 569.731 5.12003e-18)
(-0.204221 572.054 2.50572e-18)
(5.7368 570.249 -2.55863e-18)
(11.7814 565.479 2.48095e-18)
(16.8472 561.072 -3.65597e-18)
(19.2451 559.305 -3.84757e-18)
(20.0752 557.444 6.01232e-18)
(0.137229 556.609 -1.3054e-18)
(-26.0721 568.329 2.36043e-18)
(-60.768 589.378 2.92976e-19)
(-89.5865 601.397 -3.65409e-18)
(-95.9734 623.168 -1.02857e-18)
(-88.7896 646.994 2.54249e-18)
(-58.2184 681.565 0)
(-30.713 708.17 -3.39313e-19)
(-14.3382 720.217 -8.91325e-18)
(-3.92341 727.645 -3.07438e-17)
(2.66857 731.09 3.65384e-17)
(7.42818 732.916 3.33015e-17)
(13.6291 733.477 4.22841e-17)
(19.2669 733.532 -1.27728e-18)
(24.9069 731.756 4.79101e-17)
(28.4824 730 -8.83486e-17)
(30.8223 727.393 -2.0396e-17)
(32.9267 723.573 0)
(34.6 719.274 0)
(35.7552 714.42 0)
(36.2225 709.187 0)
(-0.10437 573.376 -1.25998e-18)
(1.42644 573.75 1.25685e-18)
(-27.7928 709.319 -6.07958e-17)
(-26.7765 715.025 -1.24144e-18)
(-25.0733 720.355 4.84102e-18)
(-22.8533 725.262 0)
(-20.3043 729.613 -9.28509e-18)
(-17.2383 733.217 -8.85168e-18)
(-12.9861 734.922 4.5946e-18)
(-8.19195 734.747 1.79037e-17)
(-2.27296 733.73 0)
(3.22681 731.877 -6.6138e-19)
(10.4016 728.305 3.42613e-20)
(21.87 719.934 -4.6173e-18)
(40.6705 707.154 6.91377e-18)
(71.715 677.861 7.91297e-19)
(101.2 643.521 -3.64997e-18)
(107.001 623.92 0)
(98.3748 605.96 -5.68029e-19)
(69.3431 596.439 3.69926e-18)
(30.3966 576.15 -5.00678e-18)
(3.87235 557.242 -1.92561e-19)
(-22.6201 555.343 4.58433e-18)
(-22.5293 557.517 0)
(-19.6048 559.388 4.75653e-18)
(-14.3953 563.579 9.08778e-21)
(-7.59001 568.882 -2.55692e-18)
(-10.3997 700.001 -5.43158e-17)
(-2.62148 572.517 -2.50112e-18)
(11.2939 699.283 5.4223e-17)
(35.3133 703.534 -3.98735e-19)
(15.3283 571.422 -2.56396e-18)
(20.2034 566.246 3.0712e-18)
(22.9502 564.124 0)
(23.594 562.357 -9.16299e-19)
(6.22581 561.726 2.32147e-18)
(-18.1547 578.77 2.12997e-18)
(-48.5073 600.229 -2.63642e-18)
(-81.407 613.392 0)
(-104.691 619.784 -6.55573e-19)
(-118.895 625.474 1.25165e-18)
(-127.379 629.072 -4.07333e-20)
(-129.2 637.548 -1.19727e-18)
(-115.717 646.761 0)
(-86.4936 671.241 1.40863e-18)
(-50.2777 700.261 -7.53778e-18)
(-24.3445 714.101 -4.46604e-18)
(-8.76774 722.527 1.80277e-17)
(2.27124 725.441 6.40242e-17)
(12.016 726.675 4.97009e-18)
(22.1873 726.783 4.64974e-17)
(31.5752 726.167 -2.17116e-17)
(39.3147 724.832 0)
(45.4788 723.061 0)
(49.7586 719.851 0)
(53.5684 715.725 7.30663e-17)
(56.3281 711.035 -8.23031e-17)
(58.1311 705.914 8.75223e-17)
(-89.5444 643.349 -1.59554e-16)
(97.807 662.642 0)
(64.053 671.157 0)
(78.371 666.52 0)
(-51.8385 699.627 1.25259e-16)
(-49.5558 706.593 3.43162e-17)
(-47.091 712.904 -1.52506e-19)
(-44.1517 718.407 -5.79064e-19)
(-40.2757 723.063 5.93598e-19)
(-35.8817 726.955 4.58829e-18)
(-29.4469 729.058 -8.93243e-18)
(-21.5539 728.824 9.27246e-20)
(-12.5511 728.36 0)
(-2.48945 726.324 2.09701e-17)
(11.0055 722.504 1.27552e-17)
(27.755 713.584 -2.67624e-18)
(59.1797 696.202 2.1212e-18)
(96.849 666.424 0)
(124.131 645.976 0)
(135.771 636.931 -2.79768e-19)
(132.903 629.88 0)
(125.719 627.332 1.75961e-18)
(112.684 623.414 -6.80178e-20)
(92.306 617.348 -1.17852e-18)
(60.7076 606.107 0)
(25.2561 585.1 -1.84845e-18)
(0.241623 561.778 1.82295e-18)
(-24.7164 559.826 -3.00786e-18)
(-24.6725 562.281 0)
(-22.3069 564.179 -4.79067e-18)
(-17.3175 569.161 1.23468e-18)
(-11.3268 574.97 -3.5522e-20)
(-0.626857 575.014 0)
(-0.0729626 574.372 -6.30464e-19)
(-0.257869 576.12 -2.03827e-18)
(-44.2504 646 1.75141e-16)
(9.74288 576.712 1.56788e-19)
(-112.616 636.051 -5.18618e-16)
(-152.976 631.587 -1.21981e-16)
(32.2822 697.539 0)
(-65.113 623.136 1.74235e-16)
(-12.2169 648.025 -3.5621e-16)
(-12.4327 693.581 2.08842e-17)
(58.6105 700.313 -1.309e-16)
(-6.93359 578.867 -1.27484e-18)
(-0.588639 576.866 -1.25411e-18)
(-0.0451447 575.432 -1.57444e-19)
(-0.0241566 577.827 2.53424e-18)
(5.99198 580.432 1.57548e-19)
(21.289 575.543 0)
(26.6642 570.209 1.23952e-18)
(29.4645 567.944 2.37749e-18)
(30.5054 566.162 -6.26159e-19)
(14.954 565.836 -2.57272e-18)
(-11.6781 583.484 -2.69502e-18)
(-42.732 605.792 3.94086e-18)
(-77.5216 620.362 9.74081e-19)
(-98.6795 626.603 -2.42137e-18)
(-113.892 631.708 1.79989e-18)
(-123.922 632.99 -5.26134e-19)
(-131.316 634.456 0)
(-135.555 635.305 0)
(-137.064 636.449 0)
(-133.761 639.186 2.31963e-18)
(-124.539 644.719 -1.33466e-18)
(-100.526 658.204 -8.82253e-19)
(-66.5501 683.715 -1.06485e-17)
(-33.5973 702.611 0)
(-10.9807 710.354 -9.51639e-18)
(6.13259 714.524 9.93282e-18)
(20.6034 715.706 2.12313e-17)
(33.7829 716.303 9.97538e-18)
(44.7624 716.247 4.11645e-17)
(54.8603 716.167 -4.07429e-17)
(63.2353 714.215 0)
(69.7029 710.664 1.00184e-17)
(74.4935 706.439 -2.07746e-17)
(77.7561 701.564 -4.2202e-17)
(-60.2765 685.084 1.94381e-17)
(-60.158 548.279 0)
(27.3996 648 -7.42861e-19)
(-99.1863 651.41 2.30275e-16)
(-97.3467 660.275 -4.78061e-17)
(-92.5904 668.304 5.40646e-17)
(-88.4331 675.903 -9.44764e-18)
(-83.8421 683.157 2.0668e-17)
(-80.134 690.27 -9.16103e-18)
(-75.2062 697.082 0)
(-71.317 703.574 -9.15987e-18)
(-67.2021 709.613 -9.2158e-18)
(-61.9687 714.635 0)
(-55.3676 718.687 0)
(-46.9774 720.529 5.75464e-19)
(-36.4942 720.712 -5.33028e-18)
(-24.8754 719.585 0)
(-10.6783 717.715 0)
(7.52415 711.321 -5.22599e-18)
(34.0005 702.596 -4.61295e-18)
(70.8133 678.934 9.20002e-18)
(106.055 653.173 2.15766e-18)
(127.884 642.759 6.03683e-19)
(137.664 638.304 2.3702e-18)
(140.438 636.173 -2.50729e-18)
(139.014 635.791 0)
(135.011 635.664 -1.18826e-18)
(128.089 634.751 0)
(119.488 633.608 0)
(105.823 630.045 0)
(87.6775 623.821 -5.01885e-18)
(53.78 611.991 0)
(18.2752 590.26 -2.59335e-18)
(-9.1798 566.204 4.55063e-19)
(-31.1616 564.734 9.15552e-18)
(-30.8575 566.964 0)
(-28.2419 569.111 -4.83944e-18)
(-23.1754 574.067 7.71397e-20)
(-34.0306 306.568 0)
(-88.3336 630.015 2.88201e-16)
(149.739 549.017 4.91817e-16)
(50.2489 539.081 0)
(-34.8984 449.929 -1.41298e-16)
(-128.867 628.557 5.87856e-16)
(56.7946 694.322 -3.95687e-18)
(-36.7033 685.471 4.30142e-17)
(31.407 569.145 -1.50456e-19)
(33.351 567.98 -1.22203e-18)
(22.1799 567.035 1.13723e-18)
(-6.0842 582.808 0)
(-35.535 606.781 0)
(-71.2395 623.623 1.46202e-19)
(-91.3334 630.358 -6.4025e-19)
(-105.596 636.217 -2.1519e-18)
(-114.023 638.16 1.52129e-19)
(-121.027 639.622 -3.04184e-19)
(-126.158 640.133 -3.66495e-19)
(-129.99 640.304 1.64191e-18)
(-132.535 639.017 1.49422e-19)
(-133.743 638.17 -1.09816e-18)
(-133.553 637.635 0)
(-128.621 637.801 4.73624e-18)
(-120.167 640.203 -3.82521e-19)
(-102.953 646.968 2.28458e-17)
(-72.4743 663.692 -2.09468e-17)
(-38.721 684.388 0)
(-8.28983 695.741 1.95489e-17)
(13.1915 701.631 -5.95438e-17)
(31.4784 704.49 3.11964e-17)
(45.4303 705.489 4.04421e-17)
(58.8404 705.468 -7.80181e-20)
(70.7519 704.922 -4.0105e-17)
(81.0576 703.369 4.0526e-17)
(89.2613 700.238 4.11711e-17)
(94.6844 695.954 -3.98873e-17)
(79.5089 696.408 -8.49097e-17)
(-39.0457 616.177 1.10046e-18)
(-194.53 622.697 -5.36925e-18)
(-123.547 650.184 -3.94616e-17)
(-119.982 658.505 -5.2074e-18)
(-115.101 665.889 -1.54877e-17)
(-110.053 673.105 -5.08489e-18)
(-105.082 680.246 0)
(-100.268 687.144 9.52928e-18)
(-95.1457 693.566 -4.73941e-18)
(-89.4534 699.444 -4.57575e-18)
(-83.4951 704.581 2.43655e-18)
(-74.7308 708.24 2.35576e-18)
(-64.2297 710.013 4.84668e-18)
(-51.3361 710.18 0)
(-36.966 709.122 4.4518e-18)
(-18.3903 705.371 -4.92501e-18)
(5.64198 698.176 -7.13926e-20)
(40.9419 682.734 -1.40593e-17)
(77.777 658.771 1.24557e-18)
(108.192 643.411 -5.33325e-18)
(122.959 638.144 0)
(130.949 636.857 -1.9069e-18)
(135.126 637.288 1.50051e-19)
(135.053 638.407 2.57807e-18)
(133.51 640.333 0)
(130.866 641.811 0)
(127.607 642.378 -7.44769e-20)
(123.839 641.891 -2.28095e-18)
(117.745 640.949 2.34095e-18)
(110.689 639.095 3.06778e-18)
(97.7659 634.784 -5.87686e-19)
(80.8171 627.998 2.05995e-18)
(46.3651 613.698 -7.27372e-19)
(12.2412 589.586 -5.66017e-18)
(-17.2339 568.71 4.3762e-18)
(-33.4911 568.064 1.05868e-17)
(-32.564 569.414 4.69447e-18)
(-29.3058 571.397 0)
(-16.5351 579.566 -2.56812e-18)
(-4.99137 581.505 3.3778e-20)
(-1.49486 578.551 2.84545e-18)
(-0.113442 577.11 9.43796e-19)
(1.01109 579.388 -1.2666e-18)
(4.27792 582.767 2.55057e-18)
(14.7078 580.567 -2.50647e-18)
(27.4709 571.381 -1.26635e-18)
(111.906 535.406 -1.69035e-16)
(2.73721 398.793 -4.90086e-17)
(-171.372 147.884 -8.39347e-17)
(-107.266 621.809 -2.75784e-16)
(-114.234 579.418 -1.55223e-16)
(99.7615 405.129 5.0397e-17)
(98.625 691.342 0)
(79.291 690.811 1.67815e-16)
(-54.0122 608.169 4.30327e-16)
(-88.2645 612.667 1.73371e-16)
(-68.5357 566.688 -1.92413e-16)
(8.60575 654.408 3.61356e-16)
(-148.797 647.056 0)
(-143.478 654.668 5.10875e-18)
(-137.455 662.157 -1.22957e-18)
(-131.259 669.384 -2.33586e-17)
(-125.076 676.198 4.9321e-18)
(-118.638 682.709 0)
(-111.643 688.312 -1.39101e-19)
(-103.304 693.286 -1.20678e-18)
(-92.9882 696.314 0)
(-80.4015 697.381 -2.34594e-18)
(-65.4195 697.396 -2.15935e-18)
(-46.8553 695.761 0)
(-23.6837 690.321 6.03586e-19)
(9.66829 680.192 -1.60863e-18)
(47.4243 659.801 6.36321e-19)
(80.8033 641.666 8.84261e-18)
(102.197 635.119 0)
(113.769 633.645 1.23518e-18)
(120.337 633.415 -6.16981e-19)
(123.117 634.165 1.48334e-19)
(123.872 636.625 4.52913e-19)
(123.427 640.288 -2.71346e-18)
(122.665 643.052 0)
(122.221 644.516 6.02523e-19)
(121.081 644.985 1.19586e-18)
(119.525 645.203 1.20695e-18)
(117.394 644.797 -2.46268e-20)
(114.49 644.214 -5.94287e-19)
(109.126 642.724 -1.7514e-18)
(102.059 640.426 -1.20092e-18)
(89.4695 635.121 -1.1573e-18)
(70.2351 627.005 0)
(34.1025 609.349 -5.68145e-18)
(2.81966 582.367 -5.38941e-18)
(-26.3821 566.179 -3.84185e-18)
(-35.0692 566.441 -6.44462e-18)
(-32.5752 567.068 2.97558e-18)
(-23.2803 576.034 -2.55987e-18)
(-11.4036 583.042 0)
(-4.55003 583.237 1.26707e-18)
(-2.49203 580.196 1.2751e-18)
(-0.111385 579.235 -2.5188e-18)
(2.07493 580.945 2.52134e-18)
(3.98132 584.18 -5.68132e-21)
(9.94452 583.468 -1.25976e-18)
(20.7593 576.175 3.85142e-18)
(31.2231 564.721 -3.62417e-18)
(34.2693 564.001 6.43725e-19)
(30.5418 562.336 -4.85085e-19)
(2.73376 575.65 8.75225e-19)
(-25.3941 602.597 -3.30108e-18)
(-61.7037 621.808 1.21173e-18)
(-83.4226 629.827 0)
(-97.0053 636.581 1.3894e-19)
(-105.284 639.346 2.09281e-18)
(-111.352 641.52 -3.0029e-19)
(-115.042 642.362 7.46438e-19)
(-117.737 643.082 1.77383e-21)
(-119.763 643.096 3.0363e-19)
(-121.614 642.704 -1.50909e-19)
(-122.624 641.227 1.06699e-18)
(-123.651 638.394 -3.62955e-18)
(-123.512 635.641 -2.87306e-20)
(-122.031 634.386 2.42583e-18)
(-118.102 634.334 -2.5003e-18)
(-110.324 635.016 -1.93702e-17)
(-97.9034 637.651 1.90113e-17)
(-75.0816 646.125 0)
(-43.3118 663.434 -4.18434e-17)
(-10.1137 678.995 2.91087e-17)
(19.562 687.441 -3.01706e-17)
(39.4948 691.73 0)
(57.5013 693.098 0)
(71.6592 693.236 0)
(85.1705 692.347 -5.18888e-18)
(96.8505 691.285 -1.33422e-18)
(106.601 688.42 8.00773e-17)
(-21.1079 607.776 -1.86815e-16)
(100.275 686.491 8.54681e-17)
(76.2077 684.837 -7.72097e-17)
(-64.2834 677.401 1.02136e-17)
(-72.8908 602.019 2.12458e-16)
(-106.552 605.92 1.77096e-16)
(-128.922 613.866 3.46881e-18)
(-147.636 620.846 -1.75808e-16)
(-206.935 613.457 -1.20394e-16)
(-152.097 639.33 -1.24023e-16)
(-171.933 635.119 4.25227e-17)
(-167.509 641.974 -1.12513e-17)
(-161.617 649.559 -2.03785e-17)
(-154.742 656.978 0)
(-147.522 664.135 1.94239e-17)
(-139.533 670.331 0)
(-131.13 676.166 0)
(-120.523 680.092 4.63901e-18)
(-108.054 682.212 1.14626e-18)
(-92.5215 683.092 0)
(-74.3168 682.545 2.39586e-18)
(-50.8155 679.031 7.83446e-20)
(-19.8646 671.989 3.9977e-19)
(17.3893 655.705 2.74712e-18)
(51.7422 637.556 2.02383e-18)
(77.7461 629.903 -2.85909e-18)
(92.054 628.28 -4.77446e-18)
(101.03 627.959 1.53613e-19)
(105.699 628.624 -8.78982e-19)
(108.109 630.971 3.02844e-19)
(109.201 634.688 1.21822e-18)
(109.525 637.789 -9.15046e-19)
(110.574 640.302 1.20216e-18)
(112.243 642.355 -2.35313e-20)
(113.736 643.654 -3.00883e-18)
(114.456 644.969 1.15126e-18)
(114.241 645.243 1.12391e-18)
(113.394 645.219 -1.75862e-18)
(111.635 645.188 2.38912e-18)
(109.298 644.234 2.40253e-18)
(106.212 643.215 0)
(101.188 640.578 7.20419e-18)
(93.6027 637.522 1.15904e-18)
(80.554 629.627 1.18586e-18)
(59.1799 620.121 0)
(22.4956 598.096 0)
(-6.71967 568.172 4.39221e-18)
(-33.1707 553.536 6.80865e-20)
(-31.64 553.238 -5.78406e-19)
(-26.3002 568.943 6.24254e-19)
(-15.8786 580.159 0)
(-7.95056 584.546 0)
(-4.42119 584.203 -6.17688e-19)
(-3.21031 581.842 1.89331e-18)
(-0.247113 581.333 0)
(2.63319 582.418 -1.26928e-18)
(3.64737 584.642 -1.2523e-18)
(6.77184 584.35 2.53487e-18)
(13.4304 579.327 -1.28422e-18)
(23.8883 566.68 3.89125e-18)
(29.3923 547.966 6.74274e-19)
(32.6561 548.637 6.29754e-19)
(12.4375 560.1 1.33883e-18)
(-16.645 589.273 0)
(-51.1398 612.912 -5.01512e-19)
(-75.4768 623.054 -1.20041e-19)
(-88.5074 632.057 6.84021e-19)
(-97.2748 635.789 -1.58032e-19)
(-102.971 639.061 -3.096e-19)
(-106.489 640.427 -2.41443e-18)
(-108.965 641.73 6.05757e-19)
(-111.01 642.157 -1.48775e-18)
(-112.125 642.496 7.0603e-19)
(-112.576 642.511 -2.87124e-19)
(-112.408 641.757 0)
(-111.356 640.284 0)
(-110.422 638.253 0)
(-109.964 635.554 -1.23136e-18)
(-109.34 632.426 0)
(-107.496 629.839 -4.31537e-20)
(-103.821 628.891 9.75591e-18)
(-97.7883 629.147 -4.85802e-18)
(-87.7421 629.912 1.00393e-17)
(-72.0913 632.444 2.82556e-17)
(-46.127 642.198 -1.37802e-18)
(-13.4765 658.829 -1.13954e-17)
(18.6989 671.014 -1.97184e-17)
(46.3189 676.959 3.9695e-17)
(65.9055 679.77 -1.99491e-17)
(83.0332 679.902 -4.74221e-19)
(97.3638 679.02 8.53905e-18)
(111.158 677.478 -1.69477e-18)
(113.514 684.353 -1.21029e-16)
(-35.3124 599.08 -1.92732e-16)
(-2.35333 598.773 3.84881e-16)
(143.674 160.71 0)
(118.059 680.341 -8.38806e-17)
(-182.201 620.561 3.15574e-16)
(-171.941 613.211 -1.71335e-16)
(-149.148 607.511 -3.36725e-16)
(73.8265 678.586 -2.5675e-17)
(-72.6871 660.946 -2.50862e-17)
(-40.875 677.25 -1.01901e-17)
(99.5352 681.391 2.10416e-18)
(-88.1916 595.613 -2.04987e-16)
(-127.546 598.368 1.65562e-16)
(-26.1298 553.422 -6.14392e-19)
(-17.8098 571.501 -6.38691e-19)
(-10.3983 581.408 0)
(-5.91482 584.471 -6.27572e-19)
(-4.0303 584.196 6.1602e-19)
(-3.24102 582.862 -6.30337e-19)
(-0.32675 582.876 6.31512e-19)
(2.26294 583.287 1.26181e-18)
(3.03037 584.453 -1.24749e-18)
(4.39862 583.999 2.55798e-18)
(7.93269 579.783 -3.79419e-18)
(14.5927 568.558 0)
(20.019 548.283 -9.63319e-22)
(14.7374 515.709 0)
(18.5144 519.722 -3.7042e-18)
(-10.1666 559.858 1.21265e-18)
(-40.8478 588.051 0)
(-68.9021 605.173 0)
(-81.465 616.847 3.22487e-19)
(-90.4624 623.73 -3.9343e-20)
(-95.213 628.31 0)
(-97.9774 631.361 -1.51852e-19)
(-100.223 633.816 1.5285e-19)
(-101.997 635.675 6.12401e-19)
(-103.861 637.273 2.98075e-19)
(-104.924 637.92 5.70392e-19)
(-105.31 637.951 9.29868e-21)
(-104.774 637.119 -1.21907e-18)
(-103.065 636.454 2.99213e-19)
(-101.066 635.214 1.22246e-18)
(-98.645 633.937 3.18373e-19)
(-96.4032 632.233 -6.22227e-19)
(-94.3515 630.121 1.24427e-18)
(-92.8625 627.497 -3.66522e-18)
(-90.9278 624.462 -5.00736e-18)
(-87.6394 622.268 2.61826e-18)
(-82.4916 621.656 -5.1459e-18)
(-75.2034 621.969 0)
(-64.0057 622.653 -1.53729e-17)
(-46.1778 625.655 3.06125e-17)
(-19.1451 636.078 0)
(12.8166 650.743 0)
(45.3288 660.164 0)
(73.1533 663.753 7.33796e-18)
(93.1959 665.103 -1.05912e-18)
(110.775 664.162 -1.60941e-18)
(121.968 675.387 -7.99364e-17)
(45.5417 641.206 -1.85451e-16)
(-50.0829 591.319 1.00572e-17)
(79.3972 536.629 1.73996e-16)
(-1.87215 421.281 0)
(-185.372 635.11 -9.54341e-18)
(-177.252 642.658 0)
(-168.08 650.076 0)
(-158.196 655.781 4.77455e-18)
(-146.054 660.395 -9.89274e-18)
(-132.39 663.794 0)
(-116.557 665.799 5.11778e-18)
(-97.9183 666.625 0)
(-74.7557 664.953 -1.34143e-18)
(-43.8129 659.024 1.12804e-18)
(-7.90949 646.621 -6.33574e-18)
(25.2122 630.867 1.62753e-19)
(52.7061 622.607 -2.22682e-18)
(68.6765 621.361 4.88368e-18)
(78.9649 621.225 3.63108e-18)
(84.8884 621.736 -3.76602e-18)
(88.5877 623.913 0)
(90.9865 627.534 -1.28406e-20)
(92.3531 630.511 -1.86493e-18)
(94.5076 633.059 0)
(97.0924 634.984 0)
(99.8685 636.609 6.18843e-19)
(102.523 637.98 1.81927e-18)
(104.733 639.415 -1.20549e-18)
(106.344 640.409 1.22039e-18)
(107.311 641.583 -2.37716e-18)
(106.927 641.984 -5.77739e-19)
(106.057 641.726 -4.68047e-18)
(104.389 640.68 2.40517e-18)
(102.555 639.097 0)
(100.536 636.968 -4.87833e-18)
(97.8447 634.365 -2.44498e-18)
(93.817 630.099 0)
(85.914 625.126 2.3376e-18)
(73.2039 613.369 -1.30463e-19)
(47.2637 600.379 3.89991e-18)
(16.1158 572.024 3.57554e-18)
(-16.6555 536.742 0)
(-20.3679 523.364 -1.25718e-18)
(15.7877 590.075 -1.92779e-16)
(-18.1047 588.831 -3.82561e-16)
(-4.77485 282.017 6.75913e-17)
(97.9417 675.89 -7.72136e-17)
(-103.602 587.575 3.4713e-16)
(120.093 675.896 -6.54577e-19)
(-9.04908 481.969 6.09619e-19)
(-33.0425 525.901 3.25338e-18)
(-63.44 564.882 -2.63989e-18)
(-77.0503 582.938 0)
(-85.5761 595.453 0)
(-89.2982 603.564 0)
(-91.4107 610.074 0)
(-92.5533 614.881 6.20869e-19)
(-93.3662 618.972 -3.1042e-19)
(-94.1101 622.334 1.55383e-19)
(-94.9214 625.457 -9.12425e-19)
(-95.725 627.188 5.77666e-19)
(-95.8549 627.86 2.95179e-19)
(-95.2492 627.967 -4.57811e-19)
(-94.2039 627.43 0)
(-92.6169 626.828 6.36787e-21)
(-90.5514 625.899 -3.05603e-19)
(-88.0208 624.972 3.04979e-19)
(-85.0891 623.922 6.10884e-19)
(-81.9387 622.77 -7.07273e-19)
(-78.8346 621.307 7.04923e-19)
(-75.979 619.455 -1.87805e-18)
(-73.564 617.294 -3.77333e-18)
(-70.4554 614.823 2.39502e-18)
(-66.0647 613.053 0)
(-59.9303 612.675 -2.53409e-19)
(-52.1242 613.091 -1.49083e-17)
(-39.5811 613.769 1.29393e-17)
(-19.912 616.086 -2.69065e-18)
(7.77324 624.415 0)
(38.1068 636.666 -2.31265e-18)
(70.0968 644.874 3.39523e-17)
(97.8641 647.242 -1.91927e-17)
(124.835 662.558 7.69058e-17)
(64.589 648.259 3.94009e-16)
(-66.2572 585.164 1.13502e-17)
(-15.3808 523.151 -2.83544e-19)
(-15.1074 554.014 1.96405e-18)
(-9.44834 572.028 3.17389e-19)
(-5.65803 581.079 0)
(-3.61977 584.2 -6.282e-19)
(-3.132 584.188 6.28181e-19)
(-2.59601 583.239 -9.46275e-19)
(-0.650067 583.392 -2.15239e-18)
(1.27363 583.563 2.51392e-18)
(1.75471 584.352 0)
(1.80839 583.566 -1.26625e-18)
(2.78392 579.31 3.8657e-18)
(6.10065 568.613 -2.52599e-18)
(9.09513 548.416 -1.30545e-18)
(9.85534 516.363 1.9533e-18)
(-2.70202 475.882 -2.7087e-18)
(66.7703 634.311 3.75816e-16)
(-143.098 592.874 -1.54834e-16)
(-168.608 601.719 1.51769e-16)
(-187.976 608.868 3.05704e-16)
(-204.025 611.236 1.44562e-16)
(26.4388 661.15 -7.79905e-18)
(85.7573 657.207 1.03826e-16)
(-118.798 369.801 0)
(67.9781 556.797 0)
(-189.96 626.079 0)
(-179.279 632.095 2.53326e-18)
(-166.616 638.253 -4.848e-18)
(-152.547 643.459 3.31332e-20)
(-136.103 646.406 1.43875e-17)
(-116.522 648.05 -9.7872e-18)
(-92.2137 647.666 2.49751e-19)
(-61.9517 643.61 5.0975e-18)
(-28.5373 632.744 -8.88677e-18)
(1.62442 619.629 7.49914e-19)
(27.5319 613.32 4.73227e-18)
(44.5706 613.259 -1.2932e-18)
(54.7096 613.137 1.22196e-18)
(61.3032 613.48 -3.68458e-18)
(66.1542 615.305 1.26691e-18)
(69.8079 618.393 3.69254e-18)
(72.3562 620.967 -2.48849e-18)
(75.6817 623.209 2.49822e-18)
(79.2474 624.925 9.25961e-19)
(82.9563 626.316 2.13663e-18)
(86.4681 627.546 -2.80356e-18)
(89.5133 628.753 1.83383e-18)
(92.0432 629.914 -3.40102e-18)
(94.0436 631.033 -2.43227e-18)
(95.6129 631.921 2.47415e-18)
(96.6566 632.599 1.21289e-18)
(97.4131 632.839 -1.17115e-18)
(97.3781 632.48 0)
(96.9149 631.238 -2.38641e-18)
(95.9825 628.659 1.22022e-18)
(95.2772 625.361 -2.4463e-18)
(94.2725 621.985 -3.69175e-18)
(93.4465 617.359 -2.47316e-18)
(91.2233 612.202 -4.98851e-18)
(88.362 603.948 1.25576e-18)
(80.2916 594.141 -1.22102e-18)
(68.6187 578.008 -2.68925e-18)
(43.1519 547.613 0)
(7.89497 502.246 0)
(1.38632 480.741 0)
(-4.59818 303.322 0)
(130.644 672.183 -1.42299e-18)
(94.8558 670.687 3.84899e-16)
(32.4019 581.636 1.7933e-16)
(-34.1566 579.429 1.95002e-16)
(0.014322 579.245 3.65869e-16)
(46.5457 654.886 -1.9456e-16)
(-15.7416 292.74 -5.63198e-17)
(-46.8424 330.697 0)
(49.5307 666.419 -2.16454e-16)
(120.548 670.848 -8.54907e-17)
(121.481 648.152 -3.23422e-17)
(11.4793 666.768 -5.58255e-16)
(84.2203 515.7 1.92654e-16)
(121.281 533.381 1.77532e-16)
(-9.77451 351.899 -3.16783e-17)
(-23.1742 438.273 -1.30791e-18)
(-47.0046 461.451 -3.13082e-19)
(-76.3534 506.8 -1.09684e-18)
(-82.3044 539.727 3.14197e-20)
(-87.0742 555.964 0)
(-87.3736 569.769 0)
(-88.5869 578.873 0)
(-88.0349 586.631 -1.58138e-19)
(-87.78 592.516 -1.96937e-19)
(-87.0443 597.991 1.97064e-19)
(-86.5799 602.599 -1.55729e-19)
(-86.0904 607.039 3.89796e-19)
(-85.6992 609.607 -4.6708e-19)
(-84.5153 610.731 0)
(-83.6378 611.152 0)
(-82.2631 611.299 0)
(-80.7432 611.108 0)
(-78.8947 610.723 0)
(-76.717 610.169 0)
(-74.0845 609.533 -1.58361e-19)
(-70.9888 608.846 6.1828e-19)
(-67.4625 608.108 0)
(-63.678 607.276 -1.59443e-18)
(-59.8401 606.235 2.80611e-18)
(-55.9803 604.876 2.50544e-18)
(-52.3005 603.352 0)
(-47.8081 601.63 7.63216e-18)
(-42.0104 599.997 -7.59045e-18)
(-34.4201 599.494 -2.49484e-18)
(-25.7152 600.067 5.05745e-18)
(-12.7674 600.483 -7.68663e-18)
(5.90325 601.848 3.81128e-18)
(32.4462 607.467 -9.60933e-18)
(60.7795 615.648 2.52786e-18)
(91.4319 619.691 7.34214e-17)
(83.0826 641.71 2.02851e-16)
(-144.67 572.394 2.92863e-16)
(-116.381 554.868 1.54658e-16)
(-1.11674 482.118 0)
(-6.09132 524.064 1.85711e-21)
(-4.34831 553.528 -6.442e-19)
(-1.67424 571.308 -3.17922e-19)
(-0.850079 580.342 -7.83944e-20)
(-1.47261 583.639 7.95675e-20)
(-2.35813 583.813 0)
(-2.14058 583.159 0)
(-0.770867 583.323 9.20103e-19)
(0.486313 583.421 -2.53202e-18)
(0.554006 583.912 3.15457e-18)
(-0.756958 582.9 0)
(-2.3384 578.468 -2.59067e-18)
(-2.65792 567.748 2.5267e-18)
(-1.69705 548.472 6.49612e-19)
(2.71566 517.649 6.66038e-19)
(3.29039 477.838 0)
(-1.01469 438.412 0)
(-48.9464 658.831 0)
(-162.004 587.857 1.5888e-16)
(-186.208 596.463 0)
(-207.614 601.37 -3.07336e-16)
(-217.582 600.655 1.49264e-16)
(-216.206 601.212 2.70547e-16)
(-24.228 430.669 -4.56669e-17)
(-44.2879 552.756 1.78211e-16)
(-193.828 604.594 4.86375e-18)
(-181.106 611.065 -4.02388e-17)
(-166.375 616.251 1.75711e-17)
(-149.107 620.587 -1.99418e-17)
(-126.491 624.361 -8.68122e-18)
(-100.117 625.549 1.27425e-17)
(-72.2091 622.155 2.37912e-18)
(-44.2615 612.924 -1.2885e-17)
(-18.7563 604.729 7.58607e-18)
(3.77793 601.842 0)
(18.9847 602.373 -6.38279e-18)
(27.8648 602.269 3.78338e-18)
(35.2793 602.637 6.30324e-18)
(41.3778 604.104 1.19714e-18)
(46.5285 606.104 -5.08449e-18)
(50.5718 607.84 -2.52906e-18)
(55.1035 609.449 0)
(59.678 610.709 0)
(64.2149 611.75 -6.17299e-19)
(68.4364 612.684 -3.0815e-19)
(72.1502 613.596 3.10149e-18)
(75.2792 614.461 5.72182e-19)
(77.8763 615.272 -2.20709e-18)
(80.0127 615.933 -6.6538e-21)
(81.8201 616.432 0)
(83.349 616.65 0)
(84.7012 616.606 -2.46141e-18)
(85.7625 616.185 3.73864e-18)
(86.7523 615.367 -1.24976e-18)
(87.57 613.297 -7.23494e-21)
(87.8309 609.669 1.24516e-18)
(88.3108 605 1.24413e-18)
(88.7935 600.205 7.49677e-18)
(89.3939 594.273 0)
(89.5531 587.862 3.77301e-18)
(89.4783 578.78 -3.78153e-18)
(88.0638 568.02 2.59293e-18)
(85.8252 551.722 -2.50541e-18)
(78.711 528.346 2.5598e-18)
(58.7776 484.205 0)
(30.9534 442.403 0)
(8.92452 441.693 -1.35569e-18)
(90.4457 628.2 3.73522e-16)
(136.754 660.781 -7.96759e-17)
(-103.433 559.805 -1.61492e-16)
(92.6213 598.721 3.57385e-16)
(69.8727 587.011 -9.86806e-18)
(49.9325 574.41 3.71976e-16)
(136.198 668.504 8.25686e-17)
(-49.5941 571.432 -3.94416e-16)
(15.849 569.575 0)
(-15.6679 568.723 0)
(-15.2339 371.134 -3.30422e-17)
(164.551 567.436 -1.93437e-16)
(-25.0567 436.41 1.35977e-17)
(54.5819 677.075 -3.30936e-16)
(70.1422 584.34 -3.77225e-17)
(101.927 646.908 -2.3596e-16)
(3.54562 281.752 0)
(2.26141 302.403 -2.9855e-17)
(50.5647 577.688 0)
(30.7006 576.849 1.33187e-18)
(14.3562 578.178 2.42821e-18)
(2.66996 578.427 9.14484e-19)
(-7.02412 578.226 1.6578e-19)
(-15.994 578.777 0)
(-23.4074 580.127 3.28775e-18)
(-29.5074 581.434 -3.29639e-18)
(-34.8794 582.775 1.27718e-18)
(-39.9473 583.886 -2.57006e-18)
(-44.6244 584.69 6.4435e-19)
(-49.0316 585.305 0)
(-53.0592 585.802 1.25886e-18)
(-56.6074 586.223 -6.44862e-19)
(-59.6771 586.593 6.3009e-19)
(-62.2849 586.885 -1.11606e-18)
(-64.5195 587.064 1.29277e-18)
(-66.4594 587.082 -1.39581e-20)
(-68.1972 586.882 -6.82802e-19)
(-69.7766 586.376 3.146e-19)
(-71.289 585.578 -3.6114e-19)
(-72.7196 584.283 0)
(-74.2775 582.341 1.5784e-19)
(-75.9111 578.695 -7.91047e-20)
(-77.5494 572.986 -3.19878e-19)
(-79.175 566.759 2.78381e-19)
(-81.0133 559.641 3.99931e-20)
(-82.5861 551.929 -1.63053e-19)
(-84.5291 542.251 0)
(-85.4931 531.128 0)
(-87.4069 514.801 -6.68995e-19)
(-87.3339 494.259 3.68399e-18)
(-86.0104 464.993 -6.84162e-19)
(-69.4873 423.039 0)
(-37.0482 399.265 2.86414e-18)
(-7.69858 394.902 -5.4962e-20)
(-2.73431 324.081 1.53643e-16)
(-10.8164 445.394 1.36584e-18)
(-5.42301 486.471 0)
(0.778503 524.82 -3.11178e-19)
(5.13604 554.106 3.38677e-19)
(6.01111 570.57 7.8693e-19)
(3.71098 579.473 -6.43364e-19)
(1.18808 582.903 1.58466e-19)
(-0.885564 583.637 3.16199e-19)
(-1.39497 583.189 2.2071e-18)
(-1.03996 583.223 -3.15082e-18)
(-0.750884 583.433 -2.53525e-18)
(-1.32313 583.535 2.52326e-18)
(-3.77148 581.78 -3.18463e-19)
(-7.26667 577.197 6.39909e-19)
(-9.66785 567.206 -2.62536e-18)
(-9.90661 548.847 -7.59097e-19)
(-2.32476 521.213 2.59664e-18)
(9.72514 484.859 0)
(18.5335 443.741 1.35136e-18)
(18.9974 397.935 -6.8901e-19)
(110.074 635.563 1.91459e-16)
(141.473 646.805 -7.5877e-17)
(116.789 609.331 -1.86435e-16)
(-30.8565 280.613 0)
(-20.3401 269.123 0)
(-6.32007 260.687 -5.34628e-17)
(5.80793 260.927 -1.40487e-17)
(18.9728 265.632 -1.68368e-17)
(14.0592 286.468 -4.09938e-17)
(10.8573 307.653 5.80814e-17)
(5.94214 327.497 3.14558e-17)
(71.6486 500.416 0)
(-4.31231 345.503 -3.20738e-17)
(190.911 577.901 -5.57276e-18)
(205.934 552.317 1.60279e-16)
(178.776 562.219 -1.66988e-16)
(113.412 594.09 -1.81314e-16)
(89.4473 581.547 0)
(66.6826 567.913 0)
(139.789 664.259 1.77519e-16)
(115.932 622.82 3.60983e-16)
(-28.9584 331.208 -4.13397e-17)
(-175.476 584.207 1.42798e-16)
(-204.485 589.773 -1.61902e-16)
(-223.405 590.013 0)
(-228.855 585.483 -3.22672e-16)
(-227.885 580.877 1.62508e-16)
(-215.46 584.254 -2.15195e-16)
(-179.522 488.176 -1.50659e-16)
(-183.66 569.33 4.31812e-17)
(-168.094 579.67 -4.7698e-17)
(-148.545 587 2.12101e-17)
(-127.214 591.626 -2.06224e-17)
(-105.241 591.319 0)
(-81.8057 587.246 -1.17448e-18)
(-59.3877 584.727 -1.64703e-18)
(-37.7334 584.795 7.52736e-18)
(-20.0278 585.993 2.4049e-18)
(-7.77544 586.226 -1.27742e-17)
(0.420468 585.911 5.1552e-18)
(8.65791 585.875 6.37056e-18)
(16.0593 586.387 -5.16481e-18)
(22.616 587.011 3.19825e-18)
(28.3737 587.778 -3.23533e-18)
(34.1222 588.643 -1.27656e-18)
(39.4944 589.38 3.83863e-18)
(44.611 590.031 6.47509e-19)
(49.3043 590.637 2.52448e-18)
(53.4626 591.207 -2.57554e-18)
(57.055 591.726 0)
(60.134 592.193 -6.3547e-19)
(62.7566 592.524 -3.14229e-19)
(65.0275 592.732 -3.14757e-18)
(67.0146 592.712 2.88344e-18)
(68.8003 592.483 -3.19943e-19)
(70.4347 591.921 2.51111e-18)
(71.9622 591.096 -4.75483e-18)
(73.4254 589.808 2.55995e-18)
(74.8967 588.057 1.25725e-18)
(76.5429 584.984 6.39568e-19)
(78.0714 580.084 -1.25785e-18)
(79.7842 573.89 3.82348e-18)
(81.4372 567.357 -3.81491e-18)
(83.3195 559.601 -1.29654e-18)
(84.8078 551.279 -3.86729e-18)
(86.8388 539.994 5.16801e-18)
(87.4185 527.326 -3.87499e-18)
(89.836 505.85 2.69374e-18)
(87.0227 484.701 -5.23885e-18)
(81.5265 441.573 0)
(47.276 406.994 2.77057e-18)
(16.9854 396.76 -1.34135e-18)
(-11.3583 398.6 -1.37694e-18)
(142.398 573.173 -4.1557e-16)
(168.633 583.958 1.99878e-16)
(195.373 590.359 -1.88475e-16)
(18.1556 437.495 9.01253e-17)
(216.647 579.816 -2.04987e-16)
(145.53 658.69 0)
(-3.06634 402.523 -5.22643e-17)
(227.917 582.094 -2.04357e-16)
(-4.9871 369.615 1.48093e-16)
(-0.00767449 557.564 5.67264e-16)
(-30.6222 559.568 -3.82112e-16)
(32.7355 561.216 -1.8e-16)
(148.18 587.839 0)
(108.647 577.834 -1.98603e-16)
(131.483 590.81 1.76726e-16)
(1.16708 323.14 -9.11846e-17)