/*--------------------------------*- C++ -*----------------------------------*\
| =========                 |                                                 |
| \\      /  F ield         | OpenFOAM: The Open Source CFD Toolbox           |
|  \\    /   O peration     | Version:  2212                                  |
|   \\  /    A nd           | Website:  www.openfoam.com                      |
|    \\/     M anipulation  |                                                 |
\*---------------------------------------------------------------------------*/
FoamFile
{
    version     2.0;
    format      ascii;
    arch        "LSB;label=32;scalar=64";
    class       surfaceScalarField;
    location    "0.165";
    object      phi;
}
// * * * * * * * * * * * * * * * * * * * * * * * * * * * * * * * * * * * * * //

dimensions      [0 3 -1 0 0 0 0];

oriented        oriented;

internalField   nonuniform List<scalar> 
69808
(
5.78592e-09
-0.021731
-1.858
-1.39142e-07
-0.0217309
-1.85802
-1.81438e-07
-0.021731
-1.85802
-2.54224e-07
-0.0217311
-1.85802
-2.99398e-07
-0.0217312
-1.85802
-3.45875e-07
-0.0217312
-1.85802
-3.78241e-07
-0.0217313
-1.85802
-4.03846e-07
-0.0217315
-1.85802
-4.18872e-07
-0.0217316
-1.85802
-4.23726e-07
-0.0217317
-1.85802
-4.1705e-07
-0.0217318
-1.85802
-3.99389e-07
-0.0217319
-1.85802
-3.71924e-07
-0.021732
-1.85802
-3.3508e-07
-0.021732
-1.85802
-2.94749e-07
-0.0217321
-1.85802
-2.4441e-07
-0.0217322
-1.85802
-2.09512e-07
-0.0217322
-1.85802
-1.36145e-07
-0.0217322
-1.85802
-1.54164e-07
-0.0217322
-1.85802
-0.0217323
-1.858
-1.3558e-07
-0.0254431
-1.85677
-2.17255e-07
-0.025443
-1.8568
-3.13697e-07
-0.0254431
-1.8568
-3.98263e-07
-0.0254431
-1.8568
-4.68637e-07
-0.0254431
-1.8568
-5.2482e-07
-0.0254432
-1.8568
-5.65099e-07
-0.0254432
-1.8568
-5.88971e-07
-0.0254433
-1.8568
-5.96456e-07
-0.0254433
-1.8568
-5.87975e-07
-0.0254434
-1.8568
-5.64765e-07
-0.0254434
-1.8568
-5.28048e-07
-0.0254435
-1.8568
-4.80078e-07
-0.0254435
-1.8568
-4.23372e-07
-0.0254436
-1.8568
-3.60857e-07
-0.0254436
-1.8568
-2.9491e-07
-0.0254436
-1.8568
-2.27102e-07
-0.0254436
-1.8568
-1.54208e-07
-0.0254437
-1.8568
-5.96396e-08
-0.0254436
-1.8568
-0.0254437
-1.85677
-3.98994e-09
-0.0287679
-1.86444
5.96826e-08
-0.0287679
-1.86446
9.84296e-08
-0.028768
-1.86446
1.24364e-07
-0.028768
-1.86446
1.41604e-07
-0.0287681
-1.86446
1.47713e-07
-0.0287681
-1.86446
1.45002e-07
-0.0287682
-1.86446
1.34645e-07
-0.0287682
-1.86446
1.18846e-07
-0.0287683
-1.86446
9.99976e-08
-0.0287684
-1.86446
8.03708e-08
-0.0287684
-1.86446
6.20473e-08
-0.0287685
-1.86446
4.63507e-08
-0.0287685
-1.86446
3.43521e-08
-0.0287686
-1.86446
2.48115e-08
-0.0287686
-1.86446
1.99481e-08
-0.0287686
-1.86446
1.46924e-08
-0.0287686
-1.86446
1.77209e-08
-0.0287687
-1.86446
3.61869e-08
-0.0287686
-1.86446
-0.0287686
-1.86444
-9.56052e-08
-0.0201955
-1.84822
-1.6308e-07
-0.0201954
-1.84825
-2.29448e-07
-0.0201955
-1.84825
-2.8961e-07
-0.0201955
-1.84825
-3.40469e-07
-0.0201956
-1.84825
-3.79569e-07
-0.0201957
-1.84825
-4.06873e-07
-0.0201958
-1.84825
-4.21515e-07
-0.0201959
-1.84825
-4.23992e-07
-0.020196
-1.84824
-4.14383e-07
-0.020196
-1.84824
-3.93991e-07
-0.0201961
-1.84824
-3.63806e-07
-0.0201962
-1.84824
-3.25627e-07
-0.0201963
-1.84824
-2.81519e-07
-0.0201964
-1.84824
-2.32936e-07
-0.0201964
-1.84824
-1.82819e-07
-0.0201965
-1.84824
-1.30294e-07
-0.0201965
-1.84824
-7.58955e-08
-0.0201965
-1.84824
-2.55505e-08
-0.0201965
-1.84824
-0.0201966
-1.84822
3.90211e-08
-0.0116452
-1.85308
1.1403e-07
-0.0116451
-1.8531
1.7494e-07
-0.0116451
-1.8531
2.219e-07
-0.0116451
-1.8531
2.56407e-07
-0.0116452
-1.8531
2.78076e-07
-0.0116452
-1.8531
2.87607e-07
-0.0116453
-1.8531
2.84731e-07
-0.0116454
-1.8531
2.72956e-07
-0.0116454
-1.8531
2.54331e-07
-0.0116455
-1.8531
2.31183e-07
-0.0116456
-1.8531
2.05282e-07
-0.0116456
-1.8531
1.79544e-07
-0.0116457
-1.8531
1.54854e-07
-0.0116458
-1.8531
1.32267e-07
-0.0116458
-1.8531
1.11169e-07
-0.0116459
-1.8531
9.17743e-08
-0.0116459
-1.8531
7.51891e-08
-0.0116459
-1.8531
5.62724e-08
-0.011646
-1.8531
-0.0116461
-1.85308
-4.96388e-08
0.0033414
-1.83887
-8.19971e-08
0.00334161
-1.83889
-1.12656e-07
0.00334156
-1.83889
-1.41002e-07
0.0033415
-1.83889
-1.64272e-07
0.00334142
-1.83889
-1.83033e-07
0.00334133
-1.83889
-1.95882e-07
0.00334122
-1.83889
-2.03055e-07
0.00334111
-1.83889
-2.04096e-07
0.003341
-1.83889
-1.99228e-07
0.00334089
-1.83889
-1.8884e-07
0.00334078
-1.83889
-1.73407e-07
0.00334067
-1.83889
-1.53438e-07
0.00334056
-1.83889
-1.29778e-07
0.00334046
-1.83889
-1.03395e-07
0.00334036
-1.83889
-7.44525e-08
0.00334028
-1.83889
-4.51362e-08
0.0033402
-1.83889
-1.71296e-08
0.00334013
-1.83889
2.51956e-09
0.00334007
-1.83889
0.0033398
-1.83887
1.32191e-08
0.017878
-1.84164
5.01468e-08
0.0178783
-1.84166
8.02766e-08
0.0178783
-1.84166
1.01906e-07
0.0178783
-1.84166
1.17602e-07
0.0178783
-1.84166
1.26524e-07
0.0178783
-1.84166
1.28889e-07
0.0178782
-1.84166
1.24593e-07
0.0178782
-1.84166
1.1499e-07
0.0178781
-1.84166
1.01395e-07
0.0178781
-1.84166
8.52069e-08
0.017878
-1.84166
6.80015e-08
0.017878
-1.84166
5.12397e-08
0.0178779
-1.84166
3.64589e-08
0.0178779
-1.84166
2.46734e-08
0.0178778
-1.84166
1.67021e-08
0.0178777
-1.84166
1.23153e-08
0.0178777
-1.84166
1.31389e-08
0.0178776
-1.84166
1.56914e-08
0.0178775
-1.84166
0.0178771
-1.84163
-3.80521e-08
0.0355407
-1.83424
-6.80498e-08
0.0355412
-1.83426
-9.67184e-08
0.0355412
-1.83426
-1.22563e-07
0.0355412
-1.83426
-1.43594e-07
0.0355411
-1.83426
-1.60375e-07
0.0355411
-1.83426
-1.72482e-07
0.0355411
-1.83426
-1.80522e-07
0.0355411
-1.83426
-1.84316e-07
0.035541
-1.83426
-1.84752e-07
0.035541
-1.83426
-1.81461e-07
0.035541
-1.83426
-1.74757e-07
0.0355409
-1.83426
-1.64711e-07
0.0355408
-1.83426
-1.51147e-07
0.0355408
-1.83426
-1.34373e-07
0.0355407
-1.83426
-1.14281e-07
0.0355406
-1.83426
-9.19027e-08
0.0355405
-1.83426
-6.62423e-08
0.0355405
-1.83426
-3.35176e-08
0.0355404
-1.83426
0.0355398
-1.83424
8.79045e-09
0.0459427
-1.82938
3.2805e-08
0.0459434
-1.82941
5.09511e-08
0.0459435
-1.82941
6.36202e-08
0.0459436
-1.82941
7.29043e-08
0.0459438
-1.82941
7.68603e-08
0.045944
-1.82941
7.60639e-08
0.0459442
-1.82941
6.92378e-08
0.0459444
-1.82941
5.58864e-08
0.0459446
-1.82941
3.70435e-08
0.0459448
-1.82941
1.30943e-08
0.045945
-1.82941
-1.40459e-08
0.0459452
-1.82941
-4.21692e-08
0.0459454
-1.82941
-6.7806e-08
0.0459454
-1.82941
-8.79406e-08
0.0459455
-1.82941
-9.9069e-08
0.0459455
-1.82941
-9.99837e-08
0.0459455
-1.82941
-8.7318e-08
0.0459455
-1.82941
-4.84676e-08
0.0459454
-1.82941
0.0459448
-1.82938
-1.2956e-07
0.0573007
-1.82964
-2.44409e-07
0.0573014
-1.82966
-3.52303e-07
0.0573014
-1.82966
-4.48057e-07
0.0573015
-1.82966
-5.28281e-07
0.0573016
-1.82966
-5.91418e-07
0.0573018
-1.82966
-6.37035e-07
0.0573019
-1.82966
-6.65414e-07
0.057302
-1.82966
-6.769e-07
0.0573022
-1.82966
-6.72651e-07
0.0573023
-1.82966
-6.53175e-07
0.0573024
-1.82966
-6.19543e-07
0.0573025
-1.82966
-5.72738e-07
0.0573026
-1.82966
-5.14774e-07
0.0573026
-1.82966
-4.48061e-07
0.0573026
-1.82966
-3.74819e-07
0.0573026
-1.82966
-2.95478e-07
0.0573026
-1.82966
-2.03957e-07
0.0573025
-1.82966
-9.60074e-08
0.0573025
-1.82966
0.0573018
-1.82964
-1.60574e-07
0.0683046
-1.83078
-3.09086e-07
0.0683054
-1.83081
-4.47945e-07
0.0683054
-1.83081
-5.69667e-07
0.0683055
-1.83081
-6.7104e-07
0.0683055
-1.83081
-7.49892e-07
0.0683056
-1.83081
-8.06509e-07
0.0683057
-1.83081
-8.41309e-07
0.0683058
-1.83081
-8.56126e-07
0.068306
-1.83081
-8.5242e-07
0.0683061
-1.83081
-8.32155e-07
0.0683061
-1.83081
-7.965e-07
0.0683062
-1.83081
-7.46898e-07
0.0683063
-1.83081
-6.83893e-07
0.0683063
-1.83081
-6.08615e-07
0.0683063
-1.83081
-5.20901e-07
0.0683063
-1.83081
-4.20538e-07
0.0683063
-1.83081
-3.01984e-07
0.0683062
-1.83081
-1.5527e-07
0.0683062
-1.83081
0.0683054
-1.83079
-1.14143e-07
0.0780967
-1.8396
-2.02098e-07
0.0780975
-1.83962
-2.87796e-07
0.0780976
-1.83962
-3.66716e-07
0.0780978
-1.83962
-4.35402e-07
0.078098
-1.83962
-4.92503e-07
0.0780982
-1.83962
-5.37723e-07
0.0780984
-1.83962
-5.71091e-07
0.0780986
-1.83962
-5.92773e-07
0.0780989
-1.83962
-6.02691e-07
0.0780991
-1.83962
-6.0055e-07
0.0780993
-1.83962
-5.85511e-07
0.0780995
-1.83962
-5.56983e-07
0.0780997
-1.83962
-5.14539e-07
0.0780998
-1.83962
-4.58905e-07
0.0780999
-1.83962
-3.90935e-07
0.0780999
-1.83962
-3.10825e-07
0.0781
-1.83962
-2.13381e-07
0.0781
-1.83962
-9.53196e-08
0.0781
-1.83962
0.0780992
-1.8396
-2.29562e-07
0.087743
-1.83921
-4.48758e-07
0.0877439
-1.83923
-6.51674e-07
0.0877439
-1.83923
-8.29151e-07
0.0877441
-1.83923
-9.78026e-07
0.0877442
-1.83923
-1.09501e-06
0.0877444
-1.83923
-1.17942e-06
0.0877446
-1.83923
-1.23114e-06
0.0877448
-1.83923
-1.25193e-06
0.087745
-1.83923
-1.2434e-06
0.0877452
-1.83923
-1.20811e-06
0.0877454
-1.83923
-1.14799e-06
0.0877455
-1.83923
-1.06548e-06
0.0877457
-1.83923
-9.62247e-07
0.0877458
-1.83923
-8.40783e-07
0.0877459
-1.83923
-7.02773e-07
0.0877459
-1.83923
-5.50341e-07
0.087746
-1.83923
-3.80569e-07
0.087746
-1.83923
-1.88997e-07
0.087746
-1.83923
0.0877451
-1.83921
-1.36425e-07
0.0932116
-1.8567
-2.29984e-07
0.0932125
-1.85672
-3.23918e-07
0.0932126
-1.85672
-4.13876e-07
0.0932128
-1.85672
-4.94576e-07
0.0932131
-1.85672
-5.63557e-07
0.0932134
-1.85672
-6.20254e-07
0.0932137
-1.85672
-6.63828e-07
0.093214
-1.85672
-6.93683e-07
0.0932144
-1.85672
-7.08905e-07
0.0932147
-1.85672
-7.08237e-07
0.0932151
-1.85672
-6.90361e-07
0.0932154
-1.85672
-6.53831e-07
0.0932156
-1.85672
-5.98221e-07
0.0932159
-1.85672
-5.24316e-07
0.093216
-1.85672
-4.34785e-07
0.0932162
-1.85672
-3.30106e-07
0.0932163
-1.85672
-2.08526e-07
0.0932163
-1.85672
-7.78577e-08
0.0932163
-1.85672
0.0932155
-1.8567
-2.78306e-07
0.0985144
-1.85391
-5.42636e-07
0.0985153
-1.85393
-7.88282e-07
0.0985154
-1.85393
-1.00238e-06
0.0985156
-1.85393
-1.18337e-06
0.0985158
-1.85393
-1.32671e-06
0.098516
-1.85393
-1.43044e-06
0.0985163
-1.85393
-1.49323e-06
0.0985166
-1.85393
-1.51664e-06
0.0985169
-1.85393
-1.50189e-06
0.0985172
-1.85394
-1.45207e-06
0.0985174
-1.85394
-1.36963e-06
0.0985177
-1.85394
-1.25803e-06
0.0985179
-1.85394
-1.12057e-06
0.0985181
-1.85394
-9.61781e-07
0.0985183
-1.85394
-7.85107e-07
0.0985184
-1.85394
-5.95581e-07
0.0985184
-1.85394
-3.9765e-07
0.0985184
-1.85394
-1.89042e-07
0.0985184
-1.85394
0.0985175
-1.85391
-1.50025e-07
0.0947185
-1.87817
-2.37969e-07
0.0947192
-1.87819
-3.34573e-07
0.0947194
-1.87819
-4.33644e-07
0.0947196
-1.87819
-5.24978e-07
0.0947198
-1.87819
-6.04075e-07
0.0947201
-1.87819
-6.70549e-07
0.0947205
-1.87819
-7.22658e-07
0.0947208
-1.87819
-7.58751e-07
0.0947211
-1.87819
-7.77012e-07
0.0947215
-1.87819
-7.75354e-07
0.0947218
-1.87819
-7.52097e-07
0.0947221
-1.87819
-7.05779e-07
0.0947224
-1.87819
-6.37516e-07
0.0947227
-1.87819
-5.49067e-07
0.0947228
-1.8782
-4.4753e-07
0.094723
-1.8782
-3.33085e-07
0.0947231
-1.8782
-2.03315e-07
0.0947231
-1.8782
-6.54019e-08
0.0947231
-1.8782
0.0947224
-1.87817
-3.01527e-07
0.0902573
-1.8717
-5.83924e-07
0.0902579
-1.87172
-8.5321e-07
0.0902581
-1.87172
-1.09742e-06
0.0902582
-1.87172
-1.30433e-06
0.0902584
-1.87173
-1.46672e-06
0.0902586
-1.87173
-1.58375e-06
0.0902588
-1.87173
-1.65346e-06
0.0902591
-1.87173
-1.67687e-06
0.0902593
-1.87173
-1.65513e-06
0.0902596
-1.87173
-1.59142e-06
0.0902598
-1.87173
-1.48936e-06
0.0902601
-1.87173
-1.35409e-06
0.0902603
-1.87173
-1.19194e-06
0.0902604
-1.87173
-1.01029e-06
0.0902606
-1.87173
-8.1871e-07
0.0902607
-1.87173
-6.20992e-07
0.0902607
-1.87173
-4.13461e-07
0.0902607
-1.87173
-1.94112e-07
0.0902607
-1.87173
0.0902601
-1.87171
-1.90911e-07
0.069156
-1.89548
-2.93019e-07
0.0691564
-1.8955
-4.29036e-07
0.0691566
-1.8955
-5.5982e-07
0.0691567
-1.8955
-6.75864e-07
0.0691569
-1.8955
-7.77476e-07
0.0691571
-1.8955
-8.59583e-07
0.0691574
-1.8955
-9.21415e-07
0.0691576
-1.8955
-9.59976e-07
0.0691579
-1.8955
-9.73675e-07
0.0691581
-1.8955
-9.60875e-07
0.0691584
-1.8955
-9.20465e-07
0.0691586
-1.8955
-8.53448e-07
0.0691589
-1.8955
-7.62067e-07
0.069159
-1.89551
-6.52461e-07
0.0691592
-1.89551
-5.29239e-07
0.0691593
-1.89551
-3.99651e-07
0.0691594
-1.89551
-2.64651e-07
0.0691595
-1.89551
-9.23235e-08
0.0691594
-1.89551
0.0691591
-1.89548
-2.50558e-07
0.0466135
-1.8836
-5.06707e-07
0.0466137
-1.88362
-7.92631e-07
0.046614
-1.88362
-1.03614e-06
0.0466141
-1.88362
-1.23616e-06
0.0466142
-1.88362
-1.39658e-06
0.0466144
-1.88362
-1.51211e-06
0.0466145
-1.88362
-1.58292e-06
0.0466147
-1.88362
-1.60761e-06
0.0466149
-1.88362
-1.58745e-06
0.046615
-1.88362
-1.52457e-06
0.0466152
-1.88362
-1.42247e-06
0.0466153
-1.88362
-1.28742e-06
0.0466155
-1.88362
-1.1262e-06
0.0466156
-1.88362
-9.50532e-07
0.0466157
-1.88362
-7.67166e-07
0.0466157
-1.88362
-5.93796e-07
0.0466158
-1.88362
-4.34635e-07
0.0466158
-1.88362
-2.22321e-07
0.0466156
-1.88362
0.0466154
-1.8836
-1.14163e-07
-1.88311
-3.78925e-07
-1.88313
-6.32072e-07
-1.88313
-8.73741e-07
-1.88313
-1.05134e-06
-1.88313
-1.20237e-06
-1.88313
-1.31349e-06
-1.88313
-1.38916e-06
-1.88313
-1.42553e-06
-1.88313
-1.42129e-06
-1.88313
-1.37796e-06
-1.88313
-1.29759e-06
-1.88313
-1.18591e-06
-1.88313
-1.04752e-06
-1.88313
-8.96517e-07
-1.88313
-7.32756e-07
-1.88313
-6.02743e-07
-1.88313
-4.60224e-07
-1.88313
-3.11497e-07
-1.88313
-1.88311
5.3899e-08
0.00472118
-1.86272
-1.24953e-08
0.00472138
-1.86274
-3.99181e-08
0.00472127
-1.86274
-6.6097e-08
0.00472124
-1.86274
-7.72824e-08
0.00472117
-1.86274
-9.28343e-08
0.0047211
-1.86274
-1.05357e-07
0.00472102
-1.86274
-1.1807e-07
0.00472094
-1.86274
-1.27393e-07
0.00472086
-1.86274
-1.33884e-07
0.00472077
-1.86274
-1.35969e-07
0.00472069
-1.86274
-1.33765e-07
0.00472061
-1.86274
-1.27436e-07
0.00472055
-1.86274
-1.16296e-07
0.00472049
-1.86274
-1.04381e-07
0.00472044
-1.86274
-8.70855e-08
0.0047204
-1.86274
-8.07863e-08
0.00472038
-1.86274
-7.11969e-08
0.00472035
-1.86274
-1.05485e-07
0.0047204
-1.86274
0.00472019
-1.86272
-1.1494e-07
0.00411174
-1.85616
-1.96347e-07
0.004112
-1.85619
-2.85674e-07
0.00411193
-1.85619
-3.61248e-07
0.0041119
-1.85619
-4.25336e-07
0.00411185
-1.85619
-4.77628e-07
0.0041118
-1.85619
-5.16074e-07
0.00411174
-1.85619
-5.40278e-07
0.00411167
-1.85619
-5.49226e-07
0.00411161
-1.85619
-5.4323e-07
0.00411155
-1.85619
-5.22662e-07
0.00411149
-1.85619
-4.89229e-07
0.00411143
-1.85619
-4.44556e-07
0.00411139
-1.85619
-3.91141e-07
0.00411135
-1.85619
-3.31511e-07
0.00411133
-1.85619
-2.68205e-07
0.00411131
-1.85619
-2.00866e-07
0.00411131
-1.85619
-1.34177e-07
0.0041113
-1.85619
-5.86167e-08
0.00411134
-1.85619
0.00411109
-1.85616
6.45197e-08
0.00333293
-1.86366
1.71297e-07
0.00333319
-1.86368
2.54295e-07
0.00333314
-1.86368
3.31261e-07
0.00333312
-1.86368
3.91102e-07
0.00333307
-1.86368
4.3424e-07
0.00333303
-1.86368
4.59107e-07
0.00333297
-1.86368
4.68855e-07
0.00333292
-1.86368
4.64079e-07
0.00333286
-1.86368
4.48241e-07
0.00333281
-1.86368
4.22789e-07
0.00333276
-1.86368
3.91018e-07
0.00333271
-1.86368
3.54669e-07
0.00333267
-1.86368
3.14642e-07
0.00333264
-1.86368
2.73654e-07
0.00333261
-1.86368
2.30072e-07
0.00333259
-1.86368
1.85636e-07
0.00333259
-1.86368
1.31636e-07
0.00333258
-1.86368
8.21874e-08
0.0033326
-1.86368
0.00333235
-1.86366
-9.18382e-08
0.00742041
-1.85231
-1.54831e-07
0.00742068
-1.85233
-2.16449e-07
0.00742062
-1.85233
-2.72736e-07
0.00742057
-1.85233
-3.22149e-07
0.00742049
-1.85233
-3.59623e-07
0.0074204
-1.85233
-3.86676e-07
0.0074203
-1.85233
-4.01265e-07
0.00742019
-1.85233
-4.03764e-07
0.00742008
-1.85233
-3.93865e-07
0.00741997
-1.85233
-3.72542e-07
0.00741987
-1.85233
-3.41362e-07
0.00741978
-1.85233
-3.01664e-07
0.00741969
-1.85233
-2.56964e-07
0.00741961
-1.85233
-2.07106e-07
0.00741955
-1.85233
-1.57803e-07
0.00741949
-1.85233
-1.05973e-07
0.00741945
-1.85233
-5.3408e-08
0.00741941
-1.85233
-1.29074e-08
0.0074194
-1.85233
0.00741911
-1.85231
9.0256e-08
0.011343
-1.857
2.09497e-07
0.0113433
-1.85702
3.15373e-07
0.0113432
-1.85702
4.03981e-07
0.0113432
-1.85702
4.74279e-07
0.0113432
-1.85702
5.26746e-07
0.0113431
-1.85702
5.59331e-07
0.0113431
-1.85702
5.74082e-07
0.011343
-1.85702
5.72234e-07
0.011343
-1.85702
5.56857e-07
0.0113429
-1.85702
5.30947e-07
0.0113429
-1.85702
4.95265e-07
0.0113428
-1.85702
4.54228e-07
0.0113428
-1.85702
4.08422e-07
0.0113427
-1.85702
3.6001e-07
0.0113427
-1.85702
3.063e-07
0.0113426
-1.85702
2.49975e-07
0.0113426
-1.85702
1.88071e-07
0.0113425
-1.85702
1.11329e-07
0.0113425
-1.85702
0.0113422
-1.857
-5.14482e-08
0.0197952
-1.84732
-8.87114e-08
0.0197956
-1.84735
-1.2414e-07
0.0197955
-1.84735
-1.5201e-07
0.0197954
-1.84735
-1.74516e-07
0.0197953
-1.84735
-1.92382e-07
0.0197952
-1.84735
-2.03699e-07
0.0197951
-1.84735
-2.08597e-07
0.0197949
-1.84735
-2.06717e-07
0.0197948
-1.84735
-1.98407e-07
0.0197946
-1.84735
-1.8411e-07
0.0197945
-1.84735
-1.649e-07
0.0197943
-1.84735
-1.41609e-07
0.0197942
-1.84735
-1.15313e-07
0.0197941
-1.84735
-8.69917e-08
0.0197939
-1.84735
-5.6797e-08
0.0197938
-1.84734
-2.65918e-08
0.0197937
-1.84734
-4.22514e-09
0.0197936
-1.84734
7.38746e-09
0.0197936
-1.84734
0.0197932
-1.84732
5.18946e-08
0.0279228
-1.84976
1.28609e-07
0.0279232
-1.84979
1.97182e-07
0.0279231
-1.84979
2.55205e-07
0.0279231
-1.84979
3.02186e-07
0.027923
-1.84979
3.37387e-07
0.0279229
-1.84979
3.59884e-07
0.0279228
-1.84979
3.70006e-07
0.0279228
-1.84979
3.68719e-07
0.0279227
-1.84979
3.5723e-07
0.0279225
-1.84979
3.37583e-07
0.0279224
-1.84979
3.11816e-07
0.0279223
-1.84979
2.80603e-07
0.0279222
-1.84979
2.47665e-07
0.0279221
-1.84979
2.13851e-07
0.027922
-1.84979
1.80188e-07
0.0279219
-1.84979
1.46268e-07
0.0279218
-1.84979
1.09684e-07
0.0279217
-1.84979
6.80734e-08
0.0279216
-1.84979
0.0279212
-1.84976
-4.55771e-08
0.038919
-1.84524
-8.59912e-08
0.0389195
-1.84526
-1.2286e-07
0.0389194
-1.84526
-1.52027e-07
0.0389194
-1.84526
-1.75154e-07
0.0389193
-1.84526
-1.92642e-07
0.0389192
-1.84526
-2.0405e-07
0.038919
-1.84526
-2.10092e-07
0.0389189
-1.84526
-2.10939e-07
0.0389188
-1.84526
-2.07338e-07
0.0389186
-1.84526
-1.99583e-07
0.0389185
-1.84526
-1.88383e-07
0.0389183
-1.84526
-1.73233e-07
0.0389182
-1.84526
-1.54847e-07
0.038918
-1.84526
-1.33547e-07
0.0389179
-1.84526
-1.08923e-07
0.0389177
-1.84526
-8.24072e-08
0.0389176
-1.84526
-5.6876e-08
0.0389175
-1.84526
-2.73259e-08
0.0389174
-1.84526
0.0389168
-1.84524
2.14606e-08
0.0428619
-1.83333
5.96182e-08
0.0428624
-1.83335
9.39178e-08
0.0428624
-1.83335
1.25856e-07
0.0428625
-1.83335
1.53714e-07
0.0428625
-1.83335
1.76077e-07
0.0428626
-1.83335
1.91297e-07
0.0428627
-1.83335
1.97834e-07
0.0428628
-1.83335
1.9483e-07
0.0428629
-1.83335
1.81953e-07
0.042863
-1.83335
1.5972e-07
0.0428631
-1.83335
1.29868e-07
0.0428632
-1.83335
9.51061e-08
0.0428632
-1.83335
5.98665e-08
0.0428633
-1.83335
2.78745e-08
0.0428633
-1.83335
3.7624e-09
0.0428633
-1.83335
-1.3374e-08
0.0428632
-1.83335
-2.28086e-08
0.0428632
-1.83335
-1.27659e-08
0.0428631
-1.83335
0.0428626
-1.83333
-1.84943e-07
0.0476817
-1.83446
-3.52623e-07
0.0476823
-1.83448
-5.08264e-07
0.0476822
-1.83448
-6.44367e-07
0.0476822
-1.83448
-7.58953e-07
0.0476821
-1.83448
-8.4894e-07
0.047682
-1.83448
-9.13591e-07
0.0476819
-1.83448
-9.52501e-07
0.0476818
-1.83448
-9.65696e-07
0.0476817
-1.83448
-9.54482e-07
0.0476816
-1.83448
-9.19633e-07
0.0476815
-1.83448
-8.62811e-07
0.0476814
-1.83448
-7.86374e-07
0.0476812
-1.83448
-6.94104e-07
0.0476811
-1.83448
-5.90865e-07
0.047681
-1.83448
-4.79947e-07
0.0476809
-1.83448
-3.63202e-07
0.0476808
-1.83448
-2.35552e-07
0.0476807
-1.83448
-1.00238e-07
0.0476807
-1.83448
0.0476801
-1.83446
-1.94601e-07
0.0519861
-1.83509
-3.79171e-07
0.0519867
-1.83511
-5.48277e-07
0.0519866
-1.83511
-6.94121e-07
0.0519866
-1.83511
-8.15411e-07
0.0519866
-1.83511
-9.09281e-07
0.0519865
-1.83511
-9.76328e-07
0.0519865
-1.83511
-1.01614e-06
0.0519864
-1.83511
-1.03142e-06
0.0519863
-1.83511
-1.02355e-06
0.0519863
-1.83511
-9.9463e-07
0.0519862
-1.83511
-9.46255e-07
0.0519861
-1.83511
-8.79963e-07
0.0519861
-1.83511
-7.96751e-07
0.051986
-1.83511
-6.98149e-07
0.0519859
-1.83511
-5.84778e-07
0.0519858
-1.83511
-4.582e-07
0.0519858
-1.83512
-3.16008e-07
0.0519857
-1.83512
-1.54245e-07
0.0519857
-1.83512
0.0519852
-1.83509
-1.56739e-07
0.0548072
-1.84242
-2.82735e-07
0.0548077
-1.84244
-4.00345e-07
0.0548077
-1.84244
-5.04247e-07
0.0548077
-1.84244
-5.92249e-07
0.0548077
-1.84244
-6.61893e-07
0.0548077
-1.84244
-7.13724e-07
0.0548077
-1.84244
-7.47359e-07
0.0548077
-1.84244
-7.63784e-07
0.0548077
-1.84244
-7.62902e-07
0.0548077
-1.84244
-7.45222e-07
0.0548077
-1.84244
-7.10354e-07
0.0548077
-1.84244
-6.58374e-07
0.0548077
-1.84244
-5.90045e-07
0.0548077
-1.84244
-5.07387e-07
0.0548076
-1.84244
-4.13067e-07
0.0548076
-1.84244
-3.09503e-07
0.0548076
-1.84244
-1.96929e-07
0.0548076
-1.84244
-7.76295e-08
0.0548076
-1.84244
0.0548071
-1.84242
-3.03754e-07
0.0572015
-1.8416
-5.99771e-07
0.057202
-1.84162
-8.7264e-07
0.057202
-1.84162
-1.10667e-06
0.057202
-1.84162
-1.30367e-06
0.057202
-1.84162
-1.4583e-06
0.057202
-1.84162
-1.56958e-06
0.0572019
-1.84162
-1.63667e-06
0.0572019
-1.84163
-1.66157e-06
0.0572019
-1.84163
-1.64612e-06
0.0572019
-1.84163
-1.59358e-06
0.0572018
-1.84163
-1.50672e-06
0.0572018
-1.84163
-1.3887e-06
0.0572018
-1.84163
-1.24285e-06
0.0572017
-1.84163
-1.07226e-06
0.0572017
-1.84163
-8.80654e-07
0.0572017
-1.84163
-6.71459e-07
0.0572017
-1.84163
-4.52333e-07
0.0572017
-1.84163
-2.19547e-07
0.0572017
-1.84163
0.0572012
-1.84161
-1.78121e-07
0.0555757
-1.85507
-3.09517e-07
0.0555761
-1.85509
-4.3406e-07
0.0555762
-1.85509
-5.48186e-07
0.0555762
-1.85509
-6.46951e-07
0.0555763
-1.85509
-7.26441e-07
0.0555764
-1.85509
-7.87412e-07
0.0555766
-1.85509
-8.28653e-07
0.0555767
-1.8551
-8.50672e-07
0.0555768
-1.8551
-8.52587e-07
0.0555769
-1.8551
-8.3388e-07
0.0555771
-1.8551
-7.93416e-07
0.0555772
-1.8551
-7.30828e-07
0.0555773
-1.8551
-6.46662e-07
0.0555774
-1.8551
-5.4323e-07
0.0555775
-1.8551
-4.26578e-07
0.0555775
-1.8551
-3.01031e-07
0.0555776
-1.8551
-1.70769e-07
0.0555776
-1.8551
-5.12241e-08
0.0555777
-1.8551
0.0555773
-1.85508
-3.80912e-07
0.0534945
-1.85183
-7.50912e-07
0.0534949
-1.85185
-1.09533e-06
0.0534949
-1.85185
-1.38582e-06
0.053495
-1.85185
-1.63327e-06
0.053495
-1.85185
-1.83014e-06
0.0534951
-1.85185
-1.9731e-06
0.0534952
-1.85185
-2.05898e-06
0.0534953
-1.85185
-2.09022e-06
0.0534953
-1.85185
-2.06766e-06
0.0534954
-1.85185
-1.99597e-06
0.0534955
-1.85185
-1.87819e-06
0.0534956
-1.85185
-1.71948e-06
0.0534956
-1.85185
-1.52468e-06
0.0534957
-1.85186
-1.29897e-06
0.0534958
-1.85186
-1.04821e-06
0.0534958
-1.85186
-7.77898e-07
0.0534959
-1.85186
-5.116e-07
0.0534959
-1.85186
-2.40935e-07
0.0534959
-1.85186
0.0534956
-1.85183
-1.8274e-07
0.0451076
-1.86978
-3.01735e-07
0.0451078
-1.86981
-4.20684e-07
0.045108
-1.86981
-5.42723e-07
0.0451081
-1.86981
-6.502e-07
0.0451083
-1.86981
-7.35699e-07
0.0451084
-1.86981
-8.03092e-07
0.0451087
-1.86981
-8.49562e-07
0.0451089
-1.86981
-8.75322e-07
0.0451091
-1.86981
-8.77931e-07
0.0451093
-1.86981
-8.56645e-07
0.0451096
-1.86981
-8.09725e-07
0.0451098
-1.86981
-7.37046e-07
0.04511
-1.86981
-6.41062e-07
0.0451101
-1.86981
-5.25607e-07
0.0451103
-1.86981
-4.0371e-07
0.0451104
-1.86981
-2.77659e-07
0.0451105
-1.86981
-1.46115e-07
0.0451106
-1.86981
-3.29765e-08
0.0451106
-1.86981
0.0451104
-1.86979
-4.16533e-07
0.0362892
-1.86288
-8.11483e-07
0.0362893
-1.86291
-1.17968e-06
0.0362894
-1.86291
-1.51844e-06
0.0362894
-1.86291
-1.80616e-06
0.0362896
-1.86291
-2.03079e-06
0.0362897
-1.86291
-2.19334e-06
0.0362898
-1.86291
-2.29002e-06
0.0362899
-1.86291
-2.32318e-06
0.0362901
-1.86291
-2.29378e-06
0.0362902
-1.86291
-2.2069e-06
0.0362904
-1.86291
-2.06689e-06
0.0362905
-1.86291
-1.88082e-06
0.0362906
-1.86291
-1.65718e-06
0.0362907
-1.86291
-1.40463e-06
0.0362908
-1.86291
-1.13723e-06
0.0362909
-1.86291
-8.5951e-07
0.0362909
-1.86291
-5.65362e-07
0.036291
-1.86291
-2.66008e-07
0.0362909
-1.86291
0.0362908
-1.86289
-1.74812e-07
0.0208571
-1.88005
-2.99926e-07
0.0208571
-1.88007
-4.47543e-07
0.0208573
-1.88007
-5.7565e-07
0.0208574
-1.88007
-6.84614e-07
0.0208575
-1.88007
-7.79147e-07
0.0208576
-1.88007
-8.52648e-07
0.0208578
-1.88007
-9.0569e-07
0.0208579
-1.88007
-9.34942e-07
0.0208581
-1.88007
-9.38751e-07
0.0208582
-1.88007
-9.1595e-07
0.0208584
-1.88007
-8.64896e-07
0.0208585
-1.88007
-7.87519e-07
0.0208586
-1.88007
-6.85181e-07
0.0208587
-1.88007
-5.66124e-07
0.0208588
-1.88007
-4.35273e-07
0.0208589
-1.88007
-3.07863e-07
0.0208589
-1.88007
-1.99692e-07
0.020859
-1.88007
-7.59723e-08
0.0208589
-1.88007
0.0208589
-1.88005
-3.54663e-07
0.00563488
-1.86837
-7.28887e-07
0.00563495
-1.8684
-1.10123e-06
0.00563519
-1.8684
-1.42352e-06
0.00563528
-1.8684
-1.69216e-06
0.00563542
-1.8684
-1.90693e-06
0.00563555
-1.8684
-2.06175e-06
0.00563571
-1.8684
-2.15556e-06
0.00563588
-1.8684
-2.18734e-06
0.00563605
-1.8684
-2.15864e-06
0.00563622
-1.8684
-2.07347e-06
0.00563639
-1.8684
-1.93636e-06
0.00563655
-1.8684
-1.75595e-06
0.00563669
-1.8684
-1.54058e-06
0.00563682
-1.8684
-1.30408e-06
0.00563692
-1.8684
-1.05573e-06
0.005637
-1.8684
-8.11328e-07
0.00563704
-1.8684
-5.76611e-07
0.00563709
-1.8684
-3.03397e-07
0.00563693
-1.8684
0.00563691
-1.86838
-9.51723e-08
-1.87747
-4.09078e-07
-1.87749
-7.24509e-07
-1.87749
-9.82373e-07
-1.87749
-1.17531e-06
-1.87749
-1.33588e-06
-1.87749
-1.45242e-06
-1.87749
-1.52915e-06
-1.87749
-1.56267e-06
-1.87749
-1.55324e-06
-1.87749
-1.50181e-06
-1.87749
-1.41045e-06
-1.87749
-1.28611e-06
-1.87749
-1.13111e-06
-1.87749
-9.63697e-07
-1.87749
-7.83752e-07
-1.87749
-6.34892e-07
-1.87749
-5.16363e-07
-1.87749
-3.73505e-07
-1.87749
-1.87747
-4.7119e-08
-0.00101016
-1.86171
-1.37367e-07
-0.00100998
-1.86173
-1.13656e-07
-0.00101001
-1.86173
-1.36179e-07
-0.00100998
-1.86173
-1.47663e-07
-0.00101
-1.86173
-1.67913e-07
-0.00101
-1.86173
-1.82123e-07
-0.00101
-1.86173
-1.95442e-07
-0.00101001
-1.86173
-2.02487e-07
-0.00101001
-1.86173
-2.05407e-07
-0.00101002
-1.86173
-2.02109e-07
-0.00101003
-1.86173
-1.93458e-07
-0.00101003
-1.86173
-1.79889e-07
-0.00101004
-1.86173
-1.60836e-07
-0.00101004
-1.86173
-1.39788e-07
-0.00101004
-1.86173
-1.06265e-07
-0.00101005
-1.86173
-7.81548e-08
-0.00101003
-1.86173
4.42886e-09
-0.00101006
-1.86173
-2.70782e-08
-0.00101003
-1.86173
-0.0010102
-1.86171
-1.53556e-07
-0.000418144
-1.85676
-1.66996e-07
-0.000418074
-1.85678
-1.93874e-07
-0.000418123
-1.85678
-2.29117e-07
-0.000418125
-1.85678
-2.6146e-07
-0.000418172
-1.85678
-2.93485e-07
-0.000418207
-1.85678
-3.1671e-07
-0.00041826
-1.85678
-3.33451e-07
-0.000418311
-1.85678
-3.4025e-07
-0.000418366
-1.85678
-3.38392e-07
-0.00041842
-1.85678
-3.27381e-07
-0.000418471
-1.85678
-3.07989e-07
-0.000418519
-1.85678
-2.81862e-07
-0.000418558
-1.85678
-2.49063e-07
-0.000418593
-1.85678
-2.12747e-07
-0.000418614
-1.85678
-1.67562e-07
-0.000418637
-1.85678
-1.14424e-07
-0.000418636
-1.85678
-4.30686e-08
-0.000418663
-1.85678
4.17494e-08
-0.00041863
-1.85678
-0.000418703
-1.85676
2.81649e-08
-0.000776988
-1.8633
1.60085e-07
-0.00077694
-1.86332
2.54238e-07
-0.000776953
-1.86332
3.4467e-07
-0.000776952
-1.86332
4.15124e-07
-0.000776964
-1.86332
4.65831e-07
-0.000776964
-1.86332
4.98188e-07
-0.000776975
-1.86332
5.14192e-07
-0.000776984
-1.86332
5.16111e-07
-0.000776997
-1.86332
5.05624e-07
-0.000777008
-1.86332
4.84651e-07
-0.000777019
-1.86332
4.55295e-07
-0.000777029
-1.86332
4.19968e-07
-0.000777036
-1.86332
3.77977e-07
-0.00077704
-1.86332
3.33684e-07
-0.00077704
-1.86332
2.86488e-07
-0.000777042
-1.86332
2.40541e-07
-0.00077703
-1.86332
1.79462e-07
-0.000777021
-1.86332
1.38649e-07
-0.000777
-1.86332
-0.000777037
-1.8633
-8.15527e-08
0.00426851
-1.85735
-1.06829e-07
0.00426861
-1.85738
-1.38087e-07
0.00426857
-1.85738
-1.71569e-07
0.00426855
-1.85738
-2.0402e-07
0.0042685
-1.85738
-2.28817e-07
0.00426846
-1.85738
-2.48183e-07
0.0042684
-1.85738
-2.59692e-07
0.00426834
-1.85738
-2.63162e-07
0.00426828
-1.85738
-2.58315e-07
0.00426822
-1.85738
-2.45046e-07
0.00426816
-1.85738
-2.25347e-07
0.00426811
-1.85738
-1.99428e-07
0.00426806
-1.85738
-1.70312e-07
0.00426802
-1.85738
-1.37365e-07
0.00426798
-1.85738
-1.03331e-07
0.00426795
-1.85738
-6.35402e-08
0.00426793
-1.85738
-1.97161e-08
0.0042679
-1.85738
1.80599e-08
0.0042679
-1.85738
0.00426779
-1.85735
9.43372e-08
0.00882591
-1.86156
2.40364e-07
0.00882606
-1.86158
3.65716e-07
0.00882603
-1.86158
4.72502e-07
0.00882599
-1.86158
5.57329e-07
0.00882593
-1.86158
6.22886e-07
0.00882586
-1.86158
6.66084e-07
0.00882578
-1.86158
6.8944e-07
0.00882569
-1.86158
6.93882e-07
0.00882561
-1.86158
6.82401e-07
0.00882552
-1.86158
6.57408e-07
0.00882544
-1.86158
6.21436e-07
0.00882536
-1.86158
5.74862e-07
0.00882528
-1.86158
5.20488e-07
0.00882521
-1.86158
4.6097e-07
0.00882515
-1.86158
3.93464e-07
0.00882509
-1.86158
3.21738e-07
0.00882504
-1.86158
2.40726e-07
0.00882498
-1.86158
1.50434e-07
0.00882495
-1.86158
0.00882477
-1.86156
-3.99534e-08
0.0176811
-1.85618
-5.7169e-08
0.0176813
-1.8562
-7.62066e-08
0.0176812
-1.8562
-8.83266e-08
0.0176812
-1.8562
-9.90075e-08
0.017681
-1.8562
-1.08668e-07
0.0176809
-1.8562
-1.14917e-07
0.0176807
-1.8562
-1.17668e-07
0.0176805
-1.8562
-1.15526e-07
0.0176804
-1.8562
-1.09586e-07
0.0176802
-1.8562
-9.97369e-08
0.01768
-1.8562
-8.6811e-08
0.0176798
-1.8562
-7.15532e-08
0.0176797
-1.8562
-5.45469e-08
0.0176795
-1.8562
-3.6255e-08
0.0176794
-1.8562
-1.50541e-08
0.0176793
-1.8562
7.91269e-09
0.0176791
-1.8562
2.15717e-08
0.017679
-1.8562
2.47088e-08
0.017679
-1.8562
0.0176787
-1.85617
5.22005e-08
0.0263172
-1.8584
1.39996e-07
0.0263175
-1.85842
2.17786e-07
0.0263174
-1.85842
2.84485e-07
0.0263174
-1.85842
3.39333e-07
0.0263172
-1.85842
3.82073e-07
0.0263171
-1.85842
4.12063e-07
0.0263169
-1.85842
4.28196e-07
0.0263168
-1.85842
4.32534e-07
0.0263166
-1.85842
4.25888e-07
0.0263164
-1.85842
4.09897e-07
0.0263163
-1.85842
3.86081e-07
0.0263161
-1.85842
3.56317e-07
0.0263159
-1.85842
3.21896e-07
0.0263158
-1.85842
2.84646e-07
0.0263156
-1.85842
2.44732e-07
0.0263155
-1.85842
2.01572e-07
0.0263154
-1.85842
1.52112e-07
0.0263153
-1.85842
9.61329e-08
0.0263152
-1.85842
0.0263148
-1.8584
-5.20119e-08
0.0370022
-1.85592
-9.01103e-08
0.0370026
-1.85595
-1.26042e-07
0.0370025
-1.85595
-1.53367e-07