/*--------------------------------*- C++ -*----------------------------------*\
| =========                 |                                                 |
| \\      /  F ield         | OpenFOAM: The Open Source CFD Toolbox           |
|  \\    /   O peration     | Version:  2212                                  |
|   \\  /    A nd           | Website:  www.openfoam.com                      |
|    \\/     M anipulation  |                                                 |
\*---------------------------------------------------------------------------*/
FoamFile
{
    version     2.0;
    format      ascii;
    arch        "LSB;label=32;scalar=64";
    class       surfaceScalarField;
    location    "0.0215";
    object      phi;
}
// * * * * * * * * * * * * * * * * * * * * * * * * * * * * * * * * * * * * * //

dimensions      [1 0 -1 0 0 0 0];

oriented        oriented;

internalField   nonuniform List<scalar> 
4475
(
1.97985e-05
-1.32346e-05
2.68202e-05
-3.4345e-05
-5.17723e-06
1.91722e-05
6.16885e-07
-1.36529e-05
4.71144e-05
-5.48536e-05
4.57093e-06
-1.71231e-06
-1.28883e-05
2.85778e-05
8.88572e-06
-2.92885e-05
-4.50266e-05
2.29738e-05
4.60455e-05
-2.50494e-05
4.10593e-05
-1.29249e-05
-4.75789e-05
1.78824e-05
7.35597e-06
-6.17531e-06
4.66876e-05
-4.28264e-05
-2.92962e-05
-2.23155e-05
3.53896e-05
1.83467e-05
2.55676e-05
-4.38714e-05
-2.79518e-05
-6.77109e-05
1.97136e-06
5.75123e-06
6.86188e-05
-9.66086e-06
8.72566e-06
-5.74136e-05
-5.50257e-05
5.49114e-06
-8.72772e-07
5.70323e-05
-5.26692e-05
-3.3957e-06
5.41355e-06
-5.16028e-05
-7.21618e-06
8.67784e-06
-5.09238e-05
-9.87047e-06
1.06509e-05
-5.00277e-05
-1.17638e-05
1.20302e-05
-1.27799e-05
-4.77358e-05
1.16144e-05
4.67299e-05
1.07351e-05
-4.56115e-05
-9.8182e-06
5.06519e-05
-1.4584e-05
5.26329e-05
-1.14346e-05
5.38439e-05
-8.47256e-06
5.55953e-05
-5.36258e-06
5.93854e-05
-1.62767e-06
7.15207e-05
1.68186e-06
7.14312e-05
2.02146e-07
7.57997e-05
5.94899e-06
0.00010418
1.60889e-05
-3.72318e-05
0.000104278
-3.00384e-06
6.70353e-06
4.83208e-05
-4.93121e-05
1.28382e-05
-4.62214e-05
1.04617e-05
0.000102254
-6.27219e-07
8.02283e-07
9.62645e-05
3.47301e-06
-3.33373e-06
8.81838e-05
8.15101e-06
-6.99652e-06
8.20182e-05
1.24111e-05
-9.44387e-06
8.22577e-05
1.39044e-05
-9.59135e-06
8.86357e-05
1.2708e-05
-7.9112e-06
0.000101128
8.93054e-06
-4.50589e-06
0.000115408
3.09204e-06
-2.47582e-07
0.000126596
-2.61009e-06
3.43035e-06
0.000131907
-7.15149e-06
5.49158e-06
0.00013189
-9.74651e-06
5.27297e-06
0.000129938
-9.95183e-06
3.19141e-06
0.000131082
-8.94196e-06
1.26647e-08
0.000137896
-8.29771e-06
-3.46241e-06
-7.89591e-06
0.000150758
-7.73647e-06
-0.000138674
0.000150534
-1.86789e-05
-0.000132259
-1.62371e-05
-0.000130701
-1.52234e-05
-0.000131603
-1.37569e-05
-0.000129452
-1.1394e-05
-0.000121611
-6.35271e-06
-0.000108772
2.62121e-07
-9.49949e-05
8.3624e-06
-8.45605e-05
1.44105e-05
-8.02123e-05
1.7703e-05
-8.36372e-05
1.78027e-05
-9.21924e-05
1.37802e-05
-0.000101118
7.98246e-06
-0.00010644
2.26951e-06
-0.000107208
-4.72079e-07
-0.000105794
1.86996e-06
-7.46125e-05
1.35811e-05
-3.49596e-05
-6.76889e-05
9.10679e-06
-5.66135e-05
6.81943e-06
-5.19856e-05
4.95957e-06
-2.80473e-06
-5.21313e-05
4.12766e-06
-5.03863e-05
6.81975e-06
-4.96442e-05
9.30349e-06
-4.93959e-05
1.07198e-05
-4.85162e-05
1.11544e-05
-4.82785e-05
1.14336e-05
-6.6487e-06
-1.217e-05
0.000165471
-2.19084e-05
0.000166831
5.14447e-05
-1.875e-05
-4.36445e-05
5.42725e-05
-1.07501e-05
5.61429e-05
-6.74077e-06
5.84779e-05
-3.27993e-06
6.31851e-05
-4.8894e-07
7.04715e-05
1.83023e-06
7.6204e-05
2.84868e-06
8.43577e-05
5.46427e-06
9.74649e-05
8.37047e-06
0.000100669
5.09412e-06
9.8288e-05
8.86737e-07
9.24944e-05
-2.55516e-06
8.55575e-05
-4.98441e-06
8.16729e-05
-6.2335e-06
8.41043e-05
-5.71596e-06
9.18366e-05
-4.10373e-06
0.000105302
-1.8941e-06
0.000118757
4.29959e-07
0.000128053
1.80777e-06
0.000131094
1.19212e-06
0.000129184
-1.97366e-06
0.000126428
-6.56743e-06
0.000127928
-1.22775e-05
0.000134024
-1.85728e-05
0.000145582
-2.55121e-05
1.02488e-05
-4.4726e-05
-8.79084e-06
-3.28978e-05
0.000159582
7.05166e-06
-4.16648e-05
-4.75303e-05
9.9902e-06
-0.000147102
0.000163495
-3.23555e-05
-0.000136026
-2.54058e-05
-0.000129965
-2.14298e-05
-0.000129309
-1.79142e-05
-0.000128428
-1.50626e-05
-0.00012378
-1.02049e-05
-0.000113868
-2.54144e-06
-0.000100966
5.88874e-06
-8.774e-05
1.43878e-05
-8.04053e-05
2.01423e-05
-7.99719e-05
2.21943e-05
-8.71868e-05
1.93436e-05
-9.79067e-05
1.28711e-05
-0.000106915
5.7402e-06
-0.000110886
4.24261e-07
-0.000108656
-1.17889e-06
-9.99427e-05
1.1939e-06
-8.07172e-05
5.95085e-06
-6.62933e-05
6.9751e-06
-5.64933e-05
7.37355e-06
-5.06479e-05
6.51125e-06
-4.85044e-05
6.55562e-06
-4.76886e-05
7.95948e-06
-4.76351e-05
9.26328e-06
-4.79403e-05
1.00829e-05
-4.78266e-05
1.00738e-05
-4.72101e-05
9.92883e-06
-3.19478e-05
3.50209e-05
-3.00955e-05
9.17952e-06
-4.58518e-05
-1.8949e-06
3.64604e-05
-1.49404e-05
-3.48988e-05
1.81902e-05
3.08687e-05
3.38898e-05
5.98461e-05
-7.67429e-06
6.59977e-06
-5.27254e-05
5.60615e-05
-9.55913e-06
5.7157e-05
-7.28746e-06
5.85444e-05
-3.81044e-06
6.10965e-05
-1.02521e-06
6.54205e-05
9.91686e-07
7.17594e-05
2.33875e-06
7.87287e-05
3.11932e-06
8.63926e-05
4.22831e-06
9.41089e-05
4.79373e-06
9.69427e-05
3.03938e-06
9.51606e-05
4.1777e-07
9.0014e-05
-1.63054e-06
8.42828e-05
-3.01107e-06
8.18371e-05
-3.27722e-06
8.52426e-05
-2.84085e-06
9.39735e-05
-1.90571e-06
0.00010698
-8.98597e-07
0.000119085
-6.94848e-07
0.000126352
-2.00891e-06
0.000127533
-5.78876e-06
0.000123372
-1.13783e-05
0.000119636
-1.84773e-05
0.000120453
-2.67431e-05
0.000126672
-3.52601e-05
0.000138001
-4.33329e-05
0.000151856
-5.10981e-05
3.97105e-05
0.00016105
-5.79117e-05
1.81073e-05
0.000167026
-4.2765e-06
0.000174642
-2.38422e-05
0.00017991
-3.41372e-05
3.70816e-05
-2.42736e-05
0.000179482
-3.80404e-05
-2.83495e-05
-3.07813e-05
2.95415e-05
-1.86754e-05
3.1937e-05
1.36232e-05
-2.44373e-05
6.1758e-06
-4.60636e-05
3.02234e-05
-2.63658e-05
4.14048e-05
-4.62921e-05
4.46671e-05
1.97832e-05
-4.14765e-05
-5.331e-05
-1.6905e-05
2.8518e-05
-4.76533e-05
9.6972e-06
4.65067e-05
-6.18466e-05
0.000160263
2.52808e-05
0.000166555
2.92136e-07
0.000174818
-2.37016e-05
0.000183939
-4.32583e-05
0.000189231
-0.00017389
-5.5817e-05
0.00018893
-0.000155245
-4.7112e-05
-0.000140841
-3.71433e-05
-0.000130481
-2.9444e-05
-0.000126736
-2.30544e-05
-0.000125424
-1.86564e-05
-0.000122831
-1.34985e-05
-0.000115543
-6.28654e-06
-0.000104105
3.09267e-06
-9.11552e-05
1.29511e-05
-8.12702e-05
2.10712e-05
-7.76049e-05
2.49649e-05
-8.21124e-05
2.38703e-05
-9.31649e-05
1.76648e-05
-0.000104926
9.18073e-06
-0.00011238
1.79012e-06
-0.00011335
-1.97458e-06
-0.000107739
-2.76748e-06
-9.55249e-05
-3.54964e-07
-7.94918e-05
3.39509e-06
-6.56678e-05
6.49963e-06
-5.47924e-05
7.18586e-06
-4.88427e-05
7.82082e-06
-4.6266e-05
7.95259e-06
-4.55812e-05
8.19199e-06
-4.59348e-05
8.87882e-06
-4.61585e-05
8.91528e-06
-4.65878e-05
8.94328e-06
8.36118e-06
-4.6572e-05
-9.99968e-06
1.32116e-05
-4.71532e-05
4.99476e-05
3.7217e-05
-5.71973e-05
4.76147e-05
-2.79008e-05
2.27313e-05
-2.4084e-05
4.62766e-05
3.29942e-05
-8.33629e-06
1.39404e-05
3.91626e-05
-5.15775e-06
3.61371e-06
4.40824e-05
-5.03122e-06
4.80989e-05
-5.65382e-06
8.57732e-06
5.1559e-05
-6.25231e-06
5.51571e-05
-5.77086e-06
9.22812e-06
5.88993e-05
-4.76379e-06
5.939e-05
-4.24839e-06
6.00128e-05
-2.86553e-06
6.0954e-05
-2.80543e-07
6.31589e-05
1.48586e-06
6.68987e-05
2.65504e-06
7.26353e-05
2.75901e-06
7.92916e-05
2.93806e-06
8.63914e-05
2.79211e-06
9.23127e-05
2.43523e-06
9.46474e-05
1.40355e-06
9.29921e-05
1.54277e-07
8.83484e-05
-7.50232e-07
8.34333e-05
-1.44781e-06
8.17802e-05
-1.0432e-06
8.54143e-05
-1.15347e-06
9.39393e-05
-1.028e-06
0.000106102
-1.8196e-06
0.000116418
-3.92336e-06
0.000122039
-8.39105e-06
0.000120671
-1.44086e-05
0.000114796
-2.24934e-05
0.000110941
-3.18428e-05
0.000111193
-4.14018e-05
0.000117559
-4.99806e-05
0.000129344
-5.80106e-05
0.000145295
-6.49068e-05
0.000157425
-7.03809e-05
-7.3533e-05
0.000158665
-2.50416e-05
3.96636e-05
-2.92961e-05
1.4214e-05
-3.33804e-05
3.52113e-05
-1.16216e-05
1.08155e-05
2.70518e-05
-1.90958e-05
1.71558e-06
2.22608e-05
-2.41062e-06
-2.32961e-05
1.88939e-05
6.6962e-06
-2.33185e-05
-8.8743e-06
-2.84823e-05
-2.00158e-05
7.3145e-06
-4.92146e-05
-4.50562e-05
1.26369e-05
5.02655e-05
-0.000162609
0.000181648
-6.2181e-05
-0.000145445
-4.96388e-05
-0.000131565
-3.94169e-05
-0.000124568
-2.96499e-05
-0.000121388
-2.32369e-05
-0.000119529
-1.69255e-05
-0.000114865
-9.35086e-06
-0.000105757
1.46213e-07
-9.39606e-05
1.05042e-05
-8.24286e-05
2.01761e-05
-7.63003e-05
2.62052e-05
-7.774e-05
2.69093e-05
-8.75573e-05
2.14136e-05
-0.000101049
1.27101e-05
-0.00011191
3.58877e-06
-0.000116644
-2.36963e-06
-0.000114092
-5.19404e-06
-0.000105468
-4.24128e-06
-9.15342e-05
-1.00419e-06
-7.65267e-05
2.99628e-06
-6.30974e-05
6.5547e-06
-5.32027e-05
7.57006e-06
-4.75837e-05
8.78858e-06
-4.51793e-05
8.44379e-06
-4.4634e-05
7.91553e-06
-4.43984e-05
7.55955e-06
-4.45813e-05
7.45788e-06
-4.45893e-05
7.22966e-06
-4.54648e-05
7.43528e-06
8.54122e-06
-4.69086e-05
-3.68329e-05
-3.38806e-05
4.29554e-05
-1.91515e-06
-2.19701e-05
1.98328e-05
7.65035e-06
3.5021e-05
-1.8493e-06
-3.683e-05
3.89004e-05
-3.01117e-06
4.38061e-05
-2.72825e-06
4.85789e-05
-2.47657e-06
5.30755e-05
-2.64785e-06
5.71007e-05
-2.03897e-06
6.02219e-05
-9.60027e-07
6.15148e-05
1.93298e-07
6.19094e-05
1.54449e-06
6.26734e-05
2.93982e-06
6.41276e-05
4.10151e-06
6.74171e-05
3.99392e-06
7.24218e-05
3.23262e-06
7.88957e-05
2.48023e-06
8.56232e-05
1.55301e-06
9.09998e-05
8.19566e-07
9.32542e-05
2.66676e-07
9.20821e-05
-1.93849e-07
8.80006e-05
-2.76911e-07
8.2892e-05
4.39711e-08
8.14598e-05
1.67796e-07
8.43483e-05
-2.28067e-07
9.20324e-05
-1.53777e-06
0.000102643
-4.35364e-06
0.000111563
-9.46508e-06
0.000114588
-1.60413e-05
0.000111212
-2.44605e-05
0.000105243
-3.45682e-05
0.000101076
-4.46381e-05
0.000101415
-5.34199e-05
0.000108639
-6.09278e-05
0.000121501
-6.75814e-05
0.000138878
-7.27526e-05
0.000153936
-7.81264e-05
0.000158058
-8.25774e-05
7.5325e-05
-8.54814e-05
0.000149887
6.60468e-05
0.000150887
5.32209e-05
0.00015277
3.42813e-05
0.000159526
7.79246e-06
0.000170781
-1.84589e-05
0.00018222
-4.20842e-05
0.000190631
-6.06391e-05
0.000197109
0.00019713
-7.20226e-05
-1.41311e-05
-2.67155e-05
3.47349e-05
-3.4243e-05
3.80706e-05
-3.25012e-05
3.11873e-05
-8.02391e-06
9.46571e-06
-7.4687e-06
5.28938e-06
-4.12194e-05
-2.1465e-05
2.9631e-05
3.53414e-05
-4.62717e-05
-7.63379e-06
1.23849e-05
1.36046e-05
-4.58117e-05
6.93543e-06
7.33181e-06
-4.83571e-05
-3.04372e-05
-3.91717e-05
3.14765e-05
-3.77279e-05
-2.038e-05
1.538e-05
-5.59678e-05
2.49594e-05
-2.62147e-05
5.69363e-05
4.40619e-05
2.33179e-05
3.35801e-05
-2.96176e-05
-3.70496e-07
3.79055e-05
-3.04959e-07
4.35574e-05
-2.31904e-07
4.92685e-05
5.08144e-07
5.45163e-05
7.35348e-07
5.8903e-05
1.54056e-06
6.18783e-05
2.79045e-06
6.31409e-05
4.04499e-06
6.34818e-05
5.18796e-06
6.34583e-05
5.94441e-06
6.43819e-05
6.10686e-06
6.68058e-05
5.22152e-06
7.13493e-05
3.59758e-06
7.77108e-05
2.02159e-06
8.44391e-05
6.23765e-07
9.00884e-05
-3.56289e-07
9.26261e-05
-5.11686e-07
9.16661e-05
-3.51158e-07
8.73648e-05
3.1676e-07
8.21214e-05
8.69891e-07
7.97326e-05
8.94148e-07
8.18882e-05
-4.41201e-07
8.79352e-05
-3.22836e-06
9.70979e-05
-8.64261e-06
0.000103574
-1.5875e-05
0.000104694
-2.45788e-05
0.000100644
-3.52002e-05
9.50039e-05
-4.56128e-05
9.12111e-05
-5.45678e-05
9.31623e-05
-6.16908e-05
0.000101465
-6.73234e-05
0.000114817
-7.13956e-05
0.000132359
-7.62961e-05
0.000148466
-8.28853e-05
0.000156364
-9.0388e-05
0.000150123
-9.68726e-05
8.73016e-05
-0.000102054
0.000134472
7.67177e-05
0.000132932
6.84405e-05
0.00013238
5.75047e-05
0.000136531
4.18789e-05
0.000143886
1.82272e-05
0.000156545
-1.06962e-05
0.00017248
-3.81458e-05
0.000187296
-6.02565e-05
0.000197252
-7.77456e-05
0.000205073
-0.000189725
0.000205145
-8.76037e-05
-0.000170025
-7.65209e-05
-0.00015036
-6.30396e-05
-0.000133715
-4.96595e-05
-0.000123062
-3.83911e-05
-0.000117011
-2.93768e-05
-0.000114525
-2.16073e-05
-0.000111425
-1.3321e-05
-0.000104579
-3.38888e-06
-9.48736e-05
7.36805e-06
-8.36943e-05
1.79618e-05
-7.58996e-05
2.56386e-05
-7.43584e-05
2.81154e-05
-8.22005e-05
2.43087e-05
-9.59215e-05
1.52821e-05
-0.000109141
5.42752e-06
-0.00011731
-2.40277e-06
-0.000118575
-6.65745e-06
-0.000113174
-7.45754e-06
-0.000101609
-4.82782e-06
-8.71895e-05
-5.1807e-07
-7.29683e-05
3.65965e-06
-6.09593e-05
7.33225e-06
-5.22869e-05
8.03805e-06
-4.74348e-05
9.04361e-06
-4.50045e-05
7.90599e-06
-4.39156e-05
6.85191e-06
-4.33957e-05
6.121e-06
-4.30958e-05
5.81649e-06
-4.31237e-05
5.81696e-06
5.59586e-06
-4.30067e-05
-4.10736e-05
-3.97149e-05
4.5638e-05
6.48156e-06
-4.71183e-05
-5.22125e-05
8.34548e-06
-5.77839e-06
1.38976e-05
-2.69171e-05
-4.25439e-05
3.60625e-05
-3.89152e-05
-1.90552e-05
2.8951e-05
-1.54002e-05
-1.20419e-05
2.11228e-05
-1.21644e-05
2.03812e-06
1.26435e-05
5.89805e-07
5.62419e-06
2.70895e-05
4.99559e-07
-2.26104e-05
3.12348e-05
1.80044e-06
3.6791e-05
1.9989e-06
4.3064e-05
2.25797e-06
4.97787e-05
2.81808e-06
5.57001e-05
3.53997e-06
6.04994e-05
4.46343e-06
6.33161e-05
6.03503e-06
6.42867e-05
7.07904e-06
6.41556e-05
7.96739e-06
6.34275e-05
8.19408e-06
6.34e-05
7.56127e-06
6.51178e-05
6.05092e-06
6.9391e-05
3.80233e-06
7.58476e-05
1.6918e-06
8.30741e-05
-1.08008e-07
8.943e-05
-1.03909e-06
9.23132e-05
-8.82374e-07
9.12539e-05
-2.90512e-07
8.68888e-05
7.07816e-07
8.09669e-05
1.45311e-06
7.71064e-05
1.04906e-06
7.76414e-05
-1.3836e-06
8.18853e-05
-6.18829e-06
8.85284e-05
-1.34697e-05
9.3156e-05
-2.2773e-05
9.38561e-05
-3.37241e-05
8.99149e-05
-4.45689e-05
8.5046e-05
-5.36806e-05
8.32662e-05
-6.07498e-05
8.71715e-05
-6.56926e-05
9.55987e-05
-6.86541e-05
0.000108965
-7.19649e-05
0.000124728
-7.71867e-05
0.000139851
-8.54491e-05
0.00014976
-9.75522e-05
0.000147573
-0.000110528
0.000135719
-0.000122213
0.000104422
0.000114162
-0.00012779
8.84135e-05
0.000107051
7.83413e-05
0.000105675
7.24769e-05
0.000108438
6.70198e-05
0.000114296
5.53267e-05
0.000123065
3.37079e-05
0.000136546
2.23757e-06
0.000153862
-2.7267e-05
0.000171535
-5.38207e-05
0.000188974
-7.56647e-05
0.00020441
-9.23063e-05
0.000212753
-0.000199362
0.000215741
-0.000102009
-0.000177939
-9.22433e-05
-0.00015557
-7.74795e-05
-0.000136173
-6.19769e-05
-0.000121852
-4.82656e-05
-0.000113054
-3.71627e-05
-0.000108729
-2.794e-05
-0.000105775
-1.89102e-05
-0.000101016
-8.63014e-06
-9.33525e-05
2.57905e-06
-8.36522e-05
1.38297e-05
-7.54315e-05
2.3181e-05
-7.21264e-05
2.74456e-05
-7.72785e-05
2.52596e-05
-8.99536e-05
1.7384e-05
-0.000104791
7.10192e-06
-0.000115976
-1.90382e-06
-0.000121075
-7.53741e-06
-0.000118964
-9.83909e-06
-0.000110099
-8.20597e-06
-9.67449e-05
-4.09934e-06
-8.25663e-05
6.19778e-07
-6.94048e-05
4.79651e-06
-5.87168e-05
7.79585e-06
-5.18337e-05
8.4278e-06
-4.74847e-05
8.28074e-06
-4.54104e-05
6.82966e-06
-4.37792e-05
5.09704e-06
-4.26538e-05
4.3994e-06
-4.15839e-05
4.10508e-06
-4.06732e-05
4.09443e-06
4.14437e-06
-4.05658e-05
-4.36037e-05
5.33456e-06
-3.60272e-05
-4.52252e-05
-4.44822e-05
-4.52933e-05
4.94562e-05
1.14436e-05
1.13562e-05
-1.53869e-05
-6.29385e-06
-4.49364e-05
4.98363e-06
-2.07555e-05
-2.53475e-06
2.75215e-06
-2.7046e-05
-5.85741e-06
-3.26934e-05
-1.08876e-05
1.29328e-05
-3.16555e-05
-3.46175e-05
-2.33426e-06
-3.33569e-05
2.18074e-05
-4.87975e-05
7.69634e-06
-2.52763e-05
-4.17495e-05
-3.60686e-05
-1.71645e-05
0.000101931
-0.000125752
8.96369e-05
8.67887e-05
8.17899e-05
7.88883e-05
8.48063e-05
7.44712e-05
9.17992e-05
6.93547e-05
9.90506e-05
6.09169e-05
0.000103471
4.46405e-05
0.000113472
1.69166e-05
0.000125022
-1.17102e-05
0.000138508
-3.92208e-05
0.000160296
-6.70225e-05
0.000193081
-8.78435e-05
0.000209301
-0.000103854
0.000223437
-0.000214409
-0.000114
0.000232283
-0.000189297
-0.000109159
-0.000163034
-9.53663e-05
-0.000139523
-7.82136e-05
-0.000121846
-6.13878e-05
-0.000110008
-4.74761e-05
-0.000103127
-3.63409e-05
-9.91429e-05
-2.6279e-05
-9.4858e-05
-1.60779e-05
-8.87917e-05
-4.18314e-06
-8.11601e-05
7.39912e-06
-7.37623e-05
1.76664e-05
-6.97562e-05
2.38167e-05
-7.27307e-05
2.39266e-05
-8.38215e-05
1.77374e-05
-9.87838e-05
8.10389e-06
-0.000112365
-1.09592e-06
-0.000120822
-7.90864e-06
-0.000122327
-1.11636e-05
-0.000116553
-1.05691e-05
-0.000105253
-7.01349e-06
-9.12231e-05
-2.08195e-06
-7.78322e-05
2.35078e-06
-6.60607e-05
5.92152e-06
-5.72145e-05
7.91826e-06
-5.13279e-05
7.72546e-06
-4.81277e-05
7.39282e-06
-4.5596e-05
4.9907e-06
-4.39308e-05
3.56972e-06
-4.19581e-05
2.51332e-06
-3.99867e-05
2.36129e-06
-3.84027e-05
2.54668e-06
2.90661e-06
-3.79933e-05
3.79734e-06
-4.13359e-05
4.9463e-05
-2.47678e-05
-5.07598e-05
-3.02388e-05
-4.91583e-05
1.68565e-05
-1.01082e-05
1.06879e-05
-2.10736e-05
-1.52524e-05
4.94619e-06
9.57654e-06
-5.92965e-06
2.78663e-05
3.39963e-06
-2.21102e-05
3.50912e-05
3.30562e-06
4.2689e-05
3.72675e-06
5.01149e-05
4.4919e-06
5.65636e-05
5.57161e-06
6.15414e-05
6.59602e-06
6.43213e-05
8.28323e-06
6.48076e-05
9.15757e-06
6.40014e-05
9.77127e-06
6.237e-05
9.58087e-06
6.12479e-05
8.42996e-06
6.24247e-05
6.35282e-06
6.66699e-05
3.80555e-06
7.35113e-05
1.39573e-06
8.13736e-05
-4.79715e-07
8.85901e-05
-1.31544e-06
9.23408e-05
-1.13528e-06
9.09711e-05
-8.22347e-10
8.61756e-05
1.14559e-06
7.91878e-05
1.75617e-06
7.3206e-05
7.66999e-07
7.11437e-05
-2.80845e-06
7.31696e-05
-9.59713e-06
7.7615e-05
-1.88315e-05
8.16969e-05
-2.98714e-05
8.21606e-05
-4.11196e-05
7.95851e-05
-5.11294e-05
7.69386e-05
-5.81088e-05
7.78087e-05
-6.28267e-05
8.23521e-05
-6.51144e-05
9.10095e-05
-6.69234e-05
0.000102279
-7.00783e-05
0.000114375
-7.61917e-05
0.000127012
-8.76091e-05
0.000137034
-0.000105106
0.00013939
-0.000125836
0.000133183
-0.000145961
0.000122352
-0.0001562
0.000108881
-0.000155666
-4.76652e-05
-4.8911e-05
5.25809e-05
-4.08385e-05
-4.995e-05
4.6483e-05
-1.34096e-05
1.07974e-05
-4.50063e-05
-4.5798e-05
7.64733e-06
-3.28602e-05
-4.58026e-05
5.15398e-06
-0.000208554
0.000239044
-0.000126415
-0.000175425
-0.000118421
-0.00014516
-0.000101446
-0.000122357
-8.1342e-05
-0.000106809
-6.33361e-05
-9.75299e-05
-4.82657e-05
-9.19533e-05
-3.61661e-05
-8.73416e-05
-2.50082e-05
-8.21718e-05
-1.34095e-05
-7.55453e-05
-1.76406e-06
-6.94285e-05
9.11415e-06
-6.59282e-05
1.65888e-05
-6.77762e-05
1.88655e-05
-7.70524e-05
1.51424e-05
-9.15181e-05
7.40646e-06
-0.00010628
-1.13783e-06
-0.000117385
-7.95475e-06
-0.000122747
-1.16252e-05
-0.000120526
-1.18025e-05
-0.000111784
-8.80886e-06
-9.90655e-05
-4.03943e-06
-8.54467e-05
7.90541e-07
-7.31938e-05
4.43357e-06
-6.31789e-05
6.79616e-06
-5.60962e-05
7.49642e-06
-5.17164e-05
6.59526e-06
-4.84045e-05
5.1504e-06
-4.58128e-05
2.87927e-06
-4.34926e-05
1.76264e-06
-4.10176e-05
8.85513e-07
-3.82035e-05
6.75929e-07
-3.57857e-05
1.00848e-06
-3.49122e-05
1.79778e-06
2.41402e-06
-3.89891e-05
2.41025e-05
-2.22329e-05
4.53235e-05
-4.88791e-05
-2.37783e-05
0.00010594
-0.000127435
9.51428e-05
9.42086e-05
6.90846e-05
8.95401e-05
6.26841e-05
8.78889e-05
7.19682e-05
8.34762e-05
8.70236e-05
7.4355e-05
9.84794e-05
6.43158e-05
9.72376e-05
5.09926e-05
0.000101709
2.8097e-05
9.85884e-05
8.83863e-06
8.87321e-05
-1.11009e-05
0.000102368
-4.94325e-05
0.000168356
-7.32753e-05
0.000190639
-9.24254e-05
0.000217478
-0.000103558
0.000237009
-0.000115993
0.000259638
5.78459e-05
-2.77868e-05
-5.72109e-05
2.82999e-05
-1.14852e-05
2.11927e-05
-4.93465e-06
1.52837e-05
-2.3952e-07
2.0125e-06
-2.14072e-05
4.33838e-05
2.18669e-05
-4.1815e-06
-5.68721e-05
3.07765e-05
-2.55996e-05
-9.82804e-07
-1.42124e-06
-1.20008e-05
-2.3196e-05
1.82722e-05
2.50096e-05
3.70955e-06
-1.7308e-05
3.35389e-05
3.69273e-06
4.21205e-05
4.30504e-06
5.01639e-05
5.36418e-06
5.70991e-05
6.60942e-06
6.19487e-05
7.98535e-06
6.46717e-05
9.32334e-06
6.45416e-05
1.02616e-05
6.28893e-05
1.06276e-05
6.02184e-05
1.01271e-05
5.81337e-05
8.65644e-06
5.87436e-05
6.34572e-06
6.31466e-05
3.64845e-06
7.04464e-05
1.16895e-06
7.93334e-05
-6.50004e-07
8.7534e-05
-1.32611e-06
9.17567e-05
-9.59843e-07
9.03739e-05
2.32304e-07
8.48634e-05
1.36372e-06
7.63736e-05
1.77524e-06
6.77497e-05
1.58487e-07
6.26249e-05
-4.55038e-06
6.19071e-05
-1.2821e-05
6.47305e-05
-2.3807e-05
6.85788e-05
-3.55056e-05
7.08566e-05
-4.62788e-05
7.09386e-05
-5.41576e-05
7.10832e-05
-5.86733e-05
7.34268e-05
-6.05873e-05
7.86304e-05
-6.141e-05
8.59111e-05
-6.29526e-05
9.33666e-05
-6.65832e-05
0.00010121
-7.53048e-05
0.000108889
-9.01553e-05
0.000115992
-0.000112863
0.000121824
-0.00014045
0.000125921
-0.000168833
0.000129445
-0.000185463
0.000131247
-0.000186974
0.000131663
-0.000157354
1.23399e-05
4.7756e-05
-1.46451e-05
2.32155e-06
-4.20956e-05
-1.77337e-05
4.15699e-06
-4.87284e-05
-5.26853e-05
5.5603e-05
-3.38893e-05
-5.62284e-05
-5.24248e-05
-4.57097e-05
-4.56763e-05
-2.69087e-05
5.80158e-05
1.69759e-05
-2.47707e-05
-1.74018e-05
2.5868e-05
6.41565e-06
-4.84499e-05
4.05907e-06
-3.90589e-05
2.20223e-05
4.06498e-05
-3.97539e-05
-3.27397e-05
-1.81142e-05
4.13019e-05
7.58599e-06
-2.02888e-05
-1.64108e-05
2.64372e-05
-2.90615e-05
-3.76756e-05
2.72238e-05
4.05275e-05
-0.000239457
0.000275114
-0.000135233
-0.000195976
-0.000147918
-0.000155077
-0.000135914
-0.000123308
-0.000113224
-0.000102032
-8.89589e-05
-8.97438e-05
-6.75869e-05
-8.28103e-05
-5.03744e-05
-7.81731e-05
-3.62544e-05
-7.33966e-05
-2.38585e-05
-6.78158e-05
-1.22273e-05
-6.25438e-05
-1.8584e-06
-5.9368e-05
6.16352e-06
-6.08686e-05
1.00302e-05
-6.88827e-05
8.69106e-06
-8.23269e-05
3.26866e-06
-9.73137e-05
-3.26386e-06
-0.00011034
-8.99882e-06
-0.000119012
-1.22785e-05
-0.000120594
-1.24163e-05
-0.000115398
-9.60484e-06
-0.000105111
-4.80367e-06
-9.18582e-05
3.09083e-07
-7.96574e-05
4.22731e-06
-6.88734e-05
6.57206e-06
-6.07423e-05
7.23796e-06
-5.5113e-05
6.41824e-06
-5.12786e-05
4.66315e-06
-4.82854e-05
2.90652e-06
-4.54335e-05
6.64952e-07
-4.24473e-05
-1.02288e-07
-3.93288e-05
-6.15488e-07
-3.61477e-05
-5.96782e-07
-3.33906e-05
-1.20397e-07
-3.14644e-05
3.23792e-07
1.71721e-06
-3.06892e-05
5.43474e-05
-2.13299e-05
-2.51486e-05
1.44492e-05
-3.56587e-06
2.15525e-05
-8.73557e-06
-3.93713e-05
0.000102765
-0.000120943
0.000131123
8.87916e-05
9.51653e-05
8.20114e-05
6.12594e-05
8.17175e-05
4.91825e-05
7.9121e-05
6.31362e-05
6.91836e-05
9.03386e-05
5.36047e-05
0.000116983
4.04222e-05
0.000120489
2.29806e-05
0.00012536
8.93679e-06
9.03491e-05
2.04099e-05
2.66831e-05
3.68353e-05
1.14242e-05
-9.61788e-06
0.00012468
-4.28523e-05
0.000151564
-6.83925e-05
0.000201043
-7.8118e-05
0.000223723
-8.59503e-05
0.000262605
-9.68578e-05
0.000294156
-1.3258e-05
1.9395e-05
-5.17749e-06
1.27033e-05
6.54545e-07
7.58051e-06
4.55511e-06
4.45791e-06
5.92986e-06
6.73857e-06
2.01176e-06
-7.96318e-06
4.88346e-06
4.01204e-05
-5.8721e-05
1.41833e-05
3.02047e-06
-5.90756e-06
-4.12186e-06
2.31394e-05
3.18259e-06
3.2343e-05
3.51997e-06
4.14427e-05
4.30104e-06
4.99335e-05
5.45758e-06
5.70016e-05
6.86867e-06
6.19316e-05
8.29687e-06
6.4079e-05
9.57059e-06
6.32299e-05
1.04485e-05
6.06302e-05
1.06333e-05
5.68632e-05
9.96559e-06
5.38902e-05
8.37268e-06
5.41236e-05
6.05472e-06
5.86928e-05
3.42882e-06
6.65991e-05
1.01387e-06
7.64803e-05
-6.25622e-07
8.56143e-05
-1.16784e-06
9.05018e-05
-7.01682e-07
8.89464e-05
4.35944e-07
8.25206e-05
1.51703e-06
7.209e-05
1.62191e-06
6.04245e-05
-5.99279e-07
5.19567e-05
-6.2741e-06
4.86523e-05
-1.55241e-05
5.04451e-05
-2.72315e-05
5.53646e-05
-3.89604e-05
6.05098e-05
-4.80903e-05
6.38925e-05
-5.347e-05
6.63329e-05
-5.52851e-05
6.97894e-05
-5.53319e-05
7.41533e-05
-5.55753e-05
7.85749e-05
-5.73807e-05
8.20955e-05
-6.29283e-05
8.35582e-05
-7.39058e-05
8.40071e-05
-9.2305e-05
8.57615e-05
-0.000119068
9.32381e-05
-0.000151573
0.000107412
-0.000185316
0.000125983
-0.00020942
0.000144891
-0.000218523
0.000160366
-0.000194179
0.000160658
-0.000148149
6.02972e-05
-2.99438e-05
-6.01506e-05
-5.47176e-07
-4.02036e-05
2.54203e-05
-3.89668e-05
-5.82719e-05
5.99377e-05
-3.81117e-05
3.90895e-05
-5.59235e-05
-4.26429e-05
4.33604e-05
-4.76831e-05
-5.37732e-05
-4.4113e-05
2.77964e-06
-5.79147e-05
-4.96644e-05
-5.35599e-05
-5.84773e-05
-4.27123e-05
1.13627e-05
-1.45151e-05
-2.42733e-05
2.18181e-05
-2.25169e-05
2.38596e-05
-1.61283e-05
-1.98219e-05
1.89503e-05
2.13321e-06
2.10155e-05
-3.48605e-05
2.55529e-05
2.25654e-06
-1.35424e-05
5.24873e-05
1.26002e-05
4.95207e-05
-4.55097e-05
5.33807e-06
8.32941e-06
5.20161e-05
2.78272e-05
-1.11946e-06
3.00345e-05
-8.47896e-07
3.29928e-05
-1.05317e-06
3.63397e-05
-1.51161e-06
3.99425e-05
-1.93282e-06
4.36109e-05
-1.91619e-06
4.67358e-05
-1.19677e-06
5.03443e-05
2.11245e-07
5.39368e-05
2.39969e-06
5.84501e-05
4.94794e-06
6.49006e-05
7.16655e-06
7.38674e-05
8.34656e-06
8.44194e-05
7.7418e-06
9.64285e-05
5.20754e-06
0.000107385
5.24898e-07
0.000114213
-5.13319e-06
0.000115412
-1.04787e-05
0.000110168
-1.39404e-05
9.91211e-05
-1.45957e-05
8.51973e-05
-1.24865e-05
7.04406e-05
-8.38427e-06
5.83621e-05
-3.41663e-06
5.16307e-05
-1.51021e-07
5.05215e-05
-4.44767e-07
5.33069e-05
-4.60859e-06
5.77052e-05
-1.21533e-05
6.16005e-05
-2.24574e-05
6.45707e-05
-3.53846e-05
6.81389e-05
-5.15993e-05
7.63053e-05
-7.24517e-05
9.39562e-05
-9.92528e-05
0.000124723
-0.000131284
0.000170065
-0.000163411
0.000224873
-0.000182981
0.000277508
-0.00016887
0.000315549
-0.000119914
1.49353e-05
5.1113e-05
-1.937e-05
5.21105e-05
-5.61453e-05
0.000144087
5.79467e-05
0.000117334
6.75806e-05
7.91972e-05
7.64991e-05
4.13199e-05
7.95505e-05
2.69663e-05
7.85684e-05
4.67845e-05
7.26546e-05
9.48428e-05
4.67499e-05
0.000161687
2.2766e-05
0.000186326
-1.02523e-05
0.000200614
-2.70064e-05
0.000133867
2.27748e-05
-1.72784e-05
9.72952e-05
-8.41495e-05
3.81867e-05
9.16701e-05
-9.83364e-06
0.00011667
-4.07982e-05
0.000173436
-4.23196e-05
0.000190066
-3.53013e-05
0.000237884
-1.83313e-05
0.000274595
-9.4779e-06
0.000318328
5.91443e-05
-2.299e-05
-7.34488e-06
-3.7229e-05
-3.37346e-05
6.04315e-05
3.50263e-05
2.78136e-05
4.63189e-05
-3.23323e-05
-4.27003e-05
1.79868e-05
-3.67717e-05
9.69484e-06
-3.78499e-05
3.28555e-06
-4.03663e-05
4.72137e-05
-2.72574e-06
-4.25675e-05
5.03829e-05
4.82354e-07
5.28651e-05
3.86212e-06
-1.23139e-05
1.05343e-05
5.26268e-05
1.68744e-05
-1.46965e-05
2.13282e-05
4.68764e-05
-4.41884e-05
-2.43956e-05
1.75724e-05
2.28032e-05
-1.12844e-05
1.10731e-05
-1.31328e-05
1.37633e-05
-4.24034e-06
7.46195e-06
-5.63857e-05
-3.50703e-05
5.76968e-05
-5.44964e-05
-3.99987e-05
-4.50639e-05
-5.27855e-05
3.42325e-06
-4.60414e-05
6.01289e-05
-3.03183e-05
-6.07812e-05
2.95817e-05
-2.74781e-05
6.49427e-06
1.90929e-06
5.6029e-07
5.92445e-06
-3.54643e-06
8.29413e-06
-7.06779e-06
9.73995e-06
1.08162e-05
-9.47406e-06
9.9783e-06
-1.84741e-06
-1.71253e-06
-1.4108e-05
1.1258e-05
2.34435e-05
-1.84756e-05
1.93259e-06
-2.48837e-07
-2.37589e-06
6.90717e-06
1.10978e-05
1.60282e-06
2.07983e-05
2.20975e-06
3.05876e-05
2.84304e-06
4.00738e-05
3.76871e-06
4.87446e-05
4.9877e-06
5.58761e-05
6.3968e-06
6.05969e-05
7.80782e-06
6.21753e-05
9.04086e-06
6.05449e-05
9.83793e-06
5.6926e-05
9.96741e-06
5.21017e-05
9.24392e-06
4.83398e-05
7.71808e-06
4.82904e-05
5.58653e-06
5.30457e-05
3.17251e-06
6.16599e-05
8.97441e-07
7.25884e-05
-5.26268e-07
8.26095e-05
-9.56167e-07
8.80311e-05
-4.62041e-07
8.62182e-05
5.36971e-07
7.87357e-05
1.49464e-06
6.60142e-05
1.33825e-06
5.10587e-05
-1.36254e-06
3.9225e-05
-7.55463e-06
3.36461e-05
-1.7118e-05
3.54296e-05
-2.868e-05
4.28978e-05
-3.9546e-05
5.15747e-05
-4.65244e-05
5.82913e-05
-4.92517e-05
6.22993e-05
-4.89802e-05
6.53947e-05
-4.81044e-05
6.78678e-05
-4.82681e-05
6.90238e-05
-5.11487e-05
6.70963e-05
-5.8207e-05
6.12997e-05
-7.13355e-05
5.33123e-05
-9.19403e-05
4.92801e-05
-0.00012099
5.60161e-05
-0.000156288
7.53178e-05
-0.000194486
0.000104139
-0.000228009
0.000134813
-0.00025114
0.00016444
-0.000243014
0.000178022
-0.000190538
0.000165706
-7.31074e-05
3.46417e-05
2.97575e-05
-3.4384e-05
3.50958e-05
2.40485e-05
-1.17155e-05
1.91044e-05
3.45378e-05
-3.41959e-06
3.70577e-05
-6.38138e-07
-2.90683e-05
2.17542e-05
-3.99392e-06
-5.72075e-07
-4.22974e-05
-4.54526e-06
4.56276e-05
1.24346e-06
9.63436e-06
2.0827e-05
-2.83844e-06
3.12952e-05
4.14105e-05
-4.18214e-05
-3.0142e-05
-4.79932e-05
-5.85353e-05
-5.99961e-05
-5.30086e-05
-5.14e-05
3.02031e-05
-4.48076e-05
4.51859e-05
5.18069e-05
-3.5147e-05
-5.10419e-05
5.26598e-05
5.29837e-05
-4.40325e-05
7.84143e-06
3.19952e-05
-2.56282e-05
-5.39119e-05
8.29592e-06
5.29023e-05
4.60965e-05
-5.21708e-05
-5.15795e-05
-7.7162e-06
9.74037e-07
9.91973e-06
-3.93186e-06
-5.20472e-05
-5.31879e-07
-4.92988e-05
-4.27261e-06
-4.49296e-05
-8.46981e-06
2.31745e-05
-2.11464e-06
2.52766e-05
-1.63764e-06
2.81279e-05
-1.62456e-06
3.15392e-05
-2.13674e-06
3.53575e-05
-2.8073e-06
3.95436e-05
-3.30754e-06
4.36843e-05
-2.99098e-06
4.77843e-05
-2.06855e-06
5.15679e-05
2.57325e-07
5.56882e-05
3.24005e-06
6.08664e-05
6.59399e-06
6.80131e-05
9.30376e-06
7.67532e-05
1.05279e-05
8.67243e-05
9.63432e-06
9.66146e-05
6.04698e-06
0.000103976
2.56338e-07
0.000106877
-6.66586e-06
0.000104388
-1.30995e-05
9.62377e-05
-1.7609e-05
8.39524e-05
-1.91055e-05
7.00276e-05
-1.79174e-05
5.62885e-05
-1.47278e-05
4.60544e-05
-1.05482e-05
4.0875e-05
-7.69952e-06
4.02147e-05
-7.90957e-06
4.18069e-05
-1.1867e-05
4.30455e-05
-1.97013e-05
4.25725e-05
-3.18195e-05
4.1088e-05
-4.92438e-05
4.26608e-05
-7.36285e-05
5.25086e-05
-0.00010678
7.66374e-05
-0.000149454
0.000118966
-0.000195415
0.00017735
-0.000227252
0.000244162
-0.000218672
0.000306391
-0.000163585
0.00031484
5.90852e-07
2.2794e-05
1.35901e-05
-2.45211e-05
2.04315e-05
1.24632e-05
1.70116e-05
1.14616e-05
1.26619e-05
9.79988e-06
6.59995e-06
7.1799e-06
-1.44796e-06
3.29859e-06
4.68789e-05
-1.8529e-05
-5.96429e-05
-1.38363e-05
5.58949e-05
-3.30876e-05
2.96876e-05
-3.04134e-05
5.80629e-05
2.54378e-05
4.5255e-05
-1.13159e-05
5.67667e-05
5.19572e-06
1.69152e-05
5.4383e-05
3.38113e-05
-3.80185e-05
-2.49025e-05
-4.0386e-05
-5.05959e-05
5.56105e-05
-1.92809e-06
-1.05713e-05
-4.13867e-05
-2.62539e-05
4.35912e-05
-1.32561e-05
-2.84515e-05
6.12192e-05
-2.6323e-05
2.52246e-05
-2.52523e-05
-2.97193e-05
2.87855e-05
-4.827e-05
2.12581e-05
5.44452e-05
-1.52663e-06
-1.0702e-05
1.55855e-05
-1.36056e-05
0.000133991
3.15885e-05
0.000109231
2.91589e-05
0.000109486
2.20187e-05