/*--------------------------------*- C++ -*----------------------------------*\
| =========                 |                                                 |
| \\      /  F ield         | OpenFOAM: The Open Source CFD Toolbox           |
|  \\    /   O peration     | Version:  2212                                  |
|   \\  /    A nd           | Website:  www.openfoam.com                      |
|    \\/     M anipulation  |                                                 |
\*---------------------------------------------------------------------------*/
FoamFile
{
    version     2.0;
    format      ascii;
    arch        "LSB;label=32;scalar=64";
    class       surfaceScalarField;
    location    "0.0092";
    object      phi;
}
// * * * * * * * * * * * * * * * * * * * * * * * * * * * * * * * * * * * * * //

dimensions      [1 0 -1 0 0 0 0];

oriented        oriented;

internalField   nonuniform List<scalar> 
5190
(
0.000675713
0.000391882
-0.00157101
-0.000759856
5.49048e-05
0.000212528
-6.10791e-05
-0.000170442
0.000123937
-0.000145194
-7.19392e-05
0.000198711
5.76481e-06
-5.66047e-06
-3.48638e-06
2.4329e-06
3.97807e-05
9.49335e-05
3.83005e-05
-0.000180087
-7.4074e-06
0.000239292
7.30232e-05
-0.00022233
1.20649e-06
1.14626e-07
-1.37245e-06
-9.35045e-08
4.73949e-06
-4.88806e-06
4.42018e-06
-5.02173e-06
-5.59271e-06
5.02013e-06
6.00636e-06
-6.50454e-06
-6.32007e-06
7.11283e-06
-7.7905e-06
3.91541e-06
-3.51253e-06
4.41135e-06
1.30282e-05
-2.10703e-05
1.87734e-05
-1.4293e-05
-1.81394e-05
1.19063e-05
1.60059e-05
5.5966e-05
-5.88777e-05
5.58253e-05
-6.46705e-05
1.63164e-05
2.31612e-05
-2.04761e-05
-2.29725e-05
2.51007e-05
3.1793e-05
-2.72047e-05
-3.576e-05
3.16212e-05
4.21894e-05
-3.92024e-05
-4.1792e-05
-4.96813e-06
4.91031e-06
-4.81084e-06
4.04812e-06
-5.04913e-06
5.63892e-06
-6.63407e-06
6.60145e-06
-9.20908e-06
-3.79942e-06
-1.08168e-05
7.15909e-06
-9.16222e-06
1.09521e-05
1.26707e-05
-1.3792e-05
1.51802e-05
-1.73806e-05
1.16648e-05
1.23241e-05
-1.41608e-05
9.90809e-06
-1.14001e-05
1.4977e-05
-2.35054e-05
-2.06447e-05
3.30533e-06
-4.17451e-06
4.98175e-06
-3.9402e-06
3.34723e-06
3.60382e-06
4.62661e-06
-6.11906e-06
4.89724e-06
-5.5769e-06
6.24416e-06
5.42285e-06
6.96253e-06
-8.57746e-06
7.3014e-06
6.77771e-06
-6.5439e-06
9.65784e-06
-1.0731e-05
1.09845e-05
9.0276e-06
1.34901e-05
-1.73637e-05
1.25951e-05
-1.60787e-05
1.7562e-05
-1.79681e-05
1.77126e-05
-2.09825e-05
2.21851e-05
-1.97313e-05
-2.47618e-05
-1.55268e-05
1.42175e-05
1.95679e-05
-2.60655e-05
2.52492e-05
-1.94499e-05
-1.3019e-05
1.05072e-05
1.23413e-05
1.55041e-05
-8.23299e-06
7.16451e-06
1.00004e-05
-1.09551e-05
1.09083e-05
-1.08502e-05
1.23917e-05
-6.9725e-05
0.00010996
0.000125156
8.34892e-06
-9.29604e-06
4.49792e-06
5.20819e-06
-5.5301e-06
2.71021e-06
2.77077e-06
-3.54897e-06
-2.66105e-06
-3.96069e-06
3.38678e-06
4.01303e-06
-4.09371e-06
4.56231e-06
-2.8301e-05
-2.24075e-05
3.95616e-05
2.96005e-05
-4.47413e-05
4.89946e-06
-4.94356e-06
-5.6438e-06
4.27801e-06
4.17104e-06
-4.22398e-06
-1.06975e-05
9.70704e-06
1.41267e-05
-1.16786e-05
1.65087e-05
2.9933e-06
2.76854e-06
-3.20046e-06
3.50279e-06
-3.57071e-06
2.81732e-06
2.90452e-06
-3.41824e-06
3.87967e-06
3.39188e-06
2.37448e-06
6.31352e-06
-7.2379e-06
-7.03867e-06
-5.1621e-06
9.74194e-06
-1.14433e-05
-9.85149e-06
-8.58978e-06
1.32752e-05
-1.50927e-05
-1.56727e-05
-1.2373e-05
1.65052e-05
-1.5779e-05
-2.57585e-05
-1.98373e-05
9.40446e-07
6.97682e-07
-1.00297e-06
-8.11203e-07
-3.32853e-05
-1.08083e-05
-2.26323e-05
1.98869e-05
-2.68708e-05
-3.12839e-05
-1.65471e-05
-1.77977e-05
1.42164e-05
-2.20878e-05
2.12008e-05
-1.62666e-05
6.753e-07
-9.22036e-07
5.68892e-07
-4.72684e-07
4.6738e-05
-6.53104e-05
6.34463e-05
0.000136396
-3.20369e-05
-0.000162145
5.52788e-05
3.40996e-06
-3.7616e-06
4.51437e-06
-3.22218e-06
2.66816e-06
3.36421e-06
4.01015e-06
4.26668e-06
-4.86646e-06
5.85685e-06
5.05072e-06
5.54573e-06
-6.83545e-06
7.22874e-06
6.33407e-06
7.83309e-06
-8.80857e-06
9.87811e-06
8.32076e-06
1.19039e-05
-9.66744e-06
1.03813e-05
1.55011e-05
1.70429e-05
-5.15691e-06
-9.55446e-06
8.06362e-06
1.12922e-05
1.33539e-05
-6.95313e-06
6.29038e-06
8.86413e-06
9.89562e-06
-5.5595e-06
4.99094e-06
6.50441e-06
7.59249e-06
-4.41009e-06
3.92132e-06
4.941e-06
5.66613e-06
4.39219e-06
3.61516e-06
-3.64717e-06
3.67639e-06
-3.83174e-06
3.23459e-06
-1.30239e-05
1.88761e-05
2.51358e-05
-3.33132e-05
-3.32067e-05
3.58172e-05
2.5625e-05
-2.55325e-05
2.79136e-05
-2.40434e-05
2.12169e-06
2.79755e-06
2.43347e-06
-2.91225e-06
3.6827e-06
1.93371e-06
3.20118e-06
-3.49698e-05
3.13765e-05
-3.68396e-05
4.00258e-05
-3.81198e-05
-4.45162e-05
3.3892e-05
-3.34608e-05
3.5385e-05
-2.95e-05
-1.24063e-05
9.59885e-06
1.6029e-05
-1.61225e-05
1.82831e-05
-2.48036e-05
-2.04454e-05
2.2775e-05
-1.52265e-05
1.76771e-05
4.03655e-06
-4.71716e-06
-3.60595e-06
-3.10191e-06
3.12505e-06
3.02758e-06
-3.06758e-06
3.39188e-06
-2.93385e-05
-1.462e-05
1.67089e-05
2.23592e-05
-5.53205e-05
5.81692e-05
4.53697e-05
-5.86523e-05
2.75877e-05
-4.08137e-05
0.000209608
-0.000108847
-2.0457e-05
-0.000201001
-2.39963e-05
2.16259e-05
-1.47887e-05
-1.90625e-05
-2.15443e-05
-2.61191e-06
2.42616e-06
1.6471e-06
0.000286093
-0.000146322
6.85243e-05
2.16843e-06
-0.000276306
-0.000224082
0.000194319
0.000146203
-8.82706e-05
6.31004e-05
-4.88445e-05
6.01585e-06
-6.30916e-06
-4.22619e-06
-3.49601e-06
5.0788e-06
7.36319e-06
-9.01976e-06
-6.95704e-06
-5.33256e-06
1.10937e-05
-1.30331e-05
-1.05456e-05
-8.5624e-06
1.5439e-05
-1.81035e-05
-1.68151e-05
-1.31975e-05
2.09242e-05
-2.46878e-05
-2.71586e-05
-2.14174e-05
-3.29649e-05
-2.54535e-05
2.2581e-05
-2.94805e-05
-3.54482e-05
-1.95716e-05
-1.94619e-05
1.69443e-05
-2.38874e-05
2.95922e-05
-6.67522e-05
-1.76957e-05
0.0011062
-0.000837021
0.00111661
-0.000936661
5.45767e-06
-4.99807e-06
-6.29746e-06
-4.19444e-06
2.06541e-06
-2.52876e-06
3.07274e-06
-1.57465e-06
2.20342e-06
1.1585e-06
2.57416e-06
2.9056e-06
-3.2806e-06
4.08837e-06
3.60298e-06
3.71603e-06
-4.07443e-06
5.28521e-06
4.63608e-06
4.81107e-06
-5.42469e-06
6.59588e-06
6.01818e-06
6.36356e-06
-7.05567e-06
8.75353e-06
7.75317e-06
7.84113e-06
-8.43558e-06
1.21921e-05
1.05178e-05
9.18447e-06
-1.00554e-05
1.64274e-05
1.43428e-05
6.19716e-05
-6.49849e-05
-6.52823e-05
1.89985e-05
-1.12356e-05
-8.76066e-06
8.2183e-06
1.32098e-05
1.50305e-05
-7.44333e-06
6.52158e-06
9.99099e-06
1.15561e-05
-5.72059e-06
5.24155e-06
7.81333e-06
8.84276e-06
-4.73882e-06
4.24716e-06
5.99785e-06
6.8477e-06
-3.80971e-06
3.35018e-06
4.69312e-06
5.29161e-06
4.16507e-06
3.03505e-06
-3.08697e-06
2.24859e-06
-2.94483e-06
1.43834e-06
2.76057e-06
1.84086e-06
2.64105e-06
1.87869e-07
-9.17598e-07
-1.91567e-07
6.73184e-07
-1.68723e-06
2.06903e-06
-3.79333e-06
2.72909e-06
2.87507e-06
-4.467e-06
-7.93453e-07
3.17423e-05
-5.18238e-05
-3.99292e-05
4.61362e-05
-5.26964e-05
5.28154e-05
-4.40108e-05
3.01266e-05
-2.72449e-05
-2.74162e-05
-1.69453e-05
2.50002e-05
3.15127e-05
-2.61156e-05
-1.16047e-06
6.69439e-07
2.05068e-06
2.327e-05
-2.78858e-05
-2.05123e-05
2.06277e-05
-1.67502e-05
4.42137e-06
-5.20213e-06
-3.49261e-06
3.73082e-06
-2.99204e-06
4.03132e-05
-3.48217e-05
3.86857e-05
-3.29165e-05
2.15981e-06
-2.26977e-06
1.19129e-06
2.00818e-06
7.68853e-07
0.000130546
-2.038e-07
-0.000117336
-6.87074e-06
-1.67559e-07
0.000143967
-6.6014e-06
-0.0001306
0.000144027
-6.98608e-06
-0.000117376
-7.31691e-06
2.35571e-06
-2.53131e-06
9.96756e-07
1.03671e-06
-1.48883e-06
2.46483e-06
6.61381e-07
2.08849e-06
5.89133e-06
-4.26586e-06
2.23811e-05
-2.82134e-05
4.16982e-05
-5.88097e-05
-8.56581e-07
1.01352e-07
7.20759e-07
2.42786e-06
2.24283e-06
-3.26692e-06
0.00198451
0.00201495
-0.00189164
-0.00188233
-0.000156769
0.00012591
0.000162115
2.7958e-05
-0.000174073
-3.60854e-05
2.36047e-05
0.000192639
-2.13043e-05
-2.33069e-05
6.17978e-05
0.000363735
1.60563e-06
-2.30613e-06
6.83167e-05
-0.000192068
-0.000136168
0.000189822
4.6886e-06
-5.54884e-06
-3.10247e-06
3.08146e-06
-2.41672e-06
2.51866e-06
6.35161e-06
-7.34624e-06
-4.3778e-06
-3.66796e-06
8.61913e-06
-1.04259e-05
-6.95384e-06
-5.46448e-06
1.26503e-05
-1.52166e-05
-1.08974e-05
-8.64057e-06
1.82159e-05
-2.16368e-05
-1.75854e-05
-1.3766e-05
2.55135e-05
-3.01843e-05
-2.81263e-05
-2.23748e-05
3.53787e-05
-3.86515e-05
-4.15276e-05
-3.44518e-05
-5.05919e-05
-2.98034e-05
2.66698e-05
-3.26486e-05
-4.11018e-05
-2.3145e-05
1.95492e-05
-2.04076e-05
-2.56564e-05
-1.60817e-05
1.29886e-05
-1.27396e-05
1.25387e-05
-1.62158e-05
1.57445e-05
-1.04265e-05
8.54929e-06
-7.67901e-06
7.56519e-06
-9.85008e-06
9.75519e-06
-7.14621e-06
6.06126e-06
-4.95016e-06
-6.05629e-06
6.02921e-06
-4.12347e-06
0.000157481
-1.35488e-07
-6.31907e-06
0.000170917
-9.76785e-08
-5.99638e-06
0.000184267
-9.42826e-08
-5.72179e-06
0.000197429
-1.5118e-07
-5.48536e-06
0.000210346
-1.75184e-07
-5.42255e-06
0.000223298
-1.63719e-07
-6.03719e-06
0.000236518
-2.43612e-08
-8.05081e-06
0.000248485
7.53854e-07
-1.17153e-05
0.000256777
2.75389e-06
-1.94975e-05
4.773e-06
0.000258037
-3.21208e-05
0.000255496
-0.000255195
-2.27227e-05
0.000229869
6.60852e-06
-5.36952e-05
5.2186e-06
0.000151297
-8.91299e-05
-0.000225857
0.000142487
-7.53042e-05
-3.97877e-05
0.00024695
-0.000235611
-9.72446e-06
-1.4321e-05
0.000222922
-0.000209972
-6.49341e-06
-7.64281e-06
0.000197093
-0.000184111
-5.77668e-06
-5.90037e-06
0.000170903
-0.000157521
-6.23741e-06
-5.90219e-06
-6.63003e-06
1.60934e-06
-2.00109e-06
2.72633e-06
2.33999e-06
2.3712e-06
-2.73718e-06
3.65593e-06
3.19254e-06
3.12704e-06
-3.49087e-06
4.75027e-06
4.18337e-06
3.83361e-06
-4.41485e-06
6.05645e-06
5.37936e-06
5.01485e-06
-5.69836e-06
7.85369e-06
7.01654e-06
6.15374e-06
-6.68917e-06
1.05257e-05
9.0889e-06
7.16754e-06
-7.61312e-06
1.39265e-05
1.22501e-05
0.00174819
-0.00162016
0.00201725
1.58085e-05
-7.76363e-06
2.02948e-05
-2.63973e-05
7.45777e-06
-1.25969e-05
1.07486e-05
1.86284e-05
2.30105e-05
-2.63694e-05
-1.81222e-05
1.64914e-05
-2.41607e-05
-1.49171e-05
1.80239e-05
2.22414e-05
-9.1008e-06
7.95586e-06
1.42446e-05
1.60277e-05
-7.4111e-06
6.69679e-06
1.14311e-05
1.28919e-05
-5.99434e-06
5.27073e-06
8.80025e-06
1.00329e-05
-4.74289e-06
4.30904e-06
6.9234e-06
7.77285e-06
-3.92826e-06
3.55867e-06
5.47707e-06
6.15216e-06
-3.20191e-06
2.8196e-06
4.34224e-06
4.87499e-06
-2.40582e-06
1.95735e-06
3.34751e-06
3.82739e-06
2.8805e-06
2.62113e-06
-2.66458e-06
1.71844e-06
1.35668e-06
2.68357e-06
-2.67525e-06
2.40547e-06
2.06146e-06
2.63184e-06
-2.55183e-06
3.04805e-06
2.73961e-06
0.00119367
0.00145549
-0.00175596
-0.00150267
0.00258868
-0.00265273
0.000986152
-0.000708298
3.50842e-05
-2.83151e-05
-3.09904e-05
-1.87363e-05
2.76461e-05
-3.07771e-05
-2.13297e-05
3.49336e-05
-2.8753e-05
3.59001e-07
1.80792e-06
4.46678e-05
-8.28409e-05
-3.48795e-05
-2.37265e-07
-7.09729e-06
-0.000104467
-7.59409e-06
-0.0001045
-9.62664e-07
1.50141e-06
9.89457e-07
0.00383023
0.00226027
-0.00165779
-0.00406673
0.000238273
-0.000247508
-5.63727e-05
0.000191998
-9.22081e-05
4.62332e-05
-3.64105e-05
0.00014835
4.48636e-05
-0.000173942
-0.000243887
-2.94944e-05
-1.79239e-05
-4.55779e-05
4.32163e-05
-3.82214e-05
-1.80523e-06
1.93439e-06
2.01967e-06
-1.73492e-06
2.26179e-06
-0.000104687
0.00011754
-1.41052e-05
-7.39381e-06
-2.59265e-07
-9.17033e-05
-1.46158e-05
-9.19632e-05
2.02598e-06
-2.18502e-06
6.4818e-07
1.80925e-06
3.78369e-07
6.75089e-07
-1.07527e-06
2.0955e-06
3.68706e-07
1.77457e-06
-1.19539e-05
1.15488e-05
-0.000133792
-5.95921e-06
-0.000149828
-2.64451e-05
-4.8707e-06
2.32213e-05
-2.95015e-05
-8.58156e-06
7.63982e-06
5.89497e-05
-5.17711e-05
-4.63193e-05
-2.51735e-05
-1.04068e-05
2.32474e-05
8.41249e-06
-2.90485e-05
-1.5671e-05
-2.75318e-05
7.23499e-05
-1.96597e-05
-9.74409e-05
-8.71159e-05
9.99008e-05
0.000134582
-0.000183119
7.33591e-05
2.20976e-07
-3.37127e-07
1.95492e-07
-2.62191e-07
3.33895e-06
-4.06388e-06
-2.44078e-06
-2.20037e-06
2.2663e-06
2.39119e-06
-2.09082e-06
2.63764e-06
-2.28241e-05
-2.496e-05
-1.75988e-06
2.16715e-07
1.54774e-06
1.91112e-06
-1.99685e-06
8.19716e-07
5.08694e-07
2.04827e-06
-1.99939e-06
1.48711e-06
-2.07116e-06
1.15894e-06
1.79719e-06
4.98969e-06
-5.90223e-06
-3.12868e-06
-2.78955e-06
6.93932e-06
-8.17173e-06
-4.40272e-06
-3.68867e-06
9.76679e-06
-1.19166e-05
-6.82066e-06
-5.44528e-06
1.44523e-05
-1.76167e-05
-1.09238e-05
-8.67661e-06
2.12897e-05
-2.55009e-05
-1.79237e-05
-1.39669e-05
3.03056e-05
-3.56067e-05
-2.90541e-05
-2.28722e-05
4.09159e-05
-4.47684e-05
-4.71139e-05
-3.67738e-05
-6.23969e-05
5.14688e-05
-5.16642e-05
-0.00012005
-0.000106528
0.000109457
-4.25237e-05
4.01224e-05
-6.16056e-05
-7.71403e-05
-4.80175e-05
-3.66975e-05
3.21832e-05
-3.56621e-05
-4.72607e-05
-2.74267e-05
2.29457e-05
-2.08634e-05
-2.69002e-05
-1.88427e-05
1.5254e-05
-1.27048e-05
-1.63198e-05
-1.21926e-05
9.82832e-06
-7.58865e-06
-9.72741e-06
-8.06005e-06
6.74757e-06
-4.84459e-06
-5.9617e-06
-5.72534e-06
4.86206e-06
-3.36486e-06
-4.01467e-06
-2.84807e-06
-0.000130767
0.000144219
-1.3018e-05
-1.36208e-05
-0.000157751
0.000171222
-1.18239e-05
-1.24165e-05
-0.000184526
0.000197576
-1.10826e-05
-1.13331e-05
-0.000210289
0.000222352
-1.241e-05
-1.12849e-05
-0.000233332
0.000242864
-2.26093e-05
-1.56486e-05
-3.47576e-05
-0.000104795
0.00011766
-1.46505e-05
7.92311e-06
-1.51885e-05
-9.20537e-05
-9.17341e-05
-0.000217096
-2.04289e-05
4.54246e-05
-0.000218313
0.00270099
0.000286518
-0.003138
0.00025269
8.17016e-05
-0.00019405
-0.000129622
-0.000211628
0.000239872
-0.000249253
-4.91885e-05
-7.97151e-05
0.000242961
-0.000232377
-2.18342e-05
-3.21505e-05
0.000220631
-0.00020909
-1.26355e-05
-1.61191e-05
0.000196797
-0.000184147
-1.14554e-05
-1.17959e-05
0.000171116
-0.000157821
-1.21477e-05
-1.16209e-05
0.000144352
-0.000130904
-1.34918e-05
-1.2822e-05
-1.41373e-05
1.18828e-06
-1.48689e-06
2.30705e-06
1.9372e-06
1.815e-06
-2.15412e-06
3.17778e-06
2.73906e-06
2.50167e-06
-2.86297e-06
4.21706e-06
3.68004e-06
3.23065e-06
-3.68973e-06
5.44439e-06
4.78725e-06
3.98943e-06
-4.42283e-06
6.89637e-06
6.09882e-06
4.80385e-06
-5.22913e-06
9.05213e-06
7.85273e-06
5.46955e-06
-5.70891e-06
1.16359e-05
1.02856e-05
5.73838e-06
-5.55628e-06
1.47e-05
-1.81383e-05
1.29729e-05
5.24187e-06
-4.52156e-06
1.79978e-05
1.64152e-05
2.43285e-05
-2.82846e-05
-5.17572e-06
3.92433e-06
-3.53642e-06
2.00708e-05
1.89504e-05
2.6347e-05
-1.3751e-05
-2.80883e-05
-3.11177e-06
4.56773e-06
2.0372e-05
2.508e-05
-5.1812e-06
-2.9241e-05
5.17865e-06
2.0326e-06
-2.36324e-06
2.15654e-05
2.12451e-05
-2.65395e-05
-4.48644e-06
6.40917e-06
1.88915e-05
-2.47508e-05
1.96451e-05
-7.4292e-06
7.3405e-06
1.52387e-05
1.7051e-05
-6.77695e-06
6.14653e-06
1.21432e-05
1.354e-05
-5.70542e-06
5.23185e-06
9.68699e-06
1.08756e-05
-4.74323e-06
4.25769e-06
7.61867e-06
8.58173e-06
-3.85001e-06
3.51927e-06
6.07991e-06
6.78012e-06
-3.2285e-06
2.93923e-06
4.87767e-06
5.44563e-06
-2.63658e-06
2.29491e-06
3.83684e-06
4.33768e-06
-1.9068e-06
1.49331e-06
2.87679e-06
3.33895e-06
2.45007e-06
2.26385e-06
-2.29028e-06
1.24985e-06
9.4127e-07
2.30139e-06
-2.30026e-06
1.83495e-06
1.53753e-06
2.11761e-06
-2.56462e-05
0.000253563
-0.00195542
-0.000398935
9.90701e-05
0.0010031
9.42443e-05
-0.000147551
4.057e-05
-2.97606e-05
-3.51831e-05
-1.84268e-05
-3.43724e-05
-2.21837e-05
3.90251e-05
-3.16054e-05
2.20373e-06
-1.97481e-06
-2.47897e-06
-0.000228317
-1.16692e-05
0.000453637
0.000186366
9.32711e-05
-8.38269e-05
-1.16927e-05
-3.03054e-05
2.31953e-05
-0.000105125
0.000117989
-2.01866e-05
-9.23932e-05
-2.08672e-05
1.3928e-06
-1.57202e-06
1.423e-07
0.00237664
-0.000393924
0.000748691
-1.55266e-07
1.13498e-06
4.6824e-07
-5.07577e-08
1.19436e-06
1.15679e-06
1.94488e-09
1.56978e-06
1.63364e-07
3.59237e-06
-4.3924e-06
-2.29255e-06
2.86116e-06
-1.97084e-06
-0.000172109
-0.000178512
-0.000134039
0.000123331
0.000125651
-0.000188984
0.000155905
-0.000274364
-0.000125707
4.22713e-05
9.7539e-05
2.78865e-07
-1.72646e-07
0.00020894
-0.000233195
-7.65898e-05
0.000146452
-0.000121504
-0.000268062
-0.000253797
0.000194896
-0.000438398
0.000219432
-0.000337679
-0.000407214
0.000275192
-0.000429507
-3.50225e-05
-1.39453e-05
5.3902e-05
-4.07698e-05
4.82431e-05
-4.35257e-05
-3.36446e-05
-1.88587e-05
-0.000127446
9.33853e-05
-0.000105255
0.000118151
-2.07858e-05
-9.24965e-05
-2.14575e-05
0.0022506
-0.00218432
0.00147779
-0.00144352
1.27077e-05
2.58323e-05
5.72122e-05
4.89969e-05
-8.13666e-05
-0.000197522
0.000125441
6.81706e-05
-6.26153e-05
-6.97499e-05
-3.35265e-05
-8.09223e-06
-2.57745e-05
-2.98634e-06
2.11122e-05
-4.57843e-06
-3.10222e-05
-2.65804e-05
-2.19374e-06
2.212e-05
-4.02731e-06
-3.27657e-05
-3.30932e-05
-1.601e-05
5.90739e-05
-5.82817e-05
0.000117238
9.7259e-05
-0.000149684
-0.000106115
-3.63124e-05
-0.000222525
-2.7838e-07
3.14856e-07
1.54532e-07
-4.05688e-07
-0.000138778
5.12788e-05
0.000132842
-0.00206716
0.00136188
0.00123423
-0.000787856
-2.36825e-05
-2.66924e-05
1.7113e-06
-1.81173e-06
5.60122e-07
3.37546e-07
1.86573e-06
-1.86302e-06
1.03871e-06
8.07454e-07
1.82859e-06
-1.79193e-06
1.48697e-06
1.28535e-06
1.70306e-06
-1.7047e-06
1.70603e-06
1.67508e-06
-2.35306e-06
1.83997e-06
-1.70482e-06
2.78036e-06
-4.26239e-06
-2.79356e-06
3.54081e-06
-2.11316e-06
5.20256e-06
-6.33533e-06
-2.99199e-06
-2.78618e-06
7.59453e-06
-9.13622e-06
-4.22967e-06
-3.56781e-06
1.1052e-05
-1.34752e-05
-6.60924e-06
-5.26134e-06
1.65692e-05
-2.01892e-05
-1.07586e-05
-8.39747e-06
2.45786e-05
-2.96898e-05
-1.77048e-05
-1.37197e-05
3.55738e-05
-4.2226e-05
-2.94132e-05
-2.27796e-05
4.98252e-05
-5.84299e-05
-5.02968e-05
-3.81555e-05
6.90362e-05
-8.59333e-05
-9.03313e-05
-6.79891e-05
-0.000121272
-8.71171e-05
-0.000105316
8.63878e-05
-0.000108886
9.45862e-05
-0.000135098
-7.22169e-05
5.8704e-05
-6.3786e-05
-8.43759e-05
-4.77653e-05
3.91986e-05
-3.59033e-05
-4.79821e-05
-3.24227e-05
2.66123e-05
-2.04805e-05
-2.69133e-05
-2.17266e-05
1.74774e-05
-1.22148e-05
-1.59405e-05
-1.39793e-05
1.12023e-05
-7.30141e-06
-9.37785e-06
-9.062e-06
7.48289e-06
-4.62308e-06
-5.70095e-06
-6.25865e-06
5.25746e-06
-3.17897e-06
-3.81283e-06
-2.69475e-06
-0.000131278
0.000144795
-1.8775e-05
-1.95472e-05
-0.000158366
0.000171793
-1.71187e-05
-1.79692e-05
-0.000184977
0.000197604
-1.64318e-05
-1.65878e-05
-0.000209456
0.000220172
-1.91081e-05
-1.70869e-05
-0.000228928
0.000234261
-3.27142e-05
-2.36972e-05
-4.84418e-05
-2.75011e-07
-7.69429e-06
-7.88607e-05
8.25454e-06
-1.56395e-05
-7.92161e-05
-7.88863e-05
-1.05212e-05
-3.55538e-05
1.50635e-05
-7.95666e-05
-2.14219e-05
-7.91406e-05
-4.77632e-05
9.03133e-05
-0.000153299
0.000107631
-0.000152064
0.000144465
-0.000127394
5.43775e-05
-0.000203647
-0.000168661
5.56012e-05
-0.000157809
-0.000174665
-0.000215706
0.000216369
-0.000235916
-7.39534e-05
-0.000114305
0.000234546
-0.00022748
-3.39669e-05
-4.86031e-05
0.000218208
-0.000207614
-1.98274e-05
-2.50015e-05
0.000196417
-0.000184503
-1.69419e-05
-1.77908e-05
0.000171723
-0.0001585
-1.76484e-05
-1.71305e-05
0.000144993
-0.000131464
-1.93824e-05
-1.85088e-05
-2.01548e-05
-8.59526e-08
-1.05347e-07
1.11184e-06
9.65358e-08
-7.86499e-08
1.01521e-06
1.03182e-06
2.8128e-07
-5.02208e-07
1.31443e-06
1.17941e-06
-1.28744e-06
7.05289e-07
-9.69558e-07
1.89203e-06
1.58039e-06
1.264e-06
-1.5653e-06
2.64254e-06
2.26239e-06
1.90024e-06
-2.22231e-06
3.60734e-06
3.12121e-06
2.56078e-06
-2.87265e-06
4.71401e-06
4.14693e-06
3.20351e-06
-3.54685e-06
5.97301e-06
5.29626e-06
3.8681e-06
-4.11108e-06
7.64067e-06
6.73557e-06
4.26034e-06
-4.37662e-06
9.6095e-06
8.55656e-06
4.47951e-06
-4.45125e-06
1.19389e-05
1.06618e-05
4.18008e-06
-3.73924e-06
1.43898e-05
1.31595e-05
3.32056e-06
-2.85922e-06
1.61823e-05
1.52574e-05
2.2077e-05
-2.18309e-06
-2.7236e-05
2.28467e-06
-1.64653e-06
1.77004e-05
1.6948e-05
-8.8791e-07
-2.29453e-05
1.82939e-05
-1.28978e-07
-2.33083e-05
1.85623e-05
2.29913e-05
-1.23608e-06
-2.857e-05
-8.01251e-07
1.44821e-06
1.84455e-05
-2.36335e-05
1.87151e-05
-1.87422e-06
2.48336e-06
1.73598e-05
1.79587e-05
-3.11019e-06
3.4521e-06
1.64366e-05
1.69918e-05
-4.23865e-06
4.99765e-06
1.47743e-05
1.54427e-05
-5.18937e-06
5.17617e-06
1.22505e-05
1.35872e-05
-4.94999e-06
4.66096e-06
9.99316e-06
1.10676e-05
-4.37384e-06
4.04422e-06
8.08444e-06
8.99295e-06
-3.70369e-06
3.37832e-06
6.47933e-06
7.22964e-06
-3.09475e-06
2.84878e-06
5.23267e-06
5.81154e-06
-2.6187e-06
2.3753e-06
4.18691e-06
4.69055e-06
-2.10366e-06
1.7892e-06
3.21512e-06
3.68979e-06
-1.43819e-06
1.08101e-06
2.32434e-06
2.74809e-06
-7.41283e-07
4.59846e-07
1.67252e-06
1.9622e-06
-2.08275e-07
-3.42287e-08
1.4373e-06
1.49893e-06
1.4461e-06
-1.61346e-06
4.99727e-08
1.2774e-06
1.76799e-06
-1.88955e-06
4.07209e-07
2.01142e-07
1.96292e-06
-1.98304e-06
8.74866e-07
6.33286e-07
1.99002e-06
-1.98864e-06
1.34438e-06
1.10591e-06
1.9691e-06
-1.91938e-06
1.7924e-06
1.56913e-06
1.83952e-06
2.17434e-06
-1.72394e-06
1.99838e-06
0.000368623
0.000108192
-0.000116909
-0.000251856
1.52813e-05
1.37203e-05
0.00045952
-0.000883232
-0.000591456
4.98659e-05
-0.000190668
-0.00088189
-0.00268021
0.0012248
-0.00054938
0.000382815
-0.000762022
0.000584927
-0.000150279
0.00203371
0.00156837
0.00112005
-0.00220971
0.00104199
0.000992099
-0.00122647
-4.06973e-05
-1.87126e-05
4.74728e-05
-3.15399e-05
6.0489e-08
-2.97235e-05
-1.18756e-06
-2.85342e-05
4.38218e-05
-3.49182e-05
-3.88639e-05
-2.32607e-05
-0.000137276
0.000115242
0.000171485
-0.00021554
0.000151332
-4.44732e-05
4.98011e-07
-5.7287e-07
-4.59727e-07
0.00128196
-0.00155203
0.00132848
-0.00174889
0.000153259
-0.000356096
-0.000132085
0.000107162
-0.000134922
-2.19923e-05
-7.96438e-05
-9.09928e-05
0.000178156
-2.54754e-05
-6.33973e-05
-7.74837e-05
1.00257e-06
-1.15468e-06
-1.29583e-08
4.64195e-08
8.96614e-07
-2.025e-08
8.01045e-08
8.85026e-07
0.000108425
-0.000236411
0.000175566
6.08616e-05
-4.43257e-05
-3.98026e-05
-1.31767e-05
-3.49749e-06
-3.33489e-05
-2.37149e-06
-3.59019e-05
-3.86317e-05
-1.94104e-05
5.44248e-05
-4.84312e-05
-0.000114301
6.76448e-05
0.000117046
-1.58409e-06
1.60767e-06
1.24772e-06
-1.52544e-06
1.3404e-06
-0.000129449
-0.000235963
0.000177617
-0.00243537
-0.00261269
0.00286812
2.1078e-05
0.000173384
0.000135938
0.000239356
-0.00018851
-1.52503e-05
-3.69317e-05
0.00120235
0.000974345
-0.00195188
0.000201707
3.09814e-05
-3.13148e-05
0.000124995
-0.000153252
9.76532e-05
-0.000192286
-0.000162071
-9.21873e-05
7.88437e-05
-6.46453e-05
-3.71029e-05
-7.34375e-06
-8.34773e-06
-4.09401e-05
6.35801e-05
-7.22559e-05
-6.12585e-05
-1.54291e-06
1.63066e-06
1.58355e-06
2.33502e-06
-3.05393e-06
-1.59254e-06
-1.42821e-06
1.70596e-06
-2.20931e-05
1.55271e-05
-6.61942e-05
-7.99928e-05
9.27751e-05
-2.70036e-05
-2.80756e-05
-6.66481e-05
-4.08599e-05
-0.000230271
-1.47792e-06
8.32704e-09
-0.00010149
4.3287e-05
0.000117105
-0.000112536
-0.000139207
9.39096e-05
0.000641348
-1.12727e-05
7.18293e-06
-7.37691e-06
1.05689e-05
1.54126e-05
-2.39475e-05
-2.91777e-05
-2.87767e-05
0.000111129
-0.000190811
-0.000122935
1.29957e-06
-1.44509e-06
1.16175e-07
2.74038e-08
1.55848e-06
-1.64479e-06
3.74683e-07
2.28347e-07
1.69846e-06
-1.7159e-06
6.97113e-07
5.43613e-07
1.71288e-06
-1.67616e-06
1.0297e-06
8.86697e-07
1.1761e-06
-2.59335e-06
1.9972e-06
-1.63857e-06
3.39331e-06
-4.59012e-06
-2.35314e-06
-1.93969e-06
5.6909e-06
-6.8367e-06
-2.88005e-06
-2.58906e-06
8.30674e-06
-1.002e-05
-3.97875e-06
-3.29998e-06
1.22425e-05
-1.50701e-05
-6.16613e-06
-4.89647e-06
1.86064e-05
-2.30195e-05
-1.00387e-05
-7.88058e-06
2.80877e-05
-3.41212e-05
-1.69471e-05
-1.30555e-05
4.12576e-05
-4.97703e-05
-2.88498e-05
-2.20272e-05
6.02481e-05
-7.35276e-05
-5.15854e-05
-3.82926e-05
9.23453e-05
-0.00011994
-9.79554e-05
-7.11201e-05
-0.000141115
0.00137391
-0.00194495
-0.00128195
0.00109104
-0.000208849
-8.60023e-05
6.95587e-05
-6.66187e-05
-9.31442e-05
-5.63623e-05
4.57798e-05
-3.529e-05
-4.83323e-05
-3.737e-05
3.03548e-05
-1.93917e-05
-2.60377e-05
-2.459e-05
1.97697e-05
-1.13921e-05
-1.49857e-05
-1.568e-05
1.25329e-05
-6.80036e-06
-8.60538e-06
-1.00705e-05
8.22772e-06
-4.27256e-06
-5.26717e-06
-6.80518e-06
5.68712e-06
-2.93735e-06
-3.49996e-06
-4.71011e-06
3.84972e-06
-2.12066e-06
-2.47226e-06
-1.81317e-06
-0.000105518
0.000118459
-2.51541e-05
-2.61253e-05
-0.000131839
0.000145417
-2.32887e-05
-2.4285e-05
-0.000158989
0.000172233
-2.16509e-05
-2.24958e-05
-0.000185036
0.000197034
-2.12684e-05
-2.11451e-05
-0.000207791
0.000216394
-2.54272e-05
-2.25717e-05
-0.000221961
0.000222806
-4.17072e-05
-3.13873e-05
-0.000210178
0.000170014
-9.22986e-05
-6.10142e-05
-9.81154e-05
1.24695e-05
-0.000193754
-0.000139038
-1.60971e-05
8.56309e-06
-6.5885e-05
-8.0044e-05
9.28514e-05
-2.75315e-05
2.26511e-05
-2.85872e-05
-6.66858e-05
-6.62381e-05
-2.90496e-07
-7.98555e-06
-6.55834e-05
-6.56111e-05
-6.58233e-05
2.02541e-05
3.41906e-05
-0.000168874
-0.000147168
-7.20379e-05
5.50185e-05
-0.000199812
-0.000188648
1.23409e-05
-0.00010479
-0.000183966
-0.000205134
0.00017519
-0.000211461
-9.17893e-05
-0.000133634
0.000221308
-0.000219213
-4.39534e-05
-6.22914e-05
0.000213337
-0.000205189
-2.6632e-05
-3.33213e-05
0.000195397
-0.000184248
-2.21627e-05
-2.35992e-05
0.000172109
-0.000159139
-2.23848e-05
-2.19289e-05
0.00014565
-0.000132037
-2.40111e-05
-2.33168e-05
0.000118603
-0.000105623
-2.57495e-05
-2.4931e-05
-2.66862e-05
-7.98917e-08
6.45519e-08
9.47177e-07
9.06497e-07
1.30125e-09
-1.38919e-07
1.10446e-06
1.00005e-06
3.11704e-07
-5.21371e-07
1.48916e-06
1.27083e-06
7.6961e-07
-1.04106e-06
2.09334e-06
1.77941e-06
1.33936e-06
-1.63179e-06
2.93718e-06
2.51066e-06
1.92891e-06
-2.20715e-06
3.92798e-06
3.42339e-06
2.49119e-06
-2.78968e-06
5.06616e-06
4.46467e-06
3.05272e-06
-3.244e-06
6.35575e-06
5.66982e-06
3.37075e-06
-3.43821e-06
7.83951e-06
7.04479e-06
3.52062e-06
-3.45404e-06
9.5667e-06
8.68592e-06
3.31025e-06
-3.03043e-06
1.13807e-05
1.04858e-05
2.7291e-06
-2.35328e-06
1.27999e-05
1.20889e-05
1.90088e-06
-1.39722e-06
1.3968e-05
1.33748e-05
7.959e-07
-1.98496e-07
1.46293e-05
1.43918e-05
-4.60559e-07
1.02936e-06
1.45804e-05
1.47297e-05
-1.53867e-06
1.98016e-06
1.37923e-05
1.42401e-05
-2.46793e-06
2.92361e-06
1.29369e-05
1.34079e-05
-3.29705e-06
3.70451e-06
1.15258e-05
1.21445e-05
-3.88152e-06
3.84614e-06
9.75959e-06
1.06902e-05
-3.71484e-06
3.53041e-06
8.08171e-06
8.892e-06
-3.32618e-06
3.11688e-06
6.62814e-06
7.32604e-06
-2.88985e-06
2.6674e-06
5.41105e-06
5.98748e-06
-2.46414e-06
2.27118e-06
4.38822e-06
4.8749e-06
-2.07396e-06
1.85503e-06
3.45821e-06
3.91351e-06
-1.60208e-06
1.31658e-06
2.57257e-06
3.00455e-06
-1.01223e-06
7.17804e-07
1.80721e-06
2.16358e-06
-4.63512e-07
2.86746e-07
1.28797e-06
1.5172e-06
-2.25872e-07
9.45707e-07
4.23967e-07
1.14056e-06
1.5839e-06
-1.67316e-06
2.67842e-07
1.19254e-07
1.72769e-06
-1.74696e-06
6.05131e-07
4.27489e-07
1.74947e-06
-1.74129e-06
9.51487e-07
7.7768e-07
1.72789e-06
-1.69563e-06
1.29171e-06
1.1215e-06
1.4431e-06
5.01503e-07
-0.00149197
0.00127219
0.00189171
-0.0012606
0.000147519
-0.000453567
-0.000258574
0.000544155
6.61902e-08
-2.54979e-08
7.54088e-07
0.000455345
0.000493267
-0.000302604
0.000232447
0.000449121
0.000538142
5.36673e-05
-3.35633e-05
-4.69714e-05
-1.81211e-05
-2.16541e-06
-3.52439e-05
1.36043e-07
-3.81525e-05
-4.41533e-05
-2.47053e-05
4.97159e-05
-3.88037e-05
-0.000120676
9.05441e-05
-1.2282e-05
8.93391e-06
1.45722e-06
-1.43004e-06
0.000269293
-0.000281901
0.0023754
0.00123491
-0.00247022
-8.76412e-05
0.000257886
0.000119455
0.00026736
-0.000666431
-0.00012783
-0.000194466
9.26807e-08
7.60203e-07
-0.00229734
0.000245754
-0.000638539
0.000367907
0.000207466
-0.00036512
-8.03051e-05
9.29486e-05
-3.26004e-05
-6.70289e-05
-3.39819e-05
8.7651e-05
0.000446895
-0.000181634
0.000174965
-1.58322e-05
-4.13391e-05
4.37464e-05
0.000303828
0.000471945
0.000440157
-0.000174928
0.000130879
-3.44152e-05
-3.00621e-05
6.79743e-05
6.95633e-05
-4.86562e-05
-4.45531e-05
-1.19328e-05
-6.20089e-06
-4.03182e-05
-3.87581e-06
-4.77847e-05
-4.34718e-05
-1.95996e-05
6.03612e-05
-5.60142e-05
-8.91768e-05
6.94869e-05
1.02371e-06
-1.15538e-06
3.84957e-08
9.05255e-07
6.23473e-09
2.51117e-06
-3.27846e-06
-1.42231e-06
1.83956e-06
-1.2803e-06
-1.40503e-06
1.48208e-06
1.09822e-06
-1.30336e-06
1.18923e-06
-8.02817e-05
9.29075e-05
-3.21367e-05
-6.70076e-05
-3.35406e-05
-2.27717e-05
1.59584e-05
-5.23412e-05
-2.91169e-05
-5.2732e-05
-0.00155105
-0.000281289
-6.46411e-05
-0.000249446
1.2995e-06
-1.38935e-06
1.66552e-08
1.14396e-06
-5.38128e-08
-3.57744e-05
-0.000214853
7.25774e-07
-9.85728e-07
8.23104e-07
-0.000117618
8.83405e-05
2.50271e-07
-1.11326e-07
1.37477e-07
0.00034356
1.09635e-05
-2.50811e-05
-3.69056e-05
-3.09999e-05
0.000100234
-0.000153119
1.26803e-06
-1.375e-06
1.06386e-07
5.07897e-08
1.46019e-06
-1.53341e-06
2.49908e-07
1.57355e-07
1.57235e-06
-1.6012e-06
4.47261e-07
3.4378e-07
1.59066e-06
-1.57951e-06
6.80624e-07
5.63508e-07
1.52375e-06
-1.47875e-06
8.45851e-07
7.66619e-07
1.41048e-06
-1.31127e-06
1.00087e-06
9.13014e-07
-1.5914e-06
1.10732e-06
-1.18181e-06
2.16972e-06
-2.87296e-06
-1.47841e-06
-1.29847e-06
3.75039e-06
-4.84931e-06
-2.03235e-06
-1.71539e-06
6.05594e-06
-7.438e-06
-2.55028e-06
-2.28624e-06
9.03591e-06
-1.09902e-05
-3.56854e-06
-2.94784e-06
1.34369e-05
-1.66049e-05
-5.54206e-06
-4.42889e-06
2.06878e-05
-2.55839e-05
-9.0439e-06
-6.99414e-06
3.15618e-05
-3.87834e-05
-1.53858e-05
-1.17311e-05
4.74468e-05
-5.80023e-05
-2.73931e-05
-2.0382e-05
7.18697e-05
-9.07208e-05
-5.15866e-05
-3.71981e-05
0.000119855
-0.000169244
-0.000106653
-7.3579e-05
-0.000162599
-0.00138952
0.00118441
0.00230861
-0.000188732
0.000142945
-0.000188884
-0.000339589
-0.000109105
8.47834e-05
-6.92042e-05
-0.000108068
-6.67509e-05
5.30672e-05
-3.3026e-05
-4.6994e-05
-4.23909e-05
3.41927e-05
-1.75885e-05
-2.36731e-05
-2.74189e-05
2.18945e-05
-1.00783e-05
-1.33173e-05
-1.73239e-05
1.37924e-05
-6.03334e-06
-7.51358e-06
-1.10277e-05
8.95962e-06
-3.79402e-06
-4.64656e-06
-7.35628e-06
6.08985e-06
-2.59702e-06
-3.08557e-06
-5.03865e-06
4.10199e-06
-1.8899e-06
-2.19428e-06
-1.64238e-06
-0.000105575
0.000118547
-2.94121e-05
-3.08249e-05
-0.000131978
0.000145561
-2.6816e-05
-2.81247e-05
-0.000159043
0.000172166
-2.50429e-05
-2.57875e-05
-0.00018444
0.000195506
-2.51857e-05
-2.47246e-05
-0.000204606
0.000210895
-3.07357e-05
-2.69632e-05
-0.000213162
0.000207401
-4.95175e-05
-3.76674e-05
-0.000182446
0.000133167
-0.000103208
-7.04922e-05
-6.16509e-05
-5.08436e-06
-0.000171446
-0.000146096
-1.65402e-05
8.84258e-06