/*--------------------------------*- C++ -*----------------------------------*\
| =========                 |                                                 |
| \\      /  F ield         | OpenFOAM: The Open Source CFD Toolbox           |
|  \\    /   O peration     | Version:  2212                                  |
|   \\  /    A nd           | Website:  www.openfoam.com                      |
|    \\/     M anipulation  |                                                 |
\*---------------------------------------------------------------------------*/
FoamFile
{
    version     2.0;
    format      ascii;
    arch        "LSB;label=32;scalar=64";
    class       volVectorField;
    location    "0.000207";
    object      U;
}
// * * * * * * * * * * * * * * * * * * * * * * * * * * * * * * * * * * * * * //

dimensions      [0 1 -1 0 0 0 0];

internalField   nonuniform List<vector> 
10556
(
(-1.64854e-09 5.45512 631.974)
(-8.71885e-10 8.07807 631.908)
(-4.56731e-10 11.407 631.866)
(-2.75581e-10 14.5402 631.784)
(-1.89996e-10 17.6446 631.684)
(-1.42265e-10 20.6036 631.562)
(-1.11096e-10 23.4863 631.415)
(-8.81113e-11 26.3533 631.2)
(-7.211e-11 29.352 631)
(-5.76701e-11 32.3241 630.801)
(-4.67502e-11 35.2346 630.628)
(-3.79644e-11 38.2168 630.377)
(-3.29995e-11 41.082 630.223)
(-3.71159e-11 43.9923 630.297)
(-2.58893e-11 47.8663 630.675)
(-4.05396e-11 52.4335 630.776)
(-4.17877e-11 58.6958 628.394)
(-5.69769e-11 65.9288 616.748)
(-6.53297e-11 70.1937 589.084)
(-6.42694e-11 72.144 543.328)
(-5.98943e-11 71.1633 481.612)
(1.8737e-11 67.7961 404.754)
(1.16428e-09 60.0485 317.295)
(1.60065e-08 49.7465 222.065)
(1.03541e-07 20.3467 108.6)
(-1.64767e-09 5.50571 630.274)
(-8.69867e-10 8.07752 630.199)
(-4.55259e-10 11.4018 630.161)
(-2.73913e-10 14.5409 630.088)
(-1.88752e-10 17.6429 629.994)
(-1.41729e-10 20.6107 629.865)
(-1.11149e-10 23.5259 629.712)
(-8.76834e-11 26.4002 629.488)
(-7.16794e-11 29.3616 629.284)
(-5.71125e-11 32.3172 629.104)
(-4.60593e-11 35.2703 628.905)
(-3.73843e-11 38.302 628.616)
(-3.28566e-11 41.2378 628.388)
(-3.72405e-11 44.2288 628.228)
(-2.65586e-11 48.0823 628.304)
(-3.52368e-11 52.2568 627.993)
(-3.65507e-11 58.0222 624.68)
(-5.56954e-11 65.2573 611.391)
(-6.46445e-11 69.3909 581.982)
(-6.37007e-11 70.7481 534.219)
(-6.49348e-11 68.9039 469.976)
(-1.41829e-10 64.3482 389.38)
(9.33623e-11 55.767 295.562)
(6.23567e-09 44.2739 191.74)
(7.50351e-08 17.9587 77.7608)
(-1.64185e-09 5.49294 631.055)
(-8.66946e-10 8.07319 630.996)
(-4.53425e-10 11.4032 630.943)
(-2.72232e-10 14.5446 630.863)
(-1.97489e-10 17.6513 630.762)
(-1.50758e-10 20.6299 630.621)
(-1.11648e-10 23.5591 630.459)
(-8.71811e-11 26.4348 630.27)
(-7.12448e-11 29.3759 630.068)
(-5.66082e-11 32.3276 629.899)
(-4.53969e-11 35.2942 629.742)
(-3.68767e-11 38.3738 629.493)
(-3.27476e-11 41.4489 629.252)
(-3.74362e-11 44.5614 628.977)
(-2.70025e-11 48.2323 628.946)
(-2.52337e-11 52.0754 629.052)
(-3.03993e-11 57.4448 626.604)
(-5.40546e-11 64.7399 614.951)
(-6.36921e-11 68.9069 587.082)
(-6.25734e-11 69.8708 540.078)
(-6.18692e-11 67.2525 475.433)
(-3.78401e-11 61.3067 392.813)
(-2.62311e-10 51.2645 295.827)
(-2.30138e-09 37.6142 190.044)
(6.36207e-10 15.7697 72.5935)
(-1.64016e-09 5.4995 631.261)
(-8.63789e-10 8.06259 631.213)
(-4.51639e-10 11.4036 631.154)
(-2.71078e-10 14.5485 631.069)
(-1.82648e-10 17.6631 630.964)
(-1.36331e-10 20.6511 630.819)
(-1.12522e-10 23.5877 630.655)
(-8.66906e-11 26.4639 630.48)
(-7.08136e-11 29.3857 630.279)
(-5.60366e-11 32.3142 630.12)
(-4.47074e-11 35.2865 629.968)
(-3.63237e-11 38.4805 629.695)
(-3.24931e-11 41.9077 629.328)
(-3.77012e-11 45.1157 628.891)
(-2.74696e-11 48.3766 629.057)
(-1.84259e-10 51.7358 629.553)
(-1.40732e-10 56.6623 627.361)
(-5.35337e-11 64.0785 615.723)
(-6.25886e-11 68.5875 588.435)
(-6.15537e-11 69.5783 541.758)
(-6.40688e-11 66.8331 477.213)
(-5.88852e-11 60.4995 394.314)
(1.70501e-10 49.5769 296.529)
(8.4784e-10 34.6286 189.43)
(1.10994e-10 13.4774 70.3399)
(-1.64031e-09 5.54054 631.315)
(-8.59973e-10 8.03866 631.289)
(-4.49673e-10 11.3962 631.224)
(-2.7199e-10 14.5493 631.129)
(-1.86308e-10 17.6744 631.013)
(-1.38834e-10 20.6676 630.863)
(-1.12342e-10 23.6006 630.698)
(-8.63752e-11 26.4738 630.543)
(-7.04224e-11 29.376 630.347)
(-5.55776e-11 32.2535 630.211)
(-4.4395e-11 35.2914 630.033)
(-3.56274e-11 38.6851 629.691)
(-3.14971e-11 42.2714 629.034)
(-3.73739e-11 45.3479 628.791)
(-2.22264e-11 48.4075 629.091)
(5.11846e-11 51.4082 629.93)
(4.13889e-11 56.1268 627.581)
(-5.22665e-11 63.5028 616.283)
(-6.18489e-11 68.1553 589.776)
(-5.99613e-11 69.269 543.806)
(-6.06586e-11 66.4346 479.834)
(-6.7595e-11 59.5305 396.909)
(-1.97336e-10 47.9063 298.814)
(-2.94715e-10 32.908 189.916)
(-4.2167e-11 12.5164 68.8242)
(-1.64541e-09 5.53161 631.347)
(-8.56999e-10 8.02675 631.345)
(-4.47008e-10 11.3943 631.259)
(-2.73559e-10 14.5607 631.16)
(-1.84649e-10 17.6999 631.028)
(-1.34214e-10 20.6948 630.873)
(-1.08092e-10 23.6071 630.713)
(-8.62023e-11 26.4689 630.575)
(-7.01374e-11 29.3488 630.386)
(-5.51147e-11 32.2027 630.287)
(-4.38895e-11 35.363 630.048)
(-3.47009e-11 38.9547 629.55)
(-2.96809e-11 42.6468 628.934)
(-3.72016e-11 45.6003 628.901)
(-2.29142e-11 48.4783 629.278)
(-8.54124e-11 51.3833 630.337)
(-8.64575e-11 56.0437 628.004)
(-5.18296e-11 62.7706 616.736)
(-6.05584e-11 67.5874 590.519)
(-5.74995e-11 68.8812 544.889)
(-6.04408e-11 66.1002 481.199)
(-4.2881e-11 58.8057 398.587)
(4.96789e-11 47.0884 299.996)
(7.38644e-11 32.1532 190.112)
(1.47156e-12 12.0852 68.2052)
(-1.65981e-09 5.46819 631.427)
(-8.57107e-10 8.03706 631.385)
(-4.46647e-10 11.4068 631.282)
(-2.8037e-10 14.5719 631.179)
(-2.05654e-10 17.725 631.045)
(-1.4995e-10 20.7146 630.883)
(-1.14322e-10 23.6071 630.735)
(-8.59746e-11 26.4678 630.589)
(-6.98299e-11 29.3072 630.438)
(-5.49226e-11 32.2057 630.313)
(-4.31841e-11 35.5146 629.956)
(-3.35645e-11 39.2523 629.345)
(-2.85774e-11 42.7968 628.879)
(-3.70757e-11 45.6232 628.952)
(-1.86675e-11 48.3486 629.605)
(-4.23534e-11 51.3296 630.576)
(-1.71608e-11 56.106 628.42)
(-4.90013e-11 62.5215 617.537)
(-6.2399e-11 67.0304 591.669)
(-2.4422e-10 68.3756 546.555)
(-2.25633e-10 65.6444 483.351)
(-7.33353e-11 58.4704 400.657)
(-1.04391e-10 46.8584 301.277)
(-7.75186e-11 31.948 190.774)
(-1.57978e-11 11.9061 68.0165)
(-1.66896e-09 5.30177 631.418)
(-8.53109e-10 8.05841 631.337)
(-4.43406e-10 11.4511 631.224)
(-2.48182e-10 14.6092 631.124)
(-1.60824e-10 17.7543 631.024)
(-1.3311e-10 20.7226 630.892)
(-1.02531e-10 23.6065 630.747)
(-8.51808e-11 26.4666 630.572)
(-6.95661e-11 29.2837 630.443)
(-5.43087e-11 32.2605 630.263)
(-4.22872e-11 35.7588 629.758)
(-3.26537e-11 39.5057 629.176)
(-2.79845e-11 42.8395 628.88)
(-3.70799e-11 45.5772 629.109)
(-3.78921e-11 48.1392 629.96)
(-5.77941e-11 51.3017 630.723)
(-3.1192e-11 56.1876 628.741)
(-4.87693e-11 62.5626 618.441)
(-5.03334e-11 66.7913 592.579)
(8.89091e-11 67.9405 547.604)
(6.559e-11 65.296 484.387)
(-3.63052e-11 58.4255 401.657)
(-1.08918e-11 46.9154 302.068)
(-8.9773e-12 31.8489 191.199)
(-9.15413e-12 11.828 67.9865)
(-1.66516e-09 5.15284 631.202)
(-8.47311e-10 8.10645 631.091)
(-4.40535e-10 11.4725 631.028)
(-2.7965e-10 14.5907 630.953)
(-1.96953e-10 17.7254 630.874)
(-1.49647e-10 20.7247 630.78)
(-1.24241e-10 23.6409 630.649)
(-8.48708e-11 26.4648 630.447)
(-6.88456e-11 29.2655 630.321)
(-5.36234e-11 32.3876 630.037)
(-4.19538e-11 35.9757 629.542)
(-3.24481e-11 39.6532 629.109)
(-2.77663e-11 42.8295 628.947)
(-3.61068e-11 45.4805 629.337)
(-1.74095e-10 48.0655 630.123)
(-1.53062e-10 51.2838 630.768)
(-2.83744e-11 56.236 628.942)
(-4.6765e-11 62.6812 619.243)
(-6.96475e-11 66.7888 593.642)
(-1.78872e-10 67.8773 548.846)
(-1.52097e-10 65.2806 485.591)
(-7.50945e-11 58.4113 402.822)
(-6.7725e-11 46.9519 303.103)
(-4.1597e-11 31.8651 191.881)
(-1.23767e-11 11.7916 68.1137)
(-1.6567e-09 5.00334 630.982)
(-8.44131e-10 8.09273 630.989)
(-4.37488e-10 11.4548 630.929)
(-2.53151e-10 14.6133 630.851)
(-1.71012e-10 17.7512 630.759)
(-1.20899e-10 20.7426 630.637)
(-9.39242e-11 23.6712 630.492)
(-8.44717e-11 26.4778 630.385)
(-6.86527e-11 29.3325 630.202)
(-5.3438e-11 32.5385 629.864)
(-4.14698e-11 36.1078 629.403)
(-3.2134e-11 39.6934 629.065)
(-2.75563e-11 42.7613 629.027)
(-2.91559e-11 45.3781 629.418)
(6.20325e-11 48.0835 630.187)
(2.23619e-11 51.4209 630.772)
(-2.97143e-11 56.3375 629.082)
(-4.60472e-11 62.7519 619.584)
(-4.61867e-11 67.0163 594.233)
(2.42644e-11 67.8284 549.451)
(7.91365e-12 65.1088 486.142)
(-3.95751e-11 58.329 403.376)
(-3.31402e-11 46.9492 303.622)
(-2.52325e-11 31.878 192.253)
(-1.0043e-11 11.785 68.2405)
(-1.65468e-09 4.94128 630.93)
(-8.39345e-10 8.08901 630.93)
(-4.35266e-10 11.4867 630.878)
(-2.69157e-10 14.6031 630.792)
(-1.86803e-10 17.74 630.683)
(-1.45348e-10 20.7563 630.528)
(-1.16702e-10 23.6602 630.372)
(-8.37698e-11 26.4885 630.25)
(-6.81568e-11 29.4159 630.059)
(-5.27075e-11 32.698 629.685)
(-4.07574e-11 36.2426 629.314)
(-3.18517e-11 39.6899 629.051)
(-2.60277e-11 42.6762 629.065)
(-3.43186e-11 45.2655 629.44)
(-8.80826e-11 48.1294 630.207)
(-6.53823e-11 51.6331 630.696)
(-2.75259e-11 56.4909 629.145)
(-4.64307e-11 62.8184 620.006)
(-6.68268e-11 67.1158 595.005)
(-1.19999e-10 68.0442 550.465)
(-1.02829e-10 65.2082 487.086)
(-6.7287e-11 58.295 404.166)
(-5.25526e-11 46.9404 304.244)
(-3.25897e-11 31.9193 192.67)
(-1.08351e-11 11.7953 68.3777)
(-1.64988e-09 5.03475 630.816)
(-8.34683e-10 8.07362 630.817)
(-4.30658e-10 11.4841 630.786)
(-2.50449e-10 14.6444 630.676)
(-1.68402e-10 17.8028 630.554)
(-1.22888e-10 20.8053 630.445)
(-9.94585e-11 23.702 630.309)
(-8.33961e-11 26.5168 630.123)
(-6.77902e-11 29.5116 629.897)
(-5.24979e-11 32.7881 629.553)
(-4.04242e-11 36.2612 629.236)
(-3.09387e-11 39.6702 629.047)
(-2.16187e-11 42.597 629.075)
(-2.98838e-11 45.1835 629.461)
(3.04024e-11 48.212 630.138)
(-4.32457e-11 51.8458 630.579)
(-2.85223e-11 56.5897 629.144)
(-4.60966e-11 62.9269 620.29)
(-4.73558e-11 67.3603 595.537)
(-1.53994e-11 68.124 551.064)
(-1.93493e-10 65.2576 487.669)
(-1.92593e-10 58.2738 404.643)
(-4.47346e-11 46.8986 304.603)
(-2.8586e-11 31.91 192.889)
(-1.0443e-11 11.7856 68.4509)
(-1.64176e-09 5.13282 630.744)
(-8.3051e-10 8.03461 630.72)
(-4.29308e-10 11.494 630.677)
(-2.84952e-10 14.6624 630.58)
(-2.02613e-10 17.7903 630.493)
(-1.42644e-10 20.7801 630.386)
(-1.13996e-10 23.7059 630.251)
(-8.30354e-11 26.5734 630.052)
(-6.75035e-11 29.5848 629.793)
(-5.18707e-11 32.8727 629.495)
(-3.95375e-11 36.2963 629.201)
(-2.94637e-11 39.6084 629.01)
(-1.62185e-11 42.4919 629.067)
(-3.85463e-11 45.1376 629.391)
(-4.03133e-11 48.3085 629.935)
(-5.04323e-11 51.9106 630.488)
(-2.80996e-11 56.7101 629.211)
(-4.82469e-11 63.0676 620.521)
(-6.57806e-11 67.5365 596.289)
(-9.02316e-11 68.4001 552.115)
(5.59189e-11 65.4692 488.789)
(5.22388e-11 58.3579 405.585)
(-3.7343e-11 46.9034 305.288)
(-2.96241e-11 31.9116 193.284)
(-1.04373e-11 11.7732 68.5271)
(-1.62553e-09 5.20865 630.663)
(-8.25056e-10 8.02041 630.534)
(-4.25321e-10 11.4659 630.556)
(-2.46774e-10 14.6625 630.514)
(-1.88331e-10 17.8023 630.423)
(-1.63807e-10 20.8146 630.291)
(-1.15278e-10 23.7616 630.131)
(-8.25284e-11 26.6406 629.958)
(-6.72679e-11 29.6514 629.694)
(-5.16529e-11 32.8952 629.397)
(-3.9121e-11 36.2637 629.134)
(-2.82882e-11 39.5278 628.946)
(-1.37206e-11 42.3932 629.016)
(-3.89284e-11 45.149 629.247)
(-2.20998e-10 48.3991 629.722)
(-1.43214e-10 51.9213 630.453)
(-2.88991e-11 56.858 629.199)
(-4.76824e-11 63.2946 620.781)
(-4.69897e-11 67.6935 596.94)
(-3.57451e-11 68.4996 553.045)
(-1.47991e-10 65.6426 489.862)
(-1.34319e-10 58.4859 406.598)
(-5.40344e-11 46.9287 306.087)
(-3.03111e-11 31.9061 193.788)
(-1.04226e-11 11.7704 68.7137)
(-1.6102e-09 5.30292 630.451)
(-8.20763e-10 8.03452 630.38)
(-4.24122e-10 11.4225 630.363)
(-2.61867e-10 14.6293 630.349)
(-1.60536e-10 17.8008 630.26)
(-1.01434e-10 20.8241 630.12)
(-9.28294e-11 23.7568 629.993)
(-8.2172e-11 26.6863 629.869)
(-6.68472e-11 29.7382 629.618)
(-5.12428e-11 32.9539 629.345)
(-3.85135e-11 36.2907 629.059)
(-2.83175e-11 39.4479 628.857)
(-2.04033e-11 42.3126 628.911)
(-3.00605e-11 45.1738 629.035)
(1.47915e-10 48.4235 629.557)
(5.6263e-12 51.9312 630.414)
(-2.86198e-11 57.0314 629.043)
(-4.99611e-11 63.4681 620.866)
(-6.48432e-11 67.984 597.734)
(-7.14095e-11 68.8067 554.208)
(1.84978e-11 65.9054 491.282)
(8.46911e-12 58.7043 407.917)
(-3.29484e-11 47.0307 307.082)
(-2.76692e-11 31.9276 194.36)
(-1.00742e-11 11.7688 68.8712)
(-1.6047e-09 5.30366 630.358)
(-8.16066e-10 7.99884 630.318)
(-4.20338e-10 11.3843 630.28)
(-2.45074e-10 14.6141 630.217)
(-2.04963e-10 17.8101 630.138)
(-1.74672e-10 20.8227 630.04)
(-1.14141e-10 23.7433 629.928)
(-8.17998e-11 26.7014 629.736)
(-6.65942e-11 29.7824 629.511)
(-5.07639e-11 33.0014 629.225)
(-3.79245e-11 36.2865 628.955)
(-2.87294e-11 39.3695 628.78)
(-3.05683e-11 42.2839 628.76)
(-2.29691e-11 45.209 628.763)
(-1.51271e-10 48.3689 629.36)
(-7.56863e-11 51.9725 630.271)
(-2.70275e-11 57.1449 628.889)
(-4.78786e-11 63.5132 620.969)
(-4.85587e-11 67.9159 598.498)
(-4.90707e-11 68.8543 555.297)
(-1.12089e-10 66.0483 492.505)
(-9.84967e-11 58.9052 409.133)
(-5.3304e-11 47.1638 308.073)
(-3.06708e-11 31.9664 194.973)
(-1.04411e-11 11.7687 69.0581)
(-1.59803e-09 5.24608 630.308)
(-8.29408e-10 7.9857 630.261)
(-4.38677e-10 11.3676 630.211)
(-2.55969e-10 14.5952 630.146)
(-1.38803e-10 17.7862 630.064)
(-8.28507e-11 20.7985 629.958)
(-9.06556e-11 23.7776 629.813)
(-8.14416e-11 26.7529 629.614)
(-6.6288e-11 29.8445 629.389)
(-5.04049e-11 33.0576 629.114)
(-3.73089e-11 36.2907 628.857)
(-2.75849e-11 39.335 628.675)
(-2.21087e-10 42.3462 628.51)
(-2.07761e-10 45.2264 628.482)
(5.80004e-11 48.234 629.12)
(-8.12799e-12 52.0341 630.052)
(-2.76158e-11 57.1776 628.782)
(-4.92904e-11 63.4542 621.182)
(-6.2019e-11 68.1204 599.285)
(-6.05327e-11 69.2068 556.703)
(-7.9014e-12 66.3244 494.118)
(-1.70128e-11 59.1797 410.642)
(-3.41346e-11 47.3849 309.262)
(-2.69314e-11 32.074 195.696)
(-9.89014e-12 11.7819 69.2912)
(-1.58713e-09 5.12376 630.201)
(-7.85809e-10 7.98314 630.145)
(-3.93464e-10 11.3534 630.066)
(-2.42104e-10 14.5848 630.01)
(-2.01167e-10 17.7894 629.919)
(-1.94025e-10 20.836 629.786)
(-1.34796e-10 23.8176 629.613)
(-8.10894e-11 26.804 629.469)
(-6.59888e-11 29.899 629.276)
(-4.99001e-11 33.092 629.016)
(-3.6388e-11 36.2876 628.763)
(-1.77413e-11 39.371 628.519)
(1.91682e-10 42.4611 628.275)
(1.48254e-10 45.2328 628.26)
(-7.80936e-11 48.0745 628.829)
(-6.61394e-11 52.0668 629.796)
(-2.54248e-11 57.2805 628.696)
(-4.74974e-11 63.4777 621.408)
(-5.02859e-11 67.9056 599.889)
(-5.46029e-11 69.1738 557.775)
(-8.73538e-11 66.5075 495.448)
(-7.77894e-11 59.4094 411.96)
(-4.99331e-11 47.5928 310.348)
(-3.00658e-11 32.1996 196.396)
(-1.02798e-11 11.802 69.5345)
(-1.57804e-09 4.95792 630.039)
(-8.19324e-10 8.01463 630.009)
(-4.31113e-10 11.3735 629.929)
(-2.51474e-10 14.5757 629.859)
(-1.37499e-10 17.802 629.759)
(-6.24321e-11 20.8499 629.63)
(-7.29685e-11 23.804 629.497)
(-8.07329e-11 26.7806 629.334)
(-6.56956e-11 29.9279 629.146)
(-4.95473e-11 33.1304 628.926)
(-3.59855e-11 36.3433 628.664)
(-3.15105e-11 39.4543 628.348)
(-2.08204e-10 42.5599 628.078)
(-2.04787e-10 45.2868 628.078)
(2.2714e-11 47.9424 628.539)
(-5.32032e-13 52.0324 629.462)
(-2.52522e-11 57.3174 628.6)
(-4.88836e-11 63.5242 621.74)
(-5.98475e-11 68.0976 600.596)
(-5.59312e-11 69.3593 559.025)
(-2.42284e-11 66.7114 497.046)
(-3.10673e-11 59.7016 413.519)
(-3.60408e-11 47.8481 311.578)
(-2.67785e-11 32.37 197.166)
(-9.66354e-12 11.8411 69.7851)
(-1.55726e-09 4.78802 629.9)
(-7.78349e-10 7.97684 629.901)
(-3.90518e-10 11.355 629.829)
(-2.40106e-10 14.5823 629.744)
(-1.95945e-10 17.8057 629.655)
(-2.06509e-10 20.8537 629.545)
(-1.47938e-10 23.8328 629.431)
(-8.0365e-11 26.8177 629.266)
(-6.5534e-11 29.914 629.025)
(-4.90777e-11 33.1354 628.804)
(-3.49098e-11 36.4157 628.525)
(-1.29332e-11 39.5652 628.194)
(1.4897e-10 42.6303 627.938)
(1.36339e-10 45.3542 627.916)
(-5.92603e-11 47.9018 628.334)
(-4.92735e-11 52.0054 629.033)
(-2.40263e-11 57.339 628.513)
(-4.61274e-11 63.5528 621.995)
(-5.12494e-11 68.0384 601.208)
(-6.03714e-11 69.291 560.015)
(-2.63122e-10 66.7833 498.334)
(-2.28143e-10 59.9004 414.956)
(-5.30438e-11 48.0619 312.802)
(-2.92294e-11 32.5246 197.944)
(-9.97914e-12 11.8879 70.0179)
(-1.54432e-09 4.69758 629.753)
(-8.07328e-10 7.97918 629.725)
(-4.22642e-10 11.3825 629.664)
(-2.4607e-10 14.5648 629.594)
(-1.38344e-10 17.7828 629.528)
(-5.15664e-11 20.816 629.425)
(-5.75869e-11 23.7997 629.299)
(-8.01911e-11 26.8387 629.139)
(-6.5303e-11 29.9694 628.927)
(-4.88589e-11 33.1712 628.672)
(-3.51975e-11 36.4701 628.383)
(-3.26238e-11 39.6331 628.082)
(-1.46393e-10 42.7157 627.816)
(-1.35926e-10 45.422 627.833)
(-1.79192e-10 47.995 628.212)
(-2.05293e-10 51.9782 628.823)
(-2.34543e-11 57.2908 628.445)
(-4.45192e-11 63.4445 622.296)
(-5.75199e-11 68.3844 602.168)
(-4.11516e-11 69.5636 561.468)
(1.12209e-10 66.9002 500.049)
(8.50523e-11 60.0846 416.749)
(-2.30075e-11 48.3017 314.329)
(-2.5082e-11 32.7102 198.924)
(-9.39989e-12 11.9568 70.321)
(-1.53623e-09 4.73379 629.635)
(-7.79101e-10 7.94708 629.625)
(-3.91849e-10 11.341 629.572)
(-2.39094e-10 14.5348 629.481)
(-1.91343e-10 17.7509 629.387)
(-1.93788e-10 20.8161 629.279)
(-1.38866e-10 23.8201 629.127)
(-7.9603e-11 26.8305 628.957)
(-6.52224e-11 29.9585 628.796)
(-4.84719e-11 33.1948 628.546)
(-3.37268e-11 36.5047 628.26)
(-9.53248e-12 39.6808 627.977)
(8.59686e-11 42.7411 627.729)
(8.18356e-11 45.4539 627.762)
(1.25897e-10 48.0737 628.14)
(1.28745e-10 51.9787 628.731)
(-2.46293e-11 57.2185 628.347)
(-4.01366e-11 63.315 622.56)
(-5.16589e-11 68.3538 603.021)
(-6.9958e-11 69.733 562.81)
(-1.82889e-10 67.0438 501.65)
(-1.49045e-10 60.2042 418.434)
(-5.87059e-11 48.4841 315.837)
(-3.05988e-11 32.8642 199.945)
(-1.02189e-11 12.0223 70.6382)
(-1.5304e-09 4.74599 629.581)
(-8.17937e-10 7.93402 629.55)
(-4.37518e-10 11.3541 629.501)
(-2.42736e-10 14.5372 629.414)
(-1.37241e-10 17.7406 629.289)
(-5.53385e-11 20.7949 629.152)
(-6.35619e-11 23.7923 629.002)
(-8.00975e-11 26.7946 628.836)
(-6.50719e-11 29.9573 628.651)
(-4.82677e-11 33.215 628.414)
(-3.45933e-11 36.517 628.144)
(-3.62048e-11 39.7277 627.897)
(-1.22992e-10 42.7627 627.681)
(-1.01049e-10 45.4837 627.665)
(-1.67573e-10 48.156 628.043)
(-1.61947e-10 51.9856 628.625)
(-2.22806e-11 57.1268 628.229)
(-4.16081e-11 63.1998 622.797)
(-5.36121e-11 68.4985 603.955)
(-3.36336e-11 70.0435 564.472)
(5.26725e-11 67.3198 503.678)
(3.01589e-11 60.4269 420.434)
(-2.25143e-11 48.7115 317.6)
(-2.39185e-11 33.0645 201.183)
(-9.15633e-12 12.1142 71.0724)
(-1.52388e-09 4.89945 629.465)
(-7.49684e-10 7.88572 629.376)
(-3.66505e-10 11.3238 629.347)
(-2.37104e-10 14.5498 629.273)
(-2.12564e-10 17.7693 629.183)
(-2.13287e-10 20.8258 629.055)
(-1.36563e-10 23.8214 628.907)
(-7.9054e-11 26.8203 628.742)
(-6.49724e-11 29.9561 628.529)
(-4.78097e-11 33.2134 628.297)
(-3.17439e-11 36.5059 628.038)
(-1.15124e-12 39.7159 627.794)
(1.02288e-10 42.816 627.583)
(4.29031e-11 45.5396 627.538)
(1.27393e-10 48.1985 627.911)
(1.2028e-10 52.0212 628.462)
(-2.33534e-11 57.0403 628.117)
(-4.75408e-11 63.0973 622.954)
(-5.19427e-11 68.5128 604.619)
(-7.10645e-11 70.1337 565.732)
(-1.35887e-10 67.5704 505.355)
(-1.07684e-10 60.6407 422.177)
(-5.51894e-11 48.8895 319.158)
(-3.0517e-11 33.2408 202.314)
(-1.01647e-11 12.201 71.508)
(-1.52661e-09 5.09365 629.276)
(-8.11194e-10 7.92978 629.195)
(-4.34199e-10 11.3235 629.144)
(-2.59856e-10 14.5217 629.082)
(-1.32708e-10 17.7398 629.012)
(-3.32653e-11 20.7989 628.907)
(-6.31752e-11 23.806 628.783)
(-7.96033e-11 26.8335 628.617)
(-6.47256e-11 29.9945 628.417)
(-4.75795e-11 33.2405 628.184)
(-3.37643e-11 36.5366 627.937)
(-3.74134e-11 39.752 627.653)
(-1.25687e-10 42.8645 627.431)
(-6.6383e-11 45.6006 627.365)
(-1.81301e-10 48.2827 627.657)
(-1.72802e-10 52.1034 628.229)
(-2.17788e-11 56.972 628.01)
(-6.05342e-11 62.966 623.07)
(-5.15071e-11 68.5073 605.366)
(-3.12481e-11 70.2814 567.149)
(1.81557e-11 67.8627 507.212)
(1.64906e-12 60.9598 424.098)
(-2.55054e-11 49.1398 320.828)
(-2.39089e-11 33.4669 203.516)
(-9.09884e-12 12.3111 71.9987)
(-1.52794e-09 5.20863 629.168)
(-7.4721e-10 7.91503 629.105)
(-3.60996e-10 11.2983 629.001)
(-2.14274e-10 14.498 628.94)
(-1.88043e-10 17.7279 628.86)
(-2.04444e-10 20.8052 628.757)
(-1.31884e-10 23.8295 628.617)
(-7.83124e-11 26.8525 628.455)
(-6.45936e-11 29.9919 628.263)
(-4.69648e-11 33.2381 628.029)
(-3.00557e-11 36.5556 627.765)
(1.04578e-12 39.79 627.488)
(8.76495e-11 42.9451 627.227)
(2.87823e-11 45.7257 627.129)
(1.24187e-10 48.3748 627.316)
(9.67065e-11 52.1184 627.988)
(-2.19851e-11 56.9194 627.886)
(-6.13137e-11 62.9445 623.21)
(-5.23142e-11 68.4447 605.913)
(-6.78972e-11 70.2729 568.131)
(-1.04549e-10 68.0213 508.637)
(-8.27253e-11 61.2137 425.697)
(-5.01597e-11 49.3414 322.256)
(-2.96969e-11 33.6391 204.534)
(-1.01464e-11 12.396 72.4015)
(-1.51914e-09 5.21601 629.071)
(-7.96433e-10 7.96859 629.017)
(-4.21879e-10 11.3182 628.911)
(-2.52147e-10 14.4931 628.828)
(-1.33126e-10 17.7112 628.729)
(-4.53618e-11 20.7878 628.609)
(-6.82787e-11 23.8146 628.473)
(-7.88542e-11 26.8405 628.314)
(-6.43837e-11 30.0208 628.118)
(-4.68387e-11 33.2815 627.88)
(-3.2971e-11 36.5921 627.599)
(-3.571e-11 39.8528 627.305)
(-9.75364e-11 43.0207 627.023)
(-5.66407e-11 45.8532 626.893)
(-1.40264e-10 48.4337 627.132)
(-1.11432e-10 52.0692 627.784)
(-1.96209e-11 56.8459 627.731)
(-3.80282e-11 62.809 623.313)
(-4.78986e-11 68.6422 606.752)
(-3.24725e-11 70.4897 569.513)
(-7.10819e-12 68.2162 510.379)
(-1.69372e-11 61.5207 427.583)
(-2.93217e-11 49.6197 323.951)
(-2.45934e-11 33.8487 205.752)
(-9.2453e-12 12.4925 72.8838)
(-1.50491e-09 5.13528 628.889)
(-7.4405e-10 7.96601 628.832)
(-3.64375e-10 11.3283 628.786)
(-2.16557e-10 14.4916 628.709)
(-1.82881e-10 17.7232 628.616)
(-1.89143e-10 20.7952 628.496)
(-1.2535e-10 23.8265 628.361)
(-7.77171e-11 26.8705 628.19)
(-6.42786e-11 30.0266 627.985)
(-4.61857e-11 33.2942 627.745)
(-2.83038e-11 36.6336 627.464)
(2.91872e-12 39.9048 627.156)
(6.78239e-11 43.1124 626.883)
(2.06444e-11 45.9368 626.757)
(8.33634e-11 48.4617 627.025)
(2.54775e-11 52.097 627.569)
(-1.30571e-10 56.7887 627.584)
(-1.99285e-10 62.6391 623.421)
(-5.151e-11 68.3959 607.324)
(-6.15814e-11 70.6374 570.567)
(-8.11212e-11 68.3879 511.745)
(-6.52313e-11 61.7474 429.112)
(-4.49737e-11 49.834 325.392)
(-2.86074e-11 34.0065 206.83)
(-9.95288e-12 12.5601 73.3378)
(-1.4986e-09 5.09484 628.713)
(-7.85074e-10 7.95933 628.623)
(-4.12912e-10 11.3101 628.595)
(-2.44271e-10 14.4838 628.532)
(-1.31934e-10 17.7108 628.472)
(-5.12347e-11 20.7936 628.363)
(-6.9991e-11 23.8319 628.216)
(-7.82717e-11 26.8712 628.054)
(-6.40131e-11 30.0577 627.857)
(-4.61638e-11 33.3337 627.603)
(-3.2072e-11 36.6772 627.318)
(-3.34204e-11 39.9577 627.018)
(-7.96129e-11 43.1552 626.732)
(-4.61959e-11 45.9776 626.644)
(-1.10712e-10 48.5413 626.918)
(-5.2779e-11 52.1429 627.337)
(-2.34221e-11 56.719 627.445)
(1.50195e-10 62.5216 623.476)
(-4.65153e-11 68.5069 607.879)
(-3.44358e-11 70.7805 571.798)
(-2.24367e-11 68.639 513.307)
(-2.7935e-11 62.0214 430.758)
(-3.25433e-11 50.0898 326.894)
(-2.55511e-11 34.2064 207.969)
(-9.43211e-12 12.6415 73.843)
(-1.47102e-09 5.1028 628.525)
(-7.32421e-10 7.9683 628.488)
(-3.57239e-10 11.2888 628.445)
(-2.14071e-10 14.4444 628.391)
(-1.80829e-10 17.6894 628.306)
(-1.85252e-10 20.8036 628.204)
(-1.23742e-10 23.8546 628.082)
(-7.70742e-11 26.8978 627.927)
(-6.38386e-11 30.0869 627.728)
(-4.53447e-11 33.3854 627.494)
(-2.69291e-11 36.733 627.218)
(3.86015e-12 40.0303 626.917)
(6.00265e-11 43.2194 626.643)
(1.14708e-11 46.0138 626.525)
(5.4847e-11 48.6389 626.786)
(-1.09779e-11 52.2755 627.163)
(-2.74839e-11 56.6982 627.326)
(-1.82006e-10 62.3197 623.544)
(-5.54227e-11 68.1816 608.262)
(-5.71269e-11 70.8361 572.576)
(-7.30225e-11 68.7871 514.445)
(-2.40523e-10 62.2294 432.009)
(-1.88025e-10 50.2872 328.049)
(-3.4544e-11 34.3623 208.845)
(-9.85868e-12 12.7019 74.264)
(-1.45818e-09 5.11015 628.385)
(-7.74837e-10 7.9354 628.393)
(-4.08481e-10 11.2861 628.345)
(-2.40556e-10 14.476 628.286)
(-1.28074e-10 17.699 628.202)
(-5.00117e-11 20.7776 628.096)
(-6.99729e-11 23.834 627.962)
(-7.74035e-11 26.9121 627.79)
(-6.35037e-11 30.1174 627.579)
(-4.52362e-11 33.4049 627.344)
(-3.08686e-11 36.7769 627.084)
(-3.24821e-11 40.0804 626.82)
(-7.52047e-11 43.3089 626.558)
(-3.06565e-11 46.1117 626.413)
(-7.89552e-11 48.7774 626.588)
(-3.01331e-11 52.3461 627.021)
(-2.48733e-11 56.6664 627.22)
(3.65557e-11 62.2726 623.617)
(-4.54369e-11 68.3347 608.714)
(-3.3965e-11 70.9415 573.582)
(-1.68139e-11 69.0158 515.794)
(1.1399e-10 62.4917 433.442)
(7.83602e-11 50.5236 329.324)
(-7.3826e-12 34.5443 209.765)
(-6.27333e-12 12.7666 74.6472)
(-1.44325e-09 5.13986 628.296)
(-7.26727e-10 7.90935 628.249)
(-3.52552e-10 11.2567 628.213)
(-2.11442e-10 14.422 628.136)
(-1.79033e-10 17.6851 628.056)
(-2.04117e-10 20.8044 627.926)
(-1.42559e-10 23.8902 627.783)
(-7.63899e-11 26.9579 627.626)
(-6.32879e-11 30.1458 627.445)
(-4.43676e-11 33.4316 627.205)
(-2.50892e-11 36.7745 626.939)
(7.17969e-12 40.1041 626.654)
(6.04917e-11 43.3649 626.375)
(1.02965e-12 46.2116 626.231)
(2.16024e-11 48.9009 626.331)
(-2.54779e-11 52.4382 626.853)
(-2.68304e-11 56.6619 627.08)
(-5.4871e-11 62.1879 623.673)
(-5.34285e-11 68.0704 609.235)
(-5.43971e-11 70.9951 574.391)
(-7.72064e-11 69.1045 516.99)
(-1.71039e-10 62.6835 434.807)
(-1.2312e-10 50.7179 330.572)
(-4.28713e-11 34.6879 210.661)
(-1.17641e-11 12.8173 75.0189)
(-1.43902e-09 5.1978 628.13)
(-7.5926e-10 7.9025 628.06)
(-3.98439e-10 11.2751 628.005)
(-2.34493e-10 14.4624 627.947)
(-1.25065e-10 17.7028 627.871)
(-5.14813e-11 20.8064 627.774)
(-7.15468e-11 23.8492 627.646)
(-7.67415e-11 26.9158 627.49)
(-6.29428e-11 30.1522 627.289)
(-4.42977e-11 33.472 627.06)
(-2.97527e-11 36.8517 626.789)
(-3.15665e-11 40.1779 626.49)
(-6.95746e-11 43.4504 626.208)
(-2.01977e-11 46.3438 626.036)
(-4.73154e-11 49.001 626.115)
(-2.66156e-11 52.4413 626.636)
(-2.70322e-11 56.6076 626.908)
(-2.9285e-11 62.1358 623.756)
(-4.57923e-11 68.2133 609.86)
(-3.25777e-11 71.0642 575.689)
(-1.42153e-11 69.2446 518.557)
(5.67221e-11 62.8892 436.461)
(3.09024e-11 50.9381 332.039)
(-6.6676e-12 34.8512 211.689)
(-5.53787e-12 12.8762 75.4158)
(-1.43469e-09 5.22376 627.932)
(-7.41202e-10 7.94303 627.909)
(-3.72401e-10 11.2361 627.85)
(-2.09546e-10 14.3882 627.798)
(-1.75861e-10 17.6496 627.719)
(-1.75631e-10 20.7764 627.616)
(-1.16423e-10 23.89 627.485)
(-7.56293e-11 26.985 627.313)
(-6.26923e-11 30.1792 627.105)
(-4.33253e-11 33.4793 626.867)
(-2.29974e-11 36.8509 626.596)
(1.06052e-11 40.2082 626.31)
(6.08671e-11 43.5173 626.014)
(-7.82215e-12 46.4559 625.866)
(-4.12268e-12 49.1195 625.962)
(-3.09497e-11 52.4863 626.378)
(-2.78346e-11 56.5593 626.704)
(-3.63651e-11 61.9701 623.741)
(-5.47149e-11 68.1673 610.242)
(-5.17818e-11 71.1949 576.735)
(-7.28784e-11 69.3996 519.957)
(-1.1999e-10 63.0668 437.984)
(-8.386e-11 51.1244 333.391)
(-3.78184e-11 34.9894 212.638)
(-1.09763e-11 12.9243 75.7973)
(-1.44011e-09 5.11226 627.813)
(-7.28009e-10 7.87052 627.779)
(-3.67564e-10 11.2492 627.73)
(-2.29012e-10 14.4299 627.644)
(-1.23483e-10 17.6808 627.562)
(-7.78778e-11 20.7918 627.441)
(-9.47901e-11 23.8713 627.3)
(-7.58599e-11 26.9695 627.154)
(-6.22996e-11 30.2202 626.973)
(-4.34029e-11 33.5344 626.725)
(-2.91407e-11 36.9227 626.452)
(-3.30539e-11 40.2831 626.168)
(-7.24959e-11 43.5776 625.895)
(-1.0867e-11 46.5399 625.719)
(-3.10806e-11 49.2561 625.801)
(-2.81094e-11 52.6139 626.197)
(-2.8068e-11 56.5312 626.525)
(-1.51531e-11 61.8871 623.67)
(-4.57722e-11 67.9446 610.602)
(-3.19042e-11 71.1574 577.869)
(-1.81319e-11 69.6041 521.489)
(1.72248e-11 63.281 439.583)
(2.92832e-12 51.3464 334.766)
(-1.18613e-11 35.1618 213.578)
(-6.43387e-12 12.9828 76.1565)
(-1.40739e-09 5.07581 627.611)
(-7.2881e-10 7.92539 627.577)
(-3.66756e-10 11.2511 627.528)
(-2.07721e-10 14.4 627.469)
(-1.93532e-10 17.6619 627.392)
(-1.67242e-10 20.8005 627.287)
(-1.14112e-10 23.9 627.157)
(-9.71171e-11 26.9879 626.982)
(-6.20465e-11 30.2185 626.769)
(-4.20705e-11 33.5612 626.554)
(-2.04157e-11 36.9311 626.298)
(1.64956e-11 40.2922 626.019)
(7.00316e-11 43.6485 625.735)
(-9.84501e-12 46.6659 625.546)
(-1.16218e-11 49.3845 625.615)
(-3.02279e-11 52.6399 626.063)
(-2.85338e-11 56.5401 626.378)
(-3.59857e-11 61.8183 623.686)
(-5.45079e-11 67.9044 611.091)
(-4.90193e-11 71.2052 578.637)
(-6.59833e-11 69.7528 522.784)
(-8.89401e-11 63.4928 441.044)
(-6.18042e-11 51.5477 336.043)
(-3.19355e-11 35.3127 214.43)
(-1.00474e-11 13.0328 76.4542)
(-1.41342e-09 5.12041 627.42)
(-7.19606e-10 7.86758 627.386)
(-3.61379e-10 11.2306 627.347)
(-2.22647e-10 14.4001 627.298)
(-1.0309e-10 17.6538 627.223)
(-6.04978e-11 20.7736 627.118)
(-7.27553e-11 23.8892 626.99)
(-5.37741e-11 27.0187 626.843)
(-6.173e-11 30.2556 626.66)
(-4.24802e-11 33.5509 626.406)
(-2.85728e-11 36.9542 626.132)
(-3.46059e-11 40.3478 625.831)
(-7.43595e-11 43.6959 625.54)
(-7.38939e-12 46.7296 625.354)
(-2.26402e-11 49.4675 625.437)
(-2.5682e-11 52.7505 625.927)
(-2.80808e-11 56.5709 626.254)
(-2.69411e-11 61.7758 623.75)
(-4.8249e-11 67.668 611.728)
(-3.15181e-11 71.1204 579.804)
(-2.21524e-11 69.7392 524.351)
(-4.22625e-12 63.6556 442.773)
(-1.06859e-11 51.7652 337.571)
(-1.52823e-11 35.4835 215.456)
(-7.19784e-12 13.0978 76.8014)
(-1.41065e-09 5.10497 627.331)
(-7.21212e-10 7.86781 627.276)
(-3.85111e-10 11.1959 627.216)
(-2.29935e-10 14.3526 627.147)
(-1.85953e-10 17.6274 627.069)
(-1.5817e-10 20.7671 626.961)
(-1.10642e-10 23.8667 626.829)
(-9.33225e-11 26.967 626.671)
(-6.11665e-11 30.2432 626.476)
(-4.09256e-11 33.613 626.252)
(-1.80592e-11 36.9922 625.971)
(2.0652e-11 40.3646 625.672)
(7.10603e-11 43.7452 625.365)
(-8.74322e-12 46.7997 625.172)
(-1.25366e-11 49.4949 625.263)
(-2.79425e-11 52.7708 625.718)
(-2.73924e-11 56.573 626.127)
(-2.66614e-11 61.7447 623.76)
(-5.39571e-11 67.8385 612.248)
(-4.64838e-11 71.2973 580.965)
(-6.02887e-11 69.865 525.93)
(-7.14647e-11 63.8273 444.559)
(-4.95261e-11 51.9645 339.172)
(-2.8031e-11 35.6281 216.537)
(-1.01417e-11 13.1557 77.1566)