/*--------------------------------*- C++ -*----------------------------------*\
| =========                 |                                                 |
| \\      /  F ield         | OpenFOAM: The Open Source CFD Toolbox           |
|  \\    /   O peration     | Version:  2212                                  |
|   \\  /    A nd           | Website:  www.openfoam.com                      |
|    \\/     M anipulation  |                                                 |
\*---------------------------------------------------------------------------*/
FoamFile
{
    version     2.0;
    format      ascii;
    arch        "LSB;label=32;scalar=64";
    class       volScalarField;
    location    "9.6e-05";
    object      T;
}
// * * * * * * * * * * * * * * * * * * * * * * * * * * * * * * * * * * * * * //

dimensions      [0 0 0 1 0 0 0];

internalField   nonuniform List<scalar> 
58408
(
47.2378
56.2534
53.556
54.3145
54.275
54.3352
54.2987
54.0031
53.5938
53.368
53.242
53.1269
52.8734
52.5715
52.2391
52.0664
51.8241
51.6042
51.3648
51.1894
51.0577
50.831
50.5851
50.3667
50.2193
50.0859
49.9559
49.8459
49.7028
49.5256
49.279
49.0537
48.8086
48.6468
48.4855
48.3724
48.2401
48.1194
47.9559
47.8242
47.6794
47.5426
47.3655
47.2414
47.0938
46.9371
46.769
46.6298
46.4825
46.3375
46.189
46.0385
45.9141
45.8048
45.6729
45.5269
45.3882
45.242
45.0878
44.9395
44.7864
44.6207
44.4634
44.3178
44.1714
44.021
43.8582
43.6808
43.5108
43.3604
43.2193
43.074
42.922
42.7695
42.6289
42.4958
42.3616
42.2266
42.094
41.9653
41.8425
41.7203
41.6034
41.4885
41.376
41.2628
41.1516
41.0394
40.9314
40.8258
40.7154
40.6014
40.4902
40.3804
40.2725
40.1683
40.068
39.9723
39.8752
39.7785
39.6753
39.5725
39.4541
39.3281
39.1908
39.069
38.9348
38.8288
38.7321
38.6405
38.5535
38.4744
38.414
38.3618
38.3271
38.2805
38.2635
38.22
38.2109
38.2171
38.2278
38.2485
38.275
38.3122
38.3696
38.4313
38.5188
38.6767
38.9539
39.2303
39.2567
39.2765
39.336
39.4213
39.6463
39.7838
40.3072
39.5708
41.7552
39.0035
45.0519
37.2074
46.1112
45.9552
55.5948
52.2777
53.281
52.8795
52.9673
52.614
52.0241
51.657
51.4897
51.3395
51.2496
51.0193
50.6377
50.3428
50.2119
50.1335
49.9054
49.5889
49.4125
49.2485
48.9875
48.7719
48.608
48.4898
48.418
48.3368
48.2959
48.0761
47.9523
47.6414
47.4636
47.2115
47.1057
46.9672
46.8979
46.7611
46.6754
46.5211
46.4343
46.289
46.1737
46.0271
45.9447
45.7739
45.6578
45.5267
45.4114
45.2642
45.1529
45.0363
44.9235
44.8258
44.7075
44.5813
44.4808
44.3701
44.2436
44.119
43.9742
43.8321
43.7088
43.5843
43.4536
43.3216
43.197
43.0596
42.9104
42.7775
42.6521
42.5303
42.4007
42.2784
42.159
42.0432
41.9248
41.8149
41.701
41.5919
41.4872
41.386
41.2806
41.1812
41.0834
40.9929
40.8985
40.807
40.7086
40.6197
40.5304
40.44
40.3418
40.2454
40.1526
40.0614
39.9712
39.8813
39.7946
39.7043
39.6147
39.5181
39.4218
39.3125
39.1945
39.0736
38.9582
38.8444
38.738
38.6474
38.5569
38.4776
38.3929
38.3304
38.2691
38.2247
38.1704
38.1388
38.0915
38.0622
38.0592
38.05
38.0538
38.0602
38.0792
38.1214
38.1739
38.239
38.3646
38.6307
38.9212
38.9448
38.965
39.0055
39.0846
39.2549
39.4573
39.8013
39.7262
40.202
39.1285
40.6994
36.193
39.359
44.9672
54.31
51.1176
52.2175
51.6117
51.4302
50.5774
50.1952
49.915
49.7567
49.561
49.5209
49.1244
48.8799
48.7587
48.7076
48.713
48.2853
48.0458
47.7344
47.5868
47.3564
47.1954
47.1189
47.0407
46.9905
46.9625
46.9399
46.7475
46.507
46.2098
46.0293
45.889
45.8153
45.703
45.6369
45.5199
45.4414
45.3212
45.2405
45.1035
45.0303
44.8964
44.8208
44.6662
44.5927
44.4632
44.3705
44.2444
44.1596
44.0581
43.9628
43.8701
43.769
43.6737
43.5886
43.4877
43.3773
43.2637
43.1364
43.0238
42.9182
42.8064
42.6927
42.5847
42.4783
42.3613
42.2387
42.1273
42.0192
41.9145
41.8068
41.7088
41.6055
41.506
41.4054
41.3148
41.2189
41.1284
41.0403
40.9528
40.8625
40.7782
40.6973
40.6191
40.5406
40.4598
40.3778
40.3008
40.2247
40.1457
40.0612
39.9746
39.8933
39.8085
39.727
39.6431
39.5638
39.4787
39.397
39.3076
39.2212
39.1244
39.0232
38.9168
38.8244
38.7262
38.6345
38.557
38.4697
38.3994
38.3124
38.2496
38.1838
38.1344
38.0794
38.0357
37.9889
37.9567
37.9299
37.9143
37.9186
37.9209
37.9253
37.9386
37.9699
38.0311
38.149
38.3857
38.6631
38.6663
38.6743
38.7058
38.7631
38.8709
39.0446
39.3773
39.462
39.7968
39.4774
40.2226
38.4902
39.5487
44.78
54.0525
50.7621
51.75
50.7817
50.2767
49.3672
49.0554
48.8076
48.6646
48.4724
48.2434
47.9964
47.9288
47.8669
47.8477
47.8713
47.3392
47.1117
46.7126
46.55
46.3785
46.3094
46.2542
46.2271
46.2005
46.1903
46.1685
45.8969
45.6659
45.3838
45.2491
45.143
45.0849
44.9825
44.9317
44.8166
44.7606
44.6339
44.5706
44.4433
44.3799
44.2552
44.188
44.0566
43.992
43.8689
43.7862
43.6784
43.602
43.5095
43.425
43.336
43.2492
43.1663
43.0835
42.9935
42.8944
42.7862
42.6768
42.5797
42.481
42.3797
42.2789
42.1849
42.0919
41.9848
41.8747
41.7747
41.6784
41.5862
41.4935
41.4039
41.3105
41.2234
41.1354
41.0545
40.97
40.8897
40.8099
40.7324
40.6516
40.5768
40.5042
40.4319
40.3619
40.2848
40.2127
40.1373
40.0699
39.9907
39.9124
39.8242
39.7461
39.6574
39.5765
39.4903
39.414
39.3327
39.2592
39.1791
39.1038
39.0216
38.9356
38.8476
38.7695
38.6824
38.5967
38.5274
38.4398
38.3736
38.2851
38.2234
38.1564
38.1033
38.0524
37.9904
37.9564
37.9096
37.8619
37.8557
37.8563
37.8561
37.8507
37.8565
37.8794
37.9339
38.0464
38.2685
38.56
38.5496
38.5493
38.5667
38.6062
38.6872
38.8342
39.1489
39.3867
39.4793
39.461
39.5814
39.8854
38.962
44.8464
54.1152
50.7903
51.6124
50.2533
49.2725
48.6428
48.3876
48.31
47.9174
47.7501
47.5633
47.4876
47.4376
47.4209
47.4156
47.3867
46.8075
46.3443
46.1073
45.9892
45.8976
45.8568
45.8199
45.7975
45.787
45.7737
45.7588
45.4253
45.1319
44.9708
44.8384
44.7477
44.6921
44.597
44.5491
44.4396
44.3862
44.2664
44.2083
44.091
44.0325
43.9147
43.8521
43.7313
43.6705
43.5533
43.4799
43.3804
43.3067
43.2168
43.1397
43.0573
42.977
42.8987
42.8178
42.7316
42.6402
42.5393
42.4399
42.3474
42.2523
42.1573
42.0669
41.9805
41.8914
41.7918
41.6902
41.5976
41.5087
41.423
41.3384
41.254
41.1671
41.0849
41.0048
40.9277
40.8485
40.7726
40.6966
40.6244
40.5465
40.4758
40.4057
40.3357
40.2681
40.1912
40.1223
40.0452
39.9785
39.8957
39.8177
39.726
39.648
39.5572
39.478
39.3926
39.3199
39.24
39.1705
39.095
39.0262
38.9532
38.875
38.7978
38.7256
38.6442
38.5587
38.496
38.41
38.3444
38.2537
38.1894
38.1185
38.0603
38.0088
37.9378
37.905
37.8533
37.799
37.7887
37.8021
37.8069
37.7978
37.7959
37.8158
37.871
37.9877
38.2006
38.5142
38.4895
38.4791
38.4876
38.5163
38.5891
38.7333
39.0268
39.3689
39.3651
39.4122
39.5327
40.074
38.8288
45.1105
54.3411
51.1901
51.6265
49.6115
48.7733
48.1322
47.9642
47.5388
47.3609
47.2729
47.2196
47.192
47.1819
47.1692
47.144
47.0368
46.3249
45.9162
45.7708
45.6726
45.6236
45.593
45.577
45.5583
45.5509
45.5374
45.4897
45.0798
44.8261
44.6968
44.6022
44.5081
44.4638
44.3694
44.3234
44.2169
44.1651
44.0515
43.9972
43.8855
43.8295
43.7153
43.6555
43.5395
43.4802
43.3681
43.2982
43.2011
43.1292
43.0421
42.968
42.8884
42.8114
42.7339
42.6556
42.5719
42.4813
42.3865
42.2919
42.2014
42.1126
42.023
41.9368
41.8551
41.7685
41.6759
41.5804
41.4926
41.412
41.3304
41.2522
41.1729
41.0904
41.0129
40.9357
40.8622
40.7868
40.7136
40.6398
40.5706
40.4934
40.4256
40.354
40.2852
40.2148
40.1369
40.0641
39.9829
39.9128
39.8239
39.7429
39.6451
39.5666
39.4711
39.3934
39.3082
39.2395
39.1648
39.1015
39.0343
38.9726
38.9092
38.838
38.767
38.6987
38.6148
38.5311
38.4661
38.3852
38.3194
38.2266
38.1581
38.0808
38.0183
37.9578
37.8957
37.8431
37.8083
37.7611
37.7397
37.7549
37.7693
37.7678
37.7617
37.7819
37.8361
37.9493
38.1524
38.4864
38.4586
38.4501
38.4551
38.4804
38.5417
38.6652
38.9219
39.363
39.3273
39.3803
39.4947
39.9563
39.5195
45.571
54.7181
51.7426
51.5912
49.3112
48.5621
47.7439
47.3813
47.2134
47.1349
47.084
47.0583
47.0476
47.0334
47.0237
47.0379
46.7032
46.0815
45.7225
45.5834
45.5063
45.4675
45.4456
45.4364
45.4261
45.4233
45.4167
45.2949
44.8991
44.6769
44.5407
44.4655
44.3708
44.3279
44.2356
44.1902
44.0867
44.0366
43.9269
43.8744
43.7644
43.7092
43.599
43.5414
43.4286
43.3691
43.2597
43.1934
43.0954
43.0257
42.9416
42.8688
42.7896
42.715
42.6381
42.5619
42.4819
42.393
42.2991
42.2077
42.1188
42.0327
41.9471
41.8633
41.7835
41.7005
41.6114
41.5201
41.4355
41.3571
41.2799
41.2045
41.1272
41.0474
40.9728
40.8981
40.8263
40.7511
40.68
40.6035
40.5364
40.4553
40.3882
40.3129
40.2428
40.169
40.0908
40.0154
39.9311
39.858
39.7661
39.6811
39.5826
39.5008
39.4062
39.33
39.2478
39.1831
39.1134
39.0543
38.992
38.9328
38.8727
38.8014
38.7302
38.6585
38.5715
38.4844
38.4138
38.332
38.2661
38.1713
38.1023
38.0268
37.9684
37.9087
37.8595
37.7953
37.7706
37.7429
37.704
37.7136
37.7328
37.7397
37.74
37.7579
37.8073
37.9122
38.112
38.4668
38.448
38.4307
38.4392
38.464
38.5224
38.6395
38.8769
39.3489
39.3065
39.3402
39.4434
39.788
39.7705
45.9574
54.9503
51.8697
51.262
48.8574
48.0206
47.3872
47.1789
47.0272
46.9761
46.9449
46.9313
46.9224
46.9094
46.9079
46.9233
46.2701
45.8469
45.5189
45.4255
45.3648
45.3379
45.3205
45.3143
45.3084
45.3062
45.3047
45.1126
44.7415
44.5498
44.4309
44.3572
44.2721
44.2262
44.1377
44.0932
43.9927
43.9441
43.8363
43.7844
43.6764
43.6212
43.5146
43.4565
43.3466
43.2862
43.18
43.1128
43.0152
42.9473
42.8633
42.7918
42.7136
42.6399
42.5631
42.488
42.4074
42.3204
42.2285
42.1398
42.0525
41.9695
41.8863
41.8047
41.7289
41.6501
41.5633
41.4763
41.3952
41.3199
41.2469
41.1732
41.0979
41.0208
40.948
40.8743
40.8043
40.7272
40.6561
40.5792
40.5105
40.4277
40.3585
40.2789
40.2061
40.1269
40.0459
39.9646
39.879
39.8014
39.7092
39.6223
39.5247
39.4451
39.3529
39.281
39.2024
39.1405
39.0738
39.0155
38.9541
38.8934
38.8318
38.757
38.6797
38.6021
38.5131
38.4218
38.3482
38.2606
38.1962
38.1052
38.0423
37.9732
37.9186
37.8706
37.8182
37.774
37.7435
37.7282
37.6922
37.6975
37.7181
37.7318
37.7321
37.7462
37.7952
37.9031
38.103
38.4652
38.4457
38.4247
38.4351
38.4649
38.5197
38.6284
38.8467
39.3112
39.2761
39.2701
39.3652
39.5256
39.8758
46.0169
55.1501
51.9598
51.3464
48.524
47.8582
47.267
47.0631
46.9311
46.8873
46.8609
46.8538
46.8532
46.8538
46.8589
46.8662
46.0844
45.6746
45.4205
45.334
45.2816
45.2564
45.237
45.2293
45.2244
45.2202
45.1995
45.0014
44.6489
44.4638
44.3566
44.2854
44.2067
44.1587
44.0734
44.0294
43.9308
43.8826
43.7747
43.7232
43.6178
43.5605
43.4571
43.3994
43.2914
43.2295
43.1229
43.0582
42.9599
42.8929
42.8092
42.7381
42.6599
42.5875
42.5112
42.4363
42.3564
42.2697
42.1792
42.0924
42.007
41.9255
41.844
41.7652
41.6913
41.616
41.5314
41.447
41.3689
41.2961
41.2255
41.1529
41.0785
41.003
40.9306
40.8565
40.7855
40.7073
40.6346
40.5559
40.4857
40.3983
40.3284
40.2439
40.1703
40.0852
40.0044
39.9182
39.8341
39.7543
39.6637
39.5772
39.4837
39.4058
39.3179
39.2476
39.1717
39.1091
39.0428
38.9819
38.9187
38.8538
38.7878
38.7073
38.6215
38.5337
38.4468
38.3507
38.2748
38.1856
38.1242
38.0361
37.9778
37.9147
37.8608
37.8283
37.7659
37.7452
37.7168
37.702
37.6833
37.6883
37.7065
37.7172
37.7172
37.7332
37.7855
37.8948
38.0957
38.464
38.4464
38.4299
38.4418
38.4712
38.515
38.6102
38.7958
39.2107
39.2109
39.203
39.2772
39.3198
39.7484
46.0275
55.4523
52.0319
51.3034
48.3747
47.7621
47.1491
46.9487
46.8383
46.8019
46.7841
46.7821
46.7832
46.7812
46.7852
46.7861
45.963
45.5266
45.3319
45.24
45.1838
45.1486
45.1301
45.1194
45.1136
45.1062
45.0857
44.8774
44.5546
44.3765
44.2805
44.2118
44.137
44.089
44.0062
43.9619
43.8646
43.8171
43.7101
43.657
43.5566
43.4966
43.3992
43.3369
43.2305
43.1679
43.0627
42.997
42.899
42.8327
42.7483
42.677
42.5998
42.5274
42.4516
42.3779
42.2976
42.2119
42.1229
42.0383
41.9546
41.8754
41.7969
41.72
41.6492
41.5764
41.4947
41.414
41.3394
41.268
41.1995
41.1292
41.0548
40.9812
40.9084
40.8344
40.7627
40.6828
40.6091
40.5267
40.4535
40.3636
40.2899
40.2025
40.127
40.039
39.9583
39.8713
39.7909
39.712
39.6267
39.5422
39.455
39.378
39.2935
39.2231
39.147
39.0821
39.0131
38.9469
38.8786
38.8069
38.7325
38.6433
38.5469
38.4474
38.3646
38.2647
38.1886
38.1
38.0445
37.9621
37.9109
37.8558
37.8061
37.7852
37.7268
37.7201
37.7025
37.6867
37.6835
37.6922
37.7053
37.7086
37.7139
37.7348
37.7901
37.8946
38.0926
38.4384
38.4553
38.4392
38.4542
38.4729
38.4991
38.5707
38.7179
39.0317
39.1822
39.1371
39.1991
39.1775
39.4514
46.0406
55.5779
51.9809
51.2646
48.3174
47.7054
47.085
46.8934
46.7815
46.741
46.7226
46.7201
46.7184
46.7134
46.7143
46.6811
45.8786
45.4585
45.2745
45.1821
45.1353
45.0895
45.067
45.0391
45.0272
45.0113
44.997
44.798
44.4909
44.3203
44.2281
44.1618
44.0867
44.0403
43.9564
43.912
43.8158
43.7653
43.6626
43.6066
43.5103
43.4496
43.3515
43.2883
43.1822
43.1207
43.014
42.9479
42.8501
42.7843
42.6996
42.6289
42.5526
42.4794
42.4039
42.3311
42.2505
42.1671
42.08
41.9957
41.9147
41.8387
41.7605
41.687
41.6178
41.5468
41.4694
41.3911
41.318
41.2486
41.1807
41.1116
41.0377
40.9655
40.8905
40.8172
40.7438
40.6623
40.5884
40.502
40.4285
40.3351
40.2606
40.1699
40.0943
40.0051
39.9264
39.839
39.763
39.6841
39.6041
39.5202
39.4373
39.3599
39.277
39.2033
39.1257
39.055
38.9826
38.91
38.8361
38.7567
38.6737
38.5766
38.4729
38.3645
38.2879
38.1863
38.1109
38.0237
37.9727
37.8944
37.8496
37.7984
37.757
37.7357
37.694
37.6825
37.688
37.6632
37.6651
37.6796
37.692
37.6908
37.6977
37.7272
37.7817
37.8809
38.072
38.3843
38.4606
38.4456
38.4557
38.4624
38.4744
38.5249
38.6401
38.861
39.1326
39.0405
39.0543
39.0673
39.1991
45.9972
55.5808
51.8424
51.1149
48.2232
47.6237
47.0061
46.8208
46.712
46.6731
46.6571
46.6542
46.6521
46.6486
46.6515
46.4797
45.7539
45.362
45.1937
45.1101
45.0627
45.0133
44.9906
44.9463
44.9285
44.8995
44.8863
44.7094
44.4157
44.2507
44.1627
44.0975
44.0241
43.9773
43.8961
43.8498
43.7564
43.7035
43.6045
43.546
43.455
43.3894
43.2948
43.2288
43.1262
43.0615
42.9557
42.8881
42.7918
42.7258
42.6412
42.5716
42.495
42.4215
42.3469
42.2744
42.1954
42.115
42.0285
41.9461
41.8678
41.7941
41.7171
41.6471
41.579
41.5098
41.4373
41.3591
41.2878
41.22
41.1519
41.0839
41.0108
40.9382
40.8626
40.7898
40.7146
40.6343
40.5577
40.4726
40.3953
40.3032
40.2271
40.1371
40.0629
39.9752
39.8997
39.812
39.7398
39.6594
39.583
39.4979
39.4181
39.3378
39.2559
39.1765
39.0969
39.0194
38.9417
38.8621
38.7813
38.6945
38.6034
38.5001
38.3946
38.283
38.2168
38.116
38.0441
37.9599
37.913
37.839
37.7987
37.752
37.7134
37.6977
37.6634
37.6488
37.6697
37.6416
37.6444
37.6522
37.6717
37.6752
37.6813
37.7075
37.7621
37.8544
38.0289
38.3159
38.4398
38.4418
38.442
38.4339
38.4367
38.4647
38.5432
38.6948
38.9912
38.9505
38.9088
38.9055
38.8606
45.9301
55.4937
51.7366
51.0427
48.1717
47.5744
46.9625
46.7796
46.6713
46.6329
46.6178
46.6142
46.6108
46.605
46.5988
46.2919
45.6736
45.2793
45.1292
45.0521
45.0064
44.9555
44.9292
44.876
44.8551
44.8218
44.8072
44.6467
44.3586
44.2
44.113
44.0486
43.9746
43.9295
43.8469
43.8017
43.7066
43.6531
43.5558
43.4961
43.4064
43.3387
43.2449
43.177
43.0758
43.0106
42.9035
42.8352
42.7403
42.6736
42.5892
42.5214
42.4444
42.3712
42.2976
42.2257
42.148
42.07
41.9857
41.9031
41.829
41.7561
41.6814
41.6134
41.5472
41.4799
41.4086
41.332
41.262
41.1952
41.1272
41.059
40.9867
40.9135
40.8384
40.7646
40.6905
40.609
40.5336
40.4472
40.3704
40.2778
40.2032
40.1138
40.0417
39.954
39.8817
39.7929
39.7231
39.6411
39.5668
39.478
39.3998
39.3146
39.2327
39.1484
39.0674
38.9854
38.9042
38.8195
38.7339
38.6423
38.5477
38.4422
38.3403
38.2297
38.1706
38.0708
38.0018
37.919
37.8727
37.7992
37.7583
37.7137
37.6715
37.6595
37.6241
37.6066
37.6312
37.5995
37.597
37.598
37.6191
37.6335
37.64
37.6537
37.7013
37.7859
37.936
38.1901
38.3904
38.4096
38.3924
38.3689
38.3721
38.3894
38.4433
38.573
38.7432
38.8341
38.7485
38.7164
38.6044
45.8729
55.4183
51.6552
50.9705
48.0967
47.503
46.8976
46.7195
46.6164
46.5799
46.565
46.5599
46.5515
46.5405
46.5206
46.1057
45.5655
45.1813
45.0491
44.9799
44.9369
44.8869
44.8552
44.7992
44.7759
44.7365
44.7193
44.5653
44.2941
44.139
44.0586
43.9912
43.918
43.874
43.7931
43.7476
43.6531
43.599
43.5032
43.4444
43.3543
43.2847
43.1926
43.1235
43.0248
42.9548
42.8499
42.7806
42.6873
42.6192
42.537
42.4698
42.3924
42.321
42.2488
42.1772
42.1025
42.0263
41.9433
41.8638
41.7918
41.7204
41.6469
41.5816
41.5168
41.45
41.3801
41.3042
41.2343
41.1681
41.0992
41.0298
40.9586
40.8833
40.8089
40.7349
40.6604
40.5804
40.5055
40.4203
40.3444
40.2536
40.1797
40.0918
40.0205
39.9332
39.8622
39.7726
39.704
39.6203
39.5468
39.4552
39.377
39.2871
39.2044
39.1152
39.0331
38.9468
38.8635
38.7751
38.6876
38.5949
38.502
38.399
38.3042
38.1959
38.1422
38.0432
37.9763
37.8937
37.8463
37.7733
37.7306
37.6863
37.6413
37.6235
37.5911
37.5593
37.5763
37.5574
37.5424
37.5323
37.5415
37.5643
37.5751
37.579
37.607
37.6671
37.7847
38.0159
38.2928
38.3175
38.2915
38.2685
38.2824
38.2843
38.316
38.4237
38.5346
38.7103
38.5715
38.5084
38.3833
45.8448
55.3784
51.6389
50.9679
48.0777
47.4752
46.8613
46.679
46.5731
46.5336
46.5142
46.5102
46.5052
46.505
46.433
45.9971
45.4586
45.113
44.9891
44.9216
44.8838
44.8329
44.8028
44.7413
44.7158
44.6736
44.6549
44.504
44.2429
44.0916
44.0133
43.9424
43.8707
43.8276
43.747
43.6992
43.6057
43.5497
43.4542
43.3955
43.3041
43.2349
43.1413
43.0731
42.9716
42.9022
42.7963
42.7283
42.6344
42.5671
42.4849
42.4178
42.3416
42.2721
42.201
42.131
42.0577
41.983
41.9017
41.8258
41.7547
41.6848
41.6138
41.5498
41.4851
41.42
41.3492
41.2749
41.2043
41.1376
41.0685
40.9982
40.9275
40.8518
40.7776
40.7044
40.6306
40.552
40.4787
40.3948
40.3216
40.2322
40.159
40.0728
40.0017
39.915
39.8439
39.7535
39.6852
39.5999
39.5269
39.4329
39.3549
39.2615
39.1782
39.0849
39.0024
38.9129
38.8293
38.7391
38.6523
38.56
38.4706
38.3707
38.2829
38.1758
38.1238
38.0244
37.958
37.8738
37.8261
37.7517
37.7065
37.6579
37.6104
37.581
37.5415
37.5111
37.5007
37.4764
37.4623
37.4377
37.4326
37.4436
37.4607
37.4655
37.4821
37.5259
37.6211
37.8074
38.1204
38.135
38.1201
38.1393
38.165
38.1386
38.1577
38.2273
38.3444
38.4437
38.3978
38.3076
38.2142
45.7873
55.2777
51.5089
50.83
47.9623
47.3768
46.773
46.5987
46.4929
46.4563
46.438
46.4304
46.4122
46.4115
46.3701
45.8136
45.3524
45.0185
44.905
44.8377
44.7983
44.7622
44.7158
44.662
44.6363
44.59
44.5697
44.4311
44.1784
44.0221
43.9449
43.8846
43.8163
43.7724
43.6936
43.6449
43.551
43.4978
43.4015
43.3446
43.2501
43.1821
43.0912
43.02
42.9193
42.8477
42.7452
42.6771
42.5824
42.5159
42.4349
42.3692
42.2938
42.2264
42.1569
42.0887
42.0188
41.9456
41.8658
41.7932
41.7247
41.6548
41.5865
41.5226
41.4591
41.3941
41.3225
41.2485
41.1765
41.1091
41.0387
40.9681
40.8971
40.82
40.7477
40.6737
40.6017
40.5253
40.4522
40.3735
40.3008
40.2153
40.1422
40.0571
39.9858
39.8989
39.8267
39.7347
39.6651
39.5771
39.503
39.406
39.3277
39.2312
39.1479
39.0516
38.9692
38.8785
38.7963
38.7067
38.6228
38.5327
38.4475
38.3516
38.273
38.1677
38.1158
38.0155
37.9479
37.8624
37.8121
37.7345
37.683
37.628
37.5706
37.5347
37.4712
37.4468
37.397
37.3764
37.3518
37.3218
37.3045
37.3068
37.3199
37.328
37.3367
37.3634
37.4305
37.5682
37.8078
37.9637
37.9472
37.9686
37.9896
37.9673
37.962
37.9961
38.0862
38.2019
38.1848
38.0889
38.0461
45.745
55.2225
51.5134
50.8637
47.9928
47.398
46.768
46.5745
46.456
46.4177
46.401
46.401
46.3997
46.402
46.247
45.747
45.2467
44.9765
44.8663
44.8054
44.7619
44.7244
44.685
44.6237
44.5946
44.5464
44.5269
44.4061
44.1467
43.9861
43.9096
43.8529
43.7821
43.7351
43.6572
43.6011
43.511
43.4495
43.3572
43.297
43.2023
43.1314
43.0422
42.9682
42.8667
42.7941
42.692
42.6236
42.5289
42.4631
42.3836
42.3169
42.2431
42.1789
42.1105
42.0444
41.976
41.9036
41.826
41.7574
41.6897
41.6201
41.5544
41.4911
41.427
41.3622
41.2904
41.2161
41.1427
41.0742
41.0035
40.9324
40.8604
40.784
40.7117
40.638
40.5678
40.492
40.4207
40.3442
40.2732
40.1909
40.1183
40.0347
39.9641
39.8766
39.8043
39.711
39.6403
39.5508
39.4763
39.3774
39.2993
39.2013
39.1193
39.0218
38.9416
38.8514
38.7724
38.6847
38.6046
38.517
38.4395
38.3496
38.2719
38.1659
38.1162
38.0145
37.9451
37.8559
37.7985
37.7134
37.6496
37.5859
37.5094
37.4643
37.3795
37.3452
37.2701
37.2431
37.2028
37.1738
37.1424
37.1386
37.1513
37.1624
37.1712
37.1945
37.2383
37.3348
37.5015
37.7692
37.7479
37.7612
37.7812
37.7669
37.7715
37.8038
37.8604
37.9582
37.9427
37.8893
37.8287
45.6928
55.148
51.3654
50.6802
47.8101
47.2254
46.6242
46.457
46.3562
46.3165
46.2903
46.2792
46.2663
46.266
46.1381
45.4885
45.1862
44.8654
44.7697
44.6978
44.6637
44.6296
44.5747
44.531
44.4953
44.4467
44.4235
44.2893
44.0439
43.8952
43.821
43.7668
43.704
43.6593
43.5804
43.5327
43.437
43.3883
43.2911
43.2312
43.1387
43.0742
42.9846
42.9103
42.8083
42.7379
42.6392
42.5708
42.4778
42.4143
42.3352
42.2714
42.1993
42.1381
42.0704
42.0076
41.9422
41.8703
41.7978
41.7312
41.6632
41.5968
41.5307
41.4672
41.4036
41.3395
41.2653
41.1897
41.1159
41.046
40.9739
40.9031
40.8294
40.7542
40.6809
40.6085
40.5386
40.4639
40.393
40.3172
40.2479
40.1663
40.0959
40.0123
39.943
39.8543
39.7825
39.687
39.6164
39.5247
39.4502
39.3498
39.2723
39.1737
39.0941
38.9975
38.9218
38.8342
38.7605
38.6765
38.6031
38.5202
38.4436
38.3541
38.2767
38.1701
38.1189
38.0145
37.9412
37.8466
37.7789
37.6832
37.6008
37.525
37.4294
37.3734
37.274
37.2278
37.1335
37.1007
37.0485
37.0154
36.9699
36.9633
36.975
36.9878
36.9981
37.0211
37.0466
37.1108
37.2205
37.4269
37.572
37.5621
37.5847
37.621
37.6238
37.6227
37.6533
37.6714
37.6731
37.6541
37.6007
45.6821
55.1335
51.4161
50.7634
47.8818
47.2813
46.6593
46.4599
46.3361
46.2979
46.281
46.2851
46.2735
46.2598
46.1347
45.4751
45.0523
44.8589
44.7722
44.711
44.6657
44.6224
44.5755
44.5227
44.4878
44.4234
44.3951
44.267
44.0385
43.8899
43.8163
43.7668
43.7015
43.6549
43.5736
43.5204
43.4232
43.3716
43.2707
43.2105
43.1166
43.0487
42.9587
42.8806
42.778
42.7087
42.6057
42.5351
42.4429
42.3758
42.2958
42.2322
42.1613
42.0997
42.0322
41.9698
41.9032
41.8337
41.7619
41.6968
41.6293
41.5633
41.4981
41.4352
41.3705
41.3056
41.2311
41.1553
41.0813
41.0097
40.9386
40.8673
40.7928
40.7195
40.6449
40.5742
40.505
40.43
40.3594
40.2842
40.2141
40.1339
40.0638
39.9813
39.9121
39.8243
39.7519
39.6571
39.5864
39.495
39.4217
39.3218
39.246
39.1479
39.0714
38.9763
38.9054
38.8205
38.7529
38.6727
38.6025
38.5197
38.4443
38.355
38.2776
38.1685
38.1126
38.002
37.9207
37.8163
37.7288
37.6166
37.5135
37.4238
37.3151
37.2519
37.1401
37.087
36.9876
36.9494
36.8932
36.862
36.8063
36.7989
36.812
36.829
36.8373
36.8555
36.8713
36.9186
36.9909
37.1306
37.3823
37.3348
37.3694
37.4371
37.4426
37.4435
37.4597
37.4585
37.4506
37.4248
37.3692
45.5988
55.0448
51.2264
50.5228
47.657
47.0682
46.4684
46.2978
46.1897
46.1454
46.1231
46.1114
46.1049
46.1106
45.9573
45.3265
44.9223
44.7293
44.646
44.58
44.5378
44.5037
44.4453
44.4127
44.3629
44.3122
44.2785
44.1368
43.9244
43.7861
43.7269
43.6686
43.6102
43.5568
43.4772
43.4217
43.3323
43.2731
43.1827
43.1161
43.0313
42.9611
42.8723
42.7931
42.6962
42.6255
42.5237
42.46
42.3669
42.3078
42.2306
42.1718
42.1038
42.0458
41.9832
41.925
41.8647
41.7966
41.7302
41.6682
41.6011
41.54
41.4756
41.4109
41.3496
41.2847
41.2087
41.1333
41.0592
40.9865
40.915
40.8435
40.7681
40.6934
40.6192
40.5483
40.4768
40.4018
40.3304
40.2525
40.1823
40.1008
40.0301
39.9474
39.8785
39.7913
39.7203
39.6268
39.558
39.4685
39.3973
39.2996
39.2264
39.1295
39.0558
38.9628
38.8953
38.813
38.7498
38.6726
38.6047
38.5214
38.4467
38.3561
38.2764
38.162
38.0964
37.9756
37.8789
37.7558
37.6391
37.5121
37.3994
37.3065
37.1945
37.1345
37.0188
36.9676
36.8696
36.8243
36.7703
36.74
36.6815
36.6667
36.672
36.6955
36.7058
36.7164
36.7267
36.7698
36.817
36.9066
37.0684
37.1338
37.1671
37.2392
37.2482
37.2351
37.2261
37.2209
37.2237
37.2051
37.1462
45.6447
55.0751
51.3043
50.6168
47.7346
47.1234
46.4828
46.2819
46.1739
46.1421
46.1225
46.114
46.087
46.0853
45.919
45.2923
44.911
44.7452
44.6672
44.6004
44.5527
44.5006
44.4482
44.4109
44.3654
44.2937
44.2442
44.1038
43.9221
43.7929
43.7311
43.6716
43.6052
43.549
43.4687
43.4144
43.3206
43.2635
43.1714
43.1025
43.0209
42.9438
42.8577
42.7755
42.6775
42.6078
42.5074
42.4425
42.349
42.2904
42.2136
42.155
42.0874
42.029
41.9669
41.9101
41.848
41.78
41.713
41.6487
41.5806
41.5165
41.4466
41.386
41.3199
41.252
41.1769
41.101
41.0263
40.9517
40.883
40.8098
40.7324
40.6613
40.5852
40.513
40.4436
40.3659
40.2941
40.216
40.1442
40.0626
39.9904
39.9086
39.8394
39.7541
39.6849
39.5941
39.5278
39.4418
39.3741
39.2786
39.2088
39.1134
39.042
38.9503
38.8849
38.8036
38.7408
38.6636
38.5994
38.5157
38.4413
38.3472
38.2601
38.1356
38.0534
37.9165
37.7945
37.655
37.5355
37.4092
37.3018
37.2145
37.1069
37.0509
36.9468
36.8858
36.8056
36.7454
36.701
36.6699
36.6094
36.5875
36.5799
36.5907
36.5898
36.593
36.5965
36.625
36.6601
36.6982
36.7677
36.8866
36.9211
36.9955
37.0199
37.0133
37.0075
37.004
37.0088
36.9894
36.9275
45.5554
54.9849
51.1515
50.4242
47.5343
46.9341
46.327
46.1554
46.0411
45.9931
45.9707
45.9644
45.9614
45.9651
45.7761
45.1703
44.7999
44.6362
44.5482
44.4925
44.4376
44.4078
44.3516
44.3255
44.2599
44.2071
44.1459
43.9995
43.8398
43.7121
43.6575
43.5857
43.5304
43.4702
43.4004
43.3401
43.2558
43.1878
43.105
43.0325
42.9531
42.8734
42.7915
42.7095
42.617
42.546
42.4497
42.3828
42.2925
42.2385
42.1603
42.1037
42.0393
41.9811
41.9226
41.8655
41.8024
41.7382
41.6725
41.609
41.543
41.4805
41.4194
41.3553
41.2922
41.2281
41.1545
41.0801
41.0061
40.9344
40.8651
40.7891
40.7162
40.6423
40.5624
40.4946
40.4179
40.3418
40.2675
40.1867
40.1158
40.0305
39.9585
39.8767
39.8072
39.7242
39.6559
39.5681
39.5045
39.4213
39.3554
39.2627
39.1945
39.0991
39.0284
38.9357
38.8695
38.7861
38.723
38.6429
38.5813
38.4974
38.4213
38.32
38.2198
38.076
37.9648
37.8155
37.7038
37.5724
37.4679
37.3503
37.2476
37.1651
37.0621
37.01
36.9119
36.8469
36.778
36.7095
36.6695
36.6388
36.5716
36.5388
36.5351
36.5214
36.5116
36.4983
36.4972
36.507
36.5273
36.5325
36.5505
36.5909
36.674
36.7253
36.7779
36.7829
36.7889
36.7844
36.7854
36.7704
36.71
45.6156
55.0523
51.2419
50.5226
47.6185
47.0032
46.3654
46.1682
46.0369
45.9885
45.9644
45.9594
45.9525
45.9542
45.7203
45.1395
44.7973
44.6477
44.5656
44.5103
44.4537
44.4054
44.3477
44.3126
44.2618
44.1817
44.1114
43.9716
43.8394
43.7169
43.6585
43.5831
43.533
43.4639
43.3933
43.3268
43.2379
43.1725
43.0883
43.0112
42.9359
42.8531
42.7736
42.6909
42.5928
42.5218
42.4259
42.3604
42.2716
42.2139
42.1387
42.0813
42.0161
41.9602
41.8995
41.8436
41.7832
41.7193
41.6537
41.5885
41.5249
41.4625
41.399
41.3348
41.2726
41.2087
41.1308
41.0545
40.9815
40.9069
40.8337
40.7625
40.6858
40.6091
40.5332
40.4604
40.3853
40.3087
40.2312
40.1534
40.0781
39.9949
39.9216
39.8412
39.7715
39.6915
39.6242
39.5398
39.4778
39.3967
39.3338
39.2427
39.1746
39.0806
39.0097
38.916
38.8481
38.762
38.6956
38.6114
38.5403
38.4588
38.3736
38.2588
38.1391
37.9766
37.8799
37.7452
37.6419
37.5175
37.4229
37.3135
37.2196
37.1413
37.0466
37.0012
36.9007
36.8428
36.7661
36.698
36.6619
36.624
36.5408
36.4882
36.4808
36.4473
36.4277
36.3954
36.3925
36.3918
36.4021
36.3955
36.3993
36.4085
36.4491
36.4993
36.5482
36.5604
36.5635
36.5472
36.5333
36.4982
36.4145
45.499
54.8869
51.0481
50.3333
47.4222
46.8139
46.1954
46.0158
45.914
45.8795
45.8608
45.8513
45.8409
45.8442
45.5799
45.0402
44.694
44.54
44.4609
44.4041
44.3544
44.3275
44.2665
44.237
44.1544
44.1075
44.0319
43.8939
43.7677
43.6468
43.5912
43.5248
43.4578
43.3975
43.3222
43.256
43.1811
43.1047
43.0313
42.9523
42.8773
42.794
42.7136
42.6282
42.5397
42.4669
42.375
42.3099
42.2233
42.1688
42.0928
42.0386
41.9786
41.9217
41.8656
41.8111
41.7493
41.689
41.6247
41.5621
41.4976
41.4347
41.3696
41.3067
41.2472
41.1796
41.105
41.0311
40.9584
40.8863
40.8151
40.7438
40.6689
40.59
40.5127
40.4411
40.3623
40.2859
40.2065
40.1277
40.052
39.9684
39.8953
39.8146
39.7463
39.6665
39.6003
39.5167
39.455
39.3753
39.3124
39.22
39.1518
39.0557
38.9818
38.8849
38.8138
38.7235
38.6523
38.562
38.4829
38.3855
38.2897
38.168
38.0499
37.8931
37.8136
37.6863
37.5939
37.479
37.3964
37.299
37.216
37.1431
37.0543
37.0086
36.9002
36.8422
36.7585
36.6854
36.6468
36.5845
36.4883
36.4125
36.3982
36.3551
36.3296
36.2974
36.2926
36.2726
36.2722
36.2584
36.2598
36.2616
36.2796
36.3067
36.3551
36.3698
36.3708
36.3445
36.2962
36.2187
36.0876
45.5384
54.928
51.1092
50.3925
47.4644
46.847
46.2253
46.0451
45.9204
45.8604
45.8125
45.8013
45.7965
45.7978
45.5202
45.0057
44.6606
44.5169
44.4502
44.4042
44.3451
44.2995
44.229
44.1989
44.1352
44.0636
43.9769
43.8492
43.7391
43.6223
43.5635
43.4807
43.4199
43.3552
43.2856
43.2196
43.1338
43.0657
42.9852
42.9007
42.8327
42.7425
42.6666
42.5786
42.4919
42.4238
42.3281
42.2631
42.1794
42.1272
42.0555
42.0025
41.9419
41.8854
41.8286
41.7742
41.7125
41.6523
41.5885
41.5231
41.4598
41.3975
41.3322
41.272
41.2089
41.141
41.0727
41.0013
40.9247
40.8539
40.7875
40.7133
40.6364
40.5611
40.4817
40.4081
40.3291
40.2511
40.1716
40.0926
40.0161
39.9341
39.8594
39.7827
39.7127
39.6362
39.5693
39.4864
39.4248
39.3445
39.2795
39.1866
39.1159
39.017
38.9399
38.8405
38.7654
38.6715
38.5961
38.5013
38.4159
38.3121
38.21
38.085
37.9727
37.8237
37.7633
37.6422
37.5627
37.4575
37.3847
37.2936
37.2136
37.14
37.0477
36.9973
36.8852
36.8335
36.7398
36.6439
36.5972
36.504
36.3906
36.3134
36.2823
36.245
36.2227
36.2187
36.2146
36.1992
36.1759
36.1454
36.128
36.1166
36.1209
36.1347
36.1759
36.1976
36.197
36.1685
36.1046
36.0032
35.8394
45.4462
54.8225
50.9824
50.2628
47.3078
46.6871
46.0616
45.8781
45.7846
45.7576
45.7427
45.7376
45.7163
45.7089
45.3878
44.9046
44.5875
44.4524
44.3784
44.3217
44.268
44.229
44.1711
44.1405
44.058
44.0079
43.9253
43.7941
43.6945
43.5744
43.516
43.4414
43.389
43.3263
43.2541
43.1791
43.1005
43.0246
42.9474
42.8676
42.7971
42.7097
42.6349
42.5488
42.4664
42.393
42.301
42.2385
42.1574
42.1031
42.0332
41.9821
41.9189
41.8656
41.8085
41.755
41.6949
41.633
41.5685
41.5024
41.4389
41.3769
41.3123
41.2511
41.1875
41.1221
41.0526
40.9797
40.9041
40.8346
40.7657
40.6915
40.6141
40.5374
40.4589
40.3817
40.3047
40.2262
40.1444
40.0676
39.99
39.9097
39.8373
39.7597
39.6916
39.6142
39.5463
39.4622
39.3976
39.3148
39.2469
39.1504
39.0754
38.9725
38.8931
38.789
38.7114
38.6141
38.5363
38.4378
38.3504
38.245
38.1461
38.0268
37.9283
37.796
37.7525
37.6378
37.5632
37.4596
37.3865
37.2918
37.2068
37.132
37.0343
36.9785
36.8748
36.8165
36.712
36.6137