/*--------------------------------*- C++ -*----------------------------------*\
| =========                 |                                                 |
| \\      /  F ield         | OpenFOAM: The Open Source CFD Toolbox           |
|  \\    /   O peration     | Version:  2212                                  |
|   \\  /    A nd           | Website:  www.openfoam.com                      |
|    \\/     M anipulation  |                                                 |
\*---------------------------------------------------------------------------*/
FoamFile
{
    version     2.0;
    format      ascii;
    arch        "LSB;label=32;scalar=64";
    class       volScalarField;
    location    "0.055";
    object      T;
}
// * * * * * * * * * * * * * * * * * * * * * * * * * * * * * * * * * * * * * //

dimensions      [0 0 0 1 0 0 0];

internalField   nonuniform List<scalar> 
44662
(
272.313
273.025
273.03
273.026
273.028
272.525
271.917
272.539
273.086
272.28
272.488
273.196
271.961
273.104
273.27
273.19
273.241
273.231
272.476
271.684
272.104
273.236
271.822
272.613
272.869
272.778
272.028
272.267
271.997
272.158
272.845
272.06
272.845
272.543
272.723
272.593
273.176
273.185
272.597
273.117
273.123
273.167
272.504
272.896
271.931
272.605
272.166
272.652
272.348
272.896
273.045
272.25
273.027
272.84
272.304
272.575
273.08
272.453
272.269
272.283
272.489
272.837
272.418
273.023
272.219
272.476
272.627
272.662
272.966
271.911
272.839
272.595
272.595
272.481
271.934
273.134
272.831
272.236
272.331
272.626
272.576
271.96
273.064
272.011
272.54
273.081
271.991
273.01
272.171
271.853
272.083
272.028
272.738
272.805
271.938
272.117
272.555
271.954
272.025
272.93
271.397
273.018
272.347
272.656
272.011
272.179
272.063
272.579
273.015
271.81
272.117
273.104
273.019
272.688
272.589
272.173
272.383
273.071
272.841
272.23
273.117
272.201
272.349
272.28
272.235
273.017
272.323
272.272
273.04
272.359
272.307
272.351
272.495
272.311
272.39
272.339
272.405
272.404
272.414
272.366
272.323
272.433
272.205
272.293
272.449
273.042
273.06
273.063
273.02
272.964
273.112
273.039
272.457
272.588
273.028
273.02
273.116
271.379
271.369
271.36
271.35
271.34
271.33
271.319
271.309
271.298
271.287
271.276
271.265
271.253
271.242
271.23
271.217
271.205
271.192
271.179
271.165
271.152
271.138
271.123
271.109
271.094
271.079
271.063
271.047
271.031
271.014
270.997
270.98
270.962
270.944
270.926
270.907
270.887
270.868
270.847
270.827
270.805
270.784
270.762
270.739
270.716
270.692
270.668
270.643
270.618
270.646
270.621
270.671
272.834
271.388
271.381
271.391
270.592
270.565
270.568
270.595
270.719
270.695
270.765
270.742
270.808
270.787
270.85
270.83
270.89
270.871
270.929
270.91
270.965
270.947
271
270.983
271.034
271.017
271.066
271.05
271.097
271.082
271.126
271.112
271.155
271.141
271.182
271.168
271.207
271.195
271.232
271.22
271.256
271.244
271.279
271.268
271.301
271.29
271.322
271.312
271.343
271.332
271.362
271.352
271.372
271.362
271.372
271.342
271.352
271.322
271.332
271.301
271.311
271.279
271.29
271.256
271.267
271.232
271.244
271.207
271.22
271.181
271.194
271.154
271.168
271.126
271.14
271.096
271.111
271.066
271.081
271.034
271.05
271
271.017
270.965
270.983
270.928
270.947
270.89
270.909
270.85
270.87
270.808
270.829
270.764
270.787
270.719
270.742
270.671
270.695
270.621
270.646
270.568
270.595
270.655
270.63
270.68
272.841
272.833
271.388
271.398
270.541
270.577
270.55
270.577
270.541
270.549
271.4
271.397
270.604
270.728
270.704
270.773
270.751
270.817
270.795
270.859
270.838
270.899
270.879
270.937
270.918
270.974
270.956
271.009
270.992
271.043
271.026
271.074
271.059
271.105
271.09
271.134
271.12
271.163
271.149
271.19
271.176
271.215
271.203
271.24
271.228
271.264
271.252
271.287
271.276
271.309
271.298
271.33
271.32
271.35
271.34
271.37
271.36
271.379
271.988
270.538
271.369
271.379
271.349
271.359
271.329
271.339
271.308
271.319
271.286
271.297
271.264
271.275
271.24
271.252
271.215
271.227
271.189
271.202
271.162
271.176
271.134
271.148
271.104
271.119
271.074
271.089
271.042
271.058
271.008
271.025
270.973
270.991
270.937
270.955
270.898
270.918
270.858
270.879
270.817
270.838
270.773
270.795
270.727
270.75
270.679
270.704
270.629
270.655
270.603
271.407
270.564
270.591
270.669
270.644
270.694
270.513
270.521
271.399
271.416
271.409
271.406
270.536
270.583
270.556
271.417
271.424
270.618
270.742
270.718
270.787
270.765
270.831
270.81
270.873
270.852
270.913
270.893
270.951
270.932
270.988
270.97
271.023
271.006
271.056
271.04
271.088
271.072
271.119
271.104
271.148
271.133
271.176
271.162
271.203
271.189
271.229
271.216
271.253
271.241
271.277
271.265
271.3
271.288
271.322
271.311
271.343
271.332
271.363
271.353
271.382
271.373
272.255
271.391
270.513
270.51
270.522
271.436
271.418
271.427
271.4
271.409
271.381
271.391
271.361
271.371
271.341
271.352
271.321
271.331
271.299
271.31
271.276
271.288
271.252
271.264
271.228
271.24
271.202
271.215
271.175
271.189
271.147
271.161
271.118
271.132
271.087
271.102
271.055
271.071
271.021
271.038
270.987
271.004
270.95
270.969
270.912
270.931
270.872
270.892
270.83
270.851
270.787
270.809
270.741
270.764
270.693
270.718
270.643
270.669
270.591
270.617
270.536
270.564
271.433
271.444
271.406
270.61
271.408
270.508
270.528
270.607
270.58
270.555
270.507
270.527
271.415
271.426
271.441
270.713
270.688
270.663
271.453
271.434
271.418
270.637
270.761
270.737
270.807
270.784
270.85
270.829
270.892
270.871
270.932
270.912
270.97
270.951
271.007
270.989
271.042
271.025
271.075
271.059
271.107
271.091
271.137
271.122
271.166
271.152
271.194
271.18
271.221
271.208
271.247
271.234
271.271
271.259
271.295
271.283
271.317
271.306
271.339
271.328
271.36
271.35
271.38
271.371
271.399
271.39
273.074
271.408
273.022
270.484
270.493
270.485
270.481
270.493
271.469
271.452
271.461
271.435
271.444
271.417
271.426
271.398
271.407
271.378
271.388
271.358
271.369
271.338
271.348
271.316
271.327
271.294
271.305
271.27
271.282
271.246
271.258
271.22
271.233
271.193
271.207
271.165
271.179
271.136
271.151
271.105
271.121
271.073
271.089
271.04
271.057
271.005
271.023
270.969
270.987
270.931
270.95
270.891
270.911
270.849
270.87
270.806
270.828
270.76
270.783
270.712
270.737
270.663
270.688
270.61
270.637
270.583
271.461
271.477
271.415
270.634
270.712
270.686
270.737
270.552
270.478
270.497
271.456
271.443
271.464
271.417
271.423
271.434
271.449
271.468
271.484
271.427
270.66
270.785
270.761
270.83
270.808
270.874
270.852
270.916
270.895
270.955
270.936
270.994
270.975
271.03
271.012
271.066
271.048
271.099
271.082
271.13
271.115
271.16
271.145
271.189
271.175
271.217
271.203
271.244
271.231
271.269
271.257
271.294
271.282
271.317
271.306
271.34
271.329
271.362
271.351
271.383
271.372
271.403
271.393
271.421
271.412
271.439
271.43
271.447
270.455
270.464
270.455
270.452
270.479
270.464
270.523
270.498
271.505
271.489
271.497
271.473
271.481
271.456
271.464
271.438
271.447
271.419
271.429
271.4
271.41
271.38
271.39
271.36
271.37
271.338
271.349
271.316
271.327
271.293
271.304
271.268
271.28
271.243
271.256
271.216
271.229
271.188
271.202
271.159
271.174
271.128
271.144
271.097
271.113
271.063
271.08
271.029
271.046
270.992
271.011
270.954
270.973
270.914
270.935
270.873
270.894
270.829
270.851
270.784
270.807
270.736
270.76
270.686
270.711
270.634
270.66
270.579
270.607
270.521
270.55
271.492
271.512
271.472
271.451
271.424
270.635
270.607
270.662
271.425
270.493
270.55
270.52
270.549
270.491
270.519
271.498
271.48
271.506
271.431
271.442
271.457
271.476
271.5
270.714
270.739
270.764
271.52
271.435
270.579
270.688
270.812
270.789
270.858
270.835
270.902
270.88
270.943
270.923
270.983
270.963
271.021
271.002
271.058
271.04
271.093
271.076
271.127
271.11
271.158
271.142
271.188
271.173
271.217
271.202
271.244
271.231
271.271
271.258
271.296
271.284
271.321
271.309
271.344
271.333
271.367
271.356
271.389
271.378
271.41
271.399
271.429
271.42
271.447
271.438
271.465
271.456
271.481
271.473
271.489
270.448
270.468
270.425
270.434
270.425
270.422
270.449
270.434
270.469
271.544
271.53
271.537
271.514
271.522
271.498
271.506
271.481
271.49
271.463
271.472
271.445
271.454
271.426
271.436
271.407
271.417
271.386
271.397
271.365
271.376
271.343
271.354
271.319
271.331
271.295
271.307
271.27
271.282
271.243
271.256
271.215
271.229
271.186
271.201
271.156
271.171
271.124
271.14
271.091
271.107
271.056
271.074
271.02
271.038
270.982
271.001
270.942
270.962
270.9
270.921
270.857
270.879
270.811
270.834
270.764
270.788
270.714
270.739
270.661
270.688
270.606
270.634
270.578
271.527
271.551
271.459
271.432
270.665
270.638
270.692
270.77
270.744
270.795
270.581
270.551
270.461
270.488
271.515
271.489
271.433
271.439
271.45
271.464
271.484
271.507
271.534
271.558
271.443
270.61
270.718
270.843
270.819
270.889
270.866
270.932
270.911
270.974
270.954
271.014
270.994
271.052
271.033
271.089
271.071
271.125
271.107
271.158
271.142
271.189
271.174
271.219
271.204
271.248
271.233
271.275
271.262
271.302
271.289
271.327
271.315
271.352
271.34
271.375
271.364
271.398
271.386
271.419
271.408
271.44
271.43
271.46
271.45
271.478
271.469
271.495
271.486
271.511
271.503
271.527
271.519
271.545
271.536
271.525
271.554
270.418
270.437
270.395
270.403
270.395
270.392
270.418
270.404
270.462
270.438
270.52
270.49
271.587
271.573
271.58
271.558
271.566
271.543
271.551
271.527
271.535
271.511
271.519
271.493
271.502
271.475
271.484
271.456
271.466
271.437
271.447
271.417
271.427
271.395
271.406
271.373
271.384
271.35
271.362
271.326
271.338
271.3
271.313
271.274
271.287
271.246
271.26
271.217
271.232
271.187
271.202
271.155
271.171
271.122
271.138
271.087
271.104
271.051
271.069
271.012
271.032
270.973
270.993
270.931
270.952
270.887
270.91
270.842
270.865
270.794
270.818
270.744
270.769
270.691
270.718
270.636
270.664
270.579
270.608
270.518
270.549
271.565
271.593
271.468
271.44
270.697
270.67
270.724
270.802
270.777
270.827
271.498
271.441
270.489
270.552
270.52
270.55
270.487
270.518
271.563
271.533
271.447
271.457
271.472
271.491
271.514
271.541
271.599
271.571
271.451
270.612
270.582
270.641
270.75
270.876
270.852
270.922
270.899
270.965
270.944
271.007
270.987
271.047
271.027
271.086
271.067
271.123
271.104
271.158
271.141
271.192
271.175
271.223
271.208
271.253
271.238
271.282
271.267
271.31
271.296
271.336
271.323
271.362
271.349
271.386
271.374
271.409
271.398
271.432
271.421
271.454
271.443
271.475
271.464
271.494
271.485
271.512
271.503
271.529
271.52
271.545
271.537
271.561
271.553
271.578
271.569
271.594
271.587
271.568
271.603
271.599
270.43
270.457
270.386
270.406
270.363
270.372
270.364
270.36
270.387
270.373
270.431
270.407
270.459
271.639
271.63
271.604
271.635
271.619
271.625
271.605
271.612
271.591
271.599
271.576
271.584
271.561
271.569
271.544
271.552
271.527
271.536
271.509
271.518
271.49
271.5
271.471
271.481
271.451
271.461
271.429
271.44
271.407
271.418
271.384
271.396
271.36
271.372
271.334
271.347
271.308
271.321
271.28
271.294
271.251
271.265
271.22
271.236
271.188
271.205
271.155
271.172
271.12
271.138
271.084
271.102
271.046
271.065
271.006
271.026
270.964
270.985
270.92
270.942
270.874
270.897
270.826
270.851
270.776
270.802
270.723
270.75
270.668
270.696
270.61
270.64
270.58
271.476
271.448
270.73
270.702
270.757
270.584
270.552
270.455
270.486
271.505
271.449
271.537
271.455
271.608
271.574
271.465
271.479
271.498
271.521
271.548
271.577
271.609
271.678
271.645
270.81
270.835
270.86
271.459
270.645
270.615
270.674
270.783
270.909
270.885
270.955
270.933
270.999
270.978
271.042
271.021
271.082
271.062
271.12
271.101
271.158
271.139
271.194
271.176
271.227
271.211
271.259
271.243
271.289
271.274
271.318
271.303
271.346
271.332
271.372
271.359
271.398
271.385
271.423
271.41
271.446
271.434
271.469
271.457
271.491
271.48
271.512
271.502
271.532
271.522
271.549
271.541
271.566
271.558
271.582
271.574
271.598
271.59
271.615
271.607
271.631
271.623
271.641
271.636
271.614
271.652
271.646
270.398
270.425
270.354
270.374
270.331
270.34
270.332
270.328
270.355
270.341
270.399
270.375
270.456
270.426
270.519
270.488
271.666
271.669
271.655
271.66
271.642
271.648
271.628
271.635
271.613
271.62
271.597
271.605
271.581
271.589
271.564
271.572
271.546
271.555
271.527
271.537
271.508
271.518
271.487
271.498
271.466
271.477
271.444
271.455
271.42
271.432
271.396
271.408
271.37
271.383
271.344
271.357
271.316
271.33
271.286
271.301
271.256
271.271
271.224
271.24
271.19
271.207
271.155
271.173
271.118
271.137
271.08
271.099
271.04
271.06
270.998
271.019
270.954
270.976
270.908
270.931
270.86
270.884
270.809
270.835
270.756
270.783
270.701
270.729
270.642
270.672
270.582
270.612
270.518
270.55
271.484
271.456
270.762
270.734
270.789
270.868
270.842
270.894
271.511
271.456
270.486
270.55
270.517
270.548
270.485
270.515
271.543
271.462
271.579
271.472
271.658
271.619
271.486
271.505
271.528
271.554
271.583
271.616
271.686
271.652
271.467
270.615
270.583
270.676
270.646
270.706
270.816
270.942
270.918
270.989
270.966
271.034
271.012
271.076
271.055
271.117
271.096
271.155
271.136
271.193
271.174
271.229
271.211
271.263
271.247
271.295
271.279
271.325
271.31
271.355
271.34
271.383
271.369
271.41
271.397
271.436
271.423
271.461
271.448
271.484
271.473
271.507
271.496
271.53
271.518
271.551
271.54
271.571
271.561
271.589
271.58
271.606
271.597
271.622
271.614
271.638
271.63
271.655
271.647
271.67
271.663
271.682
271.676
271.693
271.688
271.663
271.705
271.699
270.422
270.453
270.365
270.392
270.322
270.341
270.299
270.307
270.299
270.296
270.322
270.308
270.366
270.342
270.423
270.394
270.455
271.691
271.729
271.714
271.723
271.705
271.708
271.694
271.7
271.681
271.688
271.667
271.674
271.652
271.66
271.637
271.644
271.62
271.628
271.603
271.612
271.585
271.594
271.566
271.576
271.546
271.556
271.526
271.536
271.504
271.515
271.482
271.493
271.458
271.47
271.434
271.446
271.408
271.421
271.381
271.394
271.353
271.367
271.323
271.338
271.292
271.308
271.26
271.276
271.226
271.243
271.19
271.208
271.153
271.172
271.115
271.134
271.074
271.095
271.032
271.053
270.987
271.01
270.941
270.965
270.892
270.917
270.842
270.867
270.788
270.815
270.732
270.761
270.674
270.704
270.613
270.644
270.581
271.49
271.463
270.793
270.765
270.821
270.9
270.874
270.925
270.58
270.546
270.451
270.481
271.518
271.464
271.549
271.469
271.585
271.479
271.625
271.493
271.71
271.669
271.512
271.534
271.56
271.589
271.622
271.733
271.658
271.696
271.776
271.737
271.779
271.474
270.645
270.613
270.707
270.676
270.736
270.847
270.975
270.95
271.022
270.999
271.067
271.045
271.109
271.088
271.15
271.13
271.19
271.17
271.228
271.209
271.264
271.246
271.299
271.282
271.331
271.315
271.362
271.346
271.392
271.377
271.42
271.406
271.448
271.434
271.474
271.461
271.499
271.487
271.523
271.511
271.546
271.535
271.569
271.558
271.591
271.58
271.611
271.601
271.629
271.621
271.647
271.638
271.664
271.655
271.68
271.672
271.696
271.688
271.712
271.704
271.725
271.719
271.737
271.731
271.749
271.743
271.715
271.76
271.754
270.389
270.419
270.332
270.359
270.288
270.308
270.265
270.274
270.265
270.262
270.289
270.274
270.332
270.308
270.39
270.36
270.452
270.421
270.512
270.482
271.77
271.774
271.757
271.764
271.747
271.752
271.736
271.742
271.723
271.729
271.708
271.716
271.693
271.701
271.677
271.686
271.661
271.669
271.643
271.652
271.625
271.634
271.606
271.616
271.586
271.596
271.565
271.576
271.543
271.554
271.52
271.532
271.497
271.509
271.472
271.484
271.445
271.459
271.418
271.432
271.389
271.404
271.359
271.374
271.328
271.344
271.295
271.312
271.261
271.278
271.225
271.243
271.188
271.207
271.149
271.168
271.108
271.128
271.065
271.087
271.02
271.043
270.973
270.997
270.924
270.949
270.873
270.899
270.819
270.846
270.763
270.792
270.704
270.734
270.643
270.674
270.578
270.611
270.51
270.545
271.497
271.47
270.794
270.822
271.524
271.471
270.476
270.539
270.504
270.538
270.475
270.503
271.556
271.476
271.591
271.486
271.631
271.5
271.674
271.518
271.765
271.721
271.54
271.566
271.595
271.628
273.07
273.03
271.663
271.7
271.74
271.894
272.492
270.904
271.782
270.93
271.481
270.608
270.574
270.673
270.641
270.735
270.705
270.765
270.85
270.877
271.005
270.956
270.981
271.053
271.029
271.098
271.076
271.141
271.12
271.183
271.162
271.223
271.203
271.261
271.242
271.298
271.28
271.333
271.316
271.366
271.349
271.397
271.381
271.427
271.412
271.456
271.442
271.484
271.47
271.511
271.498
271.537
271.524
271.561
271.549
271.585
271.573
271.608
271.597
271.631
271.619
271.651
271.641
271.67
271.661
271.688
271.679
271.705
271.696
271.722
271.714
271.739
271.73
271.754
271.747
271.768
271.762
271.781
271.775
271.794
271.788
271.805
271.8
271.769
271.815
271.81
270.416
270.446
270.354
270.385
270.297
270.324
270.254
270.273
270.231
270.239
270.231
270.228
270.254
270.24
270.298
270.274
270.355
270.325
270.417
270.386
270.447
271.814
271.818
271.803
271.809
271.791
271.797
271.779
271.785
271.765
271.772
271.751
271.758
271.735
271.743
271.719
271.727
271.702
271.711
271.684
271.693
271.665
271.675
271.646
271.656
271.626
271.636
271.604
271.615
271.582
271.593
271.559
271.57
271.534
271.546
271.509
271.522
271.482
271.495
271.454
271.468
271.425
271.44
271.394
271.41
271.363
271.379
271.329
271.346
271.295
271.312
271.258
271.277
271.221
271.24
271.181
271.201
271.14
271.16
271.096
271.118
271.051
271.074
271.004
271.028
270.954
270.979
270.903
270.929
270.849
270.876
270.792
270.821
270.733
270.763
270.671
270.702
270.606
270.639
270.572
271.504
271.477
270.566
270.53
272.419
270.439
270.467
271.531
271.478
271.562
271.483
271.597
271.493
271.636
271.507
271.679
271.524
271.725
271.546
271.819
271.774
271.572
271.601
271.633
271.667
271.704
271.743
271.788
271.84
272.02
271.83
271.688
271.488
270.634
270.6
270.7
270.668
270.762
270.732
270.821
270.792
270.878
270.85
270.932
270.905
270.984
270.958
271.034
271.009
271.082
271.058
271.127
271.105
271.171
271.149
271.213
271.192
271.253
271.233
271.292
271.273
271.329
271.311
271.365
271.347
271.398
271.382
271.43
271.414
271.461
271.445
271.49
271.476
271.519
271.505
271.546
271.533
271.573
271.56
271.598
271.585
271.622
271.61
271.646
271.634
271.669
271.657
271.69
271.68
271.709
271.7
271.728
271.719
271.746
271.737
271.763
271.755
271.78
271.772
271.796
271.789
271.811
271.804
271.825
271.819
271.839
271.832
271.851
271.845
271.862
271.857
271.934
271.95
271.863
272.065
271.91
272.106
270.38
270.41
270.319
270.349
270.262
270.289
270.219
270.238
270.195
270.204
270.196
270.193
270.219
270.205
270.263
270.239
270.32
270.29
270.381
270.35
270.44
270.412
270.494
270.468
271.859
271.864
271.848
271.854
271.835
271.842
271.822
271.829
271.808
271.815
271.793
271.8
271.777
271.785
271.76
271.768
271.742
271.751
271.724
271.733
271.705
271.714
271.685
271.695
271.664
271.674
271.642
271.653
271.619
271.631
271.595
271.607
271.57
271.583
271.544
271.557
271.517
271.53
271.488
271.503
271.459
271.474
271.428
271.443
271.395
271.412
271.361
271.379
271.326
271.344
271.289
271.308
271.251
271.27
271.211
271.231
271.169
271.19
271.125
271.148
271.08
271.103
271.032
271.056
270.982
271.008
270.93
270.957
270.876
270.903
270.819
270.848
270.76
270.79
270.697
270.729
270.632
270.665
270.564
270.599
270.493
270.529
271.879
271.51
271.484
271.537
271.485
270.457
270.52
270.483
270.519
270.456
270.482
271.568
271.49
271.603
271.499
271.642
271.513
271.684
271.531
271.73
271.552
271.779
271.577
271.605
273.072
271.637
272.073
271.671
271.708
271.796
271.851
271.894
271.864
271.906
271.748
271.917
271.949
271.958
271.495
270.592
270.556
270.66
270.626
270.726
270.693
270.788
270.757
270.847
270.818
270.904
270.876
270.958
270.931
271.01
270.984
271.06
271.035
271.108
271.084
271.154
271.131
271.198
271.176
271.24
271.219
271.281
271.261
271.32
271.301
271.358
271.339
271.394
271.376
271.428
271.411
271.46
271.444
271.492
271.476
271.522
271.507
271.551
271.537
271.579
271.565
271.606
271.592
271.631
271.619
271.656
271.644
271.681
271.669
271.704
271.693
271.726
271.716
271.746
271.736
271.765
271.756
271.784
271.775
271.802
271.793
271.82
271.811
271.837
271.828
271.853
271.845
271.867
271.86
271.882
271.875
271.895
271.888
271.907
271.901
271.92
271.911
272.097
270.403
270.43
270.344
270.374
270.283
270.313
270.226
270.253
270.183
270.202
270.159
270.168
270.16
270.157
270.183
270.169
270.227
270.203
270.283
270.254
270.345
270.314
270.404
270.375
270.431
271.922
271.935
271.913
271.917
271.904
271.909
271.892
271.898
271.878
271.885
271.864
271.871
271.849
271.857
271.833
271.841
271.817
271.825
271.799
271.808
271.781
271.79
271.762
271.771
271.742
271.752
271.721
271.732
271.7
271.711
271.677
271.689
271.654
271.665
271.629
271.641
271.603
271.616
271.577
271.59
271.549
271.563
271.52
271.535
271.49
271.505
271.458
271.474
271.425
271.442
271.391
271.408
271.355
271.373
271.318
271.337
271.279
271.299
271.239
271.259
271.196
271.218
271.152
271.175
271.107
271.13
271.059
271.083
271.009
271.034
270.956
270.983
270.902
270.929
270.845
270.874
270.785
270.815
270.723
270.755
270.658
270.691
270.59
270.624
270.555
271.517
271.491
271.824
270.548
270.511
270.418
270.444
271.543
271.492
271.574
271.497
271.608
271.506
271.647
271.519
271.69
271.537
271.966
271.924
271.735
271.557
271.784
271.582
271.832
271.61
271.875
271.872
271.641
271.826
273.028
271.675
272.769
271.713
271.754
271.973
272.007
272.014
271.502
270.619
270.584
270.687
270.653
270.752
270.72
270.814
270.783
270.873
270.844
270.929
270.901
270.983
270.956
271.035
271.009
271.085
271.061
271.133
271.11
271.179
271.157
271.224
271.202
271.266
271.245
271.307
271.287
271.346
271.327
271.385
271.366
271.421
271.403
271.455
271.438
271.488
271.471
271.52
271.504
271.551
271.535
271.58
271.565
271.609
271.594
271.636
271.622
271.662
271.649
271.688
271.675
271.713
271.7
271.737
271.725
271.759
271.748
271.78
271.77
271.8
271.79
271.819
271.81
271.838
271.829
271.857
271.848
271.874
271.866
271.891
271.883
271.907
271.899
271.922
271.914
271.936
271.929
271.949
271.943
271.964
271.956
271.975
270.365
270.392
270.307
270.336
270.246
270.276
270.189
270.216
270.146
270.165
270.123
270.132
270.123
270.12
270.146
270.132
270.19
270.166
270.246
270.217
270.308
270.277
270.366
270.337
270.419
270.393
270.474
270.446
271.991
271.999
271.97
271.979
271.957
271.963
271.947
271.952
271.933
271.94
271.919
271.926
271.904
271.911
271.888
271.896
271.871
271.88
271.854
271.863
271.836
271.845
271.817
271.826
271.797
271.807
271.776
271.787
271.755
271.766
271.733
271.744
271.709
271.721
271.685
271.697
271.66
271.673
271.634
271.647
271.607
271.62
271.578
271.593
271.549
271.564
271.518
271.533
271.486
271.502
271.453
271.469
271.418
271.435
271.382
271.4
271.344
271.363
271.305
271.325
271.264
271.285
271.222
271.243
271.178
271.2
271.132
271.155
271.084
271.108
271.034
271.059
270.981
271.008
270.927
270.955
270.87
270.899
270.811
270.841
270.749
270.78
270.684
270.717
270.617
270.651
270.546
270.582
270.472
270.51
271.523
271.498
271.549
271.498
270.435
270.505
270.468
270.504
270.434
270.466
271.58
271.503
271.614
271.512
272.02
271.978
271.652
271.526
271.931
271.695
271.543
271.74
271.563
271.788
271.587
271.882
271.832
271.614
271.835
271.878
271.646
271.791
271.89
272.019
271.68
271.717
271.758
272.025
272.059
272.065
271.508
270.578
270.542
270.648
270.614
270.716
270.682
270.78
270.748
270.841
270.811
270.9
270.871
270.955
270.928
271.009
270.982
271.061
271.035
271.11
271.086
271.158
271.134
271.204
271.181
271.248
271.226
271.29
271.269
271.331
271.311
271.371
271.351
271.409
271.39
271.445
271.427
271.48
271.463
271.513
271.497
271.545
271.529
271.576
271.561
271.606
271.592
271.635
271.621
271.663
271.649
271.69
271.677
271.716
271.703
271.741
271.729
271.766
271.754
271.789
271.778
271.811
271.8
271.831
271.821
271.851
271.841
271.871
271.861
271.89
271.88
271.908
271.899
271.926
271.917
271.942
271.934
271.958
271.95
271.974
271.966
271.988
271.981
272.004
271.995
272.023
272.013
272.04
272.032
272.056
272.048
270.379
270.406
270.326
270.353
270.268
270.298
270.208
270.238
270.151
270.178
270.108
270.128
270.085
270.094
270.085
270.082
270.109
270.094
270.152
270.128
270.208
270.179
270.269
270.239
270.327
270.299
270.381
270.354
270.407
272.046
272.053
272.03
272.038
272.012
272.021
271.998
272.004
271.985
271.992
271.971
271.978
271.956
271.963
271.94
271.948
271.923
271.932
271.906
271.914
271.887
271.897
271.869
271.878
271.849
271.859
271.828
271.839
271.807
271.818
271.785
271.796
271.762
271.774
271.738
271.75
271.714
271.726
271.688
271.701
271.661
271.675
271.633
271.647
271.605
271.619
271.575
271.59
271.544
271.559
271.511
271.528
271.478
271.495
271.443
271.46
271.406
271.425
271.369
271.388
271.33
271.349
271.289
271.309
271.246
271.268
271.202
271.225
271.156
271.18
271.109
271.133
271.059
271.084
271.007
271.033
270.953
270.98
270.897
270.925
270.838
270.868
270.777
270.808
270.713
270.745
270.646
270.68
270.577
270.612
270.541
271.53
271.504
270.543
270.506
272.089
272.158
270.395
270.428
271.555
271.505
272.07
272.03
271.585
271.509
271.983
271.619
271.518
271.936
271.658
271.531
271.7
271.548
271.745
271.568
271.888
271.789
271.592
271.841
271.834
271.619
271.797
271.884
271.65
272.773
271.684
271.722
271.758
272.029
272.15
271.515
270.614
270.579
270.683
270.649
270.749
270.716
270.812
270.781
270.872
270.842
270.929
270.901
270.984
270.957
271.037
271.011
271.088
271.063
271.137
271.113
271.184
271.161
271.229
271.207
271.273
271.252
271.315
271.294
271.356
271.336
271.395
271.375
271.433
271.414
271.469
271.451
271.504
271.486
271.537
271.52
271.569
271.553
271.6
271.585
271.63
271.615
271.659
271.645
271.688
271.674
271.715
271.701
271.741
271.728
271.767
271.754
271.792
271.779
271.815
271.804
271.837
271.827
271.859
271.848
271.879
271.869
271.9
271.889
271.919
271.909
271.938
271.929
271.956
271.947
271.974
271.965
271.991
271.982
272.007
271.999
272.022
272.015
272.039
272.03
272.056
272.047
272.072
272.064
272.081
270.34
270.366
270.287
270.314
270.229
270.259
270.169
270.199
270.113
270.14
270.07
270.089
270.046
270.055
270.046
270.043
270.07
270.055
270.113
270.089
270.169
270.14
270.23
270.2
270.288
270.259
270.341
270.315
270.396
270.368
270.468
270.429
272.175
272.183
272.12
272.115
272.075
272.107
272.112
272.096
272.102
272.082
272.089
272.066
272.074
272.05
272.058
272.034
272.042
272.02
272.027
272.005
272.013
271.989
271.997
271.972
271.98
271.954
271.963
271.936
271.945
271.917
271.927
271.898
271.908
271.877
271.888
271.856
271.867
271.835
271.846
271.812
271.823
271.789
271.8
271.764
271.776
271.739
271.752
271.713
271.726
271.686
271.7
271.658
271.672
271.629
271.643
271.599
271.614
271.567
271.583
271.535
271.551
271.501
271.518
271.466
271.484
271.43
271.449
271.393
271.412
271.354
271.373
271.313
271.334
271.271
271.292
271.228
271.25
271.182
271.205
271.135
271.159
271.086
271.111
271.035
271.061
270.982
271.009
270.926
270.954
270.869
270.898
270.809
270.839
270.746
270.778
270.681
270.714
270.612
270.647
270.541
270.577
270.466
270.504
272.148
272.079
271.536
271.511
272.035
271.561
271.511
270.43
270.515
270.478
270.513
270.428
270.476
271.988
271.591
271.516
271.941
271.625
271.525
271.663
271.537
271.704
271.554
271.893
271.748
271.574
271.847
271.792
271.597
271.802
271.841
271.623
271.89
271.654
272.77
271.688
271.76
271.724
271.989
272.036
272.113
272.08
272.157
272.126
272.083
272.121
272.507
271.521
270.588
270.552
270.657
270.623
270.724
270.691
270.788
270.756
270.849
270.819
270.908
270.879
270.964
270.936
271.017
270.991
271.069
271.043
271.119
271.094
271.167
271.143
271.213
271.19
271.258
271.236
271.3
271.279
271.342
271.321
271.382
271.362
271.42
271.401
271.458
271.439
271.493
271.476
271.527
271.511
271.56
271.544
271.592
271.577
271.623
271.608
271.653
271.639
271.683
271.668
271.711
271.697
271.738
271.724
271.764
271.751
271.79
271.777
271.815
271.803
271.839
271.827
271.861
271.85
271.883
271.872
271.904
271.894
271.925
271.915
271.945
271.935
271.964
271.955
271.983
271.974
272.001
271.992
272.019
272.01
272.035
272.027
272.052
272.044
272.068
272.06
272.085
272.077
272.101
272.093
272.118
272.109
272.134
272.126
272.142
270.355
270.388
270.299
270.326
270.246
270.273
270.189
270.218
270.129
270.159
270.073
270.1
270.03
270.049
270.007
270.015
270.007
270.004
270.03
270.016
270.074
270.05
270.13
270.1
270.19
270.16
270.247
270.219
270.3
270.274
270.356
270.327
270.39
272.14
272.146
272.128
272.135
272.114
272.121
272.098
272.106
272.082
272.09
272.066
272.074
272.05
272.058
272.034
272.042
272.017
272.026
272
272.009
271.982
271.991
271.963
271.972
271.943
271.953
271.923
271.933
271.903
271.913
271.881
271.892
271.859
271.87
271.836
271.848
271.812
271.824
271.788
271.8
271.762
271.775
271.736
271.749
271.709
271.723
271.681
271.695
271.652
271.666
271.622
271.637
271.591
271.606
271.558
271.575
271.525
271.542
271.491
271.508
271.455
271.473
271.418
271.436
271.379
271.399
271.34
271.36
271.298
271.319
271.255
271.277
271.211
271.233
271.165
271.188
271.117
271.141
271.067
271.092
271.015
271.041
270.961
270.988
270.905
270.933
270.846
270.876
270.785
270.816
270.722
270.754
270.655
270.689
270.586
270.621
270.55
272.039
271.542
271.517
272.512
270.571
270.535
270.388
270.437
271.992
271.567
271.517
271.945
271.597
271.522
271.63
271.53
271.668
271.543
271.898
271.708
271.559
271.852
271.751
271.579
271.808
271.798
271.602
271.846
271.628
271.896
271.658
271.765
271.691
271.946
271.996
271.726
272.043
272.088
272.167
272.195
272.203
272.61
273.019
272.128
272.173
272.132
272.088
272.043
271.527
270.642
270.607
270.709
270.676
270.773
270.742
270.835
270.805
270.895
270.865
270.951
270.923
271.005
270.978
271.057
271.031
271.107
271.082
271.156
271.131
271.202
271.179
271.247
271.225
271.29
271.269
271.332
271.311
271.372
271.352
271.411
271.392
271.449
271.43
271.485
271.467
271.52
271.503
271.553
271.537
271.586
271.57
271.617
271.602
271.648
271.633
271.677
271.663
271.706
271.692
271.734
271.72
271.76
271.747
271.787
271.774
271.812
271.8
271.838
271.825
271.861
271.85
271.884
271.873
271.905
271.895