/*--------------------------------*- C++ -*----------------------------------*\
| =========                 |                                                 |
| \\      /  F ield         | OpenFOAM: The Open Source CFD Toolbox           |
|  \\    /   O peration     | Version:  2212                                  |
|   \\  /    A nd           | Website:  www.openfoam.com                      |
|    \\/     M anipulation  |                                                 |
\*---------------------------------------------------------------------------*/
FoamFile
{
    version     2.0;
    format      ascii;
    arch        "LSB;label=32;scalar=64";
    class       volScalarField;
    location    "0.104";
    object      pMean;
}
// * * * * * * * * * * * * * * * * * * * * * * * * * * * * * * * * * * * * * //

dimensions      [0 2 -2 0 0 0 0];

internalField   nonuniform List<scalar> 
24240
(
15.6182
15.6182
15.6182
15.6182
15.6182
15.6182
15.6182
15.6183
15.6183
15.6183
15.6184
15.6184
15.6184
15.6185
15.6185
15.6185
15.6185
15.6186
15.6186
15.6186
12.0743
12.0743
12.0743
12.0743
12.0743
12.0743
12.0743
12.0743
12.0744
12.0744
12.0744
12.0744
12.0744
12.0744
12.0744
12.0744
12.0745
12.0745
12.0745
12.0745
12.4022
12.4022
12.4022
12.4022
12.4022
12.4022
12.4022
12.4022
12.4022
12.4022
12.4022
12.4021
12.4021
12.4021
12.4021
12.4021
12.4021
12.4021
12.4021
12.4021
11.2078
11.2078
11.2078
11.2078
11.2078
11.2078
11.2078
11.2078
11.2078
11.2077
11.2077
11.2077
11.2077
11.2077
11.2077
11.2077
11.2077
11.2077
11.2077
11.2077
11.338
11.338
11.338
11.338
11.338
11.3379
11.3379
11.3379
11.3379
11.3379
11.3378
11.3378
11.3378
11.3378
11.3378
11.3377
11.3377
11.3377
11.3377
11.3377
10.9292
10.9292
10.9292
10.9292
10.9292
10.9292
10.9292
10.9291
10.9291
10.9291
10.9291
10.9291
10.9291
10.929
10.929
10.929
10.929
10.929
10.929
10.929
10.9991
10.9991
10.9991
10.9991
10.999
10.999
10.999
10.999
10.999
10.9989
10.9989
10.9989
10.9989
10.9989
10.9988
10.9988
10.9988
10.9988
10.9988
10.9988
10.8318
10.8318
10.8318
10.8318
10.8317
10.8317
10.8317
10.8317
10.8317
10.8317
10.8317
10.8316
10.8316
10.8316
10.8316
10.8316
10.8315
10.8315
10.8315
10.8315
10.8712
10.8712
10.8712
10.8711
10.8711
10.8711
10.8711
10.8711
10.8711
10.8711
10.871
10.871
10.871
10.871
10.871
10.871
10.8709
10.8709
10.8709
10.8709
10.8311
10.8311
10.8311
10.8311
10.8311
10.8311
10.831
10.831
10.831
10.831
10.831
10.831
10.8309
10.8309
10.8309
10.8309
10.8309
10.8309
10.8308
10.8308
10.8495
10.8495
10.8495
10.8495
10.8495
10.8495
10.8495
10.8495
10.8495
10.8495
10.8495
10.8495
10.8495
10.8495
10.8495
10.8495
10.8495
10.8495
10.8495
10.8494
10.9225
10.9225
10.9225
10.9225
10.9225
10.9225
10.9225
10.9225
10.9224
10.9224
10.9224
10.9224
10.9224
10.9224
10.9223
10.9223
10.9223
10.9223
10.9223
10.9223
10.917
10.917
10.917
10.9171
10.9171
10.9171
10.9171
10.9171
10.9171
10.917
10.917
10.917
10.917
10.917
10.917
10.917
10.917
10.917
10.917
10.917
11.1557
11.1557
11.1557
11.1557
11.1557
11.1557
11.1557
11.1557
11.1557
11.1556
11.1556
11.1556
11.1556
11.1556
11.1556
11.1556
11.1556
11.1556
11.1556
11.1556
11.1073
11.1073
11.1073
11.1073
11.1073
11.1073
11.1073
11.1073
11.1073
11.1073
11.1073
11.1073
11.1073
11.1073
11.1073
11.1073
11.1073
11.1073
11.1073
11.1073
11.7195
11.7195
11.7195
11.7195
11.7195
11.7195
11.7195
11.7195
11.7195
11.7195
11.7195
11.7195
11.7195
11.7195
11.7195
11.7195
11.7195
11.7195
11.7195
11.7195
11.5949
11.5949
11.5949
11.5949
11.5949
11.5949
11.595
11.595
11.595
11.595
11.595
11.5951
11.5951
11.5951
11.5951
11.5951
11.5951
11.5951
11.5951
11.5951
13.4655
13.4655
13.4655
13.4655
13.4655
13.4655
13.4655
13.4655
13.4655
13.4656
13.4656
13.4656
13.4656
13.4656
13.4656
13.4656
13.4656
13.4656
13.4656
13.4656
13.0771
13.0771
13.0772
13.0772
13.0772
13.0772
13.0773
13.0773
13.0773
13.0774
13.0774
13.0775
13.0775
13.0776
13.0776
13.0777
13.0777
13.0777
13.0777
13.0778
18.6351
18.6351
18.6351
18.6351
18.6352
18.6352
18.6352
18.6353
18.6353
18.6354
18.6354
18.6355
18.6356
18.6356
18.6357
18.6357
18.6358
18.6358
18.6358
18.6358
36.8336
36.8336
36.8337
36.8337
36.8337
36.8337
36.8338
36.8338
36.8339
36.834
36.834
36.8341
36.8341
36.8342
36.8343
36.8343
36.8344
36.8344
36.8344
36.8344
33.8316
33.8316
33.8316
33.8316
33.8316
33.8317
33.8317
33.8317
33.8318
33.8318
33.8318
33.8319
33.8319
33.8319
33.8319
33.832
33.832
33.832
33.832
33.832
34.5671
34.5671
34.5671
34.5671
34.5671
34.567
34.567
34.567
34.567
34.567
34.5669
34.5669
34.5669
34.5669
34.5669
34.5669
34.5668
34.5668
34.5668
34.5668
33.0137
33.0137
33.0137
33.0137
33.0136
33.0136
33.0136
33.0136
33.0136
33.0136
33.0136
33.0136
33.0135
33.0135
33.0135
33.0135
33.0135
33.0135
33.0135
33.0134
33.3832
33.3832
33.3832
33.3832
33.3832
33.3831
33.3831
33.3831
33.383
33.383
33.3829
33.3829
33.3828
33.3828
33.3827
33.3827
33.3827
33.3827
33.3826
33.3826
32.5241
32.5241
32.5241
32.5241
32.5241
32.524
32.524
32.524
32.5239
32.5239
32.5239
32.5238
32.5238
32.5237
32.5237
32.5237
32.5236
32.5236
32.5236
32.5236
32.7306
32.7306
32.7306
32.7306
32.7305
32.7305
32.7305
32.7304
32.7304
32.7303
32.7303
32.7302
32.7302
32.7301
32.7301
32.73
32.73
32.7299
32.7299
32.7299
32.3179
32.3179
32.3179
32.3178
32.3178
32.3178
32.3178
32.3177
32.3177
32.3176
32.3176
32.3175
32.3175
32.3175
32.3174
32.3174
32.3173
32.3173
32.3173
32.3173
32.4323
32.4323
32.4323
32.4323
32.4323
32.4323
32.4322
32.4322
32.4321
32.4321
32.432
32.432
32.432
32.4319
32.4319
32.4318
32.4318
32.4318
32.4317
32.4317
32.341
32.341
32.341
32.341
32.3409
32.3409
32.3409
32.3409
32.3408
32.3408
32.3407
32.3407
32.3406
32.3406
32.3406
32.3405
32.3405
32.3405
32.3404
32.3404
32.3974
32.3974
32.3974
32.3973
32.3973
32.3973
32.3973
32.3973
32.3972
32.3972
32.3972
32.3971
32.3971
32.3971
32.397
32.397
32.397
32.397
32.3969
32.3969
32.6094
32.6094
32.6094
32.6094
32.6094
32.6093
32.6093
32.6093
32.6092
32.6092
32.6092
32.6091
32.6091
32.6091
32.609
32.609
32.609
32.6089
32.6089
32.6089
32.6001
32.6001
32.6001
32.6001
32.6001
32.6001
32.6
32.6
32.6
32.6
32.6
32.6
32.5999
32.5999
32.5999
32.5999
32.5998
32.5998
32.5998
32.5998
33.2105
33.2105
33.2105
33.2104
33.2104
33.2104
33.2104
33.2104
33.2104
33.2104
33.2103
33.2103
33.2103
33.2103
33.2102
33.2102
33.2102
33.2102
33.2102
33.2102
33.077
33.077
33.077
33.077
33.077
33.0771
33.0771
33.0771
33.0771
33.0771
33.0771
33.0771
33.0771
33.077
33.077
33.077
33.077
33.077
33.077
33.077
34.3014
34.3014
34.3014
34.3014
34.3014
34.3014
34.3014
34.3014
34.3014
34.3014
34.3014
34.3014
34.3014
34.3014
34.3014
34.3014
34.3014
34.3014
34.3014
34.3014
33.937
33.937
33.937
33.937
33.9371
33.9371
33.9371
33.9371
33.9372
33.9372
33.9372
33.9373
33.9373
33.9373
33.9373
33.9373
33.9374
33.9374
33.9374
33.9374
36.141
36.141
36.1411
36.1411
36.1411
36.1411
36.1411
36.1412
36.1412
36.1412
36.1413
36.1413
36.1413
36.1414
36.1414
36.1414
36.1415
36.1415
36.1415
36.1415
35.2619
35.2619
35.262
35.262
35.2621
35.2621
35.2622
35.2623
35.2623
35.2624
35.2625
35.2626
35.2627
35.2627
35.2628
35.2629
35.2629
35.263
35.263
35.263
39.6012
39.6012
39.6012
39.6012
39.6013
39.6014
39.6015
39.6016
39.6017
39.6018
39.6019
39.6021
39.6022
39.6023
39.6025
39.6026
39.6027
39.6028
39.6028
39.6029
60.6074
60.6074
60.6074
60.6075
60.6075
60.6076
60.6076
60.6077
60.6078
60.6078
60.6079
60.608
60.6081
60.6082
60.6082
60.6083
60.6084
60.6084
60.6085
60.6085
56.275
56.275
56.275
56.275
56.275
56.2751
56.2751
56.2751
56.2752
56.2752
56.2753
56.2753
56.2754
56.2754
56.2754
56.2755
56.2755
56.2755
56.2755
56.2756
57.2402
57.2402
57.2402
57.2402
57.2402
57.2402
57.2402
57.2402
57.2401
57.2401
57.2401
57.2401
57.2401
57.2401
57.24
57.24
57.24
57.24
57.24
57.24
54.8147
54.8147
54.8147
54.8147
54.8147
54.8147
54.8147
54.8147
54.8146
54.8146
54.8146
54.8146
54.8146
54.8145
54.8145
54.8145
54.8145
54.8144
54.8144
54.8144
55.344
55.344
55.344
55.3439
55.3439
55.3439
55.3438
55.3438
55.3437
55.3436
55.3436
55.3435
55.3435
55.3434
55.3434
55.3433
55.3433
55.3432
55.3432
55.3432
54.0284
54.0284
54.0284
54.0283
54.0283
54.0283
54.0282
54.0282
54.0281
54.0281
54.028
54.028
54.0279
54.0278
54.0278
54.0277
54.0277
54.0277
54.0276
54.0276
54.3388
54.3388
54.3387
54.3387
54.3387
54.3386
54.3386
54.3385
54.3384
54.3384
54.3383
54.3382
54.3382
54.3381
54.338
54.338
54.3379
54.3379
54.3378
54.3378
53.7191
53.7191
53.7191
53.719
53.719
53.719
53.7189
53.7189
53.7188
53.7187
53.7187
53.7186
53.7186
53.7185
53.7184
53.7184
53.7183
53.7183
53.7183
53.7182
53.8902
53.8902
53.8902
53.8901
53.8901
53.8901
53.89
53.89
53.8899
53.8898
53.8898
53.8897
53.8896
53.8896
53.8895
53.8895
53.8894
53.8894
53.8894
53.8893
53.7689
53.7689
53.7689
53.7689
53.7688
53.7688
53.7688
53.7687
53.7687
53.7686
53.7685
53.7685
53.7684
53.7684
53.7683
53.7683
53.7682
53.7682
53.7681
53.7681
53.8605
53.8604
53.8604
53.8604
53.8604
53.8604
53.8603
53.8603
53.8603
53.8602
53.8602
53.8601
53.8601
53.86
53.86
53.8599
53.8599
53.8598
53.8598
53.8598
54.2043
54.2043
54.2043
54.2043
54.2043
54.2043
54.2042
54.2042
54.2042
54.2041
54.2041
54.204
54.204
54.2039
54.2039
54.2038
54.2038
54.2037
54.2037
54.2037
54.2117
54.2117
54.2117
54.2117
54.2117
54.2117
54.2117
54.2117
54.2117
54.2116
54.2116
54.2116
54.2115
54.2115
54.2115
54.2114
54.2114
54.2114
54.2114
54.2114
55.1588
55.1588
55.1588
55.1588
55.1588
55.1587
55.1587
55.1587
55.1587
55.1587
55.1586
55.1586
55.1586
55.1586
55.1585
55.1585
55.1585
55.1585
55.1584
55.1584
54.9975
54.9975
54.9975
54.9975
54.9975
54.9975
54.9975
54.9975
54.9976
54.9976
54.9976
54.9976
54.9976
54.9976
54.9976
54.9975
54.9975
54.9975
54.9975
54.9975
56.8936
56.8936
56.8936
56.8936
56.8937
56.8937
56.8937
56.8937
56.8937
56.8937
56.8937
56.8938
56.8938
56.8938
56.8938
56.8938
56.8938
56.8938
56.8938
56.8938
56.3991
56.3991
56.3991
56.3991
56.3992
56.3992
56.3993
56.3993
56.3994
56.3994
56.3995
56.3995
56.3996
56.3996
56.3997
56.3997
56.3997
56.3997
56.3997
56.3997
59.9598
59.9598
59.9598
59.9599
59.9599
59.96
59.96
59.9601
59.9602
59.9603
59.9603
59.9604
59.9605
59.9606
59.9606
59.9607
59.9607
59.9608
59.9608
59.9608
58.7831
58.7832
58.7832
58.7833
58.7833
58.7834
58.7835
58.7836
58.7838
58.7839
58.784
58.7842
58.7843
58.7844
58.7845
58.7846
58.7847
58.7848
58.7848
58.7849
65.2146
65.2147
65.2147
65.2148
65.2149
65.215
65.2152
65.2153
65.2155
65.2157
65.2159
65.2161
65.2163
65.2165
65.2167
65.2168
65.217
65.2171
65.2172
65.2172
82.2103
82.2103
82.2103
82.2104
82.2104
82.2105
82.2105
82.2106
82.2107
82.2108
82.2108
82.2109
82.211
82.2111
82.2112
82.2112
82.2113
82.2113
82.2114
82.2114
77.8929
77.8929
77.893
77.893
77.893
77.893
77.8931
77.8931
77.8932
77.8932
77.8933
77.8933
77.8933
77.8934
77.8934
77.8935
77.8935
77.8935
77.8935
77.8935
78.9734
78.9734
78.9734
78.9734
78.9734
78.9734
78.9734
78.9733
78.9733
78.9733
78.9733
78.9733
78.9732
78.9732
78.9732
78.9732
78.9732
78.9732
78.9731
78.9731
76.26
76.26
76.2599
76.2599
76.2599
76.2599
76.2599
76.2599
76.2598
76.2598
76.2598
76.2598
76.2597
76.2597
76.2597
76.2597
76.2596
76.2596
76.2596
76.2596
76.9224
76.9224
76.9224
76.9224
76.9223
76.9223
76.9222
76.9222
76.9221
76.922
76.922
76.9219
76.9218
76.9218
76.9217
76.9217
76.9216
76.9216
76.9215
76.9215
75.3212
75.3212
75.3212
75.3212
75.3211
75.3211
75.321
75.321
75.3209
75.3209
75.3208
75.3207
75.3207
75.3206
75.3205
75.3205
75.3204
75.3204
75.3204
75.3203
75.7167
75.7167
75.7166
75.7166
75.7166
75.7165
75.7164
75.7164
75.7163
75.7162
75.7161
75.7161
75.716
75.7159
75.7158
75.7158
75.7157
75.7157
75.7156
75.7156
74.9561
74.9561
74.9561
74.956
74.956
74.956
74.9559
74.9558
74.9558
74.9557
74.9556
74.9555
74.9555
74.9554
74.9553
74.9553
74.9552
74.9552
74.9551
74.9551
75.1721
75.1721
75.1721
75.172
75.172
75.1719
75.1719
75.1718
75.1717
75.1717
75.1716
75.1715
75.1714
75.1714
75.1713
75.1712
75.1712
75.1711
75.1711
75.1711
75.041
75.041
75.041
75.041
75.0409
75.0409
75.0409
75.0408
75.0407
75.0407
75.0406
75.0405
75.0405
75.0404
75.0403
75.0403
75.0402
75.0402
75.0401
75.0401
75.1602
75.1602
75.1602
75.1601
75.1601
75.1601
75.16
75.16
75.1599
75.1599
75.1598
75.1597
75.1597
75.1596
75.1596
75.1595
75.1595
75.1594
75.1594
75.1594
75.6272
75.6272
75.6272
75.6272
75.6271
75.6271
75.6271
75.627
75.627
75.6269
75.6269
75.6268
75.6268
75.6267
75.6266
75.6266
75.6265
75.6265
75.6265
75.6265
75.6411
75.6411
75.6411
75.6411
75.6411
75.6411
75.641
75.641
75.641
75.6409
75.6409
75.6409
75.6408
75.6408
75.6407
75.6407
75.6407
75.6406
75.6406
75.6406
76.8565
76.8565
76.8565
76.8565
76.8565
76.8565
76.8565
76.8564
76.8564
76.8564
76.8563
76.8563
76.8563
76.8562
76.8562
76.8562
76.8561
76.8561
76.8561
76.8561
76.6614
76.6614
76.6614
76.6614
76.6614
76.6614
76.6614
76.6614
76.6614
76.6614
76.6614
76.6614
76.6614
76.6614
76.6614
76.6614
76.6614
76.6614
76.6614
76.6614
78.9505
78.9505
78.9505
78.9505
78.9505
78.9505
78.9505
78.9505
78.9505
78.9506
78.9506
78.9506
78.9506
78.9506
78.9506
78.9506
78.9506
78.9506
78.9506
78.9506
78.3652
78.3653
78.3653
78.3653
78.3653
78.3654
78.3654
78.3655
78.3656
78.3656
78.3657
78.3657
78.3658
78.3658
78.3659
78.3659
78.3659
78.3659
78.366
78.366
82.2279
82.2279
82.228
82.228
82.228
82.2281
82.2282
82.2282
82.2283
82.2284
82.2285
82.2286
82.2287
82.2287
82.2288
82.2289
82.2289
82.229
82.229
82.229
80.9603
80.9603
80.9604
80.9604
80.9605
80.9606
80.9607
80.9609
80.961
80.9612
80.9613
80.9615
80.9616
80.9618
80.9619
80.962
80.9621
80.9622
80.9622
80.9623
87.1577
87.1577
87.1578
87.1578
87.158
87.1581
87.1582
87.1584
87.1586
87.1588
87.159
87.1592
87.1595
87.1597
87.1599
87.16
87.1602
87.1603
87.1604
87.1604
103.936
103.936
103.936
103.936
103.936
103.937
103.937
103.937
103.937
103.937
103.937
103.937
103.937
103.937
103.937
103.937
103.937
103.937
103.937
103.937
99.3432
99.3432
99.3433
99.3433
99.3433
99.3433
99.3434
99.3434
99.3434
99.3435
99.3435
99.3436
99.3436
99.3437
99.3437
99.3437
99.3438
99.3438
99.3438
99.3438
100.512
100.512
100.512
100.512
100.512
100.512
100.512
100.512
100.512
100.512
100.512
100.512
100.512
100.512
100.512
100.512
100.512
100.512
100.512
100.512
97.484
97.484
97.484
97.484
97.484
97.4839
97.4839
97.4839
97.4839
97.4838
97.4838
97.4838
97.4837
97.4837
97.4837
97.4836
97.4836
97.4836
97.4836
97.4836
98.2376
98.2376
98.2376
98.2376
98.2375
98.2375
98.2374
98.2374
98.2373
98.2372
98.2371
98.2371
98.237
98.2369
98.2369
98.2368
98.2368
98.2367
98.2367
98.2367
96.4202
96.4202
96.4202
96.4202
96.4201
96.4201
96.42
96.42
96.4199
96.4198
96.4197
96.4197
96.4196
96.4195
96.4195
96.4194
96.4194
96.4193
96.4193
96.4193
96.8684
96.8683
96.8683
96.8683
96.8682
96.8682
96.8681
96.868
96.8679
96.8679
96.8678
96.8677
96.8676
96.8675
96.8675
96.8674
96.8673
96.8673
96.8672
96.8672
96.0128
96.0127
96.0127
96.0127
96.0126
96.0126
96.0125
96.0125
96.0124
96.0123
96.0122
96.0121
96.0121
96.012
96.0119
96.0118
96.0118
96.0117
96.0117
96.0117
96.26
96.26
96.26
96.26
96.2599
96.2599
96.2598
96.2597
96.2596
96.2596
96.2595
96.2594
96.2593
96.2592
96.2592
96.2591
96.259
96.259
96.259
96.2589
96.1353
96.1353
96.1352
96.1352
96.1352
96.1351
96.1351
96.135
96.1349
96.1349
96.1348
96.1347
96.1346
96.1346
96.1345
96.1344
96.1344
96.1343
96.1343
96.1343
96.2737
96.2737
96.2737
96.2737
96.2736
96.2736
96.2735
96.2735
96.2734
96.2733
96.2733
96.2732
96.2731
96.2731
96.273
96.2729
96.2729
96.2729
96.2728
96.2728
96.8555
96.8555
96.8555
96.8554
96.8554
96.8554
96.8553
96.8553
96.8552
96.8552
96.8551
96.855
96.855
96.8549
96.8548
96.8548
96.8547
96.8547
96.8547
96.8547
96.8706
96.8706
96.8706
96.8706
96.8706
96.8705
96.8705
96.8705
96.8704
96.8704
96.8704
96.8703
96.8703
96.8702
96.8702
96.8702
96.8701
96.8701
96.8701
96.8701
98.3174
98.3174
98.3174
98.3174
98.3174
98.3173
98.3173
98.3173
98.3173
98.3172
98.3172
98.3172
98.3171
98.3171
98.3171
98.317
98.317
98.317
98.317
98.3169
98.092
98.092
98.092
98.092
98.092
98.092
98.092
98.092
98.092
98.092
98.092
98.092
98.092
98.092
98.092
98.092
98.092
98.092
98.092
98.092
100.73
100.73
100.73
100.73
100.73
100.73
100.73
100.73
100.73
100.73
100.731
100.731
100.731
100.731
100.731
100.731
100.731
100.731
100.731
100.731
100.07
100.07
100.07
100.07
100.07
100.07
100.071
100.071
100.071
100.071
100.071
100.071
100.071
100.071
100.071
100.071
100.071
100.071
100.071
100.071
104.394
104.394
104.394
104.394
104.394
104.394
104.394
104.394
104.394
104.394
104.394
104.394
104.395
104.395
104.395
104.395
104.395
104.395
104.395
104.395
103.02
103.02
103.02
103.02
103.021
103.021
103.021
103.021
103.021
103.021
103.021
103.022
103.022
103.022
103.022
103.022
103.022
103.022
103.022
103.022
109.611
109.611
109.611
109.611
109.611
109.612
109.612
109.612
109.612
109.612
109.613
109.613
109.613
109.613
109.613
109.614
109.614
109.614
109.614
109.614
125.026
125.026
125.026
125.026
125.026
125.026
125.026
125.026
125.027
125.027
125.027
125.027
125.027
125.027
125.027
125.027
125.027
125.027
125.027
125.027
120.376
120.376
120.376
120.376
120.376
120.376
120.376
120.376
120.376
120.376
120.376
120.376
120.376
120.376
120.376
120.376
120.376
120.376
120.377
120.377
121.606
121.606
121.606
121.606
121.606
121.606
121.606
121.606
121.606
121.605
121.605
121.605
121.605
121.605
121.605
121.605
121.605
121.605
121.605
121.605
118.421
118.421
118.42
118.42
118.42
118.42
118.42
118.42
118.42
118.42
118.42
118.42
118.42
118.42
118.42
118.42
118.42
118.42
118.42
118.42
119.232
119.232
119.232
119.232
119.232
119.232
119.232
119.232
119.231
119.231
119.231
119.231
119.231
119.231
119.231
119.231
119.231
119.231
119.231
119.231
117.286
117.286
117.286
117.286
117.286
117.286
117.286
117.286
117.285
117.285
117.285
117.285
117.285
117.285
117.285
117.285
117.285
117.285
117.285
117.285
117.768
117.768
117.768
117.768
117.768
117.768
117.767
117.767
117.767
117.767
117.767
117.767
117.767
117.767
117.767
117.767
117.767
117.767
117.767
117.767
116.857
116.857
116.857
116.857
116.856
116.856
116.856
116.856
116.856
116.856
116.856
116.856
116.856
116.856
116.856
116.856
116.856
116.856
116.856
116.856
117.126
117.126
117.126
117.126
117.125
117.125
117.125
117.125
117.125
117.125
117.125
117.125
117.125
117.125
117.125
117.125
117.125
117.125
117.125
117.124
117.019
117.019
117.019
117.019
117.019
117.019
117.019
117.019
117.019
117.018
117.018
117.018
117.018
117.018
117.018
117.018
117.018
117.018
117.018
117.018
117.169
117.169
117.169
117.169
117.169
117.169
117.169
117.169
117.169
117.168
117.168
117.168
117.168
117.168
117.168
117.168
117.168
117.168
117.168
117.168
117.855
117.855
117.855
117.855
117.855
117.855
117.855
117.855
117.855
117.854
117.854
117.854
117.854
117.854
117.854
117.854
117.854
117.854
117.854
117.854
117.863
117.863
117.863
117.863
117.863
117.863
117.862
117.862
117.862
117.862
117.862
117.862
117.862
117.862
117.862
117.862
117.862
117.862
117.862
117.862
119.498
119.498
119.498
119.498
119.498
119.498
119.498
119.498
119.498
119.498
119.498
119.498
119.498
119.498
119.498
119.498
119.498
119.498
119.498
119.498
119.238
119.238
119.238
119.238
119.238
119.238
119.238
119.238
119.238
119.238
119.238
119.238
119.238
119.238
119.238
119.238
119.238
119.238
119.238
119.238
122.12
122.12
122.12
122.12
122.12
122.12
122.12
122.12
122.12
122.12
122.12
122.12
122.12
122.12
122.12
122.12
122.12
122.12
122.12
122.12
121.4
121.4
121.4
121.4
121.4
121.4
121.4
121.4
121.4
121.4
121.4
121.4
121.4
121.401
121.401
121.401
121.401
121.401
121.401
121.401
125.928
125.928
125.928
125.928
125.928
125.928
125.928
125.928
125.928
125.928
125.929
125.929
125.929
125.929
125.929
125.929
125.929
125.929
125.929
125.929
124.497
124.497
124.497
124.497
124.497
124.497
124.497
124.498
124.498
124.498
124.498
124.498
124.498
124.499
124.499
124.499
124.499
124.499
124.499
124.499
131.082
131.082
131.082
131.082
131.083
131.083
131.083
131.083
131.083
131.084
131.084
131.084
131.084
131.084
131.085
131.085
131.085
131.085
131.085
131.085
145.828
145.828
145.828
145.828
145.828
145.828
145.828
145.828
145.828
145.828
145.828
145.829
145.829
145.829
145.829
145.829
145.829
145.829
145.829
145.829
141.121
141.121
141.121
141.121
141.121
141.121
141.121
141.121
141.121
141.121
141.121
141.121
141.121
141.121
141.121
141.121
141.121
141.121
141.121
141.121
142.38
142.38
142.38
142.38
142.38
142.38
142.38
142.38
142.38
142.38
142.38
142.38
142.38
142.38
142.38
142.38
142.38
142.38
142.38
142.38
139.095
139.094
139.094
139.094
139.094
139.094
139.094
139.094
139.094
139.094
139.094
139.094
139.094
139.094
139.094
139.094
139.094
139.094
139.094
139.094
139.934
139.934
139.934
139.934
139.934
139.934
139.934
139.934
139.934
139.934
139.934
139.934
139.933
139.933
139.933
139.933
139.933
139.933
139.933
139.933
137.91
137.91
137.91
137.91
137.91
137.909
137.909
137.909
137.909
137.909
137.909
137.909
137.909
137.909
137.909
137.909
137.909
137.909
137.909
137.909
138.411
138.411
138.411
138.411
138.411
138.411
138.411
138.411
138.411
138.411
138.41
138.41
138.41
138.41
138.41
138.41
138.41
138.41
138.41
138.41
137.472
137.472
137.472
137.472
137.472
137.472
137.472
137.472
137.472
137.472
137.472
137.472
137.471
137.471
137.471
137.471
137.471
137.471
137.471
137.471
137.755
137.755
137.755
137.755
137.755
137.755
137.755
137.755
137.755
137.755
137.755
137.755
137.755
137.754
137.754
137.754
137.754
137.754
137.754
137.754
137.674
137.674
137.674
137.674
137.674
137.674
137.674
137.674
137.674
137.674
137.674
137.674
137.674
137.674
137.674
137.674
137.673
137.673
137.673
137.673
137.83
137.83
137.83
137.83
137.83
137.83
137.83
137.83
137.83
137.83
137.83
137.829
137.829
137.829
137.829
137.829
137.829
137.829
137.829
137.829
138.61
138.61
138.61
138.61
138.61
138.61
138.61
138.61
138.61
138.61
138.61
138.61
138.609
138.609
138.609
138.609
138.609
138.609
138.609
138.609
138.604
138.604
138.604
138.604
138.604
138.604
138.604
138.604
138.604
138.604
138.604
138.604
138.604
138.604
138.604
138.604
138.604
138.604
138.604
138.604
140.399
140.399
140.399
140.399
140.399
140.399
140.399
140.399
140.399
140.399
140.399
140.399
140.399
140.399
140.399
140.399
140.398
140.398
140.398
140.398
140.102
140.102
140.102
140.102
140.102
140.102
140.102
140.102
140.102
140.102
140.102
140.102
140.102
140.102
140.102
140.102
140.102
140.102
140.102
140.102
143.18
143.18
143.18
143.18
143.18
143.18
143.18
143.18
143.18
143.18
143.18
143.18
143.18
143.181
143.181
143.181
143.181
143.181
143.181
143.181
142.404
142.404
142.404
142.404
142.404
142.404
142.404
142.404
142.404
142.404
142.404
142.404
142.404
142.404
142.404
142.405
142.405
142.405
142.405
142.405
147.108
147.108
147.108
147.108
147.108
147.108
147.108
147.108
147.108
147.108
147.108
147.109
147.109
147.109
147.109
147.109
147.109
147.109
147.109
147.109
145.624
145.624
145.624
145.624
145.625
145.625
145.625
145.625
145.625
145.625
145.625
145.626
145.626
145.626
145.626
145.626
145.626
145.626
145.626
145.626
152.27
152.27
152.27
152.27
152.27
152.27
152.27
152.27
152.271
152.271
152.271
152.271
152.271
152.272
152.272
152.272
152.272
152.272
152.272
152.272
166.285
166.285
166.285
166.285
166.285
166.285
166.285
166.285
166.285
166.285
166.285
166.285
166.285
166.285
166.285
166.285
166.285
166.285
166.285
166.285
161.556
161.556
161.556
161.556
161.556
161.556
161.556
161.556
161.556
161.556
161.556
161.556
161.556
161.556
161.556
161.556
161.556
161.556
161.556
161.556
162.831
162.831
162.831
162.831
162.831
162.831
162.831
162.831
162.831
162.831
162.831
162.831
162.831
162.831
162.831
162.831
162.831
162.831
162.831
162.831
159.493
159.493
159.493
159.493
159.493
159.493
159.493
159.493
159.493
159.493
159.493
159.493
159.493
159.493
159.493
159.493
159.493
159.493
159.493
159.493
160.348
160.348
160.348
160.348
160.348
160.348
160.348
160.348
160.348
160.348
160.348
160.347
160.347
160.347
160.347
160.347
160.347
160.347
160.347
160.347
158.28
158.28
158.28
158.28
158.28
158.28
158.28
158.28
158.28
158.28
158.28
158.28
158.28
158.28
158.28
158.28
158.279
158.279
158.279
158.279
158.794
158.794
158.794
158.794
158.794
158.794
158.794
158.794
158.794
158.793
158.793
158.793
158.793
158.793
158.793
158.793
158.793
158.793
158.793
158.793
157.847
157.847
157.847
157.847
157.847
157.847
157.847
157.847
157.846
157.846
157.846
157.846
157.846
157.846
157.846
157.846
157.846
157.846
157.846
157.846
158.139
158.139
158.139
158.139
158.139
158.139
158.139
158.139
158.139
158.139
158.139
158.139
158.138
158.138
158.138
158.138
158.138
158.138
158.138
158.138
158.089
158.089
158.089
158.089
158.089
158.089
158.088
158.088
158.088
158.088
158.088
158.088
158.088
158.088
158.088
158.088
158.088
158.088
158.088
158.088
158.245
158.245
158.245
158.245
158.245
158.245
158.245
158.245
158.245
158.245
158.245
158.245
158.245
158.245
158.245
158.244
158.244
158.244
158.244
158.244
159.11
159.11
159.11
159.11
159.11
159.11
159.11
159.11
159.11
159.11
159.109
159.109
159.109
159.109
159.109
159.109
159.109
159.109
159.109
159.109
159.086
159.086
159.086
159.086
159.086
159.086
159.086
159.086
159.086
159.086
159.086
159.086
159.086
159.086
159.086
159.086
159.086
159.086
159.086
159.086
161.013
161.013
161.013
161.013
161.013
161.013
161.013
161.013
161.013
161.013
161.013
161.013
161.013
161.013
161.013
161.013
161.013
161.013
161.013
161.013
160.678
160.678
160.678
160.678
160.678
160.678
160.678
160.678
160.678
160.678
160.677
160.677
160.677
160.677
160.677
160.678
160.678
160.678
160.678
160.678
163.908
163.908
163.908
163.908
163.908
163.908
163.908
163.908
163.908
163.908
163.908
163.908
163.908
163.908
163.908
163.908
163.908
163.908
163.908
163.908
163.081
163.081
163.081
163.081
163.081
163.081
163.081
163.081
163.081
163.081
163.081
163.081
163.081
163.081
163.081
163.081
163.081
163.081
163.081
163.081
167.9
167.9
167.9
167.9
167.9
167.9
167.9
167.9
167.9
167.9
167.9
167.9
167.9
167.9
167.9
167.9
167.9
167.9
167.901
167.901
166.375
166.375
166.375
166.375
166.375
166.375
166.375
166.375
166.376
166.376
166.376
166.376
166.376
166.376
166.376
166.376
166.376
166.377
166.377
166.377
173.027
173.027
173.027
173.027
173.027
173.027
173.028
173.028
173.028
173.028
173.028
173.028
173.029
173.029
173.029
173.029
173.029
173.029
173.029
173.029
186.447
186.447
186.447
186.447
186.447
186.447
186.447
186.447
186.447
186.447
186.447
186.447
186.447
186.447
186.447
186.447
186.447
186.447
186.447
186.447
181.704
181.704
181.704
181.704
181.704
181.704
181.704
181.704
181.704
181.704
181.704
181.704
181.704
181.704
181.704
181.704
181.704
181.704
181.704
181.704
182.987
182.987
182.987
182.987
182.987
182.987
182.987
182.987
182.987
182.987
182.987
182.987
182.987
182.987
182.987
182.987
182.987
182.987
182.987
182.987
179.621
179.621
179.621
179.621
179.621
179.621
179.62
179.62
179.62
179.62
179.62
179.62
179.62
179.62
179.62
179.62
179.62
179.62
179.62
179.62
180.484
180.484
180.484
180.484
180.484
180.484
180.484
180.484
180.484
180.484
180.484
180.484
180.483
180.483
180.483
180.483
180.483
180.483
180.483
180.483
178.395
178.395
178.395
178.395
178.395
178.395
178.394
178.394
178.394
178.394
178.394
178.394
178.394
178.394
178.394
178.394
178.394
178.394
178.394
178.394
178.916
178.916
178.916
178.916
178.916
178.916
178.916
178.916
178.916
178.916
178.916
178.916
178.916
178.916
178.916
178.916
178.916
178.916
178.916
178.915
177.974
177.974
177.974
177.974
177.974
177.974
177.974
177.974
177.974
177.974
177.973
177.973
177.973
177.973
177.973
177.973
177.973
177.973
177.973
177.973
178.272
178.272
178.272
178.272
178.272
178.272
178.272
178.272
178.272
178.272
178.272
178.272
178.272
178.272
178.272
178.272
178.272
178.272
178.271
178.271
178.255
178.255
178.255
178.255
178.255
178.255
178.255
178.255
178.255
178.254
178.254
178.254
178.254
178.254
178.254
178.254
178.254
178.254
178.254
178.254
178.409
178.409
178.409
178.409
178.409
178.409
178.409
178.409
178.408
178.408
178.408
178.408
178.408
178.408
178.408
178.408
178.408
178.408
178.408
178.408
179.35
179.35
179.35
179.35
179.35
179.35
179.35
179.35
179.349
179.349
179.349
179.349
179.349
179.349
179.349
179.349
179.349
179.349
179.349
179.349
179.305
179.305
179.305
179.305
179.305
179.305
179.305
179.305
179.305
179.305
179.305
179.305
179.305
179.305
179.305
179.305
179.305
179.305
179.305
179.305
181.345
181.345
181.345
181.345
181.345
181.345
181.345
181.345
181.345
181.345
181.344
181.344
181.344
181.344
181.344
181.344
181.344
181.344
181.344
181.344
180.97
180.97
180.97
180.97
180.97
180.97
180.97
180.97
180.97
180.97
180.97
180.97
180.97
180.97
180.97
180.97
180.97
180.97
180.97
180.97
184.324
184.324
184.324
184.324
184.324
184.324
184.324
184.324
184.324
184.324
184.324
184.324
184.324
184.324
184.324
184.324
184.324
184.324
184.324
184.324
183.449
183.449
183.449
183.449
183.449
183.449
183.449
183.449
183.449
183.449
183.449
183.449
183.449
183.449
183.449
183.449
183.449
183.449
183.449
183.45
188.359
188.359
188.359
188.359
188.359
188.359
188.359
188.359
188.359
188.359
188.359
188.359
188.359
188.359
188.359
188.359
188.359
188.359
188.359
188.359
186.798
186.798
186.798
186.798
186.798
186.798
186.798
186.798
186.798
186.798
186.798
186.798
186.799
186.799
186.799
186.799
186.799
186.799
186.799
186.799
193.459
193.459
193.459
193.459
193.459
193.46
193.46
193.46
193.46
193.46
193.46
193.46
193.46
193.461
193.461
193.461
193.461
193.461
193.461
193.461
206.322
206.322
206.322
206.322
206.322
206.322
206.322
206.322
206.322
206.322
206.322
206.322
206.322
206.322
206.322
206.322
206.322
206.322
206.322
206.322
201.571
201.571
201.571
201.571
201.571
201.571
201.571
201.571
201.571
201.571
201.571
201.571
201.571
201.571
201.571
201.571
201.571
201.571
201.571
201.571
202.861
202.861
202.861
202.861
202.861
202.861
202.861
202.861
202.861
202.861
202.861
202.861
202.86
202.86
202.86
202.86
202.86
202.86
202.86
202.86
199.479
199.479
199.479
199.479
199.479
199.479
199.479
199.479
199.479
199.479
199.479
199.479
199.479
199.479
199.479
199.479
199.479
199.479
199.479
199.479
200.349
200.349
200.349
200.349
200.349
200.349
200.349
200.349
200.349
200.349
200.349
200.349
200.349
200.349
200.348
200.348
200.348
200.348
200.348
200.348
198.251
198.251
198.251
198.251
198.251