/*--------------------------------*- C++ -*----------------------------------*\
| =========                 |                                                 |
| \\      /  F ield         | OpenFOAM: The Open Source CFD Toolbox           |
|  \\    /   O peration     | Version:  2212                                  |
|   \\  /    A nd           | Website:  www.openfoam.com                      |
|    \\/     M anipulation  |                                                 |
\*---------------------------------------------------------------------------*/
FoamFile
{
    version     2.0;
    format      ascii;
    arch        "LSB;label=32;scalar=64";
    class       volVectorField;
    location    "0.0255";
    object      U;
}
// * * * * * * * * * * * * * * * * * * * * * * * * * * * * * * * * * * * * * //

dimensions      [0 1 -1 0 0 0 0];

internalField   nonuniform List<vector> 
7220
(
(59.3042 629.781 -9.54408e-17)
(72.804 96.553 1.02364e-16)
(70.62 94.2316 5.11824e-17)
(65.4843 94.0864 6.37416e-17)
(70.1187 99.8733 -1.01131e-16)
(67.7911 97.0196 -2.7628e-20)
(-70.2306 94.5117 0)
(-69.5262 99.9639 1.03253e-16)
(-65.0526 94.1463 0)
(-67.2857 97.0926 0)
(78.8715 504.396 -1.71735e-18)
(-65.9472 -21.1874 -8.61684e-16)
(61.6318 587.147 4.17884e-17)
(-165.8 903.708 4.00099e-16)
(215.256 752.612 3.85007e-16)
(-74.8245 -28.0452 4.18227e-16)
(-77.2443 906.041 0)
(0.420555 871.881 -1.15707e-15)
(-62.1525 955.292 1.30654e-16)
(60.5564 802.233 -4.58849e-16)
(3.395 941.821 1.48624e-16)
(-153.325 343.355 1.39858e-15)
(21.0969 86.305 7.53616e-16)
(164.952 339.699 7.82417e-16)
(-112.608 90.4487 7.37356e-16)
(-155.646 118.062 -1.5195e-15)
(-50.7809 -55.3061 3.99855e-16)
(-117.015 853.685 3.99879e-16)
(4.22598 939.96 -1.43882e-16)
(53.5781 762.679 2.58279e-16)
(105.926 122.427 4.54347e-16)
(73.1506 683.145 -8.50001e-17)
(73.6033 133.369 1.68953e-15)
(42.4787 800.773 -1.2891e-16)
(116.859 64.6455 -7.54196e-16)
(-14.8037 644.321 -7.90447e-16)
(72.8002 86.5921 2.54489e-17)
(78.6034 469.903 0)
(74.8531 501.998 -2.06787e-21)
(-1.0462 594.7 -2.97964e-21)
(-1.04606 595.335 -1.19531e-20)
(1.26367 595.335 -7.63513e-19)
(1.23461 594.702 6.72035e-19)
(5.64098 628.43 -1.94881e-16)
(6.2261 633.244 -7.66822e-16)
(1.7743 635.795 -1.38934e-16)
(1.64042 632.724 2.68573e-17)
(1.82894 629.775 -2.6939e-16)
(-1.04643 596.031 1.51355e-18)
(-1.0474 596.791 -1.52376e-18)
(1.32849 596.79 -1.4396e-18)
(1.29495 596.031 1.5373e-18)
(-1.04895 597.619 1.54899e-18)
(-1.05108 598.518 -4.64505e-18)
(1.4035 598.515 1.5929e-18)
(1.3647 597.617 -1.64243e-18)
(-1.05403 599.491 -1.12693e-20)
(-1.0578 600.543 6.22489e-18)
(1.49014 600.538 3.12449e-18)
(1.44529 599.487 -1.5546e-18)
(-1.06276 601.679 -3.10956e-18)
(-1.06904 602.902 3.1346e-18)
(1.58981 602.894 -1.5754e-18)
(1.53824 601.672 -3.1211e-18)
(-1.07679 604.219 -3.13317e-18)
(-1.0862 605.635 0)
(1.70451 605.624 3.14172e-18)
(1.64513 604.209 -1.08038e-20)
(-1.09753 607.157 0)
(-1.11121 608.792 -2.96694e-19)
(1.83713 608.778 9.88752e-20)
(1.76836 607.145 4.931e-20)
(-1.12785 610.546 6.75493e-18)
(-1.1486 612.425 8.15988e-19)
(1.98879 612.412 -5.95728e-18)
(1.91058 610.532 5.9601e-18)
(-1.17479 614.437 1.96868e-20)
(-1.21506 616.585 -3.20791e-17)
(2.15174 616.59 9.6205e-18)
(2.07034 614.428 1.5954e-18)
(-1.28074 618.873 2.56849e-17)
(-1.38424 621.297 -7.73711e-17)
(2.26325 621.388 2.58116e-17)
(2.22116 618.905 1.86933e-20)
(2.08833 626.866 6.86823e-20)
(2.22989 624.05 -2.57903e-17)
(-1.55497 623.849 2.59466e-17)
(-1.80576 626.527 5.90064e-17)
(-2.09444 629.288 9.92569e-17)
(6.02053 625.058 1.03275e-16)
(-1.0469 594.125 0)
(1.20775 594.127 9.52423e-20)
(3.56737 593.492 -2.39012e-20)
(3.50959 592.866 2.3831e-20)
(6.68651 636.565 -5.18862e-17)
(2.04492 639.065 -2.21429e-19)
(-2.35511 632.246 5.36265e-17)
(-2.49971 635.488 1.07066e-16)
(-5.28644 621.496 -2.59842e-17)
(-4.7628 616.686 1.60896e-17)
(-4.99955 619.034 -3.22483e-18)
(-4.40949 612.362 0)
(-4.56818 614.464 0)
(-4.15682 608.531 0)
(-4.27488 610.384 -1.59195e-18)
(-3.95522 605.186 0)
(-4.05067 606.801 1.97818e-19)
(-3.79133 602.282 -3.14382e-18)
(-3.86914 603.682 3.1418e-18)
(-3.6573 599.77 -1.56993e-18)
(-3.72097 600.98 0)
(-3.54759 597.606 -3.15153e-18)
(-3.59969 598.647 3.11235e-18)
(-3.45755 595.752 -1.56717e-18)
(-3.50035 596.642 1.55016e-18)
(-3.38356 594.179 2.39761e-20)
(-3.41874 594.933 1.57755e-18)
(-3.32284 592.861 0)
(-3.35156 593.49 1.19531e-20)
(3.6977 594.93 2.44791e-25)
(3.62994 594.18 0)
(3.85032 596.634 -4.83509e-20)
(3.77102 595.747 9.64302e-20)
(4.02914 598.631 -1.21562e-20)
(3.93619 597.593 0)
(4.23836 600.955 3.05608e-21)
(4.12962 599.75 0)
(4.48323 603.648 -1.57069e-18)
(4.35592 602.253 1.58406e-18)
(4.7701 606.759 -3.15811e-18)
(4.62105 605.148 3.11123e-18)
(5.10581 610.343 3.97604e-19)
(4.93158 608.488 -1.23919e-20)
(5.4891 614.475 3.19814e-18)
(5.29265 612.334 -1.59476e-18)
(5.86981 619.292 5.14201e-17)
(5.68692 616.785 -1.28266e-17)
(6.00281 622.041 5.15079e-17)
(-5.63991 624.066 2.40571e-22)
(-3.29727 592.291 0)
(3.45671 592.297 0)
(9.86886 624.818 -2.40907e-16)
(9.80477 620.998 2.54589e-17)
(7.09812 640.139 0)
(-2.57342 638.937 2.25396e-19)
(-6.03286 626.758 -2.64038e-17)
(-6.43809 629.668 2.64972e-17)
(-9.9302 622.083 -3.35001e-20)
(10.2463 628.413 0)
(-6.82151 632.857 2.65687e-17)
(-10.4952 624.897 2.63312e-17)
(-8.9421 617.004 1.94531e-17)
(-9.40862 619.474 -3.92123e-17)
(-8.17774 612.382 0)
(-8.53476 614.638 -6.47563e-18)
(-7.59984 608.212 -3.19367e-18)
(-7.86692 610.246 6.41738e-18)
(-7.14854 604.493 7.93316e-19)
(-7.36203 606.293 0)
(-6.78178 601.236 1.58039e-18)
(-6.95609 602.809 -7.88638e-19)
(-6.47954 598.403 0)
(-6.62349 599.769 -9.83349e-20)
(-6.22922 595.948 9.14223e-21)
(-6.34852 597.131 0)
(-6.02139 593.832 -7.74283e-19)
(-6.12054 594.85 -2.43108e-20)
(-5.84873 592.018 1.51568e-18)
(-5.93117 592.889 7.74906e-19)
(-5.70503 590.478 1.48312e-18)
(-5.77356 591.215 -1.58926e-18)
(-5.58576 589.186 6.08877e-18)
(-5.64259 589.802 -4.58607e-18)
(-3.2756 591.775 0)
(-5.48935 588.122 0)
(-5.53467 588.627 -3.04706e-18)
(1.18459 593.609 4.69957e-20)
(-1.04999 593.606 8.03879e-19)
(5.69113 588.639 0)
(5.62066 588.137 -1.89455e-19)
(3.4091 591.784 2.84227e-19)
(5.85461 589.806 7.87051e-19)
(5.76922 589.194 -7.87711e-19)
(6.04835 591.211 9.64981e-20)
(5.94751 590.478 0)
(6.27628 592.874 -9.6686e-20)
(6.15773 592.008 -1.92467e-19)
(6.54428 594.822 0)
(6.40484 593.81 0)
(6.85926 597.088 -1.22225e-20)
(6.69544 595.913 0)
(7.22977 599.711 -6.14476e-21)
(7.037 598.352 -1.22567e-20)
(7.66567 602.738 0)
(7.43883 601.171 0)
(8.17772 606.226 -2.77676e-18)
(7.91167 604.42 3.18857e-18)
(8.7669 610.261 1.27969e-17)
(8.46384 608.167 0)
(9.38414 615.032 -5.1318e-17)
(9.07942 612.536 1.85372e-20)
(9.64407 617.82 -7.21674e-20)
(11.7473 635.058 -1.03561e-16)
(11.0805 631.555 1.54082e-16)
(14.0589 617.889 5.05845e-17)
(13.626 614.457 4.44723e-17)
(-3.25974 591.312 -9.44392e-20)
(-5.451 587.668 9.44375e-20)
(7.90152 583.15 1.52269e-18)
(7.80896 582.666 -1.41746e-18)
(2.25283 642.734 1.0485e-16)
(12.4266 638.798 7.83751e-17)
(7.52973 644.032 -2.61301e-17)
(-7.1775 636.294 7.92616e-17)
(-13.6994 615.261 -7.86699e-17)
(17.1321 631.078 3.90632e-17)
(16.2668 627.534 0)
(-11.0948 627.958 2.63596e-17)
(14.6297 621.099 5.70441e-17)
(-14.4066 617.931 2.62337e-17)
(-12.4747 610.401 0)
(-13.0546 612.765 -2.61149e-17)
(-11.4895 606.005 1.93433e-17)
(-11.9527 608.154 1.90055e-20)
(-10.7087 602.016 6.37359e-18)
(-11.0772 603.96 -9.63844e-18)
(-10.0779 598.443 7.95732e-19)
(-10.3778 600.171 -4.77766e-18)
(-9.55621 595.312 1.57738e-18)
(-9.8049 596.824 -1.5807e-18)
(-9.12341 592.583 0)
(-9.32982 593.9 -6.89504e-19)
(-8.76301 590.215 7.76758e-19)
(-8.93504 591.356 -7.80762e-19)
(-8.46215 588.17 8.01215e-19)
(-8.60586 589.155 -7.39864e-19)
(-8.21053 586.416 8.20756e-19)
(-8.3307 587.259 -7.23505e-19)
(-8.00019 584.924 -8.16095e-19)
(-8.10063 585.639 7.67461e-19)
(-7.82494 583.674 5.95597e-20)
(-7.90849 584.27 0)
(-7.68132 582.644 -3.22662e-18)
(-7.74925 583.132 3.03397e-18)
(1.17189 593.147 -1.89253e-19)
(-1.06275 593.143 -7.57034e-19)
(5.55847 587.686 -1.8885e-19)
(3.36886 591.323 -7.53941e-19)
(8.11517 584.277 0)
(8.00347 583.686 -1.52137e-18)
(8.3691 585.632 -3.83696e-19)
(8.23681 584.925 3.8405e-19)
(8.6685 587.236 9.81691e-20)
(8.51268 586.401 9.48766e-20)
(9.02091 589.114 2.43374e-19)
(8.83751 588.139 0)
(9.43592 591.295 1.22197e-20)
(9.21995 590.165 -1.94622e-19)
(9.92481 593.817 -1.84291e-20)
(9.67036 592.511 -2.45067e-20)
(10.5011 596.723 0)
(10.2011 595.219 -2.46374e-20)
(11.179 600.071 -1.98337e-18)
(10.8267 598.337 1.58749e-18)
(11.9618 603.958 3.20629e-18)
(11.5583 601.937 3.18989e-18)
(12.816 608.597 0)
(12.3842 606.164 -1.91741e-17)
(13.2328 611.335 3.19489e-17)
(15.419 624.223 -5.10159e-17)
(-7.62156 582.207 0)
(7.72624 582.233 4.71712e-18)
(-2.67828 642.668 2.11139e-19)
(13.1403 642.778 -3.94154e-17)
(18.0294 634.889 -3.93313e-17)
(2.45344 646.694 2.6196e-17)
(-15.1737 620.815 7.8947e-17)
(17.9366 608.591 2.54454e-17)
(17.2866 605.52 -5.41392e-17)
(18.6894 611.558 -9.57669e-18)
(-11.728 631.264 -5.26058e-17)
(-9.84202 575.339 2.96058e-19)
(-9.76216 574.923 3.02663e-18)
(5.50474 587.285 9.41125e-20)
(7.65311 581.849 -3.20547e-18)
(-7.60604 639.881 1.92431e-19)
(8.03544 648.167 0)
(18.9494 639.029 -3.9897e-17)
(13.9138 647.02 1.32674e-17)
(26.0604 637.806 -1.09259e-16)
(24.7647 633.201 -5.46014e-17)
(19.9228 643.525 1.61826e-18)
(-2.72996 646.657 -1.31434e-16)
(-19.0486 611.465 2.62945e-17)
(-17.3025 606.297 -2.61229e-17)
(-18.1369 608.787 2.61684e-17)
(-15.8577 601.717 3.89276e-17)
(-16.544 603.948 6.73528e-20)
(-14.6765 597.562 0)
(-15.2361 599.591 -2.5832e-17)
(-13.7137 593.779 -1.58754e-18)
(-14.1703 595.623 -3.19675e-18)
(-12.9199 590.396 -3.96363e-19)
(-13.2981 592.036 1.5929e-18)
(-12.2589 587.423 -3.93545e-19)
(-12.5746 588.859 0)
(-11.7062 584.829 -3.92692e-19)
(-11.9701 586.082 5.89654e-19)
(-11.244 582.573 -3.87492e-19)
(-11.4648 583.661 3.90247e-19)
(-10.8566 580.622 -3.64124e-19)
(-11.0418 581.561 3.63728e-19)
(-10.5314 578.945 0)
(-10.6869 579.751 -4.83145e-20)
(-10.2585 577.518 7.67867e-19)
(-10.389 578.202 -7.67137e-19)
(-10.0304 576.322 2.90521e-18)
(-10.1392 576.892 -1.42993e-18)
(-9.93141 575.804 -4.54291e-18)
(-7.56988 581.819 2.82341e-19)
(-3.24989 590.899 -7.54478e-19)
(-5.41922 587.264 1.40886e-18)
(1.16449 592.732 2.81607e-19)
(-1.07776 592.728 -7.48549e-19)
(3.3365 590.911 9.42768e-19)
(9.86297 574.958 -1.60723e-18)
(10.0782 575.828 -1.1867e-20)
(9.96505 575.368 1.4169e-18)
(10.3391 576.902 0)
(10.2028 576.339 0)
(10.6491 578.193 -3.8499e-19)
(10.4877 577.519 0)
(11.0147 579.722 9.60908e-20)
(10.8244 578.927 4.70964e-20)
(11.4452 581.509 -6.0759e-20)
(11.2212 580.581 9.67281e-20)
(11.9521 583.582 1.21941e-20)
(11.6883 582.508 -4.32689e-23)
(12.5495 585.974 2.45628e-20)
(12.2385 584.736 7.34924e-20)
(13.2541 588.726 1.9752e-19)
(12.8873 587.302 2.46283e-20)
(14.0828 591.894 -3.17784e-18)
(13.6521 590.253 0)
(15.0431 595.586 -6.37515e-18)
(14.5469 593.662 1.58903e-18)
(16.1219 600.006 1.27869e-17)
(15.5685 597.687 1.27749e-17)
(16.6904 602.608 -4.7928e-17)
(20.5838 617.608 2.57991e-17)
(19.5864 614.504 -3.85488e-17)
(22.6909 624.566 -1.9586e-17)
(21.6195 620.938 -6.49232e-18)
(23.7317 628.624 3.9476e-17)
(-15.9824 623.952 2.64066e-17)
(-9.69164 574.556 -1.88188e-19)
(9.77184 574.595 0)
(21.5447 597.07 -2.56298e-17)
(20.7199 594.347 -1.2824e-17)
(22.459 599.779 2.88285e-17)
(29.0615 620.845 3.93357e-16)
(-12.4158 634.635 1.06983e-16)
(2.7588 651.011 0)
(8.6457 652.513 -5.32085e-17)
(21.0423 648.316 1.1556e-16)
(-7.89976 643.869 -3.19271e-16)
(32.5466 627.161 0)
(-22.7259 599.929 -5.24076e-17)
(14.7704 651.611 -5.5335e-17)
(-20.0297 614.387 -5.24435e-17)
(-23.8695 602.564 -2.85962e-20)
(27.5897 641.829 -1.23458e-19)
(-20.7347 595.186 0)
(-21.683 597.482 3.07107e-20)
(-19.0857 590.929 -2.5838e-17)
(-19.871 593.005 2.59575e-17)
(-17.7249 587.046 6.4071e-18)
(-18.3726 588.947 2.57755e-17)
(-16.5978 583.52 -1.59329e-18)
(-17.1345 585.237 -6.40984e-18)
(-15.6584 580.363 3.96092e-19)
(-16.107 581.893 1.58951e-18)
(-14.872 577.58 0)
(-15.2479 578.926 0)
(-14.2122 575.147 -1.9558e-19)
(-14.5277 576.322 2.94702e-19)
(-13.6584 573.026 -1.52219e-21)
(-13.9232 574.049 2.20143e-19)
(-13.1927 571.187 0)
(-13.4155 572.073 1.21429e-20)
(-12.8004 569.604 1.92268e-19)
(-12.9881 570.365 0)
(-12.47 568.257 9.57562e-20)
(-12.6281 568.902 -1.44402e-19)
(-12.1928 567.126 7.63084e-19)
(-12.3252 567.665 -7.62321e-19)
(-11.9626 566.2 -1.61188e-18)
(-12.0721 566.638 1.55105e-18)
(-11.7761 565.468 3.00357e-18)
(-11.8641 565.811 -9.4347e-20)
(-11.6981 565.171 -2.81889e-18)
(-7.52496 581.478 0)
(-9.62965 574.235 2.80753e-18)
(-3.23977 590.532 1.50125e-18)
(-5.39123 586.908 -1.50421e-18)
(1.15084 592.36 -3.81869e-19)
(-1.08356 592.356 6.58444e-19)
(5.45681 586.931 0)
(3.30628 590.546 0)
(9.69098 574.279 -1.59112e-18)
(7.58852 581.511 -1.40389e-18)
(11.7564 565.225 2.9996e-18)
(11.9602 565.854 1.6536e-18)
(11.8525 565.517 -1.50161e-18)
(12.2126 566.668 1.52712e-18)
(12.0801 566.238 -3.02765e-18)
(12.5169 567.678 0)
(12.358 567.148 9.51854e-20)
(12.878 568.893 0)
(12.6899 568.259 0)
(13.3035 570.331 0)
(13.0821 569.583 4.81549e-20)
(13.804 572.01 9.69607e-20)
(13.5436 571.139 -9.70393e-20)
(14.3931 573.954 4.90103e-20)
(14.0866 572.947 -4.87047e-20)
(15.087 576.191 -9.77024e-20)
(14.7258 575.034 9.84559e-20)
(15.905 578.76 -1.97093e-19)
(15.4793 577.431 3.30639e-22)
(16.8672 581.712 1.78528e-18)
(16.367 580.182 -9.88107e-20)
(17.9855 585.167 -3.98002e-19)
(17.4066 583.364 1.99777e-19)
(19.2655 589.302 -1.27924e-17)
(18.6038 587.139 0)
(19.9647 591.716 2.56105e-17)
(24.6498 605.354 -1.29071e-17)
(23.499 602.494 1.28807e-17)
(27.1461 611.889 5.86342e-17)
(25.8682 608.446 -9.72865e-18)
(28.3891 615.9 -5.22015e-17)
(-21.0998 617.607 -6.05219e-20)
(-16.8096 627.389 1.12744e-19)
(-2.67969 651.21 -1.26622e-17)
(-25.1242 605.436 0)
(24.8614 583.431 -1.28467e-17)
(23.9004 581.052 -6.41625e-18)
(25.9154 585.837 1.28409e-17)
(-13.8146 554.547 0)
(-13.7218 554.277 2.99262e-18)
(9.61959 574.007 9.96165e-20)
(11.6713 564.977 -1.59155e-18)
(3.22244 655.474 -1.6019e-16)
(9.38598 657.245 1.07521e-16)
(15.6804 656.587 4.72259e-17)
(34.1923 631.095 0)
(38.6191 613.6 -1.21116e-19)
(40.8585 617.898 1.10935e-16)
(36.1042 635.869 1.11637e-16)
(-22.3513 621.149 5.21834e-17)
(-12.7664 638.848 -2.89179e-16)
(22.2816 653.193 -2.71371e-17)
(-8.24232 648.274 -3.86424e-17)
(-26.5265 608.489 3.04705e-21)
(29.1341 646.091 2.12792e-16)
(-28.8217 591.061 1.31394e-17)
(-26.1622 586.229 5.23549e-17)
(-27.4349 588.541 -2.61875e-17)
(-23.9611 581.95 1.3011e-17)
(-25.0098 584.039 1.47706e-20)
(-22.1325 578.05 1.93584e-17)
(-23.0041 579.959 -1.29311e-17)
(-20.6101 574.495 6.41808e-18)
(-21.337 576.232 -1.28617e-17)
(-19.34 571.258 4.77891e-18)
(-19.9466 572.835 -3.19274e-18)
(-18.2749 568.357 0)
(-18.7842 569.763 -1.58814e-18)
(-17.38 565.793 -9.84346e-20)
(-17.808 567.034 0)
(-16.6272 563.543 -2.93545e-19)
(-16.9873 564.63 -1.69291e-22)
(-15.9933 561.576 1.92033e-19)
(-16.2967 562.525 -2.3724e-20)
(-15.4586 559.866 -1.21018e-20)
(-15.7147 560.69 0)
(-15.0069 558.392 0)
(-15.2233 559.101 -2.41332e-20)
(-14.6251 557.135 0)
(-14.8079 557.737 -4.79892e-20)
(-14.3033 556.082 3.81309e-19)
(-14.4572 556.584 -4.76347e-19)
(-14.0346 555.221 1.53391e-18)
(-14.1627 555.628 -4.07603e-24)
(-13.9188 554.861 -1.41742e-18)
(-11.6298 564.919 1.86899e-19)
(-7.48557 581.183 1.48103e-18)
(-9.57553 573.96 -4.49008e-18)
(-3.22919 590.211 -7.96315e-19)
(-5.36625 586.597 5.84372e-20)
(1.13599 592.032 5.85614e-21)
(-1.08706 592.026 1.87e-19)
(5.41355 586.623 -1.16876e-20)
(3.27742 590.226 -3.61577e-19)
(7.53132 581.22 1.49888e-18)
(13.7764 554.342 -1.50209e-18)
(14.0095 554.914 1.45661e-18)
(13.8866 554.606 -6.08962e-21)
(14.2959 555.665 -1.46997e-18)
(14.1459 555.267 7.5799e-19)
(14.6394 556.6 4.77018e-20)
(14.4602 556.109 6.6444e-19)
(15.0459 557.728 -4.7985e-20)
(14.8343 557.139 0)
(15.524 559.063 -4.82647e-20)
(15.2754 558.369 0)
(16.0856 560.619 1.94518e-19)
(15.7935 559.812 0)
(16.7456 562.416 5.86099e-19)
(16.4022 561.486 -3.4075e-19)
(17.5223 564.479 0)
(17.1181 563.412 -4.39856e-19)
(18.4372 566.838 0)
(17.9609 565.619 -9.84211e-20)
(19.513 569.547 -1.58552e-18)
(18.9535 568.142 -7.91321e-19)
(20.7661 572.733 7.96265e-18)
(20.1166 571.066 0)
(22.2184 576.517 0)
(21.465 574.54 -1.59307e-18)
(23.0249 578.72 -6.40905e-18)
(28.3636 590.845 1.2924e-17)
(27.0836 588.277 -1.28983e-17)
(31.143 596.926 1.9415e-17)
(29.7236 593.677 -3.24291e-18)
(34.0138 606.05 -6.13231e-17)
(32.565 600.856 1.29073e-17)
(36.2441 610.458 -1.47808e-16)
(-17.7815 631.554 -5.07251e-17)
(-30.3256 593.734 -6.58654e-17)
(-13.6398 554.051 -6.16515e-18)
(13.6786 554.12 1.58469e-18)
(26.8101 565.688 6.40285e-18)
(27.8676 567.748 -1.70442e-20)
(-28.0652 611.499 5.27756e-17)
(-23.7899 624.515 5.2464e-17)
(-2.36059 656.099 -1.01132e-16)
(3.90054 660.379 1.07842e-16)
(10.0971 662.385 7.85421e-20)
(16.6245 661.908 -8.11174e-17)
(43.1606 622.839 6.53072e-18)
(38.089 641.419 6.42234e-20)
(65.3802 618.744 -2.46606e-16)
(30.7473 651.368 1.04586e-19)
(-87.3051 142.621 0)
(23.5539 658.299 9.42777e-17)
(-31.9548 596.422 0)
(-35.4549 579.279 -1.3211e-17)
(-32.1523 574.583 1.31219e-17)
(-33.7413 576.904 5.26426e-17)
(-29.3104 570.41 -1.30738e-17)
(-30.6718 572.413 -2.62165e-17)
(-26.9391 566.62 -6.47385e-18)
(-28.0725 568.474 -1.71774e-20)
(-24.9625 563.129 0)
(-25.9064 564.843 6.46914e-18)
(-23.3081 559.929 0)
(-24.0994 561.488 0)
(-21.9202 557.013 -1.59083e-18)
(-22.584 558.435 3.19004e-18)
(-20.7522 554.395 8.67114e-20)
(-21.3111 555.666 2.97604e-19)
(-19.7681 552.072 9.8371e-20)
(-20.2391 553.197 1.23489e-20)
(-18.9381 550.024 3.39241e-22)
(-19.3354 551.015 -4.88857e-20)
(-18.2372 548.226 3.04071e-21)
(-18.5729 549.095 1.09939e-19)
(-17.6442 546.659 1.20945e-20)
(-17.9284 547.415 0)
(-17.1414 545.304 -1.92753e-19)
(-17.3825 545.956 2.16713e-19)
(-16.7147 544.149 -1.91635e-19)
(-16.9193 544.703 1.91468e-19)
(-16.3536 543.181 -2.85945e-19)
(-16.5265 543.642 3.80676e-19)
(-16.0501 542.394 7.81194e-19)
(-16.1949 542.766 -8.04172e-19)
(-15.7993 541.783 -4.0884e-20)
(-15.9184 542.066 -1.51635e-18)
(-15.5979 541.345 -1.86706e-19)
(-15.6926 541.543 1.50144e-18)
(-15.5152 541.189 -2.78533e-18)
(-11.5705 564.71 0)
(-13.5685 553.867 4.2856e-18)
(-7.45128 580.932 -1.49404e-18)
(-9.52882 573.728 1.49359e-18)
(-3.21861 589.933 4.1863e-19)
(-5.34365 586.332 -4.65988e-20)
(1.1215 591.746 -1.85215e-19)
(-1.08952 591.74 -9.29341e-20)
(5.37445 586.36 -1.16484e-20)
(3.25003 589.951 1.5459e-21)
(9.55701 573.779 2.98106e-18)
(7.48075 580.972 1.16475e-20)
(13.5929 553.94 -9.92867e-20)
(11.5969 564.772 0)
(15.5374 541.273 9.30481e-20)
(15.7434 541.618 1.50123e-18)
(15.6338 541.425 -1.40011e-19)
(16.0033 542.129 7.53654e-19)
(15.8665 541.852 -2.24076e-18)
(16.3201 542.81 2.85088e-19)
(16.1544 542.448 0)
(16.6982 543.663 1.18814e-19)
(16.5012 543.214 -5.70023e-19)
(17.1438 544.695 4.79591e-20)
(16.912 544.156 0)
(17.6666 545.916 -1.92583e-19)
(17.3948 545.281 1.92746e-19)
(18.2792 547.338 2.42205e-19)
(17.9607 546.601 -1.93857e-19)
(18.9979 548.974 4.38354e-19)
(18.6241 548.128 -3.8987e-19)
(19.8421 550.846 -3.91676e-19)
(19.4029 549.879 3.92005e-19)
(20.8355 552.977 7.90043e-19)
(20.3187 551.876 9.83539e-20)
(22.0028 555.42 1.58484e-18)
(21.3958 554.153 1.29484e-21)
(23.3672 558.292 3.18684e-18)
(22.6589 556.791 0)
(24.9553 561.693 -3.18953e-18)
(24.1303 559.91 9.54945e-21)
(25.8458 563.65 1.27954e-17)
(31.6645 574.229 -3.23445e-18)
(29.0248 569.838 -1.64395e-20)
(30.2896 571.966 6.44187e-18)
(34.6837 579.739 -4.04696e-18)
(33.1321 576.778 4.03844e-18)
(38.2138 587.149 7.67189e-17)
(36.3462 583.25 3.18014e-18)
(42.6588 593.822 -3.87022e-17)
(40.3059 590.545 5.11455e-17)
(47.636 601.819 4.39692e-17)
(45.1062 597.542 3.89995e-17)
(56.0472 618.81 9.88403e-17)
(53.1645 612.247 -1.29622e-17)
(45.563 628.499 6.52196e-17)
(50.3142 606.692 -5.19664e-17)
(-19.1736 635.51 1.01252e-16)
(-76.4518 115.053 1.64166e-15)
(-33.7329 599.191 5.32313e-17)
(-37.3139 581.694 0)
(-1.46017 661.037 -5.59861e-17)
(68.4607 91.7942 -5.12788e-17)
(-17.4967 526.787 1.86593e-19)
(-17.403 526.66 -2.96953e-18)
(13.5191 553.802 -1.48771e-18)
(15.4543 541.161 1.38798e-18)
(4.4007 665.607 7.86046e-20)
(48.0833 634.952 -7.81405e-17)
(10.7425 667.962 -5.40775e-17)
(40.1641 647.701 3.15768e-20)
(32.4216 657.373 -2.12096e-16)
(17.5861 667.594 6.72932e-17)
(24.8657 664.054 -1.06954e-16)
(-71.833 102.772 0)
(-90.2317 133.274 4.01367e-16)
(-91.8248 124.233 0)
(-96.8324 124.204 -3.82408e-16)
(-133.496 241.982 -1.44646e-15)
(-94.1736 107.409 -2.84082e-16)
(-29.762 614.576 -6.65174e-18)
(-25.4588 627.84 -7.93096e-17)
(-84.7769 113.581 7.23327e-16)
(-31.6031 617.985 6.67404e-18)
(60.6223 591.839 0)
(57.2554 586.77 -1.29343e-17)
(-11.4887 654.793 1.68392e-16)
(-16.2668 647.992 2.14337e-16)
(-35.6599 602.184 2.67265e-17)
(-80.4891 114.981 -8.32026e-16)
(-39.3108 584.276 -6.01513e-17)
(-117.01 267.988 1.41318e-15)
(-37.7018 605.439 4.03454e-17)
(-41.4273 587.061 -2.02239e-17)
(-74.2109 105.082 0)
(-52.3536 573.163 1.37269e-17)
(-43.7026 590.082 6.77439e-17)
(-47.0165 568.959 -5.36992e-17)
(-49.4806 571.545 -1.39e-17)
(-42.5395 564.31 -7.68634e-21)
(-44.715 566.617 0)
(-38.5494 560.056 1.32059e-17)
(-40.475 562.113 -1.32516e-17)
(-35.1068 556.039 -2.61815e-17)
(-36.7629 558.03 -1.31455e-17)
(-32.1384 552.519 -1.60598e-20)
(-33.5611 554.215 4.57e-17)
(-29.6426 549.244 -6.47269e-18)
(-30.836 550.854 -6.49812e-18)
(-27.5546 546.196 0)
(-28.5537 547.695 0)
(-25.8004 543.378 0)
(-26.6399 544.754 3.20398e-18)
(-24.3232 540.81 0)
(-25.0304 542.065 -1.59322e-18)
(-23.0769 538.495 1.72556e-19)
(-23.6737 539.622 -5.69656e-19)
(-22.0241 536.429 -1.96248e-19)
(-22.5284 537.431 -9.88735e-20)
(-21.1338 534.596 0)
(-21.5603 535.485 1.22871e-19)
(-20.3799 532.98 -1.9445e-19)
(-20.7413 533.762 8.51367e-20)
(-19.7398 531.564 -1.02897e-19)
(-20.0468 532.248 1.93909e-19)
(-19.195 530.338 -1.20152e-20)
(-19.4565 530.928 0)
(-18.7307 529.291 7.14913e-20)
(-18.9536 529.792 1.198e-20)
(-18.3355 528.415 -1.89618e-19)
(-18.5251 528.832 -4.78277e-20)
(-18.0013 527.707 7.06743e-19)
(-18.1612 528.04 1.89803e-19)
(-17.7227 527.164 3.52035e-20)
(-17.8553 527.414 -7.42887e-19)
(-17.6032 526.954 0)
(-15.4444 541.073 2.78842e-18)
(-11.5201 564.542 1.4936e-18)
(-13.5078 553.724 -2.87624e-18)
(-7.42152 580.725 -9.28615e-20)
(-9.48893 573.538 3.48186e-20)
(-3.20779 589.7 -5.57667e-19)
(-5.32353 586.11 4.64361e-20)
(1.10763 591.504 2.74316e-19)
(-1.091 591.498 -3.41175e-20)
(5.33929 586.14 4.6439e-20)
(3.22412 589.719 5.46089e-19)
(9.50281 573.593 -1.46544e-18)
(7.43639 580.767 -6.96506e-20)
(11.5328 564.608 0)
(17.4228 526.755 -9.29758e-20)
(17.6498 527.04 7.61747e-19)
(17.5292 526.878 4.66375e-20)
(17.934 527.486 4.70696e-20)
(17.7847 527.243 -7.60965e-19)
(18.2777 528.091 -3.30747e-19)
(18.0982 527.769 3.78429e-19)
(18.6852 528.857 4.69016e-20)
(18.4731 528.454 -1.90357e-19)
(19.1635 529.787 2.39252e-19)
(18.9149 529.301 -7.32366e-22)
(19.7223 530.888 4.82027e-20)
(19.432 530.316 0)
(20.3755 532.167 -4.36979e-19)
(20.0361 531.505 0)
(21.1398 533.633 -3.40538e-19)
(20.7425 532.876 7.77782e-19)
(22.0359 535.302 0)
(21.57 534.441 -9.7751e-20)
(23.088 537.191 7.89515e-19)
(22.5406 536.218 -9.8277e-20)
(24.3233 539.351 -7.93302e-19)
(23.6812 538.234 -1.57958e-18)
(25.7708 541.877 0)
(25.0192 540.558 0)
(27.4562 544.89 -4.79532e-18)
(26.5803 543.315 1.59602e-18)
(29.4334 548.333 -6.42274e-18)
(28.4065 546.579 3.19532e-18)
(31.7833 551.848 6.43382e-18)
(30.5559 550.088 1.58934e-18)
(34.5595 555.61 0)
(33.1176 553.66 0)
(37.7855 560.355 -1.29191e-17)
(36.114 557.84 -6.46227e-18)
(41.6328 566.055 0)
(39.6198 563.185 -1.93077e-17)
(46.1598 571.781 -6.46239e-18)
(43.8072 568.868 0)
(51.3665 578.421 1.62623e-18)
(48.701 574.908 0)
(54.2119 582.336 -1.29701e-17)
(-85.5633 131.303 6.34313e-19)
(-87.6647 122.402 -3.9037e-16)
(-93.0488 115.604 -6.20301e-16)
(-20.9066 638.933 0)
(-6.54271 659.146 -5.58442e-17)
(-80.766 129.918 -8.01795e-16)
(-127.772 728.742 -4.01283e-16)
(140.548 100.2 -1.32113e-15)
(61.2536 641.983 1.96929e-16)
(-17.3224 526.573 2.97233e-18)
(17.3307 526.672 1.85354e-19)
(-95.4208 134.42 -8.12229e-16)
(-27.1936 631.617 2.67066e-17)
(-17.635 652.38 0)
(-12.4539 659.535 0)
(-1.30044 666.236 2.73864e-17)
(50.6997 642.516 0)
(-103.52 113.315 0)
(-33.5261 621.774 2.68468e-17)
(60.4025 559.088 0)
(63.9456 562.122 1.03885e-16)
(65.2464 592.966 0)
(4.73064 671.316 -1.08758e-16)
(42.3268 654.769 -1.05133e-16)
(34.1474 664.13 1.06034e-16)
(-39.8835 609.044 -4.04288e-17)
(150.931 608.008 -2.06939e-16)
(11.3555 673.989 0)
(-155.679 892.598 2.01022e-18)
(-46.1577 593.132 4.09941e-17)
(-101.803 125.134 3.39234e-16)
(18.5569 673.807 -8.37896e-19)
(26.2211 670.479 0)
(-74.4758 120.894 8.42749e-16)
(-75.9598 128.556 -8.1197e-16)
(64.5031 649.762 2.37623e-20)
(-82.3018 139.802 -4.10079e-16)
(-77.0376 137.998 -4.62702e-19)
(72.8697 91.2418 2.5693e-17)
(-50.1006 545.755 -9.34099e-17)
(-52.0012 547.798 4.88047e-16)
(-45.3777 542.248 -3.12093e-20)
(-47.6896 544.051 2.65607e-17)
(-41.2216 538.794 1.31485e-17)
(-43.2176 540.487 -1.31975e-17)
(-37.6729 535.48 -6.54007e-18)
(-39.3775 537.124 6.53789e-18)
(-34.6269 532.587 3.24145e-18)
(-36.0866 533.973 -6.52147e-18)
(-32.0539 529.874 6.45138e-18)
(-33.284 531.219 -3.23947e-18)
(-29.8943 527.284 -1.60655e-18)
(-30.928 528.557 1.60637e-18)
(-28.0739 524.881 0)
(-28.9454 526.056 -4.79966e-18)
(-26.5377 522.677 0)
(-27.2737 523.756 -7.95789e-19)
(-25.2385 520.675 -1.97106e-19)
(-25.8611 521.651 2.96888e-19)
(-24.1383 518.875 0)
(-24.6656 519.75 4.95558e-20)
(-23.2055 517.266 0)
(-23.6527 518.048 1.22439e-20)
(-22.4127 515.837 -7.58883e-22)
(-22.7931 516.53 6.08792e-21)
(-21.7373 514.579 1.0281e-19)
(-22.0616 515.187 -9.66937e-20)
(-21.16 513.486 1.80085e-20)
(-21.4374 514.013 -6.01982e-21)
(-20.6655 512.552 2.38722e-20)
(-20.9032 512.999 -1.19712e-20)
(-20.2419 511.773 -2.37108e-19)
(-20.4454 512.143 4.74127e-20)
(-19.8811 511.147 0)
(-20.0541 511.441 1.89638e-19)
(-19.5776 510.675 -7.40046e-19)
(-19.7223 510.892 7.5096e-19)
(-19.3287 510.362 1.54102e-18)
(-19.4464 510.499 -1.4987e-18)
(-19.1345 510.207 -1.39239e-18)
(-19.2246 510.265 1.39068e-18)
(-19.0587 510.188 1.47395e-18)
(-15.3859 540.997 0)
(-17.2553 526.525 0)
(-11.4786 564.415 -2.1523e-18)
(-13.4577 553.622 1.45968e-18)
(-7.39642 580.56 -4.62793e-20)
(-9.45582 573.391 -4.15609e-19)
(-3.19706 589.51 9.31699e-20)
(-5.30582 585.931 4.62854e-20)
(1.09334 591.307 -1.28961e-19)
(-1.09025 591.301 -4.44698e-20)
(5.30808 585.963 0)
(3.19985 589.529 -3.76094e-19)
(9.45685 573.448 3.4622e-19)
(7.39815 580.604 0)
(13.4573 553.703 -4.91218e-20)
(11.4789 564.484 7.64495e-19)
(17.2531 526.628 -1.56719e-18)
(15.3845 541.089 1.32356e-19)
(19.0557 510.303 1.57235e-18)
(19.242 510.371 1.5763e-18)
(19.1411 510.317 -3.14848e-18)
(19.4886 510.595 -1.16861e-20)
(19.3579 510.464 0)
(19.7945 510.972 -6.19793e-24)
(19.6341 510.764 0)
(20.1614 511.499 0)
(19.9701 511.217 0)
(20.5933 512.174 -4.76003e-20)
(20.3688 511.818 0)
(21.0973 512.999 -4.78854e-20)
(20.8357 512.568 0)
(21.6837 513.974 -4.81586e-20)
(21.3794 513.467 2.401e-20)
(22.3664 515.105 3.88176e-19)
(22.012 514.52 -4.82965e-20)
(23.1629 516.396 4.87001e-20)
(22.7492 515.73 -3.87865e-19)
(24.0943 517.856 6.84128e-19)
(23.6103 517.104 -6.85022e-19)
(25.1853 519.497 1.57486e-18)
(24.6182 518.652 -6.88675e-19)
(26.4654 521.359 1.57993e-18)
(25.8 520.399 -2.36865e-18)
(27.9638 523.539 1.58713e-18)
(27.1854 522.404 -4.75951e-18)
(29.7118 526.14 -1.59496e-17)
(28.8037 524.788 3.18896e-18)
(31.7632 529.043 -3.20058e-18)
(30.6964 527.574 -9.58802e-18)
(34.1912 531.945 1.61034e-18)
(32.9239 530.5 8.13408e-23)
(37.0568 535.05 1.2917e-17)
(35.5677 533.439 -6.45786e-18)
(40.4231 538.842 1.29009e-17)
(38.6726 536.839 -1.61582e-17)
(44.4007 543.138 -2.59594e-17)
(42.3344 540.969 -3.23156e-18)
(49.0023 547.719 -6.4858e-18)
(46.6139 545.382 2.58831e-17)
(54.2965 552.867 5.21624e-17)
(51.5708 550.138 0)
(57.2259 555.852 -5.18602e-17)
(-90.1366 155.915 0)
(-92.6988 145.308 0)
(-58.5167 544.768 5.87914e-16)
(-84.2433 106.093 1.26012e-15)
(-88.7714 113.601 -3.56945e-16)
(-22.5104 643.079 0)
(-6.95806 664.193 0)
(-78.4137 148.577 1.23856e-15)
(55.5102 662.69 -1.06808e-16)
(53.081 651.913 1.05248e-16)
(-97.5036 156.228 -1.06724e-15)
(-68.2808 154.327 7.28241e-16)
(-74.5817 99.3489 0)
(-28.9592 635.905 -2.69108e-17)
(62.7119 529.597 0)
(66.1906 531.474 -5.24885e-17)
(67.7223 563.559 -1.01978e-19)
(-1.33302 671.939 6.78863e-18)
(-18.8276 657.531 0)
(-13.2758 664.928 0)
(-82.1992 157.453 -7.34476e-16)
(44.5088 662.794 -5.27463e-17)
(74.8362 93.0413 -2.72472e-21)
(-20.8733 491.956 -1.48369e-18)
(-20.7888 491.966 0)
(17.1907 526.623 1.52216e-18)
(18.9864 510.326 9.19887e-20)
(35.9248 671.645 0)
(-104.545 73.0437 -7.19614e-16)
(-35.56 625.946 3.23736e-20)
(69.3269 592.772 -5.47392e-17)
(-71.2657 108.749 -1.05318e-16)
(70.9002 89.2833 -2.55657e-17)
(70.9409 84.9053 1.51953e-16)
(70.7347 81.0292 -3.63234e-20)
(-54.5469 168.249 -2.01772e-16)
(4.97893 677.499 -5.58133e-20)
(-67.5103 255.244 0)
(-46.9658 264.912 -7.46868e-16)
(-87.2984 167.759 7.99614e-16)
(111.041 52.5962 1.96522e-16)
(-86.8295 241.44 0)
(-99.0498 243.066 -6.52749e-19)
(-42.2415 612.823 -5.42834e-17)
(69.4416 624.596 1.62395e-16)
(89.4792 107.831 9.72729e-17)
(86.111 105.849 0)
(83.805 112.647 -9.75917e-17)
(87.244 115.004 -9.99046e-17)
(110.658 152.887 1.39607e-18)
(11.9562 680.528 5.30974e-17)
(27.5909 677.638 -1.06668e-16)
(-49.0277 595.589 1.55499e-20)
(-70.4098 119.422 -4.33974e-16)
(19.5524 680.614 1.07005e-16)
(-25.7808 270.283 -2.62921e-18)
(-15.4687 283.896 1.49849e-15)
(-59.4208 272.272 7.48091e-16)
(-55.7569 572.429 -3.28147e-16)
(-71.4187 126.689 4.17731e-16)
(-37.773 280.337 -1.50363e-15)
(-72.1041 135.386 4.01214e-16)
(-72.3534 146.063 0)
(58.407 672.343 -2.53714e-17)
(74.5638 88.0917 -2.56949e-17)
(68.3935 658.16 2.69978e-17)
(-128.704 270.119 -6.89404e-16)
(-52.489 520.839 1.2969e-17)
(-54.6401 522.786 0)
(-47.6138 518.088 -6.58555e-18)
(-49.9787 519.419 0)
(-43.4054 515.536 -1.96552e-17)