/*--------------------------------*- C++ -*----------------------------------*\
| =========                 |                                                 |
| \\      /  F ield         | OpenFOAM: The Open Source CFD Toolbox           |
|  \\    /   O peration     | Version:  2212                                  |
|   \\  /    A nd           | Website:  www.openfoam.com                      |
|    \\/     M anipulation  |                                                 |
\*---------------------------------------------------------------------------*/
FoamFile
{
    version     2.0;
    format      ascii;
    arch        "LSB;label=32;scalar=64";
    class       volScalarField;
    location    "0.09";
    object      s;
}
// * * * * * * * * * * * * * * * * * * * * * * * * * * * * * * * * * * * * * //

dimensions      [0 0 0 0 0 0 0];

internalField   nonuniform List<scalar> 
24240
(
5.8568e-123
5.87313e-123
6.03787e-123
5.72167e-123
5.94961e-123
5.91537e-123
5.90562e-123
5.75119e-123
5.72331e-123
6.01996e-123
5.7076e-123
6.03724e-123
5.70842e-123
5.94595e-123
5.6644e-123
5.98554e-123
5.57709e-123
5.79176e-123
5.90705e-123
5.50788e-123
7.79332e-120
7.80884e-120
8.0305e-120
7.60822e-120
7.91228e-120
7.86522e-120
7.85163e-120
7.64442e-120
7.61048e-120
8.00239e-120
7.59054e-120
8.02683e-120
7.59094e-120
7.9058e-120
7.5344e-120
7.96005e-120
7.41717e-120
7.70041e-120
7.85389e-120
7.32367e-120
6.06912e-117
6.07604e-117
6.25131e-117
5.92069e-117
6.15833e-117
6.12074e-117
6.10925e-117
5.94629e-117
5.92195e-117
6.22599e-117
5.90738e-117
6.24592e-117
5.9074e-117
6.15218e-117
5.86527e-117
6.19557e-117
5.77214e-117
5.99169e-117
6.11157e-117
5.698e-117
2.69199e-114
2.69262e-114
2.77191e-114
2.62422e-114
2.73014e-114
2.71318e-114
2.70749e-114
2.63439e-114
2.62433e-114
2.75922e-114
2.61842e-114
2.76836e-114
2.61844e-114
2.72709e-114
2.60076e-114
2.74683e-114
2.55814e-114
2.6555e-114
2.709e-114
2.52455e-114
9.01042e-112
9.00329e-112
9.27638e-112
8.77654e-112
9.13376e-112
9.07663e-112
9.05424e-112
8.806e-112
8.77365e-112
9.22863e-112
8.75627e-112
9.25944e-112
8.7572e-112
9.12278e-112
8.7024e-112
9.19029e-112
8.55203e-112
8.88052e-112
9.06175e-112
8.4364e-112
2.09843e-109
2.09428e-109
2.16054e-109
2.04219e-109
2.12636e-109
2.1132e-109
2.10677e-109
2.04785e-109
2.04022e-109
2.14819e-109
2.03696e-109
2.15517e-109
2.03766e-109
2.12384e-109
2.02627e-109
2.13983e-109
1.98829e-109
2.06636e-109
2.10942e-109
1.9603e-109
3.47909e-107
3.46682e-107
3.58437e-107
3.38236e-107
3.52484e-107
3.50405e-107
3.48967e-107
3.38912e-107
3.3748e-107
3.56158e-107
3.37146e-107
3.57187e-107
3.37445e-107
3.52132e-107
3.35921e-107
3.54799e-107
3.28689e-107
3.42262e-107
3.49677e-107
3.23764e-107
3.769e-105
3.7468e-105
3.89092e-105
3.65934e-105
3.82016e-105
3.80093e-105
3.77708e-105
3.66227e-105
3.641e-105
3.86342e-105
3.64171e-105
3.87048e-105
3.6497e-105
3.81916e-105
3.64065e-105
3.84725e-105
3.54017e-105
3.7043e-105
3.79107e-105
3.48117e-105
1.43708e-103
1.43628e-103
1.45963e-103
1.39442e-103
1.44529e-103
1.42678e-103
1.4336e-103
1.40026e-103
1.40727e-103
1.44684e-103
1.40147e-103
1.46038e-103
1.39354e-103
1.43654e-103
1.37736e-103
1.45211e-103
1.38695e-103
1.40876e-103
1.42846e-103
1.3746e-103
1.49818e-103
1.50855e-103
1.49579e-103
1.45497e-103
1.49526e-103
1.46427e-103
1.4899e-103
1.46769e-103
1.49235e-103
1.48166e-103
1.47808e-103
1.50827e-103
1.45722e-103
1.47641e-103
1.42501e-103
1.4981e-103
1.49149e-103
1.4663e-103
1.47158e-103
1.4907e-103
2.10951e-103
2.15765e-103
2.14425e-103
2.14124e-103
2.1118e-103
2.13916e-103
2.178e-103
2.1362e-103
2.18628e-103
2.20719e-103
2.16655e-103
2.20725e-103
2.15015e-103
2.12239e-103
2.10689e-103
2.15045e-103
2.13112e-103
2.12212e-103
2.12782e-103
2.15328e-103
2.58502e-103
2.61515e-103
2.6169e-103
2.60807e-103
2.56329e-103
2.51022e-103
2.5499e-103
2.50017e-103
2.57724e-103
2.68166e-103
2.65413e-103
2.56375e-103
2.62462e-103
2.59991e-103
2.58588e-103
2.61791e-103
2.49926e-103
2.62024e-103
2.57788e-103
2.57759e-103
2.89974e-103
3.01106e-103
2.95488e-103
2.95289e-103
2.93628e-103
2.98541e-103
3.08171e-103
2.94771e-103
2.96696e-103
2.94782e-103
2.95445e-103
2.94397e-103
2.937e-103
2.91119e-103
2.85228e-103
2.93365e-103
2.95933e-103
2.89357e-103
2.87658e-103
2.90209e-103
3.25398e-103
3.29452e-103
3.36099e-103
3.37694e-103
3.32989e-103
3.40673e-103
3.32912e-103
3.37858e-103
3.37265e-103
3.20521e-103
3.26078e-103
3.24178e-103
3.27656e-103
3.19411e-103
3.21591e-103
3.21917e-103
3.24411e-103
3.28173e-103
3.25731e-103
3.30793e-103
3.32138e-103
3.36362e-103
3.40295e-103
3.41136e-103
3.35493e-103
3.35866e-103
3.3791e-103
3.44263e-103
3.32914e-103
3.38332e-103
3.33737e-103
3.35419e-103
3.4406e-103
3.36114e-103
3.31034e-103
3.49114e-103
3.33888e-103
3.32346e-103
3.36613e-103
3.45345e-103
3.47244e-103
3.42493e-103
3.50018e-103
3.42246e-103
3.47201e-103
3.4819e-103
3.53094e-103
3.48015e-103
3.37629e-103
3.41928e-103
3.42393e-103
3.54728e-103
3.46982e-103
3.53626e-103
3.53282e-103
3.52629e-103
3.50541e-103
3.46481e-103
3.44085e-103
3.46179e-103
3.13448e-103
3.1891e-103
3.14556e-103
3.28839e-103
3.19916e-103
3.29338e-103
3.23547e-103
3.2248e-103
3.20086e-103
3.20972e-103
3.17979e-103
3.26545e-103
3.23612e-103
3.31284e-103
3.19009e-103
3.28105e-103
3.26038e-103
3.12534e-103
3.27784e-103
3.24231e-103
2.95854e-103
3.10958e-103
3.04686e-103
3.05491e-103
2.99691e-103
3.15246e-103
3.10943e-103
3.0909e-103
3.08398e-103
3.00333e-103
3.08284e-103
3.15209e-103
3.04268e-103
3.24032e-103
3.10378e-103
3.16784e-103
3.20862e-103
3.08858e-103
3.1604e-103
3.17381e-103
2.59085e-103
2.58195e-103
2.54494e-103
2.60048e-103
2.65926e-103
2.64242e-103
2.60081e-103
2.53915e-103
2.64761e-103
2.5585e-103
2.63487e-103
2.63387e-103
2.59832e-103
2.65353e-103
2.67192e-103
2.69454e-103
2.61396e-103
2.69236e-103
2.65492e-103
2.74172e-103
2.0241e-103
2.04959e-103
2.02801e-103
2.01767e-103
2.08366e-103
2.0485e-103
2.12059e-103
2.04884e-103
2.12205e-103
2.11534e-103
2.07816e-103
2.14404e-103
2.05239e-103
2.15205e-103
2.07467e-103
2.06604e-103
2.11644e-103
2.14278e-103
2.09743e-103
2.18227e-103
4.11486e-121
4.12416e-121
4.23869e-121
4.01789e-121
4.17718e-121
4.15206e-121
4.14614e-121
4.03751e-121
4.02034e-121
4.22434e-121
4.00932e-121
4.23776e-121
4.00888e-121
4.17357e-121
3.97797e-121
4.20228e-121
3.91906e-121
4.06619e-121
4.14619e-121
3.87056e-121
6.39605e-118
6.40531e-118
6.58559e-118
6.24098e-118
6.48925e-118
6.44911e-118
6.43924e-118
6.26889e-118
6.24465e-118
6.55984e-118
6.22843e-118
6.58179e-118
6.2273e-118
6.48249e-118
6.18103e-118
6.52837e-118
6.08823e-118
6.31528e-118
6.4398e-118
6.01161e-118
5.38892e-115
5.39206e-115
5.54647e-115
5.25448e-115
5.46443e-115
5.4299e-115
5.42067e-115
5.27566e-115
5.25697e-115
5.52183e-115
5.24425e-115
5.54105e-115
5.24315e-115
5.45792e-115
5.20594e-115
5.49757e-115
5.12584e-115
5.31648e-115
5.4218e-115
5.06007e-115
2.54141e-112
2.54058e-112
2.6149e-112
2.47621e-112
2.57569e-112
2.55919e-112
2.55424e-112
2.48506e-112
2.4769e-112
2.60194e-112
2.47145e-112
2.61126e-112
2.47099e-112
2.57239e-112
2.45442e-112
2.59154e-112
2.41532e-112
2.50528e-112
2.55527e-112
2.38362e-112
8.72021e-110
8.7083e-110
8.97099e-110
8.48974e-110
8.83364e-110
8.7769e-110
8.75655e-110
8.51563e-110
8.48866e-110
8.92159e-110
8.47247e-110
8.95365e-110
8.47185e-110
8.82184e-110
8.41935e-110
8.8889e-110
8.27726e-110
8.58889e-110
8.76264e-110
8.16534e-110
2.08337e-107
2.07802e-107
2.1435e-107
2.02656e-107
2.10969e-107
2.09633e-107
2.09021e-107
2.03153e-107
2.02491e-107
2.13051e-107
2.02187e-107
2.13793e-107
2.02225e-107
2.10696e-107
2.01112e-107
2.12325e-107
1.97407e-107
2.05022e-107
2.09261e-107
1.94624e-107
3.43128e-105
3.41706e-105
3.53263e-105
3.33428e-105
3.47407e-105
3.45318e-105
3.43935e-105
3.33982e-105
3.32715e-105
3.50901e-105
3.32426e-105
3.51991e-105
3.3268e-105
3.47033e-105
3.3121e-105
3.49732e-105
3.24158e-105
3.37345e-105
3.44605e-105
3.19286e-105
3.68491e-103
3.6608e-103
3.80129e-103
3.57588e-103
3.73228e-103
3.71302e-103
3.69007e-103
3.57746e-103
3.55813e-103
3.77315e-103
3.55937e-103
3.78092e-103
3.56681e-103
3.73098e-103
3.55833e-103
3.75934e-103
3.46086e-103
3.61925e-103
3.7035e-103
3.40294e-103
1.36416e-101
1.36272e-101
1.38497e-101
1.32338e-101
1.3713e-101
1.35397e-101
1.36042e-101
1.32848e-101
1.33553e-101
1.37269e-101
1.33019e-101
1.38557e-101
1.32263e-101
1.36322e-101
1.30749e-101
1.37798e-101
1.31636e-101
1.33677e-101
1.35538e-101
1.30463e-101
1.41496e-101
1.42449e-101
1.41252e-101
1.37445e-101
1.41195e-101
1.38336e-101
1.40755e-101
1.38618e-101
1.4098e-101
1.39941e-101
1.39633e-101
1.42434e-101
1.37661e-101
1.39475e-101
1.34638e-101
1.41472e-101
1.40862e-101
1.38488e-101
1.38981e-101
1.40805e-101
1.99169e-101
2.03663e-101
2.0247e-101
2.02088e-101
1.99364e-101
2.0191e-101
2.05591e-101
2.01594e-101
2.06389e-101
2.08229e-101
2.04536e-101
2.08272e-101
2.02935e-101
2.00341e-101
1.98842e-101
2.02953e-101
2.01137e-101
2.00303e-101
2.00884e-101
2.03262e-101
2.42674e-101
2.45493e-101
2.45692e-101
2.44782e-101
2.40637e-101
2.35644e-101
2.39443e-101
2.34738e-101
2.42026e-101
2.51714e-101
2.49163e-101
2.40655e-101
2.4647e-101
2.44076e-101
2.42801e-101
2.45765e-101
2.34625e-101
2.45959e-101
2.41946e-101
2.41984e-101
2.71877e-101
2.82204e-101
2.77033e-101
2.76733e-101
2.75319e-101
2.79863e-101
2.88911e-101
2.76301e-101
2.78112e-101
2.76276e-101
2.76928e-101
2.75971e-101
2.7541e-101
2.72973e-101
2.67475e-101
2.75028e-101
2.77433e-101
2.71281e-101
2.69696e-101
2.72083e-101
3.01755e-101
3.05433e-101
3.11527e-101
3.1311e-101
3.08768e-101
3.15831e-101
3.08651e-101
3.1325e-101
3.12681e-101
2.97132e-101
3.02313e-101
3.00598e-101
3.03838e-101
2.96221e-101
2.98169e-101
2.98534e-101
3.00764e-101
3.04316e-101
3.02034e-101
3.06773e-101
3.07751e-101
3.11576e-101
3.15279e-101
3.15954e-101
3.10754e-101
3.112e-101
3.13115e-101
3.1893e-101
3.08432e-101
3.13448e-101
3.09292e-101
3.10799e-101
3.18685e-101
3.11425e-101
3.06784e-101
3.23397e-101
3.09395e-101
3.07891e-101
3.11863e-101
3.19797e-101
3.16254e-101
3.11799e-101
3.18626e-101
3.11644e-101
3.16182e-101
3.17147e-101
3.21508e-101
3.16907e-101
3.07478e-101
3.11366e-101
3.1169e-101
3.22986e-101
3.15992e-101
3.22077e-101
3.2167e-101
3.21155e-101
3.19151e-101
3.156e-101
3.13327e-101
3.15241e-101
2.85909e-101
2.90817e-101
2.86883e-101
2.99921e-101
2.91741e-101
3.00317e-101
2.94987e-101
2.94129e-101
2.91888e-101
2.92678e-101
2.90027e-101
2.9777e-101
2.94997e-101
3.02108e-101
2.90853e-101
2.9917e-101
2.97257e-101
2.84986e-101
2.98838e-101
2.95697e-101
2.6391e-101
2.77406e-101
2.71804e-101
2.72464e-101
2.67292e-101
2.81248e-101
2.7737e-101
2.75773e-101
2.75097e-101
2.67932e-101
2.75042e-101
2.81196e-101
2.71439e-101
2.89036e-101
2.76813e-101
2.82515e-101
2.86158e-101
2.75515e-101
2.81917e-101
2.83094e-101
2.32469e-101
2.31637e-101
2.28366e-101
2.33343e-101
2.38593e-101
2.37055e-101
2.33303e-101
2.27881e-101
2.37593e-101
2.29559e-101
2.36412e-101
2.36289e-101
2.33086e-101
2.38092e-101
2.39669e-101
2.41785e-101
2.3448e-101
2.41522e-101
2.3815e-101
2.45945e-101
1.79244e-101
1.8148e-101
1.79577e-101
1.78664e-101
1.84459e-101
1.8139e-101
1.87666e-101
1.81422e-101
1.87797e-101
1.87274e-101
1.8397e-101
1.89784e-101
1.81735e-101
1.90519e-101
1.83642e-101
1.82908e-101
1.8732e-101
1.8966e-101
1.85678e-101
1.93122e-101
3.76691e-119
3.77323e-119
3.87733e-119
3.67613e-119
3.82133e-119
3.79741e-119
3.79262e-119
3.69291e-119
3.67929e-119
3.86243e-119
3.6693e-119
3.87577e-119
3.66805e-119
3.81702e-119
3.63991e-119
3.8441e-119
3.58776e-119
3.7194e-119
3.79187e-119
3.54334e-119
6.09924e-116
6.10452e-116
6.27526e-116
5.94819e-116
6.18387e-116
6.14423e-116
6.1358e-116
5.9729e-116
5.95309e-116
6.24799e-116
5.93786e-116
6.27059e-116
5.93549e-116
6.17601e-116
5.89167e-116
6.22102e-116
5.80594e-116
6.01765e-116
6.13518e-116
5.73286e-116
5.20319e-113
5.20318e-113
5.35131e-113
5.07077e-113
5.27251e-113
5.23814e-113
5.23005e-113
5.08966e-113
5.07436e-113
5.32543e-113
5.06238e-113
5.34539e-113
5.0603e-113
5.26533e-113
5.02468e-113
5.30468e-113
4.94961e-113
5.12969e-113
5.23038e-113
4.8861e-113
2.50963e-110
2.50733e-110
2.58027e-110
2.44401e-110
2.54174e-110
2.525e-110
2.5205e-110
2.45199e-110
2.44521e-110
2.56652e-110
2.44001e-110
2.57637e-110
2.4391e-110
2.53812e-110
2.42288e-110
2.55753e-110
2.38531e-110
2.47228e-110
2.52118e-110
2.35401e-110
8.5994e-108
8.58259e-108
8.84014e-108
8.36803e-108
8.70533e-108
8.64806e-108
8.6292e-108
8.3909e-108
8.3685e-108
8.78836e-108
8.35327e-108
8.8221e-108
8.35124e-108
8.69267e-108
8.30005e-108
8.76049e-108
8.16319e-108
8.46438e-108
8.63415e-108
8.05279e-108
2.05106e-105
2.04457e-105
2.1087e-105
1.99419e-105
2.07555e-105
2.06214e-105
2.05638e-105
1.99842e-105
1.99286e-105
2.09521e-105
1.99007e-105
2.10301e-105
1.99014e-105
2.07268e-105
1.97933e-105
2.08911e-105
1.94356e-105
2.01714e-105
2.0585e-105
1.91614e-105
3.32304e-103
3.30725e-103
3.41864e-103
3.22758e-103
3.36214e-103
3.34154e-103
3.32854e-103
3.23184e-103
3.22102e-103
3.39469e-103
3.21863e-103
3.40601e-103
3.22064e-103
3.35826e-103
3.20668e-103
3.38508e-103
3.13937e-103
3.26496e-103
3.33468e-103
3.09211e-103
3.53056e-101
3.50518e-101
3.63916e-101
3.42437e-101
3.57328e-101
3.55438e-101
3.53283e-101
3.42465e-101
3.40761e-101
3.61103e-101
3.40932e-101
3.61934e-101
3.41603e-101
3.57173e-101
3.40818e-101
3.59979e-101
3.31584e-101
3.46533e-101
3.54539e-101
3.26019e-101
1.26839e-99
1.26641e-99
1.28717e-99
1.23021e-99
1.27442e-99
1.25853e-99
1.26451e-99
1.23455e-99
1.24147e-99
1.27563e-99
1.23665e-99
1.28763e-99
1.2296e-99
1.26712e-99
1.21573e-99
1.28081e-99
1.22376e-99
1.24245e-99
1.25967e-99
1.21285e-99
1.30784e-99
1.3164e-99
1.30541e-99
1.27067e-99
1.30481e-99
1.27903e-99
1.30136e-99
1.28125e-99
1.3034e-99
1.29352e-99
1.29094e-99
1.31636e-99
1.27271e-99
1.28948e-99
1.24494e-99
1.30745e-99
1.30194e-99
1.28007e-99
1.28457e-99
1.30159e-99
1.84112e-99
1.88217e-99
1.87181e-99
1.86738e-99
1.84271e-99
1.8659e-99
1.90004e-99
1.86263e-99
1.90758e-99
1.92332e-99
1.89052e-99
1.92407e-99
1.87526e-99
1.85151e-99
1.83734e-99
1.87531e-99
1.85862e-99
1.85105e-99
1.85683e-99
1.87858e-99
2.23131e-99
2.25712e-99
2.25928e-99
2.25016e-99
2.21259e-99
2.16659e-99
2.20221e-99
2.1586e-99
2.22611e-99
2.31412e-99
2.29097e-99
2.21254e-99
2.26692e-99
2.24422e-99
2.2329e-99
2.25974e-99
2.15729e-99
2.26131e-99
2.22406e-99
2.22501e-99
2.49822e-99
2.59209e-99
2.54547e-99
2.54167e-99
2.52999e-99
2.57114e-99
2.65447e-99
2.53818e-99
2.55488e-99
2.53766e-99
2.54392e-99
2.53537e-99
2.53107e-99
2.50855e-99
2.45825e-99
2.52694e-99
2.549e-99
2.4926e-99
2.47811e-99
2.49997e-99
2.74705e-99
2.77978e-99
2.83459e-99
2.84998e-99
2.81065e-99
2.8743e-99
2.80918e-99
2.85114e-99
2.84571e-99
2.70404e-99
2.75146e-99
2.73628e-99
2.76589e-99
2.69683e-99
2.71388e-99
2.71777e-99
2.73732e-99
2.77023e-99
2.74929e-99
2.79283e-99
2.80157e-99
2.83558e-99
2.86984e-99
2.87515e-99
2.82791e-99
2.83296e-99
2.85053e-99
2.90296e-99
2.80733e-99
2.85318e-99
2.81616e-99
2.82938e-99
2.90019e-99
2.83489e-99
2.79327e-99
2.94332e-99
2.81673e-99
2.80234e-99
2.83869e-99
2.90958e-99
2.83839e-99
2.79727e-99
2.85827e-99
2.79641e-99
2.83742e-99
2.84663e-99
2.88483e-99
2.84379e-99
2.75945e-99
2.79408e-99
2.7961e-99
2.89799e-99
2.8358e-99
2.89073e-99
2.88623e-99
2.88231e-99
2.86343e-99
2.83286e-99
2.81168e-99
2.82885e-99
2.57286e-99
2.61628e-99
2.5813e-99
2.69868e-99
2.6247e-99
2.70162e-99
2.65329e-99
2.64661e-99
2.62587e-99
2.63287e-99
2.60973e-99
2.67876e-99
2.65295e-99
2.71789e-99
2.61615e-99
2.69113e-99
2.67365e-99
2.56372e-99
2.68775e-99
2.66045e-99
2.33643e-99
2.45593e-99
2.40631e-99
2.41179e-99
2.36603e-99
2.49014e-99
2.45544e-99
2.44182e-99
2.4353e-99
2.37226e-99
2.43519e-99
2.48947e-99
2.40327e-99
2.55854e-99
2.44999e-99
2.50037e-99
2.5326e-99
2.43899e-99
2.49569e-99
2.50587e-99
2.07251e-99
2.06496e-99
2.03625e-99
2.08041e-99
2.12694e-99
2.11317e-99
2.07953e-99
2.03226e-99
2.11858e-99
2.04652e-99
2.10773e-99
2.10636e-99
2.07757e-99
2.12284e-99
2.13616e-99
2.15583e-99
2.09011e-99
2.15285e-99
2.12271e-99
2.19222e-99
1.59099e-99
1.61065e-99
1.59382e-99
1.58576e-99
1.63675e-99
1.6099e-99
1.66461e-99
1.61019e-99
1.6658e-99
1.66178e-99
1.63238e-99
1.68377e-99
1.61296e-99
1.69052e-99
1.62932e-99
1.62308e-99
1.66173e-99
1.6826e-99
1.64755e-99
1.713e-99
3.94325e-117
3.9475e-117
4.05589e-117
3.84613e-117
3.99756e-117
3.97165e-117
3.96721e-117
3.86253e-117
3.85038e-117
4.03864e-117
3.84014e-117
4.05369e-117
3.83808e-117
3.99232e-117
3.8089e-117
4.0215e-117
3.75597e-117
3.89081e-117
3.96596e-117
3.70942e-117
6.23997e-114
6.24167e-114
6.4153e-114
6.08225e-114
6.3223e-114
6.28049e-114
6.27282e-114
6.10571e-114
6.08876e-114
6.38497e-114
6.07358e-114
6.40981e-114
6.06999e-114
6.31333e-114
6.02558e-114
6.36069e-114
5.94058e-114
6.15244e-114
6.27153e-114
5.8658e-114
5.19051e-111
5.18748e-111
5.33425e-111
5.05585e-111
5.25608e-111
5.22084e-111
5.21357e-111
5.07314e-111
5.0606e-111
5.30647e-111
5.049e-111
5.32777e-111
5.04596e-111
5.24817e-111
5.01073e-111
5.28848e-111
4.93813e-111
5.11381e-111
5.21326e-111
4.8748e-111
2.51495e-108
2.51118e-108
2.58379e-108
2.44799e-108
2.54538e-108
2.5282e-108
2.52406e-108
2.45522e-108
2.4497e-108
2.5691e-108
2.44468e-108
2.57962e-108
2.44332e-108
2.54144e-108
2.42723e-108
2.56139e-108
2.39064e-108
2.47591e-108
2.52443e-108
2.35928e-108
8.49623e-106
8.47469e-106
8.72746e-106
8.26371e-106
8.59496e-106
8.53717e-106
8.51977e-106
8.28367e-106
8.26569e-106
8.67338e-106
8.25139e-106
8.70881e-106
8.24797e-106
8.58155e-106
8.19789e-106
8.6502e-106
8.06612e-106
8.35748e-106
8.52357e-106
7.9571e-106
2.00528e-103
1.99777e-103
2.06005e-103
1.94877e-103
2.02781e-103
2.01445e-103
2.0091e-103
1.95228e-103
1.94779e-103
2.04622e-103
1.94526e-103
2.05432e-103
1.94502e-103
2.02482e-103
1.93457e-103
2.04127e-103
1.90037e-103
1.97087e-103
2.01093e-103
1.87357e-103
3.19567e-101
3.17859e-101
3.28505e-101
3.10245e-101
3.23096e-101
3.21081e-101
3.19874e-101
3.1055e-101
3.09651e-101
3.26102e-101
3.09459e-101
3.27265e-101
3.09609e-101
3.22701e-101
3.08285e-101
3.25345e-101
3.01926e-101
3.13784e-101
3.20427e-101
2.97381e-101
3.35313e-99
3.32694e-99
3.45338e-99
3.2507e-99
3.39112e-99
3.37275e-99
3.35276e-99
3.2498e-99
3.23507e-99
3.42562e-99
3.23718e-99
3.43435e-99
3.24312e-99
3.38937e-99
3.23585e-99
3.41686e-99
3.1494e-99
3.28901e-99
3.36435e-99
3.09648e-99
1.1689e-97
1.1665e-97
1.18568e-97
1.13349e-97
1.17388e-97
1.15947e-97
1.16495e-97
1.13711e-97
1.14381e-97
1.17495e-97
1.13952e-97
1.18602e-97
1.133e-97
1.16738e-97
1.12041e-97
1.17996e-97
1.1276e-97
1.14458e-97
1.16035e-97
1.11755e-97
1.19736e-97
1.20498e-97
1.19499e-97
1.1636e-97
1.19437e-97
1.17137e-97
1.19178e-97
1.17303e-97
1.1936e-97
1.18431e-97
1.1822e-97
1.20502e-97
1.1655e-97
1.18086e-97
1.14025e-97
1.19686e-97
1.19194e-97
1.17197e-97
1.17604e-97
1.19176e-97
1.68656e-97
1.7237e-97
1.71485e-97
1.70995e-97
1.68782e-97
1.70874e-97
1.74011e-97
1.70543e-97
1.74716e-97
1.76042e-97
1.73162e-97
1.76142e-97
1.71722e-97
1.69568e-97
1.68241e-97
1.71715e-97
1.70197e-97
1.69515e-97
1.70082e-97
1.72053e-97
2.03386e-97
2.05728e-97
2.05953e-97
2.05053e-97
2.0168e-97
1.97479e-97
2.00789e-97
1.96784e-97
2.02981e-97
2.10904e-97
2.08823e-97
2.01658e-97
2.06696e-97
2.04562e-97
2.03569e-97
2.05977e-97
1.96638e-97
2.06101e-97
2.02674e-97
2.02814e-97
2.2773e-97
2.36193e-97
2.32026e-97
2.31584e-97
2.30641e-97
2.34335e-97
2.41947e-97
2.31311e-97
2.32838e-97
2.31237e-97
2.31831e-97
2.31074e-97
2.3076e-97
2.28699e-97
2.24134e-97
2.30329e-97
2.32335e-97
2.27208e-97
2.25894e-97
2.27877e-97
2.48513e-97
2.51406e-97
2.563e-97
2.57784e-97
2.54243e-97
2.5994e-97
2.54075e-97
2.57877e-97
2.57361e-97
2.44541e-97
2.48851e-97
2.47517e-97
2.50205e-97
2.43985e-97
2.45464e-97
2.45868e-97
2.47567e-97
2.50596e-97
2.48687e-97
2.52664e-97
2.53649e-97
2.56664e-97
2.59815e-97
2.60211e-97
2.55944e-97
2.56492e-97
2.58093e-97
2.62794e-97
2.54134e-97
2.58298e-97
2.55032e-97
2.56172e-97
2.62494e-97
2.56654e-97
2.52944e-97
2.66418e-97
2.55039e-97
2.53673e-97
2.5699e-97
2.63276e-97
2.5443e-97
2.50639e-97
2.56084e-97
2.50609e-97
2.54314e-97
2.55187e-97
2.58528e-97
2.54866e-97
2.47332e-97
2.50413e-97
2.50518e-97
2.59696e-97
2.54173e-97
2.59128e-97
2.58649e-97
2.58354e-97
2.56588e-97
2.53964e-97
2.51992e-97
2.53528e-97
2.31359e-97
2.35197e-97
2.32088e-97
2.42646e-97
2.3596e-97
2.42851e-97
2.38476e-97
2.37972e-97
2.36054e-97
2.36674e-97
2.34657e-97
2.40804e-97
2.3841e-97
2.44328e-97
2.35144e-97
2.41896e-97
2.40301e-97
2.30463e-97
2.41557e-97
2.39189e-97
2.0801e-97
2.18643e-97
2.14225e-97
2.14684e-97
2.10615e-97
2.21707e-97
2.18586e-97
2.17419e-97
2.16792e-97
2.11219e-97
2.16812e-97
2.21627e-97
2.13977e-97
2.27743e-97
2.18052e-97
2.22529e-97
2.25393e-97
2.17114e-97
2.22168e-97
2.2305e-97
1.85746e-97
1.85064e-97
1.8253e-97
1.86467e-97
1.90607e-97
1.89373e-97
1.86342e-97
1.82204e-97
1.89912e-97
1.83414e-97
1.88912e-97
1.88767e-97
1.8616e-97
1.90281e-97
1.91407e-97
1.93242e-97
1.87304e-97
1.92917e-97
1.90209e-97
1.96438e-97
1.41373e-97
1.431e-97
1.41612e-97
1.40899e-97
1.4539e-97
1.4304e-97
1.47809e-97
1.43063e-97
1.47918e-97
1.47616e-97
1.44998e-97
1.49543e-97
1.4331e-97
1.50164e-97
1.44714e-97
1.44183e-97
1.4757e-97
1.49434e-97
1.46347e-97
1.52107e-97
3.93097e-115
3.93293e-115
4.0402e-115
3.83215e-115
3.98239e-115
3.95573e-115
3.95195e-115
3.84733e-115
3.83737e-115
4.02141e-115
3.82737e-115
4.03751e-115
3.82451e-115
3.97647e-115
3.79563e-115
4.00638e-115
3.74472e-115
3.87601e-115
3.95016e-115
3.69834e-115
6.33768e-112
6.33574e-112
6.51082e-112
6.17434e-112
6.41692e-112
6.37325e-112
6.36646e-112
6.19629e-112
6.18244e-112
6.47758e-112
6.16742e-112
6.50452e-112
6.16256e-112
6.40684e-112
6.1178e-112
6.45622e-112
6.03438e-112
6.2446e-112
6.36431e-112
5.95848e-112
5.23387e-109
5.22779e-109
5.37471e-109
5.09557e-109
5.29635e-109
5.25992e-109
5.25341e-109
5.11144e-109
5.1015e-109
5.34479e-109
5.09017e-109
5.36763e-109
5.08615e-109
5.28768e-109
5.05091e-109
5.32936e-109
4.98006e-109
5.15316e-109
5.25241e-109
4.91628e-109
2.5189e-106
2.51369e-106
2.58585e-106
2.45066e-106
2.54762e-106
2.53003e-106
2.52627e-106
2.45714e-106
2.45288e-106
2.57027e-106
2.44805e-106
2.58143e-106
2.44625e-106
2.54338e-106
2.43025e-106
2.56384e-106
2.39473e-106
2.4782e-106
2.52629e-106
2.36337e-106
8.35771e-104
8.33177e-104
8.57847e-104
8.12523e-104
8.44889e-104
8.39095e-104
8.37512e-104
8.14229e-104
8.1287e-104
8.52254e-104
8.11537e-104
8.55942e-104
8.11059e-104
8.43492e-104
8.06171e-104
8.50401e-104
7.93576e-104
8.21603e-104
8.37771e-104
7.8287e-104
1.94818e-101
1.93978e-101
1.99981e-101
1.89244e-101
1.96867e-101
1.95547e-101
1.95057e-101
1.89523e-101
1.89179e-101
1.98577e-101
1.88953e-101
1.9941e-101
1.88899e-101
1.96562e-101
1.87892e-101
1.98197e-101
1.84652e-101
1.91357e-101
1.95208e-101
1.82053e-101
3.05328e-99
3.0352e-99
3.13612e-99
2.9629e-99
3.08475e-99
3.06518e-99
3.05412e-99
2.96482e-99
2.95762e-99
3.11228e-99
2.95615e-99
3.1241e-99
2.95714e-99
3.08078e-99
2.94461e-99
3.10665e-99
2.88511e-99
2.99618e-99
3.05899e-99
2.84173e-99
3.15976e-97
3.13317e-97
3.25138e-97
3.0618e-97
3.19305e-97
3.17537e-97
3.15704e-97
3.05987e-97
3.04739e-97
3.2243e-97
3.04982e-97
3.23332e-97
3.05498e-97
3.19118e-97
3.04823e-97
3.21786e-97
2.96818e-97
3.09732e-97
3.16758e-97
2.91833e-97
1.06869e-95
1.06597e-95
1.08354e-95
1.03613e-95
1.07272e-95
1.05977e-95
1.06475e-95
1.03907e-95
1.04551e-95
1.07365e-95
1.04172e-95
1.08377e-95
1.03575e-95
1.06698e-95
1.0244e-95
1.07845e-95
1.03079e-95
1.04608e-95
1.06041e-95
1.0216e-95
1.08696e-95
1.09368e-95
1.08467e-95
1.05656e-95
1.08405e-95
1.06371e-95
1.08221e-95
1.06488e-95
1.08383e-95
1.07517e-95
1.07349e-95
1.09379e-95
1.05832e-95
1.07225e-95
1.03555e-95
1.08636e-95
1.08201e-95
1.06394e-95
1.06759e-95
1.08198e-95
1.53258e-95
1.56588e-95
1.55842e-95
1.55321e-95
1.53353e-95
1.55225e-95
1.58083e-95
1.54893e-95
1.58735e-95
1.59836e-95
1.57331e-95
1.59955e-95
1.55986e-95
1.54047e-95
1.52817e-95
1.55969e-95
1.54599e-95
1.5399e-95
1.5454e-95
1.5631e-95
1.83964e-95
1.86073e-95
1.86302e-95
1.85425e-95
1.82422e-95
1.78615e-95
1.81665e-95
1.78016e-95
1.8366e-95
1.90738e-95
1.8888e-95
1.82386e-95
1.87015e-95
1.85027e-95
1.84163e-95
1.86306e-95
1.77859e-95
1.864e-95
1.83273e-95
1.83447e-95
2.06125e-95
2.13699e-95
2.10003e-95
2.09518e-95
2.08774e-95
2.12063e-95
2.18967e-95
2.0931e-95
2.10697e-95
2.0922e-95
2.09778e-95
2.09115e-95
2.08901e-95
2.07031e-95
2.02915e-95
2.08462e-95
2.10273e-95
2.05646e-95
2.04463e-95
2.06247e-95
2.23506e-95
2.26045e-95
2.30388e-95
2.31805e-95
2.28638e-95
2.33702e-95
2.28454e-95
2.31879e-95
2.31388e-95
2.1986e-95
2.23754e-95
2.22591e-95
2.25014e-95
2.19446e-95
2.20719e-95
2.21129e-95
2.22594e-95
2.25365e-95
2.23634e-95
2.27244e-95
2.28478e-95
2.31134e-95
2.34018e-95
2.34297e-95
2.3047e-95
2.31035e-95
2.32491e-95
2.36683e-95
2.28885e-95
2.32645e-95
2.2978e-95
2.30756e-95
2.36368e-95
2.31174e-95
2.27886e-95
2.39917e-95
2.29746e-95
2.28458e-95
2.31468e-95
2.37009e-95
2.27313e-95
2.23831e-95
2.28671e-95
2.23851e-95
2.27182e-95
2.28004e-95
2.30914e-95
2.27657e-95
2.2095e-95
2.23682e-95
2.23705e-95
2.31947e-95
2.27059e-95
2.31513e-95
2.31021e-95
2.30803e-95
2.29163e-95
2.26922e-95
2.25092e-95
2.26467e-95
2.07518e-95
2.10903e-95
2.08149e-95
2.17616e-95
2.11592e-95
2.17747e-95
2.13798e-95
2.13433e-95
2.11665e-95
2.12213e-95
2.10464e-95
2.15921e-95
2.13709e-95
2.19084e-95
2.10817e-95
2.1688e-95
2.15429e-95
2.06649e-95
2.16546e-95
2.14499e-95
1.85098e-95
1.94551e-95
1.90621e-95
1.91001e-95
1.87388e-95
1.97293e-95
1.94488e-95
1.93489e-95
1.92893e-95
1.87968e-95
1.92935e-95
1.97202e-95
1.9042e-95
2.02613e-95
1.93969e-95
1.97946e-95
2.00487e-95
1.93172e-95
1.97675e-95
1.98437e-95
1.66426e-95
1.65812e-95
1.63576e-95
1.67085e-95
1.70768e-95
1.6966e-95
1.6693e-95
1.63314e-95
1.70193e-95
1.64337e-95
1.69272e-95
1.69123e-95
1.66761e-95
1.70514e-95
1.7146e-95
1.73168e-95
1.67807e-95
1.72826e-95
1.70394e-95
1.75973e-95
1.26417e-95
1.27945e-95
1.26621e-95
1.25986e-95
1.29963e-95
1.27895e-95
1.32078e-95
1.27915e-95
1.32177e-95
1.31956e-95
1.29611e-95
1.33656e-95
1.28136e-95
1.34229e-95
1.29346e-95
1.28892e-95
1.31879e-95
1.33554e-95
1.30817e-95
1.35918e-95
4.11775e-113
4.1174e-113
4.22897e-113
4.01217e-113
4.16877e-113
4.14004e-113
4.13673e-113
4.02685e-113
4.01861e-113
4.20769e-113
4.00839e-113
4.22567e-113
4.0046e-113
4.16192e-113
3.97458e-113
4.19409e-113
3.92314e-113
4.05745e-113
4.13432e-113
3.87459e-113
6.53894e-110
6.53317e-110
6.71242e-110
6.36725e-110
6.61613e-110
6.56992e-110
6.56395e-110
6.38793e-110
6.37707e-110
6.67572e-110
6.36202e-110
6.70523e-110
6.35577e-110
6.60483e-110
6.30992e-110
6.65706e-110
6.22688e-110
6.43864e-110
6.56086e-110
6.14868e-110
5.29413e-107
5.28498e-107
5.43237e-107
5.15177e-107
5.3536e-107
5.31593e-107
5.31018e-107
5.16622e-107
5.15889e-107
5.40025e-107
5.14783e-107
5.4247e-107
5.14279e-107
5.3442e-107
5.10737e-107
5.38737e-107
5.0382e-107
5.20912e-107
5.30843e-107
4.9738e-107
2.51265e-104
2.50604e-104
2.57741e-104
2.44346e-104
2.53951e-104
2.52162e-104
2.51828e-104
2.44916e-104
2.44617e-104
2.56103e-104
2.44156e-104
2.57279e-104
2.43931e-104
2.53503e-104
2.42345e-104
2.55591e-104
2.3892e-104
2.47049e-104
2.51794e-104
2.358e-104
8.18632e-102
8.15636e-102
8.39583e-102
7.95509e-102
8.26975e-102
8.21202e-102
8.19784e-102
7.96927e-102
7.95999e-102
8.33852e-102
7.94767e-102
8.37661e-102
7.94159e-102
8.2554e-102
7.89399e-102
8.32457e-102
7.77447e-102
8.04259e-102
8.19917e-102
7.6699e-102
1.88138e-99
1.87222e-99
1.92966e-99
1.82677e-99
1.89979e-99
1.88685e-99
1.88242e-99
1.82887e-99
1.82645e-99
1.91556e-99
1.82446e-99
1.92404e-99
1.82363e-99
1.89673e-99
1.81395e-99
1.91286e-99
1.78355e-99
1.84683e-99
1.8836e-99
1.75852e-99
2.89905e-97
2.88025e-97
2.9752e-97
2.81204e-97
2.92674e-97
2.9079e-97
2.89787e-97
2.81293e-97
2.80743e-97
2.95177e-97
2.80636e-97
2.96367e-97
2.80687e-97
2.92283e-97
2.79504e-97
2.94796e-97
2.73989e-97
2.8431e-97
2.90207e-97
2.6988e-97
2.9558e-95
2.92919e-95
3.03873e-95
2.86286e-95
2.98454e-95
2.96767e-95
2.95106e-95
2.86006e-95
2.84973e-95
3.01259e-95
2.85242e-95
3.02178e-95
2.85681e-95
2.98261e-95
2.85052e-95
3.0083e-95
2.77715e-95
2.89553e-95
2.9605e-95
2.73061e-95
9.69835e-94
9.66886e-94
9.82851e-94
9.40126e-94
9.72998e-94
9.61461e-94
9.65966e-94
9.42465e-94
9.4857e-94
9.7382e-94
9.45268e-94
9.83006e-94
9.39843e-94
9.6799e-94
9.29691e-94
9.78366e-94
9.35313e-94
9.48987e-94
9.61904e-94
9.26982e-94
9.79002e-94
9.84868e-94
9.76815e-94
9.51855e-94
9.76206e-94
9.58391e-94
9.75005e-94
9.59115e-94
9.76442e-94
9.68437e-94
9.67132e-94
9.85044e-94
9.5347e-94
9.66004e-94
9.33103e-94
9.78326e-94
9.74525e-94
9.58307e-94
9.61552e-94
9.7461e-94
1.38222e-93
1.41185e-93
1.40565e-93
1.40028e-93
1.38291e-93
1.39953e-93
1.42536e-93
1.39626e-93
1.43135e-93
1.44034e-93
1.41877e-93
1.44165e-93
1.40631e-93
1.38898e-93
1.37768e-93
1.40606e-93
1.39379e-93
1.3884e-93
1.39366e-93
1.40944e-93
1.65209e-93
1.67093e-93
1.67321e-93
1.66476e-93
1.63823e-93
1.60399e-93
1.63188e-93
1.59889e-93
1.64992e-93
1.71266e-93
1.69621e-93
1.63779e-93
1.67998e-93
1.66161e-93
1.65416e-93
1.67309e-93
1.59723e-93
1.67378e-93
1.64543e-93
1.64742e-93
1.8533e-93
1.92062e-93
1.88807e-93
1.88297e-93
1.87725e-93
1.90633e-93
1.96852e-93
1.88145e-93
1.89396e-93
1.88042e-93
1.88563e-93
1.87986e-93
1.87857e-93
1.86173e-93
1.82488e-93
1.87419e-93
1.89043e-93
1.84895e-93
1.83838e-93
1.85432e-93
1.99901e-93
2.02115e-93
2.05944e-93
2.07288e-93
2.0447e-93
2.08945e-93
2.04277e-93
2.07344e-93
2.06878e-93
1.96574e-93
2.00072e-93
1.99064e-93
2.01236e-93
1.9628e-93
1.97366e-93
1.97775e-93
1.99028e-93
2.01549e-93
1.99987e-93
2.03248e-93
2.04781e-93
2.07101e-93
2.09728e-93
2.09906e-93
2.06494e-93
2.07065e-93
2.08385e-93
2.12098e-93
2.05117e-93
2.0849e-93
2.05993e-93
2.06823e-93
2.11775e-93
2.07181e-93
2.04284e-93
2.14968e-93
2.05931e-93
2.04724e-93
2.07436e-93
2.12291e-93
2.02457e-93
1.99272e-93
2.03557e-93
1.99331e-93
2.02314e-93
2.03084e-93
2.05609e-93
2.02722e-93
1.96773e-93
1.99187e-93
1.99141e-93
2.06517e-93
2.02213e-93
2.062e-93
2.05705e-93
2.05552e-93
2.04036e-93
2.0213e-93
2.00441e-93
2.0167e-93
1.85625e-93
1.88601e-93
1.86169e-93
1.9463e-93
1.89221e-93
1.94702e-93
1.91148e-93
1.90899e-93
1.89274e-93
1.89759e-93
1.88249e-93
1.93078e-93
1.91042e-93
1.95908e-93
1.8849e-93
1.93916e-93