/*--------------------------------*- C++ -*----------------------------------*\
| =========                 |                                                 |
| \\      /  F ield         | OpenFOAM: The Open Source CFD Toolbox           |
|  \\    /   O peration     | Version:  2212                                  |
|   \\  /    A nd           | Website:  www.openfoam.com                      |
|    \\/     M anipulation  |                                                 |
\*---------------------------------------------------------------------------*/
FoamFile
{
    version     2.0;
    format      ascii;
    arch        "LSB;label=32;scalar=64";
    class       volScalarField;
    location    "0.095";
    object      k;
}
// * * * * * * * * * * * * * * * * * * * * * * * * * * * * * * * * * * * * * //

dimensions      [0 2 -2 0 0 0 0];

internalField   nonuniform List<scalar> 
2308
(
394.967
764.216
681.905
152.325
193.569
164.802
197.531
215.58
204.816
111.018
113.502
117.486
120.887
124.545
128.37
132.385
136.568
146.358
142.289
137.96
133.699
129.627
125.623
121.432
118.565
115.776
111.884
109.076
188.225
140.983
106.604
104.352
102.198
100.106
98.0182
95.9617
93.9954
92.1454
90.4276
88.8721
87.4892
86.2867
85.2396
84.3195
83.5034
80.3231
81.4021
82.5039
83.6228
84.7588
85.9499
87.2158
88.5612
89.9819
91.5152
93.1225
94.8208
96.6998
98.8111
101.124
103.575
106.08
107.699
110.064
112.523
115.215
118.319
121.853
125.684
129.805
134.262
82.8227
79.316
151.579
147.08
142.679
138.461
134.46
130.762
127.849
124.885
121.164
118.486
116.32
114.205
111.982
109.649
107.238
104.769
102.326
100.029
97.9741
96.1764
94.6821
93.5093
92.629
91.9535
91.449
151.031
91.1095
145.599
139.091
78.9514
80.2602
81.6184
82.8842
83.9609
84.7686
85.3427
85.8382
86.424
87.2908
88.4697
89.895
91.5357
93.3697
95.3783
97.7347
100.239
102.696
104.807
107.29
109.982
112.945
116.084
119.464
123.114
127.036
131.304
234.71
157.234
157.203
157.83
168.686
163.709
159.359
155.226
151.381
147.787
144.402
141.415
138.294
134.88
132.05
129.594
127.167
124.605
121.779
118.758
115.739
112.934
110.388
108.161
106.272
104.737
103.523
102.608
101.999
101.767
101.799
101.972
90.9505
82.2774
78.4165
211.009
77.7616
254.451
256.754
144.487
238.726
194.128
156.385
136.045
102.309
91.0937
81.9218
77.6927
76.8024
78.2066
79.4565
81.0491
82.8673
84.7568
86.4898
87.7918
88.4601
88.4828
87.9485
87.3448
87.3005
87.9012
88.8576
90.0003
91.2659
92.8103
94.7865
97.2183
99.7889
102.336
105.095
108.026
111.118
114.229
117.414
120.752
124.338
128.248
183.095
338.186
183.438
229.9
220.651
211.898
203.887
196.49
189.364
182.828
177.93
173.619
169.626
165.911
162.519
159.165
155.753
152.341
149.046
145.995
142.911
139.507
135.708
131.422
126.87
122.588
118.995
116.321
114.509
113.248
112.397
111.867
111.415
110.903
110.437
110.199
110.014
109.996
541.777
251.567
399.567
196.855
1226.59
271.871
141.383
171.92
81.5972
83.3174
85.5596
88.1223
90.7987
93.0858
94.353
94.0139
92.0289
89.2668
87.1632
86.4198
86.7075
87.4839
88.5171
89.735
91.1267
93.0058
95.5254
98.4294
101.578
104.901
108.346
111.581
114.486
117.207
120.028
123.043
126.367
132.62
231.568
230.606
240.945
231.966
223.208
214.869
206.958
199.426
192.607
186.496
180.65
175.096
169.956
165.187
160.563
155.986
151.628
147.746
144.403
141.328
138.08
134.447
129.953
124.967
120.39
116.981
114.781
113.424
112.472
111.729
110.99
110.169
109.246
108.383
107.817
107.668
108.01
108.927
110.225
102.828
91.4896
81.7616
77.1743
76.103
77.3364
80.4371
407.398
421.853
3594.45
277.254
358.586
1540.81
130.17
137.61
248.823
275.652
314.202
183.307
230.774
218.746
207.859
198.446
189.905
182.239
175.675
170.389
165.866
161.607
157.562
153.402
148.956
144.373
140.143
136.857
134.918
133.361
131.199
127.427
122.275
116.351
110.56
106.144
103.952
103.346
103.375
103.79
103.849
102.935
101.632
100.633
100.424
101.29
103.386
106.996
112.53
110.675
110.84
103.634
92.1221
81.8811
76.9353
75.7466
76.9149
79.9013
86.4779
86.9765
88.5726
91.1511
94.5812
98.61
102.82
106.458
108.324
107.126
102.648
96.307
91.3159
88.6895
87.9546
88.312
88.8711
89.4109
90.4825
92.42
95.2166
98.5527
102.349
106.542
110.901
114.786
117.851
120.198
122.18
124.208
126.559
229.401
134.625
143.174
190.234
270.205
304.236
299.074
284.4
233.992
245.007
222.083
207.843
194.851
184.116
175.519
168.233
161.929
156.652
151.822
147.021
142.135
137.448
132.719
128.191
124.055
120.018
117.255
116.47
118.083
121.085
122.359
120.21
114.687
107.213
100.873
97.2089
95.5515
94.1976
93.2042
92.1022
91.2138
90.5053
90.7769
92.793
97.3497
105.045
115.929
129.849
145.755
119.985
113.364
111.869
104.673
93.0843
82.344
76.9748
75.7074
76.8956
79.9635
87.1095
103.28
100.448
100.022
101.827
105.56
110.868
117.334
124.307
130.611
133.885
130.649
120.028
106.845
96.4683
90.9126
89.0563
89.441
90.6371
91.5582
92.7635
95.5247
99.4793
104.283
109.697
115.519
120.694
124.778
127.404
128.221
128.478
129.047
129.911
129.539
244.81
230.07
7742.74
133.281
259.072
290.388
316.049
148.804
206.355
180.049
139.671
297.87
330.583
162.266
129.043
117.08
113.425
106.067
94.3716
83.211
77.3749
76.0464
77.3083
80.6591
88.9978
108.753
150.295
137.128
128.534
124.658
125.215
129.588
137.066
146.982
158.451
169.904
177.885
176.423
162.003
137.848
115.391
102.281
96.7728
95.5189
96.0917
96.7371
98.9418
103.614
109.358
115.993
123.612
131.401
138.218
143.794
146.185
144.944
140.919
136.775
133.894
131.291
183.996
262.944
224.176
1539.12
188.746
177.244
167.384
158.508
150.883
144.056
137.955
132.522
127.906
124.337
121.65
118.949
115.944
113.197
111.099
111.256
115.61
125.099
135.806
141.963
141.128
132.787
119.725
107.406
97.9325
92.7818
91.5631
92.4051
92.5411
91.5462
91.6198
94.3167
101.183
113.214
130.668
152.68
177.207
201.618
223.856
232.101
244.776
515.949
145.309
331.97
137.833
226.498
200.067
179.879
167.434
163.426
166.811
176.125
189.965
207.212
226.561
243.826
250.355
238.144
202.317
157.967
128.686
114.129
107.592
106.695
108.218
112.092
119.753
129.956
141.177
153.232
165.65
175.837
182.42
182.896
176.357
163.008
151.746
146.224
132.843
174.897
285.036
242.96
177.936
138.798
121.608
115.415
107.693
95.9105
84.3755
78.0775
76.6799
78.0557
81.9497
92.1955
116.762
167.274
256.355
185.032
352.015
330.28
295.793
260.516
173.655
163.369
697.016
191.008
191.726
182.46
173.763
164.868
156.641
148.608
140.129
132.866
127.302
122.877
118.373
114.795
111.827
110.48
112.144
117.656
130.752
155.314
180.745
195.498
196.778
184.974
161.495
136.288
117.46
106.92
101.56
100.188
100.837
101.906
105.034
112.908
129.234
155.406
188.86
225.781
260.574
290.324
315.001
335.61
492.287
133.778
151.878
234.428
262.072
246.659
173.945
516.889
547.251
164.78
143.317
142.869
172.691
398.194
227.151
470.566
397.199
354.907
311.884
272.572
242.812
225.951
223.206
231.768
248.951
272.274
300.976
330.365
347.459
335.465
286.855
218.727
171.64
146.95
133.899
126.396
125.14
130.33
142.119
156.601
172.054
189.376
208.245
225.295
238.21
244.006
235.748
212.352
186.661
165.376
145.193
176.753
443.832
454.602
354.219
259.57
192.168
148.68
126.82
117.887
109.64
97.8334
85.9812
79.17
77.6844
79.2199
83.9219
96.7963
127.262
187.202
287.384
437.809
199.461
378.004
345.263
300.436
278
270.578
1442.43
307.204
229.904
218.352
210.555
201.44
189.822
179.499
169.289
157.849
146.679
136.829
130.212
125.245
121.947
120.768
122.986
130.071
144.644
174.513
219.149
257.541
278.995
282.521
265.804
229.156
185.907
151.868
134.922
129.949
130.827
131.797
133.052
140.551
158.642
194.188
243.552
294.762
342.728
382.385
413.831
440.13
463.351
487
186.765
134.529
399.542
214.129
225.028
237.471
137.697
284.078
248.948
263.03
513.728
329.38
871.377
155.461
161.681
169.425
511.985
485.802
182.954
202.2
234.38
282.941
327.033
337.875
320.871
298.129
272.478
245.096
217.694
191.93
171.248
160.061
156.575
158.5
172.837
204.473
256.728
343.048
446.007
499.638
496.075
453.308
403.139
362.105
331.511
312.216
311.056
332.581
376.99
433.465
494.686
551.723
602.962
651.344
468.548
512.424
372.222
274.194
204.518
157.958
132.216
120.587
111.734
99.9658
87.8564
80.5344
78.9259
80.6644
86.5115
102.734
139.729
208.714
318.282
476.274
697.922
178.336
138.16
204.62
551.73
548.201
545.11
541.497
535.483
509.069
487.672
465.226
241.705
456.54
320.227
492.411
387.936
221.882
231.529
242.736
143.02
190.106
504.369
427.76
385.239
332.464
335.154
366.833
278.099
580.305
291.41
272.233
267.794
265.552
255.915
240.065
225.609
211.346
194.376
176.339
161.996
152.301
143.277
137.829
138.81
148.999
171.218
208.678
270.181
334.683
380.799
407.869
417.435
404.307
359.997
292.09
234.528
200.663
180.231
172.997
175.603
184.332
208.807
258.015
335.829
411.955
472.318
519.601
557.032
588.081
617.409
647.259
681.397
720.323
286.155
280.876
271.764
490.305
307.43
138.083
675.238
295.801
442.008
264.84
282.843
251.528
252.936
242.144
234.187
461.11
259.123
501.835
520
328.365
357.334
372.772
547.4
559.489
579.129
234.048
276.383
326.5
400.309
462.434
466.86
426.322
381.741
340.282
295.808
255.086
218.534
187.417
168.186
166.155
183.173
223.406
278.869
351.491
468.546
614.31
698.857
690.185
618.802
541.508
487.482
452.582
442.61
470.886
539.313
626.087
707.115
777.936
839.719
898.767
957.307
1017.75
549.128
460.942
377.02
379.989
437.752
470.918
1705.71
170.628
140.185
213.435
245.588
449.022
446.189
286.886
251.445
157.343
494.484
2115.12
229.619
181.796
593.484
484.697
520.109
497.26
768.132
542.386
391.543
288.092
215.626
166.553
137.652
123.599
114.092
102.395
90.1211
82.2839
80.5186
82.5331
89.903
110.12
154.004
231.536
349.125
514.886
747.169
1086.03
587.043
583.656
579.417
575.62
570.715
596.021
703.193
139.095
196.064
262.395
302.529
348.373
516.302
433.351
282.64
960.721
332.854
255.706
418.753
143.771
1168.84
582.17
267.167
438.487
377.968
354.746
342.189
350.594
361.757
349.148
319.827
296.104
275.603
250.655
219.972
194.319
176.505
161.43
155.742
162.857
186.016
225.725
287.491
374.916
457.796
521.922
568.781
596.496
594.027
541.098
435.816
340.962
290.53
262.168
252.346
260.147
282.704
331.331
429.25
547.263
642.208
710.953
760.394
799.605
836.006
876.464
923.1
976.321
1037.56
1112.46
1333.59
486.547
1032.21
226.717
439.115
265.185
529.842
415.374
195.398
442.698
173.871
205.216
877.775
885.646
727.796
539.782
449.349
560.378
590.589
568.719
545.753
606.136
519.862
360.665
291.199
434.271
230.213
242.203
274.22
316.729
415.953
583.228
689.03
685.517
601.426
517.485
446.731
379.835
313.196
258.97
218.003
194.582
197.716
226.911
280.226
378.742
538.251
766.441
981.018
1082.03
1028.56
876.482
748.202
671.524
638.658
679.281
800.87
947.377
1060.14
1141.23
1206.53
1272.09
1343.9
1422.42
1510.42
1614.45
737.662
750.109
740.899
708.851
1027.73
951.915
443.047
435.802
463.483
529.555
520.927
539.426
150.807
818.024
172.987
141.122
205.558
237.522
321.913
304.252
444.289
425.03
473.499
303.526
154.469
404.938
162.517
383.492
368.768
294.819
263.082
399.398
150.526
166.066
275.448
426.835
754.924
785.861
638.161
382.665
572.796
627.343
629.254
626.119
623.823
620.554
617.832
615.604
625.265
670.893
188.093
144.802
270.241
284.473
513.22
846.808
610.514
590.339
505.759
440.734
430.54
500.995
557.975
527.353
453.877
408.514
384.232
372.237
345.308
293.801
237.192
202.772
194.1
213.446
263.627
351.218
472.776
595.941
678.825
742.822
812.084
880.414
920.514
894.722
782.524
647.295
515.226
413.095
363.897
371.306
475.922
673.45
861.428
980.412
1048.37
1094.29
1132.77
1174.07
1225.37
1288.09
1361.15
1444.52
1541.84
1657.96
1794.42
1203.07
826.505
578.91
414.092
302.639
226.041
174.271
142.708
126.494
116.36
104.865
92.5377
84.2187
82.2609
84.6549
93.9548
118.653
169.446
254.593
379.433
553.88
800.954
1166.88
1741.05
261.079
410.928
691.382
587.219
337.931
1172.94
636.354
677.478
170.808
149.218
1303.68
1312.59
1102.05
794.02
520.104
430.503
425.835
465.843
600.802
824.429
1020.89
766.416
980.018
148.583
219.112
337.72
421.357
398.674
147.5
503.026
778.954
378.235
274.948
375.368
158.12
603.814
244.853
775.321
716.43
641.605
567.416
542.442
588.952
784.99
594.219
594.774
249.017
1088.42
1157
1208.76
1221.53
1182.36
1046.09
180.588
152.192
1876.66
286.57
711.207
682.137
677.482
677.056
675.42
673.97
671.853
670.379
671.266
669.235
689.557
836.98
1017.65
495.344
205.709
352.26
163.678
1497.77
222.043
972.267
754.933
571.887
528.884
600.372
770.045
893.027
828.681
664.392
579.961
570.512
637.748
640.456
529.7
376.671
259.127
223.676
247.01
331.533
512.269
721.488
895.603
985.442
1056.15
1169.27
1303.87
1411.34
1436.65
1291.42
1038.42
750.699
511.062
422.892
490.455
759.873
1094.21
1368.79
1538.19
1617.64
1672.43
1726.86
1797.7
1888.74
1996.86
2114.48
2242.84
2389.95
2562.86
2767.18
3002.71
1956
1313.2
899.459
625.421
442.462
319.748
236.904
181.626
147.507
129.41
118.744
107.527
95.2517
86.5009
84.3423
87.2627
98.8965
128.53
186.232
278.732
411.56
597.858
865.666
1266.26
1891.86
2909.11
2685.42
2493.34
2334.75
2200.31
2081.97
1973.82
1878.68
1801.16
1721.49
1610.51
1427.81
1206.86
1031.11
963.75
1040.71
1250.31
1537.58
1591.33
1400.11
1060.15
706.197
437.422
306.223
257.084
269.394
321.425
350.516
389.232
445.561
520.926
582.614
694.752
840.764
1012
1006.32
854.142
601.04
392.901
315.917
300.738
331.805
362.335
355.636
485.017
781.833
403.798
340.869
712.764
499.286
163.224
891.634
303.87
1310.8
147.066
165.498
232.53
198.221
249.626
264.876
404.033
435.291
485.261
592.54
606.775
337.325
348.205
276.283
303.314
389.271
352.473
1197.48
160.629
369.649
286.42
338.433
604.601
358.438
408.602
404.532
265.03
212.59
151.844
1170.16
957.068
771.639
614.582
526.422
538.272
788.318
1282.34
1861.21
2138.68
2062.56
326.275
310.803
156.023
1321.01
1446.53
943.655
800.462
828.986
981.514
1090.64
1189.25
419.727
174.687
745.259
765.571
778.621
773.351
183.311
2245.26
191.793
337.034
204.534
478.886
942.801
1629.95
1813.41
1992.68
2131.47
2160.39
1990.49
1505.32
185.546
204.658
1178.81
1363.95
1456.45
918.708
1003.71
885.278
694.115
552.503
426.112
430.837
600.11
953.23
1438.81
1667.11
1727.05
1461.03
1080.93
876.278
1039.01
1116.2
1148.95
1183.68
1075.88
705.586
514.831
516.607
720.48
1150.57
1958.55
2448.48
2710.36
2659.11
2090.09
1612.45
1406.03
2004.57
2573.06
2736.55
2812.5
2876.77
2959.72
3074.04
3228.9
3400.14
3582.88
3795.65
4046.39
4339.09
4673.69
311.5
290.95
3267.52
2141.75
1438.46
982.913
679.992
476.414
339.862
248.674
188.742
151.842
131.997
120.894
110.094
98.0309
88.9181
86.5477
90.1651
104.53
139.345
203.737
303.39
445.25
646.168
939.089
1380.28
2065.32
3168.46
5046.57
2122.84
751.097
740.703
739.4
738.939
738.028
736.985
735.421
734.067
735.39
732.923
756.306
736.49
817.463
688.521
741.464
836.495
833.036
1879.22
1631.1
1194.22
882.596
788.839
889.224
1446.73
1743.64
1548.03
1101.69
875.646
872.116
1367.25
1558.73
1354.34
846.36
523.367
367.854
372.126
530.617
888.783
1416.79
1617.51
1564.61
1617.31
1815.17
2063.21
2297.52
2470.39
2425.55
1927.25
1242.33
775.444
672.606
924.214
1736.91
2345.15
2558.04
2629.88
2668.83
2720.25
2804.03
2934.93
3099.7
3280.48
3462.06
3658.78
3888.41
4154.63
4460.6
4807.93
5185.27
470.667
487.149
383.149
421.084
214.582
230.176
155.447
173.949
355.969
305.134
3434.51
327.669
207.014
1451.12
2233.02
2389.76
1650.72
1143.11
1326.62
1685.43
1874.1
2111.6
1724.5
158.972
1793.93
1508.08
1543.74
1670.06
3485.99
1532.13
868.116
717.055
776.165
842.827
958.409
1261.93
2485.97
3133.47
3556.63
161.231
207.499
225.886
387.343
405.924
478.135
322.446
299.268
1103.18
1913.78
2559.28
2748.71
2692.55
1814.67
2231.34
2131.59
1647.3
1024.08
709.86
661.966
930.696
1735.6
2542.23
2814.4
2911.11
2415.43
1396.38
1400.89
2385.7
2598.15
2710.7
2782.5
2723.08
1959.77
1163.65
915.086
1073.96
1840.22
3328.94
4017.63
4393.52
4445.28
3254.63
1901.23
1921.18
3614.95
4515.59
4762.19
4915.92
5037.65
5188.55
5385.35
5639.47
5922.73
6228.77
6591.73
7003.34
7456.31
7947.09
8466.81
2406.88
2556.33
2900.16
3429.1
3951.19
4273.33
4286.52
3925.33
2339.07
182.804
406.69
307.78
397.306
363.374
193.869
165.106
1402.39
1547.06
1533.77
1257.94
217.484
1052.29
860.032
822.515
815.848
816.453
816.267
815.75
814.957
813.538
812.279
814.245
812.234
820.064
824.913
817.945
1234
7746.66
5633.02
3623.18
2391.3
1603.38
1090.38
749.862
520.511
366.338
263.983
197.73
157.425
135.919
124.596
114.362
102.548
93.0243
90.3207
94.7058
112.083
152.377
223.758
331.601
485.332
706.749
1034.2
1530.39
2295.76
3498.55
5490.26
9035.75
2331.01
2939.69
1968.58
1182.16
1030.55
1488.15
2645.96
2997.6
2679.52
1521.92
1080.24
1383.45
2619.78
2854.54
2687.32
1661.35
934.59
688.191
678.023
938.652
1739.4
2724.36
3000.39
2794.63
2834.99
3150.32
3494.69
3835.85
4113.37
4142.59
3447.42
1963.25
1156.88
1043.52
1619.2
3322.75
4169.18
4441.56
4565.74
4644.16
4757.2
4922.81
5147.37
5419.97
5719.95
6022.48
6357.39
6743.28
7170.28
7634.97
8137.07
8663.28
9238.71
314.275
398.676
371.011
202.196
171.937
14454.2
14105.1
775.974
476.667
14749.8
3824.21
9604.89
5926.76
1684.65
2524.88
768.479
1133.06
357.221
524.217
163.684
241.257
97.6874
118.311
92.6175
91.0829
114.265
102.003
137.302
125.112
205.021
160.75
392.594
278.428
820.477
564.737
1768.7
1200.1
3962.77
2628.48
14540.8
14815.6
9915.38
6158.77
13832
14220
12933
13398.9
11968
12446.4
11076.4
11517.7
10339.4
10677.2
9823.34
10058.4
9205.17
9600.44
6667.34
8289.96
3435.02
4781.96
5540.08
3862.22
8196.46
7051.59
8149.33
8486.73
7259.41
7702.09
6609.77
6856.59
5518.93
6384.22
2617.7
4050.1
2374.5
2208.89
4326.53
3068.52
5911.3
5532.96
3640.43
5186.4
3690.8
2375.56
5913.63
5226.66
3831.61
5174.09
2976.86
2668.28
5851.14
4537.79
7060.27
5857.26
6875.95
7004.07
5150.25
6092.59
3631.92
4256.47
2462.75
3248.73
1268.62
1698.74
3417.66
2557.15
5219.49
4919.69
6970.85
5616.01
9686.47
8573.56
9900.3
10228
23384.9
904.336
961.667
910.713
925.246
913.699
911.306
910.289
910.196
910.884
910.533
912.703
911.576
920.044
913.938
1685.18
926.309
5923.35
1009.91
6711.21
1495.4
4028.6
3940.71
5026.18
4492.76
4892.5
5242.43
4428.34
4649.83
4579.34
4416.76
5279.23
4925.9
5018.5
5345.63
4092.11
4466.78
3283
3612.32
4603.79
3838.85
2961.26
4093.88
1949.44
1418.7
4844.18
3537.73
5457.24
5468.38
4993.26
4596.08
3676.94
4593.8
1255.29
2391.65
1997.76
1295.19
4920.12
3528.73
5983.95
5753.02
3739.58
5371.73
5535.85
4318.21
6378.24
6137.09
5874.57
6374.42
3178.73
4731.26
2808.06
2407.25
6404.53
4409.68
8924.11
8051.91
6731.54
8629.46
5311.53
4480.25
8852.98
7218.64
10178.5
9760.05
10697.5
10436.6
11384.6
11000
12274.9
11815.4
13241.3
12762.4
13693.8
9576.66
1592.98
345.248
156.127
14901.5
328.15
14994.8
480.072
3420.01
1271.85
1310.5
1991.22
2121.74
4884.81
4231.7
149.332
474.15
355.783
353.817
330.512
176.297
161.378
165.449
216.287
193.898
204.591
217.286
194.779
205.549
219.026
196.354
207.1
221.372
199.284
209.643
752.285
182.857
12963.6
223.943
47645.2
169.119
318.85
692.996
237.415
266.228
316.606
161.473
155.184
969.549
604.498
169.119
1234.71
1270.96
786.326
563.476
204.033
249.181
726.053
179.656
5238.88
164.695
354.971
153.319
152.669
216.486
254.954
26647.8
502.649
384.723
2557.25
1174.22
364.448
684.772
498.58
338.348
1753.7
310.194
141.078
194.881
573.979
150.39
466.913
549.632
309.528
169.335
115.697
109.5
470.713
)
;

boundaryField
{
    wall
    {
        type            kqRWallFunction;
        value           nonuniform List<scalar> 
166
(
14454.2
14105.1
14749.8
14540.8
14815.6
13832
14220
12933
13398.9
11968
12446.4
11076.4
11517.7
10339.4
10677.2
9823.34
10058.4
9205.17
9600.44
6667.34
8289.96
3435.02
4781.96
5540.08
3862.22
8196.46
7051.59
8149.33
8486.73
7259.41
7702.09
6609.77
6856.59
5518.93
6384.22
2617.7
4050.1
2374.5
2208.89
4326.53
3068.52
5911.3
5532.96
3640.43
5186.4
3690.8
2375.56
5913.63
5226.66
3831.61
5174.09
2976.86
2668.28
5851.14
4537.79
7060.27
5857.26
6875.95
7004.07
5150.25
6092.59
3631.92
4256.47
2462.75
3248.73
1268.62
1698.74
3417.66
2557.15
5219.49
4919.69
6970.85
5616.01
9686.47
8573.56
9900.3
10228
23384.9
6711.21
4028.6
3940.71
5026.18
4492.76
4892.5
5242.43
4428.34
4649.83
4579.34
4416.76
5279.23
4925.9
5018.5
5345.63
4092.11
4466.78
3283
3612.32
4603.79
3838.85
2961.26
4093.88
1949.44
1418.7
4844.18
3537.73
5457.24
5468.38
4993.26
4596.08
3676.94
4593.8
1255.29
2391.65
1997.76
1295.19
4920.12
3528.73
5983.95
5753.02
3739.58
5371.73
5535.85
4318.21
6378.24
6137.09
5874.57
6374.42
3178.73
4731.26
2808.06
2407.25
6404.53
4409.68
8924.11
8051.91
6731.54
8629.46
5311.53
4480.25
8852.98
7218.64
10178.5
9760.05
10697.5
10436.6
11384.6
11000
12274.9
11815.4
13241.3
12762.4
13693.8
9576.66
14901.5
14994.8
1271.85
1310.5
1991.22
2121.74
4884.81
4884.81
4231.7
4231.7
12963.6
47645.2
26647.8
)
;
    }
    outlet
    {
        type            inletOutlet;
        inletValue      uniform 1000;
        value           nonuniform List<scalar> 
33
(
3824.21
9604.89
5926.76
1684.65
2524.88
768.479
1133.06
357.221
524.217
163.684
241.257
97.6874
118.311
92.6175
91.0829
114.265
102.003
137.302
125.112
205.021
160.75
392.594
278.428
820.477
564.737
1768.7
1200.1
3962.77
2628.48
9915.38
6158.77
14901.5
14994.8
)
;
    }
    inlet
    {
        type            fixedValue;
        value           uniform 1000;
    }
    frontAndBackPlanes
    {
        type            empty;
    }
}


// ************************************************************************* //
