/*--------------------------------*- C++ -*----------------------------------*\
| =========                 |                                                 |
| \\      /  F ield         | OpenFOAM: The Open Source CFD Toolbox           |
|  \\    /   O peration     | Version:  2212                                  |
|   \\  /    A nd           | Website:  www.openfoam.com                      |
|    \\/     M anipulation  |                                                 |
\*---------------------------------------------------------------------------*/
FoamFile
{
    version     2.0;
    format      ascii;
    arch        "LSB;label=32;scalar=64";
    class       volScalarField;
    location    "0.000168";
    object      T;
}
// * * * * * * * * * * * * * * * * * * * * * * * * * * * * * * * * * * * * * //

dimensions      [0 0 0 1 0 0 0];

internalField   nonuniform List<scalar> 
37872
(
26.1656
25.7126
25.549
25.5975
25.6695
25.5269
24.6294
23.7387
23.242
22.9191
22.8122
22.9579
22.9259
24.1614
26.3446
30.0443
36.6815
46.0423
58.5089
74.432
91.4116
102.213
105.332
101.484
89.3915
71.5229
52.2511
36.4691
26.5503
23.3914
22.7801
22.9809
23.3118
23.4085
23.2101
23.215
23.2264
23.3522
23.7215
24.1776
24.5716
24.9164
25.2509
25.6523
26.0096
26.5203
27.1907
28.1993
27.7071
27.3867
27.4132
27.2204
27.1988
26.1447
25.3362
24.8924
24.568
24.4156
24.4952
24.6716
25.8267
28.07
31.787
38.2548
48.4201
61.4416
77.9989
96.042
107.943
111.743
108.236
96.1717
77.5947
57.2542
40.0393
28.8193
25.0506
24.3435
24.4886
24.8412
24.984
24.8423
24.6971
24.682
24.7996
25.1774
25.6679
26.0824
26.435
26.752
27.1241
27.3252
27.5722
27.7493
26.5866
26.2004
25.6034
25.4839
25.3092
24.522
23.9272
23.6404
23.4197
23.1403
22.9661
22.9241
23.3647
24.4864
26.4096
29.7449
35.4255
45.1548
57.3865
72.9975
90.4989
102.964
107.28
104.875
94.0123
76.3185
56.5646
39.6042
28.4379
24.5554
23.8025
23.9508
24.3691
24.5334
24.4603
24.2158
24.1956
24.3397
24.7428
25.3156
25.9098
26.4148
26.8393
27.3074
27.6138
27.8971
28.0412
26.5791
26.1318
25.6118
25.5229
25.3026
25.1819
24.1365
23.5734
23.3226
23.0765
22.8803
22.65
23.3409
24.4414
26.2127
29.4111
35.0381
44.532
56.5097
71.8192
89.1032
101.92
106.316
104.4
93.8633
76.7476
57.5634
40.4315
28.7902
24.5898
23.6913
23.8483
24.2719
24.4205
24.3721
24.1484
24.1181
24.2849
24.6945
25.269
25.9106
26.4866
26.944
27.4322
27.8107
28.1019
28.2428
26.1207
25.9422
25.7156
24.9465
25.0972
24.1323
23.1246
23.1382
23.1251
22.9188
22.6836
22.4491
23.2069
24.175
25.8371
28.7685
34.2892
43.2052
54.8485
69.8866
87.2014
100.873
105.841
104.451
94.8837
78.1912
58.6917
41.1761
29.262
24.6517
23.5325
23.664
24.0883
24.2755
24.193
24.0188
24.0095
24.1934
24.6175
25.2208
25.9005
26.517
27.0153
27.5725
28.0124
28.2982
28.4155
25.9158
25.8697
25.2952
24.9019
25.1142
24.3721
23.282
23.0188
23.0677
22.89
22.6139
22.4785
23.1882
24.0771
25.6982
28.3049
33.9528
42.6211
54.0568
68.9211
86.0608
100.048
105.441
104.532
95.2968
78.9205
59.8191
42.2321
29.8421
24.7812
23.4894
23.5333
23.9129
24.1594
24.1175
23.9619
23.9652
24.157
24.5888
25.2054
25.9075
26.5577
27.1276
27.7189
28.1833
28.4651
28.5644
25.6981
25.3935
25.1076
24.8456
24.9598
23.6112
22.9327
22.9529
22.9862
22.8074
22.4255
22.4645
23.1308
23.9251
25.4085
27.9513
33.3614
41.6679
52.7612
67.4367
84.7871
99.369
105.324
104.994
96.5404
80.5891
61.2062
43.3096
30.4218
24.9131
23.4467
23.3821
23.7669
24.021
23.9922
23.8892
23.915
24.1234
24.5669
25.1934
25.9145
26.596
27.217
27.8435
28.3372
28.6123
28.6991
25.6842
25.286
25.1347
24.8777
24.892
23.4923
23.0767
22.9286
22.9248
22.7453
22.1629
22.4701
23.0735
23.8522
25.2564
27.7607
33.0579
41.0742
51.8352
66.1382
83.5604
98.3977
105.008
105.16
97.1642
81.5471
62.4531
44.4937
31.1274
25.1624
23.4141
23.288
23.6489
23.9224
23.9077
23.874
23.8812
24.1064
24.549
25.1831
25.919
26.6364
27.3215
27.9726
28.4786
28.7466
28.8235
25.6208
25.2261
25.1201
24.9951
24.7374
23.3987
22.9325
22.887
22.798
22.5915
22.1522
22.5191
22.9917
23.7035
24.9083
27.4824
32.5739
40.1906
50.6315
64.7271
82.3464
97.6365
104.89
105.525
98.3355
83.1543
64.0337
45.6655
31.8224
25.4335
23.4213
23.172
23.5169
23.831
23.878
23.9687
23.8644
24.1014
24.5378
25.1721
25.923
26.6921
27.4121
28.0841
28.6007
28.8645
28.9344
25.638
25.3504
25.1026
25.3179
24.5584
23.3839
23.0509
22.8729
22.7044
22.4614
22.17
22.5588
22.9104
23.5826
24.5753
27.3488
32.199
39.5739
49.5599
63.6052
81.0244
96.5374
104.443
105.649
98.9006
84.1042
65.4219
46.8604
32.5695
25.7263
23.4638
23.07
23.3879
23.7067
23.8661
23.8985
23.868
24.1022
24.5321
25.1673
25.9336
26.7466
27.5017
28.1887
28.7084
28.9677
29.0328
25.6406
25.3286
25.0121
25.4482
24.4144
23.3577
22.9506
22.8214
22.5637
22.3032
22.1758
22.5434
22.8496
23.4189
24.4149
27.2144
31.6626
38.7381
48.4008
62.4324
79.8274
95.6471
104.167
105.797
99.9212
85.6149
66.9556
48.2085
33.469
25.9984
23.4934
23.0047
23.2284
23.5857
23.7585
23.8479
23.8786
24.1167
24.5316
25.1698
25.9615
26.8005
27.5814
28.2812
28.8031
29.0569
29.1202
25.646
25.2423
24.9653
25.506
24.3364
23.3597
23.0128
22.7921
22.459
22.0711
22.2003
22.5353
22.7715
23.2736
24.3339
27.0161
31.2737
37.9107
47.5688
61.2308
78.4356
94.4347
103.426
105.698
100.494
86.7533
68.2929
49.5095
34.3867
26.3873
23.5453
22.9512
23.1431
23.5087
23.693
23.8195
23.8999
24.1327
24.538
25.1832
25.9921
26.8515
27.6553
28.365
28.887
29.135
29.1985
25.4001
25.5351
25.0132
25.5257
24.2441
23.3602
22.9468
22.6989
22.3399
21.8767
22.2617
22.4984
22.683
23.0629
24.2896
26.7617
30.7689
37.1627
46.7229
60.0863
77.1988
93.2561
103.028
105.569
101.257
88.1461
69.8178
50.8144
35.3166
26.7827
23.656
22.8863
23.0645
23.4427
23.6488
23.8036
23.9156
24.1499
24.5588
25.2081
26.0257
26.8995
27.7213
28.4371
28.957
29.2011
29.2669
25.334
25.744
25.2732
25.5449
24.1652
23.3594
22.9599
22.6507
22.1928
21.8752
22.2796
22.4326
22.5721
22.8016
24.3267
26.5405
30.419
36.7118
46.0291
58.9562
75.8435
92.0698
102.487
105.579
101.559
89.1722
71.1054
52.006
36.2082
27.1973
23.7739
22.8605
22.9681
23.3435
23.5971
23.7955
23.9279
24.1684
24.5822
25.2348
26.0584
26.9431
27.78
28.5007
29.0162
29.2575
29.3252
25.3723
25.7468
25.6354
25.5597
24.1526
23.387
22.9218
22.6072
22.0648
21.8928
22.2773
22.3833
22.4508
22.7479
24.2434
26.307
29.9616
36.2394
45.1915
57.8877
74.6465
91.1732
102.088
105.637
102.268
90.3098
72.5019
53.3026
37.1679
27.5888
23.8975
22.8633
22.8911
23.2737
23.595
23.7879
23.942
24.1879
24.6043
25.2612
26.0899
26.9841
27.8339
28.5589
29.0688
29.307
29.3752
25.3065
25.6141
25.8991
25.5994
24.1866
23.4051
22.9933
22.4915
21.9115
21.9114
22.2466
22.2914
22.3327
22.7392
24.1142
26.0541
29.6141
35.748
44.3609
56.7743
73.3196
90.0728
101.52
105.568
102.73
91.1882
73.7682
54.5476
38.0907
28.0385
24.0502
22.86
22.851
23.2485
23.6724
23.789
23.9613
24.2059
24.6257
25.2849
26.1187
27.022
27.8839
28.6138
29.1186
29.3516
29.4203
25.3415
25.5859
26.0475
25.6359
24.115
23.2004
22.9484
22.4176
21.6309
21.9898
22.197
22.2163
22.2092
22.7278
23.963
25.8199
29.1977
35.1278
43.4725
55.6592
72.0446
88.9848
101.006
105.518
103.404
92.4114
75.2278
55.9676
39.1175
28.5746
24.2216
22.8383
22.8063
23.2102
23.6324
23.8945
24.0789
24.2298
24.6483
25.3085
26.1462
27.0579
27.931
28.6665
29.1663
29.3951
29.4628
25.5507
25.5681
26.1401
25.3454
23.8787
23.2239
22.8887
22.1446
21.5859
22.0068
22.1459
22.1223
21.9988
22.7512
23.8663
25.6322
28.798
34.5057
42.5632
54.4553
70.594
87.6884
100.292
105.363
103.82
93.4617
76.5403
57.3846
40.2338
29.1878
24.449
22.8572
22.7387
23.1229
23.5748
23.91
24.1626
24.2624
24.6737
25.3328
26.1721
27.091
27.9742
28.7151
29.2126
29.4374
29.5037
25.651
25.8455
26.2441
25.1166
23.7835
22.9123
22.5124
21.6913
21.5842
22.0162
22.099
22.0323
21.8369
22.7436
23.7523
25.4091
28.3614
34.007
41.6978
53.2878
69.2421
86.4652
99.5833
105.226
104.334
94.6355
78.0136
58.917
41.4626
29.8641
24.7044
22.8931
22.6936
23.0552
23.5197
23.8533
24.1089
24.3572
24.702
25.3591
26.1984
27.1224
28.0138
28.76
29.255
29.4773
29.5429
25.6876
26.1316
26.3442
25.0598
23.5128
22.8014
22.1115
21.556
21.6
22.0048
22.0116
21.9038
21.8376
22.7095
23.6016
25.1792
28.1248
33.4246
40.8202
51.96
67.8574
85.119
98.7108
104.949
104.647
95.6035
79.4285
60.3619
42.6539
30.5697
24.966
22.9543
22.6731
23.0316
23.4725
23.8172
24.0879
24.4909
24.7316
25.3827
26.2232
27.1517
28.0495
28.8005
29.2931
29.5146
29.58
25.7634
26.4978
26.3444
24.8634
23.2342
22.5949
21.7863
21.5028
21.6295
21.959
21.9112
21.7694
21.8538
22.6207
23.4189
24.8354
27.8987
32.8451
39.9744
50.7338
66.5403
83.8378
97.8735
104.716
104.988
96.6724
80.9416
61.9252
43.9274
31.3084
25.272
23.0323
22.63
22.9686
23.4897
23.8019
24.0757
24.4354
24.7626
25.4029
26.2454
27.1782
28.0814
28.8364
29.3278
29.5491
29.6147
26.0255
26.8452
26.2474
24.3359
23.0494
22.5974
21.7433
21.4646
21.6465
21.8947
21.8076
21.5701
21.8888
22.5644
23.2843
24.5774
27.6636
32.2377
38.8528
49.6941
64.9796
82.4915
96.8981
104.387
105.106
97.5389
82.2356
63.3557
45.2065
32.1565
25.6236
23.1022
22.6038
22.9016
23.4411
23.868
24.0677
24.4042
24.7881
25.4205
26.2646
27.2014
28.1094
28.8672
29.3585
29.5801
29.6463
26.1371
26.9983
26.2327
23.6793
22.7859
22.1444
21.6591
21.4465
21.6324
21.8181
21.6354
21.339
21.9713
22.4951
23.1419
24.4593
27.357
31.7128
38.1056
48.7324
63.7741
81.2549
95.9668
104.067
105.343
98.4271
83.5856
64.8092
46.5019
33.0318
25.9729
23.2062
22.5937
22.8738
23.3697
23.8179
24.0661
24.3883
24.8068
25.4368
26.2817
27.222
28.1339
28.8938
29.3854
29.6075
29.6749
26.2661
27.0383
25.8013
23.5275
22.689
21.9061
21.5506
21.4309
21.5967
21.6952
21.3941
21.3523
22.0064
22.3984
22.9969
24.3938
27.1228
31.0827
37.5181
47.7662
62.6254
79.9638
94.9457
103.645
105.472
99.1639
84.8291
66.2184
47.7685
33.9328
26.3681
23.3565
22.5665
22.8267
23.3191
23.759
24.0658
24.3817
24.8198
25.4516
26.2965
27.2401
28.1556
28.9166
29.4092
29.6325
29.7017
26.3372
26.8531
24.9725
23.3571
22.5835
21.6892
21.4634
21.4251
21.55
21.5812
21.3208
21.3572
21.9928
22.2897
22.8723
24.3134
26.8032
30.3907
36.9803
46.8416
61.5362
78.7512
93.9381
103.261
105.586
99.9419
86.1266
67.7045
49.0921
34.86
26.8112
23.4903
22.5553
22.7582
23.2717
23.7192
24.0642
24.378
24.831
25.4633
26.3089
27.2559
28.1746
28.9367
29.4305
29.6559
29.7279
26.5312
26.5955
24.3271
23.2578
22.4386
21.6461
21.432
21.4192
21.4903
21.4814
21.2856
21.3695
21.9285
22.1978
22.6573
24.1985
26.4813
30.0324
36.3755
45.9333
60.4043
77.5169
92.8705
102.788
105.621
100.631
87.3529
69.136
50.4304
35.8692
27.3182
23.6572
22.5548
22.7049
23.2277
23.6848
24.0755
24.3739
24.8427
25.4713
26.3168
27.2685
28.1908
28.9542
29.4496
29.6775
29.7529
26.6397
26.3253
24.2279
23.1125
22.2927
21.6441
21.4237
21.4071
21.4603
21.4158
21.2692
21.398
21.8743
22.1349
22.5728
24.0756
26.1804
29.7221
35.8216
45.1243
59.3291
76.3617
91.8459
102.323
105.634
101.307
88.5476
70.5861
51.7513
36.8731
27.8281
23.8453
22.5807
22.6834
23.2135
23.6945
24.1738
24.4249
24.8837
25.4771
26.3207
27.2784
28.204
28.969
29.4665
29.6974
29.7763
26.5261
25.806
24.1614
23.0165
22.1857
21.6548
21.438
21.3942
21.4158
21.3495
21.249
21.4814
21.8205
22.0602
22.5321
23.9048
25.9285
29.4617
35.2485
44.2974
58.2512
75.17
90.7923
101.809
105.628
101.92
89.6773
72.0035
53.1078
37.939
28.3717
24.0524
22.6238
22.6679
23.1955
23.7269
24.1436
24.5487
25.0395
25.4858
26.3236
27.285
28.2142
28.981
29.481
29.7156
29.7979
25.9566
25.2241
24.0674
22.8925
22.0471
21.6601
21.4458
21.3787
21.3448
21.2611
21.131
21.5999
21.7878
21.9773
22.5386
23.7631
25.6713
29.1861
34.77
43.4849
57.2823
74.0495
89.7778
101.283
105.546
102.448
90.7286
73.3404
54.422
38.9152
28.9196
24.2727
22.633
22.6126
23.1144
23.6612
24.0991
24.4997
24.9977
25.497
26.3279
27.2899
28.2213
28.9901
29.4929
29.7318
29.8179
25.6387
24.7607
23.8674
22.7006
21.9724
21.6672
21.444
21.3446
21.238
21.1566
21.1229
21.5997
21.7312
21.8854
22.524
23.601
25.4338
28.8715
34.1487
42.7322
56.2746
72.9009
88.7439
100.748
105.457
102.96
91.7664
74.6479
55.7651
39.9088
29.5625
24.5516
22.6649
22.5721
23.0452
23.6076
24.071
24.4716
24.9596
25.5094
26.3332
27.2948
28.2265
28.9972
29.5029
29.7463
29.8364
25.1615
24.2599
23.6404
22.5671
21.8966
21.6337
21.4257
21.2905
21.0891
21.0211
21.1323
21.5708
21.6725
21.7981
22.4781
23.4236
25.1851
28.5911
33.6348
42.0726
55.2708
71.7072
87.6702
100.144
105.324
103.423
92.7866
75.9603
57.0955
40.9812
30.2703
24.8063
22.7336
22.5615
23.0036
23.5773
24.0569
24.4569
24.9429
25.5221
26.3382
27.2975
28.2294
29.0024
29.5112
29.7593
29.8538
24.6095
24.0792
23.4791
22.3007
21.7817
21.5781
21.3979
21.2115
20.9449
20.9515
21.1463
21.5435
21.5973
21.7303
22.4157
23.2669
24.8871
28.2612
33.2062
41.4045
54.1589
70.2277
86.4835
99.4845
105.183
103.841
93.7621
77.2363
58.3978
42.0415
30.9158
25.0357
22.7879
22.5311
22.9824
23.5834
24.0928
24.4543
24.9375
25.5346
26.3436
27.2979
28.2303
29.0051
29.5173
29.7704
29.8693
24.7306
24.0746
23.2871
22.235
21.744
21.5071
21.3666
21.1241
20.8976
20.9291
21.2148
21.4869
21.5389
21.692
22.3134
23.105
24.6543
27.9943
32.8585
40.7815
52.9537
69.1047
85.0743
98.6796
105.022
104.215
94.6938
78.4824
59.6851
43.0794
31.6343
25.3867
22.859
22.4966
22.915
23.5253
24.0609
24.4603
24.9382
25.5481
26.3492
27.2953
28.2302
29.0061
29.5215
29.7796
29.883
25.4516
24.0669
23.1046
22.2054
21.6963
21.4416
21.3324
21.0402
20.8743
20.9241
21.2334
21.4276
21.4752
21.6504
22.2104
22.9329
24.4857
27.7366
32.4716
40.0449
52.0898
68.0744
84.042
97.8815
104.837
104.559
95.5987
79.6519
60.9742
44.218
32.4867
25.9081
22.9703
22.4812
22.8585
23.4615
24.0133
24.4689
24.9415
25.5629
26.356
27.2943
28.2281
29.0062
29.524
29.7869
29.8948
25.4564
24.03
22.9214
22.1985
21.6451
21.3785
21.2831
20.9628
20.8638
20.9235
21.2226
21.369
21.4212
21.6168
22.1113
22.7944
24.3565
27.5329
32.0302
39.2496
51.2899
67.0264
83.0422
97.175
104.624
104.872
96.488
80.9096
62.2871
45.4255
33.3631
26.3248
23.1043
22.4737
22.8217
23.4201
23.9817
24.4772
24.9489
25.5786
26.3635
27.2919
28.2238
29.0044
29.525
29.7925
29.9042
25.0229
23.7816
22.8604
22.1969
21.6152
21.3492
21.2209
20.9096
20.8542
20.9267
21.2057
21.3022
21.3424
21.5938
21.9528
22.6709
24.2742
27.3054
31.4884
38.7089
50.4737
65.9997
82.1135
96.4151
104.365
105.126
97.3035
82.1387
63.5293
46.6005
34.2305
26.688
23.2285
22.4648
22.7793
23.4213
23.9919
24.4847
24.9618
25.5963
26.3727
27.2904
28.2177
29.0006
29.5251
29.7964
29.9116
24.9932
23.6722
22.6962
22.1829
21.6117
21.3325
21.1521
20.8853
20.84
20.9942
21.1829
21.2351
21.2791
21.478
21.7744
22.551
24.1888
27.0536
31.1701
38.1958
49.6605
64.9801
81.1735
95.623
103.93
105.292
98.1237
83.4002
64.8833
47.7626
35.1173
27.0655
23.3818
22.4694
22.728
23.3712
23.9839
24.4943
24.9789
25.6161
26.3842
27.2903
28.2118
28.9953
29.5236
29.7989
29.9176
25.2694
23.7144
22.6447
22.1586
21.6349
21.3293
21.0388
20.8618
20.797
21.0229
21.1317
21.1577
21.2151
21.3089
21.5719
22.4113
24.0769
26.6837
30.8511
37.6762
48.8624
64.0131
80.1607
94.7626
103.455
105.238
98.8779
84.6073
66.2841
48.9521
36.0166
27.5768
23.5633
22.4974
22.6996
23.3105
23.9355
24.5041
25.0002
25.6374
26.3967
27.2912
28.2054
28.9878
29.5199
29.8002
29.9223
25.4307
23.8777
22.688
22.1455
21.6705
21.3289
20.9722
20.8196
20.8005
21.0206
21.0791
21.0846
21.1028
21.0675
21.5206
22.3364
23.9653
26.4803
30.5713
37.1927
48.0948
63.1098
79.1842
93.8946
103.227
105.253
99.5863
85.7781
67.6211
50.1488
36.9051
28.1183
23.7368
22.5014
22.6859
23.2756
23.9053
24.5085
25.0261
25.6606
26.4108
27.2935
28.1998
28.9795
29.5144
29.8005
29.9257
25.4616
24.0512
22.7599
22.1281
21.7277
21.3534
20.9825
20.8184
20.8181
21.0096
21.0394
21.016
20.9453
21.0322
21.4953
22.2777
23.8009
26.3355
30.2788
36.7187
47.3108
62.229
78.2021
93.0382
102.951
105.397
100.239
86.9022
68.9169
51.3347
37.8055
28.6348
23.903
22.4965
22.6453
23.2756
23.8871
24.509
25.0573
25.686
26.4269
27.297
28.1945
28.9709
29.5075
29.7981
29.9275
25.4074
24.1705
22.7623
22.1087
21.7768
21.3865
21.007
20.835
20.877
20.9936
21.0221
20.9551
20.8416
21.0203
21.4748
22.2145
23.5531
26.1778
29.9871
36.2503
46.6116
61.3318
77.1909
92.1722
102.631
105.566
100.89
88.036
70.2239
52.5763
38.7785
29.161
24.1493
22.5657
22.6002
23.2365
23.9064
24.5237
25.1278
25.7178
26.4448
27.302
28.1893
28.9618
29.4995
29.794
29.9282
25.0785
23.9936
22.8489
22.0617
21.7182
21.3459
21.0324
20.8551
20.9105
20.9955
20.9665
20.8051
20.672
21.0179
21.4516
22.1619
23.4619
26.0114
29.685
35.6857
45.9579
60.43
76.1839
91.232
102.261
105.637
101.514
89.154
71.5745
53.8545
39.758
29.7902
24.4772
22.6984
22.6028
23.1578
23.9024
24.586
25.2513
25.8365
26.4656
27.3085
28.1847
28.9521
29.4904
29.7882
29.926
24.2927
23.5889
22.502
21.7474
21.5705
21.3047
21.0417
20.8492
20.9295
20.9767
20.923
20.6885
20.622
21.0509
21.4236
22.0822
23.4154
25.8488
29.2512
35.2314
45.3207
59.4923
74.9625
90.1597
101.854
105.667
102.109
90.2589
72.949
55.1755
40.7838
30.5118
24.7382
22.6997
22.6858
23.1215
23.8484
24.5633
25.226
25.9589
26.4934
27.3167
28.1804
28.9418
29.4802
29.7811
29.9221
23.6533
22.8667
22.0195
21.5471
21.3135
21.1825
20.9967
20.8391
20.9022
20.9263
20.8267
20.586
20.6256
21.0837
21.3824
21.9363
23.3917
25.6685
28.923
34.8471
44.6704
58.296
73.8175
89.2989
101.395
105.673
102.681
91.3399
74.3181
56.5571
41.8953
31.2512
24.9206
22.6663
22.6651
23.1581
23.8202
24.5343
25.2152
25.9174
26.53
27.3272
28.1779
28.9313
29.4687
29.7726
29.9167
23.3239
22.2771
21.3783
21.322
21.2073
20.9801
20.9173
20.8179
20.9021
20.8631
20.7003
20.5552
20.6371
21.0796
21.3252
21.8232
23.314
25.4605
28.6872
34.4988
43.9612
57.3507
72.8517
88.3786
100.888
105.644
103.249
92.4716
75.7883
58.0474
43.1465
32.0673
25.2329
22.8133
22.5504
23.1602
23.8394
24.522
25.2115
25.9084
26.6178
27.341
28.1759
28.9203
29.4558
29.762
29.9095
22.906
21.7123
20.9906
21.1583
21.0689
20.8431
20.8098
20.7802
20.8801
20.806
20.6284
20.5435
20.6975
21.0738
21.2159
21.7717
23.2041
25.2583
28.4387
34.0685
43.2468
56.497
71.8688
87.4146
100.345
105.58
103.766
93.5955
77.2826
59.5683
44.4583
33.0279
25.7277
23.0024
22.5573
23.0458
23.8449
24.513
25.2072
25.9145
26.7774
27.3619
28.1743
28.9082
29.4406
29.7485
29.899
22.2114
21.2928
20.8783
20.9581
20.8709
20.69
20.7135
20.7604
20.8072
20.6252
20.4738
20.4806
20.7093
20.9723
21.04
21.7233
23.1104
25.0655
28.2011
33.617
42.5135
55.6075
70.8431
86.434
99.7253
105.44
104.226
94.7075
78.7884
61.1199
45.8339
34.0199
26.2596
23.0421
22.6375
22.9773
23.7674
24.5203
25.2116
25.9687
26.7372
27.3912
28.1758
28.8977
29.4248
29.7329
29.8856
21.3309
20.7571
20.888
20.9148
20.6275
20.514
20.5972
20.6483
20.6201
20.4356
20.4398
20.4709
20.7124
20.8917
21.0019
21.6764
22.9946
24.8994
27.9681
33.1849
41.8449
54.7472
69.861
85.454
98.7964
105.072
104.627
95.7396
80.2218
62.6466
47.2133
35.0698
26.7275
23.1428
22.6155
23.0445
23.7296
24.5305
25.2696
26.0091
26.7245
27.4214
28.1808
28.8886
29.4093
29.7167
29.8709
20.9293
20.5035
20.8448
20.8508
20.4273
20.2816
20.2545
20.3773
20.4411
20.3783
20.4214
20.4687
20.683
20.7043
20.9683
21.6499
22.8959
24.7534
27.752
32.7841
41.2314
53.9228
68.9297
84.4245
98.1261
104.845
104.971
96.7034
81.5956
64.0943
48.5166
36.12
27.2387
23.416
22.5978
23.0484
23.7679
24.5018
25.2611
25.991
26.7351
27.4505
28.1896
28.8815
29.3949
29.701
29.8559
20.8041
20.5013
20.7882
20.6584
20.3039
20.1936
20.1319
20.3015
20.3787
20.3571
20.3963
20.4737
20.6454
20.659
20.9644
21.6204
22.7988
24.6084
27.5455
32.4232
40.6732
53.1942
68.0647
83.5575
97.5922
104.789
105.257
97.5628
82.8565
65.4545
49.7345
37.0495
27.7659
23.5782
22.6476
22.9271
23.7566
24.4811
25.2076
25.9921
26.7557
27.4785
28.2007
28.8765
29.3813
29.6851
29.8405
20.4362
20.3377
20.7654
20.5988
20.2784
20.1787
20.0967
20.2509
20.3246
20.3397
20.3862
20.4766
20.578
20.6495
20.9631
21.5901
22.7179
24.46
27.3379
32.0479
40.1013
52.4179
67.1367
82.6794
96.9641
104.696
105.52
98.4163
84.1581
66.913
51.0479
38.0226
28.3178
23.6647
22.6643
22.8875
23.6483
24.4698
25.1951
25.9851
26.7759
27.5074
28.2151
28.8743
29.3691
29.6692
29.8242
20.0306
20.2773
20.7431
20.616
20.3348
20.1814
20.0901
20.2388
20.2655
20.3152
20.3656
20.4646
20.5052
20.6467
20.981
21.5529
22.6162
24.2627
27.129
31.6867
39.5092
51.6398
66.2021
81.8037
96.33
104.57
105.739
99.2027
85.4284
68.345
52.3633
38.9837
28.8863
23.9069
22.6725
22.9601
23.6114
24.4821
25.2383
25.9773
26.7944
27.5372
28.2313
28.8722
29.3578
29.6533
29.8075
19.6783
20.2767
20.6919
20.6001
20.3888
20.186
20.1039
20.239
20.2429
20.3083
20.3496
20.4619
20.498
20.6441
20.9851
21.5106
22.4932
24.0917
26.9038
31.3288
38.9578
50.8878
65.3293
80.9717
95.7226
104.414
105.933
99.917
86.5965
69.6803
53.5854
39.9499
29.4914
24.1679
22.7309
22.9945
23.6925
24.4672
25.2913
25.9996
26.8079
27.5692
28.2483
28.873
29.3482
29.6386
29.7916
19.3364
20.2876
20.602
20.5616
20.411
20.1815
20.1195
20.2468
20.2417
20.2956
20.3446
20.4579
20.492
20.6437
20.9745
21.4804
22.3939
23.9654
26.7062
31.0122
38.5072
50.2244
64.5209
80.1857
95.1045
104.23
106.116
100.575
87.6797
70.9405
54.7698
40.9265
30.1089
24.3668
22.7796
22.8882
23.6674
24.4339
25.259
26.0457
26.8218
27.6003
28.2662
28.876
29.3401
29.625
29.7764
19.1268
20.2355
20.6096
20.5259
20.4133
20.1688
20.1126
20.2612
20.2432
20.235
20.3477
20.4571
20.4827
20.6476
20.9468
21.4119
22.2663
23.8656
26.4842
30.6469
38.0645
49.5327
63.5012
79.3053
94.4781
104.002
106.21
101.199
88.7488
72.2035
55.9882
41.8892
30.7049
24.6217
22.8147
22.8183
23.5243
24.3671
25.1326
26.0256
26.878
27.6275
28.285
28.8808
29.3333
29.6119
29.761
18.7374
20.129
20.6465
20.5446
20.3934
20.1629
20.1039
20.2774
20.244
20.2373
20.3708
20.458
20.4784
20.6477
20.9083
21.3448
22.1906
23.7773
26.2769
30.378
37.6302
48.7933
62.6059
78.2646
93.7005
103.769
106.202
101.614
89.8027
73.5129
57.2868
42.9537
31.4571
24.9274
22.8208
22.8482
23.4853
24.3588
25.113
25.9674
26.9073
27.6565
28.3054
28.8871
29.3271
29.5986
29.7449
18.578
19.9195
20.7433
20.6124
20.4475
20.2541
20.1564
20.2829
20.2168
20.2532
20.3842
20.4431
20.4788
20.6457
20.8965
21.3049
22.1725
23.6953
26.079
30.0273
37.1284
47.7877
61.7585
77.3746
92.8504
103.44
106.288
102.195
90.8964
74.9245
58.7093
44.1683
32.3249
25.2678
22.881
22.8379
23.4904
24.3957
25.1715
25.9593
26.8694
27.6848
28.3275
28.8957
29.3222
29.5855
29.7283
18.374
19.6271
20.6794
20.4708
20.4617
20.3436
20.2047
20.2572
20.1633
20.2852
20.3876
20.4226
20.4794
20.6322
20.8727
21.2449
22.1054
23.5708
25.854
29.7702
36.5654
47.0214
60.9342
76.5228
92.1671
103.063
106.403
102.864
91.9367
76.2939
60.1427
45.3975
33.1518
25.6322
23.0238
22.7859
23.4248
24.3375
25.3055
26.022
26.8352
27.7088
28.3516
28.9058
29.3179
29.5734
29.7119
18.1991
19.2879
20.2863
20.27
20.1925
20.1612
20.1872
20.1493
20.1731
20.3119
20.3773
20.3901
20.4652
20.6111
20.8269
21.1909
22.0825
23.4807
25.6695
29.4639
35.9691
46.3787
60.0981
75.6431
91.4159
102.655
106.468
103.473
92.9502
77.6216
61.5413
46.6425
33.9806
26.0094
23.1645
22.7833
23.3328
24.2373
25.2556
26.0349
26.827
27.7493
28.3799
28.9178
29.316
29.5632
29.6969
17.8765
18.8765
19.9056
20.1579
20.0615
20.0289
20.0839
20.0922
20.1868
20.3187
20.3447
20.3098
20.4554
20.5981
20.7909
21.1534
22.0328
23.4431
25.5053
29.0633
35.5466
45.7715
59.3077
74.8113
90.6386
102.19
106.493
103.985
93.8739
78.8859
62.8887
47.8438
34.8581
26.3654
23.2286
22.8123
23.3125
24.2412
25.1976
25.9958
26.8257
27.8177
28.4133
28.9309
29.3159
29.5545
29.6834
17.7827
18.6921
19.732
19.9717
19.8934
19.8622
19.9436
20.0051
20.1999
20.3179
20.3216
20.3074
20.4591
20.5948
20.7268
21.1045
21.9776
23.3247
25.2125
28.8107
35.128
45.1641
58.4223
73.8558
89.6329
101.624
106.5
104.486
94.733
80.1037
64.2313
49.0525
35.7803
26.7366
23.2503
22.8051
23.3315
24.2654
25.146
25.9826
26.8333
27.7771
28.4466
28.9457
29.318
29.5476
29.6712
17.631
18.9334
19.7736
19.7453
19.6564
19.5482
19.8491
19.9501
20.1663
20.2845
20.2698
20.3096
20.4839
20.5815
20.602
21.0106
21.9316
23.2151
25.0464
28.4877
34.712
44.555
57.5145
72.8204
88.7955
101.267
106.474
104.929
95.306
81.3446
65.625
50.3471
36.785
27.2592
23.4181
22.7499
23.2895
24.1744
25.0714
25.9942
26.8843
27.7297
28.4751
28.9624
29.322
29.5422
29.6602
17.6349
18.9023
19.8168
19.5954
19.4286
19.4154
19.8037
19.9145
20.1051
20.2391
20.2082
20.3136
20.5144
20.5613
20.5818
20.9522
21.8685
23.0271
24.8974
28.2194
34.2824
43.9472
56.7495
71.9832
88.0396
100.887
106.255
104.995
96.1645
82.5034
67.0228
51.6652
37.7895
27.8084
23.6221
22.7567
23.2328
24.0577
24.9532
25.9791
26.8889
27.7111
28.4952
28.9809
29.3282
29.5386
29.6509
17.4986
18.6623
19.7028
19.5127
19.2059
19.3513
19.7901
19.8994
20.0915
20.1854
20.1977
20.3206
20.5148
20.5398
20.5669
20.9194
21.8107
22.8691
24.7497
27.9827
33.8161
43.3117
55.983
71.1345
87.2369
100.433
106.049
105.188
97.1236
83.3996
68.4614
53.0599
38.8682
28.383
23.8215
22.8271
23.1803
24.0524
24.9463
25.9217
26.8496
27.6986
28.5074
29.0024
29.337
29.5376
29.6438
17.1542
18.4069
19.1914
19.365
18.9125
19.3545
19.7914
19.9229
20.0652
20.1444
20.1853
20.3395
20.5114
20.5155
20.5589
20.8926
21.7255
22.8117
24.6278
27.773
33.3828
42.6618
55.1808
70.2355
86.3904
99.9193
106.02
105.664
98.0394
84.6777
69.8653
54.4996
40.0512
29.0446
24.0479
22.8635
23.1033
24.022
24.9791
25.7971
26.7501
27.6845
28.5108
29.0286
29.3489
29.5396
29.6394
16.9322
18.3102
18.8951
18.8679
18.825
19.2474
19.6937
19.9404
20.0389
20.1304
20.1794
20.3504
20.5009
20.4894
20.5547
20.8487
21.634
22.7176
24.5491
27.6002
33.131
41.995
54.3274
69.3237
85.5219
99.3581
105.984
106.066
98.9353
86.0636
71.3253
56.0231
41.358
29.7998
24.247
22.8912
23.0552
23.8973
24.9062
25.7776
26.6486
27.6599
28.5055
29.0587
29.3639
29.545
29.6385
16.8726
17.988
18.6754
18.6572
18.762
19.1449
19.5773
19.9152
20.0191
20.0981
20.1678
20.348
20.4831
20.4899
20.5496
20.8275
21.5844
22.6542
24.3741
27.3476
32.6297
41.401
53.5223
68.4352
84.6337
98.7369
105.88
106.398
99.7633
87.3099
72.7082
57.4654
42.6554
30.5951
24.5552
22.8937
23.057
23.8209
24.7912
25.8587
26.6746
27.6273
28.4917
29.0885
29.3819
29.554
29.6415
16.8068
17.9038
18.7271
18.5644
18.782
19.1338
19.5594
19.8904
20.0034
20.0684
20.1542
20.3413
20.4659
20.4951
20.5541
20.7949
21.473
22.5614
24.2594
27.127
32.3497
40.8406
52.7748
67.5396
83.76
98.0631
105.664
106.684
100.563
88.5434
74.0477
58.9326
43.9833
31.451
24.9222
22.9564
23.0525
23.8045
24.7747
25.8545
26.8128
27.6116
28.4742
29.1139
29.4033
29.5676
29.6488
16.7959
17.6
18.3177
18.6258
18.8625
19.1659
19.5631
19.9019
19.9885
20.0232
20.1282
20.3234
20.4499
20.4954
20.5577
20.7739
21.4202
22.4872
24.131
26.8905
31.8383
40.2787
51.9805
66.5655
82.8104
97.3048
105.427
106.916
101.289
89.6959
75.1726
60.3772
45.3027
32.4037
25.294
23.0954
23.0127
23.7493
24.7801
25.7188
26.7721
27.6418
28.4541
29.1303
29.43
29.5859
29.6609
16.4765
17.084
17.7766
18.0554
18.7813
19.1053
19.5677
19.8267
19.9332
19.9918
20.1027
20.2828
20.4316
20.4892
20.556
20.7631
21.3689
22.4123
24.0192
26.632
31.5241
39.6887
51.1715
65.5729
81.8392
96.556
105.195
107.079
101.921
90.7236
76.6424
61.8328
46.6511
33.4308
25.7169
23.2151
22.9951
23.6639
24.7072
25.5879
26.6078
27.5953
28.4333
29.1329
29.4624
29.6087
29.6781
16.3382
16.8623
17.5758
17.8126
18.6318
19.0647
19.4151
19.7095
19.8684
19.9885
20.0879
20.2385
20.3917
20.4807
20.5492
20.7571
21.3252
22.3289
23.8133
26.3978
31.2563
39.1492
50.4258
64.6695
80.927
95.8441
104.952
107.145
102.468
91.6057
77.9534
63.1721
47.9533
34.3977
26.1711
23.3362
23.0144
23.6157
24.5832
25.5885
26.454
27.4667
28.411
29.1269
29.4964
29.6352
29.7
16.2584
16.7317
17.3268
17.7204
18.542
19.0878
19.4491
19.7061
19.8353
19.9296
20.1014
20.2177
20.3539
20.4699
20.5357
20.752
21.2995
22.2799
23.7208
26.218
30.817
38.6155
49.7021
63.8042
80.0568
95.1476
104.699
107.226
103.071
92.6357
79.2254
64.4884
49.2231
35.3507
26.6191
23.4767
23.0246
23.5785
24.5182
25.6391
26.46
27.4384
28.3894
29.1159
29.5274
29.6645
29.7258
15.9855
16.529
17.1593
17.6583
18.4765
19.1272
19.4859
19.7229
19.8371
19.9318
20.0907
20.2123
20.3327
20.4321
20.5143
20.7461
21.2671
22.1951
23.612
26.0642
30.5235
38.1522
49.0685
63.053
79.2936
94.5361
104.469
107.331
103.566
93.489
80.2837
65.5816
50.36
36.2606
27.0596
23.5889
23.0391
23.5328
24.4979
25.5806
26.4936
27.4157
28.3748
29.1039
29.5537
29.6956
29.7551
15.7536
16.2672
16.9965
17.5986
18.4573
19.1817
19.5269
19.7584
19.8551
19.9542
20.0684
20.2034
20.3069
20.3647
20.4725
20.7385
21.2463
22.106
23.5464
25.9486
30.2689
37.692
48.4274
62.301
78.5218
93.9309
104.245
107.427
104.088
94.3579
81.3135
66.4902
51.4492
37.1841
27.531
23.7099
23.0544
23.5051
24.4511
25.4369
26.5995
27.3871
28.3407
29.0932
29.5747
29.7288
29.7874
15.7103
16.054
16.735
17.5926
18.3604
19.1952
19.5778
19.7734
19.884
19.9689
20.0633
20.1878
20.2829
20.3503
20.4598
20.7276
21.2298
22.0616
23.4719
25.8505
30.0159
37.209
47.8778
61.6379
77.828
93.3806
104.027
107.507
104.521
95.0661
82.122
67.5274
52.2981
38.0516
28.013
23.9173
23.0421
23.4913
24.4059
25.4159
26.5608
27.3904
28.3051
29.0828
29.5907
29.7659
29.8235
15.6808
16.0037
16.56
17.5594
18.3186
19.1902
19.6323
19.7663
19.8901
19.9946
20.0739
20.1851
20.2632
20.3429
20.453
20.7162
21.2038
22.0136
23.3961
25.7387
29.782
36.7331
47.2307
60.8352
77.007
92.7104
103.743
107.578
105.035
95.891
83.2114
68.8038
53.3189
38.9647
28.512
24.1274
23.059
23.4744
24.3797
25.4729
26.431
27.4592
28.2959
29.0709
29.6014
29.8086
29.8661
15.6143
15.8981
16.4515
17.238
18.3149
19.2268
19.6737
19.7415
19.8752
20.0207
20.0904
20.1908
20.2375
20.3403
20.4507
20.7026
21.1848
21.9683
23.3183
25.5828
29.516
36.2565
46.6052
60.0656
76.1965
92.0291
103.432
107.627
105.452
96.6738
84.2361
69.9401
54.5391
39.8988
29.1202
24.3551
23.139
23.4577
24.3468
25.4656
26.3213
27.4243
28.3188
29.0582
29.6072
29.8547
29.9148
15.5806
15.8677
16.1738
16.9823
18.0139
19.2206
19.6951
19.7608
19.8903
20.045
20.1014
20.1904
20.2002
20.3406
20.4509
20.69
21.1647
21.9222
23.3102
25.4768
29.3107
35.8982
45.873
59.2103
75.3661
91.3106
103.095
107.657
105.895
97.5183
85.3497
71.1574
55.7229
40.8679
29.7709
24.6007
23.2005
23.4317
24.3068
25.3342
26.3157
27.2942
28.2591
29.0469
29.6114
29.8992
29.9677
15.5622
15.7804
16.2558
17.0081
17.7643
18.7497
19.5607
19.7697
19.9177
20.0578
20.1009
20.1918
20.2051
20.3539
20.4533
20.6779
21.1493
21.9026
23.2529
25.2842