/*--------------------------------*- C++ -*----------------------------------*\
| =========                 |                                                 |
| \\      /  F ield         | OpenFOAM: The Open Source CFD Toolbox           |
|  \\    /   O peration     | Version:  2212                                  |
|   \\  /    A nd           | Website:  www.openfoam.com                      |
|    \\/     M anipulation  |                                                 |
\*---------------------------------------------------------------------------*/
FoamFile
{
    version     2.0;
    format      ascii;
    arch        "LSB;label=32;scalar=64";
    class       volScalarField;
    location    "0.0044";
    object      s;
}
// * * * * * * * * * * * * * * * * * * * * * * * * * * * * * * * * * * * * * //

dimensions      [0 0 0 0 0 0 0];

internalField   nonuniform List<scalar> 
24240
(
-1.22081e-315
-1.25716e-315
-1.23727e-315
-1.24927e-315
-1.23254e-315
-1.26056e-315
-1.26141e-315
-1.27658e-315
-1.22794e-315
-1.24905e-315
-1.24532e-315
-1.26995e-315
-1.26112e-315
-1.26884e-315
-1.2214e-315
-1.23165e-315
-1.24705e-315
-1.26703e-315
-1.28829e-315
-1.25322e-315
-3.74001e-307
-4.06592e-307
-3.885e-307
-3.97714e-307
-3.83286e-307
-4.07623e-307
-4.08248e-307
-4.2053e-307
-3.78103e-307
-3.97734e-307
-3.93881e-307
-4.14855e-307
-4.05937e-307
-4.12632e-307
-3.71118e-307
-3.81097e-307
-3.95453e-307
-4.13875e-307
-4.32578e-307
-4.02029e-307
5.01165e-295
5.15121e-295
5.07495e-295
5.12172e-295
5.05723e-295
5.16514e-295
5.16847e-295
5.22732e-295
5.04005e-295
5.12078e-295
5.10666e-295
5.20171e-295
5.16828e-295
5.19801e-295
5.0154e-295
5.05441e-295
5.11328e-295
5.18976e-295
5.27151e-295
5.13647e-295
2.23572e-284
2.29851e-284
2.26419e-284
2.28519e-284
2.25619e-284
2.30473e-284
2.30622e-284
2.33267e-284
2.24843e-284
2.28477e-284
2.27841e-284
2.32114e-284
2.30607e-284
2.31944e-284
2.23731e-284
2.25488e-284
2.28138e-284
2.3158e-284
2.35257e-284
2.29183e-284
7.1933e-274
7.39562e-274
7.28505e-274
7.35269e-274
7.25927e-274
7.41562e-274
7.42043e-274
7.50562e-274
7.23425e-274
7.35135e-274
7.33084e-274
7.46852e-274
7.41996e-274
7.46304e-274
7.19842e-274
7.25505e-274
7.34045e-274
7.45135e-274
7.56982e-274
7.37415e-274
2.03188e-263
2.08899e-263
2.05778e-263
2.07688e-263
2.05051e-263
2.09465e-263
2.09601e-263
2.12005e-263
2.04346e-263
2.07651e-263
2.07073e-263
2.1096e-263
2.09589e-263
2.10806e-263
2.03336e-263
2.04935e-263
2.07346e-263
2.10477e-263
2.13821e-263
2.08298e-263
6.59144e-253
6.77636e-253
6.67532e-253
6.73718e-253
6.6518e-253
6.79475e-253
6.79916e-253
6.87703e-253
6.62903e-253
6.73607e-253
6.71736e-253
6.84325e-253
6.79892e-253
6.83833e-253
6.59648e-253
6.64825e-253
6.72634e-253
6.82773e-253
6.93605e-253
6.75724e-253
5.69376e-242
5.85357e-242
5.76626e-242
5.81973e-242
5.74596e-242
5.86949e-242
5.87332e-242
5.94061e-242
5.72633e-242
5.81883e-242
5.80268e-242
5.91147e-242
5.87317e-242
5.90724e-242
5.69826e-242
5.74301e-242
5.8105e-242
5.89813e-242
5.99175e-242
5.83725e-242
-4.47198e-231
-4.59859e-231
-4.52942e-231
-4.57172e-231
-4.51333e-231
-4.61117e-231
-4.61422e-231
-4.66758e-231
-4.49781e-231
-4.57114e-231
-4.55832e-231
-4.64445e-231
-4.61405e-231
-4.64102e-231
-4.4755e-231
-4.51097e-231
-4.56444e-231
-4.63386e-231
-4.70799e-231
-4.58562e-231
-1.41308e-230
-1.43382e-230
-1.42061e-230
-1.40211e-230
-1.41461e-230
-1.39463e-230
-1.38817e-230
-1.37882e-230
-1.39557e-230
-1.39978e-230
-1.3975e-230
-1.44026e-230
-1.418e-230
-1.39295e-230
-1.39515e-230
-1.39829e-230
-1.4196e-230
-1.41559e-230
-1.43354e-230
-1.41142e-230
-3.0623e-230
-3.0749e-230
-3.07667e-230
-3.13041e-230
-3.17106e-230
-3.13108e-230
-3.12043e-230
-3.12594e-230
-3.1092e-230
-3.17748e-230
-3.08949e-230
-3.1688e-230
-3.14412e-230
-3.10424e-230
-3.18364e-230
-3.18789e-230
-3.19536e-230
-3.16152e-230
-3.05406e-230
-3.12295e-230
-5.75621e-230
-5.70946e-230
-5.73979e-230
-5.73941e-230
-5.79438e-230
-5.65744e-230
-5.7396e-230
-5.70875e-230
-5.67673e-230
-5.79886e-230
-5.80782e-230
-5.76372e-230
-5.6785e-230
-5.68973e-230
-5.76159e-230
-5.86275e-230
-5.80705e-230
-5.81997e-230
-5.82292e-230
-5.68784e-230
-9.09349e-230
-9.42668e-230
-9.17636e-230
-9.4139e-230
-9.48893e-230
-9.37274e-230
-9.48433e-230
-9.52127e-230
-9.355e-230
-9.32103e-230
-9.52879e-230
-9.33387e-230
-9.15993e-230
-9.21807e-230
-9.11561e-230
-9.26476e-230
-9.16012e-230
-9.37684e-230
-9.19652e-230
-9.27195e-230
-1.3644e-229
-1.37058e-229
-1.42156e-229
-1.41495e-229
-1.41618e-229
-1.409e-229
-1.41876e-229
-1.40943e-229
-1.40127e-229
-1.39854e-229
-1.40213e-229
-1.38472e-229
-1.38179e-229
-1.37391e-229
-1.41103e-229
-1.39928e-229
-1.41673e-229
-1.37289e-229
-1.38513e-229
-1.38015e-229
-1.85828e-229
-1.90615e-229
-1.90843e-229
-1.90538e-229
-1.9278e-229
-1.86969e-229
-1.91867e-229
-1.91057e-229
-1.89996e-229
-1.91948e-229
-1.87287e-229
-1.91443e-229
-1.92073e-229
-1.87854e-229
-1.89023e-229
-1.9198e-229
-1.87693e-229
-1.8702e-229
-1.89627e-229
-1.93524e-229
-2.55499e-229
-2.55473e-229
-2.56404e-229
-2.51913e-229
-2.52193e-229
-2.54875e-229
-2.59303e-229
-2.55441e-229
-2.50016e-229
-2.54885e-229
-2.57154e-229
-2.56987e-229
-2.56095e-229
-2.50924e-229
-2.61553e-229
-2.54155e-229
-2.59398e-229
-2.52289e-229
-2.51195e-229
-2.51812e-229
-1.33951e-229
-1.38413e-229
-1.34553e-229
-1.36263e-229
-1.34584e-229
-1.38099e-229
-1.37577e-229
-1.35438e-229
-1.36561e-229
-1.38524e-229
-1.37115e-229
-1.39593e-229
-1.39847e-229
-1.36582e-229
-1.35653e-229
-1.36221e-229
-1.37222e-229
-1.36109e-229
-1.40555e-229
-1.34544e-229
-4.84297e-230
-4.85617e-230
-4.83126e-230
-4.86361e-230
-4.85945e-230
-4.87519e-230
-4.84398e-230
-4.82105e-230
-4.85811e-230
-4.72744e-230
-4.80996e-230
-4.83474e-230
-4.9714e-230
-4.90781e-230
-4.93152e-230
-4.97987e-230
-4.97632e-230
-4.87376e-230
-5.01271e-230
-4.90793e-230
-4.34317e-230
-4.3394e-230
-4.31443e-230
-2.45389e-230
-2.44864e-230
-2.42775e-230
-2.43975e-230
-4.26284e-230
-4.3614e-230
-2.46339e-230
-4.31375e-230
-2.45268e-230
-4.3267e-230
-4.2796e-230
-2.44752e-230
-4.35383e-230
-2.45808e-230
-2.52126e-230
-2.47985e-230
-2.49309e-230
-2.32648e-230
-2.34117e-230
-2.35155e-230
-2.32261e-230
-2.38551e-230
-2.29909e-230
-2.37461e-230
-2.31743e-230
-2.37915e-230
-2.36528e-230
-2.27738e-230
-2.34532e-230
-2.31296e-230
-2.33607e-230
-2.31264e-230
-2.3002e-230
-2.41e-230
-2.40603e-230
-2.31493e-230
-2.43143e-230
2.62124e-301
2.70093e-301
2.65731e-301
2.68351e-301
2.6469e-301
2.70826e-301
2.71012e-301
2.74335e-301
2.63676e-301
2.68309e-301
2.67486e-301
2.72875e-301
2.70932e-301
2.7262e-301
2.62227e-301
2.64478e-301
2.67855e-301
2.72234e-301
2.76885e-301
2.69202e-301
9.73561e-292
1.00758e-291
9.88917e-292
9.99782e-292
9.84281e-292
1.01031e-291
1.01108e-291
1.02503e-291
9.79732e-292
9.99646e-292
9.96029e-292
1.0188e-291
1.01029e-291
1.01744e-291
9.73278e-292
9.83031e-292
9.97539e-292
1.0163e-291
1.03604e-291
1.00341e-291
-6.82055e-281
-7.01155e-281
-6.90718e-281
-6.97112e-281
-6.8829e-281
-7.03056e-281
-7.03512e-281
-7.11567e-281
-6.85939e-281
-6.96992e-281
-6.95058e-281
-7.08061e-281
-7.0348e-281
-7.07548e-281
-6.8256e-281
-6.87901e-281
-6.9596e-281
-7.06427e-281
-7.17613e-281
-6.99136e-281
-6.87491e-270
-7.06915e-270
-6.96299e-270
-7.02788e-270
-6.93822e-270
-7.08832e-270
-7.09294e-270
-7.17478e-270
-6.91423e-270
-7.02668e-270
-7.00697e-270
-7.1391e-270
-7.09242e-270
-7.13376e-270
-6.87973e-270
-6.93411e-270
-7.01609e-270
-7.12256e-270
-7.23625e-270
-7.04842e-270
-2.84732e-259
-2.9279e-259
-2.88386e-259
-2.91078e-259
-2.87359e-259
-2.93585e-259
-2.93777e-259
-2.97172e-259
-2.86363e-259
-2.91029e-259
-2.90211e-259
-2.95692e-259
-2.93755e-259
-2.9547e-259
-2.84932e-259
-2.87188e-259
-2.9059e-259
-2.95007e-259
-2.99723e-259
-2.91931e-259
-1.13677e-248
-1.16897e-248
-1.15137e-248
-1.16212e-248
-1.14726e-248
-1.17214e-248
-1.17291e-248
-1.18648e-248
-1.14329e-248
-1.16194e-248
-1.15867e-248
-1.18057e-248
-1.17283e-248
-1.17969e-248
-1.13758e-248
-1.1466e-248
-1.1602e-248
-1.17785e-248
-1.19669e-248
-1.16556e-248
-5.48582e-238
-5.64126e-238
-5.55632e-238
-5.60824e-238
-5.53652e-238
-5.65665e-238
-5.66038e-238
-5.72589e-238
-5.51741e-238
-5.60743e-238
-5.59167e-238
-5.6974e-238
-5.66005e-238
-5.69315e-238
-5.4899e-238
-5.53344e-238
-5.59908e-238
-5.6843e-238
-5.77528e-238
-5.62503e-238
-5.2609e-227
-5.40986e-227
-5.32847e-227
-5.37823e-227
-5.30952e-227
-5.42464e-227
-5.42822e-227
-5.49104e-227
-5.29124e-227
-5.37751e-227
-5.36242e-227
-5.46376e-227
-5.42798e-227
-5.45971e-227
-5.26495e-227
-5.30668e-227
-5.36959e-227
-5.45127e-227
-5.53848e-227
-5.39451e-227
2.18378e-216
2.24601e-216
2.21201e-216
2.23278e-216
2.2041e-216
2.25219e-216
2.25369e-216
2.27993e-216
2.19649e-216
2.23255e-216
2.22624e-216
2.26855e-216
2.25359e-216
2.26684e-216
2.1855e-216
2.20294e-216
2.22923e-216
2.26335e-216
2.29977e-216
2.23963e-216
5.04391e-216
5.11828e-216
5.07091e-216
5.00456e-216
5.0494e-216
4.97779e-216
4.95465e-216
4.92116e-216
4.98119e-216
4.99634e-216
4.98816e-216
5.14143e-216
5.06156e-216
4.97178e-216
4.97965e-216
4.9909e-216
5.0673e-216
5.05295e-216
5.11728e-216
5.03801e-216
8.59248e-216
8.62796e-216
8.63294e-216
8.78421e-216
8.89864e-216
8.78609e-216
8.75615e-216
8.7717e-216
8.72462e-216
8.91693e-216
8.66917e-216
8.89246e-216
8.82294e-216
8.71062e-216
8.93416e-216
8.94609e-216
8.9671e-216
8.87183e-216
8.56933e-216
8.76327e-216
1.31293e-215
1.30223e-215
1.30918e-215
1.30908e-215
1.32165e-215
1.29033e-215
1.30912e-215
1.30207e-215
1.29476e-215
1.32271e-215
1.32475e-215
1.31466e-215
1.29518e-215
1.29773e-215
1.31417e-215
1.33731e-215
1.32457e-215
1.32753e-215
1.3282e-215
1.29729e-215
1.75749e-215
1.82205e-215
1.77355e-215
1.81958e-215
1.83411e-215
1.8116e-215
1.83322e-215
1.84038e-215
1.80818e-215
1.8016e-215
1.84186e-215
1.8041e-215
1.7704e-215
1.78166e-215
1.7618e-215
1.79071e-215
1.77043e-215
1.81243e-215
1.77749e-215
1.7921e-215
2.28349e-215
2.29385e-215
2.37939e-215
2.36829e-215
2.37036e-215
2.35831e-215
2.37468e-215
2.35903e-215
2.34536e-215
2.34078e-215
2.3468e-215
2.3176e-215
2.3127e-215
2.29949e-215
2.36174e-215
2.34204e-215
2.37133e-215
2.2978e-215
2.31832e-215
2.30997e-215
2.74779e-215
2.81864e-215
2.82202e-215
2.81752e-215
2.85071e-215
2.76468e-215
2.83719e-215
2.82521e-215
2.80952e-215
2.83842e-215
2.76944e-215
2.83096e-215
2.8403e-215
2.77785e-215
2.79515e-215
2.83894e-215
2.77548e-215
2.76552e-215
2.80412e-215
2.86181e-215
3.37601e-215
3.37566e-215
3.38798e-215
3.32862e-215
3.33233e-215
3.36778e-215
3.4263e-215
3.37528e-215
3.30359e-215
3.36794e-215
3.39794e-215
3.39574e-215
3.38396e-215
3.31563e-215
3.45612e-215
3.35834e-215
3.42764e-215
3.33368e-215
3.31922e-215
3.32736e-215
1.67872e-215
1.73466e-215
1.68628e-215
1.70771e-215
1.68667e-215
1.73074e-215
1.7242e-215
1.69738e-215
1.71148e-215
1.73608e-215
1.71842e-215
1.7495e-215
1.75269e-215
1.71175e-215
1.70011e-215
1.70724e-215
1.71978e-215
1.70583e-215
1.76157e-215
1.6862e-215
5.18699e-216
5.20113e-216
5.17445e-216
5.20912e-216
5.20467e-216
5.22153e-216
5.18809e-216
5.16353e-216
5.20325e-216
5.06319e-216
5.15166e-216
5.17823e-216
5.32473e-216
5.2566e-216
5.28202e-216
5.33385e-216
5.33003e-216
5.22009e-216
5.36899e-216
5.2567e-216
4.43178e-216
4.42793e-216
4.40244e-216
2.39533e-216
2.39032e-216
2.36979e-216
2.38163e-216
4.34981e-216
4.45044e-216
2.40465e-216
4.40182e-216
2.39418e-216
4.41506e-216
4.36697e-216
2.38914e-216
4.44276e-216
2.39959e-216
2.46123e-216
2.42075e-216
2.43382e-216
2.07406e-216
2.08717e-216
2.09644e-216
2.07067e-216
2.1268e-216
2.04969e-216
2.11709e-216
2.066e-216
2.12108e-216
2.10877e-216
2.03027e-216
2.09096e-216
2.06203e-216
2.08265e-216
2.06181e-216
2.05064e-216
2.14868e-216
2.14514e-216
2.06385e-216
2.16782e-216
-3.99212e-287
-4.1177e-287
-4.04896e-287
-4.08995e-287
-4.03241e-287
-4.12898e-287
-4.13192e-287
-4.18423e-287
-4.01631e-287
-4.08945e-287
-4.07638e-287
-4.16108e-287
-4.13023e-287
-4.15676e-287
-3.99314e-287
-4.02871e-287
-4.08196e-287
-4.15096e-287
-4.22403e-287
-4.10307e-287
-4.78083e-277
-4.93577e-277
-4.85092e-277
-4.90117e-277
-4.83032e-277
-4.94929e-277
-4.95289e-277
-5.01724e-277
-4.81021e-277
-4.90058e-277
-4.88436e-277
-4.9886e-277
-4.95033e-277
-4.98298e-277
-4.78133e-277
-4.82534e-277
-4.8911e-277
-4.97627e-277
-5.06626e-277
-4.91717e-277
-2.57965e-267
-2.67427e-267
-2.62237e-267
-2.65231e-267
-2.60935e-267
-2.68161e-267
-2.68375e-267
-2.7226e-267
-2.59651e-267
-2.652e-267
-2.64183e-267
-2.7049e-267
-2.68101e-267
-2.70077e-267
-2.57811e-267
-2.60527e-267
-2.6456e-267
-2.69769e-267
-2.75227e-267
-2.66157e-267
5.45438e-257
5.6061e-257
5.52322e-257
5.57415e-257
5.50406e-257
5.62146e-257
5.62514e-257
5.68924e-257
5.48568e-257
5.57349e-257
5.55819e-257
5.66158e-257
5.62527e-257
5.65764e-257
5.45908e-257
5.50148e-257
5.56549e-257
5.64864e-257
5.73757e-257
5.5908e-257
7.51813e-246
7.73339e-246
7.61576e-246
7.68754e-246
7.58833e-246
7.75465e-246
7.75985e-246
7.85056e-246
7.56197e-246
7.68674e-246
7.66488e-246
7.81119e-246
7.75936e-246
7.80516e-246
7.52377e-246
7.58412e-246
7.67502e-246
7.79302e-246
7.91893e-246
7.71091e-246
1.53836e-234
1.58247e-234
1.55836e-234
1.57307e-234
1.55274e-234
1.58683e-234
1.58789e-234
1.60648e-234
1.54733e-234
1.57291e-234
1.56843e-234
1.59841e-234
1.58778e-234
1.59717e-234
1.5395e-234
1.55187e-234
1.57051e-234
1.59469e-234
1.62049e-234
1.57786e-234
1.89754e-223
1.95196e-223
1.92222e-223
1.94036e-223
1.91529e-223
1.95733e-223
1.95865e-223
1.98158e-223
1.90862e-223
1.94017e-223
1.93464e-223
1.97163e-223
1.95852e-223
1.9701e-223
1.89897e-223
1.91423e-223
1.93721e-223
1.96705e-223
1.99887e-223
1.94629e-223
2.19024e-212
2.25305e-212
2.21873e-212
2.23968e-212
2.21074e-212
2.25927e-212
2.26079e-212
2.28727e-212
2.20307e-212
2.23948e-212
2.23311e-212
2.2758e-212
2.26068e-212
2.27405e-212
2.19195e-212
2.20957e-212
2.23611e-212
2.27055e-212
2.30729e-212
2.24661e-212
-2.36968e-202
-2.43767e-202
-2.40052e-202
-2.42319e-202
-2.39187e-202
-2.4444e-202
-2.44606e-202
-2.47473e-202
-2.38358e-202
-2.423e-202
-2.4161e-202
-2.46231e-202
-2.44594e-202
-2.46042e-202
-2.37156e-202
-2.39064e-202
-2.41936e-202
-2.45664e-202
-2.49641e-202
-2.43072e-202
-4.15855e-202
-4.22017e-202
-4.18092e-202
-4.12595e-202
-4.1631e-202
-4.1038e-202
-4.08465e-202
-4.05694e-202
-4.10668e-202
-4.11926e-202
-4.11249e-202
-4.23942e-202
-4.17323e-202
-4.09885e-202
-4.10536e-202
-4.11469e-202
-4.17796e-202
-4.1661e-202
-4.2194e-202
-4.15374e-202
-5.66982e-202
-5.69332e-202
-5.69661e-202
-5.79679e-202
-5.87257e-202
-5.79803e-202
-5.77823e-202
-5.78855e-202
-5.75742e-202
-5.88483e-202
-5.72071e-202
-5.86862e-202
-5.82254e-202
-5.74812e-202
-5.89617e-202
-5.90405e-202
-5.91795e-202
-5.85486e-202
-5.65453e-202
-5.78299e-202
-3.63788e-202
-3.60812e-202
-3.62746e-202
-3.62717e-202
-3.66211e-202
-3.57504e-202
-3.62727e-202
-3.6077e-202
-3.58738e-202
-3.66514e-202
-3.67077e-202
-3.64275e-202
-3.58861e-202
-3.59565e-202
-3.6414e-202
-3.7057e-202
-3.67028e-202
-3.67851e-202
-3.68036e-202
-3.59443e-202
-4.15383e-202
-4.30689e-202
-4.19188e-202
-4.30103e-202
-4.33547e-202
-4.28208e-202
-4.33335e-202
-4.35034e-202
-4.27403e-202
-4.25847e-202
-4.35389e-202
-4.2644e-202
-4.18452e-202
-4.2112e-202
-4.1641e-202
-4.23267e-202
-4.18458e-202
-4.2842e-202
-4.20132e-202
-4.23593e-202
-4.69541e-202
-4.71677e-202
-4.89314e-202
-4.87028e-202
-4.87453e-202
-4.84971e-202
-4.88344e-202
-4.85119e-202
-4.82301e-202
-4.81356e-202
-4.82602e-202
-4.76582e-202
-4.75573e-202
-4.72851e-202
-4.85685e-202
-4.81621e-202
-4.87665e-202
-4.72506e-202
-4.76736e-202
-4.75011e-202
-5.01689e-202
-5.14642e-202
-5.15261e-202
-5.14441e-202
-5.20509e-202
-5.04779e-202
-5.18036e-202
-5.15847e-202
-5.12983e-202
-5.18267e-202
-5.05656e-202
-5.16905e-202
-5.18615e-202
-5.07199e-202
-5.10362e-202
-5.18371e-202
-5.06769e-202
-5.04949e-202
-5.12005e-202
-5.22553e-202
-5.50863e-202
-5.50806e-202
-5.52816e-202
-5.4313e-202
-5.43735e-202
-5.49524e-202
-5.59075e-202
-5.50749e-202
-5.3905e-202
-5.49556e-202
-5.54454e-202
-5.54097e-202
-5.52176e-202
-5.41026e-202
-5.63957e-202
-5.47999e-202
-5.59311e-202
-5.43975e-202
-5.41612e-202
-5.4294e-202
-5.10962e-202
-5.27995e-202
-5.13264e-202
-5.19792e-202
-5.13385e-202
-5.26803e-202
-5.24813e-202
-5.16649e-202
-5.20943e-202
-5.28435e-202
-5.2306e-202
-5.32523e-202
-5.33496e-202
-5.21035e-202
-5.17489e-202
-5.19661e-202
-5.23479e-202
-5.19233e-202
-5.36202e-202
-5.13253e-202
-2.71012e-202
-2.71751e-202
-2.70357e-202
-2.7217e-202
-2.71939e-202
-2.72819e-202
-2.71071e-202
-2.69787e-202
-2.71865e-202
-2.64541e-202
-2.69169e-202
-2.70559e-202
-2.78221e-202
-2.7466e-202
-2.7599e-202
-2.78702e-202
-2.78501e-202
-2.72751e-202
-2.80536e-202
-2.74665e-202
-2.22665e-202
-2.22471e-202
-2.2119e-202
-1.14618e-202
-1.14378e-202
-1.13394e-202
-1.13962e-202
-2.18545e-202
-2.23605e-202
-1.15065e-202
-2.21161e-202
-1.14564e-202
-2.21827e-202
-2.1941e-202
-1.14323e-202
-2.2322e-202
-1.14823e-202
-1.17778e-202
-1.15837e-202
-1.16464e-202
-9.3472e-203
-9.40632e-203
-9.44814e-203
-9.33215e-203
-9.58541e-203
-9.23753e-203
-9.54161e-203
-9.31092e-203
-9.55942e-203
-9.50414e-203
-9.14979e-203
-9.42382e-203
-9.29306e-203
-9.38611e-203
-9.2923e-203
-9.24174e-203
-9.68426e-203
-9.66827e-203
-9.30156e-203
-9.77067e-203
1.82085e-273
1.88728e-273
1.8509e-273
1.87198e-273
1.84188e-273
1.89267e-273
1.89423e-273
1.92173e-273
1.8331e-273
1.87208e-273
1.86498e-273
1.90929e-273
1.89254e-273
1.90641e-273
1.82027e-273
1.8393e-273
1.86756e-273
1.90404e-273
1.94226e-273
1.87854e-273
3.60915e-263
3.74074e-263
3.66865e-263
3.71042e-263
3.65079e-263
3.7514e-263
3.75449e-263
3.80895e-263
3.63338e-263
3.71059e-263
3.69652e-263
3.78431e-263
3.75114e-263
3.77861e-263
3.60797e-263
3.64566e-263
3.70164e-263
3.77391e-263
3.84964e-263
3.7234e-263
6.46807e-253
6.70371e-253
6.57462e-253
6.64942e-253
6.54261e-253
6.72277e-253
6.72828e-253
6.82577e-253
6.51139e-253
6.64964e-253
6.62444e-253
6.78163e-253
6.72223e-253
6.77143e-253
6.46586e-253
6.53335e-253
6.63359e-253
6.76302e-253
6.89862e-253
6.67255e-253
9.56736e-243
9.91542e-243
9.72473e-243
9.83522e-243
9.67742e-243
9.94352e-243
9.95164e-243
1.00955e-242
9.63125e-243
9.83543e-243
9.79821e-243
1.00304e-242
9.94271e-243
1.00154e-242
9.56404e-243
9.66376e-243
9.81185e-243
1.00031e-242
1.02034e-242
9.86942e-243
9.78782e-233
1.01427e-232
9.94823e-233
1.00609e-232
9.89993e-233
1.01712e-232
1.01794e-232
1.03258e-232
9.85271e-233
1.00608e-232
1.00229e-232
1.02597e-232
1.01703e-232
1.02445e-232
9.78437e-233
9.88608e-233
1.00371e-232
1.02322e-232
1.04367e-232
1.0096e-232
-4.12398e-224
-4.28482e-224
-4.1971e-224
-4.24798e-224
-4.17596e-224
-4.29908e-224
-4.30332e-224
-4.37237e-224
-4.15597e-224
-4.25074e-224
-4.23334e-224
-4.33999e-224
-4.29874e-224
-4.3317e-224
-4.12299e-224
-4.16845e-224
-4.23597e-224
-4.32301e-224
-4.41382e-224
-4.26042e-224
-3.8806e-213
-4.0228e-213
-3.94495e-213
-3.99009e-213
-3.92573e-213
-4.03447e-213
-4.03785e-213
-4.09689e-213
-3.90708e-213
-3.99054e-213
-3.97534e-213
-4.07015e-213
-4.03428e-213
-4.06393e-213
-3.87955e-213
-3.92023e-213
-3.98065e-213
-4.05865e-213
-4.14033e-213
-4.00395e-213
-3.70482e-202
-3.84056e-202
-3.76625e-202
-3.80933e-202
-3.7479e-202
-3.8517e-202
-3.85494e-202
-3.9113e-202
-3.73011e-202
-3.80979e-202
-3.79527e-202
-3.88579e-202
-3.85155e-202
-3.87986e-202
-3.70384e-202
-3.74269e-202
-3.80037e-202
-3.87483e-202
-3.95281e-202
-3.82262e-202
-1.0678e-198
-1.09379e-198
-1.07961e-198
-1.08862e-198
-1.07647e-198
-1.09672e-198
-1.09736e-198
-1.1084e-198
-1.07347e-198
-1.08839e-198
-1.08586e-198
-1.1038e-198
-1.09779e-198
-1.10341e-198
-1.06921e-198
-1.07638e-198
-1.0873e-198
-1.10155e-198
-1.11698e-198
-1.09171e-198
-1.88306e-198
-1.90681e-198
-1.89185e-198
-1.87063e-198
-1.88513e-198
-1.86198e-198
-1.85455e-198
-1.84348e-198
-1.86271e-198
-1.86731e-198
-1.86472e-198
-1.91456e-198
-1.88944e-198
-1.8606e-198
-1.86335e-198
-1.86678e-198
-1.89162e-198
-1.88655e-198
-1.90715e-198
-1.88147e-198
-2.59822e-198
-2.60754e-198
-2.60912e-198
-2.64919e-198
-2.67976e-198
-2.65013e-198
-2.64191e-198
-2.64589e-198
-2.63293e-198
-2.68311e-198
-2.61836e-198
-2.6771e-198
-2.65941e-198
-2.6303e-198
-2.68938e-198
-2.69286e-198
-2.69877e-198
-2.67341e-198
-2.59323e-198
-2.64419e-198
-2.53643e-198
-2.52181e-198
-2.53132e-198
-2.53133e-198
-2.54892e-198
-2.5084e-198
-2.5336e-198
-2.52341e-198
-2.51271e-198
-2.54812e-198
-2.55087e-198
-2.5379e-198
-2.51356e-198
-2.51856e-198
-2.5404e-198
-2.57149e-198
-2.55511e-198
-2.55807e-198
-2.55938e-198
-2.51923e-198
-2.99844e-198
-3.07554e-198
-3.01596e-198
-3.0707e-198
-3.08931e-198
-3.0645e-198
-3.09025e-198
-3.09809e-198
-3.05838e-198
-3.04979e-198
-3.09822e-198
-3.05284e-198
-3.01323e-198
-3.02796e-198
-3.00454e-198
-3.03835e-198
-3.01373e-198
-3.06387e-198
-3.02289e-198
-3.04224e-198
-3.45539e-198
-3.46508e-198
-3.55763e-198
-3.54475e-198
-3.54866e-198
-3.53677e-198
-3.55459e-198
-3.53806e-198
-3.52357e-198
-3.51791e-198
-3.52466e-198
-3.49208e-198
-3.48613e-198
-3.4736e-198
-3.54305e-198
-3.52148e-198
-3.55283e-198
-3.47037e-198
-3.49279e-198
-3.48372e-198
-3.7316e-198
-3.80256e-198
-3.80561e-198
-3.80067e-198
-3.83474e-198
-3.74919e-198
-3.82341e-198
-3.81231e-198
-3.79618e-198
-3.82385e-198
-3.75384e-198
-3.81645e-198
-3.82488e-198
-3.76356e-198
-3.78149e-198
-3.82562e-198
-3.76147e-198
-3.75164e-198
-3.79028e-198
-3.84831e-198
-4.1065e-198
-4.10373e-198
-4.11524e-198
-4.06042e-198
-4.06542e-198
-4.09963e-198
-4.15502e-198
-4.10914e-198
-4.04249e-198
-4.09912e-198
-4.12582e-198
-4.12384e-198
-4.11327e-198
-4.05103e-198
-4.17949e-198
-4.09139e-198
-4.15453e-198
-4.06915e-198
-4.05503e-198
-4.06433e-198
-1.36229e-198
-1.39164e-198
-1.3661e-198
-1.37702e-198
-1.36582e-198
-1.38971e-198
-1.38716e-198
-1.37362e-198
-1.38129e-198
-1.39405e-198
-1.38388e-198
-1.40026e-198
-1.4012e-198
-1.38009e-198
-1.3737e-198
-1.37747e-198
-1.38378e-198
-1.37684e-198
-1.40609e-198
-1.36705e-198
4.5675e-199
4.58926e-199
4.55262e-199
4.60072e-199
4.59554e-199
4.61523e-199
4.57012e-199
4.53098e-199
4.58372e-199
4.39988e-199
4.51567e-199
4.55498e-199
4.74964e-199
4.65909e-199
4.69575e-199
4.76367e-199
4.76054e-199
4.61392e-199
4.81319e-199
4.65872e-199
3.71845e-199
3.71477e-199
3.68289e-199
6.24395e-199
6.22934e-199
6.15781e-199
6.19703e-199
3.61517e-199
3.74273e-199
6.27265e-199
3.68317e-199
6.23861e-199
3.69991e-199
3.63786e-199
6.21931e-199
3.73588e-199
6.25631e-199
6.46516e-199
6.32622e-199
6.36966e-199
4.98402e-199
5.02379e-199
5.05255e-199
4.9756e-199
5.15323e-199
4.91064e-199
5.12305e-199
4.95747e-199
5.13079e-199
5.0941e-199
4.84813e-199
5.03703e-199
4.94187e-199
5.00601e-199
4.94111e-199
4.90659e-199
5.21349e-199
5.20246e-199
4.94593e-199
5.27475e-199
-3.29707e-265
-3.41786e-265
-3.35173e-265
-3.39007e-265
-3.3354e-265
-3.42778e-265
-3.43066e-265
-3.48076e-265
-3.31962e-265
-3.39055e-265
-3.37767e-265
-3.45826e-265
-3.42783e-265
-3.45307e-265
-3.29648e-265
-3.3311e-265
-3.38249e-265
-3.44883e-265
-3.5183e-265
-3.4024e-265
-1.07849e-254
-1.11804e-254
-1.09639e-254
-1.10894e-254
-1.09104e-254
-1.12129e-254
-1.12224e-254
-1.13865e-254
-1.08588e-254
-1.10911e-254
-1.10489e-254
-1.13128e-254
-1.12132e-254
-1.12958e-254
-1.0783e-254
-1.08964e-254
-1.10647e-254
-1.12819e-254
-1.15093e-254
-1.11297e-254
-3.89839e-244
-4.04145e-244
-3.96313e-244
-4.00854e-244
-3.94381e-244
-4.05322e-244
-4.05665e-244
-4.11602e-244
-3.92515e-244
-4.00918e-244
-3.99393e-244
-4.08938e-244
-4.05333e-244
-4.08322e-244
-3.89776e-244
-3.93876e-244
-3.99962e-244
-4.07817e-244
-4.1604e-244
-4.02309e-244
-1.41109e-233
-1.46288e-233
-1.43453e-233
-1.45096e-233
-1.42753e-233
-1.46714e-233
-1.46838e-233
-1.48987e-233
-1.42078e-233
-1.4512e-233
-1.44567e-233
-1.48022e-233
-1.46717e-233
-1.47799e-233
-1.41086e-233
-1.4257e-233
-1.44773e-233
-1.47616e-233
-1.50592e-233
-1.45622e-233
-4.61865e-223
-4.78817e-223
-4.69537e-223
-4.74916e-223
-4.67246e-223
-4.80211e-223
-4.80617e-223
-4.87651e-223
-4.65035e-223
-4.74991e-223
-4.73184e-223
-4.84493e-223
-4.80221e-223
-4.83763e-223
-4.61787e-223
-4.66645e-223
-4.73856e-223
-4.83162e-223
-4.92904e-223
-4.76633e-223
-1.31445e-212
-1.3627e-212
-1.33629e-212
-1.3516e-212
-1.32977e-212
-1.36666e-212
-1.36782e-212
-1.38784e-212
-1.32348e-212
-1.35181e-212
-1.34667e-212
-1.37885e-212
-1.3667e-212
-1.37678e-212
-1.31423e-212
-1.32806e-212
-1.34858e-212
-1.37507e-212
-1.40279e-212
-1.35648e-212
-2.98028e-202
-3.08967e-202
-3.02979e-202
-3.0645e-202
-3.01501e-202
-3.09866e-202
-3.10129e-202
-3.14668e-202
-3.00074e-202
-3.06499e-202
-3.05333e-202
-3.1263e-202
-3.09874e-202
-3.12159e-202
-2.97979e-202
-3.01114e-202
-3.05767e-202
-3.11772e-202
-3.18058e-202
-3.07559e-202
-2.04042e-197
-2.11504e-197
-2.07418e-197
-2.09787e-197
-2.06408e-197
-2.12114e-197
-2.1229e-197
-2.15382e-197
-2.05424e-197
-2.09802e-197
-2.09003e-197
-2.13978e-197
-2.12095e-197
-2.1365e-197
-2.03973e-197
-2.06106e-197
-2.09276e-197
-2.13368e-197
-2.17654e-197
-2.10497e-197
1.57738e-194
1.63728e-194
1.60449e-194
1.62339e-194
1.59636e-194
1.64209e-194
1.64353e-194
1.66856e-194
1.58849e-194
1.62372e-194
1.61729e-194
1.65715e-194
1.64196e-194
1.65441e-194
1.57684e-194
1.59404e-194
1.61953e-194
1.6524e-194
1.68674e-194
1.62933e-194
2.7312e-194
2.78475e-194
2.75009e-194
2.70242e-194
2.73413e-194
2.68349e-194
2.66701e-194
2.64412e-194
2.68722e-194
2.69893e-194
2.69297e-194
2.80041e-194
2.74162e-194
2.67749e-194
2.68239e-194
2.69104e-194
2.74462e-194
2.73587e-194
2.78202e-194
2.72612e-194
3.59636e-194
3.61581e-194
3.61767e-194
3.69963e-194
3.76076e-194
3.69923e-194
3.68399e-194
3.69289e-194
3.66899e-194
3.77565e-194
3.63861e-194
3.76089e-194
3.72086e-194
3.65792e-194
3.77945e-194
3.78485e-194
3.79511e-194
3.74391e-194
3.58022e-194
3.68661e-194
4.49161e-194
4.44489e-194
4.47523e-194
4.4745e-194
4.52863e-194
4.38832e-194
4.47104e-194
4.44124e-194
4.41054e-194
4.53705e-194
4.54596e-194
4.50067e-194
4.41201e-194
4.42058e-194
4.49336e-194
4.59508e-194
4.53783e-194
4.55252e-194
4.5548e-194
4.41656e-194
4.89982e-194
5.13438e-194
4.96077e-194
5.12845e-194
5.17917e-194
5.09399e-194
5.17266e-194
5.19986e-194
5.08498e-194
5.0623e-194
5.20793e-194
5.07126e-194
4.94783e-194
4.98663e-194
4.91396e-194
5.0202e-194
4.94714e-194
5.09987e-194
4.9716e-194
5.02158e-194
5.34511e-194
5.37911e-194
5.63983e-194
5.60742e-194
5.61104e-194
5.57235e-194
5.6222e-194
5.57385e-194
5.53173e-194
5.51885e-194
5.53683e-194
5.4495e-194
5.43564e-194
5.39254e-194
5.57885e-194
5.51921e-194
5.60895e-194
5.3897e-194
5.4519e-194
5.42644e-194
5.54279e-194
5.72649e-194
5.73579e-194
5.72455e-194
5.80926e-194
5.58548e-194
5.771e-194
5.7384e-194
5.69821e-194
5.77533e-194
5.59814e-194
5.75611e-194
5.78168e-194
5.61779e-194
5.66189e-194
5.77474e-194
5.61139e-194
5.58533e-194
5.68513e-194
5.83431e-194
5.90867e-194
5.91179e-194
5.93884e-194
5.80729e-194
5.81301e-194
5.88935e-194
6.01692e-194
5.90181e-194
5.74366e-194
5.8908e-194
5.95897e-194
5.95402e-194
5.92748e-194
5.77462e-194
6.08817e-194
5.86788e-194
6.02291e-194
5.81239e-194
5.78161e-194
5.79666e-194
5.82723e-194
6.07075e-194
5.8606e-194
5.95494e-194
5.86379e-194
6.05331e-194
6.02212e-194
5.90376e-194
5.96429e-194
6.07185e-194
5.99781e-194
6.13283e-194
6.14902e-194
5.96972e-194
5.91989e-194
5.95084e-194
6.00629e-194
5.94434e-194
6.18695e-194
5.85728e-194
6.26813e-194
6.2909e-194
6.25063e-194
6.30327e-194
6.29712e-194
6.32045e-194
6.27047e-194
6.2301e-194
6.28896e-194
6.08285e-194
6.2128e-194
6.2547e-194
6.47171e-194
6.37075e-194
6.41017e-194
6.48641e-194
6.48192e-194
6.31875e-194
6.5402e-194
6.37065e-194
5.16259e-194
5.15783e-194
5.1217e-194
5.3062e-194
5.29415e-194
5.23762e-194
5.26897e-194
5.04594e-194
5.18958e-194
5.3295e-194
5.12144e-194
5.30216e-194
5.14029e-194
5.07098e-194
5.28722e-194
5.18034e-194
5.31633e-194
5.48238e-194
5.37223e-194
5.40692e-194
4.22765e-194
4.2594e-194
4.28225e-194
4.22061e-194
4.36108e-194
4.16898e-194
4.33711e-194
4.20684e-194
4.34408e-194
4.31469e-194
4.1197e-194
4.26969e-194
4.19505e-194
4.24597e-194
4.1945e-194
4.16702e-194
4.41035e-194
4.40159e-194
4.19861e-194
4.45867e-194
-1.54556e-254
-1.6023e-254
-1.57124e-254
-1.58925e-254
-1.56357e-254
-1.60697e-254
-1.60834e-254
-1.63189e-254
-1.55619e-254
-1.58954e-254
-1.5835e-254
-1.62137e-254
-1.60708e-254
-1.61896e-254
-1.5454e-254
-1.56169e-254
-1.58585e-254
-1.61703e-254
-1.64968e-254
-1.59522e-254
-5.63757e-244
-5.84456e-244
-5.73124e-244
-5.79692e-244
-5.70327e-244
-5.86157e-244
-5.86655e-244
-5.95243e-244
-5.67634e-244
-5.79795e-244
-5.77592e-244
-5.91406e-244
-5.86194e-244
-5.90524e-244
-5.63695e-244
-5.69634e-244
-5.78447e-244
-5.8982e-244
-6.01727e-244
-5.81863e-244
-1.89983e-233
-1.96958e-233
-1.93139e-233
-1.95353e-233
-1.92197e-233
-1.97531e-233
-1.97699e-233
-2.00593e-233
-1.91288e-233
-1.95387e-233
-1.94644e-233
-1.99299e-233
-1.97542e-233
-1.99001e-233
-1.8996e-233
-1.91961e-233
-1.94931e-233
-1.98763e-233
-2.02775e-233
-1.96081e-233
-5.47236e-223
-5.67328e-223
-5.56328e-223
-5.62703e-223
-5.53611e-223
-5.68977e-223
-5.6946e-223
-5.77795e-223
-5.50994e-223
-5.62798e-223
-5.60658e-223
-5.74066e-223
-5.69006e-223
-5.73208e-223
-5.47165e-223
-5.52929e-223
-5.61483e-223
-5.72521e-223
-5.84077e-223
-5.64794e-223
-1.2451e-212
-1.29081e-212
-1.26579e-212
-1.28029e-212
-1.2596e-212
-1.29456e-212
-1.29566e-212
-1.31463e-212
-1.25365e-212
-1.2805e-212
-1.27563e-212
-1.30614e-212
-1.29462e-212
-1.30418e-212
-1.24493e-212
-1.25804e-212
-1.2775e-212
-1.30262e-212
-1.32891e-212
-1.28503e-212
-1.82862e-202
-1.89576e-202
-1.859e-202
-1.88031e-202
-1.84993e-202
-1.90127e-202
-1.90288e-202
-1.93073e-202
-1.84117e-202
-1.88061e-202
-1.87346e-202
-1.91826e-202
-1.90136e-202
-1.9154e-202
-1.82837e-202
-1.84763e-202
-1.87621e-202
-1.91309e-202
-1.95171e-202
-1.88727e-202
-1.59239e-197
-1.65076e-197
-1.6188e-197
-1.63732e-197
-1.6109e-197
-1.65552e-197
-1.65691e-197
-1.68108e-197
-1.60323e-197
-1.6375e-197
-1.63126e-197
-1.67019e-197
-1.65547e-197
-1.66766e-197
-1.59199e-197
-1.6087e-197
-1.63352e-197
-1.66555e-197
-1.69909e-197
-1.64307e-197
-3.5357e-193
-3.66441e-193
-3.5939e-193
-3.63476e-193
-3.5764e-193
-3.67479e-193
-3.67777e-193
-3.73085e-193
-3.5592e-193
-3.63464e-193
-3.6208e-193
-3.70658e-193
-3.67406e-193
-3.70084e-193
-3.53385e-193
-3.5706e-193
-3.62523e-193
-3.69577e-193