/*--------------------------------*- C++ -*----------------------------------*\
| =========                 |                                                 |
| \\      /  F ield         | OpenFOAM: The Open Source CFD Toolbox           |
|  \\    /   O peration     | Version:  2212                                  |
|   \\  /    A nd           | Website:  www.openfoam.com                      |
|    \\/     M anipulation  |                                                 |
\*---------------------------------------------------------------------------*/
FoamFile
{
    version     2.0;
    format      ascii;
    arch        "LSB;label=32;scalar=64";
    class       volScalarField;
    location    "0.477";
    object      pMean;
}
// * * * * * * * * * * * * * * * * * * * * * * * * * * * * * * * * * * * * * //

dimensions      [0 2 -2 0 0 0 0];

internalField   nonuniform List<scalar> 
24240
(
4.10252
4.10253
4.10253
4.10253
4.10254
4.10255
4.10256
4.10257
4.10259
4.1026
4.10261
4.10262
4.10264
4.10265
4.10266
4.10267
4.10267
4.10268
4.10269
4.10268
3.19396
3.19396
3.19396
3.19397
3.19397
3.19398
3.19398
3.19399
3.19399
3.194
3.19401
3.19401
3.19402
3.19402
3.19403
3.19403
3.19404
3.19404
3.19404
3.19404
3.26666
3.26666
3.26666
3.26666
3.26666
3.26666
3.26666
3.26665
3.26665
3.26665
3.26665
3.26665
3.26665
3.26665
3.26665
3.26665
3.26664
3.26664
3.26664
3.26664
2.93658
2.93659
2.93659
2.93658
2.93658
2.93658
2.93658
2.93658
2.93658
2.93657
2.93657
2.93657
2.93657
2.93656
2.93656
2.93656
2.93656
2.93655
2.93655
2.93655
2.97046
2.97046
2.97045
2.97045
2.97044
2.97044
2.97043
2.97042
2.97041
2.9704
2.97039
2.97038
2.97037
2.97036
2.97035
2.97035
2.97034
2.97034
2.97033
2.97033
2.84581
2.84581
2.84581
2.84581
2.8458
2.8458
2.8458
2.84579
2.84579
2.84578
2.84578
2.84577
2.84576
2.84576
2.84575
2.84575
2.84575
2.84574
2.84574
2.84574
2.86761
2.86761
2.86761
2.8676
2.8676
2.86759
2.86758
2.86757
2.86756
2.86755
2.86754
2.86753
2.86752
2.86751
2.8675
2.8675
2.86749
2.86749
2.86748
2.86748
2.8136
2.8136
2.81359
2.81359
2.81359
2.81358
2.81357
2.81356
2.81356
2.81355
2.81354
2.81353
2.81352
2.81351
2.8135
2.8135
2.81349
2.81349
2.81348
2.81348
2.82501
2.82501
2.82501
2.82501
2.825
2.825
2.82499
2.82499
2.82498
2.82497
2.82497
2.82496
2.82495
2.82494
2.82494
2.82493
2.82493
2.82492
2.82492
2.82492
2.81869
2.81869
2.81869
2.81868
2.81868
2.81867
2.81866
2.81865
2.81864
2.81863
2.81862
2.81861
2.8186
2.81859
2.81858
2.81858
2.81857
2.81857
2.81856
2.81856
2.81284
2.81284
2.81285
2.81285
2.81285
2.81285
2.81286
2.81286
2.81286
2.81287
2.81287
2.81287
2.81287
2.81287
2.81287
2.81287
2.81287
2.81287
2.81286
2.81286
2.85459
2.85459
2.85459
2.85458
2.85457
2.85456
2.85455
2.85454
2.85453
2.85451
2.8545
2.85449
2.85447
2.85446
2.85445
2.85445
2.85444
2.85443
2.85443
2.85443
2.83409
2.8341
2.8341
2.83411
2.83411
2.83412
2.83413
2.83414
2.83414
2.83415
2.83416
2.83416
2.83417
2.83417
2.83418
2.83418
2.83418
2.83418
2.83418
2.83418
2.93246
2.93246
2.93246
2.93245
2.93244
2.93243
2.93242
2.93241
2.9324
2.93239
2.93237
2.93236
2.93235
2.93234
2.93233
2.93233
2.93232
2.93232
2.93232
2.93231
2.90006
2.90006
2.90006
2.90007
2.90008
2.90009
2.9001
2.90012
2.90013
2.90014
2.90015
2.90016
2.90017
2.90018
2.90018
2.90019
2.90019
2.90019
2.90019
2.90019
3.10438
3.10438
3.10438
3.10437
3.10437
3.10436
3.10435
3.10435
3.10434
3.10433
3.10432
3.10431
3.10431
3.1043
3.1043
3.10429
3.10429
3.10429
3.10429
3.10429
3.06068
3.06068
3.06069
3.06069
3.06071
3.06072
3.06073
3.06075
3.06076
3.06078
3.06079
3.06081
3.06082
3.06083
3.06084
3.06084
3.06085
3.06085
3.06085
3.06085
3.58737
3.58737
3.58737
3.58737
3.58737
3.58737
3.58738
3.58738
3.58738
3.58738
3.58739
3.58739
3.58739
3.5874
3.5874
3.5874
3.58741
3.58741
3.58741
3.58741
3.49637
3.49638
3.49638
3.49639
3.49641
3.49642
3.49644
3.49646
3.49648
3.4965
3.49652
3.49654
3.49656
3.49657
3.49659
3.4966
3.49661
3.49662
3.49663
3.49663
4.91915
4.91916
4.91916
4.91917
4.91918
4.9192
4.91922
4.91924
4.91926
4.91928
4.9193
4.91933
4.91935
4.91937
4.91939
4.91941
4.91943
4.91944
4.91945
4.91945
9.43586
9.43587
9.43587
9.43588
9.43589
9.43591
9.43592
9.43594
9.43596
9.43598
9.436
9.43603
9.43605
9.43607
9.43609
9.4361
9.43612
9.43613
9.43614
9.43614
8.69563
8.69563
8.69563
8.69564
8.69565
8.69566
8.69567
8.69568
8.69569
8.69571
8.69572
8.69573
8.69574
8.69575
8.69576
8.69577
8.69578
8.69578
8.69578
8.69579
8.85931
8.85931
8.8593
8.8593
8.85929
8.85929
8.85928
8.85928
8.85927
8.85926
8.85926
8.85925
8.85924
8.85924
8.85924
8.85923
8.85923
8.85923
8.85922
8.85922
8.47329
8.47329
8.47329
8.47329
8.47329
8.47329
8.47329
8.47329
8.47329
8.47329
8.47328
8.47328
8.47328
8.47328
8.47327
8.47327
8.47327
8.47326
8.47326
8.47326
8.56283
8.56283
8.56282
8.56281
8.5628
8.56279
8.56277
8.56275
8.56273
8.56271
8.5627
8.56268
8.56266
8.56264
8.56263
8.56262
8.56261
8.5626
8.56259
8.56259
8.3394
8.3394
8.3394
8.33939
8.33939
8.33938
8.33937
8.33936
8.33935
8.33934
8.33933
8.33932
8.33931
8.3393
8.33929
8.33928
8.33927
8.33927
8.33926
8.33926
8.39514
8.39514
8.39513
8.39512
8.39511
8.3951
8.39508
8.39506
8.39505
8.39503
8.39501
8.39499
8.39497
8.39495
8.39494
8.39492
8.39491
8.3949
8.39489
8.39489
8.28317
8.28317
8.28316
8.28316
8.28315
8.28313
8.28312
8.2831
8.28309
8.28307
8.28305
8.28303
8.28302
8.283
8.28299
8.28297
8.28296
8.28295
8.28294
8.28294
8.31128
8.31128
8.31128
8.31127
8.31127
8.31126
8.31125
8.31123
8.31122
8.31121
8.31119
8.31118
8.31117
8.31115
8.31114
8.31113
8.31112
8.31111
8.31111
8.3111
8.2982
8.2982
8.29819
8.29819
8.29817
8.29816
8.29815
8.29813
8.29811
8.2981
8.29808
8.29806
8.29804
8.29803
8.29801
8.298
8.29798
8.29798
8.29797
8.29796
8.29072
8.29072
8.29072
8.29072
8.29073
8.29073
8.29073
8.29073
8.29073
8.29073
8.29073
8.29072
8.29072
8.29072
8.29071
8.29071
8.2907
8.2907
8.29069
8.29069
8.37974
8.37974
8.37973
8.37972
8.37971
8.37969
8.37968
8.37966
8.37964
8.37962
8.37959
8.37957
8.37955
8.37954
8.37952
8.37951
8.3795
8.37949
8.37948
8.37947
8.33989
8.3399
8.3399
8.33991
8.33991
8.33992
8.33993
8.33994
8.33995
8.33996
8.33997
8.33997
8.33998
8.33998
8.33999
8.33999
8.33998
8.33998
8.33998
8.33998
8.54253
8.54252
8.54252
8.54251
8.54249
8.54248
8.54246
8.54245
8.54243
8.54241
8.54239
8.54237
8.54236
8.54234
8.54233
8.54232
8.54231
8.5423
8.54229
8.54229
8.46798
8.46798
8.46799
8.468
8.46801
8.46803
8.46805
8.46806
8.46808
8.4681
8.46811
8.46813
8.46814
8.46815
8.46816
8.46816
8.46817
8.46817
8.46817
8.46816
8.81885
8.81885
8.81885
8.81884
8.81883
8.81882
8.81881
8.8188
8.81879
8.81878
8.81877
8.81876
8.81875
8.81874
8.81874
8.81873
8.81873
8.81873
8.81872
8.81872
8.69658
8.69659
8.6966
8.69661
8.69663
8.69665
8.69667
8.69669
8.69672
8.69674
8.69677
8.69679
8.69681
8.69683
8.69684
8.69685
8.69686
8.69686
8.69687
8.69687
9.26417
9.26417
9.26417
9.26417
9.26417
9.26418
9.26418
9.26419
9.26419
9.2642
9.26421
9.26421
9.26422
9.26423
9.26424
9.26425
9.26426
9.26426
9.26427
9.26427
9.04419
9.04419
9.0442
9.04422
9.04424
9.04426
9.04429
9.04433
9.04436
9.0444
9.04443
9.04447
9.0445
9.04453
9.04456
9.04458
9.0446
9.04462
9.04463
9.04464
10.1097
10.1097
10.1097
10.1097
10.1097
10.1097
10.1098
10.1098
10.1099
10.1099
10.1099
10.11
10.11
10.1101
10.1101
10.1102
10.1102
10.1102
10.1102
10.1103
15.5779
15.578
15.578
15.578
15.578
15.578
15.578
15.578
15.5781
15.5781
15.5781
15.5781
15.5782
15.5782
15.5782
15.5782
15.5783
15.5783
15.5783
15.5783
14.4971
14.4971
14.4971
14.4971
14.4971
14.4972
14.4972
14.4972
14.4972
14.4972
14.4972
14.4972
14.4973
14.4973
14.4973
14.4973
14.4973
14.4973
14.4973
14.4973
14.7159
14.7159
14.7159
14.7159
14.7159
14.7159
14.7159
14.7159
14.7159
14.7159
14.7159
14.7159
14.7159
14.7159
14.7159
14.7159
14.7159
14.7159
14.7159
14.7159
14.0862
14.0862
14.0862
14.0862
14.0862
14.0862
14.0862
14.0862
14.0862
14.0862
14.0862
14.0862
14.0862
14.0862
14.0862
14.0862
14.0862
14.0862
14.0862
14.0862
14.2156
14.2156
14.2156
14.2156
14.2156
14.2155
14.2155
14.2155
14.2155
14.2154
14.2154
14.2154
14.2154
14.2154
14.2153
14.2153
14.2153
14.2153
14.2153
14.2153
13.8642
13.8642
13.8642
13.8642
13.8641
13.8641
13.8641
13.8641
13.8641
13.8641
13.8641
13.8641
13.864
13.864
13.864
13.864
13.864
13.864
13.864
13.864
13.946
13.946
13.946
13.946
13.946
13.946
13.9459
13.9459
13.9459
13.9459
13.9458
13.9458
13.9458
13.9458
13.9458
13.9457
13.9457
13.9457
13.9457
13.9457
13.7772
13.7772
13.7772
13.7772
13.7772
13.7772
13.7772
13.7772
13.7771
13.7771
13.7771
13.7771
13.777
13.777
13.777
13.777
13.777
13.777
13.777
13.7769
13.8181
13.8181
13.8181
13.8181
13.818
13.818
13.818
13.818
13.818
13.818
13.818
13.8179
13.8179
13.8179
13.8179
13.8179
13.8179
13.8178
13.8178
13.8178
13.7996
13.7996
13.7996
13.7996
13.7996
13.7996
13.7995
13.7995
13.7995
13.7995
13.7995
13.7994
13.7994
13.7994
13.7994
13.7994
13.7993
13.7993
13.7993
13.7993
13.7954
13.7954
13.7954
13.7954
13.7954
13.7954
13.7954
13.7954
13.7954
13.7954
13.7954
13.7954
13.7954
13.7954
13.7954
13.7954
13.7954
13.7954
13.7954
13.7953
13.9282
13.9282
13.9282
13.9282
13.9282
13.9281
13.9281
13.9281
13.9281
13.9281
13.928
13.928
13.928
13.928
13.928
13.9279
13.9279
13.9279
13.9279
13.9279
13.8837
13.8837
13.8837
13.8837
13.8837
13.8837
13.8837
13.8838
13.8838
13.8838
13.8838
13.8838
13.8838
13.8838
13.8838
13.8838
13.8838
13.8838
13.8838
13.8838
14.1884
14.1884
14.1884
14.1884
14.1884
14.1884
14.1884
14.1884
14.1884
14.1883
14.1883
14.1883
14.1883
14.1883
14.1882
14.1882
14.1882
14.1882
14.1882
14.1882
14.0991
14.0991
14.0991
14.0991
14.0991
14.0991
14.0992
14.0992
14.0992
14.0992
14.0993
14.0993
14.0993
14.0993
14.0993
14.0993
14.0993
14.0993
14.0993
14.0993
14.6461
14.6461
14.6461
14.6461
14.6461
14.6461
14.6461
14.6461
14.646
14.646
14.646
14.646
14.646
14.646
14.646
14.646
14.646
14.646
14.646
14.646
14.4902
14.4902
14.4902
14.4903
14.4903
14.4903
14.4903
14.4904
14.4904
14.4904
14.4905
14.4905
14.4905
14.4906
14.4906
14.4906
14.4906
14.4906
14.4906
14.4906
15.4417
15.4417
15.4417
15.4417
15.4417
15.4417
15.4417
15.4417
15.4417
15.4418
15.4418
15.4418
15.4418
15.4418
15.4418
15.4419
15.4419
15.4419
15.4419
15.4419
15.1565
15.1565
15.1566
15.1566
15.1566
15.1567
15.1567
15.1567
15.1568
15.1568
15.1569
15.1569
15.157
15.157
15.1571
15.1571
15.1571
15.1572
15.1572
15.1572
16.7657
16.7657
16.7658
16.7658
16.7658
16.7659
16.7659
16.7659
16.766
16.7661
16.7661
16.7662
16.7662
16.7663
16.7663
16.7664
16.7664
16.7665
16.7665
16.7665
21.018
21.018
21.018
21.018
21.018
21.018
21.0181
21.0181
21.0181
21.0181
21.0181
21.0182
21.0182
21.0182
21.0182
21.0183
21.0183
21.0183
21.0183
21.0183
19.9673
19.9674
19.9674
19.9674
19.9674
19.9674
19.9674
19.9674
19.9674
19.9674
19.9675
19.9675
19.9675
19.9675
19.9675
19.9675
19.9675
19.9675
19.9675
19.9675
20.2103
20.2103
20.2103
20.2103
20.2103
20.2103
20.2103
20.2103
20.2103
20.2103
20.2103
20.2103
20.2103
20.2103
20.2103
20.2103
20.2103
20.2102
20.2102
20.2102
19.5362
19.5362
19.5362
19.5362
19.5362
19.5362
19.5362
19.5362
19.5362
19.5362
19.5362
19.5362
19.5362
19.5362
19.5362
19.5362
19.5362
19.5362
19.5362
19.5362
19.6948
19.6948
19.6948
19.6948
19.6948
19.6948
19.6947
19.6947
19.6947
19.6947
19.6946
19.6946
19.6946
19.6946
19.6946
19.6945
19.6945
19.6945
19.6945
19.6945
19.2826
19.2826
19.2826
19.2826
19.2826
19.2826
19.2825
19.2825
19.2825
19.2825
19.2825
19.2825
19.2824
19.2824
19.2824
19.2824
19.2824
19.2824
19.2824
19.2824
19.383
19.383
19.383
19.383
19.383
19.383
19.383
19.3829
19.3829
19.3829
19.3829
19.3828
19.3828
19.3828
19.3828
19.3827
19.3827
19.3827
19.3827
19.3827
19.1825
19.1825
19.1825
19.1824
19.1824
19.1824
19.1824
19.1824
19.1824
19.1823
19.1823
19.1823
19.1823
19.1822
19.1822
19.1822
19.1822
19.1822
19.1821
19.1821
19.2317
19.2317
19.2317
19.2316
19.2316
19.2316
19.2316
19.2316
19.2316
19.2315
19.2315
19.2315
19.2315
19.2315
19.2315
19.2314
19.2314
19.2314
19.2314
19.2314
19.2129
19.2129
19.2129
19.2129
19.2129
19.2129
19.2129
19.2128
19.2128
19.2128
19.2128
19.2128
19.2127
19.2127
19.2127
19.2127
19.2126
19.2126
19.2126
19.2126
19.2115
19.2115
19.2115
19.2115
19.2115
19.2115
19.2115
19.2115
19.2115
19.2115
19.2115
19.2115
19.2115
19.2115
19.2115
19.2115
19.2115
19.2114
19.2114
19.2114
19.3769
19.3769
19.3769
19.3769
19.3769
19.3769
19.3769
19.3769
19.3768
19.3768
19.3768
19.3768
19.3767
19.3767
19.3767
19.3767
19.3767
19.3766
19.3766
19.3766
19.3291
19.3291
19.3291
19.3291
19.3291
19.3291
19.3291
19.3291
19.3291
19.3291
19.3291
19.3291
19.3291
19.3292
19.3292
19.3291
19.3291
19.3291
19.3291
19.3291
19.6995
19.6995
19.6995
19.6995
19.6994
19.6994
19.6994
19.6994
19.6994
19.6994
19.6993
19.6993
19.6993
19.6993
19.6993
19.6993
19.6992
19.6992
19.6992
19.6992
19.5972
19.5972
19.5972
19.5973
19.5973
19.5973
19.5973
19.5973
19.5974
19.5974
19.5974
19.5974
19.5974
19.5975
19.5975
19.5975
19.5975
19.5975
19.5975
19.5975
20.2268
20.2268
20.2268
20.2268
20.2268
20.2268
20.2268
20.2267
20.2267
20.2267
20.2267
20.2267
20.2267
20.2267
20.2267
20.2267
20.2267
20.2267
20.2267
20.2267
20.0468
20.0468
20.0468
20.0469
20.0469
20.0469
20.0469
20.047
20.047
20.047
20.0471
20.0471
20.0471
20.0472
20.0472
20.0472
20.0472
20.0472
20.0472
20.0472
21.0308
21.0308
21.0308
21.0308
21.0308
21.0308
21.0308
21.0309
21.0309
21.0309
21.0309
21.0309
21.0309
21.031
21.031
21.031
21.031
21.031
21.031
21.031
20.7231
20.7231
20.7231
20.7231
20.7232
20.7232
20.7232
20.7233
20.7233
20.7234
20.7235
20.7235
20.7236
20.7236
20.7236
20.7237
20.7237
20.7237
20.7238
20.7238
22.2362
22.2362
22.2362
22.2363
22.2363
22.2364
22.2364
22.2365
22.2365
22.2366
22.2366
22.2367
22.2368
22.2368
22.2369
22.2369
22.237
22.237
22.237
22.237
26.5722
26.5722
26.5722
26.5722
26.5722
26.5722
26.5722
26.5722
26.5723
26.5723
26.5723
26.5723
26.5724
26.5724
26.5724
26.5724
26.5724
26.5724
26.5725
26.5725
25.4409
25.4409
25.4409
25.4409
25.4409
25.4409
25.4409
25.4409
25.4409
25.441
25.441
25.441
25.441
25.441
25.441
25.441
25.441
25.4411
25.4411
25.4411
25.7063
25.7063
25.7063
25.7063
25.7063
25.7062
25.7062
25.7062
25.7062
25.7062
25.7062
25.7062
25.7062
25.7062
25.7062
25.7062
25.7062
25.7062
25.7062
25.7061
24.9425
24.9425
24.9425
24.9425
24.9425
24.9425
24.9425
24.9425
24.9425
24.9425
24.9425
24.9425
24.9425
24.9425
24.9425
24.9425
24.9425
24.9425
24.9425
24.9425
25.1217
25.1217
25.1217
25.1217
25.1217
25.1217
25.1217
25.1216
25.1216
25.1216
25.1216
25.1215
25.1215
25.1215
25.1215
25.1214
25.1214
25.1214
25.1214
25.1214
24.6519
24.6519
24.6519
24.6519
24.6519
24.6519
24.6518
24.6518
24.6518
24.6518
24.6518
24.6518
24.6517
24.6517
24.6517
24.6517
24.6517
24.6517
24.6517
24.6517
24.7631
24.7631
24.7631
24.763
24.763
24.763
24.763
24.763
24.7629
24.7629
24.7629
24.7629
24.7628
24.7628
24.7628
24.7628
24.7627
24.7627
24.7627
24.7627
24.5383
24.5383
24.5383
24.5383
24.5383
24.5383
24.5383
24.5382
24.5382
24.5382
24.5382
24.5381
24.5381
24.5381
24.5381
24.5381
24.538
24.538
24.538
24.538
24.593
24.593
24.593
24.593
24.593
24.5929
24.5929
24.5929
24.5929
24.5929
24.5928
24.5928
24.5928
24.5928
24.5928
24.5928
24.5927
24.5927
24.5927
24.5927
24.5762
24.5762
24.5762
24.5762
24.5762
24.5762
24.5762
24.5762
24.5761
24.5761
24.5761
24.5761
24.576
24.576
24.576
24.576
24.5759
24.5759
24.5759
24.5759
24.5773
24.5773
24.5773
24.5773
24.5772
24.5772
24.5772
24.5772
24.5772
24.5772
24.5772
24.5772
24.5772
24.5772
24.5772
24.5772
24.5772
24.5771
24.5771
24.5771
24.7716
24.7716
24.7716
24.7716
24.7716
24.7716
24.7716
24.7716
24.7715
24.7715
24.7715
24.7715
24.7714
24.7714
24.7714
24.7714
24.7714
24.7713
24.7713
24.7713
24.7223
24.7223
24.7224
24.7224
24.7224
24.7224
24.7224
24.7224
24.7224
24.7224
24.7224
24.7224
24.7224
24.7224
24.7224
24.7224
24.7224
24.7224
24.7224
24.7224
25.1512
25.1512
25.1512
25.1511
25.1511
25.1511
25.1511
25.1511
25.1511
25.1511
25.151
25.151
25.151
25.151
25.151
25.151
25.1509
25.1509
25.1509
25.1509
25.0412
25.0412
25.0412
25.0413
25.0413
25.0413
25.0413
25.0413
25.0414
25.0414
25.0414
25.0414
25.0414
25.0415
25.0415
25.0415
25.0415
25.0415
25.0415
25.0415
25.7639
25.7639
25.7639
25.7639
25.7639
25.7639
25.7639
25.7639
25.7639
25.7638
25.7638
25.7638
25.7638
25.7638
25.7638
25.7638
25.7638
25.7638
25.7638
25.7638
25.5669
25.5669
25.567
25.567
25.567
25.567
25.5671
25.5671
25.5671
25.5672
25.5672
25.5673
25.5673
25.5673
25.5674
25.5674
25.5674
25.5674
25.5674
25.5674
26.6842
26.6842
26.6842
26.6842
26.6842
26.6842
26.6842
26.6842
26.6843
26.6843
26.6843
26.6843
26.6843
26.6844
26.6844
26.6844
26.6844
26.6844
26.6844
26.6844
26.352
26.352
26.352
26.352
26.3521
26.3521
26.3522
26.3522
26.3523
26.3523
26.3524
26.3524
26.3525
26.3525
26.3526
26.3526
26.3527
26.3527
26.3527
26.3527
27.9788
27.9788
27.9788
27.9789
27.9789
27.979
27.979
27.9791
27.9791
27.9792
27.9793
27.9793
27.9794
27.9794
27.9795
27.9795
27.9796
27.9796
27.9796
27.9796
31.8766
31.8766
31.8766
31.8766
31.8766
31.8767
31.8767
31.8767
31.8767
31.8767
31.8767
31.8768
31.8768
31.8768
31.8768
31.8768
31.8769
31.8769
31.8769
31.8769
30.7503
30.7503
30.7503
30.7503
30.7503
30.7503
30.7503
30.7503
30.7503
30.7504
30.7504
30.7504
30.7504
30.7504
30.7504
30.7504
30.7504
30.7504
30.7504
30.7504
31.0265
31.0265
31.0265
31.0265
31.0265
31.0265
31.0265
31.0265
31.0265
31.0265
31.0264
31.0264
31.0264
31.0264
31.0264
31.0264
31.0264
31.0264
31.0264
31.0264
30.2377
30.2377
30.2377
30.2377
30.2377
30.2377
30.2377
30.2377
30.2377
30.2377
30.2377
30.2377
30.2377
30.2377
30.2377
30.2377
30.2376
30.2376
30.2376
30.2376
30.4286
30.4286
30.4286
30.4286
30.4286
30.4285
30.4285
30.4285
30.4285
30.4285
30.4284
30.4284
30.4284
30.4284
30.4283
30.4283
30.4283
30.4283
30.4283
30.4283
29.9326
29.9326
29.9326
29.9326
29.9326
29.9326
29.9326
29.9326
29.9325
29.9325
29.9325
29.9325
29.9325
29.9325
29.9324
29.9324
29.9324
29.9324
29.9324
29.9324
30.0498
30.0498
30.0498
30.0498
30.0498
30.0498
30.0497
30.0497
30.0497
30.0497
30.0496
30.0496
30.0496
30.0496
30.0495
30.0495
30.0495
30.0495
30.0495
30.0495
29.8133
29.8133
29.8133
29.8133
29.8132
29.8132
29.8132
29.8132
29.8132
29.8131
29.8131
29.8131
29.8131
29.813
29.813
29.813
29.813
29.813
29.8129
29.8129
29.8708
29.8708
29.8708
29.8708
29.8708
29.8708
29.8708
29.8708
29.8707
29.8707
29.8707
29.8707
29.8707
29.8706
29.8706
29.8706
29.8706
29.8706
29.8706
29.8706
29.8587
29.8587
29.8586
29.8586
29.8586
29.8586
29.8586
29.8586
29.8585
29.8585
29.8585
29.8585
29.8584
29.8584
29.8584
29.8584
29.8583
29.8583
29.8583
29.8583
29.8605
29.8605
29.8605
29.8605
29.8605
29.8604
29.8604
29.8604
29.8604
29.8604
29.8604
29.8604
29.8604
29.8604
29.8604
29.8604
29.8603
29.8603
29.8603
29.8603
30.0783
30.0783
30.0783
30.0782
30.0782
30.0782
30.0782
30.0782
30.0781
30.0781
30.0781
30.0781
30.078
30.078
30.078
30.078
30.078
30.0779
30.0779
30.0779
30.0261
30.0261
30.0261
30.0261
30.0261
30.0261
30.0261
30.0261
30.0262
30.0262
30.0262
30.0262
30.0262
30.0262
30.0262
30.0262
30.0262
30.0262
30.0262
30.0262
30.4959
30.4959
30.4959
30.4959
30.4959
30.4959
30.4958
30.4958
30.4958
30.4958
30.4958
30.4957
30.4957
30.4957
30.4957
30.4957
30.4957
30.4956
30.4956
30.4956
30.3776
30.3776
30.3776
30.3776
30.3776
30.3776
30.3777
30.3777
30.3777
30.3777
30.3777
30.3777
30.3778
30.3778
30.3778
30.3778
30.3778
30.3778
30.3778
30.3778
31.1475
31.1475
31.1475
31.1475
31.1475
31.1475
31.1475
31.1475
31.1475
31.1475
31.1475
31.1475
31.1475
31.1475
31.1475
31.1475
31.1475
31.1474
31.1474
31.1474
30.9375
30.9375
30.9375
30.9375
30.9376
30.9376
30.9376
30.9377
30.9377
30.9377
30.9378
30.9378
30.9378
30.9379
30.9379
30.9379
30.9379
30.9379
30.938
30.938
32.0787
32.0787
32.0787
32.0787
32.0787
32.0787
32.0787
32.0788
32.0788
32.0788
32.0788
32.0788
32.0789
32.0789
32.0789
32.0789
32.0789
32.0789
32.0789
32.0789
31.7361
31.7361
31.7362
31.7362
31.7362
31.7363
31.7363
31.7364
31.7364
31.7365
31.7365
31.7366
31.7366
31.7367
31.7367
31.7367
31.7368
31.7368
31.7368
31.7368
33.3341
33.3341
33.3342
33.3342
33.3342
33.3343
33.3343
33.3344
33.3344
33.3345
33.3345
33.3346
33.3346
33.3347
33.3347
33.3348
33.3348
33.3349
33.3349
33.3349
37.1416
37.1416
37.1416
37.1416
37.1416
37.1416
37.1416
37.1417
37.1417
37.1417
37.1417
37.1417
37.1417
37.1418
37.1418
37.1418
37.1418
37.1418
37.1418
37.1418
35.9945
35.9945
35.9945
35.9945
35.9945
35.9945
35.9945
35.9946
35.9946
35.9946
35.9946
35.9946
35.9946
35.9946
35.9946
35.9946
35.9947
35.9947
35.9947
35.9947
36.2785
36.2785
36.2785
36.2785
36.2785
36.2785
36.2785
36.2785
36.2785
36.2785
36.2784
36.2784
36.2784
36.2784
36.2784
36.2784
36.2784
36.2784
36.2784
36.2784
35.4606
35.4606
35.4606
35.4606
35.4606
35.4606
35.4606
35.4606
35.4606
35.4606
35.4606
35.4606
35.4606
35.4606
35.4606
35.4606
35.4606
35.4606
35.4606
35.4606
35.6567
35.6567
35.6567
35.6567
35.6566
35.6566
35.6566
35.6566
35.6566
35.6565
35.6565
35.6565
35.6565
35.6565
35.6564
35.6564
35.6564
35.6564
35.6564
35.6564
35.1405
35.1405
35.1405
35.1405
35.1405
35.1405
35.1404
35.1404
35.1404
35.1404
35.1404
35.1404
35.1403
35.1403
35.1403
35.1403
35.1403
35.1403
35.1403
35.1403
35.2599
35.2599
35.2599
35.2599
35.2599
35.2599
35.2599
35.2598
35.2598
35.2598
35.2598
35.2597
35.2597
35.2597
35.2597
35.2597
35.2596
35.2596
35.2596
35.2596
35.0166
35.0166
35.0166
35.0166
35.0166
35.0166
35.0165
35.0165
35.0165
35.0165
35.0165
35.0164
35.0164
35.0164
35.0164
35.0163
35.0163
35.0163
35.0163
35.0163
35.0752
35.0752
35.0752
35.0752
35.0752
35.0752
35.0752
35.0752
35.0751
35.0751
35.0751
35.0751
35.0751
35.075
35.075
35.075
35.075
35.075
35.075
35.075
35.0685
35.0685
35.0685
35.0685
35.0685
35.0685
35.0685
35.0684
35.0684
35.0684
35.0684
35.0683
35.0683
35.0683
35.0683
35.0682
35.0682
35.0682
35.0682
35.0682
35.0703
35.0703
35.0703
35.0703
35.0703
35.0703
35.0703
35.0703
35.0703
35.0703
35.0702
35.0702
35.0702
35.0702
35.0702
35.0702
35.0702
35.0702
35.0702
35.0702
35.308
35.308
35.308
35.308
35.308
35.308
35.308
35.308
35.3079
35.3079
35.3079
35.3079
35.3078
35.3078
35.3078
35.3078
35.3077
35.3077
35.3077
35.3077
35.2529
35.2529
35.2529
35.2529
35.2529
35.2529
35.2529
35.2529
35.2529
35.2529
35.2529
35.2529
35.2529
35.2529
35.2529
35.2529
35.2529
35.2529
35.2529
35.2529
35.757
35.757
35.757
35.757
35.757
35.7569
35.7569
35.7569
35.7569
35.7569
35.7569
35.7568
35.7568
35.7568
35.7568
35.7568
35.7567
35.7567
35.7567
35.7567
35.6313
35.6313
35.6313
35.6313
35.6313
35.6314
35.6314
35.6314
35.6314
35.6314
35.6314
35.6315
35.6315
35.6315
35.6315
35.6315
35.6315
35.6315
35.6315
35.6315
36.4468
36.4468
36.4468
36.4468
36.4468
36.4468
36.4468
36.4468
36.4468
36.4468
36.4468
36.4468
36.4468
36.4468
36.4468
36.4467
36.4467
36.4467
36.4467
36.4467
36.2251
36.2251
36.2251
36.2252
36.2252
36.2252
36.2252
36.2253
36.2253
36.2253
36.2254
36.2254
36.2254
36.2254
36.2255
36.2255
36.2255
36.2255
36.2255
36.2255
37.4139
37.4139
37.4139
37.4139
37.4139
37.4139
37.4139
37.414
37.414
37.414
37.414
37.414
37.414
37.4141
37.4141
37.4141
37.4141
37.4141
37.4141
37.4141
37.0592
37.0592
37.0592
37.0593
37.0593
37.0593
37.0594
37.0594
37.0595
37.0595
37.0596
37.0596
37.0597
37.0597
37.0598
37.0598
37.0598
37.0599
37.0599
37.0599
38.6791
38.6791
38.6791
38.6792
38.6792
38.6792
38.6793
38.6793
38.6794
38.6794
38.6795
38.6796
38.6796
38.6797
38.6797
38.6797
38.6798
38.6798
38.6798
38.6798
42.2744
42.2744
42.2744
42.2744
42.2744
42.2744
42.2744
42.2744
42.2744
42.2744
42.2745
42.2745
42.2745
42.2745
42.2745
42.2745
42.2745
42.2745
42.2745
42.2745
41.1287
41.1287
41.1287
41.1287
41.1287
41.1287
41.1287
41.1287
41.1287
41.1287
41.1288
41.1288
41.1288
41.1288
41.1288
41.1288
41.1288
41.1288
41.1288
41.1288
41.4151
41.4151
41.4151
41.4151
41.4151
41.4151
41.4151
41.4151
41.4151
41.415
41.415
41.415
41.415
41.415
41.415
41.415
41.415
41.415
41.415
41.415
40.5902
40.5902
40.5902
40.5902
40.5902
40.5902
40.5902
40.5902
40.5902
40.5902
40.5902
40.5902
40.5902
40.5902
40.5902
40.5902
40.5902
40.5902
40.5902
40.5902
40.7881
40.7881
40.7881
40.7881
40.7881
40.788
40.788
40.788
40.788
40.788
40.7879
40.7879
40.7879
40.7879
40.7879
40.7879
40.7878
40.7878
40.7878
40.7878
40.2642
40.2642
40.2642
40.2642
40.2642
40.2642
40.2642
40.2641
40.2641
40.2641
40.2641
40.2641
40.2641
40.264
40.264
40.264
40.264
40.264
40.264
40.264
40.384
40.384
40.384
40.384
40.384
40.384
40.384
40.384
40.3839
40.3839
40.3839
40.3839
40.3839
40.3838
40.3838
40.3838
40.3838
40.3838
40.3838
40.3837
40.1396
40.1396
40.1396
40.1396
40.1396
40.1395
40.1395
40.1395
40.1395
40.1395
40.1394
40.1394
40.1394
40.1394
40.1393
40.1393
40.1393
40.1393
40.1393
40.1393
40.1978
40.1978
40.1978
40.1978
40.1978
40.1978
40.1978
40.1977
40.1977
40.1977
40.1977
40.1977
40.1977
40.1976
40.1976
40.1976
40.1976
40.1976
40.1976
40.1976
40.1975
40.1975
40.1975
40.1974
40.1974
40.1974
40.1974
40.1974
40.1973
40.1973
40.1973
40.1973
40.1972
40.1972
40.1972
40.1972
40.1972
40.1971
40.1971
40.1971
40.198
40.198
40.198
40.198
40.1979
40.1979
40.1979
40.1979
40.1979
40.1979
40.1979
40.1979
40.1979
40.1979
40.1978
40.1978
40.1978
40.1978
40.1978
40.1978
40.4521
40.4521
40.4521
40.4521
40.4521
40.4521
40.4521
40.4521
40.452
40.452
40.452
40.452
40.4519
40.4519
40.4519
40.4519
40.4518
40.4518
40.4518
40.4518
40.3928
40.3928
40.3928
40.3928
40.3928
40.3928
40.3928
40.3928
40.3928
40.3928
40.3928
40.3928
40.3928
40.3928
40.3928
40.3928
40.3928
40.3928
40.3928
40.3928
40.9221
40.9221
40.9221
40.922
40.922
40.922
40.922
40.922
40.922
40.922
40.9219
40.9219
40.9219
40.9219
40.9219
40.9218
40.9218
40.9218
40.9218
40.9218
40.7886
40.7886
40.7886
40.7886
40.7886
40.7887
40.7887
40.7887
40.7887
40.7887
40.7887
40.7887
40.7887
40.7888
40.7888
40.7888
40.7888
40.7888
40.7888
40.7888
41.6307
41.6307
41.6307
41.6307
41.6307
41.6307
41.6307
41.6307
41.6307
41.6307
41.6307
41.6306
41.6306
41.6306
41.6306
41.6306
41.6306
41.6306
41.6306
41.6306
41.3991
41.3991
41.3991
41.3991
41.3991
41.3991
41.3991
41.3992
41.3992
41.3992
41.3993
41.3993
41.3993
41.3993
41.3994
41.3994
41.3994
41.3994
41.3994
41.3994
42.6017
42.6017
42.6017
42.6017
42.6017
42.6017
42.6018
42.6018
42.6018
42.6018
42.6018
42.6018
42.6018
42.6018
42.6018
42.6018
42.6018
42.6018
42.6019
42.6019
42.2397
42.2397
42.2397
42.2397
42.2398
42.2398
42.2398
42.2399
42.2399
42.2399
42.24
42.24
42.2401
42.2401
42.2401
42.2402
42.2402
42.2402
42.2402
42.2402
43.8478
43.8478
43.8479
43.8479
43.8479
43.8479
43.848
43.848
43.8481
43.8481
43.8482
43.8482
43.8482
43.8483
43.8483
43.8483
43.8484
43.8484
43.8484
43.8484
47.335
47.335
47.335
47.335
47.335
47.335
47.335
47.3351
47.3351
47.3351
47.3351
47.3351
47.3351
47.3351
47.3351
47.3351
47.3351
47.3351
47.3351
47.3351
46.1854
46.1854
46.1854
46.1854
46.1854
46.1854
46.1854
46.1855
46.1855
46.1855
46.1855
46.1855
46.1855
46.1855
46.1855
46.1855
46.1855
46.1855
46.1855
46.1855
46.4729
46.4729
46.4729
46.4729
46.4729
46.4729
46.4729
46.4729
46.4729
46.4729
46.4729
46.4729
46.4729
46.4729
46.4728
46.4728
46.4728
46.4728
46.4728
46.4728
45.6404
45.6404
45.6404
45.6404
45.6404
45.6404
45.6404
45.6404
45.6404
45.6404
45.6404
45.6404
45.6404
45.6404
45.6404
45.6404
45.6404
45.6404
45.6404
45.6404
45.8382
45.8382
45.8382
45.8382
45.8382
45.8382
45.8382
45.8381
45.8381
45.8381
45.8381
45.8381
45.8381
45.838
45.838
45.838
45.838
45.838
45.838
45.838
45.3094
45.3094
45.3094
45.3094
45.3094
45.3094
45.3094
45.3094
45.3094
45.3093
45.3093
45.3093
45.3093
45.3093
45.3093
45.3093
45.3093
45.3093
45.3092
45.3092
45.4283
45.4283
45.4283
45.4283
45.4283
45.4283
45.4283
45.4283
45.4282
45.4282
45.4282
45.4282
45.4282
45.4281
45.4281
45.4281
45.4281
45.4281
45.4281
45.4281
45.185
45.185
45.185
45.185
45.185
45.185
45.185
45.1849
45.1849
45.1849
45.1849
45.1849
45.1848
45.1848
45.1848
45.1848
45.1848
45.1847
45.1847
45.1847
45.2418
45.2418
45.2418
45.2418
45.2417
45.2417
45.2417
45.2417
45.2417
45.2417
45.2417
45.2416
45.2416
45.2416
45.2416
45.2416
45.2416
45.2416
45.2415
45.2415
45.2479
45.2479
45.2479
45.2479
45.2479
45.2478
45.2478
45.2478
45.2478
45.2478
45.2477
45.2477
45.2477
45.2477
45.2477
45.2476
45.2476
45.2476
45.2476
45.2476
45.2463
45.2463
45.2463
45.2463
45.2463
45.2463
45.2462
45.2462
45.2462
45.2462
45.2462
45.2462
45.2462
45.2462
45.2462
45.2461
45.2461
45.2461
45.2461
45.2461
45.5144
45.5144
45.5144
45.5144
45.5144
45.5144
45.5144
45.5143
45.5143
45.5143
45.5143
45.5143
45.5142
45.5142
45.5142
45.5142
45.5142
45.5141
45.5141
45.5141
45.4505
45.4505
45.4505
45.4505
45.4505
45.4505
45.4505
45.4505
45.4505
45.4505
45.4505
45.4505
45.4505
45.4505
45.4505
45.4505
45.4505
45.4505
45.4505
45.4505
46.0005
46.0005
46.0005
46.0005
46.0005
46.0004
46.0004
46.0004
46.0004
46.0004
46.0004
46.0003
46.0003
46.0003
46.0003
46.0003
46.0002
46.0002
46.0002
46.0002
45.8596
45.8596
45.8596
45.8596
45.8596
45.8596
45.8596
45.8596
45.8597
45.8597
45.8597
45.8597
45.8597
45.8597
45.8597
45.8597
45.8597
45.8597
45.8597
45.8598
46.7252
46.7252
46.7252
46.7252
46.7252
46.7252
46.7252
46.7252
46.7252
46.7252
46.7251
46.7251
46.7251
46.7251
46.7251
46.7251
46.7251
46.7251
46.7251
46.7251
46.4843
46.4843
46.4843
46.4843
46.4843
46.4843
46.4844
46.4844
46.4844
46.4844
46.4844
46.4845
46.4845
46.4845
46.4845
46.4845
46.4846
46.4846
46.4846
46.4846
47.7056
47.7056
47.7056
47.7056
47.7056
47.7056
47.7056
47.7056
47.7056
47.7056
47.7056
47.7056
47.7056
47.7056
47.7056
47.7056
47.7056
47.7056
47.7056
47.7056
47.336
47.3361
47.3361
47.3361
47.3361
47.3361
47.3362
47.3362
47.3362
47.3363
47.3363
47.3363
47.3364
47.3364
47.3364
47.3364
47.3365
47.3365
47.3365
47.3365
48.9456
48.9456
48.9456
48.9456
48.9456
48.9457
48.9457
48.9457
48.9458
48.9458
48.9458
48.9459
48.9459
48.9459
48.9459
48.946
48.946
48.946
48.946
48.946
52.2995
52.2995
52.2995
52.2995
52.2995
52.2995
52.2995
52.2995
52.2995
52.2995
52.2996
52.2996
52.2996
52.2996
52.2996
52.2996
52.2996
52.2996
52.2996
52.2996
51.1511
51.1511
51.1511
51.1511
51.1511
51.1511
51.1511
51.1511
51.1512
51.1512
51.1512
51.1512
51.1512
51.1512
51.1512
51.1512
51.1512
51.1512
51.1512
51.1512
51.4391
51.4391
51.4391
51.4391
51.4391
51.4391
51.4391
51.4391
51.4391
51.439
51.439
51.439
51.439
51.439
51.439
51.439
51.439
51.439
51.439
51.439
50.606
50.606
50.606
50.606
50.606
50.606
50.606
50.606
50.606
50.606
50.606
50.606
50.606
50.606
50.606
50.606
50.606
50.606
50.606
50.606