/*--------------------------------*- C++ -*----------------------------------*\
| =========                 |                                                 |
| \\      /  F ield         | OpenFOAM: The Open Source CFD Toolbox           |
|  \\    /   O peration     | Version:  2212                                  |
|   \\  /    A nd           | Website:  www.openfoam.com                      |
|    \\/     M anipulation  |                                                 |
\*---------------------------------------------------------------------------*/
FoamFile
{
    version     2.0;
    format      ascii;
    arch        "LSB;label=32;scalar=64";
    class       volScalarField;
    location    "0.0898";
    object      nut;
}
// * * * * * * * * * * * * * * * * * * * * * * * * * * * * * * * * * * * * * //

dimensions      [0 2 -1 0 0 0 0];

internalField   nonuniform List<scalar> 
31661
(
0.250123
0.256388
0.259299
0.257196
0.255094
0.256574
0.255288
0.254037
0.254298
0.253685
0.0328279
0.232423
0.0629912
0.39311
0.347976
0.382126
0.326327
0.346941
0.151286
0.395014
0.0316648
0.0321466
0.0396513
0.34947
0.245592
0.0301608
0.0319088
0.0446227
0.237201
0.271208
0.370052
0.0412189
0.041031
0.144773
0.134803
0.408137
0.0478678
0.413782
0.177457
0.0385758
0.0362856
0.260458
0.415358
0.3208
0.323145
0.237798
0.32126
0.148706
0.0505458
0.414558
0.0318249
0.354751
0.239246
0.130959
0.208291
0.178998
0.226432
0.251406
0.498553
0.195304
0.227236
0.215634
0.292985
0.265824
0.068718
0.175135
0.0395926
0.476983
0.451989
0.427362
0.22548
0.392429
0.371392
0.352379
0.336026
0.321894
0.310151
0.300492
0.292711
0.286458
0.281508
0.277617
0.274605
0.272295
0.273036
0.275517
0.278729
0.282843
0.288026
0.294502
0.302495
0.312243
0.323976
0.337835
0.353828
0.371691
0.389983
0.408136
0.428519
0.449593
0.470265
0.489019
0.506072
0.528668
0.52384
0.545388
0.540173
0.559448
0.554294
0.570901
0.566163
0.580027
0.575934
0.587177
0.583801
0.592712
0.590013
0.596971
0.594854
0.600238
0.59859
0.602747
0.601457
0.60468
0.603652
0.606179
0.605336
0.60735
0.606632
0.608276
0.607638
0.609017
0.608427
0.60962
0.609058
0.61013
0.609572
0.610573
0.610009
0.610977
0.6104
0.611365
0.610772
0.611761
0.611148
0.612186
0.611551
0.612663
0.612006
0.613216
0.612537
0.613871
0.613171
0.614659
0.613937
0.615614
0.614872
0.616782
0.616022
0.61823
0.617452
0.620067
0.61927
0.622512
0.621695
0.62605
0.62521
0.631791
0.630917
0.641168
0.642076
0.641229
0.631044
0.625363
0.621845
0.619403
0.617564
0.616113
0.614941
0.613983
0.613194
0.612537
0.611983
0.611505
0.611079
0.610681
0.61029
0.609881
0.609431
0.60891
0.608286
0.607516
0.606547
0.605313
0.603724
0.601662
0.598975
0.595464
0.59088
0.58493
0.577271
0.567549
0.555425
0.540572
0.52264
0.501687
0.477521
0.451169
0.424491
0.399404
0.376537
0.356618
0.339369
0.324636
0.312358
0.302282
0.294157
0.271152
0.270564
0.287652
0.282515
0.278477
0.275326
0.272892
0.269316
0.269768
0.271103
0.272849
0.275152
0.278111
0.281856
0.28657
0.292428
0.299623
0.308355
0.318722
0.330819
0.344579
0.359783
0.376038
0.392852
0.40964
0.426768
0.444061
0.460956
0.477246
0.493203
0.509592
0.525414
0.540032
0.553098
0.564465
0.574082
0.581995
0.588351
0.593342
0.5972
0.600148
0.60238
0.604062
0.605332
0.60629
0.607023
0.607593
0.608053
0.608443
0.608798
0.609148
0.60952
0.60994
0.610435
0.611033
0.611765
0.612668
0.613785
0.615183
0.616969
0.619353
0.622805
0.628396
0.638429
0.657243
0.660383
0.661301
0.660297
0.657258
0.638654
0.62873
0.623169
0.619702
0.617284
0.615458
0.614018
0.612857
0.611913
0.611139
0.6105
0.609964
0.609505
0.609095
0.608712
0.608329
0.607919
0.607453
0.606895
0.606202
0.605318
0.604172
0.602674
0.600703
0.598109
0.5947
0.590252
0.584501
0.577184
0.568061
0.556964
0.543825
0.528701
0.511675
0.492911
0.471603
0.449428
0.427249
0.405078
0.383914
0.364684
0.347337
0.332072
0.318991
0.308005
0.299022
0.29178
0.286002
0.271051
0.281403
0.277757
0.274894
0.269804
0.268794
0.269702
0.268457
0.268888
0.270258
0.271598
0.27342
0.275774
0.278766
0.282518
0.287174
0.292911
0.299911
0.308291
0.318154
0.329438
0.341964
0.355428
0.369464
0.38367
0.39764
0.411094
0.424293
0.43731
0.450178
0.463026
0.476336
0.490452
0.504872
0.519163
0.532933
0.545782
0.557428
0.567583
0.576168
0.583181
0.588767
0.59311
0.596418
0.598904
0.600753
0.602113
0.603115
0.603858
0.604418
0.604861
0.605234
0.605579
0.60593
0.60632
0.606779
0.607338
0.608031
0.608894
0.609974
0.611334
0.613076
0.615402
0.618753
0.62415
0.633802
0.651948
0.685893
0.692333
0.696086
0.697207
0.695864
0.69201
0.685588
0.652144
0.634291
0.624777
0.619412
0.616035
0.613659
0.61186
0.610441
0.609303
0.608384
0.607637
0.607026
0.606519
0.606086
0.605699
0.605328
0.604942
0.604508
0.603984
0.603318
0.602448
0.60129
0.599741
0.597664
0.594895
0.591232
0.586448
0.580313
0.572618
0.563233
0.55214
0.539454
0.525431
0.510426
0.494785
0.478592
0.461433
0.444083
0.426564
0.409627
0.392228
0.375252
0.359002
0.343834
0.330025
0.317961
0.307736
0.29926
0.2923
0.286642
0.272671
0.282103
0.278474
0.268127
0.269298
0.26826
0.270985
0.268758
0.267872
0.268599
0.269814
0.270914
0.272409
0.274388
0.276939
0.280146
0.284127
0.289026
0.295003
0.302208
0.31074
0.320582
0.331607
0.34354
0.35594
0.368396
0.380475
0.391869
0.402386
0.412071
0.421291
0.430278
0.439301
0.448643
0.458728
0.469889
0.481963
0.494732
0.507927
0.521187
0.534086
0.546184
0.557114
0.566604
0.574559
0.581021
0.58611
0.590019
0.592955
0.59512
0.596701
0.597846
0.598679
0.599296
0.599774
0.600175
0.600548
0.600936
0.601379
0.601913
0.602575
0.603405
0.604448
0.605769
0.607461
0.609713
0.612932
0.618059
0.62717
0.64434
0.676599
0.735172
0.747481
0.756077
0.761061
0.7625
0.760498
0.755089
0.746273
0.733959
0.676492
0.644848
0.628037
0.619085
0.613987
0.610734
0.608421
0.606658
0.605269
0.604159
0.603267
0.602549
0.601965
0.60148
0.601061
0.600674
0.600282
0.599842
0.599305
0.598609
0.597676
0.596407
0.594674
0.592324
0.589169
0.584994
0.579579
0.572719
0.56428
0.554246
0.542733
0.530032
0.516525
0.502664
0.488897
0.475523
0.462557
0.449788
0.437431
0.425213
0.412819
0.399831
0.386345
0.372478
0.358482
0.344804
0.332027
0.320525
0.310423
0.301794
0.294594
0.288712
0.275585
0.28391
0.267682
0.267847
0.273316
0.269012
0.268144
0.26975
0.268107
0.267492
0.268469
0.269432
0.270383
0.271654
0.273358
0.275596
0.278427
0.281958
0.286312
0.291628
0.298048
0.305696
0.314609
0.324709
0.335765
0.347406
0.359144
0.370479
0.380995
0.390433
0.398695
0.405821
0.412105
0.417908
0.423554
0.42933
0.435536
0.442501
0.450538
0.459694
0.469952
0.481236
0.493359
0.506017
0.518803
0.531245
0.54287
0.553332
0.562378
0.569898
0.575941
0.580662
0.58424
0.586896
0.588841
0.590247
0.591267
0.592017
0.592598
0.593083
0.593536
0.594009
0.594552
0.595208
0.59602
0.597039
0.598323
0.599966
0.602133
0.605186
0.609972
0.618391
0.634277
0.664334
0.719123
0.8021
0.822124
0.837492
0.848254
0.854514
0.856342
0.853774
0.846898
0.835638
0.819924
0.718098
0.664614
0.635254
0.619759
0.61151
0.60675
0.603653
0.60142
0.599703
0.598345
0.597261
0.596389
0.595686
0.595109
0.594617
0.594169
0.593723
0.593224
0.592612
0.591808
0.590718
0.589218
0.587159
0.584357
0.580613
0.575701
0.569421
0.561634
0.55229
0.54149
0.52952
0.516759
0.503692
0.490803
0.478495
0.467048
0.456586
0.447042
0.438229
0.430049
0.42213
0.414036
0.40535
0.395811
0.385225
0.373626
0.361343
0.348863
0.336641
0.325127
0.314714
0.305721
0.298071
0.280032
0.29165
0.799713
0.286375
0.267441
0.276908
0.267638
0.271561
0.267898
0.268871
0.268769
0.268154
0.267668
0.26731
0.268347
0.269025
0.269842
0.270954
0.272452
0.27443
0.276952
0.280131
0.284064
0.28888
0.294715
0.301699
0.309897
0.319299
0.329745
0.340912
0.352349
0.363539
0.373969
0.383271
0.391224
0.3978
0.403119
0.407408
0.411002
0.414216
0.417334
0.420593
0.424251
0.428557
0.433757
0.439984
0.447344
0.455908
0.465677
0.476558
0.488336
0.500669
0.513123
0.525221
0.536502
0.546583
0.55525
0.562408
0.568122
0.572543
0.575872
0.578337
0.580136
0.58145
0.582424
0.583182
0.583817
0.584409
0.585021
0.585716
0.586545
0.587559
0.588821
0.590413
0.592482
0.595341
0.599723
0.607317
0.621651
0.649046
0.699378
0.777459
0.858513
0.884402
0.905138
0.920886
0.931865
0.938278
0.940248
0.937813
0.930933
0.919528
0.9034
0.882319
0.775042
0.698703
0.64984
0.623226
0.609308
0.601878
0.597519
0.594616
0.592477
0.590814
0.589485
0.588413
0.587543
0.586822
0.586207
0.585648
0.585087
0.584463
0.583698
0.582696
0.581337
0.579473
0.576928
0.573496
0.568957
0.563118
0.555822
0.547002
0.536767
0.525328
0.513067
0.500483
0.488061
0.476249
0.465357
0.455585
0.447021
0.43961
0.433214
0.427654
0.422714
0.418065
0.413357
0.408198
0.402233
0.395125
0.386681
0.376891
0.365983
0.354275
0.342316
0.330809
0.320144
0.310512
0.302186
0.295139
0.856107
0.289248
0.282078
0.267372
0.274414
0.267585
0.270259
0.26783
0.268244
0.268007
0.267428
0.268476
0.268119
0.267286
0.908209
0.932432
0.951686
0.966235
0.976364
0.982319
0.984228
0.982141
0.976034
0.96577
0.951106
0.931737
0.907364
0.824709
0.746043
0.675872
0.632137
0.608653
0.596516
0.590007
0.5861
0.583424
0.581402
0.579794
0.578486
0.577408
0.576497
0.575705
0.574979
0.574241
0.573419
0.572417
0.571114
0.569365
0.566992
0.563796
0.559554
0.554064
0.547162
0.538784
0.528996
0.518009
0.506185
0.494007
0.481949
0.470473
0.45992
0.450508
0.442367
0.43549
0.429791
0.425132
0.421357
0.418296
0.415737
0.41342
0.411112
0.408525
0.405349
0.401256
0.395929
0.389142
0.380786
0.370953
0.360081
0.348639
0.337047
0.326004
0.315798
0.306747
0.298928
0.284403
0.292351
0.877758
0.268144
0.268541
0.269242
0.270232
0.271557
0.273302
0.275568
0.278448
0.282025
0.286419
0.291758
0.298173
0.305762
0.314553
0.324448
0.335204
0.346423
0.357606
0.368227
0.377815
0.386051
0.39279
0.398071
0.402062
0.404997
0.407156
0.40881
0.410202
0.411523
0.412978
0.414709
0.416904
0.419773
0.423456
0.428092
0.433818
0.440745
0.448935
0.458378
0.468961
0.480455
0.492503
0.504662
0.516444
0.527384
0.537133
0.545456
0.552297
0.557726
0.561904
0.56505
0.567382
0.569109
0.570405
0.571421
0.572276
0.573067
0.573873
0.57477
0.575815
0.577072
0.578617
0.580578
0.583213
0.587138
0.593806
0.606375
0.630716
0.676035
0.748331
0.827416
0.878803
0.278581
0.267426
0.286934
0.280453
0.272468
0.267658
0.269311
0.267867
0.267831
0.268001
0.267356
0.268041
0.267372
0.26809
0.267988
0.842854
0.788296
0.713026
0.649758
0.611556
0.591463
0.581229
0.575709
0.572306
0.569887
0.567999
0.566449
0.565145
0.564015
0.563008
0.562061
0.561088
0.559995
0.558666
0.556955
0.554688
0.551662
0.547658
0.54246
0.535905
0.527906
0.518523
0.507941
0.496536
0.484737
0.473017
0.461853
0.451615
0.442504
0.434673
0.428126
0.422804
0.418598
0.415358
0.412949
0.411202
0.409952
0.409061
0.408372
0.407681
0.406835
0.4056
0.403751
0.400982
0.39699
0.391518
0.384439
0.375812
0.365752
0.354784
0.343284
0.331961
0.321273
0.311512
0.302966
0.295715
0.268565
0.26943
0.270622
0.272178
0.274213
0.27683
0.280092
0.284113
0.289019
0.294931
0.301962
0.310172
0.319525
0.329843
0.3408
0.351939
0.362737
0.372691
0.381396
0.388616
0.394292
0.39852
0.401495
0.403462
0.404664
0.405332
0.405659
0.405805
0.405894
0.406074
0.40645
0.4071
0.408179
0.409842
0.412228
0.415465
0.419692
0.425044
0.431629
0.439504
0.448647
0.458937
0.470139
0.481886
0.493736
0.505185
0.515792
0.525196
0.533194
0.539736
0.544908
0.54889
0.551899
0.554162
0.555882
0.557241
0.558384
0.559428
0.560473
0.561606
0.562891
0.564401
0.566243
0.568629
0.572055
0.577731
0.588398
0.609393
0.649266
0.714993
0.791218
0.844129
0.864737
0.897756
0.925717
0.948737
0.967024
0.980857
0.990513
0.996216
0.998093
0.996182
0.990482
0.980873
0.967126
0.948954
0.926081
0.898261
0.267974
0.865369
0.28247
0.289653
0.267832
0.275759
0.267583
0.86868
0.900874
0.928124
0.950557
0.968388
0.981911
0.991381
0.997002
0.998864
0.996969
0.991283
0.981691
0.967993
0.949922
0.927211
0.899644
0.86709
0.277245
0.270983
0.267822
0.267605
0.267794
0.268554
0.269618
0.271013
0.272854
0.275237
0.278219
0.281912
0.286422
0.291885
0.298406
0.306065
0.314872
0.324715
0.335336
0.346336
0.357222
0.367474
0.376642
0.384408
0.390627
0.395322
0.398638
0.400792
0.402022
0.402546
0.402558
0.402217
0.401646
0.400941
0.40019
0.399474
0.398884
0.398478
0.398307
0.398484
0.399138
0.400401
0.402406
0.40528
0.409161
0.414181
0.420442
0.427995
0.436819
0.446792
0.457664
0.469078
0.48057
0.491663
0.501903
0.510952
0.518618
0.524872
0.529815
0.533633
0.536555
0.538803
0.540585
0.542075
0.543414
0.544718
0.546087
0.547591
0.549317
0.551437
0.55434
0.559
0.567716
0.585214
0.619381
0.677912
0.750258
0.804299
0.82669
0.829585
0.284664
0.278834
0.268606
0.268009
0.267617
0.268103
0.267407
0.268092
0.267554
0.267972
0.267758
0.267289
0.267414
0.265914
0.266488
0.831593
0.827451
0.802796
0.747299
0.67652
0.620676
0.588228
0.571625
0.563332
0.558825
0.555959
0.553829
0.552085
0.550586
0.549244
0.548005
0.546807
0.54555
0.54412
0.542378
0.540153
0.537243
0.533427
0.528487
0.522243
0.514604
0.505601
0.495425
0.484402
0.473002
0.461651
0.450845
0.440894
0.432104
0.424565
0.418318
0.413298
0.40943
0.406538
0.404509
0.403205
0.402528
0.402272
0.402237
0.402492
0.402918
0.403329
0.403635
0.403636
0.403333
0.402397
0.400596
0.397675
0.393366
0.387474
0.379885
0.370711
0.360361
0.349251
0.337824
0.326699
0.316473
0.307303
0.299319
0.292642
0.865156
0.280553
0.287014
0.218498
0.828365
0.273518
0.267814
0.897181
0.92437
0.946812
0.964713
0.978308
0.987826
0.993464
0.995302
0.99338
0.987649
0.977983
0.96419
0.946027
0.923256
0.895675
0.863183
0.825826
0.274677
0.269871
0.268061
0.266469
0.267578
0.268526
0.269806
0.271476
0.27363
0.276368
0.279776
0.283945
0.288989
0.295037
0.302188
0.310464
0.319807
0.330028
0.340792
0.351648
0.362088
0.371631
0.379901
0.386679
0.391911
0.395689
0.398197
0.399658
0.400294
0.400304
0.399847
0.399056
0.398026
0.396836
0.395544
0.394204
0.392867
0.39158
0.390404
0.389392
0.388572
0.388015
0.387833
0.388143
0.389073
0.390748
0.393296
0.39685
0.401539
0.407463
0.414675
0.423148
0.432753
0.443248
0.454266
0.465357
0.476039
0.485878
0.494546
0.501871
0.507844
0.512575
0.516262
0.519129
0.521403
0.523282
0.524926
0.526465
0.528018
0.529666
0.531527
0.533909
0.537571
0.544385
0.558412
0.586822
0.637742
0.705133
0.759647
0.783886
0.787394
0.783844
0.27589
0.268138
0.26823
0.282381
0.277183
0.267554
0.268293
0.267559
0.268239
0.267806
0.268067
0.267775
0.267367
0.266275
0.859505
0.822779
0.265016
0.264464
0.787068
0.789999
0.784818
0.758032
0.702411
0.63717
0.58907
0.562348
0.549185
0.542757
0.539253
0.536932
0.535102
0.533501
0.532007
0.53057
0.529127
0.527559
0.52574
0.523509
0.520672
0.517009
0.512298
0.506352
0.499062
0.49045
0.480682
0.470079
0.459063
0.44813
0.437686
0.428119
0.419642
0.412457
0.406509
0.401799
0.398211
0.39564
0.393907
0.392924
0.392602
0.392605
0.393193
0.393922
0.39482
0.395891
0.39703
0.398158
0.399222
0.400119
0.400775
0.401051
0.400776
0.399744
0.397702
0.39437
0.389534
0.383042
0.374943
0.365329
0.354594
0.343425
0.332258
0.321568
0.311791
0.303183
0.295794
0.289578
0.264859
0.265654
0.278589
0.284393
0.289592
0.271789
0.268105
0.891526
0.918789
0.941367
0.959418
0.973138
0.982772
0.988471
0.990327
0.988361
0.982542
0.972749
0.958802
0.940484
0.917566
0.889877
0.857334
0.819985
0.778059
0.272655
0.269043
0.268356
0.252611
0.267325
0.268503
0.270018
0.271995
0.274532
0.277681
0.281547
0.286233
0.291848
0.298504
0.306278
0.315123
0.324904
0.335352
0.346068
0.356572
0.366376
0.375062
0.382347
0.388111
0.392385
0.395313
0.397098
0.397961
0.398105
0.397701
0.396886
0.395765
0.394418
0.392904
0.39127
0.389553
0.387789
0.386006
0.384235
0.382508
0.380864
0.379355
0.378011
0.376868
0.376008
0.37553
0.375542
0.376172
0.377541
0.379776
0.383006
0.387356
0.392924
0.399757
0.407827
0.417011
0.427061
0.437622
0.448246
0.458466
0.467855
0.476111
0.483081
0.488763
0.493282
0.496837
0.499646
0.501921
0.503837
0.505535
0.507155
0.508819
0.510732
0.513479
0.518539
0.529292
0.552125
0.595269
0.656698
0.710818
0.736807
0.741066
0.737676
0.731947
0.273547
0.267878
0.268512
0.274483
0.267616
0.268549
0.28011
0.275513
0.267787
0.26846
0.268113
0.268243
0.2679
0.267439
0.853515
0.816846
0.266872
0.266246
0.105572
0.265592
0.781559
0.736167
0.741589
0.744246
0.737898
0.70922
0.654527
0.595738
0.555418
0.534194
0.524223
0.519528
0.516951
0.515148
0.513591
0.512077
0.510542
0.508904
0.507039
0.504808
0.502035
0.498512
0.494022
0.488372
0.481444
0.473238
0.46391
0.45376
0.443202
0.432693
0.422681
0.413509
0.40543
0.398584
0.392996
0.388577
0.385283
0.383015
0.381599
0.380895
0.380854
0.381104
0.381988
0.383079
0.384366
0.385801
0.387364
0.388995
0.390634
0.392283
0.393867
0.395327
0.39664
0.397703
0.398431
0.398676
0.398262
0.396945
0.394512
0.390684
0.385257
0.378172
0.369499
0.359565
0.348738
0.337581
0.326635
0.316439
0.307237
0.299177
0.292314
0.286576
0.412975
0.276626
0.28181
0.0293771
0.234049
0.270484
0.268441
0.885518
0.912828
0.93549
0.953646
0.967502
0.977241
0.982997
0.984863
0.982858
0.976956
0.967043
0.952955
0.934497
0.911469
0.883707
0.851156
0.813863
0.772038
0.726036
0.2711
0.26847
0.268696
0.238556
0.251892
0.266958
0.268415
0.270269
0.272622
0.275564
0.279183
0.283564
0.288811
0.295026
0.302294
0.310654
0.31998
0.330057
0.340542
0.350995
0.360939
0.369932
0.377644
0.383892
0.388648
0.392012
0.394161
0.395304
0.395649
0.395375
0.394628
0.393522
0.392143
0.390556
0.388808
0.386935
0.384968
0.382929
0.380841
0.378725
0.3766
0.374487
0.372409
0.370392
0.368474
0.366698
0.365089
0.363688
0.362574
0.36184
0.361586
0.361935
0.363011
0.364935
0.367837
0.371827
0.377005
0.383415
0.391032
0.399729
0.409266
0.419293
0.429376
0.439064
0.44795
0.455746
0.462315
0.467665
0.471919
0.475264
0.477899
0.480008
0.481747
0.483273
0.484817
0.486813
0.490365
0.498202
0.515868
0.551386
0.606032
0.658675
0.686096
0.691115
0.687863
0.682176
0.676368
0.271725
0.267776
0.26884
0.272371
0.267773
0.268856
0.273063
0.268076
0.268739
0.277872
0.273818
0.268462
0.268487
0.268106
0.847082
0.810507
0.267605
0.267007
0.266354
0.2656
0.775688
0.730399
0.687095
0.692433
0.694868
0.687358
0.657253
0.604702
0.553072
0.520266
0.504064
0.496923
0.493722
0.49195
0.49057
0.489212
0.487735
0.486008
0.483906
0.481281
0.477951
0.473716
0.468393
0.461859
0.454104
0.445263
0.435622
0.425576
0.415574
0.406042
0.397331
0.389677
0.383211
0.377982
0.37393
0.370945
0.368941
0.367813
0.367398
0.367588
0.368148
0.369234
0.370557
0.372122
0.373862
0.375698
0.377631
0.37966
0.381663
0.383712
0.385735
0.387669
0.389537
0.391287
0.392895
0.39427
0.395346
0.396002
0.396097
0.395433
0.393765
0.390841
0.386462
0.38048
0.37285
0.363748
0.353518
0.342623
0.331694
0.321162
0.311373
0.302794
0.295338
0.288996
0.283691
0.263995
0.274667
0.27928
0.264707
0.681453
0.26949
0.268813
0.879048
0.906371
0.929107
0.947369
0.961335
0.971162
0.976975
0.978855
0.976816
0.970834
0.960809
0.946596
0.928017
0.904897
0.877099
0.844572
0.807371
0.765691
0.719862
0.67039
0.269919
0.268124
0.269069
0.264454
0.265436
0.266696
0.268307
0.270534
0.273339
0.276777
0.280915
0.285855
0.291696
0.298521
0.306377
0.315249
0.324924
0.335112
0.345417
0.355386
0.364572
0.372612
0.379273
0.384471
0.388257
0.390777
0.392225
0.392804
0.3927
0.392068
0.39103
0.389681
0.38809
0.386309
0.384377
0.382324
0.380172
0.377941
0.375647
0.373304
0.370928
0.368532
0.366132
0.363743
0.361381
0.359068
0.356827
0.354691
0.3527
0.35088
0.349267
0.347938
0.34698
0.346485
0.346567
0.347353
0.348961
0.351516
0.355128
0.359881
0.365821
0.372919
0.381053
0.389992
0.399396
0.408848
0.417916
0.42621
0.433456
0.439521
0.44441
0.448232
0.451151
0.453345
0.454995
0.456322
0.457715
0.460068
0.465516
0.478654
0.506985
0.554323
0.604328
0.63264
0.638325
0.635135
0.629458
0.623742
0.617968
0.27033
0.267806
0.269203
0.270748
0.268006
0.269202
0.263648
0.271151
0.26841
0.269063
0.271597
0.268843
0.268784
0.840381
0.803933
0.275639
0.272087
0.268375
0.267847
0.267226
0.266512
0.265647
0.769497
0.724388
0.675681
0.62956
0.635046
0.640296
0.642574
0.634065
0.603288
0.554098
0.510006
0.48414
0.472288
0.467485
0.46547
0.464322
0.463278
0.462008
0.460326
0.458087
0.455131
0.451288
0.446393
0.440336
0.433108
0.424835
0.415784
0.406335
0.396918
0.387947
0.379761
0.372596
0.366575
0.361731
0.358035
0.355394
0.353688
0.352815
0.352657
0.353076
0.35395
0.355204
0.35672
0.358476
0.36042
0.362503
0.364681
0.366907
0.369251
0.371541
0.373884
0.376215
0.378488
0.380706
0.382866
0.384964
0.386935
0.388771
0.3904
0.391762
0.392773
0.393291
0.393146
0.392139
0.390067
0.386667
0.381717
0.375166
0.367037
0.357593
0.347256
0.336484
0.325851
0.315778
0.306602
0.298588
0.291701
0.285833
0.280895
0.27267
0.264665
0.276773
0.263743
0.624046
0.268779
0.269211
0.872291
0.899621
0.922406
0.940746
0.954806
0.964718
0.970588
0.972486
0.970415
0.964361
0.954239
0.939918
0.921242
0.898051
0.870233
0.837743
0.800651
0.759145
0.713546
0.664345
0.612211
0.269047
0.267952
0.269468
0.265157
0.266752
0.268711
0.271157
0.274293
0.278194
0.28289
0.288432
0.294886
0.302305
0.310687
0.319948
0.329795
0.339876
0.349769
0.359039
0.367303
0.374289
0.379867
0.384041
0.38692
0.388677
0.389507
0.389596
0.389105
0.388166
0.386879
0.385321
0.383549
0.381605
0.379521
0.37732
0.375024
0.372645
0.370198
0.367696
0.365147
0.362563
0.359955
0.357334
0.354712
0.352098
0.349508
0.346958
0.344465
0.342049
0.339741
0.337578
0.335591
0.333811
0.332301
0.331146
0.330433
0.330264
0.330759
0.332044
0.33423
0.337424
0.341707
0.347113
0.353612
0.36109
0.369323
0.377986
0.386682
0.394993
0.402544
0.409066
0.414421
0.418603
0.421708
0.423894
0.425385
0.426532
0.428044
0.431593
0.44094
0.462831
0.502747
0.54904
0.577516
0.583681
0.580442
0.574719
0.569084
0.563505
0.558046
0.269282
0.267937
0.269594
0.263861
0.263065
0.269482
0.268297
0.26958
0.269672
0.26878
0.269422
0.83383
0.797551
0.269858
0.269248
0.270055
0.269123
0.268691
0.273385
0.270302
0.268142
0.267489
0.266699
0.265753
0.763115
0.718257
0.669843
0.618554
0.570365
0.575611
0.580922
0.586006
0.588091
0.579058
0.548635
0.503871
0.467222
0.44748
0.439192
0.436196
0.435085
0.434352
0.433373
0.431849
0.429577
0.42639
0.422143
0.416744
0.410192
0.402619
0.394282
0.385546
0.376825
0.368515
0.360941
0.354336
0.348822
0.344424
0.341116
0.338826
0.33744
0.336842
0.336923
0.33756
0.338637
0.340069
0.341783
0.343695
0.345789
0.348051
0.350404
0.352844
0.355323
0.357889
0.360435
0.362975
0.365575
0.368079
0.370556
0.373006
0.37543
0.37777
0.380046
0.382197
0.384199
0.386055
0.387662
0.388955
0.389826
0.390115
0.389724
0.388369
0.385817
0.381901
0.376414
0.369378
0.36089
0.351281
0.340919
0.330317
0.320114
0.310619
0.30216
0.294691
0.288242
0.28273
0.278076
0.270619
0.26357
0.2742
0.264693
0.565229
0.268318
0.269629
0.865644
0.892926
0.915709
0.934082
0.948196
0.958161
0.964062
0.965962
0.963867
0.957762
0.947577
0.933189
0.914462
0.89125
0.863461
0.831065
0.794133
0.752845
0.70752
0.658643
0.606867
0.553075
0.268452
0.267925
0.269887
0.264895
0.266843
0.269222
0.272124
0.275652
0.279965
0.285167
0.291293
0.298352
0.306316
0.31512
0.3246
0.334398
0.344131
0.353382
0.361765
0.368983
0.374865
0.379375
0.382582
0.384637
0.385719
0.386012
0.385679
0.384857
0.383655
0.382153
0.380415
0.378486
0.376401
0.374186
0.371861
0.369442
0.366945
0.364378
0.36175
0.359074
0.356356
0.353603
0.350826
0.348035
0.345235
0.342432
0.33964
0.336872
0.334134
0.331442
0.328813
0.326265
0.323827
0.321533
0.31942
0.317513
0.315857
0.314535
0.313629
0.313227
0.313436
0.314373
0.316153
0.318874
0.322607
0.327389
0.333184
0.339874
0.347249
0.355
0.362749
0.370095
0.376673
0.382217
0.386589
0.389787
0.39194
0.393327
0.394519
0.396807
0.4032
0.41957
0.452309
0.494062
0.521885
0.528324
0.524879
0.519152
0.513574
0.508178
0.50302
0.498426
0.262636
0.268525
0.268149
0.270006
0.262842
0.263292
0.268549
0.268632
0.26998
0.82752
0.79147
0.268539
0.269176
0.269672
0.268502
0.269808
0.269492
0.268465
0.269043
0.26844
0.268475
0.271042
0.26843
0.267777
0.266919
0.26592
0.756968
0.7124
0.66434
0.613413
0.560512
0.511002
0.515734
0.520667
0.525761
0.530681
0.532737
0.523648
0.49457
0.454981
0.425287
0.410676
0.405171
0.40346
0.402827
0.402101
0.400761
0.398527
0.39522
0.390746
0.385112
0.378449
0.371016
0.363168
0.3553
0.347794
0.340959
0.335012
0.330079
0.326201
0.323343
0.321434
0.320387
0.32008
0.320389
0.321213
0.322465
0.324054
0.325891
0.327948
0.330181
0.332557
0.335059
0.337629
0.340267
0.342943
0.34569
0.348424
0.351145
0.35392
0.356639
0.359308
0.361979
0.364641
0.36724
0.369815
0.372297
0.374681
0.376992
0.379176
0.381204
0.383012
0.384539
0.38571
0.386415
0.386492
0.385748
0.384014
0.381016
0.376623
0.370687
0.363266
0.35449
0.344808
0.334607
0.324483
0.314801
0.305935
0.297946
0.290871
0.284758
0.279554
0.275219
0.268507
0.264807
0.26353
0.271592
0.506723
0.268055
0.270062
0.859166
0.886344
0.909057
0.927417
0.94153
0.951495
0.957399
0.959294
0.957184
0.951055
0.940843
0.926438
0.907713
0.884545
0.85685
0.82461
0.787898
0.746898
0.70192
0.653432
0.602077
0.54873
0.494541
0.262395
0.268078
0.26801
0.263566
0.262238
0.270321
0.262066
0.26202
0.262773
0.264672
0.267014
0.269873
0.273284
0.277333
0.282146
0.287842
0.294467
0.302017
0.310417
0.3195
0.328984
0.338492
0.347634
0.356035
0.363389
0.369492
0.374271
0.377764
0.380091
0.381416
0.381913
0.381746
0.381054
0.37995
0.378521
0.376834
0.374939
0.372873
0.370664
0.368334
0.365901
0.363379
0.360779
0.358113
0.355388
0.352608
0.349784
0.346925
0.344037
0.341126
0.338199
0.335261
0.332323
0.329388
0.326458
0.323546
0.320664
0.317824
0.315035
0.312312
0.309676
0.30715
0.304767
0.30256
0.300563
0.298807
0.297343
0.29626
0.295636
0.295557
0.296121
0.297434
0.299594
0.302669
0.306686
0.31161
0.317323
0.32363
0.330242
0.336805
0.342941
0.348307
0.352652
0.355872
0.358047
0.359544
0.361308
0.365673
0.377583
0.403743
0.440507
0.467007
0.473465
0.469794
0.464043
0.458573
0.45341
0.448587
0.444393
0.440969
0.268023
0.268422
0.270435
0.821435
0.785679
0.267898
0.269002
0.269593
0.267712
0.270399
0.270215
0.267484
0.27011
0.269885
0.267233
0.26942
0.266966
0.268829
0.266715
0.26808
0.268626
0.266475
0.267174
0.266137
0.751187
0.706975
0.659307
0.608834
0.556394
0.503087
0.450219
0.453361
0.457178
0.461474
0.466068
0.470933
0.47572
0.477922
0.469222
0.442282
0.40811
0.384598
0.374055
0.370498
0.369447
0.368756
0.367517
0.365327
0.362009
0.357539
0.352039
0.345754
0.339023
0.332226
0.32572
0.319801
0.314667
0.310444
0.307183
0.304855
0.303395
0.302706
0.302687
0.303223
0.304229
0.305626
0.307324
0.309267
0.311417
0.313752
0.316231
0.318816
0.321497
0.32424
0.327031
0.329859
0.332738
0.33562
0.338499
0.341408
0.344282
0.347119
0.349953
0.352795
0.355586
0.358372
0.361093
0.363732
0.366339
0.368895
0.37135
0.373664
0.375823
0.377805
0.379539
0.380967
0.381989
0.382483
0.382308
0.381252
0.379133
0.375726
0.370894
0.364615
0.356907
0.348116
0.338509
0.328688
0.319034
0.309831
0.301325
0.293702
0.287033
0.28124
0.276285
0.272176
0.266277
0.268795
0.266119
0.264972
0.25946
0.267953
0.266736
0.264529
0.263675
0.262198
0.261511
0.261031
0.261217
0.261069
0.260271
0.259977
0.260836
0.259723
0.259008
0.25931
0.260695
0.258257
0.262235
0.257705
0.259064
0.260655
0.270508
0.852848
0.879849
0.902448
0.920727
0.934781
0.944709
0.950589
0.952471
0.950351
0.94422
0.934016
0.919639
0.900977
0.877916
0.850385
0.818372
0.781955
0.741319
0.696763
0.648738
0.597879
0.545051
0.491388
0.438333
0.272641
0.277341
0.282885
0.289352
0.296681
0.304768
0.313586
0.322993
0.332599
0.341928
0.350663
0.358387
0.364913
0.370024
0.373758
0.376215
0.37757
0.378021
0.377735
0.376874
0.375573
0.373927
0.372017
0.369899
0.367606
0.365164
0.362638
0.360002
0.357266
0.354461
0.351642
0.348804
0.345904
0.342961
0.34002
0.337046
0.334087
0.331109
0.328116
0.325105
0.322117
0.319125
0.316142
0.313202
0.310297
0.307431
0.304621
0.301887
0.299239
0.296703
0.294308
0.292081
0.290061
0.288278
0.286766
0.285579
0.284805
0.284523
0.284805
0.28574
0.287419
0.289912
0.293237
0.297351
0.302141
0.307418
0.312918
0.318315
0.323263
0.327451
0.330666
0.332847
0.334172
0.335254
0.337734
0.345295
0.363648
0.392674
0.417131
0.425198
0.422802
0.418079
0.413409
0.409148
0.405282
0.401928
0.399267
0.267885
0.268185
0.270767
0.745757
0.701969
0.654774
0.604809
0.552905
0.500132
0.447792
0.397337
0.256734
0.257709
0.258939
0.260466
0.262314
0.264584
0.267358
0.270679
0.27462
0.279248
0.284628
0.290839
0.297931
0.305854
0.314464
0.323579
0.33283
0.341799
0.350133
0.357526
0.363764
0.368741
0.372465
0.375029
0.376576
0.377269
0.377268
0.376713
0.375718
0.374374
0.372752
0.370905
0.368873
0.366686
0.364368
0.361938
0.359411
0.356799
0.354115
0.351364
0.348551
0.345688
0.342783
0.339841
0.336868
0.33387
0.330852
0.327819
0.324777
0.321731
0.318691
0.315659
0.312631
0.309615
0.306629
0.303684
0.300784
0.297942
0.29517
0.292487
0.289917
0.287482
0.285214
0.283145
0.281308
0.27974
0.278485
0.277622
0.277228
0.277371
0.278136
0.279608
0.281863
0.284925
0.288768
0.293285
0.298299
0.303556
0.308744
0.313519
0.317581
0.320742
0.32305
0.32503
0.328335
0.336941
0.357408
0.389221
0.414153
0.42048
0.416725
0.411049
0.40574
0.400865
0.396425
0.392663
0.389703
0.387554
0.267721
0.268743
0.269399
0.267471
0.270876
0.270832
0.267143
0.270026
0.815541
0.780151
0.270638
0.266753
0.270559
0.270296
0.26631
0.269816
0.265836
0.269191
0.265354
0.268402
0.26488
0.267465
0.264431
0.266394
0.264143
0.265187
0.263837
0.255973
0.257291
0.262343
0.254204
0.255404
0.267978
0.247834
0.257954
0.258924
0.260693
0.270963
0.26823
0.272119
0.277388
0.283998
0.291415
0.299502
0.308149
0.317186
0.326399
0.335586
0.344297
0.352067
0.358651
0.363972
0.36795
0.370677
0.372276
0.37296
0.372883
0.372199
0.371044
0.369511
0.367684
0.365624
0.363375
0.36098
0.358456
0.355813
0.353086
0.350316
0.347437
0.344511
0.341532
0.338545
0.335558
0.332532
0.329473
0.326422
0.323352
0.320293
0.31722
0.314141
0.311057
0.30799
0.30492
0.301867
0.298855
0.295872
0.292929
0.290035
0.287208
0.284451
0.281781
0.279221
0.276792
0.274517
0.272424
0.270545
0.268909
0.267547
0.266499
0.265839
0.265628
0.265926
0.266814
0.268362
0.270601
0.273507
0.276985
0.28088
0.284968
0.288968