/*--------------------------------*- C++ -*----------------------------------*\
| =========                 |                                                 |
| \\      /  F ield         | OpenFOAM: The Open Source CFD Toolbox           |
|  \\    /   O peration     | Version:  2212                                  |
|   \\  /    A nd           | Website:  www.openfoam.com                      |
|    \\/     M anipulation  |                                                 |
\*---------------------------------------------------------------------------*/
FoamFile
{
    version     2.0;
    format      ascii;
    arch        "LSB;label=32;scalar=64";
    class       surfaceScalarField;
    location    "0.0034";
    object      phi;
}
// * * * * * * * * * * * * * * * * * * * * * * * * * * * * * * * * * * * * * //

dimensions      [1 0 -1 0 0 0 0];

oriented        oriented;

internalField   nonuniform List<scalar> 
5190
(
-2.36094e-05
-1.93803e-05
2.28269e-05
1.90046e-05
6.78845e-05
9.05783e-05
-9.85776e-05
-8.01929e-05
-1.85107e-05
-0.000131302
1.06934e-05
0.000115107
-8.93451e-06
7.62126e-06
1.52886e-06
2.51391e-07
0.000187879
3.69649e-05
-0.000246853
-3.15729e-05
-0.000100098
9.1852e-05
8.80923e-05
-0.000108787
-1.47851e-06
3.22016e-06
1.59487e-06
-2.72058e-06
-3.23304e-06
3.20373e-06
-7.31822e-06
7.76939e-06
8.24139e-06
-7.98477e-06
-3.98988e-06
4.15698e-06
8.52076e-06
-4.69743e-06
4.78342e-06
-2.71035e-06
2.03674e-06
-7.72113e-06
-9.32951e-06
7.68702e-06
-7.43711e-06
9.34272e-06
7.20055e-06
-9.38324e-06
-6.81749e-06
-1.39569e-05
1.37048e-05
-9.53695e-06
9.67142e-06
-9.33127e-06
-7.78069e-06
1.01937e-05
7.03686e-06
-1.16343e-05
-9.0405e-06
1.14014e-05
8.93034e-06
-1.11214e-05
-9.21978e-06
1.19472e-05
8.28964e-06
7.38358e-06
-3.40067e-06
2.87452e-06
-6.48222e-06
7.40793e-06
-3.80601e-06
4.18339e-06
-4.41343e-06
5.96065e-06
6.24233e-06
9.88286e-06
-3.41892e-06
4.05922e-06
-1.0198e-05
-9.7702e-06
9.72338e-06
-6.46083e-06
6.81219e-06
-9.83566e-06
-5.58476e-06
5.96899e-06
-4.73674e-06
5.09513e-06
-9.57971e-06
8.09182e-06
7.57725e-06
-6.24983e-06
7.09921e-06
-3.82912e-06
7.8383e-06
-7.15688e-06
-2.83222e-06
-3.96305e-06
6.04296e-06
-7.54437e-06
7.60716e-06
-4.09435e-06
-3.82462e-06
-8.23924e-06
9.09544e-06
-3.96054e-06
-4.11523e-06
3.81333e-06
-9.27843e-06
9.32948e-06
-5.28286e-06
-4.58906e-06
-6.14982e-06
1.14219e-05
-5.28705e-06
6.0115e-06
-1.21447e-05
1.111e-05
-7.2605e-06
7.48289e-06
-8.61031e-06
1.11959e-05
8.33803e-06
1.02149e-05
-1.02588e-05
-8.45443e-06
9.45356e-06
-1.07415e-05
1.15579e-05
1.02808e-05
-9.35413e-06
-6.0058e-06
-7.06508e-06
8.62597e-06
-8.65307e-06
-5.9729e-06
6.25358e-06
-5.87517e-06
5.37138e-06
6.70066e-05
9.44177e-05
-0.000118926
-6.7593e-05
-5.30168e-06
5.48047e-06
-7.63424e-06
-3.53168e-06
3.65836e-06
-2.0202e-06
-6.34123e-06
7.04533e-06
1.83386e-06
7.16979e-06
-6.63267e-06
-2.91346e-06
2.90323e-06
-3.1884e-06
8.81432e-06
1.15538e-05
-9.1146e-06
-1.15173e-05
9.41339e-06
-7.51171e-06
3.05542e-06
7.98823e-06
-7.02195e-06
-2.88467e-06
2.79228e-06
8.86857e-06
-8.84578e-06
-6.44484e-06
8.82764e-06
-7.03916e-06
-2.25013e-06
-6.60196e-06
2.23238e-06
-2.64953e-06
2.66092e-06
-6.1024e-06
-6.39868e-06
6.88325e-06
-2.84169e-06
-2.57702e-06
-5.90367e-06
-8.03255e-06
8.52959e-06
4.07065e-06
2.85058e-06
-1.01805e-05
9.98789e-06
4.5816e-06
4.68384e-06
-1.01576e-05
1.03173e-05
6.08107e-06
5.21558e-06
-1.02463e-05
9.41415e-06
8.53783e-06
7.09983e-06
-5.11204e-07
-1.77827e-06
2.41965e-06
3.45195e-07
1.05359e-05
7.01341e-06
1.15494e-05
-1.12468e-05
7.73492e-06
8.37803e-06
1.08496e-05
6.11415e-06
-1.10916e-05
6.86004e-06
-7.73429e-06
9.50278e-06
-1.58633e-07
1.05433e-06
-4.49809e-07
9.65758e-08
-7.95183e-06
1.01228e-05
-1.60634e-05
3.89584e-05
-0.000195445
-3.30125e-05
0.000151385
-6.90767e-06
7.02899e-06
-3.47218e-06
7.12466e-06
-6.75717e-06
-2.67347e-06
-3.2469e-06
-7.26389e-06
7.59211e-06
-3.98609e-06
-3.59767e-06
-7.82491e-06
8.45662e-06
-4.22732e-06
-3.95234e-06
-8.71458e-06
8.83658e-06
-5.02506e-06
-4.48451e-06
-5.75811e-06
8.36154e-06
-9.07515e-06
-7.37958e-06
-7.79497e-06
5.74587e-06
9.13521e-06
-8.75807e-06
-5.99555e-06
-6.62165e-06
8.54493e-06
-8.52718e-06
-5.5972e-06
-5.70627e-06
8.35615e-06
-8.18582e-06
-4.38868e-06
-5.04194e-06
7.75109e-06
-7.35389e-06
-3.37629e-06
-3.89948e-06
-3.10451e-06
-2.6257e-06
2.55105e-06
-6.49972e-06
6.83234e-06
-6.2965e-06
8.91548e-06
-7.52123e-06
-6.89661e-06
8.2176e-06
1.27439e-05
-1.4068e-05
-7.91103e-06
1.12931e-05
-9.01656e-06
1.12235e-05
-6.27243e-06
-2.19581e-06
-6.16576e-06
6.61461e-06
-2.71996e-06
-5.70006e-06
-2.463e-06
1.27582e-05
-1.33147e-05
8.6809e-06
-9.5515e-06
1.25211e-05
9.66665e-06
-8.96106e-06
1.21234e-05
-9.30418e-06
1.12911e-05
8.83786e-06
-8.06903e-06
-7.07529e-06
6.72049e-06
-6.76284e-06
8.53338e-06
1.10675e-05
-1.26029e-05
9.72021e-06
-7.24813e-06
-6.64232e-06
7.20575e-06
2.39561e-06
2.29168e-06
-2.39588e-06
-5.93045e-06
2.15803e-06
-6.08225e-06
8.6628e-06
7.24211e-06
-9.38485e-06
-6.24208e-06
1.32779e-05
-1.0793e-05
-1.22642e-05
9.52374e-06
-1.17255e-05
9.01371e-06
-0.000375375
-9.10026e-05
0.000207684
0.000206825
8.14772e-06
-7.99556e-06
9.00015e-06
9.90416e-06
1.10642e-05
2.04943e-06
-1.9948e-06
-5.77636e-06
0.000107247
-0.000120666
-2.61012e-05
-6.03672e-06
1.70917e-05
1.13308e-05
-1.73501e-05
-1.16155e-05
1.25526e-05
-1.03308e-05
1.12254e-05
-8.5542e-06
8.28387e-06
2.23392e-06
1.98414e-06
-8.02457e-06
-8.65201e-06
9.37964e-06
3.69298e-06
2.87485e-06
-1.01463e-05
1.04026e-05
4.602e-06
4.21754e-06
-1.07015e-05
1.10099e-05
5.98132e-06
5.17273e-06
-1.12241e-05
1.16997e-05
8.04941e-06
6.98913e-06
8.84258e-06
1.18021e-05
-1.16336e-05
7.43383e-06
8.3176e-06
1.13846e-05
5.85323e-06
-1.1184e-05
6.50596e-06
-1.11972e-05
1.31259e-05
7.75203e-06
1.13344e-05
-1.80578e-05
8.26715e-06
-1.88424e-05
-7.73516e-06
2.85095e-06
8.21339e-06
2.6122e-06
-6.35278e-06
6.6684e-06
-2.46396e-06
5.96839e-06
-1.81311e-06
-5.57447e-06
-2.03089e-06
-6.79111e-06
6.94498e-06
-3.12646e-06
-2.86084e-06
-7.16319e-06
7.27152e-06
-3.61235e-06
-3.32322e-06
-7.74993e-06
7.90675e-06
-3.96388e-06
-3.97756e-06
-8.31057e-06
8.34156e-06
-4.65583e-06
-4.48884e-06
-8.40652e-06
8.28021e-06
-5.89026e-06
-5.4121e-06
-8.26949e-06
8.21682e-06
-7.07543e-06
-6.59043e-06
-1.06509e-05
9.10204e-06
1.45328e-05
-7.71912e-06
8.25903e-06
8.28574e-06
-8.51065e-06
-6.66533e-06
-7.12504e-06
8.48371e-06
-8.3603e-06
-5.64174e-06
-6.16203e-06
8.16088e-06
-8.24076e-06
-5.03737e-06
-5.43493e-06
8.14422e-06
-7.86527e-06
-4.11255e-06
-4.62372e-06
7.50614e-06
-7.03387e-06
-3.25686e-06
-3.67276e-06
-2.94993e-06
-2.39774e-06
2.41499e-06
-5.57307e-06
2.32023e-06
-5.22282e-06
-2.21648e-06
-5.40965e-06
-5.76384e-06
2.7771e-06
1.2056e-06
-2.40545e-06
-1.02529e-06
5.1871e-07
-1.13786e-06
6.82553e-06
-5.7165e-06
-5.29861e-06
7.44929e-06
-1.13435e-06
-1.21988e-05
1.03119e-05
1.21742e-05
-1.03689e-05
1.05424e-05
-1.1089e-05
1.22471e-05
-8.77661e-06
1.11799e-05
8.77065e-06
9.1841e-06
-8.74184e-06
-9.36955e-06
1.10026e-05
5.65215e-06
-5.54499e-06
-1.27552e-06
-8.35489e-06
9.13288e-06
1.04619e-05
-7.97145e-06
9.70984e-06
-6.80341e-06
7.40341e-06
2.19142e-06
-6.2111e-06
1.97961e-06
-1.00285e-05
1.17228e-05
-9.56418e-06
1.13853e-05
-2.02337e-06
1.92595e-06
-5.11495e-06
-2.16518e-06
-4.83787e-06
0.00182719
2.67045e-07
-0.00156711
1.92501e-06
2.94696e-07
0.00210487
5.1944e-06
-0.00182702
0.00210467
5.70896e-06
-0.00156698
2.453e-06
-2.02484e-06
2.13904e-06
-4.7672e-06
-5.04755e-06
5.50058e-06
-2.08476e-06
-4.60691e-06
-1.88996e-06
-5.79635e-06
4.14296e-06
-9.21286e-06
1.12237e-05
-1.27242e-05
1.07903e-05
1.34691e-06
3.07619e-06
-1.12878e-06
-5.69363e-06
-1.51398e-06
6.56954e-06
-2.41032e-05
-2.20676e-05
2.36737e-05
2.17064e-05
9.84018e-05
6.68672e-05
-0.000123828
-6.63514e-05
0.000158617
4.12217e-05
-3.49417e-05
-0.000200173
1.0055e-05
1.07506e-05
6.28023e-05
8.9578e-05
-5.33767e-06
1.76941e-06
-4.2555e-06
1.96947e-05
8.7751e-06
-2.40459e-05
-7.56647e-06
8.12621e-06
1.83917e-06
-1.91298e-06
1.29027e-06
-1.53289e-06
-8.48243e-06
8.80232e-06
2.33695e-06
2.08906e-06
-9.22805e-06
9.83534e-06
3.40641e-06
2.82358e-06
-1.04327e-05
1.0886e-05
4.39914e-06
3.89309e-06
-1.13214e-05
1.1746e-05
5.69137e-06
4.96183e-06
-1.21892e-05
1.27138e-05
7.4056e-06
6.52361e-06
-1.32933e-05
1.31222e-05
8.73839e-06
8.14233e-06
9.91565e-06
1.24167e-05
-1.22718e-05
7.58611e-06
8.84647e-06
1.19423e-05
-1.14602e-05
5.65396e-06
6.46548e-06
1.08227e-05
-1.01205e-05
4.36732e-06
-4.88109e-06
4.98926e-06
-5.39202e-06
9.50764e-06
-8.96846e-06
3.24059e-06
-3.61401e-06
3.72387e-06
-4.17961e-06
8.46673e-06
-7.96582e-06
2.62406e-06
2.87231e-06
-3.16705e-06
2.39487e-06
0.00238362
1.99983e-07
8.04223e-06
0.0026402
2.51198e-07
1.03511e-05
0.00285319
4.26634e-07
1.13056e-05
0.00300576
9.20755e-07
1.11407e-05
0.00305186
3.03347e-06
9.97572e-06
0.00309055
8.02288e-06
4.78619e-06
0.0030899
1.48808e-05
-5.71388e-06
0.00281252
2.62481e-05
-1.68752e-05
0.00140164
3.28204e-05
-2.79094e-05
2.7979e-05
0.000902117
-2.69904e-05
0.000906674
-0.00140342
2.54573e-05
0.000655014
2.40114e-05
-2.52606e-05
2.3618e-05
0.000512558
-2.56638e-05
-0.000660245
0.000520548
1.77879e-05
2.06965e-05
0.0028062
-0.00308499
3.80724e-05
3.26688e-05
0.00308955
-0.00305005
1.99878e-05
2.80331e-05
0.00300429
-0.00285235
1.36078e-05
1.635e-05
0.00263973
-0.0023832
1.08947e-05
1.27109e-05
8.66885e-06
-6.0447e-06
6.36004e-06
-2.24319e-06
-1.85939e-06
-6.57211e-06
6.77543e-06
-2.81779e-06
-2.55313e-06
-6.99539e-06
7.16239e-06
-3.26473e-06
-3.03208e-06
-7.25877e-06
7.57101e-06
-3.80552e-06
-3.5723e-06
-7.79885e-06
8.00824e-06
-4.44219e-06
-4.26789e-06
-7.91416e-06
7.87681e-06
-5.42972e-06
-4.90606e-06
-7.77876e-06
7.63879e-06
-6.47305e-06
-6.02716e-06
-1.82468e-05
1.79088e-05
-2.43628e-05
-6.94044e-06
7.26572e-06
-8.33622e-06
9.69631e-06
-6.77936e-06
8.51664e-06
-8.2573e-06
-7.72408e-06
-8.29099e-06
8.84468e-06
9.50183e-06
-9.70195e-06
7.94484e-06
7.68777e-06
-5.46608e-06
-8.92793e-06
7.97186e-06
-7.85177e-06
-6.68678e-06
-7.03119e-06
8.00152e-06
-8.07563e-06
-6.08562e-06
-6.47352e-06
8.08658e-06
-7.95318e-06
-5.27428e-06
-5.65078e-06
7.95571e-06
-7.8939e-06
-4.56776e-06
-4.92485e-06
7.76125e-06
-7.50049e-06
-3.78038e-06
-4.196e-06
7.16357e-06
-6.76524e-06
-3.06051e-06
-3.40351e-06
6.36327e-06
-5.94614e-06
-2.56318e-06
-2.77869e-06
-2.3214e-06
-2.20414e-06
2.22937e-06
-5.05987e-06
-4.91419e-06
-2.19383e-06
2.08924e-06
-5.35623e-06
-5.21819e-06
-1.94566e-06
1.77536e-06
-5.61749e-06
-5.50176e-06
-1.40995e-05
-2.23122e-05
2.13473e-05
1.48586e-05
-3.29689e-05
3.47307e-05
-1.06699e-05
7.39509e-06
-9.56493e-06
1.07811e-05
9.18385e-06
9.16514e-06
-8.93241e-06
9.4847e-06
9.97153e-06
-9.70673e-06
1.0908e-05
-4.44329e-06
-2.60588e-06
-1.27512e-05
1.35802e-05
9.74313e-06
2.33005e-07
-1.47484e-06
-0.00133337
-1.00405e-06
-0.00133327
5.46041e-06
-1.05815e-06
-5.10002e-06
-5.76997e-05
-3.52377e-05
2.78078e-05
6.26681e-05
0.000902609
-0.00140291
-2.47783e-05
0.000653719
-2.36212e-05
-1.08157e-05
1.13607e-05
-0.000374126
-7.69212e-05
0.000125722
0.000258627
9.19109e-06
8.58787e-06
9.23373e-06
-9.9603e-06
1.19095e-05
9.54133e-07
-1.23911e-06
-4.94429e-06
1.00403e-06
-4.89672e-06
-0.00133752
0.00157133
-4.71331e-06
-4.79119e-06
2.21465e-07
-0.00112768
-1.08154e-05
-0.00113138
-1.9291e-06
1.99114e-06
-4.26312e-06
-1.79552e-06
-4.16177e-06
-4.92122e-06
5.32226e-06
-1.89884e-06
-4.48355e-06
-1.74212e-06
-1.70219e-05
0.000420203
1.2348e-05
0.000421524
-2.90991e-05
9.25389e-06
4.28248e-06
-9.06399e-06
9.31397e-06
5.29519e-06
-5.10172e-06
-1.15314e-05
1.28625e-05
1.30974e-05
8.6783e-06
6.00775e-06
-8.79365e-06
-5.4619e-06
9.30063e-06
7.45009e-06
0.000125076
3.83048e-05
-3.8455e-05
1.72948e-05
1.07248e-05
-1.91534e-05
-2.09325e-05
2.3159e-05
-6.67997e-06
9.27397e-07
5.11634e-07
-4.09183e-07
-4.89563e-07
-5.72986e-06
6.34744e-06
1.5863e-06
1.60266e-06
-1.76458e-06
-5.00738e-06
1.41939e-06
-5.09204e-06
9.84575e-06
1.04584e-05
2.00062e-06
-3.88316e-06
-1.96346e-06
-1.94529e-06
1.83882e-06
-4.44443e-06
-4.1991e-06
-1.70735e-06
1.49073e-06
-4.82874e-06
5.56487e-06
-4.66057e-06
-4.94152e-06
-7.56994e-06
8.10141e-06
1.80157e-06
1.72241e-06
-8.61026e-06
9.09551e-06
2.27429e-06
2.04497e-06
-9.62823e-06
1.02502e-05
3.09727e-06
2.65997e-06
-1.08161e-05
1.13831e-05
4.062e-06
3.59164e-06
-1.19239e-05
1.24327e-05
5.24369e-06
4.60014e-06
-1.29369e-05
1.3422e-05
6.80501e-06
5.93962e-06
-1.38241e-05
1.36683e-05
8.8319e-06
7.66477e-06
1.07057e-05
-9.96619e-06
1.33177e-05
2.02253e-05
1.2093e-05
-1.98461e-05
1.30168e-05
-1.33142e-05
1.121e-05
1.26634e-05
1.39662e-05
1.33937e-05
-1.31586e-05
8.05229e-06
9.58439e-06
1.26739e-05
-1.2053e-05
5.74344e-06
6.69969e-06
1.13343e-05
-1.06335e-05
4.19741e-06
4.91747e-06
9.93648e-06
-9.35207e-06
2.97165e-06
3.42783e-06
8.76446e-06
-8.20831e-06
2.39172e-06
2.57766e-06
7.58899e-06
-6.97013e-06
1.97755e-06
2.15316e-06
1.77307e-06
-0.00183093
0.00210774
8.50043e-06
1.95421e-06
-0.00238522
0.00264082
1.93151e-05
1.44993e-05
-0.00285234
0.0030035
2.31847e-05
2.24564e-05
-0.00305033
0.00308812
1.8256e-05
2.18702e-05
-0.00308148
0.00280892
-8.79962e-06
9.93222e-06
-2.0657e-05
-0.00133744
0.00157108
-4.16886e-06
4.38034e-06
-1.03802e-05
-0.00113145
-0.00112761
-8.84021e-07
-3.85767e-05
-0.000429489
-2.70389e-05
-3.45101e-05
-8.47633e-06
4.107e-05
-6.66169e-09
0.000530262
-0.000668818
1.02533e-05
7.56933e-06
0.000916954
-0.00141484
2.28742e-05
1.80037e-05
0.00281299
-0.00308079
4.12831e-05
3.21557e-05
0.00308167
-0.00304976
3.9692e-05
3.78967e-05
0.00300316
-0.00285141
2.55265e-05
2.89685e-05
0.00263961
-0.00238433
2.02344e-05
2.39833e-05
0.00210701
-0.00183055
9.14104e-06
1.51863e-05
2.4785e-06
-5.79422e-06
6.07865e-06
-1.98848e-06
-1.63376e-06
-6.32533e-06
6.5368e-06
-2.51424e-06
-2.27124e-06
-6.73461e-06
6.97691e-06
-2.98341e-06
-2.71806e-06
-7.17233e-06
7.44639e-06
-3.54891e-06
-3.23299e-06
-7.43738e-06
7.52734e-06
-4.06388e-06
-3.75097e-06
-7.50654e-06
7.47734e-06
-4.96909e-06
-4.4471e-06
-7.29951e-06
7.11165e-06
-5.81552e-06
-5.38886e-06
-6.77436e-06
6.31751e-06
-6.77984e-06
7.65885e-06
-6.16101e-06
-5.69019e-06
4.74332e-06
-7.86438e-06
-7.30942e-06
-9.09467e-06
9.69854e-06
4.00694e-06
-4.10941e-06
3.58885e-06
-8.17128e-06
-8.02303e-06
-9.86881e-06
6.97342e-06
9.38821e-06
3.18017e-06
-4.18683e-06
-8.31774e-06
-9.10267e-06
2.79751e-06
9.72106e-06
-3.10402e-06
-2.00768e-06
1.89652e-06
-8.63369e-06
-8.71021e-06
1.03172e-05
4.18872e-06
-6.01269e-06
-8.34554e-06
1.07267e-05
-8.28026e-06
6.82276e-06
-7.15001e-06
-6.88811e-06
-7.53281e-06
7.27631e-06
-7.38221e-06
-6.08847e-06
-6.41392e-06
7.56102e-06
-7.64863e-06
-5.49827e-06
-5.80338e-06
7.67959e-06
-7.67271e-06
-4.76383e-06
-5.11768e-06
7.62646e-06
-7.53774e-06
-4.09867e-06
-4.43404e-06
7.39026e-06
-7.14959e-06
-3.42397e-06
-3.76653e-06
6.85017e-06
-6.5054e-06
-2.8248e-06
-3.10793e-06
6.13626e-06
-5.74482e-06
-2.37055e-06
-2.57498e-06
-2.15276e-06
-2.04077e-06
2.03957e-06
-4.52304e-06
-4.40722e-06
-2.00434e-06
1.91011e-06
-4.78571e-06
-4.67242e-06
-4.90239e-06
7.90045e-05
8.36698e-05
2.90996e-05
-2.50779e-06
2.43735e-06
-2.99945e-05
0.000511728
-2.74966e-05
-1.04207e-05
1.04453e-05
9.76021e-06
8.31838e-06
9.89645e-06
9.43914e-06
-1.01391e-05
1.09267e-05
-4.80289e-06
1.42018e-06
4.81324e-06
-7.59373e-05
-6.78827e-05
5.91936e-05
5.95496e-05
-1.2725e-05
8.85402e-06
5.19549e-06
9.54152e-06
-7.36933e-06
-0.00134423
0.00157806
-1.04971e-05
-0.00113764
-1.86195e-05
-1.70214e-06
1.80459e-06
-3.40744e-06
-2.89591e-05
1.72068e-06
-6.65714e-06
-3.75701e-06
-1.87642e-06
3.59658e-06
-3.52059e-06
-1.63332e-06
-1.46563e-06
-3.19917e-06
-1.55427e-06
-4.11613e-06
-5.82205e-06
6.47414e-06
1.38058e-06
-5.16604e-06
1.23364e-06
0.000343354
-4.0028e-05
1.64624e-05
-1.2234e-05
-1.885e-05
1.45725e-05
-1.21972e-05
1.58939e-05
1.26029e-05
-9.36576e-05
7.04575e-05
2.82346e-06
-2.51173e-06
0.00090363
-0.00140837
-1.76036e-05
0.000654709
-2.10123e-05
1.29841e-05
2.00539e-05
-1.32723e-05
1.33575e-05
-1.92109e-05
1.9034e-05
2.23806e-05
-1.35133e-05
1.10895e-05
1.01536e-05
6.65491e-06
-1.18429e-05
1.15227e-05
-1.05348e-05
1.22667e-05
1.00114e-05
8.20057e-06
1.79936e-05
-1.02355e-05
-0.00134429
0.00157798
-9.96041e-06
-0.00113778
-1.82194e-05
-2.75464e-05
2.72288e-05
-1.54542e-05
1.48235e-05
-0.000158524
2.33697e-05
0.000142495
-0.000192805
4.24562e-05
2.0554e-05
-1.08627e-05
-1.22444e-05
1.36143e-05
1.1183e-05
1.04595e-05
4.81734e-06
9.418e-06
2.9499e-06
-8.3959e-06
3.39342e-06
1.03456e-05
9.64439e-06
1.32578e-06
-8.6885e-06
1.955e-06
1.08393e-05
1.01431e-05
7.08256e-06
-1.06762e-05
1.33579e-05
-1.63469e-05
-1.13086e-05
1.71652e-05
9.53198e-06
0.000407176
-2.65426e-05
1.17032e-06
2.39657e-07
-6.78267e-07
-2.9324e-07
1.99569e-05
-5.64631e-06
-2.13666e-05
2.40405e-05
-1.498e-05
-2.21848e-05
1.27161e-05
9.37641e-06
1.02092e-05
-1.81858e-06
1.77727e-06
-3.84301e-06
-3.64103e-06
-1.68873e-06
1.5436e-06
-4.15693e-06
-4.02425e-06
-1.38464e-06
1.26106e-06
-4.32955e-06
-4.27763e-06
-1.20432e-06
1.20654e-06
-4.32818e-06
-4.3588e-06
4.83534e-06
-4.34361e-06
1.1874e-06
-5.08559e-06
7.1398e-06
2.33101e-06
-3.87671e-06
1.61857e-06
-7.55533e-06
8.16166e-06
1.69371e-06
1.87463e-06
-8.78166e-06
9.40982e-06
2.08021e-06
1.8898e-06
-1.00219e-05
1.06373e-05
2.79853e-06
2.42382e-06
-1.127e-05
1.18631e-05
3.66606e-06
3.21293e-06
-1.24544e-05
1.30441e-05
4.66211e-06
4.12491e-06
-1.36321e-05
1.42916e-05
6.11854e-06
5.29337e-06
-1.49103e-05
1.53815e-05
8.37016e-06
7.0666e-06
-1.59505e-05
1.77925e-05
1.16374e-05
1.00801e-05
1.33368e-05
1.51849e-05
1.96868e-05
-1.82507e-05
1.31519e-05
-1.42409e-05
1.31073e-05
1.71586e-05
-1.60251e-05
1.04884e-05
1.19515e-05
1.50804e-05
-1.43155e-05
7.80107e-06
9.06473e-06
1.36406e-05
-1.28146e-05
5.67e-06
6.66039e-06
1.19852e-05
-1.113e-05
4.09355e-06
4.89791e-06
1.04057e-05
-9.73129e-06
2.80933e-06
3.34179e-06
9.0797e-06
-8.41477e-06
2.14241e-06
2.35935e-06
7.77923e-06
-7.12746e-06
1.76052e-06
1.95151e-06
1.55389e-06
-0.0018375
0.00211354
8.18648e-06
-1.16193e-06
-0.00238955
0.00264268
2.54455e-05
1.72341e-05
-0.00285244
0.00300051
3.44932e-05
3.12539e-05
-0.0030461
0.00308427
3.02701e-05
3.38967e-05
-0.00308021
0.00280653
5.05669e-06
2.25459e-05
-1.04244e-05
2.36963e-07
-7.85211e-06
-0.000947196
7.36343e-06
-1.57047e-05
-0.000950421
-0.000947148
4.29368e-06
1.09544e-05
1.61589e-05
-0.000955628
-2.52817e-05
-0.000950318
0.000210447
-0.000261873
9.83738e-07
1.35868e-05
3.92801e-05
-5.52244e-05
0.000368222
-0.000443431
-2.75368e-05
-3.53765e-05
0.000536012
-0.000677336
5.14894e-06
-2.38162e-06
0.000925392
-0.00142625
2.05556e-05
1.45798e-05
0.00282019
-0.00308252
4.50586e-05
3.50511e-05
0.00308518
-0.00304331
4.8658e-05
4.92047e-05
0.00299738
-0.00285124
3.94264e-05
4.13289e-05
0.00264142
-0.00238864
2.68457e-05
3.29746e-05
0.00211296
-0.00183713
8.86729e-06
1.7977e-05
-5.69348e-07
-3.73781e-06
3.86476e-06
-1.54255e-06
3.40111e-06
-2.9996e-06
-1.33405e-06
-1.44519e-06
-4.39573e-06
5.09042e-06
-1.24763e-06
-1.3257e-06
1.26212e-06
-5.48329e-06
5.79278e-06
-1.75786e-06
-1.48012e-06
-6.06679e-06
6.30377e-06
-2.23148e-06
-2.00882e-06
-6.5504e-06
6.74675e-06
-2.66807e-06
-2.45087e-06
-6.92049e-06
7.04764e-06
-3.13809e-06
-2.88272e-06
-7.16967e-06
7.25713e-06
-3.6284e-06
-3.33496e-06
-7.26592e-06
7.15821e-06
-4.37896e-06
-3.96104e-06
-6.95903e-06
6.7124e-06
-5.11101e-06
-4.71809e-06
-6.44749e-06
6.04064e-06
-5.92078e-06
-5.44155e-06
-5.46636e-06
4.74707e-06
-6.72645e-06
-6.31231e-06
-4.0829e-06
3.46346e-06
-7.10239e-06
-6.92125e-06
-8.68636e-06
2.21202e-06
9.79298e-06
-2.78875e-06
2.0641e-06
-7.51729e-06
-7.26659e-06
1.2832e-06
8.93236e-06
-7.71261e-06
4.72124e-07
9.07697e-06
-7.81324e-06
-8.94117e-06
5.07515e-07
1.01695e-05
3.56189e-07
-1.08425e-06
-7.75114e-06
9.11611e-06
-7.8223e-06
1.71988e-06
-2.41567e-06
-7.50982e-06
-7.61483e-06
3.24163e-06
-3.83036e-06
-7.22343e-06
-7.42257e-06
4.55082e-06
-5.48587e-06
-6.90674e-06
-7.04605e-06
6.06475e-06
-6.44823e-06
-6.0469e-06
-6.47099e-06
6.71292e-06
-6.93144e-06
-5.39491e-06
-5.6918e-06
7.11661e-06
-7.25159e-06
-4.86105e-06
-5.12989e-06
7.31776e-06
-7.32877e-06
-4.21579e-06
-4.53423e-06
7.29178e-06
-7.20064e-06
-3.62242e-06
-3.91738e-06
7.05421e-06
-6.83837e-06
-3.04903e-06
-3.33269e-06
6.57604e-06
-6.27111e-06
-2.54995e-06
-2.78661e-06
5.93274e-06
-5.5702e-06
-2.14415e-06
-2.32954e-06
5.18718e-06
-4.78302e-06
-1.7266e-06
-1.95242e-06
4.38695e-06
-4.16035e-06
-1.10855e-06
-1.54455e-06
-1.77386e-06
1.75868e-06
-3.47998e-06
-2.03483e-06
-1.81894e-06
1.87247e-06
-3.74681e-06
-3.63164e-06
-1.89647e-06
1.89756e-06
-3.98341e-06
-3.87161e-06
-1.84546e-06
1.75599e-06
-4.20087e-06
-4.10039e-06
-1.62877e-06
1.47708e-06
-4.3737e-06
-4.29238e-06
-1.31069e-06
-4.48639e-06
1.12471e-06
-4.43911e-06
6.71574e-05
-7.79856e-05
-5.04175e-05
0.000255996
-6.19689e-06
-1.04069e-05
-2.4375e-05
2.68575e-05
1.05981e-05
0.000507649
-2.30958e-05
1.08715e-05
3.68008e-05
-1.49178e-05
1.78354e-05
-1.55572e-05
1.99578e-05
-4.1631e-06
-2.0342e-06
-2.32475e-05
-1.98456e-05
-1.00365e-05
2.55085e-05
-1.79643e-05
-1.26334e-05
1.06431e-05
1.08982e-05
7.8265e-06
-1.15882e-05
1.0215e-05
-4.22963e-07
1.04499e-05
1.35458e-06
1.01553e-05
-1.07509e-05
1.10128e-05
1.05678e-05
9.07539e-06
1.65065e-05
-1.10098e-05
-2.17781e-05
1.18489e-05
-1.56922e-05
7.57475e-06
1.1681e-07
-2.99299e-07
1.9459e-06
-1.83264e-05
1.70407e-05
-1.62793e-05
1.72278e-05
-1.88824e-05
1.75326e-05
2.02162e-05
-1.94657e-05
1.26371e-05
-2.48728e-05
-0.000955847
-0.00014531
0.000132931
8.75593e-06
-0.000190391
5.67839e-05
-1.21849e-06
1.39736e-06
-2.63055e-06
2.91552e-06
-1.12913e-06
-2.46953e-06
3.26927e-06
-1.16201e-06
7.35004e-05
1.96403e-05
-1.28569e-05
-1.26038e-05
1.16536e-05
1.12863e-05
6.09288e-06
2.5833e-06
1.0924e-05
8.43499e-07
1.16681e-05
1.09109e-05
7.74593e-06
-1.12171e-05
1.25107e-05
1.7996e-05
-8.67673e-06
-2.00345e-05
1.14734e-06
-1.23522e-06
-3.74269e-06
1.03639e-06
-3.74454e-06
0.000327552
-3.87288e-05
-8.201e-06
2.91601e-05
1.39703e-05
-2.87287e-05
-1.52813e-06
-2.34902e-07
8.8554e-05
7.17223e-05
-5.31496e-05
6.15778e-06
1.08326e-05
-1.88115e-05
-1.28705e-05
2.13941e-05
-0.000176869
-1.01113e-05
3.38025e-05
0.000149168
1.92435e-05
-1.05421e-05
0.000201273
8.38972e-05
1.76454e-05
-1.33072e-05
8.88254e-06
1.12843e-05
4.16034e-06
3.23578e-06
1.22419e-05
-1.07663e-05
1.46859e-05
8.98123e-06
1.05206e-06
-1.22317e-06
-3.80857e-06
-4.53119e-06
5.22585e-06
9.25952e-07
8.61035e-07
-3.83374e-06
-3.02698e-05
2.04326e-05
-0.000793405
-0.000961985
0.00114588
-3.39096e-05
-3.86789e-05
-0.000798051
0.000405395
-2.50882e-05
1.65183e-06
-2.92645e-06
1.6796e-05
-5.21317e-06
-1.59134e-05
1.10351e-05
1.55733e-05
-1.17032e-05
-1.5226e-05
5.92595e-06
-8.59299e-06
8.30128e-06
-9.44561e-06
-7.90757e-06
8.86481e-06
1.03844e-05
1.00538e-05
-8.91187e-06
1.80851e-05
7.0366e-06
-1.53941e-06
1.65504e-06
-2.96065e-06
-2.78003e-06
-1.69879e-06
1.69168e-06
-3.28905e-06
-3.12595e-06
-1.64272e-06
1.55327e-06
-3.54397e-06
-3.43846e-06
-1.44698e-06
1.33607e-06
-3.71224e-06
-3.66044e-06
-3.75487e-06
4.99192e-06
-4.40774e-06
1.071e-06
-5.74214e-06
6.91359e-06
1.6598e-06
1.34101e-06
-7.71078e-06
8.30224e-06
1.59145e-06
1.59135e-06
-9.00231e-06
9.64863e-06
1.86007e-06
1.64423e-06
-1.03212e-05
1.09896e-05
2.43962e-06
2.12563e-06
-1.16501e-05
1.23384e-05
3.12078e-06
2.78417e-06
-1.29555e-05
1.36193e-05
4.00179e-06
3.56122e-06
-1.43613e-05
1.51973e-05
5.3815e-06
4.57165e-06
-1.60863e-05
1.69569e-05
7.58666e-06
6.31302e-06
-1.79679e-05
1.94289e-05
1.04202e-05
9.16994e-06
1.14556e-05
-1.80268e-05
1.97453e-05
1.26373e-05
-1.47572e-05
1.45075e-05
1.83082e-05
-1.71262e-05
9.33744e-06
1.09436e-05
1.61241e-05
-1.5253e-05
6.82536e-06
7.96847e-06
1.44682e-05
-1.3592e-05
5.13101e-06
5.93381e-06
1.27048e-05
-1.17889e-05
3.85762e-06
4.59345e-06
1.08833e-05
-1.01317e-05
2.6485e-06
3.10007e-06
9.40312e-06
-8.68951e-06
1.93241e-06
2.16302e-06
7.97025e-06
-7.27585e-06
1.51985e-06
1.71272e-06
6.59691e-06
-5.91667e-06
1.16289e-06
1.32078e-06
1.02425e-06
-0.00135456
0.00159006
-1.86396e-05
-2.72175e-05
-0.00184995
0.00212482
3.33721e-06
-8.36891e-06
-0.00239863
0.00264849
2.66643e-05
1.5695e-05
-0.00285475
0.00299731
4.36604e-05
3.62198e-05
-0.00304249
0.00307824
4.26302e-05
4.41918e-05
-0.00307212
0.00279854
2.38918e-05
3.5722e-05
-0.001414
0.000909315
-9.14651e-06
3.03698e-07
-0.00065766
0.000510082
-1.7671e-05
-1.52508e-05
-1.99726e-05
9.8393e-06
-0.000789389
-0.000962123
0.00114602
-3.35927e-05
2.99557e-05
-3.83855e-05
-0.00079823
-0.000793564
2.14593e-07
-1.03545e-05
-0.000786699
-0.000786722
-0.0007893
0.000222592
-0.000272176
5.02556e-06
3.3458e-05
0.000352995
-0.000440883
-1.47185e-05
-1.15131e-05
0.00054101
-0.000683698
3.6727e-06
-3.0649e-06
0.000932697
-0.00143408
1.93196e-05
1.22768e-05
0.00281346
-0.00307742
5.51643e-05
3.74537e-05
0.00307734
-0.00303924
5.89547e-05
5.61463e-05
0.0029952
-0.00285186
4.82152e-05
5.31008e-05
0.00264741
-0.00239784
2.84707e-05
3.97199e-05
0.0021244
-0.00184973
4.00062e-06
1.64983e-05
0.00159008
-0.00135466
-1.82179e-05
-7.83759e-06
-2.69062e-05
-3.60125e-06
3.85071e-06
-1.3008e-06
-1.26787e-06
-4.26533e-06
4.76443e-06
-1.23909e-06
-1.25072e-06
-5.18284e-06
5.52201e-06
-1.55688e-06
-1.3659e-06
-5.81375e-06
6.07889e-06
-1.96642e-06
-1.75766e-06
-6.30332e-06
6.48535e-06
-2.33956e-06
-2.14874e-06
-6.64686e-06
6.73314e-06
-2.71012e-06
-2.53649e-06
-6.84119e-06
6.95786e-06
-3.20128e-06
-2.91157e-06
-6.97123e-06
6.88056e-06
-3.75817e-06
-3.43747e-06
-6.70136e-06
6.44475e-06
-4.36562e-06
-4.02736e-06
-6.1815e-06
5.77054e-06
-5.03308e-06
-4.69744e-06
-5.26854e-06
4.64457e-06
-5.67113e-06
-5.36564e-06
-4.00889e-06
3.37554e-06
-6.01709e-06
-5.85531e-06
-2.71786e-06
2.02221e-06
-6.34035e-06
-6.13815e-06
-1.27176e-06
5.1452e-07
-6.5677e-06
-6.47571e-06
2.38393e-07
-9.59121e-07
-6.54379e-06
-6.58077e-06
1.65153e-06
-2.35305e-06
-6.34688e-06
-6.44977e-06
3.06267e-06
-3.70902e-06
-6.10541e-06
-6.24525e-06
4.37247e-06
-5.07769e-06
-5.76505e-06
-5.92853e-06
5.61167e-06
-6.00481e-06
-5.20259e-06
-5.50161e-06
6.30735e-06
-6.54701e-06
-4.65153e-06
-4.91655e-06
6.73516e-06
-6.89181e-06
-4.1723e-06
-4.41667e-06
6.98324e-06
-7.00937e-06
-3.63558e-06
-3.90109e-06
6.98195e-06
-6.89839e-06
-3.12911e-06
-3.37849e-06
6.76211e-06
-6.57242e-06
-2.65423e-06
-2.88449e-06
6.33955e-06
-6.06186e-06
-2.24519e-06
-2.44135e-06
5.75042e-06
-5.41674e-06
-1.90011e-06
-2.05795e-06
5.06935e-06
-4.70225e-06
-1.52431e-06
-1.72999e-06
4.37176e-06
-8.10491e-07
-4.07352e-06
-1.29075e-06
-1.69859e-06
1.74363e-06
-3.21214e-06
-3.08249e-06
-1.76562e-06
1.75868e-06
-3.42327e-06
-3.32424e-06
-1.71562e-06
1.63271e-06
-3.60172e-06
-3.52267e-06
-1.52406e-06
1.38454e-06
-3.72905e-06
-3.676e-06
-3.77263e-06
2.72415e-06
-2.17889e-05
8.79561e-06
5.48313e-06
-1.22031e-05
3.70928e-05
-8.10823e-05
-4.90362e-05
6.70987e-05
2.71797e-06
-2.32115e-06
-9.97248e-07
-1.73811e-05
-1.42619e-05
1.80453e-05
-1.42088e-05
-1.35108e-05
-1.91532e-05
-1.2531e-05
1.00844e-05
1.21301e-05
7.20993e-06
1.65768e-06
1.14112e-05
-4.96506e-07
1.21685e-05
1.13789e-05
8.80042e-06
-1.15584e-05
1.11893e-05
1.70451e-05
-1.0673e-05
5.5854e-06
-9.09811e-06
-3.77631e-06
8.83714e-07
-2.34901e-05
1.12571e-05
-2.82781e-05
-1.3389e-05
3.00846e-05
9.5376e-05
5.54954e-05
-0.000109629
-2.09578e-05
1.83064e-05
0.000249035
-3.6948e-05
3.11407e-06
-1.03628e-06
2.93631e-05
-9.93151e-06
2.29903e-05
-2.31564e-05
-9.12391e-06
9.1036e-06
-0.000967652
0.00115371
-4.11631e-05
-0.00080224
-4.50011e-05
6.79786e-05
6.38938e-05
-0.000195016
0.000119747
5.69926e-06
1.17622e-05
7.78857e-05
6.5453e-05
-1.68264e-05
-1.45179e-05
1.88554e-05
-1.28979e-05
0.000193456
3.62451e-05
-4.95108e-05
-1.38347e-05
1.17933e-05
1.23221e-05
5.31023e-06
3.3529e-06
1.20252e-05
1.23052e-06
1.40551e-05
1.1733e-05
7.14936e-06
-1.17923e-05
1.308e-05
1.62478e-05
-1.09085e-05
-1.16825e-06
1.31776e-06
-2.21504e-06
-1.0476e-06
-2.04927e-06
-4.58667e-06
5.30128e-06
7.01287e-07
-3.87049e-06
6.45052e-07
1.00846e-06
-1.17377e-06
-3.13228e-06
8.30928e-07
-3.14932e-06
-0.000967408
0.0011534
-4.13665e-05
-0.000802026
-4.5258e-05
-3.40776e-05
2.37552e-05
-0.000642511
-4.25754e-05
-0.000645761
2.45794e-05
-1.00011e-06
0.000316426
-2.83034e-05
-1.42187e-06
1.51107e-06
-2.41806e-06
-1.27353e-06
-2.27595e-06
0.000402815
-1.7775e-05
-2.65662e-07
1.62847e-06
-1.05617e-06
1.72962e-05
-1.1459e-05
-1.70192e-07
1.86532e-06
-1.10181e-06
-1.47485e-05
-9.69617e-06
8.59041e-06
1.18947e-05
9.89869e-06
-1.0638e-05
1.81096e-05
-1.44506e-06
1.54528e-06
-2.4931e-06
-2.33308e-06
-1.59175e-06
1.60492e-06
-2.75721e-06
-2.61561e-06
-1.57349e-06
1.5233e-06
-2.96214e-06
-2.86762e-06
-1.42991e-06
1.34039e-06
-3.10257e-06
-3.04625e-06
-1.2317e-06
1.11282e-06
-3.11124e-06
-3.12382e-06
-9.90728e-07
8.45438e-07
-3.14069e-06
-3.11951e-06
3.83219e-06
-3.16308e-06
6.62901e-07
-4.48719e-06
5.18625e-06
8.40564e-07
7.07264e-07
-5.97975e-06
6.90201e-06
1.22229e-06
1.01626e-06
-7.71786e-06
8.50275e-06
1.27842e-06
1.26467e-06
-9.2158e-06
9.91465e-06
1.55397e-06
1.36324e-06
-1.05882e-05
1.12775e-05
2.02082e-06
1.79209e-06
-1.20047e-05
1.26827e-05
2.53368e-06
2.24887e-06
-1.33841e-05
1.4166e-05
3.24618e-06
2.87335e-06
-1.50642e-05
1.61268e-05
4.53849e-06
3.78951e-06
-1.72371e-05
1.83382e-05
6.6863e-06
5.44803e-06
-1.97935e-05
2.14947e-05
9.23356e-06
8.02826e-06
1.00237e-05
1.45625e-05
-1.16158e-05
-3.15133e-05
2.14572e-05
-2.10317e-05
1.2312e-05
1.47217e-05
1.97059e-05
-1.83088e-05
7.85511e-06
9.74667e-06
1.70505e-05
-1.60056e-05
5.31698e-06
6.39809e-06
1.50688e-05
-1.42869e-05
4.04103e-06
4.52437e-06
1.33555e-05
-1.24122e-05
3.18744e-06
3.64978e-06
1.14258e-05
-1.0574e-05
2.33086e-06
2.58275e-06
9.73726e-06
-8.96491e-06
1.67877e-06
1.86983e-06
8.17473e-06
-7.42477e-06
1.21587e-06
1.40158e-06
6.7238e-06
-6.00632e-06
9.1149e-07
1.06025e-06
8.01326e-07
-0.00136415
0.0016012
-2.74613e-05
-3.54335e-05
-0.00186188
0.00213727
-3.59412e-06
-1.68399e-05
-0.00241057
0.00265855
2.47775e-05
1.0514e-05
-0.00286282
0.00299825
4.96736e-05
3.7889e-05
-0.0030408
0.00307445
5.40775e-05
5.42456e-05
-0.00306304
0.00278959
4.17951e-05
5.07987e-05
-0.00141308
0.000913539
-3.03189e-06
1.83937e-05
-0.000659853
0.000512796
-1.22168e-05
-6.62771e-06
-2.33606e-05
1.1798e-05
-0.000639507
3.37631e-05
-4.22969e-05
-0.000645932
-0.000642592
2.24354e-07