/*--------------------------------*- C++ -*----------------------------------*\
| =========                 |                                                 |
| \\      /  F ield         | OpenFOAM: The Open Source CFD Toolbox           |
|  \\    /   O peration     | Version:  2212                                  |
|   \\  /    A nd           | Website:  www.openfoam.com                      |
|    \\/     M anipulation  |                                                 |
\*---------------------------------------------------------------------------*/
FoamFile
{
    version     2.0;
    format      ascii;
    arch        "LSB;label=32;scalar=64";
    class       volVectorField;
    location    "0.000393";
    object      U;
}
// * * * * * * * * * * * * * * * * * * * * * * * * * * * * * * * * * * * * * //

dimensions      [0 1 -1 0 0 0 0];

internalField   nonuniform List<vector> 
56928
(
(3.20521e-11 -0.15705 7.66691)
(3.90278e-11 -0.203155 8.02083)
(5.18553e-11 -0.207251 8.03496)
(1.88646e-12 -0.222476 8.03895)
(-3.5873e-11 -0.217406 8.03916)
(-2.60191e-11 -0.220316 8.04169)
(1.45477e-11 -0.214605 8.04171)
(2.47835e-11 -0.212199 8.04341)
(5.75647e-11 -0.20645 8.04363)
(3.39616e-11 -0.202245 8.04469)
(-2.99836e-11 -0.196942 8.04501)
(-3.31703e-11 -0.192161 8.04557)
(-7.94481e-11 -0.18695 8.04587)
(-1.12444e-10 -0.18195 8.04618)
(-1.23184e-10 -0.176712 8.04637)
(-6.01025e-11 -0.171499 8.04651)
(1.0141e-10 -0.166043 8.04658)
(1.93817e-10 -0.160226 8.0466)
(1.19543e-10 -0.154187 8.04651)
(1.15811e-10 -0.148279 8.04636)
(5.11247e-11 -0.142378 8.04616)
(8.05841e-12 -0.136538 8.04593)
(-5.7985e-11 -0.13066 8.04566)
(6.18102e-11 -0.124791 8.04536)
(1.24923e-10 -0.118913 8.04498)
(6.87441e-11 -0.113103 8.04457)
(1.57385e-11 -0.107433 8.04417)
(-6.87725e-11 -0.102332 8.04379)
(1.85743e-12 -0.0979128 8.04342)
(-1.20366e-10 -0.0937028 8.04307)
(-1.70625e-10 -0.0895713 8.04272)
(-1.03454e-10 -0.0854878 8.04234)
(-6.34854e-11 -0.081112 8.04195)
(-8.17583e-11 -0.0762535 8.04157)
(-2.23746e-10 -0.0709083 8.04126)
(-2.92938e-10 -0.0653216 8.04099)
(-2.5832e-10 -0.0598642 8.04077)
(5.64443e-12 -0.0544669 8.04056)
(-1.59982e-10 -0.049004 8.0405)
(-1.12954e-11 -0.0432353 8.04054)
(2.36075e-10 -0.0375596 8.04044)
(1.30476e-10 -0.0320788 8.04037)
(1.7243e-10 -0.0270667 8.04025)
(5.32507e-10 -0.0217707 8.04021)
(1.6187e-09 -0.0169233 8.04014)
(1.75568e-09 -0.0119644 8.04009)
(1.45121e-09 -0.00739013 8.04026)
(3.06758e-11 -0.186 7.27461)
(3.83688e-11 -0.233886 7.98683)
(5.10576e-11 -0.218691 8.0276)
(2.22247e-12 -0.227996 8.03865)
(-3.46942e-11 -0.220122 8.0425)
(-2.51161e-11 -0.222035 8.04628)
(1.0426e-11 -0.215395 8.04776)
(2.57901e-11 -0.212852 8.04987)
(5.35514e-11 -0.206864 8.05078)
(3.11219e-11 -0.202564 8.05191)
(-2.75246e-11 -0.19718 8.05258)
(-3.00842e-11 -0.192356 8.05319)
(-7.94041e-11 -0.187119 8.05359)
(-1.12584e-10 -0.182095 8.0539)
(-1.20718e-10 -0.176847 8.05411)
(-6.37856e-11 -0.171623 8.05423)
(1.00236e-10 -0.166148 8.05429)
(1.95737e-10 -0.160335 8.05427)
(1.21115e-10 -0.154292 8.05417)
(1.16608e-10 -0.148369 8.054)
(5.07194e-11 -0.142479 8.05375)
(5.92692e-12 -0.136655 8.05347)
(-5.5623e-11 -0.130761 8.05313)
(6.70991e-11 -0.124866 8.05276)
(1.27506e-10 -0.118951 8.05233)
(7.16748e-11 -0.11314 8.05188)
(1.12346e-11 -0.107526 8.05146)
(-7.00322e-11 -0.102432 8.0511)
(-1.09222e-11 -0.0979121 8.05078)
(-1.30227e-10 -0.0936488 8.05048)
(-1.65208e-10 -0.0895298 8.05018)
(-9.86459e-11 -0.0854543 8.04986)
(-5.70188e-11 -0.0810767 8.04952)
(-7.58382e-11 -0.0762195 8.04911)
(-2.15951e-10 -0.0708983 8.04873)
(-2.86099e-10 -0.0653814 8.0484)
(-2.61885e-10 -0.0599503 8.04813)
(9.87778e-12 -0.0545615 8.04787)
(-1.58297e-10 -0.0491651 8.04768)
(-2.584e-11 -0.0433842 8.04755)
(2.2531e-10 -0.0376469 8.04745)
(1.20202e-10 -0.0321174 8.04736)
(1.53493e-10 -0.0270644 8.04724)
(5.27775e-10 -0.0217993 8.04717)
(1.57787e-09 -0.016936 8.04709)
(1.75539e-09 -0.0120452 8.04707)
(1.42439e-09 -0.00739502 8.04719)
(2.9311e-11 -0.202605 6.90571)
(3.60583e-11 -0.263659 7.95633)
(4.86931e-11 -0.237995 8.03441)
(-7.46321e-13 -0.238952 8.04632)
(-3.47109e-11 -0.226265 8.05304)
(-2.82336e-11 -0.225198 8.05827)
(1.72681e-11 -0.217529 8.06255)
(2.2973e-11 -0.214277 8.0651)
(5.84101e-11 -0.207882 8.06723)
(4.05625e-11 -0.203316 8.06848)
(-2.73848e-11 -0.197791 8.06962)
(-3.29361e-11 -0.192773 8.0703)
(-7.34501e-11 -0.187431 8.07086)
(-1.09552e-10 -0.182321 8.07121)
(-1.24291e-10 -0.177027 8.07144)
(-5.93592e-11 -0.171769 8.07155)
(9.75752e-11 -0.166268 8.07157)
(1.84328e-10 -0.160454 8.07148)
(1.1815e-10 -0.154412 8.07132)
(1.07036e-10 -0.148464 8.07106)
(5.12112e-11 -0.142534 8.07072)
(1.70693e-11 -0.136645 8.07029)
(-5.77201e-11 -0.130727 8.06981)
(4.98323e-11 -0.124822 8.06929)
(1.12981e-10 -0.118912 8.06877)
(6.9831e-11 -0.113121 8.06829)
(2.94204e-11 -0.107522 8.06786)
(-5.10853e-11 -0.102446 8.06748)
(1.55996e-11 -0.0979252 8.06716)
(-1.09223e-10 -0.0936275 8.06685)
(-1.63984e-10 -0.0894835 8.06654)
(-9.80528e-11 -0.0853721 8.06622)
(-7.13958e-11 -0.0809414 8.06583)
(-9.52792e-11 -0.0760746 8.06542)
(-2.32878e-10 -0.0708102 8.06495)
(-2.97088e-10 -0.0653413 8.06451)
(-2.30096e-10 -0.0599355 8.06412)
(-1.25642e-11 -0.0545741 8.0638)
(-1.52003e-10 -0.0491976 8.06345)
(9.21575e-12 -0.0434751 8.06313)
(2.13995e-10 -0.0377689 8.06293)
(1.14053e-10 -0.0321989 8.06276)
(1.86726e-10 -0.0271134 8.06261)
(5.47079e-10 -0.021821 8.06248)
(1.62593e-09 -0.0169736 8.06238)
(1.75158e-09 -0.0121639 8.06238)
(1.38578e-09 -0.00742278 8.06233)
(2.78785e-11 -0.200037 6.50668)
(3.56628e-11 -0.265486 7.92816)
(4.9438e-11 -0.251527 8.05242)
(5.56891e-12 -0.25186 8.06324)
(-3.3695e-11 -0.235022 8.06981)
(-2.64257e-11 -0.232189 8.07405)
(1.16293e-11 -0.222564 8.07774)
(2.63766e-11 -0.217631 8.08039)
(4.94664e-11 -0.210557 8.08286)
(2.90959e-11 -0.205111 8.08423)
(-2.4686e-11 -0.199247 8.08547)
(-3.0304e-11 -0.19377 8.08621)
(-7.66743e-11 -0.188197 8.08678)
(-1.03911e-10 -0.182834 8.08711)
(-1.13323e-10 -0.177397 8.0873)
(-6.34121e-11 -0.172004 8.08737)
(9.43405e-11 -0.166413 8.08731)
(1.89077e-10 -0.160525 8.08715)
(1.21112e-10 -0.154389 8.08686)
(1.13115e-10 -0.148369 8.08645)
(4.72415e-11 -0.142382 8.08594)
(1.43795e-13 -0.136487 8.08534)
(-4.97727e-11 -0.130559 8.08473)
(7.07831e-11 -0.124647 8.08411)
(1.29307e-10 -0.118775 8.08349)
(7.04124e-11 -0.113018 8.08292)
(1.52505e-11 -0.107447 8.08241)
(-6.45656e-11 -0.102397 8.08195)
(-1.80483e-11 -0.0978947 8.08155)
(-1.16896e-10 -0.0935841 8.08117)
(-1.54803e-10 -0.0894063 8.08081)
(-1.01745e-10 -0.0852472 8.08046)
(-6.54626e-11 -0.0807726 8.08006)
(-7.64937e-11 -0.0758477 8.07962)
(-2.15135e-10 -0.0705334 8.07909)
(-2.83734e-10 -0.0650699 8.07852)
(-2.55714e-10 -0.0597122 8.07799)
(-5.64045e-12 -0.0543399 8.07751)
(-1.44329e-10 -0.0488732 8.07697)
(-9.21802e-12 -0.0431812 8.07644)
(2.09014e-10 -0.0375822 8.07603)
(1.05687e-10 -0.0320437 8.07572)
(1.83209e-10 -0.0269629 8.07544)
(5.07984e-10 -0.0216642 8.07526)
(1.47082e-09 -0.0168598 8.075)
(1.72164e-09 -0.0119729 8.07498)
(1.45753e-09 -0.00743152 8.07459)
(2.6558e-11 -0.190175 6.11467)
(3.64163e-11 -0.261248 7.88131)
(4.67156e-11 -0.256055 8.07086)
(4.16097e-13 -0.256963 8.08281)
(-3.16157e-11 -0.243199 8.085)
(-2.81378e-11 -0.239452 8.08902)
(1.56389e-11 -0.22773 8.09224)
(1.95043e-11 -0.221526 8.09462)
(5.56042e-11 -0.213312 8.09632)
(3.22342e-11 -0.207002 8.09737)
(-3.34205e-11 -0.200619 8.09817)
(-3.64087e-11 -0.194669 8.09864)
(-8.30828e-11 -0.18882 8.09892)
(-1.1184e-10 -0.183218 8.09901)
(-1.22421e-10 -0.177633 8.09898)
(-5.53252e-11 -0.172139 8.09886)
(8.28178e-11 -0.166449 8.09867)
(1.74073e-10 -0.160444 8.09835)
(1.12092e-10 -0.15421 8.09795)
(1.08346e-10 -0.148098 8.09746)
(4.60103e-11 -0.142007 8.09685)
(1.44514e-11 -0.136039 8.09614)
(-6.27055e-11 -0.130102 8.09541)
(3.4752e-11 -0.124236 8.09468)
(1.04903e-10 -0.118417 8.09397)
(7.05351e-11 -0.112715 8.09332)
(1.78139e-11 -0.107173 8.09271)
(-5.59062e-11 -0.102152 8.09215)
(-5.97612e-12 -0.0976712 8.09166)
(-1.05819e-10 -0.093379 8.09121)
(-1.55509e-10 -0.0892139 8.0908)
(-9.8199e-11 -0.0850407 8.0904)
(-6.83061e-11 -0.0805327 8.08996)
(-9.2636e-11 -0.0755411 8.08947)
(-2.13995e-10 -0.0701458 8.08889)
(-3.00291e-10 -0.0646694 8.08824)
(-2.34321e-10 -0.0593292 8.08757)
(-1.34604e-11 -0.053898 8.08689)
(-1.71477e-10 -0.0484089 8.0862)
(-3.96836e-12 -0.0427444 8.08554)
(2.10918e-10 -0.0371843 8.08494)
(1.36134e-10 -0.031716 8.08449)
(1.84106e-10 -0.0267027 8.08403)
(5.02288e-10 -0.0214215 8.08377)
(1.51155e-09 -0.0166326 8.08332)
(1.64152e-09 -0.011636 8.08335)
(1.24847e-09 -0.00740844 8.08267)
(2.38054e-11 -0.182157 5.74226)
(3.42882e-11 -0.258944 7.81882)
(4.6003e-11 -0.259781 8.07841)
(5.3241e-12 -0.258823 8.09701)
(-2.97385e-11 -0.245593 8.10043)
(-2.93136e-11 -0.241344 8.10372)
(1.00022e-11 -0.229369 8.10528)
(2.57255e-11 -0.222854 8.10673)
(5.16471e-11 -0.214354 8.10761)
(3.96339e-11 -0.207759 8.10819)
(-1.6834e-11 -0.201175 8.10854)
(-2.42389e-11 -0.195036 8.10868)
(-6.43608e-11 -0.189018 8.10863)
(-1.07179e-10 -0.183303 8.10846)
(-1.07713e-10 -0.177638 8.10821)
(-6.12447e-11 -0.172109 8.10785)
(9.63343e-11 -0.166385 8.10742)
(1.8879e-10 -0.160366 8.10687)
(1.25553e-10 -0.154089 8.10627)
(1.12875e-10 -0.147868 8.10564)
(5.16256e-11 -0.141648 8.1049)
(1.3602e-12 -0.135592 8.10409)
(-4.1314e-11 -0.12963 8.10325)
(6.46496e-11 -0.123766 8.10242)
(1.27586e-10 -0.118016 8.10163)
(7.34851e-11 -0.112382 8.10088)
(1.72411e-11 -0.106852 8.10017)
(-7.29504e-11 -0.101826 8.09952)
(-2.70983e-11 -0.0973743 8.09894)
(-1.26604e-10 -0.0931328 8.09842)
(-1.69711e-10 -0.0890198 8.09791)
(-1.09382e-10 -0.0848417 8.09742)
(-6.4321e-11 -0.080301 8.0969)
(-6.78809e-11 -0.0752613 8.09636)
(-1.96615e-10 -0.069762 8.09574)
(-2.71589e-10 -0.0641568 8.095)
(-2.34604e-10 -0.0587298 8.09419)
(7.03149e-13 -0.0533074 8.09337)
(-1.55212e-10 -0.0478486 8.09257)
(-7.07871e-12 -0.0422625 8.09179)
(1.95058e-10 -0.0368154 8.09106)
(1.10962e-10 -0.0313697 8.09049)
(1.54415e-10 -0.0264414 8.08993)
(5.37564e-10 -0.0210947 8.08958)
(1.48156e-09 -0.0164694 8.08901)
(1.6919e-09 -0.0113004 8.08908)
(1.53952e-09 -0.00742822 8.08831)
(2.2901e-11 -0.176225 5.37366)
(3.23317e-11 -0.259001 7.74484)
(4.53563e-11 -0.264415 8.08306)
(2.92803e-12 -0.26038 8.11406)
(-2.85377e-11 -0.246036 8.11573)
(-2.67958e-11 -0.242098 8.11679)
(9.88609e-12 -0.230668 8.11685)
(1.79906e-11 -0.224077 8.11756)
(5.34238e-11 -0.215227 8.11766)
(3.62278e-11 -0.208429 8.11785)
(-3.5248e-11 -0.201632 8.11779)
(-3.82113e-11 -0.195288 8.11758)
(-7.32492e-11 -0.189131 8.11721)
(-1.09716e-10 -0.18332 8.11676)
(-1.2175e-10 -0.17758 8.11626)
(-6.4457e-11 -0.171984 8.11566)
(7.74681e-11 -0.166203 8.11497)
(1.59695e-10 -0.160127 8.11416)
(1.0881e-10 -0.153875 8.11331)
(1.05954e-10 -0.14762 8.11246)
(4.42065e-11 -0.141292 8.11155)
(9.04548e-12 -0.135188 8.11062)
(-5.31998e-11 -0.129214 8.10969)
(3.91019e-11 -0.123361 8.1088)
(1.13512e-10 -0.11762 8.10794)
(7.83769e-11 -0.11198 8.10707)
(2.79959e-11 -0.106438 8.10624)
(-4.96695e-11 -0.101411 8.10551)
(-1.53591e-12 -0.0969797 8.10486)
(-9.61688e-11 -0.0927176 8.10426)
(-1.46571e-10 -0.0885833 8.10369)
(-8.3568e-11 -0.0844587 8.10313)
(-6.72278e-11 -0.0799746 8.10254)
(-8.08969e-11 -0.0749228 8.10193)
(-2.06716e-10 -0.0692626 8.10126)
(-3.03228e-10 -0.0634932 8.10046)
(-2.22007e-10 -0.0579786 8.09952)
(-2.63728e-11 -0.0525137 8.09864)
(-1.43548e-10 -0.047051 8.09779)
(5.24627e-12 -0.0414556 8.09696)
(1.92741e-10 -0.0360912 8.09614)
(1.1702e-10 -0.0307065 8.09547)
(1.56829e-10 -0.0258979 8.0948)
(5.35584e-10 -0.0205018 8.09438)
(1.53418e-09 -0.0160976 8.09374)
(1.66691e-09 -0.0108048 8.09372)
(1.28268e-09 -0.00724413 8.09301)
(2.16682e-11 -0.170542 4.99376)
(3.04196e-11 -0.259818 7.66181)
(4.37223e-11 -0.268929 8.08543)
(3.58564e-12 -0.263606 8.12876)
(-3.06486e-11 -0.249443 8.13148)
(-2.90296e-11 -0.243263 8.13151)
(9.67145e-12 -0.231233 8.13067)
(2.93525e-11 -0.224316 8.1306)
(5.15362e-11 -0.215117 8.12961)
(3.37725e-11 -0.208307 8.12913)
(-1.97553e-11 -0.201254 8.12832)
(-2.49367e-11 -0.194818 8.1275)
(-6.55858e-11 -0.188575 8.12661)
(-9.88065e-11 -0.182745 8.12569)
(-1.08465e-10 -0.176996 8.12475)
(-6.0371e-11 -0.171364 8.1238)
(8.37963e-11 -0.165513 8.12277)
(1.82361e-10 -0.159403 8.12166)
(1.1794e-10 -0.153149 8.12054)
(1.01522e-10 -0.14686 8.11941)
(4.76143e-11 -0.140507 8.11831)
(-7.99939e-13 -0.134392 8.11722)
(-4.09827e-11 -0.128465 8.11616)
(6.10429e-11 -0.122672 8.11515)
(1.22265e-10 -0.116898 8.11417)
(7.47047e-11 -0.111231 8.11315)
(1.8707e-11 -0.105727 8.11223)
(-5.48466e-11 -0.100729 8.1114)
(-1.80593e-11 -0.0962693 8.11069)
(-9.44321e-11 -0.0920163 8.11002)
(-1.38436e-10 -0.0879145 8.10939)
(-8.79384e-11 -0.0837691 8.10877)
(-5.3422e-11 -0.0792765 8.10808)
(-7.35436e-11 -0.0742489 8.10739)
(-2.02608e-10 -0.0685651 8.10664)
(-2.63016e-10 -0.0625943 8.10583)
(-2.3172e-10 -0.0570125 8.10481)
(-2.91611e-11 -0.0516729 8.10388)
(-1.45061e-10 -0.0462318 8.10302)
(-1.16935e-11 -0.0405741 8.10217)
(1.70104e-10 -0.0351945 8.10131)
(7.52291e-11 -0.0298325 8.10063)
(1.64975e-10 -0.0251143 8.09981)
(4.6811e-10 -0.0197594 8.09933)
(1.41037e-09 -0.0154585 8.09854)
(1.51248e-09 -0.0102352 8.09841)
(1.39851e-09 -0.0067668 8.09759)
(2.10811e-11 -0.16207 4.60263)
(3.13588e-11 -0.259519 7.57179)
(4.30338e-11 -0.268753 8.08385)
(4.77911e-12 -0.263483 8.14449)
(-2.33861e-11 -0.249166 8.14793)
(-2.90479e-11 -0.242812 8.14763)
(1.31041e-11 -0.230578 8.1455)
(2.20472e-11 -0.223056 8.1445)
(4.56578e-11 -0.213704 8.14257)
(3.69712e-11 -0.207141 8.14129)
(-2.0744e-11 -0.199864 8.13971)
(-2.66781e-11 -0.193434 8.13834)
(-7.19243e-11 -0.187151 8.13695)
(-1.00735e-10 -0.181322 8.13558)
(-1.16783e-10 -0.175607 8.13423)
(-5.12061e-11 -0.170015 8.13289)
(7.94691e-11 -0.164163 8.13152)
(1.68134e-10 -0.158058 8.13014)
(1.14012e-10 -0.15179 8.12874)
(1.01808e-10 -0.145512 8.12742)
(4.7201e-11 -0.139181 8.12615)
(5.30306e-12 -0.133086 8.12491)
(-5.6684e-11 -0.127188 8.1237)
(3.18577e-11 -0.121442 8.12253)
(9.40714e-11 -0.115683 8.12142)
(6.83563e-11 -0.110039 8.12027)
(2.89004e-11 -0.104617 8.11923)
(-5.52851e-11 -0.0996542 8.11834)
(-1.83389e-11 -0.0952277 8.11754)
(-1.00841e-10 -0.0909845 8.11681)
(-1.51348e-10 -0.0868925 8.11611)
(-1.07195e-10 -0.0827243 8.11543)
(-6.46917e-11 -0.0782685 8.11469)
(-8.09262e-11 -0.0733024 8.11395)
(-2.02963e-10 -0.0676257 8.11313)
(-2.9013e-10 -0.0615658 8.11226)
(-2.09488e-10 -0.0558959 8.11134)
(-2.82198e-11 -0.0506883 8.11044)
(-1.27647e-10 -0.0453725 8.10957)
(-4.90518e-12 -0.0397587 8.10877)
(1.98098e-10 -0.0344447 8.10794)
(1.31083e-10 -0.0290331 8.1073)
(2.46246e-10 -0.0243917 8.10649)
(4.94136e-10 -0.0190547 8.10607)
(1.3683e-09 -0.0149303 8.10525)
(1.54314e-09 -0.0097754 8.10524)
(1.21683e-09 -0.00645984 8.10419)
(1.86873e-11 -0.150648 4.23241)
(3.06313e-11 -0.255217 7.47795)
(4.23484e-11 -0.265576 8.07858)
(4.59027e-12 -0.259751 8.15985)
(-2.71452e-11 -0.247126 8.16336)
(-3.08691e-11 -0.240397 8.16199)
(3.74047e-12 -0.228131 8.15967)
(2.25751e-11 -0.220815 8.15762)
(5.22168e-11 -0.211439 8.15495)
(2.94633e-11 -0.205127 8.15276)
(-2.16629e-11 -0.197836 8.15035)
(-3.39889e-11 -0.191613 8.14843)
(-6.72595e-11 -0.185295 8.14659)
(-1.03295e-10 -0.179456 8.14485)
(-9.92479e-11 -0.173766 8.14317)
(-5.06597e-11 -0.168199 8.14153)
(8.55693e-11 -0.162404 8.13986)
(1.8023e-10 -0.156324 8.13826)
(1.16098e-10 -0.150071 8.13666)
(1.09619e-10 -0.143861 8.13519)
(5.6572e-11 -0.137546 8.13379)
(1.12705e-11 -0.131451 8.13243)
(-3.28136e-11 -0.125568 8.13107)
(4.63214e-11 -0.119891 8.12977)
(1.10012e-10 -0.114175 8.12854)
(6.83283e-11 -0.108549 8.12731)
(2.65671e-11 -0.103243 8.12622)
(-5.36237e-11 -0.0983874 8.1253)
(-3.21094e-11 -0.0939819 8.12448)
(-1.11671e-10 -0.0897517 8.12371)
(-1.46779e-10 -0.0856688 8.12299)
(-9.84212e-11 -0.0815168 8.12226)
(-7.30392e-11 -0.077101 8.12152)
(-7.29472e-11 -0.0721544 8.12073)
(-1.80827e-10 -0.0664375 8.11981)
(-2.6065e-10 -0.0604658 8.11889)
(-1.95362e-10 -0.0549035 8.11811)
(-3.043e-12 -0.0497194 8.11739)
(-1.40541e-10 -0.0445285 8.11667)
(-1.48954e-11 -0.0390069 8.11605)
(1.84782e-10 -0.0338136 8.11539)
(1.09996e-10 -0.0283899 8.11489)
(1.49842e-10 -0.0238326 8.11425)
(5.09699e-10 -0.0184436 8.11395)
(1.40891e-09 -0.0145224 8.11326)
(1.48825e-09 -0.00920133 8.11349)
(1.21091e-09 -0.00637996 8.11251)
(1.46969e-11 -0.141481 3.88049)
(2.91475e-11 -0.250133 7.37874)
(4.15881e-11 -0.261166 8.07047)
(4.02027e-12 -0.25667 8.17325)
(-2.62083e-11 -0.243418 8.17774)
(-3.14557e-11 -0.235226 8.17618)
(4.70451e-12 -0.22355 8.17372)
(1.53868e-11 -0.216433 8.17037)
(5.03401e-11 -0.207416 8.16728)
(3.85145e-11 -0.201293 8.16412)
(-2.46798e-11 -0.194414 8.16107)
(-3.65441e-11 -0.188833 8.15838)
(-6.85795e-11 -0.182766 8.15593)
(-1.00623e-10 -0.177121 8.15374)
(-1.15979e-10 -0.171573 8.15168)
(-5.53535e-11 -0.166125 8.14971)
(7.51173e-11 -0.160468 8.14779)
(1.50071e-10 -0.154517 8.14596)
(1.08074e-10 -0.148356 8.14419)
(9.58891e-11 -0.142236 8.14253)
(4.94342e-11 -0.135984 8.14101)
(5.08731e-12 -0.129856 8.13961)
(-4.7929e-11 -0.12396 8.13814)
(3.57886e-11 -0.118326 8.13674)
(1.12732e-10 -0.112596 8.13537)
(8.75477e-11 -0.107064 8.13411)
(2.06465e-11 -0.101928 8.13302)
(-4.98346e-11 -0.0971791 8.13207)
(-1.06542e-11 -0.0928169 8.13126)
(-8.45822e-11 -0.0886179 8.13051)
(-1.39547e-10 -0.0845492 8.12977)
(-9.75154e-11 -0.0804224 8.12901)
(-6.44508e-11 -0.0760511 8.12826)
(-7.67303e-11 -0.0710596 8.12743)
(-1.84528e-10 -0.0653599 8.12647)
(-2.58539e-10 -0.0595906 8.12562)
(-2.05594e-10 -0.0542366 8.12499)
(-2.39818e-11 -0.0491152 8.12446)
(-1.1848e-10 -0.0439625 8.12392)
(-3.77102e-12 -0.03844 8.12345)
(1.6357e-10 -0.0332567 8.12302)
(5.79871e-11 -0.0278244 8.12267)
(1.39835e-10 -0.0233618 8.12235)
(4.88574e-10 -0.0178901 8.12216)
(1.36933e-09 -0.0142237 8.12183)
(1.5245e-09 -0.00866896 8.12194)
(1.20075e-09 -0.00636921 8.12153)
(2.28282e-11 -0.136669 3.52452)
(3.05492e-11 -0.245208 7.27145)
(4.20882e-11 -0.256124 8.06035)
(4.99999e-12 -0.251769 8.1868)
(-2.31746e-11 -0.237861 8.19341)
(-2.63877e-11 -0.228898 8.18991)
(5.85201e-12 -0.217913 8.18579)
(2.01166e-11 -0.211213 8.18146)
(4.44989e-11 -0.202791 8.17804)
(3.31285e-11 -0.196701 8.17445)
(-1.76445e-11 -0.190275 8.1713)
(-2.58799e-11 -0.185037 8.1683)
(-5.82928e-11 -0.179481 8.16547)
(-9.5273e-11 -0.174211 8.16297)
(-1.09191e-10 -0.168899 8.16051)
(-6.68887e-11 -0.163732 8.15826)
(6.66136e-11 -0.158278 8.15617)
(1.6758e-10 -0.152453 8.15417)
(1.16876e-10 -0.146398 8.1523)
(9.93596e-11 -0.140374 8.15057)
(4.57744e-11 -0.134249 8.14895)
(-7.03285e-13 -0.128131 8.14752)
(-3.32794e-11 -0.122182 8.14609)
(5.98027e-11 -0.116554 8.14466)
(1.09582e-10 -0.110901 8.14317)
(5.45947e-11 -0.105532 8.14196)
(9.9434e-12 -0.10047 8.14088)
(-5.89493e-11 -0.0958159 8.13994)
(-3.20272e-11 -0.091587 8.13912)
(-1.04554e-10 -0.0874366 8.13837)
(-1.46605e-10 -0.0833815 8.13764)
(-9.73366e-11 -0.0793267 8.13687)
(-6.10337e-11 -0.0749872 8.13609)
(-7.85399e-11 -0.0699451 8.13534)
(-2.03479e-10 -0.0643509 8.13447)
(-2.60357e-10 -0.0588866 8.13382)
(-2.15147e-10 -0.0537437 8.13333)
(-4.74343e-11 -0.0486496 8.13291)
(-1.1375e-10 -0.0434944 8.13248)
(3.02202e-12 -0.0380437 8.13213)
(1.92557e-10 -0.0328924 8.13184)
(1.23587e-10 -0.0275382 8.13163)
(1.89488e-10 -0.0230922 8.13145)
(5.40526e-10 -0.0176173 8.13133)
(1.39503e-09 -0.014014 8.13121)
(1.52108e-09 -0.00849589 8.13115)
(1.3506e-09 -0.00613172 8.13121)
(1.47465e-11 -0.124111 3.1734)
(2.91574e-11 -0.235939 7.15823)
(4.2654e-11 -0.247494 8.04756)
(5.36226e-12 -0.245495 8.19793)
(-2.06978e-11 -0.232667 8.20916)
(-2.91749e-11 -0.224793 8.20225)
(6.2537e-12 -0.213903 8.1952)
(2.25709e-11 -0.207353 8.19004)
(4.76622e-11 -0.199137 8.18563)
(2.99647e-11 -0.193126 8.18188)
(-1.87693e-11 -0.18692 8.1785)
(-2.81665e-11 -0.181621 8.17572)
(-5.27258e-11 -0.176114 8.17291)
(-8.98047e-11 -0.170799 8.17041)
(-1.0948e-10 -0.165469 8.1678)
(-5.40274e-11 -0.160599 8.16558)
(6.21097e-11 -0.155381 8.16323)
(1.4647e-10 -0.149732 8.1611)
(1.11883e-10 -0.143821 8.15921)
(9.56628e-11 -0.137853 8.15753)
(5.61344e-11 -0.13187 8.15585)
(1.34742e-11 -0.125925 8.15442)
(-5.29467e-11 -0.119955 8.15309)
(2.68004e-11 -0.114203 8.15169)
(8.96256e-11 -0.108737 8.15024)
(8.28126e-11 -0.103651 8.14906)
(3.71036e-11 -0.0986322 8.14801)
(-3.54272e-11 -0.0939851 8.14707)
(-3.52035e-11 -0.0898008 8.14624)
(-1.04629e-10 -0.0857576 8.14548)
(-1.21728e-10 -0.08174 8.14465)
(-8.35511e-11 -0.0776899 8.14389)
(-6.69004e-11 -0.0735866 8.14317)
(-7.60126e-11 -0.0687067 8.14256)
(-1.98397e-10 -0.0632679 8.1419)
(-2.78864e-10 -0.0580747 8.14149)
(-1.99493e-10 -0.0530679 8.14106)
(-3.44824e-11 -0.0480476 8.14084)
(-1.16033e-10 -0.042982 8.14046)
(-2.07991e-11 -0.0376785 8.14041)
(1.55162e-10 -0.032577 8.14011)
(8.41649e-11 -0.0273081 8.14013)
(2.0018e-10 -0.0229635 8.13984)
(5.00264e-10 -0.0176177 8.13984)
(1.28665e-09 -0.0140631 8.13957)
(1.4863e-09 -0.00885514 8.1396)
(1.14592e-09 -0.00619733 8.13947)
(2.45686e-11 -0.10471 2.85318)
(2.90647e-11 -0.221393 7.04561)
(4.15982e-11 -0.232944 8.03039)
(7.23801e-12 -0.234146 8.20574)
(-2.13561e-11 -0.224962 8.21852)
(-2.81983e-11 -0.220041 8.21206)
(-1.34588e-12 -0.209519 8.20376)
(2.21847e-11 -0.202979 8.19756)
(4.04667e-11 -0.194841 8.19162)
(2.86696e-11 -0.189059 8.18741)
(-1.20484e-11 -0.18319 8.1834)
(-2.35141e-11 -0.178137 8.18056)
(-6.72933e-11 -0.172328 8.17762)
(-9.19053e-11 -0.166767 8.17507)
(-9.48826e-11 -0.161464 8.17247)
(-5.06292e-11 -0.156575 8.17034)
(7.11082e-11 -0.151282 8.16778)
(1.66758e-10 -0.146111 8.16538)
(1.1023e-10 -0.140526 8.16345)
(9.36721e-11 -0.13469 8.16175)
(4.87166e-11 -0.128859 8.16013)
(1.16954e-12 -0.123173 8.15869)
(-3.65302e-11 -0.117301 8.15738)
(3.65842e-11 -0.111566 8.1561)
(1.05161e-10 -0.10622 8.15485)
(7.62596e-11 -0.101332 8.15367)
(3.83396e-11 -0.0964934 8.15268)
(-2.46876e-11 -0.0919595 8.15178)
(-1.79879e-11 -0.0878422 8.15095)
(-9.29707e-11 -0.083673 8.15006)
(-1.24542e-10 -0.0797087 8.14918)
(-7.42345e-11 -0.0760711 8.14858)
(-3.41447e-11 -0.0722552 8.14806)
(-4.86502e-11 -0.0675151 8.14751)
(-1.68152e-10 -0.0622846 8.14707)
(-2.23647e-10 -0.0572041 8.14678)
(-1.73907e-10 -0.052358 8.14643)
(-2.14103e-11 -0.0474353 8.14646)
(-1.27008e-10 -0.0425524 8.14608)
(-1.82869e-11 -0.0373363 8.14628)
(1.57129e-10 -0.0323113 8.14593)
(9.76002e-11 -0.0270791 8.14623)
(1.76428e-10 -0.0227156 8.14574)
(5.21686e-10 -0.0174428 8.14597)
(1.2483e-09 -0.0139299 8.14537)
(1.42239e-09 -0.00897798 8.14566)
(1.13794e-09 -0.00623164 8.14497)
(1.12619e-11 -0.0829641 2.57699)
(2.29532e-11 -0.202964 6.93617)
(4.04783e-11 -0.212584 8.00706)
(7.98853e-12 -0.220806 8.2094)
(-2.20381e-11 -0.211013 8.22186)
(-2.76661e-11 -0.209572 8.21939)
(5.09419e-12 -0.200187 8.21083)
(1.05119e-11 -0.195261 8.20411)
(4.02094e-11 -0.188089 8.19686)
(3.87553e-11 -0.183292 8.19238)
(-1.92905e-11 -0.177914 8.18772)
(-3.57401e-11 -0.17328 8.1846)
(-6.48446e-11 -0.16738 8.18121)
(-8.83301e-11 -0.161904 8.17851)
(-1.03663e-10 -0.15681 8.17587)
(-4.43539e-11 -0.151995 8.17365)
(6.62927e-11 -0.146458 8.17103)
(1.47302e-10 -0.141768 8.16844)
(1.17791e-10 -0.136799 8.16635)
(9.6462e-11 -0.13122 8.16457)
(4.84982e-11 -0.125621 8.16299)
(1.37572e-11 -0.120149 8.16159)
(-4.06893e-11 -0.114487 8.16027)
(1.99412e-11 -0.108939 8.15909)
(9.34796e-11 -0.103717 8.158)
(7.17411e-11 -0.0989734 8.15695)
(2.04273e-11 -0.0942747 8.15602)
(-3.41429e-11 -0.0897597 8.15521)
(-1.29748e-11 -0.0854536 8.15422)
(-8.75267e-11 -0.0812682 8.15326)
(-1.26128e-10 -0.0777945 8.15261)
(-9.65131e-11 -0.0745526 8.15218)
(-8.47389e-11 -0.0707709 8.15177)
(-7.9767e-11 -0.0662017 8.15129)
(-1.73007e-10 -0.0612332 8.15098)
(-2.44572e-10 -0.0562539 8.1508)
(-1.71789e-10 -0.0517365 8.15054)
(-2.47199e-11 -0.0468055 8.15064)
(-9.95211e-11 -0.0420064 8.15028)
(-1.43155e-11 -0.0368437 8.1505)
(1.27461e-10 -0.0319528 8.1501)
(2.36848e-11 -0.0266867 8.15052)
(1.75975e-10 -0.0222615 8.14993)
(4.95733e-10 -0.0170379 8.15042)
(1.21737e-09 -0.0135674 8.14954)
(1.34184e-09 -0.00857793 8.15022)
(1.04467e-09 -0.0061156 8.14891)
(1.65194e-11 -0.0612145 2.34088)
(2.89191e-11 -0.1783 6.82847)
(3.92575e-11 -0.187222 7.97679)
(6.63688e-12 -0.201 8.20473)
(-2.45084e-11 -0.193735 8.22398)
(-2.86149e-11 -0.193774 8.22301)
(2.50567e-12 -0.187045 8.21336)
(2.02627e-11 -0.18503 8.20761)
(4.29262e-11 -0.17933 8.20028)
(3.41284e-11 -0.176127 8.19615)
(-1.843e-11 -0.17131 8.19122)
(-3.22083e-11 -0.167355 8.18794)
(-5.76776e-11 -0.161572 8.18432)
(-9.0923e-11 -0.156661 8.18165)
(-1.02383e-10 -0.151873 8.17898)
(-6.08574e-11 -0.147199 8.17659)
(5.91006e-11 -0.141601 8.17396)
(1.52821e-10 -0.137358 8.17146)
(1.10036e-10 -0.132927 8.16912)
(9.20728e-11 -0.127795 8.16725)
(4.66831e-11 -0.12252 8.16565)
(1.42393e-12 -0.117273 8.16423)
(-3.02742e-11 -0.111826 8.16294)
(4.85163e-11 -0.106513 8.16182)
(1.1732e-10 -0.101436 8.16084)
(6.98983e-11 -0.0968035 8.15992)
(4.72842e-12 -0.0922621 8.15905)
(-6.07197e-11 -0.0874995 8.15833)
(-3.59141e-11 -0.0829653 8.15738)
(-9.47336e-11 -0.0792465 8.15656)
(-1.40514e-10 -0.0761877 8.15615)
(-1.12725e-10 -0.0730583 8.15577)
(-6.61298e-11 -0.0693132 8.15544)
(-7.33652e-11 -0.0648297 8.15506)
(-1.5923e-10 -0.0601129 8.15483)
(-2.08276e-10 -0.0552437 8.15471)
(-1.93013e-10 -0.0508342 8.15449)
(-3.60393e-11 -0.0459252 8.15453)
(-8.8936e-11 -0.0412218 8.15429)
(1.37402e-11 -0.0360792 8.15437)
(1.80756e-10 -0.0313102 8.15393)
(9.21144e-11 -0.0260908 8.15419)
(1.87418e-10 -0.0217009 8.15371)
(4.94563e-10 -0.0163767 8.15414)
(1.19372e-09 -0.0129761 8.15323)
(1.42692e-09 -0.00787802 8.15404)
(1.17028e-09 -0.00578019 8.15248)
(1.0482e-11 -0.0406484 2.14976)
(1.81389e-11 -0.152133 6.72783)
(3.78685e-11 -0.160654 7.94015)
(5.29743e-12 -0.18275 8.1899)
(-2.40615e-11 -0.176111 8.22083)
(-2.82921e-11 -0.179971 8.22021)
(3.42479e-12 -0.174641 8.21126)
(1.84253e-11 -0.175071 8.20686)
(4.98223e-11 -0.170302 8.2009)
(3.97045e-11 -0.168596 8.19716)
(-1.9812e-11 -0.164178 8.19268)
(-3.40626e-11 -0.161204 8.1894)
(-5.32477e-11 -0.155933 8.18605)
(-7.78986e-11 -0.15174 8.18342)
(-1.06114e-10 -0.147165 8.18087)
(-6.25841e-11 -0.142753 8.1784)
(5.41358e-11 -0.137403 8.17589)
(1.37546e-10 -0.133413 8.17361)
(1.1535e-10 -0.129414 8.1712)
(9.82342e-11 -0.124815 8.16931)
(5.47024e-11 -0.119854 8.16767)
(3.1936e-12 -0.114854 8.16623)
(-4.72516e-11 -0.109634 8.16499)
(2.66603e-11 -0.104537 8.16391)
(9.92117e-11 -0.0996155 8.16301)
(7.44147e-11 -0.095043 8.16219)
(1.60981e-11 -0.0905873 8.16139)
(-4.4294e-11 -0.0858166 8.1607)
(-3.27693e-11 -0.0811578 8.16008)
(-9.13562e-11 -0.0777239 8.15954)
(-1.28481e-10 -0.0749354 8.15927)
(-1.02304e-10 -0.0718163 8.15897)
(-8.50186e-11 -0.0680686 8.15873)
(-7.51868e-11 -0.0636807 8.15846)
(-1.74469e-10 -0.0591506 8.15832)
(-2.45534e-10 -0.0542924 8.1582)
(-2.04931e-10 -0.0500347 8.15808)
(-9.13118e-11 -0.045185 8.1581)
(-1.3031e-10 -0.0404867 8.15799)
(-3.29573e-11 -0.0352531 8.15789)
(1.29595e-10 -0.0306202 8.1576)
(9.23426e-11 -0.0255158 8.15767)
(1.80528e-10 -0.021282 8.15728)
(4.65147e-10 -0.0157723 8.15757)
(1.19882e-09 -0.0125074 8.1569)
(1.38783e-09 -0.00711381 8.15767)
(1.07477e-09 -0.00551506 8.15634)
(1.30528e-11 -0.0248682 2.00273)
(2.8468e-11 -0.131199 6.63666)
(3.67841e-11 -0.1393 7.89986)
(5.95401e-12 -0.169313 8.17069)
(-2.40798e-11 -0.161041 8.21232)
(-2.56209e-11 -0.170011 8.2129)
(3.28601e-13 -0.164175 8.20674)
(2.71097e-11 -0.166656 8.20349)
(4.71053e-11 -0.162286 8.19945)
(3.36857e-11 -0.161688 8.19569)
(-1.69149e-11 -0.157902 8.19215)
(-3.19864e-11 -0.155786 8.18885)
(-6.80736e-11 -0.151071 8.18594)
(-9.98655e-11 -0.147448 8.1833)
(-1.09648e-10 -0.143176 8.1809)
(-6.38739e-11 -0.139018 8.17846)
(5.47685e-11 -0.134064 8.17615)
(1.51768e-10 -0.130262 8.17408)
(1.13935e-10 -0.12648 8.17181)
(9.58959e-11 -0.122343 8.16993)
(5.60135e-11 -0.117627 8.16829)
(4.6821e-13 -0.112853 8.16683)
(-3.78972e-11 -0.107872 8.1656)
(4.4214e-11 -0.102983 8.16456)
(1.00627e-10 -0.0982079 8.16373)
(6.28344e-11 -0.093677 8.16306)
(1.05515e-11 -0.0892575 8.16242)
(-5.326e-11 -0.0845945 8.16185)
(-4.44266e-11 -0.0800414 8.16152)
(-1.11991e-10 -0.0767051 8.1613)
(-1.3604e-10 -0.0739384 8.16113)
(-9.14019e-11 -0.0707924 8.16097)
(-4.27215e-11 -0.0670506 8.16085)
(-5.77753e-11 -0.0627688 8.1608)
(-1.74001e-10 -0.0583698 8.16081)
(-2.08781e-10 -0.0536202 8.16072)
(-1.78072e-10 -0.0493925 8.16077)
(-4.18223e-11 -0.0445021 8.16071)
(-9.99911e-11 -0.0396969 8.16072)
(-3.77581e-11 -0.0344742 8.16055)
(1.61402e-10 -0.0300041 8.16049)
(1.12171e-10 -0.024826 8.16034)
(1.91914e-10 -0.020677 8.16012)
(5.0552e-10 -0.0151795 8.16027)
(1.19382e-09 -0.012172 8.16001)
(1.4033e-09 -0.00646438 8.16046)
(1.1551e-09 -0.00536081 8.15984)
(1.16607e-11 -0.0127477 1.88827)
(1.26848e-11 -0.118083 6.55624)
(3.54102e-11 -0.125493 7.85906)
(6.41709e-12 -0.160171 8.14971)
(-2.2338e-11 -0.150756 8.20175)
(-2.49329e-11 -0.164112 8.20308)
(3.35514e-12 -0.157469 8.20059)
(2.05123e-11 -0.160816 8.19783)
(4.42181e-11 -0.156652 8.19591)
(3.71579e-11 -0.15634 8.19259)
(-1.79078e-11 -0.153044 8.19028)
(-3.2789e-11 -0.151275 8.18703)
(-6.46116e-11 -0.147132 8.18458)
(-9.51122e-11 -0.143826 8.18197)
(-1.1302e-10 -0.139823 8.17974)
(-5.60605e-11 -0.135938 8.17723)
(6.00843e-11 -0.131413 8.17524)
(1.55947e-10 -0.127704 8.17315)
(1.26513e-10 -0.12409 8.1711)
(9.2603e-11 -0.120262 8.16924)
(5.77718e-11 -0.115757 8.16767)
(1.34212e-11 -0.111206 8.16627)
(-3.74501e-11 -0.106453 8.16513)
(3.88866e-11 -0.101749 8.16421)
(1.08484e-10 -0.0970932 8.1635)
(7.91023e-11 -0.0925825 8.16295)
(2.80632e-11 -0.0881114 8.16245)
(-2.83904e-11 -0.0835883 8.16193)
(-1.79591e-11 -0.079257 8.1618)
(-9.08434e-11 -0.075906 8.16179)
(-1.11585e-10 -0.0730392 8.16169)
(-8.62465e-11 -0.069827 8.16161)
(-6.46556e-11 -0.0661225 8.16159)
(-8.63347e-11 -0.0619405 8.16165)
(-2.07026e-10 -0.0574427 8.16177)
(-2.68199e-10 -0.0527438 8.16176)
(-1.99978e-10 -0.0485516 8.16196)
(-5.46724e-11 -0.0436721 8.16175)
(-7.72932e-11 -0.0389232 8.16204)
(-1.34508e-11 -0.0337544 8.16193)
(1.41484e-10 -0.0292912 8.16205)
(1.05238e-10 -0.024088 8.16184)
(2.00605e-10 -0.0201973 8.16188)
(5.12864e-10 -0.0147833 8.16186)
(1.24843e-09 -0.0118625 8.16193)