/*--------------------------------*- C++ -*----------------------------------*\
| =========                 |                                                 |
| \\      /  F ield         | OpenFOAM: The Open Source CFD Toolbox           |
|  \\    /   O peration     | Version:  2212                                  |
|   \\  /    A nd           | Website:  www.openfoam.com                      |
|    \\/     M anipulation  |                                                 |
\*---------------------------------------------------------------------------*/
FoamFile
{
    version     2.0;
    format      ascii;
    arch        "LSB;label=32;scalar=64";
    class       volScalarField;
    location    "0.1716";
    object      s;
}
// * * * * * * * * * * * * * * * * * * * * * * * * * * * * * * * * * * * * * //

dimensions      [0 0 0 0 0 0 0];

internalField   nonuniform List<scalar> 
24240
(
2.33759e-101
2.30799e-101
2.34694e-101
2.26682e-101
2.3192e-101
2.31375e-101
2.31704e-101
2.25134e-101
2.27344e-101
2.33264e-101
2.27741e-101
2.34751e-101
2.27043e-101
2.32816e-101
2.2532e-101
2.34971e-101
2.24807e-101
2.28018e-101
2.30393e-101
2.22724e-101
1.79184e-98
1.76885e-98
1.79833e-98
1.73774e-98
1.77712e-98
1.77346e-98
1.77585e-98
1.7255e-98
1.74258e-98
1.78772e-98
1.74587e-98
1.79893e-98
1.74067e-98
1.78458e-98
1.72745e-98
1.80099e-98
1.72354e-98
1.74792e-98
1.76571e-98
1.70765e-98
7.59853e-96
7.49975e-96
7.62313e-96
7.36978e-96
7.53344e-96
7.52015e-96
7.52967e-96
7.31626e-96
7.38928e-96
7.57963e-96
7.40424e-96
7.62641e-96
7.38279e-96
7.56762e-96
7.32672e-96
7.63663e-96
7.31017e-96
7.41266e-96
7.48621e-96
7.24319e-96
1.82852e-93
1.80444e-93
1.83373e-93
1.77364e-93
1.81222e-93
1.80956e-93
1.8117e-93
1.76038e-93
1.77809e-93
1.82365e-93
1.78193e-93
1.83471e-93
1.77693e-93
1.82107e-93
1.76343e-93
1.83754e-93
1.75946e-93
1.78391e-93
1.80114e-93
1.74343e-93
3.2076e-91
3.16483e-91
3.21547e-91
3.11161e-91
3.17786e-91
3.17417e-91
3.17764e-91
3.08769e-91
3.11895e-91
3.19845e-91
3.12612e-91
3.21749e-91
3.11762e-91
3.19448e-91
3.09392e-91
3.22308e-91
3.08698e-91
3.1295e-91
3.15889e-91
3.059e-91
3.89107e-89
3.83856e-89
3.89909e-89
3.77501e-89
3.85367e-89
3.85038e-89
3.85423e-89
3.74523e-89
3.7834e-89
3.87933e-89
3.79262e-89
3.90197e-89
3.78266e-89
3.87521e-89
3.75388e-89
3.90951e-89
3.74547e-89
3.7966e-89
3.83116e-89
3.71161e-89
3.33682e-87
3.29124e-87
3.34233e-87
3.23761e-87
3.30358e-87
3.30178e-87
3.30476e-87
3.21141e-87
3.24432e-87
3.32613e-87
3.25268e-87
3.34515e-87
3.24444e-87
3.32321e-87
3.21971e-87
3.35222e-87
3.21249e-87
3.25597e-87
3.28461e-87
3.18347e-87
1.9009e-85
1.8747e-85
1.90319e-85
1.84463e-85
1.88132e-85
1.88086e-85
1.88244e-85
1.82937e-85
1.84829e-85
1.89443e-85
1.85327e-85
1.90506e-85
1.84871e-85
1.89316e-85
1.83454e-85
1.90938e-85
1.83059e-85
1.85501e-85
1.87067e-85
1.81415e-85
2.82615e-84
2.78891e-84
2.82721e-84
2.74418e-84
2.79616e-84
2.79583e-84
2.79969e-84
2.72196e-84
2.7527e-84
2.81509e-84
2.75889e-84
2.83128e-84
2.75079e-84
2.81418e-84
2.72822e-84
2.83723e-84
2.72779e-84
2.75913e-84
2.78019e-84
2.70547e-84
2.15537e-84
2.15824e-84
2.15271e-84
2.11631e-84
2.1429e-84
2.1367e-84
2.16159e-84
2.11218e-84
2.16676e-84
2.14051e-84
2.14947e-84
2.16428e-84
2.12183e-84
2.14238e-84
2.08796e-84
2.14477e-84
2.1454e-84
2.11838e-84
2.12278e-84
2.14814e-84
3.23719e-84
3.27446e-84
3.2938e-84
3.24775e-84
3.22457e-84
3.24549e-84
3.29507e-84
3.21897e-84
3.32052e-84
3.29507e-84
3.30368e-84
3.30409e-84
3.2658e-84
3.22845e-84
3.20147e-84
3.2484e-84
3.22841e-84
3.22462e-84
3.25016e-84
3.27003e-84
3.80687e-84
3.84032e-84
3.85533e-84
3.79751e-84
3.77695e-84
3.7015e-84
3.78701e-84
3.71275e-84
3.82692e-84
3.92348e-84
3.89099e-84
3.77556e-84
3.88122e-84
3.81665e-84
3.81404e-84
3.84021e-84
3.67583e-84
3.82886e-84
3.75706e-84
3.77491e-84
4.33144e-84
4.4315e-84
4.40389e-84
4.36952e-84
4.397e-84
4.43376e-84
4.56594e-84
4.38587e-84
4.40977e-84
4.35919e-84
4.37832e-84
4.3796e-84
4.4129e-84
4.40026e-84
4.31786e-84
4.38971e-84
4.42023e-84
4.34229e-84
4.3217e-84
4.34022e-84
4.79441e-84
4.80501e-84
4.84946e-84
4.93165e-84
4.88176e-84
4.94453e-84
4.85765e-84
4.93709e-84
4.88082e-84
4.69079e-84
4.76082e-84
4.76639e-84
4.80587e-84
4.71171e-84
4.70071e-84
4.74212e-84
4.72217e-84
4.80883e-84
4.76076e-84
4.85924e-84
4.87787e-84
4.88665e-84
4.97546e-84
4.9338e-84
4.87705e-84
4.94163e-84
4.95223e-84
5.02195e-84
4.87844e-84
4.95603e-84
4.93202e-84
4.93747e-84
4.98789e-84
4.93819e-84
4.89968e-84
5.06344e-84
4.90972e-84
4.85584e-84
4.91879e-84
4.95177e-84
4.97989e-84
4.87859e-84
4.93461e-84
4.88782e-84
4.96304e-84
4.99742e-84
5.01386e-84
4.96523e-84
4.84554e-84
4.88674e-84
4.84611e-84
5.01296e-84
4.97448e-84
5.05831e-84
5.03252e-84
5.03589e-84
4.98164e-84
4.97956e-84
4.91813e-84
4.94448e-84
4.53797e-84
4.59327e-84
4.54223e-84
4.72118e-84
4.58602e-84
4.69763e-84
4.60833e-84
4.65294e-84
4.58946e-84
4.60508e-84
4.59772e-84
4.68678e-84
4.60708e-84
4.74281e-84
4.5711e-84
4.67736e-84
4.6558e-84
4.50666e-84
4.67254e-84
4.66381e-84
4.13225e-84
4.31495e-84
4.24679e-84
4.22229e-84
4.16412e-84
4.36814e-84
4.29587e-84
4.29857e-84
4.26762e-84
4.18263e-84
4.26613e-84
4.34912e-84
4.23635e-84
4.43989e-84
4.25844e-84
4.33955e-84
4.37892e-84
4.27218e-84
4.36487e-84
4.36918e-84
3.72422e-84
3.71616e-84
3.69348e-84
3.75858e-84
3.80314e-84
3.78928e-84
3.71714e-84
3.72069e-84
3.82775e-84
3.69737e-84
3.79328e-84
3.79792e-84
3.70741e-84
3.83458e-84
3.82023e-84
3.8928e-84
3.76562e-84
3.84945e-84
3.79747e-84
3.90493e-84
2.7328e-84
2.7544e-84
2.73687e-84
2.71717e-84
2.77456e-84
2.74964e-84
2.78938e-84
2.75067e-84
2.78734e-84
2.8106e-84
2.75559e-84
2.82983e-84
2.74576e-84
2.85165e-84
2.75278e-84
2.75199e-84
2.78556e-84
2.8316e-84
2.78278e-84
2.86432e-84
1.01938e-99
1.00632e-99
1.02311e-99
9.88618e-100
1.01103e-99
1.00894e-99
1.01032e-99
9.81675e-100
9.91391e-100
1.01708e-99
9.93249e-100
1.02347e-99
9.9028e-100
1.01525e-99
9.82751e-100
1.0246e-99
9.80515e-100
9.94392e-100
1.00454e-99
9.7149e-100
8.21734e-97
8.11076e-97
8.24439e-97
7.97019e-97
8.14723e-97
8.13285e-97
8.14327e-97
7.91251e-97
7.99147e-97
8.19745e-97
8.00756e-97
8.24808e-97
7.98431e-97
8.18406e-97
7.92359e-97
8.25886e-97
7.90565e-97
8.01648e-97
8.09625e-97
7.83327e-97
3.56172e-94
3.51494e-94
3.57206e-94
3.45492e-94
3.53007e-94
3.5249e-94
3.52912e-94
3.42917e-94
3.46365e-94
3.55244e-94
3.47109e-94
3.574e-94
3.46131e-94
3.54723e-94
3.43497e-94
3.57937e-94
3.42724e-94
3.47484e-94
3.50851e-94
3.39604e-94
8.83124e-92
8.71386e-92
8.85347e-92
8.56732e-92
8.74971e-92
8.73955e-92
8.74928e-92
8.50168e-92
8.5878e-92
8.80674e-92
8.60742e-92
8.85922e-92
8.58394e-92
8.79533e-92
8.51854e-92
8.87431e-92
8.49951e-92
8.61648e-92
8.69765e-92
8.4226e-92
1.55715e-89
1.53621e-89
1.56045e-89
1.51077e-89
1.54222e-89
1.54091e-89
1.54248e-89
1.49888e-89
1.51416e-89
1.55255e-89
1.51782e-89
1.56162e-89
1.51382e-89
1.5508e-89
1.50227e-89
1.56458e-89
1.49894e-89
1.51938e-89
1.53326e-89
1.48545e-89
1.90204e-87
1.87618e-87
1.90532e-87
1.8456e-87
1.88316e-87
1.88214e-87
1.8839e-87
1.83071e-87
1.8495e-87
1.89612e-87
1.85422e-87
1.90697e-87
1.8495e-87
1.89432e-87
1.83536e-87
1.91095e-87
1.83133e-87
1.85606e-87
1.87246e-87
1.81491e-87
1.60525e-85
1.58319e-85
1.60736e-85
1.5578e-85
1.58876e-85
1.5884e-85
1.58974e-85
1.54492e-85
1.56089e-85
1.59997e-85
1.56507e-85
1.60894e-85
1.56123e-85
1.59875e-85
1.54926e-85
1.61258e-85
1.5459e-85
1.56655e-85
1.57989e-85
1.53207e-85
9.04792e-84
8.92277e-84
9.05576e-84
8.78187e-84
8.95199e-84
8.95269e-84
8.95979e-84
8.70786e-84
8.7989e-84
9.01643e-84
8.82333e-84
9.06602e-84
8.80212e-84
9.01138e-84
8.73411e-84
9.08781e-84
8.71645e-84
8.83082e-84
8.90277e-84
8.63912e-84
1.32483e-82
1.30723e-82
1.32498e-82
1.28665e-82
1.31041e-82
1.31072e-82
1.31237e-82
1.27598e-82
1.29042e-82
1.31964e-82
1.29349e-82
1.32704e-82
1.28985e-82
1.31933e-82
1.27926e-82
1.33002e-82
1.27895e-82
1.2936e-82
1.30316e-82
1.26851e-82
9.98888e-83
1.00015e-82
9.97792e-83
9.81061e-83
9.93077e-83
9.90539e-83
1.00187e-82
9.78928e-83
1.00436e-82
9.92119e-83
9.96393e-83
1.003e-82
9.8362e-83
9.92998e-83
9.68039e-83
9.93855e-83
9.94327e-83
9.81893e-83
9.83903e-83
9.95619e-83
1.50361e-82
1.52059e-82
1.52987e-82
1.50826e-82
1.49756e-82
1.50707e-82
1.52985e-82
1.49465e-82
1.54187e-82
1.52992e-82
1.5343e-82
1.53395e-82
1.51675e-82
1.49936e-82
1.48696e-82
1.50838e-82
1.49906e-82
1.49757e-82
1.5094e-82
1.51842e-82
1.75742e-82
1.77273e-82
1.77971e-82
1.75268e-82
1.7437e-82
1.70902e-82
1.74855e-82
1.71447e-82
1.7667e-82
1.81089e-82
1.7958e-82
1.74302e-82
1.79153e-82
1.76176e-82
1.76054e-82
1.77255e-82
1.69693e-82
1.76709e-82
1.73407e-82
1.7423e-82
2.00085e-82
2.04632e-82
2.03408e-82
2.0184e-82
2.03115e-82
2.04803e-82
2.1085e-82
2.02619e-82
2.03694e-82
2.01324e-82
2.02211e-82
2.0229e-82
2.03851e-82
2.0332e-82
1.99513e-82
2.02784e-82
2.04187e-82
2.00618e-82
1.99667e-82
2.00511e-82
2.19327e-82
2.19756e-82
2.21749e-82
2.25544e-82
2.23293e-82
2.26128e-82
2.22152e-82
2.25818e-82
2.23173e-82
2.1459e-82
2.17745e-82
2.18041e-82
2.19814e-82
2.1554e-82
2.15008e-82
2.16938e-82
2.15957e-82
2.19944e-82
2.17739e-82
2.22258e-82
2.23487e-82
2.23842e-82
2.27926e-82
2.25979e-82
2.23412e-82
2.26422e-82
2.2685e-82
2.30058e-82
2.23507e-82
2.27078e-82
2.25984e-82
2.26233e-82
2.28472e-82
2.26281e-82
2.24525e-82
2.31943e-82
2.24944e-82
2.2246e-82
2.25333e-82
2.26769e-82
2.25215e-82
2.20636e-82
2.23086e-82
2.2103e-82
2.24447e-82
2.26004e-82
2.26703e-82
2.24515e-82
2.19142e-82
2.20973e-82
2.19103e-82
2.26631e-82
2.24964e-82
2.28731e-82
2.27575e-82
2.27695e-82
2.25264e-82
2.25204e-82
2.22416e-82
2.23597e-82
2.05904e-82
2.08442e-82
2.061e-82
2.14206e-82
2.08034e-82
2.13096e-82
2.09035e-82
2.11123e-82
2.08234e-82
2.08957e-82
2.08636e-82
2.12651e-82
2.09006e-82
2.1517e-82
2.07395e-82
2.1218e-82
2.1123e-82
2.04502e-82
2.11996e-82
2.11619e-82
1.85219e-82
1.93358e-82
1.90337e-82
1.89182e-82
1.86626e-82
1.95718e-82
1.92474e-82
1.92619e-82
1.91227e-82
1.87439e-82
1.91138e-82
1.94847e-82
1.8984e-82
1.98882e-82
1.90788e-82
1.94412e-82
1.96149e-82
1.91444e-82
1.95563e-82
1.95763e-82
1.68095e-82
1.67726e-82
1.66737e-82
1.69661e-82
1.71631e-82
1.71008e-82
1.67742e-82
1.68002e-82
1.72768e-82
1.66909e-82
1.71204e-82
1.71436e-82
1.673e-82
1.73075e-82
1.72412e-82
1.75708e-82
1.69966e-82
1.73719e-82
1.71369e-82
1.762e-82
1.23182e-82
1.24153e-82
1.23378e-82
1.22475e-82
1.25023e-82
1.23929e-82
1.25676e-82
1.23982e-82
1.25566e-82
1.2665e-82
1.24155e-82
1.27496e-82
1.23735e-82
1.28487e-82
1.24039e-82
1.24007e-82
1.25495e-82
1.27579e-82
1.25389e-82
1.29039e-82
5.19632e-98
5.12897e-98
5.2136e-98
5.04008e-98
5.15206e-98
5.14297e-98
5.1496e-98
5.00367e-98
5.05357e-98
5.18393e-98
5.0637e-98
5.21594e-98
5.04897e-98
5.17523e-98
5.01053e-98
5.2226e-98
4.9991e-98
5.06923e-98
5.11979e-98
4.95338e-98
4.14507e-95
4.09071e-95
4.1573e-95
4.02088e-95
4.10835e-95
4.10235e-95
4.1073e-95
3.99098e-95
4.03109e-95
4.13452e-95
4.03973e-95
4.15961e-95
4.02834e-95
4.12827e-95
3.99765e-95
4.16576e-95
3.98858e-95
4.04401e-95
4.08331e-95
3.9523e-95
1.76215e-92
1.73877e-92
1.76667e-92
1.70954e-92
1.74592e-92
1.74391e-92
1.74586e-92
1.69646e-92
1.71363e-92
1.75736e-92
1.71754e-92
1.76783e-92
1.71284e-92
1.75499e-92
1.69978e-92
1.77079e-92
1.69595e-92
1.7193e-92
1.73554e-92
1.68062e-92
4.33106e-90
4.27296e-90
4.34051e-90
4.20223e-90
4.28969e-90
4.28607e-90
4.2905e-90
4.16922e-90
4.21174e-90
4.3186e-90
4.22189e-90
4.34385e-90
4.21075e-90
4.31352e-90
4.17857e-90
4.35198e-90
4.16927e-90
4.22613e-90
4.26488e-90
4.13179e-90
7.50408e-88
7.40233e-88
7.51749e-88
7.28173e-88
7.42977e-88
7.42585e-88
7.43286e-88
7.22302e-88
7.29718e-88
7.48123e-88
7.31572e-88
7.52407e-88
7.29707e-88
7.4737e-88
7.24119e-88
7.5396e-88
7.22528e-88
7.32286e-88
7.38786e-88
7.16073e-88
9.07566e-86
8.95136e-86
9.08829e-86
8.80787e-86
8.98272e-86
8.98085e-86
8.98853e-86
8.73519e-86
8.82549e-86
9.04669e-86
8.84904e-86
9.0974e-86
8.8273e-86
9.03916e-86
8.7595e-86
9.11786e-86
8.74058e-86
8.85737e-86
8.93324e-86
8.66278e-86
7.53418e-84
7.43006e-84
7.54157e-84
7.31288e-84
7.45448e-84
7.4553e-84
7.46104e-84
7.25117e-84
7.3267e-84
7.50889e-84
7.34711e-84
7.55006e-84
7.32966e-84
7.50399e-84
7.27312e-84
7.5683e-84
7.25784e-84
7.35362e-84
7.41414e-84
7.19346e-84
4.19198e-82
4.13377e-82
4.19422e-82
4.06959e-82
4.14627e-82
4.148e-82
4.15104e-82
4.03463e-82
4.07721e-82
4.17714e-82
4.0889e-82
4.19962e-82
4.07937e-82
4.17526e-82
4.04761e-82
4.2103e-82
4.03986e-82
4.09206e-82
4.12417e-82
4.00442e-82
6.04225e-81
5.96135e-81
6.04132e-81
5.86923e-81
5.97476e-81
5.97835e-81
5.98515e-81
5.81946e-81
5.88544e-81
6.01856e-81
5.90024e-81
6.05142e-81
5.88436e-81
6.01766e-81
5.83598e-81
6.06592e-81
5.83407e-81
5.90074e-81
5.94281e-81
5.7866e-81
4.49876e-81
4.50415e-81
4.49449e-81
4.41975e-81
4.47244e-81
4.46255e-81
4.51264e-81
4.40913e-81
4.52427e-81
4.46884e-81
4.48863e-81
4.51721e-81
4.43128e-81
4.47283e-81
4.36163e-81
4.47554e-81
4.4785e-81
4.42291e-81
4.43185e-81
4.4844e-81
6.78918e-81
6.86426e-81
6.9075e-81
6.80897e-81
6.76097e-81
6.80301e-81
6.90461e-81
6.74645e-81
6.95986e-81
6.90534e-81
6.92681e-81
6.92279e-81
6.84773e-81
6.76911e-81
6.71365e-81
6.80862e-81
6.76648e-81
6.76088e-81
6.81415e-81
6.85393e-81
7.89229e-81
7.96047e-81
7.99208e-81
7.86911e-81
7.83109e-81
7.67608e-81
7.8538e-81
7.70176e-81
7.93404e-81
8.1308e-81
8.06253e-81
7.8279e-81
8.04446e-81
7.91096e-81
7.9054e-81
7.95902e-81
7.62066e-81
7.93353e-81
7.78584e-81
7.82273e-81
8.99361e-81
9.19457e-81
9.14184e-81
9.0723e-81
9.12985e-81
9.20515e-81
9.47429e-81
9.10831e-81
9.15538e-81
9.04753e-81
9.08746e-81
9.0918e-81
9.16311e-81
9.1417e-81
8.9705e-81
9.1154e-81
9.17802e-81
9.0191e-81
8.97631e-81
9.01369e-81
9.78258e-81
9.79919e-81
9.88611e-81
1.0057e-80
9.95763e-81
1.00824e-80
9.90554e-81
1.00703e-80
9.9487e-81
9.57141e-81
9.70983e-81
9.72502e-81
9.80247e-81
9.61345e-81
9.58839e-81
9.67594e-81
9.62924e-81
9.80806e-81
9.70946e-81
9.91153e-81
9.98661e-81
1.00003e-80
1.01834e-80
1.00948e-80
9.98148e-81
1.01185e-80
1.01351e-80
1.02788e-80
9.98737e-81
1.01474e-80
1.00987e-80
1.011e-80
1.02067e-80
1.01127e-80
1.00346e-80
1.03621e-80
1.00515e-80
9.93991e-81
1.00681e-80
1.01284e-80
9.96426e-81
9.76165e-81
9.86643e-81
9.77829e-81
9.9298e-81
9.99888e-81
1.00279e-80
9.93168e-81
9.69569e-81
9.77545e-81
9.69143e-81
1.00233e-80
9.95272e-81
1.01183e-80
1.00677e-80
1.00715e-80
9.96512e-81
9.96385e-81
9.84002e-81
9.89175e-81
9.14461e-81
9.25824e-81
9.15328e-81
9.5119e-81
9.23678e-81
9.4611e-81
9.28063e-81
9.37615e-81
9.2473e-81
9.28021e-81
9.26623e-81
9.44363e-81
9.28073e-81
9.55435e-81
9.21026e-81
9.4209e-81
9.37979e-81
9.08309e-81
9.41402e-81
9.39827e-81
8.15098e-81
8.50667e-81
8.37543e-81
8.3224e-81
8.21185e-81
8.60964e-81
8.46661e-81
8.47414e-81
8.41254e-81
8.24706e-81
8.40765e-81
8.57046e-81
8.35227e-81
8.7464e-81
8.39197e-81
8.551e-81
8.62603e-81
8.42252e-81
8.60236e-81
8.61142e-81
7.44972e-81
7.43366e-81
7.39121e-81
7.51996e-81
7.60506e-81
7.57816e-81
7.43292e-81
7.44904e-81
7.65683e-81
7.39855e-81
7.58729e-81
7.59874e-81
7.41312e-81
7.67074e-81
7.64033e-81
7.78737e-81
7.53332e-81
7.69769e-81
7.5937e-81
7.80669e-81
5.42294e-81
5.46534e-81
5.4319e-81
5.3917e-81
5.50228e-81
5.45517e-81
5.52997e-81
5.4577e-81
5.52448e-81
5.57355e-81
5.46326e-81
5.60994e-81
5.44566e-81
5.65391e-81
5.45873e-81
5.45767e-81
5.52161e-81
5.61393e-81
5.51785e-81
5.67745e-81
2.62184e-96
2.58748e-96
2.62968e-96
2.54332e-96
2.59867e-96
2.59487e-96
2.59802e-96
2.52444e-96
2.54979e-96
2.61528e-96
2.55524e-96
2.63115e-96
2.54803e-96
2.61121e-96
2.5286e-96
2.63496e-96
2.5228e-96
2.5579e-96
2.58282e-96
2.49986e-96
2.08613e-93
2.05848e-93
2.09159e-93
2.02389e-93
2.06697e-93
2.0646e-93
2.06693e-93
2.00844e-93
2.02875e-93
2.08059e-93
2.03337e-93
2.09298e-93
2.02782e-93
2.07769e-93
2.01234e-93
2.09643e-93
2.00776e-93
2.03543e-93
2.05472e-93
1.9896e-93
8.70905e-91
8.59238e-91
8.72851e-91
8.45021e-91
8.62606e-91
8.61885e-91
8.62782e-91
8.38392e-91
8.46933e-91
8.68451e-91
8.48973e-91
8.73526e-91
8.46731e-91
8.67385e-91
8.40255e-91
8.75137e-91
8.38361e-91
8.49808e-91
8.57626e-91
8.30827e-91
2.11877e-88
2.09009e-88
2.12269e-88
2.05606e-88
2.09785e-88
2.09677e-88
2.09876e-88
2.03951e-88
2.06043e-88
2.11249e-88
2.06567e-88
2.12459e-88
2.06041e-88
2.11025e-88
2.04462e-88
2.12892e-88
2.04007e-88
2.06765e-88
2.08608e-88
2.02184e-88
3.60766e-86
3.55834e-86
3.61292e-86
3.50133e-86
3.5708e-86
3.5701e-86
3.57317e-86
3.47245e-86
3.50831e-86
3.5964e-86
3.51766e-86
3.61655e-86
3.50903e-86
3.59318e-86
3.48206e-86
3.62461e-86
3.47445e-86
3.52095e-86
3.55127e-86
3.4436e-86
4.30934e-84
4.24991e-84
4.31393e-84
4.18294e-84
4.26387e-84
4.26443e-84
4.26772e-84
4.14766e-84
4.19079e-84
4.29531e-84
4.20248e-84
4.31885e-84
4.19255e-84
4.29221e-84
4.16021e-84
4.32925e-84
4.15132e-84
4.20626e-84
4.24113e-84
4.11463e-84
3.51862e-82
3.46972e-82
3.52093e-82
3.41594e-82
3.48033e-82
3.4819e-82
3.48431e-82
3.38652e-82
3.42203e-82
3.50662e-82
3.43194e-82
3.52541e-82
3.42411e-82
3.50472e-82
3.39754e-82
3.53447e-82
3.39057e-82
3.43483e-82
3.4621e-82
3.36074e-82
1.92992e-80
1.90302e-80
1.93033e-80
1.87398e-80
1.9083e-80
1.90976e-80
1.91102e-80
1.85758e-80
1.87734e-80
1.92301e-80
1.8829e-80
1.93311e-80
1.87867e-80
1.92234e-80
1.86394e-80
1.9383e-80
1.86053e-80
1.88425e-80
1.89846e-80
1.84436e-80
2.73832e-79
2.7014e-79
2.73719e-79
2.66046e-79
2.70697e-79
2.70961e-79
2.71235e-79
2.6374e-79
2.66734e-79
2.72762e-79
2.67441e-79
2.7421e-79
2.66755e-79
2.72744e-79
2.64559e-79
2.74907e-79
2.64451e-79
2.67465e-79
2.69301e-79
2.62304e-79
2.01211e-79
2.01439e-79
2.01052e-79
1.97736e-79
2.00028e-79
1.99655e-79
2.01851e-79
1.97215e-79
2.02391e-79
1.99899e-79
2.00808e-79
2.02034e-79
1.98251e-79
2.00079e-79
1.9516e-79
2.00148e-79
2.00318e-79
1.9785e-79
1.98245e-79
2.00585e-79
3.04528e-79
3.07826e-79
3.09824e-79
3.05362e-79
3.03223e-79
3.05067e-79
3.09568e-79
3.02511e-79
3.1209e-79
3.09622e-79
3.10659e-79
3.10371e-79
3.0712e-79
3.0359e-79
3.01126e-79
3.05308e-79
3.03412e-79
3.03214e-79
3.05595e-79
3.07336e-79
3.52271e-79
3.55286e-79
3.56709e-79
3.51151e-79
3.49557e-79
3.42672e-79
3.5061e-79
3.43872e-79
3.54134e-79
3.62842e-79
3.59771e-79
3.49408e-79
3.59013e-79
3.53067e-79
3.52814e-79
3.55194e-79
3.40147e-79
3.5401e-79
3.47449e-79
3.4909e-79
4.01951e-79
4.10776e-79
4.08522e-79
4.05458e-79
4.08037e-79
4.1138e-79
4.23285e-79
4.07114e-79
4.09159e-79
4.0428e-79
4.06066e-79
4.06296e-79
4.09532e-79
4.08688e-79
4.01033e-79
4.07412e-79
4.1019e-79
4.03157e-79
4.01242e-79
4.02888e-79
4.34504e-79
4.35128e-79
4.38903e-79
4.46563e-79
4.42196e-79
4.47662e-79
4.39827e-79
4.47207e-79
4.41636e-79
4.25132e-79
4.31175e-79
4.31938e-79
4.35303e-79
4.26981e-79
4.25811e-79
4.29764e-79
4.27559e-79
4.35544e-79
4.31153e-79
4.4015e-79
4.44574e-79
4.45079e-79
4.53253e-79
4.49239e-79
4.44266e-79
4.50471e-79
4.51099e-79
4.57512e-79
4.44593e-79
4.51736e-79
4.4958e-79
4.50095e-79
4.5424e-79
4.50238e-79
4.46771e-79
4.61177e-79
4.47455e-79
4.42448e-79
4.48144e-79
4.50663e-79
4.4051e-79
4.31544e-79
4.36012e-79
4.32254e-79
4.38964e-79
4.42017e-79
4.43219e-79
4.38992e-79
4.28635e-79
4.32109e-79
4.28341e-79
4.42955e-79
4.3997e-79
4.47255e-79
4.45041e-79
4.45124e-79
4.40483e-79
4.40497e-79
4.34989e-79
4.37253e-79
4.0588e-79
4.10974e-79
4.0627e-79
4.22124e-79
4.0986e-79
4.19802e-79
4.11785e-79
4.16147e-79
4.10407e-79
4.11904e-79
4.1129e-79
4.1913e-79
4.11855e-79
4.23986e-79
4.0877e-79
4.1804e-79
4.16262e-79
4.03185e-79
4.17795e-79
4.17137e-79
3.59719e-79
3.75303e-79
3.69589e-79
3.67145e-79
3.62359e-79
3.79807e-79
3.73483e-79
3.73868e-79
3.71134e-79
3.63883e-79
3.70872e-79
3.7804e-79
3.68508e-79
3.85733e-79
3.70173e-79
3.77169e-79
3.80417e-79
3.71596e-79
3.79465e-79
3.79878e-79
3.30941e-79
3.30235e-79
3.28412e-79
3.34097e-79
3.3778e-79
3.36611e-79
3.30136e-79
3.31058e-79
3.40139e-79
3.28727e-79
3.3704e-79
3.376e-79
3.2925e-79
3.40766e-79
3.39377e-79
3.45948e-79
3.3468e-79
3.41897e-79
3.3728e-79
3.46695e-79
2.39629e-79
2.41494e-79
2.40047e-79
2.38245e-79
2.43058e-79
2.41028e-79
2.44242e-79
2.41151e-79
2.43965e-79
2.46198e-79
2.413e-79
2.47767e-79
2.40565e-79
2.49726e-79
2.41126e-79
2.41091e-79
2.43854e-79
2.47955e-79
2.43727e-79
2.5073e-79
1.31045e-94
1.29309e-94
1.31393e-94
1.27136e-94
1.29844e-94
1.29695e-94
1.29842e-94
1.26167e-94
1.27442e-94
1.30703e-94
1.27732e-94
1.31481e-94
1.27383e-94
1.30515e-94
1.2641e-94
1.31694e-94
1.26118e-94
1.27859e-94
1.29074e-94
1.24978e-94
1.05064e-91
1.03658e-91
1.05304e-91
1.01944e-91
1.04066e-91
1.03979e-91
1.04088e-91
1.01145e-91
1.02174e-91
1.04775e-91
1.0242e-91
1.05387e-91
1.0215e-91
1.04641e-91
1.01369e-91
1.05579e-91
1.01137e-91
1.0252e-91
1.03466e-91
1.00227e-91
4.30511e-89
4.2469e-89
4.31331e-89
4.17778e-89
4.26271e-89
4.26054e-89
4.2646e-89
4.14419e-89
4.18664e-89
4.29261e-89
4.19728e-89
4.31717e-89
4.1866e-89
4.28783e-89
4.1545e-89
4.32587e-89
4.14509e-89
4.20125e-89
4.23883e-89
4.10805e-89
1.03385e-86
1.01974e-86
1.03543e-86
1.00342e-86
1.02332e-86
1.02314e-86
1.02402e-86
9.9515e-87
1.00541e-86
1.03071e-86
1.0081e-86
1.03649e-86
1.00563e-86
1.02974e-86
9.97898e-87
1.03878e-86
9.95672e-87
1.00903e-86
1.01776e-86
9.8683e-87
1.72956e-84
1.70574e-84
1.73153e-84
1.67888e-84
1.71135e-84
1.7116e-84
1.71292e-84
1.66472e-84
1.682e-84
1.72406e-84
1.68669e-84
1.7335e-84
1.68273e-84
1.72271e-84
1.66974e-84
1.73765e-84
1.6661e-84
1.68822e-84
1.7023e-84
1.6514e-84
2.0382e-82
2.0099e-82
2.03972e-82
1.97879e-82
2.01607e-82
2.01703e-82
2.0184e-82
1.96174e-82
1.98224e-82
2.03146e-82
1.98802e-82
2.04233e-82
1.98352e-82
2.03022e-82
1.96815e-82
2.04758e-82
1.96398e-82
1.98974e-82
2.00568e-82
1.94673e-82
1.63641e-80
1.61355e-80
1.63697e-80
1.58898e-80
1.61811e-80
1.61941e-80
1.62038e-80
1.57502e-80
1.59163e-80
1.63077e-80
1.59642e-80
1.63929e-80
1.59293e-80
1.63005e-80
1.58051e-80
1.64375e-80
1.57732e-80
1.5977e-80
1.60992e-80
1.56354e-80
8.83825e-79
8.71458e-79
8.83742e-79
8.58404e-79
8.73667e-79
8.74648e-79
8.75151e-79
8.50748e-79
8.59855e-79
8.80642e-79
8.6249e-79
8.85149e-79
8.60633e-79
8.80426e-79
8.53841e-79
8.87652e-79
8.52334e-79
8.63069e-79
8.6932e-79
8.4499e-79
1.23433e-77
1.21758e-77
1.2335e-77
1.19949e-77
1.21985e-77
1.22151e-77
1.22258e-77
1.18887e-77
1.20238e-77
1.22953e-77
1.20573e-77
1.23587e-77
1.20279e-77
1.22955e-77
1.19287e-77
1.23919e-77
1.19229e-77
1.20584e-77
1.21379e-77
1.18264e-77
8.94571e-78
8.95528e-78
8.94012e-78
8.79382e-78
8.89285e-78
8.87934e-78
8.97497e-78
8.76863e-78
8.99986e-78
8.88861e-78
8.93001e-78
8.98221e-78
8.81669e-78
8.89657e-78
8.68035e-78
8.89732e-78
8.90657e-78
8.79773e-78
8.81511e-78
8.91863e-78
1.35819e-77
1.37258e-77
1.38175e-77
1.36166e-77
1.35219e-77
1.36023e-77
1.38004e-77
1.34875e-77
1.39149e-77
1.38039e-77
1.38533e-77
1.38358e-77
1.36959e-77
1.35383e-77
1.34295e-77
1.36125e-77
1.35277e-77
1.35212e-77
1.3627e-77
1.37027e-77
1.56416e-77
1.57741e-77
1.58379e-77
1.55881e-77
1.55219e-77
1.52177e-77
1.55703e-77
1.52734e-77
1.57241e-77
1.61076e-77
1.59701e-77
1.5515e-77
1.59386e-77
1.56753e-77
1.56637e-77
1.57689e-77
1.51033e-77
1.57142e-77
1.54244e-77
1.5497e-77
1.78765e-77
1.8262e-77
1.81663e-77
1.80321e-77
1.81469e-77
1.82947e-77
1.88185e-77
1.81077e-77
1.81961e-77
1.79767e-77
1.8056e-77
1.80678e-77
1.82138e-77
1.81814e-77
1.78408e-77
1.81202e-77
1.82428e-77
1.79331e-77
1.78478e-77
1.79199e-77
1.92248e-77
1.92475e-77
1.94107e-77
1.97526e-77
1.95614e-77
1.98e-77
1.94543e-77
1.97834e-77
1.95294e-77
1.88106e-77
1.90732e-77
1.9111e-77
1.92564e-77
1.88915e-77
1.88372e-77
1.90149e-77
1.89116e-77
1.92668e-77
1.90719e-77
1.94708e-77
1.97225e-77
1.97402e-77
2.01037e-77
1.99227e-77
1.97053e-77
1.99852e-77
2.00079e-77
2.02932e-77
1.97227e-77
2.00402e-77
1.9945e-77
1.99686e-77
2.01453e-77
1.99764e-77
1.98229e-77
2.04537e-77
1.98498e-77
1.96265e-77
1.98783e-77
1.99826e-77
1.94256e-77
1.90306e-77
1.92203e-77
1.90607e-77
1.93565e-77
1.94912e-77
1.95406e-77
1.9356e-77
1.89026e-77
1.90536e-77
1.88851e-77
1.95261e-77
1.94009e-77
1.972e-77
1.96237e-77
1.9624e-77
1.94216e-77
1.94254e-77
1.91815e-77
1.92804e-77
1.79774e-77
1.82048e-77
1.79945e-77
1.86935e-77
1.81486e-77
1.8588e-77
1.82329e-77
1.84311e-77
1.8176e-77
1.82441e-77
1.8217e-77
1.85631e-77
1.82388e-77
1.87755e-77
1.81043e-77
1.85109e-77
1.84345e-77
1.78595e-77
1.85028e-77
1.84754e-77
1.58599e-77
1.65418e-77
1.62934e-77
1.61812e-77
1.59742e-77
1.67386e-77
1.64593e-77
1.64786e-77
1.63573e-77
1.604e-77
1.63437e-77
1.66591e-77
1.62431e-77
1.6995e-77
1.63127e-77
1.66201e-77
1.67605e-77
1.63787e-77
1.67225e-77
1.67415e-77
1.46921e-77
1.4661e-77
1.4583e-77
1.48338e-77
1.49928e-77
1.49422e-77
1.46537e-77
1.47039e-77
1.51003e-77
1.45965e-77
1.49623e-77
1.49894e-77
1.46141e-77
1.51285e-77
1.50652e-77
1.53586e-77
1.48591e-77
1.51757e-77
1.4971e-77
1.53867e-77
1.06286e-77
1.0711e-77
1.06481e-77
1.05671e-77
1.07772e-77
1.06895e-77
1.08281e-77
1.06956e-77
1.08142e-77
1.09161e-77
1.06977e-77
1.0984e-77
1.0667e-77
1.10716e-77
1.06912e-77
1.06902e-77
1.08101e-77
1.09928e-77
1.08061e-77
1.11145e-77
6.6893e-93
6.59979e-93
6.70488e-93
6.49068e-93
6.62586e-93
6.62039e-93
6.6273e-93
6.43991e-93
6.50535e-93
6.67119e-93
6.52101e-93
6.71015e-93
6.50382e-93
6.66239e-93
6.45403e-93
6.72218e-93
6.43901e-93
6.52724e-93
6.5877e-93
6.38112e-93
5.28706e-90
5.21561e-90
5.29741e-90
5.13078e-90
5.23513e-90
5.2325e-90
5.23749e-90
5.08959e-90
5.14165e-90
5.27204e-90
5.15472e-90
5.30221e-90
5.14163e-90
5.26593e-90
5.1022e-90
5.31276e-90
5.09043e-90
5.15954e-90
5.20587e-90
5.04492e-90
2.12621e-87
2.09721e-87
2.12958e-87
2.06365e-87
2.1046e-87
2.10423e-87
2.10604e-87
2.04666e-87
2.06773e-87
2.11988e-87
2.07326e-87
2.13175e-87
2.06819e-87
2.11776e-87
2.05229e-87
2.1364e-87
2.04761e-87
2.07515e-87
2.09318e-87
2.02942e-87
5.03276e-85
4.9635e-85
5.03883e-85
4.88541e-85
4.97993e-85
4.98071e-85
4.98453e-85
4.84425e-85
4.89443e-85
5.01718e-85
4.90814e-85
5.04464e-85
4.89665e-85
5.01297e-85
4.85887e-85
5.05662e-85
4.84799e-85
4.91256e-85
4.95375e-85
4.80517e-85
8.27004e-83
8.15531e-83
8.27684e-83
8.02916e-83
8.18042e-83
8.18445e-83
8.18995e-83
7.95996e-83
8.04293e-83
8.24335e-83
8.06643e-83
8.2874e-83
8.04831e-83
8.23777e-83
7.98597e-83
8.30859e-83
7.96852e-83
8.07352e-83
8.13863e-83
7.89859e-83
9.60134e-81
9.46721e-81
9.60553e-81
9.3233e-81
9.49419e-81
9.50207e-81
9.50762e-81
9.24131e-81
9.33832e-81
9.5693e-81
9.36668e-81
9.61921e-81
9.34651e-81
9.56443e-81
9.27375e-81
9.64547e-81
9.25416e-81
9.37459e-81
9.44701e-81
9.17334e-81
7.57781e-79
7.47139e-79
7.57807e-79
7.35975e-79
7.4908e-79
7.49953e-79
7.50333e-79
7.29382e-79
7.37106e-79
7.55155e-79
7.39413e-79
7.58996e-79
7.37877e-79
7.54899e-79
7.32091e-79
7.61179e-79
7.30633e-79
7.39989e-79
7.45431e-79
7.24289e-79
4.02655e-77
3.96999e-77
4.02497e-77
3.91165e-77
3.97911e-77
3.98504e-77
3.98695e-77
3.87612e-77
3.91782e-77
4.01204e-77
3.93025e-77
4.032e-77
3.92219e-77
4.01143e-77
3.89105e-77
4.04399e-77
3.88435e-77
3.93276e-77
3.96005e-77
3.85112e-77
5.5343e-76
5.45876e-76
5.52919e-76
5.37932e-76
5.46791e-76
5.47741e-76
5.48149e-76
5.33073e-76
5.39136e-76
5.51302e-76
5.40708e-76
5.54054e-76
5.39464e-76
5.51354e-76
5.35003e-76
5.55625e-76
5.34704e-76
5.40766e-76
5.44181e-76
5.30381e-76
3.95412e-76
3.9581e-76
3.95233e-76
3.88815e-76
3.93063e-76
3.92602e-76
3.96738e-76
3.87612e-76
3.97879e-76
3.92943e-76
3.94815e-76
3.97022e-76
3.89824e-76
3.93293e-76
3.83845e-76
3.93223e-76
3.93707e-76
3.88935e-76
3.89696e-76
3.94246e-76
6.0238e-76
6.08626e-76
6.12805e-76
6.0381e-76
5.99639e-76
6.03124e-76
6.11792e-76
5.97997e-76
6.16958e-76
6.12003e-76
6.14329e-76
6.13347e-76
6.07368e-76
6.00374e-76
5.95595e-76
6.03552e-76
5.99779e-76
5.99598e-76
6.0427e-76
6.07539e-76
6.90932e-76
6.96731e-76
6.99572e-76
6.88405e-76
6.85683e-76
6.72318e-76
6.87892e-76
6.74887e-76
6.94568e-76
7.11371e-76
7.05243e-76
6.85365e-76
7.03941e-76
6.92348e-76
6.91824e-76
6.96445e-76
6.67157e-76
6.93938e-76
6.8121e-76
6.84396e-76
7.91152e-76
8.07896e-76
8.03862e-76
7.98022e-76
8.03105e-76
8.09604e-76
8.32528e-76
8.01456e-76
8.0525e-76
7.95437e-76
7.98943e-76
7.99526e-76
8.06085e-76
8.04881e-76
7.89802e-76
8.01975e-76
8.07348e-76
7.93793e-76
7.90002e-76
7.93152e-76
8.47298e-76
8.48077e-76
8.551e-76
8.70294e-76
8.61967e-76
8.72342e-76
8.57141e-76
8.71756e-76
8.60233e-76
8.29068e-76
8.40421e-76
8.42264e-76
8.48514e-76
8.32581e-76
8.30082e-76
8.38035e-76
8.33232e-76
8.48966e-76
8.40355e-76
8.57966e-76
8.7172e-76
8.72296e-76
8.88397e-76
8.80277e-76
8.70809e-76
8.8339e-76
8.8415e-76
8.96807e-76
8.71706e-76
8.85769e-76
8.8157e-76
8.82652e-76
8.90147e-76
8.83066e-76
8.76293e-76
9.03806e-76
8.77326e-76
8.67413e-76
8.78493e-76
8.82775e-76
8.54981e-76
8.37636e-76
8.45657e-76
8.38908e-76
8.51902e-76
8.57832e-76
8.59847e-76
8.51822e-76
8.3201e-76
8.38559e-76
8.31042e-76
8.59086e-76
8.53869e-76
8.67802e-76
8.63625e-76
8.63501e-76
8.54686e-76
8.54988e-76
8.44233e-76
8.48534e-76
7.94727e-76
8.0485e-76
7.95461e-76
8.26205e-76
8.0206e-76
8.21447e-76
8.05745e-76
8.1472e-76
8.03412e-76
8.06507e-76
8.053e-76
8.2056e-76
8.06132e-76
8.29825e-76
8.00293e-76
8.18074e-76
8.14806e-76
7.89587e-76
8.17835e-76
8.16699e-76
6.99111e-76
7.28939e-76
7.18145e-76
7.13016e-76
7.04058e-76
7.37532e-76
7.25198e-76
7.26151e-76
7.2077e-76
7.06895e-76
7.20073e-76
7.33951e-76
7.15807e-76
7.48613e-76
7.18706e-76
7.32216e-76
7.38274e-76
7.21757e-76
7.36775e-76
7.37642e-76
6.51931e-76
6.50584e-76
6.47247e-76
6.58293e-76
6.65142e-76
6.62972e-76
6.50123e-76
6.52766e-76
6.70031e-76
6.47818e-76
6.639e-76
6.65216e-76
6.48356e-76
6.71319e-76
6.68426e-76
6.81515e-76
6.59408e-76
6.73263e-76
6.64201e-76
6.82541e-76
4.69747e-76
4.73364e-76
4.70644e-76
4.67023e-76
4.76167e-76
4.72384e-76
4.78323e-76
4.72673e-76
4.77648e-76
4.82271e-76
4.72578e-76
4.85195e-76
4.71297e-76
4.89098e-76
4.72349e-76
4.72334e-76
4.77491e-76
4.8562e-76
4.77396e-76
4.9093e-76
3.41198e-91
3.36588e-91
3.41881e-91
3.31115e-91
3.37854e-91
3.37685e-91
3.38007e-91
3.2846e-91
3.31815e-91
3.40246e-91
3.32659e-91
3.42191e-91
3.31815e-91
3.39836e-91
3.29269e-91
3.42864e-91
3.28495e-91
3.32966e-91
3.35966e-91
3.25557e-91
2.65378e-88
2.61759e-88
2.65812e-88
2.57573e-88
2.62688e-88
2.62643e-88
2.62869e-88
2.55456e-88
2.58081e-88
2.64605e-88
2.58772e-88
2.66086e-88
2.58142e-88
2.64328e-88
2.56157e-88
2.66661e-88
2.5556e-88
2.59006e-88
2.61266e-88
2.53287e-88
1.04733e-85
1.03292e-85
1.04865e-85
1.01668e-85
1.03636e-85