/*--------------------------------*- C++ -*----------------------------------*\
| =========                 |                                                 |
| \\      /  F ield         | OpenFOAM: The Open Source CFD Toolbox           |
|  \\    /   O peration     | Version:  2212                                  |
|   \\  /    A nd           | Website:  www.openfoam.com                      |
|    \\/     M anipulation  |                                                 |
\*---------------------------------------------------------------------------*/
FoamFile
{
    version     2.0;
    format      ascii;
    arch        "LSB;label=32;scalar=64";
    class       volVectorField;
    location    "0.000417";
    object      U;
}
// * * * * * * * * * * * * * * * * * * * * * * * * * * * * * * * * * * * * * //

dimensions      [0 1 -1 0 0 0 0];

internalField   nonuniform List<vector> 
26145
(
(1.90298e-11 0.167247 -7.21021)
(1.14399e-11 0.472948 -4.33128)
(1.10506e-11 0.458089 -3.87568)
(1.23124e-11 0.513055 -3.48793)
(7.58508e-12 0.565403 -3.17052)
(7.04855e-12 0.611555 -2.89856)
(6.35809e-12 0.649163 -2.66909)
(5.00162e-12 0.679971 -2.47347)
(4.46737e-12 0.706169 -2.30143)
(4.02078e-12 0.729662 -2.14727)
(3.60149e-12 0.750895 -2.01018)
(3.20049e-12 0.769443 -1.88728)
(2.84429e-12 0.78543 -1.77481)
(2.13944e-12 0.799303 -1.67181)
(1.89771e-12 0.811574 -1.5758)
(1.67675e-12 0.823415 -1.48051)
(1.41884e-12 0.835525 -1.3777)
(1.12053e-12 0.848187 -1.27043)
(8.3603e-13 0.860864 -1.16632)
(4.91781e-13 0.873065 -1.06851)
(2.69792e-13 0.884288 -0.97746)
(-2.03356e-13 0.894476 -0.890787)
(-3.43674e-13 0.904049 -0.806504)
(-5.02321e-13 0.913659 -0.72359)
(-6.84933e-13 0.92348 -0.641465)
(-8.61249e-13 0.933432 -0.560416)
(-1.09563e-12 0.942958 -0.481271)
(-1.27407e-12 0.951413 -0.404892)
(-1.41158e-12 0.959359 -0.331283)
(-1.60716e-12 0.966959 -0.261359)
(-1.72112e-12 0.975354 -0.19637)
(-2.00351e-12 0.979432 -0.134616)
(-1.89992e-12 0.982965 -0.076058)
(-1.96977e-12 0.981792 -0.0215176)
(-2.08417e-12 0.981353 0.0290712)
(-2.21089e-12 0.990987 0.074702)
(-2.33799e-12 0.996753 0.112177)
(-2.46453e-12 0.998792 0.139586)
(-2.60998e-12 0.999349 0.159223)
(-2.78827e-12 0.998292 0.173583)
(-2.80528e-12 0.994797 0.182858)
(-2.76007e-12 0.988308 0.185805)
(-2.61407e-12 0.979305 0.180552)
(-2.7749e-12 0.968281 0.165057)
(-2.90782e-12 0.956331 0.139371)
(-2.86261e-12 0.944469 0.106076)
(-2.98677e-12 0.933816 0.0678227)
(-2.38829e-12 0.929353 0.0263378)
(-2.23329e-12 0.925954 -0.0129865)
(-2.6443e-12 0.923223 -0.0539885)
(-2.78285e-12 0.915098 -0.0895705)
(-2.74607e-12 0.909933 -0.130306)
(-2.77845e-12 0.903151 -0.163762)
(-2.6201e-12 0.903648 -0.194769)
(-2.71817e-12 0.91146 -0.22317)
(-2.31054e-12 0.912582 -0.224855)
(-1.98906e-12 0.934059 -0.203729)
(-2.36507e-12 0.966268 -0.153193)
(-2.41456e-12 1.00413 -0.0766894)
(-2.39846e-12 1.07211 0.0431086)
(-1.93637e-12 1.18596 0.236835)
(-1.83701e-12 1.32979 0.54115)
(-2.88143e-12 1.49548 0.991505)
(-2.89704e-12 1.69742 1.67402)
(-2.39044e-12 2.01362 2.7956)
(-5.03032e-12 2.51309 4.5616)
(-7.15408e-12 3.30296 6.98912)
(-1.03797e-11 4.76449 10.2013)
(-1.58907e-11 7.74247 14.4241)
(-2.02998e-11 13.5682 20.1299)
(-1.55221e-11 23.9614 28.5017)
(-3.49291e-11 40.3572 41.4909)
(3.11149e-11 0.0601074 -14.8614)
(2.7407e-11 0.593343 -9.97518)
(2.44827e-11 0.9161 -9.10517)
(2.21593e-11 1.16127 -8.39168)
(1.91822e-11 1.35371 -7.77155)
(1.73742e-11 1.50943 -7.19722)
(1.6793e-11 1.6333 -6.6887)
(1.2362e-11 1.73291 -6.24217)
(1.08567e-11 1.81668 -5.84082)
(9.90311e-12 1.89038 -5.47231)
(8.87822e-12 1.95489 -5.13604)
(7.99033e-12 2.01013 -4.82939)
(8.29263e-12 2.05778 -4.54595)
(5.83663e-12 2.09926 -4.28455)
(4.63494e-12 2.13626 -4.04067)
(4.1771e-12 2.17232 -3.79867)
(3.53888e-12 2.21085 -3.53727)
(2.78145e-12 2.25183 -3.26153)
(2.10339e-12 2.29221 -2.99079)
(1.13132e-12 2.33019 -2.73405)
(1.68299e-12 2.36495 -2.49351)
(2.35014e-13 2.39725 -2.26396)
(-1.00655e-12 2.42839 -2.04022)
(-1.41376e-12 2.45954 -1.81907)
(-1.91149e-12 2.49095 -1.59866)
(-2.32738e-12 2.52229 -1.37939)
(-3.04048e-12 2.55256 -1.16351)
(-3.47488e-12 2.58084 -0.953899)
(-3.77005e-12 2.60793 -0.750331)
(-4.28149e-12 2.6336 -0.554459)
(-3.47283e-12 2.65715 -0.369572)
(-3.69262e-12 2.67855 -0.194954)
(-4.93809e-12 2.69941 -0.0279174)
(-5.3022e-12 2.71618 0.130535)
(-5.6405e-12 2.72906 0.279093)
(-5.9899e-12 2.74529 0.41751)
(-6.33301e-12 2.76015 0.536432)
(-6.60152e-12 2.77126 0.628671)
(-6.37635e-12 2.77885 0.69973)
(-6.50782e-12 2.78373 0.75752)
(-6.23888e-12 2.78555 0.804093)
(-6.10295e-12 2.78303 0.837344)
(-6.86955e-12 2.77184 0.851727)
(-7.03455e-12 2.75305 0.841504)
(-7.04676e-12 2.73085 0.805862)
(-7.05335e-12 2.70645 0.749728)
(-6.44333e-12 2.68129 0.678991)
(-6.25529e-12 2.65799 0.598547)
(-6.82236e-12 2.63715 0.516564)
(-6.96086e-12 2.62253 0.429582)
(-6.90922e-12 2.60593 0.347461)
(-7.00732e-12 2.60185 0.25994)
(-6.93366e-12 2.59567 0.187415)
(-7.0553e-12 2.60537 0.126752)
(-6.39773e-12 2.61821 0.0852864)
(-6.04892e-12 2.62706 0.0929267)
(-6.94e-12 2.67587 0.157864)
(-7.01777e-12 2.76328 0.290707)
(-6.95326e-12 2.87747 0.491972)
(-7.06437e-12 3.03582 0.81398)
(-7.42174e-12 3.2441 1.32901)
(-7.77797e-12 3.47805 2.09499)
(-8.5346e-12 3.76558 3.20832)
(-9.68081e-12 4.12984 4.93766)
(-1.14701e-11 4.63581 7.70002)
(-1.49393e-11 5.46121 11.8514)
(-2.01721e-11 6.99702 17.4006)
(-2.77977e-11 10.0056 24.445)
(-3.80146e-11 15.6203 32.9539)
(-5.04079e-11 24.7569 42.4057)
(-3.92407e-11 37.7426 52.0832)
(-4.34578e-11 53.5762 60.611)
(4.04338e-11 0.684885 -19.4863)
(3.85425e-11 1.17414 -13.9439)
(3.32219e-11 1.55529 -12.8677)
(2.96009e-11 1.89301 -11.9656)
(2.67529e-11 2.17046 -11.1771)
(2.40693e-11 2.40268 -10.4374)
(2.31691e-11 2.59197 -9.76926)
(1.91166e-11 2.74597 -9.16821)
(1.57655e-11 2.87603 -8.61675)
(1.41493e-11 2.98991 -8.1004)
(1.25397e-11 3.08881 -7.61987)
(1.10894e-11 3.17347 -7.17479)
(1.16343e-11 3.24714 -6.75964)
(9.62554e-12 3.31199 -6.37464)
(6.92182e-12 3.37025 -6.0141)
(6.08592e-12 3.42689 -5.65489)
(5.09836e-12 3.48777 -5.26618)
(4.02964e-12 3.55307 -4.85477)
(4.94498e-12 3.61746 -4.44841)
(3.00011e-12 3.67782 -4.06045)
(2.08435e-12 3.73315 -3.69499)
(1.18378e-12 3.78498 -3.34514)
(-1.57122e-12 3.83541 -3.00354)
(-2.25783e-12 3.88572 -2.6651)
(-3.02894e-12 3.9361 -2.32669)
(-1.77214e-12 3.98604 -1.9886)
(-2.94821e-12 4.03445 -1.65429)
(-5.54265e-12 4.08065 -1.32862)
(-3.97632e-12 4.12524 -1.01118)
(-4.79668e-12 4.16776 -0.704188)
(-7.3394e-12 4.20729 -0.412922)
(-7.60394e-12 4.24497 -0.136173)
(-7.84161e-12 4.28159 0.129456)
(-8.2362e-12 4.31354 0.382948)
(-8.72254e-12 4.34212 0.623098)
(-9.27044e-12 4.37141 0.849519)
(-9.81202e-12 4.39935 1.04831)
(-1.01808e-11 4.42142 1.20679)
(-8.18128e-12 4.43774 1.33307)
(-8.22653e-12 4.45073 1.44071)
(-1.06916e-11 4.46093 1.53415)
(-1.1026e-11 4.46789 1.61174)
(-1.10777e-11 4.46935 1.66845)
(-1.08882e-11 4.45557 1.68901)
(-1.08497e-11 4.43122 1.66801)
(-1.08857e-11 4.4028 1.61584)
(-1.10544e-11 4.37249 1.5409)
(-1.11139e-11 4.34319 1.4494)
(-1.05833e-11 4.31663 1.35115)
(-1.08105e-11 4.29803 1.24381)
(-1.052e-11 4.27844 1.13949)
(-1.08496e-11 4.27739 1.02895)
(-1.06043e-11 4.2724 0.938711)
(-1.13542e-11 4.29331 0.86632)
(-1.11485e-11 4.30965 0.822178)
(-1.05887e-11 4.32923 0.837935)
(-1.03644e-11 4.3864 0.925079)
(-9.88109e-12 4.49534 1.10355)
(-1.14159e-11 4.67717 1.40426)
(-1.14831e-11 4.89297 1.87409)
(-1.18792e-11 5.13067 2.59666)
(-1.23474e-11 5.39046 3.6575)
(-1.35447e-11 5.69797 5.17549)
(-1.31122e-11 6.0891 7.49979)
(-1.57202e-11 6.65963 11.1202)
(-2.29683e-11 7.6968 16.3692)
(-2.98126e-11 9.72085 23.0937)
(-3.98738e-11 13.5673 31.1064)
(-5.18814e-11 20.1374 40.1141)
(-6.47562e-11 29.1516 48.9492)
(-6.48764e-11 39.6932 56.9891)
(-7.30624e-11 51.165 63.8146)
(4.65982e-11 1.46374 -22.5066)
(4.43749e-11 1.86693 -16.6911)
(3.94626e-11 2.27437 -15.5459)
(3.44783e-11 2.66508 -14.5722)
(3.1101e-11 2.99967 -13.7247)
(2.78803e-11 3.28237 -12.9047)
(2.45508e-11 3.51472 -12.1435)
(2.13773e-11 3.70491 -11.4432)
(1.89334e-11 3.86642 -10.79)
(1.68364e-11 4.00861 -10.1694)
(1.47197e-11 4.13317 -9.58362)
(1.30297e-11 4.24106 -9.03475)
(1.11414e-11 4.33595 -8.51842)
(9.68861e-12 4.4201 -8.03644)
(8.4375e-12 4.49607 -7.58314)
(7.32117e-12 4.57002 -7.1303)
(6.031e-12 4.64949 -6.6392)
(4.5193e-12 4.73462 -6.11743)
(5.20471e-12 4.8187 -5.59967)
(3.84318e-12 4.89784 -5.10317)
(2.29346e-13 4.9708 -4.63374)
(1.8168e-12 5.0395 -4.18322)
(3.20448e-13 5.10649 -3.74256)
(-3.3627e-12 5.17327 -3.30521)
(-4.3496e-12 5.24021 -2.86695)
(-3.37316e-12 5.30681 -2.42793)
(-3.96581e-12 5.37181 -1.99249)
(-7.40053e-12 5.43434 -1.56714)
(-5.95734e-12 5.49493 -1.1515)
(-6.2686e-12 5.55286 -0.74855)
(-9.11304e-12 5.60585 -0.36511)
(-9.72829e-12 5.65551 0.00116173)
(-1.00761e-11 5.70447 0.352798)
(-1.06595e-11 5.7496 0.689282)
(-1.13089e-11 5.7933 1.01118)
(-1.20548e-11 5.83765 1.31649)
(-1.28535e-11 5.8842 1.589)
(-1.3511e-11 5.91989 1.80942)
(-1.25836e-11 5.94771 1.98855)
(-1.23526e-11 5.97289 2.14598)
(-1.40693e-11 5.99652 2.28877)
(-1.43731e-11 6.01798 2.4153)
(-1.45351e-11 6.03836 2.52295)
(-1.39039e-11 6.05202 2.59647)
(-1.42189e-11 6.04144 2.60852)
(-1.5839e-11 6.02351 2.57663)
(-1.64819e-11 6.00118 2.51618)
(-1.62958e-11 5.97758 2.43377)
(-1.60152e-11 5.95591 2.33926)
(-1.61549e-11 5.94273 2.23078)
(-1.59663e-11 5.92707 2.12327)
(-1.62562e-11 5.93415 2.0067)
(-1.60352e-11 5.9314 1.91374)
(-1.56036e-11 5.96088 1.84087)
(-1.58109e-11 5.97192 1.79983)
(-1.44292e-11 5.98309 1.81783)
(-1.2571e-11 6.02283 1.90387)
(-1.15416e-11 6.12537 2.09466)
(-1.3171e-11 6.33082 2.4479)
(-1.56208e-11 6.54551 2.98457)
(-1.58112e-11 6.77109 3.80384)
(-1.40125e-11 7.00599 4.99743)
(-1.55761e-11 7.26921 6.69342)
(-1.75935e-11 7.62769 9.24515)
(-2.03593e-11 8.20125 13.1142)
(-2.82637e-11 9.32766 18.5086)
(-3.16587e-11 11.5398 25.169)
(-4.17244e-11 15.3665 32.619)
(-5.64621e-11 21.0893 40.4112)
(-6.75618e-11 28.6564 48.22)
(-7.76e-11 37.4379 55.6886)
(-8.85348e-11 46.6168 62.3744)
(4.9116e-11 2.24846 -24.4905)
(4.57128e-11 2.61489 -18.561)
(4.30818e-11 3.03228 -17.4333)
(4.09639e-11 3.44579 -16.4514)
(3.506e-11 3.81204 -15.6061)
(2.9388e-11 4.12108 -14.7584)
(2.62711e-11 4.37732 -13.9472)
(2.32612e-11 4.58908 -13.1851)
(2.07055e-11 4.77075 -12.4633)
(2.10274e-11 4.93256 -11.7692)
(1.88016e-11 5.07615 -11.107)
(1.66355e-11 5.2021 -10.4809)
(1.48651e-11 5.31402 -9.88755)
(1.03447e-11 5.41399 -9.3305)
(9.17363e-12 5.50463 -8.80459)
(7.96119e-12 5.59302 -8.27792)
(6.52351e-12 5.68801 -7.70562)
(4.89292e-12 5.78967 -7.09571)
(3.08379e-12 5.89019 -6.48835)
(1.55221e-12 5.98508 -5.90387)
(-1.45338e-13 6.07294 -5.34961)
(8.92423e-13 6.15598 -4.81659)
(-7.80542e-15 6.23699 -4.29455)
(-3.91402e-12 6.3177 -3.77584)
(-1.98181e-12 6.39861 -3.2552)
(-3.56795e-12 6.47922 -2.73251)
(-4.29126e-12 6.5582 -2.21275)
(-2.46459e-12 6.63446 -1.70389)
(-6.70445e-12 6.70855 -1.20577)
(-1.01451e-11 6.7796 -0.721953)
(-7.53691e-12 6.84502 -0.259361)
(-8.37718e-12 6.90862 0.184349)
(-1.20178e-11 6.96986 0.610297)
(-1.26521e-11 7.02813 1.01849)
(-1.34241e-11 7.08526 1.41113)
(-1.43153e-11 7.14185 1.7846)
(-1.50287e-11 7.19557 2.11793)
(-1.26007e-11 7.24116 2.39209)
(-1.37207e-11 7.28048 2.61914)
(-1.67643e-11 7.32262 2.82434)
(-1.69559e-11 7.36269 3.0144)
(-1.72111e-11 7.40085 3.18884)
(-1.75688e-11 7.44139 3.34749)
(-1.66803e-11 7.48137 3.47768)
(-1.66836e-11 7.51148 3.55116)
(-1.62467e-11 7.51125 3.5491)
(-1.71237e-11 7.50726 3.51257)
(-1.88257e-11 7.49935 3.4503)
(-1.9072e-11 7.49135 3.37278)
(-1.90534e-11 7.49061 3.27712)
(-1.90861e-11 7.48572 3.18069)
(-1.95081e-11 7.50077 3.07096)
(-1.96138e-11 7.50154 2.98481)
(-1.85565e-11 7.52914 2.91274)
(-1.67751e-11 7.53358 2.86839)
(-1.58041e-11 7.52996 2.88499)
(-1.50134e-11 7.54574 2.96333)
(-1.46127e-11 7.62443 3.14674)
(-1.38221e-11 7.816 3.49713)
(-1.64608e-11 8.01039 4.03386)
(-1.95911e-11 8.20753 4.85915)
(-1.77269e-11 8.40546 6.05673)
(-1.86079e-11 8.62184 7.75583)
(-2.31711e-11 8.94132 10.274)
(-2.65066e-11 9.4953 13.9862)
(-3.20925e-11 10.5982 19.0255)
(-3.47333e-11 12.6676 24.9835)
(-4.39872e-11 16.1441 31.6644)
(-5.01183e-11 21.2358 38.8053)
(-6.21861e-11 27.6074 45.912)
(-6.80871e-11 34.7303 52.763)
(-7.96974e-11 41.9603 59.0567)
(5.14267e-11 3.02544 -25.715)
(4.57453e-11 3.36883 -19.9682)
(4.26823e-11 3.77731 -18.7442)
(4.10677e-11 4.21225 -17.7887)
(3.57089e-11 4.59052 -16.9634)
(2.98664e-11 4.90907 -16.1141)
(2.68927e-11 5.17681 -15.2782)
(2.6418e-11 5.40143 -14.4793)
(2.39775e-11 5.59668 -13.7137)
(2.29862e-11 5.77249 -12.9704)
(2.17587e-11 5.93023 -12.2548)
(1.55853e-11 6.07015 -11.5729)
(1.48556e-11 6.19565 -10.9227)
(1.05433e-11 6.30844 -10.3091)
(9.28606e-12 6.41107 -9.72791)
(8.14619e-12 6.51126 -9.14458)
(6.62661e-12 6.61888 -8.50971)
(4.93467e-12 6.73389 -7.83156)
(3.16271e-12 6.84768 -7.15437)
(1.47103e-12 6.95539 -6.50086)
(-1.83904e-13 7.05548 -5.87957)
(-1.85359e-12 7.15029 -5.2811)
(-3.18972e-12 7.24277 -4.69443)
(-4.78671e-12 7.33477 -4.11099)
(-4.63067e-13 7.42691 -3.52462)
(-1.61297e-12 7.51872 -2.93478)
(-6.8841e-12 7.60879 -2.34687)
(-4.9905e-12 7.69587 -1.77023)
(-8.05815e-12 7.78054 -1.20499)
(-1.17019e-11 7.86198 -0.655193)
(-9.68222e-12 7.93794 -0.126056)
(-9.95975e-12 8.01332 0.382326)
(-1.34315e-11 8.08458 0.869793)
(-1.41568e-11 8.15366 1.3387)
(-1.50478e-11 8.2219 1.79131)
(-1.59019e-11 8.2896 2.22338)
(-1.32802e-11 8.35347 2.61092)
(-8.17132e-12 8.40866 2.93217)
(-1.22093e-11 8.45627 3.20013)
(-1.87704e-11 8.50194 3.44173)
(-1.89089e-11 8.54915 3.66993)
(-1.92968e-11 8.60235 3.88746)
(-1.9767e-11 8.66374 4.09472)
(-2.07373e-11 8.72542 4.27693)
(-2.07974e-11 8.785 4.41102)
(-1.95427e-11 8.82681 4.47032)
(-2.01119e-11 8.84229 4.46427)
(-2.17537e-11 8.85211 4.43151)
(-2.17876e-11 8.86018 4.37917)
(-2.11769e-11 8.87327 4.30582)
(-2.11885e-11 8.88288 4.22806)
(-1.96623e-11 8.90462 4.13311)
(-1.97993e-11 8.91459 4.05828)
(-2.10738e-11 8.93938 3.99249)
(-2.05931e-11 8.94899 3.94964)
(-2.08415e-11 8.94267 3.96274)
(-2.04319e-11 8.94419 4.0254)
(-2.02483e-11 8.99127 4.18311)
(-1.96777e-11 9.15334 4.50111)
(-1.95728e-11 9.32754 4.99122)
(-2.22458e-11 9.49836 5.7542)
(-2.27439e-11 9.66369 6.86891)
(-2.36605e-11 9.84551 8.45805)
(-2.56245e-11 10.1189 10.7946)
(-2.87866e-11 10.6407 14.1722)
(-3.35068e-11 11.6795 18.6983)
(-3.50118e-11 13.5346 24.0493)
(-4.458e-11 16.5535 30.0709)
(-4.48582e-11 20.8498 36.5199)
(-5.7168e-11 26.0392 42.9648)
(-7.13447e-11 31.6493 49.1373)
(-7.91999e-11 37.2569 54.7995)
(5.27897e-11 3.71451 -26.544)
(4.44227e-11 4.05062 -20.8265)
(3.99192e-11 4.4906 -19.6187)
(3.62609e-11 4.92348 -18.7024)
(3.27875e-11 5.2939 -17.8973)
(2.92665e-11 5.61078 -17.0533)
(2.60652e-11 5.88207 -16.2064)
(2.75424e-11 6.11365 -15.3879)
(2.62803e-11 6.31768 -14.5968)
(1.89997e-11 6.50339 -13.8232)
(1.88056e-11 6.67185 -13.0732)
(1.65687e-11 6.82297 -12.3537)
(1.58989e-11 6.95967 -11.6639)
(1.36047e-11 7.08321 -11.0103)
(1.27181e-11 7.19595 -10.3894)
(7.79221e-12 7.3061 -9.765)
(6.41018e-12 7.42433 -9.08464)
(4.78401e-12 7.5505 -8.35663)
(3.03517e-12 7.67541 -7.62807)
(1.27798e-12 7.79395 -6.92326)
(-4.38391e-13 7.90444 -6.25172)
(-2.0986e-12 8.00926 -5.60389)
(-3.52374e-12 8.11137 -4.96835)
(-1.8118e-12 8.21269 -4.33585)
(-1.00018e-12 8.3139 -3.69937)
(-5.3026e-12 8.41458 -3.05792)
(-6.13248e-12 8.51325 -2.41713)
(-7.31406e-12 8.60855 -1.7875)
(-1.15787e-11 8.70121 -1.16959)
(-1.23101e-11 8.79064 -0.5674)
(-1.3056e-11 8.87566 0.0154536)
(-1.35344e-11 8.95954 0.576017)
(-1.4432e-11 9.03903 1.11302)
(-1.51759e-11 9.11674 1.6318)
(-1.63921e-11 9.19391 2.13393)
(-1.74853e-11 9.27082 2.61497)
(-1.58235e-11 9.34367 3.04892)
(-1.35088e-11 9.40728 3.41125)
(-1.26672e-11 9.46269 3.71558)
(-1.65888e-11 9.51551 3.99139)
(-2.03666e-11 9.56997 4.25335)
(-2.0813e-11 9.62859 4.50387)
(-2.11365e-11 9.69539 4.74558)
(-2.20162e-11 9.77611 4.9736)
(-2.22421e-11 9.86162 5.16146)
(-2.28364e-11 9.93582 5.28157)
(-1.97165e-11 9.99026 5.32944)
(-1.78504e-11 10.0242 5.3322)
(-2.01255e-11 10.0481 5.31154)
(-2.17758e-11 10.0734 5.2679)
(-1.98119e-11 10.0994 5.21618)
(-2.00679e-11 10.1303 5.14413)
(-2.2752e-11 10.1575 5.08828)
(-2.37493e-11 10.1871 5.03397)
(-2.52292e-11 10.2145 4.99837)
(-2.47338e-11 10.2139 5.00831)
(-2.4754e-11 10.2124 5.05248)
(-2.41479e-11 10.2359 5.17692)
(-2.04381e-11 10.3645 5.45139)
(-1.71136e-11 10.5148 5.87658)
(-2.12792e-11 10.6701 6.53655)
(-2.48425e-11 10.8163 7.5186)
(-2.57269e-11 10.9767 8.92741)
(-2.73288e-11 11.2103 11.0094)
(-3.03266e-11 11.679 13.998)
(-3.48096e-11 12.6071 17.9661)
(-3.65689e-11 14.2079 22.7045)
(-4.47855e-11 16.6945 28.053)
(-5.13493e-11 20.142 33.7372)
(-6.06155e-11 24.2284 39.4244)
(-7.49221e-11 28.6144 44.9229)
(-8.14584e-11 33.0098 49.9692)
(4.72667e-11 4.32797 -27.0163)
(4.17006e-11 4.64551 -21.3299)
(3.79325e-11 5.09642 -20.1845)
(3.45769e-11 5.51106 -19.2916)
(3.12875e-11 5.8701 -18.4968)
(2.79169e-11 6.18236 -17.6573)
(2.45712e-11 6.45436 -16.8071)
(2.35471e-11 6.6902 -15.98)
(2.54393e-11 6.90035 -15.1765)
(2.01429e-11 7.09341 -14.3869)
(1.463e-11 7.27034 -13.6169)
(1.48861e-11 7.43078 -12.8743)
(1.4566e-11 7.57715 -12.1591)
(1.52275e-11 7.71019 -11.479)
(1.56133e-11 7.83201 -10.8315)
(7.26391e-12 7.95115 -10.1793)
(6.07821e-12 8.07898 -9.46795)
(4.53985e-12 8.21517 -8.70585)
(2.816e-12 8.35005 -7.9418)
(9.82786e-13 8.47828 -7.2011)
(-8.288e-13 8.59808 -6.49393)
(-2.71252e-12 8.71178 -5.81081)
(-4.36971e-12 8.82226 -5.1402)
(-3.62238e-12 8.93142 -4.47234)
(-4.41271e-12 9.04003 -3.7995)
(-8.68839e-12 9.14768 -3.12018)
(-3.70479e-12 9.25292 -2.44005)
(-4.283e-12 9.35438 -1.77061)
(-1.21625e-11 9.45295 -1.11283)
(-1.25353e-11 9.54842 -0.470047)
(-1.32454e-11 9.64101 0.154393)
(-1.39161e-11 9.73096 0.755367)
(-1.4631e-11 9.81698 1.33132)
(-1.14914e-11 9.90143 1.88974)
(-1.31426e-11 9.98561 2.43165)
(-1.80131e-11 10.0698 2.95253)
(-1.91548e-11 10.1501 3.42503)
(-2.03046e-11 10.2209 3.8223)
(-1.75074e-11 10.2833 4.15819)
(-1.80515e-11 10.343 4.46439)
(-2.11457e-11 10.4046 4.75681)
(-2.15842e-11 10.4705 5.03814)
(-1.75505e-11 10.5444 5.31151)
(-1.90092e-11 10.6301 5.57151)
(-2.32737e-11 10.7272 5.79729)
(-2.39993e-11 10.8301 5.97224)
(-2.1983e-11 10.9176 6.07595)
(-2.15469e-11 10.9887 6.12612)
(-2.27041e-11 11.0408 6.14543)
(-2.35122e-11 11.0812 6.13598)
(-2.25003e-11 11.1259 6.11744)
(-2.13353e-11 11.1675 6.07329)
(-2.2854e-11 11.2197 6.04488)
(-2.18339e-11 11.2563 6.00617)
(-2.35737e-11 11.3135 5.98762)
(-2.56025e-11 11.3328 6.00131)
(-2.65238e-11 11.3423 6.0307)
(-2.61522e-11 11.3635 6.12747)
(-2.37331e-11 11.4606 6.34433)
(-2.07632e-11 11.5912 6.7065)
(-2.36293e-11 11.7328 7.25907)
(-2.64645e-11 11.8764 8.08378)
(-2.7473e-11 12.0302 9.28144)
(-2.84e-11 12.245 11.0691)
(-3.1409e-11 12.6456 13.6463)
(-3.46454e-11 13.4302 17.0569)
(-4.04389e-11 14.7523 21.1344)
(-4.66276e-11 16.7357 25.7705)
(-5.37143e-11 19.4212 30.7339)
(-6.12652e-11 22.6031 35.7145)
(-6.77154e-11 26.0168 40.5533)
(-7.29509e-11 29.4673 45.0225)
(4.24128e-11 4.8011 -27.2423)
(4.12375e-11 5.10924 -21.622)
(3.53444e-11 5.55337 -20.5152)
(3.25627e-11 5.94922 -19.6325)
(2.95871e-11 6.29928 -18.8437)
(2.64585e-11 6.60679 -18.0111)
(2.33063e-11 6.87846 -17.1623)
(2.01759e-11 7.11689 -16.3335)
(2.02505e-11 7.33115 -15.5259)
(1.92952e-11 7.52935 -14.7297)
(1.40804e-11 7.7126 -13.9499)
(1.21974e-11 7.88052 -13.1944)
(1.09097e-11 8.03507 -12.464)
(1.46188e-11 8.17643 -11.7675)
(1.55738e-11 8.3064 -11.1031)
(6.8671e-12 8.4337 -10.4331)
(5.84372e-12 8.57017 -9.70192)
(4.3591e-12 8.71518 -8.91789)
(2.70581e-12 8.8587 -8.13067)
(1.0695e-12 8.99525 -7.36601)
(2.77898e-12 9.12301 -6.63459)
(1.26843e-12 9.24418 -5.92718)
(-5.66322e-13 9.36149 -5.23236)
(-2.19352e-12 9.47678 -4.54005)
(-7.30342e-12 9.59097 -3.84188)
(-8.89307e-12 9.70375 -3.13586)
(-7.57749e-12 9.81375 -2.42755)
(-3.84571e-12 9.91963 -1.72929)
(-8.25492e-12 10.0224 -1.0424)
(-1.25019e-11 10.1224 -0.368942)
(-1.32086e-11 10.2208 0.286557)
(-1.40288e-11 10.3152 0.917456)
(-1.51171e-11 10.406 1.5231)
(-1.328e-11 10.4956 2.11206)
(-1.42161e-11 10.5851 2.68496)
(-1.7929e-11 10.6749 3.23729)
(-1.49182e-11 10.761 3.74082)
(-1.61823e-11 10.8377 4.16688)
(-2.04832e-11 10.906 4.52929)
(-2.07596e-11 10.972 4.86145)
(-1.70577e-11 11.0401 5.18029)
(-1.84899e-11 11.113 5.48884)
(-1.95886e-11 11.1943 5.79093)
(-2.02597e-11 11.2879 6.08145)
(-2.39157e-11 11.393 6.33844)
(-2.42387e-11 11.5045 6.54549)
(-2.07852e-11 11.6185 6.69956)
(-2.30325e-11 11.7235 6.7982)
(-2.55806e-11 11.8098 6.85968)
(-2.53558e-11 11.8779 6.89048)
(-2.62256e-11 11.9467 6.91074)
(-2.58401e-11 12.0019 6.8971)
(-2.54187e-11 12.0842 6.905)
(-2.47937e-11 12.1337 6.88496)
(-2.53193e-11 12.2247 6.89262)
(-2.33263e-11 12.2754 6.91655)
(-2.48961e-11 12.3141 6.94358)
(-2.70667e-11 12.3518 7.02224)
(-2.71563e-11 12.4339 7.18541)
(-2.73439e-11 12.5597 7.48146)
(-2.7218e-11 12.6895 7.93981)
(-2.33321e-11 12.8319 8.62006)
(-2.46542e-11 12.9952 9.60442)
(-2.47169e-11 13.2088 11.0904)
(-2.81381e-11 13.559 13.2601)
(-2.9667e-11 14.1994 16.1466)
(-3.55981e-11 15.2628 19.6001)
(-4.42362e-11 16.8224 23.5402)
(-4.34297e-11 18.8826 27.8141)
(-5.14431e-11 21.3163 32.1478)
(-6.21767e-11 23.9401 36.3743)
(-6.65618e-11 26.6166 40.2938)
(3.92356e-11 5.10285 -27.2774)
(4.06696e-11 5.44312 -21.7704)
(3.29399e-11 5.87638 -20.6855)
(3.07137e-11 6.25264 -19.8041)
(2.80695e-11 6.59237 -19.0169)
(2.52794e-11 6.89479 -18.1909)
(2.26022e-11 7.16497 -17.3455)
(2.26538e-11 7.40425 -16.5187)
(2.12032e-11 7.62054 -15.7118)
(1.58382e-11 7.82152 -14.9147)
(1.38321e-11 8.00862 -14.1316)
(1.22038e-11 8.18171 -13.3699)
(1.35328e-11 8.34239 -12.6312)
(1.47569e-11 8.49028 -11.9249)
(1.14064e-11 8.62679 -11.2502)
(6.89432e-12 8.76066 -10.5693)
(5.84594e-12 8.904 -9.8262)
(4.30168e-12 9.05585 -9.02883)
(2.64574e-12 9.20592 -8.22715)
(8.61447e-13 9.34872 -7.44707)
(4.69396e-12 9.4824 -6.69958)
(3.7437e-12 9.60903 -5.97584)
(-2.52402e-12 9.73109 -5.26472)
(-2.7685e-12 9.85045 -4.55596)
(-6.92571e-12 9.96823 -3.84073)
(-8.35197e-12 10.0844 -3.11653)
(-9.83228e-12 10.1977 -2.38879)
(-4.14672e-12 10.3068 -1.67048)
(-4.77412e-12 10.4127 -0.963103)
(-1.22459e-11 10.5159 -0.267082)
(-1.28887e-11 10.6187 0.410762)
(-1.37517e-11 10.7161 1.06287)
(-1.46467e-11 10.8106 1.6905)
(-1.60125e-11 10.904 2.30234)
(-1.65361e-11 10.9975 2.89873)
(-1.36442e-11 11.0916 3.47522)
(-1.23138e-11 11.1823 4.00311)
(-1.68138e-11 11.2639 4.45228)
(-2.02641e-11 11.3373 4.83641)
(-2.11628e-11 11.4087 5.19013)
(-1.83639e-11 11.4829 5.53122)
(-1.89945e-11 11.5623 5.86303)
(-2.22877e-11 11.651 6.19014)
(-1.83565e-11 11.753 6.50807)
(-2.01016e-11 11.8675 6.7942)
(-2.46695e-11 11.99 7.03111)
(-2.23095e-11 12.1162 7.2167)
(-2.33768e-11 12.2423 7.35329)
(-2.59648e-11 12.3618 7.45648)
(-2.58132e-11 12.4625 7.52713)
(-2.23607e-11 12.5608 7.58638)
(-2.46928e-11 12.6411 7.6098)
(-2.77971e-11 12.7518 7.65658)
(-2.81527e-11 12.8266 7.66383)
(-2.80404e-11 12.9486 7.70226)
(-2.16551e-11 13.0361 7.74139)
(-1.91512e-11 13.1143 7.7794)
(-2.4102e-11 13.1874 7.85277)
(-2.74964e-11 13.2764 7.97669)
(-2.78421e-11 13.411 8.2128)
(-2.36368e-11 13.5476 8.58316)
(-2.18777e-11 13.6902 9.14559)
(-2.64681e-11 13.861 9.9498)
(-2.69706e-11 14.0887 11.1571)
(-2.91943e-11 14.4167 12.941)
(-3.05607e-11 14.9478 15.3519)
(-3.49697e-11 15.7892 18.253)
(-4.243e-11 17.0068 21.5607)
(-4.21521e-11 18.5916 25.1844)
(-4.82535e-11 20.4383 28.9032)
(-5.73795e-11 22.427 32.5536)
(-6.18714e-11 24.4703 35.9544)
(3.51712e-11 5.31804 -27.199)
(3.61003e-11 5.67564 -21.8381)
(3.13875e-11 6.09412 -20.7573)
(2.92703e-11 6.4512 -19.8723)
(2.68405e-11 6.78063 -19.0844)
(2.43069e-11 7.07763 -18.2638)
(2.15828e-11 7.34501 -17.4221)
(2.0752e-11 7.58333 -16.5982)
(2.01438e-11 7.79957 -15.794)
(1.54239e-11 8.00101 -14.9991)
(1.36104e-11 8.18943 -14.2165)
(1.17338e-11 8.36517 -13.4525)
(1.22029e-11 8.52954 -12.7091)
(1.20354e-11 8.68163 -11.9969)
(8.35875e-12 8.82247 -11.3157)
(7.11783e-12 8.96069 -10.628)
(5.9278e-12 9.10855 -9.87745)
(4.28156e-12 9.26465 -9.07207)
(2.55491e-12 9.41864 -8.26146)
(6.23253e-13 9.56511 -7.47151)
(9.72289e-13 9.70221 -6.71343)
(4.16727e-12 9.83191 -5.97866)
(2.85053e-12 9.95649 -5.2565)
(-1.5283e-12 10.0779 -4.53673)
(-6.5662e-12 10.1975 -3.81006)
(-7.64351e-12 10.3155 -3.07351)
(-5.31503e-12 10.4312 -2.33224)
(-4.0843e-12 10.5429 -1.59994)
(-8.14106e-12 10.651 -0.878425)
(-1.16193e-11 10.7565 -0.166186)
(-1.22493e-11 10.8619 0.527489)
(-1.29372e-11 10.9615 1.19438)
(-9.85781e-12 11.0587 1.83816)
(-1.14973e-11 11.155 2.467)
(-1.63035e-11 11.2516 3.08106)
(-1.44443e-11 11.349 3.67598)
(-1.54856e-11 11.4435 4.22284)
(-1.87747e-11 11.5291 4.69047)
(-1.52983e-11 11.6069 5.09226)
(-1.65717e-11 11.6832 5.4638)
(-2.08302e-11 11.7629 5.82351)
(-2.12552e-11 11.8486 6.17504)
(-2.21112e-11 11.9444 6.52369)
(-1.96828e-11 12.0548 6.86567)
(-2.057e-11 12.1791 7.17802)
(-2.43117e-11 12.313 7.44253)
(-2.48766e-11 12.4532 7.65728)
(-2.54066e-11 12.5959 7.82526)
(-2.61086e-11 12.735 7.95601)
(-2.63093e-11 12.8651 8.06132)
(-2.38436e-11 12.9939 8.15657)
(-2.53088e-11 13.1092 8.22348)
(-2.75618e-11 13.2461 8.30576)
(-2.33707e-11 13.3582 8.35236)
(-2.02329e-11 13.5071 8.4217)
(-2.26967e-11 13.634 8.48301)
(-2.40449e-11 13.7542 8.53962)
(-2.63511e-11 13.872 8.61772)
(-2.84159e-11 13.9918 8.72422)
(-2.87737e-11 14.1461 8.91302)
(-2.5604e-11 14.306 9.20915)
(-2.62888e-11 14.4669 9.66615)
(-2.43526e-11 14.6448 10.328)
(-2.66406e-11 14.8821 11.309)
(-3.16543e-11 15.209 12.7539)
(-3.37085e-11 15.6753 14.7325)
(-3.67114e-11 16.3467 17.1489)
(-3.97959e-11 17.2922 19.9178)
(-4.41709e-11 18.5093 22.955)
(-4.82435e-11 19.9146 26.0891)
(-5.26543e-11 21.4212 29.1876)
(-5.67392e-11 22.974 32.0981)
(3.34346e-11 5.49651 -27.0694)
(3.27873e-11 5.8479 -21.8535)
(3.02454e-11 6.24516 -20.7746)
(2.81045e-11 6.58247 -19.8871)
(2.58874e-11 6.89943 -19.0996)
(2.38172e-11 7.18879 -18.2872)
(2.15404e-11 7.45112 -17.4513)
(1.89101e-11 7.68646 -16.6314)
(1.97531e-11 7.9008 -15.8301)
(1.84597e-11 8.10106 -15.0369)
(1.33975e-11 8.28924 -14.2541)
(1.20976e-11 8.46569 -13.4885)
(1.07279e-11 8.63148 -12.7425)
(1.00079e-11 8.7853 -12.0271)
(8.74735e-12 8.92791 -11.3424)
(1.02176e-11 9.06791 -10.6509)
(9.3595e-12 9.21762 -9.89591)
(4.10965e-12 9.37547 -9.08475)
(5.51877e-12 9.53112 -8.26702)
(7.26828e-12 9.67906 -7.46914)
(2.60762e-12 9.8173 -6.70308)
(5.22909e-14 9.94782 -5.96055)
(9.01731e-13 10.073 -5.23032)
(1.14242e-12 10.1949 -4.50138)
(9.29929e-13 10.3153 -3.76384)
(-3.83142e-12 10.4348 -3.01503)
(-6.11681e-12 10.5525 -2.26144)
(-2.90542e-12 10.6664 -1.51855)
(-6.33946e-12 10.7762 -0.788139)
(-1.08046e-11 10.883 -0.0647613)
(-1.14611e-11 10.9897 0.64053)
(-1.24329e-11 11.0909 1.3181)
(-1.06386e-11 11.1899 1.97408)
(-1.15404e-11 11.2884 2.61595)
(-1.52855e-11 11.3874 3.24372)
(-1.63943e-11 11.4875 3.8531)
(-1.728e-11 11.585 4.41507)
(-1.82643e-11 11.6741 4.89775)
(-1.59404e-11 11.7557 5.31426)
(-1.65569e-11 11.8363 5.70086)
(-2.0136e-11 11.921 6.07652)
(-2.03863e-11 12.0125 6.44513)
(-2.10097e-11 12.1152 6.81264)
(-2.1725e-11 12.2339 7.17588)
(-1.8043e-11 12.3679 7.5118)
(-1.996e-11 12.5131 7.80153)
(-2.38596e-11 12.6667 8.04291)
(-2.03297e-11 12.8251 8.23894)
(-2.17097e-11 12.9827 8.39694)
(-2.57741e-11 13.1372 8.53086)
(-2.63565e-11 13.2917 8.6534)
(-2.7459e-11 13.4422 8.76278)
(-2.77341e-11 13.6042 8.87421)
(-2.51706e-11 13.7599 8.97094)
(-2.28622e-11 13.9348 9.06829)
(-2.65856e-11 14.1 9.15745)
(-2.92363e-11 14.2623 9.23825)
(-2.93137e-11 14.425 9.32725)
(-2.88353e-11 14.5905 9.43407)
(-2.866e-11 14.7755 9.59023)
(-2.92456e-11 14.969 9.83119)
(-2.93909e-11 15.1625 10.1997)
(-2.62087e-11 15.3655 10.7373)
(-2.7525e-11 15.6092 11.5423)
(-3.13432e-11 15.9329 12.7147)
(-3.26146e-11 16.3616 14.3197)
(-3.52152e-11 16.9209 16.3063)
(-3.20206e-11 17.6582 18.603)
(-3.70146e-11 18.5838 21.1403)
(-4.4938e-11 19.65 23.7684)
(-4.86458e-11 20.7951 26.3734)
(-5.20876e-11 21.9797 28.8336)
(3.25093e-11 5.64147 -26.9072)
(3.12696e-11 5.98329 -21.8365)
(2.91379e-11 6.3506 -20.7764)
(2.71052e-11 6.664 -19.8929)
(2.51117e-11 6.96379 -19.1089)
(2.50724e-11 7.24418 -18.3041)
(2.33967e-11 7.49998 -17.4734)
(1.81148e-11 7.73068 -16.6567)
(1.77976e-11 7.94149 -15.8581)
(1.73841e-11 8.1388 -15.0676)
(1.36783e-11 8.32484 -14.2863)
(1.25587e-11 8.50002 -13.5205)
(1.14208e-11 8.66502 -12.7737)
(1.06504e-11 8.81825 -12.0572)
(9.12446e-12 8.96026 -11.3713)
(9.27346e-12 9.09954 -10.6784)
(8.70679e-12 9.24829 -9.92181)
(4.05811e-12 9.4052 -9.10825)
(3.95466e-12 9.56003 -8.28675)
(5.1148e-12 9.70754 -7.48296)
(4.71882e-12 9.84592 -6.70813)
(4.3453e-12 9.97709 -5.95451)
(5.52515e-13 10.1032 -5.2121)
(-1.91726e-12 10.2261 -4.47031)
(-4.91114e-13 10.3477 -3.71998)
(-3.61657e-12 10.4687 -2.95873)
(-7.36259e-12 10.5883 -2.19318)
(-5.56746e-12 10.7043 -1.43833)
(-6.12889e-12 10.8162 -0.695689)
(-9.65723e-12 10.9249 0.0387965)
(-1.03573e-11 11.0324 0.752873)
(-1.12112e-11 11.135 1.43836)
(-1.22777e-11 11.2355 2.10368)
(-1.30809e-11 11.3359 2.75579)
(-1.41666e-11 11.4371 3.39448)
(-1.50921e-11 11.5396 4.01547)
(-1.61764e-11 11.6401 4.58972)
(-1.67867e-11 11.7324 5.08486)
(-1.74045e-11 11.8176 5.51388)
(-1.4082e-11 11.9024 5.91353)
(-1.56221e-11 11.992 6.30319)
(-1.9318e-11 12.0892 6.68689)
(-1.99652e-11 12.1987 7.07114)
(-2.09639e-11 12.3255 7.45338)
(-1.86878e-11 12.4692 7.81054)
(-1.98055e-11 12.6256 8.12322)
(-1.8802e-11 12.7921 8.38885)
(-1.74701e-11 12.9653 8.61012)
(-2.19267e-11 13.1401 8.79349)
(-2.49035e-11 13.3163 8.95315)
(-2.09432e-11 13.4962 9.10237)
(-2.27592e-11 13.6775 9.2456)
(-2.68923e-11 13.8678 9.3896)
(-2.74146e-11 14.0604 9.52718)
(-2.7949e-11 14.2658 9.65792)
(-2.83359e-11 14.4664 9.77638)
(-2.35955e-11 14.6673 9.88256)
(-2.48136e-11 14.8713 9.98717)
(-2.83617e-11 15.0817 10.0998)
(-2.33412e-11 15.3073 10.2429)
(-2.4832e-11 15.5406 10.4477)
(-2.89173e-11 15.7732 10.7499)
(-2.92905e-11 16.0134 11.1846)
(-2.98587e-11 16.2815 11.8403)
(-3.06653e-11 16.6002 12.8023)
(-2.62384e-11 16.9978 14.1107)
(-3.00931e-11 17.4817 15.7325)
(-3.16227e-11 18.0777 17.6217)
(-2.91151e-11 18.7953 19.7288)
(-3.13562e-11 19.6016 21.9279)
(-4.05754e-11 20.4745 24.1109)
(-4.81228e-11 21.3822 26.1786)
(3.12073e-11 5.7837 -26.691)
(2.99436e-11 6.10706 -21.7662)