/*--------------------------------*- C++ -*----------------------------------*\
| =========                 |                                                 |
| \\      /  F ield         | OpenFOAM: The Open Source CFD Toolbox           |
|  \\    /   O peration     | Version:  2212                                  |
|   \\  /    A nd           | Website:  www.openfoam.com                      |
|    \\/     M anipulation  |                                                 |
\*---------------------------------------------------------------------------*/
FoamFile
{
    version     2.0;
    format      ascii;
    arch        "LSB;label=32;scalar=64";
    class       volScalarField;
    location    "0.000168";
    object      T;
}
// * * * * * * * * * * * * * * * * * * * * * * * * * * * * * * * * * * * * * //

dimensions      [0 0 0 1 0 0 0];

internalField   nonuniform List<scalar> 
34861
(
400.853
400.826
400.84
400.841
400.804
400.717
400.72
400.7
400.674
400.64
400.595
400.579
400.567
400.54
400.497
400.455
400.407
400.343
400.249
400.069
399.885
399.918
399.904
399.86
399.776
399.721
399.731
399.711
399.675
399.679
399.684
399.669
399.667
399.68
399.674
399.671
399.681
399.701
399.726
399.751
399.777
399.804
399.83
399.857
399.897
399.972
399.966
399.929
399.962
399.988
399.968
399.976
399.985
399.978
399.979
399.976
399.973
399.974
399.971
399.968
399.965
399.961
399.954
399.949
399.945
399.941
399.936
399.932
399.934
399.936
399.937
399.938
399.941
399.944
399.951
399.971
400.004
400.007
400.994
400.95
328.039
372.116
374.751
383.463
386.887
390.2
391.723
393.305
394.049
394.876
395.273
395.761
395.997
396.306
396.474
396.698
396.842
397.033
397.154
397.302
397.414
397.555
397.675
397.805
397.923
398.055
398.171
398.293
398.412
398.536
398.659
398.781
398.9
399.02
399.139
399.254
399.365
399.472
399.575
399.675
399.772
399.866
399.957
400.045
400.134
400.23
400.337
400.465
400.629
400.838
317.928
315.585
272.294
261.178
249.547
248.479
249.388
248.344
247.062
244.004
237.1
227.482
218.239
212.418
208.156
204.295
202.285
197.132
196.005
190.556
189.372
186.191
184.634
181.989
180.464
179.963
176.208
176.108
173.596
177.456
154.965
94.2718
67.1031
56.6134
51.5507
48.7598
47.4608
46.8281
46.4126
45.0956
44.6834
44.4462
44.2029
43.5654
43.2024
43.093
42.658
41.717
41.4779
41.3051
41.2929
41.5001
41.9792
42.7273
42.9235
42.958
42.9864
43.0119
42.9366
42.7445
42.6153
42.5437
42.5443
42.5471
42.5534
42.5524
42.4451
42.2823
42.2091
42.1351
42.0264
41.8976
41.7784
41.6353
41.4724
41.3203
41.2089
41.1326
41.071
41.0354
41.0147
41.0272
41.0823
41.1433
41.2116
41.2818
41.3462
41.3857
41.3931
41.4054
41.4571
41.5349
41.5982
41.6503
41.6586
41.6318
41.6016
41.6115
41.6541
41.7213
41.8196
41.9031
42.0055
42.0997
42.2188
42.3223
42.6344
42.9347
43.1501
43.3155
43.5094
43.6526
43.8174
43.9464
44.1026
44.1321
44.1722
43.4024
44.4234
32.9945
303.579
284.394
232.229
215.605
201.898
192.047
189.289
189.384
194.847
199.542
204.898
210.45
210.106
208.424
205.936
202.487
200.546
196.052
194.458
189.767
188.376
185.358
184.164
181.479
180.141
179.577
176.286
176.284
173.701
178.076
163.703
107.499
74.3224
60.3895
53.5614
49.9274
48.1967
47.2899
46.562
45.2946
44.7613
44.4832
44.2319
43.5751
43.208
43.0829
42.6724
41.761
41.5063
41.3337
41.3137
41.5011
41.9719
42.7348
42.937
42.9682
42.9908
43.0057
42.9387
42.7474
42.6135
42.5406
42.5407
42.5434
42.5468
42.5398
42.4408
42.2734
42.1991
42.1246
42.0151
41.8869
41.7696
41.6271
41.4653
41.3136
41.2015
41.1241
41.062
41.0259
41.0039
41.0153
41.0703
41.1311
41.199
41.2687
41.3336
41.3754
41.3832
41.3949
41.4452
41.5229
41.5881
41.6386
41.6486
41.6191
41.5883
41.5973
41.6418
41.7081
41.8075
41.891
41.9935
42.0891
42.2082
42.3248
42.6143
42.9218
43.136
43.3015
43.4948
43.6364
43.8023
43.9301
44.0845
44.1063
44.1327
43.3592
44.0783
35.608
326.711
368.461
371.371
383.087
385.798
389.506
390.893
392.667
393.35
394.355
394.745
395.365
395.606
396.013
396.191
396.487
396.638
396.877
397.009
397.185
397.307
397.456
397.6
397.732
397.864
398.002
398.125
398.255
398.374
398.505
398.631
398.755
398.878
399
399.12
399.237
399.349
399.457
399.561
399.663
399.761
399.856
399.947
400.036
400.125
400.221
400.328
400.457
400.619
400.829
400.985
400.944
400.849
400.822
400.835
400.835
400.797
400.71
400.712
400.692
400.665
400.631
400.585
400.568
400.555
400.528
400.485
400.442
400.393
400.329
400.235
400.053
399.871
399.904
399.889
399.845
399.76
399.706
399.716
399.696
399.66
399.664
399.67
399.654
399.653
399.665
399.659
399.656
399.666
399.686
399.711
399.736
399.762
399.789
399.814
399.842
399.882
399.956
399.95
399.913
399.946
399.972
399.951
399.96
399.968
399.961
399.962
399.959
399.956
399.957
399.954
399.951
399.948
399.943
399.936
399.931
399.927
399.922
399.917
399.912
399.915
399.916
399.916
399.917
399.919
399.924
399.935
399.964
399.999
400.006
400.843
400.816
400.828
400.828
400.789
400.704
400.705
400.685
400.658
400.623
400.577
400.56
400.546
400.519
400.476
400.433
400.384
400.319
400.224
400.041
399.862
399.892
399.878
399.833
399.748
399.694
399.704
399.683
399.648
399.651
399.656
399.641
399.639
399.651
399.645
399.642
399.651
399.671
399.695
399.721
399.746
399.773
399.798
399.825
399.865
399.939
399.932
399.896
399.928
399.953
399.933
399.941
399.949
399.942
399.943
399.939
399.936
399.937
399.934
399.931
399.927
399.921
399.915
399.91
399.905
399.9
399.894
399.889
399.891
399.892
399.892
399.893
399.895
399.9
399.914
399.949
399.993
400.005
400.972
400.932
328.483
367.553
373.113
382.681
385.858
389.308
390.654
392.488
393.17
394.198
394.592
395.208
395.457
395.885
396.069
396.376
396.53
396.777
396.908
397.108
397.225
397.4
397.525
397.683
397.807
397.957
398.08
398.218
398.338
398.473
398.6
398.729
398.854
398.977
399.099
399.218
399.331
399.44
399.547
399.649
399.748
399.844
399.936
400.025
400.115
400.212
400.321
400.45
400.614
400.825
296.782
264.685
226.506
205.748
188.511
173.655
163.148
157.021
152.821
152.888
153.91
157.808
165.189
170.48
178.123
181.835
185.759
185.846
186.121
184.635
183.945
182.186
181.528
179.535
178.472
178.119
175.767
176.214
174.081
178.317
173.806
130.339
89.5833
68.9585
58.1995
52.6175
49.885
48.376
47.0442
45.6405
44.9003
44.5465
44.2777
43.581
43.2247
43.0806
42.6904
41.839
41.5719
41.3958
41.3544
41.5171
41.9731
42.7588
42.9627
42.9855
42.998
42.9971
42.9299
42.7495
42.6066
42.53
42.5274
42.5291
42.529
42.5152
42.4268
42.2561
42.1805
42.1046
41.9929
41.8636
41.7466
41.6059
41.448
41.299
41.1878
41.1093
41.0467
41.01
40.9859
40.9952
41.0497
41.1102
41.1776
41.2461
41.312
41.3573
41.3666
41.3774
41.4257
41.5037
41.5719
41.622
41.6351
41.6016
41.5701
41.5774
41.6259
41.6909
41.7929
41.877
41.98
42.08
42.1986
42.3348
42.5954
42.9106
43.123
43.2864
43.4761
43.6133
43.7781
43.8981
44.039
44.0372
44.023
43.2612
43.3477
37.8138
293.341
256.797
223.402
202.557
184.737
169.138
156.364
146.266
138.07
132.67
129.198
127.349
128.008
129.572
134.54
138.989
147.372
152.932
160.86
164.493
168.464
170.242
171.988
172.093
172.263
173.132
172.186
173.69
172.973
176.174
183.072
153.364
112.265
83.9355
66.8017
57.6021
52.9801
50.4437
48.1825
46.2348
45.1315
44.6444
44.3332
43.5925
43.2706
43.0997
42.7215
41.9604
41.6903
41.5008
41.416
41.5589
41.9889
42.7898
42.9974
43.006
43.0059
42.9882
42.912
42.748
42.5931
42.5085
42.5016
42.5025
42.5014
42.4808
42.4006
42.2313
42.1549
42.0779
41.9641
41.8313
41.7117
41.5731
41.421
41.2784
41.1704
41.0914
41.0279
40.9905
40.964
40.9696
41.0226
41.0822
41.1488
41.215
41.2824
41.3314
41.3446
41.3548
41.4013
41.48
41.5531
41.6056
41.6242
41.5876
41.5561
41.5615
41.6152
41.6787
41.7837
41.8694
41.9715
42.0796
42.1979
42.353
42.588
42.9066
43.1178
43.2735
43.454
43.5819
43.7411
43.8457
43.9597
43.9298
43.8592
43.1965
42.6552
39.1969
332.237
366.758
373.431
382.55
385.716
389.25
390.572
392.419
393.11
394.145
394.543
395.164
395.416
395.843
396.034
396.346
396.496
396.743
396.876
397.076
397.194
397.371
397.496
397.657
397.782
397.934
398.058
398.196
398.318
398.456
398.582
398.713
398.84
398.963
399.084
399.204
399.318
399.429
399.536
399.639
399.739
399.835
399.928
400.018
400.109
400.206
400.316
400.447
400.611
400.822
400.956
400.916
400.835
400.81
400.82
400.822
400.783
400.699
400.7
400.679
400.653
400.618
400.572
400.554
400.54
400.513
400.47
400.427
400.378
400.313
400.218
400.033
399.858
399.885
399.872
399.826
399.741
399.688
399.697
399.677
399.642
399.645
399.65
399.634
399.633
399.644
399.638
399.636
399.645
399.664
399.688
399.714
399.739
399.766
399.791
399.818
399.858
399.931
399.924
399.889
399.921
399.945
399.926
399.934
399.941
399.934
399.935
399.931
399.928
399.929
399.926
399.923
399.919
399.913
399.907
399.902
399.896
399.891
399.885
399.881
399.883
399.883
399.883
399.884
399.886
399.891
399.905
399.943
399.991
400.005
400.829
400.806
400.815
400.817
400.779
400.698
400.697
400.677
400.65
400.616
400.57
400.552
400.538
400.511
400.469
400.425
400.376
400.311
400.216
400.03
399.858
399.883
399.87
399.824
399.739
399.686
399.695
399.675
399.64
399.642
399.648
399.633
399.631
399.642
399.637
399.634
399.643
399.663
399.687
399.713
399.738
399.765
399.789
399.816
399.857
399.93
399.922
399.888
399.919
399.943
399.925
399.932
399.94
399.933
399.934
399.93
399.927
399.927
399.924
399.921
399.917
399.912
399.905
399.9
399.895
399.889
399.884
399.879
399.881
399.881
399.881
399.882
399.884
399.889
399.904
399.941
399.991
400.005
400.939
400.899
336.525
366.789
373.487
382.664
385.556
389.249
390.517
392.36
393.072
394.113
394.521
395.139
395.401
395.837
396.03
396.341
396.493
396.734
396.868
397.066
397.191
397.361
397.491
397.65
397.776
397.926
398.05
398.19
398.313
398.451
398.576
398.71
398.835
398.959
399.08
399.2
399.314
399.424
399.531
399.635
399.735
399.832
399.925
400.016
400.107
400.205
400.315
400.447
400.612
400.823
293.022
254.55
219.984
198.697
181.517
166.343
154.096
143.361
134.284
126.299
120.291
115.257
112.304
110.366
110.513
111.547
114.181
118.281
125.639
130.619
138.206
144.491
150.061
154.41
157.243
161.211
162.212
165.469
167.666
170.783
184.272
171.505
138.667
105.688
81.0338
66.2254
58.4319
54.1426
50.4223
47.4028
45.5804
44.7999
44.4054
43.6315
43.3736
43.1804
42.795
42.1323
41.8779
41.665
41.5135
41.634
42.0325
42.8361
43.0465
43.0317
43.0116
42.9797
42.8893
42.7432
42.5747
42.4793
42.468
42.4686
42.4677
42.4411
42.3626
42.1996
42.1244
42.0473
41.9334
41.7959
41.6703
41.5329
41.3862
41.2532
41.1512
41.0728
41.008
40.9693
40.9408
40.9409
40.9904
41.048
41.1141
41.1771
41.2461
41.2996
41.3188
41.3303
41.3753
41.454
41.5345
41.5925
41.6187
41.5825
41.5522
41.5556
41.6148
41.6764
41.7816
41.8696
41.966
42.0846
42.202
42.3723
42.5879
42.9036
43.1211
43.267
43.4334
43.5457
43.6956
43.7806
43.861
43.8081
43.6809
43.1596
42.2264
40.2233
293.521
253.256
218.948
196.244
179.058
163.976
151.808
140.817
131.562
123.361
116.417
110.42
105.664
101.893
99.2826
97.485
96.97
97.5427
99.6355
102.992
108.453
113.352
119.667
127.225
132.504
139.429
143.5
148.604
155.511
159.723
176.889
176.908
163.693
131.665
101.673
80.0812
67.5107
60.4854
54.6134
49.7162
46.4363
45.0559
44.5048
43.7369
43.5789
43.3654
42.9805
42.4285
42.1819
41.9148
41.67
41.7674
42.1244
42.9076
43.1261
43.0689
43.0183
42.9691
42.8693
42.7346
42.5538
42.4467
42.4326
42.433
42.4335
42.3986
42.3179
42.1645
42.09
42.0133
41.9023
41.7607
41.6263
41.4881
41.3457
41.2228
41.1295
41.0538
40.9876
40.9465
40.9168
40.9102
40.9534
41.0067
41.0725
41.1315
41.2016
41.2611
41.2885
41.3045
41.3487
41.4238
41.5112
41.5778
41.6129
41.5837
41.5574
41.5585
41.6221
41.6829
41.7821
41.8723
41.9568
42.0838
42.2
42.3854
42.5795
42.8867
43.1238
43.2669
43.4172
43.5075
43.6414
43.7075
43.7531
43.6836
43.513
43.0859
41.9318
40.5374
341.353
366.154
373.714
382.528
385.501
389.182
390.477
392.306
393.01
394.082
394.5
395.116
395.393
395.826
396.033
396.341
396.497
396.721
396.869
397.056
397.189
397.356
397.488
397.647
397.773
397.921
398.046
398.186
398.311
398.448
398.573
398.707
398.831
398.958
399.078
399.196
399.311
399.421
399.528
399.632
399.733
399.83
399.923
400.014
400.106
400.205
400.316
400.448
400.614
400.825
400.923
400.881
400.825
400.803
400.81
400.814
400.777
400.699
400.697
400.677
400.65
400.616
400.571
400.551
400.537
400.51
400.468
400.425
400.375
400.31
400.215
400.028
399.86
399.882
399.87
399.822
399.738
399.685
399.694
399.674
399.639
399.642
399.647
399.632
399.631
399.641
399.636
399.634
399.643
399.662
399.686
399.712
399.737
399.764
399.789
399.816
399.857
399.929
399.922
399.888
399.919
399.943
399.925
399.932
399.939
399.932
399.933
399.929
399.926
399.927
399.924
399.921
399.917
399.911
399.905
399.9
399.894
399.889
399.883
399.879
399.88
399.881
399.881
399.882
399.884
399.889
399.903
399.941
399.99
400.005
400.821
400.799
400.805
400.812
400.777
400.7
400.696
400.677
400.65
400.617
400.572
400.55
400.536
400.51
400.468
400.425
400.375
400.309
400.214
400.027
399.862
399.881
399.87
399.822
399.738
399.685
399.693
399.675
399.639
399.642
399.647
399.632
399.631
399.64
399.636
399.635
399.644
399.662
399.686
399.712
399.738
399.764
399.789
399.816
399.857
399.929
399.921
399.888
399.919
399.942
399.925
399.932
399.939
399.932
399.933
399.929
399.926
399.927
399.924
399.921
399.917
399.911
399.905
399.9
399.894
399.889
399.883
399.879
399.88
399.881
399.881
399.882
399.884
399.889
399.904
399.941
399.991
400.005
400.905
400.866
345.532
365.899
373.429
382.456
385.424
389.135
390.503
392.277
392.977
394.003
394.498
395.07
395.412
395.797
396.063
396.312
396.514
396.705
396.877
397.05
397.192
397.354
397.488
397.645
397.774
397.919
398.043
398.185
398.311
398.447
398.572
398.706
398.83
398.958
399.078
399.196
399.311
399.421
399.528
399.632
399.732
399.829
399.922
400.014
400.107
400.206
400.317
400.45
400.618
400.826
295.223
252.477
219.479
195.01
177.685
162.815
150.59
139.551
129.943
121.815
114.563
108.331
102.932
98.3562
94.5355
91.2077
89.0074
87.0973
86.7423
87.264
88.9737
91.0811
95.5627
99.698
105.373
111.953
118.949
124.42
134.328
141.748
156.225
171.785
171.796
159.473
128.295
99.989
81.8124
70.9465
61.9408
54.1432
48.2643
45.5463
44.6471
43.9493
43.9802
43.7888
43.3864
42.8755
42.6167
42.2965
41.9194
41.9996
42.3135
43.0303
43.264
43.1375
43.0325
42.9591
42.8501
42.7228
42.5313
42.4127
42.3979
42.3986
42.398
42.3604
42.2753
42.1324
42.0527
41.9744
41.8688
41.7242
41.579
41.4366
41.2974
41.1846
41.1018
41.0312
40.9641
40.9192
40.8879
40.8741
40.9078
40.9526
41.0164
41.0701
41.1406
41.2092
41.2458
41.2711
41.3153
41.3833
41.4702
41.5444
41.5958
41.5776
41.5588
41.56
41.6249
41.6877
41.7728
41.8638
41.9304
42.0582
42.1718
42.3635
42.5562
42.8279
43.0984
43.2571
43.3951
43.4637
43.565
43.6126
43.6257
43.5401
43.3444
42.941
41.8058
40.4916
298.69
253.873
220.534
194.331
176.45
161.89
149.624
138.506
128.716
120.516
113.304
106.956
101.531
96.5833
92.2436
88.2317
85.187
82.1756
80.5525
79.4291
78.8496
79.2445
80.3791
81.9728
85.618
88.5295
94.6009
99.6173
107.467
119.394
128.916
149.728
166.277
166.789
155.895
127.135
102.667
86.8232
73.7808
62.4429
52.1491
46.5065
44.9171
44.4627
44.8427
44.675
44.2209
43.8194
43.5593
43.008
42.346
42.3867
42.6491
43.2626
43.5214
43.2736
43.0657
42.9498
42.8272
42.7056
42.5079
42.377
42.3621
42.3617
42.3598
42.3302
42.2384
42.1084
42.0155
41.9294
41.8309
41.6832
41.5255
41.3737
41.2342
41.1326
41.0596
40.9956
40.9284
40.8781
40.8429
40.8205
40.8411
40.8721
40.9285
40.9741
41.0429
41.1222
41.1742
41.2122
41.2562
41.3149
41.3944
41.4682
41.5376
41.5368
41.5346
41.5377
41.5974
41.6659
41.7295
41.816
41.8648
41.975
42.0822
42.2697
42.4718
42.7
42.9965
43.1966
43.333
43.3939
43.4345
43.4604
43.443
43.3313
43.1185
42.6344
41.785
39.4398
348.37
365.77
373.926
382.467
385.421
389.014
390.676
392.245
393.119
393.891
394.555
395.031
395.457
395.774
396.073
396.311
396.506
396.707
396.865
397.057
397.185
397.36
397.482
397.644
397.77
397.917
398.039
398.182
398.307
398.444
398.569
398.703
398.828
398.956
399.077
399.195
399.309
399.419
399.526
399.63
399.731
399.827
399.921
400.014
400.107
400.207
400.319
400.453
400.623
400.828
400.888
400.852
400.816
400.795
400.801
400.809
400.777
400.702
400.696
400.677
400.65
400.618
400.574
400.55
400.535
400.509
400.469
400.425
400.374
400.308
400.214
400.026
399.863
399.881
399.87
399.821
399.737
399.684
399.691
399.675
399.639
399.641
399.647
399.632
399.631
399.64
399.636
399.635
399.644
399.662
399.686
399.712
399.738
399.764
399.789
399.816
399.857
399.929
399.921
399.888
399.919
399.942
399.926
399.932
399.938
399.932
399.933
399.93
399.926
399.927
399.924
399.92
399.917
399.911
399.905
399.9
399.894
399.889
399.883
399.879
399.88
399.881
399.881
399.882
399.884
399.889
399.903
399.941
399.99
400.005
400.81
400.793
400.799
400.807
400.778
400.703
400.695
400.677
400.649
400.618
400.575
400.55
400.533
400.508
400.469
400.426
400.374
400.308
400.214
400.026
399.865
399.881
399.87
399.821
399.737
399.684
399.691
399.675
399.639
399.641
399.647
399.632
399.632
399.639
399.637
399.636
399.645
399.663
399.686
399.713
399.738
399.764
399.789
399.815
399.857
399.929
399.92
399.889
399.919
399.942
399.927
399.932
399.938
399.932
399.933
399.93
399.926
399.927
399.924
399.921
399.917
399.912
399.905
399.9
399.894
399.889
399.883
399.879
399.88
399.881
399.881
399.882
399.884
399.889
399.904
399.941
399.991
400.005
400.872
400.841
350.072
365.012
374.583
382.054
385.875
388.761
390.901
392.062
393.185
393.892
394.531
395.073
395.41
395.83
396.023
396.337
396.479
396.725
396.854
397.06
397.185
397.36
397.483
397.643
397.769
397.917
398.041
398.181
398.308
398.445
398.569
398.703
398.828
398.956
399.077
399.196
399.31
399.419
399.526
399.63
399.731
399.827
399.921
400.014
400.109
400.208
400.321
400.456
400.629
400.829
301.197
256.033
220.969
194.11
175.982
161.495
149.342
138.059
128.197
119.838
112.543
106.202
100.592
95.5816
90.8363
86.3982
83.0436
79.5084
77.2802
75.4195
73.694
72.6768
72.1639
72.2076
72.8903
74.6188
77.0512
80.1803
85.2585
94.1042
104.465
116.344
141.705
159.624
161.763
151.117
128.111
110.591
91.9628
76.1833
60.1308
48.6963
45.5465
45.618
46.8973
46.812
46.1096
45.5874
45.3452
44.4321
43.2124
43.072
43.2171
43.6611
43.9266
43.5391
43.1358
42.9235
42.7895
42.6798
42.4876
42.3412
42.3247
42.3229
42.3192
42.3072
42.1997
42.091
41.9821
41.8772
41.7841
41.6292
41.461
41.2877
41.1495
41.0499
40.983
40.9237
40.8568
40.7998
40.7566
40.722
40.7251
40.7364
40.7757
40.81
40.8728
40.9652
41.0416
41.0927
41.1345
41.1849
41.2543
41.3095
41.3875
41.4115
41.4377
41.4448
41.492
41.5635
41.6029
41.6779
41.7125
41.7899
41.8803
42.0475
42.2432
42.4553
42.7454
43.0095
43.1663
43.233
43.2089
43.2027
43.118
42.993
42.7188
42.0718
41.5145
38.5095
303.695
256.046
220.881
192.442
174.033
159.855
148.09
137.137
127.693
119.614
112.544
106.001
100.542
95.184
90.1004
85.5904
81.8866
78.5681
75.6854
73.6021
71.0434
69.5086
67.7831
66.7713
66.2619
66.2703
66.445
67.8588
69.7717
75.1578
80.7233
90.7692
104.938
133.238
158.04
165.875
158.095
145.276
123.825
94.3109
77.1713
55.0182
49.0646
50.3448
52.7257
52.3211
50.7866
49.621
49.4363
48.0724
45.5052
44.424
44.1807
44.3788
44.5735
44.0349
43.3081
42.8721
42.6761
42.6257
42.4895
42.3178
42.2668
42.2475
42.2372
42.255
42.1333
42.0513
41.9432
41.8075
41.7264
41.5595
41.3694
41.1595
41.0108
40.9014
40.8245
40.7621
40.6917
40.6289
40.5784
40.5263
40.5037
40.4882
40.5005
40.526
40.5775
40.6824
40.7839
40.8455
40.8835
40.9249
40.9793
41.0042
41.0664
41.1131
41.1747
41.1895
41.2165
41.2727
41.2909
41.354
41.3841
41.4299
41.4904
41.607
41.7634
41.9752
42.2393
42.5741
42.7859
42.8648
42.8067
42.7499
42.5748
42.4306
41.9367
41.5789
40.6611
349.46
363.901
375.237
381.68
386.065
388.808
390.777
392.324
393.131
394.073
394.504
395.117
395.424
395.836
396.036
396.328
396.483
396.721
396.854
397.056
397.185
397.358
397.484
397.641
397.764
397.913
398.042
398.175
398.308
398.444
398.568
398.699
398.826
398.953
399.075
399.193
399.308
399.42
399.526
399.629
399.73
399.827
399.922
400.016
400.11
400.21
400.324
400.46
400.637
400.83
400.858
400.831
400.805
400.791
400.798
400.806
400.778
400.705
400.695
400.676
400.65
400.619
400.577
400.549
400.532
400.508
400.47
400.426
400.374
400.307
400.214
400.025
399.866
399.882
399.869
399.82
399.736
399.683
399.69
399.675
399.638
399.641
399.646
399.632
399.631
399.638
399.637
399.636
399.646
399.663
399.686
399.712
399.738
399.764
399.789
399.815
399.857
399.929
399.919
399.89
399.918
399.942
399.927
399.932
399.938
399.932
399.933
399.93
399.926
399.927
399.924
399.921
399.917
399.912
399.905
399.9
399.894
399.889
399.883
399.879
399.88
399.881
399.881
399.882
399.884
399.889
399.903
399.941
399.99
400.005
38.9901
16.1876
18.746
18.3069
18.6505
18.7977
18.8915
18.9739
19.0161
19.0576
19.0806
19.0949
19.0988
19.0973
19.0843
19.0602
19.0288
18.9875
18.9421
18.8903
18.8285
18.7572
18.6781
18.5944
18.5071
18.4174
18.3125
18.1802
18.0326
17.8786
17.719
17.5658
17.4181
17.2701
17.1239
16.9778
16.8413
16.7185
16.6079
16.5012
16.3909
16.2798
16.1749
16.0741
15.9757
15.8793
15.7807
15.6791
15.5789
15.4861
15.399
15.3172
15.2375
15.1595
15.0821
15.0056
14.9325
14.8634
14.7969
14.7293
14.6612
14.5981
14.5391
14.4823
14.4271
14.3731
14.3194
14.2679
14.2197
14.1747
14.1354
14.0993
14.0624
14.0228
13.9847
13.9493
13.9163
13.89
13.8672
13.8483
13.8311
13.8141
13.7953
13.7883
13.7827
13.7792
13.7799
13.7822
13.7903
13.8057
13.8273
13.8324
13.8098
13.7644
13.6877
13.6014
13.5269
13.5018
13.6149
14.0253
15.5036
19.7891
14.5645
18.5041
17.2612
18.1799
18.5186
19.0989
19.4541
19.5616
19.4873
19.5482
19.6379
19.5836
19.6526
19.975
19.9961
19.8886
19.8136
19.9919
20.2422
20.475
20.7769
21.0112
20.9287
21.4533
22.6011
22.9211
19.529
17.5738
16.5285
16.125
15.9159
15.8148
15.7093
15.5578
15.5094
15.4523
15.3066
15.1984
15.0018
14.8016
14.7552
14.9096
14.9728
14.8308
14.6969
14.655
14.6335
14.592
14.5815
14.6841
14.8854
14.9685
14.9181
14.7986
14.4243
14.5541
14.638
14.5429
14.4306
14.3193
14.247
14.0981
13.9833
13.9366
13.9801
14.0936
14.1876
14.181
14.0931
14.1403
14.2185
14.393
14.5802
14.5459
14.4472
14.3819
14.5477
14.9831
15.2468
19.2553
25.47
21.8043
21.5115
20.2127
19.9088
19.6819
19.6484
19.6287
19.5688
19.535
19.4896
19.3174
19.137
18.9113
18.9374
19.1892
19.3813
19.5559
19.6086
19.637
19.7194
19.7712
19.6877
19.5895
19.4541
19.5472
19.6127
19.6767
19.5759
19.4378
19.4467
19.6241
19.5832
19.6098
19.7372
19.9696
20.0601
20.1164
20.1378
20.1483
20.2794
20.5041
20.6072
20.4937
20.4178
20.3406
20.5221
20.6321
20.5915
20.5894
20.6847
20.9064
21.0252
20.8849
20.8374
20.7624
20.8921
20.645
20.6678
20.9187
21.2071
21.1473
21.0578
21.1218
21.0125
20.7847
20.7951
20.8902
21.0673
21.1579
21.1489
21.2837
21.1993
21.2585
21.417
22.0784
23.6599
26.6057
28.7133
29.745
30.3869
30.862
31.419
31.9055
32.2926
32.435
32.1493
31.8394
31.7522
31.811
31.8934
31.895
31.908
32.1525
32.3461
32.5123
32.4156
32.649
32.5296
32.5184
32.4776
32.8153
32.9866
33.3427
33.3232
33.2653
32.9715
32.7185
32.8292
33.0356
33.1016
33.5584
33.4715
33.5545
33.4981
33.5692
33.8082
34.1718
34.616
34.7742
34.4016
33.7651
33.3351
33.3265
33.2692
33.3944
33.5735
33.5404
33.6805
33.8975
34.1096
34.3746
34.6006
34.5822
34.8915
34.6135
34.1554
33.907
34.1932
34.499
34.8632
34.967
34.9065
35.1891
35.676
35.1511
34.5662
34.004
33.1148
32.3559
32.2073
32.275
32.4416
32.6232
32.7493
32.7418
32.8366
32.9725
32.9937
33.1245
33.4343
33.8904
34.2465
35.1981
35.8267
36.6424
36.9614
37.0253
36.9862
37.5782
37.9183
38.5219
39.9846
41.2594
41.6721
42.1231
42.3673
42.2887
43.414
43.7816
43.5562
43.0793
42.433
42.2863
42.0867
40.9466
40.47
40.838
41.4477
42.4173
43.0729
41.442
39.5324
38.7074
37.5683
36.9986
36.4076
35.907
35.0259
33.9888
32.4933
30.5605
28.9683
27.2336
26.0425
24.7221
23.6197
22.7022
22.0503
21.0723
20.122
19.3044
18.4817
17.6631
17.1245
16.7457
16.4115
16.1984
15.8324
15.4334
15.1272
14.9543
14.9421
14.9884
15.107
15.1991
15.2603
15.4055
15.6047
16.0075
16.321
16.6023
16.8294
17.1179
17.2636
17.372
17.4938
17.7254
17.9355
18.0293
18.0787
18.2978
18.3359
18.3689
18.3777
18.4226
18.4941
18.5001
18.4619
18.402
18.3276
18.1656
18.1045
18.1438
18.136
18.0855
17.9576
18.03
18.2066
18.2652
18.4284
18.6649
18.8572
19.6549
19.8657
19.5344
18.9709
18.3896
18.0793
17.6612
17.0179
16.6564
16.4105
16.1247
15.6855
15.1884
14.7937
14.6112
14.0163
13.5501
13.7714
13.8258
13.7698
13.5925
13.4865
13.2489
13.1821
13.2388
13.3772
13.8241
14.2079
15.8618
16.3307
19.2143
20.7909
20.7367
20.4546
19.5684
19.3689
18.9342
18.7047
18.7738
18.9549
18.9597
18.8538
18.8838
18.8632
18.8771
19.0182
19.4039
19.648
19.4492
19.1683
18.8385
19.1482
19.3733
19.4595
19.3129
19.0622
18.8258
18.779
18.8323
18.9043
19.2614
19.471
19.2712
19.0895
18.9483
19.0356
19.0497
18.8965
18.9157
19.046
18.9155
18.8118
18.9421
19.0171
18.9369
18.9408
18.9184
18.9784
19.2062
19.5386
19.3599
19.1104
19.1461
19.4132
19.6471
19.403
19.2723
19.4683
19.8348
20.0583
20.0356
19.6984
19.4768
19.4071
19.4336
19.4757
19.7
19.9454
20.0202
19.8903
19.761
19.6607
19.6065
19.549
19.6554
19.7814
20.2869
20.9486
23.2695
27.0124
26.5412
26.5589
25.7628
25.2056
22.9713
24.7484
385.589
388.982
390.693
392.442
393.329
394.195
394.662
395.189
395.51
395.804
396.072
396.318
396.513
396.708
396.879
397.051
397.21
397.354
397.499
397.641
397.772
397.916
398.05
398.177
398.313
398.446
398.57
398.702
398.833
398.958
399.081
399.201
399.317
399.423
399.529
399.635
399.737
399.834
399.927
400.018
400.114
400.217
400.336
400.479
400.661
400.831
400.837
400.813
400.796
400.796
400.806
400.808
400.781
400.71
400.691
400.673
400.651
400.621
400.586
400.549
400.527
400.504
400.471
400.431
400.372
400.307
400.213
400.025
399.872
399.885
399.864
399.819
399.734
399.677
399.688
399.675
399.638
399.641
399.645
399.633
399.632
399.636
399.637
399.639
399.648
399.664
399.685
399.712
399.739
399.764
399.789
399.815
399.858
399.928
399.918
399.893
399.917
399.943
399.93
399.932
399.937
399.932
399.933
399.93
399.926
399.927
399.925
399.92
399.917
399.912
399.906
399.9
399.895
399.889
399.884
399.878
399.879
399.88
399.88
399.881
399.884
399.888
399.901
399.933
399.988
400.006
400.005
400.005
400.004
400.004
400.004
400.004
400.004
251.045
221.065
171.554
146.147
131.868
124.195
117.188
110.496
104.929
98.9783
94.5072
91.0263
86.6964
86.2167
83.1234
79.3609
76.4013
73.397
70.7894
68.2873
65.7956
64.1895
61.8769
60.4479
59.0144
57.1965
55.8853
55.0805
55.1949
55.7583
58.03
59.6129
66.2276
74.8391
87.2766
91.1919
102.913
119.384
125.595
132.888
124.886
118.24
115.548
108.467
104.607
97.2013
84.841
80.3232
77.4569
67.6705
55.8812
49.2602
48.452
47.414
46.885
44.8727
42.1373
41.506
42.2099
42.7083
42.5578
42.3833
42.1992
41.9198
41.7588
41.7058
41.6905
41.6479
41.5053
41.45
41.214
40.8739
40.4311
40.1573
39.905
39.6923
39.5704
39.4969
39.4226
39.3796
39.3174
39.176
39.032
38.9611
38.9717
38.9892
39.0301
39.1441
39.1924
39.1903
39.1743
39.1286
39.0322
38.9785
38.9768
39.0805
39.141
39.1149
39.0622
39.0519
39.1304
39.2224
39.2102
39.1069
38.9866
38.9075
38.9604
39.2074
39.629
40.1305
40.3472
40.3164
40.0596
39.7873
39.55
39.08
39.2357
39.6154
38.0406
37.8472
37.9599
38.0625
37.6814
37.6416
37.9989
37.5862
37.8666
34.4695
81.2991
78.0262
18.5967
24.0013
32.8153
25.9875
394.514
395.406
395.662
399.99
399.993
38.2162
37.4553
28.8583
75.3575
18.3913
17.8159
18.4297
18.6823
18.5545
18.8663
18.7885
18.9584
18.9304
18.9842
18.9781
18.9679
18.9836
18.9141
18.9424
18.8253
18.8736
18.7071
18.7694
18.5714
18.6422
18.4084
18.4939
18.2053
18.315
17.9177
18.0691
17.6134
17.7644
17.326
17.4699
17.0398
17.1819
16.7716
16.9006
16.5436
16.653
16.3333
16.4386
16.1204
16.2264
15.915
16.0162
15.7225
15.8184
15.5333
15.6257
15.3625
15.4459
15.2027
15.2821
15.0457
15.124
14.8941
14.9686
14.7539
14.8227
14.6185
14.6858
14.4972
14.5556
14.3872
14.4413
14.2834
14.3347
14.1889
14.2337
14.1064
14.1476
14.0232
14.0649
13.9481
13.9847
13.8828
13.9143
13.8331
13.8561
13.7989
13.8146
13.7745
13.7868
13.7739
13.7708
13.7799
13.7771
13.7895
13.7829
13.8259
13.8037
13.8194
13.834
13.7232
13.7867
13.5257
13.6225
13.5097
13.4592
14.6529
13.7161
24.3299
23.0613
21.379
25.0169
24.6948
25.5625
25.0822
26.5424
25.9524
26.7588
26.9243
26.3072
26.4057
26.7319
26.5143
27.5943
27.056
28.176
27.9867
28.5447
28.4109
29.4028
28.6503
30.7569
30.2688
23.8664
26.8765
21.8854
22.5565
21.3884
21.5601
21.1181
21.3193
20.4086
20.7134
20.2183
20.1754
20.2138
20.2698
19.9212
20.0246
20.0022
19.9186
20.1131
20.0606
20.0028
20.0828
19.4901
19.8607
18.8092
19.0615
18.7625
18.7414
18.575
18.8965
18.4684
18.4915
18.527
18.4967
18.8157
18.6234
19.006
19.0082
18.8948
18.9243
18.8105
18.8305
18.9758
18.9546
18.5113
18.8315
18.1447
18.1803
18.3589
18.2484
18.5681
29.3494
29.4111
31.1234
27.0293
27.5325
26.2777
26.6159
26.1994
26.1412
26.2987
26.3339
26.4918
26.355
26.5047
26.5007
26.5653
26.6009
26.1092
26.261
25.7427
25.8406
25.9683
25.7463
26.3994
26.1721
26.6959
26.5471
26.8401
26.7875
26.911
26.8725
27.0803
26.9845
27.4629
27.2351
27.9615
27.8288
27.566
27.8089
26.8392
27.1954
26.9665
26.8279
27.9306
27.3978
28.1193
28.1112
27.9908
28.0956
27.3305
27.7226
27.161
27.1859
27.5162
27.3802
27.7833
27.6568
27.7944
27.8565
27.6866
27.704
27.8715
27.8009
28.3114
28.0443
28.6705
28.5418
28.7898
28.7476
28.8262
28.844
29.2042
29.0495
29.7067
29.4675
32.5173
30.4633
39.4525
35.9263
41.6
41.0275
42.0679
41.8061
43.1869
42.5311
44.2605
43.9646
44.2347
44.231
44.7602
44.708
44.3797
44.6061
44.4861
44.3794
44.7885
44.6623
44.9922
44.8792
44.8481
44.9921
44.7278
44.7646
45.278
44.9646
46.3025
45.7576
46.5689
46.4622
46.4402
46.5704
46.4863
46.4496
46.4114
46.5175
45.9008
45.9334
45.5618
45.5171
46.3095
45.7043
47.4808
47.0728
47.4695
47.482
47.292
47.3753
46.9513
47.0805
46.131
46.6567
45.8851
45.9991
46.0019
45.9457
46.9789
46.3146
47.2826
47.368
47.1108
47.0998
46.29
46.5992
45.8025
45.7544
46.4574
45.8451
47.2102
46.903
47.5758
47.3294
48.0954
48.0928
48.3858
47.9818
49.647
48.7464
51.5202
50.6008
52.6459
51.9939
51.6933
53.1392
50.4502
51.3652
51.9913
50.9445
55.127
53.2179
60.4727
57.3447
66.3055
63.4371
67.6145
67.0674
67.7281
68.3996
65.2732