/*--------------------------------*- C++ -*----------------------------------*\
| =========                 |                                                 |
| \\      /  F ield         | OpenFOAM: The Open Source CFD Toolbox           |
|  \\    /   O peration     | Version:  2212                                  |
|   \\  /    A nd           | Website:  www.openfoam.com                      |
|    \\/     M anipulation  |                                                 |
\*---------------------------------------------------------------------------*/
FoamFile
{
    version     2.0;
    format      ascii;
    arch        "LSB;label=32;scalar=64";
    class       volVectorField;
    location    "0.0001";
    object      U;
}
// * * * * * * * * * * * * * * * * * * * * * * * * * * * * * * * * * * * * * //

dimensions      [0 1 -1 0 0 0 0];

internalField   nonuniform List<vector> 
39946
(
(-1.5e-13 36.1 0.0729)
(-1.5e-13 35.7 0.0371)
(-2.22e-13 35.3 0.0297)
(-2.09e-13 34.9 0.0361)
(-2.47e-13 34.4 0.041)
(-2.42e-13 33.8 0.0435)
(-2.38e-13 33.1 0.0398)
(-2.3e-13 32.5 0.0383)
(-2.09e-13 31.7 0.0371)
(-1.82e-13 31 0.0401)
(-1.98e-13 30.2 0.0464)
(-2.1e-13 29.3 0.0514)
(-2.22e-13 28.4 0.0524)
(-2.37e-13 27.4 0.061)
(-1.8e-13 26.4 0.0763)
(-1.67e-13 25.3 0.08)
(-2.16e-13 24.2 0.0687)
(-2.73e-13 23 0.0595)
(-2.63e-13 21.8 0.0503)
(-2.44e-13 20.7 0.0403)
(-3.07e-13 19.6 0.0321)
(-2.06e-13 18.5 0.0403)
(-2.57e-13 17.5 0.0611)
(-2.36e-13 16.5 0.0749)
(-2.28e-13 15.4 0.0705)
(-1.19e-13 14.1 0.0699)
(-1.97e-13 12.8 0.0749)
(-3.73e-13 11.5 0.0751)
(-1.56e-13 10.3 0.076)
(-1.09e-13 9.02 0.0765)
(-5.59e-14 7.83 0.0792)
(4.25e-14 6.68 0.0867)
(5.99e-14 5.56 0.0999)
(-1.36e-13 4.44 0.107)
(-1.05e-13 3.28 0.107)
(-3.91e-14 2.1 0.106)
(-1.82e-13 0.934 0.106)
(-1.88e-13 -0.201 0.109)
(-1.86e-13 -1.31 0.0999)
(-7.4e-14 -2.4 0.0949)
(-1.37e-13 -3.5 0.123)
(-2.05e-13 -4.67 0.163)
(-4.04e-13 -5.9 0.167)
(-3.75e-13 -7.08 0.154)
(-1.92e-13 -8.24 0.143)
(-1.75e-13 -9.35 0.13)
(3.17e-14 -10.4 0.12)
(-1.43e-13 -11.4 0.118)
(8.72e-14 -12.5 0.127)
(2.79e-13 -13.6 0.137)
(-9.38e-14 -14.9 0.136)
(-9.67e-14 -16.1 0.126)
(1.55e-13 -17.3 0.123)
(2.63e-13 -18.5 0.134)
(1.39e-13 -19.6 0.153)
(3.65e-13 -20.7 0.168)
(4.88e-13 -21.9 0.176)
(3.72e-13 -23 0.177)
(5.44e-13 -24.1 0.178)
(4.92e-13 -25.2 0.181)
(6.72e-13 -26.4 0.181)
(7.93e-13 -27.5 0.184)
(4.74e-13 -28.6 0.207)
(4.68e-13 -29.8 0.244)
(3.8e-13 -30.9 0.275)
(5.14e-13 -32 0.297)
(6.55e-13 -33.1 0.31)
(7.31e-13 -34.2 0.316)
(7.71e-13 -35.3 0.331)
(7.86e-13 -36.4 0.362)
(7.86e-13 -37.5 0.401)
(9.58e-13 -38.6 0.442)
(1.1e-12 -39.6 0.481)
(1.17e-12 -40.6 0.506)
(1.18e-12 -41.5 0.518)
(1.16e-12 -42.4 0.525)
(1.13e-12 -43.2 0.521)
(1.1e-12 -43.9 0.512)
(1.08e-12 -44.6 0.498)
(1.05e-12 -45.2 0.481)
(1.02e-12 -45.8 0.472)
(1.17e-12 -46.3 0.461)
(1.17e-12 -46.7 0.442)
(1.11e-12 -47.1 0.429)
(7.86e-13 -47.4 0.415)
(6.07e-13 -47.8 0.413)
(4.06e-13 -48 0.404)
(1.54e-13 -48.2 0.403)
(-1.77e-13 -48.3 0.452)
(-8.22e-13 -48.2 0.5)
(-1.26e-12 -48 0.494)
(-1.74e-12 -47.6 0.447)
(-2.22e-12 -47 0.433)
(-2.62e-12 -46.1 0.368)
(-2.85e-12 -44.9 0.326)
(-3.16e-12 -43.6 0.297)
(-2.63e-12 -41.9 0.28)
(-4.01e-11 -39.7 0.214)
(8.52e-12 -36.9 0.0795)
(1.57e-11 -33.4 -0.0605)
(1.68e-11 -29.6 -0.186)
(1.2e-11 -25.6 -0.281)
(-3.75e-11 -21.1 -0.412)
(1.67e-11 -15.2 -0.579)
(2.61e-11 -6.15 -0.872)
(2.16e-11 5.05 -1.14)
(1.49e-11 11.2 -1.12)
(1.15e-11 9.7 -0.82)
(9.49e-12 5.43 -0.387)
(9.92e-12 2.84 -0.464)
(2.08e-11 1.88 -0.339)
(9.64e-13 1.61 0.388)
(9.86e-13 0.219 0.74)
(-1.67e-13 38.3 0.279)
(-1.8e-13 37.8 0.187)
(-1.93e-13 37.5 0.166)
(-2.23e-13 37.1 0.138)
(-1.81e-13 36.6 0.123)
(-1.45e-13 36 0.117)
(-2.07e-13 35.3 0.111)
(-2.62e-14 34.7 0.113)
(-9.11e-14 33.9 0.118)
(-6.96e-14 33.2 0.131)
(-7.23e-14 32.4 0.143)
(-8.14e-14 31.5 0.152)
(-1.11e-13 30.6 0.16)
(-2.61e-14 29.6 0.173)
(2.07e-14 28.6 0.186)
(-5.42e-14 27.6 0.194)
(-9.4e-14 26.4 0.189)
(-1.12e-14 25.2 0.187)
(-1.31e-13 24.1 0.177)
(1.54e-14 23 0.162)
(-6.76e-14 21.9 0.143)
(-2.46e-14 20.9 0.132)
(-2.18e-13 19.9 0.133)
(-1.44e-13 18.9 0.13)
(-1.06e-14 17.7 0.116)
(-1.01e-13 16.5 0.0964)
(2.59e-14 15.2 0.0804)
(5.02e-14 13.9 0.0611)
(1.42e-13 12.6 0.0359)
(-2.21e-14 11.4 0.00341)
(3.31e-13 10.2 -0.032)
(1.55e-13 9.03 -0.0662)
(4.81e-14 7.9 -0.092)
(3.79e-13 6.74 -0.132)
(1.03e-13 5.55 -0.177)
(4.51e-13 4.35 -0.228)
(2.02e-13 3.18 -0.263)
(2.36e-13 2.06 -0.287)
(1.77e-13 0.962 -0.314)
(-1.7e-13 -0.147 -0.341)
(-5.94e-14 -1.31 -0.341)
(-1.13e-13 -2.52 -0.332)
(-1.77e-14 -3.75 -0.355)
(-5.94e-14 -4.95 -0.383)
(3.46e-13 -6.11 -0.399)
(2.5e-13 -7.18 -0.406)
(3.8e-13 -8.19 -0.412)
(2.01e-13 -9.2 -0.412)
(7.46e-13 -10.3 -0.419)
(3.46e-13 -11.4 -0.448)
(7.19e-13 -12.7 -0.493)
(9.96e-13 -13.9 -0.534)
(-2.06e-13 -15.1 -0.57)
(5.35e-13 -16.3 -0.599)
(4.59e-13 -17.4 -0.62)
(1.62e-12 -18.6 -0.633)
(8.22e-13 -19.8 -0.652)
(1.45e-12 -20.9 -0.666)
(6.71e-13 -22 -0.674)
(6.74e-13 -23.2 -0.689)
(8.43e-13 -24.3 -0.71)
(1.22e-12 -25.4 -0.728)
(1.02e-12 -26.5 -0.743)
(6.86e-13 -27.7 -0.758)
(2.55e-12 -28.8 -0.786)
(1.82e-12 -29.9 -0.817)
(2.22e-12 -31 -0.831)
(1.22e-12 -32.1 -0.836)
(1.11e-12 -33.2 -0.838)
(1.05e-12 -34.3 -0.833)
(8.54e-13 -35.5 -0.832)
(1.59e-12 -36.6 -0.834)
(1.35e-12 -37.7 -0.826)
(1.37e-12 -38.8 -0.805)
(8.43e-13 -39.8 -0.828)
(7.7e-13 -40.7 -0.836)
(1.91e-12 -41.6 -0.831)
(1.71e-12 -42.4 -0.825)
(1.66e-12 -43.2 -0.812)
(1.91e-12 -43.9 -0.792)
(1.76e-12 -44.5 -0.758)
(-3.28e-13 -45.1 -0.729)
(1.46e-12 -45.7 -0.714)
(1.91e-13 -46.1 -0.677)
(-8.92e-13 -46.5 -0.654)
(9.21e-13 -46.9 -0.643)
(1.68e-12 -47.3 -0.652)
(1.34e-12 -47.5 -0.656)
(-5.98e-13 -47.7 -0.597)
(-2.09e-13 -47.8 -0.581)
(2.65e-13 -47.7 -0.602)
(-1.36e-12 -47.5 -0.667)
(-8.83e-13 -47 -0.709)
(-1.06e-12 -46.2 -0.749)
(-1.43e-13 -45.2 -0.745)
(2.4e-12 -44 -0.725)
(4.08e-12 -42.6 -0.638)
(1.37e-12 -40.6 -0.62)
(-2.12e-12 -38 -0.724)
(-1.75e-13 -34.8 -0.862)
(4.53e-12 -31.1 -0.872)
(5.24e-12 -27.1 -0.809)
(3.37e-12 -22.8 -0.774)
(5.87e-12 -17.3 -0.882)
(7.3e-12 -8.54 -1.17)
(-1.81e-12 2.66 -1.15)
(8.58e-12 9.76 -0.597)
(6.02e-12 9.19 -0.0486)
(9.34e-12 5.24 0.254)
(-1.54e-11 3.13 -0.145)
(-2.66e-11 2.58 0.0375)
(-9.29e-12 2.71 0.701)
(-7.35e-11 1.02 1.03)
(6.51e-15 38.6 0.3)
(3.79e-14 37.9 0.209)
(9.36e-14 37.7 0.19)
(1.1e-13 37.1 0.146)
(1.34e-13 36.7 0.123)
(1.23e-13 36.1 0.122)
(1.03e-13 35.4 0.13)
(1.02e-13 34.7 0.148)
(1.09e-13 34 0.166)
(1.08e-13 33.2 0.188)
(1.02e-13 32.5 0.201)
(8.37e-14 31.6 0.217)
(6.4e-14 30.7 0.239)
(-5.27e-14 29.7 0.25)
(8.52e-14 28.7 0.252)
(1.09e-13 27.6 0.266)
(2.7e-13 26.4 0.268)
(7.25e-14 25.3 0.261)
(2.29e-13 24.1 0.25)
(5.42e-14 23 0.249)
(3.01e-14 21.9 0.237)
(2.53e-13 20.9 0.185)
(-2.22e-14 19.9 0.144)
(-1.12e-13 18.9 0.161)
(-2.8e-13 17.7 0.192)
(-2.8e-13 16.5 0.161)
(-3.33e-13 15.2 0.145)
(1.02e-13 13.9 0.138)
(-1.77e-13 12.6 0.116)
(-8.14e-14 11.4 0.1)
(-3.67e-13 10.2 0.0769)
(-2.37e-13 9.07 0.0372)
(-2.33e-13 7.95 -0.000444)
(1.87e-13 6.79 -0.0361)
(9.04e-14 5.59 -0.0767)
(1.59e-13 4.37 -0.121)
(-3.09e-13 3.2 -0.153)
(-1.54e-13 2.07 -0.177)
(-2.49e-13 0.984 -0.189)
(-5.91e-14 -0.124 -0.204)
(-2.32e-13 -1.28 -0.215)
(2.82e-13 -2.49 -0.21)
(-6.19e-14 -3.69 -0.195)
(2.08e-13 -4.9 -0.2)
(-2.87e-13 -6.03 -0.23)
(-3.21e-13 -7.1 -0.259)
(-7.84e-13 -8.1 -0.279)
(-9.12e-13 -9.11 -0.299)
(-2.07e-13 -10.2 -0.315)
(-4.57e-13 -11.4 -0.331)
(2.78e-13 -12.6 -0.355)
(2.58e-13 -13.9 -0.384)
(2.97e-13 -15.1 -0.411)
(1.94e-13 -16.2 -0.433)
(-2.01e-13 -17.4 -0.44)
(6.21e-13 -18.6 -0.437)
(3.3e-13 -19.7 -0.445)
(1.17e-12 -20.8 -0.452)
(-2.63e-13 -22 -0.454)
(-2.18e-13 -23.1 -0.456)
(1.04e-12 -24.3 -0.453)
(8.02e-13 -25.5 -0.45)
(1.26e-12 -26.6 -0.444)
(2.99e-13 -27.8 -0.417)
(-3.32e-13 -28.9 -0.384)
(-8.29e-14 -30 -0.36)
(7e-13 -31.1 -0.343)
(1.12e-13 -32.2 -0.324)
(7.81e-13 -33.3 -0.286)
(-3.31e-13 -34.4 -0.242)
(-3.27e-13 -35.5 -0.183)
(-8.26e-13 -36.6 -0.137)
(-8.56e-13 -37.6 -0.0858)
(-4.69e-13 -38.7 -0.00214)
(-3.09e-13 -39.7 0.0523)
(-8.8e-13 -40.6 0.0211)
(-6.12e-13 -41.5 0.0181)
(8.13e-13 -42.3 0.011)
(-4.08e-13 -43 0.0107)
(2.49e-13 -43.7 0.0141)
(2.64e-13 -44.4 0.0214)
(-7.78e-13 -45 0.0273)
(5.75e-13 -45.6 0.0379)
(-5.12e-13 -46 0.069)
(-1.89e-12 -46.5 0.0918)
(-1.83e-12 -46.9 0.111)
(-1.88e-13 -47.2 0.097)
(1.05e-12 -47.5 0.0979)
(-2.88e-12 -47.8 0.158)
(1.77e-12 -47.8 0.179)
(2.19e-12 -47.7 0.224)
(1.61e-12 -47.5 0.162)
(1.05e-12 -47 0.0233)
(-2.29e-12 -46.2 -0.096)
(-2.72e-12 -45.3 -0.126)
(2.18e-12 -44.2 -0.165)
(2.06e-12 -42.7 -0.176)
(1.77e-12 -40.7 -0.243)
(1.82e-12 -38 -0.449)
(3.79e-12 -34.9 -0.706)
(3.84e-12 -31.3 -0.902)
(1.82e-12 -27.3 -1.01)
(1.53e-13 -23 -1.15)
(-2.39e-12 -17.3 -1.54)
(7.49e-13 -8.78 -2.28)
(-2.79e-12 1.89 -2.89)
(-3.95e-12 8.98 -2.43)
(6.03e-12 8.78 -1.35)
(-4.17e-12 5.09 -0.386)
(-4.46e-12 3.18 -0.422)
(-1.45e-11 2.5 -0.219)
(-4.53e-11 2.35 0.12)
(-3.55e-12 0.714 0.39)
(1.82e-13 38.6 0.343)
(4.5e-14 37.9 0.286)
(1.94e-13 37.6 0.255)
(1.18e-13 37.1 0.233)
(2.71e-13 36.6 0.215)
(2.48e-13 36 0.208)
(3.19e-13 35.4 0.205)
(3.35e-13 34.7 0.221)
(3.59e-13 34 0.244)
(3.4e-13 33.2 0.274)
(3.09e-13 32.4 0.302)
(3.13e-13 31.6 0.325)
(3.43e-13 30.6 0.34)
(4.35e-13 29.6 0.355)
(3e-13 28.7 0.371)
(5.16e-13 27.6 0.382)
(6.11e-13 26.5 0.385)
(1.56e-13 25.3 0.374)
(2.65e-13 24.2 0.356)
(-1.82e-13 23 0.336)
(-6.1e-14 21.9 0.31)
(-4.08e-13 20.9 0.287)
(8.31e-14 20 0.271)
(-2.65e-13 19 0.251)
(1.15e-13 17.8 0.229)
(-1.81e-13 16.5 0.202)
(5e-14 15.3 0.171)
(6.08e-14 14 0.13)
(-7.44e-14 12.7 0.074)
(5.89e-14 11.5 0.00867)
(4.29e-14 10.3 -0.0541)
(1.88e-13 9.17 -0.111)
(-1.84e-14 8.05 -0.164)
(5.31e-13 6.9 -0.227)
(6.64e-13 5.71 -0.302)
(6.48e-13 4.49 -0.387)
(-2.3e-13 3.31 -0.461)
(-2.43e-13 2.17 -0.525)
(-1.97e-13 1.08 -0.574)
(-4.6e-13 -0.0183 -0.613)
(-2.75e-13 -1.17 -0.655)
(-1.86e-13 -2.38 -0.687)
(1.67e-13 -3.59 -0.695)
(-2.78e-14 -4.79 -0.717)
(3.21e-14 -5.93 -0.759)
(-2.11e-13 -7.01 -0.786)
(3.55e-14 -8.02 -0.809)
(-2.52e-13 -9.03 -0.838)
(-4.42e-13 -10.1 -0.872)
(-1.47e-14 -11.2 -0.92)
(-5.7e-13 -12.5 -0.971)
(4.7e-13 -13.7 -1.02)
(-3.93e-13 -14.9 -1.07)
(-4.88e-14 -16.1 -1.11)
(-3.26e-13 -17.3 -1.16)
(-1.77e-13 -18.4 -1.21)
(2.25e-13 -19.6 -1.24)
(1.77e-13 -20.7 -1.27)
(-5.25e-13 -21.8 -1.29)
(-1.57e-12 -23 -1.3)
(-6.1e-13 -24.1 -1.32)
(9.26e-14 -25.3 -1.33)
(4.21e-13 -26.4 -1.35)
(7.07e-13 -27.5 -1.36)
(1.02e-12 -28.7 -1.39)
(6.75e-13 -29.8 -1.4)
(4.76e-13 -30.9 -1.41)
(2.06e-13 -32 -1.41)
(-5.36e-13 -33.1 -1.4)
(-9.41e-13 -34.2 -1.38)
(-4.18e-13 -35.4 -1.36)
(-9.28e-13 -36.4 -1.31)
(2.33e-13 -37.5 -1.3)
(-7.76e-14 -38.5 -1.28)
(4.67e-13 -39.6 -1.25)
(9.71e-13 -40.5 -1.26)
(1.65e-12 -41.4 -1.24)
(2.05e-12 -42.2 -1.23)
(1.52e-12 -42.9 -1.22)
(2.27e-12 -43.6 -1.19)
(1.21e-12 -44.3 -1.16)
(6.52e-13 -45 -1.14)
(2.27e-12 -45.5 -1.11)
(1.01e-12 -46 -1.08)
(1.81e-12 -46.4 -1.02)
(2.31e-13 -46.8 -0.999)
(3.8e-12 -47.2 -1.02)
(1.54e-12 -47.5 -1.01)
(1.02e-12 -47.7 -0.974)
(5.31e-13 -47.8 -0.946)
(1.02e-12 -47.7 -0.918)
(1.14e-12 -47.4 -1.03)
(1.73e-12 -46.9 -1.15)
(1.43e-12 -46.2 -1.24)
(9.55e-13 -45.3 -1.29)
(-3e-13 -44.2 -1.31)
(1.66e-12 -42.9 -1.33)
(4.83e-13 -40.9 -1.38)
(9.18e-13 -38.3 -1.47)
(7.63e-13 -35.2 -1.6)
(-8.15e-13 -31.6 -1.81)
(-1.81e-12 -27.8 -1.97)
(-4.21e-12 -23.6 -2.07)
(-3.06e-12 -18.1 -2.22)
(-2.05e-12 -9.67 -2.94)
(5.6e-12 0.851 -3.71)
(-1.15e-12 7.96 -3.03)
(9.82e-12 8.15 -1.32)
(-1.12e-11 5.05 -0.00754)
(-7.49e-12 3.27 -0.0191)
(-2.89e-11 2.34 0.0411)
(2.19e-12 2.1 0.324)
(-4.16e-12 0.612 0.74)
(-2.96e-13 38.7 0.359)
(-4.33e-13 38 0.301)
(-5.02e-13 37.7 0.275)
(-2.87e-13 37.2 0.246)
(-1.3e-13 36.7 0.233)
(2.7e-13 36.1 0.234)
(4.42e-13 35.4 0.245)
(4.01e-13 34.7 0.27)
(2.77e-13 34 0.298)
(1.23e-13 33.2 0.331)
(-1.44e-13 32.4 0.368)
(1.66e-14 31.6 0.403)
(-4.51e-14 30.6 0.431)
(1.93e-13 29.7 0.448)
(8.5e-13 28.7 0.452)
(5.06e-13 27.6 0.454)
(3.97e-13 26.5 0.46)
(-2.9e-13 25.3 0.459)
(-7.58e-14 24.2 0.448)
(-1.6e-13 23 0.424)
(-9.13e-14 21.9 0.385)
(-3.08e-13 20.9 0.348)
(3.39e-14 20 0.325)
(1.98e-13 19 0.31)
(1.84e-13 17.8 0.302)
(1.02e-13 16.5 0.273)
(1.58e-13 15.3 0.243)
(-3.95e-13 14 0.21)
(-2.78e-13 12.8 0.163)
(-3.81e-13 11.5 0.103)
(-8.47e-14 10.4 0.0448)
(-6.93e-13 9.21 -0.0202)
(-4.17e-13 8.1 -0.0827)
(-2.65e-14 6.95 -0.152)
(4.68e-13 5.76 -0.232)
(1.13e-13 4.55 -0.317)
(3.26e-13 3.37 -0.397)
(1.38e-15 2.22 -0.47)
(4.89e-13 1.12 -0.527)
(1.95e-13 0.0115 -0.575)
(-2.49e-13 -1.14 -0.616)
(7.13e-13 -2.37 -0.655)
(-9.04e-13 -3.58 -0.676)
(1.14e-13 -4.75 -0.691)
(-1.03e-12 -5.88 -0.717)
(3.56e-14 -6.95 -0.751)
(-7.88e-13 -7.95 -0.784)
(1.13e-12 -8.96 -0.817)
(-1.59e-12 -10 -0.848)
(3.03e-12 -11.2 -0.881)
(-2.34e-12 -12.4 -0.915)
(2.28e-12 -13.7 -0.944)
(-2.11e-12 -14.9 -0.97)
(9.16e-13 -16 -0.997)
(-1.09e-12 -17.2 -1.03)
(2.61e-13 -18.4 -1.07)
(-7.78e-13 -19.5 -1.11)
(-1.85e-13 -20.7 -1.14)
(-3.73e-13 -21.8 -1.17)
(-7.62e-13 -23 -1.18)
(4.55e-13 -24.2 -1.19)
(8.99e-13 -25.3 -1.19)
(-1.34e-14 -26.5 -1.19)
(3.55e-13 -27.6 -1.18)
(2.56e-13 -28.8 -1.15)
(9.26e-13 -29.9 -1.11)
(7.18e-13 -31 -1.07)
(-3.64e-14 -32 -1.03)
(-3.17e-13 -33.1 -0.974)
(-6.22e-13 -34.2 -0.924)
(-1.33e-12 -35.4 -0.86)
(-2.08e-13 -36.4 -0.796)
(4.41e-13 -37.5 -0.755)
(-2.63e-13 -38.5 -0.692)
(-8.67e-15 -39.5 -0.6)
(1.2e-12 -40.4 -0.593)
(3.92e-13 -41.3 -0.562)
(2.29e-12 -42.1 -0.541)
(2.05e-12 -42.9 -0.515)
(1.38e-12 -43.6 -0.486)
(7.85e-14 -44.3 -0.455)
(-1.24e-12 -44.9 -0.439)
(-2.58e-12 -45.5 -0.408)
(-1.47e-12 -46 -0.381)
(2.76e-13 -46.4 -0.333)
(7.83e-14 -46.8 -0.312)
(1.08e-12 -47.2 -0.316)
(7.43e-13 -47.5 -0.294)
(3.46e-13 -47.8 -0.277)
(2.29e-12 -47.8 -0.255)
(2.28e-12 -47.7 -0.272)
(7.14e-13 -47.4 -0.41)
(-1.21e-12 -46.9 -0.505)
(-1.19e-12 -46.3 -0.563)
(-1.19e-12 -45.4 -0.621)
(-9.54e-13 -44.3 -0.669)
(3.9e-13 -43 -0.743)
(2.06e-12 -41 -0.859)
(3.36e-12 -38.4 -1.02)
(3.4e-12 -35.3 -1.24)
(8.15e-14 -31.7 -1.55)
(1.1e-12 -28 -1.88)
(-1.5e-12 -23.8 -2.07)
(2.89e-12 -18.1 -2.45)
(1.37e-11 -9.67 -3.67)
(5.02e-12 0.258 -4.81)
(-2.74e-12 6.69 -4.27)
(-2.41e-12 7.02 -2.39)
(-3.71e-11 4.68 -0.591)
(-6.59e-12 3.51 -0.153)
(-1.29e-11 2.48 0.122)
(-4.03e-11 2.05 0.236)
(-1.53e-11 0.484 0.582)
(-2.33e-12 38.7 0.441)
(-2.81e-12 38 0.398)
(-2.42e-12 37.7 0.377)
(-1.92e-12 37.2 0.346)
(-4.33e-13 36.6 0.341)
(1.28e-12 36 0.347)
(2.31e-12 35.4 0.366)
(2.71e-12 34.7 0.388)
(1.88e-12 33.9 0.415)
(7.73e-13 33.2 0.443)
(-4.69e-13 32.4 0.482)
(-9.92e-13 31.5 0.522)
(-3.56e-13 30.6 0.554)
(1.31e-12 29.6 0.577)
(2.34e-12 28.7 0.58)
(2.07e-12 27.6 0.584)
(5.63e-13 26.5 0.588)
(-1.6e-13 25.3 0.585)
(-2.32e-13 24.2 0.57)
(7.71e-13 23.1 0.543)
(5.48e-13 22 0.505)
(4.56e-13 21 0.472)
(3.54e-13 20 0.446)
(5.57e-13 19 0.413)
(5.06e-14 17.9 0.377)
(2.13e-13 16.6 0.333)
(1.81e-13 15.4 0.279)
(5.07e-14 14.1 0.215)
(-7.14e-14 12.9 0.144)
(1.06e-12 11.6 0.0647)
(1.06e-12 10.5 -0.0206)
(-6.45e-13 9.33 -0.115)
(-2.29e-12 8.22 -0.211)
(1.22e-12 7.08 -0.317)
(3.06e-14 5.9 -0.429)
(1.83e-12 4.69 -0.538)
(-1.62e-12 3.51 -0.642)
(3.16e-12 2.35 -0.74)
(-1.86e-12 1.25 -0.828)
(3.87e-12 0.138 -0.913)
(-5.15e-12 -1.01 -0.999)
(7.84e-12 -2.24 -1.09)
(-7.6e-12 -3.46 -1.17)
(6.37e-12 -4.64 -1.22)
(-6.38e-12 -5.76 -1.27)
(5.2e-12 -6.83 -1.32)
(-5.82e-12 -7.85 -1.36)
(8.88e-12 -8.86 -1.4)
(-1.28e-11 -9.91 -1.44)
(1.48e-11 -11.1 -1.47)
(-1.43e-11 -12.3 -1.5)
(1.23e-11 -13.5 -1.53)
(-8.62e-12 -14.8 -1.57)
(5.99e-12 -15.9 -1.61)
(-4.47e-12 -17.1 -1.65)
(3.13e-12 -18.2 -1.68)
(-2.59e-12 -19.4 -1.72)
(8.02e-13 -20.5 -1.76)
(-1.61e-12 -21.7 -1.8)
(5.13e-13 -22.8 -1.84)
(-2.03e-13 -24 -1.87)
(5.55e-14 -25.1 -1.9)
(-2.44e-13 -26.3 -1.93)
(-7.41e-14 -27.4 -1.95)
(-2.11e-14 -28.6 -1.97)
(6.31e-13 -29.7 -1.99)
(-3.4e-13 -30.8 -1.99)
(-4.64e-13 -31.9 -1.96)
(-1.11e-12 -33 -1.94)
(-1.37e-12 -34.2 -1.91)
(-1.23e-12 -35.3 -1.87)
(-1.6e-12 -36.4 -1.83)
(-7.03e-13 -37.4 -1.8)
(-6.13e-13 -38.4 -1.77)
(-6.13e-13 -39.4 -1.71)
(-3.03e-13 -40.4 -1.67)
(-3.6e-13 -41.3 -1.62)
(1.46e-12 -42.1 -1.57)
(3.24e-13 -42.8 -1.53)
(4.33e-13 -43.5 -1.5)
(-1.84e-12 -44.2 -1.47)
(-3.14e-12 -44.9 -1.44)
(-3.74e-12 -45.5 -1.4)
(-1.65e-12 -46 -1.37)
(9.62e-13 -46.4 -1.33)
(5.15e-13 -46.8 -1.31)
(1.44e-12 -47.1 -1.31)
(-6.69e-13 -47.5 -1.3)
(-1.09e-12 -47.7 -1.3)
(-4.74e-13 -47.8 -1.31)
(-2.85e-12 -47.6 -1.35)
(-2.84e-12 -47.3 -1.46)
(-2.66e-12 -46.9 -1.52)
(1.06e-13 -46.3 -1.58)
(1.71e-12 -45.4 -1.61)
(-5.91e-13 -44.4 -1.72)
(2.4e-13 -43 -1.79)
(1.58e-13 -41.1 -1.98)
(4.38e-12 -38.6 -2.12)
(7.65e-12 -35.6 -2.3)
(6.16e-12 -32 -2.54)
(4.26e-12 -28.3 -2.7)
(2e-12 -24.2 -2.88)
(8.61e-12 -18.6 -3.22)
(1.52e-11 -10.1 -4.2)
(2.68e-12 -0.442 -5.39)
(1.66e-11 5.61 -5.13)
(-6.65e-12 5.85 -3.21)
(1.16e-11 3.86 -1.12)
(-1.13e-11 3.07 -0.0935)
(-1.6e-11 2.29 0.437)
(3.13e-11 1.93 0.483)
(-2.3e-11 0.33 0.907)
(-9.45e-12 38.7 0.49)
(-1.15e-11 38.1 0.445)
(-9.72e-12 37.8 0.427)
(-8.6e-12 37.2 0.385)
(-3.17e-12 36.7 0.383)
(2.26e-12 36.1 0.39)
(6.45e-12 35.4 0.413)
(8.1e-12 34.7 0.44)
(5.18e-12 33.9 0.463)
(1.5e-12 33.1 0.497)
(-2.85e-12 32.3 0.529)
(-4.41e-12 31.5 0.573)
(-2.56e-12 30.6 0.614)
(2.16e-12 29.6 0.649)
(6.37e-12 28.7 0.67)
(4.9e-12 27.6 0.682)
(2.08e-12 26.5 0.677)
(-1.36e-12 25.3 0.657)
(-1.72e-13 24.2 0.635)
(2.47e-12 23.1 0.612)
(2.98e-12 22 0.579)
(2.72e-12 21 0.547)
(2.5e-12 20.1 0.519)
(2.17e-12 19 0.484)
(1.88e-12 17.9 0.446)
(1.31e-12 16.6 0.396)
(2.99e-12 15.4 0.339)
(2.83e-12 14.1 0.276)
(9.01e-13 12.9 0.202)
(-8.92e-13 11.7 0.116)
(8.94e-13 10.6 0.0233)
(7.37e-12 9.43 -0.0802)
(-1.71e-11 8.33 -0.189)
(1.76e-11 7.18 -0.299)
(-1.8e-11 6 -0.415)
(2.34e-11 4.78 -0.528)
(-1.82e-11 3.6 -0.633)
(2.11e-11 2.45 -0.734)
(-2.18e-11 1.34 -0.834)
(2.84e-11 0.236 -0.933)
(-3.86e-11 -0.916 -1.03)
(4.44e-11 -2.15 -1.14)
(-3.94e-11 -3.38 -1.23)
(3.25e-11 -4.57 -1.31)
(-2.97e-11 -5.69 -1.36)
(2.77e-11 -6.76 -1.4)
(-2.74e-11 -7.77 -1.44)
(3.01e-11 -8.79 -1.48)
(-4.46e-11 -9.86 -1.5)
(5.29e-11 -11 -1.53)
(-4.49e-11 -12.2 -1.55)
(3.65e-11 -13.5 -1.56)
(-2.8e-11 -14.7 -1.58)
(2.34e-11 -15.9 -1.61)
(-1.79e-11 -17 -1.64)
(1.25e-11 -18.2 -1.67)
(-7.88e-12 -19.3 -1.69)
(4.61e-12 -20.5 -1.72)
(-2.21e-12 -21.6 -1.74)
(1.45e-12 -22.8 -1.77)
(9.71e-13 -24 -1.8)
(7.52e-13 -25.1 -1.82)
(1.53e-13 -26.3 -1.83)
(-1.96e-13 -27.5 -1.82)
(4.01e-13 -28.6 -1.8)
(5.04e-13 -29.7 -1.77)
(-3.54e-13 -30.8 -1.74)
(-6.6e-14 -31.9 -1.7)
(3.35e-13 -33 -1.66)
(1.21e-13 -34.1 -1.61)
(-1.23e-13 -35.2 -1.56)
(-5.65e-13 -36.3 -1.51)
(-6.92e-13 -37.4 -1.45)
(-6.59e-13 -38.4 -1.41)
(-6.12e-13 -39.4 -1.32)
(-3.65e-13 -40.3 -1.27)
(-2.98e-13 -41.2 -1.19)
(-2.21e-13 -42 -1.11)
(-1.5e-12 -42.8 -1.06)
(-1.34e-12 -43.5 -1.01)
(-2.82e-12 -44.2 -0.965)
(-1.18e-12 -44.8 -0.934)
(1.45e-13 -45.4 -0.884)
(1.75e-12 -45.9 -0.862)
(1.07e-12 -46.4 -0.837)
(8.87e-13 -46.7 -0.827)
(-6.06e-15 -47.1 -0.812)
(-1.68e-12 -47.5 -0.783)
(7.72e-13 -47.7 -0.782)
(7.64e-13 -47.8 -0.805)
(4.62e-13 -47.6 -0.88)
(-1.49e-12 -47.3 -0.983)
(9.59e-14 -46.9 -0.98)
(-1.48e-12 -46.3 -1.05)
(-7.95e-13 -45.5 -1.12)
(-4.58e-12 -44.4 -1.23)
(1.41e-11 -43.1 -1.34)
(-1.3e-11 -41.2 -1.61)
(1.76e-11 -38.8 -1.81)
(-2.75e-12 -35.7 -2.03)
(2.12e-11 -32.2 -2.29)
(5.17e-12 -28.5 -2.52)
(4.83e-12 -24.4 -2.73)
(-2.4e-12 -18.8 -3.2)
(4.28e-12 -10.3 -4.6)
(5.27e-14 -0.912 -6.19)
(1.28e-12 4.43 -5.93)
(-3.78e-13 4.38 -3.92)
(1.84e-12 2.78 -1.67)
(1.44e-12 2.63 -0.251)
(9.25e-12 2.23 0.356)
(3.55e-11 1.86 0.664)
(-1.39e-11 0.181 1.14)
(-1.67e-11 38.7 0.634)
(-2.05e-11 38.1 0.586)
(-1.72e-11 37.8 0.57)
(-1.65e-11 37.2 0.521)
(-7.55e-12 36.6 0.528)
(1.15e-12 36 0.523)
(8.52e-12 35.3 0.541)
(1.07e-11 34.6 0.568)
(6.67e-12 33.9 0.587)
(-7.55e-13 33.1 0.622)
(-6.85e-12 32.3 0.655)
(-9.42e-12 31.5 0.697)
(-7.61e-12 30.5 0.741)
(-8.58e-13 29.6 0.777)
(6.98e-12 28.7 0.8)
(3.54e-12 27.6 0.81)
(-2.03e-13 26.5 0.802)
(-5.69e-12 25.4 0.777)
(-3.27e-12 24.3 0.751)
(-7.39e-13 23.2 0.724)
(1.13e-12 22.1 0.693)
(-7.45e-13 21.1 0.659)
(-1.81e-12 20.1 0.628)
(-4.46e-12 19.1 0.584)
(-6.46e-12 18 0.53)
(-6.08e-12 16.7 0.462)
(4.92e-12 15.5 0.382)
(2.01e-11 14.3 0.288)
(3.03e-11 13 0.184)
(9.73e-11 11.8 0.071)
(-1.43e-10 10.7 -0.0448)
(1.92e-10 9.58 -0.168)
(-2.02e-10 8.48 -0.296)
(1.85e-10 7.34 -0.428)
(-1.68e-10 6.15 -0.566)
(1.52e-10 4.94 -0.702)
(-1.11e-10 3.75 -0.825)
(1.06e-10 2.61 -0.952)
(-1.01e-10 1.5 -1.07)
(1.08e-10 0.407 -1.2)
(-1.27e-10 -0.742 -1.34)
(1.34e-10 -1.98 -1.48)
(-1.27e-10 -3.22 -1.6)
(1.02e-10 -4.43 -1.7)
(-7.83e-11 -5.57 -1.77)
(5.64e-11 -6.64 -1.83)
(-5.11e-11 -7.66 -1.88)
(6.3e-11 -8.67 -1.93)
(-6.98e-11 -9.74 -1.98)
(7.56e-11 -10.9 -2.03)
(-6.94e-11 -12.1 -2.08)
(5.49e-11 -13.4 -2.11)
(-4.17e-11 -14.6 -2.14)
(3.55e-11 -15.7 -2.16)
(-2.85e-11 -16.9 -2.17)
(1.99e-11 -18.1 -2.2)
(-1.21e-11 -19.2 -2.24)
(7.07e-12 -20.3 -2.27)
(-3.23e-12 -21.5 -2.31)
(3e-12 -22.6 -2.35)
(8.6e-13 -23.8 -2.39)
(7.72e-13 -25 -2.43)
(2.39e-13 -26.1 -2.47)
(-2.78e-13 -27.3 -2.5)
(2.21e-13 -28.4 -2.52)
(-5.64e-13 -29.6 -2.52)
(9.8e-14 -30.7 -2.51)
(-3.16e-14 -31.8 -2.49)
(-2.23e-13 -32.9 -2.46)
(-1.12e-13 -34 -2.43)
(-6.32e-13 -35.2 -2.39)
(-1.1e-12 -36.3 -2.33)
(-1.04e-12 -37.3 -2.27)
(-1.04e-12 -38.4 -2.27)
(-1.13e-12 -39.4 -2.19)
(-1.27e-12 -40.3 -2.15)
(-2.22e-12 -41.2 -2.06)
(-3.32e-12 -42 -1.98)
(-4.66e-12 -42.8 -1.92)
(-5.24e-12 -43.5 -1.86)
(-4.47e-12 -44.2 -1.81)
(-2.47e-12 -44.8 -1.77)
(8.45e-13 -45.4 -1.72)
(1.85e-12 -45.9 -1.69)
(3.27e-12 -46.3 -1.67)
(-3.21e-12 -46.7 -1.67)
(4.17e-12 -47.1 -1.65)
(-1.28e-11 -47.4 -1.64)
(4.41e-12 -47.7 -1.65)
(-5.92e-12 -47.7 -1.71)
(3.59e-12 -47.6 -1.79)
(-9.21e-12 -47.3 -1.84)
(-1.6e-12 -47 -1.8)
(-1.84e-11 -46.4 -1.87)
(-7.53e-12 -45.5 -1.95)
(-3.7e-11 -44.5 -2.03)
(7.08e-11 -43.1 -2.21)
(-1.39e-10 -41.3 -2.48)
(9.83e-11 -38.9 -2.69)
(-8.88e-12 -35.9 -2.92)
(8.39e-11 -32.5 -3.15)
(3.03e-13 -28.8 -3.34)
(8.39e-12 -24.7 -3.56)
(-1.34e-12 -18.9 -4.13)
(-3.15e-12 -10.2 -5.5)
(9.07e-12 -1.23 -6.93)
(3.79e-12 3.45 -6.77)
(1.21e-11 3.01 -5.1)
(2.06e-11 1.37 -2.92)
(-6.21e-12 1.63 -1.37)
(1.44e-11 1.66 -0.481)
(3.35e-11 1.39 0.13)
(-6.31e-12 -0.145 0.928)
(-6.64e-12 38.8 0.703)
(-7.74e-12 38.1 0.647)
(-5.2e-12 37.8 0.637)
(-3.92e-12 37.2 0.588)
(9.82e-14 36.7 0.603)
(3.79e-12 36 0.591)
(6.63e-12 35.3 0.601)
(8.08e-12 34.6 0.624)
(7.02e-12 33.9 0.644)
(4.8e-12 33.1 0.674)
(8.36e-13 32.3 0.709)
(-1.71e-12 31.4 0.744)
(-3.34e-13 30.5 0.786)
(4.73e-12 29.6 0.821)
(7.71e-12 28.6 0.851)
(6.97e-12 27.6 0.872)
(2.88e-12 26.5 0.868)
(1.57e-12 25.4 0.842)
(3.74e-12 24.3 0.813)
(6.3e-12 23.2 0.79)
(7.11e-12 22.1 0.763)
(5.09e-12 21.1 0.732)
(3.32e-12 20.2 0.698)
(3.75e-12 19.2 0.647)
(4.54e-12 18 0.58)
(3.24e-12 16.8 0.499)
(6.92e-12 15.6 0.407)
(2.22e-11 14.3 0.3)
(3.07e-11 13.1 0.184)
(9.89e-11 12 0.0655)
(-1.45e-10 10.8 -0.0518)
(1.69e-10 9.71 -0.171)
(-1.71e-10 8.61 -0.295)
(1.87e-10 7.47 -0.423)
(-1.78e-10 6.28 -0.562)
(1.56e-10 5.06 -0.702)
(-1.19e-10 3.88 -0.838)
(1.07e-10 2.73 -0.979)
(-9.25e-11 1.64 -1.11)
(7.59e-11 0.542 -1.25)
(-8.72e-11 -0.602 -1.39)
(1.01e-10 -1.83 -1.54)
(-9.55e-11 -3.09 -1.68)
(7.85e-11 -4.31 -1.8)
(-5.91e-11 -5.46 -1.89)
(4.36e-11 -6.54 -1.96)
(-3.34e-11 -7.56 -2.01)
(3.85e-11 -8.57 -2.06)
(-4.44e-11 -9.64 -2.12)
(4.36e-11 -10.8 -2.18)
(-3.74e-11 -12.1 -2.23)
(2.82e-11 -13.3 -2.28)
(-1.98e-11 -14.5 -2.31)
(1.79e-11 -15.7 -2.34)
(-1.37e-11 -16.8 -2.35)
(1.04e-11 -18 -2.38)
(-6.57e-12 -19.1 -2.4)
(3.73e-12 -20.3 -2.43)
(-7.93e-13 -21.4 -2.46)
(2.61e-12 -22.6 -2.47)
(7.14e-13 -23.8 -2.47)
(9.61e-13 -24.9 -2.45)
(5.87e-14 -26.1 -2.44)
(-8.21e-14 -27.3 -2.43)
(6.43e-13 -28.4 -2.41)
(-4.95e-13 -29.5 -2.39)
(7.05e-13 -30.6 -2.37)
(-5.29e-13 -31.7 -2.34)
(1.37e-12 -32.9 -2.3)
(-1.14e-12 -34 -2.27)
(4.03e-13 -35.1 -2.24)
(-1.46e-12 -36.2 -2.18)
(-4.41e-13 -37.3 -2.12)
(-2.39e-12 -38.3 -2.1)
(-2.08e-12 -39.3 -2.01)
(-3.96e-12 -40.3 -1.97)
(-6.18e-12 -41.1 -1.87)
(-7.74e-12 -41.9 -1.79)
(-1.03e-11 -42.7 -1.73)
(-1.21e-11 -43.4 -1.65)
(-1.21e-11 -44.1 -1.58)
(-8.9e-12 -44.7 -1.54)
(-3.58e-12 -45.3 -1.48)
(-1.37e-12 -45.9 -1.45)
(1.12e-11 -46.3 -1.42)
(-3.1e-11 -46.7 -1.42)
(6.25e-11 -47 -1.38)
(-1.26e-10 -47.4 -1.35)
(9.13e-11 -47.6 -1.36)
(-2.01e-11 -47.7 -1.45)
(6.19e-11 -47.6 -1.49)
(-1.24e-11 -47.4 -1.49)
(2.61e-11 -47 -1.49)
(-3.34e-11 -46.4 -1.55)
(1.73e-12 -45.5 -1.65)
(-4.23e-11 -44.5 -1.76)
(7.02e-11 -43.1 -2.02)
(-1.41e-10 -41.3 -2.33)
(8.34e-11 -39 -2.59)
(-3.38e-11 -36.1 -2.87)
(7.94e-11 -32.7 -3.15)
(-6.72e-12 -29.1 -3.37)
(1.11e-11 -25 -3.64)
(4.14e-12 -19.2 -4.3)
(1.18e-11 -10.5 -5.7)
(7.31e-12 -1.69 -7.18)
(2.46e-12 2.6 -7.09)
(-2.19e-12 1.74 -5.51)
(3.04e-11 0.0362 -3.51)
(-1.63e-11 0.664 -2.23)
(7.16e-12 1.03 -1.4)
(2.43e-12 0.723 -0.666)
(-1.92e-12 -0.616 0.221)
(1.05e-12 38.8 0.801)
(1.31e-12 38.1 0.752)
(3.93e-12 37.8 0.755)
(2.79e-12 37.2 0.707)
(1.53e-12 36.7 0.735)
(-2.7e-13 36 0.718)
(-1.85e-12 35.3 0.726)
(-1.36e-12 34.6 0.748)
(1.89e-12 33.8 0.767)
(3.19e-12 33 0.797)
(1.98e-12 32.2 0.831)
(-1.23e-12 31.4 0.862)
(-3.03e-12 30.5 0.895)
(-4.66e-14 29.6 0.925)
(4.24e-12 28.6 0.95)
(3.32e-12 27.6 0.964)
(-6.19e-12 26.6 0.955)
(-2.26e-12 25.5 0.934)
(3.43e-12 24.4 0.905)
(1.8e-12 23.3 0.872)
(4.06e-12 22.2 0.833)
(-2.23e-12 21.2 0.792)
(-7.12e-12 20.2 0.751)
(-1.55e-12 19.2 0.694)
(3.41e-12 18.1 0.618)
(6.4e-12 16.9 0.523)
(-1.24e-11 15.7 0.412)
(9.61e-12 14.5 0.287)
(-5.37e-12 13.3 0.158)
(5.57e-13 12.1 0.0297)
(-2.86e-12 11 -0.0912)
(4.73e-12 9.87 -0.212)
(-5e-12 8.78 -0.338)
(1.44e-11 7.64 -0.474)
(-1.97e-11 6.45 -0.627)
(1.71e-11 5.24 -0.787)
(-6.95e-12 4.07 -0.948)
(-3.35e-15 2.93 -1.11)
(3.39e-14 1.84 -1.26)
(5.75e-12 0.75 -1.42)
(-1.45e-11 -0.386 -1.58)
(1.99e-11 -1.62 -1.74)
(-1.96e-11 -2.89 -1.9)
(1.51e-11 -4.12 -2.03)
(-1.04e-11 -5.29 -2.14)
(6.73e-12 -6.38 -2.24)
(-3.51e-12 -7.4 -2.31)
(3.2e-12 -8.42 -2.39)
(-9.46e-13 -9.49 -2.46)
(1.38e-12 -10.7 -2.54)
(6.28e-13 -11.9 -2.61)
(6.4e-13 -13.1 -2.69)
(2.49e-13 -14.4 -2.76)
(3.99e-13 -15.5 -2.83)
(6.29e-13 -16.7 -2.89)
(7.59e-13 -17.8 -2.93)
(2.68e-13 -19 -2.96)
(-9.08e-14 -20.1 -2.97)
(7.41e-13 -21.3 -2.98)
(1.77e-12 -22.5 -2.99)
(1.39e-12 -23.6 -2.99)
(1.27e-12 -24.8 -2.98)
(4.33e-13 -26 -2.99)
(1.48e-13 -27.1 -2.99)
(-3.1e-13 -28.3 -3)
(-2.43e-13 -29.4 -2.99)
(1.54e-13 -30.5 -2.99)
(2.35e-13 -31.6 -2.97)
(7.53e-13 -32.8 -2.94)
(3.58e-14 -33.9 -2.91)
(-8.5e-13 -35 -2.86)
(-1.4e-12 -36.1 -2.8)
(-3.16e-13 -37.2 -2.75)
(-6.53e-13 -38.3 -2.75)
(2.59e-13 -39.3 -2.68)
(-1.34e-12 -40.2 -2.66)
(-2.25e-12 -41.1 -2.57)
(-5.2e-12 -42 -2.49)
(-7.34e-12 -42.7 -2.43)
(-7.85e-12 -43.4 -2.36)
(-7.87e-12 -44.1 -2.3)
(-4.56e-12 -44.7 -2.25)
(-7.8e-13 -45.3 -2.19)
(-6.05e-14 -45.9 -2.15)
(1.1e-11 -46.3 -2.1)
(-2.34e-11 -46.7 -2.07)
(6.45e-11 -47 -2.03)
(-1.13e-10 -47.4 -2.02)
(7.96e-11 -47.5 -2.06)
(-2.52e-11 -47.6 -2.12)
(5.2e-11 -47.6 -2.13)
(-1.23e-11 -47.4 -2.09)
(4.11e-11 -47.1 -2.17)
(-4.39e-11 -46.4 -2.23)
(1.75e-11 -45.5 -2.31)
(-1.21e-11 -44.5 -2.49)
(-1.39e-12 -43.1 -2.77)
(2.43e-12 -41.3 -3.03)
(1.24e-11 -39.2 -3.31)
(-4.89e-12 -36.3 -3.6)
(2.38e-12 -33 -3.9)
(-5.78e-12 -29.4 -4.13)
(-7.61e-12 -25.2 -4.44)
(-1.13e-12 -19.2 -5.23)
(-4.89e-12 -10.3 -6.74)
(-1.21e-11 -1.86 -8.21)
(-4.33e-12 1.68 -8.06)
(-1.39e-11 0.395 -6.48)
(1.02e-11 -1.3 -4.58)
(-7.81e-12 -0.384 -3.49)
(-1.37e-11 0.275 -2.79)
(-4.95e-11 -0.16 -2.03)
(5.1e-13 -1.16 -1.17)
(4.34e-13 38.9 0.845)
(2.16e-12 38.2 0.796)
(9.06e-12 37.8 0.808)
(8.03e-12 37.2 0.76)
(4.53e-12 36.7 0.795)
(2.44e-12 36 0.773)
(9.2e-13 35.3 0.788)
(3.7e-12 34.6 0.806)
(9.19e-12 33.8 0.824)
(5.55e-12 33 0.852)
(-1.86e-12 32.2 0.876)
(9.82e-12 31.4 0.903)
(-1.48e-11 30.5 0.929)
(5.97e-12 29.6 0.955)
(3.48e-12 28.6 0.971)
(1.7e-11 27.6 0.988)
(-1.35e-11 26.6 0.994)
(-8.33e-12 25.5 0.991)
(1.84e-11 24.4 0.969)
(-5.33e-12 23.3 0.935)
(1.85e-11 22.3 0.89)
(8.97e-13 21.3 0.84)
(-2.2e-11 20.3 0.787)
(1.88e-12 19.3 0.719)
(-1.75e-11 18.2 0.632)
(4.77e-11 17 0.526)
(-6.23e-11 15.8 0.407)
(5.47e-11 14.6 0.282)
(-3.61e-11 13.4 0.164)
(1.77e-11 12.2 0.0434)
(-2.19e-11 11.1 -0.0735)
(2.43e-11 10 -0.193)
(-1.96e-11 8.94 -0.318)
(3.76e-11 7.81 -0.46)
(-5.28e-11 6.63 -0.621)
(5.19e-11 5.43 -0.79)
(-3.43e-11 4.25 -0.967)
(1.74e-11 3.12 -1.14)
(-1.6e-11 2.03 -1.3)
(3.19e-11 0.932 -1.46)
(-4.91e-11 -0.198 -1.62)
(5.48e-11 -1.43 -1.78)
(-4.77e-11 -2.7 -1.94)
(3.39e-11 -3.94 -2.09)
(-2.22e-11 -5.11 -2.22)
(1.32e-11 -6.21 -2.33)
(-8.46e-12 -7.24 -2.42)
(5.46e-12 -8.26 -2.51)
(-3e-12 -9.33 -2.6)
(1.84e-12 -10.5 -2.69)
(-1.52e-13 -11.7 -2.78)
(-4.35e-13 -13 -2.86)
(-1.12e-13 -14.2 -2.93)
(-8.29e-13 -15.4 -3)
(1.3e-12 -16.5 -3.06)
(-2.85e-13 -17.7 -3.11)
(2.29e-12 -18.9 -3.15)
(-1.69e-12 -20 -3.16)
(2.21e-12 -21.2 -3.16)
(-1.08e-12 -22.4 -3.15)
(2.87e-12 -23.6 -3.14)
(-9.36e-13 -24.7 -3.11)
(9.6e-13 -25.9 -3.09)
(-7.94e-14 -27 -3.07)
(7.12e-13 -28.2 -3.05)
(-4.98e-13 -29.3 -3.03)
(-3.34e-13 -30.4 -3)
(-1.97e-14 -31.5 -2.98)
(-1.1e-13 -32.7 -2.93)
(6.25e-13 -33.8 -2.9)
(-2.24e-14 -34.9 -2.84)
(1.85e-12 -36 -2.79)
(1.03e-12 -37.1 -2.71)
(8.29e-13 -38.2 -2.69)
(1.53e-12 -39.2 -2.63)
(4.16e-13 -40.1 -2.63)
(2.18e-12 -41 -2.57)
(7.68e-13 -41.8 -2.49)
(2.09e-12 -42.5 -2.44)
(9.62e-13 -43.3 -2.4)
(-1.51e-13 -44 -2.35)
(-1.75e-12 -44.6 -2.3)
(-1.08e-12 -45.2 -2.25)
(1.08e-12 -45.8 -2.19)
(7.55e-13 -46.2 -2.11)
(9.14e-13 -46.6 -2.04)
(-2.33e-12 -47 -1.98)
(3.62e-12 -47.3 -1.98)
(5.11e-12 -47.5 -2.01)
(-1.12e-12 -47.6 -2)
(5.72e-14 -47.6 -2.01)
(1.77e-13 -47.4 -2)
(-1.65e-12 -47 -2.11)
(-3.6e-13 -46.5 -2.23)
(1.58e-12 -45.5 -2.44)
(-3.83e-12 -44.5 -2.68)
(-1.04e-12 -43.1 -2.89)
(6.53e-13 -41.4 -3.13)
(1.95e-12 -39.3 -3.46)
(2.86e-12 -36.6 -3.85)
(2.43e-12 -33.3 -4.21)
(-1.27e-12 -29.8 -4.49)
(1.19e-12 -25.6 -4.92)
(-5.02e-12 -19.5 -5.81)
(5.39e-12 -10.6 -7.33)
(-7.81e-14 -2.39 -8.74)
(5.24e-12 0.713 -8.66)
(5.5e-12 -1.03 -7.02)
(2.89e-12 -2.72 -5.35)
(-2.82e-11 -1.35 -4.65)
(-5.5e-11 -0.505 -3.86)
(9.95e-12 -0.932 -3.2)
(1.03e-11 -1.56 -2.49)
(-8.01e-12 38.9 0.922)
(-4.71e-12 38.2 0.878)
(3.04e-12 37.8 0.897)
(1.08e-12 37.2 0.853)
(-6.17e-12 36.7 0.894)
(-1.15e-11 36 0.878)
(-7.17e-12 35.3 0.9)
(7.83e-12 34.5 0.919)
(1.58e-11 33.8 0.935)
(9e-11 33 0.958)
(-1.42e-10 32.2 0.98)
(1.67e-10 31.4 1)
(-3.44e-11 30.5 1.02)
(-2.07e-11 29.5 1.04)
(2.71e-11 28.6 1.05)
(-1.2e-11 27.6 1.07)
(2.71e-11 26.6 1.07)
(-7.25e-11 25.5 1.06)
(1.01e-10 24.5 1.03)
(4.84e-11 23.4 0.987)
(-4.48e-11 22.3 0.932)
(1.03e-10 21.4 0.877)
(-1.4e-10 20.4 0.818)
(1.08e-10 19.4 0.742)