/*--------------------------------*- C++ -*----------------------------------*\
| =========                 |                                                 |
| \\      /  F ield         | OpenFOAM: The Open Source CFD Toolbox           |
|  \\    /   O peration     | Version:  2212                                  |
|   \\  /    A nd           | Website:  www.openfoam.com                      |
|    \\/     M anipulation  |                                                 |
\*---------------------------------------------------------------------------*/
FoamFile
{
    version     2.0;
    format      ascii;
    arch        "LSB;label=32;scalar=64";
    class       volScalarField;
    location    "0.088";
    object      p;
}
// * * * * * * * * * * * * * * * * * * * * * * * * * * * * * * * * * * * * * //

dimensions      [0 2 -2 0 0 0 0];

internalField   nonuniform List<scalar> 
24240
(
-13.5888
-13.5882
-13.5869
-13.585
-13.5826
-13.5797
-13.5764
-13.5729
-13.5692
-13.5654
-13.5616
-13.5579
-13.5544
-13.5512
-13.5482
-13.5456
-13.5434
-13.5416
-13.5404
-13.5396
-13.2983
-13.2982
-13.298
-13.2976
-13.2972
-13.2968
-13.2962
-13.2956
-13.2949
-13.2942
-13.2935
-13.2927
-13.292
-13.2913
-13.2907
-13.2901
-13.2896
-13.2891
-13.2889
-13.2887
-12.9719
-12.9719
-12.972
-12.9721
-12.9723
-12.9724
-12.9726
-12.9728
-12.973
-12.9731
-12.9733
-12.9734
-12.9734
-12.9735
-12.9735
-12.9736
-12.9736
-12.9736
-12.9736
-12.9736
-12.9534
-12.9534
-12.9536
-12.9538
-12.9541
-12.9545
-12.9549
-12.9553
-12.9557
-12.9561
-12.9565
-12.9569
-12.9573
-12.9577
-12.958
-12.9583
-12.9585
-12.9587
-12.9589
-12.959
-12.7568
-12.7569
-12.7572
-12.7576
-12.7581
-12.7587
-12.7594
-12.7601
-12.7608
-12.7616
-12.7624
-12.7631
-12.7638
-12.7644
-12.765
-12.7656
-12.766
-12.7664
-12.7667
-12.7668
-12.7185
-12.7187
-12.719
-12.7194
-12.72
-12.7207
-12.7215
-12.7223
-12.7232
-12.7242
-12.7251
-12.726
-12.7269
-12.7277
-12.7284
-12.7291
-12.7297
-12.7301
-12.7305
-12.7307
-12.6044
-12.6046
-12.6049
-12.6054
-12.606
-12.6068
-12.6076
-12.6086
-12.6095
-12.6106
-12.6116
-12.6126
-12.6135
-12.6145
-12.6153
-12.6161
-12.6167
-12.6172
-12.6176
-12.6178
-12.6038
-12.604
-12.6043
-12.6048
-12.6054
-12.6062
-12.6071
-12.608
-12.609
-12.61
-12.6111
-12.6121
-12.6131
-12.6141
-12.6149
-12.6157
-12.6164
-12.617
-12.6174
-12.6176
-12.535
-12.5351
-12.5355
-12.5359
-12.5365
-12.5372
-12.5381
-12.539
-12.5399
-12.5409
-12.5419
-12.5429
-12.5439
-12.5448
-12.5457
-12.5464
-12.5471
-12.5476
-12.548
-12.5483
-12.5518
-12.5519
-12.5522
-12.5526
-12.5532
-12.5538
-12.5546
-12.5554
-12.5563
-12.5572
-12.5581
-12.5591
-12.56
-12.5608
-12.5616
-12.5624
-12.563
-12.5635
-12.5639
-12.5641
-12.5874
-12.5874
-12.5876
-12.5878
-12.5881
-12.5884
-12.5888
-12.5893
-12.5898
-12.5903
-12.5909
-12.5915
-12.592
-12.5926
-12.5932
-12.5937
-12.5942
-12.5946
-12.5949
-12.5951
-12.5685
-12.5686
-12.5687
-12.569
-12.5693
-12.5696
-12.57
-12.5705
-12.571
-12.5715
-12.5721
-12.5726
-12.5732
-12.5737
-12.5743
-12.5748
-12.5752
-12.5756
-12.5759
-12.5761
-12.7179
-12.7179
-12.7179
-12.718
-12.7181
-12.7183
-12.7185
-12.7187
-12.7189
-12.7192
-12.7195
-12.7198
-12.7201
-12.7204
-12.7208
-12.7211
-12.7214
-12.7217
-12.722
-12.7221
-12.6763
-12.6763
-12.6763
-12.6763
-12.6764
-12.6764
-12.6765
-12.6766
-12.6767
-12.6768
-12.6769
-12.677
-12.6772
-12.6773
-12.6775
-12.6777
-12.6779
-12.6781
-12.6783
-12.6784
-12.9236
-12.9235
-12.9234
-12.9232
-12.923
-12.9228
-12.9225
-12.9222
-12.922
-12.9217
-12.9214
-12.9211
-12.9209
-12.9207
-12.9206
-12.9205
-12.9205
-12.9205
-12.9206
-12.9206
-12.8995
-12.8994
-12.8992
-12.8989
-12.8985
-12.8981
-12.8977
-12.8972
-12.8966
-12.896
-12.8955
-12.8949
-12.8944
-12.8939
-12.8935
-12.8932
-12.8929
-12.8928
-12.8927
-12.8927
-13.2354
-13.2352
-13.2349
-13.2344
-13.2337
-13.2329
-13.232
-13.231
-13.2299
-13.2288
-13.2277
-13.2266
-13.2256
-13.2246
-13.2237
-13.2229
-13.2223
-13.2218
-13.2216
-13.2215
-13.1659
-13.1656
-13.1652
-13.1645
-13.1637
-13.1626
-13.1614
-13.1601
-13.1587
-13.1572
-13.1557
-13.1542
-13.1527
-13.1512
-13.1499
-13.1487
-13.1477
-13.1469
-13.1463
-13.1461
-13.6277
-13.6274
-13.6266
-13.6256
-13.6242
-13.6225
-13.6206
-13.6184
-13.6161
-13.6138
-13.6113
-13.6089
-13.6065
-13.6042
-13.602
-13.6001
-13.5984
-13.597
-13.596
-13.5955
-13.8743
-13.8735
-13.8718
-13.8694
-13.8662
-13.8624
-13.858
-13.8533
-13.8482
-13.843
-13.8377
-13.8325
-13.8275
-13.8228
-13.8184
-13.8145
-13.8112
-13.8085
-13.8064
-13.8053
-41.5178
-41.5157
-41.5115
-41.5054
-41.4976
-41.4882
-41.4777
-41.4663
-41.4543
-41.4421
-41.43
-41.4182
-41.407
-41.3966
-41.3872
-41.379
-41.3722
-41.3668
-41.3629
-41.3608
-40.0955
-40.0948
-40.0934
-40.0913
-40.0886
-40.0854
-40.0818
-40.0779
-40.0737
-40.0695
-40.0652
-40.061
-40.057
-40.0532
-40.0498
-40.0468
-40.0443
-40.0423
-40.0409
-40.0402
-39.1972
-39.1972
-39.1971
-39.1971
-39.197
-39.1969
-39.1968
-39.1966
-39.1963
-39.1959
-39.1955
-39.1951
-39.1946
-39.1942
-39.1937
-39.1933
-39.1929
-39.1927
-39.1925
-39.1925
-38.6507
-38.651
-38.6515
-38.6523
-38.6533
-38.6545
-38.6558
-38.6571
-38.6585
-38.66
-38.6613
-38.6627
-38.6639
-38.665
-38.666
-38.6669
-38.6676
-38.6683
-38.6687
-38.669
-38.1387
-38.1392
-38.1402
-38.1415
-38.1433
-38.1454
-38.1478
-38.1504
-38.153
-38.1557
-38.1584
-38.161
-38.1634
-38.1657
-38.1677
-38.1695
-38.171
-38.1723
-38.1732
-38.1737
-37.9143
-37.9149
-37.9161
-37.9178
-37.92
-37.9225
-37.9255
-37.9286
-37.932
-37.9353
-37.9387
-37.942
-37.9451
-37.9481
-37.9507
-37.9531
-37.9551
-37.9566
-37.9578
-37.9584
-37.6188
-37.6194
-37.6206
-37.6225
-37.6248
-37.6277
-37.6308
-37.6343
-37.6379
-37.6417
-37.6454
-37.649
-37.6525
-37.6558
-37.6587
-37.6614
-37.6636
-37.6654
-37.6666
-37.6673
-37.5871
-37.5877
-37.5889
-37.5907
-37.593
-37.5958
-37.5989
-37.6023
-37.6059
-37.6096
-37.6134
-37.617
-37.6205
-37.6238
-37.6268
-37.6294
-37.6317
-37.6335
-37.6348
-37.6355
-37.4486
-37.4492
-37.4503
-37.4519
-37.4541
-37.4566
-37.4595
-37.4627
-37.466
-37.4695
-37.4729
-37.4763
-37.4796
-37.4827
-37.4856
-37.4881
-37.4903
-37.492
-37.4932
-37.4939
-37.4848
-37.4853
-37.4863
-37.4877
-37.4895
-37.4918
-37.4943
-37.4971
-37.5
-37.5031
-37.5061
-37.5092
-37.5121
-37.5149
-37.5174
-37.5197
-37.5217
-37.5233
-37.5245
-37.5251
-37.5919
-37.5923
-37.593
-37.5941
-37.5955
-37.5973
-37.5993
-37.6014
-37.6038
-37.6062
-37.6087
-37.6111
-37.6135
-37.6158
-37.6179
-37.6198
-37.6215
-37.6229
-37.6239
-37.6245
-37.5897
-37.59
-37.5906
-37.5915
-37.5927
-37.5941
-37.5957
-37.5975
-37.5994
-37.6014
-37.6034
-37.6054
-37.6073
-37.6092
-37.611
-37.6126
-37.6141
-37.6153
-37.6162
-37.6167
-37.9785
-37.9787
-37.9791
-37.9796
-37.9803
-37.9811
-37.9821
-37.9832
-37.9844
-37.9856
-37.9869
-37.9881
-37.9894
-37.9906
-37.9918
-37.993
-37.994
-37.9949
-37.9956
-37.996
-37.9893
-37.9894
-37.9895
-37.9897
-37.9899
-37.9902
-37.9905
-37.9909
-37.9914
-37.9918
-37.9923
-37.9928
-37.9933
-37.9938
-37.9944
-37.995
-37.9955
-37.9961
-37.9966
-37.9969
-38.6266
-38.6265
-38.6263
-38.6259
-38.6255
-38.6249
-38.6244
-38.6237
-38.6231
-38.6224
-38.6218
-38.6211
-38.6206
-38.6201
-38.6197
-38.6195
-38.6194
-38.6194
-38.6195
-38.6197
-38.834
-38.8337
-38.833
-38.8321
-38.831
-38.8296
-38.828
-38.8262
-38.8244
-38.8225
-38.8206
-38.8187
-38.8169
-38.8152
-38.8138
-38.8126
-38.8116
-38.811
-38.8107
-38.8106
-39.7065
-39.7058
-39.7046
-39.7029
-39.7006
-39.6978
-39.6947
-39.6913
-39.6877
-39.6839
-39.6801
-39.6764
-39.6728
-39.6694
-39.6664
-39.6637
-39.6616
-39.66
-39.659
-39.6586
-40.3711
-40.3702
-40.3683
-40.3655
-40.3619
-40.3576
-40.3526
-40.3472
-40.3414
-40.3354
-40.3294
-40.3234
-40.3176
-40.3121
-40.3071
-40.3027
-40.2991
-40.2962
-40.2943
-40.2934
-41.6516
-41.6501
-41.6469
-41.6423
-41.6363
-41.629
-41.6208
-41.6118
-41.6022
-41.5923
-41.5823
-41.5725
-41.563
-41.5541
-41.546
-41.5388
-41.5327
-41.5278
-41.5244
-41.5227
-43.4145
-43.4118
-43.4064
-43.3983
-43.3879
-43.3754
-43.3612
-43.3457
-43.3292
-43.3123
-43.2954
-43.2788
-43.2629
-43.2481
-43.2346
-43.2227
-43.2125
-43.2044
-43.1985
-43.1953
-67.4078
-67.4049
-67.3992
-67.3907
-67.3798
-67.3669
-67.3523
-67.3364
-67.3197
-67.3027
-67.2857
-67.2691
-67.2533
-67.2386
-67.2253
-67.2136
-67.2038
-67.196
-67.1905
-67.1875
-65.6486
-65.6477
-65.6458
-65.6431
-65.6397
-65.6355
-65.6308
-65.6256
-65.62
-65.6143
-65.6085
-65.6028
-65.5973
-65.5921
-65.5874
-65.5832
-65.5797
-65.5769
-65.575
-65.574
-64.539
-64.5388
-64.5384
-64.5378
-64.537
-64.536
-64.5349
-64.5336
-64.5322
-64.5306
-64.5291
-64.5275
-64.5259
-64.5244
-64.5231
-64.5218
-64.5208
-64.52
-64.5194
-64.5192
-63.9666
-63.9668
-63.9673
-63.968
-63.9689
-63.97
-63.9712
-63.9725
-63.9737
-63.975
-63.9762
-63.9774
-63.9784
-63.9794
-63.9803
-63.9811
-63.9817
-63.9823
-63.9827
-63.9829
-63.2161
-63.2167
-63.2178
-63.2194
-63.2214
-63.2238
-63.2266
-63.2295
-63.2326
-63.2357
-63.2388
-63.2418
-63.2446
-63.2473
-63.2497
-63.2519
-63.2537
-63.2552
-63.2563
-63.2569
-62.9312
-62.9319
-62.9334
-62.9355
-62.9383
-62.9415
-62.9452
-62.9493
-62.9535
-62.9578
-62.9621
-62.9663
-62.9703
-62.9741
-62.9776
-62.9807
-62.9833
-62.9854
-62.9869
-62.9878
-62.4997
-62.5005
-62.5021
-62.5044
-62.5075
-62.5111
-62.5152
-62.5197
-62.5244
-62.5293
-62.5342
-62.539
-62.5436
-62.5479
-62.5519
-62.5554
-62.5585
-62.5609
-62.5627
-62.5636
-62.4493
-62.4501
-62.4517
-62.4541
-62.4571
-62.4607
-62.4648
-62.4693
-62.474
-62.4789
-62.4838
-62.4887
-62.4934
-62.4978
-62.5019
-62.5056
-62.5087
-62.5113
-62.5131
-62.5141
-62.2622
-62.2629
-62.2644
-62.2665
-62.2693
-62.2727
-62.2765
-62.2807
-62.2851
-62.2897
-62.2943
-62.2989
-62.3034
-62.3076
-62.3116
-62.3151
-62.3182
-62.3207
-62.3225
-62.3235
-62.3052
-62.3059
-62.3071
-62.309
-62.3114
-62.3143
-62.3176
-62.3212
-62.3251
-62.3291
-62.3332
-62.3373
-62.3413
-62.345
-62.3486
-62.3518
-62.3547
-62.357
-62.3587
-62.3596
-62.4736
-62.4741
-62.4751
-62.4765
-62.4784
-62.4807
-62.4834
-62.4863
-62.4895
-62.4928
-62.4961
-62.4995
-62.5028
-62.5059
-62.509
-62.5117
-62.5142
-62.5163
-62.5178
-62.5187
-62.4979
-62.4983
-62.499
-62.5001
-62.5015
-62.5033
-62.5053
-62.5075
-62.5099
-62.5124
-62.515
-62.5176
-62.5202
-62.5228
-62.5252
-62.5275
-62.5295
-62.5313
-62.5327
-62.5335
-63.0574
-63.0575
-63.0579
-63.0585
-63.0592
-63.0602
-63.0613
-63.0625
-63.0638
-63.0653
-63.0668
-63.0683
-63.0698
-63.0714
-63.073
-63.0745
-63.076
-63.0773
-63.0784
-63.079
-63.1261
-63.1261
-63.126
-63.126
-63.126
-63.1261
-63.1261
-63.1263
-63.1264
-63.1266
-63.1268
-63.1271
-63.1274
-63.1279
-63.1284
-63.129
-63.1297
-63.1305
-63.1312
-63.1316
-64.039
-64.0387
-64.0381
-64.0373
-64.0363
-64.0352
-64.0339
-64.0324
-64.031
-64.0294
-64.028
-64.0265
-64.0252
-64.0241
-64.0232
-64.0226
-64.0223
-64.0222
-64.0224
-64.0225
-64.3045
-64.3039
-64.3027
-64.301
-64.2988
-64.2962
-64.2933
-64.2901
-64.2866
-64.2831
-64.2795
-64.2761
-64.2728
-64.2698
-64.2671
-64.2649
-64.2632
-64.2621
-64.2614
-64.2612
-65.5556
-65.5545
-65.5525
-65.5496
-65.5457
-65.5412
-65.5359
-65.5302
-65.5241
-65.5178
-65.5114
-65.5052
-65.4991
-65.4935
-65.4884
-65.484
-65.4805
-65.4778
-65.4761
-65.4753
-66.1735
-66.1719
-66.1688
-66.1642
-66.1583
-66.1512
-66.1431
-66.1342
-66.1247
-66.1148
-66.1048
-66.095
-66.0855
-66.0765
-66.0683
-66.0611
-66.055
-66.0503
-66.0471
-66.0455
-67.9012
-67.8988
-67.8941
-67.8871
-67.8781
-67.8673
-67.8549
-67.8412
-67.8268
-67.8118
-67.7966
-67.7816
-67.7672
-67.7535
-67.741
-67.7298
-67.7202
-67.7126
-67.7072
-67.7045
-69.68
-69.6763
-69.669
-69.6582
-69.6441
-69.6272
-69.608
-69.5869
-69.5644
-69.5413
-69.518
-69.495
-69.4729
-69.4521
-69.433
-69.4158
-69.4011
-69.3891
-69.3803
-69.3754
-93.1115
-93.1087
-93.1032
-93.0952
-93.0848
-93.0724
-93.0583
-93.0429
-93.0268
-93.0101
-92.9935
-92.9771
-92.9614
-92.9467
-92.9333
-92.9214
-92.9113
-92.9033
-92.8975
-92.8944
-91.3111
-91.3098
-91.3071
-91.3032
-91.2981
-91.292
-91.2851
-91.2774
-91.2694
-91.261
-91.2525
-91.2442
-91.2362
-91.2286
-91.2217
-91.2155
-91.2103
-91.2062
-91.2033
-91.2018
-89.9682
-89.9677
-89.9667
-89.9652
-89.9633
-89.9611
-89.9584
-89.9555
-89.9523
-89.949
-89.9457
-89.9423
-89.9391
-89.936
-89.9332
-89.9307
-89.9286
-89.9269
-89.9258
-89.9252
-89.0818
-89.0819
-89.0821
-89.0824
-89.0828
-89.0831
-89.0835
-89.0839
-89.0843
-89.0847
-89.085
-89.0852
-89.0854
-89.0856
-89.0858
-89.086
-89.0862
-89.0863
-89.0865
-89.0866
-88.1825
-88.1829
-88.1838
-88.1852
-88.1869
-88.189
-88.1913
-88.1938
-88.1964
-88.1991
-88.2017
-88.2043
-88.2068
-88.2091
-88.2113
-88.2132
-88.2149
-88.2162
-88.2172
-88.2178
-87.8045
-87.8052
-87.8065
-87.8085
-87.8111
-87.8142
-87.8176
-87.8214
-87.8254
-87.8294
-87.8336
-87.8376
-87.8415
-87.8452
-87.8486
-87.8517
-87.8544
-87.8566
-87.8582
-87.859
-87.2605
-87.2613
-87.2628
-87.2651
-87.2681
-87.2717
-87.2757
-87.2802
-87.2849
-87.2897
-87.2946
-87.2995
-87.3042
-87.3086
-87.3128
-87.3166
-87.3199
-87.3225
-87.3245
-87.3256
-87.1783
-87.1791
-87.1806
-87.1829
-87.1859
-87.1896
-87.1937
-87.1982
-87.203
-87.208
-87.2131
-87.2181
-87.2231
-87.2278
-87.2322
-87.2362
-87.2397
-87.2426
-87.2447
-87.2459
-86.9582
-86.959
-86.9604
-86.9626
-86.9654
-86.9687
-86.9726
-86.9769
-86.9814
-86.9862
-86.991
-86.9958
-87.0006
-87.0052
-87.0095
-87.0135
-87.017
-87.0199
-87.0221
-87.0233
-87.0001
-87.0007
-87.0019
-87.0037
-87.0061
-87.009
-87.0123
-87.016
-87.0199
-87.024
-87.0283
-87.0325
-87.0368
-87.0409
-87.0448
-87.0485
-87.0518
-87.0545
-87.0566
-87.0578
-87.2201
-87.2205
-87.2214
-87.2228
-87.2247
-87.227
-87.2296
-87.2325
-87.2357
-87.239
-87.2425
-87.246
-87.2495
-87.253
-87.2564
-87.2596
-87.2625
-87.265
-87.267
-87.2681
-87.2706
-87.2709
-87.2715
-87.2725
-87.2737
-87.2753
-87.2771
-87.2792
-87.2814
-87.2838
-87.2863
-87.2889
-87.2916
-87.2943
-87.2969
-87.2995
-87.302
-87.3042
-87.3059
-87.3069
-87.9604
-87.9605
-87.9607
-87.961
-87.9615
-87.9621
-87.9628
-87.9637
-87.9647
-87.9658
-87.967
-87.9683
-87.9697
-87.9712
-87.9728
-87.9745
-87.9763
-87.9779
-87.9793
-87.9801
-88.1065
-88.1063
-88.106
-88.1056
-88.1051
-88.1046
-88.1041
-88.1036
-88.103
-88.1026
-88.1022
-88.1019
-88.1018
-88.1019
-88.1022
-88.1027
-88.1035
-88.1044
-88.1052
-88.1059
-89.2177
-89.2172
-89.2163
-89.215
-89.2133
-89.2113
-89.2091
-89.2068
-89.2043
-89.2017
-89.1992
-89.1969
-89.1947
-89.1929
-89.1914
-89.1904
-89.1898
-89.1896
-89.1898
-89.19
-89.6608
-89.6599
-89.6583
-89.6558
-89.6527
-89.649
-89.6447
-89.6401
-89.6352
-89.6302
-89.6251
-89.6202
-89.6155
-89.6112
-89.6075
-89.6044
-89.602
-89.6004
-89.5996
-89.5993
-91.1561
-91.1547
-91.152
-91.1481
-91.1431
-91.137
-91.1301
-91.1225
-91.1145
-91.1061
-91.0976
-91.0893
-91.0813
-91.0738
-91.0671
-91.0612
-91.0564
-91.0528
-91.0505
-91.0495
-92.2386
-92.2366
-92.2327
-92.227
-92.2195
-92.2105
-92.2002
-92.1888
-92.1767
-92.1641
-92.1514
-92.1387
-92.1265
-92.115
-92.1043
-92.0949
-92.0869
-92.0807
-92.0764
-92.0743
-94.1892
-94.1864
-94.1808
-94.1725
-94.1617
-94.1486
-94.1337
-94.1173
-94.0997
-94.0815
-94.063
-94.0446
-94.0267
-94.0098
-93.994
-93.9798
-93.9676
-93.9577
-93.9507
-93.947
-96.4115
-96.4075
-96.3993
-96.3872
-96.3715
-96.3525
-96.3307
-96.3067
-96.2811
-96.2546
-96.2277
-96.201
-96.175
-96.1503
-96.1272
-96.1062
-96.0878
-96.0725
-96.0611
-96.0545
-117.907
-117.904
-117.899
-117.892
-117.882
-117.87
-117.857
-117.842
-117.826
-117.81
-117.794
-117.778
-117.763
-117.748
-117.734
-117.722
-117.712
-117.704
-117.698
-117.695
-116.108
-116.106
-116.103
-116.099
-116.093
-116.086
-116.078
-116.07
-116.06
-116.051
-116.041
-116.031
-116.022
-116.013
-116.005
-115.998
-115.992
-115.987
-115.983
-115.981
-114.707
-114.706
-114.705
-114.703
-114.7
-114.697
-114.693
-114.689
-114.684
-114.68
-114.675
-114.67
-114.666
-114.661
-114.657
-114.654
-114.651
-114.649
-114.647
-114.646
-113.834
-113.834
-113.834
-113.834
-113.833
-113.833
-113.832
-113.831
-113.83
-113.829
-113.828
-113.827
-113.827
-113.826
-113.825
-113.824
-113.824
-113.823
-113.823
-113.823
-112.842
-112.842
-112.843
-112.843
-112.844
-112.846
-112.847
-112.848
-112.85
-112.852
-112.853
-112.855
-112.856
-112.858
-112.859
-112.86
-112.861
-112.862
-112.863
-112.864
-112.434
-112.435
-112.436
-112.437
-112.439
-112.442
-112.444
-112.447
-112.45
-112.453
-112.456
-112.46
-112.463
-112.466
-112.469
-112.471
-112.474
-112.475
-112.477
-112.478
-111.82
-111.821
-111.822
-111.824
-111.826
-111.829
-111.832
-111.836
-111.84
-111.844
-111.848
-111.852
-111.856
-111.86
-111.864
-111.867
-111.87
-111.873
-111.875
-111.876
-111.717
-111.718
-111.719
-111.721
-111.723
-111.726
-111.73
-111.734
-111.738
-111.742
-111.747
-111.751
-111.755
-111.76
-111.764
-111.768
-111.771
-111.774
-111.776
-111.778
-111.48
-111.481
-111.482
-111.484
-111.486
-111.489
-111.492
-111.496
-111.5
-111.504
-111.508
-111.512
-111.517
-111.521
-111.525
-111.529
-111.533
-111.536
-111.538
-111.539
-111.519
-111.52
-111.521
-111.522
-111.524
-111.526
-111.529
-111.532
-111.536
-111.539
-111.543
-111.547
-111.55
-111.554
-111.558
-111.562
-111.565
-111.568
-111.57
-111.572
-111.78
-111.78
-111.781
-111.782
-111.783
-111.785
-111.787
-111.789
-111.792
-111.795
-111.798
-111.801
-111.804
-111.807
-111.811
-111.814
-111.817
-111.82
-111.822
-111.823
-111.854
-111.854
-111.855
-111.855
-111.856
-111.857
-111.858
-111.86
-111.861
-111.863
-111.865
-111.867
-111.869
-111.872
-111.874
-111.877
-111.879
-111.882
-111.884
-111.885
-112.633
-112.633
-112.633
-112.633
-112.633
-112.633
-112.633
-112.633
-112.633
-112.634
-112.634
-112.635
-112.636
-112.637
-112.638
-112.64
-112.642
-112.643
-112.645
-112.646
-112.838
-112.838
-112.837
-112.837
-112.835
-112.834
-112.833
-112.831
-112.83
-112.829
-112.827
-112.826
-112.825
-112.825
-112.825
-112.825
-112.826
-112.827
-112.828
-112.829
-114.079
-114.078
-114.077
-114.075
-114.072
-114.07
-114.066
-114.063
-114.059
-114.056
-114.052
-114.049
-114.046
-114.043
-114.041
-114.04
-114.039
-114.038
-114.038
-114.039
-114.591
-114.59
-114.588
-114.584
-114.581
-114.576
-114.57
-114.564
-114.558
-114.552
-114.545
-114.539
-114.533
-114.528
-114.523
-114.519
-114.516
-114.514
-114.513
-114.513
-116.252
-116.25
-116.247
-116.243
-116.237
-116.229
-116.221
-116.212
-116.203
-116.193
-116.182
-116.172
-116.163
-116.154
-116.146
-116.139
-116.133
-116.129
-116.126
-116.125
-117.3
-117.298
-117.294
-117.287
-117.279
-117.268
-117.256
-117.243
-117.23
-117.215
-117.2
-117.186
-117.171
-117.158
-117.145
-117.134
-117.125
-117.117
-117.112
-117.109
-119.397
-119.394
-119.388
-119.379
-119.367
-119.353
-119.337
-119.319
-119.299
-119.279
-119.259
-119.238
-119.218
-119.199
-119.181
-119.164
-119.15
-119.139
-119.13
-119.126
-121.545
-121.541
-121.533
-121.52
-121.504
-121.484
-121.461
-121.436
-121.409
-121.381
-121.352
-121.323
-121.294
-121.267
-121.241
-121.217
-121.195
-121.177
-121.163
-121.155
-142.542
-142.54
-142.535
-142.528
-142.518
-142.507
-142.494
-142.48
-142.465
-142.449
-142.433
-142.418
-142.402
-142.388
-142.374
-142.362
-142.351
-142.343
-142.337
-142.333
-140.664
-140.662
-140.659
-140.655
-140.649
-140.641
-140.633
-140.624
-140.614
-140.604
-140.594
-140.583
-140.573
-140.564
-140.555
-140.547
-140.54
-140.535
-140.531
-140.529
-139.231
-139.23
-139.228
-139.225
-139.222
-139.218
-139.213
-139.208
-139.203
-139.197
-139.191
-139.185
-139.18
-139.174
-139.17
-139.165
-139.161
-139.159
-139.156
-139.155
-138.32
-138.32
-138.319
-138.318
-138.317
-138.315
-138.313
-138.311
-138.309
-138.307
-138.304
-138.302
-138.3
-138.298
-138.296
-138.294
-138.293
-138.292
-138.291
-138.291
-137.266
-137.266
-137.267
-137.267
-137.267
-137.267
-137.267
-137.267
-137.267
-137.267
-137.267
-137.267
-137.268
-137.268
-137.268
-137.269
-137.269
-137.269
-137.27
-137.27
-136.828
-136.828
-136.829
-136.83
-136.831
-136.832
-136.833
-136.835
-136.836
-136.838
-136.84
-136.841
-136.843
-136.845
-136.847
-136.849
-136.85
-136.852
-136.853
-136.854
-136.17
-136.17
-136.171
-136.172
-136.174
-136.176
-136.178
-136.18
-136.182
-136.185
-136.188
-136.191
-136.194
-136.196
-136.199
-136.202
-136.205
-136.207
-136.208
-136.209
-136.052
-136.052
-136.053
-136.054
-136.056
-136.058
-136.06
-136.062
-136.065
-136.068
-136.071
-136.075
-136.078
-136.081
-136.085
-136.088
-136.091
-136.094
-136.096
-136.097
-135.808
-135.809
-135.809
-135.81
-135.812
-135.814
-135.816
-135.818
-135.821
-135.824
-135.827
-135.83
-135.834
-135.837
-135.841
-135.844
-135.847
-135.85
-135.853
-135.854
-135.846
-135.846
-135.847
-135.848
-135.849
-135.85
-135.852
-135.854
-135.856
-135.858
-135.861
-135.864
-135.867
-135.87
-135.873
-135.876
-135.88
-135.882
-135.885
-135.886
-136.138
-136.138
-136.138
-136.138
-136.139
-136.14
-136.141
-136.142
-136.144
-136.146
-136.148
-136.15
-136.152
-136.155
-136.157
-136.16
-136.163
-136.166
-136.168
-136.17
-136.235
-136.235
-136.235
-136.235
-136.235
-136.235
-136.235
-136.236
-136.236
-136.237
-136.238
-136.239
-136.24
-136.242
-136.244
-136.246
-136.249
-136.251
-136.253
-136.255
-137.074
-137.074
-137.074
-137.073
-137.072
-137.071
-137.07
-137.069
-137.068
-137.068
-137.067
-137.067
-137.067
-137.068
-137.069
-137.07
-137.071
-137.073
-137.075
-137.076
-137.337
-137.336
-137.335
-137.334
-137.332
-137.329
-137.327
-137.325
-137.322
-137.32
-137.317
-137.315
-137.314
-137.312
-137.312
-137.312
-137.312
-137.313
-137.314
-137.315
-138.657
-138.656
-138.655
-138.652
-138.649
-138.645
-138.641
-138.637
-138.632
-138.627
-138.622
-138.618
-138.614
-138.611
-138.608
-138.606
-138.605
-138.604
-138.604
-138.604
-139.264
-139.263
-139.26
-139.257
-139.252
-139.246
-139.24
-139.233
-139.225
-139.218
-139.21
-139.203
-139.196
-139.189
-139.184
-139.179
-139.176
-139.173
-139.172
-139.171
-141.013
-141.011
-141.007
-141.002
-140.996
-140.987
-140.978
-140.968
-140.957
-140.946
-140.935
-140.923
-140.913
-140.903
-140.893
-140.885
-140.879
-140.874
-140.87
-140.869
-142.195
-142.193
-142.188
-142.181
-142.172
-142.161
-142.148
-142.134
-142.119
-142.103
-142.087
-142.071
-142.056
-142.041
-142.027
-142.014
-142.004
-141.995
-141.989
-141.986
-144.357
-144.354
-144.348
-144.338
-144.326
-144.312
-144.295
-144.276
-144.256
-144.235
-144.213
-144.191
-144.17
-144.149
-144.13
-144.112
-144.096
-144.083
-144.073
-144.068
-146.63
-146.626
-146.618
-146.605
-146.589
-146.569
-146.546
-146.521
-146.493
-146.464
-146.434
-146.404
-146.374
-146.345
-146.317
-146.29
-146.267
-146.246
-146.23
-146.221
-166.594
-166.592
-166.587
-166.58
-166.571
-166.56
-166.548
-166.534
-166.52
-166.504
-166.489
-166.473
-166.458
-166.443
-166.429
-166.417
-166.407
-166.398
-166.392
-166.388
-164.878
-164.876
-164.873
-164.868
-164.862
-164.855
-164.846
-164.837
-164.827
-164.816
-164.805
-164.795
-164.784
-164.774
-164.765
-164.757
-164.75
-164.744
-164.74
-164.738
-163.402
-163.401
-163.399
-163.396
-163.392
-163.387
-163.382
-163.376
-163.369
-163.362
-163.355
-163.349
-163.342
-163.336
-163.33
-163.324
-163.32
-163.317
-163.314
-163.313
-162.495
-162.494
-162.493
-162.491
-162.489
-162.486
-162.483
-162.48
-162.476
-162.472
-162.468
-162.464
-162.461
-162.457
-162.454
-162.451
-162.449
-162.447
-162.446
-162.446
-161.413
-161.412
-161.412
-161.411
-161.41
-161.409
-161.408
-161.406
-161.404
-161.403
-161.401
-161.4
-161.398
-161.397
-161.396
-161.395
-161.394
-161.394
-161.394
-161.394
-160.964
-160.964
-160.964
-160.964
-160.964
-160.964
-160.963
-160.963
-160.963
-160.963
-160.963
-160.963
-160.963
-160.963
-160.964
-160.964
-160.965
-160.965
-160.966
-160.966
-160.287
-160.287
-160.287
-160.287
-160.288
-160.288
-160.289
-160.289
-160.29
-160.291
-160.292
-160.293
-160.294
-160.295
-160.297
-160.298
-160.3
-160.301
-160.303
-160.303
-160.161
-160.161
-160.161
-160.162
-160.162
-160.163
-160.163
-160.164
-160.165
-160.167
-160.168
-160.17
-160.171
-160.173
-160.175
-160.177
-160.18
-160.182
-160.183
-160.184
-159.921
-159.921
-159.921
-159.921
-159.922
-159.922
-159.923
-159.924
-159.925
-159.926
-159.928
-159.929
-159.931
-159.933
-159.936
-159.938
-159.941
-159.943
-159.945
-159.946
-159.96
-159.96
-159.96
-159.96
-159.96
-159.96
-159.96
-159.961
-159.962
-159.962
-159.963
-159.965
-159.966
-159.968
-159.97
-159.973
-159.975
-159.978
-159.98
-159.981
-160.274
-160.274
-160.274
-160.274
-160.273
-160.273
-160.273
-160.273
-160.273
-160.273
-160.273
-160.274
-160.275
-160.277
-160.279
-160.281
-160.283
-160.286
-160.288
-160.289
-160.393
-160.392
-160.392
-160.391
-160.39
-160.389
-160.388
-160.387
-160.386
-160.385
-160.385
-160.385
-160.385
-160.386
-160.387
-160.389
-160.39
-160.392
-160.394
-160.395
-161.268
-161.267
-161.266
-161.265
-161.263
-161.261
-161.259
-161.257
-161.255
-161.253
-161.251
-161.25
-161.249
-161.248
-161.248
-161.249
-161.25
-161.251
-161.253
-161.254
-161.575
-161.574
-161.572
-161.57
-161.567
-161.564
-161.561
-161.557
-161.553
-161.549
-161.546
-161.543
-161.54
-161.538
-161.536
-161.536
-161.535
-161.536
-161.537
-161.537
-162.937
-162.936
-162.934
-162.931
-162.927
-162.922
-162.917
-162.911
-162.906
-162.9
-162.894
-162.888
-162.883
-162.879
-162.875
-162.872
-162.871
-162.87
-162.869
-162.869
-163.599
-163.598
-163.595
-163.591
-163.585
-163.579
-163.571
-163.563
-163.554
-163.546
-163.537
-163.528
-163.52
-163.513
-163.507
-163.501
-163.497
-163.494
-163.492
-163.492
-165.389
-165.387
-165.384
-165.378
-165.371
-165.362
-165.352
-165.341
-165.329
-165.317
-165.304
-165.292
-165.28
-165.269
-165.259
-165.25
-165.243
-165.237
-165.233
-165.232
-166.604
-166.601
-166.596
-166.589
-166.579
-166.568
-166.554
-166.54
-166.524
-166.507
-166.49
-166.473
-166.457
-166.441
-166.426
-166.412
-166.401
-166.392
-166.385
-166.382
-168.782
-168.779
-168.773
-168.763
-168.751
-168.736
-168.719
-168.7
-168.679
-168.658
-168.635
-168.613
-168.59
-168.568
-168.548
-168.529
-168.512
-168.498
-168.488
-168.483
-170.998
-170.994
-170.986
-170.974
-170.958
-170.939
-170.917
-170.891
-170.864
-170.835
-170.805
-170.775
-170.744
-170.714
-170.684
-170.657
-170.632
-170.61
-170.593
-170.584
-190.384
-190.382
-190.377
-190.371
-190.362
-190.352
-190.34
-190.327
-190.312
-190.297
-190.282
-190.267
-190.252
-190.237
-190.224
-190.212
-190.201
-190.193
-190.187
-190.184
-188.743
-188.742
-188.738
-188.733
-188.727
-188.719
-188.71
-188.701
-188.69
-188.679
-188.668
-188.657
-188.646
-188.635
-188.625
-188.617
-188.609
-188.604
-188.599
-188.597
-187.278
-187.277
-187.274
-187.271
-187.266
-187.26
-187.254
-187.247
-187.239
-187.231
-187.223
-187.215
-187.207
-187.2
-187.193
-187.187
-187.182
-187.177
-187.175
-187.173
-186.378
-186.377
-186.375
-186.373
-186.369
-186.365
-186.361
-186.356
-186.35
-186.345
-186.339
-186.334
-186.329
-186.324
-186.319
-186.315
-186.312
-186.309
-186.307
-186.306
-185.291
-185.291
-185.289
-185.288
-185.285
-185.283
-185.28
-185.276
-185.273
-185.269
-185.265
-185.262
-185.259
-185.255
-185.253
-185.25
-185.249
-185.247
-185.246
-185.246
-184.842
-184.842
-184.841
-184.84
-184.838
-184.836
-184.834
-184.832
-184.83
-184.827
-184.825
-184.823
-184.821
-184.819
-184.818
-184.817
-184.816
-184.816
-184.816
-184.816
-184.163
-184.163
-184.162
-184.162
-184.16
-184.159
-184.158
-184.156
-184.155
-184.153
-184.152
-184.151
-184.15
-184.15
-184.149
-184.149
-184.15
-184.15
-184.151
-184.151
-184.036
-184.036
-184.035
-184.035
-184.034
-184.033
-184.032
-184.03
-184.029
-184.028
-184.028
-184.027
-184.027
-184.027
-184.027
-184.028
-184.029
-184.03
-184.031
-184.031
-183.806
-183.806
-183.805
-183.805
-183.804
-183.803
-183.802
-183.801
-183.8
-183.799
-183.798
-183.798
-183.798
-183.798
-183.799
-183.8
-183.801
-183.803
-183.804
-183.805
-183.849
-183.849
-183.848
-183.847
-183.846
-183.845
-183.843
-183.842
-183.841
-183.84
-183.839
-183.838
-183.838
-183.838
-183.839
-183.84
-183.841
-183.843
-183.844
-183.845
-184.18
-184.18
-184.179
-184.178
-184.177
-184.175
-184.173
-184.171
-184.169
-184.168
-184.167
-184.166
-184.165
-184.165
-184.165
-184.166
-184.168
-184.169
-184.17
-184.171
-184.318
-184.318
-184.316
-184.315
-184.313
-184.31
-184.308
-184.305
-184.303
-184.3
-184.298
-184.296
-184.295
-184.294
-184.294
-184.295
-184.296
-184.297
-184.298
-184.299
-185.212
-185.211
-185.209
-185.207
-185.204
-185.201
-185.198
-185.194
-185.19
-185.187
-185.183
-185.18
-185.178
-185.176
-185.175
-185.175
-185.175
-185.175
-185.176
-185.177
-185.555
-185.554
-185.552
-185.549
-185.545
-185.541
-185.536
-185.531
-185.526
-185.52
-185.515
-185.511
-185.507
-185.503
-185.501
-185.499
-185.498
-185.497
-185.498
-185.498
-186.931
-186.93
-186.927
-186.924
-186.919
-186.913
-186.907
-186.9
-186.893
-186.885
-186.878
-186.871
-186.865
-186.859
-186.855
-186.851
-186.849
-186.847
-186.846
-186.846
-187.637
-187.636
-187.632
-187.627
-187.621
-187.614
-187.605
-187.596
-187.587
-187.577
-187.567
-187.557
-187.548
-187.54
-187.532
-187.526
-187.521
-187.517
-187.515
-187.514
-189.431
-189.429
-189.425
-189.419
-189.411
-189.401
-189.391
-189.379
-189.366
-189.353
-189.34
-189.326
-189.314
-189.302
-189.291
-189.281
-189.273
-189.267
-189.263
-189.261
-190.682
-190.68
-190.675
-190.667
-190.657
-190.645
-190.631
-190.616
-190.599
-190.582
-190.564
-190.547
-190.529
-190.513
-190.497
-190.483
-190.471
-190.461
-190.454
-190.451
-192.837
-192.834
-192.828
-192.818
-192.806
-192.791
-192.774
-192.755
-192.734
-192.712
-192.689
-192.666
-192.643
-192.621
-192.599
-192.58
-192.563
-192.549
-192.538
-192.533
-195.035
-195.031
-195.023
-195.012
-194.996
-194.977
-194.956
-194.931
-194.905
-194.876
-194.847
-194.816
-194.786
-194.755
-194.726
-194.698
-194.673
-194.651
-194.635
-194.626
-213.856
-213.853
-213.849
-213.843
-213.834
-213.824
-213.813
-213.8
-213.786
-213.771
-213.757
-213.742
-213.727
-213.713
-213.7
-213.688
-213.678
-213.67
-213.665
-213.663
-212.28
-212.278
-212.275
-212.27
-212.263
-212.255
-212.246
-212.235
-212.224
-212.213
-212.201
-212.189
-212.177
-212.166
-212.156
-212.147
-212.139
-212.133
-212.129
-212.127
-210.845
-210.844
-210.841
-210.837
-210.831
-210.825
-210.817
-210.809
-210.8
-210.79
-210.781
-210.772
-210.762
-210.754
-210.746
-210.739
-210.733
-210.728
-210.725
-210.723
-209.968
-209.967
-209.965
-209.961
-209.957
-209.952
-209.946
-209.939
-209.932
-209.924
-209.917
-209.909