/*--------------------------------*- C++ -*----------------------------------*\
| =========                 |                                                 |
| \\      /  F ield         | OpenFOAM: The Open Source CFD Toolbox           |
|  \\    /   O peration     | Version:  2212                                  |
|   \\  /    A nd           | Website:  www.openfoam.com                      |
|    \\/     M anipulation  |                                                 |
\*---------------------------------------------------------------------------*/
FoamFile
{
    version     2.0;
    format      ascii;
    arch        "LSB;label=32;scalar=64";
    class       volVectorField;
    location    "0.446";
    object      UMean;
}
// * * * * * * * * * * * * * * * * * * * * * * * * * * * * * * * * * * * * * //

dimensions      [0 1 -1 0 0 0 0];

internalField   nonuniform List<vector> 
24240
(
(9.22848 0.688422 9.1669e-07)
(9.22863 0.688435 -4.83375e-07)
(9.22862 0.688434 -4.12445e-09)
(9.22863 0.688433 -3.61527e-07)
(9.22863 0.688431 -2.62988e-07)
(9.22863 0.68843 -3.945e-07)
(9.22863 0.688428 -4.07132e-07)
(9.22863 0.688426 -4.89589e-07)
(9.22863 0.688424 -5.29564e-07)
(9.22863 0.688422 -5.87161e-07)
(9.22863 0.68842 -6.14047e-07)
(9.22863 0.688419 -6.44297e-07)
(9.22863 0.688417 -6.31932e-07)
(9.22863 0.688416 -6.34122e-07)
(9.22863 0.688414 -5.5084e-07)
(9.22863 0.688413 -5.63206e-07)
(9.22863 0.688412 -3.35271e-07)
(9.22863 0.688412 -5.37539e-07)
(9.22863 0.688412 1.09765e-07)
(9.22848 0.688399 -1.09044e-06)
(9.07271 0.692761 -6.84036e-07)
(9.07285 0.692775 -1.27694e-06)
(9.07285 0.692775 -1.74567e-06)
(9.07286 0.692776 -2.41849e-06)
(9.07286 0.692777 -2.83856e-06)
(9.07286 0.692779 -3.28413e-06)
(9.07286 0.69278 -3.55519e-06)
(9.07286 0.692782 -3.76692e-06)
(9.07286 0.692784 -3.84477e-06)
(9.07286 0.692785 -3.84068e-06)
(9.07286 0.692787 -3.72657e-06)
(9.07286 0.692789 -3.53954e-06)
(9.07286 0.69279 -3.25977e-06)
(9.07286 0.692791 -2.94446e-06)
(9.07286 0.692793 -2.54001e-06)
(9.07286 0.692793 -2.17116e-06)
(9.07286 0.692794 -1.6567e-06)
(9.07286 0.692795 -1.2835e-06)
(9.07286 0.692796 -6.07637e-07)
(9.07271 0.692782 1.72757e-08)
(9.10155 0.424281 -1.29986e-07)
(9.1017 0.42429 5.05773e-07)
(9.1017 0.42429 1.14342e-06)
(9.1017 0.42429 1.50238e-06)
(9.1017 0.42429 1.97106e-06)
(9.1017 0.424289 2.19994e-06)
(9.1017 0.424289 2.4036e-06)
(9.10169 0.424289 2.46663e-06)
(9.10169 0.424289 2.46755e-06)
(9.10169 0.424289 2.37563e-06)
(9.10169 0.424288 2.23357e-06)
(9.10169 0.424288 2.03049e-06)
(9.10169 0.424288 1.81005e-06)
(9.10169 0.424288 1.55075e-06)
(9.10169 0.424288 1.33188e-06)
(9.10169 0.424288 1.05128e-06)
(9.10169 0.424288 9.28198e-07)
(9.10169 0.424288 6.32897e-07)
(9.10169 0.424288 5.47373e-07)
(9.10154 0.424278 4.3938e-07)
(8.97901 0.420864 -5.70464e-07)
(8.97916 0.420874 -1.31596e-06)
(8.97916 0.420874 -1.86886e-06)
(8.97916 0.420874 -2.53245e-06)
(8.97916 0.420874 -3.07589e-06)
(8.97916 0.420874 -3.53323e-06)
(8.97916 0.420874 -3.84524e-06)
(8.97916 0.420874 -4.05972e-06)
(8.97916 0.420874 -4.14059e-06)
(8.97916 0.420875 -4.11952e-06)
(8.97916 0.420875 -3.98539e-06)
(8.97917 0.420875 -3.76524e-06)
(8.97917 0.420875 -3.45369e-06)
(8.97917 0.420875 -3.09353e-06)
(8.97917 0.420875 -2.6625e-06)
(8.97917 0.420876 -2.22999e-06)
(8.97917 0.420876 -1.74654e-06)
(8.97917 0.420876 -1.27686e-06)
(8.97917 0.420876 -6.01166e-07)
(8.97902 0.420867 -8.44838e-08)
(8.99634 0.246009 2.68949e-08)
(8.99649 0.246015 6.2615e-07)
(8.99649 0.246015 1.30846e-06)
(8.99649 0.246016 1.76574e-06)
(8.99649 0.246016 2.16708e-06)
(8.99649 0.246017 2.45221e-06)
(8.99649 0.246018 2.66517e-06)
(8.99648 0.246018 2.76049e-06)
(8.99648 0.246019 2.77791e-06)
(8.99648 0.24602 2.70178e-06)
(8.99648 0.246021 2.56535e-06)
(8.99648 0.246021 2.36432e-06)
(8.99648 0.246022 2.13437e-06)
(8.99648 0.246023 1.86578e-06)
(8.99648 0.246023 1.60765e-06)
(8.99648 0.246024 1.32159e-06)
(8.99648 0.246024 1.06796e-06)
(8.99648 0.246024 7.86037e-07)
(8.99648 0.246025 6.55047e-07)
(8.99632 0.246019 3.81843e-07)
(8.9184 0.238855 -3.9168e-07)
(8.91855 0.238861 -8.8888e-07)
(8.91855 0.23886 -1.27592e-06)
(8.91855 0.23886 -1.70247e-06)
(8.91855 0.238859 -2.01445e-06)
(8.91855 0.238858 -2.31029e-06)
(8.91855 0.238857 -2.50825e-06)
(8.91855 0.238856 -2.65148e-06)
(8.91855 0.238854 -2.70579e-06)
(8.91855 0.238853 -2.69673e-06)
(8.91855 0.238852 -2.60946e-06)
(8.91855 0.238851 -2.46746e-06)
(8.91855 0.23885 -2.25831e-06)
(8.91855 0.238849 -2.01801e-06)
(8.91855 0.238848 -1.7166e-06)
(8.91855 0.238848 -1.41939e-06)
(8.91855 0.238847 -1.04278e-06)
(8.91855 0.238847 -7.2414e-07)
(8.91855 0.238846 -3.07226e-07)
(8.9184 0.23884 -6.50409e-09)
(8.92792 0.110428 -1.25828e-07)
(8.92807 0.110431 7.38564e-08)
(8.92807 0.110431 3.55867e-07)
(8.92807 0.110431 4.9608e-07)
(8.92807 0.110432 6.24895e-07)
(8.92807 0.110432 7.02719e-07)
(8.92807 0.110433 7.60974e-07)
(8.92807 0.110434 7.71529e-07)
(8.92807 0.110434 7.60612e-07)
(8.92807 0.110435 7.13946e-07)
(8.92807 0.110436 6.5453e-07)
(8.92807 0.110436 5.72452e-07)
(8.92806 0.110437 4.94292e-07)
(8.92806 0.110438 4.04325e-07)
(8.92806 0.110438 3.39041e-07)
(8.92806 0.110438 2.63634e-07)
(8.92806 0.110439 2.27666e-07)
(8.92806 0.110439 1.73212e-07)
(8.92806 0.110439 2.49523e-07)
(8.92791 0.110436 2.24076e-07)
(8.89206 0.0995203 -2.51258e-07)
(8.89221 0.0995224 -5.17897e-07)
(8.89221 0.099522 -6.96142e-07)
(8.89221 0.0995214 -9.20071e-07)
(8.89221 0.0995207 -1.0662e-06)
(8.89221 0.0995199 -1.22107e-06)
(8.89221 0.0995189 -1.3191e-06)
(8.89221 0.0995179 -1.39823e-06)
(8.89221 0.0995169 -1.42907e-06)
(8.89221 0.0995158 -1.43309e-06)
(8.89221 0.0995148 -1.39308e-06)
(8.89221 0.0995138 -1.32845e-06)
(8.89221 0.0995129 -1.21994e-06)
(8.89221 0.099512 -1.09825e-06)
(8.89221 0.0995112 -9.28964e-07)
(8.89221 0.0995106 -7.71576e-07)
(8.89221 0.09951 -5.48181e-07)
(8.89221 0.0995095 -3.83419e-07)
(8.89221 0.0995092 -1.26372e-07)
(8.89206 0.0995067 4.19926e-08)
(8.8982 -0.00640172 -2.57257e-07)
(8.89835 -0.00640194 -4.06929e-07)
(8.89835 -0.00640164 -4.79546e-07)
(8.89835 -0.00640115 -6.24215e-07)
(8.89835 -0.00640059 -7.26406e-07)
(8.89835 -0.00639991 -8.38869e-07)
(8.89835 -0.00639916 -9.18479e-07)
(8.89835 -0.00639835 -9.93513e-07)
(8.89835 -0.00639751 -1.04144e-06)
(8.89835 -0.00639667 -1.07927e-06)
(8.89835 -0.00639586 -1.09062e-06)
(8.89835 -0.0063951 -1.09023e-06)
(8.89835 -0.0063944 -1.05673e-06)
(8.89835 -0.0063938 -1.01174e-06)
(8.89835 -0.00639329 -9.19059e-07)
(8.89835 -0.00639288 -8.23532e-07)
(8.89835 -0.00639257 -6.54432e-07)
(8.89835 -0.0063924 -5.05776e-07)
(8.89835 -0.00639227 -2.05507e-07)
(8.8982 -0.00639185 5.72325e-08)
(8.90033 -0.022623 -1.53822e-07)
(8.90048 -0.0226244 -1.3973e-07)
(8.90048 -0.0226253 -4.66067e-08)
(8.90048 -0.0226266 -3.943e-08)
(8.90047 -0.0226283 -3.42938e-09)
(8.90047 -0.0226302 1.14967e-09)
(8.90047 -0.0226324 1.45917e-08)
(8.90047 -0.0226347 6.59133e-09)
(8.90047 -0.0226372 -1.95774e-09)
(8.90047 -0.0226396 -2.82874e-08)
(8.90047 -0.022642 -5.42643e-08)
(8.90047 -0.0226442 -9.31528e-08)
(8.90047 -0.0226463 -1.19327e-07)
(8.90047 -0.0226482 -1.52554e-07)
(8.90047 -0.0226498 -1.53456e-07)
(8.90047 -0.0226512 -1.65437e-07)
(8.90047 -0.0226523 -1.20668e-07)
(8.90046 -0.0226531 -1.09208e-07)
(8.90046 -0.0226536 2.83606e-08)
(8.90031 -0.022653 1.17098e-07)
(8.90444 -0.124035 -5.84042e-07)
(8.90459 -0.124039 -1.53109e-06)
(8.90459 -0.124038 -2.34067e-06)
(8.90459 -0.124038 -3.13082e-06)
(8.90459 -0.124037 -3.76967e-06)
(8.90459 -0.124037 -4.32231e-06)
(8.90459 -0.124036 -4.72362e-06)
(8.90459 -0.124035 -5.00074e-06)
(8.90459 -0.124034 -5.13114e-06)
(8.90459 -0.124033 -5.13445e-06)
(8.90459 -0.124032 -5.00448e-06)
(8.9046 -0.124032 -4.76525e-06)
(8.9046 -0.124031 -4.41193e-06)
(8.9046 -0.12403 -3.98249e-06)
(8.9046 -0.12403 -3.45938e-06)
(8.9046 -0.12403 -2.91326e-06)
(8.9046 -0.124029 -2.26722e-06)
(8.9046 -0.124029 -1.65772e-06)
(8.9046 -0.124029 -8.80751e-07)
(8.90445 -0.124025 -1.89119e-07)
(8.94471 -0.139761 -6.2239e-08)
(8.94486 -0.139766 2.51473e-07)
(8.94486 -0.139766 6.36028e-07)
(8.94486 -0.139767 8.82388e-07)
(8.94486 -0.139768 1.10053e-06)
(8.94486 -0.139769 1.25861e-06)
(8.94486 -0.139771 1.37389e-06)
(8.94486 -0.139772 1.42244e-06)
(8.94485 -0.139774 1.42062e-06)
(8.94485 -0.139775 1.35489e-06)
(8.94485 -0.139776 1.24769e-06)
(8.94485 -0.139778 1.0923e-06)
(8.94485 -0.139779 9.22731e-07)
(8.94485 -0.13978 7.31166e-07)
(8.94485 -0.139781 5.64014e-07)
(8.94484 -0.139782 3.9369e-07)
(8.94484 -0.139783 2.74936e-07)
(8.94484 -0.139783 1.55448e-07)
(8.94484 -0.139783 1.96315e-07)
(8.94469 -0.13978 2.0689e-07)
(8.94588 -0.257502 -8.01516e-07)
(8.94603 -0.257509 -2.22852e-06)
(8.94603 -0.257509 -3.48385e-06)
(8.94603 -0.257509 -4.669e-06)
(8.94603 -0.257508 -5.62029e-06)
(8.94603 -0.257508 -6.45059e-06)
(8.94603 -0.257508 -7.05674e-06)
(8.94604 -0.257507 -7.46949e-06)
(8.94604 -0.257507 -7.66024e-06)
(8.94604 -0.257506 -7.64978e-06)
(8.94604 -0.257506 -7.43599e-06)
(8.94604 -0.257505 -7.04759e-06)
(8.94604 -0.257505 -6.49069e-06)
(8.94605 -0.257504 -5.81335e-06)
(8.94605 -0.257504 -5.00751e-06)
(8.94605 -0.257504 -4.16651e-06)
(8.94605 -0.257504 -3.19104e-06)
(8.94605 -0.257504 -2.28829e-06)
(8.94605 -0.257504 -1.22374e-06)
(8.9459 -0.257497 -2.99465e-07)
(9.02727 -0.26852 -2.70738e-08)
(9.02742 -0.268527 4.75624e-07)
(9.02742 -0.268527 1.06715e-06)
(9.02742 -0.268528 1.44954e-06)
(9.02742 -0.268529 1.75379e-06)
(9.02742 -0.268529 1.99233e-06)
(9.02742 -0.26853 2.15966e-06)
(9.02741 -0.268531 2.23211e-06)
(9.02741 -0.268532 2.22781e-06)
(9.02741 -0.268533 2.13124e-06)
(9.02741 -0.268534 1.97256e-06)
(9.02741 -0.268535 1.74607e-06)
(9.0274 -0.268535 1.4957e-06)
(9.0274 -0.268536 1.21713e-06)
(9.0274 -0.268537 9.63034e-07)
(9.0274 -0.268537 7.12452e-07)
(9.0274 -0.268538 4.95565e-07)
(9.0274 -0.268538 3.14486e-07)
(9.0274 -0.268538 3.28605e-07)
(9.02725 -0.268531 2.80887e-07)
(9.02178 -0.424895 -9.472e-07)
(9.02193 -0.424905 -2.65952e-06)
(9.02194 -0.424905 -4.19472e-06)
(9.02194 -0.424905 -5.63865e-06)
(9.02194 -0.424905 -6.78223e-06)
(9.02194 -0.424904 -7.80424e-06)
(9.02194 -0.424904 -8.55055e-06)
(9.02194 -0.424904 -9.05819e-06)
(9.02195 -0.424904 -9.28879e-06)
(9.02195 -0.424904 -9.26678e-06)
(9.02195 -0.424903 -8.98967e-06)
(9.02195 -0.424903 -8.49382e-06)
(9.02195 -0.424903 -7.79167e-06)
(9.02196 -0.424903 -6.94289e-06)
(9.02196 -0.424903 -5.94983e-06)
(9.02196 -0.424903 -4.92311e-06)
(9.02196 -0.424903 -3.73267e-06)
(9.02196 -0.424904 -2.66727e-06)
(9.02196 -0.424904 -1.44657e-06)
(9.02181 -0.424893 -3.71215e-07)
(9.14904 -0.429075 -3.60125e-08)
(9.14919 -0.429085 6.11409e-07)
(9.14919 -0.429085 1.35069e-06)
(9.14919 -0.429086 1.76673e-06)
(9.14919 -0.429086 2.06356e-06)
(9.14919 -0.429086 2.30628e-06)
(9.14918 -0.429086 2.47894e-06)
(9.14918 -0.429086 2.52964e-06)
(9.14918 -0.429086 2.49853e-06)
(9.14918 -0.429087 2.35531e-06)
(9.14918 -0.429087 2.14594e-06)
(9.14918 -0.429087 1.8582e-06)
(9.14917 -0.429087 1.55197e-06)
(9.14917 -0.429087 1.21341e-06)
(9.14917 -0.429087 9.14757e-07)
(9.14917 -0.429088 6.17481e-07)
(9.14917 -0.429088 3.28622e-07)
(9.14917 -0.429087 1.08079e-07)
(9.14917 -0.429088 1.77946e-07)
(9.14902 -0.429077 2.4962e-07)
(9.13001 -0.659873 -9.5018e-07)
(9.13016 -0.659888 -2.65715e-06)
(9.13016 -0.659888 -4.06394e-06)
(9.13016 -0.659888 -5.5983e-06)
(9.13016 -0.659888 -6.98369e-06)
(9.13016 -0.659889 -8.08412e-06)
(9.13016 -0.65989 -8.89903e-06)
(9.13017 -0.659891 -9.44792e-06)
(9.13017 -0.659891 -9.69581e-06)
(9.13017 -0.659892 -9.67794e-06)
(9.13017 -0.659893 -9.38348e-06)
(9.13017 -0.659894 -8.86208e-06)
(9.13018 -0.659895 -8.12262e-06)
(9.13018 -0.659896 -7.24167e-06)
(9.13018 -0.659896 -6.23427e-06)
(9.13018 -0.659897 -5.1952e-06)
(9.13018 -0.659898 -4.16139e-06)
(9.13018 -0.659898 -3.10123e-06)
(9.13018 -0.659899 -1.64236e-06)
(9.13003 -0.659884 -4.37389e-07)
(9.30791 -0.654501 -2.33881e-07)
(9.30806 -0.654515 3.39683e-07)
(9.30806 -0.654515 6.73571e-07)
(9.30806 -0.654514 7.68364e-07)
(9.30806 -0.654513 1.07977e-06)
(9.30806 -0.654512 1.11774e-06)
(9.30805 -0.654511 1.19743e-06)
(9.30805 -0.65451 1.13407e-06)
(9.30805 -0.654509 1.04934e-06)
(9.30805 -0.654507 8.73619e-07)
(9.30805 -0.654506 6.78377e-07)
(9.30805 -0.654505 4.28896e-07)
(9.30805 -0.654504 2.06768e-07)
(9.30805 -0.654503 -4.18802e-08)
(9.30804 -0.654502 -1.73986e-07)
(9.30804 -0.654501 -3.54236e-07)
(9.30804 -0.654501 -2.57907e-07)
(9.30804 -0.6545 -3.73084e-07)
(9.30804 -0.6545 -2.59683e-07)
(9.30789 -0.654486 1.97328e-07)
(9.2626 -1.02503 -7.39923e-07)
(9.26275 -1.02505 -1.8552e-06)
(9.26275 -1.02505 -3.14415e-06)
(9.26275 -1.02505 -4.50859e-06)
(9.26275 -1.02505 -5.49105e-06)
(9.26275 -1.02505 -6.41399e-06)
(9.26275 -1.02506 -7.03716e-06)
(9.26275 -1.02506 -7.49862e-06)
(9.26275 -1.02506 -7.69736e-06)
(9.26275 -1.02506 -7.70538e-06)
(9.26276 -1.02507 -7.48045e-06)
(9.26276 -1.02507 -7.09034e-06)
(9.26276 -1.02507 -6.50881e-06)
(9.26276 -1.02507 -5.84179e-06)
(9.26276 -1.02507 -5.02635e-06)
(9.26276 -1.02507 -4.25313e-06)
(9.26276 -1.02508 -3.30169e-06)
(9.26276 -1.02508 -2.56965e-06)
(9.26276 -1.02508 -1.56217e-06)
(9.26261 -1.02506 -3.71509e-07)
(9.48609 -1.00504 1.69295e-06)
(9.48623 -1.00506 -2.69407e-07)
(9.48622 -1.00505 -6.14071e-07)
(9.48622 -1.00505 -1.66706e-06)
(9.48622 -1.00505 -1.96754e-06)
(9.48622 -1.00505 -2.46327e-06)
(9.48622 -1.00505 -2.7139e-06)
(9.48622 -1.00504 -2.99087e-06)
(9.48622 -1.00504 -3.13724e-06)
(9.48622 -1.00504 -3.25318e-06)
(9.48622 -1.00504 -3.26289e-06)
(9.48622 -1.00503 -3.23199e-06)
(9.48622 -1.00503 -3.0871e-06)
(9.48622 -1.00503 -2.93266e-06)
(9.48622 -1.00503 -2.61826e-06)
(9.48622 -1.00503 -2.42251e-06)
(9.48622 -1.00502 -1.91296e-06)
(9.48622 -1.00502 -2.05965e-06)
(9.48623 -1.00503 -1.4203e-06)
(9.48609 -1.00501 -2.30153e-06)
(8.76824 0.723721 5.74527e-07)
(8.76838 0.723734 -3.03957e-07)
(8.76838 0.723732 1.18372e-07)
(8.76838 0.723731 -1.07763e-07)
(8.76838 0.723729 8.61116e-08)
(8.76838 0.723727 1.99592e-08)
(8.76838 0.723725 7.44017e-08)
(8.76838 0.723723 2.32836e-08)
(8.76838 0.723721 1.17797e-08)
(8.76838 0.723718 -4.51829e-08)
(8.76838 0.723716 -7.65223e-08)
(8.76838 0.723714 -1.33589e-07)
(8.76838 0.723712 -1.4864e-07)
(8.76838 0.72371 -2.00146e-07)
(8.76838 0.723709 -1.52933e-07)
(8.76838 0.723707 -2.26373e-07)
(8.76838 0.723706 -4.54622e-08)
(8.76838 0.723705 -2.76264e-07)
(8.76838 0.723705 1.49378e-07)
(8.76824 0.723692 -6.86986e-07)
(8.79424 0.73132 -6.9448e-07)
(8.79439 0.731333 -1.39213e-06)
(8.79439 0.731334 -1.94186e-06)
(8.79439 0.731335 -2.65048e-06)
(8.79439 0.731336 -3.08469e-06)
(8.79439 0.731338 -3.558e-06)
(8.79439 0.73134 -3.8329e-06)
(8.79439 0.731342 -4.0545e-06)
(8.79439 0.731344 -4.12118e-06)
(8.79439 0.731346 -4.10703e-06)
(8.79439 0.731348 -3.96689e-06)
(8.79439 0.73135 -3.75725e-06)
(8.79439 0.731352 -3.43972e-06)
(8.79439 0.731354 -3.09604e-06)
(8.79438 0.731355 -2.6431e-06)
(8.79438 0.731357 -2.24183e-06)
(8.79438 0.731358 -1.66575e-06)
(8.79438 0.731359 -1.24906e-06)
(8.79438 0.731359 -5.77418e-07)
(8.79424 0.731347 -2.19296e-10)
(8.823 0.49809 3.13343e-08)
(8.82314 0.4981 8.072e-07)
(8.82314 0.498099 1.54277e-06)
(8.82314 0.498099 2.08754e-06)
(8.82314 0.498099 2.77451e-06)
(8.82314 0.498099 3.14298e-06)
(8.82314 0.498098 3.47773e-06)
(8.82314 0.498098 3.62187e-06)
(8.82314 0.498098 3.68039e-06)
(8.82314 0.498097 3.60582e-06)
(8.82314 0.498097 3.45933e-06)
(8.82314 0.498097 3.21689e-06)
(8.82314 0.498096 2.94057e-06)
(8.82314 0.498096 2.59696e-06)
(8.82314 0.498096 2.2939e-06)
(8.82314 0.498095 1.89054e-06)
(8.82314 0.498095 1.68513e-06)
(8.82314 0.498095 1.22827e-06)
(8.82314 0.498095 8.67189e-07)
(8.82299 0.498086 4.87722e-07)
(8.78341 0.494779 -5.97685e-07)
(8.78355 0.494789 -1.46689e-06)
(8.78355 0.494788 -2.13789e-06)
(8.78355 0.494788 -2.89915e-06)
(8.78355 0.494788 -3.54239e-06)
(8.78355 0.494788 -4.06974e-06)
(8.78355 0.494788 -4.42631e-06)
(8.78355 0.494788 -4.67427e-06)
(8.78355 0.494788 -4.76403e-06)
(8.78355 0.494788 -4.73994e-06)
(8.78355 0.494788 -4.58361e-06)
(8.78355 0.494787 -4.33151e-06)
(8.78355 0.494787 -3.97103e-06)
(8.78355 0.494787 -3.56289e-06)
(8.78355 0.494787 -3.06662e-06)
(8.78355 0.494787 -2.57378e-06)
(8.78355 0.494787 -2.03118e-06)
(8.78355 0.494788 -1.48362e-06)
(8.78355 0.494788 -7.38546e-07)
(8.78341 0.494778 -1.56497e-07)
(8.80211 0.303975 1.21246e-07)
(8.80226 0.303981 8.07869e-07)
(8.80226 0.303982 1.55977e-06)
(8.80226 0.303982 2.12285e-06)
(8.80226 0.303983 2.61767e-06)
(8.80226 0.303984 2.98727e-06)
(8.80226 0.303985 3.28066e-06)
(8.80226 0.303986 3.43195e-06)
(8.80226 0.303987 3.49542e-06)
(8.80226 0.303988 3.44199e-06)
(8.80226 0.303989 3.31823e-06)
(8.80226 0.30399 3.10765e-06)
(8.80226 0.303991 2.86096e-06)
(8.80226 0.303992 2.55273e-06)
(8.80226 0.303992 2.25235e-06)
(8.80226 0.303993 1.89603e-06)
(8.80226 0.303993 1.55911e-06)
(8.80226 0.303994 1.16523e-06)
(8.80226 0.303994 8.78484e-07)
(8.80211 0.303988 4.32185e-07)
(8.7646 0.29527 -3.87811e-07)
(8.76474 0.295275 -9.3521e-07)
(8.76474 0.295275 -1.4166e-06)
(8.76474 0.295274 -1.88072e-06)
(8.76474 0.295273 -2.19862e-06)
(8.76474 0.295272 -2.51685e-06)
(8.76474 0.295271 -2.71887e-06)
(8.76474 0.295269 -2.86983e-06)
(8.76474 0.295268 -2.918e-06)
(8.76474 0.295267 -2.90327e-06)
(8.76474 0.295265 -2.7992e-06)
(8.76474 0.295264 -2.64248e-06)
(8.76474 0.295263 -2.40837e-06)
(8.76474 0.295262 -2.14978e-06)
(8.76474 0.295261 -1.81512e-06)
(8.76474 0.29526 -1.49907e-06)
(8.76474 0.295259 -1.07314e-06)
(8.76474 0.295259 -7.35685e-07)
(8.76474 0.295259 -3.53958e-07)
(8.7646 0.295253 -4.451e-08)
(8.77334 0.13623 -7.96713e-08)
(8.77349 0.136233 1.60834e-07)
(8.77349 0.136233 4.52139e-07)
(8.77349 0.136234 6.45462e-07)
(8.77349 0.136234 8.24933e-07)
(8.77349 0.136235 9.47542e-07)
(8.77349 0.136236 1.05208e-06)
(8.77349 0.136237 1.09529e-06)
(8.77349 0.136238 1.11586e-06)
(8.77349 0.136238 1.08753e-06)
(8.77349 0.136239 1.04466e-06)
(8.77349 0.13624 9.65388e-07)
(8.77349 0.136241 8.8917e-07)
(8.77349 0.136242 7.85218e-07)
(8.77349 0.136242 7.0759e-07)
(8.77349 0.136243 5.99394e-07)
(8.77349 0.136243 5.28488e-07)
(8.77349 0.136244 4.15241e-07)
(8.77349 0.136244 3.87731e-07)
(8.77334 0.136241 2.60693e-07)
(8.7572 0.122103 -2.27336e-07)
(8.75735 0.122105 -4.96111e-07)
(8.75735 0.122105 -7.17714e-07)
(8.75735 0.122104 -9.28867e-07)
(8.75735 0.122103 -1.03809e-06)
(8.75735 0.122102 -1.17605e-06)
(8.75735 0.122101 -1.24618e-06)
(8.75735 0.122099 -1.30775e-06)
(8.75735 0.122098 -1.31516e-06)
(8.75735 0.122097 -1.30317e-06)
(8.75735 0.122095 -1.24281e-06)
(8.75735 0.122094 -1.16606e-06)
(8.75735 0.122093 -1.04092e-06)
(8.75735 0.122092 -9.14678e-07)
(8.75735 0.122091 -7.322e-07)
(8.75735 0.12209 -5.81551e-07)
(8.75735 0.122089 -3.44881e-07)
(8.75735 0.122089 -2.03602e-07)
(8.75735 0.122088 -3.03272e-08)
(8.7572 0.122086 6.435e-08)
(8.76099 -0.0156 -2.64528e-07)
(8.76113 -0.0156005 -4.7163e-07)
(8.76113 -0.0156002 -6.3315e-07)
(8.76113 -0.0155996 -8.09746e-07)
(8.76113 -0.015599 -9.22058e-07)
(8.76113 -0.0155982 -1.04787e-06)
(8.76113 -0.0155974 -1.12268e-06)
(8.76113 -0.0155965 -1.19356e-06)
(8.76114 -0.0155956 -1.22379e-06)
(8.76114 -0.0155946 -1.24319e-06)
(8.76114 -0.0155937 -1.22588e-06)
(8.76114 -0.0155928 -1.19922e-06)
(8.76114 -0.015592 -1.13097e-06)
(8.76114 -0.0155912 -1.0589e-06)
(8.76114 -0.0155906 -9.29435e-07)
(8.76114 -0.0155901 -8.12454e-07)
(8.76114 -0.0155896 -6.07798e-07)
(8.76114 -0.0155894 -4.49277e-07)
(8.76114 -0.0155891 -1.83502e-07)
(8.76099 -0.0155884 5.62478e-08)
(8.7672 -0.0356799 -1.22603e-07)
(8.76734 -0.0356815 -8.47333e-08)
(8.76734 -0.0356823 -3.93644e-10)
(8.76734 -0.0356836 4.87026e-08)
(8.76734 -0.0356852 1.38576e-07)
(8.76734 -0.035687 1.84153e-07)
(8.76734 -0.0356891 2.44412e-07)
(8.76734 -0.0356913 2.71777e-07)
(8.76734 -0.0356936 3.00846e-07)
(8.76734 -0.0356959 3.03365e-07)
(8.76734 -0.0356981 3.08444e-07)
(8.76734 -0.0357003 2.92131e-07)
(8.76734 -0.0357024 2.906e-07)
(8.76734 -0.0357042 2.69868e-07)
(8.76734 -0.0357059 2.82687e-07)
(8.76734 -0.0357072 2.60585e-07)
(8.76734 -0.0357084 2.93516e-07)
(8.76734 -0.0357092 2.52039e-07)
(8.76734 -0.0357098 2.68679e-07)
(8.7672 -0.0357088 2.02013e-07)
(8.76987 -0.169409 -5.66019e-07)
(8.77002 -0.169413 -1.52777e-06)
(8.77002 -0.169413 -2.3995e-06)
(8.77002 -0.169412 -3.19761e-06)
(8.77002 -0.169412 -3.81598e-06)
(8.77002 -0.169411 -4.3718e-06)
(8.77002 -0.16941 -4.76484e-06)
(8.77001 -0.16941 -5.04461e-06)
(8.77001 -0.169409 -5.17286e-06)
(8.77001 -0.169408 -5.18058e-06)
(8.77001 -0.169407 -5.05202e-06)
(8.77001 -0.169406 -4.82138e-06)
(8.77001 -0.169405 -4.47251e-06)
(8.77001 -0.169405 -4.05522e-06)
(8.77001 -0.169404 -3.52904e-06)
(8.77001 -0.169404 -2.98671e-06)
(8.77001 -0.169403 -2.30564e-06)
(8.77001 -0.169403 -1.68036e-06)
(8.77001 -0.169403 -9.34884e-07)
(8.76986 -0.169399 -2.28096e-07)
(8.79937 -0.188181 -3.07874e-08)
(8.79952 -0.188186 2.95522e-07)
(8.79952 -0.188186 6.74247e-07)
(8.79952 -0.188187 9.65327e-07)
(8.79952 -0.188189 1.23514e-06)
(8.79952 -0.18819 1.44634e-06)
(8.79952 -0.188191 1.6226e-06)
(8.79952 -0.188193 1.72772e-06)
(8.79952 -0.188195 1.78714e-06)
(8.79952 -0.188196 1.77755e-06)
(8.79952 -0.188198 1.7301e-06)
(8.79952 -0.1882 1.62766e-06)
(8.79952 -0.188201 1.51209e-06)
(8.79952 -0.188203 1.36004e-06)
(8.79952 -0.188204 1.22374e-06)
(8.79952 -0.188205 1.05385e-06)
(8.79952 -0.188206 9.08325e-07)
(8.79952 -0.188206 7.09731e-07)
(8.79952 -0.188207 5.8624e-07)
(8.79937 -0.188202 3.4795e-07)
(8.79834 -0.339968 -8.07912e-07)
(8.79849 -0.339975 -2.3066e-06)
(8.79849 -0.339975 -3.70663e-06)
(8.79848 -0.339974 -4.95974e-06)
(8.79848 -0.339974 -5.92533e-06)
(8.79848 -0.339973 -6.80579e-06)
(8.79848 -0.339973 -7.442e-06)
(8.79848 -0.339972 -7.88884e-06)
(8.79848 -0.339971 -8.10025e-06)
(8.79848 -0.33997 -8.1076e-06)
(8.79848 -0.33997 -7.90079e-06)
(8.79848 -0.339969 -7.51851e-06)
(8.79848 -0.339968 -6.95728e-06)
(8.79848 -0.339968 -6.2751e-06)
(8.79848 -0.339967 -5.44219e-06)
(8.79848 -0.339967 -4.56912e-06)
(8.79848 -0.339966 -3.49641e-06)
(8.79848 -0.339966 -2.51603e-06)
(8.79848 -0.339966 -1.44224e-06)
(8.79833 -0.339958 -4.10643e-07)
(8.8512 -0.351875 5.77511e-08)
(8.85135 -0.351883 6.40263e-07)
(8.85135 -0.351883 1.30433e-06)
(8.85135 -0.351884 1.80026e-06)
(8.85135 -0.351885 2.20254e-06)
(8.85135 -0.351886 2.54575e-06)
(8.85135 -0.351887 2.81576e-06)
(8.85135 -0.351888 2.97742e-06)
(8.85135 -0.351889 3.05718e-06)
(8.85135 -0.35189 3.02879e-06)
(8.85135 -0.351891 2.932e-06)
(8.85135 -0.351892 2.75047e-06)
(8.85135 -0.351893 2.53727e-06)
(8.85135 -0.351894 2.27274e-06)
(8.85135 -0.351895 2.01303e-06)
(8.85135 -0.351895 1.71915e-06)
(8.85135 -0.351896 1.40875e-06)
(8.85135 -0.351896 1.0799e-06)
(8.85135 -0.351896 8.54421e-07)
(8.8512 -0.351888 4.5818e-07)
(8.84174 -0.540709 -9.69643e-07)
(8.84188 -0.54072 -2.79232e-06)
(8.84188 -0.540719 -4.52813e-06)
(8.84188 -0.540719 -6.07557e-06)
(8.84188 -0.540719 -7.25139e-06)
(8.84188 -0.540718 -8.35345e-06)
(8.84188 -0.540718 -9.15516e-06)
(8.84188 -0.540718 -9.71699e-06)
(8.84188 -0.540717 -9.98256e-06)
(8.84188 -0.540717 -9.98832e-06)
(8.84188 -0.540717 -9.72449e-06)
(8.84188 -0.540717 -9.23873e-06)
(8.84188 -0.540716 -8.53541e-06)
(8.84188 -0.540716 -7.68193e-06)
(8.84188 -0.540716 -6.66042e-06)
(8.84188 -0.540716 -5.58762e-06)
(8.84188 -0.540716 -4.26088e-06)
(8.84188 -0.540716 -3.06436e-06)
(8.84188 -0.540716 -1.78739e-06)
(8.84173 -0.540705 -5.33889e-07)
(8.91171 -0.542476 9.47978e-08)
(8.91186 -0.542488 8.47738e-07)
(8.91186 -0.542488 1.71978e-06)
(8.91186 -0.542488 2.29435e-06)
(8.91186 -0.542488 2.70501e-06)
(8.91186 -0.542489 3.08435e-06)
(8.91186 -0.542489 3.39129e-06)
(8.91186 -0.542489 3.55049e-06)
(8.91186 -0.542489 3.61908e-06)
(8.91186 -0.542489 3.54756e-06)
(8.91186 -0.54249 3.39865e-06)
(8.91186 -0.54249 3.14416e-06)
(8.91186 -0.54249 2.85978e-06)
(8.91186 -0.54249 2.51093e-06)
(8.91186 -0.54249 2.18162e-06)
(8.91186 -0.542491 1.80732e-06)
(8.91186 -0.542491 1.36914e-06)
(8.91186 -0.54249 9.78742e-07)
(8.91186 -0.54249 8.01032e-07)
(8.91171 -0.542479 4.45266e-07)
(8.887 -0.784145 -9.87437e-07)
(8.88715 -0.78416 -2.83423e-06)
(8.88715 -0.78416 -4.32041e-06)
(8.88715 -0.78416 -5.95824e-06)
(8.88715 -0.78416 -7.49782e-06)
(8.88715 -0.784161 -8.68683e-06)
(8.88715 -0.784161 -9.56831e-06)
(8.88715 -0.784162 -1.01688e-05)
(8.88715 -0.784163 -1.04423e-05)
(8.88715 -0.784164 -1.04419e-05)
(8.88714 -0.784165 -1.01465e-05)
(8.88714 -0.784165 -9.6242e-06)
(8.88714 -0.784166 -8.873e-06)
(8.88714 -0.784167 -7.98277e-06)
(8.88714 -0.784168 -6.95645e-06)
(8.88714 -0.784168 -5.87739e-06)
(8.88714 -0.784169 -4.82096e-06)
(8.88714 -0.78417 -3.58676e-06)
(8.88714 -0.784171 -1.94455e-06)
(8.887 -0.784156 -6.0448e-07)
(8.94649 -0.771967 -5.24326e-08)
(8.94664 -0.771981 6.27126e-07)
(8.94664 -0.77198 9.45921e-07)
(8.94664 -0.77198 1.22042e-06)
(8.94664 -0.771979 1.81466e-06)
(8.94664 -0.771978 2.00389e-06)
(8.94664 -0.771977 2.25088e-06)
(8.94664 -0.771976 2.28949e-06)
(8.94664 -0.771974 2.29635e-06)
(8.94664 -0.771973 2.1654e-06)
(8.94664 -0.771971 2.00064e-06)
(8.94664 -0.77197 1.74158e-06)
(8.94664 -0.771969 1.50375e-06)
(8.94664 -0.771967 1.19931e-06)
(8.94664 -0.771966 1.02807e-06)
(8.94664 -0.771965 7.45689e-07)
(8.94664 -0.771965 8.23172e-07)
(8.94664 -0.771964 5.29471e-07)
(8.94664 -0.771963 2.27986e-07)
(8.94649 -0.771949 2.91473e-07)
(8.89758 -1.07862 -7.96961e-07)
(8.89772 -1.07864 -2.07288e-06)
(8.89772 -1.07864 -3.4727e-06)
(8.89772 -1.07864 -4.90219e-06)
(8.89772 -1.07865 -5.91323e-06)
(8.89772 -1.07865 -6.87965e-06)
(8.89772 -1.07865 -7.50607e-06)
(8.89772 -1.07865 -7.97371e-06)
(8.89772 -1.07866 -8.14534e-06)
(8.89772 -1.07866 -8.12541e-06)
(8.89772 -1.07866 -7.85045e-06)
(8.89772 -1.07867 -7.41789e-06)
(8.89772 -1.07867 -6.77917e-06)
(8.89772 -1.07867 -6.07389e-06)
(8.89772 -1.07867 -5.20301e-06)
(8.89772 -1.07867 -4.39324e-06)
(8.89772 -1.07868 -3.37017e-06)
(8.89772 -1.07868 -2.56039e-06)
(8.89772 -1.07868 -1.52124e-06)
(8.89757 -1.07866 -3.86748e-07)
(8.85811 -1.04246 1.36407e-06)
(8.85824 -1.04247 -5.78323e-08)
(8.85823 -1.04247 -6.48985e-07)
(8.85823 -1.04247 -1.60001e-06)
(8.85823 -1.04246 -1.81991e-06)
(8.85823 -1.04246 -2.27384e-06)
(8.85823 -1.04246 -2.46929e-06)
(8.85823 -1.04246 -2.73521e-06)
(8.85823 -1.04245 -2.8632e-06)
(8.85823 -1.04245 -2.98858e-06)
(8.85823 -1.04245 -3.00139e-06)
(8.85823 -1.04244 -2.99709e-06)
(8.85823 -1.04244 -2.86524e-06)
(8.85823 -1.04244 -2.7451e-06)
(8.85823 -1.04244 -2.43205e-06)
(8.85823 -1.04244 -2.26149e-06)
(8.85823 -1.04244 -1.7455e-06)
(8.85823 -1.04243 -1.85477e-06)
(8.85824 -1.04244 -1.54408e-06)
(8.85811 -1.04242 -1.96978e-06)
(8.80786 0.735291 2.78188e-07)
(8.808 0.735305 -7.62156e-07)
(8.808 0.735304 -5.31341e-08)
(8.808 0.735303 -1.97107e-07)
(8.808 0.735301 4.83748e-08)
(8.808 0.735299 -8.98111e-11)
(8.808 0.735298 7.40987e-08)
(8.808 0.735296 3.77687e-08)
(8.808 0.735293 4.42662e-08)
(8.808 0.735291 3.83811e-09)
(8.808 0.735289 -8.41322e-09)
(8.808 0.735287 -5.00145e-08)
(8.808 0.735286 -4.70219e-08)
(8.808 0.735284 -8.69771e-08)
(8.808 0.735282 -2.31558e-08)
(8.808 0.735281 -8.65887e-08)
(8.808 0.73528 1.35137e-07)
(8.808 0.735279 -3.43435e-08)
(8.808 0.735279 6.59791e-07)
(8.80786 0.735265 -3.69713e-07)
(8.74299 0.740969 -8.99899e-07)
(8.74313 0.740983 -1.44506e-06)
(8.74313 0.740984 -1.78995e-06)
(8.74313 0.740985 -2.36485e-06)
(8.74313 0.740986 -2.71021e-06)
(8.74313 0.740987 -3.12719e-06)
(8.74313 0.740989 -3.36782e-06)
(8.74313 0.740991 -3.57769e-06)
(8.74313 0.740992 -3.64807e-06)
(8.74313 0.740994 -3.65566e-06)
(8.74313 0.740996 -3.54975e-06)
(8.74313 0.740998 -3.38913e-06)
(8.74313 0.740999 -3.12682e-06)
(8.74313 0.741001 -2.84625e-06)
(8.74313 0.741002 -2.45192e-06)
(8.74313 0.741003 -2.1076e-06)
(8.74313 0.741004 -1.56566e-06)
(8.74313 0.741005 -1.14991e-06)
(8.74313 0.741006 -4.01864e-07)
(8.74299 0.740993 2.37544e-07)
(8.7727 0.499632 -2.34738e-07)
(8.77284 0.499641 5.35904e-07)
(8.77284 0.499641 1.23339e-06)
(8.77284 0.499641 1.72879e-06)
(8.77284 0.499641 2.39821e-06)
(8.77284 0.499641 2.73464e-06)
(8.77284 0.499641 3.05559e-06)
(8.77284 0.49964 3.19757e-06)
(8.77284 0.49964 3.27041e-06)
(8.77284 0.49964 3.22205e-06)
(8.77284 0.49964 3.11815e-06)
(8.77284 0.49964 2.9245e-06)
(8.77284 0.499639 2.70776e-06)
(8.77284 0.499639 2.42718e-06)
(8.77284 0.499639 2.19282e-06)
(8.77284 0.499639 1.85087e-06)
(8.77284 0.499639 1.73134e-06)
(8.77284 0.499639 1.32573e-06)
(8.77284 0.499639 1.02263e-06)
(8.77269 0.499629 7.15693e-07)
(8.71742 0.497118 -6.48466e-07)
(8.71757 0.497127 -1.338e-06)
(8.71756 0.497127 -1.81555e-06)
(8.71756 0.497127 -2.44712e-06)
(8.71756 0.497127 -2.9923e-06)
(8.71756 0.497127 -3.44332e-06)
(8.71756 0.497127 -3.75001e-06)
(8.71756 0.497127 -3.97304e-06)
(8.71756 0.497127 -4.0602e-06)
(8.71756 0.497127 -4.05656e-06)
(8.71756 0.497127 -3.93813e-06)
(8.71756 0.497127 -3.74161e-06)
(8.71756 0.497127 -3.44758e-06)
(8.71756 0.497127 -3.11818e-06)
(8.71756 0.497127 -2.70202e-06)
(8.71756 0.497127 -2.28583e-06)
(8.71756 0.497127 -1.8122e-06)
(8.71756 0.497127 -1.31471e-06)
(8.71756 0.497127 -5.73908e-07)
(8.71742 0.497118 -1.14249e-08)
(8.73676 0.302885 -3.71152e-08)
(8.73691 0.302891 6.31489e-07)
(8.73691 0.302891 1.36267e-06)
(8.73691 0.302892 1.88202e-06)
(8.73691 0.302893 2.34998e-06)
(8.73691 0.302893 2.69384e-06)
(8.73691 0.302894 2.97306e-06)
(8.73691 0.302895 3.12048e-06)
(8.73691 0.302896 3.19341e-06)
(8.73691 0.302897 3.16022e-06)
(8.73691 0.302898 3.06885e-06)
(8.73691 0.302899 2.897e-06)
(8.73691 0.3029 2.69751e-06)
(8.73691 0.3029 2.43683e-06)
(8.73691 0.302901 2.18783e-06)
(8.73691 0.302902 1.87822e-06)
(8.73691 0.302902 1.59685e-06)
(8.73691 0.302902 1.23376e-06)
(8.73691 0.302903 9.99426e-07)
(8.73676 0.302897 5.79377e-07)
(8.70057 0.294626 -4.31204e-07)
(8.70072 0.294631 -8.54638e-07)
(8.70072 0.294631 -1.19967e-06)
(8.70072 0.29463 -1.57567e-06)
(8.70072 0.294629 -1.81315e-06)
(8.70072 0.294628 -2.07438e-06)
(8.70072 0.294627 -2.23517e-06)
(8.70072 0.294626 -2.36258e-06)
(8.70072 0.294625 -2.40193e-06)
(8.70072 0.294623 -2.39514e-06)
(8.70072 0.294622 -2.30994e-06)
(8.70072 0.294621 -2.18697e-06)