/*--------------------------------*- C++ -*----------------------------------*\
| =========                 |                                                 |
| \\      /  F ield         | OpenFOAM: The Open Source CFD Toolbox           |
|  \\    /   O peration     | Version:  2212                                  |
|   \\  /    A nd           | Website:  www.openfoam.com                      |
|    \\/     M anipulation  |                                                 |
\*---------------------------------------------------------------------------*/
FoamFile
{
    version     2.0;
    format      ascii;
    arch        "LSB;label=32;scalar=64";
    class       volVectorField;
    location    "0.0056";
    object      U;
}
// * * * * * * * * * * * * * * * * * * * * * * * * * * * * * * * * * * * * * //

dimensions      [0 1 -1 0 0 0 0];

internalField   nonuniform List<vector> 
2681
(
(-0.000231125 0.000715945 -6.23935e-17)
(-0.145183 0.620741 0)
(-0.0722356 0.543205 -9.32512e-17)
(2.78965e-05 0.000117186 -2.76084e-16)
(-0.028089 0.748083 6.45302e-17)
(0.120176 0.565969 1.58654e-16)
(-1.57943e-05 3.52857e-05 -6.86649e-17)
(-3.35723e-05 0.000125117 8.92834e-18)
(-3.61586e-05 0.000121593 1.77024e-17)
(-3.79653e-05 0.000118447 -4.45632e-18)
(3.61582e-05 0.000126003 0)
(2.8019e-05 9.46903e-05 -4.73411e-18)
(3.1399e-05 9.88507e-05 -4.59654e-18)
(-9.34484e-06 5.21249e-05 0)
(2.23741e-05 8.94406e-05 -2.10124e-17)
(-1.56609e-05 8.21772e-05 3.44212e-17)
(-9.8161e-06 6.49436e-05 0)
(3.65999e-05 0.000123837 -2.20037e-17)
(3.51331e-05 0.000125365 9.75083e-17)
(3.02283e-05 0.000121722 -1.12651e-16)
(3.76007e-05 0.000123866 -3.62719e-16)
(3.09952e-05 0.000103451 2.6707e-17)
(3.19571e-05 0.000109039 -1.06688e-16)
(3.57977e-05 0.000111335 7.18723e-17)
(2.92744e-05 9.67923e-05 -3.98776e-17)
(2.64945e-05 0.000100383 0)
(3.52929e-05 0.000122834 -8.35997e-17)
(2.73125e-05 0.000128321 7.83212e-18)
(4.25644e-05 0.000124685 3.55857e-17)
(4.47221e-05 0.000119186 4.26726e-17)
(3.6502e-05 0.000121647 -2.0175e-17)
(3.60301e-05 0.000108932 4.18331e-17)
(3.98693e-05 0.000112523 -3.65094e-17)
(3.50491e-05 0.000105907 1.84943e-17)
(3.752e-05 0.000109966 0)
(3.4412e-05 0.000103601 -2.73842e-17)
(-3.21544e-05 0.000113732 6.91676e-17)
(-3.16478e-05 0.000101321 8.2888e-18)
(-2.47775e-05 9.77559e-05 -1.6528e-17)
(-2.96571e-05 9.61286e-05 -1.67531e-17)
(-2.80313e-05 9.38439e-05 3.08466e-17)
(-3.28613e-05 0.000100382 0)
(-3.38496e-05 0.000101441 -8.74589e-18)
(-4.14681e-05 0.000112129 0)
(-3.60823e-05 0.000104774 0)
(0.00277671 0.693264 0)
(-3.61291e-05 0.00011569 4.51503e-18)
(-3.53393e-05 0.000123153 -3.51833e-17)
(2.94085e-05 0.000121973 0)
(-3.35833e-05 0.000125208 -8.94098e-18)
(-3.46495e-05 0.00012451 4.72412e-28)
(-2.34651e-05 9.14275e-05 6.58004e-17)
(-1.46264e-05 6.84413e-05 4.91996e-18)
(-3.31409e-05 0.000115798 -8.90864e-18)
(-3.33491e-05 0.00011588 1.81262e-17)
(3.4645e-05 9.05711e-05 4.59105e-18)
(3.34739e-05 8.77383e-05 -1.38009e-17)
(2.98638e-05 0.000124891 -9.30149e-18)
(-3.14269e-05 0.000124748 0)
(-3.39046e-05 0.000113466 1.77438e-17)
(-3.05951e-05 0.0001132 4.44983e-18)
(3.57721e-05 0.000115673 0)
(3.50408e-05 0.000117827 7.82086e-17)
(2.81001e-05 0.000109662 9.28855e-17)
(3.50469e-05 0.00011512 -1.59204e-17)
(2.974e-05 0.000101234 3.20992e-25)
(2.98735e-05 0.000103478 0)
(2.40021e-05 9.08066e-05 0)
(2.67466e-05 9.63165e-05 1.70974e-17)
(1.34659e-05 1.30282e-05 0)
(1.86067e-05 9.04437e-05 3.52835e-17)
(-2.38382e-05 9.00728e-05 8.04248e-18)
(-1.98047e-05 8.68487e-05 -2.89693e-17)
(-2.42406e-05 9.92585e-05 -5.17729e-17)
(-2.51543e-05 9.29684e-05 -1.55121e-17)
(2.48666e-05 9.3767e-05 1.90541e-17)
(2.52503e-05 -7.25876e-06 0)
(-1.18816e-05 5.64499e-05 2.43412e-16)
(-0.08589 0.697428 1.5627e-16)
(3.69239e-05 0.000111446 3.836e-17)
(3.36317e-05 0.000114367 -2.13638e-17)
(3.64167e-05 0.000112462 5.42997e-17)
(4.06814e-05 0.000104608 0)
(3.99548e-05 0.000106853 3.98046e-17)
(4.23487e-05 9.97079e-05 4.0061e-17)
(4.06155e-05 0.000103337 -3.85569e-18)
(3.85563e-05 9.53631e-05 0)
(4.1281e-05 9.7651e-05 -1.91984e-17)
(3.78246e-05 9.33966e-05 2.76291e-17)
(-3.29967e-05 8.74447e-05 0)
(-2.67763e-05 8.5578e-05 0)
(-3.82892e-05 9.26506e-05 3.69576e-17)
(-3.77071e-05 9.24752e-05 -3.63458e-17)
(-3.9518e-05 9.87721e-05 9.33615e-18)
(-3.73328e-05 9.8099e-05 0)
(-4.04422e-05 0.000106788 0)
(-4.10361e-05 0.000104041 -9.06038e-18)
(-3.72735e-05 0.00011175 0)
(-3.86111e-05 0.000109345 0)
(-3.58845e-05 0.000112759 1.76301e-17)
(-3.29367e-05 0.000115638 -2.27425e-18)
(-3.20715e-05 0.000125268 2.2707e-18)
(2.85892e-05 8.36572e-05 1.81904e-17)
(1.83828e-05 8.73221e-05 1.47497e-16)
(1.77078e-05 8.63806e-05 0)
(-2.13888e-05 8.76584e-05 -6.68057e-17)
(2.82756e-05 0.000115077 0)
(-3.46329e-05 9.54616e-05 -4.40436e-18)
(-3.0851e-05 9.57972e-05 -2.20143e-17)
(1.25943e-05 7.43408e-05 -2.17069e-16)
(1.21374e-05 6.79924e-05 1.41776e-16)
(1.63794e-05 7.7277e-05 0)
(-1.32215e-05 7.7845e-05 0)
(-3.04587e-05 6.91116e-05 -6.349e-17)
(-2.79069e-05 8.77175e-05 1.41738e-16)
(-2.53388e-05 6.89777e-05 1.56583e-16)
(-3.36097e-05 0.000100303 -1.80643e-17)
(-3.1444e-05 0.000114295 3.67157e-17)
(-3.26461e-05 9.91883e-05 1.84089e-17)
(1.78394e-05 6.80866e-05 -7.075e-17)
(1.00074e-05 5.50668e-05 4.40105e-17)
(-1.33226e-05 7.16697e-05 -9.70402e-18)
(0.033489 0.857481 -3.27897e-16)
(2.49917e-05 8.06673e-05 3.58747e-17)
(2.45752e-05 8.79611e-05 -3.76791e-17)
(-2.13307e-05 8.84715e-05 0)
(2.45408e-05 0.000112587 0)
(-0.136814 0.572646 2.35747e-16)
(2.77468e-05 0.000124629 1.5797e-18)
(-1.87384e-05 0.00023544 0)
(-4.60616e-06 5.93109e-05 7.41632e-17)
(3.25854e-05 0.000107737 1.02084e-16)
(3.26713e-05 0.000108375 -3.3178e-17)
(3.09766e-05 0.000102066 -8.52677e-18)
(3.27701e-05 0.000105018 8.72081e-18)
(2.96164e-05 9.53615e-05 -4.88448e-17)
(2.98989e-05 9.87116e-05 1.66417e-17)
(2.61208e-05 8.69326e-05 0)
(2.72698e-05 9.30646e-05 3.27623e-17)
(2.26114e-05 7.96966e-05 1.61916e-17)
(2.28609e-05 8.41505e-05 1.86368e-17)
(1.85056e-05 7.93844e-05 3.04552e-17)
(-1.92111e-05 7.72829e-05 7.95441e-18)
(-1.69598e-05 7.34261e-05 -1.94446e-17)
(-2.52898e-05 8.53446e-05 3.87284e-18)
(-2.24031e-05 8.22339e-05 2.73041e-25)
(-9.8809e-06 5.6138e-05 3.47379e-17)
(-3.33482e-05 0.000125684 9.06495e-18)
(0.0186593 0.614453 7.66469e-16)
(-3.25527e-05 0.000100531 -8.79995e-18)
(-3.374e-05 0.000100683 0)
(3.20377e-05 9.54477e-05 4.37516e-18)
(2.51228e-05 9.41875e-05 3.33014e-17)
(2.87385e-05 9.70565e-05 0)
(4.07994e-05 9.25591e-05 -1.91157e-17)
(3.84167e-05 9.62105e-05 -3.59194e-17)
(4.59954e-05 8.84539e-05 9.82574e-18)
(4.188e-05 9.03865e-05 -9.66989e-18)
(4.28551e-05 8.28173e-05 -1.93657e-17)
(4.41857e-05 8.41399e-05 1.84306e-17)
(4.03073e-05 8.028e-05 0)
(4.28292e-05 8.20601e-05 -9.49471e-18)
(3.69291e-05 7.85222e-05 0)
(3.93291e-05 7.99127e-05 -9.15259e-18)
(3.16883e-05 7.63596e-05 -1.776e-17)
(3.44297e-05 7.69618e-05 0)
(6.0624e-06 5.54574e-05 0)
(2.76027e-05 7.39347e-05 3.44739e-17)
(-3.41267e-05 7.75622e-05 -1.83726e-17)
(-3.6555e-05 7.58034e-05 3.98606e-17)
(-3.82056e-05 7.82563e-05 -1.8238e-17)
(-3.80347e-05 7.83096e-05 3.68071e-17)
(-4.45369e-05 8.43006e-05 -9.14891e-18)
(-4.09611e-05 8.02754e-05 0)
(-4.30492e-05 8.91686e-05 2.18997e-18)
(-4.30613e-05 8.66735e-05 0)
(-3.94784e-05 9.37833e-05 -3.48946e-17)
(-4.15737e-05 9.1559e-05 1.96483e-17)
(-3.71081e-05 9.49195e-05 1.75699e-17)
(-2.82948e-05 0.000123269 1.35135e-17)
(-2.65975e-05 9.52638e-05 4.36592e-17)
(-2.70003e-05 0.000112254 4.42174e-18)
(-2.9848e-05 0.000123802 -1.81604e-17)
(-1.83676e-05 1.63856e-05 7.63559e-17)
(3.25812e-05 9.00528e-05 -1.07258e-16)
(3.06895e-05 6.7056e-05 -2.17059e-16)
(-1.05621e-05 5.40328e-05 -2.86742e-17)
(1.01844e-05 6.67664e-05 -7.62782e-17)
(7.57017e-06 6.51343e-05 3.98392e-17)
(1.88072e-05 8.54012e-05 7.67901e-17)
(2.42119e-05 8.09627e-05 -1.07507e-16)
(-1.85071e-05 8.49681e-05 0)
(2.30561e-05 6.90757e-05 6.24149e-17)
(-2.61724e-05 7.88033e-05 -7.05914e-17)
(-2.53953e-05 7.30261e-05 7.08891e-17)
(-3.41036e-05 7.80548e-05 1.79888e-17)
(-3.35781e-05 7.70023e-05 -2.27663e-17)
(1.21305e-05 7.48689e-05 3.79613e-17)
(-1.05685e-05 7.71876e-05 7.88724e-17)
(2.24283e-05 0.00011197 0)
(1.94837e-05 9.24166e-05 -1.65645e-17)
(0.000150005 2.1701 1.01229e-19)
(0.000168973 1.99501 -1.34817e-19)
(-0.000174155 1.99505 -1.09583e-18)
(2.05112e-05 2.17023 1.08819e-18)
(-2.22423e-05 9.46108e-05 -1.73641e-17)
(-2.67523e-05 7.12622e-05 -1.72817e-17)
(-2.17416e-05 7.10834e-05 0)
(2.2576e-05 5.516e-05 1.73279e-16)
(1.08495e-05 5.43067e-05 0)
(-2.6005e-05 9.4056e-06 -8.16337e-17)
(2.67171e-05 0.000108942 3.50606e-17)
(-0.000217704 0.00452191 -3.26924e-16)
(0.0229017 0.732614 2.20983e-16)
(0.0532333 0.727911 -8.97859e-17)
(2.25768e-05 8.59286e-05 0)
(-2.04649e-05 8.30439e-05 0)
(-0.105004 0.592401 3.67792e-16)
(2.24553e-05 0.000120733 -3.58545e-17)
(4.49641e-05 0.000129075 1.43519e-16)
(3.478e-05 8.80464e-05 -3.32061e-17)
(3.38563e-05 8.60845e-05 3.38295e-17)
(3.07892e-05 8.52341e-05 0)
(3.42847e-05 8.54737e-05 3.34825e-17)
(2.95135e-05 8.00081e-05 8.38445e-18)
(3.02375e-05 8.238e-05 -1.68945e-17)
(2.49075e-05 7.42226e-05 1.64569e-17)
(2.71864e-05 7.80044e-05 -4.53385e-26)
(2.25194e-05 6.71226e-05 0)
(2.33935e-05 7.03929e-05 -8.17383e-18)
(1.79775e-05 6.2047e-05 0)
(2.00816e-05 6.3397e-05 -2.04919e-18)
(1.40098e-05 5.66576e-05 -3.25909e-17)
(1.50508e-05 5.79233e-05 0)
(1.12659e-05 5.72337e-05 -1.73465e-17)
(-1.68407e-05 5.87225e-05 1.59297e-17)
(-1.50086e-05 5.71606e-05 2.35519e-17)
(-2.07888e-05 6.4605e-05 -1.97097e-17)
(-1.93088e-05 6.08426e-05 -1.56665e-17)
(-2.54068e-05 6.96041e-05 4.08795e-18)
(-2.38043e-05 6.75768e-05 9.9694e-18)
(-2.82682e-05 7.47216e-05 -2.11395e-18)
(-2.59818e-05 7.22303e-05 0)
(-3.21674e-05 7.80444e-05 -1.69083e-17)
(-3.01963e-05 7.71587e-05 2.16183e-17)
(-3.36797e-05 7.82995e-05 0)
(0.000187033 1.84111 3.37034e-20)
(-0.000159189 1.70536 -3.36766e-20)
(-0.000463289 1.58496 -5.21566e-19)
(-0.000831957 1.4778 1.61304e-18)
(-0.000657792 1.38219 -8.05223e-19)
(-0.000118926 1.29638 -1.33857e-19)
(-0.000876771 1.21886 -2.26787e-18)
(-0.00190042 1.14902 -4.12046e-18)
(-0.00213341 1.08595 -1.31867e-19)
(-0.00179148 1.02819 -2.09239e-18)
(-0.00134101 1.02991 0)
(-0.00199963 0.974584 4.13216e-18)
(-0.00294085 0.923743 1.42242e-17)
(-0.00165974 0.927423 2.42607e-17)
(-0.00224525 0.977053 -8.26591e-18)
(-0.000194645 1.14982 4.39319e-18)
(-0.000246398 1.08719 8.3309e-18)
(-0.00101096 1.29595 8.03996e-19)
(-0.00127134 1.21892 0)
(0.000369426 1.47825 5.37796e-19)
(0.000190515 1.38217 -4.15249e-24)
(-0.000112423 1.70552 5.72815e-19)
(-5.17478e-05 1.58533 -1.21087e-18)
(-0.000320895 1.8412 -3.37038e-20)
(3.47507e-05 6.9319e-05 0)
(2.91729e-05 6.69999e-05 0)
(4.14762e-05 6.70693e-05 1.86451e-17)
(3.75838e-05 6.68978e-05 0)
(4.59746e-05 6.35168e-05 -9.56309e-18)
(4.30874e-05 6.46641e-05 -9.45594e-18)
(4.53826e-05 6.04945e-05 9.63432e-18)
(4.58949e-05 6.32873e-05 -8.43295e-18)
(4.20025e-05 5.93588e-05 -1.85071e-17)
(4.43301e-05 6.03062e-05 -9.37406e-18)
(3.78299e-05 5.97385e-05 0)
(4.01591e-05 5.96384e-05 1.81636e-17)
(3.207e-05 5.90354e-05 -1.74158e-17)
(3.57272e-05 5.93961e-05 8.83757e-18)
(-0.000265643 0.00280406 3.36252e-16)
(3.01121e-05 5.87713e-05 2.35596e-17)
(2.22493e-05 5.88574e-05 3.81502e-18)
(-2.90393e-05 5.69968e-05 0)
(-1.93087e-05 6.74234e-05 -2.75152e-16)
(-1.93611e-05 6.06931e-05 -2.75875e-16)
(-2.27323e-05 5.98226e-05 -6.17031e-17)
(-3.05045e-05 5.88001e-05 1.89089e-17)
(-3.03306e-05 5.73905e-05 0)
(-3.63847e-05 5.83392e-05 -1.84143e-17)
(-3.2091e-05 5.71971e-05 -9.47239e-18)
(-3.99308e-05 5.86342e-05 -9.06734e-18)
(-3.8304e-05 5.92378e-05 1.81592e-17)
(-4.44388e-05 6.07923e-05 2.67633e-17)
(-4.20959e-05 6.14007e-05 0)
(-4.49891e-05 6.44863e-05 1.52963e-17)
(-4.48244e-05 6.27529e-05 -8.83569e-18)
(-4.15195e-05 6.79688e-05 -1.7387e-17)
(-4.36012e-05 6.62745e-05 -1.90923e-17)
(-3.5425e-05 7.01302e-05 4.37019e-18)
(-3.83962e-05 6.93163e-05 8.72359e-18)
(-3.11056e-05 7.08939e-05 4.3611e-18)
(-2.5111e-05 0.000121383 -1.79794e-17)
(-2.30529e-05 0.000110785 -1.763e-17)
(-2.93665e-05 0.000112418 -5.73665e-17)
(-2.73129e-05 0.000121786 2.04183e-17)
(-3.19134e-05 7.66057e-05 1.84575e-17)
(-3.08245e-05 9.77844e-05 0)
(-0.000109281 0.00105858 0)
(0.000503156 0.00638322 -1.61397e-16)
(1.38844e-05 7.87184e-05 -3.74898e-17)
(1.9578e-05 7.54255e-05 1.40169e-16)
(-1.96233e-05 7.73568e-05 -1.41641e-16)
(-1.46584e-05 7.89059e-05 -7.46488e-17)
(1.97172e-05 7.03378e-05 -1.56758e-17)
(1.33179e-05 5.18445e-05 1.40082e-16)
(-0.000224542 2.37103 1.34881e-19)
(0.000255096 2.37122 0)
(2.37926e-05 5.15388e-05 -7.23236e-17)
(0.0152424 0.0622552 0)
(-0.00304609 1.02773 8.39517e-18)
(-0.00433305 0.97476 8.32277e-18)
(9.01831e-06 7.01645e-05 -1.5394e-16)
(-0.0418045 0.794837 9.14931e-17)
(-1.68709e-05 6.76405e-05 2.8206e-16)
(-1.08147e-05 7.14805e-05 8.09299e-17)
(2.89076e-05 9.26551e-05 3.70595e-17)
(2.68594e-05 7.04395e-05 1.22854e-16)
(0.000286237 2.37103 -5.39138e-19)
(-0.000595176 2.60217 -1.68644e-19)
(0.000262973 2.60245 1.07943e-18)
(-1.79585e-05 9.30823e-05 -1.08489e-18)
(-1.68814e-05 7.16924e-05 6.95358e-18)
(-2.78086e-05 5.22604e-05 -1.16544e-25)
(-2.33908e-05 5.37357e-05 0)
(0.00804349 0.88117 2.3255e-17)
(-0.00385729 0.875058 -1.57561e-17)
(1.9801e-05 4.95732e-05 4.9033e-17)
(1.59205e-05 5.92805e-05 5.37696e-17)
(9.17773e-06 6.61669e-05 0)
(-4.47928e-06 6.37603e-05 8.84807e-17)
(-1.60966e-05 4.48298e-05 4.01998e-17)
(-1.19582e-05 5.91566e-05 -2.31247e-16)
(0.0586009 0.659457 1.66147e-16)
(1.69846e-05 5.976e-05 1.54862e-16)
(2.18476e-05 9.0813e-05 1.38456e-16)
(-8.56758e-06 1.62124e-05 -1.55949e-16)
(-3.16075e-05 6.11864e-05 -1.37379e-17)
(-2.86764e-05 7.58556e-05 -1.85188e-17)
(-2.82853e-05 6.11258e-05 1.85472e-17)
(1.81181e-05 8.15565e-05 1.87401e-24)
(-1.77098e-05 8.14043e-05 7.21844e-17)
(1.66824e-05 6.94359e-05 3.46264e-17)
(1.85938e-05 0.000109895 -1.72096e-17)
(1.59106e-05 9.45856e-05 3.42269e-17)
(2.37296e-05 0.000118845 3.52395e-17)
(2.06232e-05 0.000119923 -1.63994e-17)
(2.56091e-05 0.000107953 -3.59005e-17)
(3.51683e-05 6.65976e-05 -1.64514e-17)
(3.1405e-05 7.10063e-05 1.54878e-17)
(3.23127e-05 6.50823e-05 0)
(3.22325e-05 6.73246e-05 1.6669e-17)
(2.75395e-05 6.22206e-05 -8.34393e-18)
(2.95014e-05 6.48619e-05 0)
(2.31715e-05 5.70721e-05 8.27294e-18)
(2.48428e-05 6.00017e-05 1.24471e-17)
(2.04871e-05 5.17895e-05 -4.08418e-18)
(2.17624e-05 5.4893e-05 -2.45465e-17)
(1.76707e-05 4.80065e-05 -3.33793e-17)
(1.86715e-05 4.92173e-05 2.8587e-17)
(1.32731e-05 4.68247e-05 3.24418e-17)
(1.49964e-05 4.69058e-05 -3.24924e-17)
(1.12516e-05 4.56378e-05 2.48714e-17)
(-5.5948e-06 6.73485e-05 -8.68149e-17)
(-1.61998e-05 6.83441e-05 -3.29769e-16)
(-1.38032e-05 4.47517e-05 -3.02286e-17)
(-1.10342e-05 4.7971e-05 2.16039e-17)
(-1.67937e-05 4.53545e-05 -3.15803e-17)
(-1.33925e-05 4.45993e-05 3.89123e-17)
(-1.9657e-05 4.89157e-05 0)
(-1.82423e-05 4.70184e-05 1.55282e-17)
(-2.24651e-05 5.39334e-05 4.08406e-18)
(-2.12734e-05 5.10537e-05 -2.00639e-18)
(-2.62068e-05 5.85298e-05 8.29487e-18)
(-2.38251e-05 5.62979e-05 0)
(-3.15844e-05 6.15526e-05 -5.41328e-19)
(-2.90782e-05 6.05016e-05 -8.43355e-18)
(-3.4314e-05 6.19141e-05 1.79306e-17)
(-3.35589e-05 6.17413e-05 -2.18797e-17)
(-3.36311e-05 6.12941e-05 1.35719e-17)
(-4.46226e-05 1.99503 0)
(-4.28193e-05 2.1701 -5.73115e-19)
(6.41877e-05 1.70543 0)
(-5.97986e-05 1.84121 0)
(0.000346305 1.47772 1.68004e-20)
(0.000267013 1.58497 -1.6825e-20)
(-0.00083999 1.29576 -5.36022e-19)
(-0.000268053 1.38174 1.17505e-19)
(-0.000619303 1.1488 0)
(-0.000477412 1.21858 4.81126e-18)
(-0.00170182 1.08543 -8.4709e-18)
(-5.34935e-06 2.37132 -1.07978e-18)
(-9.06285e-05 2.60265 -1.07901e-18)
(0.000830234 2.60231 3.03461e-19)
(0.0353681 0.802636 8.34334e-17)
(-0.0383388 0.794423 5.26331e-17)
(0.00218031 0.0105943 1.38869e-16)
(0.00456383 0.928549 -3.69794e-17)
(-0.00754316 0.893689 -3.20392e-17)
(0.00287384 1.02897 -8.42197e-18)
(0.00455053 0.977379 0)
(0.00046489 1.14964 -4.26162e-18)
(0.00132058 1.08618 -4.24313e-18)
(0.000227164 1.29694 -1.60726e-18)
(0.00101237 1.21964 -5.3501e-19)
(-0.00102902 1.47851 -8.0694e-19)
(-0.00139696 1.38274 1.60983e-18)
(-0.000125283 1.70612 -6.73531e-20)
(-0.000189437 1.58574 6.72816e-19)
(3.58175e-05 1.9954 5.56589e-19)
(5.64913e-05 1.84171 -5.05456e-19)
(-7.17915e-05 2.17042 1.07069e-18)
(3.29503e-05 5.09894e-05 -9.10273e-18)
(3.22794e-05 4.85451e-05 1.80261e-17)
(4.20141e-05 4.92971e-05 -4.64434e-18)
(4.01178e-05 4.94842e-05 -9.14265e-18)
(4.68345e-05 4.71938e-05 4.70319e-18)
(4.48395e-05 4.83426e-05 -2.34112e-18)
(4.60353e-05 4.59119e-05 -9.26079e-18)
(4.69033e-05 4.71767e-05 8.48908e-18)
(4.19921e-05 4.63447e-05 -9.19232e-18)
(4.47759e-05 4.60467e-05 0)
(3.7475e-05 4.79883e-05 0)
(3.98832e-05 4.68063e-05 0)
(3.28229e-05 4.97429e-05 -1.08384e-17)
(3.55014e-05 4.84283e-05 2.19672e-18)
(2.83522e-05 5.03864e-05 -1.66782e-17)
(3.07235e-05 4.89466e-05 3.46866e-25)
(2.15387e-05 4.55828e-05 -5.14554e-17)
(2.75778e-05 4.76803e-05 2.90127e-17)
(1.236e-05 4.92406e-05 -1.8754e-17)
(1.45925e-05 4.27622e-05 1.79061e-17)
(1.79105e-05 4.60914e-05 0)
(-9.93559e-06 5.45373e-05 1.32769e-16)
(-9.4586e-06 4.53181e-05 -2.43448e-17)
(-2.56924e-06 4.25621e-05 8.49305e-17)
(-6.68975e-06 4.08963e-05 9.87074e-18)
(-6.13302e-06 4.1869e-05 3.56795e-17)
(-1.95018e-05 4.81568e-05 1.22247e-16)
(-1.7832e-05 4.22318e-05 3.69475e-17)
(-2.55203e-05 4.74054e-05 -5.01885e-17)
(-2.04334e-05 5.00373e-05 3.79243e-18)
(-3.02369e-05 4.6139e-05 4.50644e-17)
(-2.83545e-05 4.79156e-05 3.52298e-17)
(-3.49785e-05 4.66904e-05 -9.02553e-18)
(-3.4716e-05 4.77349e-05 -2.7312e-17)
(-3.97401e-05 4.55965e-05 8.94867e-18)
(-3.79757e-05 4.65627e-05 1.80054e-17)
(-4.50312e-05 4.59495e-05 -1.32392e-17)
(-4.24442e-05 4.60674e-05 2.22513e-17)
(-4.63169e-05 4.75929e-05 0)
(-4.58546e-05 4.68127e-05 -1.31764e-17)
(-4.32701e-05 4.98306e-05 0)
(-4.53163e-05 4.88213e-05 -5.44719e-19)
(-3.67783e-05 5.16331e-05 -1.08724e-17)
(-4.00779e-05 5.09851e-05 8.69077e-18)
(-3.25602e-05 5.26692e-05 4.33634e-18)
(-2.11812e-05 0.000118561 -5.59708e-19)
(-1.87338e-05 0.000108842 2.46808e-18)
(-2.61384e-05 0.000110201 1.60468e-17)
(-2.36517e-05 0.000119104 -1.55239e-17)
(-2.75608e-05 9.60894e-05 0)
(0.00614628 0.678304 -3.37095e-16)
(0.00021901 0.00104953 -3.5778e-16)
(-0.00389493 0.925861 -2.71457e-22)
(1.09529e-05 7.6796e-05 7.53845e-17)
(1.65261e-05 7.536e-05 1.44674e-16)
(-1.42504e-05 7.47102e-05 0)
(-1.05732e-05 7.55097e-05 -2.29613e-16)
(2.76529e-05 5.53328e-05 -1.10456e-17)
(0.0538098 0.653718 -8.01738e-16)
(1.85501e-05 7.06399e-05 -7.59214e-17)
(-7.11135e-06 5.48166e-05 -1.44022e-16)
(-0.000175561 2.37173 1.07918e-18)
(-7.25257e-05 2.60297 3.37156e-20)
(1.07175e-05 7.29113e-05 -4.42946e-17)
(0.00040076 0.00373077 1.84037e-16)
(2.07923e-05 4.93832e-05 2.96034e-16)
(1.70777e-05 5.11103e-05 9.50061e-25)
(1.46367e-05 5.67845e-05 0)
(-2.05846e-05 5.28407e-05 2.47654e-17)
(-3.14839e-05 3.9028e-05 -2.27074e-17)
(-2.80694e-05 3.97911e-05 1.21695e-25)
(-0.0210833 0.840211 -1.18815e-16)
(-4.75016e-05 0.000118987 1.40133e-16)
(-5.71073e-05 0.000194105 1.39353e-16)
(0.0172426 0.68493 1.71917e-16)
(-1.71059e-05 2.6897e-05 0)
(-0.00342814 1.0272 -1.69233e-17)
(-0.0049653 0.973528 -1.0901e-21)
(6.68286e-05 0.000230165 1.50587e-16)
(0.000149645 0.00031997 6.43928e-17)
(4.99578e-05 0.000346041 1.43223e-16)
(1.30011e-05 6.66229e-05 -1.60985e-16)
(6.90921e-06 6.85397e-05 0)
(-7.83745e-06 6.85162e-05 0)
(-1.36835e-05 6.8971e-05 0)
(-2.14881e-05 8.83297e-05 4.24582e-16)
(0.000283067 2.37212 3.37227e-20)
(0.000315691 2.60343 6.74408e-20)
(-0.000467219 0.00275477 1.71941e-16)
(-0.00537496 0.691594 -6.21964e-17)
(0.0387611 0.715367 -1.69892e-21)
(3.5946e-05 0.000148615 -1.43333e-16)
(1.11958e-05 6.30503e-05 0)
(1.13524e-05 6.448e-05 -1.92746e-17)
(9.77176e-06 4.34563e-05 0)
(1.00732e-05 4.89695e-05 0)
(-5.58449e-07 4.13769e-05 3.67174e-17)
(-2.30813e-07 5.08609e-05 -1.28061e-24)
(-9.24149e-06 5.87237e-05 1.45133e-16)
(-9.73846e-06 6.34712e-05 0)
(-1.61245e-05 0.000108857 -3.25925e-16)
(-0.00673464 0.881519 -4.86418e-17)
(1.48304e-05 1.97628e-05 5.83889e-16)
(1.90558e-05 7.93084e-05 3.0738e-16)
(0.000275624 0.0013815 2.06291e-16)
(1.21421e-05 7.87631e-05 -7.36243e-17)
(-1.26807e-05 7.64102e-05 0)
(1.35711e-05 0.000107769 -2.53532e-27)
(1.18642e-05 9.24136e-05 -2.61111e-17)
(2.00325e-05 0.0001149 -1.7606e-17)
(1.63493e-05 0.000116146 1.35659e-19)
(2.49477e-05 9.10155e-05 0)
(2.26182e-05 0.000106317 1.80783e-17)
(2.35413e-05 6.2976e-05 0)
(2.53948e-05 7.33443e-05 -3.91835e-17)
(2.32481e-05 3.96514e-05 0)
(3.34881e-05 4.26383e-05 1.31435e-24)
(2.92942e-05 3.69483e-05 -1.04008e-17)
(3.3706e-05 3.96127e-05 0)
(3.30975e-05 4.35882e-05 -7.70424e-17)
(3.02398e-05 4.0187e-05 4.47276e-18)
(3.46572e-05 4.16677e-05 -4.44812e-18)
(2.54092e-05 3.80157e-05 -8.3537e-18)
(2.87041e-05 4.00164e-05 4.1791e-18)
(2.04796e-05 3.39664e-05 0)
(2.26974e-05 3.64743e-05 -7.58736e-26)
(1.78668e-05 2.97942e-05 2.46066e-17)
(1.90357e-05 3.19116e-05 4.11855e-18)
(1.59595e-05 2.74756e-05 -5.15951e-19)
(1.69737e-05 2.79276e-05 -1.23286e-17)
(1.38232e-05 2.93577e-05 -3.20272e-17)
(1.55161e-05 2.68546e-05 0)
(1.74509e-05 4.58256e-05 4.44755e-17)
(1.78356e-05 3.4521e-05 2.36244e-17)
(2.24193e-05 6.39626e-05 -1.20113e-16)
(-2.12919e-05 5.17467e-05 5.62491e-17)
(-3.09283e-05 7.53953e-05 -1.15577e-16)
(-1.34774e-05 3.14856e-05 0)
(-1.69054e-05 3.68257e-05 -5.13964e-17)
(-1.58331e-05 2.61027e-05 1.52607e-17)
(-1.54567e-05 2.66279e-05 0)
(-1.79212e-05 2.76872e-05 -7.87921e-18)
(-1.71701e-05 2.61727e-05 0)
(-2.04736e-05 3.16405e-05 0)
(-1.94038e-05 2.95533e-05 0)
(-2.47027e-05 3.5404e-05 1.65049e-17)
(-2.21331e-05 3.37363e-05 -1.63541e-17)
(-3.10633e-05 3.78706e-05 8.58141e-18)
(-2.808e-05 3.68782e-05 4.16042e-18)
(-3.41149e-05 3.81232e-05 -8.86561e-18)
(-3.33056e-05 3.81271e-05 -2.17166e-17)
(-3.36302e-05 3.81956e-05 1.79037e-17)
(4.65148e-05 1.99529 -4.71923e-19)
(-5.47333e-06 2.17062 -1.01099e-18)
(0.000143546 1.70536 5.38668e-19)
(0.000144946 1.84124 6.73447e-19)
(-0.000390528 1.47766 0)
(-0.00011102 1.58489 -5.38097e-19)
(-0.000219028 1.29563 -1.07324e-18)
(-8.50427e-05 1.38176 -6.71667e-20)
(-0.00185769 1.14851 -4.26609e-18)
(-0.00101952 1.21823 -2.14183e-18)
(-0.00228563 1.08518 1.27663e-17)
(0.000107424 2.87204 0)
(0.000471008 2.87293 1.01117e-18)
(0.000323355 2.87235 -7.41162e-19)
(-1.57355e-06 5.54803e-05 -7.87949e-17)
(-0.000202992 2.87326 -6.7388e-20)
(-0.000293336 2.8728 6.73686e-20)
(0.0315623 0.766931 0)
(0.0235811 0.754063 9.97449e-17)
(0.0467843 0.847106 -3.54371e-17)
(0.0435212 0.828825 8.71253e-17)
(0.00852329 0.920911 -2.95234e-17)
(0.0134261 0.876456 4.22975e-17)
(0.00331752 1.02558 4.24341e-18)
(0.00559144 0.971463 4.22917e-18)
(0.000691169 1.14755 -4.2681e-18)
(0.00173322 1.08388 -3.88908e-22)
(-0.000758965 1.29626 -2.14183e-18)
(-0.000571819 1.21812 8.55836e-18)
(0.000277721 1.47841 -2.68979e-19)
(0.000637976 1.38258 -2.68616e-19)
(-9.55732e-05 1.70596 -4.71251e-19)
(-0.000308883 1.58555 5.38527e-19)
(1.11716e-05 1.9958 5.39214e-19)
(-6.14541e-05 1.84179 2.35996e-19)
(0.000174715 2.17103 -5.39792e-19)
(2.33474e-05 2.79346e-05 1.35159e-16)
(1.45069e-05 3.52942e-05 7.76517e-17)
(1.73898e-05 3.29617e-05 -2.36753e-16)
(2.52812e-05 2.12494e-05 -1.03554e-17)
(2.47591e-05 2.27526e-05 -3.34504e-17)
(3.4163e-05 2.36211e-05 -4.07356e-18)
(3.22781e-05 2.6092e-05 1.42235e-17)
(4.23085e-05 2.40079e-05 2.31904e-18)
(3.95634e-05 2.44823e-05 -5.76995e-19)
(4.67724e-05 2.36202e-05 2.45428e-18)
(4.51239e-05 2.39464e-05 -3.8629e-26)
(4.62189e-05 2.37821e-05 -2.29216e-18)
(4.74403e-05 2.41758e-05 -2.87351e-19)
(4.15483e-05 2.54566e-05 1.35783e-17)
(4.47452e-05 2.45868e-05 4.56895e-18)
(3.65411e-05 2.7932e-05 4.41338e-18)
(3.93776e-05 2.64072e-05 9.91671e-26)
(3.19093e-05 3.08263e-05 1.08436e-17)
(3.4637e-05 2.908e-05 -1.31644e-17)
(2.81536e-05 3.22131e-05 2.11395e-18)
(3.01898e-05 3.13594e-05 -1.50901e-17)
(2.49266e-05 3.22061e-05 -5.97821e-17)
(2.55045e-05 3.16864e-05 1.2725e-17)
(1.52561e-05 2.88814e-05 -1.74654e-17)
(2.07565e-05 2.978e-05 3.47498e-17)
(5.32981e-06 4.29041e-05 0)
(5.82484e-06 2.76858e-05 -1.72907e-17)
(1.13995e-05 2.78344e-05 1.73979e-17)
(3.14519e-06 2.72424e-05 0)
(6.66004e-07 2.75911e-05 -4.25012e-18)
(-8.35398e-07 4.31701e-05 0)
(3.18785e-07 2.6573e-05 8.70796e-18)
(6.2964e-07 2.66425e-05 0)
(-2.7131e-06 2.70681e-05 -1.13051e-18)
(-8.9612e-07 2.55736e-05 8.92904e-18)
(-1.29289e-05 2.57376e-05 0)
(-5.89051e-06 2.50315e-05 1.10327e-18)
(-2.04087e-05 2.7571e-05 2.55029e-17)
(-1.6028e-05 3.03836e-05 -4.32891e-18)
(-2.70302e-05 3.26301e-05 -1.54248e-25)
(-2.57507e-05 3.00527e-05 1.65934e-17)
(-3.04061e-05 3.1406e-05 -8.80914e-18)
(-2.92638e-05 3.01213e-05 0)
(-3.43398e-05 2.79496e-05 8.93633e-18)
(-3.24524e-05 2.87623e-05 -1.78786e-17)
(-3.90339e-05 2.55663e-05 4.42234e-18)
(-3.65098e-05 2.68626e-05 4.45296e-18)
(-4.45664e-05 2.43188e-05 -2.19277e-17)
(-4.1917e-05 2.5234e-05 1.32358e-17)
(-4.67944e-05 2.43147e-05 -8.70805e-18)
(-4.60405e-05 2.42836e-05 1.31252e-17)
(-4.40627e-05 2.52537e-05 0)
(-4.59855e-05 2.47687e-05 0)
(-3.75496e-05 2.66358e-05 1.95297e-17)
(-4.07186e-05 2.57996e-05 -6.5061e-18)
(-2.90899e-05 2.85354e-05 1.72244e-25)
(-3.23478e-05 2.64637e-05 -8.65701e-18)
(-2.14978e-05 3.20016e-05 -3.06398e-17)
(-2.30663e-05 2.59241e-05 3.36162e-17)
(-1.39254e-05 5.36287e-05 2.48958e-17)
(-1.45503e-05 3.6499e-05 4.64422e-17)
(-1.3724e-05 9.23873e-05 2.18117e-18)
(-1.39539e-05 7.26603e-05 -1.22979e-17)
(-1.72328e-05 0.000116033 -1.11692e-18)
(-1.50366e-05 0.000107268 1.20734e-17)
(-2.27015e-05 0.000108074 -2.28157e-18)
(-1.98412e-05 0.000116392 1.80091e-17)
(-2.53839e-05 7.54093e-05 0)
(-2.43013e-05 9.46922e-05 2.29833e-18)
(-2.43586e-05 4.13744e-05 1.68248e-17)
(-2.45903e-05 6.13181e-05 -1.73777e-17)
(0.0635021 0.600312 -1.63957e-16)
(-0.0198714 0.796079 -1.34517e-16)
(-2.58121e-05 8.74209e-05 -3.14469e-17)
(0.000299041 0.000640469 2.91721e-16)
(-0.0105971 0.923897 -1.67687e-17)
(0.000603899 0.0108081 3.05968e-16)
(0.000128834 0.000563524 -1.67039e-16)
(0.000284215 0.00221854 1.61128e-22)
(0.0002161 0.00153517 2.22054e-16)
(8.26456e-05 0.001041 -2.32754e-16)
(1.3415e-05 7.4487e-05 7.47271e-17)
(9.20501e-06 7.34116e-05 -7.42726e-17)
(-2.76288e-07 4.31847e-05 -1.70292e-17)
(2.9892e-06 4.31953e-05 -1.5934e-25)
(-7.49694e-06 7.43352e-05 3.13206e-16)
(-1.04982e-05 7.36324e-05 0)
(-2.62019e-05 0.000122452 -4.62189e-16)
(9.53426e-05 0.000170749 -1.20757e-16)
(-7.66935e-05 0.000384605 -2.72389e-17)
(9.43135e-06 2.31236e-05 -1.42333e-16)
(-2.85703e-05 0.00104534 -5.10712e-16)
(-9.98085e-05 0.000224163 8.19882e-18)
(-4.13987e-05 7.83762e-05 5.89193e-17)
(0.000482597 2.87361 -1.07799e-18)
(0.153605 0.644715 8.68378e-17)
(0.07986 0.702362 -2.51388e-21)
(1.30689e-05 3.92618e-05 1.91348e-17)
(1.89992e-05 2.90189e-05 -1.17148e-25)
(1.9923e-05 2.78448e-05 9.79937e-17)
(0.001608 0.729585 3.90609e-16)
(3.94785e-05 0.000220974 -3.14244e-16)
(3.51952e-06 6.70985e-05 0)
(1.14867e-05 6.6855e-05 7.65263e-17)
(4.79144e-06 4.9366e-05 -2.20464e-18)
(-6.75461e-07 4.75447e-05 0)
(-1.10338e-05 6.60553e-05 -3.34007e-24)
(-4.54159e-06 6.65508e-05 -2.52243e-16)
(-1.19233e-05 7.3478e-05 -1.6624e-16)
(1.89497e-05 5.84927e-05 -1.44847e-17)
(2.02408e-05 4.05908e-05 4.83303e-18)
(-0.00776709 0.836303 1.57981e-17)
(0.000254145 0.00232552 8.49473e-17)
(-0.0743825 0.495294 -2.01916e-16)
(0.0662064 0.659456 4.94799e-16)
(-6.44554e-06 5.92418e-05 0)
(6.16146e-05 0.00103219 1.92726e-16)
(0.016261 0.69394 -4.14314e-16)
(-0.00318736 0.648038 -1.26507e-16)
(2.02389e-05 0.000103754 -3.18555e-16)
(0.0508796 0.687547 -1.58266e-20)
(6.70385e-06 6.60709e-05 -4.83387e-16)
(8.35037e-06 5.99109e-05 1.82954e-17)
(-1.46505e-06 5.71189e-05 -7.10611e-17)
(-7.06363e-06 6.21718e-05 -9.74558e-17)
(-1.91851e-05 4.24153e-05 2.32707e-18)
(-2.16479e-05 3.52702e-05 -8.69354e-18)
(-1.63381e-05 3.61557e-05 6.97752e-18)
(-0.00110234 3.18185 0)
(-0.000235044 2.87429 1.07876e-18)
(-0.000407363 3.18283 0)
(-0.0156463 0.877155 6.64313e-17)
(-1.18075e-05 5.81703e-05 8.55936e-18)
(7.36478e-06 6.94653e-05 1.75917e-23)
(-7.76085e-06 0.000106982 -1.49288e-16)
(9.41074e-05 0.000779878 -1.08589e-16)
(-3.38194e-05 0.000113416 -3.49958e-17)
(-3.13817e-05 0.000104944 2.26403e-17)
(9.80701e-06 7.54984e-05 7.35823e-17)
(5.82144e-08 4.33755e-05 2.12624e-17)
(-9.75777e-06 7.60157e-05 -1.50094e-16)
(-3.06286e-05 0.000161363 -4.07712e-23)
(1.00669e-05 7.34696e-05 3.59714e-17)
(1.16203e-05 5.77585e-05 -1.84922e-17)
(1.04622e-05 0.000105929 1.52926e-17)
(9.25223e-06 9.28324e-05 0)
(1.5208e-05 0.000113055 3.41537e-25)
(1.25893e-05 0.000114006 -6.55662e-18)
(1.92132e-05 9.10028e-05 0)
(1.71472e-05 0.000104126 -8.97247e-18)
(1.84027e-05 7.24713e-05 -9.48572e-18)
(2.16602e-05 3.44889e-05 9.69345e-18)
(2.77419e-05 3.40146e-05 7.24357e-17)
(2.40743e-05 3.53833e-05 0)
(3.37347e-05 3.48479e-05 7.54566e-26)
(3.37854e-05 3.32606e-05 -8.49759e-18)
(3.11621e-05 3.29432e-05 -2.6463e-19)
(3.35748e-05 3.22404e-05 4.36363e-18)
(2.4677e-05 3.14592e-05 2.09379e-18)
(2.81185e-05 3.24051e-05 4.34035e-18)
(1.92504e-05 2.82309e-05 2.07499e-18)
(2.1486e-05 3.01909e-05 -1.45462e-17)
(1.71479e-05 2.48979e-05 -2.46675e-17)
(1.79727e-05 2.66487e-05 1.24451e-17)
(1.70697e-05 2.38721e-05 6.73928e-17)
(1.68771e-05 2.37893e-05 -3.29597e-17)
(1.97883e-05 2.99082e-05 0)
(1.75318e-05 2.53747e-05 -3.25158e-17)
(3.61571e-05 5.80351e-05 4.62101e-17)
(2.42013e-05 4.11195e-05 0)
(5.80944e-05 0.000100344 1.14509e-16)
(2.16435e-05 0.00103921 -1.79726e-16)
(-6.43771e-05 0.000133584 -1.58484e-23)
(-2.15708e-05 3.39355e-05 0)
(-2.85759e-05 5.13053e-05 0)
(-1.73267e-05 2.3606e-05 -3.09177e-17)
(-1.78036e-05 2.67683e-05 0)
(-1.72594e-05 2.36165e-05 1.13875e-25)
(-1.70006e-05 2.28682e-05 3.9133e-17)
(-1.89179e-05 2.67612e-05 0)
(-1.79233e-05 2.49462e-05 1.00243e-18)
(-2.35862e-05 3.00596e-05 0)
(-2.07008e-05 2.89203e-05 4.09183e-18)
(-3.05802e-05 3.15404e-05 -4.23015e-18)
(-2.72969e-05 3.09423e-05 4.15054e-18)
(-3.34635e-05 3.21574e-05 0)
(-3.28563e-05 3.17241e-05 1.72597e-17)
(-2.97049e-05 3.30737e-05 1.1257e-17)
(-3.23839e-05 3.22185e-05 -4.44635e-18)
(-2.55608e-05 3.39666e-05 -9.76171e-18)
(8.79088e-06 2.37234 0)