/*--------------------------------*- C++ -*----------------------------------*\
| =========                 |                                                 |
| \\      /  F ield         | OpenFOAM: The Open Source CFD Toolbox           |
|  \\    /   O peration     | Version:  2212                                  |
|   \\  /    A nd           | Website:  www.openfoam.com                      |
|    \\/     M anipulation  |                                                 |
\*---------------------------------------------------------------------------*/
FoamFile
{
    version     2.0;
    format      ascii;
    arch        "LSB;label=32;scalar=64";
    class       volScalarField;
    location    "0.0483";
    object      s;
}
// * * * * * * * * * * * * * * * * * * * * * * * * * * * * * * * * * * * * * //

dimensions      [0 0 0 0 0 0 0];

internalField   nonuniform List<scalar> 
24240
(
7.51095e-145
7.77885e-145
7.8112e-145
7.54255e-145
7.74993e-145
7.7713e-145
7.79199e-145
7.68898e-145
7.4834e-145
7.9429e-145
7.47706e-145
7.9139e-145
7.50317e-145
7.79648e-145
7.32665e-145
7.7916e-145
7.37768e-145
7.65492e-145
7.79466e-145
7.35538e-145
1.8392e-141
1.90332e-141
1.91215e-141
1.84521e-141
1.89702e-141
1.90109e-141
1.90598e-141
1.88047e-141
1.8317e-141
1.94323e-141
1.82966e-141
1.93677e-141
1.83568e-141
1.90752e-141
1.79313e-141
1.90715e-141
1.80532e-141
1.87275e-141
1.90688e-141
1.79949e-141
2.79e-138
2.8848e-138
2.89931e-138
2.796e-138
2.87629e-138
2.88017e-138
2.88744e-138
2.84844e-138
2.77727e-138
2.94416e-138
2.77336e-138
2.93562e-138
2.78171e-138
2.89026e-138
2.71808e-138
2.89123e-138
2.73676e-138
2.83766e-138
2.88913e-138
2.72729e-138
2.46569e-135
2.54711e-135
2.5607e-135
2.46789e-135
2.54043e-135
2.54144e-135
2.54788e-135
2.51327e-135
2.45316e-135
2.598e-135
2.44897e-135
2.59184e-135
2.4555e-135
2.55073e-135
2.40002e-135
2.55316e-135
2.4172e-135
2.50462e-135
2.54972e-135
2.40828e-135
1.6694e-132
1.72278e-132
1.73227e-132
1.66844e-132
1.7187e-132
1.71735e-132
1.72185e-132
1.69844e-132
1.65996e-132
1.75556e-132
1.65657e-132
1.75258e-132
1.66024e-132
1.72388e-132
1.6231e-132
1.72682e-132
1.63574e-132
1.69317e-132
1.72332e-132
1.62931e-132
7.95852e-130
8.20394e-130
8.24927e-130
7.94069e-130
8.18609e-130
8.16816e-130
8.19105e-130
8.08022e-130
7.90883e-130
8.34969e-130
7.8899e-130
8.3425e-130
7.90309e-130
8.20083e-130
7.72761e-130
8.22202e-130
7.79551e-130
8.05801e-130
8.1991e-130
7.76274e-130
2.77704e-127
2.85919e-127
2.87424e-127
2.76532e-127
2.85312e-127
2.84176e-127
2.85073e-127
2.8127e-127
2.75795e-127
2.9047e-127
2.75027e-127
2.90537e-127
2.75287e-127
2.8538e-127
2.69189e-127
2.86431e-127
2.71993e-127
2.80594e-127
2.85384e-127
2.70779e-127
6.40801e-125
6.5886e-125
6.61918e-125
6.36592e-125
6.57378e-125
6.53287e-125
6.55726e-125
6.47214e-125
6.35982e-125
6.67667e-125
6.3393e-125
6.68772e-125
6.33939e-125
6.56265e-125
6.19843e-125
6.59596e-125
6.27821e-125
6.45909e-125
6.56537e-125
6.24904e-125
6.95345e-123
7.13865e-123
7.1633e-123
6.8882e-123
7.11956e-123
7.05481e-123
7.08765e-123
6.9999e-123
6.89668e-123
7.20851e-123
6.87086e-123
7.23403e-123
6.86257e-123
7.08996e-123
6.70798e-123
7.1387e-123
6.81857e-123
6.98868e-123
7.09742e-123
6.78597e-123
8.68088e-123
8.82392e-123
8.69358e-123
8.40056e-123
8.72737e-123
8.39863e-123
8.50613e-123
8.48945e-123
8.586e-123
8.60701e-123
8.51136e-123
8.79248e-123
8.41881e-123
8.46141e-123
8.18877e-123
8.69084e-123
8.65687e-123
8.51525e-123
8.57011e-123
8.6028e-123
1.18799e-122
1.21952e-122
1.19754e-122
1.2261e-122
1.19465e-122
1.21692e-122
1.22892e-122
1.21851e-122
1.22599e-122
1.27805e-122
1.21509e-122
1.26086e-122
1.22742e-122
1.20143e-122
1.21149e-122
1.22844e-122
1.21449e-122
1.20956e-122
1.19878e-122
1.21726e-122
1.50041e-122
1.51901e-122
1.50507e-122
1.52185e-122
1.48371e-122
1.46337e-122
1.46696e-122
1.44946e-122
1.47309e-122
1.55648e-122
1.53473e-122
1.49997e-122
1.49508e-122
1.50091e-122
1.48485e-122
1.51313e-122
1.45098e-122
1.52204e-122
1.50823e-122
1.4838e-122
1.65537e-122
1.74878e-122
1.69498e-122
1.7276e-122
1.68497e-122
1.71976e-122
1.75977e-122
1.71588e-122
1.71944e-122
1.71389e-122
1.7111e-122
1.70575e-122
1.6704e-122
1.67492e-122
1.62901e-122
1.6931e-122
1.70515e-122
1.67262e-122
1.66179e-122
1.66833e-122
1.87501e-122
1.91639e-122
1.96639e-122
1.96058e-122
1.92471e-122
1.98123e-122
1.93606e-122
1.95971e-122
1.95185e-122
1.88617e-122
1.89584e-122
1.88093e-122
1.89212e-122
1.84298e-122
1.87178e-122
1.86258e-122
1.88715e-122
1.89027e-122
1.88503e-122
1.90598e-122
1.93704e-122
1.97997e-122
1.98715e-122
2.01066e-122
1.98375e-122
1.95767e-122
1.96326e-122
2.01086e-122
1.95171e-122
1.98571e-122
1.9338e-122
1.96072e-122
2.02923e-122
1.9625e-122
1.92286e-122
2.04348e-122
1.93899e-122
1.94685e-122
1.96403e-122
2.04902e-122
2.05951e-122
2.07585e-122
2.10696e-122
2.0397e-122
2.06126e-122
2.05585e-122
2.10488e-122
2.06806e-122
2.00228e-122
2.03988e-122
2.06698e-122
2.11064e-122
2.06275e-122
2.08404e-122
2.12906e-122
2.07945e-122
2.10893e-122
2.04049e-122
2.04771e-122
2.05733e-122
1.83582e-122
1.90735e-122
1.85893e-122
1.94301e-122
1.89816e-122
1.95908e-122
1.93504e-122
1.89945e-122
1.90815e-122
1.91878e-122
1.88581e-122
1.94564e-122
1.96173e-122
1.96185e-122
1.90601e-122
1.94998e-122
1.96377e-122
1.87068e-122
1.97906e-122
1.92055e-122
1.83036e-122
1.91371e-122
1.8796e-122
1.88127e-122
1.85761e-122
1.91704e-122
1.90861e-122
1.87747e-122
1.89967e-122
1.83048e-122
1.87372e-122
1.92293e-122
1.86978e-122
1.97951e-122
1.92648e-122
1.96328e-122
1.98601e-122
1.90653e-122
1.94694e-122
1.95364e-122
1.55352e-122
1.55085e-122
1.51871e-122
1.56707e-122
1.59923e-122
1.5916e-122
1.57339e-122
1.51588e-122
1.58041e-122
1.54991e-122
1.57604e-122
1.59544e-122
1.57161e-122
1.58067e-122
1.6248e-122
1.60842e-122
1.58634e-122
1.62878e-122
1.61152e-122
1.65266e-122
1.29055e-122
1.30867e-122
1.29604e-122
1.2851e-122
1.33699e-122
1.30092e-122
1.37916e-122
1.29925e-122
1.3772e-122
1.3529e-122
1.32664e-122
1.37681e-122
1.30376e-122
1.36768e-122
1.33615e-122
1.3138e-122
1.36908e-122
1.38158e-122
1.33781e-122
1.41741e-122
1.01367e-142
1.04941e-142
1.05478e-142
1.01788e-142
1.04614e-142
1.04944e-142
1.05188e-142
1.03747e-142
1.00973e-142
1.07266e-142
1.00873e-142
1.06843e-142
1.01241e-142
1.05282e-142
9.89084e-143
1.05196e-142
9.94543e-143
1.03299e-142
1.05206e-142
9.9138e-143
3.00507e-139
3.10841e-139
3.1257e-139
3.01437e-139
3.09997e-139
3.10746e-139
3.11447e-139
3.07142e-139
2.99207e-139
3.17651e-139
2.98829e-139
3.16525e-139
2.99848e-139
3.11799e-139
2.93041e-139
3.11705e-139
2.9465e-139
3.05928e-139
3.11559e-139
2.93646e-139
5.02962e-136
5.19781e-136
5.22857e-136
5.03902e-136
5.1855e-136
5.19334e-136
5.20495e-136
5.13249e-136
5.00524e-136
5.30898e-136
4.99741e-136
5.29279e-136
5.01287e-136
5.21167e-136
4.90058e-136
5.21318e-136
4.92841e-136
5.114e-136
5.20759e-136
4.91046e-136
4.78581e-133
4.94106e-133
4.97171e-133
4.78839e-133
4.93093e-133
4.93337e-133
4.94453e-133
4.87537e-133
4.76003e-133
5.04335e-133
4.75113e-133
5.03087e-133
4.76407e-133
4.95157e-133
4.65867e-133
4.95625e-133
4.68684e-133
4.85957e-133
4.9478e-133
4.66863e-133
3.34695e-130
3.45185e-130
3.47375e-130
3.34357e-130
3.44562e-130
3.44299e-130
3.45115e-130
3.4029e-130
3.32689e-130
3.51968e-130
3.31955e-130
3.51352e-130
3.327e-130
3.45623e-130
3.25412e-130
3.46222e-130
3.27616e-130
3.39307e-130
3.45391e-130
3.26262e-130
1.64179e-127
1.69132e-127
1.70201e-127
1.63729e-127
1.68856e-127
1.68478e-127
1.68913e-127
1.66565e-127
1.63096e-127
1.72224e-127
1.62679e-127
1.72074e-127
1.62949e-127
1.6916e-127
1.59404e-127
1.69609e-127
1.60661e-127
1.66144e-127
1.6907e-127
1.59953e-127
5.71351e-125
5.87849e-125
5.91379e-125
5.68614e-125
5.86903e-125
5.84497e-125
5.86234e-125
5.7821e-125
5.67212e-125
5.97435e-125
5.65539e-125
5.97601e-125
5.66047e-125
5.87007e-125
5.53753e-125
5.89237e-125
5.59095e-125
5.76952e-125
5.86843e-125
5.56488e-125
1.30085e-122
1.33656e-122
1.34366e-122
1.29149e-122
1.33419e-122
1.32563e-122
1.3304e-122
1.3127e-122
1.29059e-122
1.35476e-122
1.28621e-122
1.35714e-122
1.28612e-122
1.33177e-122
1.25804e-122
1.33873e-122
1.27346e-122
1.31035e-122
1.33196e-122
1.26731e-122
1.38422e-120
1.42004e-120
1.42567e-120
1.37023e-120
1.41679e-120
1.40345e-120
1.40993e-120
1.3921e-120
1.37244e-120
1.43392e-120
1.36705e-120
1.4393e-120
1.36518e-120
1.41058e-120
1.33489e-120
1.4206e-120
1.3565e-120
1.39016e-120
1.41173e-120
1.34979e-120
1.72201e-120
1.74991e-120
1.7245e-120
1.66626e-120
1.73093e-120
1.66626e-120
1.68793e-120
1.68413e-120
1.70328e-120
1.70695e-120
1.68843e-120
1.74373e-120
1.66974e-120
1.67882e-120
1.62422e-120
1.72405e-120
1.71717e-120
1.6889e-120
1.69952e-120
1.70665e-120
2.35236e-120
2.41511e-120
2.37204e-120
2.42713e-120
2.3652e-120
2.40936e-120
2.43361e-120
2.41252e-120
2.42829e-120
2.52974e-120
2.40683e-120
2.49654e-120
2.42993e-120
2.37904e-120
2.39773e-120
2.43185e-120
2.40426e-120
2.39445e-120
2.37395e-120
2.41027e-120
2.95734e-120
2.99408e-120
2.96734e-120
2.99953e-120
2.92469e-120
2.88395e-120
2.89175e-120
2.85675e-120
2.90445e-120
3.06825e-120
3.02543e-120
2.95562e-120
2.94833e-120
2.95895e-120
2.9273e-120
2.98271e-120
2.85974e-120
2.99992e-120
2.97219e-120
2.92544e-120
3.25233e-120
3.43447e-120
3.32972e-120
3.39235e-120
3.30937e-120
3.37837e-120
3.45787e-120
3.3694e-120
3.37699e-120
3.36571e-120
3.36036e-120
3.34957e-120
3.28197e-120
3.28922e-120
3.20004e-120
3.32501e-120
3.34943e-120
3.28441e-120
3.26332e-120
3.27705e-120
3.64668e-120
3.72638e-120
3.82321e-120
3.81204e-120
3.74284e-120
3.85304e-120
3.76411e-120
3.81087e-120
3.79622e-120
3.66586e-120
3.68617e-120
3.65705e-120
3.67943e-120
3.58364e-120
3.63898e-120
3.6214e-120
3.66896e-120
3.67621e-120
3.66545e-120
3.70665e-120
3.75297e-120
3.83531e-120
3.85022e-120
3.89515e-120
3.8422e-120
3.79314e-120
3.804e-120
3.89625e-120
3.78081e-120
3.8466e-120
3.74693e-120
3.79835e-120
3.9309e-120
3.80238e-120
3.72554e-120
3.95957e-120
3.75718e-120
3.77178e-120
3.8054e-120
3.96905e-120
3.919e-120
3.94768e-120
4.00845e-120
3.88087e-120
3.92255e-120
3.91242e-120
4.00533e-120
3.93535e-120
3.81029e-120
3.88083e-120
3.93177e-120
4.01666e-120
3.92482e-120
3.96669e-120
4.04953e-120
3.95768e-120
4.01187e-120
3.88328e-120
3.89646e-120
3.91477e-120
3.48993e-120
3.62408e-120
3.53314e-120
3.69309e-120
3.60741e-120
3.7232e-120
3.67715e-120
3.61061e-120
3.62627e-120
3.64571e-120
3.58341e-120
3.69715e-120
3.7263e-120
3.7296e-120
3.62231e-120
3.70672e-120
3.73106e-120
3.55437e-120
3.75959e-120
3.65075e-120
3.38248e-120
3.53745e-120
3.47426e-120
3.47735e-120
3.43296e-120
3.54485e-120
3.52846e-120
3.47176e-120
3.51153e-120
3.38421e-120
3.46514e-120
3.55566e-120
3.45534e-120
3.66083e-120
3.5604e-120
3.62885e-120
3.67119e-120
3.52402e-120
3.5985e-120
3.61199e-120
2.88418e-120
2.87886e-120
2.8194e-120
2.9084e-120
2.9689e-120
2.95443e-120
2.9203e-120
2.81374e-120
2.93411e-120
2.87618e-120
2.92617e-120
2.96082e-120
2.91725e-120
2.9349e-120
3.01528e-120
2.98609e-120
2.94362e-120
3.02298e-120
2.99062e-120
3.06799e-120
2.31713e-120
2.34986e-120
2.32707e-120
2.30747e-120
2.40063e-120
2.33625e-120
2.47585e-120
2.33354e-120
2.47253e-120
2.42936e-120
2.38278e-120
2.47236e-120
2.34139e-120
2.45692e-120
2.399e-120
2.35983e-120
2.45783e-120
2.48063e-120
2.40281e-120
2.54455e-120
1.66594e-140
1.72387e-140
1.73433e-140
1.67258e-140
1.71957e-140
1.72546e-140
1.72893e-140
1.70451e-140
1.65911e-140
1.7638e-140
1.65723e-140
1.75648e-140
1.6635e-140
1.73112e-140
1.62601e-140
1.72955e-140
1.63282e-140
1.69749e-140
1.72916e-140
1.62735e-140
5.56435e-137
5.75267e-137
5.78987e-137
5.57998e-137
5.74044e-137
5.75523e-137
5.76654e-137
5.6844e-137
5.53866e-137
5.88343e-137
5.53077e-137
5.86169e-137
5.5501e-137
5.77487e-137
5.42677e-137
5.77285e-137
5.44996e-137
5.66296e-137
5.76815e-137
5.43036e-137
9.78933e-134
1.01109e-133
1.01796e-133
9.80403e-134
1.00928e-133
1.01089e-133
1.01287e-133
9.98362e-134
9.73875e-134
1.03344e-133
9.72193e-134
1.03019e-133
9.75252e-134
1.01449e-133
9.53873e-134
1.01478e-133
9.58213e-134
9.94969e-134
1.01333e-133
9.54533e-134
9.68762e-131
9.99576e-131
1.00664e-130
9.68874e-131
9.98103e-131
9.98629e-131
1.00063e-130
9.86236e-131
9.63212e-131
1.02093e-130
9.61255e-131
1.01833e-130
9.63905e-131
1.00235e-130
9.43039e-131
1.00332e-130
9.47733e-131
9.83255e-131
1.00124e-130
9.43856e-131
6.83086e-128
7.0404e-128
7.09096e-128
6.82069e-128
7.03167e-128
7.02617e-128
7.04113e-128
6.93995e-128
6.78745e-128
7.18282e-128
6.77139e-128
7.17003e-128
6.78665e-128
7.05351e-128
6.64118e-128
7.06612e-128
6.67954e-128
6.92151e-128
7.04645e-128
6.65052e-128
3.38883e-125
3.48869e-125
3.51356e-125
3.37772e-125
3.48491e-125
3.47685e-125
3.48508e-125
3.43532e-125
3.36519e-125
3.55417e-125
3.35605e-125
3.55112e-125
3.36157e-125
3.49112e-125
3.29e-125
3.50068e-125
3.31295e-125
3.42747e-125
3.48819e-125
3.29765e-125
1.15618e-122
1.18872e-122
1.19677e-122
1.14997e-122
1.18744e-122
1.18243e-122
1.18573e-122
1.16906e-122
1.14736e-122
1.20859e-122
1.14379e-122
1.20898e-122
1.14477e-122
1.18758e-122
1.12042e-122
1.19222e-122
1.13032e-122
1.1668e-122
1.1869e-122
1.12482e-122
2.59256e-120
2.66178e-120
2.67773e-120
2.57224e-120
2.65834e-120
2.6408e-120
2.64995e-120
2.6138e-120
2.57113e-120
2.69872e-120
2.56199e-120
2.70374e-120
2.56158e-120
2.65322e-120
2.50672e-120
2.66748e-120
2.53585e-120
2.60973e-120
2.65287e-120
2.5231e-120
2.70356e-118
2.77141e-118
2.78383e-118
2.67424e-118
2.76615e-118
2.73923e-118
2.75179e-118
2.71621e-118
2.67958e-118
2.79847e-118
2.66861e-118
2.80956e-118
2.66452e-118
2.75339e-118
2.60632e-118
2.77359e-118
2.6477e-118
2.71303e-118
2.75502e-118
2.63418e-118
3.34981e-118
3.40314e-118
3.3546e-118
3.24111e-118
3.36656e-118
3.24186e-118
3.28469e-118
3.27629e-118
3.31359e-118
3.31973e-118
3.28459e-118
3.39125e-118
3.24762e-118
3.2665e-118
3.1593e-118
3.3539e-118
3.34023e-118
3.2849e-118
3.30508e-118
3.32019e-118
4.56899e-118
4.69143e-118
4.6087e-118
4.71278e-118
4.59324e-118
4.67909e-118
4.72722e-118
4.68527e-118
4.71781e-118
4.91151e-118
4.67637e-118
4.84874e-118
4.71863e-118
4.62089e-118
4.65479e-118
4.72215e-118
4.66865e-118
4.64949e-118
4.61135e-118
4.68138e-118
5.71823e-118
5.7894e-118
5.73919e-118
5.79961e-118
5.65563e-118
5.57553e-118
5.59212e-118
5.52342e-118
5.61786e-118
5.93344e-118
5.85077e-118
5.71324e-118
5.70378e-118
5.72256e-118
5.66145e-118
5.7679e-118
5.52919e-118
5.80044e-118
5.74581e-118
5.65819e-118
6.27476e-118
6.6234e-118
6.42316e-118
6.5411e-118
6.38267e-118
6.51692e-118
6.67209e-118
6.49701e-118
6.51281e-118
6.49033e-118
6.48032e-118
6.45897e-118
6.33218e-118
6.34302e-118
6.1729e-118
6.41217e-118
6.46065e-118
6.33313e-118
6.2928e-118
6.321e-118
6.97121e-118
7.12207e-118
7.30637e-118
7.28528e-118
7.15413e-118
7.36511e-118
7.19325e-118
7.28406e-118
7.25761e-118
7.003e-118
7.04481e-118
6.98885e-118
7.03287e-118
6.84935e-118
6.95381e-118
6.92085e-118
7.01134e-118
7.02745e-118
7.00575e-118
7.08536e-118
7.15734e-118
7.31275e-118
7.34309e-118
7.42792e-118
7.32505e-118
7.23431e-118
7.25514e-118
7.43108e-118
7.20934e-118
7.33462e-118
7.14628e-118
7.24295e-118
7.49565e-118
7.25168e-118
7.10515e-118
7.55242e-118
7.16618e-118
7.19286e-118
7.25764e-118
7.56802e-118
7.35855e-118
7.40779e-118
7.52478e-118
7.28618e-118
7.36569e-118
7.3469e-118
7.52055e-118
7.38942e-118
7.15483e-118
7.2854e-118
7.37969e-118
7.5426e-118
7.36887e-118
7.45003e-118
7.60007e-118
7.43264e-118
7.53058e-118
7.29248e-118
7.31607e-118
7.35036e-118
6.55788e-118
6.80589e-118
6.63728e-118
6.93837e-118
6.77657e-118
6.99404e-118
6.90686e-118
6.78403e-118
6.81168e-118
6.84684e-118
6.73057e-118
6.94425e-118
6.99617e-118
7.00768e-118
6.80405e-118
6.96408e-118
7.0063e-118
6.67495e-118
7.05935e-118
6.85899e-118
6.22205e-118
6.50887e-118
6.39233e-118
6.3981e-118
6.31514e-118
6.52485e-118
6.49312e-118
6.39044e-118
6.46117e-118
6.22822e-118
6.37878e-118
6.54454e-118
6.35633e-118
6.73911e-118
6.54989e-118
6.67659e-118
6.7551e-118
6.48389e-118
6.62051e-118
6.64732e-118
5.3386e-118
5.32813e-118
5.21849e-118
5.38172e-118
5.49511e-118
5.46782e-118
5.40402e-118
5.2073e-118
5.43109e-118
5.32134e-118
5.41668e-118
5.47826e-118
5.3988e-118
5.43317e-118
5.5789e-118
5.52732e-118
5.44589e-118
5.59371e-118
5.53333e-118
5.67828e-118
4.25015e-118
4.31049e-118
4.26849e-118
4.23267e-118
4.40347e-118
4.28614e-118
4.54043e-118
4.28168e-118
4.53471e-118
4.45647e-118
4.37204e-118
4.53543e-118
4.29562e-118
4.50888e-118
4.4002e-118
4.33016e-118
4.50759e-118
4.55003e-118
4.40874e-118
4.66648e-118
3.47609e-138
3.59492e-138
3.61983e-138
3.48863e-138
3.588e-138
3.60049e-138
3.60676e-138
3.55439e-138
3.46069e-138
3.68068e-138
3.45616e-138
3.66506e-138
3.4694e-138
3.61238e-138
3.39282e-138
3.60914e-138
3.40328e-138
3.54041e-138
3.60699e-138
3.3912e-138
1.15436e-134
1.19272e-134
1.20147e-134
1.15714e-134
1.19088e-134
1.194e-134
1.19603e-134
1.17852e-134
1.14865e-134
1.22066e-134
1.14682e-134
1.21605e-134
1.15087e-134
1.19812e-134
1.12585e-134
1.19772e-134
1.12942e-134
1.17432e-134
1.1963e-134
1.12513e-134
2.00512e-131
2.0697e-131
2.08557e-131
2.00727e-131
2.06721e-131
2.07057e-131
2.07408e-131
2.04354e-131
1.99406e-131
2.11684e-131
1.99029e-131
2.11004e-131
1.99663e-131
2.07803e-131
1.95382e-131
2.07868e-131
1.96058e-131
2.03705e-131
2.07492e-131
1.95264e-131
2.0096e-128
2.07218e-128
2.08861e-128
2.00889e-128
2.07033e-128
2.07141e-128
2.07503e-128
2.04436e-128
1.99735e-128
2.11772e-128
1.99298e-128
2.11225e-128
1.99851e-128
2.07922e-128
1.95622e-128
2.08133e-128
1.9639e-128
2.03866e-128
2.07622e-128
1.95544e-128
1.40704e-125
1.44922e-125
1.46087e-125
1.40423e-125
1.44826e-125
1.44708e-125
1.44981e-125
1.4284e-125
1.39757e-125
1.47936e-125
1.39404e-125
1.4767e-125
1.39719e-125
1.45278e-125
1.36791e-125
1.45546e-125
1.37445e-125
1.42496e-125
1.45085e-125
1.36817e-125
6.93055e-123
7.12977e-123
7.18651e-123
6.90404e-123
7.12609e-123
7.10911e-123
7.12436e-123
7.01987e-123
6.87949e-123
7.26717e-123
6.85977e-123
7.26101e-123
6.87097e-123
7.13867e-123
6.72793e-123
7.15877e-123
6.76854e-123
7.00559e-123
7.13044e-123
6.73578e-123
2.31714e-120
2.38064e-120
2.39865e-120
2.30334e-120
2.37937e-120
2.36908e-120
2.37522e-120
2.34094e-120
2.29855e-120
2.42142e-120
2.29107e-120
2.42231e-120
2.29294e-120
2.37954e-120
2.24522e-120
2.38907e-120
2.26316e-120
2.337e-120
2.37746e-120
2.25165e-120
5.10815e-118
5.24061e-118
5.27572e-118
5.0648e-118
5.23644e-118
5.20097e-118
5.21826e-118
5.14522e-118
5.0639e-118
5.31475e-118
5.04516e-118
5.32517e-118
5.04394e-118
5.22578e-118
4.93805e-118
5.2546e-118
4.99215e-118
5.13848e-118
5.22364e-118
4.96604e-118
5.21774e-116
5.34455e-116
5.37129e-116
5.15726e-116
5.33649e-116
5.28287e-116
5.30696e-116
5.23682e-116
5.16956e-116
5.39661e-116
5.14755e-116
5.41916e-116
5.13879e-116
5.31069e-116
5.02835e-116
5.35084e-116
5.10664e-116
5.23185e-116
5.31259e-116
5.07971e-116
6.43608e-116
6.53673e-116
6.44515e-116
6.22681e-116
6.46709e-116
6.22969e-116
6.31334e-116
6.2952e-116
6.36698e-116
6.37683e-116
6.31104e-116
6.51415e-116
6.23884e-116
6.27745e-116
6.06965e-116
6.44415e-116
6.41738e-116
6.31045e-116
6.3483e-116
6.37973e-116
8.76806e-116
9.00399e-116
8.84712e-116
9.0411e-116
8.81328e-116
8.97803e-116
9.07245e-116
8.98996e-116
9.05624e-116
9.42122e-116
8.97711e-116
9.30417e-116
9.05312e-116
8.86775e-116
8.92814e-116
9.05953e-116
8.95704e-116
8.92007e-116
8.85013e-116
8.98354e-116
1.09266e-115
1.10628e-115
1.09698e-115
1.10816e-115
1.0808e-115
1.06524e-115
1.06871e-115
1.05538e-115
1.07386e-115
1.13392e-115
1.11815e-115
1.09138e-115
1.09048e-115
1.09372e-115
1.08207e-115
1.10227e-115
1.05648e-115
1.10835e-115
1.09771e-115
1.08151e-115
1.1976e-115
1.2636e-115
1.22574e-115
1.24768e-115
1.21779e-115
1.24361e-115
1.27357e-115
1.23931e-115
1.24254e-115
1.23812e-115
1.23628e-115
1.2321e-115
1.2086e-115
1.21007e-115
1.17797e-115
1.22329e-115
1.23278e-115
1.20807e-115
1.20044e-115
1.20614e-115
1.32002e-115
1.34829e-115
1.38304e-115
1.37911e-115
1.35448e-115
1.39447e-115
1.36161e-115
1.37906e-115
1.37434e-115
1.32511e-115
1.3336e-115
1.32295e-115
1.33152e-115
1.2967e-115
1.31622e-115
1.31011e-115
1.32716e-115
1.33064e-115
1.32631e-115
1.34155e-115
1.35395e-115
1.38305e-115
1.38913e-115
1.40501e-115
1.38521e-115
1.36858e-115
1.37255e-115
1.40588e-115
1.36362e-115
1.3873e-115
1.35196e-115
1.36998e-115
1.41774e-115
1.37182e-115
1.34411e-115
1.42888e-115
1.35578e-115
1.36061e-115
1.37299e-115
1.43135e-115
1.37569e-115
1.38402e-115
1.40642e-115
1.36198e-115
1.37711e-115
1.37364e-115
1.40595e-115
1.38149e-115
1.33767e-115
1.36174e-115
1.3791e-115
1.41022e-115
1.37748e-115
1.39315e-115
1.42016e-115
1.3898e-115
1.40739e-115
1.36354e-115
1.36771e-115
1.37408e-115
1.22852e-115
1.2742e-115
1.24305e-115
1.29955e-115
1.26908e-115
1.30979e-115
1.29334e-115
1.27075e-115
1.27558e-115
1.28193e-115
1.26031e-115
1.30031e-115
1.30949e-115
1.31264e-115
1.27412e-115
1.30437e-115
1.3116e-115
1.24967e-115
1.32144e-115
1.2847e-115
1.14991e-115
1.20324e-115
1.18164e-115
1.18276e-115
1.16717e-115
1.20666e-115
1.20049e-115
1.18182e-115
1.19443e-115
1.15166e-115
1.17975e-115
1.21025e-115
1.17484e-115
1.24639e-115
1.21059e-115
1.23415e-115
1.24878e-115
1.19856e-115
1.22378e-115
1.22906e-115
9.93079e-116
9.91031e-116
9.70723e-116
1.00078e-115
1.02212e-115
1.01696e-115
1.00498e-115
9.68506e-116
1.0103e-115
9.89389e-116
1.00767e-115
1.01864e-115
1.00406e-115
1.01082e-115
1.03733e-115
1.02822e-115
1.01254e-115
1.0402e-115
1.02887e-115
1.05616e-115
7.83111e-116
7.94279e-116
7.865e-116
7.79935e-116
8.11379e-116
7.89914e-116
8.36411e-116
7.89177e-116
8.35424e-116
8.21202e-116
8.05824e-116
8.35756e-116
7.91666e-116
8.31192e-116
8.10726e-116
7.9816e-116
8.30409e-116
8.38345e-116
8.12584e-116
8.59649e-116
7.26684e-136
7.51085e-136
7.56951e-136
7.29022e-136
7.50078e-136
7.5273e-136
7.5383e-136
7.42583e-136
7.23223e-136
7.6953e-136
7.22154e-136
7.66198e-136
7.24955e-136
7.55236e-136
7.09303e-136
7.54571e-136
7.10688e-136
7.39819e-136
7.53842e-136
7.08018e-136
2.43861e-132
2.51809e-132
2.53878e-132
2.44344e-132
2.51568e-132
2.52234e-132
2.52593e-132
2.48794e-132
2.42568e-132
2.57875e-132
2.42142e-132
2.56885e-132
2.43008e-132
2.53112e-132
2.37842e-132
2.53036e-132
2.38333e-132
2.47964e-132
2.52642e-132
2.37376e-132
4.19598e-129
4.32831e-129
4.36532e-129
4.19854e-129
4.32567e-129
4.33269e-129
4.33889e-129
4.27327e-129
4.1713e-129
4.42967e-129
4.16275e-129
4.41522e-129
4.17612e-129
4.34849e-129
4.08864e-129
4.35003e-129
4.09835e-129
4.26073e-129
4.34054e-129
4.08083e-129
4.21396e-126
4.34223e-126
4.38048e-126
4.21035e-126
4.34093e-126
4.34308e-126
4.34956e-126
4.28354e-126
4.18665e-126
4.44025e-126
4.17683e-126
4.42867e-126
4.18851e-126
4.35966e-126
4.10193e-126
4.36432e-126
4.11371e-126
4.27267e-126
4.35195e-126
4.09505e-126
2.89634e-123
2.98108e-123
3.00762e-123
2.88902e-123
2.98085e-123
2.97827e-123
2.98317e-123
2.93793e-123
2.87567e-123
3.04473e-123
2.868e-123
3.03923e-123
2.87449e-123
2.99015e-123
2.81568e-123
2.99587e-123
2.82625e-123
2.9316e-123
2.98525e-123
2.81269e-123
1.40547e-120
1.44483e-120
1.45756e-120
1.39931e-120
1.44492e-120
1.44138e-120
1.44415e-120
1.42239e-120
1.39454e-120
1.47341e-120
1.39035e-120
1.47218e-120
1.39261e-120
1.44745e-120
1.3643e-120
1.45163e-120
1.3712e-120
1.41986e-120
1.44534e-120
1.36425e-120
4.60337e-118
4.726e-118
4.76561e-118
4.57321e-118
4.72611e-118
4.7052e-118
4.71645e-118
4.64654e-118
4.56453e-118
4.809e-118
4.54904e-118
4.81095e-118
4.55262e-118
4.72624e-118
4.46001e-118
4.7456e-118
4.49172e-118
4.63993e-118
4.7207e-118
4.46786e-118
9.96135e-116
1.02118e-115
1.02877e-115
9.87034e-116
1.02089e-115
1.0138e-115
1.01703e-115
1.00242e-115
9.87101e-116
1.03592e-115
9.83309e-116
1.03805e-115
9.82996e-116
1.01871e-115
9.62791e-116
1.02446e-115
9.72664e-116
1.00136e-115
1.01801e-115
9.67375e-116
9.96178e-114
1.01958e-113
1.02522e-113
9.83885e-114
1.01844e-113
1.00789e-113
1.01247e-113
9.98789e-114
9.86609e-114
1.02948e-113
9.82256e-114
1.03401e-113
9.80418e-114
1.0133e-113
9.59696e-114
1.02118e-113
9.74337e-114
9.98067e-114
1.01343e-113
9.69036e-114
1.22279e-113
1.24156e-113
1.22449e-113
1.18296e-113
1.22846e-113
1.18378e-113
1.19994e-113
1.19609e-113
1.20977e-113
1.21126e-113
1.1991e-113
1.23733e-113
1.18516e-113
1.19293e-113
1.15312e-113
1.22436e-113
1.21918e-113
1.19875e-113
1.20577e-113
1.2122e-113
1.66448e-113
1.70942e-113
1.68003e-113
1.71572e-113
1.67281e-113
1.70406e-113
1.7224e-113
1.70634e-113
1.71967e-113
1.78762e-113
1.70471e-113
1.76607e-113
1.71817e-113
1.6834e-113
1.69397e-113
1.71932e-113
1.6999e-113
1.69285e-113
1.68019e-113
1.70533e-113
2.06591e-113
2.09168e-113
2.07469e-113
2.09512e-113
2.0437e-113
2.01376e-113
2.02091e-113
1.99531e-113
2.03109e-113
2.14416e-113
2.11443e-113
2.06287e-113
2.0629e-113
2.06835e-113
2.0464e-113
2.08433e-113
1.9974e-113
2.09553e-113
2.07503e-113
2.04543e-113
2.2637e-113
2.38738e-113
2.31653e-113
2.35688e-113
2.30113e-113
2.35023e-113
2.40754e-113
2.34117e-113
2.34769e-113
2.33908e-113
2.33575e-113
2.32766e-113
2.28459e-113
2.28622e-113
2.22625e-113
2.31122e-113
2.32961e-113
2.28223e-113
2.2679e-113
2.27929e-113
2.47814e-113
2.53065e-113
2.59559e-113
2.58834e-113
2.54252e-113
2.6176e-113
2.55536e-113
2.58857e-113
2.58024e-113
2.48593e-113
2.50296e-113
2.48288e-113
2.49942e-113
2.43391e-113
2.47007e-113
2.45884e-113
2.49069e-113
2.49802e-113
2.4895e-113
2.5184e-113
2.54243e-113
2.59648e-113
2.60854e-113
2.63803e-113
2.6003e-113
2.57002e-113
2.57755e-113
2.64019e-113
2.56024e-113
2.60468e-113
2.5389e-113
2.5722e-113
2.66177e-113
2.57601e-113
2.52402e-113
2.68346e-113
2.54617e-113
2.55478e-113
2.57837e-113
2.68715e-113
2.55894e-113
2.57277e-113
2.61542e-113
2.53305e-113
2.56172e-113
2.55537e-113
2.61513e-113
2.56972e-113
2.4883e-113
2.53242e-113
2.56423e-113
2.62336e-113
2.56195e-113
2.59209e-113
2.64034e-113
2.58563e-113
2.61701e-113
2.53672e-113
2.54402e-113
2.5558e-113
2.29262e-113
2.37635e-113
2.31908e-113
2.42467e-113
2.36752e-113
2.44341e-113
2.41246e-113
2.37116e-113
2.37947e-113
2.39089e-113
2.35085e-113
2.42545e-113
2.44154e-113
2.44925e-113
2.37671e-113
2.43364e-113
2.44587e-113
2.33058e-113
2.46404e-113
2.39698e-113
2.12373e-113
2.22282e-113
2.18278e-113
2.18499e-113
2.15572e-113
2.23002e-113
2.21803e-113
2.18414e-113
2.20654e-113
2.12812e-113
2.18046e-113
2.23654e-113
2.17002e-113
2.3036e-113
2.23596e-113
2.27973e-113
2.30695e-113
2.21404e-113
2.26057e-113
2.2709e-113
1.84703e-113
1.84304e-113
1.80545e-113
1.86076e-113
1.9009e-113
1.89116e-113
1.86865e-113
1.80107e-113
1.8791e-113
1.83927e-113
1.87429e-113
1.89381e-113
1.86703e-113
1.88031e-113
1.92849e-113
1.91247e-113
1.8823e-113
1.93405e-113
1.9128e-113
1.96415e-113
1.4501e-113
1.47087e-113
1.45639e-113
1.44431e-113
1.50247e-113
1.46302e-113
1.54842e-113
1.46181e-113
1.54671e-113
1.52077e-113
1.49261e-113
1.54772e-113
1.46627e-113
1.53987e-113
1.50115e-113
1.47852e-113
1.53741e-113
1.55231e-113
1.50513e-113
1.59147e-113
1.58771e-133
1.63999e-133
1.65423e-133
1.5921e-133
1.63875e-133
1.64455e-133
1.64652e-133
1.6213e-133
1.57958e-133
1.68134e-133
1.57698e-133
1.67397e-133
1.58315e-133
1.6501e-133
1.54974e-133
1.64872e-133
1.55107e-133
1.61565e-133
1.6465e-133
1.5449e-133
5.28462e-130
5.45327e-130
5.5029e-130
5.29256e-130
5.4513e-130
5.46565e-130
5.47198e-130
5.38751e-130
5.25463e-130
5.5881e-130
5.24456e-130
5.56643e-130
5.26346e-130
5.48495e-130
5.15419e-130
5.48358e-130
5.15923e-130
5.3709e-130
5.47297e-130
5.13733e-130
8.90534e-127
9.17996e-127
9.26663e-127
8.90632e-127
9.17988e-127
9.19455e-127
9.20529e-127
9.06235e-127
8.84948e-127
9.40057e-127
8.82998e-127
9.36964e-127
8.85855e-127
9.22846e-127
8.67742e-127
9.23224e-127
8.68862e-127
9.03806e-127
9.20861e-127
8.64944e-127
8.80481e-124
9.06647e-124
9.15444e-124
8.79269e-124
9.06923e-124
9.07341e-124
9.0846e-124
8.94299e-124
8.74419e-124
9.27653e-124
8.72241e-124
9.25215e-124
8.74694e-124
9.10845e-124
8.57055e-124
9.11872e-124
8.58596e-124
8.92265e-124
9.08945e-124
8.54494e-124
5.92719e-121
6.09618e-121
6.15591e-121
5.90898e-121
6.0994e-121
6.09385e-121
6.10234e-121
6.00728e-121
5.88242e-121
6.22981e-121
5.86591e-121
6.2185e-121
5.87925e-121
6.11844e-121
5.76192e-121
6.13052e-121
5.77748e-121
5.99595e-121
6.10648e-121
5.74836e-121
2.82785e-118
2.90487e-118
2.93303e-118
2.81384e-118
2.90678e-118
2.89948e-118
2.90436e-118
2.8594e-118
2.80465e-118
2.96386e-118
2.79584e-118
2.9614e-118
2.80037e-118
2.91184e-118
2.74485e-118
2.92045e-118
2.75596e-118
2.85511e-118
2.90668e-118
2.74132e-118
9.07001e-116
9.30449e-116
9.39031e-116
9.0051e-116
9.31005e-116
9.26799e-116
9.28823e-116
9.14678e-116
8.98955e-116
9.47206e-116
8.9579e-116
9.47626e-116
8.9647e-116
9.30995e-116
8.78672e-116
9.34887e-116
8.8411e-116
9.13625e-116
9.29625e-116
8.79207e-116
1.92407e-113
1.97091e-113
1.98703e-113
1.90523e-113
1.97136e-113
1.95738e-113
1.9633e-113
1.93436e-113
1.90581e-113
1.99994e-113
1.89824e-113
2.00423e-113
1.8975e-113
1.96698e-113
1.85935e-113
1.97832e-113
1.87706e-113
1.93282e-113
1.96508e-113
1.86644e-113
1.88287e-111
1.92556e-111
1.93721e-111
1.85821e-111
1.92416e-111
1.90364e-111
1.91224e-111
1.88583e-111
1.86407e-111
1.94419e-111
1.85557e-111
1.95317e-111
1.85179e-111
1.91402e-111
1.81331e-111
1.92933e-111
1.8404e-111
1.8849e-111
1.91383e-111
1.83008e-111
2.29908e-111
2.33371e-111
2.3022e-111
2.22407e-111
2.3093e-111
2.22613e-111
2.25701e-111
2.24902e-111
2.27482e-111
2.27691e-111
2.25467e-111
2.32587e-111
2.22807e-111
2.24349e-111
2.16802e-111
2.30209e-111
2.2922e-111
2.25356e-111
2.26645e-111
2.27939e-111
3.12819e-111
3.21291e-111
3.15844e-111
3.22335e-111
3.14339e-111
3.20203e-111
3.23729e-111
3.20631e-111
3.23284e-111
3.35794e-111
3.20483e-111
3.31873e-111
3.22826e-111
3.16372e-111
3.18189e-111
3.23029e-111
3.1939e-111
3.18057e-111
3.15796e-111
3.20486e-111
3.868e-111
3.91628e-111
3.8856e-111
3.92246e-111
3.8268e-111
3.76979e-111
3.78434e-111
3.73563e-111
3.80421e-111
4.01493e-111
3.95944e-111
3.86113e-111
3.86451e-111
3.87338e-111
3.83246e-111
3.90295e-111
3.73955e-111
3.92338e-111
3.88425e-111
3.83082e-111
4.24032e-111
4.46995e-111
4.3386e-111
4.41199e-111
4.30907e-111
4.40153e-111
4.51018e-111
4.3828e-111
4.3958e-111
4.3792e-111
4.37329e-111
4.35778e-111
4.27962e-111
4.28057e-111
4.16952e-111
4.32741e-111
4.36263e-111
4.27269e-111