/*--------------------------------*- C++ -*----------------------------------*\
| =========                 |                                                 |
| \\      /  F ield         | OpenFOAM: The Open Source CFD Toolbox           |
|  \\    /   O peration     | Version:  2212                                  |
|   \\  /    A nd           | Website:  www.openfoam.com                      |
|    \\/     M anipulation  |                                                 |
\*---------------------------------------------------------------------------*/
FoamFile
{
    version     2.0;
    format      ascii;
    arch        "LSB;label=32;scalar=64";
    class       volScalarField;
    location    "0.000123";
    object      p;
}
// * * * * * * * * * * * * * * * * * * * * * * * * * * * * * * * * * * * * * //

dimensions      [1 -1 -2 0 0 0 0];

internalField   nonuniform List<scalar> 
6888
(
496226
493801
485097
467909
446059
424622
423649
421760
419622
416617
414806
413686
413079
412907
412873
412998
413204
413465
413618
413849
499252
489669
465652
438150
420032
402213
401547
405037
411320
410576
410662
410750
410904
411439
411789
412139
412491
412874
413117
413351
428387
425457
421494
418028
400878
387889
373084
383320
402076
403038
406489
407756
409102
410035
410831
411489
412032
412575
412914
413202
392484
384949
379837
366855
358353
348878
340104
362157
388708
393916
401710
404027
406617
408238
409617
410640
411420
412140
412588
412964
377400
368158
361558
344439
338728
323227
325036
357768
377271
387580
396739
400446
404474
406777
408707
410032
411029
411882
412388
412814
373788
364232
356623
337965
330465
313105
320543
350967
368036
383260
392761
398232
403019
405722
408040
409569
410733
411665
412190
412618
373511
363838
356251
339981
329574
312031
318729
345958
365938
382667
391492
397805
402433
405315
407750
409378
410622
411568
412070
412455
378946
371656
363213
352069
341244
327122
333123
349579
367736
383075
391754
398103
402646
405478
407917
409504
410708
411577
412010
412340
387841
383785
375161
370202
357744
349773
354102
363126
375124
385813
393564
399187
403186
405953
408188
409710
410865
411701
412109
412360
397804
394263
387797
385051
374008
369230
374577
385488
389766
394109
398512
401992
404784
407105
408989
410325
411350
412070
412413
412538
408882
405556
402101
400902
391178
387130
387248
392620
399521
403580
405390
406924
408295
409564
410770
411681
412411
412909
413155
413110
420814
416335
412625
410763
404216
402704
402616
403330
404774
407749
409267
410309
411237
411952
412635
413155
413662
414080
414294
414114
431390
427547
425580
422630
416872
414904
414456
414014
413474
413288
413224
413442
413906
414220
414489
414738
415054
415269
415405
415199
439936
436868
435627
432493
427584
424182
422688
419996
418668
418028
417434
416912
416630
416477
416358
416357
416440
416481
416509
416263
445628
442996
441950
438421
436055
432280
429995
426535
423958
422133
420557
419763
419164
418578
418228
417922
417771
417504
417437
417196
448539
446163
445837
442375
440457
436614
434007
430483
427733
425593
423933
422872
421695
420738
420112
419539
418987
418519
418298
418085
449726
447448
447453
444327
442896
439149
436144
432594
429982
427995
426309
424919
423585
422551
421738
420955
420239
419648
419234
418935
449938
447759
447798
445035
443878
440356
437477
434148
431429
429347
427503
426065
424852
423894
423015
422170
421486
420823
420343
419887
449945
447865
447804
445176
444106
440778
438040
434814
432258
430181
428382
427018
425869
424862
423959
423245
422611
421979
421550
420992
449434
447890
447519
445154
444051
440826
438201
435084
432753
430829
429200
427921
426764
425755
424871
424185
423567
422970
422598
422059
448051
447336
446896
444506
443220
440447
438112
435134
433062
431304
429868
428682
427515
426596
425772
425033
424367
423817
423518
422992
446194
445825
445108
443680
442218
439668
437650
434993
433191
431515
430117
429066
428002
427168
426455
425797
425133
424597
424353
423886
445089
445191
444383
442964
441254
438856
436945
434670
433075
431517
430213
429210
428220
427468
426770
426237
425790
425258
425019
424640
444568
444822
443442
442221
440427
438290
436277
434272
432767
431383
430152
429205
428267
427552
426924
426415
426047
425613
425434
425084
444476
444721
443130
441815
439912
437931
435839
433908
432401
431142
430006
429110
428214
427507
426903
426417
426090
425693
425592
425382
444653
444921
443065
441651
439615
437640
435549
433601
432055
430827
429754
428893
428032
427350
426783
426316
426025
425672
425588
425388
444791
445249
443080
441628
439414
437368
435294
433312
431735
430471
429391
428555
427709
427018
426450
425989
425760
425459
425427
425331
444235
445475
442858
441480
439048
436942
434926
432943
431410
430064
428943
428096
427245
426566
425978
425451
425218
424959
424989
424969
443693
445677
442002
440928
438387
436337
434327
432470
430929
429592
428485
427526
426667
425990
425416
424850
424569
424277
424261
424367
441928
443007
439008
439502
437182
435664
433630
431915
430363
429035
427937
426932
426013
425250
424669
424171
423772
423475
423391
423471
439544
439539
437708
437964
436106
435022
432948
431240
429746
428372
427213
426175
425232
424407
423769
423259
422889
422599
422456
422483
438857
438103
437799
437297
435779
434403
432324
430525
428968
427574
426368
425253
424265
423407
422752
422230
421871
421612
421472
421502
438640
437575
439885
436952
436013
434007
431814
429865
428118
426626
425371
424224
423190
422286
421618
421088
420745
420536
420407
420516
438618
437184
440146
436105
436092
433891
431362
429245
427281
425608
424232
423040
421987
421068
420394
419866
419539
419362
419250
419488
438060
436929
437785
435871
435925
433418
431053
428586
426341
424464
422923
421664
420605
419684
419025
418533
418227
418064
417962
418314
437824
437289
436951
437767
436012
433231
430690
427870
425225
423110
421370
419991
418905
417989
417361
416912
416635
416517
416428
416865
437828
438546
437564
438706
436928
433794
430421
426992
423820
421373
419435
417903
416749
415831
415234
414848
414597
414575
414512
415044
438098
438973
439487
439838
439495
435929
430301
425785
421970
419107
416962
415313
414082
413132
412575
412260
412022
412199
412149
412714
438084
439006
439987
440378
440522
436347
429533
423985
419340
416034
413707
412002
410760
409773
409254
408928
408727
409215
409219
410080
436398
437087
437863
440372
439187
435214
426796
420118
414757
411475
409133
407488
406439
405724
405338
405202
405140
405772
405860
406803
431323
430359
429750
428507
426012
424448
417981
411659
406208
403647
402324
401534
401039
400668
400546
400738
400832
401538
401735
402819
420211
417023
412468
408706
400928
395725
391771
390542
391550
393299
393548
393515
393752
394138
394672
395492
395850
396698
396957
398188
398199
396443
389117
376155
372014
362837
364190
365414
369718
377073
379851
382987
385088
386857
388203
389329
390257
391241
391736
393108
345672
343600
339650
341619
335350
328276
330270
335702
349753
360955
366246
371336
374949
378174
380708
382614
384086
385401
386174
387702
321731
319725
317305
316336
312808
311638
308506
311961
326400
342105
350505
358893
364534
369311
372801
375514
377592
379397
380367
382091
312864
310008
307845
304628
300711
299411
295764
299004
315843
327798
338247
348615
355222
360950
365096
368599
371269
373554
374702
376576
310773
307385
304956
300000
295461
294486
290631
295152
307885
319335
330736
340853
347790
354060
358746
362818
365764
368395
369592
371540
310544
307049
304538
299125
294704
293104
289216
293486
303881
316638
326398
336226
343211
349752
354597
358760
361535
364385
365455
367361
314068
310235
307189
303040
299218
293191
290186
294522
304673
316976
326785
335936
342042
348292
352433
356553
358858
361805
362640
364331
325447
321749
317821
312518
308448
304195
300874
302696
308668
318701
327694
336473
342382
348568
352683
355920
358236
360482
361355
362560
340232
336391
332464
326890
321859
316025
312819
314334
318574
325219
331625
338857
343797
349501
353145
356193
358424
360623
361469
362166
356744
354639
352216
348191
343119
336569
333073
335111
338972
340087
342568
346014
349039
352569
355116
357504
359263
361101
361885
362384
374849
374742
374225
373280
370625
365047
361698
362630
365276
366474
364416
362366
361480
360645
361021
361896
362472
363299
363477
363556
395974
397895
399762
399642
398545
394379
389491
386228
383965
383870
383544
382352
379913
376029
372960
371354
369682
368912
367978
367260
408244
410109
412365
414463
415902
413083
410124
405043
395729
390416
386509
384190
383022
382143
381225
380511
379355
378429
376975
375255
413701
415320
417379
420183
423396
421653
418907
412849
406321
400451
394972
390452
387593
386012
384817
383764
383039
382780
382564
381593
416012
417068
418567
421184
424814
424020
420953
415058
408988
404015
399936
396307
393360
390633
388265
386775
385747
385433
385444
385150
416764
417406
417649
414841
415394
417735
417020
412663
407924
403208
399534
396345
393964
391890
390359
389294
388245
387323
386783
386387
397724
399265
398759
397934
399050
402506
402833
404143
399883
398634
396807
394880
393265
392084
391129
390254
389224
388053
387390
386892
375141
376018
377439
381734
383098
386186
386096
390811
390851
392155
391518
391655
391404
391188
390628
389952
389179
388659
388519
388045
365394
365589
366347
366792
367775
367017
368554
376732
381013
384822
386459
387995
388650
389083
389299
389447
389476
389511
389631
389311
362699
362328
361397
360219
360213
358593
362341
369968
375453
380228
383134
385430
387328
388460
389247
389683
390035
390200
390365
390134
362466
361927
360260
358440
356903
355275
359644
364821
372874
377221
381832
384582
387235
388836
389808
390451
390993
391141
391206
390940
367923
364768
361949
358747
356000
354593
358430
364938
373354
377709
382254
384956
387933
389871
391295
392178
392751
392888
392873
392752
379718
376532
373781
370069
365066
362100
361967
367601
375206
379778
384624
387248
390530
392555
394230
395446
396203
396640
397033
396591
395720
392688
388964
384107
378917
375724
375971
380030
384304
387530
391214
393561
396402
398006
399415
400484
401245
401558
401812
400866
415149
412820
409715
405656
400228
397351
398618
400770
401873
402863
403581
404002
404493
404792
405190
405546
405822
405615
405683
404372
431055
430616
429568
426744
423227
419711
418495
417024
415506
414926
414760
413714
413125
411984
411594
410670
410096
409184
409091
408155
443250
442926
443605
441609
439710
436566
434128
430673
427021
424672
422002
420130
418846
417701
416703
415490
414477
413422
412939
412210
451336
451828
452025
452147
453043
449729
445590
441672
437261
434055
430747
428097
425679
423757
422203
420740
419209
417726
416660
415557
458378
457522
456868
457269
458582
457595
453655
448260
443639
439456
435311
432071
429000
426642
424898
423591
422413
421477
420709
419293
464797
463866
462956
461793
461124
460270
459823
453505
448908
444681
440006
436118
432351
429415
427111
425396
424203
423135
422826
422182
466913
465576
465271
464682
463049
462793
462293
457987
452652
447765
442940
438559
434253
430867
428142
426052
424598
423381
423077
422578
466699
465356
465470
465419
464935
464822
464204
460625
454948
449248
443933
439256
434708
430962
428035
425723
424090
422586
422220
422024
462302
462965
463667
464718
466117
465662
464756
461584
455537
449127
443313
438193
433300
429192
425838
423187
421186
419670
419029
419114
455993
455992
454775
454504
457786
460847
460693
459691
453422
443563
436610
431709
427119
423115
419987
417489
415345
413763
413031
413691
455053
454646
452308
446189
439993
431543
428388
427459
424645
419381
417065
415590
413549
410329
408162
407079
405784
404822
403968
404115
395687
396403
394762
393574
392894
391614
384920
369784
369549
372512
374327
377023
387439
392421
392786
393861
394496
394514
394109
396109
331395
328515
322943
317976
312785
309198
308115
305000
305102
314995
333413
348403
360981
368767
372422
376478
379765
382857
384015
386457
309950
305546
298320
290197
281695
277739
276948
277107
278978
285712
300996
315620
328606
340173
349563
358021
365103
369611
371739
374831
307526
303000
295822
286571
275939
269596
265545
265941
269114
271557
281143
294221
307337
320993
332958
343952
351853
357539
359372
363396
319432
312539
304780
291187
280175
270046
264443
261876
265223
268630
274640
288323
300312
313802
324063
334633
341521
347235
349597
352772
340838
335052
329487
319566
309691
302876
295312
283855
277475
276164
279230
291248
302511
315433
325536
332898
337811
341837
343960
345890
383281
379184
372836
365491
358605
350511
343826
332970
322005
316240
314726
314976
317231
324002
329438
335119
339322
342662
344606
345720
417474
416557
414296
411998
405531
398733
391681
385103
382195
381038
381309
374858
361219
353024
350310
349920
348911
349915
350604
349855
433447
433576
433830
434142
432681
430685
426108
421996
417417
413920
411712
409984
409236
410579
405627
395621
381599
373793
370136
365594
439749
439809
440451
442035
443720
444775
442115
438236
433645
429411
425445
421845
418649
417707
418362
419118
421010
419032
415955
408190
441067
441183
441634
443887
446799
448850
449426
444472
440484
436610
433094
429676
426155
423239
420990
419528
418207
417281
417864
417290
439435
440172
441558
444328
447305
449062
451759
446664
442043
438540
435551
432454
428836
424762
420498
416518
413236
409969
408993
408470
434905
436792
437460
437424
438462
440057
444215
440918
439751
437229
435403
433300
431515
429617
428287
427354
426792
425203
424245
421740
421687
422783
424160
426217
427425
429682
427154
433971
430248
431321
431153
430856
429715
427851
426400
425053
424852
423405
423136
422416
415510
416382
416878
417322
417199
416915
418327
415750
415163
417842
418207
419567
420256
421142
421385
421410
421783
421524
421685
421623
413291
413787
413774
413364
412450
411043
410453
407478
411160
410514
411902
413253
414286
415286
415972
416448
417286
417911
418485
418931
412861
413213
413030
412196
410917
409275
407132
405431
406360
404875
409325
409897
411382
412282
413074
413675
414199
414613
415018
415539
413397
413585
413066
412104
410781
408819
406133
405185
403893
404242
407287
407294
409462
409786
410635
411221
411815
412245
412544
412932
413555
413698
413232
412307
411105
409880
408290
405337
403530
405024
406423
407355
408536
408521
409382
409706
410163
410494
410737
411031
411363
412205
412517
412201
411165
410337
410139
409288
408323
408881
408880
409425
409125
409018
408947
409057
409227
409404
409539
409765
403878
404780
405794
407407
409189
410313
410788
410990
410542
411731
410587
410549
409812
409869
409226
409263
409068
409156
409141
409243
400163
401041
401662
402524
403599
405597
409025
411341
411413
412958
412024
410705
410323
409653
409342
408973
408663
408690
408511
408702
398633
399560
400048
400410
400900
401670
402743
404233
407953
409259
411348
408721
409227
408661
408359
407888
407540
407240
407024
407044
398269
399260
399740
399918
400171
400450
400109
399759
400017
401104
401450
400250
401474
401371
402194
402722
403377
404012
404390
404765
403353
403620
403692
402563
401597
400651
399691
398754
397762
397685
396294
396931
396939
398200
398955
399363
400033
400464
400832
401230
407644
408061
407849
407626
406632
405183
403303
401154
398584
396770
396152
397027
396414
397620
397023
397973
397884
398312
398518
398903
409423
410007
409890
409758
408909
407133
405167
402934
400612
398234
397066
396525
396358
396465
395892
396183
395844
396106
396021
396377
409676
410393
410170
410015
409496
407591
405766
403597
401311
398763
397104
396667
397525
396352
395285
394462
394015
393812
393654
393858
361349
362845
363458
364820
367364
371973
377076
382481
387525
391941
395882
397694
397449
394586
393215
391192
390044
389357
388987
389439
339648
341307
342229
343716
345643
348297
351192
354713
358087
361516
364733
367025
368401
370015
370310
373957
376366
378412
379808
381275
331713
333234
333711
334776
335941
337485
339285
341726
344339
347156
350106
352366
354238
355510
356216
357889
359417
361179
362463
364382
329122
331057
331177
331816
332466
333489
335061
337627
340507
342785
344610
345776
347316
348542
349937
350491
351981
352764
353675
354566
329072
331255
331192
331615
332080
332856
334224
336938
340170
342374
343694
344604
345499
346207
346960
347702
349060
349644
350054
350272
351728
355680
355183
354453
354740
355641
358684
359823
357963
355933
353536
351324
350092
349546
349872
350292
350407
350773
350869
351012
406720
406781
407324
408476
410060
410256
403815
394214
384963
378040
372761
367890
363123
359912
358931
358479
357729
356797
355917
355230
474692
470272
464385
456929
448553
436854
421630
407190
397216
389824
384431
378830
372198
367540
366517
366893
366164
365635
365054
364500
501748
500484
491442
476832
459736
440019
422872
410134
402841
396579
388897
381618
374643
370263
368505
366547
365322
364632
364152
364087
333035
334700
338441
345369
355302
369844
390028
402966
405054
399465
389606
378354
369149
364462
360877
358497
359059
358899
360172
361055
246127
249489
253297
257247
261877
268279
277138
286832
293837
302913
318896
340967
352938
355333
355020
352841
350393
348287
347075
347374
213024
215711
217805
219743
221865
224312
227161
231741
237052
242958
251315
262126
273853
287558
302511
319013
338337
353041
362726
364566
201259
204142
205212
206259
207408
209001
210923
213422
215680
218018
220900
224788
229800
235666
242789
252282
263870
275093
291359
306052
199418
202841
203358
203993
204610
205831
207324
209197
210551
211330
212201
213403
215142
217128
219562
222042
227076
231129
239171
244769
212614
217593
216263
216451
215184
213837
212460
211609
210851
210975
211194
211503
212214
213190
215041
215896
218274
216310
220738
220568
258294
261344
259062
256370
253076
249639
245738
242114
238296
235048
232284
229398
226999
222826
221162
216926
218017
213862
217655
215521
320753
323919
321680
318391
314341
309618
304288
298521
292262
286059
279937
273515
266710
259957
253271
245414
241836
230301
231684
217588
394013
397109
393806
389619
384514
378890
372660
366064
359156
352407
345608
338457
330793
322247
313184
303393
293991
278548
275303
250501
478521
482312
478397
473050
466821
459897
452360
444402
436114
428071
420078
411842
402964
393490
383742
372774
362656
347357
341006
315582
562878
566532
562733
556915
550370
543401
535736
527638
519180
510878
502523
493932
484782
474799
464375
452584
442067
425365
417630
391957
642071
646270
642834
636960
630442
623528
615952
607996
599701
591553
583463
575143
566180
556479
546498
534971
524726
508096
500769
475458
716635
720259
715697
710727
704450
697900
690659
683036
675018
667122
659270
651263
642783
633598
624202
613053
603436
587635
580520
556037
781972
785519
781401
777120
771285
765211
758531
751511
744169
736953
729868
722626
714891
706523
697913
687686
678885
664263
658003
635919
843724
846189
841425
838168
832978
827599
821554
815088
808267
801595
795087
788463
781530
774056
766288
757015
748981
735966
730166
710421
895117
897762
893738
890470
886332
881707
876561
870968
865043
859189
853549
847821
841702
835128
828065
820021
812191
801079
795292
778220
933098
934526
932050
928648
925675
922100
917940
913340
908483
903850
899398
894848
890067
884762
879157
872645
866123
857344
851866
837785
959309
960113
958668
955860
953062
950604
947499
944150
940654
937462
934352
931245
927896
924300
920620
916173
912184
906396
902997
894401
977264
978429
976494
975983
973841
971788
969426
967044
964694
962488
960419
958365
956278
954145
951963
949659
947278
944831
942919
939936
993211
994000
992508
992471
990875
988787
986512
985580
984034
982630
981276
979946
978513
977041
975654
974226
972855
971465
970573
969131
1.00481e+06
1.0054e+06
1.00417e+06
1.00365e+06
1.00263e+06
1.00149e+06
1.0003e+06
999383
998335
997341
996400
995468
994578
993751
992977
992251
991490
990815
990249
989451
1.015e+06
1.01563e+06
1.01463e+06
1.01379e+06
1.01271e+06
1.01235e+06
1.01146e+06
1.01066e+06
1.00987e+06
1.0091e+06
1.00841e+06
1.0078e+06
1.00726e+06
1.00676e+06
1.00633e+06
1.00591e+06
1.00549e+06
1.00514e+06
1.00479e+06
1.00452e+06
1.02663e+06
1.02693e+06
1.02543e+06
1.02411e+06
1.02273e+06
1.02169e+06
1.02079e+06
1.01976e+06
1.01906e+06
1.01853e+06
1.01807e+06
1.01768e+06
1.01733e+06
1.01705e+06
1.01674e+06
1.01645e+06
1.01618e+06
1.01601e+06
1.01592e+06
1.0159e+06
1.03619e+06
1.03647e+06
1.03631e+06
1.03594e+06
1.03508e+06
1.03385e+06
1.03216e+06
1.03038e+06
1.02878e+06
1.02768e+06
1.027e+06
1.02647e+06
1.026e+06
1.02556e+06
1.02524e+06
1.02499e+06
1.0248e+06
1.02473e+06
1.02464e+06
1.02471e+06
1.03886e+06
1.03883e+06
1.03898e+06
1.0392e+06
1.03936e+06
1.03923e+06
1.03928e+06
1.03928e+06
1.0391e+06
1.0384e+06
1.03728e+06
1.03596e+06
1.03477e+06
1.03401e+06
1.03352e+06
1.03315e+06
1.03288e+06
1.03275e+06
1.03266e+06
1.03275e+06
1.04253e+06
1.04267e+06
1.04306e+06
1.04313e+06
1.0432e+06
1.04292e+06
1.04297e+06
1.04302e+06
1.04336e+06
1.04383e+06
1.04448e+06
1.04512e+06
1.04549e+06
1.04547e+06
1.04534e+06
1.04521e+06
1.04519e+06
1.04534e+06
1.0455e+06
1.04577e+06
1.04493e+06
1.04489e+06
1.04542e+06
1.04564e+06
1.04588e+06
1.04607e+06
1.04636e+06
1.04669e+06
1.04718e+06
1.04773e+06
1.04843e+06
1.04926e+06
1.05027e+06
1.05136e+06
1.05233e+06
1.05303e+06
1.05346e+06
1.05375e+06
1.05384e+06
1.05428e+06
1.04949e+06
1.04967e+06
1.04996e+06
1.05009e+06
1.0504e+06
1.05071e+06
1.05113e+06
1.05159e+06
1.05217e+06
1.05276e+06
1.05346e+06
1.05412e+06
1.05477e+06
1.05525e+06
1.05549e+06
1.05553e+06
1.05542e+06
1.05525e+06
1.05489e+06
1.0549e+06
1.05398e+06
1.05335e+06
1.05411e+06
1.05396e+06
1.0544e+06
1.05479e+06
1.05575e+06
1.05701e+06
1.05814e+06
1.05876e+06
1.05901e+06
1.05898e+06
1.0588e+06
1.05856e+06
1.05829e+06
1.058e+06
1.05765e+06
1.05746e+06
1.05722e+06
1.05705e+06
1.05849e+06
1.05828e+06
1.05855e+06
1.05878e+06
1.05942e+06
1.06061e+06
1.06154e+06
1.06131e+06
1.06085e+06
1.06036e+06
1.05991e+06
1.05954e+06
1.05921e+06
1.0589e+06
1.05862e+06
1.05848e+06
1.05827e+06
1.05832e+06
1.05848e+06
1.05872e+06
1.06306e+06
1.06269e+06
1.0633e+06
1.06331e+06
1.06402e+06
1.06344e+06
1.06246e+06
1.06154e+06
1.06097e+06
1.06052e+06
1.06017e+06
1.05987e+06
1.05961e+06
1.05936e+06
1.05918e+06
1.05914e+06
1.05916e+06
1.05935e+06
1.05948e+06
1.05958e+06
1.06721e+06
1.06712e+06
1.06717e+06
1.06656e+06
1.0654e+06
1.06395e+06
1.06298e+06
1.06228e+06
1.06173e+06
1.0612e+06
1.0608e+06
1.06043e+06
1.06015e+06
1.05996e+06
1.05987e+06
1.05992e+06
1.06e+06
1.06015e+06
1.06013e+06
1.06015e+06
1.07169e+06
1.07071e+06
1.06976e+06
1.068e+06
1.06617e+06
1.06467e+06
1.06376e+06
1.06307e+06
1.06246e+06
1.06192e+06
1.06151e+06
1.06122e+06
1.06106e+06
1.06104e+06
1.0611e+06
1.0612e+06
1.06123e+06
1.06126e+06
1.06122e+06
1.06126e+06
1.07412e+06
1.07257e+06
1.07101e+06
1.06925e+06
1.06805e+06
1.067e+06
1.06591e+06
1.06483e+06
1.06399e+06
1.06339e+06
1.06304e+06
1.06285e+06
1.06275e+06
1.06268e+06
1.06259e+06
1.06251e+06
1.0624e+06
1.06235e+06
1.06229e+06
1.0624e+06
1.07168e+06
1.07095e+06
1.06999e+06
1.06897e+06
1.06825e+06
1.06764e+06
1.06715e+06
1.06676e+06
1.0665e+06
1.06628e+06
1.06608e+06
1.06589e+06
1.06569e+06
1.06547e+06
1.06517e+06
1.06491e+06
1.06465e+06
1.06454e+06
1.06443e+06
1.06463e+06
1.06834e+06
1.06842e+06
1.06826e+06
1.06805e+06
1.06776e+06
1.06734e+06
1.06696e+06
1.06671e+06
1.06661e+06
1.06658e+06
1.06655e+06
1.06653e+06
1.06654e+06
1.0666e+06
1.06671e+06
1.0669e+06
1.06711e+06
1.06742e+06
1.06761e+06
1.06787e+06
1.06363e+06
1.0643e+06
1.06501e+06
1.0655e+06
1.06582e+06
1.06597e+06
1.06607e+06
1.06607e+06
1.06598e+06
1.06591e+06
1.06592e+06
1.06599e+06
1.06608e+06
1.06625e+06
1.06639e+06
1.06658e+06
1.06676e+06
1.06705e+06
1.06723e+06
1.06736e+06
1.06289e+06
1.06355e+06
1.06442e+06
1.06494e+06
1.06524e+06
1.06535e+06
1.06537e+06
1.06548e+06
1.06568e+06
1.06583e+06
1.06593e+06
1.06601e+06
1.06606e+06
1.06605e+06
1.06606e+06
1.06611e+06
1.066e+06
1.06582e+06
1.06545e+06
1.06495e+06
1.06451e+06
1.06459e+06
1.06525e+06
1.06572e+06
1.06608e+06
1.06628e+06
1.0664e+06
1.0664e+06
1.06635e+06
1.0663e+06
1.06624e+06
1.06618e+06
1.06601e+06
1.06576e+06
1.06539e+06
1.06501e+06
1.06455e+06
1.0642e+06
1.06398e+06
1.06386e+06
1.06469e+06
1.0647e+06
1.0654e+06
1.06592e+06
1.06651e+06
1.06698e+06
1.06733e+06
1.06745e+06
1.06738e+06
1.06717e+06
1.06684e+06
1.06646e+06
1.06603e+06
1.06564e+06
1.06528e+06
1.06498e+06
1.06475e+06
1.06467e+06
1.06464e+06
1.06468e+06
1.06483e+06
1.06477e+06
1.06545e+06
1.06583e+06
1.06628e+06
1.0666e+06
1.06688e+06
1.067e+06
1.067e+06
1.06687e+06
1.06664e+06
1.06638e+06
1.0661e+06
1.06597e+06
1.06592e+06
1.06605e+06
1.06623e+06
1.06645e+06
1.06654e+06
1.06678e+06
1.06484e+06
1.06478e+06
1.06531e+06
1.06559e+06
1.06595e+06
1.06615e+06
1.06626e+06
1.06626e+06
1.06619e+06
1.06608e+06
1.06598e+06
1.06597e+06
1.06603e+06
1.06615e+06
1.06633e+06
1.06653e+06
1.06668e+06
1.06689e+06
1.0671e+06
1.06726e+06
1.0648e+06
1.06456e+06
1.06501e+06
1.0651e+06
1.06533e+06
1.06546e+06
1.06553e+06
1.06544e+06
1.0653e+06
1.06521e+06
1.06523e+06
1.06534e+06
1.06551e+06
1.0657e+06
1.06579e+06
1.06589e+06
1.06596e+06
1.06603e+06
1.066e+06
1.06589e+06
1.06414e+06
1.06385e+06
1.06416e+06
1.06409e+06
1.06421e+06
1.0642e+06
1.06412e+06
1.06397e+06
1.06392e+06
1.06391e+06
1.06397e+06
1.06401e+06
1.06401e+06
1.06401e+06
1.06397e+06
1.06397e+06
1.0638e+06
1.06369e+06
1.06342e+06
1.06294e+06
1.06181e+06
1.06159e+06
1.06178e+06
1.06172e+06
1.06183e+06
1.06192e+06
1.06218e+06
1.06253e+06
1.06289e+06
1.06317e+06
1.06335e+06
1.06342e+06
1.06338e+06
1.06326e+06
1.06298e+06
1.0627e+06
1.06235e+06
1.06205e+06
1.06196e+06
1.06195e+06
1.06086e+06
1.06065e+06
1.06087e+06
1.06104e+06
1.06146e+06
1.06197e+06
1.06259e+06
1.06316e+06
1.06359e+06
1.06386e+06
1.064e+06
1.06404e+06
1.06398e+06
1.06386e+06
1.06367e+06
1.06353e+06
1.06341e+06
1.06336e+06
1.06324e+06
1.06318e+06
1.06252e+06
1.06233e+06
1.06256e+06
1.06267e+06
1.06295e+06
1.06314e+06
1.06335e+06
1.06354e+06
1.0637e+06
1.0638e+06
1.06385e+06
1.06385e+06
1.0638e+06
1.06378e+06
1.06381e+06
1.06397e+06
1.06415e+06
1.06432e+06
1.06453e+06
1.06477e+06
1.06489e+06
1.06446e+06
1.06422e+06
1.06374e+06
1.06347e+06
1.06326e+06
1.06323e+06
1.06324e+06
1.0632e+06
1.06311e+06
1.06302e+06
1.06297e+06
1.06294e+06
1.06305e+06
1.06316e+06
1.0633e+06
1.06345e+06
1.06366e+06
1.0638e+06
1.06373e+06
1.06426e+06
1.06381e+06
1.06344e+06
1.06306e+06
1.0629e+06
1.06282e+06
1.06275e+06
1.06241e+06
1.06205e+06
1.06176e+06
1.06153e+06
1.06139e+06
1.06131e+06
1.06134e+06
1.06143e+06
1.06165e+06
1.06182e+06
1.06193e+06
1.062e+06
1.06118e+06
1.06125e+06
1.06128e+06
1.06144e+06
1.06156e+06
1.06174e+06
1.06178e+06
1.06177e+06
1.06169e+06
1.06163e+06
1.06151e+06
1.06136e+06
1.06121e+06
1.061e+06
1.0608e+06
1.06055e+06
1.06034e+06
1.06001e+06
1.0595e+06
1.05913e+06
1.05851e+06
1.05906e+06
1.05915e+06
1.05946e+06
1.0597e+06
1.06005e+06
1.06047e+06
1.06111e+06
1.0616e+06
1.06186e+06
1.06203e+06
1.0621e+06
1.06206e+06
1.06191e+06
1.06167e+06
1.06134e+06
1.06091e+06
1.06035e+06
1.05966e+06
1.05909e+06
1.05896e+06
1.05979e+06
1.05971e+06
1.05988e+06
1.06e+06
1.06025e+06
1.06051e+06
1.06075e+06
1.06121e+06
1.06165e+06
1.06194e+06
1.06213e+06
1.06222e+06
1.06223e+06
1.06213e+06
1.06187e+06
1.06151e+06
1.06103e+06
1.0607e+06
1.06066e+06
1.06088e+06
1.06138e+06
1.06113e+06
1.06102e+06
1.06079e+06
1.06066e+06
1.06054e+06
1.06049e+06
1.06063e+06
1.06094e+06
1.06118e+06
1.0613e+06
1.06136e+06
1.06141e+06
1.06137e+06
1.06123e+06
1.06105e+06
1.06089e+06
1.0609e+06
1.06097e+06
1.06118e+06
1.06132e+06
1.06113e+06
1.06095e+06
1.06068e+06
1.0605e+06
1.06027e+06
1.06003e+06
1.0596e+06
1.05932e+06
1.05926e+06
1.0593e+06
1.05939e+06
1.05946e+06
1.05956e+06
1.05961e+06
1.05972e+06
1.05984e+06
1.05999e+06
1.06007e+06
1.06009e+06
1.05932e+06
1.05941e+06
1.05957e+06
1.05962e+06
1.05957e+06
1.0593e+06
1.059e+06
1.0588e+06
1.05848e+06
1.05806e+06
1.05771e+06
1.05743e+06
1.05721e+06
1.05713e+06
1.05714e+06
1.05734e+06
1.05758e+06
1.05788e+06
1.05802e+06
1.05803e+06
1.05627e+06
1.05644e+06
1.05688e+06
1.05729e+06
1.05792e+06
1.05827e+06
1.05856e+06
1.0586e+06
1.05853e+06
1.05833e+06
1.05805e+06
1.05775e+06
1.05744e+06
1.05717e+06
1.05696e+06
1.05688e+06
1.05685e+06
1.0569e+06
1.05687e+06
1.05673e+06
1.05632e+06
1.05617e+06
1.05625e+06
1.05636e+06
1.05675e+06
1.05736e+06
1.05773e+06
1.05793e+06
1.058e+06
1.05799e+06
1.05793e+06
1.05787e+06
1.05783e+06
1.05783e+06
1.05783e+06
1.05781e+06
1.0577e+06
1.05756e+06
1.05745e+06
1.05744e+06
1.05724e+06
1.05691e+06
1.05674e+06
1.05641e+06
1.05607e+06
1.05594e+06
1.05618e+06
1.0566e+06
1.05695e+06
1.05721e+06
1.05737e+06
1.05747e+06
1.05751e+06
1.05755e+06
1.05763e+06
1.05769e+06
1.05767e+06
1.05763e+06
1.05757e+06
1.05765e+06
1.05681e+06
1.05653e+06
1.05625e+06
1.0558e+06
1.05542e+06
1.05489e+06
1.05474e+06
1.05503e+06
1.05554e+06
1.05612e+06
1.05664e+06
1.05696e+06
1.05715e+06
1.05726e+06
1.05732e+06
1.05737e+06
1.05742e+06
1.05746e+06
1.05745e+06
1.05759e+06
1.05523e+06
1.05517e+06
1.05515e+06
1.0549e+06
1.05467e+06
1.05462e+06
1.05477e+06
1.05492e+06
1.05521e+06
1.05551e+06
1.05574e+06
1.056e+06
1.05623e+06
1.05638e+06
1.05646e+06
1.05648e+06
1.05655e+06
1.05663e+06
1.05661e+06
1.05674e+06
1.05317e+06
1.05324e+06
1.05357e+06
1.05371e+06
1.05409e+06
1.05459e+06
1.055e+06
1.05526e+06
1.05534e+06
1.05534e+06
1.05535e+06
1.05529e+06
1.05525e+06
1.05527e+06
1.05528e+06
1.05529e+06
1.05527e+06
1.05532e+06
1.05536e+06
1.05555e+06
1.05143e+06
1.05159e+06
1.05202e+06
1.05269e+06
1.05358e+06
1.05433e+06
1.05469e+06
1.0548e+06
1.0548e+06
1.05473e+06
1.05463e+06
1.0545e+06
1.05437e+06
1.05418e+06
1.05404e+06
1.054e+06
1.05405e+06
1.05423e+06
1.05438e+06
1.05454e+06
1.04993e+06
1.05053e+06
1.05141e+06
1.05224e+06
1.05304e+06
1.05356e+06
1.05379e+06
1.05375e+06
1.05364e+06
1.05349e+06
1.05332e+06
1.05317e+06
1.05306e+06
1.05302e+06
1.05308e+06
1.0531e+06
1.05319e+06
1.05332e+06
1.05345e+06
1.05357e+06
1.04956e+06
1.05024e+06
1.05107e+06
1.05177e+06
1.05218e+06
1.05234e+06
1.05244e+06
1.05239e+06
1.05231e+06
1.05217e+06
1.05208e+06
1.05207e+06
1.0521e+06
1.05213e+06
1.05225e+06
1.05238e+06