/*--------------------------------*- C++ -*----------------------------------*\
| =========                 |                                                 |
| \\      /  F ield         | OpenFOAM: The Open Source CFD Toolbox           |
|  \\    /   O peration     | Version:  2212                                  |
|   \\  /    A nd           | Website:  www.openfoam.com                      |
|    \\/     M anipulation  |                                                 |
\*---------------------------------------------------------------------------*/
FoamFile
{
    version     2.0;
    format      ascii;
    arch        "LSB;label=32;scalar=64";
    class       volScalarField;
    location    "0.00277";
    object      p;
}
// * * * * * * * * * * * * * * * * * * * * * * * * * * * * * * * * * * * * * //

dimensions      [1 -1 -2 0 0 0 0];

internalField   nonuniform List<scalar> 
2681
(
190.718
197.835
198.081
190.307
199.871
198.375
190.294
190.303
190.307
190.31
190.304
190.352
190.344
190.473
190.365
190.365
190.412
190.309
190.313
190.317
190.322
190.343
190.335
190.327
190.359
190.352
190.307
190.302
190.304
190.313
190.31
190.32
190.316
190.329
190.324
190.336
190.325
190.333
190.34
190.337
190.343
190.325
190.331
190.315
190.319
197.875
190.312
190.304
190.299
190.301
190.302
190.346
190.402
190.304
190.302
190.336
190.343
190.3
190.299
190.301
190.299
190.316
190.311
190.325
190.32
190.342
190.332
190.361
190.351
190.304
190.371
190.348
190.356
190.331
190.34
190.357
190.306
190.463
199.124
190.305
190.3
190.302
190.311
190.308
190.317
190.314
190.324
190.32
190.329
190.334
190.34
190.322
190.328
190.314
190.317
190.31
190.312
190.304
190.307
190.302
190.3
190.299
190.349
190.382
190.372
190.352
190.298
190.3
190.298
190.394
190.411
190.395
190.374
190.337
190.346
190.342
190.302
190.298
190.299
190.362
190.46
190.39
202.045
190.353
190.362
190.349
190.297
198.107
190.298
190.621
190.488
190.31
190.306
190.319
190.314
190.331
190.324
190.35
190.339
190.372
190.361
190.381
190.366
190.378
190.344
190.355
190.45
190.301
194.386
190.307
190.304
190.299
190.297
190.298
190.303
190.301
190.309
190.306
190.315
190.312
190.32
190.318
190.329
190.324
190.34
190.335
190.477
190.345
190.328
190.333
190.319
190.324
190.313
190.316
190.309
190.311
190.303
190.306
190.302
190.297
190.296
190.296
190.297
190.295
190.301
190.304
190.432
190.426
190.439
190.381
190.358
190.36
190.296
190.351
190.347
190.305
190.302
190.408
190.386
190.296
190.295
291.493
297.35
297.344
291.486
190.294
190.295
190.294
190.346
190.447
190.295
190.299
190.957
198.035
199.274
190.369
190.354
197.572
190.296
190.581
190.306
190.304
190.313
190.309
190.323
190.318
190.338
190.33
190.36
190.348
190.384
190.373
190.412
190.396
190.431
190.399
190.415
190.368
190.383
190.341
190.354
190.321
190.33
190.312
190.316
190.308
301.376
302.105
301.922
300.153
289.047
251.538
233.963
224.784
218.787
214.212
214.199
210.659
207.681
207.67
210.638
224.785
218.776
251.571
233.98
300.166
289.075
302.112
301.929
301.376
190.299
190.298
190.302
190.3
190.307
190.304
190.313
190.31
190.318
190.315
190.324
190.32
190.331
190.327
190.896
190.337
190.345
190.34
190.353
190.354
190.345
190.331
190.335
190.323
190.327
190.317
190.32
190.312
190.314
190.307
190.31
190.302
190.304
190.299
190.301
190.297
190.295
190.294
190.296
190.295
190.3
190.297
190.794
190.959
190.393
190.364
190.357
190.369
190.295
190.48
284.097
284.091
190.296
191.502
214.252
210.7
190.42
201.673
190.36
190.399
190.299
190.301
284.046
276.081
276.069
190.293
190.293
190.295
190.294
205.308
205.283
190.349
190.36
190.452
190.428
190.353
190.361
198.19
190.501
190.555
190.295
190.303
190.298
190.301
190.377
190.361
190.294
190.294
190.294
190.295
190.295
190.297
190.31
190.307
190.318
190.313
190.33
190.323
190.347
190.337
190.373
190.358
190.401
190.387
190.436
190.416
190.459
190.439
190.525
190.485
190.497
190.44
190.462
190.4
190.419
190.363
190.381
190.334
190.347
190.32
190.326
190.31
190.315
190.306
297.255
291.413
301.998
301.274
300.042
301.814
251.476
288.937
224.78
233.937
218.796
284.031
276.058
276.077
203.16
203.207
190.941
207.741
205.45
214.252
210.759
224.757
218.792
251.566
233.949
300.076
289.026
302.011
301.83
297.241
301.271
291.398
190.299
190.298
190.301
190.3
190.305
190.303
190.309
190.307
190.315
190.312
190.32
190.318
190.325
190.322
190.332
190.329
190.337
190.335
190.354
190.343
190.339
190.356
190.346
190.355
190.347
190.347
190.339
190.342
190.332
190.336
190.325
190.328
190.32
190.322
190.314
190.317
190.31
190.312
190.306
190.308
190.302
190.304
190.298
190.3
190.296
190.293
190.293
190.295
190.294
190.296
197.482
190.737
207.711
190.404
190.373
190.364
190.381
190.304
196.416
190.52
190.36
283.976
276.064
190.293
190.888
190.295
190.295
190.294
190.294
190.308
190.305
203.257
190.591
190.613
196.881
190.294
214.287
210.748
190.619
190.677
190.665
190.37
190.433
190.412
190.367
190.539
283.957
276.049
190.857
198.079
199.009
190.591
190.464
190.364
190.347
190.357
190.348
190.356
190.365
190.448
190.524
205.292
190.296
190.523
190.765
190.387
190.37
190.293
190.293
190.293
190.293
190.296
190.295
190.302
190.299
190.304
190.309
190.307
190.315
190.312
190.324
190.319
190.337
190.33
190.357
190.346
190.387
190.37
190.421
190.404
190.467
190.442
190.512
190.492
190.539
190.553
190.572
190.516
190.537
190.47
190.493
190.428
190.448
190.384
190.406
190.35
190.365
190.33
190.338
190.316
190.322
190.312
297.084
291.285
301.802
301.082
299.854
301.618
251.443
288.796
224.778
233.907
218.801
268.379
268.401
268.376
190.362
268.471
268.407
201.021
199.925
203.745
202.217
207.976
205.64
214.358
210.856
224.78
218.839
251.547
233.927
299.892
288.908
301.81
301.631
297.064
301.073
291.264
190.296
190.295
190.295
190.297
190.296
190.299
190.298
190.301
190.3
190.304
190.302
190.307
190.305
190.312
190.309
190.316
190.315
190.32
190.318
190.325
190.323
190.328
190.327
190.333
190.33
190.348
190.339
190.336
190.34
190.341
190.349
190.34
190.34
190.339
190.34
190.334
190.337
190.328
190.331
190.325
190.327
190.321
190.323
190.317
190.319
190.312
190.314
190.309
190.31
190.305
190.307
190.301
190.302
190.298
190.299
190.295
190.296
190.294
190.295
190.293
190.294
190.292
190.293
190.293
190.292
190.293
190.293
190.297
190.295
190.303
190.3
197.034
201.526
190.334
190.699
207.787
191.041
190.688
190.83
190.818
190.763
190.382
190.415
190.35
190.349
190.394
190.373
190.558
190.623
190.67
190.295
190.801
190.637
190.581
268.46
198.022
198.888
190.295
190.295
190.296
197.397
190.622
190.444
190.376
190.358
190.359
190.373
190.425
190.497
190.3
190.303
203.167
190.818
193.088
197.353
190.368
190.783
198.729
198.482
190.554
201.029
190.475
190.367
190.366
190.456
190.301
190.307
190.304
261.74
268.69
262.044
205.35
190.293
190.497
190.522
190.72
190.314
190.323
190.398
190.35
190.382
190.584
190.293
190.294
190.292
190.292
190.292
190.292
190.295
190.293
190.298
190.307
190.312
190.309
190.32
190.316
190.33
190.325
190.345
190.336
190.368
190.355
190.401
190.383
190.444
190.422
190.499
190.471
190.553
190.526
190.582
190.799
190.61
190.524
190.552
190.475
190.498
190.439
190.456
190.4
190.42
190.364
190.38
190.339
190.351
190.322
190.33
190.312
190.317
190.309
283.947
276.167
296.836
291.133
301.468
300.775
299.521
301.281
251.369
288.534
224.736
233.845
214.297
218.772
207.855
210.781
261.604
268.675
262.032
261.734
261.541
261.536
261.608
200.906
199.761
203.794
202.226
208.046
205.75
214.343
210.89
224.753
218.82
251.467
233.894
299.549
288.622
301.469
301.287
296.812
300.76
283.925
291.108
276.148
190.296
190.296
190.297
190.296
190.298
190.297
190.3
190.299
190.302
190.301
190.305
190.303
190.309
190.307
190.312
190.311
190.316
190.314
190.319
190.318
190.322
190.321
190.325
190.323
190.329
190.327
190.331
190.33
190.331
190.331
190.329
190.331
190.324
190.327
190.321
190.322
190.319
190.32
190.317
190.318
190.314
190.315
190.31
190.312
190.307
190.309
190.303
190.305
190.299
190.301
190.298
190.299
190.296
190.297
190.295
190.295
190.292
190.292
190.292
190.292
190.293
190.292
190.296
190.294
190.298
190.295
194.099
196.415
190.295
190.731
190.653
190.74
190.425
190.39
190.358
190.36
190.382
190.407
190.513
190.317
190.305
190.666
190.939
197.565
190.678
201.365
190.295
190.787
190.68
268.948
262.363
196.668
198.808
190.372
196.967
190.746
190.584
199.641
199.746
190.454
190.38
190.368
190.371
190.378
190.435
190.467
190.294
190.295
190.309
190.307
190.3
190.302
268.961
262.372
256.418
256.772
190.736
203.256
190.292
190.293
205.451
190.305
190.521
190.296
190.686
190.325
190.407
190.359
190.393
190.535
190.292
190.293
190.291
190.292
190.291
190.291
190.294
190.293
190.299
190.296
190.303
190.301
190.304
190.309
190.307
190.314
190.311
190.323
190.318
190.335
190.329
190.352
190.342
190.377
190.363
190.415
190.395
190.467
190.439
190.528
190.498
190.585
190.555
190.625
190.791
190.6
190.64
190.52
190.559
190.458
190.485
190.426
190.44
190.399
190.413
190.37
190.384
190.345
190.357
190.327
190.335
190.316
190.321
190.312
284.061
276.362
296.705
291.13
301.14
300.524
299.152
300.942
251.215
288.183
224.694
233.771
214.289
218.744
207.892
210.777
256.227
256.763
256.414
256.125
256.123
256.23
200.815
199.532
203.836
202.158
208.09
205.75
214.362
210.894
224.723
218.797
251.274
233.811
299.157
288.229
301.128
300.934
296.68
300.504
284.041
291.107
276.346
200.159
190.296
190.296
190.296
190.296
190.297
190.297
190.299
190.298
190.301
190.3
190.303
190.302
190.306
190.305
190.309
190.308
190.311
190.31
190.314
190.313
190.316
190.315
190.319
190.317
190.322
190.321
190.323
190.323
190.323
190.323
190.321
190.322
190.318
190.32
190.316
190.317
190.314
190.315
190.313
190.314
190.31
190.311
190.308
190.309
190.304
190.306
190.301
190.302
190.299
190.3
190.298
190.298
190.296
190.297
190.295
190.295
190.295
190.291
190.292
190.291
190.291
190.292
190.291
190.295
190.293
190.297
190.844
190.878
257.119
196.09
196.432
197.11
190.908
190.735
190.378
196.379
190.698
190.616
190.683
200.28
191.1
199.06
190.431
190.395
190.369
190.373
190.39
190.417
190.478
190.318
190.295
190.301
190.303
190.693
197.761
190.74
190.699
190.304
257.127
190.769
190.719
201.369
190.294
190.935
203.36
205.512
190.384
196.839
190.696
190.546
191.016
190.455
190.383
190.444
252.627
252.979
195.819
190.487
191.076
190.303
190.384
195.59
195.931
190.654
190.31
191.042
194.657
190.412
190.371
190.402
190.496
190.295
190.294
190.294
190.292
190.293
190.291
190.291
190.291
190.291
190.294
190.292
190.297
190.295
190.299
190.306
190.304
190.311
190.308
190.317
190.314
190.325
190.32
190.339
190.332
190.357
190.347
190.385
190.369
190.429
190.405
190.49
190.457
190.551
190.522
190.611
190.578
190.653
190.818
190.619
190.658
190.528
190.575
190.447
190.483
190.406
190.421
190.387
190.395
190.368
190.378
190.347
190.357
190.329
190.337
190.319
190.323
190.312
190.315
190.306
190.309
269.534
257.546
262.877
284.503
276.935
296.728
291.365
300.716
300.278
298.587
300.486
250.79
287.514
224.604
233.619
214.245
218.681
207.87
210.736
190.818
252.03
252.257
251.902
251.902
252.26
252.032
252.987
252.634
200.737
199.452
203.732
202.059
208.005
205.667
214.302
210.831
224.64
218.731
250.84
233.658
298.587
287.545
300.701
300.474
296.705
300.258
284.484
291.344
269.521
276.919
257.538
262.867
190.295
190.295
190.295
190.907
190.295
190.293
190.294
190.318
190.296
190.295
190.296
190.296
190.297
190.297
190.298
190.298
190.3
190.299
190.302
190.301
190.304
190.303
190.307
190.305
190.308
190.308
190.31
190.309
190.312
190.311
190.314
190.313
190.317
190.316
190.317
190.317
190.317
190.317
190.316
190.316
190.314
190.315
190.312
190.313
190.311
190.311
190.309
190.31
190.307
190.308
190.304
190.306
190.302
190.303
190.3
190.301
190.299
190.299
190.297
190.298
190.296
190.296
190.296
190.296
190.296
190.296
190.295
190.295
190.292
190.293
190.291
190.291
190.29
190.29
190.291
190.291
190.294
190.292
190.298
190.296
190.302
190.3
197.617
197.395
196.143
196.764
197.918
198.539
190.753
203.502
205.521
190.391
196.122
190.652
190.575
190.634
191.075
190.296
191.209
191.077
201.597
190.435
190.399
190.384
190.388
190.398
190.426
190.453
190.487
190.295
190.964
190.304
253.293
253.286
193.636
195.539
195.286
198.39
190.503
190.459
190.303
190.295
190.406
190.854
190.679
192.058
192.39
192.466
192.099
195.144
203.554
190.566
190.398
195.567
190.611
190.572
191.135
191.135
197.217
196.64
190.296
195.973
201.916
201.787
196.401
190.416
190.386
190.411
190.467
190.293
190.294
190.291
190.292
190.29
190.291
190.291
190.291
190.293
190.292
190.296
190.294
190.3
190.298
190.301
190.308
190.306
190.313
190.31
190.319
190.316
190.328
190.323
190.341
190.334
190.361
190.35
190.392
190.375
190.44
190.414
190.508
190.473
190.57
190.542
190.622
190.593
190.703
190.663
190.739
190.709
190.763
190.847
190.639
190.671
190.559
190.601
190.471
190.514
190.407
190.434
190.38
190.39
190.365
190.373
190.347
190.356
190.331
190.339
190.321
190.325
190.313
190.317
190.308
190.31
190.306
253.414
257.761
263.145
269.865
277.275
284.832
291.676
296.975
300.347
300.659
300.387
298.308
286.854
250.088
233.412
224.5
218.623
214.216
210.717
207.871
205.525
203.593
201.98
200.69
199.631
198.817
197.514
190.795
196.119
250.137
249.818
249.455
249.074
248.818
248.674
248.674
248.819
249.076
249.461
249.826
250.143
250.31
191.33
199.636
200.764
202.064
203.722
205.628
207.963
210.763
214.241
218.643
224.518
233.435
250.131
286.875
298.305
300.373
300.643
300.328
296.953
291.656
284.814
277.258
269.851
263.134
257.752
253.406
250.303
195.294
194.981
196.987
190.494
190.487
191.7
191.6
190.592
190.525
190.467
191.472
190.307
192.89
190.35
193.904
191.296
191.147
197.217
191.194
192.777
192.056
200.184
198.836
200.619
195.68
194.811
191.786
192.886
192.493
192.16
190.84
190.437
190.406
190.401
190.405
190.46
190.435
197.537
196.972
196.4
195.856
195.324
194.795
190.354
190.676
198.892
190.297
191.104
191.295
190.304
190.302
190.301
190.299
190.297
190.295
190.293
190.292
190.291
190.29
190.29
190.29
190.29
190.291
190.291
190.292
190.293
190.294
190.294
190.295
190.295
190.295
190.296
190.296
190.296
190.296
190.296
190.296
190.296
190.297
190.298
190.298
190.299
190.299
190.3
190.3
190.301
190.302
190.303
190.305
190.305
190.306
190.307
190.308
190.308
190.308
190.309
190.31
190.311
190.312
190.312
190.312
190.312
190.313
190.313
190.312
190.311
190.31
190.309
190.309
190.308
190.307
190.307
190.306
190.305
190.304
190.303
190.302
190.301
190.301
190.3
190.299
190.299
190.298
190.298
190.297
190.297
190.297
190.296
190.296
190.296
190.296
248.842
249.037
253.537
250.447
190.297
194.729
191.035
190.296
190.296
190.876
190.628
190.294
190.294
190.293
190.292
190.291
190.291
190.29
190.29
190.29
190.29
190.29
190.291
190.292
190.294
190.296
190.301
190.3
190.298
190.306
190.307
190.309
190.312
190.315
190.319
190.323
190.328
190.334
190.341
190.349
190.358
190.367
190.377
190.388
190.407
190.436
190.476
190.522
190.567
190.605
190.635
190.661
190.692
190.736
190.911
190.804
190.746
191.044
190.785
190.72
190.67
190.628
190.604
190.586
190.559
190.523
190.485
190.451
190.422
190.399
190.38
190.365
190.353
190.344
190.336
190.33
190.326
190.322
190.319
190.315
190.313
190.309
190.311
195.535
190.302
190.301
190.299
190.297
190.295
190.293
190.292
190.291
190.291
190.29
190.29
190.291
190.291
190.292
190.293
190.294
190.295
190.295
190.301
190.296
190.296
190.296
190.296
190.296
190.296
190.296
190.296
190.296
190.297
190.297
190.298
190.298
190.299
190.3
190.3
190.3
190.301
190.301
190.302
190.303
190.304
190.305
190.306
190.306
190.306
190.306
190.307
190.308
190.308
190.308
190.309
190.309
190.308
190.308
190.308
190.308
190.307
190.307
190.306
190.306
190.305
190.305
190.304
190.304
190.302
190.301
190.301
190.3
190.3
190.299
190.299
190.299
190.298
190.298
190.298
190.298
190.297
190.297
190.297
190.297
190.297
190.297
190.297
190.62
191.224
190.296
190.296
194.25
194.173
194.685
195.189
195.609
196.052
196.564
197.106
197.67
198.699
199.601
200.653
201.971
203.598
205.509
207.829
210.629
214.091
218.462
224.27
232.987
248.65
285.461
297.95
300.484
300.85
300.724
297.75
292.576
285.729
277.948
270.295
253.526
257.966
263.389
190.447
190.42
190.403
190.419
191.376
190.957
191.886
192.967
192.53
192.239
192.014
191.854
194.444
191.002
199.595
200.458
248.847
248.531
248.165
247.777
247.508
247.354
247.355
247.508
247.775
248.16
248.524
190.898
199.939
192.328
192.715
191.353
190.724
190.516
190.303
194.094
194.624
195.094
191.553
196.036
196.47
198.119
198.785
199.602
200.655
201.955
203.557
205.483
207.812
210.637
214.103
218.469
224.267
232.979
248.628
285.443
297.955
300.498
300.867
300.743
297.773
292.598
285.749
277.967
270.312
263.405
257.979
196.979
196.716
191.219
191.216
191.477
193.215
190.531
190.554
190.305
190.341
190.303
249.043
250.439
190.477
193.862
191.372
197.883
249.204
249.212
190.296
195.129
193.279
191.563
190.572
190.442
190.414
191.832
190.296
190.309
191.117
190.306
193.643
190.499
191.425
191.289
197.347
258.078
250.555
253.697
270.414
263.452
285.841
278.084
297.978
292.685
301.349
301.142
298.333
300.988
247.515
284.506
224.06
232.543
214.038
218.356
207.794
210.601
203.535
205.464
200.624
201.922
198.716
199.547
197.474
198.051
196.403
196.935
195.482
195.936
194.509
195.028
193.529
193.965
192.688
193.091
192.033
192.314
191.711
245.895
246.399
246.177
245.192
245.56
244.759
244.917
244.915
244.758
245.563
245.192
246.182
245.901
246.619
249.322
246.626
246.403
199.398
190.78
190.304
191.695
191.485
190.422
190.43
249.311
253.68
250.542
263.429
258.058
278.058
270.39
292.658
285.815
301.121
297.952
300.972
301.33
284.515
298.323
232.539
247.521
218.333
224.049
210.555
214.002
205.438
207.764
201.911
203.54
199.49
200.603
198.121
198.628
196.831
190.854
195.933
196.365
195.14
195.55
194.092
194.633
193.151
193.552
192.341
192.684
192.049
190.297
190.296
190.298
190.297
190.298
190.298
190.298
190.298
190.298
190.298
190.298
190.298
190.299
190.298
190.299
190.299
190.299
190.299
190.3
190.3
190.301
190.301
190.303
190.302
190.303
190.303
190.304
190.304
190.304
190.304
190.305
190.305
190.305
190.305
190.305
190.305
190.305
190.305
190.305
190.305
190.304
190.305
190.304
190.304
190.303
190.303
190.301
190.302
190.3
190.301
190.3
190.3
190.299
190.299
190.298
190.298
190.297
190.297
190.297
190.297
190.297
190.297
190.297
190.297
190.297
190.297
190.301
190.296
190.932
190.295
190.295
190.293
190.294
190.291
190.292
190.29
190.291
190.29
190.29
190.291
190.291
190.294
190.292
190.298
190.296
190.301
190.3
191.704
190.302
191.743
190.312
190.31
190.317
190.314
190.324
190.321
190.333
190.328
190.346
190.339
190.369
190.356
190.405
190.385
190.458
190.429
190.529
190.492
190.591
190.564
190.632
190.609
190.747
190.682
190.933
190.835
191.146
190.844
190.974
190.709
190.765
190.64
190.671
190.575
190.609
190.495
190.536
190.422
190.455
190.383
190.398
190.362
190.371
190.344
190.352
190.331
190.337
190.321
190.326
190.314
190.317
190.309
190.311
190.307
190.309
190.307
190.301
190.302
190.297
190.299
190.293
190.295
190.291
190.292
190.29
190.29
190.29
190.29
190.291
190.29
190.292
190.291
190.294
190.293
195.762
190.295
191.424
190.296
246.825
246.834
190.313
193.44
190.296
190.296
190.295
190.294
190.293
190.292
190.291
190.291
190.29
190.29
190.29
190.289
190.29
190.29
190.291
190.293
190.294
190.297
190.299
190.301
190.302
190.304
190.313
195.19
190.308
190.311
190.313
190.316
190.319
190.323
190.328
190.333
190.34
190.347
190.356
190.365
190.375
190.387
190.402
190.423
190.448
190.475
190.501
190.527
190.559
190.602
190.651
190.705
190.773
190.871
191.049
191.188
191.269
191.03
190.935
190.803
190.709
190.643
190.607
190.585
190.56
190.528
190.495
190.463
190.434
190.41
190.389
190.373
190.36
190.35
190.341
190.335
190.329
190.325
190.321
190.318
190.315
190.313
190.311
190.309
193.603
190.304
190.302
190.302
190.299
190.297
190.295
190.293
190.292
190.291
190.29
190.29
190.29
190.29
190.29
190.291
190.292
190.293
190.294
190.295
190.296
190.962
190.297
190.297
190.298
190.298
190.298
190.298
190.298
190.297
190.297
190.297
190.298
190.298
190.298
190.298
190.299
190.299
190.299
190.3
190.3
190.3
190.301
190.301
190.301
190.302
190.302
190.303
190.303
190.303
190.303
190.303
190.303
190.303
190.303
190.303
190.303
190.303
190.302
190.302
190.302
190.302
190.302
190.302
190.302
190.302
190.302
190.301
190.301
190.3
190.3
190.3
190.299
190.299
190.299
190.299
190.298
190.298
190.298
190.298
190.297
190.298
190.298
190.298
190.298
190.298
190.298
190.298
190.297
190.297
190.296
190.296
191.642
191.846
192.2
192.567
193.068
193.638
194.243
194.812
195.332
195.719
196.066
196.432
196.833
197.293
197.867
198.478
199.299
200.386
201.712
203.332
205.225
207.53
210.303
213.701
217.923
223.449
231.639
245.716
278.697
299.858
303.009
303.183
302.246
298.966
293.734
286.699
278.776
270.855
263.67
258.229
253.894
250.699
249.504
246.95
190.439
190.427
194.254
191.575
190.306
193.762
198.726
247.56
247.448
247.231
247.043
246.78
246.441
246.058
245.765
245.599
245.599
245.767
246.058
246.438
246.774
247.038
247.227
247.443
247.553
247.592
191.005
191.872
192.147
192.496
192.903
193.547
194.17
194.745
195.202
195.609
196.009
196.46
196.938
197.436
197.959
198.539
199.311
200.384
201.69
203.308
205.247
207.57
210.354
213.736
217.94
223.453
231.638
245.71
278.677
299.869
303.031
303.207
302.275
298.997
293.764
286.727
278.801
270.877
263.69
258.245
253.908
250.71
249.514
246.958
247.6
191.448
191.304
190.425
190.445
198.333
191.781
191.384
194.699
190.305
190.462
190.836
191.414
190.297
190.512
190.296
190.307
191.199
197.259
190.297
190.295
191.737
190.305
190.747
190.695
198.305
190.355
190.88
190.734
197.501
190.549
190.295
190.499
190.478
190.483
198.317
190.304
190.321
190.373
201.119
190.295
190.87
197.605
198.913
190.749
190.308
198.222
190.307
190.447
190.303
191.565
190.303
191.97
190.392
195.622
193.33
198.018
191.379
190.295
193.195
199.034
190.787
198.058
190.624
190.353
190.295
190.348
190.296
190.482
190.306
190.318
190.342
)
;

boundaryField
{
    wall
    {
        type            zeroGradient;
    }
    outlet
    {
        type            inletOutlet;
        inletValue      uniform 1e-05;
        value           nonuniform List<scalar> 
20
(
247.56
247.448
247.231
247.043
246.78
246.441
246.058
245.765
245.599
245.599
245.767
246.058
246.438
246.774
247.038
247.227
247.443
247.553
247.592
247.6
)
;
    }
    frontAndBackPlanes
    {
        type            empty;
    }
}


// ************************************************************************* //
