/*--------------------------------*- C++ -*----------------------------------*\
| =========                 |                                                 |
| \\      /  F ield         | OpenFOAM: The Open Source CFD Toolbox           |
|  \\    /   O peration     | Version:  2212                                  |
|   \\  /    A nd           | Website:  www.openfoam.com                      |
|    \\/     M anipulation  |                                                 |
\*---------------------------------------------------------------------------*/
FoamFile
{
    version     2.0;
    format      ascii;
    arch        "LSB;label=32;scalar=64";
    class       volScalarField;
    location    "0.0147";
    object      p;
}
// * * * * * * * * * * * * * * * * * * * * * * * * * * * * * * * * * * * * * //

dimensions      [1 -1 -2 0 0 0 0];

internalField   nonuniform List<scalar> 
2308
(
590.807
595.275
601.858
594.151
600.985
596.51
599.585
601.742
601.619
620.763
619.741
615.595
610.589
605.181
600.298
596.557
594.175
593.065
593.99
595.829
599.063
603.584
608.937
614.111
617.762
619.502
619.81
618.786
598.507
592.948
617.137
615.346
613.596
612.043
610.869
610.206
610.174
610.733
611.775
613.246
614.899
616.556
618.064
619.298
620.194
620.957
619.582
617.803
615.789
613.742
611.861
610.351
609.396
608.987
609.258
610.179
611.596
613.356
615.294
617.239
619.044
620.468
621.338
621.011
619.433
616.269
611.643
606.319
601.271
597.187
594.38
620.712
621.784
593.707
595.111
597.691
601.638
606.431
611.403
615.391
617.826
618.62
618.076
616.87
615.417
614.007
612.801
611.979
611.649
611.863
612.524
613.589
614.859
616.12
617.215
618.071
618.683
619.12
592.691
619.448
592.401
592.89
622.554
621.401
619.613
617.429
615.09
612.831
610.872
609.429
608.588
608.336
608.8
609.885
611.434
613.268
615.26
617.244
619.048
620.483
621.48
621.549
620.248
617.204
612.7
607.364
602.138
597.751
594.636
602.523
595.223
594.365
594.975
593.597
593.712
594.663
596.51
599.71
603.976
608.624
612.793
615.7
617.094
617.143
616.448
615.522
614.612
613.887
613.492
613.519
613.918
614.658
615.562
616.475
617.184
617.602
617.757
617.786
617.89
618.278
619.059
619.762
620.858
622.003
601.558
622.981
602.839
603.25
592.181
601.499
600.636
593.028
592.906
620.073
620.003
620.651
621.703
622.795
623.678
623.687
623.035
621.619
619.536
617.105
614.604
612.281
610.357
609.041
608.323
608.22
608.803
609.953
611.524
613.335
615.242
617.131
618.874
620.309
621.33
621.57
620.449
617.743
613.482
608.235
602.92
598.323
594.965
596.001
593.041
599.798
602.75
602.141
600.846
599.12
597.222
595.537
594.355
593.961
594.458
595.654
597.986
601.55
605.758
609.904
613.227
615.266
616.051
616.009
615.703
615.414
615.257
615.325
615.651
616.212
616.864
617.449
617.833
617.892
617.623
617.169
616.774
616.817
617.573
619.079
621.035
612.325
601.967
606.018
595.42
594.402
602.205
592.058
594.963
624.231
624.108
623.309
621.737
619.505
616.957
614.426
612.143
610.326
609.157
608.558
608.57
609.204
610.34
611.835
613.524
615.271
617
618.567
619.895
620.828
621.148
620.293
617.845
613.914
608.89
603.612
598.944
595.419
593.042
601.295
603.496
603.593
603.223
602.192
600.537
598.663
596.776
595.277
594.41
594.361
595.076
596.595
599.376
603.06
607.018
610.603
613.253
614.835
615.604
616.014
616.382
616.806
617.302
617.87
618.427
618.849
619.016
618.752
618.188
617.315
616.402
615.922
616.259
617.636
620.011
622.876
627.225
624.198
622.006
620.939
620.901
621.618
622.661
623.638
624.322
607.062
609.404
608.05
601.02
592.918
609.612
593.316
592.13
600.286
599.871
594.751
599.231
604.635
604.389
603.573
602.007
600.111
598.116
596.29
594.994
594.391
594.631
595.591
597.579
600.706
604.398
608.093
611.263
613.631
615.265
616.455
617.465
618.386
619.196
619.852
620.27
620.342
620
619.223
618.059
616.747
615.725
615.483
616.424
618.614
621.827
625.123
630.187
626.125
625.415
623.684
621.727
620.218
619.624
619.88
620.69
621.562
622.135
622.273
624.63
624.464
624.315
623.467
621.855
619.589
617.037
614.566
612.39
610.719
609.709
609.231
609.327
609.956
610.999
612.329
613.813
615.319
616.779
618.133
619.203
619.991
620.309
619.671
617.634
614.022
609.321
604.22
599.573
595.97
601.34
592.35
591.979
597.79
598.926
598.086
599.365
600.748
602.624
604.14
604.96
605.697
605.607
604.935
603.478
601.557
599.431
597.371
595.656
594.586
594.327
594.904
596.252
598.804
602.198
605.915
609.49
612.563
615.024
616.964
618.531
619.803
620.75
621.329
621.491
621.163
620.361
619.124
617.586
616.152
615.354
615.717
617.472
620.481
624.09
627.045
631.883
625.705
635.031
635.441
634.053
630.835
627.134
624.308
623.097
622.764
623.123
623.79
624.421
624.52
624.722
622.249
624.71
624.507
624.401
623.571
621.992
619.78
617.308
614.972
612.976
611.497
610.638
610.266
610.406
610.981
611.874
612.978
614.183
615.39
616.529
617.578
618.386
618.953
619.201
618.681
616.983
613.853
609.529
604.722
600.196
596.559
593.706
600.201
601.668
608.934
592.674
601.291
599.111
597.354
592.702
601.106
596.661
592.081
597.213
595.901
623.348
625.771
626.942
626.324
624.234
621.546
618.809
617.218
617.042
617.518
617.991
618.118
618.093
619.492
624.649
622.236
624.583
624.453
624.397
623.616
622.11
620.029
617.72
615.583
613.804
612.531
611.818
611.55
611.716
612.21
612.923
613.766
614.652
615.516
616.294
616.987
617.503
617.796
617.912
617.434
615.994
613.324
609.511
605.076
600.758
597.132
594.159
600.45
598.65
594.611
599.562
606.603
606.79
606.228
604.905
602.961
600.725
598.444
596.415
594.939
594.249
594.472
595.418
597.424
600.538
604.213
608.068
611.705
614.861
617.432
619.43
620.883
621.791
622.16
621.986
621.3
620.145
618.594
616.955
615.742
615.53
616.72
619.289
622.773
626.123
627.996
631.493
624.844
633.975
621.872
602.234
600.477
611.578
592.64
595.059
592.308
619.943
624.093
622.214
624.309
624.324
624.273
623.532
622.122
620.233
618.165
616.28
614.759
613.713
613.145
612.986
613.174
613.581
614.107
614.678
615.237
615.743
616.142
616.447
616.617
616.64
616.552
616.029
614.767
612.491
609.198
605.233
601.202
597.679
594.623
599.085
596.846
638.253
638.034
637.563
636.196
633.729
630.957
628.583
627.622
628.218
627.633
626.836
627.08
626.763
629.045
629.888
629.952
601.103
593.729
595.3
597.367
599.868
597.543
596.818
601.848
594.41
607.512
607.893
607.421
606.223
604.266
601.958
599.507
597.226
595.444
594.42
594.321
595.027
596.613
599.468
603.063
607.054
611.065
614.715
617.742
620.028
621.526
622.27
622.336
621.835
620.877
619.456
617.808
616.36
615.668
616.278
618.32
621.515
624.882
627.269
627.775
629.461
624.095
633.513
621.852
636.61
610.804
593.028
593.65
603.07
598.816
601.07
598.239
611.836
612.354
595.817
592.731
595.071
596.779
607.573
595.113
611.802
626.664
620.882
623.675
622.457
624.045
624.093
623.934
623.179
621.895
620.276
618.534
616.967
615.741
614.93
614.518
614.482
614.7
615.037
615.393
615.708
615.958
616.111
616.129
616.041
615.847
615.551
615.193
614.581
613.403
611.424
608.59
605.114
601.484
598.241
595.721
599.854
589.226
589.039
611.388
611.178
613.37
615.896
619.138
621.949
621.962
619.075
614.244
609.934
608.528
608.867
609.423
609.808
608.67
617.681
617.25
618.555
600.398
591.691
593.354
595.513
598.022
600.675
596.56
595.163
607.264
608.574
608.939
608.499
607.383
605.433
603.089
600.534
598.087
596.089
594.826
594.483
595.013
596.335
598.972
602.458
606.464
610.633
614.543
617.826
620.232
621.665
622.202
621.974
621.248
620.06
618.523
617
615.96
615.998
617.463
620.263
623.65
626.261
627.283
626.522
626.926
623.798
633.871
622.998
634.939
611.455
601.673
593.386
590.717
604.159
604.332
604.045
592.581
596.846
602.036
599.409
612.118
605.063
595.631
593.499
594.965
598.422
611.233
610.158
596.467
598.678
601.546
604.722
607.742
610.207
611.987
613.169
613.945
614.609
615.25
615.835
616.313
616.647
616.81
616.835
616.739
616.512
616.211
615.944
615.849
616.078
616.653
617.551
618.73
620.062
621.323
622.44
623.277
623.745
623.951
623.063
623.98
622.04
625.292
620.977
609.572
615.429
624.404
633.122
638.734
643.52
642.726
638.895
635.982
634.64
635.282
637.045
635.961
633.336
634.879
635
640.972
641.955
643.323
639.995
633.823
600.352
593.726
603.593
612.163
612.021
611.908
611.751
611.54
610.797
609.364
607.57
594.775
609.298
603.711
603.468
604.514
604.61
604.972
604.98
592.902
602.153
612.395
590.05
591.654
593.741
596.092
598.487
602.717
600.468
606.292
608.222
609.441
609.807
609.417
608.359
606.44
604.092
601.5
598.975
596.855
595.443
594.933
595.333
596.512
598.967
602.303
606.195
610.294
614.187
617.478
619.865
621.216
621.628
621.265
620.434
619.13
617.65
616.393
615.904
616.71
618.945
622.239
625.298
626.707
626.182
624.347
624.752
624.023
633.681
625.537
632.74
610.973
609.043
605.409
604.323
603.04
609.133
602.326
592.885
598.998
601.033
609.536
600.49
597.368
603.236
604.697
605.414
604.804
608.592
605.568
611.205
606.213
594.181
601.279
602.865
608.464
610.279
611.278
596.81
598.844
601.363
604.119
606.735
608.919
610.594
611.85
612.868
613.88
614.884
615.857
616.696
617.355
617.801
618.016
618.053
617.935
617.627
617.282
617.048
617.07
617.403
617.965
618.709
619.559
620.405
621.324
622.305
623.271
624.097
624.017
625.067
623.237
624.904
621.862
630.853
596.749
594.512
592.291
590.351
588.845
587.98
592.267
598.814
593.894
603.836
603.545
605.654
608.072
606.285
605.721
593.386
610.034
594.583
602.083
600.749
611.276
611.406
612.091
587.693
581.817
582.47
584.55
590.783
596.941
599.017
604
609.207
609.208
603.988
594.967
589.624
589.397
591.872
592.583
591.758
589.378
599.882
617.156
604.627
613.721
614.903
611.361
611.465
611.569
611.638
611.654
611.597
604.758
593.184
602.512
601.677
599.709
595.247
602.587
607.931
598.528
597.994
606.7
604.469
608.246
593.135
609.755
611.193
601.886
603.258
605.197
607.215
608.957
610.097
610.49
610.148
609.132
607.269
604.952
602.386
599.863
597.707
596.225
595.612
595.927
597.038
599.33
602.464
606.125
609.961
613.612
616.719
618.995
620.316
620.744
620.405
619.612
618.36
617.077
616.186
616.277
617.756
620.568
623.923
626.239
626.269
624.166
621.724
622.566
625.345
631.738
628.105
630.54
609.635
605.937
581.461
606.884
607.718
608.795
603.822
606.822
606.163
612.59
596.058
600.373
610.663
599.065
605.455
597.765
595.634
593.417
591.287
589.427
587.96
587.08
586.752
587.848
586.914
595.4
599.253
594.977
601.979
595.203
595.906
597.081
598.823
601.002
603.38
605.666
607.646
609.289
610.679
611.999
613.366
614.751
616.091
617.262
618.188
618.831
619.2
619.29
619.199
618.862
618.418
618.038
617.856
617.936
618.188
618.492
618.838
619.246
619.953
621.114
622.688
624.369
625.088
626.278
624.375
624.944
621.425
625.596
607.946
607.494
609.685
610.956
611.46
600.682
607.873
598.777
600.191
601.799
607.285
605.109
606.433
592.362
599.797
594.202
593.478
602.674
602.229
598.44
596.698
603.518
606.399
589.264
596.33
593.08
608.414
596.911
607.775
607.648
606.811
605.569
607.185
594.103
597.31
595.719
597.89
591.892
593.656
596.575
600.434
598.696
609.634
609.794
609.957
610.15
610.389
610.618
610.808
610.944
610.995
601.092
593.405
603.378
600.042
600.021
608.56
595.522
603.938
605.939
607.866
609.497
610.586
610.994
610.682
609.698
607.911
605.665
603.176
600.717
598.592
597.1
596.438
596.694
597.761
599.899
602.791
606.129
609.576
612.837
615.643
617.776
619.135
619.712
619.577
618.982
617.957
616.953
616.458
617.049
619.008
622.097
625.113
626.478
624.795
621.748
619.347
620.884
625.164
630.363
629.554
629.335
608.132
606.241
577.381
598.052
610.065
620.071
633.562
641.802
648.422
657.478
663.891
663.528
656.832
655.502
655.123
654.475
653.911
656.862
657.618
662.815
663.024
667.329
673.178
677.931
678.689
657.404
653.312
631.039
600.347
606.563
587.61
588.468
607.313
599.661
609.454
612.253
596.08
593.911
597.295
594.988
592.725
590.616
588.797
587.372
586.521
586.229
586.459
587.253
590.104
588.793
588.541
593.822
602.583
597.396
604.871
591.116
592.089
608.428
590.268
607.658
606.394
606.449
595.555
594.513
596.304
605.643
604.109
602.387
600.716
599.186
597.926
597.045
595.793
611.067
605.124
603.633
606.572
609.036
610.541
611.199
610.919
599.385
594.332
611.351
601.705
607.948
608.011
608.094
608.233
608.39
608.603
608.881
609.17
609.448
609.707
609.915
610.012
607.577
597.711
595.509
592.724
594.999
610.411
601.812
602.043
604.282
606.367
608.28
609.853
610.92
611.329
611.038
610.078
608.375
606.223
603.842
601.487
599.436
597.973
597.303
597.512
598.537
600.522
603.154
606.13
609.142
611.965
614.438
616.431
617.873
618.685
618.909
618.622
617.958
617.283
617.136
618.074
620.297
623.366
625.831
625.939
622.891
619.179
617.322
619.342
624.5
629.854
630.122
627.678
616.166
607.86
581.024
584.228
528.243
503.115
505.681
499.934
498.535
505.838
542.233
564.059
561.486
565.445
573.726
568.453
561.903
559.073
557.307
554.078
556.421
558.723
553.071
539.885
538.348
542.804
544.426
563.044
587.169
558.822
627.929
622.756
615.709
624.437
624.025
625.623
625.84
627.189
626.375
624.563
621.995
619.831
618.514
618.027
618.032
618.165
618.234
618.265
618.414
618.768
619.294
619.855
620.268
620.402
620.295
619.848
619.058
617.929
616.48
614.807
613.05
611.329
609.698
608.137
606.48
604.64
602.619
600.561
598.691
597.195
596.171
595.583
595.385
595.345
595.437
606.83
595.632
604.093
595.476
595.486
597.118
595.373
597.938
590.791
593.74
594.503
600.901
601.304
597.069
599.06
604.698
601.26
589.832
592.699
589.597
607.377
606.49
604.811
606.973
605.352
604.125
606.491
595.725
604.469
606.059
606.984
591.046
593.692
591.618
602.856
597.977
601.25
594.109
588.908
587.356
586.365
586.013
586.259
587.079
588.464
590.245
592.316
594.571
596.884
595.841
596.1
595.319
595.762
596.391
597.228
598.362
599.807
601.47
603.262
604.992
595.806
597.625
610.045
611.351
612.24
612.658
598.682
606.011
599.763
604.542
596.319
595.705
595.573
602.683
605.764
608.393
610.094
610.864
610.735
610.011
598.186
606.138
595.201
595.446
595.559
595.697
595.738
595.714
595.769
595.948
596.398
597.245
598.516
600.125
601.927
603.757
605.511
607.201
608.944
610.856
612.894
614.975
616.928
618.596
619.878
620.763
621.241
621.328
621.118
620.591
619.905
619.243
618.75
618.436
618.181
617.804
617.285
616.912
617.22
618.616
621.258
624.533
626.961
627.637
626.723
626.343
626.41
626.491
620.918
626.674
664.338
606.518
603.392
617.36
669.336
733.983
758.128
760.262
740.863
722.424
708.136
711.209
722.216
718.427
709.98
704.623
701.025
699.602
703.626
712.425
721.281
730.931
735.296
737.049
737.411
743.648
749.105
729.309
683.323
659.174
562.541
607.34
606.565
606.395
606.304
606.301
606.436
606.65
606.954
607.299
607.674
608.082
608.48
608.798
608.991
610.995
609.379
607.965
606.808
600.094
602.363
604.576
606.65
608.527
610.07
611.119
611.524
611.246
610.31
608.688
606.631
604.36
602.115
600.152
598.734
598.066
598.244
599.221
601.053
603.439
606.089
608.718
611.16
613.338
615.208
616.729
617.814
618.438
618.526
618.255
617.9
618.02
619.142
621.446
624.32
626.245
625.007
620.983
616.969
615.521
617.868
623.51
629.463
630.55
629.352
624.582
614.692
597.952
602.223
640.183
508.623
593.979
590.957
603.175
599.148
597.289
599.58
594.648
595.149
595.166
599.711
598.575
597.479
601.51
595.21
595.506
596.047
596.804
597.848
599.199
600.791
602.551
604.354
612.528
593.104
608.535
609.982
611.263
612.202
596.553
589.937
587.811
586.503
586.003
586.224
587.049
588.425
590.189
592.207
594.378
594.912
599.853
598.38
600.996
592.845
592.394
605.592
605.079
594.974
595.061
595.215
595.429
595.647
595.831
595.941
595.974
596.021
596.154
596.515
597.226
598.327
599.744
601.376
603.089
604.801
606.546
608.442
610.565
612.857
615.177
617.334
619.164
620.556
621.496
621.975
622.026
621.73
621.092
620.291
619.513
618.913
618.485
618.071
617.472
616.695
616.068
616.226
617.596
620.604
624.26
627.022
627.614
626.587
625.793
625.67
627.127
624.935
616.505
596.609
565.52
598.223
601.887
605.176
607.82
609.665
610.504
610.474
609.991
609.082
596.174
597.341
601.502
595.865
601.955
597.303
596.009
611.106
609.54
608.025
607.119
601.76
592.591
605.205
604.714
604.295
604.031
603.92
603.973
604.161
604.471
604.864
605.333
605.873
606.432
607.017
607.659
608.367
609.562
20.7477
22.6265
20.3217
23.1137
23.9197
23.3847
23.463
24.9072
25.5489
25.1274
23.9999
23.7143
23.702
23.8756
23.8187
24.1594
24.8931
25.8767
26.5979
26.8682
27.227
28.1646
28.2196
27.7225
25.8047
24.4315
22.7387
23.1443
21.5546
26.9986
600.663
602.74
604.834
606.839
608.666
610.185
611.22
611.625
611.351
610.428
608.87
606.888
604.705
602.551
600.664
599.29
598.628
598.755
599.676
601.371
603.576
606.002
608.38
610.562
612.522
614.304
615.91
617.236
618.18
618.614
618.64
618.538
618.81
619.988
622.258
624.985
626.169
624.11
619.537
615.337
614.053
616.559
622.409
628.406
629.776
628.77
626.367
623.205
611.747
602.48
612.434
547.995
27.5915
603.559
594.386
599.445
598.516
596.099
625.734
571.686
596.325
596.932
28.8245
3429.89
3427.93
2985.31
3279.22
3102.2
3244.01
3064.29
3242.67
3172.77
3276.14
3234.77
3269.24
3283.01
3313.96
3293.35
3318.67
3320.86
3258.01
3275.22
3202.79
3188.31
3264.26
3195.07
3322.95
3264.79
3352.02
3216.78
3435
3103.5
577.217
32.9468
3236.87
3011.77
600.454
556.198
624.56
616.146
628.733
627.172
627.527
629.527
615.635
621.426
614.461
613.083
623.462
618.773
625.113
625.835
620.405
622.586
618.93
619.249
618.706
618.91
616.968
618.076
613.824
615.503
610.239
612.077
605.939
608.203
601.463
603.597
598.996
599.859
599.576
598.901
602.765
600.925
607.009
604.872
610.477
608.949
611.664
611.394
610.206
611.244
606.904
608.701
602.934
604.959
598.81
600.883
594.512
596.67
590.359
592.381
587.184
588.585
586.037
586.295
588
586.568
593.567
590.441
601.3
597.366
607.364
604.822
610.187
609.354
610.023
610.15
610.355
608.206
608.689
607.294
607.687
606.583
606.922
606.062
606.298
605.773
605.897
605.852
605.768
606.341
606.02
607.042
606.933
608.993
606.118
609.015
610.638
607.591
609.039
608.039
607.223
611.37
609.556
612.135
612.125
609.699
611.067
606.841
608.179
603.86
605.447
600.402
602.124
597.596
598.857
595.951
596.632
595.201
595.48
594.902
595.004
595.155
594.969
595.689
595.423
596.049
595.923
596.129
596.095
596.558
596.236
598.175
597.191
601.054
599.485
604.429
602.726
608.203
606.215
612.876
610.441
617.596
615.331
620.962
619.525
622.381
621.9
622.061
622.417
620.484
621.356
618.95
619.629
617.948
618.45
616.335
617.235
615.593
615.571
620.075
617.04
626.596
623.742
626.492
627.356
625.162
625.702
622.279
626.167
619.015
610.011
611.03
601.28
595.4
2767.19
599.369
2614.08
610.669
611.558
611.747
611.64
611.875
611.908
611.97
611.96
593.819
608.105
598.324
596.935
601.902
594.506
594.092
593.708
601.926
601.452
601.927
602.31
602.009
602.398
602.868
602.583
602.957
603.586
603.141
603.578
607.643
597.185
610.722
604.537
608.655
597.025
606.106
607.473
603.835
601.901
595.397
594.335
593.24
591.477
595.552
595.672
595.17
612.098
595.466
612.146
594.739
603.572
609.328
598.005
608.902
594.601
592.883
594.05
593.519
601.92
600.622
611.19
611.219
591.391
598.549
595.025
605.947
609.018
604.693
600.455
607.477
595.016
594.741
594.929
597.753
592.559
610.265
601.859
595.292
598.067
618.378
620.529
596.291
)
;

boundaryField
{
    wall
    {
        type            zeroGradient;
    }
    outlet
    {
        type            fixedValue;
        value           uniform 1e-05;
    }
    inlet
    {
        type            fixedValue;
        value           uniform 612;
    }
    frontAndBackPlanes
    {
        type            empty;
    }
}


// ************************************************************************* //
