/*--------------------------------*- C++ -*----------------------------------*\
| =========                 |                                                 |
| \\      /  F ield         | OpenFOAM: The Open Source CFD Toolbox           |
|  \\    /   O peration     | Version:  2212                                  |
|   \\  /    A nd           | Website:  www.openfoam.com                      |
|    \\/     M anipulation  |                                                 |
\*---------------------------------------------------------------------------*/
FoamFile
{
    version     2.0;
    format      ascii;
    arch        "LSB;label=32;scalar=64";
    class       volVectorField;
    location    "0.000234";
    object      U;
}
// * * * * * * * * * * * * * * * * * * * * * * * * * * * * * * * * * * * * * //

dimensions      [0 1 -1 0 0 0 0];

internalField   nonuniform List<vector> 
34861
(
(-6.21152e-12 -0.000473775 0.370661)
(-3.66218e-12 0.00236354 0.577254)
(2.81661e-12 0.00101214 0.649583)
(1.16121e-12 -0.000192998 0.738489)
(4.70954e-12 -0.000538063 0.799165)
(-3.76673e-12 -0.000426773 0.825702)
(-3.55816e-13 -7.77888e-05 0.833888)
(8.70497e-12 0.000399288 0.825759)
(1.3695e-12 0.000701027 0.80688)
(-7.94517e-12 0.000601571 0.776757)
(-1.10091e-12 0.000685792 0.744238)
(-5.0386e-13 0.00103892 0.7072)
(1.01125e-12 0.00113294 0.660552)
(2.91637e-12 0.00120624 0.61129)
(-8.83765e-12 0.00114112 0.557621)
(-5.21031e-12 0.000380617 0.497795)
(-6.93269e-13 0.00053164 0.432104)
(3.99431e-12 0.000241548 0.365132)
(-2.31512e-12 0.000927959 0.292489)
(-4.45754e-12 0.00138993 0.215518)
(8.16972e-12 0.00150069 0.129873)
(5.87133e-12 0.00154133 0.0332479)
(7.38082e-12 0.00187063 -0.0705995)
(-4.309e-13 0.00149473 -0.183734)
(7.13507e-12 -0.00060824 -0.308648)
(2.32656e-13 -0.00187898 -0.43926)
(8.46346e-12 -0.00274566 -0.570677)
(-5.24858e-13 -0.00110172 -0.700559)
(6.51107e-12 0.000611933 -0.827555)
(-6.35878e-12 0.00112352 -0.956053)
(-4.61988e-12 0.000725922 -1.08823)
(-4.60821e-13 -0.000147148 -1.2235)
(-4.08969e-12 -0.000200258 -1.36441)
(1.03426e-12 0.000364108 -1.51008)
(1.51193e-12 0.000795571 -1.65972)
(2.16603e-12 0.00160338 -1.81808)
(-3.59993e-12 0.00177694 -1.97918)
(-1.027e-12 -0.00183802 -2.14532)
(-2.47719e-12 -0.00285564 -2.31011)
(2.32783e-13 -0.00490472 -2.4758)
(-1.58177e-12 -0.00437671 -2.64552)
(-1.55274e-12 -0.00172464 -2.81479)
(-7.19912e-12 0.000746848 -2.98312)
(5.06075e-12 0.00151621 -3.14884)
(-7.09103e-13 0.00154407 -3.317)
(2.32563e-12 0.000942535 -3.48773)
(9.37442e-13 0.000196781 -3.66502)
(-3.45166e-12 0.000105227 -3.84087)
(-3.31004e-12 -0.000830755 -4.02216)
(2.29421e-12 0.000490764 -4.1919)
(4.64812e-12 -0.00404026 -4.36354)
(1.91466e-12 -0.00205564 -4.50384)
(6.12085e-13 -0.00348813 -4.61001)
(5.82565e-12 -0.00333327 -4.70103)
(1.69893e-13 -0.00355493 -4.75898)
(5.25586e-12 -0.00204924 -4.78919)
(-3.40955e-12 -0.00229226 -4.78113)
(6.11534e-14 -0.0033833 -4.72646)
(7.11436e-13 -0.00355628 -4.65033)
(-1.26425e-12 -0.00136044 -4.54397)
(-1.7642e-12 -0.0084185 -4.40752)
(-6.54575e-12 -0.0036514 -4.23767)
(-2.23297e-12 -0.00508614 -4.0365)
(8.94628e-14 -0.00214673 -3.83156)
(-5.87047e-12 0.000225649 -3.60822)
(-3.86277e-12 -0.000237872 -3.38402)
(-1.0926e-12 -0.00285911 -3.14236)
(6.47782e-13 -0.00389284 -2.91666)
(3.26517e-12 0.000819696 -2.70951)
(-9.77575e-13 0.00203219 -2.52688)
(-7.57436e-13 0.00580373 -2.36801)
(-5.02496e-12 -0.00542942 -2.2097)
(9.07659e-13 -0.0107248 -2.10564)
(-1.01219e-12 -0.0110736 -1.97909)
(-2.71289e-12 -0.016572 -1.91704)
(-2.91104e-13 -0.0205391 -1.64283)
(-4.78149e-12 -0.0318847 -1.09018)
(-7.11246e-13 -0.0225321 0.009222)
(2.43138e-12 -0.127502 0.620911)
(5.37493e-12 -0.00751329 0.235833)
(-1.76255e-09 -73.2646 229.102)
(3.58212e-09 -52.5557 166.503)
(2.49214e-09 -44.4328 141.084)
(6.14375e-09 -36.0881 113.707)
(4.61096e-09 -30.1408 95.2615)
(2.25141e-10 -25.5859 80.1945)
(-1.5024e-09 -21.7554 68.439)
(-7.42534e-10 -18.7201 58.5505)
(-3.20804e-10 -16.2521 50.8166)
(1.33846e-10 -14.1452 44.0361)
(2.4951e-10 -12.4417 38.6768)
(8.18907e-11 -10.9636 33.8842)
(-2.39014e-11 -9.77952 30.1121)
(-4.57387e-11 -8.71506 26.7109)
(-1.02603e-11 -7.81199 23.891)
(6.50481e-11 -6.97957 21.3477)
(1.12063e-11 -6.1827 18.9477)
(-8.76897e-12 -5.52333 16.913)
(-1.89624e-11 -4.92956 15.0901)
(1.37678e-11 -4.43771 13.5281)
(6.70286e-12 -3.98815 12.181)
(3.87694e-12 -3.62403 11.0108)
(2.58865e-11 -3.28468 9.93328)
(-3.1484e-11 -3.02766 9.18221)
(1.50443e-11 -2.7211 8.21757)
(-3.35596e-11 -2.53032 7.63833)
(7.50665e-11 -2.27524 6.86339)
(-7.32153e-11 -2.10593 6.34308)
(5.10905e-11 -1.9221 5.77584)
(-4.18655e-11 -1.78049 5.34219)
(4.65322e-11 -1.647 4.93165)
(-3.67506e-11 -1.51887 4.54616)
(2.03376e-11 -1.41188 4.21961)
(-9.21629e-12 -1.31523 3.93075)
(-1.51072e-12 -1.22285 3.64736)
(-3.06107e-12 -1.13702 3.39159)
(1.07495e-11 -1.06105 3.16007)
(3.60528e-13 -0.995932 2.96508)
(7.55847e-12 -0.935007 2.77912)
(-1.56274e-11 -0.877622 2.61039)
(4.9191e-12 -0.828918 2.45992)
(-4.77819e-12 -0.779316 2.31035)
(-1.43001e-12 -0.739346 2.19283)
(-8.91728e-12 -0.701298 2.07349)
(-1.87961e-12 -0.672686 1.985)
(-2.65408e-12 -0.651396 1.91828)
(-4.61537e-12 -0.636868 1.86807)
(-5.94281e-12 -0.61749 1.804)
(-9.45164e-12 -0.57101 1.69052)
(-5.66505e-12 -0.425091 1.33636)
(2.41929e-09 14.8812 282.715)
(-3.79199e-09 37.8235 248.261)
(-9.97528e-09 61.7573 352.284)
(-7.14555e-09 59.2136 371.479)
(-1.74156e-09 56.5457 374.526)
(2.15375e-10 56.4353 368.838)
(1.39813e-09 55.6087 353.692)
(1.8536e-09 53.1083 333.924)
(1.92942e-09 48.3372 308.076)
(1.54316e-09 42.1409 271.55)
(9.14881e-10 37.1067 231.201)
(5.20191e-10 32.0289 197.14)
(3.31615e-10 28.4486 172.903)
(1.12861e-10 25.8454 154.862)
(-5.20329e-11 23.7147 140.619)
(-1.88153e-10 22.1117 130.187)
(-2.32309e-10 20.6534 120.433)
(-3.49959e-10 18.8773 110.488)
(-2.38974e-10 18.4033 106.631)
(-2.12694e-10 16.1511 96.5519)
(-1.70541e-10 15.863 91.9652)
(-1.19633e-10 14.3705 85.0695)
(-2.48044e-11 13.4635 78.9489)
(-1.44287e-11 13.169 76.8315)
(2.57384e-11 11.9742 70.0972)
(5.64021e-11 11.3987 67.1431)
(6.19452e-11 11.0357 63.9141)
(7.30279e-11 10.1818 59.7773)
(5.354e-11 10.0055 57.3548)
(4.88271e-11 9.17393 54.1116)
(2.11006e-11 8.86899 51.958)
(6.04856e-12 8.79806 50.002)
(-1.10893e-11 7.96527 47.0146)
(-2.70201e-11 7.9544 46.0782)
(-3.56802e-11 7.60333 43.4871)
(-4.24066e-11 7.38068 41.8533)
(-4.33921e-11 6.98451 39.9335)
(-4.19527e-11 6.78921 39.1307)
(-3.68999e-11 6.17968 37.4127)
(-3.21608e-11 6.2494 37.1027)
(-2.53799e-11 6.4521 36.5574)
(-2.06283e-11 6.43948 35.4138)
(-1.12645e-11 5.69455 33.2399)
(-9.12386e-12 5.45719 32.3333)
(-4.10021e-12 5.41127 31.4003)
(-1.49229e-12 5.06434 29.6187)
(-5.88077e-13 4.91954 28.6266)
(-1.13965e-12 4.75233 27.3158)
(-2.39558e-12 4.81055 26.7104)
(-4.54853e-12 4.64413 25.2841)
(-6.95605e-12 4.18599 24.1058)
(-9.50578e-12 3.86498 23.1698)
(-1.15857e-11 3.67158 22.4664)
(-1.35469e-11 3.6777 21.6623)
(-1.4507e-11 3.52356 20.1862)
(-1.44136e-11 3.24958 18.5426)
(-1.46605e-11 2.82412 16.7742)
(-1.29054e-11 2.48586 15.3636)
(-1.12402e-11 1.38664 12.0026)
(-6.57718e-12 0.194146 8.50651)
(-4.68943e-12 0.0845444 7.36826)
(-2.68092e-12 0.379949 6.89588)
(-3.39461e-12 0.586663 6.36304)
(-1.03179e-12 0.661235 5.80185)
(-1.43657e-12 0.69056 5.44631)
(-1.42558e-12 0.655496 4.98988)
(-3.18362e-12 0.607466 4.64438)
(-2.21743e-12 0.583069 4.38295)
(-2.30125e-12 0.522752 4.19218)
(-1.99438e-12 0.538838 3.9526)
(-1.63404e-12 0.563221 3.75461)
(-1.81633e-12 0.577548 3.70138)
(-9.54084e-13 0.503261 3.37701)
(-1.97317e-12 0.378886 2.98552)
(-1.78312e-12 0.381688 2.90212)
(-9.92628e-13 0.380005 2.75943)
(-1.85704e-12 0.301905 2.61181)
(-1.45806e-12 0.261952 2.54261)
(-1.3308e-12 0.272139 2.52419)
(-1.42755e-12 0.327032 2.53059)
(-1.66918e-12 0.370443 2.45682)
(-1.29321e-12 0.385582 2.37822)
(-1.39838e-12 0.402725 2.37524)
(-1.2353e-12 0.404991 2.39861)
(-1.17114e-13 0.407705 2.44952)
(-1.51983e-12 0.426779 2.53785)
(-4.48641e-13 0.437453 2.63128)
(-1.35186e-12 0.434424 2.72336)
(-9.82611e-13 0.415034 2.80632)
(-2.97521e-13 0.386553 2.87999)
(-1.2562e-12 0.392388 2.79139)
(-6.07107e-13 0.359154 2.56013)
(-6.53616e-13 0.309465 2.45563)
(-8.77815e-13 0.312698 2.49785)
(-7.66802e-13 0.326928 2.58677)
(-2.66991e-13 0.346313 2.69924)
(-6.4151e-13 0.384149 2.85751)
(-6.88293e-13 0.466017 3.03787)
(-2.9929e-13 0.53336 3.06658)
(-1.03848e-12 0.505871 3.02171)
(-5.47274e-13 0.525146 2.9735)
(2.06467e-13 0.523917 2.86786)
(-1.11815e-12 0.518863 2.77276)
(-1.68417e-13 0.500967 2.73228)
(-7.64615e-13 0.494972 2.79266)
(-3.27966e-13 0.52026 2.92299)
(-1.54014e-12 0.542075 3.0327)
(-3.92259e-13 0.543084 3.11537)
(-9.01149e-13 0.539997 3.18245)
(-1.21265e-13 0.551246 3.25647)
(-4.3179e-13 0.538981 3.27115)
(-8.58327e-13 0.509103 3.28314)
(-6.96307e-13 0.457743 3.2992)
(-1.02335e-12 0.448007 3.4756)
(-5.73072e-13 0.449724 3.67733)
(-2.19513e-13 0.51565 4.13621)
(-1.10699e-12 0.585988 4.69939)
(-1.31576e-12 0.768271 5.75014)
(1.20198e-12 1.09618 7.32536)
(-2.81504e-12 3.29684 13.215)
(-1.54861e-08 35.9866 306.958)
(-2.99986e-08 70.5783 342.657)
(-1.55616e-08 72.8205 410.56)
(-1.24829e-08 71.1244 433.743)
(-6.92408e-09 70.5575 453.699)
(-2.92175e-09 71.597 466.387)
(1.30768e-10 73.4301 473.807)
(3.37959e-09 72.7666 475.015)
(4.27316e-09 72.4725 471.289)
(4.44218e-09 71.5582 463.454)
(4.1884e-09 69.5598 451.399)
(3.47927e-09 68.6402 433.488)
(2.57741e-09 66.3784 412.307)
(1.50407e-09 62.946 389.147)
(6.66954e-10 60.3932 365.998)
(-5.02985e-11 56.5848 344.194)
(-4.67524e-10 53.1335 322.782)
(-7.54537e-10 50.1857 301.534)
(-7.98045e-10 48.0782 289.103)
(-7.51927e-10 43.8106 265.932)
(-6.70376e-10 43.3903 255.744)
(-4.95413e-10 39.6635 237.932)
(-2.94248e-10 37.9816 224.36)
(4.05229e-11 36.5674 216.695)
(4.01973e-12 33.9811 200.599)
(1.22008e-10 32.2832 192.217)
(1.6153e-10 31.4039 183.483)
(2.22027e-10 29.1817 173.249)
(1.77685e-10 28.8021 166.556)
(1.75071e-10 26.5236 157.777)
(9.31288e-11 25.6804 151.881)
(4.86563e-11 25.3683 146.017)
(-8.26425e-12 23.2707 138.258)
(-6.19986e-11 23.2452 135.244)
(-9.4579e-11 21.9919 127.767)
(-1.2155e-10 21.5595 123.673)
(-1.29722e-10 20.5236 118.238)
(-1.29812e-10 19.9751 115.781)
(-1.1672e-10 18.213 110.754)
(-1.04208e-10 18.4074 109.627)
(-8.36335e-11 18.6954 107.333)
(-6.97563e-11 18.6489 103.911)
(-3.95424e-11 16.6559 98.2864)
(-3.22716e-11 16.1047 96.0349)
(-1.55261e-11 15.7939 92.9575)
(-6.32934e-12 14.884 88.1487)
(-2.40931e-12 14.4957 85.3914)
(-3.13815e-12 14.0332 81.5867)
(-6.24168e-12 14.1472 79.5473)
(-1.24682e-11 13.6542 75.4047)
(-1.96638e-11 12.4483 72.3526)
(-2.75854e-11 11.5744 69.8689)
(-3.40411e-11 11.001 67.8482)
(-4.03991e-11 10.936 65.4649)
(-4.37305e-11 10.4572 61.283)
(-4.37981e-11 9.69483 56.7443)
(-4.49415e-11 8.47219 51.712)
(-3.97509e-11 7.50283 47.8878)
(-3.53737e-11 4.33918 38.6859)
(-2.12035e-11 0.772158 27.5789)
(-1.51553e-11 0.342501 22.7415)
(-8.61569e-12 1.08761 20.5773)
(-1.07484e-11 1.63258 18.6711)
(-3.165e-12 1.84909 16.9487)
(-3.52214e-12 1.96365 15.9838)
(-5.65095e-12 1.88341 14.7734)
(-1.07799e-11 1.75727 13.7613)
(-5.82158e-12 1.71548 13.0872)
(-7.17237e-12 1.53316 12.5143)
(-6.23296e-12 1.55839 11.7211)
(-5.06e-12 1.64291 11.1254)
(-5.63247e-12 1.65426 10.7711)
(-4.05934e-12 1.42246 9.85713)
(-5.36238e-12 1.10264 8.95232)
(-5.51165e-12 1.12904 8.65632)
(-3.0303e-12 1.09733 8.20382)
(-5.74669e-12 0.888603 7.80289)
(-4.50824e-12 0.776787 7.61359)
(-4.10571e-12 0.808595 7.52217)
(-4.39805e-12 0.933577 7.39641)
(-5.16294e-12 1.06047 7.13771)
(-4.0097e-12 1.12983 6.96991)
(-4.35744e-12 1.19675 6.99484)
(-3.8517e-12 1.21601 7.11502)
(-1.00477e-12 1.24122 7.33588)
(-4.17533e-12 1.30607 7.6389)
(-2.03129e-12 1.33559 7.92005)
(-3.66312e-12 1.31317 8.14325)
(-3.02189e-12 1.23821 8.30899)
(-1.76265e-12 1.117 8.39944)
(-3.49552e-12 1.10512 8.09062)
(-1.86215e-12 1.03925 7.56157)
(-2.00156e-12 0.939477 7.42454)
(-2.70875e-12 0.96879 7.59581)
(-2.36176e-12 1.01596 7.85678)
(-4.71403e-13 1.07625 8.16279)
(-1.57726e-12 1.17524 8.5329)
(-2.10156e-12 1.36644 8.83814)
(-8.98592e-13 1.50337 8.82127)
(-3.21086e-12 1.44645 8.69495)
(-1.66594e-12 1.48856 8.50276)
(1.5745e-13 1.48704 8.18708)
(-2.9096e-12 1.48974 7.953)
(-9.69247e-13 1.46184 7.90083)
(-2.32011e-12 1.46067 8.10714)
(-9.15028e-13 1.53116 8.46159)
(-4.16924e-12 1.58694 8.76264)
(-1.17827e-12 1.58905 9.02612)
(-2.77881e-12 1.5805 9.24576)
(-1.33768e-12 1.60445 9.45446)
(-1.73261e-12 1.56469 9.51249)
(-2.15677e-12 1.48645 9.60231)
(-2.12297e-12 1.35961 9.73316)
(-3.13458e-12 1.34586 10.279)
(-1.7366e-12 1.36675 10.8625)
(-2.55573e-12 1.57507 12.1428)
(-2.22579e-12 1.78784 13.6062)
(-3.47404e-12 2.33574 16.27)
(3.26968e-12 3.50371 20.2251)
(-8.42047e-12 8.77386 32.1368)
(-2.24417e-08 -82.0834 256.495)
(-5.59991e-09 -56.8212 172.103)
(7.35894e-09 -44.7431 140.562)
(6.22548e-08 -37.3165 116.741)
(4.41373e-08 -31.5334 100.026)
(-2.16938e-08 -26.9146 84.3962)
(-2.04783e-08 -23.8546 75.3603)
(-1.04974e-09 -20.6414 64.0913)
(2.10469e-10 -18.7314 58.585)
(2.45828e-09 -16.3703 50.4889)
(2.0386e-09 -15.0063 46.6331)
(-2.4937e-10 -13.2642 40.7653)
(-7.11929e-10 -12.3157 37.9654)
(-4.37377e-10 -10.8973 33.4942)
(1.05948e-10 -10.1739 31.2954)
(4.33125e-10 -8.99365 27.7603)
(-1.1533e-10 -8.41711 26.0139)
(-1.58152e-10 -7.54649 23.3006)
(-3.13442e-11 -7.13248 21.9326)
(1.01081e-10 -6.44361 19.832)
(4.44233e-11 -6.08907 18.62)
(9.43978e-12 -5.59538 17.1604)
(-2.2455e-12 -5.27109 16.0159)
(-1.2203e-10 -4.864 14.8487)
(5.07688e-11 -4.57786 13.9132)
(3.24869e-11 -4.21718 12.8604)
(1.11596e-10 -3.97109 12.086)
(-2.4992e-10 -3.66915 11.1699)
(1.94904e-10 -3.49035 10.5802)
(-1.06896e-10 -3.2409 9.82046)
(1.4168e-10 -3.08742 9.35347)
(-1.47374e-10 -2.85827 8.66129)
(1.03608e-10 -2.75076 8.27511)
(-2.88629e-11 -2.5625 7.73979)
(7.46633e-12 -2.43886 7.35149)
(1.13301e-12 -2.28082 6.88542)
(1.59168e-11 -2.18218 6.55004)
(-2.34379e-11 -2.05848 6.18685)
(3.28502e-11 -1.95989 5.87932)
(-3.64746e-11 -1.86112 5.58163)
(1.30458e-11 -1.76887 5.30541)
(-1.38852e-11 -1.68283 5.03132)
(-7.57092e-13 -1.61252 4.81955)
(-6.43167e-12 -1.53566 4.5769)
(-8.66189e-12 -1.48023 4.38978)
(-4.97037e-12 -1.42823 4.21859)
(-5.89158e-12 -1.36373 4.03635)
(-5.82821e-12 -1.26345 3.79291)
(-2.6877e-12 -1.08944 3.46584)
(-1.22324e-12 -0.75872 2.87879)
(-1.32491e-13 -0.268968 1.9968)
(-1.18397e-12 -0.0859105 1.56202)
(9.89534e-14 -0.0731278 1.75729)
(5.67065e-12 -0.0560119 2.21701)
(8.99012e-12 -0.027345 2.38703)
(1.79984e-12 -0.0208558 2.56592)
(-6.2125e-12 -0.0108151 2.67858)
(9.24745e-12 -0.00559282 2.73883)
(-4.52228e-12 -0.00297725 2.76772)
(9.11462e-12 -0.00166118 2.7721)
(-1.03535e-11 -0.000859669 2.76136)
(-8.74844e-12 -0.000254852 2.73736)
(-6.11406e-12 -1.72493e-05 2.71096)
(-2.16323e-12 3.94594e-05 2.67806)
(3.94404e-12 0.000219484 2.63444)
(-5.18118e-12 0.0003198 2.58742)
(-1.06176e-11 0.000694099 2.53132)
(-5.9538e-13 0.00157606 2.46738)
(-2.54879e-12 0.00121871 2.3987)
(-4.07994e-12 0.00146381 2.33178)
(1.17657e-11 0.000987223 2.25658)
(-2.31167e-14 0.000157685 2.17821)
(6.80696e-12 -0.000139695 2.0901)
(1.1467e-12 -0.000428269 1.98936)
(8.75142e-12 -0.000615577 1.87964)
(-1.99376e-12 -0.00068785 1.75527)
(4.99536e-12 0.00110206 1.61674)
(-1.53365e-12 0.00191406 1.47417)
(1.0962e-11 0.00257597 1.33309)
(-1.31352e-12 0.0010585 1.1893)
(5.4358e-12 -0.000708278 1.04741)
(-3.82434e-13 -0.00164473 0.902269)
(3.12357e-12 -0.00194225 0.752802)
(-2.23043e-12 -0.00132397 0.599924)
(3.7539e-12 -0.00132221 0.440269)
(2.35592e-12 -0.00253851 0.274944)
(4.8521e-12 -0.00259564 0.103057)
(1.03302e-11 -0.00257578 -0.0824099)
(-1.20736e-11 -0.00309973 -0.27352)
(-2.64278e-12 0.00015072 -0.473529)
(-9.99332e-12 0.000136632 -0.671178)
(7.51927e-13 0.00154963 -0.867576)
(-5.30487e-12 0.000519631 -1.07012)
(-3.37484e-12 -0.00221316 -1.27225)
(-7.27081e-12 -0.00543042 -1.47462)
(3.27009e-12 -0.00659638 -1.67409)
(-6.20633e-12 -0.0074873 -1.87755)
(8.41762e-12 -0.00715281 -2.08412)
(3.9343e-12 -0.00658384 -2.29914)
(4.74399e-12 -0.00726919 -2.51353)
(5.24151e-12 -0.00455359 -2.73751)
(1.09157e-11 -0.00837407 -2.95268)
(-1.86987e-12 0.000907579 -3.17124)
(3.93319e-12 -0.00755942 -3.35694)
(-5.93079e-13 -0.0013428 -3.50034)
(6.9289e-12 -0.0048604 -3.63476)
(-3.24555e-12 -0.00209027 -3.72897)
(4.43916e-12 -0.00466494 -3.79646)
(-1.12613e-12 -0.00138802 -3.82311)
(1.63982e-12 -0.00166131 -3.80086)
(4.82909e-12 0.00309862 -3.7599)
(-2.91486e-12 -0.00384327 -3.69267)
(-3.30977e-12 0.00889834 -3.58379)
(-9.21357e-12 -0.0023007 -3.44332)
(-5.54776e-12 0.00615548 -3.25981)
(5.66005e-12 -0.00146162 -3.07846)
(-5.0398e-12 -0.0013727 -2.86973)
(-1.3778e-11 -0.00225099 -2.65887)
(-4.71349e-12 0.000728135 -2.42292)
(4.38065e-12 0.00322701 -2.20437)
(-1.22606e-12 -0.00166118 -2.00759)
(-8.014e-12 -0.0013737 -1.83581)
(-9.51576e-13 -0.00543463 -1.68617)
(-3.80161e-12 0.00686962 -1.52103)
(-6.25172e-12 0.0142461 -1.43249)
(-3.66801e-12 0.0101656 -1.30665)
(-1.25579e-11 0.00277393 -1.2603)
(4.77958e-13 -0.0531928 -1.00326)
(-2.33868e-12 -0.124405 -0.395452)
(4.2715e-13 -0.0875891 0.72859)
(-3.53766e-12 -0.145522 3.22276)
(1.07222e-11 -0.118621 3.65455)
(3.87596e-12 -0.055928 3.82123)
(1.3855e-11 -0.0418669 4.00858)
(-6.62649e-12 -0.0220587 4.11542)
(7.19138e-12 -0.0126546 4.18398)
(-1.62031e-11 -0.00692718 4.21893)
(1.96891e-12 -0.00296411 4.23095)
(-1.34558e-11 -0.000880245 4.22896)
(1.69988e-12 -0.000196056 4.21587)
(-1.8911e-12 0.000333561 4.20053)
(-9.43051e-12 0.00126983 4.17923)
(-3.28038e-12 0.00165905 4.14728)
(-5.7941e-12 0.00239457 4.1083)
(-1.97086e-12 0.00309874 4.05876)
(1.11593e-12 0.0022952 4.00315)
(1.228e-12 0.00179037 3.94631)
(-5.22084e-12 0.00137571 3.88942)
(4.59615e-12 0.00242801 3.82479)
(2.84206e-12 0.00269518 3.7579)
(6.35807e-12 0.00290235 3.68003)
(-2.81698e-12 0.00318433 3.58882)
(1.57028e-13 0.00388874 3.48538)
(-3.24086e-12 0.00443069 3.36544)
(1.01939e-12 0.00170173 3.23523)
(8.6361e-12 -0.000727933 3.10345)
(1.16827e-12 -0.00168848 2.97032)
(4.45489e-12 0.00110507 2.8327)
(9.32833e-12 0.0032553 2.69921)
(7.01518e-12 0.00359385 2.56208)
(1.0718e-11 0.00214567 2.42158)
(9.9874e-12 0.000765641 2.27772)
(8.55677e-12 0.000711144 2.12711)
(1.54582e-12 0.000914631 1.97035)
(7.9572e-12 0.00258839 1.80432)
(-1.19882e-12 0.00516929 1.62349)
(2.14423e-12 0.00609366 1.43655)
(-4.94439e-12 0.0013781 1.24178)
(-8.92658e-12 -0.00217366 1.05227)
(-5.50176e-13 -0.00528651 0.862765)
(-7.51934e-12 -0.00458867 0.663878)
(-1.24254e-13 -0.00100437 0.467207)
(-1.30608e-11 0.00119032 0.271527)
(3.97159e-12 0.00176253 0.0792481)
(-4.5179e-12 0.00106992 -0.117288)
(1.23639e-11 4.38099e-05 -0.317021)
(1.17663e-11 -0.000923667 -0.525624)
(1.49581e-11 -0.00132936 -0.736139)
(1.21108e-11 -0.000310451 -0.959294)
(7.45883e-12 -0.000277861 -1.17239)
(8.94963e-12 -0.00115002 -1.38845)
(6.10729e-12 -0.00604599 -1.56812)
(-3.91189e-12 -0.00327458 -1.70548)
(-1.79992e-12 -0.00632734 -1.83568)
(-7.73239e-12 -0.00428523 -1.92454)
(4.04016e-12 -0.0034805 -1.98683)
(-7.21227e-13 -0.00127963 -2.00871)
(2.62351e-13 -0.00331071 -1.98654)
(2.07884e-13 0.00148503 -1.94935)
(3.15799e-12 7.96334e-06 -1.87982)
(-2.25435e-12 -0.00449567 -1.76756)
(5.60221e-13 -0.00523848 -1.62558)
(2.07598e-12 -0.00127226 -1.44033)
(3.03168e-12 -0.00179788 -1.25916)
(-7.55776e-13 0.00218394 -1.04509)
(-2.74331e-12 -0.000364363 -0.82873)
(4.51161e-12 -0.00381616 -0.590871)
(-1.72765e-12 -0.00341346 -0.376847)
(-5.92903e-13 0.00237661 -0.18088)
(-7.83549e-13 0.00513168 -0.00656548)
(1.14804e-12 0.00776085 0.150087)
(2.59246e-13 -0.00421439 0.316495)
(4.37359e-12 -0.00777124 0.402812)
(-1.33691e-12 -0.0117807 0.539471)
(2.18484e-12 -0.0312968 0.575916)
(2.69807e-12 -0.0979875 0.800039)
(6.71542e-13 -0.197896 1.05112)
(2.30091e-12 -0.135076 1.46882)
(-1.1063e-11 -0.448929 3.25487)
(-6.69458e-12 -0.182308 3.05075)
(-3.40926e-08 -75.3563 255.936)
(-2.00534e-08 -53.1398 173.813)
(-4.4664e-08 -38.5591 144.228)
(-5.59263e-09 -34.4857 117.552)
(1.29371e-07 -28.3679 102.192)
(4.18909e-09 -24.8859 85.2897)
(-5.05954e-08 -22.0726 76.8847)
(2.34033e-09 -19.2728 65.3538)
(5.57059e-09 -17.6099 59.8243)
(1.95293e-10 -15.5424 51.7956)
(1.60835e-09 -14.3829 47.9455)
(-1.49948e-10 -12.8339 42.1328)
(-8.80943e-10 -12.0683 39.3314)
(-2.08425e-10 -10.7256 34.919)
(3.54638e-10 -10.1376 32.7286)
(2.03464e-10 -9.01285 29.2884)
(-2.62291e-10 -8.57245 27.5848)
(-8.86845e-11 -7.71554 24.9476)
(1.65745e-10 -7.41061 23.6279)
(3.9328e-12 -6.70129 21.5155)
(1.24835e-10 -6.46949 20.4421)
(-1.03156e-10 -5.89893 18.768)
(-1.51428e-11 -5.71587 17.9024)
(-1.08973e-10 -5.2068 16.463)
(7.31431e-11 -5.01935 15.7063)
(9.76903e-11 -4.57215 14.4427)
(3.81167e-11 -4.41156 13.7937)
(-2.95794e-10 -4.07006 12.7767)
(2.92366e-10 -3.95527 12.2551)
(-9.90715e-11 -3.66953 11.4175)
(1.1175e-10 -3.54421 10.9771)
(-1.87278e-10 -3.30433 10.2573)
(1.75303e-10 -3.22566 9.88293)
(-4.70299e-11 -2.99497 9.27236)
(-3.03763e-11 -2.89104 8.88924)
(6.98999e-11 -2.70652 8.35282)
(-2.95323e-11 -2.62985 8.03216)
(-2.30961e-11 -2.46959 7.58101)
(4.51397e-11 -2.38841 7.28499)
(-4.97894e-11 -2.26232 6.91934)
(3.19611e-11 -2.15918 6.5982)
(-2.6006e-11 -2.07627 6.30327)
(1.02338e-11 -1.98353 6.03583)
(-1.82143e-11 -1.89157 5.73735)
(-1.74972e-13 -1.82884 5.51034)
(-2.38901e-11 -1.7456 5.2683)
(1.15543e-11 -1.63082 4.98739)
(-7.52492e-12 -1.48471 4.6661)
(7.90427e-12 -1.26474 4.30937)
(-1.39744e-12 -0.914708 3.82783)
(-2.10929e-08 21.5115 320.517)
(-4.4495e-08 62.2063 368.891)
(-1.16597e-08 70.3103 418.68)
(-8.67126e-09 66.6595 444.916)
(-5.26016e-09 64.0132 465.887)
(-1.98447e-09 63.8063 483.549)
(5.8171e-10 65.4879 495.821)
(3.0254e-09 65.7905 505.416)
(4.91803e-09 68.1685 510.895)
(6.39542e-09 68.5232 515.095)
(6.28075e-09 69.8894 515.334)
(5.88932e-09 72.6076 513.48)
(5.08911e-09 73.4912 509.264)
(3.76645e-09 73.8322 501.843)
(2.54101e-09 74.2558 490.672)
(1.17316e-09 72.6462 477.427)
(1.55424e-10 70.9321 460.867)
(-6.29321e-10 69.9271 442.772)
(-1.1368e-09 66.3581 429.044)
(-1.30489e-09 62.9366 404.274)
(-1.4068e-09 62.9702 392.077)
(-1.0799e-09 57.719 369.667)
(-1.07412e-09 57.1695 352.606)
(-3.21349e-10 54.3975 340.583)
(-3.09282e-10 52.1919 320.824)
(1.25473e-11 49.2826 307.323)
(1.50923e-10 48.55 294.83)
(3.32538e-10 45.4117 280.113)
(3.07478e-10 45.2252 270.435)
(3.52905e-10 41.8217 257.245)
(2.24552e-10 40.7049 248.282)
(1.72666e-10 40.0885 239.005)
(6.44806e-11 37.3111 227.469)
(-3.63659e-11 37.2755 222.408)
(-1.07471e-10 35.1023 210.796)
(-1.71955e-10 34.6302 204.498)
(-2.01916e-10 33.232 196.079)
(-2.17469e-10 32.3609 191.906)
(-2.04153e-10 29.6411 183.72)
(-1.91724e-10 29.8755 181.377)
(-1.57986e-10 29.9554 177.051)
(-1.38399e-10 29.7843 171.676)
(-8.31145e-11 26.8821 163.097)
(-6.97312e-11 26.1505 159.5)
(-3.6218e-11 25.4662 154.357)
(-1.72629e-11 24.1931 146.992)
(-7.06036e-12 23.5879 142.556)
(-4.98874e-12 22.9278 136.471)
(-7.64362e-12 23.0092 132.901)
(-1.67336e-11 22.2773 126.362)
(-2.80063e-11 20.566 121.688)
(-4.16054e-11 19.2541 117.79)
(-5.2766e-11 18.336 114.479)
(-6.46192e-11 18.1108 110.652)
(-7.13722e-11 17.339 104.15)
(-7.27485e-11 16.2317 97.2233)
(-7.60035e-11 14.3042 89.0869)
(-6.77113e-11 12.9645 83.2221)
(-6.26986e-11 8.28737 69.6777)
(-3.91602e-11 2.05854 50.6889)
(-2.83424e-11 0.941376 40.4359)
(-1.60128e-11 1.88751 35.5261)
(-1.9457e-11 2.62718 31.7236)
(-3.35276e-12 2.9496 28.5489)
(-8.01519e-12 3.17644 26.8866)
(-1.32026e-11 3.08766 25.0122)
(-1.7835e-11 2.90217 23.3653)
(-8.84999e-12 2.86994 22.2852)
(-1.27208e-11 2.55523 21.263)
(-1.10009e-11 2.54981 19.8104)
(-8.84469e-12 2.68725 18.7603)
(-9.87522e-12 2.66702 17.9457)
(-6.75453e-12 2.28712 16.4529)
(-8.58833e-12 1.81234 15.1482)
(-9.50464e-12 1.88035 14.5912)
(-4.28725e-12 1.78252 13.8326)
(-9.38492e-12 1.47563 13.1549)
(-7.74168e-12 1.2877 12.779)
(-7.08308e-12 1.33716 12.5411)
(-7.62549e-12 1.4928 12.2293)
(-8.9654e-12 1.72836 11.8313)
(-6.96719e-12 1.87849 11.6405)
(-7.66031e-12 2.01159 11.7208)
(-6.71699e-12 2.0571 11.9666)
(-2.70357e-12 2.11509 12.369)
(-6.42367e-12 2.22278 12.877)
(-5.28909e-12 2.26023 13.3244)
(-6.20336e-12 2.20107 13.6324)
(-5.15926e-12 2.05197 13.809)
(-4.44234e-12 1.80946 13.8109)
(-5.80509e-12 1.76529 13.297)
(-3.1292e-12 1.71322 12.6171)
(-3.40779e-12 1.59866 12.5238)
(-4.66652e-12 1.66034 12.8214)
(-4.02073e-12 1.73972 13.2263)
(-1.88719e-12 1.83688 13.6673)
(-2.46e-12 1.97929 14.139)
(-3.55056e-12 2.2218 14.4461)
(-1.43358e-12 2.36652 14.3638)
(-5.60706e-12 2.31962 14.1408)
(-2.72645e-12 2.37677 13.7941)
(-4.96359e-13 2.39007 13.3084)
(-4.4658e-12 2.42582 12.9938)
(-3.21712e-12 2.41251 12.9715)
(-5.75335e-12 2.42667 13.317)
(-3.29995e-12 2.53442 13.8613)
(-7.33248e-12 2.61803 14.3417)
(-1.93022e-12 2.62076 14.7975)
(-4.78952e-12 2.60444 15.1798)
(-2.05966e-12 2.63198 15.5303)
(-4.07831e-12 2.56679 15.6648)
(-3.48012e-12 2.45411 15.8829)
(-3.61962e-12 2.27485 16.1694)
(-5.35026e-12 2.26647 17.0762)
(-2.89875e-12 2.31603 17.9928)
(-6.11319e-12 2.66687 19.9809)
(-2.53331e-12 3.01539 22.1369)
(-7.66416e-12 3.92101 25.9385)
(2.64928e-12 5.92847 31.5927)
(-1.67117e-11 12.1992 45.3828)
(-3.38656e-08 9.57374 327.772)
(-2.98986e-08 70.9374 377.547)
(-4.23372e-09 73.5675 422.111)
(-1.40176e-09 68.8274 448.75)
(1.33945e-09 65.4051 469.463)
(3.8464e-09 64.8482 487.35)
(5.33684e-09 66.6239 500.69)
(6.53802e-09 68.1518 512.097)
(7.3921e-09 70.0863 521.007)
(8.03302e-09 70.7179 528.165)
(8.53365e-09 71.4162 533.655)
(8.1594e-09 74.0025 537.459)
(7.86367e-09 74.2472 540.01)
(6.49885e-09 76.0608 540.746)
(4.93361e-09 78.1665 539.268)
(3.32522e-09 77.5446 536.435)
(1.7048e-09 77.4681 531.035)
(2.16171e-10 78.7963 522.403)
(-1.01053e-09 74.8172 514.99)
(-1.66659e-09 74.2379 498.944)
(-2.11812e-09 74.8494 488.76)
(-1.93577e-09 69.9185 470.381)
(-1.87838e-09 70.8064 454.52)
(-1.25605e-09 66.8591 441.255)
(-8.98504e-10 66.3026 423.255)
(-3.49003e-10 62.2829 407.014)
(-6.6389e-11 62.4114 393.421)
(3.18259e-10 58.7401 376.153)
(3.69878e-10 59.1092 365.161)
(5.54823e-10 54.9659 349.345)
(3.86132e-10 53.8431 338.37)
(4.10327e-10 53.0183 326.603)
(2.29089e-10 49.9705 312.507)
(8.52338e-11 49.8836 305.813)
(-3.68567e-11 47.1792 291.212)
(-1.60402e-10 46.5765 282.768)
(-2.32895e-10 45.0663 272.182)
(-2.87057e-10 43.8545 266.383)
(-2.88924e-10 40.4235 255.48)
(-2.93145e-10 40.6175 251.644)
(-2.50423e-10 40.4612 245.231)
(-2.34189e-10 39.9816 238.222)
(-1.4966e-10 36.3533 227.09)
(-1.3243e-10 35.449 222.038)
(-7.26657e-11 34.4776 215.112)
(-4.06893e-11 32.9584 205.626)
(-1.89554e-11 32.138 199.605)
(-8.94506e-12 31.4399 191.596)
(-6.74903e-12 31.4007 186.51)
(-1.5846e-11 30.5542 178.003)
(-2.9176e-11 28.5013 171.858)
(-4.83427e-11 26.8597 166.645)
(-6.41952e-11 25.6401 162.096)
(-8.29382e-11 25.2095 157.061)
(-9.44883e-11 24.1991 148.718)
(-9.89772e-11 22.8637 140.071)
(-1.06466e-10 20.3004 129.056)
(-9.55455e-11 18.736 121.495)
(-9.345e-11 13.264 105.536)
(-6.16162e-11 4.28269 79.4171)
(-4.58859e-11 2.02189 62.1275)
(-2.59997e-11 2.84221 53.0967)
(-3.01639e-11 3.61765 46.5754)
(-9.08482e-12 4.01038 41.372)
(-1.88769e-11 4.38408 38.7185)
(-1.9809e-11 4.33725 36.1896)
(-2.43148e-11 4.11252 33.9485)
(-9.40617e-12 4.09746 32.4115)
(-1.74055e-11 3.63663 30.8615)
(-1.64872e-11 3.54818 28.5925)
(-1.31743e-11 3.70452 26.9355)
(-1.47143e-11 3.62536 25.4991)
(-9.58996e-12 3.13015 23.4134)
(-1.22953e-11 2.52117 21.7186)
(-1.37685e-11 2.6299 20.8391)
(-7.7722e-12 2.45175 19.7717)
(-1.40217e-11 2.06697 18.768)
(-1.11482e-11 1.80397 18.1232)
(-1.02901e-11 1.85764 17.6871)
(-1.12481e-11 2.04545 17.1845)
(-1.32112e-11 2.41716 16.6962)
(-1.02003e-11 2.65653 16.5159)
(-1.14779e-11 2.86581 16.6546)
(-9.84128e-12 2.93701 17.0191)
(-5.56508e-12 3.02582 17.5634)
(-8.22301e-12 3.16132 18.2211)
(-7.86709e-12 3.1892 18.7884)
(-8.05871e-12 3.07755 19.1389)
(-7.36298e-12 2.84315 19.2812)
(-6.49849e-12 2.46962 19.1488)
(-7.64419e-12 2.39675 18.4686)
(-3.25582e-12 2.39024 17.7346)
(-3.96929e-12 2.28124 17.6947)
(-6.77906e-12 2.37562 18.0916)
(-5.67886e-12 2.48218 18.5991)
(-5.12237e-12 2.60607 19.1148)
(-2.44947e-12 2.7724 19.6099)
(-2.41233e-12 3.01975 19.8695)
(7.74137e-13 3.15258 19.7246)
(-7.0626e-12 3.13299 19.3987)
(-2.22074e-12 3.20912 18.9191)
(-5.45118e-13 3.25561 18.3182)
(-5.67438e-12 3.34518 17.9732)
(-4.63637e-12 3.3638 17.9934)
(-7.71017e-12 3.40021 18.4591)
(-3.86382e-12 3.53867 19.1601)
(-9.82964e-12 3.64697 19.8078)
(-2.53528e-12 3.64824 20.4557)
(-6.99532e-12 3.62033 21.0015)
(-2.64764e-12 3.64411 21.5062)
(-5.77909e-12 3.5557 21.7478)
(-3.94445e-12 3.41735 22.1288)
(-5.24372e-12 3.20277 22.5796)
(-7.65774e-12 3.20219 23.8145)
(-4.04701e-12 3.28802 24.9955)
(-9.19033e-12 3.76943 27.5538)
(-1.4582e-12 4.23684 30.2128)
(-1.53065e-11 5.46643 34.7061)
(2.00586e-12 8.1565 41.5207)
(-2.16602e-11 14.3545 54.3588)
(-2.20637e-08 -75.5617 246.741)
(-5.02486e-08 -47.1974 176.42)
(-6.2444e-09 -37.7058 146.005)
(-1.80073e-07 -33.4819 118.493)
(2.22083e-08 -28.0477 103.261)
(1.03534e-07 -24.1376 86.0566)
(-2.94005e-08 -21.6872 77.4333)
(-1.15467e-08 -18.8884 65.8409)
(1.05831e-08 -17.3312 60.2308)
(-1.51665e-09 -15.3156 52.1737)
(-1.33129e-09 -14.1458 48.3008)
(-7.36015e-11 -12.6772 42.4708)
(-1.66016e-10 -11.8943 39.6769)
(2.13516e-10 -10.5919 35.2817)
(3.09761e-10 -9.98637 33.1045)
(-2.88482e-10 -8.90687 29.6639)
(-5.66182e-11 -8.4927 27.9574)
(9.07437e-11 -7.66914 25.3258)
(2.25262e-10 -7.39568 23.999)
(-1.82752e-10 -6.69229 21.9084)
(1.43919e-10 -6.48288 20.8374)
(-1.12275e-10 -5.93266 19.2046)
(-2.03227e-11 -5.7743 18.3414)
(-1.39049e-11 -5.23351 16.9155)
(-1.57151e-11 -5.07193 16.1312)
(1.98198e-10 -4.60842 14.8972)
(-6.24938e-11 -4.487 14.2346)
(-2.18142e-10 -4.14659 13.2645)
(2.36859e-10 -4.05711 12.7409)
(-2.35357e-11 -3.76681 11.9196)
(1.07483e-11 -3.6605 11.4879)
(-1.34008e-10 -3.41891 10.7766)
(1.70033e-10 -3.35344 10.4026)
(3.54601e-12 -3.10145 9.76975)
(-1.22093e-10 -3.01434 9.4056)
(1.73623e-10 -2.81833 8.84228)
(-9.92407e-11 -2.76069 8.54502)
(1.59093e-11 -2.58008 8.0507)
(3.92527e-11 -2.51846 7.77953)
(-3.95188e-11 -2.36691 7.37721)
(3.75094e-11 -2.27141 7.04418)
(-1.90574e-11 -2.19438 6.75223)
(8.45241e-12 -2.08209 6.45358)