/*--------------------------------*- C++ -*----------------------------------*\
| =========                 |                                                 |
| \\      /  F ield         | OpenFOAM: The Open Source CFD Toolbox           |
|  \\    /   O peration     | Version:  2212                                  |
|   \\  /    A nd           | Website:  www.openfoam.com                      |
|    \\/     M anipulation  |                                                 |
\*---------------------------------------------------------------------------*/
FoamFile
{
    version     2.0;
    format      ascii;
    arch        "LSB;label=32;scalar=64";
    class       surfaceScalarField;
    location    "0.0122";
    object      phi;
}
// * * * * * * * * * * * * * * * * * * * * * * * * * * * * * * * * * * * * * //

dimensions      [1 0 -1 0 0 0 0];

oriented        oriented;

internalField   nonuniform List<scalar> 
4475
(
9.92774e-05
-9.06183e-05
0.000146982
-0.000138967
-1.04788e-05
-3.19524e-05
1.19528e-05
2.44266e-05
0.000169071
-0.000199214
4.60265e-05
-1.88238e-05
-7.90433e-05
0.000122026
6.5144e-05
-0.000107247
-0.000120888
0.000127419
0.000114683
-0.000121331
9.44393e-05
-0.000100569
-0.000108839
0.000107913
-2.80757e-05
1.96421e-05
0.000130267
-0.00014366
-0.000101136
-0.000137877
0.000115675
0.000114095
0.000129779
-0.000126746
-0.000121281
-6.19679e-05
-1.20581e-05
2.26907e-05
6.69656e-05
-2.25192e-05
2.27741e-05
-4.57142e-05
-4.26115e-05
-6.26943e-06
1.00002e-05
5.32889e-05
-3.27591e-05
-1.15923e-05
1.37816e-05
-2.59587e-05
-1.31846e-05
1.48424e-05
-2.33426e-05
-1.39309e-05
1.44152e-05
-2.66913e-05
-1.32018e-05
1.26159e-05
-1.04673e-05
-3.56451e-05
8.32933e-06
2.92558e-05
5.88693e-06
-4.133e-05
-7.13615e-06
2.39698e-05
-1.3719e-05
2.26971e-05
-1.35594e-05
2.63389e-05
-1.25248e-05
3.36601e-05
-1.06894e-05
4.39347e-05
-8.6152e-06
6.14169e-05
-6.65656e-06
6.59832e-05
-8.37875e-06
7.5657e-05
-4.31966e-06
0.000112702
5.59277e-06
-2.19343e-05
0.000124128
1.48505e-05
-2.29181e-06
0.000138164
-0.000155337
-3.52495e-05
-4.84819e-05
1.82179e-06
0.000137839
1.37399e-05
-6.42307e-06
0.00014965
1.33272e-05
-8.10812e-06
0.000157595
1.36408e-05
-9.67609e-06
0.000160647
1.48028e-05
-1.15835e-05
0.000159546
1.60518e-05
-1.36587e-05
0.000154708
1.82121e-05
-1.5908e-05
0.000146615
2.05357e-05
-1.84932e-05
0.000137013
2.27361e-05
-2.0766e-05
0.000128049
2.41781e-05
-2.2442e-05
0.000121013
2.44558e-05
-2.30993e-05
0.000117777
2.22591e-05
-2.1951e-05
0.000118612
1.81727e-05
-1.92479e-05
0.000123905
1.35254e-05
-1.54766e-05
0.000134351
8.596e-06
-1.10238e-05
4.52306e-06
0.000147615
-7.50429e-06
-0.000131177
0.000145942
5.87263e-06
-0.000119922
8.26894e-06
-0.000113783
1.12991e-05
-0.000113607
1.59886e-05
-0.000118882
2.00687e-05
-0.000127748
2.2565e-05
-0.000137939
2.26208e-05
-0.000148945
2.24541e-05
-0.000156779
1.98587e-05
-0.000160995
1.80268e-05
-0.000162304
1.72653e-05
-0.000158609
1.63923e-05
-0.000150347
1.6556e-05
-0.000137949
1.74298e-05
-0.000123544
1.98178e-05
-0.000109962
2.4647e-05
-7.33455e-05
3.61386e-05
-5.27767e-05
-6.50374e-05
3.1074e-05
-5.2091e-05
2.47851e-05
-4.54608e-05
1.98784e-05
-1.36256e-05
-4.01465e-05
1.69267e-05
-3.21063e-05
1.65006e-05
-2.64546e-05
1.60815e-05
-2.56041e-05
1.43139e-05
-3.07432e-05
1.07399e-05
-4.23686e-05
5.27739e-06
3.62792e-06
-5.91549e-06
0.000159288
5.20621e-06
0.000160919
2.20956e-05
-1.84564e-05
-2.59766e-05
2.25829e-05
-1.41657e-05
2.7497e-05
-1.12647e-05
3.54488e-05
-8.37985e-06
4.5892e-05
-5.70465e-06
5.84568e-05
-3.38648e-06
6.97205e-05
-2.37992e-06
8.40999e-05
1.1792e-07
0.000106131
3.96967e-06
0.00012295
2.48243e-06
0.000136934
-2.57137e-07
0.000148208
-2.5841e-06
0.000155439
-4.81334e-06
0.000158172
-7.34573e-06
0.000156725
-9.67274e-06
0.000151733
-1.17982e-05
0.000143842
-1.45406e-05
0.00013494
-1.64438e-05
0.000127072
-1.80957e-05
0.000121818
-1.91268e-05
0.000120394
-1.93054e-05
0.000121851
-1.82237e-05
0.000127847
-1.64324e-05
0.000137484
-1.40477e-05
0.000148225
-1.20511e-05
-9.69355e-08
-5.73422e-05
-1.80185e-06
-1.18952e-05
0.000157594
-9.49215e-06
-5.87336e-05
-5.73905e-05
-3.74643e-06
-0.000145897
0.000163117
1.12614e-05
-0.000129085
1.10405e-05
-0.000116319
1.0224e-05
-0.000109417
1.13734e-05
-0.000109108
1.33565e-05
-0.000115834
1.60471e-05
-0.000126814
1.81746e-05
-0.000139445
1.89443e-05
-0.000150109
1.82272e-05
-0.000157808
1.67299e-05
-0.00016222
1.62629e-05
-0.000162358
1.59931e-05
-0.000158267
1.6571e-05
-0.000149664
1.81406e-05
-0.000137451
2.06936e-05
-0.000122966
2.41574e-05
-0.000106852
2.86853e-05
-8.44959e-05
3.30401e-05
-6.78352e-05
3.20487e-05
-5.6163e-05
2.90694e-05
-4.66686e-05
2.46508e-05
-3.87734e-05
2.15176e-05
-3.18087e-05
1.94003e-05
-2.77431e-05
1.72104e-05
-2.90906e-05
1.37896e-05
-3.6897e-05
8.16748e-06
-5.03445e-05
4.63895e-07
-0.000124563
0.000175694
-0.000160769
8.48573e-05
-0.000123815
-6.34656e-05
9.70925e-05
-9.37117e-05
-6.02299e-05
9.4132e-05
5.03683e-05
7.8603e-05
3.95306e-05
-1.08817e-05
3.88695e-06
-5.19111e-05
2.49426e-05
-1.33047e-05
2.42591e-05
-1.2496e-05
2.94607e-05
-9.41388e-06
3.75738e-05
-5.88584e-06
4.77518e-05
-2.71621e-06
5.97817e-05
-1.85522e-07
7.23179e-05
1.75e-06
8.68248e-05
4.04447e-06
0.000104314
6.13758e-06
0.000120864
6.04713e-06
0.000134992
4.47679e-06
0.000145882
2.42569e-06
0.000152841
1.75919e-08
0.000155008
-2.24711e-06
0.000153537
-4.80486e-06
0.000148952
-6.91253e-06
0.00014094
-8.89163e-06
0.000132588
-1.05912e-05
0.000125408
-1.20202e-05
0.000121542
-1.35634e-05
0.000120636
-1.43533e-05
0.000122787
-1.49796e-05
0.000129309
-1.58185e-05
0.000138717
-1.63706e-05
0.000148179
-1.68882e-05
0.000155269
-1.87884e-05
1.33156e-05
0.000158491
-2.20697e-05
7.24237e-06
0.000162165
5.26655e-06
0.000166535
7.83963e-06
0.000171401
-0.000113579
0.000107863
-0.000138429
0.000175644
1.47086e-05
-0.000149991
-0.000146029
0.000164249
-0.00011186
0.000189002
8.75324e-05
-0.000170098
-1.86757e-05
-7.12747e-05
0.000142294
-0.000110381
0.000143616
-0.000170982
0.000112913
0.000126077
-0.000116526
-9.80855e-05
-4.50442e-06
1.95977e-05
-6.81976e-05
-9.6938e-06
1.6035e-05
-2.47436e-05
0.000155005
1.02155e-05
0.000160328
8.84189e-06
0.000167241
1.11799e-05
0.000175359
1.68058e-05
0.000181586
-0.000178931
2.51104e-05
0.000185305
-0.000164993
2.35588e-05
-0.000147791
2.15692e-05
-0.000129267
1.85738e-05
-0.000116009
1.57613e-05
-0.000107048
1.30787e-05
-0.000106077
1.16013e-05
-0.00011321
1.12945e-05
-0.0001254
1.20341e-05
-0.000138868
1.25988e-05
-0.00015051
1.21287e-05
-0.000158142
1.16395e-05
-0.000161368
1.19224e-05
-0.000160878
1.31073e-05
-0.000156077
1.51686e-05
-0.000146923
1.82109e-05
-0.000134738
2.25938e-05
-0.000120182
2.66817e-05
-0.0001042
3.08696e-05
-8.68225e-05
3.36873e-05
-7.20646e-05
3.43534e-05
-5.85161e-05
3.16432e-05
-4.82201e-05
2.86874e-05
-3.96851e-05
2.52456e-05
-3.31323e-05
2.17779e-05
-3.06583e-05
1.80062e-05
-3.42334e-05
1.26472e-05
-4.47583e-05
5.16727e-06
-4.4658e-06
-6.05851e-05
-4.43661e-07
-2.1266e-06
-0.000100674
7.48233e-05
0.000111095
-0.000130049
0.000128852
-9.14207e-05
0.000128048
-0.000123449
0.000107295
0.00014172
3.0828e-06
1.82612e-05
0.000138064
1.71541e-05
-2.95694e-05
0.000122104
1.37664e-05
9.75271e-05
5.76558e-06
-8.40827e-06
7.13541e-05
-2.31141e-06
4.93942e-05
-8.0814e-06
6.21953e-06
3.42115e-05
-1.13644e-05
2.77387e-05
-1.1622e-05
2.791e-05
-9.62624e-06
3.27882e-05
-6.31407e-06
4.05394e-05
-2.76682e-06
5.02853e-05
5.07583e-07
6.17011e-05
2.98443e-06
7.41049e-05
5.34487e-06
8.83703e-05
7.35846e-06
0.000104186
8.96029e-06
0.000119629
9.35908e-06
0.000132935
8.64895e-06
0.00014305
7.01348e-06
0.000149523
4.43302e-06
0.000151477
2.91327e-06
0.000150273
1.75787e-07
0.00014562
-1.2814e-06
0.000138217
-2.87151e-06
0.000130219
-4.01143e-06
0.000123771
-5.61799e-06
0.000119689
-6.65101e-06
0.000118966
-8.26407e-06
0.000121645
-1.0829e-05
0.000128235
-1.38914e-05
0.000136942
-1.69339e-05
0.000145942
-2.07032e-05
0.00015267
-2.53156e-05
0.000154927
-3.03363e-05
-3.48537e-05
0.000152138
-2.54637e-06
0.000241745
-0.000200715
-5.01372e-05
-0.000138738
0.000131363
-0.000141673
0.000151723
-5.32396e-06
6.76382e-07
2.7095e-05
0.000119686
-1.83021e-05
-0.000125524
-0.000137311
-1.10182e-05
3.51485e-05
0.000122168
-0.000143676
-0.000116156
-2.50828e-05
-8.83553e-05
-0.000102951
-1.00133e-05
8.32653e-05
-0.000179347
0.000185287
3.52845e-05
-0.00016773
3.55233e-05
-0.000150194
3.21595e-05
-0.000133139
2.8914e-05
-0.0001185
2.26757e-05
-0.000108296
1.66193e-05
-0.000105835
1.10336e-05
-0.000112542
7.13785e-06
-0.000124967
5.40356e-06
-0.000138524
4.49894e-06
-0.000149961
4.25711e-06
-0.000156818
4.7339e-06
-0.000159188
5.93553e-06
-0.000157859
8.91326e-06
-0.000152087
1.23494e-05
-0.00014275
1.73187e-05
-0.000130308
2.26111e-05
-0.000116519
2.79201e-05
-0.000101878
3.23498e-05
-8.70786e-05
3.51565e-05
-7.31796e-05
3.63043e-05
-6.05284e-05
3.42108e-05
-5.03096e-05
3.20263e-05
-4.19278e-05
2.82528e-05
-3.62407e-05
2.3608e-05
-3.53782e-05
1.81772e-05
-4.12103e-05
1.09577e-05
-5.35779e-05
1.60493e-06
-7.15565e-05
-8.80757e-06
-1.53102e-05
-8.04956e-05
-0.000117205
-0.000116904
0.000131008
-7.99625e-05
-0.00017569
0.000170992
7.85782e-05
0.000148459
1.03197e-05
-0.000170523
0.00013692
1.05053e-05
0.000118141
9.20209e-06
9.31551e-05
3.29755e-06
6.82657e-05
-3.99727e-06
4.77821e-05
-8.66837e-06
3.46017e-05
-1.05069e-05
2.95871e-05
-9.535e-06
3.08737e-05
-6.78717e-06
3.61014e-05
-3.30456e-06
4.35913e-05
3.44048e-07
5.30382e-05
3.46381e-06
6.38164e-05
6.07566e-06
7.59669e-05
8.45358e-06
8.97267e-05
1.03015e-05
0.000104449
1.17397e-05
0.000118832
1.22958e-05
0.000131581
1.18194e-05
0.00014133
1.0524e-05
0.000146477
9.01837e-06
0.00014868
7.25754e-06
0.000147106
5.62477e-06
0.000142849
4.21878e-06
0.000135898
3.13452e-06
0.000128813
1.79203e-06
0.000121659
1.23594e-06
0.000116961
1.9523e-07
0.000116304
-2.44779e-06
0.000118391
-6.25765e-06
0.000123871
-1.036e-05
0.000132194
-1.57945e-05
0.000141015
-2.23061e-05
0.000147551
-2.90359e-05
0.000150216
-3.59909e-05
0.000148163
-4.2395e-05
3.92908e-05
-4.74561e-05
0.000140652
2.99301e-05
0.000143621
2.28044e-05
0.000145631
1.95227e-05
0.000151715
1.86426e-05
0.000161734
2.0573e-05
0.00017289
2.3428e-05
0.000182437
2.79745e-05
0.000187003
0.000185676
3.55365e-05
-0.000143502
-7.1156e-06
1.30527e-05
-3.65727e-06
4.12673e-06
-0.000193327
0.000181344
-8.29804e-05
6.30931e-05
-6.96124e-05
8.99894e-05
-0.000174014
-0.000104523
0.000122515
0.000143274
-0.000149463
-4.02818e-05
5.29428e-05
0.000119104
-9.11014e-05
-2.10227e-05
-2.81703e-05
-0.000103918
-0.000101354
-0.000122283
0.000114877
-0.000134069
-8.54412e-05
5.32535e-05
-0.000137432
8.23511e-05
-9.46693e-05
0.000166415
0.000100913
0.000132197
0.000149085
-0.000160195
7.34425e-06
0.000132417
8.41818e-06
0.000112915
4.87199e-06
8.91019e-05
3.92076e-07
6.57503e-05
-5.3657e-06
4.71336e-05
-8.63243e-06
3.5935e-05
-9.11457e-06
3.24116e-05
-7.3112e-06
3.43724e-05
-4.07612e-06
3.95676e-05
-4.41629e-07
4.68952e-05
3.07976e-06
5.58136e-05
6.25587e-06
6.60807e-05
8.84018e-06
7.78873e-05
1.10735e-05
9.11079e-05
1.28318e-05
0.000105048
1.41232e-05
0.000118583
1.46347e-05
0.000130367
1.43016e-05
0.000138901
1.36527e-05
0.000143702
1.25312e-05
0.000145412
1.11751e-05
0.000144505
9.89003e-06
0.000140558
9.08892e-06
0.000134743
7.88281e-06
0.000127225
7.6053e-06
0.000119465
7.4988e-06
0.000114242
5.64744e-06
0.000112264
2.70812e-06
0.000113326
-1.21536e-06
0.000117711
-6.39809e-06
0.000125758
-1.32072e-05
0.000133797
-2.0553e-05
0.000140624
-2.90736e-05
0.000143939
-3.71619e-05
0.00014345
-4.53235e-05
0.0001375
-5.12677e-05
5.23375e-05
-5.87963e-05
0.000127889
4.17446e-05
0.000130102
3.13532e-05
0.000130543
2.39056e-05
0.000131895
2.20829e-05
0.000138267
2.35091e-05
0.000151387
2.41274e-05
0.000167253
2.39545e-05
0.000179421
2.59942e-05
0.000183124
3.12073e-05
0.000179387
-0.00018036
0.000168855
4.10129e-05
-0.000183718
4.741e-05
-0.000180248
4.81747e-05
-0.000169886
4.77824e-05
-0.000155384
4.40941e-05
-0.000138517
3.83524e-05
-0.000124204
3.00376e-05
-0.000113522
2.09568e-05
-0.000109037
1.14866e-05
-0.000114149
4.0788e-06
-0.000125144
-1.0662e-06
-0.000138204
-3.69408e-06
-0.000148623
-4.41167e-06
-0.000154593
-2.99657e-06
-0.000156172
-7.90259e-07
-0.000153402
3.33514e-06
-0.000146363
8.44501e-06
-0.000136393
1.50901e-05
-0.000124683
2.16953e-05
-0.000112107
2.81011e-05
-9.91629e-05
3.31704e-05
-8.64392e-05
3.65082e-05
-7.41917e-05
3.82459e-05
-6.27713e-05
3.65799e-05
-5.31241e-05
3.46223e-05
-4.52104e-05
3.04086e-05
-4.07697e-05
2.49255e-05
-4.17824e-05
1.79667e-05
-4.96785e-05
9.0742e-06
-6.4085e-05
-1.28003e-06
-1.34563e-05
-8.18447e-05
-0.000116507
-0.000114893
0.000125087
-3.22556e-05
-0.000111084
-0.00013853
-3.33803e-05
4.29087e-05
-5.51325e-06
-9.73159e-05
-0.000128231
0.000152524
-0.000136636
-9.2164e-05
0.000147275
-9.37026e-05
-9.56178e-05
0.000128012
-0.000150169
-8.92474e-05
0.000155463
7.19412e-06
1.12964e-05
0.000159002
1.69991e-06
-0.000163356
0.00014441
7.51801e-06
0.000128522
5.55764e-06
0.000108175
1.70228e-06
8.57326e-05
-2.73943e-06
6.4059e-05
-6.5846e-06
4.74403e-05
-8.46387e-06
3.801e-05
-7.58913e-06
3.56433e-05
-5.22573e-06
3.80319e-05
-1.67463e-06
4.3147e-05
2.02769e-06
5.01221e-05
5.48537e-06
5.85448e-05
8.61395e-06
6.83355e-05
1.11106e-05
7.96558e-05
1.32232e-05
9.23607e-05
1.48211e-05
0.000105679
1.58564e-05
0.000118237
1.64372e-05
0.000129092
1.60288e-05
0.000137042
1.57193e-05
0.000141546
1.49473e-05
0.000143133
1.40185e-05
0.000142532
1.31052e-05
0.000139451
1.24912e-05
0.000133505
1.19885e-05
0.000125693
1.22124e-05
0.000118149
1.13413e-05
0.000111538
9.77451e-06
0.000107274
7.36676e-06
0.000107148
3.14298e-06
0.000111097
-2.49299e-06
0.000117535
-8.61973e-06
0.000125929
-1.66053e-05
0.000132828
-2.50389e-05
0.000136267
-3.28612e-05
0.000136606
-4.23591e-05
0.000131949
-4.8619e-05
0.000122528
-5.8709e-05
6.6215e-05
0.000106295
-6.62519e-05
5.66602e-05
0.000114035
4.39181e-05
0.000114027
3.45391e-05
0.000109953
3.43674e-05
0.000105783
4.00097e-05
0.00011338
4.32221e-05
0.000135193
3.894e-05
0.000163034
3.24281e-05
0.000179255
2.65239e-05
0.000181452
2.60379e-05
0.000170553
3.3185e-05
0.000150178
-0.000157644
0.000128557
4.67795e-05
-0.000175771
5.43903e-05
-0.00018275
6.14737e-05
-0.000181079
6.1467e-05
-0.000173086
5.98608e-05
-0.000160738
5.43747e-05
-0.00014636
4.71387e-05
-0.000132917
3.66321e-05
-0.000122561
2.50297e-05
-0.000116474
1.27297e-05
-0.000118355
1.50487e-06
-0.000127085
-6.37234e-06
-0.000138221
-1.11286e-05
-0.000147134
-1.24815e-05
-0.000151441
-1.09842e-05
-0.000151924
-7.64706e-06
-0.000147711
-2.62514e-06
-0.000139668
4.27304e-06
-0.000129144
1.18372e-05
-0.000118033
1.98018e-05
-0.000106848
2.71912e-05
-9.58503e-05
3.31562e-05
-8.51837e-05
3.72075e-05
-7.44179e-05
3.93516e-05
-6.47745e-05
3.85484e-05
-5.62929e-05
3.65634e-05
-4.96969e-05
3.20761e-05
-4.6687e-05
2.57108e-05
-4.96654e-05
1.75599e-05
-5.92838e-05
7.38769e-06
-7.40619e-05
-4.18006e-06
-1.6457e-05
-9.17649e-05
-0.000100405
-2.57528e-05
-0.000106805
-0.000120159
-0.000108227
-0.00011844
0.000125069
5.9161e-05
0.000130702
-0.000145107
-5.26115e-05
-0.000116072
-3.74597e-05
-0.000145278
-7.44694e-05
4.2866e-05
-0.000151523
-8.64297e-05
-0.000146128
-9.20617e-05
-1.78333e-05
-2.90205e-05
-0.00010767
-5.9628e-05
-0.000128126
4.43029e-06
-0.000126391
-3.83061e-05
-9.78361e-05
-0.000125304
-0.000130115
-9.74304e-05
7.3108e-05
-7.80494e-05
8.86909e-05
6.07747e-05
9.98129e-05
4.65253e-05
0.000100722
3.63517e-05
9.60625e-05
3.34414e-05
9.05919e-05
3.76163e-05
9.63863e-05
4.16784e-05
0.000122202
3.87804e-05
0.000157715
2.89977e-05
0.000179528
1.88421e-05
0.000179125
1.31565e-05
0.000159909
1.53206e-05
0.00012704
2.35387e-05
9.43208e-05
-0.000118861
3.11055e-05
8.12013e-05
-0.000152298
5.82656e-05
-0.000173863
6.59759e-05
-0.000183811
7.30537e-05
-0.000184171
7.28429e-05
-0.000178165
6.9921e-05
-0.000168088
6.24305e-05
-0.000156051
5.38266e-05
-0.000143731
4.1593e-05
-0.000134073
2.80549e-05
-0.000126833
1.3643e-05
-0.000126194
-1.87295e-08
-0.000131116
-1.08341e-05
-0.000139002
-1.71168e-05
-0.000145264
-1.9345e-05
-0.000147689
-1.80075e-05
-0.000146866
-1.39546e-05
-0.00014097
-8.02675e-06
-0.000131443
-3.26601e-07
-0.000120967
8.39139e-06
-0.000110553
1.71435e-05
-0.000100854
2.52766e-05
-9.18267e-05
3.20302e-05
-8.32184e-05
3.6871e-05
-7.44667e-05
3.95514e-05
-6.65465e-05
3.94241e-05
-5.98423e-05
3.78467e-05
-5.4776e-05
3.29071e-05
-5.38872e-05
2.61676e-05
-5.87107e-05
1.67776e-05
-6.93425e-05
5.69189e-06
-8.41353e-05
-6.37187e-06
-1.79895e-05
-0.000101095
-2.93069e-05
-0.000108706
0.000110566
-0.000111094
-0.000121446
-9.58084e-05
-0.000126569
8.08997e-05
-5.08312e-05
5.75575e-05
-8.0688e-05
0.000129281
2.01947e-05
-0.000128391
-1.68057e-05
0.000139342
6.22927e-06
-0.000152024
0.000124534
2.27781e-06
0.000105097
-1.62051e-06
8.33164e-05
-5.25012e-06
6.32409e-05
-7.55059e-06
4.83901e-05
-8.22517e-06
4.06081e-05
-6.36308e-06
3.91272e-05
-3.55705e-06
4.17164e-05
1.95402e-07
4.66675e-05
3.94247e-06
5.31982e-05
7.35033e-06
6.11697e-05
1.03065e-05
7.04497e-05
1.27754e-05
8.12981e-05
1.47406e-05
9.34832e-05
1.61279e-05
0.000106087
1.69276e-05
0.000118213
1.71477e-05
0.000128156
1.70876e-05
0.000135613
1.67487e-05
0.000139933
1.62356e-05
0.00014138
1.56929e-05
0.000141034
1.51423e-05
0.00013812
1.47846e-05
0.00013257
1.45892e-05
0.000125405
1.44938e-05
0.000116465
1.41894e-05
0.000108242
1.26223e-05
0.000102613
1.05998e-05
0.000101367
6.65738e-06
0.000104171
1.92232e-06
0.00011003
-3.51546e-06
0.000117898
-1.02775e-05
0.000124257
-1.73083e-05
0.000128338
-2.47171e-05
0.000129183
-3.43203e-05
0.000125198
-3.99568e-05
0.000116494
-5.19544e-05
9.72765e-05
-5.67296e-05
7.58555e-05
-7.44892e-05
-9.82312e-05
-0.00012074
0.000125808
-0.000111408
-0.000112739
0.000188398
-6.89836e-06
9.3307e-06
-0.00020496
-0.000113628
-4.57123e-05
-9.15915e-05
-0.000126196
-4.50292e-05
-0.000118432
8.63866e-05
3.41082e-05
-0.000150882
6.13551e-05
-0.000172605
7.12727e-05
-0.000185603
7.96327e-05
-0.000188501
7.92261e-05
-0.000184866
7.66122e-05
-0.000177089
6.79499e-05
-0.000167009
5.75854e-05
-0.000156711
4.48292e-05
-0.000147027
2.95234e-05
-0.000139738
1.3753e-05
-0.000136104
-1.3861e-06
-0.000137231
-1.39098e-05
-0.000140631
-2.16864e-05
-0.000143426
-2.4415e-05
-0.000144046
-2.32418e-05
-0.000140717
-1.922e-05
-0.000132967
-1.257e-05
-0.00012278
-4.27502e-06
-0.000112008
4.73315e-06
-0.000102348
1.40207e-05
-9.40438e-05
2.25236e-05
-8.69878e-05
2.98172e-05
-8.04289e-05
3.53209e-05
-7.40678e-05
3.87348e-05
-6.84859e-05
3.94403e-05
-6.34853e-05
3.79022e-05
-6.05704e-05
3.29871e-05
-6.20024e-05
2.59206e-05
-6.85964e-05
1.56801e-05
-7.96194e-05
3.92777e-06
-9.34927e-05
-7.85322e-06
-0.000108822
-1.77929e-05
-3.07025e-05
-0.000116638
0.000128869
-0.000104839
8.55713e-05
-0.000127942
-8.09401e-05
8.92177e-05
-7.24117e-05
2.71072e-05
8.4632e-05
5.46865e-05
5.41659e-05
8.65662e-05
2.12479e-05
9.0836e-05
1.67783e-05
6.52242e-05
4.85863e-05
3.61976e-05
9.05894e-05
4.1327e-05
0.000111578
9.54427e-05
8.3809e-05
0.000176991
4.3214e-05
0.000206685
7.01524e-06
0.000195133
-1.53985e-05
0.000155066
-1.83929e-05
9.5196e-05
-2.11128e-06
3.92038e-05
2.02753e-05
1.82874e-05
3.73558e-05
4.0841e-05
0.00013535
-0.000106979
-0.000134244
0.000148977
-9.07749e-05
0.000149535
-8.43437e-05
0.000146719
-7.93621e-05
-7.75159e-05
-0.000121988
9.0775e-05
0.000122292
-6.35501e-05
-0.00016494
-8.38673e-05
8.38998e-05
-1.00121e-05
1.26853e-05
-6.65354e-05
-9.36284e-05
8.59759e-05
0.000133133
2.48117e-06
-0.000142119
0.000120001
-1.4651e-06
0.000101789
-4.77945e-06
8.1394e-05
-7.27514e-06
6.3179e-05
-8.47028e-06
4.98418e-05
-7.94598e-06
4.35143e-05
-5.7579e-06
4.26593e-05
-2.49741e-06
4.52954e-05
1.33758e-06
5.00189e-05
5.07627e-06
5.61332e-05
8.46177e-06
6.35006e-05
1.13437e-05
7.22689e-05
1.36825e-05
8.26365e-05
1.54739e-05
9.43291e-05
1.66056e-05
0.000106373
1.71939e-05
0.000117673
1.72842e-05
0.000127298
1.71021e-05
0.000134459
1.68006e-05
0.000138694
1.64895e-05
0.000140026
1.6257e-05
0.000139811
1.60182e-05
0.000137059
1.58473e-05
0.000131682
1.57054e-05
0.000124002
1.55001e-05
0.000114812
1.507e-05
0.000105424
1.40945e-05
9.87122e-05
1.24667e-05
9.59951e-05
9.88712e-06
9.83229e-05
6.26112e-06
0.000103539
2.06238e-06
0.000110116
-2.07354e-06
0.000116998
-8.21688e-06
0.000121434
-1.44781e-05
0.000122678
-2.32556e-05
0.000119433
-2.74559e-05
0.000112646
-4.16295e-05
9.47855e-05
-4.24698e-05
7.42316e-05
-6.69101e-05
2.98696e-05
-5.22336e-05
3.50485e-06
0.00018116
-8.97591e-06
-4.41333e-05
-0.000119099
-0.000105275
6.12384e-05
-8.58186e-05
-0.000125321
0.000128753
-9.94829e-05
-0.000123207
-0.000100635
-0.000116794
-0.000210096
-3.01405e-05
0.000217556
0.00021711
-1.84965e-05
-0.000211075
0.00012747
-4.54368e-05
-0.000140458
-2.24268e-05
-0.000129959
0.000116961
7.13557e-05
-8.13421e-05
-1.46088e-05
-0.00014682
2.04837e-05
3.31837e-05
-6.3671e-05
-7.10254e-05
0.000107917
-1.26665e-05
-0.000220095
-9.34144e-06
0.000225142
-9.88758e-05
9.17636e-05
3.75089e-05
-0.000119153
3.33148e-05
-0.00014545
5.55682e-05
-0.000169827
6.91306e-05
-0.000184681
8.05359e-05
-0.000192783
8.14908e-05
-0.00019197
7.83213e-05
-0.000186558
7.0198e-05
-0.000178786
5.90334e-05
-0.000170154
4.51565e-05
-0.00016161
2.96189e-05
-0.000153802
1.29047e-05
-0.000147584
-2.96203e-06
-0.00014411
-1.59668e-05
-0.000143
-2.42521e-05
-0.00014185
-2.74691e-05
-0.000139686
-2.6706e-05
-0.000133816
-2.24216e-05
-0.000124475
-1.56141e-05
-0.000113526
-7.34176e-06
-0.000102801
1.56543e-06
-9.36275e-05
1.04903e-05
-8.63943e-05
1.90158e-05
-8.10651e-05
2.6639e-05
-7.67131e-05
3.27596e-05
-7.27831e-05
3.66775e-05
-6.95174e-05
3.81778e-05
-6.71091e-05
3.71231e-05
-6.68858e-05
3.20843e-05
-7.06343e-05
2.46757e-05
-7.86106e-05
1.41461e-05
-8.97575e-05
2.46867e-06
-0.00010271
-8.05188e-06
-0.000114861
-1.63462e-05
-1.55411e-05
-0.000129267
0.000129611
-9.65405e-05
-0.000169774
0.000161428
-6.63152e-05
9.822e-05
-6.48887e-05
-0.00018467
0.00012251
-0.000117651
4.33169e-06
0.000126528
2.34906e-06
0.000113164
4.88532e-05
9.48944e-05
8.49217e-05
7.35668e-05
9.42246e-05
4.9721e-05
7.30463e-05
3.1938e-05
3.72149e-05
3.15493e-05
2.75343e-05
3.1e-05
8.29368e-05
2.60328e-05
0.000166463
1.03383e-05
0.000203603
-9.97062e-06
0.000191994
-2.75628e-05
0.000146837
-3.64083e-05
7.84613e-05
-2.92622e-05
9.17418e-06
-1.50861e-05
-1.39148e-05
1.42107e-06
2.02112e-05
1.76086e-05
8.06479e-05
-0.000114165
0.000149822
-8.0858e-05
0.000146758
-7.25963e-05
0.000140184
-6.78407e-05
0.000126879
-6.22975e-05
-7.59344e-05
0.000113023
-1.13551e-05
1.1011e-05
0.000112053
-0.000120729
0.000137362
6.26674e-06
-0.000139684
-1.17083e-05
0.000128281
4.63773e-07
0.000115635
-4.35303e-06
9.87062e-05
-7.33852e-06
7.99761e-05
-8.9355e-06
6.34517e-05
-9.15831e-06
5.18006e-05
-7.93252e-06
4.64221e-05
-5.43583e-06
4.5954e-05
-2.03376e-06
4.85585e-05
1.75215e-06
5.30182e-05
5.44146e-06
5.86887e-05
8.8073e-06
6.54828e-05
1.16308e-05
7.36241e-05
1.38547e-05
8.33724e-05
1.5466e-05
9.44102e-05
1.63823e-05
0.000105924
1.67096e-05
0.000116869
1.66089e-05
0.000126257
1.63129e-05
0.0001333
1.60294e-05
0.00013751
1.58681e-05
0.000138756
1.58372e-05
0.000138512
1.58133e-05
0.000135799
1.57193e-05
0.000130371
1.55213e-05
0.000122447
1.51525e-05
0.000112731
1.47226e-05
0.000102836
1.41945e-05
9.52163e-05
1.34707e-05
9.19382e-05
1.22931e-05
9.35978e-05
1.0514e-05
9.79608e-05
8.252e-06
0.000104139
5.25492e-06
0.000110491
1.08363e-06
0.000114894
-4.06286e-06
0.00011643
-1.14645e-05
0.000115665
-1.51459e-05
0.000111992
-3.07444e-05
9.92383e-05
-2.87751e-05
8.63629e-05
-6.20815e-05
6.54045e-05
-4.81815e-05
6.24165e-05
-0.00013281
0.000136885
-9.94353e-05
-0.000136489
-5.20814e-05
-0.000121982
9.65108e-05
-0.000119127
-0.000131456
0.000132138
-7.31642e-05
8.6181e-05
-0.000129357
-7.18779e-05
8.45506e-05
-7.20211e-05
-0.000127526
-0.000127241
-5.04419e-05
-0.00013024
-0.000121714
-8.77166e-05
-0.000109465
-0.000113503
0.000204348
-0.000212264
-1.81057e-05
0.000130422
-2.89504e-05
2.9327e-05
-0.000123371
-0.000163968
0.000150838
8.46685e-06
0.000106466
-5.66917e-05
0.000116097
3.26885e-05
-8.33781e-05
0.000133149
8.02053e-05
0.000191157
-0.000197702
7.57703e-07
-1.60221e-06
0.000182403
0.00011701
-1.97943e-05
0.000108976
-1.48274e-05
9.89122e-05
-8.2329e-06
8.8145e-05
1.3077e-06
7.91572e-05
1.21077e-05
7.31933e-05
2.24918e-05
7.00441e-05
3.037e-05
6.99406e-05
3.47894e-05
7.06296e-05
3.57538e-05
7.18597e-05
3.36856e-05
7.40628e-05
2.92751e-05
7.78171e-05
2.29166e-05
8.40907e-05
1.53461e-05
9.27098e-05
7.17729e-06
0.00010347
-8.98835e-07
0.000115197
-9.301e-06
0.000125954
-1.70845e-05
0.000134243
-2.35321e-05
0.000140051
-2.78141e-05
0.00014498
-2.85981e-05
0.000150933
-2.50324e-05
0.000158591
-1.68284e-05
0.000167163
-4.23648e-06
0.000175427
1.09757e-05
0.000183023
2.75717e-05
0.000189729
4.33893e-05
0.000195401
5.75756e-05
0.000197992
6.85437e-05
0.000193738
7.66531e-05
0.000182385
7.96848e-05
0.000161614
7.59421e-05
0.000133954
6.25804e-05
0.000113159
4.80986e-05
0.000105731
3.27312e-05
0.000130195
2.46061e-05
0.000125642
3.00163e-05
-2.86066e-07
0.000177673
-8.75294e-06
7.61194e-05
-7.40044e-05
2.29902e-05
8.99519e-05
-4.8948e-05
9.66892e-05
-4.59704e-05
9.67381e-05
1.32635e-05
2.74644e-05
0.000133451
-4.80686e-05
0.000171787
-2.21158e-05
6.41215e-05
7.67554e-05
-3.55626e-05
0.000154547
-3.75388e-05
0.000215969
1.86967e-05
0.000147001
0.00022048
2.96752e-05
0.000297196
-6.68686e-05
0.000259079
-9.03172e-05
0.000140707
-6.25551e-05
2.36497e-05
-5.15476e-05
-2.3865e-05
-2.41547e-05
-5.07142e-05
4.158e-05
-2.61837e-05
8.90525e-05
5.91887e-05
8.03084e-05
0.000152222
0.000137755
-9.20779e-05
-7.24269e-05
-0.000119627
-7.44847e-05
0.000130971
8.79814e-05
6.22076e-05
0.000234072
-0.000186515
-0.000123052
3.77984e-05
-0.00019937
1.97528e-05
-0.000201218
8.81311e-06
-0.000201513
0.000193836
-1.5917e-06
-0.000198624
0.000185341
-5.76455e-06
0.000178658
-8.17154e-06
2.15937e-07
3.84203e-06
0.0001643
0.000102545
-8.03341e-05
-1.72274e-06
0.000170287
-0.000173956
-6.64278e-06
2.08536e-05
0.000125437
-9.08794e-06
1.73951e-06
0.000119496
-0.000130098
1.14278e-05
0.000130256
-0.000131513
-5.96296e-05
0.000131191
-0.000130541
-5.88302e-05
-5.83956e-05
-0.000129626
-5.22603e-05
-0.000130939
0.000131761
-8.83093e-05
-0.000133178
2.20234e-05
-1.57907e-05
0.000153208
-6.05553e-05
0.000146045
-5.71585e-05
0.000136665
-5.34383e-05
0.000131795
-5.4664e-05
-5.98813e-05
0.000117078
-0.000110389
0.000164297
5.75462e-05
7.2379e-05
-4.14134e-05
-9.74963e-05
6.82486e-05
0.000135697
1.64888e-05
-1.91964e-05
-0.000136309
0.000131128
4.61504e-06
0.000124057
-1.66837e-06
0.000112172
-5.96698e-06
9.60739e-05
-8.59918e-06
7.86451e-05
-9.68698e-06
6.36353e-05
-9.42742e-06
5.33468e-05
-7.91858e-06
4.87802e-05
-5.30704e-06
4.86255e-05
-2.00579e-06
5.11467e-05
1.61041e-06
5.53336e-05
5.18376e-06
6.05254e-05
8.48106e-06
6.66914e-05
1.12225e-05
7.41375e-05
1.33212e-05
8.32239e-05
1.47295e-05
9.36485e-05
1.54618e-05
0.000104676
1.55651e-05
0.000115328
1.52894e-05
0.000124629
1.48682e-05
0.000131675
1.46202e-05
0.000135897
1.45536e-05
0.000137046
1.46157e-05
0.000136622
1.47159e-05
0.000133796
1.45703e-05
0.00012818
1.42823e-05
0.000120162
1.37112e-05
0.000110374
1.33703e-05
0.000100346
1.33647e-05
9.23018e-05
1.38259e-05
8.84692e-05
1.41355e-05
8.94641e-05
1.41763e-05
9.38361e-05
1.32521e-05
9.90504e-05
1.14396e-05
0.000104773
8.38579e-06
0.000108841
4.45602e-06
0.000111385
-2.13563e-06
0.000113433
-5.67755e-06
0.000113447
-2.16024e-05
0.000110908
-2.16244e-05
0.00010612
-6.08841e-05
0.000107017
-6.00003e-05
0.000110233
-0.000151195
0.000127237
-0.000118305
0.000131381
3.51954e-05
-0.000128943
0.000127523
3.31625e-05
-1.63262e-05
3.2029e-05
0.000119527
-0.000167325
-5.16982e-07
0.000167971
-7.45708e-06
0.000113059
1.37093e-06
-5.80256e-05
-0.000125011
-2.85688e-05
0.000167254
3.17649e-05
2.36054e-05
0.000104318
-1.06486e-05
1.23338e-05
0.000180922
-3.10679e-05
-0.000175961
-0.000121339
-9.26396e-05
-0.000114626
-7.37331e-05
-0.000125483
4.59987e-05
-0.00013113
0.000128579
0.000131268
-4.56601e-05
-0.000131848
0.00012965
0.000170283
-0.000131083
0.000188142
1.4874e-05
-1.13366e-05
-0.000184814
2.35811e-06
0.000176465
0.000125357
-9.59459e-05
-0.000141872
-0.000119709
1.82751e-05
0.000106194
5.89361e-06
-0.00019052
-1.52057e-05
-0.000197819
-1.35118e-05
-0.000201731
-1.32075e-05
0.000118401
-1.85579e-05
0.000113933
-1.4048e-05
0.000106355
-7.80129e-06
9.65818e-05
2.51898e-07
8.65697e-05
1.00054e-05
7.83843e-05
1.94683e-05
7.23684e-05
2.72742e-05
6.88648e-05
3.12867e-05
6.65812e-05
3.22966e-05
6.53002e-05
2.98615e-05
6.54675e-05
2.52375e-05
6.80483e-05
1.89005e-05
7.37164e-05
1.17964e-05
8.22256e-05
4.36908e-06
9.29231e-05
-2.7231e-06
0.000105194
-9.97484e-06
0.000117142
-1.68155e-05
0.000127589
-2.25649e-05
0.000136713
-2.65322e-05
0.000145796
-2.743e-05
0.000156248
-2.42435e-05
0.000167944
-1.67726e-05
0.000179213
-5.47422e-06
0.000188385
8.21152e-06
0.000195122
2.37473e-05
0.000200056
3.90898e-05
0.000203014
5.28427e-05
0.000201535
6.39886e-05
0.0001938
7.1861e-05
0.000176626
7.35212e-05
0.00014819
6.87527e-05
0.000118115
5.52922e-05
0.000102344
3.99136e-05
0.000102271
3.27405e-05
0.000144985
5.97044e-07
0.000143619
3.03731e-05
0.000186382
2.99963e-05
-0.000127973
-4.69408e-05
0.000117191
-0.000136483
-4.30602e-05
-0.000143876
-4.12391e-05
-0.000152513
-4.10907e-05
-0.000159999
-4.25314e-05
-0.000167653
-4.50723e-05
-6.16789e-05
6.64772e-05
4.28213e-05
-7.77544e-05
0.000134891
-0.000109946
9.84351e-05
-6.0175e-05
0.000128993
4.61451e-05
0.000124138
1.17851e-05
0.000159933
-1.52488e-05
-6.5252e-06
0.00017083
3.16013e-05
-0.000133262
-1.92656e-05
-4.48075e-05
-0.000132624
0.00010563
-4.80081e-05
3.04146e-05
-0.000113193
7.2068e-06
-5.09734e-05
-1.08314e-05
-0.000146142
0.00013751
-9.03028e-05
5.36275e-05
-3.96868e-05
-0.000200292
0.000178088
-0.000208866
-5.48365e-06
0.000188543
-4.47048e-05
-0.000171937
0.00019014
-0.000203851
0.000119187
0.000145015
5.03467e-05
0.000197847
-0.000118005
0.000225991
-8.53261e-05
0.00017824
4.3751e-05
0.000144327
0.000138013
0.000102505
0.000180509
2.58013e-05
0.000122793
-4.94618e-06
-1.31205e-05