/*--------------------------------*- C++ -*----------------------------------*\
| =========                 |                                                 |
| \\      /  F ield         | OpenFOAM: The Open Source CFD Toolbox           |
|  \\    /   O peration     | Version:  2212                                  |
|   \\  /    A nd           | Website:  www.openfoam.com                      |
|    \\/     M anipulation  |                                                 |
\*---------------------------------------------------------------------------*/
FoamFile
{
    version     2.0;
    format      ascii;
    arch        "LSB;label=32;scalar=64";
    class       volScalarField;
    location    "0.1418";
    object      s;
}
// * * * * * * * * * * * * * * * * * * * * * * * * * * * * * * * * * * * * * //

dimensions      [0 0 0 0 0 0 0];

internalField   nonuniform List<scalar> 
24240
(
1.13147e-107
1.12006e-107
1.14232e-107
1.09628e-107
1.12839e-107
1.12177e-107
1.12386e-107
1.09227e-107
1.10087e-107
1.13314e-107
1.1009e-107
1.1414e-107
1.0969e-107
1.12856e-107
1.08871e-107
1.13961e-107
1.08527e-107
1.10421e-107
1.11899e-107
1.07417e-107
1.02731e-104
1.01662e-104
1.0367e-104
9.95293e-105
1.02407e-104
1.01829e-104
1.02011e-104
9.91357e-105
9.99299e-105
1.02842e-104
9.99487e-105
1.03587e-104
9.95911e-105
1.02446e-104
9.88534e-105
1.03448e-104
9.85362e-105
1.00238e-104
1.01564e-104
9.75302e-105
5.23495e-102
5.1787e-102
5.28053e-102
5.07142e-102
5.21616e-102
5.18796e-102
5.19679e-102
5.04981e-102
5.09083e-102
5.23863e-102
5.09269e-102
5.27619e-102
5.07482e-102
5.21948e-102
5.03759e-102
5.27038e-102
5.02089e-102
5.10702e-102
5.17378e-102
4.96966e-102
1.50688e-99
1.49014e-99
1.51936e-99
1.45969e-99
1.50082e-99
1.49308e-99
1.49546e-99
1.45302e-99
1.46494e-99
1.50741e-99
1.46577e-99
1.5181e-99
1.46076e-99
1.5022e-99
1.45017e-99
1.51682e-99
1.44513e-99
1.46983e-99
1.48883e-99
1.43037e-99
3.20944e-97
3.17247e-97
3.23474e-97
3.10857e-97
3.19513e-97
3.17953e-97
3.18408e-97
3.09331e-97
3.11876e-97
3.20948e-97
3.12125e-97
3.2319e-97
3.11099e-97
3.19899e-97
3.08881e-97
3.23005e-97
3.07714e-97
3.12992e-97
3.16999e-97
3.04553e-97
4.70698e-95
4.65048e-95
4.74242e-95
4.55835e-95
4.68399e-95
4.66251e-95
4.6681e-95
4.5343e-95
4.57132e-95
4.70571e-95
4.57631e-95
4.73797e-95
4.56212e-95
4.69121e-95
4.53041e-95
4.7367e-95
4.51102e-95
4.58942e-95
4.6478e-95
4.46399e-95
4.92514e-93
4.86265e-93
4.96099e-93
4.76825e-93
4.89895e-93
4.87818e-93
4.88204e-93
4.74087e-93
4.77822e-93
4.92276e-93
4.78553e-93
4.95547e-93
4.77227e-93
4.90836e-93
4.74061e-93
4.95606e-93
4.71552e-93
4.80064e-93
4.86184e-93
4.66473e-93
3.41525e-91
3.36822e-91
3.43976e-91
3.30459e-91
3.39549e-91
3.38248e-91
3.38274e-91
3.28345e-91
3.30688e-91
3.41325e-91
3.3145e-91
3.43478e-91
3.30737e-91
3.40371e-91
3.28736e-91
3.43719e-91
3.26341e-91
3.32737e-91
3.37058e-91
3.2259e-91
6.2531e-90
6.18327e-90
6.2788e-90
6.06036e-90
6.21131e-90
6.18292e-90
6.20037e-90
6.02898e-90
6.09294e-90
6.23402e-90
6.09515e-90
6.28062e-90
6.06871e-90
6.2231e-90
6.01744e-90
6.28039e-90
6.02607e-90
6.098e-90
6.16164e-90
5.97517e-90
5.3546e-90
5.36815e-90
5.34036e-90
5.23919e-90
5.32626e-90
5.28615e-90
5.36129e-90
5.24555e-90
5.37062e-90
5.30916e-90
5.3238e-90
5.37828e-90
5.25219e-90
5.31143e-90
5.15914e-90
5.3352e-90
5.32855e-90
5.25316e-90
5.26596e-90
5.33511e-90
7.86255e-90
7.97707e-90
8.00168e-90
7.90774e-90
7.84352e-90
7.90717e-90
8.04319e-90
7.85424e-90
8.09343e-90
8.05204e-90
8.0385e-90
8.07683e-90
7.94689e-90
7.8565e-90
7.78552e-90
7.92175e-90
7.86883e-90
7.84871e-90
7.90743e-90
7.97007e-90
9.36553e-90
9.45646e-90
9.48806e-90
9.37313e-90
9.28791e-90
9.09525e-90
9.29812e-90
9.10412e-90
9.40555e-90
9.67265e-90
9.59622e-90
9.28357e-90
9.5555e-90
9.4024e-90
9.39143e-90
9.46437e-90
9.04659e-90
9.44886e-90
9.26883e-90
9.31077e-90
1.06058e-89
1.08975e-89
1.07942e-89
1.07088e-89
1.07623e-89
1.08691e-89
1.12181e-89
1.0735e-89
1.08044e-89
1.06962e-89
1.07413e-89
1.07332e-89
1.0793e-89
1.07283e-89
1.05272e-89
1.07365e-89
1.08188e-89
1.06083e-89
1.05564e-89
1.06164e-89
1.18023e-89
1.18629e-89
1.20077e-89
1.21786e-89
1.20388e-89
1.22237e-89
1.19959e-89
1.21807e-89
1.20884e-89
1.15521e-89
1.175e-89
1.17364e-89
1.18528e-89
1.15982e-89
1.15965e-89
1.16746e-89
1.16678e-89
1.18635e-89
1.17532e-89
1.19836e-89
1.20032e-89
1.2061e-89
1.22652e-89
1.21903e-89
1.20277e-89
1.21491e-89
1.22064e-89
1.23809e-89
1.20076e-89
1.21977e-89
1.21243e-89
1.21386e-89
1.23179e-89
1.21394e-89
1.20306e-89
1.25035e-89
1.20816e-89
1.19607e-89
1.21222e-89
1.22649e-89
1.23499e-89
1.20998e-89
1.22884e-89
1.21274e-89
1.23155e-89
1.23948e-89
1.24674e-89
1.23278e-89
1.20066e-89
1.2125e-89
1.20473e-89
1.24878e-89
1.23348e-89
1.25622e-89
1.24959e-89
1.25137e-89
1.23756e-89
1.2346e-89
1.21996e-89
1.22728e-89
1.12211e-89
1.13571e-89
1.12369e-89
1.17066e-89
1.13748e-89
1.16648e-89
1.1443e-89
1.15153e-89
1.13711e-89
1.1401e-89
1.13715e-89
1.1606e-89
1.14263e-89
1.17602e-89
1.13172e-89
1.16106e-89
1.1542e-89
1.11366e-89
1.15858e-89
1.15457e-89
1.03012e-89
1.07891e-89
1.05958e-89
1.05656e-89
1.03953e-89
1.09352e-89
1.07591e-89
1.07475e-89
1.06794e-89
1.04476e-89
1.06871e-89
1.09014e-89
1.05854e-89
1.11525e-89
1.06795e-89
1.08887e-89
1.1005e-89
1.06871e-89
1.09338e-89
1.09477e-89
9.19549e-90
9.16934e-90
9.09165e-90
9.26414e-90
9.40873e-90
9.36243e-90
9.19276e-90
9.13069e-90
9.44382e-90
9.10672e-90
9.36504e-90
9.36073e-90
9.17281e-90
9.45695e-90
9.44249e-90
9.60241e-90
9.28507e-90
9.52089e-90
9.38882e-90
9.67258e-90
6.88054e-90
6.94202e-90
6.88717e-90
6.84449e-90
7.01312e-90
6.93511e-90
7.07067e-90
6.93537e-90
7.07246e-90
7.1108e-90
6.97764e-90
7.17311e-90
6.93799e-90
7.22199e-90
6.96304e-90
6.95562e-90
7.06552e-90
7.1718e-90
7.04372e-90
7.26775e-90
5.55147e-106
5.49434e-106
5.60197e-106
5.37883e-106
5.53394e-106
5.50253e-106
5.51288e-106
5.35779e-106
5.40112e-106
5.55723e-106
5.40171e-106
5.59757e-106
5.38196e-106
5.53557e-106
5.34158e-106
5.58965e-106
5.32577e-106
5.4166e-106
5.48793e-106
5.27188e-106
5.49122e-103
5.43297e-103
5.53874e-103
5.32015e-103
5.47152e-103
5.44174e-103
5.45161e-103
5.29779e-103
5.34133e-103
5.49484e-103
5.34282e-103
5.53441e-103
5.32359e-103
5.47453e-103
5.28394e-103
5.52788e-103
5.26801e-103
5.357e-103
5.42665e-103
5.21482e-103
2.92358e-100
2.89159e-100
2.94759e-100
2.83233e-100
2.91183e-100
2.89671e-100
2.90171e-100
2.81959e-100
2.84308e-100
2.92448e-100
2.8444e-100
2.94535e-100
2.83438e-100
2.91428e-100
2.81347e-100
2.94261e-100
2.80471e-100
2.85177e-100
2.88838e-100
2.77643e-100
8.78133e-98
8.68218e-98
8.8497e-98
8.50668e-98
8.74227e-98
8.69914e-98
8.71323e-98
8.46585e-98
8.53711e-98
8.78108e-98
8.54277e-98
8.84305e-98
8.51351e-98
8.75227e-98
8.45141e-98
8.83712e-98
8.42383e-98
8.56458e-98
8.67318e-98
8.33885e-98
1.89342e-95
1.87129e-95
1.90738e-95
1.83402e-95
1.88417e-95
1.8754e-95
1.87814e-95
1.82461e-95
1.84003e-95
1.89274e-95
1.84167e-95
1.90591e-95
1.8356e-95
1.88691e-95
1.82242e-95
1.90515e-95
1.81597e-95
1.84639e-95
1.86955e-95
1.79757e-95
2.82229e-93
2.78801e-93
2.84207e-93
2.7334e-93
2.8073e-93
2.79509e-93
2.79857e-93
2.71841e-93
2.74123e-93
2.82051e-93
2.74446e-93
2.83975e-93
2.73591e-93
2.81235e-93
2.71671e-93
2.83949e-93
2.70586e-93
2.75171e-93
2.78593e-93
2.67807e-93
2.90898e-91
2.8718e-91
2.92852e-91
2.81666e-91
2.89225e-91
2.88066e-91
2.88319e-91
2.79997e-91
2.8228e-91
2.90648e-91
2.82728e-91
2.92574e-91
2.81933e-91
2.89857e-91
2.80031e-91
2.92655e-91
2.78664e-91
2.83545e-91
2.87067e-91
2.75718e-91
1.99795e-89
1.9705e-89
2.01103e-89
1.93363e-89
1.98553e-89
1.97835e-89
1.97886e-89
1.92101e-89
1.93545e-89
1.99596e-89
1.93988e-89
2.00859e-89
1.93548e-89
1.99082e-89
1.92339e-89
2.01021e-89
1.91071e-89
1.94668e-89
1.97115e-89
1.8893e-89
3.59242e-88
3.55148e-88
3.60596e-88
3.482e-88
3.56713e-88
3.55204e-88
3.56169e-88
3.46304e-88
3.50007e-88
3.58092e-88
3.5019e-88
3.60725e-88
3.48707e-88
3.57513e-88
3.45776e-88
3.60778e-88
3.46217e-88
3.50334e-88
3.53924e-88
3.43305e-88
3.04874e-88
3.05612e-88
3.04079e-88
2.98385e-88
3.03242e-88
3.01075e-88
3.05304e-88
2.9867e-88
3.05854e-88
3.02317e-88
3.032e-88
3.06207e-88
2.99132e-88
3.02466e-88
2.93872e-88
3.0373e-88
3.03401e-88
2.99136e-88
2.99852e-88
3.03785e-88
4.48281e-88
4.54691e-88
4.56212e-88
4.5076e-88
4.47135e-88
4.50697e-88
4.58397e-88
4.47618e-88
4.61312e-88
4.58835e-88
4.58249e-88
4.6023e-88
4.53017e-88
4.47853e-88
4.43834e-88
4.51499e-88
4.48495e-88
4.4741e-88
4.50781e-88
4.5429e-88
5.30704e-88
5.35818e-88
5.37629e-88
5.30982e-88
5.2632e-88
5.1543e-88
5.2699e-88
5.16016e-88
5.33032e-88
5.48001e-88
5.43677e-88
5.26069e-88
5.41463e-88
5.32733e-88
5.32145e-88
5.36228e-88
5.12619e-88
5.35296e-88
5.25085e-88
5.27494e-88
6.01031e-88
6.17342e-88
6.11668e-88
6.0681e-88
6.09942e-88
6.1591e-88
6.35583e-88
6.08372e-88
6.12249e-88
6.06006e-88
6.08594e-88
6.08202e-88
6.11698e-88
6.08164e-88
5.96775e-88
6.08471e-88
6.13125e-88
6.01269e-88
5.98346e-88
6.01686e-88
6.6193e-88
6.65148e-88
6.73114e-88
6.82864e-88
6.75116e-88
6.8534e-88
6.72593e-88
6.83025e-88
6.77672e-88
6.47845e-88
6.58851e-88
6.58206e-88
6.64672e-88
6.50487e-88
6.50267e-88
6.54775e-88
6.54176e-88
6.65241e-88
6.59025e-88
6.72033e-88
6.73809e-88
6.76861e-88
6.88414e-88
6.84073e-88
6.75044e-88
6.82026e-88
6.85137e-88
6.94907e-88
6.74017e-88
6.84737e-88
6.807e-88
6.81463e-88
6.91261e-88
6.81499e-88
6.75487e-88
7.01694e-88
6.78215e-88
6.71353e-88
6.80389e-88
6.88106e-88
6.83165e-88
6.69255e-88
6.79482e-88
6.70758e-88
6.81221e-88
6.85641e-88
6.89492e-88
6.8182e-88
6.64171e-88
6.70634e-88
6.66213e-88
6.90525e-88
6.823e-88
6.94835e-88
6.91159e-88
6.92096e-88
6.84459e-88
6.82964e-88
6.74793e-88
6.78814e-88
6.22486e-88
6.30071e-88
6.23358e-88
6.49391e-88
6.30881e-88
6.46939e-88
6.34601e-88
6.38817e-88
6.30764e-88
6.32426e-88
6.30896e-88
6.43785e-88
6.33718e-88
6.52297e-88
6.27725e-88
6.43919e-88
6.40186e-88
6.17813e-88
6.42617e-88
6.40492e-88
5.62767e-88
5.89326e-88
5.78838e-88
5.77e-88
5.67844e-88
5.97229e-88
5.87594e-88
5.87028e-88
5.83272e-88
5.7067e-88
5.83658e-88
5.95325e-88
5.78197e-88
6.08958e-88
5.8317e-88
5.94565e-88
6.0088e-88
5.83735e-88
5.97133e-88
5.9788e-88
5.05714e-88
5.04244e-88
5.00086e-88
5.09543e-88
5.1738e-88
5.14828e-88
5.05463e-88
5.02359e-88
5.19408e-88
5.00909e-88
5.15028e-88
5.14833e-88
5.04357e-88
5.20094e-88
5.19229e-88
5.28124e-88
5.10623e-88
5.2352e-88
5.16251e-88
5.31809e-88
3.77483e-88
3.80821e-88
3.77858e-88
3.75479e-88
3.84615e-88
3.80414e-88
3.87697e-88
3.80442e-88
3.87763e-88
3.8997e-88
3.82631e-88
3.93321e-88
3.80533e-88
3.9603e-88
3.8185e-88
3.8146e-88
3.87397e-88
3.93264e-88
3.86264e-88
3.98469e-88
3.47587e-104
3.43928e-104
3.50584e-104
3.36778e-104
3.46342e-104
3.44452e-104
3.45101e-104
3.3538e-104
3.38158e-104
3.47819e-104
3.38236e-104
3.50334e-104
3.37004e-104
3.46528e-104
3.34473e-104
3.49907e-104
3.33527e-104
3.39109e-104
3.43505e-104
3.30184e-104
3.38822e-101
3.35151e-101
3.41591e-101
3.28271e-101
3.37461e-101
3.35701e-101
3.36311e-101
3.26812e-101
3.29563e-101
3.38922e-101
3.29694e-101
3.41351e-101
3.28512e-101
3.37732e-101
3.26061e-101
3.41015e-101
3.25124e-101
3.30511e-101
3.34736e-101
3.21875e-101
1.76629e-98
1.74658e-98
1.77994e-98
1.71121e-98
1.75843e-98
1.74971e-98
1.75274e-98
1.7031e-98
1.71763e-98
1.7662e-98
1.71862e-98
1.77873e-98
1.71259e-98
1.76036e-98
1.69992e-98
1.77742e-98
1.69489e-98
1.72276e-98
1.74448e-98
1.67799e-98
5.29572e-96
5.23487e-96
5.33436e-96
5.13032e-96
5.2699e-96
5.24518e-96
5.25372e-96
5.1045e-96
5.14848e-96
5.29371e-96
5.15248e-96
5.33085e-96
5.13489e-96
5.27732e-96
5.09727e-96
5.32829e-96
5.08152e-96
5.16468e-96
5.2289e-96
5.03086e-96
1.1219e-93
1.10858e-93
1.12961e-93
1.08677e-93
1.11593e-93
1.11102e-93
1.11266e-93
1.08095e-93
1.09031e-93
1.12111e-93
1.0914e-93
1.12886e-93
1.08781e-93
1.11786e-93
1.07994e-93
1.12862e-93
1.07635e-93
1.09398e-93
1.10741e-93
1.06559e-93
1.65756e-91
1.63718e-91
1.66831e-91
1.6055e-91
1.64804e-91
1.64128e-91
1.64339e-91
1.59635e-91
1.61012e-91
1.65594e-91
1.61216e-91
1.66717e-91
1.60713e-91
1.65147e-91
1.59574e-91
1.66731e-91
1.5898e-91
1.61607e-91
1.6357e-91
1.57373e-91
1.6806e-89
1.65897e-89
1.69096e-89
1.62748e-89
1.67021e-89
1.66393e-89
1.66552e-89
1.61753e-89
1.63116e-89
1.67856e-89
1.63385e-89
1.68963e-89
1.6292e-89
1.67432e-89
1.61804e-89
1.69037e-89
1.61078e-89
1.63815e-89
1.65795e-89
1.59407e-89
1.14055e-87
1.1249e-87
1.14729e-87
1.10407e-87
1.13296e-87
1.12913e-87
1.12961e-87
1.09672e-87
1.10538e-87
1.13896e-87
1.10789e-87
1.14617e-87
1.10526e-87
1.13628e-87
1.09814e-87
1.14722e-87
1.09164e-87
1.11137e-87
1.12487e-87
1.07973e-87
2.0135e-86
1.9901e-86
2.0204e-86
1.9518e-86
1.9986e-86
1.99085e-86
1.99604e-86
1.94065e-86
1.96156e-86
2.00677e-86
1.96291e-86
2.02126e-86
1.9548e-86
2.00379e-86
1.93845e-86
2.02194e-86
1.94061e-86
1.96361e-86
1.98333e-86
1.92436e-86
1.69168e-86
1.69559e-86
1.68737e-86
1.65614e-86
1.68251e-86
1.67116e-86
1.69433e-86
1.65728e-86
1.6975e-86
1.67766e-86
1.68284e-86
1.69899e-86
1.66032e-86
1.67859e-86
1.63135e-86
1.6851e-86
1.68356e-86
1.66006e-86
1.66395e-86
1.68575e-86
2.49169e-86
2.52664e-86
2.53576e-86
2.50492e-86
2.48499e-86
2.50441e-86
2.54687e-86
2.48695e-86
2.56336e-86
2.54894e-86
2.54673e-86
2.55661e-86
2.5176e-86
2.48884e-86
2.46667e-86
2.50869e-86
2.49208e-86
2.48638e-86
2.50525e-86
2.5244e-86
2.93367e-86
2.96171e-86
2.97184e-86
2.93434e-86
2.90951e-86
2.84946e-86
2.9137e-86
2.85318e-86
2.94686e-86
3.0287e-86
3.00481e-86
2.9081e-86
2.99308e-86
2.94454e-86
2.94147e-86
2.96375e-86
2.8336e-86
2.9583e-86
2.90183e-86
2.91531e-86
3.32385e-86
3.4128e-86
3.38242e-86
3.35547e-86
3.37332e-86
3.40584e-86
3.51405e-86
3.36452e-86
3.38568e-86
3.35057e-86
3.36503e-86
3.36324e-86
3.38318e-86
3.3644e-86
3.30144e-86
3.36522e-86
3.39086e-86
3.32572e-86
3.30964e-86
3.32777e-86
3.63012e-86
3.64679e-86
3.68957e-86
3.74397e-86
3.70194e-86
3.75717e-86
3.68754e-86
3.74508e-86
3.71467e-86
3.55258e-86
3.61241e-86
3.60953e-86
3.64462e-86
3.56736e-86
3.56545e-86
3.59087e-86
3.5864e-86
3.64759e-86
3.61332e-86
3.6851e-86
3.70025e-86
3.71609e-86
3.78002e-86
3.75528e-86
3.70624e-86
3.74558e-86
3.76199e-86
3.81552e-86
3.70117e-86
3.76027e-86
3.73857e-86
3.74256e-86
3.79504e-86
3.7427e-86
3.71019e-86
3.85237e-86
3.72445e-86
3.68634e-86
3.73596e-86
3.77673e-86
3.7089e-86
3.63298e-86
3.68731e-86
3.64096e-86
3.69807e-86
3.72225e-86
3.74231e-86
3.70088e-86
3.60574e-86
3.64032e-86
3.61564e-86
3.74737e-86
3.704e-86
3.77183e-86
3.75183e-86
3.75658e-86
3.71525e-86
3.70784e-86
3.6631e-86
3.68476e-86
3.39145e-86
3.43285e-86
3.39615e-86
3.53765e-86
3.43639e-86
3.52358e-86
3.45627e-86
3.48037e-86
3.43615e-86
3.44531e-86
3.43748e-86
3.50707e-86
3.45175e-86
3.55314e-86
3.41948e-86
3.50716e-86
3.48716e-86
3.36602e-86
3.5004e-86
3.4894e-86
3.03176e-86
3.17412e-86
3.11811e-86
3.10731e-86
3.05871e-86
3.21636e-86
3.16434e-86
3.16173e-86
3.14128e-86
3.07381e-86
3.14315e-86
3.20576e-86
3.11433e-86
3.27861e-86
3.14012e-86
3.20132e-86
3.23496e-86
3.14384e-86
3.21568e-86
3.21962e-86
2.74383e-86
2.7359e-86
2.71389e-86
2.76496e-86
2.8067e-86
2.79305e-86
2.74203e-86
2.72692e-86
2.81835e-86
2.71822e-86
2.79436e-86
2.79361e-86
2.73591e-86
2.82207e-86
2.81684e-86
2.86566e-86
2.77064e-86
2.84004e-86
2.80063e-86
2.88468e-86
2.03713e-86
2.05494e-86
2.03921e-86
2.02618e-86
2.07489e-86
2.05262e-86
2.09102e-86
2.05281e-86
2.09122e-86
2.10366e-86
2.06392e-86
2.12138e-86
2.053e-86
2.13616e-86
2.05983e-86
2.05786e-86
2.08931e-86
2.12119e-86
2.08357e-86
2.14896e-86
2.17813e-102
2.15469e-102
2.19589e-102
2.11041e-102
2.1694e-102
2.15805e-102
2.16211e-102
2.10113e-102
2.11892e-102
2.17879e-102
2.11968e-102
2.19445e-102
2.11199e-102
2.17109e-102
2.09611e-102
2.1922e-102
2.09042e-102
2.12478e-102
2.15187e-102
2.06967e-102
2.09925e-99
2.07604e-99
2.11542e-99
2.03394e-99
2.08994e-99
2.07954e-99
2.08331e-99
2.02441e-99
2.04182e-99
2.09915e-99
2.04289e-99
2.11411e-99
2.03561e-99
2.09217e-99
2.0204e-99
2.11245e-99
2.01485e-99
2.04762e-99
2.07334e-99
1.99492e-99
1.06982e-96
1.05766e-96
1.07758e-96
1.0365e-96
1.06461e-96
1.05959e-96
1.06142e-96
1.03134e-96
1.04033e-96
1.0694e-96
1.04106e-96
1.07694e-96
1.03743e-96
1.06606e-96
1.02973e-96
1.07635e-96
1.02683e-96
1.04339e-96
1.0563e-96
1.0167e-96
3.18564e-94
3.14841e-94
3.20733e-94
3.08631e-94
3.16875e-94
3.15469e-94
3.15983e-94
3.07005e-94
3.09708e-94
3.18337e-94
3.09985e-94
3.20553e-94
3.08933e-94
3.17408e-94
3.0666e-94
3.20461e-94
3.05761e-94
3.10665e-94
3.14451e-94
3.02749e-94
6.63119e-92
6.55135e-92
6.67348e-92
6.42408e-92
6.59313e-92
6.56579e-92
6.5756e-92
6.38821e-92
6.44478e-92
6.62436e-92
6.45193e-92
6.6698e-92
6.43078e-92
6.60639e-92
6.38402e-92
6.66965e-92
6.36404e-92
6.46601e-92
6.54367e-92
6.30122e-92
9.68207e-90
9.56163e-90
9.73991e-90
9.37895e-90
9.62234e-90
9.58544e-90
9.59801e-90
9.32349e-90
9.40593e-90
9.66945e-90
9.41877e-90
9.73455e-90
9.3894e-90
9.64515e-90
9.32223e-90
9.73711e-90
9.28991e-90
9.43971e-90
9.55158e-90
9.19739e-90
9.65529e-88
9.53013e-88
9.70954e-88
9.35149e-88
9.59147e-88
9.55794e-88
9.56771e-88
9.29252e-88
9.37322e-88
9.64033e-88
9.3893e-88
9.70356e-88
9.36234e-88
9.61788e-88
9.29722e-88
9.70934e-88
9.25895e-88
9.41171e-88
9.52229e-88
9.16468e-88
6.46402e-86
6.37551e-86
6.49834e-86
6.25872e-86
6.41827e-86
6.39819e-86
6.4019e-86
6.21618e-86
6.26756e-86
6.45268e-86
6.28174e-86
6.49347e-86
6.26625e-86
6.43885e-86
6.22472e-86
6.50018e-86
6.1918e-86
6.29923e-86
6.37314e-86
6.12605e-86
1.12064e-84
1.10737e-84
1.12409e-84
1.08642e-84
1.11194e-84
1.10803e-84
1.1108e-84
1.07993e-84
1.09164e-84
1.11675e-84
1.09257e-84
1.12466e-84
1.08818e-84
1.11524e-84
1.07912e-84
1.12525e-84
1.08015e-84
1.09291e-84
1.10365e-84
1.07115e-84
9.31509e-85
9.3356e-85
9.29202e-85
9.12202e-85
9.26406e-85
9.20526e-85
9.33118e-85
9.12588e-85
9.34924e-85
9.23889e-85
9.26894e-85
9.35487e-85
9.14519e-85
9.24455e-85
8.98694e-85
9.2776e-85
9.27068e-85
9.14221e-85
9.16327e-85
9.28303e-85
1.37489e-84
1.3938e-84
1.39919e-84
1.38189e-84
1.371e-84
1.38151e-84
1.40474e-84
1.37169e-84
1.41401e-84
1.4057e-84
1.40505e-84
1.40988e-84
1.38896e-84
1.37306e-84
1.36091e-84
1.38377e-84
1.37466e-84
1.3717e-84
1.38218e-84
1.39254e-84
1.6107e-84
1.62596e-84
1.6316e-84
1.61059e-84
1.59748e-84
1.5646e-84
1.60004e-84
1.56691e-84
1.61811e-84
1.66255e-84
1.64943e-84
1.5967e-84
1.64327e-84
1.61647e-84
1.61488e-84
1.62696e-84
1.5557e-84
1.6238e-84
1.59279e-84
1.60027e-84
1.82658e-84
1.87477e-84
1.85862e-84
1.84378e-84
1.85386e-84
1.87148e-84
1.9306e-84
1.84898e-84
1.86044e-84
1.84084e-84
1.84885e-84
1.84807e-84
1.85936e-84
1.84949e-84
1.81489e-84
1.84944e-84
1.86347e-84
1.82792e-84
1.81913e-84
1.8289e-84
1.98157e-84
1.99013e-84
2.01298e-84
2.04317e-84
2.02044e-84
2.05018e-84
2.01232e-84
2.04392e-84
2.02672e-84
1.93909e-84
1.97144e-84
1.97024e-84
1.98917e-84
1.9473e-84
1.94588e-84
1.96013e-84
1.95704e-84
1.99072e-84
1.97191e-84
2.01133e-84
2.02357e-84
2.03173e-84
2.06695e-84
2.05294e-84
2.02643e-84
2.04846e-84
2.05712e-84
2.08628e-84
2.024e-84
2.05641e-84
2.04478e-84
2.04685e-84
2.07483e-84
2.0469e-84
2.0294e-84
2.10621e-84
2.03686e-84
2.01573e-84
2.04287e-84
2.06428e-84
2.01244e-84
1.971e-84
1.99981e-84
1.97528e-84
2.00641e-84
2.01961e-84
2.03004e-84
2.00765e-84
1.9564e-84
1.9749e-84
1.96116e-84
2.0325e-84
2.00963e-84
2.04634e-84
2.03549e-84
2.03781e-84
2.01552e-84
2.01189e-84
1.98736e-84
1.99902e-84
1.8471e-84
1.86972e-84
1.84966e-84
1.9265e-84
1.87113e-84
1.91846e-84
1.88175e-84
1.89551e-84
1.87124e-84
1.8763e-84
1.87228e-84
1.90984e-84
1.87948e-84
1.93476e-84
1.8621e-84
1.90956e-84
1.89883e-84
1.83329e-84
1.90606e-84
1.90038e-84
1.63976e-84
1.71635e-84
1.68634e-84
1.68e-84
1.65413e-84
1.73902e-84
1.71083e-84
1.70965e-84
1.69848e-84
1.66222e-84
1.69936e-84
1.7331e-84
1.68411e-84
1.77217e-84
1.69752e-84
1.73053e-84
1.74848e-84
1.69991e-84
1.73856e-84
1.74065e-84
1.4938e-84
1.48951e-84
1.47783e-84
1.5055e-84
1.52779e-84
1.52046e-84
1.49258e-84
1.4853e-84
1.53448e-84
1.48011e-84
1.5213e-84
1.52107e-84
1.48918e-84
1.53652e-84
1.53338e-84
1.56025e-84
1.50851e-84
1.54595e-84
1.52451e-84
1.57007e-84
1.10168e-84
1.1112e-84
1.10284e-84
1.09569e-84
1.1217e-84
1.10988e-84
1.13015e-84
1.11001e-84
1.13017e-84
1.13719e-84
1.11563e-84
1.14658e-84
1.10994e-84
1.15466e-84
1.11349e-84
1.11249e-84
1.12918e-84
1.14653e-84
1.12627e-84
1.16138e-84
1.31799e-100
1.30351e-100
1.32813e-100
1.27705e-100
1.31215e-100
1.3056e-100
1.30804e-100
1.27111e-100
1.2821e-100
1.31793e-100
1.28271e-100
1.32734e-100
1.27808e-100
1.31349e-100
1.26846e-100
1.32622e-100
1.26515e-100
1.28557e-100
1.30169e-100
1.25271e-100
1.29297e-97
1.27839e-97
1.30232e-97
1.25278e-97
1.28669e-97
1.2806e-97
1.28291e-97
1.24661e-97
1.25755e-97
1.29247e-97
1.25837e-97
1.30162e-97
1.25391e-97
1.2884e-97
1.24453e-97
1.30084e-97
1.24124e-97
1.26107e-97
1.27663e-97
1.22908e-97
6.4971e-95
6.4219e-95
6.54116e-95
6.29505e-95
6.46271e-95
6.43392e-95
6.44498e-95
6.26221e-95
6.3179e-95
6.49247e-95
6.32313e-95
6.53787e-95
6.30124e-95
6.47334e-95
6.25438e-95
6.53559e-95
6.23751e-95
6.33626e-95
6.41317e-95
6.17663e-95
1.91031e-92
1.88761e-92
1.92241e-92
1.85087e-92
1.89937e-92
1.89145e-92
1.89452e-92
1.84068e-92
1.85722e-92
1.90835e-92
1.85911e-92
1.92152e-92
1.85284e-92
1.90312e-92
1.83916e-92
1.92134e-92
1.83403e-92
1.86287e-92
1.88511e-92
1.81617e-92
3.90639e-90
3.85868e-90
3.9294e-90
3.78471e-90
3.88232e-90
3.86728e-90
3.87306e-90
3.76271e-90
3.79674e-90
3.90117e-90
3.80138e-90
3.92769e-90
3.78901e-90
3.89128e-90
3.7613e-90
3.92834e-90
3.75018e-90
3.80902e-90
3.85374e-90
3.71365e-90
5.62897e-88
5.55814e-88
5.65977e-88
5.45335e-88
5.59187e-88
5.57197e-88
5.57937e-88
5.41992e-88
5.46897e-88
5.61991e-88
5.47698e-88
5.65742e-88
5.45996e-88
5.60682e-88
5.42056e-88
5.65993e-88
5.40303e-88
5.48811e-88
5.55153e-88
5.35001e-88
5.51958e-86
5.44753e-86
5.54766e-86
5.34673e-86
5.48077e-86
5.46312e-86
5.46899e-86
5.31198e-86
5.35943e-86
5.50931e-86
5.369e-86
5.54517e-86
5.3535e-86
5.49753e-86
5.31574e-86
5.54938e-86
5.29568e-86
5.38057e-86
5.44198e-86
5.24276e-86
3.64068e-84
3.59088e-84
3.65787e-84
3.52587e-84
3.61339e-84
3.60304e-84
3.6056e-84
3.5014e-84
3.53156e-84
3.63306e-84
3.53954e-84
3.65595e-84
3.53053e-84
3.62602e-84
3.50652e-84
3.66016e-84
3.49005e-84
3.54823e-84
3.5884e-84
3.45396e-84
6.19908e-83
6.12433e-83
6.21601e-83
6.01049e-83
6.1487e-83
6.12935e-83
6.14391e-83
5.97295e-83
6.0382e-83
6.17675e-83
6.04434e-83
6.21965e-83
6.0207e-83
6.16923e-83
5.97079e-83
6.22409e-83
5.97557e-83
6.04589e-83
6.10402e-83
5.92597e-83
5.09506e-83
5.10572e-83
5.08286e-83
4.99092e-83
5.06685e-83
5.03674e-83
5.10465e-83
4.99169e-83
5.11489e-83
5.05395e-83
5.0712e-83
5.11659e-83
5.00368e-83
5.05731e-83
4.91781e-83
5.07386e-83
5.07094e-83
5.00121e-83
5.01251e-83
5.07785e-83
7.5382e-83
7.63977e-83
7.67134e-83
7.57487e-83
7.5158e-83
7.57231e-83
7.69855e-83
7.51743e-83
7.75027e-83
7.70289e-83
7.70237e-83
7.72546e-83
7.61407e-83
7.52674e-83
7.46067e-83
7.58415e-83
7.53443e-83
7.51924e-83
7.57704e-83
7.63275e-83
8.7911e-83
8.87367e-83
8.9048e-83
8.78786e-83
8.71918e-83
8.54025e-83
8.73455e-83
8.55433e-83
8.83237e-83
9.07228e-83
9.00058e-83
8.7149e-83
8.96845e-83
8.8215e-83
8.81328e-83
8.87845e-83
8.49061e-83
8.86023e-83
8.69098e-83
8.73226e-83
9.98247e-83
1.02419e-82
1.01567e-82
1.00755e-82
1.0132e-82
1.02269e-82
1.0548e-82
1.01051e-82
1.01668e-82
1.00581e-82
1.01022e-82
1.00991e-82
1.01625e-82
1.01111e-82
9.92203e-83
1.01081e-82
1.01844e-82
9.99151e-83
9.94372e-83
9.99602e-83
1.07693e-82
1.08129e-82
1.09344e-82
1.11011e-82
1.09788e-82
1.1138e-82
1.09333e-82
1.1106e-82
1.10091e-82
1.05378e-82
1.07118e-82
1.07073e-82
1.08089e-82
1.0583e-82
1.05732e-82
1.06527e-82
1.06324e-82
1.08169e-82
1.07141e-82
1.09296e-82
1.10233e-82
1.10648e-82
1.1258e-82
1.11791e-82
1.10365e-82
1.11595e-82
1.12046e-82
1.13629e-82
1.10252e-82
1.1202e-82
1.114e-82
1.1151e-82
1.12991e-82
1.1151e-82
1.10569e-82
1.14701e-82
1.10957e-82
1.09794e-82
1.11269e-82
1.12387e-82
1.08892e-82
1.06638e-82
1.0816e-82
1.06867e-82
1.08557e-82
1.09275e-82
1.09815e-82
1.08612e-82
1.05858e-82
1.06846e-82
1.06083e-82
1.09932e-82
1.08733e-82
1.10713e-82
1.10126e-82
1.10238e-82
1.09038e-82
1.08863e-82
1.07524e-82
1.0815e-82
1.00374e-82
1.01606e-82
1.00512e-82
1.04673e-82
1.01654e-82
1.04218e-82
1.02221e-82
1.03002e-82
1.01672e-82
1.01952e-82
1.01746e-82
1.03771e-82
1.02108e-82
1.05114e-82
1.01174e-82
1.03736e-82
1.03163e-82
9.96252e-83
1.03556e-82
1.03264e-82
8.86112e-83
9.27263e-83
9.11211e-83
9.07513e-83
8.93758e-83
9.39417e-83
9.24152e-83
9.23645e-83
9.17548e-83
8.98084e-83
9.17949e-83
9.36117e-83
9.099e-83
9.57048e-83
9.1685e-83
9.34634e-83
9.44204e-83
9.18343e-83
9.3912e-83
9.40233e-83
8.12763e-83
8.10442e-83
8.04254e-83
8.19235e-83
8.31126e-83
8.2719e-83
8.11958e-83
8.08531e-83
8.34958e-83
8.05455e-83
8.2772e-83
8.27693e-83
8.10077e-83
8.36066e-83
8.34206e-83
8.48986e-83
8.20825e-83
8.41016e-83
8.29353e-83
8.54032e-83
5.98938e-83
6.04064e-83
5.99598e-83
5.95646e-83
6.09604e-83
6.03304e-83
6.14063e-83
6.03393e-83
6.14013e-83
6.17995e-83
6.06222e-83
6.22995e-83
6.03256e-83
6.27435e-83
6.051e-83
6.04593e-83
6.13506e-83
6.22994e-83
6.12033e-83
6.30972e-83
8.26836e-99
8.17563e-99
8.32812e-99
8.01172e-99
8.22824e-99
8.18924e-99
8.2044e-99
7.97247e-99
8.04278e-99
8.26523e-99
8.04769e-99
8.3238e-99
8.01888e-99
8.23886e-99
7.95847e-99
8.31846e-99
7.93842e-99
8.06436e-99
8.16369e-99
7.86107e-99
7.99455e-96
7.90266e-96
8.04869e-96
7.7464e-96
7.95234e-96
7.91681e-96
7.93092e-96
7.70631e-96
7.77526e-96
7.98895e-96
7.78133e-96
8.04498e-96
7.75404e-96
7.96515e-96
7.69592e-96
8.04178e-96
7.67634e-96
7.79683e-96
7.89125e-96
7.6019e-96
3.94113e-93
3.89471e-93
3.96603e-93
3.81879e-93
3.91862e-93
3.90222e-93
3.90886e-93
3.79795e-93
3.83237e-93
3.93712e-93
3.83603e-93
3.9644e-93
3.82289e-93
3.92621e-93
3.79438e-93
3.9638e-93
3.78456e-93
3.84341e-93
3.88914e-93
3.74801e-93
1.14233e-90
1.12855e-90
1.14903e-90
1.10687e-90
1.13532e-90
1.1309e-90
1.13271e-90
1.10052e-90
1.1106e-90
1.14082e-90
1.11186e-90
1.14862e-90
1.10815e-90
1.1379e-90
1.09994e-90
1.14874e-90
1.09701e-90
1.11394e-90
1.12695e-90
1.08645e-90
2.29417e-88
2.26577e-88
2.30659e-88
2.22293e-88
2.27908e-88
2.2709e-88
2.27428e-88
2.2095e-88
2.22988e-88
2.29045e-88
2.23286e-88
2.30586e-88
2.22566e-88
2.28505e-88
2.20929e-88
2.30668e-88
2.20312e-88
2.23699e-88
2.26264e-88
2.18193e-88
3.25754e-86
3.2161e-86
3.27377e-86
3.15629e-86
3.23471e-86
3.22414e-86
3.22844e-86
3.13626e-86
3.16525e-86
3.25138e-86
3.17022e-86
3.27286e-86
3.16044e-86
3.24439e-86
3.13744e-86
3.27491e-86
3.12796e-86
3.1761e-86
3.21186e-86
3.09771e-86
3.13988e-84
3.09861e-84
3.15423e-84
3.04204e-84
3.11649e-84
3.10736e-84
3.11082e-84
3.02168e-84
3.04937e-84
3.13314e-84
3.05505e-84
3.15334e-84
3.04622e-84
3.12702e-84
3.02445e-84
3.15626e-84
3.01399e-84
3.06098e-84
3.09488e-84
2.98442e-84
2.03829e-82
2.01043e-82
2.04677e-82
1.97448e-82
2.02217e-82
2.01696e-82
2.01861e-82
1.96048e-82
1.97801e-82
2.0334e-82
1.9825e-82
2.04614e-82
1.97733e-82
2.02987e-82
1.96356e-82
2.04875e-82
1.9554e-82
1.98676e-82
2.00845e-82
1.9357e-82
3.40904e-81
3.36723e-81
3.41717e-81
3.30576e-81
3.3801e-81
3.37074e-81
3.37834e-81
3.28424e-81
3.32034e-81
3.39638e-81
3.32427e-81
3.41948e-81
3.31165e-81
3.39268e-81
3.2843e-81
3.42256e-81
3.28644e-81
3.32498e-81
3.35619e-81
3.25928e-81
2.76915e-81
2.77465e-81
2.76278e-81
2.71337e-81
2.75367e-81
2.73842e-81
2.77479e-81
2.71304e-81
2.78055e-81
2.74713e-81
2.75694e-81
2.78073e-81
2.72034e-81
2.74909e-81
2.67405e-81
2.75725e-81
2.75614e-81
2.71854e-81
2.72457e-81
2.75997e-81
4.10787e-81
4.16208e-81
4.18036e-81
4.12694e-81
4.09509e-81
4.12526e-81
4.19341e-81
4.09482e-81
4.22211e-81
4.19533e-81
4.19668e-81
4.20744e-81
4.14854e-81
4.10086e-81
4.06515e-81
4.13141e-81
4.10446e-81
4.09676e-81
4.12841e-81
4.15816e-81
4.77089e-81
4.81529e-81
4.8324e-81
4.7677e-81
4.732e-81
4.63519e-81
4.74107e-81
4.64365e-81
4.79371e-81
4.9225e-81
4.8835e-81
4.72967e-81
4.86686e-81
4.78678e-81
4.78254e-81
4.8175e-81
4.60763e-81
4.80708e-81
4.71529e-81
4.73788e-81
5.42632e-81
5.56522e-81
5.52051e-81
5.47639e-81
5.50783e-81
5.55865e-81
5.73211e-81
5.49318e-81
5.52619e-81
5.4662e-81
5.49036e-81
5.48923e-81
5.52471e-81
5.49818e-81
5.39538e-81
5.49503e-81
5.53627e-81
5.43221e-81
5.40634e-81
5.43419e-81
5.82777e-81
5.84977e-81
5.91399e-81
6.00564e-81
5.94008e-81
6.02489e-81
5.91472e-81
6.00871e-81
5.95423e-81
5.70209e-81
5.79524e-81
5.79395e-81
5.8482e-81
5.72686e-81
5.72047e-81
5.76459e-81
5.75165e-81
5.85233e-81
5.79638e-81
5.91364e-81
5.98098e-81
6.00182e-81
6.10737e-81
6.06321e-81
5.98679e-81
6.0552e-81
6.07844e-81
6.16412e-81
5.98171e-81
6.07778e-81
6.0448e-81
6.05068e-81
6.12867e-81
6.05068e-81
6.00033e-81
6.22151e-81
6.02022e-81
5.95645e-81
6.03631e-81
6.09432e-81
5.87934e-81
5.75721e-81
5.83726e-81
5.76943e-81
5.86078e-81
5.89973e-81
5.9276e-81
5.86322e-81
5.71559e-81
5.76818e-81
5.726e-81
5.933e-81
5.87046e-81
5.97692e-81
5.94528e-81
5.95065e-81
5.88613e-81
5.87786e-81
5.80499e-81
5.83857e-81
5.44315e-81
5.51007e-81
5.45054e-81
5.67526e-81
5.51115e-81
5.64964e-81
5.54132e-81
5.58536e-81
5.51274e-81
5.5282e-81
5.51765e-81
5.62663e-81
5.53575e-81
5.69883e-81
5.48577e-81
5.62366e-81
5.59317e-81
5.40269e-81
5.61447e-81
5.59947e-81
4.78789e-81
5.00893e-81
4.92311e-81
4.9017e-81
4.82856e-81
5.07406e-81
4.99142e-81
4.9894e-81
4.95609e-81
4.85166e-81
4.95783e-81
5.05568e-81
4.91543e-81
5.16777e-81
4.95137e-81
5.04718e-81
5.09816e-81
4.96053e-81
5.07217e-81
5.07811e-81
4.42061e-81
4.40813e-81
4.37538e-81
4.45643e-81
4.51971e-81
4.49872e-81
4.41552e-81
4.39982e-81
4.54163e-81
4.38168e-81
4.50194e-81
4.50239e-81
4.4051e-81
4.54774e-81
4.53675e-81
4.618e-81
4.46487e-81
4.57358e-81
4.51024e-81
4.64381e-81
3.24615e-81
3.27361e-81
3.24984e-81
3.22811e-81
3.30278e-81
3.26928e-81
3.32613e-81
3.26985e-81
3.32557e-81
3.34801e-81
3.28397e-81
3.37453e-81
3.26854e-81
3.39885e-81
3.27816e-81
3.27562e-81
3.32294e-81
3.37472e-81
3.31556e-81
3.41744e-81
5.18077e-97
5.12152e-97
5.21586e-97
5.02017e-97
5.15347e-97
5.1304e-97
5.13977e-97
4.99433e-97
5.03919e-97
5.17721e-97
5.04294e-97
5.21357e-97
5.02508e-97
5.16159e-97
4.9872e-97
5.21126e-97
4.97501e-97
5.05265e-97
5.11376e-97
4.92698e-97
4.92984e-94
4.87213e-94
4.96098e-94
4.77708e-94
4.90176e-94
4.8812e-94
4.88977e-94
4.75118e-94
4.79445e-94
4.92492e-94
4.79884e-94