/*--------------------------------*- C++ -*----------------------------------*\
| =========                 |                                                 |
| \\      /  F ield         | OpenFOAM: The Open Source CFD Toolbox           |
|  \\    /   O peration     | Version:  2212                                  |
|   \\  /    A nd           | Website:  www.openfoam.com                      |
|    \\/     M anipulation  |                                                 |
\*---------------------------------------------------------------------------*/
FoamFile
{
    version     2.0;
    format      ascii;
    arch        "LSB;label=32;scalar=64";
    class       volScalarField;
    location    "0.000216";
    object      T;
}
// * * * * * * * * * * * * * * * * * * * * * * * * * * * * * * * * * * * * * //

dimensions      [0 0 0 1 0 0 0];

internalField   nonuniform List<scalar> 
6888
(
322.486
324.967
317.593
312.14
307.861
297.428
294.548
291.378
282.087
277.857
276.54
275.958
276.089
276.584
276.96
277.09
277.203
277.181
277.294
277.339
322.764
323.226
320.976
313.447
304.294
297.522
294.06
291.006
281.966
277.759
276.53
276.139
276.554
277.27
277.835
277.975
278.064
277.962
278.032
277.951
317.372
323.189
324.696
314.287
303.49
298.008
295.395
292.286
282.979
278.37
277.044
276.854
277.469
278.437
278.915
278.959
279.067
278.967
279.075
278.952
319.774
322.3
326.846
314.827
302.908
296.889
295.628
293.557
284.356
279.397
277.808
277.502
278.043
279.075
279.294
279.136
279.21
279.149
279.334
279.468
320.456
323.492
325.565
315.285
304.145
296.786
295.627
294.165
284.943
279.822
278.01
277.641
278.437
279.73
279.656
279.283
279.282
279.223
279.363
279.474
320.165
322.669
322.797
315.228
305.307
295.844
295.976
295.12
285.722
280.04
278.112
277.797
278.9
280.312
279.925
279.366
279.313
279.272
279.38
279.532
320.402
321.233
319.137
313.859
305.395
294.146
295.241
295.829
287.958
281.009
278.712
278.217
279.499
281.032
280.094
279.39
279.325
279.294
279.377
279.514
321.353
321.178
316.604
312.888
304.313
292.467
293.311
295.726
291.712
284.055
279.66
278.736
281.032
281.541
280.072
279.343
279.314
279.286
279.36
279.52
321.739
321.617
316.145
311.636
303.398
291.213
291.035
294.601
293.211
287.106
281.188
280.688
283.105
281.795
279.787
279.246
279.278
279.263
279.325
279.487
321.594
321.331
316.175
310.903
303.267
290.213
288.613
292.829
293.327
289.87
285.078
285.229
284.312
280.964
279.439
279.137
279.192
279.177
279.24
279.411
321.613
321.136
316.356
310.293
303.516
289.51
286.425
290.375
291.779
290.499
287.744
286.263
282.443
279.778
279.172
279.109
279.172
279.154
279.199
279.348
321.788
321.216
316.325
310.122
303.793
289.131
284.675
286.27
287.541
287.843
286.531
282.845
280.105
279.244
279.168
279.172
279.237
279.223
279.264
279.406
321.783
321.447
315.979
309.413
303.836
289.046
283.657
283.095
282.805
282.495
281.767
279.887
279.323
279.193
279.274
279.267
279.304
279.258
279.299
279.456
321.463
321.783
315.976
308.259
303.277
288.914
283.154
282.119
280.773
280.212
279.656
279.179
279.162
279.204
279.284
279.265
279.292
279.229
279.265
279.438
321.306
321.885
315.837
306.755
302.485
288.918
282.936
281.939
280.169
279.519
279.12
279.001
279.139
279.143
279.233
279.21
279.228
279.156
279.174
279.357
321.061
321.68
316.484
305.762
301.016
289.349
282.79
281.703
279.99
279.31
278.926
278.866
279.019
279.018
279.095
279.084
279.123
279.073
279.085
279.284
320.765
321.065
317.397
305.549
298.66
290.587
282.609
281.16
279.724
279.071
278.769
278.724
278.868
278.861
278.924
278.909
278.95
278.934
278.963
279.176
320.53
320.757
318.04
306.079
297.911
291.784
282.474
280.785
279.42
278.815
278.567
278.544
278.656
278.637
278.701
278.709
278.755
278.785
278.852
279.086
320.85
320.718
318.102
307.378
297.897
293.383
282.267
280.493
279.167
278.555
278.32
278.312
278.434
278.422
278.496
278.515
278.564
278.635
278.728
278.987
321.228
320.83
318.159
308.127
297.854
294.696
282.13
280.132
278.909
278.29
278.086
278.092
278.22
278.202
278.279
278.296
278.353
278.448
278.559
278.854
321.267
321.16
318.411
308.558
296.974
294.83
282.265
279.779
278.676
278.041
277.865
277.882
278.002
277.95
278.022
278.02
278.069
278.18
278.308
278.644
321.295
321.117
318.559
309.72
294.891
293.916
282.697
279.488
278.484
277.814
277.647
277.652
277.736
277.664
277.709
277.679
277.726
277.833
277.97
278.34
321.321
321.277
318.83
311.295
293.718
291.001
283.585
279.337
278.32
277.539
277.357
277.338
277.39
277.32
277.316
277.279
277.318
277.442
277.569
277.952
320.852
321.113
319.601
313.505
294.104
287.655
284.061
279.326
278.148
277.178
276.959
276.918
276.963
276.913
276.878
276.848
276.857
277.012
277.119
277.515
320.884
321.082
321.596
316.961
296.861
287.153
283.991
279.415
277.985
276.792
276.499
276.417
276.473
276.459
276.415
276.39
276.371
276.535
276.615
277.024
321.464
321.907
323.117
322.654
304.312
288.322
283.125
279.257
277.609
276.343
275.985
275.863
275.921
275.94
275.9
275.889
275.863
276.024
276.091
276.507
320.515
320.914
323.403
325.758
317.912
292.604
282.714
278.818
277.033
275.829
275.42
275.268
275.337
275.389
275.353
275.359
275.338
275.485
275.553
275.976
315.828
317.955
324.893
328.622
327.214
302.435
283.633
278.27
276.184
275.123
274.773
274.673
274.813
274.878
274.851
274.869
274.84
274.952
275.019
275.441
311.418
317.153
324.648
328.835
329.335
313.46
286.184
277.444
275.112
274.246
274.025
274.101
274.31
274.447
274.456
274.461
274.42
274.487
274.535
274.924
311.763
319.727
325.939
330.854
330.646
320.797
289.77
276.82
274.295
273.294
273.236
273.436
273.74
274.037
274.123
274.128
274.088
274.13
274.154
274.476
305.02
315.653
322.456
328.712
330.787
325.904
295.54
277.505
273.873
272.61
272.644
272.81
273.199
273.553
273.743
273.841
273.845
273.896
273.907
274.15
304.969
315.575
323.079
328.193
329.993
327.083
298.231
278.405
273.937
272.401
272.369
272.41
272.791
273.094
273.305
273.496
273.6
273.736
273.779
274.022
307.809
316.656
323.04
328.288
330.502
328.149
297.169
279.015
274.177
272.666
272.518
272.365
272.615
272.774
272.942
273.143
273.339
273.566
273.719
274.018
306.991
315.968
321.619
326.728
328.894
325.147
295.424
280.44
275.303
273.548
272.988
272.674
272.687
272.686
272.732
272.883
273.11
273.414
273.643
274.01
306.67
315.547
320.554
323.447
324.767
318.946
292.676
281.365
276.721
274.782
273.877
273.281
273.024
272.835
272.739
272.813
272.979
273.285
273.558
273.971
308.188
315.476
319.444
320.149
319.951
312.671
290.479
281.921
277.807
275.951
274.891
274.118
273.689
273.268
272.96
272.907
272.971
273.198
273.465
273.896
310.811
315.841
318.661
317.806
313.162
306.803
289.315
282.813
278.92
276.942
275.809
275.094
274.581
274.046
273.477
273.169
273.041
273.134
273.325
273.739
313.792
316.045
319.193
317.618
309.376
300.88
288.143
283.147
279.684
277.737
276.447
275.775
275.327
274.85
274.181
273.665
273.259
273.132
273.168
273.528
318.655
315.661
318.545
318.688
309.508
299.016
287.724
283.226
279.978
278.132
276.835
276.119
275.623
275.217
274.689
274.184
273.607
273.236
273.096
273.34
327.565
318.285
318.67
318.961
312.026
299.788
288.281
283.485
280.161
278.294
276.972
276.187
275.697
275.299
274.778
274.364
273.885
273.44
273.161
273.313
337.39
327.468
323.941
320.552
316.158
303.121
290.313
284.144
280.444
278.351
276.967
276.132
275.606
275.181
274.684
274.272
273.895
273.595
273.344
273.442
340.254
335.477
337.705
328.281
320.457
307.546
293.083
285.33
280.661
278.146
276.664
275.772
275.226
274.83
274.378
274.022
273.746
273.61
273.533
273.684
336.929
335.264
346.535
343.641
327.515
311.146
294.985
285.896
280.571
277.551
275.864
274.906
274.372
274.091
273.796
273.56
273.443
273.471
273.569
273.88
328.261
333.472
347.831
352.555
344.051
320.235
297.471
285.303
279.45
276.465
274.662
273.634
273.16
272.981
272.898
272.815
272.822
272.999
273.239
273.669
322.76
336.669
348.988
354.029
352.945
337.78
303.355
284.913
277.23
273.945
272.505
271.788
271.549
271.572
271.702
271.784
271.909
272.191
272.547
273.122
317.057
332.101
346.81
350.957
353.805
350.764
317.194
287.205
276.012
271.623
270.176
269.584
269.588
269.871
270.26
270.569
270.77
271.06
271.421
272.059
311.217
324.013
334.461
340.625
346.51
353.688
337.235
294.8
276.526
269.604
267.614
267.048
267.313
267.903
268.478
268.957
269.296
269.661
269.942
270.638
309.875
323.472
330.178
330.834
335.787
348.58
345.922
304.556
276.798
267.928
265.196
264.584
264.995
265.74
266.409
267.018
267.534
267.996
268.252
269.057
309.544
320.41
322.685
324.349
328.888
338.153
339.777
313.884
279.923
267.182
263.063
262.184
262.523
263.296
264.116
264.907
265.542
266.045
266.442
267.353
299.27
310.068
313.802
314.696
325.259
334.688
338.912
325.607
284.551
266.871
261.328
259.821
260.051
260.863
261.862
262.751
263.356
263.908
264.528
265.502
294.227
305.677
308.024
311.464
319.694
333.648
339.978
334.214
290.341
267.51
260.054
257.81
257.869
258.573
259.639
260.469
261.025
261.721
262.46
263.491
289.854
300.452
305.268
307.948
312.518
331.651
338.362
336.368
298.807
270.005
259.794
256.692
256.279
256.607
257.537
258.308
258.876
259.699
260.41
261.459
288.768
297.765
300.937
301.964
309.504
320.465
333.286
336.889
309.259
274.023
260.541
256.386
255.121
255.149
255.863
256.626
257.168
257.98
258.561
259.589
288.361
297.206
299.786
299.809
305.856
317.016
328.406
337.059
320.429
278.044
261.988
256.795
255.094
254.746
255.118
255.806
256.218
256.948
257.363
258.251
288.555
296.752
299.257
299.413
305.703
315.956
324.117
336.036
332.202
284.504
264.132
257.463
255.352
254.982
255.351
255.962
256.335
256.905
257.196
257.82
291.577
298.268
299.782
299.855
306.536
316.501
323.079
330.12
335.73
290.903
266.375
258.424
256.228
255.55
255.669
256.158
256.528
257.075
257.366
257.942
295.588
302.056
302.81
302.447
308.738
319.903
325.703
329.616
335.796
300.798
270.035
260.186
257.175
256.37
256.441
256.915
257.257
257.648
257.935
258.495
299.768
305.997
307.627
307.77
315.106
325.993
330.284
335.48
340.359
305.97
271.154
262.695
259.395
258.483
258.466
258.858
259.108
259.354
259.559
259.908
305.558
310.702
311.865
311.415
321.385
336.034
340.125
342.704
344.256
305.538
275.428
268.428
264.548
263.454
263.015
263.16
263.217
263.264
263.076
262.824
312.614
318.202
318.586
316.044
324.458
340.958
346.08
344.162
341.912
308.381
284.437
277.602
274.596
273.158
271.969
271.606
270.863
270.213
269.415
268.515
317.215
323.391
325.753
322.419
325.98
342.021
347.599
342.698
330.711
299.616
283.799
278.832
276.591
275.411
275.095
275.157
275.386
275.295
275.537
275.549
319.986
325.637
329.842
326.18
326.205
341.921
348.549
343.305
326.045
296.144
283.326
278.982
276.416
274.961
274.179
273.867
274.004
273.853
274.173
274.737
323.102
327.356
332.642
328.704
325.179
337.469
348.299
346.27
325.872
296.463
286.144
282.354
278.946
276.712
275.47
274.905
274.831
274.497
274.762
275.272
326.509
328.579
334.733
334.55
324.295
326.538
342.977
347.999
338.422
306.499
289.204
285.034
281.883
279.926
278.876
277.934
277.324
276.569
276.452
276.66
327.538
328.609
335.077
337.951
326.657
319.4
326.095
340.829
344.501
332.59
304.161
290.065
285.344
282.238
280.387
279.683
279.436
279.31
279.419
279.435
329.492
329.476
334.983
339.637
337.701
318.597
313.636
316.986
328.03
332.372
319.679
298.916
290.933
285.754
281.8
280.247
279.711
279.731
279.9
280.317
332.604
333.932
335.094
340.007
342.793
329.599
312.962
306.752
303.697
307.631
309.672
296.222
290.13
286.392
282.742
281.006
280.128
279.752
279.919
280.354
333.611
336.08
337.047
340.16
343.536
343.785
320.998
307.212
298.998
293.77
293.148
289.159
286.472
284.955
282.605
281.478
280.832
280.536
280.722
281.41
333.838
337.81
342.966
348.592
346.995
344.677
336.81
311.728
300.977
291.896
287.909
286.101
284.508
283.69
282.278
281.794
281.395
281.312
281.488
282.345
327.494
335.674
344.228
350.607
352.967
349.625
343.959
320.322
301.37
292.357
286.495
284.127
282.877
282.353
281.74
281.559
281.533
281.627
281.701
282.674
329.613
340.753
348.099
352.026
352.99
354.837
344.229
329.747
302.276
291.37
285.199
282.745
281.67
281.516
281.283
281.344
281.642
282.005
282.188
283.275
317.887
331.287
333.673
336.021
342.363
355.979
349.374
335.623
308.576
290.336
282.354
280.929
280.875
280.666
280.68
280.967
281.479
282.15
282.507
283.901
308.191
321.409
324.974
329.88
336.09
345.723
353.531
337.896
318.793
293.773
282.846
280.385
280.727
280.255
280.464
280.795
281.45
282.187
282.914
284.455
311.327
322.895
326.431
329.878
336.838
342.477
348.428
336.227
326.946
301.134
285.405
280.879
280.82
280.697
280.883
281.213
281.783
282.668
283.682
285.326
315.869
325.584
327.547
330.536
337.681
341.089
341.457
336.84
328.498
307.856
288.508
281.962
281.121
281.346
281.687
282.172
282.765
283.809
285.191
286.654
318.128
328.101
329.875
332.571
338.05
339.687
339.553
337.367
326.384
310.859
290.395
284.06
282.721
282.863
283.08
283.562
284.106
285.113
286.691
287.814
323.405
332.487
334.409
336.038
339.348
340.225
339.011
336.307
326.042
312.762
293.38
287.308
285.416
284.742
284.465
284.7
285.23
286.306
287.921
289
326.563
334.808
337.018
337.894
341.167
341.272
337.795
332.229
322.266
307.619
293.809
289.155
287.306
286.189
285.566
285.413
285.874
286.934
289.231
291.296
326.478
335.092
337.646
337.44
340.566
341.35
336.778
327.363
313.937
300.465
293.296
290.706
289.022
287.544
286.773
286.584
287.218
288.882
292.948
297.673
325.843
334.471
338.292
336.819
338.049
340.267
336.628
326.468
311.563
298.232
292.798
290.847
289.795
289.19
289.042
289.471
291.053
294.639
302.55
312.198
325.105
331.736
337.446
336.722
334.795
337.403
337.34
329.742
316.529
301.984
294.682
292.422
291.98
292.185
293.767
297.711
302.004
308.85
321.066
332.803
326.414
329.547
336.777
337.323
333.273
333.401
336.806
334.704
326.717
311.697
299.487
295.649
295.483
296.971
302.601
310.661
316.377
323.881
334.975
339.947
327.125
327.946
334.094
338.488
334.71
331.406
332.737
334.978
333.631
328.91
314.472
304.005
300.875
301.614
306.747
312.887
318.279
325.742
336.789
340.254
328.205
328.006
330.434
337.296
337.894
333.281
330.33
330.491
332.563
333.901
332.677
326.397
316.644
310.915
308.674
310.983
315.621
324.057
335.916
338.846
329.219
328.764
329.288
333.877
337.829
336.835
333.386
330.693
329.439
329.9
331.312
331.609
330.058
325.578
321.297
318.754
318.352
327.039
335.774
336.324
331.365
329.968
329.438
331.705
333.955
336.644
336.354
334.09
332.391
330.267
328.514
327.127
326.747
326.018
324.002
324.013
326.791
334.475
336.166
333.981
333.752
332.57
332.238
332.026
331.862
331.511
333.943
332.708
333.114
332.357
331.312
328.639
326.098
324.014
323.831
325.12
329.616
333.963
333.018
330.65
335.167
334.157
335.232
333.427
332.356
329.42
326.764
321.209
322.56
324.233
325.565
325.05
323.568
321.278
320.063
320.492
323.927
327.479
327.058
327.519
328.596
329.703
332.557
328.098
321.702
313.197
304.528
300.032
303.636
306.704
312.806
313.554
312.175
310.919
310.702
311.614
313.979
317.966
319.438
322.871
306.875
309.279
308.06
300.552
293.231
289.391
288.058
295.769
299.227
305.245
312.577
320.103
317.543
306.441
300.314
299.105
300.572
303.091
307.283
314.815
289.789
290.693
288.48
281.051
277.199
275.972
279.617
283.683
288.842
296.82
301.797
317.196
324.711
314.356
295.848
289.186
288.011
288.548
291.735
300.847
283.601
283.449
280.265
272.686
268.541
266.817
269.912
277.013
287.751
289.604
292.657
306.866
323.379
316.239
293.133
283.46
279.782
279.536
281.319
290.012
283.178
282.535
278.482
271.027
268.027
267.862
272.052
289.043
287.418
288.172
292.395
306.788
318.612
315.398
290.354
279.965
275.553
274.613
276.123
283.782
282.724
281.578
275.524
268.681
266.745
267.378
277.797
292.339
290.211
289.333
294.576
308.792
316.341
310.604
286.835
278.415
274.886
273.961
275.312
281.893
287.102
285.646
281.003
275.404
272.791
273.209
281.567
297.697
299.393
293.897
297.441
311.086
315.212
302.088
284.109
278.729
275.812
275.01
276.874
283.386
292.081
290.052
285.527
278.588
276.479
276.753
284.215
304.784
308.912
299.988
297.66
306.93
310.503
296.578
287.172
282.523
279.888
279.281
280.947
286.23
295.236
291.832
286.948
280.716
278.792
279.957
287.806
308.503
315.614
306.167
296.735
300.992
304.608
295.644
291.734
289.949
287.895
287.267
288.952
292.704
299.395
297.616
292.018
285.716
284.165
285.237
291.534
311.877
325.112
316.18
300.182
299.785
301.289
296.725
296.142
295.834
295.342
296.301
299.743
302.473
303.215
300.97
294.173
287.643
286.251
287.556
294.365
313.165
332.079
330.835
304.122
300.496
301.161
299.264
299.113
298.352
297.896
299.542
302.571
304.951
309.523
304.981
298.193
292.004
291.137
291.607
296.739
313.665
338.096
340.006
311.878
301.613
301.74
301.032
301.473
301.23
301.139
303.158
305.8
307.633
319.441
314.372
305.724
298.696
296.938
296.88
299.604
313.517
340.769
345.997
333.611
304.599
303.763
303.1
303.531
304.038
304.286
306.972
309.659
310.827
323.619
317.829
308.546
301.519
299.249
299.646
303.09
315.232
339.883
349.124
345.904
313.259
306.163
307.007
305.852
306.27
306.853
309.554
312.324
313.663
325.968
320.539
312.599
306.321
304.516
302.575
303.215
315.751
340.77
353.94
356.228
324.312
308.015
310.414
310.02
309.899
310.25
312.271
314.583
315.448
326.026
320.486
313.167
307.104
305.647
304.231
303.394
310.085
331.626
354.147
360.976
346.718
313.354
311.187
311.936
311.788
312.314
314.056
316.159
316.611
325.243
319.996
314.117
308.817
306.808
304.823
303.516
308.296
323.579
349.805
360.9
364.585
332.252
313.115
312.479
312.383
313.165
314.725
316.426
316.612
323.37
317.008
313.242
309.545
307.515
305.321
303.213
304.946
316.745
338.601
359.123
366.606
357.973
320.251
314.249
313.308
313.735
314.998
316.256
315.904
317.557
312.272
307.701
305.775
306.401
304.254
300.778
301.642
310.018
325.688
348.298
361.788
370.654
340.879
322.392
318.15
316.698
316.305
316.245
315.436
314.718
309.708
305.285
303.992
304.614
303.587
299.683
299.476
306.02
316.894
334.375
356.56
369.29
360.403
329.423
323.449
320.683
318.198
316.597
315.16
312.159
306.83
303.66
303.472
304.58
303.614
299.509
299.17
302.382
312.324
325.496
346.058
366.529
373.147
342.283
331.439
327.283
322.977
318.648
316.325
309.754
305.701
303.015
303.572
305.534
304.369
299.603
298.893
301.888
309.735
317.939
335.451
362.112
376.047
362.607
335.025
330.537
326.901
320.941
317.338
308.959
306.675
306.363
308.895
310.409
307.729
302.983
301.453
302.784
308.825
316.425
327.696
348.898
370.331
378.996
341.677
333.418
329.308
323.222
318.617
324.456
321.891
323.396
325.079
327.693
322.082
318.646
314.208
315.455
313.553
316.718
326.639
341.854
362.585
379.416
363.872
332.239
326.691
320.622
315.804
344.721
345.667
349.655
350.092
348.245
336.577
326.598
322.216
325.435
327.666
322.747
323.564
340.17
362.19
378.034
383.962
340.931
327.207
322.095
318.378
351.232
352.31
354.853
357.481
352.477
343.256
332.025
322.899
320.029
324.282
323.031
328.576
336.196
363.201
378.902
381.22
368.093
324.437
316.537
309.33
317.319
330.14
337.474
338.041
336.924
333.188
327.778
322.64
321.043
327.529
325.412
320.719
319.958
331.504
355.007
373.973
382.983
383.971
327.933
330.681
269.851
270.782
272.315
274.421
277.399
279.183
280.656
274.347
274.77
287.07
289.89
295.393
301.17
310.412
319.239
348.959
363.907
376.775
330.693
303.201
226.019
227.293
229.166
230.747
231.721
232.641
233.091
235.053
254.945
263.306
266.753
267.829
267.51
260.259
268.145
285.548
312.722
335.455
378.805
365.469
214.307
215.522
216.419
216.986
217.519
218.227
218.431
218.488
220.021
221.706
223.87
226.02
228.163
235.048
246.537
249.488
252.233
270.555
305.478
350.257
209.455
210.912
211.694
211.978
212.268
212.826
212.973
213.24
213.774
215.28
216.437
217.108
217.516
217.922
219.451
222.106
224.053
229.599
237.179
284.003
216.101
216.776
216.585
216.256
215.653
215.159
214.535
214.104
213.233
213.46
213.493
213.52
213.731
214.002
214.385
214.874
214.76
220.111
221.746
257.308
232.216
233.302
233.022
232.244
231.147
230.098
228.562
227.131
226.105
223.937
222.797
221.306
220.002
217.838
217.361
214.781
215.137
217.025
216.774
246.574
252.593
252.834
252.874
251.537
250.331
249.068
247.184
245.524
243.46
241.467
239.83
237.755
235.548
233.067
230.942
228.488
225.873
225.029
222.448
243.463
272.02
272.928
272.696
271.725
270.264
268.866
267.235
265.514
263.966
261.964
259.744
257.638
255.175
252.064
249.165
246.071
243.112
241.2
238.17
258.183
292.801
293.326
293.478
291.926
290.379
288.964
287.015
285.049
282.935
280.76
279.188
277.164
274.857
272.521
270.04
267.971
263.897
262.04
256.981
266.344
310.182
311.143
311.027
309.891
308.493
307.108
305.447
303.991
302.48
300.667
298.61
296.52
294.472
291.544
288.89
286.619
283.652
281.964
278.617
291.204
326.674
327.504
327.649
326.368
324.979
323.68
322.118
320.4
318.556
316.835
315.347
313.812
311.856
310.196
307.678
305.856
302.563
300.374
296.579
303.438
339.777
340.597
340.463
339.48
338.371
337.263
335.956
334.883
333.625
332.248
330.764
329.003
327.482
325.276
323.436
321.643
319.25
317.523
315.236
322.999
351.847
352.643
352.658
351.592
350.512
349.428
348.148
346.783
345.292
343.947
342.781
341.744
340.269
339
337.111
335.689
333.39
331.346
328.972
333.332
361.581
362.087
361.633
360.934
360.152
359.412
358.514
357.754
356.899
355.993
354.934
353.619
352.444
351.08
349.774
348.407
346.626
345.039
343.92
348.113
369.899
370.66
370.518
369.779
369.042
368.399
367.424
366.317
365.247
364.145
363.199
362.47
361.658
360.598
359.417
358.343
356.759
355.07
353.447
355.881
375.217
375.591
375.557
375.156
374.809
374.437
373.835
373.267
372.783
372.167
371.48
370.639
369.838
369.095
368.314
367.374
366.122
364.883
364.381
365.405
379.272
379.617
379.779
379.544
379.162
378.728
378.197
377.537
376.794
376.148
375.626
375.25
375.13
374.644
373.961
373.308
372.819
371.674
370.684
371.995
382.04
382.318
382.321
382.078
381.841
381.549
381.425
381.174
380.948
380.555
380.232
380.064
379.851
379.291
379.278
378.736
378.219
377.859
377.711
375.91
383.783
384.094
384.086
384.038
384.085
384.016
383.774
383.497
383.1
382.771
382.573
382.318
382.043
382.111
381.719
381.603
381.67
381.24
381.121
381.209
385.473
385.867
385.9
385.825
385.552
385.31
385.202
385.165
385.106
385.108
385.012
384.949
384.841
384.644
384.634
384.371
384.098
384.293
384.218
383.689
386.439
386.807
386.95
386.937
386.847
386.7
386.549
386.53
386.477
386.272
386.141
386.01
385.904
385.904
385.816
385.772
385.85
385.973
385.742
386.031
387.586
387.828
387.642
387.646
387.556
387.518
387.392
387.296
387.358
387.422
387.417
387.404
387.413
387.291
387.356
387.33
387.223
387.18
387.275
387.16
388.086
388.358
388.419
388.443
388.422
388.401
388.356
388.297
388.192
388.077
388.009
387.978
387.987
387.975
387.94
387.939
387.952
387.962
387.968
388.282
388.576
388.873
388.825
388.807
388.78
388.814
388.874
388.87
388.848
388.824
388.812
388.804
388.786
388.767
388.709
388.709
388.717
388.703
388.738
388.8
389.155
389.349
389.376
389.343
389.314
389.273
389.246
389.207
389.178
389.158
389.164
389.164
389.103
389.103
389.066
389.061
389.095
389.079
389.108
389.388
389.5
389.586
389.619
389.613
389.636
389.662
389.632
389.62
389.599
389.613
389.615
389.603
389.575
389.511
389.595
389.555
389.549
389.568
389.586
389.668
389.924
389.978
389.962
389.998
389.965
389.933
389.908
389.895
389.867
389.852
389.838
389.817
389.879
389.904
389.866
389.882
389.816
389.81
389.82
390.028
390.146
390.271
390.277
390.255
390.228
390.235
390.218
390.203
390.205
390.192
390.162
390.15
390.11
390.092
390.048
390.066
390.1
390.123
390.134
390.203
390.367
390.422
390.452
390.453
390.436
390.417
390.401
390.388
390.39
390.373
390.34
390.329
390.335
390.339
390.357
390.335
390.331
390.306
390.309
390.455
390.611
390.665
390.67
390.676
390.649
390.633
390.607
390.61
390.574
390.552
390.587
390.577
390.58
390.575
390.56
390.554
390.545
390.535
390.565
390.623
390.765
390.818
390.813
390.814
390.807
390.811
390.786
390.763
390.765
390.774
390.732
390.727
390.718
390.715
390.705
390.703
390.713
390.729
390.748
390.849
390.908
390.956
390.956
390.948
390.938
390.934
390.919
390.915
390.893
390.903
390.916
390.907
390.908
390.899
390.919
390.919
390.904
390.91
390.921
390.984
391.059
391.11
391.103
391.11
391.09
391.078
391.072
391.07
391.07
391.04
391.046
391.052
391.051
391.057
391.047
391.053
391.057
391.052
391.052
391.155
391.16
391.219
391.21
391.218
391.203
391.194
391.191
391.185
391.187
391.196
391.179
391.178
391.181
391.184
391.187
391.19
391.191
391.215
391.226
391.294
391.304
391.348
391.343
391.344
391.344
391.344
391.343
391.339
391.333
391.329
391.335
391.333
391.331
391.33
391.329
391.338
391.342
391.348
391.362
391.436
391.437
391.475
391.47
391.478
391.469
391.469
391.457
391.459
391.458
391.459
391.463
391.461
391.463
391.466
391.468
391.474
391.475
391.491
391.496
391.567
391.585
391.605
391.598
391.602
391.591
391.596
391.586
391.589
391.587
391.587
391.588
391.595
391.598
391.599
391.605
391.612
391.615
391.627
391.632
391.702
391.713
391.743
391.733
391.729
391.72
391.719
391.713
391.716
391.714
391.716
391.715
391.721
391.722
391.73
391.735
391.741
391.74
391.754
391.766
391.83
391.844
391.859
391.855
391.856
391.849
391.85
391.842
391.846
391.842
391.846
391.846
391.848
391.854
391.861
391.865
391.873
391.876
391.894
391.907
391.967
391.982
391.996
391.989
391.99
391.989
391.989
391.986
391.985
391.985
391.984
391.989
391.99
391.994
391.996
392.001
392.012
392.017
392.034
392.042
392.103
392.13
392.141
392.137
392.136
392.134
392.13
392.129
392.126
392.129
392.13
392.135
392.135
392.14
392.147
392.153
392.165
392.175
392.194
392.192
392.254
392.288
392.295
392.293
392.293
392.287
392.285
392.28
392.279
392.278
392.281
392.286
392.294
392.3
392.306
392.309
392.322
392.33
392.351
392.361
392.414
392.451
392.454
392.453
392.45
392.447
392.443
392.436
392.435
392.436
392.439
392.445
392.454
392.455
392.461
392.469
392.485
392.498
392.52
392.526
392.579
392.607
392.611
392.608
392.605
392.601
392.597
392.595
392.593
392.597
392.602
392.609
392.617
392.62
392.625
392.628
392.645
392.659
392.683
392.688
392.746
392.755
392.754
392.754
392.752
392.749
392.746
392.746
392.746
392.757
392.765
392.773
392.778
392.78
392.787
392.792
392.811
392.823
392.85
392.859
392.916
392.898
392.9
392.897
392.897
392.893
392.894
392.893
392.897
392.908
392.923
392.93
392.936
392.938
392.95
392.954
392.976
392.987
393.018
393.025
393.089
393.05
393.049
393.046
393.046
393.043
393.043
393.043
393.047
393.059
393.074
393.081
393.086
393.092
393.109
393.115
393.139
393.149
393.182
393.195
393.258
393.213
393.21
393.206
393.203
393.199
393.198
393.199
393.203
393.212
393.226
393.231
393.233
393.247
393.266
393.276
393.301
393.308
393.343
393.358
393.42
393.377
393.373
393.369
393.364
393.361
393.36
393.363
393.365
393.373
393.385
393.385
393.387
393.408
393.429
393.44
393.464
393.468
393.508
393.518
393.582
393.529
393.524
393.519
393.516
393.516
393.517
393.523
393.528
393.536
393.542
393.545
393.553
393.575
393.596
393.605
393.628
393.631
393.673
393.681
393.742
393.674
393.67
393.666
393.665
393.666
393.668
393.675
393.684
393.693
393.702
393.703
393.714
393.738
393.759
393.767
393.788
393.789
393.833
393.843
393.901
393.831
393.826
393.823
393.82
393.82
393.821
393.828
393.837
393.849
393.862
393.86
393.867
393.891
393.914
393.925
393.946
393.944
393.988
394.002
394.056
394.009
394.003
393.998
393.992
393.987
393.986
393.991
393.995
394.009
394.022
394.023
394.025
394.045
394.07
394.084
394.107
394.104
394.145
394.161
394.212
394.202
394.194
394.185
394.176
394.168
394.164
394.164
394.165
394.176
394.189
394.192
394.191
394.206
394.231
394.248
394.269
394.266
394.303
394.319
394.369
394.392
394.382
394.369
394.358
394.348
394.342
394.341
394.341
394.353
394.36
394.365
394.362
394.373
394.394
394.414
394.431
394.425
394.456
394.471
394.52
394.575
394.562
394.544
394.532
394.522
394.515
394.512
394.512
394.525
394.531
394.536
394.535
394.542
394.557
394.579
394.587
394.581
394.603
394.619
394.665
394.747
394.73
394.71
394.698
394.685
394.675
394.668
394.671
394.681
394.685
394.689
394.689
394.693
394.704
394.718
394.724
394.719
394.731
394.747
394.777
394.911
394.892
394.869
394.856
394.843
394.828
394.815
394.821
394.826
394.828
394.828
394.826
394.829
394.835
394.841
394.842
394.842
394.845
394.852
394.866
395.083
395.062
395.036
395.02
395.01
394.994
394.974
394.98
394.986
394.984
394.982
394.975
394.979
394.983
394.985
394.979
394.98
394.974
394.979
394.98
395.262
395.24
395.211
395.194
395.182
395.166
395.147
395.149
395.157
395.154
395.15
395.14
395.146
395.148
395.148
395.137
395.135
395.122
395.126
395.123
395.431
395.409
395.381
395.361
395.347
395.334
395.319
395.316
395.323
395.32
395.316
395.307
395.312
395.314
395.311
395.296
395.291
395.276
395.279
395.273
395.585
395.564
395.537
395.517
395.501
395.49
395.484
395.48
395.482
395.48
395.475
395.466
395.47
395.472
395.469
395.451
395.444
395.428
395.43
395.421
395.736
395.716
395.689
395.669
395.653
395.642
395.64
395.637
395.632
395.63
395.626
395.619
395.619
395.615
395.613
395.598
395.592
395.576
395.575
395.568
395.883
395.864
395.84
395.819
395.801
395.789
395.789
395.785
395.774
395.772
395.77
395.766
395.763
395.754
395.753
395.74
395.734
395.718
395.715
395.709
396.009
395.993
395.972
395.953
395.934
395.925
395.926
395.922
395.909
395.906
395.905
395.905
395.901
395.89
395.888
395.878
395.871
395.857
395.852
395.848
396.117
396.103
396.085
396.069
396.052
396.044
396.048
396.047
396.035
396.03
396.032
396.032
396.03
396.02
396.019
396.01
396.002
395.989
395.985
395.982
396.218
396.207
396.192
396.179
396.164
396.158
396.163
396.165
396.159
396.153
396.159
396.156
396.156
396.147
396.149
396.143
396.134
396.123
396.119
396.118
396.323
396.315
396.304
396.294
396.284
396.279
396.284
396.286
396.286
396.282
396.285
396.285
396.285
396.281
396.282
396.277
396.27
396.26
396.259
396.261
396.438
396.433
396.427
396.419
396.414
396.409
396.413
396.417
396.417
396.417
396.418
396.417
396.418
396.419
396.42
396.415
396.411
396.404
396.404
396.409
396.561
396.556
396.554
396.55
396.549
396.547