/*--------------------------------*- C++ -*----------------------------------*\
| =========                 |                                                 |
| \\      /  F ield         | OpenFOAM: The Open Source CFD Toolbox           |
|  \\    /   O peration     | Version:  2212                                  |
|   \\  /    A nd           | Website:  www.openfoam.com                      |
|    \\/     M anipulation  |                                                 |
\*---------------------------------------------------------------------------*/
FoamFile
{
    version     2.0;
    format      ascii;
    arch        "LSB;label=32;scalar=64";
    class       volScalarField;
    location    "0.00098";
    object      alphat;
}
// * * * * * * * * * * * * * * * * * * * * * * * * * * * * * * * * * * * * * //

dimensions      [1 -1 -1 0 0 0 0];

internalField   nonuniform List<scalar> 
3450
(
8.61741e-06
8.68891e-05
0.000294218
0.00061593
0.000997086
0.00138361
0.00172344
0.00200743
0.00222594
0.00237903
0.00247388
0.00251594
0.00251994
0.00246623
0.00236435
0.00220665
0.00199012
0.00171435
0.00138774
0.00100584
0.000590293
0.000198927
1.22797e-05
1.60438e-05
8.69547e-06
1.22991e-05
3.72772e-05
0.000100543
0.000205379
0.000339596
0.000485472
0.000624157
0.000740201
0.000821928
0.00086117
0.000854577
0.000803361
0.00071313
0.000593797
0.000458353
0.00032146
0.000198539
0.000101269
3.8747e-05
1.49917e-05
1.87308e-05
1.40384e-05
8.8333e-06
8.56223e-06
1.393e-05
2.87888e-05
5.95414e-05
0.000109885
0.000176115
0.000248108
0.00031363
0.000361825
0.00038466
0.000378571
0.000344855
0.000289484
0.000222164
0.000154393
9.66229e-05
5.51163e-05
2.99397e-05
1.7222e-05
1.30022e-05
1.78023e-05
1.14794e-05
8.04054e-06
7.39371e-06
9.75389e-06
1.70507e-05
3.21699e-05
5.7477e-05
9.24272e-05
0.000132358
0.000170174
0.000198452
0.000211557
0.000207056
0.000186077
0.000153088
0.000114844
7.85566e-05
4.96563e-05
3.0162e-05
1.87302e-05
1.29986e-05
1.1765e-05
1.53075e-05
9.66649e-06
7.06268e-06
6.55554e-06
8.11856e-06
1.28508e-05
2.2742e-05
3.94612e-05
6.20823e-05
8.78941e-05
0.000112359
0.000130705
0.000139174
0.000136064
0.000122239
0.000100732
7.60101e-05
5.27228e-05
3.42678e-05
2.16564e-05
1.42719e-05
1.08593e-05
1.03337e-05
1.31117e-05
8.30001e-06
6.20847e-06
5.89701e-06
7.19493e-06
1.10208e-05
1.84514e-05
3.06446e-05
4.74398e-05
6.6137e-05
8.36906e-05
9.67944e-05
0.000102904
0.000100805
9.10685e-05
7.57682e-05
5.79781e-05
4.0925e-05
2.71832e-05
1.78897e-05
1.2281e-05
9.5607e-06
9.06359e-06
1.12278e-05
7.31173e-06
5.53166e-06
5.3599e-06
6.59279e-06
9.86887e-06
1.60554e-05
2.58721e-05
3.88409e-05
5.34138e-05
6.68968e-05
7.69083e-05
8.16541e-05
8.02515e-05
7.3057e-05
6.15295e-05
4.78087e-05
3.44929e-05
2.35154e-05
1.5792e-05
1.10312e-05
8.58071e-06
7.99377e-06
9.71852e-06
6.64401e-06
5.01936e-06
4.87659e-06
6.0729e-06
9.00889e-06
1.43944e-05
2.26768e-05
3.33791e-05
4.50715e-05
5.5847e-05
6.38449e-05
6.7705e-05
6.67698e-05
6.12459e-05
5.21791e-05
4.12678e-05
3.03551e-05
2.10954e-05
1.43575e-05
1.0064e-05
7.75081e-06
7.08871e-06
8.62975e-06
6.20409e-06
4.64791e-06
4.47874e-06
5.57966e-06
8.2748e-06
1.30607e-05
2.02472e-05
2.93391e-05
3.91034e-05
4.79895e-05
5.45645e-05
5.77946e-05
5.71746e-05
5.28202e-05
4.55093e-05
3.64932e-05
2.72656e-05
1.92161e-05
1.31808e-05
9.22686e-06
7.00844e-06
6.38051e-06
7.86372e-06
5.91894e-06
4.35131e-06
4.11423e-06
5.09244e-06
7.53223e-06
1.18642e-05
1.82085e-05
2.61035e-05
3.44627e-05
4.19941e-05
4.75492e-05
5.03166e-05
4.99007e-05
4.6362e-05
4.02862e-05
3.26423e-05
2.46487e-05
1.75057e-05
1.20055e-05
8.27895e-06
6.20058e-06
5.76997e-06
7.38361e-06
5.74672e-06
4.18316e-06
3.83312e-06
4.60862e-06
6.76715e-06
1.0671e-05
1.6364e-05
2.3338e-05
3.06477e-05
3.71818e-05
4.19864e-05
4.44024e-05
4.41091e-05
4.11387e-05
3.59391e-05
2.92914e-05
2.22213e-05
1.57763e-05
1.07063e-05
7.3453e-06
5.58919e-06
5.42988e-06
7.07299e-06
5.62208e-06
4.05119e-06
3.62653e-06
4.20918e-06
6.05335e-06
9.49962e-06
1.46191e-05
2.08698e-05
2.73758e-05
3.31607e-05
3.7401e-05
3.95413e-05
3.9312e-05
3.67309e-05
3.21481e-05
2.62227e-05
1.9846e-05
1.39706e-05
9.45333e-06
6.53287e-06
5.11501e-06
5.13726e-06
6.83827e-06
5.53718e-06
3.94639e-06
3.4501e-06
3.87096e-06
5.42339e-06
8.41912e-06
1.29661e-05
1.86245e-05
2.44892e-05
2.96951e-05
3.34999e-05
3.54139e-05
3.5216e-05
3.28907e-05
2.87449e-05
2.33622e-05
1.75344e-05
1.22721e-05
8.29071e-06
5.79752e-06
4.70792e-06
4.89698e-06
6.66143e-06
5.48382e-06
3.86544e-06
3.30073e-06
3.58714e-06
4.87084e-06
7.45089e-06
1.14567e-05
1.65405e-05
2.18989e-05
2.66405e-05
3.01017e-05
3.1832e-05
3.16173e-05
2.94648e-05
2.56418e-05
2.06672e-05
1.5392e-05
1.0703e-05
7.24423e-06
5.16334e-06
4.35437e-06
4.69997e-06
6.52292e-06
5.4552e-06
3.80438e-06
3.1749e-06
3.33749e-06
4.37902e-06
6.58439e-06
1.00975e-05
1.46449e-05
1.95337e-05
2.38978e-05
2.70797e-05
2.86498e-05
2.8405e-05
2.63599e-05
2.27741e-05
1.82103e-05
1.34379e-05
9.28977e-06
6.3284e-06
4.63717e-06
4.0584e-06
4.53816e-06
6.41055e-06
5.44535e-06
3.75942e-06
3.06913e-06
3.11776e-06
3.94415e-06
5.81511e-06
8.8793e-06
1.29384e-05
1.73783e-05
2.14206e-05
2.43591e-05
2.57863e-05
2.55044e-05
2.35407e-05
2.01753e-05
1.59586e-05
1.16523e-05
8.02397e-06
5.52769e-06
4.17796e-06
3.80873e-06
4.40323e-06
6.31495e-06
5.45025e-06
3.72736e-06
2.98152e-06
2.93025e-06
3.5764e-06
5.14468e-06
7.79806e-06
1.14071e-05
1.54372e-05
1.91504e-05
2.18829e-05
2.31835e-05
2.2861e-05
2.09626e-05
1.7789e-05
1.39025e-05
1.00468e-05
6.90812e-06
4.82977e-06
3.78503e-06
3.5979e-06
4.28864e-06
6.22936e-06
5.46681e-06
3.70606e-06
2.90963e-06
2.77216e-06
3.26529e-06
4.56485e-06
6.84605e-06
1.00423e-05
1.36972e-05
1.71136e-05
1.96341e-05
2.08084e-05
2.04427e-05
1.86016e-05
1.5611e-05
1.20488e-05
8.62961e-06
5.94787e-06
4.24425e-06
3.45517e-06
3.42012e-06
4.18952e-06
6.14945e-06
5.49272e-06
3.69359e-06
2.85085e-06
2.63794e-06
2.99582e-06
4.06197e-06
6.01014e-06
8.82392e-06
1.21214e-05
1.52562e-05
1.75782e-05
1.86327e-05
1.82273e-05
1.64445e-05
1.36387e-05
1.03996e-05
7.3998e-06
5.13731e-06
3.76559e-06
3.18142e-06
3.26998e-06
4.10218e-06
6.07263e-06
5.52607e-06
3.68837e-06
2.80309e-06
2.52389e-06
2.76364e-06
3.62179e-06
5.28211e-06
7.74049e-06
1.06971e-05
1.35611e-05
1.56953e-05
1.66385e-05
1.62001e-05
1.44826e-05
1.1868e-05
8.94901e-06
6.34359e-06
4.45369e-06
3.36117e-06
2.95189e-06
3.14193e-06
4.02378e-06
5.99743e-06
5.56522e-06
3.6891e-06
2.76478e-06
2.42772e-06
2.56717e-06
3.25424e-06
4.65052e-06
6.78451e-06
9.41843e-06
1.20211e-05
1.39749e-05
1.48143e-05
1.43513e-05
1.27088e-05
1.02923e-05
7.68568e-06
5.443e-06
3.87635e-06
3.02162e-06
2.75838e-06
3.03153e-06
3.95219e-06
5.92303e-06
5.609e-06
3.69474e-06
2.73452e-06
2.34706e-06
2.4016e-06
2.94621e-06
4.11013e-06
5.94835e-06
8.27855e-06
1.06293e-05
1.24086e-05
1.31514e-05
1.2673e-05
1.11159e-05
8.90228e-06
6.59598e-06
4.68201e-06
3.39394e-06
2.73765e-06
2.59461e-06
2.93534e-06
3.88587e-06
5.84903e-06
5.65663e-06
3.70441e-06
2.71101e-06
2.27932e-06
2.26086e-06
2.68108e-06
3.64587e-06
5.21992e-06
7.26817e-06
9.37801e-06
1.09894e-05
1.16424e-05
1.11581e-05
9.69573e-06
7.68672e-06
5.66496e-06
4.04576e-06
2.99965e-06
2.5014e-06
2.45554e-06
2.85072e-06
3.82373e-06
5.77527e-06
5.70754e-06
3.71743e-06
2.69315e-06
2.2224e-06
2.14085e-06
2.45368e-06
3.2451e-06
4.58678e-06
6.37689e-06
8.25893e-06
9.70963e-06
1.02799e-05
9.79863e-06
8.43824e-06
6.63109e-06
4.87323e-06
3.5144e-06
2.6721e-06
2.30357e-06
2.33658e-06
2.7755e-06
3.76493e-06
5.70174e-06
5.76112e-06
3.73322e-06
2.68002e-06
2.17462e-06
2.03852e-06
2.25921e-06
2.90059e-06
4.03883e-06
5.5947e-06
7.26342e-06
8.56179e-06
9.05668e-06
8.58555e-06
7.33165e-06
5.7195e-06
4.20205e-06
3.06839e-06
2.39629e-06
2.13629e-06
2.23384e-06
2.70789e-06
3.70886e-06
5.62848e-06
5.817e-06
3.75129e-06
2.67088e-06
2.13466e-06
1.95148e-06
2.09431e-06
2.61269e-06
3.56902e-06
4.91249e-06
6.38275e-06
7.53765e-06
7.96401e-06
7.50938e-06
6.36337e-06
4.93592e-06
3.63301e-06
2.69066e-06
2.16357e-06
1.99381e-06
2.14427e-06
2.64648e-06
3.65503e-06
5.55559e-06
5.87457e-06
3.77119e-06
2.66508e-06
2.10131e-06
1.87734e-06
1.95378e-06
2.36652e-06
3.16496e-06
4.3202e-06
5.60742e-06
6.62844e-06
6.99303e-06
6.55967e-06
5.52044e-06
4.26507e-06
3.15449e-06
2.37736e-06
1.96778e-06
1.87186e-06
2.06549e-06
2.59014e-06
3.60308e-06
5.48314e-06
5.93329e-06
3.79257e-06
2.66205e-06
2.07351e-06
1.814e-06
1.83339e-06
2.15482e-06
2.81825e-06
3.80442e-06
4.92661e-06
5.82463e-06
6.13424e-06
5.72568e-06
4.79023e-06
3.69366e-06
2.75297e-06
2.11858e-06
1.80287e-06
1.7669e-06
1.99562e-06
2.53799e-06
3.55274e-06
5.4112e-06
5.99387e-06
3.81527e-06
2.66129e-06
2.05033e-06
1.75969e-06
1.72986e-06
1.97244e-06
2.51669e-06
3.357e-06
4.33088e-06
5.11685e-06
5.37794e-06
4.99639e-06
4.15976e-06
3.20714e-06
2.41394e-06
1.89849e-06
1.6624e-06
1.67578e-06
1.93306e-06
2.48931e-06
3.50378e-06
5.33985e-06
6.05614e-06
3.83908e-06
2.66241e-06
2.03102e-06
1.71301e-06
1.64071e-06
1.81597e-06
2.25944e-06
2.97094e-06
3.81173e-06
4.49607e-06
4.71446e-06
4.36086e-06
3.6166e-06
2.79257e-06
2.12578e-06
1.71116e-06
1.54183e-06
1.59596e-06
1.87651e-06
2.4435e-06
3.45601e-06
5.26913e-06
6.1198e-06
3.86381e-06
2.66507e-06
2.01497e-06
1.6728e-06
1.56388e-06
1.68213e-06
2.04261e-06
2.63941e-06
3.36096e-06
3.95353e-06
4.13442e-06
3.80876e-06
3.14968e-06
2.43958e-06
1.88093e-06
1.55144e-06
1.4377e-06
1.52544e-06
1.82493e-06
2.40008e-06
3.40928e-06
5.1991e-06
6.18486e-06
3.88931e-06
2.66895e-06
2.00159e-06
1.63801e-06
1.49736e-06
1.5667e-06
1.85457e-06
2.35328e-06
2.96986e-06
3.48055e-06
3.62883e-06
3.33051e-06
2.74942e-06
2.14044e-06
1.67644e-06
1.41538e-06
1.3473e-06
1.46265e-06
1.77745e-06
2.35865e-06
3.36349e-06
5.12981e-06
6.25124e-06
3.91541e-06
2.67377e-06
1.99038e-06
1.60775e-06
1.43948e-06
1.46669e-06
1.69166e-06
2.10527e-06
2.63045e-06
3.0689e-06
3.18909e-06
2.91705e-06
2.40656e-06
1.8862e-06
1.50272e-06
1.29869e-06
1.26827e-06
1.40627e-06
1.73338e-06
2.31889e-06
3.31852e-06
5.06129e-06
6.319e-06
3.942e-06
2.67929e-06
1.98092e-06
1.58125e-06
1.38886e-06
1.37972e-06
1.55045e-06
1.88966e-06
2.33596e-06
2.7111e-06
2.80725e-06
2.55995e-06
2.1126e-06
1.66905e-06
1.35338e-06
1.19778e-06
1.19861e-06
1.35518e-06
1.69212e-06
2.28051e-06
3.27429e-06
4.99358e-06
6.38809e-06
3.96894e-06
2.68525e-06
1.9728e-06
1.55784e-06
1.34442e-06
1.30394e-06
1.42843e-06
1.706e-06
2.08176e-06
2.40076e-06
2.4761e-06
2.25164e-06
1.8601e-06
1.48221e-06
1.22466e-06
1.10991e-06
1.13671e-06
1.30848e-06
1.65318e-06
2.24329e-06
3.23073e-06
4.92667e-06
6.45868e-06
3.99613e-06
2.69141e-06
1.96563e-06
1.53692e-06
1.30519e-06
1.23762e-06
1.32269e-06
1.5482e-06
1.86222e-06
2.13178e-06
2.18918e-06
1.98563e-06
1.6434e-06
1.32231e-06
1.11353e-06
1.03293e-06
1.08123e-06
1.26539e-06
1.61615e-06
2.20704e-06
3.18779e-06
4.86045e-06
6.53069e-06
4.02345e-06
2.69754e-06
1.95905e-06
1.51789e-06
1.27004e-06
1.17913e-06
1.23038e-06
1.4104e-06
1.67167e-06
1.89842e-06
1.94063e-06
1.75627e-06
1.45786e-06
1.187e-06
1.01739e-06
9.65043e-07
1.03107e-06
1.22527e-06
1.58066e-06
2.17158e-06
3.14548e-06
4.79523e-06
6.60458e-06
4.05085e-06
2.70339e-06
1.95269e-06
1.50024e-06
1.2382e-06
1.12713e-06
1.14934e-06
1.2899e-06
1.50507e-06
1.69554e-06
1.72513e-06
1.55817e-06
1.29798e-06
1.06931e-06
9.33315e-07
9.04638e-07
9.85276e-07
1.18755e-06
1.54639e-06
2.13681e-06
3.1039e-06
4.7316e-06
6.68024e-06
4.07817e-06
2.70868e-06
1.94616e-06
1.48343e-06
1.20895e-06
1.08051e-06
1.07778e-06
1.18449e-06
1.36051e-06
1.51928e-06
1.53812e-06
1.3867e-06
1.15959e-06
9.66754e-07
8.59317e-07
8.50369e-07
9.43043e-07
1.15174e-06
1.51307e-06
2.10262e-06
3.06309e-06
4.66949e-06
6.75862e-06
4.1054e-06
2.71309e-06
1.939e-06
1.46692e-06
1.18164e-06
1.03828e-06
1.01414e-06
1.09211e-06
1.23631e-06
1.36633e-06
1.37566e-06
1.23786e-06
1.03895e-06
8.76969e-07
7.93885e-07
8.01183e-07
9.03687e-07
1.11741e-06
1.48045e-06
2.06894e-06
3.02314e-06
4.60921e-06
6.83938e-06
4.13225e-06
2.71605e-06
1.93067e-06
1.45018e-06
1.15567e-06
9.99515e-07
9.56944e-07
1.0103e-06
1.12674e-06
1.23276e-06
1.23425e-06
1.10877e-06
9.35094e-07
7.98237e-07
7.356e-07
7.56316e-07
8.66627e-07
1.08418e-06
1.44831e-06
2.03568e-06
2.98416e-06
4.55086e-06
6.92423e-06
4.15873e-06
2.71716e-06
1.9206e-06
1.43285e-06
1.13044e-06
9.63446e-07
9.05341e-07
9.37628e-07
1.02995e-06
1.11544e-06
1.11071e-06
9.96292e-07
8.44332e-07
7.29023e-07
6.83265e-07
7.14902e-07
8.31308e-07
1.05167e-06
1.41642e-06
2.00281e-06
2.94647e-06
4.4957e-06
7.01276e-06
4.18451e-06
2.71607e-06
1.90837e-06
1.4144e-06
1.10538e-06
9.2945e-07
8.58381e-07
8.72789e-07
9.44136e-07
1.01257e-06
1.00253e-06
8.97796e-07
7.64198e-07
6.67607e-07
6.35785e-07
6.76174e-07
7.9719e-07
1.0195e-06
1.38456e-06
1.9701e-06
2.91015e-06
4.44355e-06
7.10975e-06
4.20923e-06
2.7118e-06
1.89347e-06
1.39445e-06
1.08008e-06
8.97038e-07
8.15256e-07
8.14575e-07
8.68079e-07
9.22368e-07
9.07572e-07
8.11284e-07
6.93542e-07
6.12678e-07
5.92311e-07
6.39459e-07
7.63678e-07
9.87191e-07
1.3529e-06
1.9375e-06
2.87592e-06
4.39749e-06
7.21117e-06
4.23119e-06
2.70311e-06
1.87578e-06
1.3728e-06
1.05442e-06
8.65941e-07
7.75378e-07
7.62015e-07
8.00388e-07
8.41948e-07
8.23777e-07
7.35173e-07
6.30957e-07
5.63194e-07
5.521e-07
6.04286e-07
7.30282e-07
9.53728e-07
1.31933e-06
1.90418e-06
2.84346e-06
4.35601e-06
7.3307e-06
4.25054e-06
2.68917e-06
1.85507e-06
1.34949e-06
1.0287e-06
8.36193e-07
7.38395e-07
7.14347e-07
7.39868e-07
7.70516e-07
7.4954e-07
6.67677e-07
5.75201e-07
5.18357e-07
5.14655e-07
5.70391e-07
6.9697e-07
9.18685e-07
1.28337e-06
1.86972e-06
2.81401e-06
4.3274e-06
7.4444e-06
4.26065e-06
2.66937e-06
1.83164e-06
1.32515e-06
1.00389e-06
8.08028e-07
7.04116e-07
6.71025e-07
6.85466e-07
7.06792e-07
6.83524e-07
6.07632e-07
5.25242e-07
4.77516e-07
4.79679e-07
5.37976e-07
6.63906e-07
8.82706e-07
1.24434e-06
1.83258e-06
2.78461e-06
4.30368e-06
7.59071e-06
4.25574e-06
2.64686e-06
1.80781e-06
1.3023e-06
9.8087e-07
7.81898e-07
6.72644e-07
6.3167e-07
6.36423e-07
6.49647e-07
6.24521e-07
5.53976e-07
4.80301e-07
4.40325e-07
4.47413e-07
5.07411e-07
6.32327e-07
8.47817e-07
1.20397e-06
1.79284e-06
2.7574e-06
4.31326e-06
7.65496e-06
4.2349e-06
2.62402e-06
1.78688e-06
1.28353e-06
9.61388e-07
7.58403e-07
6.44289e-07
5.96034e-07
5.91987e-07
5.97985e-07
5.713e-07
5.05582e-07
4.39737e-07
4.06828e-07
4.18387e-07
4.79999e-07
6.04257e-07
8.16793e-07
1.16963e-06
1.74887e-06
2.71678e-06
4.29562e-06
7.76718e-06
4.24265e-06
2.6268e-06
1.78857e-06
1.28107e-06
9.50202e-07
7.41949e-07
6.21271e-07
5.64819e-07
5.51809e-07
5.50867e-07
5.22578e-07
4.61297e-07
4.0302e-07
3.77455e-07
3.94241e-07
4.58938e-07
5.84867e-07
8.00392e-07
1.15324e-06
1.72986e-06
2.6967e-06
4.38249e-06
7.5225e-06
4.31005e-06
2.73527e-06
1.88741e-06
1.35162e-06
9.93233e-07
7.58253e-07
6.13819e-07
5.37026e-07
5.07778e-07
4.9696e-07
4.65923e-07
4.08262e-07
3.59661e-07
3.46176e-07
3.75196e-07
4.52238e-07
5.90408e-07
8.15744e-07
1.1759e-06
1.75433e-06
2.65641e-06
4.06703e-06
7.1981e-06
4.46833e-06
2.93134e-06
2.02337e-06
1.44541e-06
1.05387e-06
7.8986e-07
6.20276e-07
5.21802e-07
4.74594e-07
4.51909e-07
4.17736e-07
3.65221e-07
3.27291e-07
3.26187e-07
3.67921e-07
4.58725e-07
6.13313e-07
8.64114e-07
1.24863e-06
1.79089e-06
2.5876e-06
3.80114e-06
6.92589e-06
4.39652e-06
3.02717e-06
2.14895e-06
1.53882e-06
1.11395e-06
8.26406e-07
6.35568e-07
5.18051e-07
4.54263e-07
4.19698e-07
3.82294e-07
3.35205e-07
3.07007e-07
3.16406e-07
3.68765e-07
4.72666e-07
6.44657e-07
8.98099e-07
1.25181e-06
1.77056e-06
2.5269e-06
3.64647e-06
6.71077e-06
4.31943e-06
3.0058e-06
2.20139e-06
1.61382e-06
1.1746e-06
8.62964e-07
6.5511e-07
5.21681e-07
4.43512e-07
3.98136e-07
3.57632e-07
3.15378e-07
2.95287e-07
3.13108e-07
3.75345e-07
4.89024e-07
6.60046e-07
9.01848e-07
1.25053e-06
1.75456e-06
2.48589e-06
3.57013e-06
6.53955e-06
4.24632e-06
2.97965e-06
2.20379e-06
1.65037e-06
1.22176e-06
9.00415e-07
6.75957e-07
5.29762e-07
4.39579e-07
3.84868e-07
3.41491e-07
3.03197e-07
2.89586e-07
3.14386e-07
3.83341e-07
4.97584e-07
6.65291e-07
9.0527e-07
1.24973e-06
1.74434e-06
2.46219e-06
3.53295e-06
6.40715e-06
4.18196e-06
2.95293e-06
2.19765e-06
1.66434e-06
1.25089e-06
9.31916e-07
6.97939e-07
5.40471e-07
4.40449e-07
3.77873e-07
3.31842e-07
2.96519e-07
2.87642e-07
3.17806e-07
3.88303e-07
5.02509e-07
6.69334e-07
9.08734e-07
1.25005e-06
1.73878e-06
2.45036e-06
3.51905e-06
6.30205e-06
4.12738e-06
2.92779e-06
2.1895e-06
1.66589e-06
1.26571e-06
9.54277e-07
7.18952e-07
5.52698e-07
4.44684e-07
3.75568e-07
3.27105e-07
2.93822e-07
2.88343e-07
3.20648e-07
3.91992e-07
5.06367e-07
6.73634e-07
9.12498e-07
1.25167e-06
1.73721e-06
2.44668e-06
3.51827e-06
6.21473e-06
4.07853e-06
2.90315e-06
2.18008e-06
1.66638e-06
1.27455e-06
9.69407e-07
7.36296e-07
5.65498e-07
4.51009e-07
3.76652e-07
3.25971e-07
2.93848e-07
2.90405e-07
3.23646e-07
3.95608e-07
5.10466e-07
6.78302e-07
9.16828e-07
1.25473e-06
1.73875e-06
2.44852e-06
3.52499e-06
6.14013e-06
4.0357e-06
2.88053e-06
2.17071e-06
1.66603e-06
1.28011e-06
9.8032e-07
7.49804e-07
5.78371e-07
4.58764e-07
3.80182e-07
3.2745e-07
2.95768e-07
2.93439e-07
3.27203e-07
3.99668e-07
5.15169e-07
6.83449e-07
9.21851e-07
1.25902e-06
1.74256e-06
2.45366e-06
3.53564e-06
6.0741e-06
3.9978e-06
2.85983e-06
2.16156e-06
1.66495e-06
1.28407e-06
9.88833e-07
7.60883e-07
5.89883e-07
4.67324e-07
3.85405e-07
3.30833e-07
2.99133e-07
2.97393e-07
3.3152e-07
4.04365e-07
5.2032e-07
6.88935e-07
9.27354e-07
1.26427e-06
1.7479e-06
2.46063e-06
3.54795e-06
6.01385e-06
3.96356e-06
2.84068e-06
2.15246e-06
1.66317e-06
1.2874e-06
9.95996e-07
7.70369e-07
6.00012e-07
4.76398e-07
3.91609e-07
3.35567e-07
3.03779e-07
3.02116e-07
3.36445e-07
4.09567e-07
5.25847e-07
6.94739e-07
9.33356e-07
1.2704e-06
1.7544e-06
2.46862e-06
3.56064e-06
5.95756e-06
3.93223e-06
2.82298e-06
2.1436e-06
1.66093e-06
1.2901e-06
1.00191e-06
7.78663e-07
6.09218e-07
4.85101e-07
3.98789e-07
3.41354e-07
3.09144e-07
3.07469e-07
3.41873e-07
4.15192e-07
5.31744e-07
7.00946e-07
9.39905e-07
1.27722e-06
1.76162e-06
2.47702e-06
3.57305e-06
5.90419e-06
3.90318e-06
2.80663e-06
2.13523e-06
1.65846e-06
1.29214e-06
1.00676e-06
7.86073e-07
6.17668e-07
4.9345e-07
4.062e-07
3.477e-07
3.15068e-07
3.13314e-07
3.47735e-07
4.21199e-07
5.38038e-07
7.07635e-07
9.46986e-07
1.28458e-06
1.76926e-06
2.48548e-06
3.58495e-06
5.85319e-06
3.87596e-06
2.79152e-06
2.1274e-06
1.656e-06
1.29388e-06
1.01145e-06
7.92877e-07
6.25529e-07
5.01641e-07
4.1344e-07
3.54263e-07
3.21378e-07
3.195e-07
3.53944e-07
4.27525e-07
5.44613e-07
7.14681e-07
9.54433e-07
1.29226e-06
1.77705e-06
2.49375e-06
3.59613e-06
5.80417e-06
3.8502e-06
2.77743e-06
2.12012e-06
1.65364e-06
1.29538e-06
1.01573e-06
7.98662e-07
6.32676e-07
5.09211e-07
4.20672e-07
3.61096e-07
3.27981e-07
3.25936e-07
3.60397e-07
4.34148e-07
5.51527e-07
7.22032e-07
9.62159e-07
1.30014e-06
1.78485e-06
2.5017e-06
3.60643e-06
5.75689e-06
3.82566e-06
2.76425e-06
2.11337e-06
1.65143e-06
1.29674e-06
1.0196e-06
8.0389e-07
6.39211e-07
5.1616e-07
4.27795e-07
3.68126e-07
3.34812e-07
3.32633e-07
3.67097e-07
4.4103e-07
5.58739e-07
7.2966e-07
9.70136e-07
1.30816e-06
1.79258e-06
2.50924e-06
3.6158e-06
5.7111e-06
3.80213e-06
2.75184e-06
2.1072e-06
1.64954e-06
1.29813e-06
1.02319e-06
8.08975e-07
6.45338e-07
5.2293e-07
4.34841e-07
3.75164e-07
3.41757e-07
3.3951e-07
3.73995e-07
4.48157e-07
5.66228e-07
7.37538e-07
9.78311e-07
1.31627e-06
1.80018e-06
2.51634e-06
3.6242e-06
5.66656e-06
3.77946e-06
2.74009e-06
2.1015e-06
1.648e-06
1.29954e-06
1.02669e-06
8.13893e-07
6.50996e-07
5.2942e-07
4.41746e-07
3.82141e-07
3.48765e-07
3.46609e-07
3.81148e-07
4.55475e-07
5.73934e-07
7.45672e-07
9.86631e-07
1.32439e-06
1.80761e-06
2.52297e-06
3.63162e-06
5.62307e-06
3.75755e-06
2.729e-06
2.0964e-06
1.64688e-06
1.30107e-06
1.03021e-06
8.18735e-07
6.56432e-07
5.35653e-07
4.48423e-07
3.89023e-07
3.55829e-07
3.53847e-07
3.88436e-07
4.62834e-07
5.81788e-07
7.54003e-07
9.95111e-07
1.33251e-06
1.81484e-06
2.52913e-06
3.63808e-06
5.5805e-06
3.7363e-06
2.7185e-06
2.09187e-06
1.64603e-06
1.30282e-06
1.03378e-06
8.23521e-07
6.6193e-07
5.41765e-07
4.55015e-07
3.95953e-07
3.63012e-07
3.61179e-07
3.95832e-07
4.70447e-07
5.89837e-07
7.62459e-07
1.0037e-06
1.34063e-06
1.82185e-06
2.53477e-06
3.64358e-06
5.53871e-06
3.71573e-06
2.70862e-06
2.08778e-06
1.64561e-06
1.30488e-06
1.03751e-06
8.28367e-07
6.67452e-07
5.47647e-07
4.61596e-07
4.02885e-07
3.7025e-07
3.6859e-07
4.03369e-07
4.78289e-07
5.98103e-07
7.71086e-07
1.01233e-06
1.34869e-06
1.82867e-06
2.53996e-06
3.64816e-06
5.49761e-06
3.69571e-06
2.69926e-06
2.08419e-06
1.64568e-06
1.30733e-06
1.04154e-06
8.33381e-07
6.73127e-07
5.53728e-07
4.68306e-07
4.1002e-07
3.7765e-07
3.76157e-07
4.11081e-07
4.86348e-07
6.06599e-07
7.799e-07
1.02104e-06
1.35667e-06
1.83523e-06
2.54465e-06
3.65171e-06
5.45697e-06
3.67604e-06
2.69032e-06
2.08111e-06
1.64625e-06
1.31026e-06
1.04592e-06
8.38546e-07
6.7901e-07
5.6004e-07
4.75106e-07
4.17298e-07
3.85228e-07
3.8389e-07
4.18895e-07
4.94645e-07
6.15342e-07
7.88891e-07
1.02983e-06
1.36458e-06
1.84147e-06
2.5487e-06
3.65417e-06
5.41683e-06
3.65676e-06
2.68167e-06
2.07845e-06
1.6473e-06
1.31367e-06
1.05077e-06
8.44196e-07
6.8522e-07
5.66643e-07
4.8197e-07
4.24623e-07
3.9291e-07
3.91828e-07
4.27044e-07
5.03215e-07
6.24315e-07
7.98049e-07
1.0387e-06
1.37241e-06
1.84739e-06
2.55228e-06
3.65565e-06
5.37718e-06
3.63756e-06
2.67349e-06
2.07613e-06
1.64877e-06
1.31754e-06
1.05606e-06
8.50306e-07
6.91839e-07
5.73607e-07
4.89071e-07
4.32044e-07
4.00704e-07
3.99873e-07
4.35435e-07
5.11991e-07
6.33478e-07
8.07333e-07
1.04756e-06
1.38018e-06
1.85312e-06
2.55519e-06
3.65613e-06
5.33761e-06
3.61859e-06
2.66551e-06
2.07431e-06
1.65061e-06
1.32177e-06
1.06163e-06
8.56752e-07
6.98754e-07
5.80766e-07
4.96351e-07
4.39625e-07
4.08695e-07
4.08026e-07
4.44026e-07
5.20926e-07
6.42817e-07
8.16733e-07
1.05655e-06
1.38782e-06
1.85847e-06
2.55742e-06
3.65558e-06
5.29835e-06
3.59987e-06
2.65774e-06
2.07269e-06
1.65285e-06
1.32632e-06
1.06741e-06
8.63473e-07
7.05932e-07
5.88167e-07
5.03914e-07
4.4739e-07
4.16684e-07
4.16457e-07
4.52885e-07
5.30157e-07
6.52353e-07
8.2632e-07
1.06552e-06
1.39533e-06
1.86354e-06
2.55914e-06
3.6539e-06
5.25946e-06
3.58134e-06
2.65012e-06
2.07129e-06
1.65536e-06
1.33126e-06
1.07369e-06
8.70553e-07
7.13427e-07
5.95874e-07
5.11846e-07
4.55466e-07
4.25096e-07
4.25205e-07
4.6203e-07
5.39652e-07
6.62116e-07
8.35976e-07
1.07447e-06
1.40269e-06
1.86829e-06
2.56031e-06
3.65128e-06
5.221e-06
3.56296e-06
2.64263e-06
2.07008e-06
1.65812e-06
1.3365e-06
1.0804e-06
8.78049e-07
7.2124e-07
6.03895e-07
5.20029e-07
4.63838e-07
4.33798e-07
4.34256e-07
4.71464e-07
5.49398e-07
6.71994e-07
8.45697e-07
1.08336e-06
1.40987e-06
1.87269e-06
2.56096e-06
3.64782e-06
5.18305e-06
3.54474e-06
2.63522e-06
2.06899e-06
1.66103e-06
1.3418e-06
1.08738e-06
8.85857e-07
7.29463e-07
6.12304e-07
5.2851e-07
4.72503e-07
4.42789e-07
4.43609e-07
4.81152e-07
5.59318e-07
6.8188e-07
8.55436e-07
1.09218e-06
1.41682e-06
1.87673e-06
2.56113e-06
3.64365e-06
5.14576e-06
3.52669e-06
2.62783e-06
2.06794e-06
1.66407e-06
1.34732e-06
1.09463e-06
8.93995e-07
7.38026e-07
6.21134e-07
5.37334e-07
4.81469e-07
4.5207e-07
4.53259e-07
4.91096e-07
5.69447e-07
6.91984e-07
8.65183e-07
1.10087e-06
1.42352e-06
1.88041e-06
2.56083e-06
3.63889e-06
5.10927e-06
3.50883e-06
2.62043e-06
2.06688e-06
1.66719e-06
1.35317e-06
1.10217e-06
9.02447e-07
7.46909e-07
6.30198e-07
5.46441e-07
4.90731e-07
4.61658e-07
4.63274e-07
5.01296e-07
5.79771e-07
7.02211e-07
8.749e-07
1.1094e-06
1.42995e-06
1.88374e-06
2.56014e-06
3.6337e-06
5.07377e-06
3.49119e-06
2.61298e-06
2.06575e-06
1.67032e-06
1.35919e-06
1.10995e-06
9.11188e-07
7.56138e-07
6.39531e-07
5.55815e-07
5.00259e-07
4.71506e-07
4.73504e-07
5.11713e-07
5.90255e-07
7.12506e-07
8.84536e-07
1.11773e-06
1.43609e-06
1.88671e-06
2.55911e-06
3.62819e-06
5.03972e-06
3.47386e-06
2.60548e-06
2.06448e-06
1.67333e-06
1.36525e-06
1.1179e-06
9.20183e-07
7.65747e-07
6.49143e-07
5.6544e-07
5.10026e-07
4.81578e-07
4.83912e-07
5.22307e-07
6.00848e-07
7.22783e-07
8.93945e-07
1.12582e-06
1.44191e-06
1.88935e-06
2.55779e-06
3.62251e-06
5.00644e-06
3.45678e-06
2.59789e-06
2.06298e-06
1.67584e-06
1.37116e-06
1.12589e-06
9.2934e-07
7.75444e-07
6.58949e-07
5.75276e-07
5.20004e-07
4.9185e-07
4.94498e-07
5.33065e-07
6.1152e-07
7.33027e-07
9.03212e-07
1.13364e-06
1.44739e-06
1.89165e-06
2.55625e-06
3.6168e-06
4.9744e-06
3.44002e-06
2.59023e-06
2.06133e-06
1.6785e-06
1.37705e-06
1.13394e-06
9.38721e-07
7.85275e-07
6.68916e-07
5.85291e-07
5.30164e-07
5.02301e-07
5.05267e-07
5.44058e-07
6.22269e-07
7.4325e-07
9.12415e-07
1.14119e-06
1.45254e-06
1.89365e-06
2.55455e-06
3.61119e-06
4.94376e-06
3.42366e-06
2.58254e-06
2.05953e-06
1.68112e-06
1.38291e-06
1.14202e-06
9.48227e-07
7.95219e-07
6.79012e-07
5.95453e-07
5.40477e-07
5.12901e-07
5.16163e-07
5.55102e-07
6.33042e-07
7.53414e-07
9.21462e-07
1.14845e-06
1.45735e-06
1.89537e-06
2.55275e-06
3.60577e-06
4.91471e-06
3.40778e-06
2.57484e-06
2.05757e-06
1.6836e-06
1.38868e-06
1.15007e-06
9.57619e-07
8.05194e-07
6.89195e-07
6.05726e-07
5.50911e-07
5.23613e-07
5.27136e-07
5.66139e-07
6.43798e-07
7.63481e-07
9.30309e-07
1.15542e-06
1.46184e-06
1.89686e-06
2.55093e-06
3.60068e-06
4.88752e-06
3.39252e-06
2.56722e-06
2.05547e-06
1.68592e-06
1.39437e-06
1.1582e-06
9.66975e-07
8.15175e-07
6.99431e-07
6.1608e-07
5.61434e-07
5.34405e-07
5.38159e-07
5.77179e-07
6.54529e-07
7.73427e-07
9.38933e-07
1.16209e-06
1.46604e-06
1.89817e-06
2.54918e-06
3.59615e-06
4.86158e-06
3.37781e-06
2.5597e-06
2.05326e-06
1.68805e-06
1.39989e-06
1.16624e-06
9.76263e-07
8.25133e-07
7.09688e-07
6.26485e-07
5.7202e-07
5.45253e-07
5.49218e-07
5.88238e-07
6.65321e-07
7.8324e-07
9.47314e-07
1.16847e-06
1.46996e-06
1.89931e-06
2.54741e-06
3.59175e-06
4.83664e-06
3.36367e-06
2.55232e-06
2.05094e-06
1.68998e-06
1.40518e-06
1.17393e-06
9.85389e-07
8.35023e-07
7.19934e-07
6.36912e-07
5.82641e-07
5.5613e-07
5.6028e-07
5.99249e-07
6.75942e-07
7.9286e-07
9.55431e-07
1.17454e-06
1.47362e-06
1.90029e-06
2.5457e-06
3.58738e-06
4.81416e-06
3.35051e-06
2.54516e-06
2.04854e-06
1.69169e-06
1.41022e-06
1.18135e-06
9.94323e-07
8.44809e-07
7.30138e-07
6.47337e-07
5.93273e-07
5.67007e-07
5.71311e-07
6.10164e-07
6.86352e-07
8.02252e-07
9.63271e-07
1.18032e-06
1.47703e-06
1.90122e-06
2.54426e-06
3.58382e-06
4.79374e-06
3.33827e-06
2.53838e-06
2.04611e-06
1.6932e-06
1.41504e-06
1.18852e-06
1.00307e-06
8.54474e-07
7.40281e-07
6.57737e-07
6.03894e-07
5.77864e-07
5.82285e-07
6.20962e-07
6.96568e-07
8.11409e-07
9.70833e-07
1.18583e-06
1.48027e-06
1.90218e-06
2.54307e-06
3.58096e-06
4.77447e-06
3.32669e-06
2.53191e-06
2.04382e-06
1.69465e-06
1.4198e-06
1.19552e-06
1.01164e-06
8.64018e-07
7.50352e-07
6.68099e-07
6.14489e-07
5.88681e-07
5.93186e-07
6.31637e-07
7.06601e-07
8.20335e-07
9.78123e-07
1.19112e-06
1.48338e-06
1.90307e-06
2.54197e-06
3.57827e-06
4.75617e-06
3.31576e-06
2.52571e-06
2.04152e-06
1.696e-06
1.42438e-06
1.20234e-06
1.02005e-06
8.73441e-07
7.60346e-07
6.78414e-07
6.25046e-07
5.99449e-07
6.04008e-07
6.4219e-07
7.16477e-07
8.29117e-07
9.85236e-07
1.19619e-06
1.4863e-06
1.9039e-06
2.5409e-06
3.57554e-06
4.7386e-06
3.30546e-06
2.51986e-06
2.0393e-06
1.69718e-06
1.42856e-06
1.2089e-06
1.0283e-06
8.82752e-07
7.70266e-07
6.88683e-07
6.35566e-07
6.10165e-07
6.1475e-07
6.52634e-07
7.26217e-07
8.37748e-07
9.92093e-07
1.20105e-06
1.48909e-06
1.9047e-06
2.53981e-06
3.57253e-06
4.72156e-06
3.29585e-06
2.51452e-06
2.03733e-06
1.69836e-06
1.43257e-06
1.21522e-06
1.03632e-06
8.9189e-07
7.8007e-07
6.98871e-07
6.46016e-07
6.20799e-07
6.25377e-07
6.6291e-07
7.35726e-07
8.4605e-07
9.98732e-07
1.20577e-06
1.49185e-06
1.90554e-06
2.5387e-06
3.56907e-06
4.70498e-06
3.28685e-06
2.50966e-06
2.03563e-06
1.69961e-06
1.43651e-06
1.22143e-06
1.04422e-06
9.00918e-07
7.89783e-07
7.08986e-07
6.56397e-07
6.31351e-07
6.35899e-07
6.73053e-07
7.45066e-07
8.54155e-07
1.00522e-06
1.2104e-06
1.49459e-06
1.90639e-06
2.53751e-06
3.56507e-06
4.68869e-06
3.27843e-06
2.5053e-06
2.03425e-06
1.70097e-06
1.44043e-06
1.22756e-06
1.05204e-06
9.0989e-07
7.99453e-07
7.19066e-07
6.6674e-07
6.41852e-07
6.46346e-07
6.83091e-07
7.54263e-07
8.62089e-07
1.01156e-06
1.21492e-06
1.49733e-06
1.90727e-06
2.53618e-06
3.5604e-06
4.67254e-06
3.27054e-06
2.50147e-06
2.03322e-06
1.7025e-06
1.44437e-06
1.23362e-06
1.05977e-06
9.18783e-07
8.09079e-07
7.29125e-07
6.77064e-07
6.52314e-07
6.56716e-07
6.93009e-07
7.63314e-07
8.69878e-07
1.01779e-06
1.21943e-06
1.5001e-06
1.90817e-06
2.53467e-06
3.55491e-06
4.65643e-06
3.26315e-06
2.49816e-06
2.03261e-06
1.70426e-06
1.44839e-06
1.23966e-06
1.06743e-06
9.27602e-07
8.18638e-07
7.39126e-07
6.87329e-07
6.62703e-07
6.66992e-07
7.02813e-07
7.72238e-07
8.77554e-07
1.02396e-06
1.22395e-06
1.50292e-06
1.90907e-06
2.53294e-06
3.54853e-06
4.64031e-06
3.2562e-06
2.49538e-06
2.03241e-06
1.70629e-06
1.45254e-06
1.24573e-06
1.07506e-06
9.36367e-07
8.28142e-07
7.49076e-07
6.9754e-07
6.73025e-07
6.77179e-07
7.12513e-07
7.81056e-07
8.8514e-07
1.03008e-06
1.22848e-06
1.50578e-06
1.90998e-06
2.53095e-06
3.54123e-06
4.62421e-06
3.24966e-06
2.49311e-06
2.03264e-06
1.70861e-06
1.45683e-06
1.25184e-06
1.08268e-06
9.45094e-07
8.37603e-07
7.58983e-07
7.07702e-07
6.83283e-07
6.87285e-07
7.22117e-07
7.89777e-07
8.9265e-07
1.03617e-06
1.23304e-06
1.5087e-06
1.91087e-06
2.52867e-06
3.53308e-06
4.60828e-06
3.2435e-06
2.49128e-06
2.03317e-06
1.7112e-06
1.46129e-06
1.25801e-06
1.09029e-06
9.53787e-07
8.47022e-07
7.68845e-07
7.17812e-07
6.93474e-07
6.97307e-07
7.31627e-07
7.98407e-07
9.00094e-07
1.04224e-06
1.23762e-06
1.51166e-06
1.91172e-06
2.52613e-06
3.52419e-06
4.59277e-06
3.23772e-06
2.48989e-06
2.03411e-06
1.71406e-06
1.46591e-06
1.26425e-06
1.0979e-06
9.6244e-07
8.56389e-07
7.78652e-07
7.2786e-07
7.03589e-07
7.07237e-07
7.41037e-07
8.06945e-07
9.0747e-07
1.04828e-06
1.24222e-06
1.51463e-06
1.91252e-06
2.52335e-06
3.51481e-06
4.57803e-06
3.23233e-06
2.48888e-06
2.03546e-06
1.71719e-06
1.47067e-06
1.27052e-06
1.10548e-06
9.71037e-07
8.65686e-07
7.88383e-07
7.37826e-07
7.1361e-07
7.1706e-07
7.50334e-07
8.15379e-07
9.14768e-07
1.05428e-06
1.2468e-06
1.51758e-06
1.91322e-06
2.52039e-06
3.50526e-06
4.5645e-06
3.22739e-06
2.48819e-06
2.03713e-06
1.72055e-06
1.47555e-06
1.27682e-06
1.11302e-06
9.79547e-07
8.74883e-07
7.98011e-07
7.47683e-07