/*--------------------------------*- C++ -*----------------------------------*\
| =========                 |                                                 |
| \\      /  F ield         | OpenFOAM: The Open Source CFD Toolbox           |
|  \\    /   O peration     | Version:  2212                                  |
|   \\  /    A nd           | Website:  www.openfoam.com                      |
|    \\/     M anipulation  |                                                 |
\*---------------------------------------------------------------------------*/
FoamFile
{
    version     2.0;
    format      ascii;
    arch        "LSB;label=32;scalar=64";
    class       surfaceScalarField;
    location    "0.00356";
    object      phi;
}
// * * * * * * * * * * * * * * * * * * * * * * * * * * * * * * * * * * * * * //

dimensions      [1 0 -1 0 0 0 0];

oriented        oriented;

internalField   nonuniform List<scalar> 
14149
(
0.000110206
-8.2448e-05
-6.78898e-05
5.96417e-05
-7.59032e-07
0.000201506
-0.000210242
9.15351e-06
0.000178786
5.47791e-06
-0.000185608
1.88173e-05
-0.000159177
0.000151195
-1.21621e-05
-2.78077e-05
3.90701e-05
0.000190081
0.000169141
0.000201864
6.84469e-05
-5.08545e-05
-0.000216252
-8.48572e-05
0.000105581
-0.000220434
0.000202397
6.89102e-05
-0.000185457
0.00017316
-5.56727e-05
0.000187539
0.00013956
5.84715e-05
-0.000141837
-4.23618e-05
-0.000746405
-0.000569316
0.00104831
0.000297989
0.000921945
-0.00013432
7.89113e-05
-0.00086066
3.9645e-05
-3.0719e-05
-0.000366129
0.000359088
-1.55443e-05
-0.000446319
4.96484e-05
0.000416422
-0.000868106
0.000921223
-0.00123994
0.00115754
-8.11496e-05
-0.00101531
0.000916331
0.000190014
-9.11658e-05
-9.00771e-05
0.000112197
8.15823e-05
-0.00101442
0.000930112
1.21855e-05
0.00010846
-2.62778e-05
4.53423e-05
-0.0001169
0.000116067
-0.000947732
-9.11355e-05
0.000931331
0.000744119
-0.000370449
-0.000746136
0.000378334
-4.66676e-05
-5.12085e-05
5.03601e-05
4.77001e-05
-0.000510436
0.000112193
-0.00022202
0.000623282
0.000516796
0.000249018
-0.000512462
-0.000261505
2.0495e-05
2.45588e-05
0.000249407
-0.000290414
0.000805594
-0.000530485
0.000307829
-0.000619732
-3.41383e-05
3.92418e-05
-0.000233286
0.000234993
0.000158672
0.000909386
-0.000943401
0.000884206
-0.000950877
-5.06569e-05
0.000124663
-0.000381846
-0.000370187
0.000343956
0.000417379
0.000958647
1.02038e-05
-1.26987e-05
-0.000948417
-0.00022875
0.000120807
0.000255705
-0.000147085
-3.40687e-05
0.00087711
4.82741e-05
4.01576e-05
-4.29555e-05
0.000130556
-0.000132577
5.89724e-05
-0.000174529
-6.11648e-05
0.000194137
0.00017005
6.07263e-05
-5.83365e-05
-0.000173232
6.76917e-05
0.0001851
-9.825e-05
6.58689e-05
-0.000139959
0.000148285
-0.000227651
1.65734e-06
0.000238998
-1.19366e-06
1.70186e-06
-0.000216628
-1.46556e-06
0.000227572
-0.000216549
1.91479e-06
0.000238919
2.11547e-06
2.9743e-05
0.00021405
-3.87599e-05
-0.000217369
-3.16176e-05
-0.000241603
3.85006e-05
0.000233546
0.000217009
-0.000240411
-7.56419e-06
0.000216289
9.82759e-06
-1.37858e-05
0.000215262
1.9508e-05
-0.000206
1.73534e-06
-1.76095e-06
1.78545e-06
-0.000195821
-2.08818e-06
0.000205929
-0.000195744
1.44317e-06
1.68999e-06
-0.000186162
1.82012e-06
-2.43455e-06
1.87253e-06
-0.000177109
-2.79316e-06
0.000186092
-0.000177039
9.16757e-07
1.17859e-06
-0.000168664
1.91571e-06
-3.16306e-06
1.96356e-06
-0.000160486
-3.5438e-06
0.000168591
-0.0001604
3.43456e-07
6.40392e-07
-0.000154481
2.0032e-06
-3.90476e-06
2.03261e-06
-0.000149373
-4.23011e-06
0.00015443
-0.00014933
-2.31168e-07
5.40632e-08
-0.000144594
2.06019e-06
-4.56157e-06
2.08318e-06
-0.000140761
-4.86258e-06
0.000144558
-0.00014074
-7.89046e-07
-5.21305e-07
-0.000138407
2.08898e-06
-5.08646e-06
2.05902e-06
-0.000137437
-5.21111e-06
0.0001384
-0.000137446
-1.21508e-06
-1.01915e-06
-0.000138238
1.99007e-06
-5.17637e-06
1.83432e-06
-0.00014091
-5.00307e-06
0.000138261
-0.00014104
-1.38175e-06
-1.33683e-06
-0.000146201
1.64044e-06
-4.4486e-06
7.55775e-07
-0.000154379
-3.24443e-06
0.000146221
-0.00015475
-1.53815e-06
-1.41635e-06
-0.000166753
1.19319e-07
-1.30559e-06
-2.8774e-06
-0.000181026
8.81733e-07
0.000166183
-0.000181738
-3.66253e-06
-2.12725e-06
0.000199817
1.02604e-05
-1.17267e-05
7.86739e-06
-7.78137e-06
-0.000196647
5.733e-06
-0.00021336
1.03125e-05
-0.000219805
1.39908e-05
0.000199222
-1.39559e-05
1.61684e-06
-9.49805e-07
0.000250544
2.27496e-06
0.000250478
0.000227425
-0.000216449
2.44149e-06
0.000238743
2.85073e-06
-1.3573e-05
-0.000241472
1.95778e-05
-6.58991e-06
-0.000240543
-0.000225885
1.05404e-05
-0.000236894
4.41738e-06
0.000178594
-0.000194038
4.0218e-06
-0.000164304
0.000153156
-2.9639e-06
-4.19731e-07
-0.00014529
0.000140298
-6.77796e-06
-5.29723e-06
-0.000137735
0.000137156
-7.8704e-06
-7.53316e-06
-0.000138261
0.000140724
-7.57041e-06
-7.82435e-06
-0.000144632
0.000149434
-6.58592e-06
-7.1457e-06
-0.00015456
0.000160691
-5.38233e-06
-5.979e-06
-0.000168808
0.00017723
-4.00038e-06
-4.70314e-06
-0.000186267
0.000195898
-2.6586e-06
-3.31878e-06
-0.000206056
0.000216659
-1.4354e-06
-2.02953e-06
-0.000227649
0.00023895
-4.03324e-07
-8.89285e-07
0.000205857
-0.000195702
1.45155e-06
1.97444e-06
0.00018608
-0.000177034
3.02775e-07
8.9673e-07
0.000168603
-0.000160437
-9.53799e-07
-3.10762e-07
0.000154432
-0.000149328
-2.16478e-06
-1.57724e-06
0.000144548
-0.000140687
-3.31634e-06
-2.76022e-06
0.000138279
-0.000137236
-4.12513e-06
-3.77555e-06
0.000137921
-0.000140491
-4.2916e-06
-4.30249e-06
0.000145493
-0.00015346
-3.85528e-06
-4.11476e-06
0.000165011
-0.000180358
-4.40494e-06
-3.77462e-06
-6.9106e-06
-0.000209355
9.11569e-06
0.00025046
1.73385e-08
3.18837e-06
0.000250273
0.000218595
-0.000262541
-7.61987e-06
0.000196728
-9.46158e-06
1.52535e-05
-9.88485e-06
-0.000235536
3.8694e-06
-0.000240488
-0.000219774
1.23287e-05
-0.000227431
1.31079e-05
-0.000217662
0.000205454
1.28283e-05
-0.000244884
1.81598e-05
-0.000232971
1.19824e-05
-0.000225729
1.65288e-05
-0.000190282
0.000174531
3.43811e-06
8.52688e-06
-0.00016073
0.000150525
-4.39603e-06
-1.14365e-06
-0.000143204
0.00013901
-8.72857e-06
-6.70661e-06
-0.000136933
0.000136628
-9.74159e-06
-9.41013e-06
-0.000137972
0.000140616
-9.26259e-06
-9.63416e-06
-0.000144653
0.000149492
-7.84527e-06
-8.64364e-06
-0.000154656
0.000161024
-6.12751e-06
-6.99121e-06
-0.000169015
0.000177391
-4.13476e-06
-5.13941e-06
-0.000186394
0.00019598
-2.22018e-06
-3.16125e-06
-0.000206079
0.000216621
-4.92869e-07
-1.32758e-06
-0.00022755
0.00023877
9.56661e-07
2.6897e-07
3.54024e-07
7.66913e-07
0.000262162
-0.000250204
0.000261833
1.99366e-06
1.53525e-06
-1.58517e-06
2.39621e-06
0.000262237
0.000262293
0.00024991
-0.000238455
4.63954e-06
-3.4562e-06
5.03709e-06
0.000261577
0.000262
0.000227212
-0.000216293
3.53091e-06
4.13744e-06
0.000205772
-0.00019568
2.05149e-06
2.836e-06
0.000186106
-0.000177108
3.10264e-07
1.21122e-06
0.000168718
-0.00016064
-1.59747e-06
-6.18954e-07
0.000154495
-0.000149375
-3.43548e-06
-2.55762e-06
0.000144565
-0.000140605
-5.14592e-06
-4.31736e-06
0.000138051
-0.000136801
-6.31457e-06
-5.82137e-06
0.00013721
-0.000139421
-6.50912e-06
-6.55067e-06
0.000143976
-0.000151454
-5.60266e-06
-6.17398e-06
0.000162617
-0.00017784
-4.626e-06
-4.88131e-06
-5.7601e-06
0.000241768
-0.000234797
2.0044e-05
2.23094e-05
0.00021639
-0.000241018
4.89401e-06
0.000192958
-3.13964e-06
5.94093e-07
6.28184e-07
0.000274009
2.32555e-06
0.000273583
0.000249398
-0.000238054
6.77295e-06
0.000260968
7.30169e-06
-4.64848e-06
-0.0002346
-1.47606e-05
1.90763e-05
-0.000224488
-1.09112e-05
-0.000225566
1.42043e-05
-0.000235158
-0.000214273
0.000200551
1.51415e-05
0.000233553
-0.000223569
2.47211e-05
0.000240838
2.46549e-05
1.80076e-05
-0.000228965
-0.000244372
1.84587e-05
-0.000222462
2.04208e-05
-0.000184752
0.000169639
3.22263e-06
9.19917e-06
-0.000156433
0.000147099
-5.29342e-06
-1.11894e-06
-0.000140997
0.000137183
-9.6305e-06
-7.90927e-06
-0.00013568
0.000135864
-1.07552e-05
-1.047e-05
-0.000137582
0.00014046
-9.98332e-06
-1.05296e-05
-0.000144669
0.000149561
-8.16947e-06
-9.17454e-06
-0.000154784
0.000161425
-5.96349e-06
-7.092e-06
-0.000169268
0.000177592
-3.41692e-06
-4.69335e-06
-0.000186543
0.000196059
-9.72345e-07
-2.17165e-06
-0.000206074
0.000216522
1.21501e-06
1.61766e-07
-0.000227337
0.000238444
3.00967e-06
2.17106e-06
-0.000249773
0.000261284
4.31663e-06
3.73324e-06
-1.54818e-06
2.46258e-06
0.000274153
0.0002742
-3.62915e-06
5.32372e-06
0.000273379
0.000273879
0.000226935
-0.00021613
5.32946e-06
6.11128e-06
0.000205689
-0.000195692
3.40035e-06
4.41196e-06
0.000186189
-0.000177264
1.11535e-06
2.28976e-06
0.000168937
-0.000161005
-1.39796e-06
-1.18141e-07
0.00015464
-0.000149478
-3.83912e-06
-2.67948e-06
0.000144615
-0.000140505
-6.04425e-06
-4.9781e-06
0.000137734
-0.000136169
-7.56769e-06
-6.93038e-06
0.000136174
-0.000137855
-7.87934e-06
-7.88249e-06
0.000141777
-0.000148404
-6.78494e-06
-7.43418e-06
0.000158933
-0.000173625
-4.25849e-06
-5.29751e-06
-3.38417e-06
2.42869e-05
4.7332e-06
0.000272897
0.000272663
7.69455e-06
3.80007e-06
-0.000237533
1.83768e-05
-1.56581e-05
-0.000211458
-0.000210054
2.19731e-05
-6.96265e-06
-0.000224956
2.34255e-05
-0.000224341
0.000209988
-0.000229465
1.14616e-05
0.00018677
3.39749e-06
-0.000237289
2.18264e-05
2.0086e-05
-0.000225275
0.00026053
-0.00024917
7.40503e-06
0.000271971
7.9049e-06
5.48332e-06
-3.72965e-06
0.000285173
7.93951e-06
0.000284345
2.94638e-05
-0.000247933
-1.42089e-05
-0.000212135
-1.72535e-05
-0.000194656
1.91766e-05
-1.69532e-05
-0.000195631
0.000173143
-2.29145e-05
-0.000160017
2.61082e-05
-1.72517e-05
0.000195601
1.24894e-05
-0.000178384
-1.6509e-05
-9.42423e-06
-0.000221168
0.000217911
2.88305e-05
-0.000219789
-0.000209053
0.000195048
1.7543e-05
2.45175e-05
-0.000179183
0.000164164
4.10425e-06
1.0517e-05
-0.000152623
0.000144029
-5.32101e-06
-1.26407e-06
-0.00013834
0.000135352
-9.70382e-06
-7.85493e-06
-0.000134369
0.000135
-1.07075e-05
-1.04727e-05
-0.000137095
0.00014029
-9.71792e-06
-1.03896e-05
-0.000144699
0.000149653
-7.52597e-06
-8.70588e-06
-0.000154985
0.000161857
-4.89074e-06
-6.25408e-06
-0.000169571
0.000177841
-1.84067e-06
-3.3665e-06
-0.00018672
0.000196146
1.04984e-06
-3.50775e-07
-0.00020605
0.000216369
3.71971e-06
2.44787e-06
-0.000227038
0.000237986
5.85996e-06
4.86527e-06
6.71715e-06
-2.52316e-06
4.9853e-06
0.000284493
7.37524e-07
5.33245e-07
0.000285839
0.000285303
-1.51509e-06
2.49096e-06
0.000286053
0.000286088
0.000285745
-0.000260193
0.00027173
1.08448e-05
0.000248772
-0.000237569
9.67983e-06
1.03414e-05
0.000226598
-0.00021593
7.89239e-06
8.85724e-06
0.000205631
-0.000195744
5.52345e-06
6.77111e-06
0.000186348
-0.000177498
2.71453e-06
4.16426e-06
0.000169254
-0.000161475
-3.40572e-07
1.19856e-06
0.000154882
-0.000149638
-3.31122e-06
-1.89808e-06
0.000144717
-0.000140409
-5.92962e-06
-4.66064e-06
0.000137371
-0.000135425
-7.77214e-06
-6.99828e-06
0.000134928
-0.000135996
-8.26379e-06
-8.18653e-06
0.000139148
-0.000145056
-6.98775e-06
-7.79222e-06
0.000154374
-0.000168177
-3.26329e-06
-5.25371e-06
-6.02273e-07
0.000236858
-0.000230447
3.02012e-05
2.85229e-05
0.000220686
-0.000209352
2.9555e-05
3.17351e-05
2.45455e-05
2.56139e-05
-0.000219489
8.2236e-06
0.000283406
0.000283282
1.11711e-05
0.000199259
-0.000218472
1.71564e-05
0.000178364
8.50881e-06
-0.000229385
2.66557e-05
0.000192818
2.03365e-05
-0.000179232
2.04489e-05
-0.000202816
-1.0378e-05
-0.000214193
-1.96862e-05
-0.000194165
-1.91356e-05
-0.00016532
-3.28172e-05
-0.000210552
-4.72453e-05
-0.000149977
7.3561e-05
0.000145033
-0.000215012
0.000211663
3.48954e-05
-1.57976e-05
-0.000180111
3.23472e-05
-0.000215678
-0.000211762
3.95014e-05
-3.34332e-05
-0.000156041
-0.000202334
0.000187949
2.00935e-05
2.80879e-05
-0.000172448
0.000158582
5.14446e-06
1.21383e-05
-0.000147634
0.000139989
-4.44703e-06
-3.43745e-07
-0.00013546
0.000133303
-8.89086e-06
-7.12305e-06
-0.000132991
0.000134156
-9.7309e-06
-9.55989e-06
-0.000136629
0.000140122
-8.52845e-06
-9.30717e-06
-0.000144759
0.000149796
-6.02135e-06
-7.37371e-06
-0.000155293
0.000162324
-3.00165e-06
-4.58315e-06
-0.000169941
0.000178151
4.2875e-07
-1.26007e-06
-0.000186944
0.000196258
3.8804e-06
2.1887e-06
-0.00020603
0.000216192
6.98483e-06
5.49612e-06
-0.000226678
0.000237438
9.48403e-06
8.32409e-06
-0.000248427
0.000259581
1.12769e-05
1.04781e-05
-0.000270817
0.000282074
1.22664e-05
1.18725e-05
-8.39723e-06
1.24959e-05
0.000293346
5.11354e-06
-2.61639e-06
0.000296067
0.000294851
8.13277e-07
4.79616e-07
0.000297617
0.000296994
-1.47812e-06
2.47261e-06
0.000297909
0.000297923
-3.7431e-06
5.55253e-06
0.000296954
0.000297582
-8.06165e-06
1.13683e-05
0.000294857
0.000296044
-0.000281994
0.00029341
1.54902e-05
0.000270619
-0.000259286
1.48066e-05
1.52183e-05
0.000248053
-0.00023703
1.33842e-05
1.41846e-05
0.000226239
-0.000215743
1.12171e-05
1.23801e-05
0.000205607
-0.000195866
8.38732e-06
9.87561e-06
0.000186595
-0.000177834
5.05705e-06
6.77273e-06
0.000169673
-0.000162049
1.47373e-06
3.28187e-06
0.000155247
-0.000149867
-1.9287e-06
-3.11232e-07
0.000144871
-0.000140343
-4.88624e-06
-3.44498e-06
0.000136986
-0.000134625
-6.99123e-06
-6.10521e-06
0.00013358
-0.000133952
-7.68668e-06
-7.49868e-06
0.000136234
-0.000140868
-6.54397e-06
-7.22949e-06
0.000149138
-0.000161562
-1.75596e-06
-4.27523e-06
1.88158e-06
0.000231206
-0.00022697
3.75777e-05
3.38224e-05
0.000216773
-0.000204853
3.78522e-05
3.89677e-05
3.37822e-05
-2.61625e-05
3.49897e-05
-0.000208203
-0.000209673
8.82361e-06
-0.000224551
-0.000203578
4.2789e-05
0.000188387
-0.000206552
2.15063e-05
0.000169818
1.22842e-05
-0.000219076
3.12944e-05
0.000280518
-0.000269492
1.70571e-05
0.000291556
1.73461e-05
1.1482e-05
-8.13193e-06
0.000306148
1.56695e-05
0.000304522
-2.86505e-05
-0.000190521
-1.494e-05
-0.000179591
-1.44087e-05
-0.000168419
5.73372e-05
-0.000143304
-4.26549e-05
-0.00014222
0.00015602
6.70479e-05
-5.47681e-05
-0.000131806
6.68598e-05
-0.000134293
-4.26222e-05
3.96432e-05
-2.94423e-05
-0.000199375
8.16132e-06
-0.000228014
-2.28531e-05
-0.000158486
-0.000213643
2.69075e-05
4.76575e-05
-0.000192784
-0.000146801
-3.25557e-05
0.000206722
-0.000198877
5.02481e-05
-0.000209099
0.000204822
4.02556e-05
4.64216e-05
-0.000194145
0.000179549
2.26395e-05
3.16509e-05
-0.000164598
0.000151899
6.50913e-06
1.39356e-05
-0.000142241
0.000135901
-2.97004e-06
1.00943e-06
-0.000132484
0.000131137
-7.22862e-06
-5.68085e-06
-0.000131608
0.000133326
-7.93796e-06
-7.92055e-06
-0.000136221
0.000140052
-6.55446e-06
-7.4438e-06
-0.000144882
0.000150046
-3.79323e-06
-5.27068e-06
-0.000155721
0.000162826
-4.39161e-07
-2.20175e-06
-0.000170403
0.000178548
3.44951e-06
1.45853e-06
-0.000187244
0.000196439
7.35331e-06
5.42876e-06
-0.000206036
0.000216006
1.08913e-05
9.18998e-06
-0.000226294
0.000236832
1.37821e-05
1.2436e-05
-0.000247585
0.000258494
1.58613e-05
1.49359e-05
1.65652e-05
-8.52543e-06
1.26693e-05
0.00030436
5.20868e-06
-2.67891e-06
0.000307435
0.000306058
8.46298e-07
4.61684e-07
0.000309238
0.00030851
-1.47059e-06
2.47458e-06
0.000309598
0.000309605
-3.7581e-06
5.58623e-06
0.000308502
0.000309224
0.000307471
-0.000280511
0.000291697
2.03938e-05
0.000269364
-0.000258265
1.95229e-05
2.00511e-05
0.000247268
-0.000236459
1.78023e-05
1.87684e-05
0.000225891
-0.000215601
1.52273e-05
1.66096e-05
0.000205645
-0.000196065
1.19102e-05
1.36506e-05
0.000186925
-0.000178301
8.08159e-06
1.00494e-05
0.000170205
-0.0001627
4.01945e-06
6.05778e-06
0.000155739
-0.000150194
1.66899e-07
1.96105e-06
0.000145091
-0.000140336
-3.04285e-06
-1.4702e-06
0.000136638
-0.000133849
-5.37609e-06
-4.38391e-06
0.000132205
-0.000131893
-6.22817e-06
-5.98823e-06
0.000133193
-0.000137053
-4.97729e-06
-5.9326e-06
0.000143963
-0.000154537
-5.20692e-08
-2.62338e-06
4.64152e-06
0.000223809
-0.00022066
4.4954e-05
4.00953e-05
0.000211685
-0.000199706
4.6944e-05
4.72429e-05
0.00018755
-0.000190143
4.8782e-05
4.47773e-05
6.56713e-05
-0.000211644
-0.000187648
5.49184e-05
1.75425e-05
0.000302394
0.000302621
2.06105e-05
-0.000176659
0.000160293
1.51903e-05
-0.000193888
2.49345e-05
-4.79199e-05
5.30768e-05
-0.000178205
-4.67914e-05
-0.000180897
-0.000173133
-6.55566e-05
-1.35394e-05
-0.000177243
-9.32423e-06
-0.000168968
-1.46246e-05
-0.000159868
-5.61124e-05
6.89198e-05
-0.000122556
-0.000125521
-4.39868e-05
-9.12643e-05
0.000109116
-6.48802e-05
6.22544e-05
-0.000137111
-3.27449e-05
-0.000298006
-0.000254992
0.000322061
0.000232974
-2.34312e-05
-0.000149628
5.94615e-05
-0.0001743
0.000183468
-0.000171204
6.68139e-05
-0.000194212
0.000200727
5.77747e-05
6.21139e-05
-0.000201732
0.000196268
4.43879e-05
5.25881e-05
-0.000184658
0.000169983
2.49779e-05
3.4531e-05
-0.000156071
0.000144615
8.30877e-06
1.56478e-05
-0.000136785
0.000131841
-9.91262e-07
2.57298e-06
-0.000129505
0.000129126
-4.93774e-06
-3.55864e-06
-0.000130285
0.000132573
-5.45221e-06
-5.54485e-06
-0.000135889
0.000140055
-3.88913e-06
-4.87848e-06
-0.000145089
0.000150421
-9.573e-07
-2.53467e-06
-0.000156296
0.000163437
2.65308e-06
6.56015e-07
-0.000170975
0.000179072
7.00691e-06
4.82958e-06
-0.000187641
0.000196678
1.13255e-05
9.19758e-06
-0.000206111
0.000215875
1.5286e-05
1.33759e-05
-0.000225926
0.000236202
1.85805e-05
1.7028e-05
-0.000246694
0.000257325
2.09618e-05
1.98853e-05
-0.000268045
0.000278806
2.24015e-05
2.18032e-05
-0.000289554
0.000300182
2.29588e-05
2.2753e-05
-1.75617e-05
2.30701e-05
0.000310643
1.2603e-05
-8.40395e-06
0.000315253
0.000313063
5.0456e-06
-2.53451e-06
0.000318701
0.000317141
7.37889e-07
5.22385e-07
0.000320739
0.0003199
-1.47642e-06
2.431e-06
0.000321181
0.000321172
-3.67071e-06
5.4622e-06
0.000319993
0.000320783
-7.98756e-06
1.13473e-05
0.00031735
0.000318839
-1.55623e-05
2.05694e-05
0.000313376
0.000315523
-0.000300464
0.000310975
2.61449e-05
0.000289787
-0.000278888
2.58777e-05
2.61216e-05
0.000268014
-0.000257187
2.48214e-05
2.54759e-05
0.000246473
-0.000235915
2.27783e-05
2.39355e-05
0.000225595
-0.000215533
1.97861e-05
2.13993e-05
0.000205781
-0.000196382
1.59978e-05
1.79761e-05
0.000187389
-0.000178858
1.1703e-05
1.38962e-05
0.000170872
-0.00016341
7.2123e-06
9.45375e-06
0.000156388
-0.000150644
2.94847e-06
4.97026e-06
0.00014538
-0.000140417
-5.06644e-07
1.12324e-06
0.00013635
-0.000133126
-3.00052e-06
-1.94138e-06
0.000130871
-0.000129854
-3.98717e-06
-3.75546e-06
0.000130336
-0.000133
-2.73736e-06
-3.77929e-06
0.000138081
-0.000147193
2.30864e-06
-7.33648e-07
7.26452e-06
0.000214778
-0.000213712
5.22811e-05
-0.000208174
3.57675e-05
4.53681e-05
0.000205228
-0.000194921
5.77601e-05
5.5053e-05
0.000184962
-0.000176649
6.53987e-05
5.84257e-05
0.00015694
-0.000141482
7.58236e-05
7.1084e-05
0.000129189
-0.000119007
8.14459e-05
7.78954e-05
0.000104029
0.000105311
-7.5991e-05
0.000109799
-7.57225e-05
9.19767e-05
7.26252e-05
-0.000114864
-5.8668e-05
8.56546e-05
-0.000179689
6.55767e-05
0.000291658
-6.1881e-05
-0.000291772
6.32104e-05
-5.59401e-05
-0.000161381
-0.000158742
7.09972e-05
-4.36914e-07
-0.000172814
-0.00016423
9.37184e-06
0.000297814
-0.00028744
2.86606e-05
0.000308056
2.88479e-05
2.00329e-05
-1.50536e-05
0.000323925
2.56729e-05
0.00032119
-4.61842e-06
-0.000167018
-0.000108279
-6.1039e-05
-7.98155e-06
-0.000159595
-0.000117676
-4.59802e-05
-0.0001283
-3.32645e-05
-1.48085e-05
-0.000151386
-2.37149e-05
-0.000140395
0.000131281
-0.000238285
0.000215875
-0.000324976
-0.000234738
0.000262251
0.000208673
-0.000196745
-0.000337015
0.000335642
0.000312112
-0.000440326
0.000537467
-0.000345609
-0.000522332
0.000328845
0.000357326
-0.000279141
-0.000386828
0.00030905
-5.06367e-05
-0.000163607
-4.68307e-05
-0.000165206
-6.27024e-05
-0.000421977
0.000139564
0.000347035
5.76155e-05
-4.98198e-05
-0.000151381
9.23604e-05
0.000112451
-7.66894e-05
0.000103282
0.000102743
3.89326e-05
-2.11905e-05
-0.000165173
0.000161585
4.36376e-05
-0.000162449
6.57492e-05
-0.000149112
-0.000321066
0.000327008
-0.00014598
7.34015e-05
0.000435025
-0.000454274
-0.000337968
0.000354578
6.8391e-05
-5.99036e-05
-0.000137251
-0.000134454
7.71206e-05
0.00022441
-0.000254673
0.000164591
0.00010585
-9.32676e-05
-8.88576e-05
9.32599e-05
7.90224e-05
-7.0596e-05
-0.000122869
-0.000124773
0.000133597
9.02321e-05
-8.34725e-05
8.28619e-05
-0.000144275
0.000155432
8.26977e-05
8.68837e-05
-0.0001677
0.00017924
7.4385e-05
7.87824e-05
-0.00018859
0.000194594
6.36091e-05
6.95025e-05
-0.000193848
0.000186203
4.78238e-05
5.75204e-05
-0.000173474
0.000159839
2.62989e-05
3.70337e-05
-0.000147322
0.000137743
9.95919e-06
1.71776e-05
-0.000131326
0.000127833
1.11438e-06
4.65228e-06
-0.000126636
0.000127177
-2.20178e-06
-1.0425e-06
-0.000129036
0.000131903
-2.46807e-06
-2.65713e-06
-0.000135643
0.000140161
-7.19688e-07
-1.78058e-06
-0.00014539
0.000150935
2.32849e-06
5.75238e-07
-0.000157033
0.000164173
6.33283e-06
4.20854e-06
-0.000171688
0.000179689
1.09413e-05
8.6236e-06
-0.000188161
0.000197033
1.558e-05
1.32947e-05
-0.000206271
0.000215814
1.98982e-05
1.78061e-05
-0.000225606
0.000235624
2.35503e-05
2.18209e-05
-0.000245813
0.000256141
2.62873e-05
2.50463e-05
-0.000266557
0.000277011
2.79933e-05
2.72831e-05
2.84448e-05
-1.70551e-05
2.26849e-05
0.000320777
1.20574e-05
-7.88518e-06
0.000325968
0.00032348
4.61121e-06
-2.18618e-06
0.000329748
0.000328082
5.11442e-07
6.28438e-07
0.000331904
0.000331018
-1.46786e-06
2.30988e-06
0.00033244
0.000332389
-3.44866e-06
5.16056e-06
0.000331278
0.000332068
-7.61531e-06
1.08997e-05
0.000328435
0.000330064
0.000326374
-0.000298122
0.000308362
3.20251e-05
0.000287715
-0.000277169
3.16706e-05
3.19209e-05
0.000266616
-0.00025611
3.04194e-05
3.11994e-05
0.000245694
-0.00023544
2.80498e-05
2.93823e-05
0.000225382
-0.000215565
2.4655e-05
2.64727e-05
0.000206025
-0.000196818
2.04522e-05
2.26361e-05
0.000187984
-0.000179584
1.57648e-05
1.81435e-05
0.000171663
-0.000164227
1.09436e-05
1.33506e-05
0.000157227
-0.000151235
6.38107e-06
8.58604e-06
0.000145758
-0.000140579
2.6116e-06
4.42752e-06
0.00013616
-0.00013248
-1.48304e-08
1.10034e-06
0.000129681
-0.000127945
-1.11006e-06
-8.5724e-07
0.000127487
-0.000128852
-8.35903e-08
-1.03216e-06
0.000132382
-0.000139451
4.88124e-06
1.49504e-06
0.000150395
-0.000164618
1.75116e-05
9.91311e-06
0.000180836
-0.000195294
3.86582e-05
2.75185e-05
0.000204338
-0.000205378
5.81549e-05
4.96095e-05
0.00020044
-0.000190699
6.79172e-05
6.38963e-05
0.00018121
-0.000167966
7.64191e-05
7.19763e-05
0.000152941
-0.000138264
8.53982e-05
8.06135e-05
0.000125451
-0.000113571
9.23267e-05
8.85538e-05
9.75149e-05
-0.00032235
-0.000225361
0.00031475
-0.000333257
-0.000184623
-0.000210181
0.000230242
-0.000164279
-0.000167619
0.000158683
-0.000195125
0.000293754
-0.000321133
0.000218035
-3.78555e-05
5.45478e-05
-0.000225795
-8.52386e-05
0.000222593
-0.000259582
0.000106554
-7.81889e-05
-7.96514e-05
2.86388e-05
0.000317945
0.000318276
3.16669e-05
0.000341434
0.000256178
-4.33655e-05
-0.000152368
-2.49385e-05
3.47268e-05
-0.000155321
-1.45548e-05
-0.000159971
3.24243e-06
-0.000166183
-0.000102417
-6.11114e-05
0.000312852
-0.00037992
-0.00045861
0.000522104
-5.09286e-05
-0.000140223
-8.88307e-05
9.87427e-05
0.000113413
0.000120902
-7.73739e-05
0.000125921
-5.36705e-05
-0.000129723
-3.29844e-07
-0.000159263
-0.00011077
-4.77736e-05
-0.000120114
-3.48669e-05
-6.18222e-05
-0.00012581
-0.000199002
-0.000606148
0.000221429
0.000597509
-6.89719e-06
-0.000151159
-0.000311156
0.00036923
7.47039e-06
-6.2708e-05
-7.65176e-05
-0.000110433
0.000405509
0.000216802
-1.49593e-05
-0.000142793
-0.000131537
-2.37834e-05
-0.000115974
0.000278517
0.000132287
-0.000171823
0.000286152
-0.000306227
0.000102511
-8.92479e-05
-7.48173e-05
-0.000237031
0.000299318
-0.000232369
0.000292056
-2.83601e-05
3.31378e-05
-0.000191055
-0.000125503
0.000131296
0.000104696
0.000118173
-0.000140711
-0.000141097
0.000152273
9.18334e-05
9.7612e-05
-0.000163794
0.000174633
8.16943e-05
8.6893e-05
-0.000183266
0.00018658
6.90315e-05
7.57212e-05
-0.000183867
0.000174869
4.97922e-05
6.08549e-05
-0.000162369
0.000149456
2.72534e-05
3.81091e-05
-0.000138611
0.000130898
1.1543e-05
1.83287e-05
-0.000126222
0.000124134
3.61414e-06
6.70791e-06
-0.000124013
0.000125441
5.74632e-07
1.56106e-06
-0.000127978
0.000131354
7.07353e-07
4.05719e-07
-0.000135512
0.000140379
2.76146e-06
1.57675e-06
-0.000145827
0.000151567
6.04778e-06
4.2596e-06
-0.000157908
0.00016501
1.02481e-05
8.03207e-06
-0.000172518
0.000180438
1.50032e-05
1.25903e-05
-0.00018879
0.000197507
1.98384e-05
1.74302e-05
-0.000206551
0.00021586
2.44115e-05
2.21764e-05
-0.0002254
0.000235128
2.83822e-05
2.64899e-05
-0.000245006
0.000255007
3.14821e-05
3.00584e-05
-0.000265111
0.000275233
3.35068e-05
3.26355e-05
-0.000285326
0.00029537
3.43561e-05
3.40877e-05
-0.000305306
0.000314968
3.45559e-05
3.46142e-05
-2.76939e-05
3.37319e-05
0.000324245
2.17516e-05
-1.62379e-05
0.000330675
0.000327524
1.13783e-05
-7.35086e-06
0.0003363
0.000333655
4.22279e-06
-1.90631e-06
0.000340397
0.000338551
3.12957e-07
7.30859e-07
0.000342869
0.000341856
-1.47404e-06
2.22633e-06
0.000343453
0.000343408
-3.26624e-06
4.87769e-06
0.000342131
0.000343022
-7.24031e-06
1.04099e-05
0.00033903
0.000340788
-1.44543e-05
1.93018e-05
0.000334204
0.000336832
-2.48019e-05
3.06888e-05
0.000327926
0.000331184
-0.000315234
0.000324524
3.67095e-05
0.000305615
-0.000295674
3.78725e-05
3.76579e-05
0.000285593
-0.000275432
3.74335e-05
3.76962e-05
0.000265232
-0.000255076
3.59433e-05
3.68541e-05
0.000244993
-0.000235047
3.32509e-05
3.47478e-05
0.000225278
-0.000215717
2.95109e-05
3.15035e-05
0.000206408
-0.000197387
2.49906e-05
2.73275e-05
0.00018871
-0.000180425
2.00435e-05
2.25496e-05
0.000172563
-0.000165155
1.50286e-05
1.75253e-05
0.000158107
-0.000151913
1.03022e-05
1.25949e-05
0.000146267
-0.000140865
6.39995e-06
8.27457e-06
0.000136082
-0.000131944
3.48966e-06
4.79805e-06
0.000128663
-0.000126071
2.0398e-06
2.6005e-06
0.000124758
-0.000124854
2.74882e-06
2.12634e-06
0.000127303
-0.000132261
7.38026e-06
4.50289e-06
0.000140797
-0.000152897
1.93945e-05
1.22149e-05
0.000167351
-0.000181892
4.03703e-05
2.89513e-05
0.000192659
-0.000196983
6.29192e-05
5.21802e-05
0.000194232
-0.000186183
7.70964e-05
7.11019e-05
0.000174828
-0.000161875
8.64472e-05
8.19037e-05
0.000148022
-0.000134108
9.50777e-05
9.04218e-05
0.00012123
-0.000109578
0.000102873
9.87524e-05
0.000108186
-0.000428872
0.000245343
-0.000209213
0.000393628
0.000236164
-0.000115456
-6.62908e-05
0.00016304
3.97093e-05
0.000106814
-0.00010179
-0.000425336
-0.000403227
-0.000154527
-0.000164343
-0.000230965
0.000327752
0.000204514
8.99775e-05
-8.47967e-05
-6.71554e-05
-6.11966e-05
-0.000423509
0.000343042
0.000325816
-0.000330539
0.00023489
0.000244403
-0.000149311
-0.000264694
-8.94414e-05
0.000119447
-4.14361e-05
-0.000142502
-8.58011e-05
9.50411e-05
0.000123751
-7.59823e-05
0.000129671
0.000130295
-6.33015e-05
6.36129e-06
-0.000157666
-2.22778e-05
3.23956e-05
-0.00014812
-1.35356e-05
-0.000152409
-0.000169617
0.000399839
-0.000438275
-0.000103043
-4.92773e-05
-0.000213801
-2.56764e-05
0.000311913
-0.000302539
4.01443e-05
0.000320896
3.956e-05
2.97093e-05
-2.39389e-05
0.000337268
3.56146e-05
0.000333551
-0.000112175
-3.67343e-05
0.000391056
9.61693e-05
-6.37001e-06
-0.000484178
-5.26061e-05
-0.000129412
0.000128598
-5.70225e-05
-0.000123711
0.000253962
9.7399e-05
3.80382e-05
-0.000153542
6.31212e-05
0.000150182
-8.392e-05
0.000134106
-0.000132001
8.14381e-05
-0.000279837
0.000341388
-0.000142526
8.03735e-05
1.11897e-07
-0.000150426
0.000424084
-0.000421569
-0.000327435
0.000325465
0.000337809
0.000405637
-0.000404914
-0.000335917
0.000406038
-0.000209838
0.000197764
-0.000438426
0.000276783
0.000201392
0.000316466
-0.000446567
-0.000315841
0.000443477
0.000315629
-0.000458536
0.000455617
-6.70108e-05
-0.000115505
0.000117968
-6.39766e-05
-0.000167055
0.000371549
0.000232123
-0.000434153
0.000360663
-0.000407634
-0.000119428
0.000184886
0.000318288
-0.000142127
0.00024001
0.000317786
-0.000603116
0.000617765
-6.17387e-05
5.26799e-05
-7.16085e-06
-0.000142448
-0.000123039
-2.51482e-05
-8.43349e-05
-0.000100283
-0.000104678
0.000252186
-0.000261254
-1.54441e-05
-0.000133727
0.000381287
0.000350684
-0.000376615
-0.000352111
-0.00037295
0.00037518
0.000382641
0.000424668
0.00033933
-0.000103753
-8.20731e-05
-0.00015539
0.000264265
0.000355823
0.000404018
-0.000203943
0.000260495
-0.000267529
-8.26054e-05
-7.44585e-05
-5.45076e-05
-0.000195823
0.000110948
-9.56309e-05
-7.35095e-05
0.000628632
0.000342634
-0.000109251
0.000123533
0.000110702
0.000117834
-8.82822e-05
-0.000135772
0.000147827
9.9648e-05
0.000105626
-0.000158989
0.000169016
8.82764e-05
9.45608e-05
-0.000175448
0.000177111
7.23389e-05
8.13358e-05
-0.000172315
0.000162492
5.02639e-05
6.25872e-05
-0.000150405
0.000139199
2.75416e-05
3.83043e-05
-0.000130412
0.00012462
1.29653e-05
1.91696e-05
-0.000121552
0.000120866
5.92776e-06
8.72294e-06
-0.000121791
0.000123995
3.63367e-06
4.36421e-06
-0.000127116
0.000131013
4.19628e-06
3.66718e-06
-0.000135559
0.000140749
6.50103e-06
5.19225e-06
-0.000146397
0.000152332
9.84622e-06
8.03031e-06
-0.000158814
0.000165968
1.41013e-05
1.1886e-05
-0.000173447
0.000181311
1.88865e-05
1.6458e-05
-0.000189545
0.000198108
2.38096e-05
2.13492e-05
-0.000206956
0.000216044
2.85359e-05
2.62155e-05
-0.000225325
0.000234763
3.27729e-05
3.0738e-05
-0.000244344
0.000254027
3.62146e-05
3.46124e-05
-0.00026378
0.000273557
3.85964e-05
3.75519e-05
-0.000283306
0.000292973
3.9726e-05
3.93345e-05
4.00696e-05
-2.67455e-05
3.2713e-05
0.000333322
2.09164e-05
-1.55187e-05
0.000340349
0.000336888
1.08021e-05
-6.89997e-06
0.000346388
0.00034355
3.84869e-06
-1.62847e-06
0.000350818
0.000348811
1.14994e-07
8.40136e-07
0.000353444
0.000352364
-1.49478e-06
2.15775e-06
0.000354084
0.000354022
-3.10425e-06
4.63732e-06
0.000352674
0.000353633
-6.89052e-06
9.96127e-06
0.000349298
0.000351235
-1.38603e-05
1.8566e-05
0.000344058
0.000346913
0.000340817
-0.000312092
0.000321058
4.24755e-05
0.000302788
-0.000293221
4.33964e-05
4.33187e-05
0.000283525
-0.000273759
4.28082e-05
4.31324e-05
0.000263936
-0.00025414
4.10476e-05
4.20939e-05
0.0002444
-0.000234775
3.80313e-05
3.96856e-05
0.000225296
-0.000216003
3.40081e-05
3.6131e-05
0.000206917
-0.000198089
2.92854e-05
3.17112e-05
0.000189561
-0.000181374
2.42095e-05