/*--------------------------------*- C++ -*----------------------------------*\
| =========                 |                                                 |
| \\      /  F ield         | OpenFOAM: The Open Source CFD Toolbox           |
|  \\    /   O peration     | Version:  2212                                  |
|   \\  /    A nd           | Website:  www.openfoam.com                      |
|    \\/     M anipulation  |                                                 |
\*---------------------------------------------------------------------------*/
FoamFile
{
    version     2.0;
    format      ascii;
    arch        "LSB;label=32;scalar=64";
    class       volScalarField;
    location    "0.0984";
    object      nut;
}
// * * * * * * * * * * * * * * * * * * * * * * * * * * * * * * * * * * * * * //

dimensions      [0 2 -1 0 0 0 0];

internalField   nonuniform List<scalar> 
31661
(
0.250123
0.256292
0.259114
0.257063
0.255016
0.256418
0.255176
0.253972
0.254168
0.253593
0.0328279
0.232429
0.0629912
0.39311
0.347976
0.382126
0.326327
0.346941
0.151312
0.395014
0.0316673
0.0321506
0.0396513
0.34947
0.245531
0.03016
0.0319088
0.0446227
0.237206
0.271209
0.370052
0.041216
0.0410243
0.144787
0.134956
0.408137
0.047886
0.413782
0.177457
0.0385591
0.0362544
0.260341
0.415358
0.3208
0.323145
0.237802
0.32126
0.14871
0.0505652
0.414558
0.0317991
0.354751
0.239249
0.130964
0.208291
0.179005
0.226436
0.251408
0.496011
0.195316
0.227242
0.215642
0.292985
0.265762
0.0687243
0.175135
0.0395926
0.47445
0.449561
0.425109
0.225487
0.390461
0.369682
0.350918
0.334798
0.320887
0.309337
0.299839
0.29219
0.286044
0.281179
0.277356
0.2744
0.272134
0.272867
0.275302
0.278458
0.282503
0.2876
0.293968
0.301829
0.311418
0.322968
0.336621
0.352389
0.370037
0.388167
0.406147
0.426339
0.447297
0.467884
0.486585
0.503609
0.526175
0.521374
0.542983
0.537734
0.557142
0.551912
0.568689
0.563851
0.577894
0.573692
0.5851
0.581617
0.590666
0.587871
0.594931
0.592732
0.598182
0.596465
0.600655
0.599309
0.602534
0.601463
0.603965
0.603089
0.605054
0.604311
0.605886
0.605229
0.606521
0.605916
0.607007
0.60643
0.607384
0.606817
0.607683
0.607114
0.607928
0.60735
0.608144
0.607551
0.60835
0.607739
0.608566
0.607935
0.608812
0.608161
0.60911
0.608439
0.609482
0.608792
0.609953
0.609243
0.610552
0.609824
0.611311
0.610567
0.612272
0.611513
0.613483
0.612708
0.615003
0.614215
0.616915
0.616114
0.619342
0.618527
0.621666
0.622499
0.621935
0.618767
0.616327
0.614402
0.612869
0.611649
0.61068
0.609912
0.609308
0.608833
0.608459
0.608158
0.607909
0.60769
0.607482
0.607262
0.607011
0.606702
0.606312
0.605804
0.605139
0.604263
0.603109
0.601586
0.599575
0.596921
0.593423
0.588832
0.58285
0.575137
0.565342
0.553131
0.538188
0.520171
0.49917
0.475018
0.44877
0.422237
0.397367
0.374756
0.35509
0.338085
0.323579
0.311501
0.301595
0.293607
0.27102
0.270438
0.287214
0.282165
0.278199
0.275105
0.272718
0.269222
0.269667
0.270975
0.272692
0.274954
0.277864
0.281548
0.286186
0.29195
0.299031
0.307627
0.31784
0.329768
0.343355
0.35839
0.374492
0.391181
0.407859
0.424874
0.442068
0.458872
0.475071
0.490937
0.507244
0.523007
0.537599
0.55067
0.562067
0.571725
0.579682
0.586073
0.591086
0.594947
0.597877
0.600071
0.601698
0.602895
0.603764
0.604392
0.604843
0.605169
0.605411
0.605601
0.605768
0.605938
0.606134
0.606381
0.606703
0.607126
0.607681
0.6084
0.609325
0.610504
0.611998
0.613885
0.616285
0.619403
0.623648
0.625964
0.626823
0.626257
0.624276
0.619983
0.616811
0.614356
0.612415
0.610871
0.609643
0.608672
0.607907
0.60731
0.606846
0.606483
0.606196
0.605961
0.605755
0.605556
0.60534
0.605082
0.604753
0.604319
0.603735
0.602948
0.601885
0.600455
0.598536
0.595977
0.592584
0.588133
0.58236
0.575006
0.565837
0.554693
0.541516
0.526366
0.509331
0.490576
0.469304
0.44718
0.425088
0.403124
0.38215
0.36312
0.345983
0.330926
0.318042
0.307232
0.298399
0.291279
0.285599
0.270915
0.281079
0.277498
0.274686
0.269714
0.26872
0.269598
0.268386
0.268824
0.270164
0.271476
0.273262
0.275576
0.278519
0.282213
0.286797
0.292446
0.29934
0.307597
0.317325
0.328467
0.340857
0.354199
0.368133
0.382262
0.396175
0.409579
0.422719
0.435663
0.448442
0.461181
0.47436
0.488333
0.502616
0.516792
0.530479
0.543281
0.554914
0.565083
0.573699
0.580745
0.586357
0.590713
0.594014
0.596472
0.598276
0.599564
0.60048
0.60112
0.60156
0.601866
0.602084
0.602255
0.602412
0.602587
0.602805
0.603097
0.603491
0.604018
0.604714
0.60562
0.606785
0.608269
0.610149
0.612539
0.615627
0.619795
0.625886
0.62994
0.632378
0.633283
0.632684
0.63059
0.62694
0.62082
0.616588
0.61342
0.610952
0.608995
0.607438
0.606206
0.605235
0.604479
0.603895
0.603447
0.603105
0.602839
0.602623
0.602432
0.602238
0.602011
0.601719
0.601322
0.600768
0.599994
0.598918
0.597432
0.595402
0.592661
0.589007
0.584216
0.57806
0.570337
0.560928
0.549824
0.53715
0.523166
0.508226
0.492669
0.47657
0.459514
0.442267
0.424874
0.407913
0.39059
0.373723
0.357606
0.342594
0.328953
0.317056
0.306987
0.298647
0.291803
0.286239
0.272505
0.281777
0.27821
0.268069
0.269226
0.268205
0.270855
0.268679
0.267815
0.268543
0.269735
0.270811
0.272276
0.274219
0.276729
0.279886
0.283807
0.288633
0.294522
0.301623
0.310039
0.319758
0.330663
0.342489
0.354805
0.367206
0.379254
0.390638
0.401154
0.41083
0.420022
0.428957
0.4379
0.447132
0.457079
0.468076
0.479976
0.492569
0.505604
0.518732
0.531533
0.543576
0.554487
0.563987
0.571969
0.578461
0.583572
0.587486
0.590408
0.592536
0.594058
0.595123
0.595857
0.596353
0.596692
0.596933
0.597126
0.59731
0.597526
0.597805
0.598182
0.598692
0.599373
0.600268
0.601425
0.602906
0.604784
0.607162
0.610211
0.614265
0.620069
0.629318
0.635779
0.6403
0.643018
0.644013
0.643303
0.640916
0.636794
0.630786
0.621606
0.615766
0.611634
0.608489
0.606012
0.604041
0.602472
0.601231
0.600261
0.599511
0.598938
0.598505
0.598176
0.597921
0.597709
0.597507
0.59728
0.596987
0.596578
0.595993
0.595153
0.593959
0.592284
0.589971
0.586832
0.582657
0.577229
0.570348
0.561893
0.551856
0.540367
0.527723
0.514307
0.500566
0.486934
0.473698
0.460861
0.448202
0.435915
0.423724
0.411372
0.398404
0.384942
0.371119
0.357198
0.343625
0.330978
0.319617
0.309655
0.301157
0.294071
0.288284
0.275371
0.283562
0.267637
0.267806
0.273145
0.268949
0.268102
0.26965
0.268044
0.26745
0.26842
0.269363
0.270295
0.271538
0.27321
0.27541
0.278197
0.281676
0.285966
0.291206
0.297535
0.305079
0.31388
0.323867
0.334822
0.346381
0.358067
0.369382
0.379903
0.389366
0.39766
0.404812
0.411104
0.416895
0.422499
0.428207
0.434323
0.441169
0.449057
0.458041
0.46811
0.479198
0.491129
0.503614
0.516257
0.528597
0.540162
0.550604
0.55966
0.567206
0.573276
0.578015
0.581592
0.584226
0.586125
0.587461
0.588387
0.58902
0.589462
0.589784
0.590052
0.590315
0.590621
0.591012
0.591528
0.592211
0.593109
0.594271
0.595756
0.597634
0.599994
0.602982
0.606877
0.612311
0.620754
0.635394
0.645572
0.653325
0.658783
0.662064
0.663236
0.662306
0.659307
0.654179
0.64681
0.622775
0.614417
0.608944
0.604958
0.601864
0.599393
0.597409
0.595827
0.594575
0.593597
0.592844
0.592268
0.59183
0.591492
0.591215
0.590959
0.590681
0.590331
0.589847
0.589151
0.588148
0.586715
0.584702
0.581925
0.578186
0.573265
0.566968
0.559167
0.549822
0.53905
0.527142
0.514481
0.501547
0.488814
0.476673
0.46539
0.455078
0.445662
0.436948
0.428834
0.420947
0.412862
0.404169
0.394603
0.383993
0.37239
0.360133
0.347715
0.335588
0.324192
0.313908
0.30504
0.297504
0.279749
0.291183
0.637106
0.285993
0.267408
0.276678
0.267608
0.271425
0.26787
0.268792
0.268715
0.268116
0.26762
0.267279
0.268308
0.268961
0.26976
0.270859
0.272326
0.27426
0.276746
0.279877
0.283754
0.288501
0.294256
0.301146
0.30924
0.318536
0.32888
0.339963
0.351342
0.362507
0.372943
0.382278
0.390277
0.396904
0.402268
0.406587
0.410192
0.413397
0.416485
0.419695
0.423282
0.427494
0.432575
0.43866
0.445854
0.454232
0.463801
0.474475
0.486052
0.498204
0.51051
0.522502
0.533723
0.543785
0.552462
0.559645
0.565384
0.569818
0.573141
0.575575
0.577317
0.578548
0.579412
0.580034
0.580508
0.580913
0.581313
0.58177
0.582331
0.583048
0.583969
0.585151
0.586646
0.588519
0.590847
0.593741
0.597423
0.602401
0.609897
0.62267
0.646088
0.662166
0.675223
0.685273
0.692393
0.696669
0.698169
0.696874
0.692768
0.685837
0.676003
0.663238
0.624939
0.612536
0.605147
0.600134
0.59636
0.593353
0.590913
0.58893
0.587332
0.586063
0.585064
0.584286
0.583682
0.583202
0.582804
0.582437
0.582046
0.581569
0.580929
0.580029
0.578749
0.57694
0.574427
0.571007
0.566462
0.560609
0.553299
0.544479
0.534271
0.522894
0.510734
0.498287
0.48603
0.474396
0.463684
0.454085
0.445675
0.438396
0.432108
0.426628
0.421744
0.41712
0.412396
0.407251
0.40124
0.394077
0.385579
0.375751
0.364833
0.353151
0.341256
0.329843
0.319291
0.309779
0.301568
0.294625
0.647551
0.288826
0.281765
0.267348
0.274227
0.267562
0.270152
0.267795
0.268181
0.267979
0.267393
0.268427
0.268092
0.267263
0.688403
0.70987
0.727611
0.741467
0.751374
0.757344
0.75938
0.757429
0.751465
0.741476
0.727555
0.709793
0.688387
0.629018
0.610196
0.599866
0.593549
0.589093
0.585609
0.582747
0.580369
0.578405
0.576799
0.575502
0.574464
0.573632
0.572949
0.572367
0.571826
0.571253
0.570571
0.569686
0.568475
0.566792
0.56446
0.561282
0.557039
0.551536
0.54462
0.536241
0.526477
0.51555
0.503826
0.491786
0.479894
0.468601
0.458234
0.449002
0.441027
0.434294
0.428719
0.424163
0.420468
0.417466
0.41496
0.412687
0.410413
0.407798
0.404549
0.400399
0.395006
0.38815
0.379735
0.369864
0.358987
0.347578
0.336056
0.325108
0.315013
0.306076
0.298365
0.284057
0.291886
0.66367
0.268104
0.268485
0.269169
0.270139
0.271441
0.273156
0.275386
0.278221
0.281746
0.286077
0.291344
0.297673
0.305167
0.313855
0.323651
0.334319
0.345473
0.356622
0.36724
0.376856
0.385141
0.39194
0.397281
0.401323
0.404297
0.406478
0.408141
0.409525
0.410825
0.412245
0.413927
0.416056
0.41884
0.422418
0.426928
0.432504
0.439258
0.447256
0.456491
0.46686
0.478147
0.490009
0.502018
0.513693
0.524574
0.534305
0.542639
0.549505
0.554956
0.559143
0.562276
0.564567
0.566224
0.567422
0.568312
0.569013
0.569624
0.570225
0.570894
0.571689
0.572665
0.57388
0.57539
0.577248
0.579514
0.582269
0.585672
0.590108
0.596546
0.607285
0.627042
0.663448
0.278326
0.267408
0.286552
0.280169
0.272318
0.26764
0.269225
0.267847
0.267783
0.26798
0.267331
0.268004
0.267357
0.268048
0.26796
0.636105
0.607781
0.59278
0.584563
0.579384
0.575577
0.572464
0.569817
0.567553
0.565634
0.564029
0.562696
0.561591
0.560651
0.559823
0.559042
0.558216
0.557249
0.556022
0.554387
0.55217
0.549168
0.545167
0.539958
0.533389
0.525387
0.516025
0.5055
0.494192
0.482528
0.470973
0.459993
0.449943
0.441013
0.43335
0.426952
0.421757
0.417658
0.414505
0.412163
0.410467
0.409263
0.408407
0.407731
0.407036
0.406156
0.404936
0.403054
0.400233
0.396174
0.390627
0.383477
0.374793
0.364703
0.35374
0.342282
0.331034
0.320444
0.310791
0.302353
0.295205
0.268499
0.269346
0.270518
0.272045
0.274046
0.276623
0.279839
0.283804
0.288643
0.294478
0.30142
0.309535
0.31879
0.329019
0.339905
0.351
0.361786
0.371758
0.380508
0.387788
0.393529
0.397817
0.400845
0.402851
0.404078
0.404761
0.405092
0.405231
0.405306
0.405461
0.405804
0.406413
0.407437
0.40903
0.411329
0.414459
0.418557
0.423757
0.430167
0.437846
0.446778
0.456852
0.467845
0.479405
0.491104
0.502449
0.512998
0.522387
0.530397
0.536964
0.542156
0.546142
0.549129
0.551342
0.552982
0.554232
0.555239
0.556125
0.55699
0.557927
0.559004
0.560275
0.561799
0.563623
0.565789
0.568346
0.571395
0.575205
0.58051
0.589152
0.60514
0.635388
0.687312
0.723503
0.755982
0.784097
0.807401
0.825662
0.83873
0.846555
0.849106
0.846335
0.838221
0.824731
0.805965
0.782186
0.753687
0.721003
0.267923
0.684927
0.282156
0.289232
0.267803
0.275551
0.26757
0.751258
0.793872
0.831704
0.86405
0.89054
0.911047
0.92563
0.93438
0.937432
0.934827
0.92658
0.912619
0.892855
0.867179
0.835681
0.798636
0.756525
0.277013
0.270865
0.26781
0.267566
0.267736
0.268479
0.269522
0.270895
0.272705
0.27505
0.277988
0.28163
0.28608
0.291471
0.297911
0.305482
0.314196
0.32395
0.334496
0.345445
0.356308
0.366569
0.375773
0.383595
0.38988
0.39464
0.398015
0.400217
0.401483
0.402032
0.402059
0.401726
0.401155
0.400446
0.399685
0.398953
0.398341
0.397907
0.397705
0.397838
0.398438
0.399633
0.401551
0.40432
0.408074
0.412944
0.419031
0.42639
0.435005
0.444763
0.455428
0.466657
0.478002
0.488995
0.499182
0.508218
0.515899
0.522177
0.527138
0.530957
0.533854
0.536049
0.537752
0.539142
0.540365
0.541542
0.54278
0.544147
0.545691
0.547459
0.54948
0.551773
0.554389
0.557502
0.561642
0.568233
0.580557
0.604704
0.648162
0.710257
0.284316
0.278577
0.268539
0.267995
0.267582
0.268086
0.267388
0.268072
0.267543
0.267951
0.267728
0.267244
0.267385
0.265869
0.266449
0.704905
0.646352
0.606194
0.584013
0.572646
0.566455
0.562454
0.559357
0.556708
0.554349
0.552258
0.550422
0.548825
0.547443
0.546218
0.545102
0.544026
0.542879
0.541545
0.53988
0.537707
0.534825
0.531015
0.526065
0.519807
0.512162
0.503176
0.493051
0.48212
0.47085
0.459661
0.449035
0.43927
0.430659
0.423287
0.417186
0.412293
0.408531
0.405727
0.40377
0.402523
0.401895
0.40165
0.401647
0.401936
0.402369
0.402782
0.403085
0.403083
0.40276
0.401789
0.399939
0.396955
0.392573
0.386605
0.378946
0.369722
0.359352
0.348258
0.336883
0.325839
0.315711
0.306646
0.298765
0.292179
0.812031
0.280267
0.28663
0.218499
0.76387
0.273352
0.267805
0.854898
0.891838
0.922619
0.947312
0.966154
0.979437
0.987375
0.990151
0.987808
0.980329
0.967571
0.949306
0.925294
0.895345
0.85933
0.817404
0.77003
0.27449
0.269776
0.268053
0.266411
0.26751
0.268439
0.269699
0.271341
0.27346
0.276157
0.279519
0.283633
0.288613
0.294585
0.301653
0.309841
0.319098
0.329242
0.339949
0.350773
0.361212
0.370783
0.379103
0.385944
0.391244
0.395085
0.397646
0.39915
0.399818
0.39985
0.399408
0.398624
0.397598
0.396407
0.395112
0.393766
0.39242
0.39112
0.389927
0.388893
0.388048
0.387458
0.387235
0.387495
0.38836
0.389954
0.392401
0.395834
0.400379
0.406136
0.413159
0.42143
0.430827
0.441122
0.451962
0.462913
0.473501
0.483291
0.491951
0.499294
0.505294
0.510048
0.513742
0.516598
0.518842
0.520681
0.52228
0.523779
0.525298
0.526895
0.528597
0.530431
0.532398
0.534516
0.536885
0.539877
0.544554
0.553507
0.571902
0.606988
0.660977
0.718047
0.27568
0.268088
0.268221
0.282065
0.27695
0.267529
0.268282
0.267546
0.268226
0.267799
0.268051
0.267756
0.267346
0.266246
0.846312
0.800714
0.264959
0.26442
0.711454
0.6561
0.606197
0.574427
0.557879
0.549787
0.54547
0.542613
0.540289
0.538163
0.536173
0.534308
0.532584
0.531
0.52952
0.528114
0.526715
0.525196
0.523423
0.521227
0.518407
0.514744
0.51002
0.504056
0.496757
0.488156
0.478434
0.467916
0.457022
0.446242
0.43597
0.426581
0.418277
0.411253
0.405447
0.400859
0.397375
0.394888
0.393221
0.39229
0.392009
0.392038
0.392667
0.393409
0.394325
0.395411
0.396557
0.397689
0.398754
0.399647
0.400293
0.40055
0.400243
0.399168
0.39707
0.393671
0.388758
0.38219
0.374027
0.364373
0.353628
0.342487
0.331379
0.320771
0.311089
0.302583
0.295291
0.289157
0.26483
0.265621
0.278329
0.284045
0.289592
0.271656
0.2681
0.886176
0.920065
0.948085
0.970498
0.987556
0.999558
1.00672
1.00919
1.00702
1.00016
0.988472
0.971749
0.949734
0.922158
0.888832
0.849674
0.804792
0.754696
0.272506
0.268968
0.268351
0.252572
0.267249
0.268405
0.269896
0.271842
0.274341
0.277445
0.281261
0.285888
0.291435
0.298012
0.305704
0.314466
0.324171
0.334558
0.345236
0.35573
0.365553
0.374282
0.381627
0.387457
0.391797
0.394782
0.396615
0.397515
0.397686
0.397301
0.396499
0.395386
0.394042
0.39253
0.390896
0.389177
0.387409
0.385621
0.383843
0.382107
0.38045
0.378926
0.377563
0.376397
0.375507
0.374992
0.37496
0.375533
0.376829
0.378973
0.38209
0.386305
0.391717
0.398375
0.406254
0.415243
0.425104
0.435498
0.44599
0.456124
0.465474
0.473732
0.480732
0.486458
0.491024
0.494622
0.497474
0.499794
0.501767
0.503537
0.505232
0.506901
0.508539
0.510149
0.511734
0.513353
0.515262
0.518236
0.52425
0.537523
0.564709
0.610004
0.662711
0.700201
0.273379
0.267839
0.268506
0.274294
0.267598
0.268542
0.279823
0.275302
0.267779
0.268451
0.268109
0.268232
0.267887
0.267424
0.857129
0.813772
0.266854
0.266224
0.105579
0.265569
0.749932
0.694913
0.656189
0.606202
0.565281
0.541234
0.529575
0.524283
0.52162
0.519853
0.518297
0.516755
0.51517
0.513568
0.511963
0.510348
0.508723
0.507023
0.505115
0.502854
0.500054
0.496501
0.491977
0.486294
0.479346
0.471143
0.461851
0.451776
0.441331
0.430965
0.421113
0.412107
0.404189
0.39749
0.392032
0.387727
0.384528
0.382337
0.380985
0.380335
0.380324
0.380596
0.381507
0.382617
0.383924
0.385371
0.386944
0.388582
0.390226
0.391877
0.393463
0.394921
0.396229
0.397282
0.397994
0.398207
0.397755
0.396396
0.393902
0.390001
0.384496
0.377338
0.368608
0.358645
0.347821
0.336701
0.32582
0.315707
0.306597
0.298633
0.291857
0.286194
0.412975
0.276391
0.281493
0.0293706
0.234053
0.270379
0.268439
0.894919
0.926933
0.953435
0.974688
0.990944
1.00241
1.00925
1.01159
1.00944
1.00277
0.991473
0.975364
0.954226
0.92784
0.896029
0.858659
0.815637
0.767428
0.714683
0.270982
0.268413
0.268693
0.23856
0.251829
0.266875
0.268307
0.270131
0.272448
0.275348
0.27892
0.283246
0.288431
0.294576
0.301765
0.310046
0.319298
0.329312
0.339755
0.350192
0.360146
0.369176
0.376942
0.383254
0.388077
0.391501
0.393701
0.394886
0.395261
0.395009
0.394278
0.393183
0.391811
0.390228
0.388482
0.386611
0.384643
0.382603
0.380514
0.378396
0.376267
0.37415
0.372067
0.370043
0.368115
0.366327
0.364701
0.363279
0.362142
0.361378
0.361086
0.36139
0.362404
0.364249
0.367053
0.370924
0.375963
0.382213
0.389657
0.398176
0.40754
0.417417
0.427386
0.437005
0.445872
0.453695
0.460328
0.465769
0.470135
0.473609
0.476395
0.478675
0.480592
0.482261
0.483749
0.485039
0.486119
0.48704
0.487984
0.489515
0.493101
0.502056
0.522178
0.558724
0.605564
0.642477
0.658287
0.271592
0.267748
0.268836
0.272219
0.267761
0.268852
0.272894
0.268071
0.268733
0.277611
0.273628
0.26846
0.26848
0.268097
0.856536
0.814187
0.267595
0.266994
0.266338
0.265582
0.765189
0.712171
0.636897
0.599662
0.556446
0.524298
0.506966
0.499339
0.496331
0.495071
0.494274
0.493461
0.492483
0.491308
0.489943
0.488411
0.486728
0.48482
0.482565
0.479813
0.476377
0.472052
0.466656
0.460071
0.452296
0.443473
0.43389
0.423941
0.414066
0.404677
0.396116
0.388607
0.382273
0.37716
0.373205
0.370301
0.36836
0.367281
0.366899
0.367113
0.367746
0.368822
0.370157
0.371735
0.373485
0.375331
0.377271
0.379304
0.381311
0.383362
0.385386
0.387321
0.389188
0.390935
0.392538
0.393905
0.394969
0.395608
0.395667
0.394961
0.393239
0.390248
0.385793
0.379734
0.372037
0.362887
0.352637
0.341756
0.330872
0.320408
0.310701
0.302213
0.294844
0.288579
0.283343
0.263962
0.274451
0.278991
0.264681
0.655458
0.269405
0.268812
0.893511
0.924986
0.951094
0.972034
0.988043
0.999323
1.00605
1.00832
1.00615
0.999514
0.988314
0.972369
0.951458
0.925373
0.893937
0.857047
0.814738
0.767362
0.715491
0.659942
0.269824
0.268081
0.269068
0.264388
0.265354
0.266596
0.268183
0.270376
0.273141
0.276535
0.280623
0.285505
0.291282
0.298036
0.305815
0.314615
0.324228
0.334371
0.344655
0.354628
0.363844
0.371933
0.378654
0.383917
0.387765
0.390339
0.391832
0.392446
0.392367
0.391753
0.390729
0.389388
0.387803
0.386026
0.384097
0.382045
0.379895
0.377665
0.375371
0.373028
0.370651
0.368254
0.365853
0.363462
0.361099
0.358784
0.356538
0.354396
0.352396
0.350564
0.348935
0.347589
0.34661
0.346088
0.346137
0.346878
0.348425
0.350898
0.354412
0.359048
0.364853
0.371805
0.379788
0.388584
0.397868
0.407237
0.416271
0.424589
0.431914
0.438111
0.443177
0.447215
0.450381
0.452834
0.454711
0.456118
0.457144
0.457825
0.458181
0.458346
0.458735
0.460422
0.465934
0.480099
0.508404
0.548292
0.583019
0.599435
0.601779
0.270223
0.267786
0.269202
0.270629
0.267998
0.2692
0.263596
0.271016
0.268407
0.269059
0.271444
0.268842
0.26878
0.851958
0.810011
0.275402
0.271916
0.268369
0.26784
0.267217
0.266501
0.265633
0.766809
0.71488
0.659274
0.596349
0.577512
0.543554
0.507914
0.483763
0.471936
0.467472
0.466248
0.466107
0.466126
0.465947
0.465446
0.464597
0.463421
0.461902
0.459949
0.457454
0.454273
0.450239
0.445191
0.439022
0.431726
0.423433
0.414408
0.405027
0.395708
0.386854
0.378792
0.371746
0.365835
0.361087
0.357471
0.354895
0.353236
0.352397
0.352264
0.352703
0.353595
0.354863
0.356397
0.358159
0.360108
0.362195
0.364376
0.366606
0.368952
0.371243
0.373588
0.375919
0.378192
0.380409
0.382567
0.384665
0.386632
0.388463
0.390085
0.391436
0.392428
0.392921
0.392743
0.39169
0.389558
0.386088
0.381061
0.374435
0.366244
0.356761
0.346416
0.335666
0.325083
0.315081
0.305989
0.298059
0.291248
0.285452
0.280576
0.272476
0.264646
0.276509
0.26371
0.601051
0.268714
0.269211
0.888646
0.919994
0.946037
0.96694
0.982933
0.994207
1.00092
1.00318
1.00097
0.994302
0.983062
0.967085
0.946162
0.920087
0.888698
0.851918
0.809877
0.762866
0.71143
0.656369
0.598697
0.268973
0.26792
0.269468
0.26506
0.266634
0.268563
0.270975
0.27407
0.277924
0.282566
0.288049
0.294438
0.301788
0.310099
0.319299
0.3291
0.339157
0.349049
0.358342
0.366649
0.373693
0.379335
0.38357
0.386505
0.388309
0.389176
0.389293
0.388824
0.387899
0.386623
0.385073
0.383306
0.381366
0.379284
0.377087
0.374792
0.372415
0.369971
0.36747
0.364923
0.362339
0.359732
0.357111
0.35449
0.351879
0.349291
0.346741
0.344247
0.341831
0.339523
0.337357
0.335363
0.333573
0.332055
0.330889
0.33016
0.329971
0.330439
0.331687
0.33382
0.336947
0.341148
0.346458
0.352852
0.360224
0.368361
0.376953
0.385619
0.393955
0.401596
0.408274
0.413847
0.418296
0.421692
0.424154
0.425811
0.426785
0.427176
0.427093
0.426697
0.426274
0.42659
0.429547
0.438995
0.460051
0.492576
0.523592
0.539627
0.542321
0.539707
0.269198
0.267923
0.269594
0.263781
0.263026
0.269387
0.268291
0.269579
0.269562
0.268779
0.26942
0.846354
0.804634
0.269735
0.269248
0.269919
0.26912
0.268687
0.273168
0.270145
0.268137
0.267483
0.266691
0.265743
0.763109
0.711762
0.656776
0.599206
0.541578
0.536453
0.518615
0.489394
0.46139
0.444043
0.436492
0.434344
0.43441
0.43509
0.435707
0.435997
0.435872
0.435269
0.434105
0.43229
0.429709
0.426232
0.421734
0.416133
0.409438
0.40178
0.393415
0.384698
0.37603
0.367794
0.360304
0.35378
0.348341
0.344007
0.34075
0.338499
0.33714
0.336559
0.336653
0.337299
0.338382
0.339818
0.341541
0.343458
0.345554
0.347815
0.350167
0.352605
0.355083
0.357648
0.360195
0.362734
0.365333
0.367836
0.370312
0.37276
0.375181
0.37752
0.379793
0.38194
0.383937
0.385787
0.387383
0.388661
0.389511
0.389784
0.389347
0.38794
0.385326
0.381338
0.375776
0.36867
0.360128
0.35049
0.340126
0.329552
0.319401
0.30998
0.301597
0.294204
0.287827
0.28238
0.277783
0.270442
0.263547
0.273956
0.26468
0.540336
0.268269
0.26963
0.882929
0.91424
0.94031
0.961267
0.977321
0.988647
0.995382
0.997618
0.995383
0.988663
0.977351
0.961285
0.940277
0.91413
0.882711
0.845987
0.804096
0.757336
0.706254
0.651634
0.59447
0.535989
0.268395
0.267902
0.269888
0.264781
0.266708
0.269054
0.27191
0.275398
0.279664
0.284811
0.290877
0.297874
0.305774
0.314517
0.323951
0.333722
0.34345
0.352719
0.361141
0.368412
0.374355
0.378926
0.382191
0.384294
0.385416
0.385739
0.385429
0.384624
0.383434
0.381941
0.380209
0.378285
0.376204
0.373992
0.37167
0.369255
0.36676
0.364194
0.361572
0.358899
0.356182
0.353432
0.350658
0.347867
0.345071
0.342277
0.33949
0.336721
0.333987
0.331301
0.328677
0.326134
0.323702
0.321411
0.319298
0.317389
0.315731
0.314411
0.313506
0.313104
0.313311
0.314242
0.31601
0.318711
0.322413
0.327156
0.33291
0.339559
0.346906
0.354655
0.36244
0.369874
0.376601
0.382351
0.386971
0.390424
0.392764
0.394105
0.394588
0.394367
0.39362
0.392635
0.392026
0.393211
0.399167
0.414319
0.439817
0.466062
0.480644
0.483174
0.48097
0.477709
0.262598
0.268461
0.268139
0.270007
0.262777
0.263198
0.268474
0.268629
0.26998
0.840394
0.798966
0.268452
0.269176
0.269673
0.268404
0.269807
0.269491
0.268353
0.269041
0.268315
0.268472
0.270842
0.268286
0.267773
0.266913
0.265913
0.758067
0.707168
0.652717
0.595668
0.53736
0.481749
0.482604
0.477626
0.462015
0.438375
0.417358
0.405375
0.4009
0.400333
0.401248
0.402485
0.403529
0.404131
0.40414
0.403435
0.40189
0.399374
0.395779
0.391046
0.385202
0.378387
0.370857
0.362961
0.355081
0.347585
0.340773
0.334851
0.329941
0.326079
0.323232
0.321325
0.320274
0.31996
0.320263
0.321081
0.322329
0.323917
0.325754
0.327807
0.330036
0.332406
0.334902
0.337466
0.340101
0.342773
0.345512
0.348242
0.350963
0.353737
0.356453
0.359118
0.361788
0.364446
0.367041
0.369612
0.372093
0.374474
0.37678
0.37896
0.380981
0.382782
0.384298
0.385454
0.386135
0.38618
0.385394
0.383606
0.380543
0.376079
0.37007
0.362585
0.353762
0.344058
0.333863
0.32377
0.314145
0.305345
0.297427
0.290424
0.284376
0.279232
0.274949
0.268345
0.264799
0.263514
0.271369
0.479246
0.268018
0.270064
0.87678
0.908001
0.934036
0.955024
0.971119
0.982474
0.989224
0.991456
0.989192
0.982419
0.971039
0.954902
0.933828
0.907657
0.876276
0.839677
0.79801
0.751588
0.700935
0.646811
0.590204
0.53233
0.47462
0.262363
0.268035
0.267994
0.263555
0.262219
0.270322
0.262012
0.261941
0.262659
0.264547
0.266858
0.269669
0.273046
0.27705
0.281814
0.287456
0.294023
0.301514
0.309859
0.318894
0.328351
0.337851
0.347007
0.355443
0.362845
0.369007
0.373846
0.377396
0.379773
0.381139
0.381668
0.381526
0.380853
0.379762
0.378344
0.376664
0.374775
0.372713
0.370509
0.368182
0.365754
0.363235
0.360639
0.357979
0.355255
0.352477
0.349658
0.346804
0.34392
0.341014
0.338091
0.335158
0.332223
0.329294
0.326377
0.323477
0.3206
0.317765
0.314986
0.312274
0.309648
0.307132
0.30476
0.302564
0.300578
0.298836
0.297391
0.296333
0.29574
0.295696
0.296301
0.297657
0.299858
0.302974
0.307023
0.311981
0.317733
0.32408
0.330741
0.337373
0.34361
0.349108
0.353606
0.356953
0.359118
0.360173
0.360261
0.359585
0.358427
0.357303
0.357323
0.360837
0.371509
0.390911
0.412049
0.424349
0.42647
0.424319
0.421325
0.418659
0.267973
0.268416
0.270436
0.834069
0.79294
0.26784
0.269001
0.269594
0.267645
0.2704
0.270215
0.267406
0.270112
0.269885
0.267144
0.26942
0.266864
0.268828
0.266598
0.268077
0.268441
0.266343
0.267171
0.266133
0.752794
0.702384
0.648501
0.592106
0.534381
0.476773
0.420822
0.422889
0.425046
0.425793
0.421654
0.40918
0.391184
0.375961
0.367914
0.365521
0.365973
0.367425
0.368946
0.370096
0.370624
0.370341
0.369084
0.366727
0.363203
0.358537
0.352871
0.346457
0.339629
0.332759
0.326192
0.32022
0.315038
0.310771
0.307461
0.305085
0.303576
0.302842
0.302783
0.303286
0.304263
0.305637
0.307321
0.309254
0.31139
0.313714
0.316182
0.318756
0.321427
0.32416
0.32694
0.329763
0.332637
0.335509
0.338378
0.341284
0.344155
0.346988
0.349818
0.352656
0.355444
0.358222
0.360939
0.363578
0.36618
0.368731
0.371182
0.373492
0.375646
0.377621
0.379345
0.380759
0.381764
0.382232
0.382023
0.380921
0.378745
0.375273
0.370368
0.36402
0.356253
0.347422
0.3378
0.327989
0.318372
0.309224
0.300783
0.293225
0.286621
0.280888
0.275989
0.271929
0.266127
0.268591
0.265951
0.264966
0.259299
0.267926
0.266537
0.264359
0.263668
0.262186
0.261467
0.260969
0.261125
0.261043
0.260223
0.259904
0.260814
0.259685
0.25895
0.259286
0.26068
0.258212
0.262227
0.257668
0.259044
0.260644
0.27051
0.870252
0.90135
0.927348
0.94834
0.96445
0.975825
0.982587
0.98482
0.982527
0.975702
0.964263
0.948065
0.926952
0.900782
0.869473
0.83304
0.791637
0.745591
0.695415
0.641846
0.585857
0.52864
0.471564
0.416152
0.272372
0.27702
0.282507
0.288914
0.296182
0.30421
0.312975
0.322344
0.331936
0.341271
0.350038
0.357813
0.364408
0.369589
0.373392
0.375907
0.377311
0.377798
0.37754
0.376699
0.375413
0.373777
0.371876
0.369764
0.367478
0.365039
0.362518
0.359886
0.357155
0.354358
0.351542
0.348706
0.345812
0.342875
0.33994
0.336972
0.33402
0.331047
0.32806
0.325054
0.322074
0.319102
0.316133
0.313202
0.310305
0.307453
0.304658
0.301941
0.29931
0.296793
0.294423
0.292224
0.290235
0.28849
0.287025
0.285901
0.285204
0.285013
0.285399
0.286449
0.288248
0.29086
0.294298
0.298524
0.303418
0.308786
0.314363
0.319832
0.324854
0.329119
0.332394
0.334555
0.335597
0.335616
0.334791
0.333378
0.331787
0.330799
0.331893
0.337255
0.348043
0.361024
0.370026
0.372802
0.371843
0.369853
0.368053
0.267853
0.268173
0.270769
0.747171
0.69727
0.643991
0.58828
0.53125
0.474266
0.418847
0.366489
0.256679
0.25764
0.258852
0.260359
0.262186
0.264427
0.267172
0.270458
0.274355
0.278937
0.284267
0.290426
0.297464
0.305337
0.313905
0.322987
0.33223
0.34121
0.349574
0.357013
0.363305
0.368342
0.372122
0.374736
0.376326
0.377053
0.377078
0.376543
0.375562
0.37423
0.372616
0.370776
0.368749
0.366567
0.364253
0.361828
0.359305
0.356698
0.354021
0.351272
0.348462
0.345604
0.342704
0.339768
0.336801
0.333809
0.330798
0.327771
0.324736
0.321697
0.318661
0.315634
0.312626
0.309632
0.306655
0.303716
0.30083
0.298002
0.295246
0.29258
0.29003
0.287618
0.285379
0.283343
0.281547
0.280027
0.278834
0.278049
0.277748
0.277998
0.278876
0.280465
0.28283
0.285993
0.289927
0.294518
0.299584
0.304874
0.310081
0.314869
0.318928
0.322017
0.324005
0.32489
0.324788
0.323936
0.32278
0.322236
0.324205
0.3317
0.346248
0.362611
0.372188
0.373524
0.371243
0.368378
0.365992
0.363925
0.267684
0.26874
0.269399
0.267427
0.270878
0.270833
0.267091
0.270028
0.827717
0.786892
0.270639
0.266693
0.270561
0.270297
0.26624
0.269816
0.265755
0.26919
0.265261
0.268401
0.264772
0.267463
0.264309
0.266391
0.264001
0.265184
0.263832
0.25593
0.257269
0.262337
0.254149
0.255369
0.267958
0.247777
0.257839
0.258909
0.260686
0.270965
0.267993
0.271842
0.277056
0.283603
0.29096
0.298991
0.307586
0.316585
0.325777
0.33497
0.34371
0.351528
0.358172
0.363562
0.367612
0.3704
0.372048
0.372769
0.372719
0.372056
0.370917
0.369396
0.367578
0.365524
0.363283
0.360891
0.358374
0.355735
0.353012
0.350251
0.347377
0.344455
0.341482
0.338501
0.335521
0.332501
0.32945
0.326408
0.323345
0.320295
0.31723
0.314159
0.311079
0.308028
0.304988
0.301955
0.298949
0.295978
0.293052
0.290179
0.287373
0.284642
0.282002
0.279479
0.277093
0.27487
0.272842
0.271039
0.269496
0.268248
0.267337
0.266831
0.266796
0.267281
0.268348
0.270058
0.272436
0.275459
0.279016
0.282947
0.287029
0.290987
0.294523
0.297362
0.299297
0.30023
0.300194