/*--------------------------------*- C++ -*----------------------------------*\
| =========                 |                                                 |
| \\      /  F ield         | OpenFOAM: The Open Source CFD Toolbox           |
|  \\    /   O peration     | Version:  2212                                  |
|   \\  /    A nd           | Website:  www.openfoam.com                      |
|    \\/     M anipulation  |                                                 |
\*---------------------------------------------------------------------------*/
FoamFile
{
    version     2.0;
    format      ascii;
    arch        "LSB;label=32;scalar=64";
    class       volScalarField;
    location    "0.017";
    object      p;
}
// * * * * * * * * * * * * * * * * * * * * * * * * * * * * * * * * * * * * * //

dimensions      [1 -1 -2 0 0 0 0];

internalField   nonuniform List<scalar> 
7700
(
217.672
175.694
161.124
162.547
163.948
164.217
164.315
164.464
164.609
164.742
164.863
164.977
165.083
165.182
165.274
165.359
165.437
165.508
165.572
165.629
165.68
165.723
165.759
165.789
165.81
165.825
165.848
165.862
165.845
165.818
165.801
165.777
165.746
165.707
165.662
165.609
165.55
165.484
165.411
165.331
165.244
165.15
165.049
164.941
164.825
164.701
164.566
164.416
164.261
164.159
163.874
162.453
161.096
175.7
217.326
222.47
175.881
161.618
163.238
164.365
164.435
164.403
164.45
164.544
164.636
164.724
164.808
164.89
164.967
165.041
165.109
165.173
165.232
165.285
165.333
165.376
165.412
165.443
165.469
165.489
165.503
165.518
165.525
165.516
165.498
165.482
165.461
165.435
165.402
165.364
165.32
165.271
165.216
165.156
165.091
165.022
164.947
164.868
164.785
164.699
164.61
164.515
164.423
164.383
164.416
164.328
163.164
161.666
176.101
221.875
221.192
178.143
163.082
164.039
165.352
165.566
165.589
165.668
165.77
165.869
165.962
166.051
166.136
166.216
166.291
166.361
166.426
166.485
166.539
166.588
166.631
166.668
166.7
166.727
166.748
166.764
166.774
166.779
166.774
166.764
166.749
166.729
166.703
166.672
166.636
166.594
166.547
166.494
166.436
166.373
166.304
166.23
166.152
166.068
165.981
165.888
165.79
165.688
165.61
165.587
165.361
164.023
163.161
178.335
220.745
219.771
180.314
164.679
165.043
166.476
166.771
166.781
166.827
166.906
166.985
167.059
167.13
167.198
167.263
167.324
167.382
167.436
167.485
167.53
167.571
167.607
167.639
167.666
167.689
167.706
167.719
167.728
167.732
167.729
167.72
167.708
167.692
167.671
167.645
167.615
167.58
167.541
167.497
167.45
167.398
167.343
167.283
167.221
167.155
167.087
167.015
166.939
166.865
166.823
166.817
166.523
165.084
164.75
180.414
219.661
219.956
182.325
166.322
166.361
167.874
168.224
168.245
168.298
168.384
168.469
168.548
168.622
168.693
168.761
168.824
168.883
168.938
168.988
169.035
169.076
169.113
169.145
169.173
169.196
169.214
169.227
169.236
169.24
169.237
169.229
169.217
169.201
169.18
169.155
169.125
169.09
169.051
169.007
168.959
168.906
168.85
168.789
168.724
168.656
168.585
168.51
168.428
168.347
168.299
168.287
167.948
166.438
166.38
182.41
220.356
222.438
184.246
167.92
167.917
169.462
169.802
169.807
169.844
169.915
169.987
170.053
170.114
170.173
170.229
170.281
170.33
170.375
170.417
170.455
170.489
170.519
170.546
170.568
170.587
170.602
170.612
170.619
170.622
170.621
170.614
170.604
170.591
170.574
170.553
170.528
170.5
170.467
170.431
170.392
170.349
170.302
170.252
170.199
170.143
170.084
170.021
169.953
169.885
169.852
169.852
169.517
167.976
167.962
184.296
222.708
225.173
186.032
169.446
169.47
171.036
171.376
171.376
171.409
171.479
171.549
171.614
171.675
171.733
171.788
171.84
171.888
171.933
171.974
172.012
172.046
172.076
172.102
172.125
172.143
172.158
172.169
172.176
172.179
172.177
172.171
172.161
172.149
172.132
172.112
172.087
172.059
172.027
171.992
171.953
171.911
171.865
171.816
171.763
171.708
171.65
171.588
171.521
171.455
171.426
171.43
171.095
169.531
169.488
186.079
225.448
227.853
187.755
170.928
170.992
172.58
172.92
172.916
172.944
173.008
173.073
173.132
173.188
173.24
173.289
173.335
173.378
173.417
173.453
173.486
173.516
173.542
173.565
173.584
173.6
173.613
173.622
173.629
173.632
173.63
173.625
173.617
173.607
173.592
173.575
173.554
173.53
173.503
173.472
173.439
173.402
173.362
173.318
173.272
173.223
173.171
173.115
173.053
172.992
172.968
172.977
172.642
171.057
170.97
187.797
228.166
230.492
189.451
172.395
172.5
174.111
174.452
174.445
174.472
174.535
174.599
174.657
174.711
174.762
174.81
174.855
174.896
174.935
174.97
175.002
175.03
175.056
175.078
175.097
175.113
175.126
175.135
175.141
175.144
175.143
175.138
175.131
175.121
175.108
175.091
175.071
175.048
175.021
174.991
174.959
174.923
174.884
174.842
174.797
174.749
174.698
174.644
174.583
174.523
174.5
174.512
174.177
172.569
172.435
189.488
230.85
233.106
191.129
173.847
173.993
175.626
175.967
175.958
175.982
176.043
176.105
176.16
176.212
176.26
176.304
176.346
176.384
176.419
176.451
176.48
176.506
176.529
176.549
176.566
176.579
176.59
176.598
176.603
176.606
176.604
176.601
176.596
176.588
176.577
176.563
176.546
176.526
176.502
176.476
176.446
176.413
176.378
176.339
176.297
176.252
176.204
176.152
176.094
176.036
176.015
176.029
175.694
174.065
173.884
191.159
233.507
235.702
192.794
175.289
175.476
177.129
177.472
177.461
177.484
177.544
177.605
177.659
177.709
177.755
177.799
177.839
177.876
177.91
177.94
177.968
177.992
178.014
178.032
178.048
178.061
178.072
178.08
178.085
178.087
178.086
178.083
178.078
178.07
178.06
178.046
178.031
178.012
177.991
177.967
177.939
177.908
177.873
177.836
177.795
177.752
177.705
177.654
177.597
177.54
177.521
177.536
177.2
175.551
175.322
192.817
236.15
238.286
194.446
176.719
176.947
178.621
178.965
178.952
178.974
179.033
179.092
179.144
179.192
179.237
179.278
179.316
179.35
179.382
179.41
179.436
179.458
179.478
179.495
179.509
179.521
179.53
179.538
179.542
179.544
179.544
179.543
179.54
179.533
179.523
179.511
179.496
179.479
179.459
179.437
179.411
179.383
179.352
179.316
179.278
179.237
179.192
179.143
179.087
179.032
179.014
179.032
178.697
177.029
176.752
194.464
238.784
240.861
196.088
178.14
178.408
180.103
180.448
180.433
180.453
180.511
180.57
180.621
180.667
180.71
180.75
180.787
180.82
180.85
180.876
180.9
180.921
180.94
180.955
180.969
180.979
180.988
180.994
180.998
180.999
181.001
181.003
181
180.993
180.983
180.972
180.959
180.943
180.924
180.903
180.88
180.853
180.823
180.791
180.755
180.715
180.671
180.624
180.569
180.515
180.499
180.519
180.185
178.497
178.173
196.102
241.41
243.426
197.722
179.552
179.861
181.576
181.921
181.905
181.923
181.98
182.036
182.086
182.131
182.172
182.21
182.245
182.276
182.304
182.329
182.351
182.37
182.386
182.4
182.412
182.422
182.429
182.434
182.437
182.438
182.442
182.446
182.442
182.436
182.428
182.418
182.406
182.392
182.375
182.356
182.334
182.309
182.282
182.252
182.218
182.181
182.141
182.096
182.043
181.991
181.977
181.999
181.664
179.956
179.584
197.729
244.025
245.983
199.346
180.956
181.305
183.04
183.385
183.366
183.383
183.438
183.493
183.541
183.584
183.624
183.66
183.693
183.722
183.748
183.771
183.791
183.809
183.824
183.837
183.847
183.856
183.862
183.867
183.87
183.872
183.875
183.875
183.872
183.867
183.861
183.853
183.843
183.83
183.815
183.798
183.779
183.756
183.73
183.701
183.67
183.635
183.597
183.555
183.505
183.455
183.443
183.467
183.133
181.405
180.984
199.345
246.63
248.53
200.961
182.351
182.74
184.495
184.84
184.817
184.832
184.885
184.938
184.984
185.026
185.063
185.097
185.128
185.155
185.179
185.2
185.218
185.233
185.246
185.258
185.267
185.274
185.28
185.284
185.287
185.289
185.29
185.289
185.287
185.284
185.279
185.273
185.264
185.254
185.241
185.226
185.209
185.188
185.165
185.138
185.108
185.075
185.039
184.998
184.95
184.903
184.894
184.922
184.589
182.843
182.374
200.949
249.224
251.069
202.567
183.737
184.166
185.939
186.284
186.258
186.27
186.321
186.372
186.416
186.455
186.49
186.522
186.55
186.575
186.596
186.615
186.63
186.644
186.655
186.664
186.672
186.678
186.682
186.686
186.688
186.69
186.691
186.691
186.689
186.687
186.683
186.678
186.672
186.663
186.653
186.64
186.625
186.607
186.586
186.562
186.534
186.503
186.469
186.43
186.384
186.338
186.333
186.365
186.034
184.27
183.753
202.542
251.808
253.599
204.163
185.114
185.583
187.374
187.718
187.688
187.696
187.744
187.793
187.834
187.87
187.902
187.931
187.957
187.978
187.997
188.013
188.026
188.037
188.046
188.053
188.059
188.063
188.066
188.069
188.071
188.072
188.073
188.073
188.072
188.071
188.069
188.066
188.061
188.055
188.047
188.037
188.024
188.009
187.991
187.97
187.945
187.917
187.885
187.848
187.804
187.761
187.758
187.794
187.466
185.685
185.121
204.125
254.381
256.119
205.75
186.482
186.989
188.797
189.139
189.105
189.108
189.153
189.199
189.236
189.269
189.298
189.324
189.346
189.365
189.38
189.393
189.403
189.411
189.418
189.422
189.426
189.428
189.43
189.431
189.433
189.433
189.434
189.435
189.436
189.435
189.435
189.434
189.432
189.428
189.423
189.415
189.406
189.394
189.379
189.36
189.339
189.314
189.285
189.252
189.211
189.171
189.17
189.211
188.886
187.089
186.479
205.695
256.943
258.626
207.326
187.838
188.383
190.207
190.547
190.506
190.505
190.545
190.587
190.62
190.649
190.675
190.697
190.715
190.73
190.742
190.752
190.759
190.763
190.767
190.769
190.77
190.77
190.77
190.77
190.77
190.771
190.772
190.773
190.775
190.776
190.778
190.779
190.779
190.778
190.776
190.772
190.766
190.757
190.746
190.731
190.713
190.692
190.667
190.638
190.601
190.564
190.569
190.616
190.293
188.48
187.825
207.254
259.492
261.116
208.887
189.182
189.762
191.6
191.937
191.888
191.882
191.917
191.953
191.983
192.007
192.028
192.046
192.06
192.071
192.079
192.085
192.088
192.09
192.089
192.088
192.087
192.085
192.083
192.082
192.082
192.081
192.083
192.085
192.087
192.09
192.094
192.097
192.101
192.103
192.104
192.103
192.101
192.096
192.089
192.078
192.064
192.047
192.027
192.002
191.97
191.939
191.948
192.004
191.683
189.855
189.157
208.796
262.017
263.586
210.43
190.509
191.125
192.974
193.304
193.247
193.234
193.264
193.294
193.318
193.338
193.354
193.367
193.377
193.383
193.387
193.388
193.387
193.385
193.382
193.377
193.373
193.369
193.365
193.362
193.361
193.36
193.362
193.364
193.368
193.373
193.379
193.385
193.391
193.397
193.402
193.405
193.407
193.406
193.403
193.397
193.388
193.376
193.36
193.34
193.314
193.289
193.305
193.369
193.054
191.214
190.474
210.32
264.51
266.047
211.957
191.819
192.466
194.322
194.645
194.577
194.557
194.58
194.604
194.621
194.635
194.646
194.654
194.658
194.66
194.659
194.656
194.651
194.645
194.637
194.63
194.622
194.616
194.61
194.606
194.603
194.603
194.604
194.607
194.613
194.619
194.627
194.636
194.646
194.655
194.664
194.671
194.677
194.682
194.683
194.681
194.678
194.671
194.661
194.647
194.627
194.609
194.632
194.707
194.398
192.552
191.773
211.824
266.984
268.442
213.451
193.104
193.778
195.636
195.95
195.87
195.843
195.857
195.874
195.885
195.892
195.897
195.899
195.898
195.895
195.889
195.882
195.872
195.862
195.851
195.84
195.829
195.82
195.812
195.807
195.803
195.802
195.804
195.808
195.814
195.823
195.833
195.845
195.857
195.87
195.883
195.895
195.906
195.914
195.921
195.926
195.926
195.925
195.921
195.914
195.901
195.891
195.921
196.008
195.709
193.861
193.047
213.299
269.418
270.778
214.908
194.356
195.053
196.909
197.212
197.119
197.082
197.087
197.096
197.099
197.099
197.098
197.094
197.088
197.079
197.069
197.056
197.043
197.028
197.013
196.999
196.986
196.974
196.964
196.957
196.953
196.951
196.953
196.958
196.966
196.976
196.989
197.003
197.019
197.036
197.052
197.069
197.084
197.097
197.109
197.118
197.125
197.13
197.133
197.132
197.128
197.126
197.166
197.266
196.979
195.133
194.288
214.736
271.795
273.048
216.32
195.568
196.283
198.131
198.421
198.312
198.264
198.259
198.257
198.253
198.246
198.238
198.228
198.216
198.203
198.187
198.17
198.153
198.134
198.116
198.099
198.083
198.069
198.058
198.05
198.044
198.043
198.045
198.05
198.059
198.071
198.086
198.103
198.122
198.141
198.162
198.182
198.201
198.219
198.235
198.25
198.262
198.273
198.283
198.291
198.295
198.303
198.354
198.469
198.195
196.358
195.487
216.128
274.105
275.228
217.673
196.728
197.454
199.288
199.562
199.435
199.372
199.356
199.345
199.332
199.317
199.303
199.287
199.27
199.252
199.232
199.212
199.191
199.169
199.149
199.129
199.111
199.096
199.083
199.074
199.068
199.066
199.068
199.074
199.084
199.098
199.114
199.133
199.154
199.176
199.2
199.223
199.245
199.267
199.288
199.307
199.325
199.342
199.359
199.375
199.388
199.406
199.471
199.603
199.346
197.523
196.635
217.461
276.317
277.289
218.95
197.82
198.547
200.359
200.615
200.469
200.39
200.362
200.341
200.319
200.297
200.276
200.255
200.234
200.212
200.19
200.167
200.143
200.12
200.098
200.077
200.058
200.042
200.028
200.018
200.012
200.011
200.013
200.02
200.03
200.044
200.062
200.082
200.104
200.128
200.153
200.178
200.203
200.228
200.251
200.274
200.297
200.319
200.342
200.366
200.388
200.418
200.497
200.648
200.408
198.608
197.71
218.711
278.392
279.164
220.128
198.824
199.539
201.322
201.556
201.391
201.296
201.255
201.224
201.194
201.166
201.14
201.116
201.092
201.068
201.044
201.02
200.997
200.973
200.951
200.93
200.911
200.894
200.881
200.871
200.865
200.864
200.867
200.873
200.884
200.899
200.916
200.937
200.959
200.984
201.009
201.034
201.06
201.085
201.11
201.135
201.16
201.186
201.214
201.245
201.276
201.316
201.41
201.578
201.359
199.588
198.693
219.855
280.277
280.806
221.173
199.709
200.4
202.147
202.361
202.177
202.067
202.016
201.976
201.94
201.908
201.88
201.854
201.83
201.807
201.783
201.76
201.737
201.715
201.693
201.673
201.654
201.639
201.626
201.617
201.611
201.61
201.613
201.62
201.631
201.645
201.663
201.683
201.705
201.729
201.753
201.777
201.802
201.826
201.85
201.875
201.9
201.927
201.958
201.993
202.031
202.08
202.186
202.371
202.17
200.432
199.554
220.862
281.901
282.158
222.034
200.445
201.107
202.82
203.02
202.823
202.702
202.642
202.596
202.555
202.519
202.487
202.459
202.433
202.408
202.383
202.359
202.334
202.31
202.287
202.264
202.244
202.225
202.211
202.2
202.193
202.192
202.196
202.204
202.217
202.234
202.254
202.277
202.302
202.328
202.354
202.38
202.406
202.431
202.456
202.482
202.509
202.538
202.572
202.611
202.653
202.709
202.824
203.018
202.827
201.117
200.27
221.711
283.238
283.049
222.605
200.946
201.584
203.247
203.419
203.197
203.056
202.981
202.922
202.87
202.827
202.791
202.76
202.732
202.706
202.68
202.655
202.629
202.604
202.579
202.555
202.532
202.512
202.496
202.484
202.477
202.475
202.479
202.488
202.502
202.521
202.543
202.569
202.596
202.623
202.651
202.678
202.705
202.731
202.757
202.784
202.813
202.847
202.886
202.934
202.988
203.058
203.192
203.412
203.249
201.578
200.727
222.254
284.181
283.483
222.853
201.149
201.804
203.426
203.572
203.334
203.185
203.103
203.039
202.983
202.938
202.9
202.868
202.84
202.813
202.787
202.762
202.736
202.709
202.683
202.658
202.634
202.613
202.596
202.583
202.575
202.573
202.577
202.587
202.602
202.622
202.646
202.672
202.701
202.73
202.758
202.786
202.813
202.839
202.865
202.893
202.922
202.957
202.999
203.05
203.109
203.185
203.327
203.567
203.44
201.809
200.883
222.424
284.826
283.652
222.668
201.067
201.86
203.454
203.574
203.323
203.166
203.076
203.005
202.944
202.897
202.859
202.827
202.8
202.775
202.75
202.723
202.694
202.663
202.631
202.599
202.568
202.539
202.516
202.497
202.487
202.483
202.489
202.501
202.521
202.547
202.578
202.612
202.648
202.684
202.718
202.749
202.778
202.803
202.828
202.853
202.88
202.914
202.957
203.014
203.082
203.168
203.319
203.576
203.494
201.918
200.723
222.166
285.967
286.149
221.773
200.419
201.841
203.312
203.301
202.996
202.817
202.703
202.609
202.532
202.47
202.421
202.381
202.345
202.312
202.278
202.243
202.205
202.166
202.125
202.085
202.046
202.011
201.982
201.961
201.948
201.943
201.95
201.964
201.988
202.019
202.056
202.098
202.142
202.186
202.229
202.27
202.307
202.341
202.374
202.407
202.444
202.488
202.544
202.617
202.707
202.817
202.987
203.297
203.391
201.977
199.97
220.913
289.015
290.469
220.108
199.382
201.806
203.069
202.849
202.51
202.321
202.186
202.073
201.982
201.911
201.855
201.809
201.769
201.731
201.693
201.654
201.612
201.569
201.525
201.483
201.443
201.409
201.38
201.36
201.349
201.346
201.353
201.369
201.394
201.427
201.466
201.51
201.558
201.607
201.654
201.7
201.742
201.782
201.819
201.858
201.901
201.952
202.018
202.102
202.21
202.341
202.517
202.844
203.141
201.995
198.926
218.801
294.166
296.293
217.517
198.27
201.752
202.69
202.274
201.932
201.735
201.576
201.444
201.339
201.255
201.188
201.133
201.086
201.042
201
200.958
200.915
200.872
200.831
200.793
200.76
200.732
200.711
200.697
200.69
200.69
200.7
200.716
200.738
200.767
200.803
200.844
200.89
200.938
200.987
201.036
201.083
201.128
201.173
201.219
201.272
201.335
201.413
201.513
201.64
201.797
201.987
202.315
202.796
202.013
198.001
215.943
300.606
303.758
213.604
197.411
201.804
202.289
201.699
201.366
201.155
200.973
200.825
200.705
200.607
200.529
200.465
200.413
200.367
200.325
200.286
200.249
200.215
200.185
200.16
200.141
200.127
200.118
200.116
200.117
200.121
200.131
200.144
200.16
200.18
200.205
200.236
200.271
200.31
200.352
200.396
200.441
200.487
200.536
200.588
200.649
200.723
200.815
200.93
201.074
201.253
201.463
201.79
202.43
202.088
197.456
212.278
307.561
308.157
210.213
197.06
201.762
201.883
201.195
200.86
200.628
200.426
200.259
200.121
200.005
199.911
199.838
199.78
199.732
199.692
199.659
199.631
199.61
199.595
199.587
199.586
199.589
199.597
199.607
199.618
199.627
199.636
199.645
199.651
199.659
199.668
199.682
199.701
199.726
199.755
199.791
199.831
199.874
199.924
199.982
200.052
200.139
200.248
200.38
200.541
200.739
200.969
201.301
202.006
201.962
197.161
209.508
310.932
307.975
208.319
196.483
201.266
201.299
200.596
200.255
200.009
199.793
199.611
199.456
199.325
199.222
199.145
199.088
199.047
199.019
199.001
198.993
198.994
199.005
199.023
199.048
199.076
199.106
199.134
199.157
199.171
199.18
199.182
199.175
199.163
199.15
199.139
199.133
199.132
199.139
199.154
199.178
199.209
199.252
199.306
199.378
199.473
199.595
199.742
199.917
200.128
200.368
200.7
201.401
201.4
196.464
207.717
310.493
306.021
206.848
195.592
200.496
200.575
199.895
199.558
199.309
199.083
198.889
198.719
198.572
198.459
198.382
198.332
198.303
198.293
198.297
198.314
198.346
198.389
198.442
198.5
198.56
198.617
198.666
198.705
198.726
198.733
198.726
198.701
198.666
198.624
198.581
198.541
198.507
198.484
198.472
198.472
198.485
198.515
198.562
198.633
198.733
198.868
199.029
199.217
199.436
199.678
200.001
200.672
200.628
195.542
206.093
308.527
303.927
206.255
194.789
199.698
199.831
199.182
198.848
198.59
198.348
198.133
197.938
197.768
197.642
197.563
197.524
197.512
197.52
197.549
197.603
197.673
197.759
197.854
197.955
198.053
198.144
198.219
198.276
198.304
198.31
198.292
198.245
198.181
198.103
198.019
197.936
197.861
197.796
197.748
197.721
197.713
197.724
197.761
197.83
197.94
198.096
198.28
198.487
198.723
198.973
199.29
199.935
199.856
194.806
205.495
306.586
301.542
205.292
193.859
198.807
198.989
198.368
198.032
197.761
197.492
197.252
197.034
196.841
196.706
196.642
196.621
196.63
196.67
196.745
196.847
196.971
197.112
197.264
197.419
197.566
197.699
197.807
197.886
197.925
197.928
197.895
197.822
197.72
197.597
197.461
197.323
197.191
197.073
196.974
196.899
196.856
196.845
196.862
196.916
197.03
197.207
197.417
197.649
197.911
198.179
198.499
199.122
199.003
193.967
204.638
304.28
299.04
204.215
192.771
197.69
197.924
197.344
197.021
196.756
196.463
196.219
196.005
195.807
195.684
195.641
195.644
195.69
195.78
195.913
196.078
196.269
196.479
196.7
196.918
197.124
197.306
197.453
197.557
197.607
197.607
197.558
197.452
197.307
197.129
196.931
196.726
196.524
196.337
196.174
196.039
195.943
195.893
195.885
195.918
196.019
196.207
196.429
196.668
196.953
197.24
197.573
198.16
197.971
192.95
203.627
301.73
296.394
203.279
191.569
196.306
196.571
195.969
195.616
195.36
195.082
194.914
194.792
194.645
194.563
194.55
194.593
194.692
194.853
195.059
195.303
195.577
195.871
196.173
196.469
196.742
196.982
197.173
197.311
197.38
197.375
197.297
197.154
196.958
196.716
196.444
196.158
195.872
195.6
195.355
195.145
194.977
194.868
194.819
194.823
194.893
195.052
195.24
195.418
195.678
195.946
196.291
196.897
196.666
191.802
202.821
299.019
293.451
202.448
190.281
194.782
195.045
194.357
193.946
193.676
193.446
193.34
193.309
193.316
193.322
193.367
193.476
193.654
193.901
194.199
194.54
194.914
195.307
195.705
196.089
196.441
196.761
197.021
197.191
197.272
197.263
197.167
196.973
196.696
196.378
196.021
195.641
195.255
194.882
194.537
194.232
193.977
193.782
193.667
193.618
193.637
193.679
193.739
193.852
194.072
194.322
194.696
195.384
195.158
190.546
202.062
295.973
290.216
201.534
188.872
193.167
193.445
192.679
192.25
191.96
191.749
191.669
191.684
191.794
191.952
192.102
192.304
192.588
192.94
193.349
193.806
194.298
194.807
195.314
195.801
196.273
196.658
196.96
197.148
197.236
197.226
197.118
196.895
196.568
196.151
195.682
195.194
194.693
194.201
193.737
193.317
192.953
192.653
192.444
192.303
192.198
192.101
192.068
192.134
192.33
192.615
193.021
193.792
193.556
189.145
201.069
292.693
287.019
200.315
187.372
191.48
191.767
190.915
190.475
190.179
190.009
189.971
190.029
190.201
190.486
190.792
191.124
191.528
192.005
192.546
193.138
193.763
194.402
195.039
195.662
196.208
196.631
196.96
197.207
197.325
197.305
197.151
196.882
196.524
196.048
195.473
194.842
194.211
193.584
192.983
192.428
191.933
191.512
191.174
190.908
190.631
190.433
190.357
190.385
190.541
190.829
191.255
192.116
191.873
187.632
199.747
289.465
283.58
199.289
185.879
189.705
189.994
189.053
188.61
188.337
188.213
188.224
188.347
188.601
188.977
189.484
189.956
190.502
191.126
191.817
192.559
193.333
194.124
194.912
195.617
196.207
196.766
197.199
197.474
197.601
197.578
197.404
197.07
196.588
196.024
195.387
194.637
193.836
193.057
192.302
191.592
190.946
190.377
189.895
189.439
189.014
188.733
188.588
188.565
188.676
188.935
189.372
190.327
190.082
186.131
198.83
286.026
279.614
198.066
184.282
187.802
188.094
187.081
186.661
186.437
186.366
186.428
186.632
186.981
187.488
188.155
188.808
189.523
190.316
191.175
192.086
193.036
193.998
194.876
195.69
196.457
197.067
197.537
197.858
198.01
197.979
197.77
197.394
196.867
196.182
195.377
194.559
193.624
192.655
191.729
190.846
190.028
189.288
188.634
187.958
187.399
187.018
186.784
186.701
186.755
186.963
187.373
188.406
188.161
184.537
197.703
282.126
275.363
196.732
182.531
185.776
186.082
185.032
184.677
184.514
184.506
184.634
184.93
185.384
186.037
186.846
187.738
188.649
189.63
190.674
191.77
192.907
193.969
195.012
195.986
196.82
197.531
198.079
198.439
198.605
198.568
198.33
197.895
197.275
196.506
195.605
194.557
193.545
192.419
191.28
190.206
189.196
188.259
187.405
186.532
185.812
185.305
184.969
184.81
184.799
184.946
185.282
186.357
186.103
182.804
196.34
277.851
270.902
195.516
180.722
183.646
183.989
182.954
182.684
182.588
182.636
182.851
183.252
183.84
184.658
185.633
186.76
187.884
189.071
190.323
191.632
192.878
194.148
195.341
196.422
197.382
198.17
198.77
199.171
199.358
199.316
199.047
198.567
197.882
197.007
195.978
194.846
193.553
192.335
191.025
189.729
188.507
187.346
186.223
185.184
184.304
183.638
183.189
182.933
182.859
182.932
183.171
184.225
183.928
180.892
195.004
273.29
266.023
194.138
178.771
181.488
181.878
180.92
180.713
180.688
180.805
181.119
181.64
182.416
183.416
184.591
185.93
187.292
188.703
190.177
191.606
193.104
194.522
195.854
197.068
198.118
198.989
199.653
200.09
200.292
200.243
199.944
199.413
198.65
197.687
196.544
195.247
193.875
192.344
190.933
189.443
187.967
186.563
185.173
183.95
182.888
182.033
181.452
181.087
180.936
180.934
181.102
182.072
181.72
178.832
193.634
268.469
260.5
193.09
177.166
179.397
179.796
178.931
178.77
178.804
179.01
179.446
180.123
181.105
182.304
183.675
185.217
186.873
188.541
190.152
191.871
193.507
195.089
196.563
197.889
199.041
199.985
200.701
201.174
201.393
201.339
201.015
200.443
199.618
198.565
197.313
195.896
194.333
192.722
190.954
189.348
187.656
185.986
184.359
182.909
181.63
180.564
179.8
179.303
179.049
178.99
179.106
179.975
179.615
177.238
192.662
263.027
254.531
191.442
175.331
177.226
177.644
176.929
176.832
176.935
177.263
177.849
178.759
179.965
181.395
182.996
184.761
186.694
188.52
190.468
192.319
194.146
195.878
197.48
198.916
200.151
201.164
201.931
202.434
202.667
202.606
202.259
201.645
200.759
199.628
198.275
196.73
195.038
193.215
191.377
189.377
187.547
185.6
183.726
182.054
180.54
179.249
178.236
177.576
177.192
177.056
177.11
177.824
177.443
175.389
191.038
257.085
248.339
189.701
173.344
174.911
175.368
174.888
174.882
175.091
175.583
176.379
177.563
179.023
180.718
182.575
184.578
186.675
188.884
190.962
193.02
195.002
196.873
198.593
200.124
201.438
202.509
203.317
203.846
204.092
204.027
203.659
203.013
202.077
200.875
199.433
197.78
195.946
193.984
191.913
189.852
187.577
185.464
183.374
181.449
179.666
178.11
176.826
175.922
175.364
175.107
175.081
175.547
175.116
173.386
189.354
250.814
242.077
187.861
171.218
172.504
173.005
172.814
172.905
173.279
173.983
175.11
176.585
178.345
180.32
182.421
184.564
187.04
189.419
191.72
193.945
196.08
198.079
199.903
201.518
202.898
204.019
204.864
205.416
205.673
205.604
205.221
204.547
203.568
202.308
200.79
199.039
197.09
194.978
192.76
190.444
188.117
185.497
183.269
181.12
179.062
177.207
175.627
174.381
173.589
173.152
173.024
173.187
172.693
171.273
187.532
244.44
235.694
185.786
168.918
170.027
170.619
170.695
170.953
171.554
172.58
174.073
175.877
177.936
180.193
182.434
185.019
187.623
190.259
192.744
195.132
197.4
199.507
201.419
203.103
204.537
205.697
206.569
207.137
207.403
207.33
206.933
206.238
205.225
203.917
202.335
200.502
198.448
196.211
193.83
191.355
188.742
186.157
183.441
181.036
178.736
176.562
174.658
173.057
171.897
171.224
170.911
170.81
170.205
168.94
185.469
237.945
229.158
183.441
166.495
167.468
168.238
168.545
169.06
169.972
171.461
173.321
175.461
177.816
180.315
183.11
185.84
188.595
191.375
194.032
196.562
198.946
201.147
203.13
204.87
206.344
207.535
208.428
209.008
209.282
209.207
208.8
208.092
207.053
205.71
204.078
202.18
200.042
197.695
195.18
192.526
189.706
186.869
184.154
181.357
178.672
176.245
173.978
172.021
170.396
169.376
168.792
168.445
167.648
166.526
183.181
231.285
222.508
181.152
164.151
164.919
165.876
166.463
167.299
168.734
170.652
172.904
175.352
178.073
181.1
183.948
186.907
189.823
192.783
195.602
198.258
200.738
203.011
205.048
206.827
208.33
209.54
210.446
211.033
211.311
211.236
210.824
210.108
209.052
207.684
206.017
204.071
201.868
199.434
196.802
193.997
190.99
187.988
184.992
182.006
179.062
176.188
173.65
171.286
169.262
167.668
166.738
166.092
165.089
164.15
180.844
224.494
215.856
178.71
161.772
162.399
163.58
164.52
165.881
167.856
170.231
172.807
175.722
178.894
181.981
185.16
188.225
191.381
194.484
197.462
200.219
202.77
205.094
207.166
208.969
210.487
211.707
212.618
213.208
213.487
213.413
213.002
212.283
211.219
209.837
208.15
206.173
203.925
201.428
198.711
195.79
192.68
189.459
186.312
183.021
179.849
176.661
173.594
170.943
168.459
166.376
164.863
163.84
162.581
161.796
178.521
217.767
208.842
176.077
159.236
159.837
161.439
162.947
164.939
167.42
170.145
173.299
176.628
179.981
183.427
186.831
190.149
193.445
196.604
199.63
202.448
205.044
207.396
209.485
211.296
212.818
214.038
214.947
215.532
215.807
215.737
215.337
214.618
213.552
212.167
210.472
208.482
206.21
203.673
200.895
197.884
194.726
191.46
188.08
184.649
181.195
177.666
174.222
170.893
168.103
165.498
163.382
161.755
160.029
159.274
175.969
210.708
201.228
172.41
156.364
157.28
159.74
161.894
164.465
167.33
170.746
174.352
178.018
181.763
185.453
189.056
192.519
195.852
199.039
202.086
204.941
207.557
209.917
212.005
213.811
215.324
216.536
217.438
218.016
218.271
218.224
217.846
217.122
216.061
214.683
212.995
211.008
208.734
206.182
203.376
200.329
197.126
193.759
190.249
186.693
182.949
179.212
175.433
171.746
168.078
165.123
162.415
160.144
157.543
156.401
172.231
203.124
193.869
168.429
153.642
155.233
158.475
161.369
164.382
168.139
172.114
176.158
180.188
184.117
188.022
191.685
195.189
198.569
201.789
204.839
207.705
210.317
212.663
214.732
216.518
218.012
219.207
220.096
220.668
220.899
220.867
220.518
219.785
218.738
217.376
215.706
213.737
211.479
208.938
206.132
203.089
199.868
196.469
192.905
189.234
185.315
181.275
177.19
173.088
169.094
165.102
161.987
158.97
155.624
153.631
168.182
195.634
187.271
165.895
151.992
153.967
157.875
161.29
165.453
169.826
174.248
178.617
182.856
186.993
190.917
194.653
198.249
201.663
204.885
207.912
210.738
213.318
215.63
217.665
219.42
220.886
222.056
222.924
223.496
223.71
223.671
223.348
222.626
221.603
220.267
218.627
216.692
214.467
211.96
209.183
206.172
202.966
199.563
195.972
192.207
188.259
184.07
179.769
175.342
170.789
166.364
161.969
158.456
154.417
152.064
165.634
188.859
180.64
163.787
151.13
153.427
157.801
162.653
167.513
172.382
177.149
181.728
186.139
190.329
194.321
198.122
201.711
205.097
208.284
211.275
214.048
216.573
218.832
220.82
222.531
223.959
225.098
225.944
226.494
226.71
226.684
226.359
225.653
224.655
223.355
221.755
219.864
217.688
215.232
212.501
209.529
206.352
202.968
199.379
195.595
191.613
187.382
182.918
178.279
173.477
168.481
163.536
158.447
153.923
151.354
163.776
182.164
173.396
161.269
150.841
153.562
159.479
165.151
170.597
175.822
180.783
185.517
189.992
194.223
198.213
201.964
205.507
208.844
211.977
214.907
217.613
220.075
222.27
224.199
225.858
227.241
228.346
229.166
229.697
229.932
229.894
229.551
228.883
227.916
226.656
225.107
223.273
221.159
218.766
216.099
213.197
210.082
206.753
203.208
199.437
195.436
191.207
186.717
181.945
176.92
171.651
166.082
160.332
154.218
151.196
161.496
174.904
166.902
160.446