/*--------------------------------*- C++ -*----------------------------------*\
| =========                 |                                                 |
| \\      /  F ield         | OpenFOAM: The Open Source CFD Toolbox           |
|  \\    /   O peration     | Version:  2212                                  |
|   \\  /    A nd           | Website:  www.openfoam.com                      |
|    \\/     M anipulation  |                                                 |
\*---------------------------------------------------------------------------*/
FoamFile
{
    version     2.0;
    format      ascii;
    arch        "LSB;label=32;scalar=64";
    class       surfaceScalarField;
    location    "9.6e-05";
    object      phi;
}
// * * * * * * * * * * * * * * * * * * * * * * * * * * * * * * * * * * * * * //

dimensions      [1 0 -1 0 0 0 0];

oriented        oriented;

internalField   nonuniform List<scalar> 
115921
(
-1.68544e-07
-2.11685e-09
-1.54616e-07
-6.92243e-09
-1.4768e-07
-6.11393e-10
-1.42781e-07
7.74616e-10
-1.40044e-07
3.26907e-09
-1.38923e-07
5.09463e-09
-1.39504e-07
7.09705e-09
-1.41096e-07
7.69979e-09
-1.42516e-07
7.45958e-09
-1.43675e-07
7.0944e-09
-1.44794e-07
7.42595e-09
-1.45483e-07
7.72291e-09
-1.45805e-07
7.13254e-09
-1.45774e-07
6.51711e-09
-1.45628e-07
6.53732e-09
-1.45324e-07
6.83513e-09
-1.45038e-07
7.07543e-09
-1.44843e-07
6.52421e-09
-1.44802e-07
5.85925e-09
-1.44812e-07
5.6199e-09
-1.4487e-07
6.0961e-09
-1.44887e-07
6.82739e-09
-1.44796e-07
7.45041e-09
-1.44424e-07
7.40825e-09
-1.43914e-07
7.20296e-09
-1.43232e-07
7.14829e-09
-1.42564e-07
6.57065e-09
-1.41869e-07
6.27626e-09
-1.41167e-07
6.58882e-09
-1.40317e-07
6.92506e-09
-1.39405e-07
7.35336e-09
-1.38409e-07
7.29448e-09
-1.37476e-07
6.68478e-09
-1.3656e-07
6.13963e-09
-1.35671e-07
6.13551e-09
-1.34763e-07
6.28346e-09
-1.33931e-07
6.1142e-09
-1.33105e-07
6.47952e-09
-1.32355e-07
6.70928e-09
-1.31617e-07
6.69623e-09
-1.30904e-07
6.81613e-09
-1.30126e-07
6.88905e-09
-1.29293e-07
7.02529e-09
-1.28337e-07
6.97493e-09
-1.27276e-07
7.03301e-09
-1.26096e-07
7.13864e-09
-1.24839e-07
7.01394e-09
-1.23492e-07
6.95575e-09
-1.22124e-07
6.78343e-09
-1.20808e-07
6.28208e-09
-1.19528e-07
6.03179e-09
-1.18281e-07
5.89011e-09
-1.17058e-07
5.69409e-09
-1.15833e-07
5.65074e-09
-1.14602e-07
5.56157e-09
-1.13373e-07
5.45454e-09
-1.1212e-07
5.52224e-09
-1.10727e-07
6.09525e-09
-1.09201e-07
6.50102e-09
-1.07626e-07
6.27527e-09
-1.06088e-07
5.82907e-09
-1.04529e-07
5.73849e-09
-1.02901e-07
5.83127e-09
-1.01258e-07
5.75047e-09
-9.9656e-08
5.58349e-09
-9.79689e-08
5.79419e-09
-9.59868e-08
6.60287e-09
-9.3849e-08
6.72814e-09
-9.17848e-08
6.23051e-09
-8.9784e-08
5.92477e-09
-8.77359e-08
5.96702e-09
-8.56174e-08
6.05532e-09
-8.34054e-08
6.14885e-09
-8.11241e-08
6.17116e-09
-7.88399e-08
6.04674e-09
-7.66271e-08
5.77445e-09
-7.43398e-08
5.83946e-09
-7.19632e-08
5.87227e-09
-6.95884e-08
5.66523e-09
-6.72544e-08
5.42123e-09
-6.48205e-08
5.48843e-09
-6.23011e-08
5.5022e-09
-5.98347e-08
5.222e-09
-5.73979e-08
5.07467e-09
-5.49394e-08
5.05575e-09
-5.24239e-08
5.10104e-09
-4.97834e-08
5.22618e-09
-4.70546e-08
5.19926e-09
-4.4403e-08
4.88768e-09
-4.16613e-08
4.97692e-09
-3.86402e-08
5.42804e-09
-3.54219e-08
5.58209e-09
-3.22588e-08
5.34908e-09
-2.90778e-08
5.31655e-09
-2.58827e-08
5.31979e-09
-2.27763e-08
5.11495e-09
-1.97568e-08
4.9111e-09
-1.67887e-08
4.80442e-09
-1.38622e-08
4.71845e-09
-1.09041e-08
4.7529e-09
-7.91222e-09
4.78304e-09
-4.87664e-09
4.85743e-09
-1.48701e-09
5.41538e-09
2.21538e-09
5.77647e-09
5.95462e-09
5.72906e-09
9.8789e-09
5.73423e-09
1.37036e-08
5.69737e-09
1.74701e-08
5.29874e-09
2.12232e-08
5.39272e-09
2.50677e-08
5.39868e-09
2.87985e-08
5.51298e-09
3.24516e-08
5.32248e-09
3.57248e-08
5.22642e-09
3.88844e-08
4.95805e-09
4.18182e-08
5.05892e-09
4.47939e-08
5.17363e-09
4.76609e-08
5.61346e-09
5.05662e-08
6.20907e-09
5.33234e-08
6.5847e-09
5.57178e-08
6.77093e-09
5.78921e-08
6.45903e-09
5.97159e-08
6.09911e-09
6.1315e-08
6.06799e-09
6.28918e-08
6.38e-09
6.46349e-08
7.17021e-09
6.58506e-08
7.78112e-09
6.6323e-08
7.87692e-09
6.63294e-08
8.37564e-09
6.63559e-08
8.75543e-09
6.59502e-08
8.9995e-09
6.4987e-08
8.87428e-09
6.33466e-08
9.37209e-09
6.07375e-08
1.02123e-08
5.67827e-08
1.1528e-08
5.2647e-08
1.18497e-08
4.68292e-08
1.35004e-08
4.3892e-08
1.17981e-08
3.08013e-08
2.08122e-08
3.56891e-08
2.87554e-09
-5.44873e-09
5.18524e-08
2.00777e-08
-2.19973e-08
-3.62875e-08
6.86237e-08
-5.26517e-08
2.23232e-08
-2.18324e-07
1.5164e-10
-2.13214e-07
-5.13866e-09
-2.10556e-07
3.50773e-09
-2.08807e-07
5.10055e-09
-2.09042e-07
9.91694e-09
-2.10129e-07
1.28232e-08
-2.12568e-07
1.61198e-08
-2.14122e-07
1.57865e-08
-2.15091e-07
1.47336e-08
-2.15695e-07
1.39251e-08
-2.16161e-07
1.47013e-08
-2.16355e-07
1.53143e-08
-2.16474e-07
1.44561e-08
-2.16419e-07
1.3428e-08
-2.16259e-07
1.34574e-08
-2.16112e-07
1.43051e-08
-2.15891e-07
1.46295e-08
-2.15802e-07
1.35434e-08
-2.15655e-07
1.1931e-08
-2.1555e-07
1.14173e-08
-2.15354e-07
1.22297e-08
-2.1514e-07
1.37628e-08
-2.14679e-07
1.494e-08
-2.14196e-07
1.51059e-08
-2.13517e-07
1.46477e-08
-2.12874e-07
1.47262e-08
-2.12153e-07
1.34207e-08
-2.11446e-07
1.28707e-08
-2.10627e-07
1.34447e-08
-2.09752e-07
1.42374e-08
-2.08833e-07
1.50849e-08
-2.07846e-07
1.50134e-08
-2.06871e-07
1.37024e-08
-2.05907e-07
1.25791e-08
-2.04893e-07
1.25052e-08
-2.03833e-07
1.27837e-08
-2.02774e-07
1.23542e-08
-2.0166e-07
1.3033e-08
-2.00529e-07
1.33993e-08
-1.99391e-07
1.33285e-08
-1.98211e-07
1.34943e-08
-1.96961e-07
1.36295e-08
-1.95605e-07
1.38621e-08
-1.94113e-07
1.377e-08
-1.92522e-07
1.38797e-08
-1.90816e-07
1.41057e-08
-1.89043e-07
1.3864e-08
-1.87231e-07
1.37749e-08
-1.85395e-07
1.34129e-08
-1.83631e-07
1.24173e-08
-1.81897e-07
1.18982e-08
-1.80179e-07
1.16035e-08
-1.78472e-07
1.11996e-08
-1.76772e-07
1.11158e-08
-1.75054e-07
1.0917e-08
-1.73325e-07
1.06916e-08
-1.71522e-07
1.07899e-08
-1.69545e-07
1.19224e-08
-1.67375e-07
1.27006e-08
-1.65184e-07
1.22741e-08
-1.6302e-07
1.13541e-08
-1.60824e-07
1.11589e-08
-1.5852e-07
1.13074e-08
-1.5622e-07
1.11421e-08
-1.53933e-07
1.07596e-08
-1.51514e-07
1.1141e-08
-1.48662e-07
1.26472e-08
-1.45653e-07
1.28882e-08
-1.42733e-07
1.18839e-08
-1.39895e-07
1.12749e-08
-1.36981e-07
1.13137e-08
-1.33989e-07
1.14631e-08
-1.30849e-07
1.15897e-08
-1.27631e-07
1.16172e-08
-1.24393e-07
1.13387e-08
-1.21267e-07
1.08263e-08
-1.18004e-07
1.09236e-08
-1.14634e-07
1.09976e-08
-1.1124e-07
1.0575e-08
-1.07901e-07
1.00985e-08
-1.04381e-07
1.01628e-08
-1.00755e-07
1.0167e-08
-9.7189e-08
9.589e-09
-9.36648e-08
9.28737e-09
-9.00982e-08
9.21524e-09
-8.64552e-08
9.2818e-09
-8.26404e-08
9.49303e-09
-7.87144e-08
9.44257e-09
-7.49023e-08
8.86086e-09
-7.09442e-08
8.97519e-09
-6.65933e-08
9.74699e-09
-6.20208e-08
1.00028e-08
-5.7542e-08
9.55354e-09
-5.2956e-08
9.42848e-09
-4.83414e-08
9.39549e-09
-4.38615e-08
9.01255e-09
-3.95011e-08
8.62415e-09
-3.51813e-08
8.38988e-09
-3.08995e-08
8.21391e-09
-2.65292e-08
8.23567e-09
-2.20674e-08
8.23984e-09
-1.74925e-08
8.30844e-09
-1.23241e-08
9.18243e-09
-6.72284e-09
9.74218e-09
-1.04323e-09
9.65933e-09
4.88011e-09
9.64876e-09
1.05716e-08
9.70854e-09
1.5989e-08
9.15571e-09
2.14348e-08
9.30482e-09
2.6938e-08
9.34454e-09
3.24244e-08
9.45533e-09
3.77338e-08
9.158e-09
4.26949e-08
8.90849e-09
4.74466e-08
8.45374e-09
5.20094e-08
8.60681e-09
5.65803e-08
8.86318e-09
6.13126e-08
9.48199e-09
6.61847e-08
1.05762e-08
7.09714e-08
1.12748e-08
7.5655e-08
1.13829e-08
8.01626e-08
1.07527e-08
8.38705e-08
1.04791e-08
8.7141e-08
1.06619e-08
9.05916e-08
1.10767e-08
9.43441e-08
1.24003e-08
9.77577e-08
1.3632e-08
1.00258e-07
1.41452e-08
1.0227e-07
1.49484e-08
1.04501e-07
1.55907e-08
1.06448e-07
1.60098e-08
1.07483e-07
1.60383e-08
1.07647e-07
1.72631e-08
1.06865e-07
1.89042e-08
1.05162e-07
2.10391e-08
1.0329e-07
2.19213e-08
1.01797e-07
2.35154e-08
1.00417e-07
2.21401e-08
1.06131e-07
2.40858e-08
1.04641e-07
1.27435e-08
1.38784e-07
2.62038e-08
1.30356e-07
-4.44392e-09
1.85925e-07
2.29501e-08
-4.35079e-08
1.84645e-07
-2.54942e-07
8.72299e-09
-2.53516e-07
1.10878e-09
-2.5207e-07
9.45156e-09
-2.51577e-07
1.12575e-08
-2.51995e-07
1.73553e-08
-2.54871e-07
2.24456e-08
-2.56501e-07
2.46193e-08
-2.56961e-07
2.29422e-08
-2.57254e-07
2.16897e-08
-2.57291e-07
2.05683e-08
-2.57229e-07
2.18694e-08
-2.57147e-07
2.30613e-08
-2.56811e-07
2.17165e-08
-2.56653e-07
2.06718e-08
-2.56217e-07
2.05086e-08
-2.56028e-07
2.21152e-08
-2.55561e-07
2.23259e-08
-2.55341e-07
2.07304e-08
-2.54922e-07
1.79995e-08
-2.5462e-07
1.72571e-08
-2.54115e-07
1.83319e-08
-2.53635e-07
2.07453e-08
-2.52852e-07
2.2474e-08
-2.52108e-07
2.2938e-08
-2.51165e-07
2.22116e-08
-2.503e-07
2.24548e-08
-2.49347e-07
2.03603e-08
-2.48448e-07
1.96033e-08
-2.47376e-07
2.03911e-08
-2.46334e-07
2.17255e-08
-2.45097e-07
2.28993e-08
-2.43869e-07
2.28734e-08
-2.42601e-07
2.07696e-08
-2.41382e-07
1.90991e-08
-2.40053e-07
1.88772e-08
-2.38699e-07
1.93056e-08
-2.37301e-07
1.85385e-08
-2.35853e-07
1.95285e-08
-2.3435e-07
1.99644e-08
-2.32848e-07
1.98346e-08
-2.31269e-07
2.00067e-08
-2.29626e-07
2.02213e-08
-2.27835e-07
2.0529e-08
-2.25947e-07
2.04361e-08
-2.23937e-07
2.05879e-08
-2.21821e-07
2.09568e-08
-2.19646e-07
2.06054e-08
-2.17424e-07
2.04827e-08
-2.15164e-07
1.99233e-08
-2.13008e-07
1.84584e-08
-2.10884e-07
1.76668e-08
-2.08776e-07
1.72253e-08
-2.06698e-07
1.66251e-08
-2.04619e-07
1.64867e-08
-2.02519e-07
1.61794e-08
-2.00405e-07
1.58343e-08
-1.98203e-07
1.59555e-08
-1.95797e-07
1.76359e-08
-1.93174e-07
1.87734e-08
-1.90553e-07
1.8159e-08
-1.8797e-07
1.67594e-08
-1.85355e-07
1.64524e-08
-1.82634e-07
1.66438e-08
-1.7991e-07
1.63688e-08
-1.77199e-07
1.57498e-08
-1.74349e-07
1.6285e-08
-1.71025e-07
1.84548e-08
-1.67531e-07
1.87994e-08
-1.64153e-07
1.7296e-08
-1.60879e-07
1.63889e-08
-1.57525e-07
1.64127e-08
-1.54071e-07
1.66093e-08
-1.50452e-07
1.67704e-08
-1.46728e-07
1.68013e-08
-1.4299e-07
1.63901e-08
-1.39374e-07
1.56454e-08
-1.35609e-07
1.57775e-08
-1.31724e-07
1.58809e-08
-1.27835e-07
1.52492e-08
-1.24012e-07
1.45547e-08
-1.20017e-07
1.46411e-08
-1.15905e-07
1.4635e-08
-1.11852e-07
1.37582e-08
-1.07847e-07
1.33049e-08
-1.03777e-07
1.31583e-08
-9.9626e-08
1.32489e-08
-9.52689e-08
1.35284e-08
-9.07871e-08
1.34376e-08
-8.64469e-08
1.25825e-08
-8.19783e-08
1.27183e-08
-7.71067e-08
1.37988e-08
-7.20127e-08
1.41496e-08
-6.70396e-08
1.34855e-08
-6.19814e-08
1.32572e-08
-5.69069e-08
1.31827e-08
-5.19701e-08
1.26103e-08
-4.71461e-08
1.20246e-08
-4.23627e-08
1.16672e-08
-3.76083e-08
1.14053e-08
-3.27384e-08
1.14115e-08
-2.77731e-08
1.14017e-08
-2.26942e-08
1.14862e-08
-1.69681e-08
1.26704e-08
-1.08033e-08
1.34531e-08
-4.54865e-09
1.33809e-08
1.85875e-09
1.34436e-08
8.08029e-09
1.33944e-08
1.40017e-08
1.26926e-08
2.00161e-08
1.28283e-08
2.61208e-08
1.28782e-08
3.21983e-08
1.29752e-08
3.80386e-08
1.26002e-08
4.3498e-08
1.21895e-08
4.86721e-08
1.15975e-08
5.37296e-08
1.17151e-08
5.86781e-08
1.22212e-08
6.4042e-08
1.27587e-08
6.94281e-08
1.44513e-08
7.45783e-08
1.56068e-08
8.00571e-08
1.51861e-08
8.51647e-08
1.44394e-08
8.92356e-08
1.44868e-08
9.27512e-08
1.49847e-08
9.67815e-08
1.5175e-08
1.01371e-07
1.68413e-08
1.05504e-07
1.88437e-08
1.08661e-07
1.96097e-08
1.11674e-07
2.06452e-08
1.1507e-07
2.14814e-08
1.18076e-07
2.21131e-08
1.20063e-07
2.24081e-08
1.21433e-07
2.40904e-08
1.21712e-07
2.66269e-08
1.21153e-07
2.95204e-08
1.20835e-07
3.06222e-08
1.21368e-07
3.20034e-08
1.20734e-07
3.19813e-08
1.22026e-07
3.19418e-08
1.16952e-07
2.65996e-08
1.24758e-07
2.75576e-08
1.15675e-07
1.35539e-08
1.2965e-07
1.82156e-08
-8.99549e-09
1.03042e-07
-2.89671e-07
1.99287e-08
-2.89199e-07
9.2073e-09
-2.89691e-07
1.81824e-08
-2.90407e-07
1.94019e-08
-2.91438e-07
2.65386e-08
-2.93744e-07
3.18743e-08
-2.93312e-07
3.11463e-08
-2.9286e-07
2.98898e-08
-2.92793e-07
2.86128e-08
-2.92488e-07
2.7339e-08
-2.9189e-07
2.89104e-08
-2.91482e-07
3.10042e-08
-2.90787e-07
2.91805e-08
-2.90386e-07
2.81221e-08
-2.89747e-07
2.78759e-08
-2.89258e-07
3.01002e-08
-2.8852e-07
3.02051e-08
-2.87924e-07
2.79364e-08
-2.87288e-07
2.41967e-08
-2.86664e-07
2.31001e-08
-2.85861e-07
2.4508e-08
-2.84933e-07
2.7713e-08
-2.83828e-07
3.01413e-08
-2.82664e-07
3.08174e-08
-2.81423e-07
2.99063e-08
-2.8018e-07
3.0225e-08
-2.78944e-07
2.74089e-08
-2.77721e-07
2.64046e-08
-2.7633e-07
2.74442e-08
-2.74917e-07
2.92841e-08
-2.73308e-07
3.0783e-08
-2.71665e-07
3.07604e-08
-2.70052e-07
2.78771e-08
-2.68473e-07
2.56265e-08
-2.66819e-07
2.52704e-08
-2.65097e-07
2.58131e-08
-2.63348e-07
2.47122e-08
-2.61524e-07
2.5985e-08
-2.59638e-07
2.64771e-08
-2.57736e-07
2.62629e-08
-2.55773e-07
2.64605e-08
-2.53715e-07
2.67299e-08
-2.51536e-07
2.71458e-08
-2.49244e-07
2.70442e-08
-2.46841e-07
2.72592e-08
-2.4432e-07
2.77615e-08
-2.41769e-07
2.73046e-08
-2.39141e-07
2.71418e-08
-2.36497e-07
2.64179e-08
-2.33968e-07
2.44813e-08
-2.31475e-07
2.34259e-08
-2.28999e-07
2.284e-08
-2.26554e-07
2.20418e-08
-2.24098e-07
2.18426e-08
-2.21628e-07
2.14349e-08
-2.19148e-07
2.09784e-08
-2.16589e-07
2.11423e-08
-2.13769e-07
2.33451e-08
-2.10716e-07
2.48343e-08
-2.07657e-07
2.40059e-08
-2.04682e-07
2.2149e-08
-2.01689e-07
2.17196e-08
-1.98593e-07
2.19339e-08
-1.9549e-07
2.1521e-08
-1.92442e-07
2.06705e-08
-1.89249e-07
2.13338e-08
-1.85561e-07
2.41564e-08
-1.81678e-07
2.45824e-08
-1.77947e-07
2.25963e-08
-1.74334e-07
2.13859e-08
-1.7064e-07
2.13942e-08
-1.66821e-07
2.1629e-08
-1.62837e-07
2.18482e-08
-1.58714e-07
2.18835e-08
-1.54567e-07
2.13541e-08
-1.5054e-07
2.03758e-08
-1.46392e-07
2.05208e-08
-1.42119e-07
2.06716e-08
-1.3783e-07
1.98598e-08
-1.33602e-07
1.89613e-08
-1.29193e-07
1.90611e-08
-1.24661e-07
1.905e-08
-1.20224e-07
1.79024e-08
-1.1584e-07
1.72967e-08
-1.11387e-07
1.70884e-08
-1.06826e-07
1.72028e-08
-1.02024e-07
1.75435e-08
-9.71181e-08
1.74178e-08
-9.24178e-08
1.6289e-08
-8.76368e-08
1.64464e-08
-8.24301e-08
1.77782e-08
-7.69967e-08
1.81681e-08
-7.16907e-08
1.72761e-08
-6.63258e-08
1.69935e-08
-6.09402e-08
1.68848e-08
-5.5685e-08
1.61028e-08
-5.05554e-08
1.53227e-08
-4.54951e-08
1.48684e-08
-4.0474e-08
1.45308e-08
-3.53499e-08
1.45516e-08
-3.01283e-08
1.45748e-08
-2.47779e-08
1.46771e-08
-1.87619e-08
1.6206e-08
-1.23085e-08
1.72444e-08
-5.78895e-09
1.71873e-08
9.03321e-10
1.73339e-08
7.35929e-09
1.70325e-08
1.35338e-08
1.61728e-08
1.98207e-08
1.62541e-08
2.61737e-08
1.63121e-08
3.24693e-08
1.63863e-08
3.85301e-08
1.59039e-08
4.41659e-08
1.53288e-08
4.9486e-08
1.46225e-08
5.47089e-08
1.4685e-08
5.98272e-08
1.54421e-08
6.53665e-08
1.59104e-08
7.09712e-08
1.81406e-08
7.62849e-08
1.98304e-08
8.2059e-08
1.87568e-08
8.72462e-08
1.80617e-08
9.14184e-08
1.84275e-08
9.51546e-08
1.91372e-08
9.93304e-08
1.91764e-08
1.0397e-07
2.12506e-08
1.08213e-07
2.38792e-08
1.11602e-07
2.50616e-08
1.14883e-07
2.61929e-08
1.18651e-07
2.71534e-08
1.21772e-07
2.81767e-08
1.24063e-07
2.86232e-08
1.25693e-07
3.07833e-08
1.26331e-07
3.40784e-08
1.26224e-07
3.74198e-08
1.26196e-07
3.90089e-08
1.27392e-07
3.99474e-08
1.27954e-07
4.09352e-08
1.2836e-07
4.0791e-08
1.26932e-07
3.70945e-08
1.26592e-07
3.67807e-08
1.18754e-07
3.0827e-08
1.17992e-07
2.91708e-08
2.60305e-08
9.42039e-08
-3.12818e-07
3.31759e-08
-3.12748e-07
1.82274e-08
-3.13329e-07
2.73768e-08
-3.13543e-07
2.75931e-08
-3.18409e-07
3.79227e-08
-3.16282e-07
3.6876e-08
-3.15921e-07
3.8279e-08
-3.15165e-07
3.67961e-08
-3.14528e-07
3.52122e-08
-3.13942e-07
3.40225e-08
-3.13086e-07
3.60051e-08
-3.12366e-07
3.89051e-08
-3.11565e-07
3.68436e-08
-3.10857e-07
3.55342e-08
-3.10034e-07
3.53118e-08
-3.09233e-07
3.80224e-08
-3.08274e-07
3.80757e-08
-3.07423e-07
3.50456e-08
-3.0659e-07
3.033e-08
-3.05727e-07
2.88526e-08
-3.04715e-07
3.06511e-08
-3.03505e-07
3.46057e-08
-3.02166e-07
3.77726e-08
-3.0072e-07
3.85962e-08
-2.99254e-07
3.75406e-08
-2.97741e-07
3.78765e-08
-2.9629e-07
3.43922e-08
-2.94811e-07
3.31128e-08
-2.93198e-07
3.44489e-08
-2.91478e-07
3.67142e-08
-2.89593e-07
3.85713e-08
-2.87627e-07
3.85125e-08
-2.85765e-07
3.49088e-08
-2.83921e-07
3.20506e-08
-2.82041e-07
3.15995e-08
-2.8006e-07
3.22183e-08
-2.7809e-07
3.08129e-08
-2.76024e-07
3.23483e-08
-2.73898e-07
3.28959e-08
-2.71757e-07
3.2599e-08
-2.69556e-07
3.28204e-08
-2.67248e-07
3.3135e-08
-2.64838e-07
3.36763e-08
-2.62302e-07
3.35607e-08
-2.59663e-07
3.38573e-08
-2.56889e-07
3.44773e-08
-2.54088e-07
3.39365e-08
-2.51202e-07
3.37288e-08
-2.48317e-07
3.28591e-08
-2.45551e-07
3.04561e-08
-2.42833e-07
2.91544e-08
-2.40127e-07
2.84211e-08
-2.37454e-07
2.74291e-08
-2.34767e-07
2.71669e-08
-2.32068e-07
2.66576e-08
-2.29347e-07
2.60826e-08
-2.26546e-07
2.62846e-08
-2.23444e-07
2.89789e-08
-2.20103e-07
3.08074e-08
-2.16755e-07
2.97503e-08
-2.13533e-07
2.74634e-08
-2.10302e-07
2.69049e-08
-2.0698e-07
2.71407e-08
-2.03655e-07
2.65751e-08
-2.00411e-07
2.55031e-08
-1.97016e-07
2.62769e-08
-1.93103e-07
2.97286e-08
-1.88976e-07
3.02264e-08
-1.85038e-07
2.77961e-08
-1.81224e-07
2.62717e-08
-1.77334e-07
2.62686e-08
-1.73311e-07
2.65537e-08
-1.69124e-07
2.68203e-08
-1.6479e-07
2.68636e-08
-1.60439e-07
2.62464e-08
-1.56161e-07
2.50349e-08
-1.51767e-07
2.52214e-08
-1.47219e-07
2.5367e-08
-1.42693e-07
2.44121e-08
-1.38222e-07
2.33221e-08
-1.33593e-07
2.34772e-08
-1.28825e-07
2.3482e-08
-1.24178e-07
2.21266e-08
-1.19563e-07
2.13891e-08
-1.1486e-07
2.11346e-08
-1.10022e-07
2.12366e-08
-1.04972e-07
2.16217e-08
-9.98919e-08
2.14554e-08
-9.50661e-08
2.00433e-08
-9.01478e-08
2.01962e-08
-8.47322e-08
2.17254e-08
-7.90938e-08
2.21636e-08
-7.36232e-08
2.10634e-08
-6.81232e-08
2.07433e-08
-6.25618e-08
2.05523e-08
-5.71515e-08
1.95773e-08
-5.19077e-08
1.86404e-08
-4.67352e-08
1.80917e-08
-4.15886e-08
1.76674e-08
-3.63529e-08
1.77174e-08
-3.10232e-08
1.77598e-08
-2.5571e-08
1.7872e-08
-1.94521e-08
1.97329e-08
-1.28563e-08
2.09931e-08
-6.17008e-09
2.0963e-08
7.03714e-10
2.11387e-08
7.3188e-09
2.06886e-08
1.36672e-08
1.96503e-08
2.0134e-08
1.9685e-08
2.66575e-08
1.97753e-08
3.31192e-08
1.98153e-08
3.9363e-08
1.91688e-08
4.51264e-08
1.84509e-08
5.05726e-08
1.761e-08
5.59034e-08
1.76341e-08
6.1175e-08
1.86003e-08
6.67823e-08
1.90938e-08
7.25356e-08
2.17905e-08
7.81145e-08
2.39406e-08
8.38675e-08
2.24681e-08
8.9004e-08
2.18248e-08
9.33729e-08
2.22551e-08
9.73906e-08
2.30925e-08
1.01524e-07
2.33205e-08
1.06067e-07
2.58299e-08
1.10504e-07
2.88219e-08
1.14081e-07
3.0487e-08
1.17321e-07
3.17525e-08
1.21245e-07
3.28795e-08
1.24551e-07
3.42654e-08
1.2684e-07
3.48445e-08
1.28459e-07
3.75144e-08
1.29267e-07
4.14435e-08
1.29316e-07
4.51835e-08
1.29379e-07
4.73145e-08
1.30476e-07
4.81664e-08
1.31191e-07
4.999e-08
1.30983e-07
5.06047e-08
1.28977e-07
4.82393e-08
1.25569e-07
4.91072e-08
1.16529e-07
4.87294e-08
1.09956e-07
4.53373e-08
5.10812e-08
9.54926e-08
-3.24335e-07
4.78291e-08
-3.24773e-07
2.79823e-08
-3.23997e-07
3.56125e-08
-3.22722e-07
3.45848e-08
-3.27316e-07
4.81093e-08
-3.25591e-07
4.22327e-08
-3.24797e-07
4.49136e-08
-3.23897e-07
4.35442e-08
-3.22877e-07
4.15728e-08
-3.22143e-07
4.05715e-08
-3.21148e-07
4.30464e-08
-3.20275e-07
4.66863e-08
-3.19378e-07
4.44235e-08
-3.1848e-07
4.2809e-08
-3.17554e-07
4.26508e-08
-3.16594e-07
4.57809e-08
-3.15556e-07
4.58053e-08
-3.14596e-07
4.19734e-08
-3.13672e-07
3.63138e-08
-3.1271e-07
3.44879e-08
-3.11609e-07
3.67018e-08
-3.10308e-07
4.13857e-08
-3.08859e-07
4.52525e-08
-3.07298e-07
4.61986e-08
-3.0573e-07
4.50132e-08
-3.04091e-07
4.53425e-08
-3.02532e-07
4.12286e-08
-3.0093e-07
3.9674e-08
-2.9922e-07
4.13313e-08
-2.97353e-07
4.39722e-08
-2.95333e-07
4.61968e-08
-2.93223e-07
4.60858e-08
-2.91235e-07
4.17817e-08
-2.89279e-07
3.83385e-08
-2.8731e-07
3.7812e-08
-2.85225e-07
3.84914e-08
-2.83172e-07
3.68139e-08
-2.81016e-07
3.85975e-08
-2.78797e-07
3.91979e-08
-2.76581e-07
3.88336e-08
-2.74294e-07
3.90628e-08
-2.71925e-07
3.94441e-08
-2.6944e-07
4.00996e-08
-2.6684e-07
3.99877e-08
-2.64126e-07
4.03619e-08
-2.61277e-07
4.11067e-08
-2.58389e-07
4.04784e-08
-2.55417e-07
4.02353e-08
-2.52446e-07
3.92203e-08
-2.49594e-07
3.63548e-08
-2.46792e-07
3.48135e-08
-2.43995e-07
3.3933e-08
-2.41232e-07
3.27538e-08
-2.38451e-07
3.24292e-08
-2.35662e-07
3.18294e-08
-2.32853e-07
3.11422e-08
-2.29964e-07
3.13849e-08
-2.26762e-07
3.45442e-08
-2.23309e-07
3.66891e-08
-2.19861e-07
3.54153e-08
-2.16562e-07
3.27206e-08
-2.13257e-07
3.20265e-08
-2.09855e-07
3.22734e-08
-2.06463e-07
3.15574e-08
-2.03154e-07
3.02547e-08
-1.99696e-07
3.11328e-08
-1.95716e-07
3.51958e-08
-1.91525e-07
3.57702e-08
-1.87538e-07
3.29152e-08
-1.83671e-07
3.10814e-08
-1.79746e-07
3.10485e-08
-1.75699e-07
3.13269e-08
-1.71486e-07
3.16732e-08
-1.67117e-07
3.17468e-08
-1.62708e-07
3.10595e-08
-1.58353e-07
2.96284e-08
-1.53834e-07
2.99142e-08
-1.49156e-07
3.00967e-08
-1.44532e-07
2.89838e-08
-1.39972e-07
2.76963e-08
-1.35244e-07
2.7941e-08
-1.30354e-07
2.79972e-08
-1.25581e-07
2.64567e-08
-1.20839e-07
2.55818e-08
-1.16028e-07
2.52642e-08
-1.11094e-07
2.53162e-08
-1.05973e-07
2.57396e-08
-1.00824e-07
2.55331e-08
-9.59257e-08
2.38248e-08
-9.09263e-08
2.39507e-08
-8.54314e-08
2.56717e-08
-7.9721e-08
2.61748e-08
-7.41652e-08
2.48618e-08
-6.85835e-08
2.45044e-08
-6.29485e-08
2.42123e-08
-5.74844e-08
2.30432e-08
-5.21885e-08
2.19371e-08
-4.69641e-08
2.12894e-08
-4.17674e-08
2.07848e-08
-3.64823e-08
2.08736e-08
-3.11047e-08
2.09346e-08
-2.56159e-08
2.10385e-08
-1.9464e-08
2.3207e-08
-1.28317e-08
2.46633e-08
-6.0985e-09
2.46337e-08
8.37622e-10
2.48433e-08
7.51521e-09
2.43176e-08
1.39488e-08
2.31097e-08
2.04917e-08
2.31182e-08
2.70983e-08
2.32467e-08
3.36696e-08
2.32377e-08
4.00085e-08
2.24638e-08
4.58797e-08
2.1612e-08
5.14073e-08
2.06757e-08
5.68419e-08
2.06367e-08
6.21835e-08
2.18406e-08
6.78992e-08
2.23282e-08
7.36818e-08
2.55594e-08
7.94883e-08
2.79804e-08
8.52311e-08
2.63199e-08
9.0328e-08
2.57631e-08
9.48244e-08
2.60739e-08
9.89949e-08
2.69981e-08
1.03063e-07
2.76487e-08
1.07493e-07
3.06149e-08
1.11957e-07
3.38226e-08
1.15975e-07
3.57569e-08
1.19135e-07
3.73979e-08
1.23024e-07
3.88349e-08
1.26242e-07
4.05628e-08
1.28689e-07
4.10141e-08
1.30493e-07
4.41473e-08
1.31282e-07
4.88416e-08
1.31154e-07
5.31063e-08
1.31175e-07
5.56768e-08
1.32027e-07
5.68729e-08
1.32582e-07
5.96387e-08
1.31784e-07
6.12693e-08
1.29235e-07
6.01409e-08
1.25349e-07
6.19891e-08
1.18157e-07
6.47847e-08
1.08526e-07
6.4082e-08
6.91341e-08
9.98071e-08
-3.45006e-07
6.43815e-08
-3.4715e-07
3.94281e-08
-3.46437e-07
4.4278e-08
-3.4461e-07
4.13407e-08
-3.42652e-07
5.18334e-08
-3.42397e-07
4.90477e-08
-3.41444e-07
5.16757e-08
-3.40369e-07
5.0371e-08
-3.39216e-07
4.81571e-08
-3.38236e-07
4.71794e-08
-3.37137e-07
5.0248e-08
-3.36094e-07
5.46223e-08
-3.35048e-07
5.21362e-08
-3.33954e-07
5.0157e-08
-3.32873e-07
5.00645e-08
-3.31657e-07
5.35289e-08
-3.30433e-07
5.35595e-08
-3.29302e-07
4.88981e-08
-3.28212e-07
4.23059e-08
-3.27091e-07
4.01437e-08
-3.25783e-07
4.27433e-08
-3.24302e-07
4.82022e-08
-3.22641e-07
5.27364e-08
-3.20891e-07
5.38181e-08
-3.19119e-07
5.24903e-08
-3.17294e-07
5.28493e-08
-3.15555e-07
4.81176e-08
-3.13771e-07
4.62876e-08
-3.11875e-07
4.82717e-08
-3.09795e-07
5.12715e-08
-3.07555e-07
5.38766e-08
-3.0523e-07
5.36918e-08
-3.0304e-07
4.86823e-08
-3.00903e-07
4.46692e-08
-2.98754e-07
4.40609e-08
-2.96492e-07
4.48139e-08
-2.94278e-07
4.28707e-08
-2.91947e-07
4.48918e-08
-2.89554e-07
4.55389e-08
-2.87166e-07
4.5099e-08
-2.84713e-07
4.53476e-08
-2.82183e-07
4.57938e-08
-2.79526e-07
4.65522e-08
-2.76757e-07
4.6465e-08
-2.73867e-07
4.69167e-08
-2.70836e-07
4.77875e-08
-2.67758e-07
4.70707e-08
-2.64605e-07
4.68075e-08
-2.61448e-07
4.5645e-08
-2.58419e-07
4.23172e-08
-2.55439e-07
4.05309e-08
-2.5247e-07
3.95112e-08
-2.49535e-07
3.81434e-08
-2.4658e-07
3.77481e-08
-2.43611e-07
3.70493e-08
-2.40629e-07
3.62554e-08
-2.37562e-07
3.65313e-08
-2.34171e-07
4.01449e-08
-2.30526e-07
4.26022e-08
-2.26907e-07
4.11251e-08
-2.2344e-07
3.80141e-08
-2.19967e-07
3.71747e-08
-2.16404e-07
3.74339e-08
-2.1286e-07
3.6569e-08
-2.09409e-07
3.50285e-08
-2.05801e-07
3.59978e-08
-2.01652e-07
4.06654e-08
-1.97296e-07
4.13245e-08
-1.93151e-07
3.80456e-08
-1.89137e-07
3.59071e-08
-1.85055e-07
3.58507e-08
-1.80842e-07
3.61454e-08
-1.7648e-07
3.65672e-08
-1.7197e-07
3.66545e-08
-1.67453e-07
3.58423e-08
-1.62977e-07
3.42273e-08
-1.58275e-07
3.46709e-08
-1.53399e-07
3.49085e-08
-1.48566e-07
3.36932e-08
-1.43793e-07
3.22659e-08
-1.38844e-07
3.26025e-08
-1.33747e-07
3.26752e-08
-1.28796e-07
3.09098e-08
-1.23882e-07
2.98671e-08
-1.18912e-07
2.94937e-08
-1.13821e-07
2.9511e-08
-1.08538e-07
2.9976e-08
-1.0322e-07
2.97056e-08
-9.81558e-08
2.76876e-08
-9.29904e-08
2.7782e-08
-8.73301e-08
2.97165e-08
-8.14491e-08
3.02841e-08
-7.57241e-08
2.87569e-08
-6.99686e-08
2.83681e-08
-6.41611e-08
2.79608e-08
-5.85453e-08
2.65768e-08
-5.31064e-08
2.52693e-08
-4.77522e-08
2.45081e-08
-4.24312e-08
2.39135e-08
-3.70171e-08
2.4036e-08
-3.15069e-08
2.41139e-08
-2.58899e-08
2.41979e-08
-1.95995e-08
2.66532e-08
-1.28236e-08
2.82884e-08
-5.9448e-09
2.82454e-08
1.15439e-09
2.85107e-08
7.96388e-09
2.79253e-08
1.45432e-08
2.65674e-08
2.12292e-08
2.65723e-08
2.79871e-08
2.67595e-08
3.47131e-08
2.67388e-08
4.12274e-08
2.58539e-08
4.7267e-08
2.49001e-08
5.29548e-08
2.38902e-08
5.85499e-08
2.37988e-08
6.40102e-08
2.52907e-08
6.99735e-08
2.56576e-08
7.57271e-08
2.96981e-08
8.19086e-08
3.19592e-08
8.77311e-08
3.04201e-08
9.27411e-08
3.01029e-08
9.72915e-08
3.00577e-08
1.01713e-07
3.08805e-08
1.05962e-07
3.20479e-08
1.10425e-07
3.56953e-08
1.14855e-07
3.93168e-08
1.18977e-07
4.10778e-08
1.22496e-07
4.30311e-08
1.263e-07
4.49458e-08
1.2926e-07
4.72448e-08
1.31672e-07
4.74355e-08
1.33436e-07
5.10021e-08
1.34529e-07
5.60286e-08
1.3446e-07
6.09126e-08
1.34253e-07
6.44965e-08
1.34426e-07
6.66268e-08
1.34279e-07
7.04421e-08
1.32849e-07
7.28546e-08
1.30339e-07
7.22303e-08
1.26273e-07
7.53791e-08
1.19704e-07
8.02323e-08
1.11514e-07
8.06996e-08
8.28072e-08
1.04296e-07
-3.54715e-07
8.00994e-08
-3.56982e-07
5.02551e-08
-3.56861e-07
5.25531e-08
-3.56554e-07
4.84605e-08
-3.52856e-07
5.58973e-08
-3.51554e-07
5.57522e-08
-3.49998e-07
5.80607e-08
-3.488e-07
5.72129e-08
-3.4757e-07
5.47778e-08
-3.46434e-07
5.37303e-08
-3.45223e-07
5.739e-08
-3.43931e-07
6.24279e-08
-3.42733e-07
5.97827e-08
-3.41481e-07
5.74151e-08
-3.40244e-07
5.73886e-08
-3.38828e-07
6.11309e-08
-3.375e-07
6.1228e-08
-3.36212e-07
5.56882e-08
-3.35037e-07
4.82479e-08
-3.33793e-07
4.57312e-08
-3.32376e-07
4.87343e-08
-3.30752e-07
5.49254e-08
-3.28945e-07
6.01125e-08
-3.27056e-07
6.13392e-08
-3.25136e-07
5.98721e-08
-3.23161e-07
6.02659e-08
-3.2127e-07
5.49158e-08
-3.19347e-07
5.28262e-08
-3.17301e-07
5.51288e-08
-3.15046e-07
5.84612e-08
-3.12633e-07
6.14455e-08
-3.10145e-07
6.11766e-08
-3.07804e-07
5.54803e-08
-3.05544e-07
5.09216e-08
-3.03267e-07
5.02276e-08
-3.00882e-07
5.10606e-08
-2.98559e-07
4.88674e-08
-2.96111e-07
5.11208e-08
-2.93619e-07
5.18311e-08
-2.91127e-07
5.1301e-08
-2.88574e-07
5.15697e-08
-2.85953e-07
5.20879e-08
-2.83196e-07
5.29404e-08
-2.8034e-07
5.28976e-08
-2.77345e-07
5.34232e-08
-2.74212e-07
5.44199e-08
-2.71024e-07
5.36042e-08
-2.67762e-07
5.33356e-08
-2.64491e-07
5.20184e-08
-2.61348e-07
4.82393e-08
-2.58263e-07
4.62242e-08
-2.55184e-07
4.50585e-08
-2.52144e-07
4.35059e-08
-2.49089e-07
4.30438e-08
-2.46025e-07
4.22417e-08
-2.42951e-07
4.13401e-08
-2.39794e-07
4.16461e-08
-2.36304e-07
4.5683e-08
-2.32559e-07
4.84324e-08
-2.28846e-07
4.67522e-08
-2.25297e-07
4.32459e-08
-2.21753e-07
4.22729e-08
-2.18122e-07
4.25451e-08
-2.14507e-07
4.15168e-08
-2.10996e-07
3.97459e-08
-2.07329e-07
4.08003e-08
-2.03115e-07
4.60551e-08
-1.98691e-07
4.6796e-08
-1.94484e-07
4.31094e-08
-1.90411e-07
4.06712e-08
-1.86268e-07
4.05893e-08
-1.81988e-07
4.09024e-08
-1.77545e-07
4.14071e-08
-1.72945e-07
4.15203e-08
-1.68339e-07
4.06156e-08
-1.63856e-07
3.87319e-08
-1.59156e-07
3.92842e-08
-1.54165e-07
3.98117e-08
-1.49232e-07
3.84713e-08
-1.44383e-07
3.68376e-08
-1.39374e-07
3.72206e-08
-1.34215e-07
3.7292e-08
-1.29201e-07
3.53093e-08
-1.24229e-07
3.41028e-08
-1.19205e-07
3.36631e-08
-1.14071e-07
3.36664e-08
-1.08736e-07
3.41997e-08
-1.03361e-07
3.38755e-08
-9.82422e-08
3.15506e-08
-9.3021e-08
3.16095e-08
-8.73145e-08
3.37522e-08
-8.13899e-08
3.43865e-08
-7.56188e-08
3.26451e-08
-6.98112e-08
3.22319e-08
-6.39554e-08
3.17133e-08
-5.83015e-08
3.01119e-08
-5.28315e-08
2.85846e-08
-4.7455e-08
2.7691e-08
-4.21261e-08
2.69955e-08
-3.67038e-08
2.71324e-08
-3.11874e-08
2.72162e-08
-2.55669e-08
2.72634e-08
-1.92779e-08
2.99861e-08
-1.24927e-08
3.17812e-08
-5.60149e-09
3.17302e-08
1.51893e-09
3.20626e-08
8.34959e-09
3.1417e-08
1.49401e-08
2.99342e-08
2.16227e-08
2.99653e-08
2.83911e-08
3.0227e-08
3.51403e-08
3.02271e-08
4.16588e-08
2.92902e-08
4.77471e-08
2.8216e-08
5.34423e-08
2.71932e-08
5.90886e-08
2.70225e-08
6.4573e-08
2.88363e-08
7.05388e-08
2.913e-08
7.63024e-08
3.39862e-08
8.2685e-08
3.58674e-08
8.8313e-08
3.48456e-08
9.31515e-08
3.47413e-08
9.78489e-08
3.39589e-08
1.02431e-07
3.46633e-08
1.06622e-07
3.65798e-08
1.11052e-07
4.09051e-08
1.15196e-07
4.52196e-08
1.19375e-07
4.63286e-08
1.23171e-07
4.85669e-08
1.26843e-07
5.11568e-08
1.29754e-07
5.39135e-08
1.31905e-07
5.41738e-08
1.33335e-07
5.81624e-08
1.34727e-07
6.28264e-08
1.34877e-07
6.84367e-08
1.34826e-07
7.32309e-08
1.34451e-07
7.68831e-08
1.33846e-07
8.149e-08
1.32061e-07
8.47523e-08
1.29695e-07
8.41403e-08
1.25549e-07
8.91354e-08
1.20563e-07
9.40889e-08
1.12745e-07
9.70283e-08
9.52563e-08
1.07565e-07
-3.85673e-07
9.49515e-08
-3.8656e-07
6.0394e-08
-3.85934e-07
6.07143e-08
-3.85268e-07
5.57089e-08
-3.82553e-07
6.12935e-08
-3.81362e-07
6.31324e-08
-3.79818e-07
6.52443e-08
-3.78369e-07
6.43815e-08
-3.76899e-07
6.1726e-08
-3.75515e-07
6.05994e-08
-3.74048e-07
6.48771e-08
-3.72454e-07
7.05949e-08
-3.70937e-07
6.77408e-08
-3.6939e-07
6.49781e-08
-3.67849e-07
6.49986e-08
-3.66156e-07
6.90471e-08
-3.64572e-07
6.92123e-08
-3.63013e-07
6.27369e-08
-3.61613e-07
5.44519e-08
-3.60116e-07
5.15478e-08
-3.58457e-07
5.50003e-08
-3.56541e-07
6.19253e-08
-3.54422e-07
6.77885e-08
-3.52207e-07
6.91537e-08
-3.49957e-07
6.754e-08
-3.47647e-07
6.79695e-08
-3.45429e-07
6.19774e-08
-3.43207e-07
5.96515e-08
-3.40843e-07
6.22789e-08
-3.38245e-07
6.59329e-08
-3.35477e-07
6.93085e-08
-3.32634e-07
6.89327e-08
-3.2998e-07
6.25416e-08
-3.27431e-07
5.74342e-08
-3.2488e-07
5.66671e-08
-3.22204e-07
5.75857e-08
-3.19617e-07
5.51422e-08
-3.16872e-07
5.76169e-08
-3.14096e-07
5.8403e-08
-3.11323e-07