/*--------------------------------*- C++ -*----------------------------------*\
| =========                 |                                                 |
| \\      /  F ield         | OpenFOAM: The Open Source CFD Toolbox           |
|  \\    /   O peration     | Version:  2212                                  |
|   \\  /    A nd           | Website:  www.openfoam.com                      |
|    \\/     M anipulation  |                                                 |
\*---------------------------------------------------------------------------*/
FoamFile
{
    version     2.0;
    format      ascii;
    arch        "LSB;label=32;scalar=64";
    class       surfaceScalarField;
    location    "0.058";
    object      phi;
}
// * * * * * * * * * * * * * * * * * * * * * * * * * * * * * * * * * * * * * //

dimensions      [1 0 -1 0 0 0 0];

oriented        oriented;

internalField   nonuniform List<scalar> 
4475
(
0.000622873
-0.000627705
0.000794969
-0.000790136
7.46377e-05
-0.000241286
-1.59122e-06
0.000168243
0.00141689
-0.0016155
0.000144783
5.38369e-05
-0.000255816
0.000840762
0.000149454
-0.000734398
-0.00055681
0.000506358
0.000535524
-0.000485072
0.000471784
-0.000349557
-0.00053377
0.000411543
-0.000152696
0.000145801
0.000678667
-0.000671772
-0.000423973
-0.000579562
0.000503836
0.0004997
0.000528891
-0.000582223
-0.000503479
-0.000442149
-8.39829e-06
5.81006e-05
0.000392447
-7.72965e-05
7.24207e-05
-0.000437272
-0.000491513
6.68499e-05
-3.16131e-05
0.000456277
-0.00050803
2.07208e-05
-4.20272e-06
-0.000522736
9.85779e-06
4.84833e-06
-0.000534104
5.65733e-06
5.71112e-06
-0.000540727
3.8781e-06
2.74593e-06
6.45411e-06
-0.000530519
-1.66626e-05
0.000517615
-4.16915e-05
-0.00051224
3.63165e-05
0.000541855
-1.77851e-05
0.000536211
9.52202e-06
0.00052393
1.79392e-05
0.000510458
2.33295e-05
0.000500791
3.03887e-05
0.00053586
3.1782e-05
0.000461253
-2.68924e-06
0.00043033
2.25255e-05
0.000540312
6.5745e-05
-0.000175725
0.000509751
8.37891e-06
2.21833e-05
0.000704111
-0.000712979
-0.000143828
-0.000527532
-4.46782e-05
0.000502407
3.88562e-06
3.46069e-06
0.000502725
1.33158e-06
-1.6484e-06
0.000511572
-2.5174e-06
-6.32749e-06
0.000530074
-6.6777e-06
-1.18207e-05
0.000571136
-1.84764e-05
-2.2581e-05
0.000645818
-3.45297e-05
-4.01456e-05
0.000779599
-6.16823e-05
-7.20849e-05
0.000912729
-6.28487e-05
-7.02673e-05
0.00103407
-6.12688e-05
-6.00512e-05
0.00107932
-2.4728e-05
-2.05192e-05
0.00109315
-1.17994e-05
-2.01692e-06
0.0010428
1.78576e-05
3.25039e-05
0.000999471
1.48837e-05
2.84519e-05
0.00096796
8.99034e-06
2.25298e-05
2.54997e-06
0.0009488
1.66217e-05
-0.00100587
0.00097938
2.90533e-05
-0.00103025
3.3374e-05
-0.00102571
1.03606e-05
-0.00100613
-1.71156e-06
-0.000959835
-5.80843e-05
-0.00089465
-8.98972e-05
-0.00083682
-0.000119088
-0.00077986
-0.000119798
-0.000706791
-0.000134744
-0.000612756
-0.000128554
-0.000555821
-7.54054e-05
-0.00052501
-3.74851e-05
-0.000511762
-1.57629e-05
-0.000506813
-3.61528e-06
-0.000513662
1.07367e-05
-0.000540465
3.51828e-05
-0.000426117
0.000102377
-0.000216723
-0.000451118
8.31026e-05
-0.000440805
6.21088e-05
-0.0004575
3.56997e-05
-1.90044e-05
-0.000498215
9.1021e-06
-0.000514264
1.18475e-05
-0.00052747
1.80544e-05
-0.000538035
1.6277e-05
-0.000541486
6.19745e-06
-0.000549046
-9.10204e-06
5.04978e-07
1.16763e-05
0.000936636
1.83605e-05
0.000961531
0.000547955
-2.8675e-05
-0.000537065
0.000539555
1.79225e-05
0.000527982
2.95132e-05
0.000515438
3.58733e-05
0.00050993
3.58976e-05
0.000509058
3.2655e-05
0.00048335
2.30192e-05
0.000477464
2.8413e-05
0.000505978
3.7232e-05
0.000506567
2.15967e-05
0.000503904
6.1254e-06
0.000508664
-6.4067e-06
0.000523141
-2.08023e-05
0.000554739
-4.34143e-05
0.000613277
-8.11133e-05
0.000702148
-0.000129006
0.000766688
-0.000136616
0.00082174
-0.000125313
0.000877789
-0.000116093
0.000945553
-8.82766e-05
0.000998668
-5.51052e-05
0.00102667
3.98034e-06
0.00103393
2.11778e-05
0.00101066
4.5827e-05
0.000982934
4.43609e-05
-6.14293e-05
-0.000526031
7.52204e-05
3.25216e-05
0.0009621
-9.9717e-05
-0.000489244
-0.000548301
-4.54235e-05
-0.00103762
0.00101367
4.23297e-05
-0.00103302
2.44672e-05
-0.00100332
3.69617e-06
-0.000950852
-4.20963e-05
-0.000871933
-8.0619e-05
-0.000820264
-0.000109744
-0.000785433
-0.000124718
-0.000768453
-0.00013606
-0.000742814
-0.000145431
-0.000723582
-0.000153971
-0.000704018
-0.000148113
-0.000649038
-0.000130379
-0.000582747
-0.000103767
-0.000546886
-5.16193e-05
-0.000529894
-2.06047e-05
-0.000523834
4.67926e-06
-0.000520296
3.16472e-05
-0.000481048
6.31298e-05
-0.000464412
6.64687e-05
-0.000466154
6.38514e-05
-0.000477451
4.69983e-05
-0.000500623
3.22744e-05
-0.000519432
3.06576e-05
-0.000533513
3.21357e-05
-0.000547531
3.02959e-05
-0.000557531
1.61983e-05
-0.000562723
-3.91004e-06
-0.000514216
0.000778398
-0.000688155
0.000280079
-0.000575285
-0.000168309
0.000463516
-0.000351736
-0.000339116
0.000388193
0.000302659
0.000400127
0.000635625
8.56604e-05
-0.000131097
-0.000590188
0.000567399
3.95519e-05
0.000548877
3.64447e-05
0.00053361
4.4781e-05
0.000522884
4.65993e-05
0.000514675
4.41072e-05
0.00050907
3.8261e-05
0.000500747
3.13433e-05
0.000498599
3.0562e-05
0.000505398
3.04346e-05
0.000510265
1.67314e-05
0.000519206
-2.81311e-06
0.0005388
-2.59973e-05
0.000577036
-5.90333e-05
0.0006429
-0.000109269
0.000697305
-0.000135513
0.000719464
-0.00015116
0.000735427
-0.000152573
0.000755418
-0.000145299
0.000772382
-0.000133051
0.000803544
-0.000119433
0.000853347
-0.000104901
0.000936125
-7.82916e-05
0.000998368
-4.10045e-05
0.00103403
1.01882e-05
0.00104304
3.53709e-05
0.00101621
5.93639e-05
-2.36015e-05
0.000984352
5.54803e-05
-7.21004e-06
0.000945724
-3.01581e-06
0.000932457
1.23424e-05
0.000946188
-0.000489204
0.000476078
-0.000566437
0.000981171
4.48562e-05
-0.000664372
-0.000604464
0.00075462
-0.000543923
0.000813674
0.000459178
-0.00072893
-0.000112798
-0.000535219
0.000624717
-0.000483298
0.000633241
-0.00077466
0.000518199
0.000510164
-0.000522005
-0.000677972
1.22783e-05
0.000139663
-0.000575928
-3.22182e-05
-1.34009e-05
4.32976e-05
0.000954473
-3.26547e-06
0.000935604
-1.57642e-06
0.000930784
7.25218e-06
0.000937377
3.37002e-05
0.000954742
-0.00102515
5.81168e-05
0.00100076
-0.00101562
3.53537e-05
-0.00099044
1.71773e-05
-0.000930854
-3.51013e-05
-0.000857661
-6.94883e-05
-0.000801927
-9.78222e-05
-0.000770248
-0.000112289
-0.000753498
-0.000126486
-0.000742507
-0.000135701
-0.000737229
-0.000141331
-0.000735754
-0.0001469
-0.000733261
-0.00015646
-0.000727221
-0.000154149
-0.000711521
-0.000146075
-0.000680223
-0.00013506
-0.000614684
-0.000117153
-0.000572707
-6.25778e-05
-0.00054577
-2.2255e-05
-0.00052627
1.21498e-05
-0.000506042
4.29042e-05
-0.000498683
5.91108e-05
-0.000491216
5.63862e-05
-0.000496928
5.27121e-05
-0.000511286
4.66335e-05
-0.000526183
4.55556e-05
-0.00054262
4.85736e-05
-0.000557952
4.56284e-05
-0.000574764
3.30114e-05
8.2109e-06
-0.000586884
9.32544e-05
-7.2403e-05
-0.000627706
0.000606855
0.000727202
-0.000876514
0.00079024
-0.000640928
0.000500323
-0.000480371
0.000515572
0.000638627
7.54651e-05
6.43054e-05
0.000660739
0.000145594
-0.000167705
0.000658229
0.000148312
0.000641271
0.00013336
-0.000116401
0.000621404
0.000113122
0.000610975
0.000100737
-9.03077e-05
0.000609007
8.76285e-05
0.000579985
6.85744e-05
0.000558573
5.78573e-05
0.000543195
6.01598e-05
0.000532937
5.68575e-05
0.000525523
5.15228e-05
0.000522603
4.11814e-05
0.000515256
3.86923e-05
0.000514194
3.16256e-05
0.000522493
2.21374e-05
0.000541123
-1.89627e-06
0.000567267
-2.89541e-05
0.000611982
-7.07079e-05
0.000678433
-0.000125478
0.000706346
-0.000137177
0.000723211
-0.000152375
0.000727782
-0.000155727
0.000729724
-0.000154511
0.000725897
-0.000141467
0.00073156
-0.000138709
0.000743206
-0.000131073
0.000758364
-0.000120052
0.000789094
-0.000109014
0.000845671
-9.7573e-05
0.000923466
-6.7596e-05
0.000988928
-3.00739e-05
0.00102187
2.64504e-05
0.00102836
4.90123e-05
6.65739e-05
0.00100511
7.80207e-05
0.0015326
-0.00124623
-0.000364391
-0.000603159
0.000563505
-0.00100914
0.00102835
0.000352391
-0.000371594
-9.43436e-05
0.000891891
0.000103118
-0.000900665
-0.001611
-0.000239873
0.000564149
0.00128672
-0.000660865
-0.00048752
-8.81418e-05
-0.000600584
-0.00061046
-7.99293e-05
0.000617987
-0.000976719
0.00100377
3.11154e-05
-0.000921077
-2.02657e-05
-0.000841351
-6.25368e-05
-0.000791216
-8.52312e-05
-0.000759104
-0.000101588
-0.000740441
-0.000116475
-0.000723585
-0.000129137
-0.000719667
-0.000130397
-0.000725204
-0.000130157
-0.000731762
-0.000134766
-0.000737875
-0.000140782
-0.00074717
-0.000147162
-0.000748195
-0.00015312
-0.000741981
-0.000152286
-0.000733714
-0.000143324
-0.000721414
-0.000129449
-0.000674069
-0.000109918
-0.000614664
-8.16532e-05
-0.000574314
-2.81963e-05
-0.00054207
1.06627e-05
-0.000524941
4.19837e-05
-0.000516181
4.76283e-05
-0.000521629
5.81623e-05
-0.000532697
5.77029e-05
-0.00054243
5.52906e-05
-0.000555386
6.1531e-05
-0.000571086
6.13291e-05
-0.000586544
4.84706e-05
-0.000610023
3.16906e-05
-1.50392e-05
-0.000604063
-0.000558707
-0.000533001
0.00060841
-0.000246217
-0.000843355
0.000824662
0.00026491
0.000674571
0.000136163
-0.000735268
0.00067193
0.000148235
0.000663336
0.000156906
0.000647176
0.00014952
0.000631198
0.0001291
0.000617863
0.000114072
0.00060507
0.000100422
0.000586184
8.74616e-05
0.000566732
7.73096e-05
0.000555733
7.11595e-05
0.000547683
6.49086e-05
0.000542457
5.67501e-05
0.000536016
4.76238e-05
0.000536154
3.85558e-05
0.000546446
2.13364e-05
0.00057407
-5.48465e-06
0.000611043
-3.88645e-05
0.000676489
-9.43925e-05
0.000722861
-0.000117075
0.000734196
-0.000136809
0.00074576
-0.000148737
0.000752202
-0.000158813
0.000744025
-0.000147546
0.000730929
-0.000141412
0.000728215
-0.000138748
0.000720839
-0.000131326
0.000714874
-0.000125102
0.000719644
-0.000124815
0.000736597
-0.000125959
0.00075285
-0.000113817
0.000783098
-9.78327e-05
0.000838915
-8.58785e-05
0.000920096
-5.47153e-05
0.000985986
-1.68569e-05
0.00100742
4.5184e-05
-6.22957e-05
5.61045e-05
0.00101366
-3.02887e-05
0.000973136
-1.07995e-05
0.000935005
-2.06689e-06
0.00092689
-3.12263e-06
0.000931862
7.18915e-06
0.000927087
2.67764e-05
0.000935177
5.78785e-05
0.00096969
0.00100991
5.17862e-05
-0.00105941
-0.000410385
0.000460649
-8.31971e-05
0.000113829
-0.00142375
0.00139312
-0.000916691
0.000693972
-0.00126262
0.00148534
-0.000792375
-0.00047165
0.000701706
0.000756045
-0.000834878
-0.000479526
0.000326629
0.000930977
-0.000625532
4.70892e-07
-5.48729e-05
-0.000637331
-0.000498302
-0.000583013
0.000522608
-0.000631275
-0.000413152
0.000252052
-0.000833516
0.000495292
-0.000591532
0.000929756
0.000481678
0.000536844
0.000693103
-0.000704303
0.000147363
0.000673978
0.000167362
0.000663377
0.000167507
0.000650826
0.000162072
0.00063679
0.000143137
0.000623477
0.000127387
0.000609313
0.000114585
0.000595249
0.000101527
0.000583085
8.94749e-05
0.000575251
7.89937e-05
0.000567274
7.28873e-05
0.000563097
6.09291e-05
0.000567433
4.32901e-05
0.000587969
1.80214e-05
0.000624193
-1.48847e-05
0.000678374
-5.96616e-05
0.00073286
-9.3344e-05
0.000754453
-0.000115981
0.00077023
-0.000132848
0.000781605
-0.000148182
0.000774779
-0.000141908
0.000752597
-0.000136628
0.000739676
-0.000134622
0.000733705
-0.000135437
0.000727577
-0.000132616
0.000723564
-0.000127308
0.000725464
-0.000126994
0.000722996
-0.000122336
0.000713695
-0.000116646
0.000714123
-0.000114232
0.000729132
-0.000112828
0.000741808
-9.85402e-05
0.000774708
-8.76011e-05
0.000830858
-7.29921e-05
0.000919506
-4.34504e-05
0.000975737
-7.7292e-08
-7.02734e-05
5.44238e-05
0.000991674
-4.96442e-05
0.000993078
-2.05537e-05
0.00094408
-1.23709e-05
0.000926847
-7.59286e-06
0.000922139
5.23052e-08
0.000924243
7.27192e-06
0.000919895
1.79282e-05
0.000924546
4.50143e-05
0.000942636
6.68912e-05
0.000988091
-0.000964001
0.000982172
4.88179e-05
-0.000910514
-1.65129e-06
-0.000831957
-4.74364e-05
-0.000777224
-7.49895e-05
-0.000748157
-9.15894e-05
-0.000730135
-0.00010324
-0.0007165
-0.000115211
-0.000712252
-0.00012071
-0.000719843
-0.000121534
-0.000727043
-0.000123186
-0.000728379
-0.000128814
-0.000730555
-0.000132584
-0.000735749
-0.000135583
-0.000746743
-0.000136164
-0.000761552
-0.000138308
-0.000774478
-0.000139357
-0.000773148
-0.00014465
-0.000763331
-0.000139264
-0.000747995
-0.000125252
-0.000724075
-0.00010557
-0.00066903
-8.32355e-05
-0.000619478
-3.88857e-05
-0.000579998
2.50652e-06
-0.000556667
2.42996e-05
-0.000552818
5.43157e-05
-0.000554653
5.95395e-05
-0.000564725
6.53644e-05
-0.000576196
7.30041e-05
-0.000588749
7.38836e-05
-0.000609107
6.88305e-05
4.81099e-05
-0.000625526
-0.000587011
-0.000556103
0.000610113
-3.26722e-05
-0.000647732
-0.000724678
-5.76631e-05
0.00014501
-6.54395e-05
-0.000494295
-0.000635281
0.000718546
-0.000663932
-0.000467766
0.000689531
-0.000442635
-0.00040239
0.000604401
-0.000764063
-0.000332045
0.000849892
0.000128724
-1.93519e-05
0.000731123
0.000121691
-0.000724089
0.000701052
0.000177435
0.000679539
0.000188876
0.000663176
0.000183871
0.000654326
0.000170922
0.0006426
0.000154863
0.000632548
0.00013744
0.000620768
0.000126366
0.000613066
0.00010923
0.000601844
0.000100699
0.000593338
8.75014e-05
0.000596289
6.99379e-05
0.000612019
4.52014e-05
0.000647225
8.08733e-06
0.000693883
-2.86324e-05
0.000749451
-7.04468e-05
0.000780183
-9.03909e-05
0.000796278
-0.000109436
0.000811779
-0.000131479
0.000807518
-0.000128584
0.000784752
-0.000125412
0.000768823
-0.000125978
0.000758088
-0.00012589
0.000748906
-0.000125437
0.000739557
-0.000126083
0.000730385
-0.000123439
0.000727691
-0.000124607
0.000725009
-0.000124304
0.000721738
-0.000119056
0.000718203
-0.000113099
0.000712923
-0.000108932
0.000704804
-0.000104689
0.000707561
-0.000101273
0.000716671
-9.6686e-05
0.000730658
-8.69525e-05
0.000764855
-7.76225e-05
0.000825505
-6.07159e-05
0.000914559
-3.46357e-05
-5.97196e-05
0.000966555
7.82676e-06
-6.32603e-05
0.000995308
-3.43161e-05
0.000964191
-1.82707e-05
0.000928067
-7.06533e-06
0.00091567
-3.22816e-06
0.000918333
2.72674e-06
0.00091833
6.41675e-06
0.000916239
1.58107e-05
0.000915181
3.16388e-05
0.000926844
6.28217e-05
0.00095697
6.06114e-05
0.000984483
-0.000902299
0.000951394
1.16383e-05
-0.000820127
-3.33552e-05
-0.000760866
-6.08987e-05
-0.000728366
-7.99105e-05
-0.000712613
-9.07161e-05
-0.000704464
-9.97114e-05
-0.00070285
-0.00010483
-0.000707916
-0.000110123
-0.00071672
-0.000111886
-0.000721386
-0.000116855
-0.000722095
-0.000122467
-0.000727126
-0.000123775
-0.000733415
-0.000126288
-0.000741419
-0.000127574
-0.000750278
-0.0001273
-0.000760726
-0.000127856
-0.000772136
-0.000127943
-0.000791492
-0.000125291
-0.000803459
-0.000127294
-0.000799871
-0.000128837
-0.000785395
-0.000120043
-0.000768854
-9.97734e-05
-0.000731423
-7.63134e-05
-0.000677537
-5.13761e-05
-0.000637157
-1.60777e-05
-0.000607319
2.44802e-05
-0.000596018
4.82411e-05
-0.000594313
6.36612e-05
-0.000600668
7.93612e-05
-0.000613497
8.67148e-05
-0.000628007
8.3342e-05
6.88227e-05
-0.000648718
-0.00064239
1.73363e-05
-0.000558593
-0.00061143
-0.000570326
-0.000624935
0.000639158
0.000672736
0.00136133
-0.00133037
-0.000703697
-0.000655514
-1.95478e-05
-0.000697796
-0.000270086
0.000124529
-0.000730838
-0.000369348
-0.000719095
-0.000454378
1.63722e-05
-0.000240366
-0.000500684
-0.000275472
-0.000564005
2.82117e-05
-0.000663579
-4.18165e-05
-0.000517427
-0.000640801
-0.000653237
-0.000533623
-6.54563e-05
5.5233e-05
0.000977005
-4.90336e-05
0.00097899
-2.49217e-05
0.000940148
-1.36884e-05
0.000916884
-9.19629e-06
0.000911219
-1.37306e-06
0.000910537
5.51224e-06
0.000911424
1.18028e-05
0.000909971
1.55213e-05
0.000911507
2.66109e-05
0.000915805
5.08466e-05
0.000932809
6.76892e-05
0.000967753
5.6184e-05
0.000963129
-0.000827867
-2.17509e-05
0.000905874
-0.000762027
-5.41364e-05
-0.000724065
-7.12624e-05
-0.000702314
-8.26022e-05
-0.000693035
-8.91484e-05
-0.00068957
-9.4144e-05
-0.000690887
-9.83585e-05
-0.000695825
-9.98578e-05
-0.000702856
-0.000103057
-0.000708431
-0.000106293
-0.000714375
-0.000110898
-0.000722415
-0.000114416
-0.000729525
-0.000116655
-0.000738977
-0.000116828
-0.000748637
-0.000117907
-0.000757507
-0.000118424
-0.000768314
-0.000117044
-0.000780025
-0.000116228
-0.000790221
-0.000115092
-0.000804579
-0.000112933
-0.000823821
-0.000109592
-0.000835789
-0.000108073
-0.000829717
-0.000105843
-0.000811858
-9.41699e-05
-0.000792078
-7.1154e-05
-0.000753058
-5.50938e-05
-0.000713099
-1.54748e-05
-0.000666905
2.05004e-06
-0.000645561
4.23203e-05
-0.000633658
6.74605e-05
-0.000636148
8.92069e-05
-0.000652043
9.92384e-05
9.78774e-05
-0.000681095
3.75187e-05
-0.000668899
0.000543466
-0.000442234
-0.000581603
-0.000522754
-0.000671121
0.000765611
-0.00017844
0.000190219
-0.000777389
0.00155887
-3.31969e-06
-0.0015184
-3.71446e-05
0.000696947
0.000212663
-0.000732175
0.000680124
0.0002057
0.000670276
0.00019372
0.000662754
0.000178445
0.000653621
0.000163997
0.000648434
0.000142628
0.000640107
0.000134695
0.000629534
0.000119803
0.000631216
9.90192e-05
0.00064641
7.23094e-05
0.000680028
3.63226e-05
0.00073039
-5.15755e-06
0.000779142
-4.06585e-05
0.000814957
-6.4443e-05
0.000829764
-8.52514e-05
0.000845535
-0.000106159
0.000844102
-0.000108001
0.000820088
-0.000107462
0.00080199
-0.000110485
0.000789634
-0.000113052
0.000778001
-0.000114342
0.000767652
-0.000115536
0.000758699
-0.00011648
0.000749713
-0.000117091
0.000742941
-0.000116662
0.000733403
-0.000115059
0.000725118
-0.000116011
0.000717437
-0.000111363
0.000713443
-0.000109095
0.000708075
-0.000103544
0.0007028
-9.93821e-05
0.000699762
-9.82008e-05
0.00069652
-9.34104e-05
0.000699893
-9.02879e-05
0.000710273
-8.79652e-05
0.000731405
-8.18039e-05
0.00076887
-7.20525e-05
0.000831934
-5.51847e-05
0.000916356
-2.91473e-05
-0.000575881
-0.000665292
0.000670847
-0.000610289
-0.000626077
0.00123298
-6.05064e-05
0.00010156
-0.00127404
-0.000582276
-6.49302e-05
-0.000468958
-0.000653189
-4.41404e-05
-0.000718311
0.000767334
-7.064e-05
-0.000693547
-7.87932e-05
-0.000679557
-8.51561e-05
-0.000674137
-8.79547e-05
-0.00067202
-9.12095e-05
-0.000674432
-9.16848e-05
-0.000678629
-9.41178e-05
-0.000683167
-9.52808e-05
-0.000690432
-9.5752e-05
-0.000697412
-9.92968e-05
-0.000707722
-0.000100571
-0.000718727
-0.000103397
-0.000730599
-0.000104771
-0.000741499
-0.000105918
-0.00075352
-0.000105879
-0.000765293
-0.000106644
-0.000775965
-0.000106366
-0.000787177
-0.000105012
-0.000799099
-0.000103166
-0.000811415
-0.000100614
-0.000823261
-9.77425e-05
-0.000837053
-9.42787e-05
-0.000855103
-8.77906e-05
-0.00086653
-8.27413e-05
-0.000860131
-7.75513e-05
-0.000849059
-6.61636e-05
-0.000820845
-4.36875e-05
-0.000787803
-3.09895e-05
-0.000744301
-1.17839e-06
-0.000708604
3.17669e-05
-0.0006831
6.37052e-05
-0.000679257
9.53969e-05
-0.000702559
0.000121182
6.75583e-05
-0.000711133
0.000491683
-0.000404637
0.00045642
-0.000702756
-0.000460798
-5.85603e-05
1.05605e-05
0.000964657
-5.94751e-05
0.000978148
-3.52036e-05
0.000954849
-1.81545e-05
0.000923208
-1.29943e-05
0.000911803
-1.04955e-05
0.000908766
-3.47387e-06
0.000903581
7.86785e-06
0.000900272
1.31351e-05
0.000904782
1.75386e-05
0.000907149
2.36499e-05
0.000909779
3.63829e-05
0.000920194
5.89948e-05
0.000945283
5.88374e-05
0.000963522
1.42483e-05
0.00095076
-6.13213e-05
0.000843087
0.000659974
-0.000445195
-0.000657013
0.000754405
-0.000531983
0.000738781
-0.000438753
0.000730724
-0.00036129
-0.000303425
-0.000473485
0.000457406
0.000497757
-0.00018832
-0.000736522
-0.000497293
0.000476693
-2.19148e-06
2.27923e-05
-0.000298458
-0.000788727
0.000831371
0.000683256
0.000207521
-0.000678113
0.000683715
0.000205242
0.000681907
0.000195529
0.000681431
0.000178923
0.000679558
0.000165872
0.000668415
0.000153774
0.000672864
0.000130248
0.000692422
0.000100248
0.000727992
6.34534e-05
0.000775605
2.47014e-05
0.000822877
-1.09433e-05
0.000854571
-3.6848e-05
0.000872254
-5.83398e-05
0.000883469
-7.5656e-05
0.000878771
-8.05514e-05
0.000855922
-8.3309e-05
0.000837783
-8.9861e-05
0.000824948
-9.46248e-05
0.000812451
-9.79852e-05
0.00080046
-0.000101058
0.000789584
-0.000103462
0.000779161
-0.000105108
0.000768688
-0.000106002
0.000757851
-0.000106248
0.000746957
-0.000105761
0.000736694
-0.000104786
0.000724547
-0.000103853
0.000714827
-0.000101628
0.000704612
-9.88648e-05
0.000697812
-9.67278e-05
0.000693357
-9.48902e-05
0.000685859
-9.06653e-05
0.000683693
-9.12047e-05
0.000683957
-9.05055e-05
0.000685693
-8.96465e-05
0.000690027
-8.60686e-05
0.000702397
-8.43275e-05
0.000727251
-7.99366e-05
0.000770416
-7.21871e-05
0.000842898
-6.17424e-05
8.7438e-05
0.00123694
-9.1392e-05
-2.24695e-05
-0.000665976
-0.000380174
0.000198025
-0.000572627
-0.000715596
0.000712343
-0.000567886
-0.000713524
-0.000622149
-0.000669219
-0.00129053
-0.000161009
0.00139103
0.00148644
-1.79191e-05
-0.0013905
0.000529833
-4.30301e-05
-0.000675089
0.000173047
-0.000808046
0.000518625
0.000382947
-0.000403815
-0.000431158
-0.00110841
0.000480158
0.000480435
-0.000661689
-0.000568886
0.000750144
-8.33973e-06
-0.0014741
-0.000101315
0.00158376
-0.000684587
0.000711614
-8.81855e-05
-0.000662171
-9.28886e-05
-0.000650619
-9.02195e-05
-0.00064529
-9.03943e-05
-0.00064394
-8.92336e-05
-0.00064652
-8.85702e-05
-0.000649728
-8.84231e-05
-0.000656197
-8.75975e-05
-0.00066404
-8.73868e-05
-0.000672272
-8.74692e-05
-0.000683731
-8.78143e-05
-0.000695505
-8.87746e-05
-0.00070885
-9.00349e-05
-0.000722512
-9.10949e-05
-0.000736598
-9.18203e-05
-0.000750184
-9.22826e-05
-0.000764122
-9.2699e-05
-0.000777866
-9.26151e-05
-0.00079098
-9.18924e-05
-0.000803538
-9.06037e-05
-0.000816177
-8.79705e-05
-0.000828743
-8.51736e-05
-0.000841685
-8.13337e-05
-0.000852789
-7.66835e-05
-0.000863793
-7.17351e-05
-0.000877247
-6.40958e-05
-0.000889261
-5.41478e-05
-0.000891301
-4.16459e-05
-0.000882604
-3.96846e-05
-0.000870186
-1.35949e-05
-0.000842639
4.22264e-06
-0.000811071
3.21396e-05
-0.000783859
6.81877e-05
-0.000764816
0.000102142
0.000152031
-0.000743798
0.0006286
-0.000373263
-0.00102703
0.000905161
-0.000505836
0.000709713
-0.000519298
-0.00121745
-4.47532e-05
-3.25693e-05
0.000920512
-5.10225e-05
0.000971278
-4.19214e-05
0.000969289
-2.49449e-05
0.000938059
-1.70582e-05
0.000915493
-1.22809e-05
0.000907168
-6.41234e-06
0.000903004
1.10289e-06
0.000896147
7.19739e-06
0.000894163
1.43018e-05
0.000897759
1.81453e-05
0.000903422
2.16732e-05
0.000906403
2.90442e-05
0.000913006
4.32341e-05
0.00093129
5.18937e-05
0.000955108
4.28839e-05
0.000960086
-2.0579e-05
0.000906848
-9.05623e-05
0.000781754
-0.000484615
0.000777709
-0.000514723
0.000748198
-0.000409242
0.000722137
-0.000335228
0.000694369
-0.000275656
-0.000324332
0.000686658
-1.12331e-05
-4.08975e-05
0.000700769
-0.000807083
0.000699204
0.000217877
-0.000689971
-0.000227109
0.000702907
0.00020382
0.000709764
0.000198387
0.000709421
0.000195875
0.000709833
0.000178513
0.000719982
0.000155726
0.000749993
0.000123766
0.000787501
9.27431e-05
0.000832198
5.55569e-05
0.000872464
2.3192e-05
0.000902366
-5.19796e-06
0.000916114
-2.46902e-05
0.000919184
-3.9917e-05
0.000909708
-4.88634e-05
0.000889125
-5.50723e-05
0.000873075
-6.44999e-05
0.000860746
-7.09786e-05
0.000847494
-7.6606e-05
0.000834512
-8.16399e-05
0.000822151
-8.56211e-05
0.000809756
-8.86589e-05
0.00079707
-9.07706e-05
0.000783963
-9.19959e-05
0.000770522
-9.25543e-05
0.00075681
-9.25275e-05
0.000743166
-9.21072e-05
0.000729774
-9.1383e-05
0.000716362
-9.04264e-05
0.000703793
-8.90422e-05
0.000692591
-8.76426e-05
0.000682171
-8.62835e-05
0.000671795
-8.44721e-05
0.000665897
-8.47097e-05
0.000660257
-8.5503e-05
0.000656366
-8.65552e-05
0.000652868
-8.60857e-05
0.000654593
-8.77256e-05
0.000660626
-9.02772e-05
0.000669556
-8.87533e-05
0.000691074
-9.354e-05
0.000717673
-8.81584e-05
0.00077918
-9.38518e-05
0.000689939
-0.000444139
-0.000690995
-3.33354e-05
-0.000700266
0.00063617
-0.000716593
-0.00073746
0.000729363
-0.000493621
0.000501718
-0.000740514
-0.00052542
0.000528474
-0.000560545
-0.000752596
-0.000665924
-4.41918e-05
-0.00077535
-0.000720953
-0.000616793
-0.000702441
-0.000680302
0.00156804
-0.00153156
-4.48206e-05
0.000776994
-0.000570022
0.000443908
-0.00065088
-0.00156066
0.00139964
-7.88609e-05
0.000479829
-0.000332001
0.000777507
-3.10862e-05
-0.00028346
0.000631958
0.000280102
0.00126904
-0.00124816
8.0671e-05
8.9529e-05
0.00126695
0.000841923
8.76167e-05
0.000875996
6.80719e-05
0.000902154
4.20317e-05
0.000916084
1.82106e-05
0.000921207
-8.98893e-07
0.000917944
-1.03309e-05
0.000897931
-1.96693e-05
0.000888528
-3.22417e-05
0.000876647
-4.22643e-05
0.000864257
-5.17034e-05
0.000851245
-5.8721e-05
0.000837998
-6.34337e-05
0.000824248
-6.7581e-05
0.000809992
-7.09134e-05
0.000795519
-7.34932e-05
0.000780165
-7.52453e-05
0.000764668
-7.63886e-05
0.000748744
-7.66838e-05
0.000733015
-7.69604e-05
0.00071753
-7.67861e-05
0.0007021
-7.6376e-05
0.000687195
-7.6173e-05
0.000672753
-7.55715e-05
0.000659249
-7.52459e-05
0.000646881
-7.54114e-05
0.000635836
-7.63718e-05
0.000626403
-7.78844e-05
0.000618447
-7.95722e-05
0.000611376
-8.1282e-05
0.000605505
-8.26271e-05
0.000601913
-8.55624e-05
0.000599627
-8.80134e-05
0.000602276
-9.27426e-05
0.000609463
-9.99102e-05
0.000619075
-9.76569e-05
0.000627727
-9.90915e-05
9.23756e-05
0.00125137
-0.000106812
1.24187e-05
-6.52108e-05
0.000832278
-2.79414e-05
0.000961195
-3.7264e-05
0.000980947
-2.52362e-05
0.00095753
-1.48386e-05
0.000927907
-1.12689e-05
0.0009121
-6.5703e-06
0.000902615
-2.24111e-06
0.000898828
1.83062e-06
0.00089218
7.78749e-06
0.000888152
1.29682e-05
0.000892685
1.57779e-05
0.000900777
1.75118e-05
0.000904826
2.06725e-05
0.000910034
2.84995e-05
0.000923719
3.64046e-05
0.000947481
3.06822e-05
0.000966122
-7.56681e-06
0.000945318
-5.26702e-05
0.000826986
-7.2713e-05
0.000647854
0.000685743
-0.000369067
-0.00011014
-0.000731239
-0.000454559
0.000712328
0.000471594
0.000364813
0.00143097
-0.00110205
-0.000693733
0.000245492
-0.00117121
0.000144849
-0.00117339
9.37299e-05
-0.00119704
0.00123801
5.03534e-05
-0.00119463
0.00124735
7.13343e-05
0.00125448
8.23952e-05
-0.000130697
0.000179185
0.00120599
0.000878199
-0.000411046
6.02822e-05
0.00120845
-0.00118781
-8.09192e-05
0.000395821
0.000761759
-0.000380586
0.000385537
0.000823669
-0.000923282
-0.000285924
0.000843861
-0.00075857
-0.000475602
0.000740552
-0.000768907
-0.000515082
-0.000546913
-0.00078254
-5.41382e-05
-0.000654815
0.000687762
-0.00042979
-0.00070211
8.83302e-05
-2.98303e-05
0.000816419
-0.000425982
0.000762759
-0.000355581
0.000724783
-0.00029725
0.000731979
-0.000282851
-0.000290745
0.000698393
-0.000535408
0.000809556
0.000412512
0.000374277
-0.000232035
-0.000591449
0.000449208
0.000728046
0.000259621
-0.000278438
-0.000709227
0.000727537
0.000218388
0.000729884
0.000201475
0.00074381
0.000184464
0.000773838
0.000165851
0.000811899
0.000140456
0.00085462
0.000113011
0.000890966
8.74251e-05
0.000920476
6.32359e-05
0.000937832
3.82016e-05
0.00094583
1.51944e-05
0.00094197
-1.33638e-06
0.000930446
-1.31655e-05
0.000914642
-2.41118e-05
0.000901415
-3.56353e-05
0.000890228
-4.38833e-05
0.000876823
-5.10929e-05
0.000863475
-5.76274e-05
0.000849862
-6.29903e-05
0.000835697
-6.74706e-05
0.000820673
-7.05937e-05
0.000805043
-7.3024e-05
0.000789215
-7.49371e-05
0.000773022
-7.57966e-05
0.000757028
-7.65532e-05
0.000740858
-7.63475e-05
0.000725191
-7.64291e-05
0.000709807
-7.59854e-05
0.000695022
-7.56243e-05
0.000680502
-7.45022e-05
0.000667562
-7.4678e-05
0.000655277
-7.39668e-05
0.000645204
-7.43474e-05
0.000636453
-7.58873e-05
0.000628562
-7.75352e-05
0.000620648
-7.85689e-05
0.00061497
-8.0328e-05
0.000611615
-8.42897e-05
0.000607929
-8.64961e-05
0.000610421
-9.11306e-05
0.000616753
-9.97082e-05
0.000629068
-0.000100286
0.000634882
-9.94906e-05
0.000655601
-8.57584e-05
0.000774268
0.000464838
-0.000795198
0.000748188
0.000421901
-0.00033474
0.000381488
0.000701441
-0.00141137
0.000134968
0.00144393
-0.000167534
0.000678167
-0.000251148
-6.11275e-05
-0.000683329
-6.53448e-05
0.00142946
5.27711e-05
0.000348283
0.0006222
-0.000292315
0.000164781
0.00129828
-0.00028199
-0.00118107
-0.000747423
-0.000675971
-0.000754883
-0.000605199
-0.000764191
0.000450536
-0.000775097
0.000746462
0.000768383
-0.000487836
-0.000795629
0.000743317
0.00122863
-0.000798095
0.00151488
0.000121982
-6.88139e-05
-0.00132164
0.000264346
0.00123648
0.000840007
-0.000720537
-0.000995985
-0.000784371
-0.000232184
0.000765408
-0.000321096
-0.00130933
7.00828e-05
-0.00129665
5.86527e-05
-0.00125234
6.04729e-06
0.000901971
7.75372e-05
0.00091164
5.84031e-05
0.000914249
3.9424e-05
0.00091047
2.19907e-05
0.000901479
8.09315e-06
0.000895195
-4.04352e-06
0.000885668
-1.01404e-05
0.000876048
-2.26196e-05
0.000861693
-2.79069e-05
0.000846692
-3.66999e-05
0.000830403
-4.24304e-05
0.000815177
-4.82039e-05
0.000798967
-5.13681e-05
0.000782624
-5.45666e-05
0.000765789
-5.66528e-05
0.000748673
-5.81232e-05
0.000731616
-5.9325e-05
0.00071467
-5.97286e-05
0.000697902
-6.01824e-05
0.000681509
-6.03795e-05
0.000665429
-6.02789e-05
0.000649769
-6.04919e-05
0.000634843
-6.06217e-05
0.000620812
-6.11831e-05
0.000607676
-6.22322e-05
0.000595749
-6.43819e-05
0.000584734
-6.67941e-05
0.000574267
-6.90277e-05
0.000564335
-7.1273e-05
0.00055558
-7.37928e-05
0.000546423
-7.63144e-05
0.000538955
-8.04385e-05
0.000534973
-8.86131e-05
0.000527535
-9.23206e-05
0.000518478
-8.84803e-05
0.00050357
-8.40929e-05
0.000493501
-6.26006e-05
-0.000721954
-0.000255056
0.000686267
-0.000755408
-0.000249395
-0.00078099
-0.000271668
-0.000849175
-0.000287395
-0.000936247
-0.000338909
-0.00104763
-0.000394453
-0.00128815
0.000883979
0.000968316
-0.000264133
0.000666416
-0.000735567
0.000774883
-0.000432832
0.000718825
0.000409842
0.000718108
-6.2694e-05
0.00123023
3.84532e-05
7.09256e-05
0.00124073
0.000476682
-0.00086979
-0.000402089
-0.00052043
-0.000822112
0.000666994
-0.000219813
0.000153632
-0.000600813
2.03111e-05
-0.00133519
3.58072e-05
-0.000613854
0.000709842
-0.000391146
0.000323964
-0.000227784
-0.0011543
0.00105812
-0.00135829
-5.01693e-06
0.00126199
-0.000417227
-0.0011497
2.69694e-05
-4.04636e-05
0.000669071
-1.2989e-06
0.000860592
-1.38763e-05
0.000974079