/*--------------------------------*- C++ -*----------------------------------*\
| =========                 |                                                 |
| \\      /  F ield         | OpenFOAM: The Open Source CFD Toolbox           |
|  \\    /   O peration     | Version:  2212                                  |
|   \\  /    A nd           | Website:  www.openfoam.com                      |
|    \\/     M anipulation  |                                                 |
\*---------------------------------------------------------------------------*/
FoamFile
{
    version     2.0;
    format      ascii;
    arch        "LSB;label=32;scalar=64";
    class       volScalarField;
    location    "0.356";
    object      p;
}
// * * * * * * * * * * * * * * * * * * * * * * * * * * * * * * * * * * * * * //

dimensions      [0 2 -2 0 0 0 0];

internalField   nonuniform List<scalar> 
24240
(
10.4225
10.4212
10.4184
10.4144
10.4092
10.4031
10.3963
10.389
10.3813
10.3736
10.366
10.3586
10.3517
10.3454
10.3397
10.3347
10.3306
10.3273
10.325
10.3236
9.95781
9.9574
9.95672
9.95569
9.95438
9.95281
9.95103
9.9491
9.94707
9.94499
9.94291
9.94089
9.93897
9.93719
9.93561
9.93425
9.93311
9.93222
9.93159
9.93135
9.71427
9.71435
9.71456
9.71487
9.71527
9.71574
9.71627
9.71684
9.71744
9.71804
9.71863
9.7192
9.71973
9.72023
9.72067
9.72107
9.7214
9.72167
9.72188
9.72204
9.52054
9.52085
9.52148
9.52241
9.52359
9.525
9.52657
9.52826
9.53002
9.5318
9.53356
9.53525
9.53685
9.53832
9.53965
9.54081
9.54178
9.54256
9.54312
9.54345
9.40457
9.40505
9.406
9.4074
9.40919
9.41131
9.41369
9.41626
9.41895
9.42168
9.42439
9.42701
9.42948
9.43177
9.43383
9.43562
9.43712
9.43831
9.43916
9.43962
9.2859
9.28644
9.2875
9.28906
9.29106
9.29343
9.29611
9.299
9.30202
9.30511
9.30817
9.31114
9.31396
9.31657
9.31892
9.32098
9.3227
9.32405
9.32501
9.32553
9.23315
9.23371
9.23482
9.23644
9.23853
9.24101
9.24381
9.24684
9.25003
9.25328
9.25651
9.25966
9.26265
9.26542
9.26792
9.27011
9.27194
9.27338
9.2744
9.27493
9.18207
9.18261
9.18368
9.18524
9.18725
9.18965
9.19236
9.1953
9.19839
9.20156
9.20472
9.2078
9.21073
9.21346
9.21592
9.21808
9.2199
9.22132
9.22232
9.22285
9.16474
9.16524
9.16622
9.16765
9.1695
9.1717
9.1742
9.17692
9.17979
9.18273
9.18567
9.18855
9.1913
9.19385
9.19617
9.19821
9.19992
9.20127
9.20221
9.20271
9.17266
9.17312
9.17403
9.17536
9.17707
9.17912
9.18145
9.18399
9.18667
9.18943
9.19219
9.19489
9.19747
9.19987
9.20206
9.20398
9.20559
9.20687
9.20776
9.20823
9.18712
9.18752
9.18832
9.18948
9.19098
9.19278
9.19483
9.19706
9.19943
9.20186
9.20431
9.2067
9.209
9.21115
9.2131
9.21483
9.2163
9.21746
9.21828
9.21871
9.24796
9.24832
9.24903
9.25007
9.25142
9.25304
9.25487
9.25689
9.25902
9.26121
9.26342
9.26558
9.26765
9.26958
9.27135
9.27291
9.27424
9.2753
9.27605
9.27645
9.2975
9.29778
9.29833
9.29913
9.30018
9.30143
9.30286
9.30443
9.30609
9.30781
9.30954
9.31124
9.31287
9.31441
9.31582
9.31709
9.31818
9.31907
9.31972
9.32007
9.41699
9.41721
9.41764
9.41828
9.41911
9.42011
9.42124
9.42249
9.42381
9.42518
9.42654
9.42789
9.42917
9.43038
9.43149
9.43249
9.43336
9.43408
9.43461
9.4349
9.51514
9.51524
9.51544
9.51573
9.51611
9.51658
9.51711
9.51769
9.51831
9.51895
9.51959
9.52023
9.52085
9.52143
9.52199
9.52252
9.52301
9.52344
9.52379
9.524
9.70706
9.70707
9.70708
9.70711
9.70714
9.70719
9.70724
9.7073
9.70736
9.70742
9.70747
9.70751
9.70755
9.70758
9.70762
9.70768
9.70776
9.70787
9.70799
9.70807
9.87185
9.87166
9.87128
9.87073
9.87002
9.86918
9.86822
9.86717
9.86605
9.8649
9.86375
9.86261
9.86152
9.86051
9.85961
9.85885
9.85824
9.85781
9.85756
9.85748
10.1595
10.1591
10.1583
10.1572
10.1557
10.1539
10.1519
10.1496
10.1473
10.1449
10.1424
10.14
10.1377
10.1355
10.1335
10.1318
10.1304
10.1292
10.1285
10.1281
10.4228
10.4219
10.4202
10.4176
10.4142
10.4102
10.4057
10.4007
10.3955
10.3901
10.3848
10.3796
10.3747
10.3701
10.3659
10.3623
10.3593
10.3569
10.3553
10.3545
10.9556
10.9538
10.9502
10.9449
10.9381
10.9299
10.9207
10.9107
10.9003
10.8896
10.8789
10.8686
10.8589
10.85
10.8419
10.835
10.8291
10.8244
10.8211
10.8193
30.5314
30.5285
30.5228
30.5144
30.5036
30.4909
30.4765
30.461
30.4448
30.4283
30.4119
30.3961
30.3812
30.3674
30.355
30.3441
30.3351
30.328
30.3229
30.3201
29.4674
29.4663
29.4642
29.4611
29.4571
29.4523
29.4469
29.4411
29.435
29.4288
29.4226
29.4166
29.411
29.4057
29.401
29.3968
29.3934
29.3907
29.3888
29.3878
28.7615
28.7616
28.7617
28.7618
28.762
28.7623
28.7625
28.7628
28.7631
28.7634
28.7637
28.7639
28.7641
28.7643
28.7645
28.7647
28.7648
28.7649
28.765
28.7651
28.238
28.2386
28.24
28.242
28.2445
28.2476
28.251
28.2546
28.2585
28.2624
28.2662
28.27
28.2735
28.2768
28.2797
28.2823
28.2845
28.2862
28.2874
28.2881
27.893
27.8941
27.8963
27.8995
27.9036
27.9085
27.914
27.9199
27.9261
27.9325
27.9388
27.9449
27.9508
27.9562
27.961
27.9653
27.9689
27.9717
27.9737
27.9748
27.607
27.6083
27.6109
27.6146
27.6195
27.6252
27.6318
27.6388
27.6462
27.6538
27.6614
27.6687
27.6757
27.6822
27.6881
27.6933
27.6976
27.7011
27.7035
27.7048
27.4441
27.4455
27.4482
27.4522
27.4574
27.4635
27.4705
27.4781
27.486
27.4942
27.5023
27.5102
27.5178
27.5249
27.5313
27.5369
27.5416
27.5454
27.548
27.5494
27.3261
27.3274
27.3301
27.3341
27.3391
27.3452
27.3521
27.3596
27.3674
27.3755
27.3837
27.3916
27.3992
27.4063
27.4127
27.4184
27.4232
27.4269
27.4296
27.431
27.28
27.2812
27.2837
27.2874
27.2922
27.2979
27.3043
27.3114
27.3189
27.3265
27.3342
27.3418
27.349
27.3558
27.362
27.3674
27.3721
27.3757
27.3783
27.3796
27.2971
27.2983
27.3006
27.304
27.3084
27.3137
27.3197
27.3263
27.3332
27.3404
27.3476
27.3547
27.3614
27.3678
27.3736
27.3788
27.3832
27.3867
27.3891
27.3904
27.3443
27.3453
27.3474
27.3504
27.3543
27.359
27.3643
27.3701
27.3763
27.3827
27.3892
27.3955
27.4017
27.4074
27.4127
27.4174
27.4214
27.4246
27.4269
27.4281
27.4891
27.49
27.4917
27.4944
27.4977
27.5018
27.5064
27.5115
27.517
27.5226
27.5282
27.5338
27.5391
27.5442
27.5489
27.5531
27.5566
27.5595
27.5616
27.5627
27.6381
27.6388
27.6402
27.6422
27.6449
27.6481
27.6517
27.6557
27.66
27.6644
27.6689
27.6733
27.6776
27.6817
27.6854
27.6888
27.6918
27.6942
27.696
27.697
27.9196
27.9201
27.9211
27.9225
27.9244
27.9267
27.9294
27.9322
27.9353
27.9385
27.9418
27.945
27.9481
27.951
27.9538
27.9563
27.9586
27.9604
27.9619
27.9626
28.2036
28.2038
28.2042
28.2048
28.2056
28.2065
28.2076
28.2088
28.2101
28.2114
28.2128
28.2141
28.2155
28.2168
28.218
28.2193
28.2204
28.2215
28.2224
28.2229
28.6546
28.6545
28.6542
28.6539
28.6534
28.6529
28.6523
28.6516
28.651
28.6503
28.6496
28.6489
28.6483
28.6477
28.6473
28.6469
28.6468
28.6468
28.647
28.6472
29.1359
29.1353
29.134
29.1321
29.1297
29.1267
29.1234
29.1198
29.116
29.112
29.1081
29.1042
29.1005
29.097
29.0939
29.0912
29.0891
29.0875
29.0866
29.0862
29.8478
29.8465
29.8439
29.8401
29.8352
29.8293
29.8227
29.8154
29.8076
29.7996
29.7916
29.7838
29.7762
29.7691
29.7627
29.7571
29.7524
29.7487
29.7462
29.7451
30.7071
30.7047
30.6998
30.6926
30.6834
30.6723
30.6597
30.646
30.6315
30.6166
30.6017
30.5871
30.5732
30.5602
30.5484
30.538
30.5293
30.5224
30.5175
30.5151
32.0107
32.0066
31.9984
31.9864
31.971
31.9525
31.9315
31.9086
31.8846
31.8599
31.8353
31.8113
31.7885
31.7673
31.7481
31.7312
31.7169
31.7054
31.6972
31.6926
49.8859
49.8826
49.876
49.8662
49.8536
49.8386
49.8217
49.8035
49.7843
49.7647
49.7453
49.7263
49.7084
49.6916
49.6765
49.6632
49.6519
49.643
49.6366
49.6331
48.6112
48.6098
48.6069
48.6028
48.5975
48.5912
48.5841
48.5764
48.5682
48.5599
48.5516
48.5435
48.5358
48.5286
48.522
48.5162
48.5114
48.5075
48.5048
48.5034
47.6654
47.6653
47.6652
47.665
47.6648
47.6646
47.6643
47.664
47.6636
47.6633
47.6629
47.6625
47.6621
47.6618
47.6614
47.6611
47.6608
47.6606
47.6604
47.6604
46.9011
46.9019
46.9035
46.9058
46.9087
46.9123
46.9162
46.9205
46.925
46.9295
46.9341
46.9385
46.9427
46.9466
46.9502
46.9533
46.9559
46.958
46.9595
46.9603
46.3955
46.3968
46.3995
46.4035
46.4085
46.4146
46.4214
46.4288
46.4366
46.4445
46.4525
46.4603
46.4677
46.4746
46.4809
46.4864
46.4911
46.4948
46.4974
46.4988
45.961
45.9627
45.966
45.9708
45.977
45.9844
45.9927
46.0018
46.0114
46.0213
46.0311
46.0408
46.05
46.0587
46.0666
46.0735
46.0794
46.0841
46.0873
46.0891
45.7106
45.7124
45.7159
45.7212
45.7279
45.7359
45.745
45.7549
45.7654
45.7762
45.787
45.7976
45.8078
45.8173
45.8261
45.8338
45.8404
45.8456
45.8493
45.8512
45.5259
45.5277
45.5312
45.5364
45.5431
45.5511
45.5602
45.5702
45.5808
45.5916
45.6026
45.6134
45.6238
45.6335
45.6425
45.6504
45.6572
45.6626
45.6664
45.6684
45.4511
45.4528
45.4561
45.4611
45.4674
45.4751
45.4838
45.4933
45.5034
45.5139
45.5244
45.5349
45.5449
45.5544
45.5631
45.5709
45.5776
45.5829
45.5867
45.5887
45.4706
45.4721
45.4752
45.4798
45.4857
45.4928
45.5009
45.5098
45.5193
45.5291
45.539
45.5488
45.5583
45.5673
45.5757
45.5831
45.5895
45.5947
45.5984
45.6003
45.5423
45.5436
45.5464
45.5504
45.5557
45.562
45.5693
45.5772
45.5857
45.5946
45.6035
45.6124
45.621
45.6292
45.6368
45.6437
45.6496
45.6544
45.6579
45.6597
45.7589
45.76
45.7624
45.7658
45.7703
45.7758
45.782
45.7889
45.7962
45.8039
45.8116
45.8194
45.8269
45.8341
45.8408
45.8469
45.8522
45.8566
45.8598
45.8616
45.9878
45.9887
45.9905
45.9932
45.9967
46.0009
46.0058
46.0112
46.0169
46.0229
46.029
46.0352
46.0412
46.0469
46.0524
46.0574
46.0618
46.0655
46.0683
46.0698
46.4148
46.4154
46.4166
46.4184
46.4208
46.4236
46.4269
46.4305
46.4345
46.4386
46.4428
46.447
46.4512
46.4552
46.4591
46.4627
46.4661
46.4689
46.4711
46.4724
46.8434
46.8436
46.8439
46.8445
46.8453
46.8462
46.8473
46.8486
46.85
46.8514
46.8529
46.8545
46.8561
46.8578
46.8594
46.8611
46.8628
46.8644
46.8657
46.8665
47.5273
47.527
47.5264
47.5255
47.5244
47.5231
47.5217
47.5201
47.5185
47.5168
47.5151
47.5135
47.5121
47.5108
47.5098
47.509
47.5086
47.5086
47.5088
47.509
48.2348
48.2338
48.2318
48.2288
48.225
48.2204
48.2152
48.2095
48.2035
48.1973
48.191
48.1848
48.179
48.1735
48.1685
48.1643
48.1609
48.1583
48.1568
48.1561
49.2866
49.2847
49.2809
49.2753
49.268
49.2593
49.2494
49.2385
49.2269
49.215
49.203
49.1911
49.1796
49.1689
49.159
49.1503
49.143
49.1373
49.1334
49.1315
50.4773
50.4741
50.4675
50.4578
50.4453
50.4303
50.4131
50.3943
50.3744
50.3539
50.3331
50.3128
50.2931
50.2746
50.2576
50.2425
50.2295
50.219
50.2116
50.2077
52.128
52.123
52.1129
52.098
52.0787
52.0555
52.0292
52.0003
51.9697
51.9383
51.9066
51.8756
51.8457
51.8175
51.7916
51.7684
51.7483
51.7319
51.7197
51.7129
68.5138
68.5105
68.5041
68.4945
68.4822
68.4676
68.451
68.433
68.414
68.3946
68.3751
68.3561
68.3378
68.3207
68.3051
68.2911
68.2792
68.2696
68.2626
68.2587
67.152
67.1504
67.1474
67.143
67.1373
67.1305
67.1228
67.1144
67.1055
67.0963
67.0872
67.0782
67.0695
67.0614
67.0539
67.0473
67.0416
67.037
67.0337
67.032
66.1131
66.1129
66.1127
66.1123
66.1118
66.1112
66.1106
66.1098
66.109
66.1081
66.1072
66.1063
66.1055
66.1046
66.1038
66.1031
66.1024
66.1019
66.1016
66.1014
65.2327
65.2335
65.235
65.2373
65.2402
65.2436
65.2475
65.2518
65.2562
65.2608
65.2653
65.2698
65.2741
65.2781
65.2817
65.2849
65.2876
65.2898
65.2913
65.2922
64.6282
64.6296
64.6323
64.6364
64.6416
64.6479
64.655
64.6627
64.6708
64.6792
64.6876
64.6959
64.7038
64.7113
64.7181
64.7242
64.7293
64.7334
64.7364
64.7379
64.1118
64.1135
64.117
64.1221
64.1286
64.1365
64.1454
64.1552
64.1655
64.1761
64.1868
64.1974
64.2075
64.2171
64.226
64.2338
64.2405
64.2458
64.2496
64.2517
63.7968
63.7987
63.8025
63.8081
63.8153
63.824
63.8339
63.8447
63.8561
63.868
63.8799
63.8917
63.9032
63.914
63.9239
63.9328
63.9405
63.9466
63.951
63.9533
63.571
63.5729
63.5767
63.5824
63.5897
63.5985
63.6085
63.6195
63.6312
63.6434
63.6557
63.6679
63.6797
63.6909
63.7013
63.7106
63.7186
63.7251
63.7298
63.7323
63.472
63.4739
63.4776
63.483
63.49
63.4985
63.5082
63.5188
63.5302
63.542
63.554
63.5659
63.5775
63.5886
63.5989
63.6082
63.6162
63.6228
63.6275
63.63
63.4905
63.4922
63.4956
63.5006
63.5072
63.5151
63.5242
63.5342
63.5449
63.5561
63.5674
63.5788
63.5898
63.6005
63.6104
63.6194
63.6273
63.6337
63.6384
63.641
63.5783
63.5798
63.5828
63.5873
63.5931
63.6002
63.6084
63.6174
63.627
63.6371
63.6474
63.6577
63.6678
63.6776
63.6868
63.6952
63.7026
63.7087
63.7132
63.7157
63.8363
63.8376
63.8401
63.8439
63.8489
63.8549
63.8619
63.8696
63.878
63.8867
63.8956
63.9046
63.9134
63.922
63.9302
63.9378
63.9445
63.9502
63.9544
63.9568
64.1235
64.1245
64.1264
64.1293
64.1331
64.1378
64.1432
64.1491
64.1556
64.1624
64.1694
64.1765
64.1835
64.1905
64.1971
64.2034
64.209
64.2139
64.2175
64.2197
64.6337
64.6343
64.6356
64.6374
64.6398
64.6428
64.6463
64.6502
64.6545
64.659
64.6636
64.6684
64.6733
64.6781
64.6828
64.6874
64.6917
64.6954
64.6984
64.7002
65.1644
65.1645
65.1647
65.1652
65.1657
65.1665
65.1674
65.1685
65.1697
65.171
65.1725
65.1741
65.1758
65.1777
65.1797
65.1818
65.184
65.1861
65.1879
65.1891
65.9718
65.9714
65.9705
65.9692
65.9676
65.9657
65.9636
65.9614
65.959
65.9566
65.9542
65.952
65.95
65.9482
65.9469
65.946
65.9455
65.9455
65.9459
65.9463
66.8284
66.8271
66.8246
66.821
66.8163
66.8107
66.8043
66.7973
66.7898
66.7821
66.7743
66.7667
66.7593
66.7525
66.7463
66.741
66.7366
66.7334
66.7314
66.7306
68.0324
68.0301
68.0257
68.0193
68.0108
68.0007
67.9891
67.9764
67.9628
67.9487
67.9344
67.9202
67.9065
67.8935
67.8815
67.8707
67.8615
67.8543
67.8493
67.8469
69.418
69.4144
69.4072
69.3966
69.3828
69.3661
69.3471
69.3261
69.3037
69.2805
69.2569
69.2335
69.2107
69.1889
69.1686
69.1502
69.1341
69.1209
69.1114
69.1063
71.1579
71.1526
71.1421
71.1263
71.1057
71.0809
71.0525
71.0213
70.988
70.9534
70.9184
70.8836
70.8497
70.8172
70.7867
70.7588
70.734
70.7133
70.6975
70.6882
86.7459
86.743
86.7371
86.7285
86.7173
86.7039
86.6887
86.672
86.6544
86.6362
86.6179
86.5998
86.5823
86.5657
86.5502
86.5363
86.5243
86.5144
86.507
86.5028
85.3671
85.3657
85.3629
85.3587
85.3533
85.3469
85.3395
85.3315
85.3229
85.3141
85.3052
85.2964
85.2878
85.2797
85.2721
85.2653
85.2594
85.2545
85.251
85.249
84.284
84.2839
84.2836
84.2832
84.2826
84.2819
84.2811
84.2802
84.2793
84.2783
84.2772
84.2762
84.2752
84.2741
84.2732
84.2723
84.2714
84.2707
84.2703
84.2701
83.3439
83.3446
83.346
83.348
83.3507
83.3539
83.3574
83.3614
83.3655
83.3697
83.374
83.3782
83.3823
83.3861
83.3896
83.3927
83.3953
83.3974
83.3989
83.3997
82.6841
82.6854
82.688
82.6918
82.6968
82.7027
82.7094
82.7168
82.7246
82.7327
82.7409
82.749
82.7568
82.7642
82.771
82.7772
82.7824
82.7866
82.7896
82.7913
82.1131
82.1148
82.1181
82.123
82.1293
82.1369
82.1455
82.155
82.1651
82.1756
82.1862
82.1967
82.2069
82.2167
82.2257
82.2338
82.2408
82.2464
82.2505
82.2527
81.7569
81.7587
81.7624
81.7678
81.7749
81.7834
81.7931
81.8037
81.8151
81.8269
81.839
81.8509
81.8626
81.8738
81.8842
81.8935
81.9017
81.9083
81.913
81.9157
81.5001
81.502
81.5058
81.5113
81.5185
81.5273
81.5372
81.5483
81.56
81.5723
81.5848
81.5974
81.6096
81.6214
81.6324
81.6424
81.6511
81.6582
81.6634
81.6663
81.3836
81.3855
81.3891
81.3945
81.4015
81.41
81.4197
81.4305
81.4421
81.4542
81.4665
81.4789
81.4912
81.5029
81.514
81.5242
81.5331
81.5404
81.5458
81.5488
81.3984
81.4001
81.4034
81.4085
81.4151
81.4231
81.4323
81.4425
81.4535
81.465
81.4768
81.4887
81.5005
81.5119
81.5228
81.5328
81.5416
81.549
81.5545
81.5575
81.4951
81.4966
81.4996
81.5041
81.51
81.5172
81.5255
81.5347
81.5446
81.5551
81.5659
81.5769
81.5877
81.5984
81.6085
81.618
81.6265
81.6336
81.639
81.642
81.7807
81.782
81.7845
81.7883
81.7933
81.7994
81.8065
81.8144
81.8229
81.832
81.8414
81.851
81.8606
81.87
81.8792
81.8878
81.8956
81.9023
81.9074
81.9103
82.1048
82.1057
82.1076
82.1104
82.1142
82.1188
82.1242
82.1303
82.137
82.144
82.1514
82.159
82.1666
82.1743
82.1818
82.189
82.1957
82.2015
82.206
82.2086
82.6727
82.6733
82.6744
82.6761
82.6784
82.6813
82.6847
82.6885
82.6928
82.6974
82.7022
82.7073
82.7126
82.7179
82.7233
82.7287
82.7338
82.7384
82.7421
82.7444
83.2671
83.2671
83.2672
83.2675
83.2678
83.2684
83.2691
83.2699
83.271
83.2722
83.2736
83.2752
83.277
83.2791
83.2815
83.2841
83.2868
83.2894
83.2918
83.2933
84.1604
84.1598
84.1588
84.1572
84.1553
84.153
84.1505
84.1478
84.145
84.1421
84.1393
84.1368
84.1345
84.1326
84.1311
84.1302
84.1299
84.1301
84.1306
84.1312
85.1003
85.0989
85.0963
85.0924
85.0873
85.0812
85.0743
85.0667
85.0586
85.0502
85.0417
85.0333
85.0253
85.0178
85.0109
85.005
85.0001
84.9965
84.9942
84.9933
86.4125
86.4102
86.4056
86.3988
86.39
86.3794
86.3672
86.3537
86.3393
86.3242
86.3088
86.2935
86.2785
86.2641
86.2507
86.2386
86.2281
86.2197
86.2138
86.2109
87.8682
87.8647
87.8575
87.8469
87.8329
87.816
87.7965
87.7749
87.7518
87.7276
87.7028
87.6779
87.6534
87.6296
87.607
87.5862
87.5676
87.5521
87.5406
87.5343
89.7031
89.6982
89.6881
89.673
89.6531
89.629
89.6013
89.5706
89.5376
89.503
89.4676
89.4319
89.3966
89.3621
89.3291
89.2982
89.2702
89.2462
89.2276
89.2163
104.548
104.546
104.541
104.533
104.524
104.512
104.499
104.485
104.47
104.454
104.437
104.421
104.405
104.39
104.376
104.362
104.351
104.341
104.334
104.33
103.205
103.204
103.202
103.198
103.193
103.188
103.181
103.174
103.167
103.159
103.151
103.142
103.134
103.127
103.12
103.113
103.107
103.102
103.099
103.097
102.124
102.124
102.123
102.123
102.122
102.122
102.121
102.12
102.119
102.118
102.117
102.116
102.114
102.113
102.112
102.111
102.11
102.109
102.109
102.108
101.174
101.174
101.176
101.177
101.18
101.182
101.185
101.189
101.192
101.196
101.2
101.204
101.207
101.211
101.214
101.217
101.219
101.221
101.222
101.223
100.492
100.493
100.495
100.498
100.503
100.508
100.514
100.521
100.528
100.535
100.542
100.55
100.557
100.564
100.57
100.576
100.581
100.585
100.588
100.59
99.9009
99.9024
99.9054
99.9097
99.9154
99.9222
99.9301
99.9387
99.9479
99.9576
99.9674
99.9772
99.9869
99.9962
100.005
100.013
100.019
100.025
100.029
100.031
99.5215
99.5231
99.5265
99.5314
99.5378
99.5456
99.5545
99.5643
99.5749
99.5859
99.5973
99.6086
99.6198
99.6306
99.6408
99.6501
99.6582
99.6649
99.6697
99.6724
99.2498
99.2516
99.255
99.2601
99.2668
99.2748
99.2841
99.2944
99.3055
99.3171
99.3291
99.3412
99.3531
99.3647
99.3757
99.3858
99.3946
99.402
99.4074
99.4105
99.1208
99.1225
99.1259
99.1309
99.1374
99.1453
99.1545
99.1647
99.1757
99.1873
99.1993
99.2115
99.2235
99.2353
99.2466
99.257
99.2662
99.274
99.2797
99.283
99.1321
99.1336
99.1368
99.1415
99.1477
99.1552
99.164
99.1737
99.1843
99.1955
99.207
99.2188
99.2307
99.2423
99.2534
99.2639
99.2732
99.2811
99.2871
99.2905
99.2311
99.2325
99.2353
99.2395
99.245
99.2519
99.2598
99.2687
99.2783
99.2886
99.2993
99.3102
99.3213
99.3322
99.3428
99.3529
99.362
99.3697
99.3757
99.3791
99.5285
99.5296
99.532
99.5355
99.5402
99.546
99.5528
99.5604
99.5688
99.5777
99.5871
99.5967
99.6066
99.6164
99.6261
99.6354
99.6439
99.6513
99.657
99.6603
99.8702
99.8711
99.8728
99.8754
99.879
99.8834
99.8885
99.8944
99.9009
99.9078
99.9152
99.9229
99.9309
99.939
99.9471
99.955
99.9623
99.9688
99.9739
99.9769
100.463
100.463
100.464
100.466
100.468
100.47
100.474
100.477
100.481
100.486
100.491
100.496
100.501
100.507
100.513
100.519
100.525
100.53
100.534
100.537
101.087
101.087
101.087
101.087
101.087
101.088
101.088
101.089
101.09
101.091
101.092
101.094
101.096
101.099
101.101
101.104
101.107
101.111
101.113
101.115
102.009
102.009
102.008
102.006
102.004
102.002
101.999
101.996
101.993
101.99
101.988
101.985
101.983
101.981
101.98
101.979
101.979
101.98
101.98
101.981
102.984
102.982
102.98
102.976
102.971
102.965
102.958
102.95
102.942
102.934
102.925
102.917
102.909
102.901
102.894
102.888
102.883
102.879
102.877
102.876
104.311
104.309
104.305
104.298
104.29
104.28
104.268
104.255
104.24
104.226
104.21
104.195
104.18
104.165
104.151
104.139
104.128
104.119
104.112
104.109
105.792
105.789
105.782
105.772
105.759
105.743
105.724
105.703
105.681
105.657
105.633
105.608
105.583
105.559
105.535
105.513
105.493
105.476
105.463
105.456
107.614
107.61
107.601
107.587
107.569
107.546
107.52
107.491
107.46
107.426
107.392
107.356
107.321
107.285
107.25
107.217
107.187
107.16
107.139
107.126
122.048
122.046
122.042
122.036
122.028
122.019
122.008
121.997
121.984
121.971
121.957
121.943
121.929
121.916
121.903
121.891
121.881
121.872
121.865
121.862
120.749
120.748
120.746
120.743
120.739
120.734
120.729
120.723
120.716
120.71
120.703
120.696
120.688
120.682
120.675
120.669
120.663
120.659
120.656
120.654
119.703
119.703
119.703
119.703
119.702
119.701
119.701
119.7
119.699
119.698
119.697
119.696
119.694
119.693
119.692
119.691
119.69
119.689
119.688
119.688
118.765
118.765
118.766
118.768
118.77
118.772
118.774
118.777
118.78
118.783
118.786
118.789
118.792
118.795
118.798
118.8
118.802
118.803
118.805
118.805
118.085
118.086
118.088
118.091
118.095
118.099
118.104
118.11
118.116
118.122
118.128
118.134
118.141
118.147
118.153
118.158
118.162
118.166
118.168
118.17
117.491
117.492
117.494
117.498
117.503
117.509
117.515
117.523
117.53
117.539
117.547
117.556
117.565
117.573
117.581
117.588
117.594
117.599
117.603
117.605
117.104
117.105
117.108
117.112
117.118
117.124
117.132
117.141
117.15
117.16
117.17
117.18
117.19
117.2
117.209
117.218
117.226
117.232
117.237
117.239
116.826
116.827
116.83
116.834
116.84
116.847
116.855
116.865
116.874
116.885
116.896
116.907
116.918
116.929
116.939
116.949
116.957
116.964
116.969
116.972
116.69
116.691
116.694
116.698
116.704
116.711
116.719
116.728
116.738
116.749
116.76
116.771
116.783
116.794
116.805
116.815
116.824
116.831
116.837
116.84
116.697
116.698
116.701
116.705
116.711
116.718
116.725
116.734
116.744
116.754
116.765
116.776
116.787
116.799
116.81
116.82
116.829
116.837
116.843
116.847
116.794
116.795
116.798
116.801
116.806
116.813
116.82
116.828
116.837
116.846
116.857
116.867
116.878
116.888
116.899
116.909
116.918
116.926
116.932
116.936
117.093
117.094
117.096
117.099
117.103
117.109
117.115
117.122
117.13
117.138
117.147
117.156
117.166
117.176
117.186
117.195
117.204
117.211
117.217
117.221
117.437
117.438
117.439
117.442
117.445
117.449
117.454
117.459
117.465
117.472
117.479
117.487
117.495
117.503
117.511
117.519
117.527
117.533
117.539
117.542
118.034
118.035
118.036
118.037
118.039
118.041
118.044
118.047
118.051
118.056
118.06
118.066
118.071
118.077
118.083
118.09
118.096
118.101
118.106
118.109
118.662
118.662
118.662
118.662
118.662
118.662
118.663
118.663
118.664
118.665
118.667
118.669
118.671
118.674
118.677
118.68
118.684
118.687
118.69
118.692
119.587
119.586
119.585
119.584
119.582
119.579
119.577
119.574
119.572
119.569
119.566
119.564
119.562
119.561
119.56
119.56
119.56
119.56
119.561
119.562
120.558
120.557
120.554
120.551
120.546
120.54
120.534
120.527
120.519
120.511
120.503
120.495
120.488
120.48
120.474
120.468
120.463
120.459
120.457
120.456
121.869
121.867
121.863
121.857
121.85
121.84
121.829
121.817
121.804
121.79
121.776
121.761
121.747
121.732
121.719
121.706
121.695
121.686
121.68
121.677
123.323
123.321
123.315
123.306
123.294
123.279
123.262
123.243
123.223
123.201
123.178
123.154
123.13
123.106
123.082
123.06
123.04
123.022
123.009
123.002
125.085
125.082
125.074
125.061
125.045
125.025
125.001
124.975
124.946
124.915
124.882
124.848
124.813
124.778
124.743
124.709
124.677
124.649
124.627
124.614
139.222
139.22
139.217
139.213
139.207
139.2
139.192
139.183
139.173
139.163
139.152
139.141
139.129
139.118
139.107
139.097
139.088
139.081
139.076
139.073
138
137.999
137.997
137.995
137.992
137.988
137.984
137.979
137.974
137.969
137.963
137.957
137.952
137.946
137.94
137.935
137.93
137.926
137.924
137.922
137.001
137.001
137
137
137
136.999
136.998
136.998
136.997
136.996
136.995
136.994
136.993
136.991
136.99
136.989
136.988
136.987
136.986
136.986
136.102
136.103
136.103
136.104
136.106
136.107
136.109
136.111
136.113
136.116
136.118
136.12
136.123
136.125
136.127
136.128
136.13
136.131
136.131
136.132
135.442
135.443
135.445
135.447
135.45
135.453
135.457
135.461
135.466
135.47
135.476
135.481
135.486
135.491
135.495
135.5
135.503
135.506
135.508
135.509
134.863
134.864
134.866
134.869
134.873
134.877
134.883
134.889
134.895
134.902
134.909
134.916
134.923
134.93
134.937
134.943
134.948
134.952
134.955
134.957
134.481
134.482
134.484
134.488
134.492
134.497
134.504
134.51
134.518
134.526
134.535
134.543
134.552
134.56
134.569
134.576
134.583
134.588
134.592
134.594
134.206
134.208
134.21
134.214
134.218
134.224
134.231
134.239
134.247
134.256
134.265
134.274
134.284
134.294
134.303
134.311
134.319
134.325
134.33
134.333
134.067
134.069
134.071
134.075
134.079
134.085
134.092
134.1
134.109
134.118
134.127
134.137
134.147
134.157
134.167
134.176
134.185
134.192
134.197
134.2
134.072
134.073
134.076
134.079
134.084
134.09
134.096
134.104
134.112
134.121
134.131
134.141
134.151
134.162
134.172
134.181
134.19
134.197
134.203
134.206
134.163
134.164
134.166
134.169
134.174
134.179
134.185
134.192
134.2
134.209
134.218
134.228
134.237
134.247
134.257
134.267
134.276
134.283
134.288
134.292
134.455
134.455
134.457
134.46
134.464
134.468
134.474
134.48
134.487
134.495
134.503
134.511
134.521
134.53
134.539
134.548
134.557
134.564
134.569
134.572
134.789
134.789
134.79
134.792
134.795
134.799
134.803
134.808
134.813
134.819
134.826
134.833
134.841
134.849
134.857
134.865
134.872
134.878
134.883
134.886
135.371
135.371
135.372
135.373
135.374
135.376
135.379
135.382
135.386
135.39
135.394
135.399
135.405
135.411
135.417
135.423
135.429
135.434
135.438
135.441
135.979
135.979
135.978
135.978
135.978
135.979
135.979
135.98
135.981
135.982
135.983
135.985
135.988
135.991
135.994
135.997
136
136.004
136.006
136.008
136.874
136.873
136.872
136.871
136.869
136.867
136.864
136.862
136.86
136.858
136.856
136.854
136.852
136.851
136.851
136.851
136.851
136.852
136.853
136.854
137.806
137.805
137.803
137.8
137.795
137.79
137.785
137.779
137.772
137.765
137.758
137.751
137.744
137.737
137.731
137.726
137.721
137.718
137.716
137.715
139.061
139.059
139.055
139.05
139.043
139.035
139.025
139.015
139.003
138.991
138.978
138.965
138.951
138.938
138.926
138.914
138.904
138.896
138.89
138.887
140.439
140.436
140.431
140.423
140.413
140.4
140.386
140.369
140.35
140.331
140.31
140.288
140.265
140.243
140.22
140.199
140.18
140.163
140.151
140.145
142.095
142.092
142.085
142.074
142.06
142.043
142.022
141.999
141.973
141.945
141.916
141.884
141.851
141.817
141.784
141.751
141.72
141.694
141.673
141.661
156.137
156.136
156.134
156.131
156.127
156.123
156.117
156.111
156.104
156.097
156.089
156.081
156.072
156.064
156.056
156.048
156.042
156.037
156.034
156.033
154.994
154.993
154.992
154.99
154.988
154.986
154.983
154.979
154.976
154.972
154.967
154.963
154.958
154.954
154.949
154.945
154.942
154.939
154.937
154.936
154.058
154.058
154.058
154.058
154.057
154.057
154.056
154.055
154.055
154.054
154.053
154.052
154.051
154.049
154.048
154.047
154.046
154.045
154.044
154.043
153.206
153.206
153.207
153.207
153.208
153.209
153.21
153.211
153.213
153.214
153.215
153.217
153.218
153.22
153.221
153.222
153.223
153.223
153.223
153.223
152.58
152.58
152.581
152.583
152.584
152.587
152.589
152.592
152.595
152.599
152.602
152.606
152.61
152.613
152.617
152.619
152.622
152.624
152.624
152.625
152.025
152.025
152.027
152.029
152.031
152.034
152.038
152.042
152.047
152.052
152.057
152.062
152.068
152.073
152.078
152.083
152.087
152.09
152.091
152.092
151.655
151.656
151.658
151.66
151.664
151.667
151.672
151.677
151.683
151.689
151.696
151.702
151.709
151.716
151.722
151.728
151.733
151.737
151.74
151.742
151.39
151.391
151.393
151.396
151.399
151.404
151.409
151.415
151.421
151.428
151.435
151.443
151.451
151.459
151.466
151.473
151.479
151.484
151.488
151.49
151.251
151.252
151.254
151.257
151.261
151.265
151.271
151.277
151.284
151.291
151.299
151.307
151.316
151.324
151.332
151.34
151.347
151.353
151.357
151.359
151.253
151.254
151.256
151.259
151.263
151.268
151.273
151.279
151.286
151.294
151.302
151.31
151.319
151.328
151.336
151.345
151.352
151.358
151.362
151.365
151.335
151.336
151.338
151.341
151.344
151.348
151.354
151.36
151.366
151.373
151.381
151.39
151.398
151.407
151.416
151.424
151.431
151.437
151.442
151.444
151.613
151.614
151.615
151.618
151.621
151.625
151.629
151.635
151.641
151.647
151.654
151.662
151.67
151.678
151.687
151.695
151.702
151.708
151.712
151.714
151.927
151.928
151.929
151.93
151.933
151.936
151.939
151.944
151.948
151.954
151.96
151.966
151.973
151.98
151.987
151.994
152
152.006
152.01
152.012
152.483
152.483
152.483
152.484
152.485
152.487
152.49
152.492
152.496
152.499
152.504
152.508
152.513
152.519
152.524
152.53
152.535
152.539
152.543
152.545
153.055
153.054
153.054
153.054
153.054
153.054
153.055
153.055
153.056
153.058
153.059
153.061
153.064
153.066
153.069
153.072
153.075
153.078
153.08
153.082
153.906
153.905
153.904
153.903
153.901
153.899
153.898
153.896
153.894
153.892
153.891
153.89
153.889
153.888
153.888
153.888
153.889
153.889
153.89
153.891
154.777
154.776
154.774
154.771
154.767
154.763
154.758
154.753
154.748
154.742
154.736
154.73
154.724
154.718
154.713
154.708
154.705
154.702
154.7
154.7
155.955
155.953
155.95
155.946
155.94
155.933
155.925
155.916
155.906
155.896
155.885
155.874
155.862
155.851
155.84
155.83
155.822
155.815
155.81
155.808
157.236
157.233
157.229
157.223
157.214
157.203
157.191
157.177
157.161
157.145
157.126
157.107
157.088
157.068
157.048
157.029
157.012
156.999
156.989
156.984
158.737
158.734
158.729
158.72
158.708
158.693
158.676
158.656
158.634
158.61
158.583
158.555
158.525
158.494
158.464
158.434
158.407
158.384
158.368
158.358
172.781
172.781
172.78
172.778
172.776
172.774
172.771
172.768
172.764
172.76
172.755
172.75
172.745
172.739
172.734
172.73
172.726
172.724
172.724
172.724
171.725
171.725
171.725
171.724
171.722
171.721
171.719
171.717
171.715
171.712
171.709
171.706
171.703
171.7
171.697
171.694
171.692
171.69
171.689
171.689
170.86
170.86
170.86
170.86
170.859
170.859
170.858
170.857
170.857
170.856
170.855
170.854
170.853
170.852
170.851
170.85
170.848
170.847
170.846
170.845
170.072
170.072
170.072
170.072
170.072
170.073
170.073
170.073
170.074
170.074
170.075
170.075
170.076
170.076
170.077
170.077
170.077
170.076
170.076
170.075
169.489
169.489
169.49
169.49
169.491
169.492
169.493
169.495
169.496
169.498
169.5