/*--------------------------------*- C++ -*----------------------------------*\
| =========                 |                                                 |
| \\      /  F ield         | OpenFOAM: The Open Source CFD Toolbox           |
|  \\    /   O peration     | Version:  2212                                  |
|   \\  /    A nd           | Website:  www.openfoam.com                      |
|    \\/     M anipulation  |                                                 |
\*---------------------------------------------------------------------------*/
FoamFile
{
    version     2.0;
    format      ascii;
    arch        "LSB;label=32;scalar=64";
    class       volScalarField;
    location    "0.00424";
    object      alphat;
}
// * * * * * * * * * * * * * * * * * * * * * * * * * * * * * * * * * * * * * //

dimensions      [1 -1 -1 0 0 0 0];

internalField   nonuniform List<scalar> 
7220
(
0.000621607
0.00179106
0.00176269
0.00169867
0.00175426
0.00172524
0.00170546
0.00169854
0.0016733
0.00168856
0.000640714
0.00117041
0.00127231
0.001394
0.00114544
0.00138188
0.000202076
0.000893888
0.000421581
0.000829196
0.000934018
0.000424084
0.00156733
0.000233058
0.00069465
0.00153805
0.00134194
0.00116399
0.000918431
0.000822027
0.000822003
0.00092161
0.00169079
0.000775851
0.0013229
0.000553691
0.00179583
0.000641907
0.00062711
0.000440312
0.000448048
0.000448062
0.000440332
0.000544026
0.000543883
0.00054418
0.000543936
0.000544337
0.000457058
0.000467812
0.000467811
0.000457064
0.000480544
0.000495114
0.00049511
0.000480539
0.000511031
0.000527411
0.000527463
0.000511043
0.000543822
0.000552377
0.000552433
0.000543938
0.000555615
0.000558386
0.000558425
0.000555658
0.000559923
0.000560313
0.000560298
0.000559929
0.000559781
0.000558445
0.000558379
0.000559745
0.00055644
0.000554083
0.000554012
0.000556368
0.00055164
0.000549266
0.000549271
0.000551622
0.000545407
0.000547076
0.00054702
0.000545266
0.000544142
0.000544875
0.000433791
0.000433816
0.000447387
0.000439733
0.000544677
0.000545075
0.000543701
0.000543998
0.000546221
0.000550791
0.000548435
0.000555577
0.000553243
0.000558839
0.000557555
0.00055891
0.000559327
0.000554596
0.000557356
0.000542543
0.000551337
0.000509925
0.000526219
0.000479617
0.000494097
0.000456301
0.000466975
0.000439673
0.000447344
0.000466971
0.000456321
0.000494082
0.000479598
0.000526365
0.000509956
0.000551521
0.000542897
0.000557501
0.000554743
0.000559345
0.000558977
0.000557409
0.000558795
0.000553037
0.000555387
0.000548413
0.000550701
0.000546339
0.000544485
0.000433213
0.000433288
0.000542877
0.000543609
0.000546321
0.000545006
0.000543379
0.000542961
0.000542027
0.000542898
0.000543263
0.000541656
0.00054475
0.000543081
0.000549188
0.000546892
0.000553863
0.000551587
0.000556988
0.000555781
0.000556944
0.000557404
0.000552648
0.000555381
0.000540183
0.000549382
0.000507798
0.000523968
0.000477834
0.000492134
0.000454867
0.000465374
0.000438507
0.000446041
0.000427818
0.000426884
0.000432175
0.000428375
0.000428346
0.000432298
0.000427027
0.000427906
0.000446108
0.000438603
0.000465363
0.000454897
0.000492108
0.000477797
0.000524195
0.000507847
0.000549705
0.000540756
0.000555689
0.000552949
0.000557524
0.000557136
0.000555644
0.000557016
0.000551343
0.000553645
0.000546902
0.000549101
0.000544938
0.000545166
0.000543608
0.000541349
0.000542001
0.000423135
0.000422285
0.000430925
0.000425809
0.000546763
0.000547516
0.000548722
0.000544328
0.000540193
0.000546069
0.000543708
0.000542015
0.000541403
0.000539899
0.000542754
0.000541175
0.000546995
0.000544798
0.000551447
0.000549287
0.000554333
0.000553243
0.000554125
0.000554647
0.000549844
0.000552533
0.000536903
0.000546622
0.00050477
0.000520777
0.000475302
0.00048934
0.000452856
0.000463113
0.000436901
0.000444233
0.000425617
0.000430759
0.000423655
0.000423623
0.000422444
0.000423233
0.00044432
0.000437031
0.000463091
0.000452891
0.000489292
0.000475243
0.000521066
0.00050482
0.000547114
0.000537642
0.000553058
0.000550332
0.000554955
0.000554516
0.000553256
0.000554538
0.000549207
0.000551364
0.000545036
0.000547103
0.000543197
0.000542152
0.00042114
0.000421353
0.000546784
0.000550647
0.000549197
0.000549299
0.000540357
0.000539533
0.000540093
0.000539631
0.000543181
0.000424112
0.000419791
0.000418361
0.000417381
0.00054626
0.000551878
0.000553016
0.00055451
0.000560593
0.00055595
0.000557442
0.000549392
0.000538497
0.00053812
0.000537927
0.000540435
0.000538994
0.000544398
0.000542347
0.000548497
0.000546514
0.000551044
0.000550112
0.000550636
0.000551234
0.000546366
0.000548991
0.000532799
0.00054316
0.000500996
0.000516795
0.000472167
0.000485868
0.000450384
0.000460319
0.000434967
0.000442036
0.000429068
0.000417152
0.000418966
0.000418189
0.000419454
0.000419419
0.000419071
0.000420047
0.000429271
0.000424345
0.000442141
0.000435126
0.00046029
0.000450425
0.000485795
0.000472092
0.000517127
0.000501039
0.000543859
0.000533668
0.000549753
0.000547073
0.000551762
0.00055125
0.000550345
0.000551472
0.000546702
0.000548636
0.000542874
0.000544787
0.000541176
0.00054202
0.000540431
0.00054762
0.000544429
0.000551533
0.00054166
0.00041594
0.000416212
0.000537545
0.000538001
0.0005377
0.000554866
0.000545355
0.000552576
0.000555757
0.000562467
0.000548845
0.000562985
0.000536547
0.000559027
0.000539933
0.000538063
0.000565531
0.000535923
0.000535864
0.000537902
0.000536643
0.000541498
0.000539637
0.000545141
0.00054339
0.000547285
0.000546536
0.000546656
0.000547339
0.000542369
0.000544932
0.000527942
0.000539112
0.000496559
0.0005121
0.000468562
0.000481815
0.000447591
0.000457154
0.000432821
0.000439572
0.000422465
0.000427204
0.000414637
0.000418327
0.000411341
0.000413584
0.000412497
0.000415235
0.000414524
0.000415692
0.000415655
0.000414701
0.000415344
0.000412774
0.000413819
0.000411649
0.000418617
0.000414943
0.00042744
0.000422732
0.000439701
0.000433011
0.000457134
0.000447646
0.000481749
0.000468485
0.000512506
0.000496633
0.00054007
0.000528964
0.000545922
0.000543296
0.000548104
0.000547502
0.000547045
0.000547965
0.000543906
0.000545565
0.00054048
0.000542217
0.000538961
0.000540159
0.000538544
0.000545842
0.000542591
0.000549953
0.000542286
0.000543931
0.000552882
0.000540451
0.000535444
0.000535769
0.000535686
0.000413332
0.0004102
0.000409721
0.000408725
0.000556503
0.000560353
0.000564158
0.000569163
0.000566683
0.0005737
0.000575987
0.000545403
0.00054832
0.000567991
0.000552158
0.000543613
0.000571464
0.000538637
0.000534574
0.000536196
0.000533615
0.000533736
0.000535172
0.000534137
0.000538343
0.0005367
0.000541484
0.000539978
0.000543225
0.000542662
0.000542376
0.000543145
0.000538071
0.000540573
0.000522395
0.0005346
0.000491601
0.0005068
0.000464572
0.000477309
0.000444612
0.0004537
0.000430584
0.000436979
0.000420776
0.000425274
0.000416842
0.000408427
0.000410424
0.00040945
0.000411929
0.000411277
0.000412357
0.00041232
0.000411452
0.000412037
0.000410656
0.000410533
0.000417164
0.000413667
0.000425545
0.000421076
0.000437143
0.000430812
0.000453721
0.000444704
0.000477309
0.000464546
0.000507334
0.000491761
0.00053585
0.0005236
0.000541758
0.00053921
0.000544157
0.000543458
0.000543485
0.000544176
0.000540882
0.000542247
0.00053788
0.000539426
0.000536577
0.000538276
0.000536603
0.000544117
0.000540766
0.000553706
0.000548393
0.00056007
0.000547028
0.000541867
0.000407438
0.000407756
0.000533425
0.000533275
0.000547528
0.0005493
0.000556884
0.000561129
0.000565503
0.00056978
0.000581339
0.000583572
0.000634054
0.000578282
0.00155535
0.000573931
0.000545864
0.000544301
0.000536911
0.000540237
0.000532558
0.000534344
0.000531191
0.000531527
0.000532268
0.00053148
0.000534968
0.000533558
0.000537618
0.000536334
0.000539004
0.00053861
0.000537993
0.00053881
0.000533679
0.000536129
0.000516296
0.000529612
0.000486297
0.000501084
0.000460387
0.000472534
0.000441507
0.000450088
0.000428354
0.000434346
0.000419142
0.000423377
0.000412114
0.000415429
0.000406565
0.000409161
0.00040432
0.000405895
0.000405042
0.000407673
0.000406798
0.000409046
0.000408447
0.000409444
0.000409409
0.000408612
0.000409147
0.000407053
0.000407891
0.000405335
0.000406173
0.000404627
0.000409516
0.0004069
0.000415781
0.000412475
0.000423683
0.000419473
0.000434564
0.000428626
0.000450178
0.000441661
0.000472624
0.000460443
0.000501742
0.00048656
0.000531219
0.000517674
0.00053753
0.000535039
0.000540129
0.000539343
0.000539809
0.000540291
0.00053769
0.000538788
0.000535107
0.000536447
0.000534051
0.000536507
0.000533666
0.000534715
0.000542564
0.000539103
0.000552101
0.000546915
0.000564506
0.00055791
0.00057925
0.000571583
0.000608651
0.00059737
0.000589852
0.000587746
0.000551293
0.00167888
0.000550545
0.00054903
0.000561544
0.00173125
0.000405871
0.000403793
0.000403265
0.00040269
0.000566235
0.000599511
0.000571134
0.00059203
0.000585852
0.000575888
0.000580618
0.00169595
0.00145995
0.00132682
0.00121952
0.000946342
0.000994532
0.000552222
0.000554046
0.00145223
0.000557555
0.00060638
0.000595523
0.000559913
0.000558121
0.000555859
0.00161807
0.000554382
0.00128091
0.000561788
0.00056034
0.00167308
0.000579963
0.000566875
0.000565939
0.000572828
0.000553208
0.000559301
0.000542874
0.000547722
0.000535228
0.000538696
0.000530511
0.000532496
0.00052869
0.00052926
0.000529254
0.000528721
0.000531447
0.000530266
0.000533596
0.000532549
0.000534668
0.000534429
0.000533511
0.00053437
0.000529259
0.000531614
0.000509787
0.000524
0.000480739
0.000495051
0.000456099
0.000467578
0.000438407
0.000446439
0.000426178
0.000431723
0.000417614
0.000421557
0.000411038
0.000414141
0.000408281
0.000402419
0.000403735
0.000403004
0.000405313
0.000404529
0.000406563
0.000406015
0.000406931
0.0004069
0.000406162
0.000406654
0.000404758
0.000405508
0.000403983
0.000404105
0.00040865
0.000406215
0.000414511
0.000411415
0.000421892
0.000417965
0.000431996
0.000426489
0.000446609
0.000438622
0.000467781
0.000456252
0.00049583
0.000481123
0.000526008
0.000511311
0.00053335
0.000530887
0.000536091
0.000535255
0.000536055
0.000536365
0.000534382
0.000535234
0.000532231
0.000533337
0.000531019
0.000531433
0.000531685
0.000531089
0.000534888
0.000532922
0.000541174
0.00053763
0.000550581
0.00054551
0.000562835
0.000556372
0.000577552
0.000569877
0.00058602
0.00154776
0.00143302
0.0011667
0.000556049
0.000561212
0.00162536
0.000987713
0.000880903
0.000636046
0.000402043
0.000402318
0.00136189
0.000559421
0.000563291
0.000564949
0.000566568
0.000610562
0.000907839
0.000563508
0.000594188
0.000604504
0.000618434
0.000571871
0.000601572
0.00059426
0.000568333
0.000130884
0.000577297
0.00140255
0.000573939
0.00111135
0.000582616
0.000588096
0.00168615
0.00167118
0.000651226
0.00161127
0.00165331
0.00179687
0.000565302
0.000572746
0.000552206
0.000558442
0.000541592
0.000546586
0.000533607
0.000537254
0.000528457
0.000530674
0.000526105
0.000526949
0.000526103
0.00052585
0.000527751
0.000526813
0.000529407
0.000528618
0.000530233
0.000530124
0.000528963
0.000529852
0.000524819
0.000527094
0.000503
0.00051749
0.000474933
0.000488702
0.000451711
0.000462455
0.000435307
0.00044274
0.00042404
0.000429137
0.00041617
0.000419799
0.000410091
0.000412962
0.000405341
0.00040755
0.000401858
0.000403447
0.00040054
0.000400815
0.000400579
0.00040189
0.000401273
0.000403283
0.000402585
0.000404418
0.000403918
0.000404757
0.00040473
0.000404045
0.000404496
0.000402782
0.000403452
0.000401498
0.000402104
0.000400817
0.000401048
0.000400781
0.000403758
0.000402133
0.000407921
0.000405687
0.000413335
0.000410472
0.000420152
0.000416531
0.000429452
0.000424383
0.000442993
0.000435585
0.000462781
0.00045197
0.000489609
0.00047545
0.000519906
0.00050459
0.000529136
0.000526724
0.000531997
0.000531104
0.000532201
0.000532369
0.000530948
0.000531579
0.000529251
0.000530102
0.000528556
0.000528719
0.000529725
0.000528881
0.00053337
0.000531196
0.000539932
0.000536275
0.000549409
0.000544323
0.000561625
0.000555198
0.00057638
0.000568681
0.000584821
0.00154485
0.00148058
0.000584708
0.0013325
0.00126133
0.000561395
0.00056614
0.00163763
0.000637575
0.000623023
0.00144384
0.0016466
0.00166957
0.000565389
0.000593409
0.000603472
0.000615723
0.000572204
0.000569158
0.000570721
0.00161811
0.000612464
0.00181225
0.000401596
0.00040041
0.000399518
0.00039962
0.000603714
0.000860423
0.000570093
0.000631283
0.00169096
0.00176563
0.00176375
0.00175753
0.00161921
0.000578086
0.00158339
0.00158062
0.00158134
0.00139626
0.00155258
0.00148265
0.000575536
0.000648765
0.0010448
0.00120446
0.00142067
0.00126456
0.00105092
0.00058409
0.000596456
0.000581612
0.00168586
0.0005901
0.00157113
0.00156448
0.0015786
0.000587561
0.00168009
0.00157266
0.0016701
0.00165567
0.000653477
0.00181675
0.000668817
0.00108449
0.00056481
0.000572709
0.000551341
0.000557748
0.000540381
0.00054556
0.000531961
0.000535836
0.000526288
0.000528777
0.000523332
0.000524486
0.000522726
0.000522766
0.000523804
0.000523117
0.000525019
0.000524473
0.000525571
0.00052559
0.000524151
0.000525117
0.000519856
0.000522362
0.000495681
0.000509825
0.000468672
0.000481814
0.000447019
0.000456961
0.000431986
0.000438784
0.000421741
0.000426368
0.000414617
0.000417902
0.000409073
0.000411696
0.000404746
0.000406753
0.000403031
0.000399414
0.000399422
0.000399316
0.000400277
0.000399763
0.000401504
0.000400883
0.000402532
0.000402077
0.000402841
0.000402818
0.000402184
0.000402597
0.00040105
0.000401647
0.000399954
0.000400459
0.000399619
0.000400663
0.000403352
0.00040188
0.000407134
0.000405103
0.000412076
0.000409462
0.000418277
0.000414989
0.000426739
0.00042212
0.000439139
0.000432342
0.000457436
0.000447405
0.000482869
0.000469344
0.00051253
0.000497387
0.000524773
0.00052223
0.000527715
0.000526748
0.000528127
0.000528166
0.000527236
0.000527673
0.000525979
0.000526576
0.000525862
0.000525736
0.000527632
0.000526485
0.000531812
0.00052939
0.000538725
0.000534918
0.00054842
0.000543233
0.000560801
0.000554288
0.000575725
0.000567949
0.000584173
0.00135514
0.00135619
0.00158877
0.0014749
0.00160562
0.00105143
0.00118762
0.000567311
0.000614622
0.000614512
0.000571788
0.00153421
0.00158366
0.00158557
0.00153131
0.00157545
0.00155771
0.0016436
0.00144042
8.7034e-05
0.000624861
0.000593951
0.00157695
0.000399406
0.000399626
0.000614494
0.00103125
0.0015038
0.00130112
0.00138871
0.000785367
0.000571985
0.00179965
0.000628704
0.00178932
0.000946775
0.000761635
0.000904153
0.0016898
0.000578482
0.000575674
0.00057717
0.00158867
0.00159896
0.00160227
0.0016061
0.00157858
0.00152963
0.00151117
0.00158037
0.00156866
0.00162631
0.0013633
0.000871051
0.000990966
0.00173249
0.000782763
0.00143888
0.000577369
0.000645775
0.0010208
0.00116126
0.000606153
0.000584966
0.00157862
0.00157392
0.0015831
0.00159367
0.000605888
0.000583416
0.00129405
0.000665951
0.000871326
0.00145971
0.00170101
0.00170902
0.00169491
0.001704
0.00167446
0.000591627
0.00156489
0.00157007
0.00157259
0.00158152
0.00100042
0.00141006
0.000598482
0.000589987
0.00167149
0.00156505
0.0015668
0.00157043
0.00157175
0.000596564
0.00166608
0.00154005
0.00157376
0.00156505
0.00165594
0.00156515
0.000671463
0.000639164
0.00139048
0.00156121
0.00166592
0.000689088
0.000290774
0.000564671
0.000572687
0.000550575
0.000557292
0.000538975
0.000544474
0.000529905
0.000534105
0.000523573
0.000526395
0.000519934
0.000521432
0.000518645
0.000519023
0.000519051
0.000518673
0.000519763
0.000519482
0.000519939
0.000520117
0.000518253
0.000519386
0.000512723
0.000516618
0.000486886
0.000500418
0.000461148
0.000473553
0.000441236
0.000450308
0.000427657
0.00043378
0.000418496
0.000422625
0.00041214
0.00041508
0.000407113
0.000409501
0.000403171
0.000404998
0.000400294
0.000401608
0.000398299
0.00039921
0.000397501
0.000398419
0.000398525
0.000398179
0.000398193
0.000398836
0.000398414
0.000399912
0.000399361
0.000400838
0.000400426
0.000401119
0.0004011
0.000400513
0.000400891
0.000399499
0.00040003
0.000398571
0.000398987
0.000398358
0.00039834
0.00039871
0.000398589
0.000397748
0.000399523
0.000398581
0.000401992
0.000400639
0.00040545
0.000403595
0.00040996
0.000407575
0.000415547
0.000412599
0.000423121
0.000418979
0.000434314
0.000428166
0.000451008
0.000441826
0.000474841
0.000462056
0.00050334
0.000488807
0.000519541
0.000515964
0.000522543
0.000521428
0.000523195
0.00052308
0.000522705
0.000522925
0.000521951
0.000522254
0.000522512
0.000522042
0.000525
0.000523491
0.000529849
0.000527107
0.000537285
0.000533237
0.000547403
0.000542008
0.000560186
0.000553475
0.000575479
0.000567532
0.000593347
0.000584056
0.00060347
0.000626831
0.00144154
0.00170878
0.000799771
0.00148284
0.00117167
0.00145655
0.00142954
0.00113854
0.00127064
0.000963754
0.00104869
0.000850345
0.00089169
0.000813358
0.000573883
0.000627038
0.0013427
0.00167988
0.000578155
0.00159604
0.00160574
0.00157783
0.0016385
0.000787782
0.000722986
0.000592406
0.00180589
0.00173649
0.00140788
0.00117873
0.000737867
0.000732702
0.00143134
0.000731492
0.00113287
0.00122816
0.00142942
0.00137994
0.000869237
0.0013788
0.00110103
0.00120725
0.000744267
0.000579278
0.000643163
0.00101971
0.00111213
0.00178366
0.00166963
0.000585458
0.000582901
0.000584325
0.00158669
0.00162582
0.00160428
0.00161305
0.00160477
0.00061664
0.00181244
0.000393781
0.000393031
0.000397881
0.000396988
0.000684242
0.00128882
0.000585376
0.00101202
0.000662487
0.00131909
0.0013767
0.00166769
0.00166094
0.00165927
0.000592684
0.00157625
0.00159235
0.00134249
0.000607929
0.000868903
0.00059209
0.000685738
0.00155241
0.00165795
0.000600087
0.00157041
0.00157733
0.00156404
0.000599241
0.00165428
0.00146489
0.00156801
0.00157002
0.00156493
0.00060716
0.00164799
0.00156546
0.000692041
0.000655236
0.0016383
0.00155927
0.000640922
0.00159565
0.00155903
0.00162774
0.000831639
0.00071292
0.00165092
0.00164381
0.00170113
0.0016307
0.000604028
0.000603569
0.000581957
0.000591987
0.000564276
0.000572709
0.000549188
0.000556407
0.000536482
0.000542539
0.000526297
0.000531051
0.000518934
0.000522261
0.000514315
0.000516299
0.000512069
0.000512927
0.000511549
0.000511629
0.000511524
0.000511614
0.000511046
0.00051151
0.000508867
0.000510247
0.000500046
0.000507116
0.000474124
0.000487131
0.000449936
0.000461447
0.000431985
0.000440095
0.00041999
0.000425377
0.000411994
0.000415589
0.000406339
0.000408974
0.000401786
0.000403949
0.000398228
0.000399876
0.000395615
0.000396813
0.000394621
0.000396769
0.000397523
0.000397728
0.000397064
0.000397187
0.000397544
0.000397205
0.000398481
0.000397995
0.000399308
0.000398939
0.000399563
0.000399548
0.000399009
0.000399351
0.000398107
0.000398576
0.00039733
0.000397665
0.000397318
0.000397192
0.000397661
0.000393491
0.000395142
0.000394272
0.000397414
0.00039617
0.000400572
0.000398881
0.000404684
0.000402508
0.00040975
0.000407091
0.000416427
0.000412793
0.000426315
0.000420872
0.000441252
0.000433005
0.000463217
0.00045132
0.000490433
0.000476512
0.00051108
0.00050443
0.000514281
0.000512902
0.000515439
0.000515036
0.000515578
0.000515481
0.00051561
0.000515483
0.000517086
0.000516145
0.000520527
0.000518536
0.000526305
0.000523105
0.000534593
0.00053013
0.000545496
0.000539716
0.000558976
0.000551914
0.000574905
0.000566645
0.000593318
0.000583765
0.000615246
0.000603747
0.000627998
0.00170664
0.00167856
0.00169756
0.00163726
0.00165734
0.00161411
0.00160536
0.00161966
0.0016702
0.00165352
0.00170386
0.00167691
0.00173365
0.00138795
0.00157624
0.00141506
0.000972229
0.00118696
0.000788756
0.000849171
0.00075618
0.00074746
0.000703072
0.000582116
0.00131309
0.000980895
0.00130091
0.00154797
0.00168954
0.00164654
0.00120297
0.00139
0.000931837
0.00104351
0.000819256
0.000866447
0.000763662
0.000784763
0.00074884
0.000581159
0.000641188
0.00107167
0.000605067
0.0016698
0.00165773
0.000585225
0.00159529
0.00162073
0.00162579
0.00161585
0.00163459
0.000628958
0.00130494
0.00090256
0.000660591
0.000989779
0.000392316
0.000392747
0.00141722
0.00144694
0.00173849
0.00179583
0.00160083
0.000861493
0.000689447
0.000872488
0.000997072
0.00127718
0.00119966
0.000718123
0.0011998
0.000887491
0.000992108
0.000775299
0.000587347
0.00065494
0.000659137
0.00129601
0.00133936
0.0006158
0.000616251
0.00160026
0.00179755
0.00162491
0.00164869
0.00138754
0.00135435
0.00059322
0.00059096
0.000592313
0.00158308
0.0013432
0.00140094
0.00143827
0.00162866
0.00159943
0.00160884
0.00160513
0.0014163
0.00126159
0.00118053
0.00070197
0.000618756
0.000721911
0.000664985
0.00169504
0.00169726
0.000626798
0.0010821
0.000594229
0.000681583
0.00153462
0.00154177
0.00156923
0.00159438
0.00160126
0.00164356
0.000601356
0.00157515
0.00158624
0.00138639
0.0015412
0.000609726
0.00060173
0.00133989
0.00134785
0.000708736
0.00142151
0.00139185
0.00163334
0.00169067
0.00164105
0.00133948
0.00154461
0.00157184
0.00157446
0.00156011
0.000609834
0.0014041
0.00144239
0.00163399
0.00164687
0.00163724
0.00156166
0.000715614
0.000673321
0.00128489
0.00145176
0.00141003
0.00145957
0.0014138
0.00146008
0.00141161
0.00145428
0.00163142
0.00155822
0.000656824
0.00168127
0.00155821
0.00162335
0.00155506
0.000643003
9.01587e-05
0.00161621
0.00160091
0.000741759
0.00125869
0.000628924
0.000628085
0.000602671
0.000614948
0.000580949
0.00059134
0.000561376
0.000570789
0.000544607
0.000552673
0.000530051
0.00053706
0.000517891
0.000523642
0.000508595
0.000512873
0.000502148
0.000505032
0.000498194
0.000499894
0.000496024
0.000496936
0.000494581
0.000495345
0.000492725
0.000493823
0.000489462
0.000491288
0.000475672
0.000486088
0.000450849
0.000463303
0.000428713
0.000439072
0.000413101
0.000420083
0.000402964
0.000407487
0.000396246
0.000399305
0.000391432
0.000393668
0.000387599
0.00038942
0.000384558
0.00038598
0.000382215
0.000383307
0.00038044
0.000381274
0.000378858
0.000379654
0.000378023
0.000396071
0.000391603
0.000396704
0.000396984
0.000396062
0.000396276
0.000396387
0.000396121
0.000397198
0.000396773
0.000397931
0.000397602
0.000398161
0.000398148
0.000397658
0.000397966
0.000396861
0.000397274
0.000396219
0.000396483
0.000396379
0.000396162
0.000397116
0.000396816
0.000392018
0.000396273
0.000378929
0.000380632
0.000379795
0.00038234
0.000381463
0.000384489
0.000383333
0.000387289
0.000385807
0.000390827
0.000388959
0.000395216
0.000392902
0.00040097
0.000397867
0.000409346
0.000404722
0.000422246
0.000415086
0.000441912
0.00043114
0.00046768
0.000454319
0.000492132
0.000481339
0.000496959
0.000495096
0.000499401
0.000498351
0.000500873
0.000500132
0.000502461
0.000501532
0.000505527
0.000503787
0.000510558
0.000507774
0.000517885
0.000513915
0.000527642
0.000522461
0.000539862
0.000533444
0.00055455
0.000546894
0.000571646
0.000562805
0.000591215
0.000581084
0.000614314
0.000602218
0.000627667
0.00166153
0.00168007
0.00162586
0.0016429
0.00159894
0.00161109
0.00158636
0.0015822
0.00158946
0.001618
0.00160999
0.00164059
0.00162389
0.00168231
0.00166006
0.00170666
0.00177613
0.00179876
0.00115015
0.00138403
0.000849035
0.000960871
0.000809594
0.000812521
0.000825193
0.000814742
0.000850807
0.00161087
0.000746274
0.00110587
0.000790732
0.00109849
0.00135251
0.00161955
0.00151699
0.000975184
0.00115254
0.00080847
0.000862872
0.000770195
0.000783445
0.000757758
0.00076213
0.000760578
0.000589249
0.000656852
0.00131135
0.000619281
0.000617299
0.0017472
0.00163717
0.00134839
0.00132639
0.000593118
0.00135393
0.00159066
0.00146088
0.00145966
0.00161877
0.00161962
0.00138579
0.001291
0.000833054
0.000706983
0.000555757
0.00123158
0.00121727
0.000631203
0.00139557
0.00132528
0.00166295
0.00117054
0.000657208
0.000683299
0.00103088
0.00104449
0.00166731
0.00174642
0.00172516
0.00159431
0.000754925
0.00109653
0.00101145
0.000567968
0.000970253
0.000665154
0.000754817
0.000596315
0.000670444
0.000677461
0.00152173
0.00152316
0.00062948
0.00170498
0.00177603
0.00160989
0.00163134
0.00128984
0.000601972
0.000599997
0.000601279
0.0013595
0.00124062
0.000824927
0.00158036
0.00147959
0.00162248
0.00159386
0.0016019
0.00159725
0.00128183
0.00136285
0.00149126
0.00112757
0.000620746
0.00135605
0.00034506
0.000344016
0.000391279
0.000378015
0.00177603
0.00175682
0.00138778
0.00102398
0.00081269
0.000604115
0.000703539
0.000981272
0.000218275
0.0014386
0.00163849
0.0015319
0.000642242
0.000643228
0.00171426
0.00159194
0.0016282
0.00117365
0.00148896
0.000611171
0.00136023
0.00157525
0.00149314
0.00164722
0.00158113
0.00133708
0.00154491
0.000638103
0.000655497
0.000906019
0.000612593
0.00073576
0.00146817
0.00166268
0.00157659
0.00158066
0.00162612
0.00154564
0.000622101
0.00157384
0.00149895
0.000741425
0.000693768
0.000621954
0.00116405
0.00148653
0.00162802
0.00162274
0.00155518
0.00149634
0.000674611
0.00170913
0.00155772
0.00159895
0.00160542
0.00161775
0.00155231
0.000658802
0.00155244
0.00128951
0.00161174
0.000645388
0.00165784
0.00140933
0.000767859
0.0012031
0.000828814
0.000657632
0.000654378
0.000624198
0.000638804
0.000597522
0.00061047
0.000573132
0.000585161
0.000550399
0.00056146
0.000530134
0.00053995
0.000512028
0.00052083
0.000496265
0.000503823
0.000483383
0.000489454
0.000473341
0.000478016
0.000465938
0.00046934
0.000460464
0.000463015
0.000455943
0.000458182
0.000451122
0.000453631
0.000444937
0.000448214
0.000426308
0.00043769
0.00040306
0.000414545
0.000383996
0.00039271
0.000371499
0.000376995
0.000363822
0.000367201
0.000358882
0.000361102
0.000355527
0.000357082
0.000352814
0.000354113
0.000350544
0.000351629
0.000348598
0.000349537
0.000346874
0.000347721
0.000346005
0.000377129
0.000395382
0.00039087
0.000395939
0.00039627
0.000395156
0.000395441
0.000395354
0.000395148
0.000396055
0.000395683
0.000396701
0.000396411
0.000396907
0.000396897
0.000396455
0.000396729
0.000395754
0.000396115
0.000395225
0.000395429
0.000395524
0.000395234
0.000396389
0.000396032
0.000395577
0.000345867
0.000348016
0.000346988
0.000349903
0.000348969
0.000351924
0.000350876
0.000354239
0.000353044
0.00035693
0.000355525
0.000360167
0.000358469
0.000364481
0.000362114
0.000370861
0.000367319
0.000381098
0.000375354
0.00039762
0.000388431
0.000421065
0.00040865
0.000446805
0.000434036
0.000456874
0.000453679
0.00046227
0.000459786
0.000466827
0.000464591
0.000471679
0.000469109
0.000477958
0.00047463
0.000486024
0.000481754
0.000496147
0.000490805
0.000508504
0.000502047
0.000523215
0.00051555
0.000540343
0.000531472
0.000559891
0.000549822
0.000581855
0.000570543
0.000607189
0.000593987
0.000621757
0.0016818
0.00167744
0.00168698
0.00164637
0.00166241
0.00161741
0.00163118
0.00159502
0.00160529
0.00157946
0.00158653
0.00157238
0.00156867
0.00157348
0.00159049
0.00158607
0.00160374
0.00159379
0.0016306
0.00161611
0.00166459
0.00164672
0.00170561
0.00168435
0.00172714
0.00177414
0.000957583
0.00115419
0.000849596
0.000855421
0.000929347
0.000890394
0.00100175
0.00095994
0.00117121
0.00106957
0.00127246
0.000692668
0.000920815
0.000598095
0.000858829
0.00147
0.001645
0.00157554
0.00110667
0.00130672
0.000817788
0.000926136
0.000791839
0.000785789
0.000818515
0.000807204
0.000835891
0.000827046
0.000898888
0.000854704
0.00142958
0.000598275
0.000673791
0.00152009
0.000632943
0.000630732
0.00176784
0.00162014
0.00127407
0.000601985
0.00130066
0.00129181
0.00137176
0.00158619
0.0014892
0.00161109
0.00161095
0.00132619
0.000939298
0.00139104
0.00063333
0.00129585
0.00116935
0.000936311
0.0018387
0.000918986
0.00138238
0.00170923
0.000342852
0.000344637
0.00172036
0.00173452
0.00159436
0.00075032
0.000662314
0.000911035
0.000837237
0.000639184
0.000691133
0.00047583
0.000511477
0.00157539
0.00137864
0.00060635
0.000688356
0.000698196
0.000840002
0.000520392
0.000804084
0.000572307
0.00164198
0.00164116
0.000644025
0.00173797
0.00159892
0.00161701
0.000985054
0.00138869
0.000611916
0.000610162
0.000611413
0.00130299
0.00174139
0.00127827
0.001433
0.00118485
0.00112945
0.00157937
0.000548512
0.00150915
0.00159538
0.00163095
0.00158971
0.00122208
0.00130609
0.00150696
0.000618274
0.000639411
0.000675655
0.00150109
0.00050332
0.00147631
0.00122013
0.00151989
0.000615235
0.000728964
0.00123349
0.00131035
0.00128393
0.00147879
0.0013207
0.00165913
6.6641e-05
0.00065906
0.00168116
0.00158565
0.00161565
0.000557211
0.000995317
0.00150511
0.000760817
0.000622385
0.00130128
0.0015801
0.00158242
0.00157619
0.00157533
0.000773138
0.000752767
0.000664069
0.00152278
0.00104799
0.00128017
0.00142094
0.000716576
0.00157825
0.000624913
0.000947067
0.000989157
0.00128684
0.00076798
0.0015049
0.00100324
0.00117785
0.000671181
0.000674588
0.00164017
0.00157671
0.00161394
0.00155537
0.00155972
0.00155948
0.000967511
0.001544
0.000729303
0.000868774
0.00152708
0.00158543
0.000694511
0.00168526
0.000811975
0.00113027
0.000635714
0.00019936
0.0013268
0.0011774
0.00152123
0.00155458
0.00161325
0.00156548
0.00156945
0.00161097
0.00156379
0.00153108
0.00154888
0.000676303
0.00155084
0.00122982
0.00159582
0.00160686
0.00154777
0.000661321
0.000647624
0.00123452
0.00158412
0.00160259
0.00165959
0.000411298
0.000944189
0.00108841
0.00105751
0.00121945
0.00111713
0.00110975
0.000689404
0.000678248
0.000641688
0.000659501
0.000608312
0.000624641
0.000577192
0.000592539
0.000546808
0.000561993
0.000517358
0.000531834
0.000490296
0.000503529
0.00046559
0.000477682
0.000443427
0.000454146
0.000424435
0.000433528
0.000408401
0.000416078
0.000395038
0.000401406
0.000383868
0.000389227
0.000373998
0.000378851
0.000364135
0.000369141
0.00035236
0.000358948
0.00033191
0.000342503
0.00031207
0.000321506
0.000297913
0.000304152
0.000289764
0.000293213
0.000285467
0.000287266
0.000283247
0.000284168
0.000282015
0.000282566
0.000281045
0.000281516
0.000280116
0.000280588
0.000279038
0.000279605
0.000277704
0.000278413
0.000275881
0.000276874
0.000273322
0.000274702
0.000271724
0.000376157
0.000341552
0.000394682
0.000390097
0.000395207
0.000395568
0.00039433
0.000394665
0.000394436
0.000394274
0.000395047
0.000394721
0.000395617
0.000395361
0.000395801
0.000395793
0.000395396
0.000395638
0.000394776
0.000395095
0.000394335
0.000394495
0.000394734
0.000394392
0.000395681
0.000395289
0.000390509
0.000394878
0.000343276
0.000377032
0.000274514
0.000277794
0.00027626
0.000280283
0.000279131
0.000282132
0.000281268
0.000283671
0.000282926
0.000285012