/*--------------------------------*- C++ -*----------------------------------*\
| =========                 |                                                 |
| \\      /  F ield         | OpenFOAM: The Open Source CFD Toolbox           |
|  \\    /   O peration     | Version:  2212                                  |
|   \\  /    A nd           | Website:  www.openfoam.com                      |
|    \\/     M anipulation  |                                                 |
\*---------------------------------------------------------------------------*/
FoamFile
{
    version     2.0;
    format      ascii;
    arch        "LSB;label=32;scalar=64";
    class       volScalarField;
    location    "0.0465";
    object      k;
}
// * * * * * * * * * * * * * * * * * * * * * * * * * * * * * * * * * * * * * //

dimensions      [0 2 -2 0 0 0 0];

internalField   nonuniform List<scalar> 
44662
(
78.4978
253.425
252.627
257.378
255.349
55.4627
124.677
52.3632
218.946
236.993
64.9516
108.385
122.747
182.118
238.854
114.418
160.608
143.52
216.554
145.687
233.341
149.07
211.288
221.698
318.89
211.724
118.206
97.0702
116.796
108.375
183.956
195.12
280.694
67.7109
1699.35
223.607
144.701
133.798
216.942
200.031
195.006
156.186
95.4263
214.062
212.901
24.5092
126.026
231.532
232.395
217.557
262.031
114.596
195.663
36.9657
237.702
33.8475
187.803
90.2708
104.827
103.564
59.5974
27.1532
236.764
187.484
237.546
70.6334
67.1866
90.0573
193.002
158.685
30.951
71.3869
186.595
70.067
150
178.154
15.0402
106.784
99.7333
66.1344
29.6647
142.296
229.122
136.589
35.7268
228.271
134.848
330.051
214.875
130.291
117.671
127.357
225.881
18.7869
208.416
207.352
69.817
204.631
230.648
218.228
112.049
320.206
99.9105
42.7492
119.769
105.583
117.181
33.7083
218.054
118.664
114.623
200.459
316.596
216.62
50.8964
111.832
94.8548
234.268
21.249
108.766
193.496
110.329
94.2362
105.713
108.275
458.383
102.387
105.982
276.126
98.5135
103.514
92.6475
64.9948
99.8623
93.3056
101.013
89.7974
89.2855
86.7266
98.5527
95.8995
79.2847
106.435
98.3181
71.2638
276.764
245.208
245.473
441.748
227.388
202.429
263.732
71.7489
97.9495
382.98
424.639
196.492
111.603
111.258
110.923
110.598
110.282
109.975
109.676
109.385
109.101
108.823
108.552
108.287
108.029
107.778
107.533
107.295
107.063
106.838
106.619
106.406
106.199
105.998
105.804
105.616
105.434
105.259
105.09
104.926
104.77
104.619
104.474
104.335
104.203
104.076
103.956
103.842
103.734
103.633
103.538
103.45
103.368
103.293
103.224
103.162
103.107
103.059
103.018
102.983
102.954
103.139
103.112
103.175
34.0534
111.956
111.615
111.964
102.933
102.921
103.087
103.094
103.267
103.218
103.383
103.322
103.523
103.449
103.688
103.602
103.878
103.78
104.095
103.983
104.339
104.213
104.609
104.471
104.9
104.752
105.212
105.053
105.547
105.376
105.909
105.725
106.297
106.1
106.71
106.5
107.148
106.926
107.612
107.377
108.101
107.853
108.617
108.356
109.16
108.885
109.731
109.442
110.33
110.027
110.964
110.643
111.295
110.944
111.275
110.31
110.623
109.713
110.008
109.146
109.426
108.606
108.873
108.091
108.345
107.603
107.844
107.14
107.368
106.702
106.918
106.289
106.492
105.9
106.091
105.535
105.715
105.195
105.362
104.879
105.034
104.59
104.732
104.327
104.455
104.088
104.204
103.873
103.977
103.683
103.775
103.518
103.597
103.38
103.446
103.27
103.322
103.189
103.226
103.132
103.157
103.1
103.113
103.624
103.602
103.658
25.8296
32.9307
111.676
112.011
103.089
103.594
103.608
103.624
103.094
103.624
112.32
112.317
103.592
103.745
103.699
103.851
103.796
103.978
103.911
104.128
104.05
104.303
104.213
104.504
104.4
104.735
104.616
104.994
104.862
105.269
105.129
105.561
105.412
105.874
105.714
106.215
106.041
106.584
106.396
106.978
106.778
107.397
107.184
107.84
107.615
108.309
108.071
108.805
108.553
109.329
109.063
109.881
109.602
110.459
110.167
111.069
110.76
111.387
116.901
102.916
111.03
111.349
110.421
110.721
109.846
110.129
109.301
109.57
108.783
109.039
108.29
108.534
107.823
108.054
107.38
107.598
106.962
107.168
106.568
106.762
106.199
106.381
105.852
106.023
105.529
105.687
105.23
105.376
104.958
105.091
104.712
104.832
104.49
104.598
104.292
104.388
104.118
104.202
103.969
104.041
103.846
103.904
103.751
103.795
103.685
103.715
103.643
103.661
103.63
112.354
104.455
104.427
104.428
104.412
104.457
103.096
103.631
112.341
112.702
112.681
112.681
104.492
105.602
105.654
113.044
113.056
104.414
104.529
104.491
104.617
104.571
104.724
104.668
104.851
104.785
105.002
104.923
105.179
105.087
105.388
105.279
105.625
105.504
105.874
105.747
106.134
106.002
106.415
106.271
106.724
106.566
107.063
106.89
107.426
107.241
107.813
107.616
108.225
108.016
108.661
108.44
109.124
108.889
109.615
109.366
110.136
109.872
110.679
110.405
111.248
110.96
237.366
111.545
103.099
102.918
103.629
113.099
112.437
112.765
111.801
112.115
111.196
111.494
110.625
110.906
110.086
110.352
109.577
109.828
109.094
109.332
108.635
108.861
108.201
108.415
107.79
107.992
107.404
107.594
107.041
107.219
106.701
106.868
106.384
106.54
106.089
106.234
105.818
105.951
105.573
105.692
105.353
105.46
105.157
105.252
104.985
105.068
104.835
104.907
104.71
104.77
104.611
104.657
104.538
104.571
104.493
104.512
104.473
104.48
104.474
104.47
104.501
104.484
113.416
113.439
112.392
105.558
112.7
104.533
105.712
106.999
107.066
105.67
104.527
105.707
113.052
113.415
113.777
105.545
105.525
105.522
113.784
112.644
112.485
105.531
105.597
105.569
105.662
105.628
105.741
105.699
105.839
105.787
105.959
105.896
106.106
106.029
106.285
106.191
106.492
106.386
106.707
106.6
106.929
106.817
107.167
107.045
107.437
107.298
107.736
107.583
108.059
107.894
108.405
108.229
108.774
108.586
109.167
108.967
109.586
109.373
110.034
109.806
110.511
110.269
111.006
110.756
111.521
111.26
233.841
111.789
412.134
103.107
103.648
103.114
102.928
103.657
113.836
113.203
113.517
112.595
112.896
112.014
112.301
111.462
111.734
110.94
111.197
110.45
110.691
109.987
110.215
109.55
109.765
109.136
109.34
108.745
108.937
108.377
108.558
108.031
108.201
107.709
107.867
107.408
107.556
107.129
107.266
106.872
106.998
106.637
106.751
106.426
106.528
106.239
106.33
106.076
106.155
105.935
106.003
105.817
105.873
105.722
105.766
105.651
105.683
105.606
105.625
105.587
105.593
105.592
105.586
105.618
105.602
105.641
114.134
114.161
112.741
106.941
106.877
106.885
106.88
107.138
104.56
105.752
112.896
112.947
113.165
113.069
113.43
113.793
114.149
114.491
114.493
112.815
106.903
106.91
106.893
106.949
106.928
106.997
106.971
107.063
107.028
107.149
107.104
107.261
107.202
107.406
107.329
107.58
107.491
107.757
107.668
107.933
107.845
108.124
108.025
108.348
108.232
108.601
108.472
108.877
108.736
109.174
109.023
109.494
109.331
109.835
109.661
110.202
110.015
110.598
110.396
111.021
110.807
111.457
111.236
111.907
111.679
112.384
112.142
112.635
103.126
103.672
103.137
102.945
104.578
103.688
107.213
105.772
114.556
113.965
114.257
113.397
113.678
112.855
113.123
112.338
112.593
111.848
112.089
111.386
111.614
110.954
111.167
110.546
110.747
110.163
110.352
109.801
109.979
109.461
109.629
109.143
109.299
108.846
108.992
108.57
108.705
108.314
108.439
108.079
108.194
107.865
107.969
107.672
107.765
107.5
107.583
107.35
107.422
107.223
107.284
107.118
107.168
107.033
107.073
106.971
106.999
106.931
106.948
106.915
106.92
106.924
106.917
106.955
106.937
107.009
106.98
107.086
107.044
107.191
107.135
114.829
114.861
113.443
113.257
113.098
108.58
108.657
108.511
113.443
107.288
108.824
108.91
108.799
107.255
108.871
113.735
113.731
113.988
113.811
114.179
114.528
114.857
115.172
108.434
108.415
108.407
115.173
113.152
108.739
108.462
108.409
108.405
108.422
108.415
108.442
108.431
108.477
108.458
108.53
108.501
108.606
108.565
108.717
108.657
108.855
108.784
108.994
108.924
109.121
109.058
109.264
109.189
109.441
109.349
109.645
109.54
109.871
109.756
110.116
109.991
110.381
110.246
110.667
110.521
110.976
110.818
111.313
111.141
111.676
111.492
112.047
111.861
112.426
112.235
112.828
112.623
113.263
113.041
113.494
104.602
105.805
103.153
103.705
103.165
102.971
104.628
103.725
105.834
115.256
114.715
114.983
114.2
114.454
113.707
113.95
113.238
113.47
112.791
113.011
112.372
112.579
111.977
112.171
111.608
111.789
111.262
111.432
110.937
111.097
110.632
110.782
110.348
110.488
110.083
110.213
109.837
109.958
109.611
109.722
109.403
109.505
109.214
109.306
109.044
109.127
108.894
108.966
108.762
108.825
108.651
108.704
108.56
108.603
108.489
108.522
108.438
108.461
108.407
108.42
108.397
108.399
108.409
108.4
108.443
108.423
108.498
108.468
108.575
108.534
108.674
108.622
108.733
115.489
115.535
113.577
113.461
110.246
110.328
110.173
110.053
110.08
110.036
110.504
110.594
107.325
108.95
114.253
114.028
113.822
114.203
114.57
114.911
115.227
115.524
115.811
115.82
113.497
110.415
110.117
110.018
110.025
110.008
110.012
110.004
110.006
110.013
110.008
110.036
110.022
110.082
110.055
110.16
110.116
110.264
110.21
110.366
110.318
110.45
110.409
110.55
110.496
110.682
110.612
110.839
110.758
111.015
110.925
111.209
111.11
111.419
111.312
111.648
111.531
111.899
111.77
112.175
112.033
112.477
112.324
112.78
112.629
113.084
112.93
113.407
113.242
113.76
113.579
114.146
113.948
114.573
114.353
114.533
114.808
104.651
105.865
103.188
103.745
103.201
103.004
104.68
103.768
107.366
105.9
110.684
108.997
115.933
115.453
115.69
114.997
115.222
114.563
114.777
114.15
114.353
113.757
113.951
113.386
113.569
113.039
113.21
112.714
112.874
112.411
112.559
112.127
112.267
111.863
111.993
111.616
111.737
111.387
111.499
111.175
111.279
110.98
111.075
110.801
110.888
110.64
110.718
110.495
110.565
110.366
110.428
110.255
110.309
110.162
110.206
110.085
110.121
110.026
110.054
109.986
110.004
109.963
109.972
109.958
109.958
109.972
109.962
110.005
109.986
110.058
110.029
110.131
110.092
110.223
110.174
110.335
110.276
110.47
110.4
110.628
110.546
116.11
116.181
113.903
113.83
111.876
111.955
111.806
111.678
111.709
111.656
114.332
114.21
110.777
112.295
112.383
112.226
110.716
112.309
115.124
114.812
114.599
114.965
115.301
115.604
115.88
116.142
116.433
116.405
113.849
112.123
112.208
112.038
111.752
111.627
111.639
111.604
111.615
111.586
111.595
111.575
111.579
111.578
111.574
111.601
111.586
111.653
111.623
111.731
111.69
111.801
111.768
111.853
111.827
111.917
111.882
112.011
111.961
112.128
112.068
112.261
112.193
112.408
112.332
112.569
112.487
112.746
112.655
112.941
112.841
113.159
113.047
113.401
113.278
113.64
113.522
113.872
113.754
114.12
113.992
114.391
114.252
114.69
114.537
115.026
114.853
115.404
115.21
115.317
115.678
115.546
107.403
109.035
104.709
105.933
103.231
103.794
103.244
103.045
104.74
103.817
107.447
105.97
109.087
116.982
116.579
116.686
116.785
116.171
116.373
115.782
115.973
115.411
115.594
115.06
115.233
114.728
114.89
114.412
114.567
114.116
114.262
113.839
113.975
113.581
113.708
113.341
113.458
113.117
113.227
112.909
113.012
112.716
112.811
112.538
112.625
112.373
112.454
112.223
112.297
112.087
112.154
111.966
112.025
111.858
111.91
111.764
111.809
111.685
111.723
111.62
111.651
111.571
111.594
111.536
111.551
111.516
111.524
111.512
111.512
111.523
111.516
111.551
111.535
111.595
111.571
111.656
111.623
111.734
111.693
111.83
111.78
111.943
111.884
112.074
112.006
112.148
114.235
114.206
113.323
113.387
113.267
113.667
113.74
110.809
112.397
114.642
114.601
115.078
114.999
115.841
115.534
115.368
115.698
115.988
116.243
116.476
116.701
116.933
117.276
117.182
113.179
113.15
113.13
114.205
113.525
113.595
113.455
113.218
113.1
113.113
113.078
113.088
113.056
113.066
113.041
113.047
113.038
113.038
113.051
113.042
113.088
113.067
113.147
113.117
113.199
113.174
113.233
113.216
113.276
113.252
113.345
113.308
113.432
113.386
113.531
113.48
113.642
113.585
113.763
113.701
113.897
113.829
114.045
113.969
114.214
114.127
114.401
114.306
114.585
114.494
114.755
114.672
114.937
114.844
115.14
115.036
115.367
115.25
115.624
115.491
115.909
115.768
116.136
116.026
116.018
116.389
116.257
107.488
109.126
104.775
106.008
103.282
103.851
103.295
103.094
104.806
103.875
107.534
106.047
110.874
109.181
113.816
112.474
116.847
117.007
116.533
116.689
116.232
116.381
115.946
116.087
115.675
115.809
115.417
115.544
115.174
115.294
114.947
115.059
114.734
114.838
114.535
114.633
114.35
114.441
114.179
114.263
114.019
114.097
113.87
113.943
113.732
113.8
113.606
113.668
113.491
113.547
113.387
113.438
113.294
113.339
113.212
113.251
113.141
113.175
113.082
113.11
113.034
113.057
112.998
113.015
112.974
112.985
112.963
112.967
112.964
112.962
112.978
112.969
113.004
112.989
113.044
113.023
113.098
113.07
113.166
113.131
113.248
113.206
113.345
113.295
113.456
113.399
113.583
113.518
113.726
113.653
114.573
114.587
114.415
114.453
114.38
114.309
114.327
114.297
114.952
114.999
113.895
114.722
114.773
114.617
113.804
114.667
115.349
115.406
115.763
115.778
116.53
116.206
116.102
116.379
116.611
116.814
117.002
117.187
117.455
117.388
114.567
114.625
114.672
114.536
114.58
114.494
114.351
114.28
114.287
114.271
114.274
114.264
114.267
114.263
114.262
114.271
114.266
114.291
114.279
114.328
114.307
114.381
114.354
114.429
114.406
114.464
114.446
114.505
114.483
114.565
114.533
114.638
114.6
114.719
114.677
114.808
114.763
114.904
114.855
115.009
114.956
115.124
115.065
115.255
115.187
115.399
115.326
115.54
115.472
115.664
115.603
115.796
115.728
115.945
115.868
116.112
116.026
116.3
116.203
116.494
116.399
116.667
116.581
116.848
116.754
116.679
117.054
116.948
110.909
112.49
107.58
109.224
104.848
106.091
103.342
103.917
103.355
103.152
104.88
103.94
107.627
106.131
110.976
109.281
112.569
117.639
117.773
117.443
117.625
117.206
117.318
116.986
117.096
116.768
116.876
116.558
116.662
116.358
116.457
116.166
116.26
115.985
116.075
115.814
115.898
115.653
115.732
115.502
115.576
115.359
115.429
115.226
115.291
115.1
115.162
114.982
115.04
114.872
114.926
114.769
114.82
114.674
114.721
114.587
114.63
114.508
114.546
114.436
114.471
114.372
114.403
114.317
114.344
114.27
114.293
114.232
114.25
114.203
114.216
114.182
114.191
114.171
114.175
114.169
114.169
114.177
114.172
114.195
114.185
114.224
114.208
114.262
114.242
114.311
114.286
114.371
114.34
114.442
114.405
114.524
114.481
114.569
114.918
114.973
114.969
114.969
114.97
114.974
114.971
114.979
115.001
115.013
113.885
114.721
115.27
115.405
115.627
115.823
116.001
116.196
116.402
116.515
117.164
116.833
116.775
116.984
117.156
117.308
117.45
117.912
117.606
117.82
118.176
118.05
118.276
114.937
114.983
114.991
114.973
114.977
114.97
114.971
114.993
114.985
115.014
115.002
115.041
115.027
115.074
115.057
115.114
115.093
115.159
115.135
115.214
115.185
115.276
115.244
115.338
115.307
115.396
115.367
115.457
115.426
115.528
115.492
115.605
115.566
115.687
115.646
115.773
115.729
115.862
115.817
115.956
115.908
116.055
116.005
116.163
116.108
116.28
116.222
116.391
116.337
116.489
116.441
116.592
116.54
116.703
116.646
116.825
116.763
116.954
116.889
117.085
117.021
117.208
117.147
117.332
117.268
117.468
117.398
117.278
117.614
117.54
111.014
112.588
107.679
109.329
104.929
106.182
103.41
103.99
103.423
103.217
104.962
104.013
107.727
106.222
111.082
109.387
113.977
112.668
115.026
114.827
117.983
118.079
117.78
117.883
117.61
117.689
117.461
117.535
117.314
117.388
117.166
117.239
117.022
117.093
116.881
116.951
116.746
116.813
116.615
116.679
116.489
116.551
116.368
116.428
116.251
116.309
116.139
116.195
116.03
116.084
115.926
115.978
115.825
115.875
115.728
115.776
115.635
115.681
115.547
115.59
115.462
115.504
115.382
115.422
115.307
115.344
115.237
115.272
115.172
115.204
115.112
115.141
115.058
115.084
115.009
115.033
114.966
114.987
114.929
114.947
114.898
114.913
114.874
114.885
114.856
114.864
114.844
114.849
114.839
114.84
114.84
114.838
114.847
114.843
114.861
114.853
114.881
114.87
114.907
114.893
115.272
115.369
114.754
114.804
115.594
115.819
115.04
114.395
114.355
114.263
114.922
114.225
115.914
116.246
116.246
116.621
116.604
116.932
116.993
117.176
117.692
117.396
117.363
117.506
117.616
117.715
225.979
329.207
117.833
117.998
118.192
118.163
183.858
114.934
118.376
114.966
115.315
114.475
114.434
114.559
114.516
114.652
114.604
114.703
114.851
114.895
115.056
114.995
115.024
115.128
115.091
115.209
115.168
115.297
115.253
115.388
115.342
115.48
115.434
115.57
115.525
115.659
115.614
115.755
115.706
115.858
115.806
115.964
115.911
116.068
116.016
116.17
116.119
116.273
116.222
116.376
116.325
116.479
116.428
116.582
116.531
116.686
116.634
116.79
116.738
116.895
116.843
116.996
116.946
117.092
117.044
117.187
117.14
117.284
117.235
117.379
117.332
117.474
117.427
117.567
117.521
117.655
117.612
117.74
117.697
117.825
117.782
117.912
117.868
117.774
118.006
117.957
113.97
114.777
111.125
112.691
107.786
109.441
105.019
106.28
103.487
104.072
103.499
103.292
105.051
104.095
107.834
106.32
111.194
109.499
114.063
112.772
114.883
118.188
118.245
118.073
118.128
117.963
118.018
117.858
117.91
117.756
117.808
117.65
117.703
117.543
117.597
117.433
117.488
117.323
117.378
117.213
117.268
117.103
117.158
116.992
117.047
116.88
116.936
116.769
116.825
116.657
116.713
116.545
116.601
116.433
116.489
116.322
116.378
116.211
116.266
116.101
116.156
115.991
116.046
115.883
115.937
115.776
115.829
115.67
115.723
115.567
115.618
115.465
115.515
115.365
115.414
115.267
115.316
115.172
115.219
115.079
115.125
114.988
115.033
114.9
114.944
114.814
114.857
114.73
114.772
114.649
114.689
114.569
114.609
114.491
114.53
114.415
114.453
114.339
114.377
114.301
115.631
115.773
112.775
112.671
87.1022
114.938
114.188
115.923
116.241
116.206
116.676
116.497
117.052
116.813
117.354
117.158
117.585
117.518
117.749
118.049
117.856
117.857
117.928
117.991
118.076
118.186
118.332
118.478
118.567
116.535
118.154
145.296
115.702
112.982
112.878
113.19
113.086
113.41
113.298
113.639
113.525
113.861
113.755
114.035
113.955
114.168
114.105
114.296
114.23
114.437
114.364
114.592
114.513
114.755
114.673
114.918
114.837
115.075
114.998
115.22
115.15
115.354
115.287
115.503
115.424
115.674
115.586
115.847
115.762
116.006
115.928
116.155
116.081
116.3
116.228
116.442
116.372
116.58
116.511
116.714
116.648
116.843
116.779
116.962
116.904
117.073
117.018
117.184
117.128
117.302
117.242
117.417
117.36
117.523
117.472
117.619
117.572
117.705
117.663
117.786
117.746
117.861
117.825
117.93
117.897
117.992
117.962
118.046
118.02
118.093
118.07
117.843
117.727
118.123
114.881
118.144
112.46
114.06
114.836
111.243
112.8
107.9
109.559
105.117
106.387
103.572
104.163
103.584
103.375
105.148
104.184
107.947
106.426
111.311
109.617
114.153
112.881
115.056
114.942
112.566
114.316
118.253
118.289
118.181
118.215
118.107
118.145
118.026
118.067
117.943
117.985
117.855
117.9
117.761
117.809
117.66
117.711
117.554
117.608
117.442
117.499
117.324
117.384
117.202
117.264
117.074
117.138
116.942
117.009
116.806
116.874
116.665
116.736
116.522
116.594
116.375
116.449
116.225
116.3
116.072
116.149
115.917
115.995
115.76
115.838
115.6
115.68
115.439
115.52
115.277
115.358
115.113
115.195
114.947
115.03
114.781
114.864
114.613
114.697
114.444
114.529
114.274
114.359
114.102
114.188
113.928
114.015
113.752
113.84
113.574
113.664
113.394
113.484
113.21
113.302
113.022
113.116
112.83
112.927
112.632
112.732
112.429
112.531
118.472
115.997
116.186
116.259
116.67
112.46
109.693
109.511
109.548
112.325
109.37
116.506
117.113
116.756
117.488
117.028
117.785
117.327
118.001
117.643
118.139
117.937
118.213
118.248
228.321
118.278
114.744
118.324
118.39
118.577
118.607
118.477
118.669
118.466
118.479
118.447
118.018
117.964
116.096
110.048
109.872
110.399
110.223
110.749
110.572
111.111
110.927
111.488
111.299
111.841
111.673
112.123
111.992
112.346
112.239
112.557
112.45
112.785
112.667
113.034
112.907
113.29
113.162
113.543
113.417
113.784
113.665
113.998
113.895
114.193
114.095
114.413
114.297
114.673
114.539
114.933
114.807
115.167
115.053
115.383
115.276
115.589
115.487
115.79
115.69
115.983
115.887
116.169
116.077
116.343
116.258
116.495
116.421
116.63
116.564
116.771
116.697
116.934
116.85
117.097
117.017
117.239
117.171
117.36
117.302
117.464
117.414
117.558
117.512
117.644
117.603
117.72
117.684
117.785
117.754
117.839
117.814
117.882
117.861
117.897
117.917
112.612
114.956
114.15
114.153
114.897
111.366
112.913
108.022
109.685
105.224
106.502
103.666
104.263
103.677
103.467
105.254
104.283
108.069
106.54
111.435
109.742
114.246
112.994
115.073
115.003
114.277
118.112
118.095
118.058
118.101
117.986
118.019
117.927
117.956
117.86
117.896
117.782
117.824
117.696
117.74
117.601
117.65
117.496
117.55
117.38
117.44
117.254
117.318
117.117
117.187
116.97
117.045
116.814
116.893
116.649
116.733
116.475
116.563
116.294
116.385
116.105
116.2
115.909
116.008
115.707
115.808
115.498
115.603
115.284
115.391
115.064
115.174
114.839
114.952
114.609
114.724
114.374
114.492
114.135
114.255
113.891
114.013
113.643
113.767
113.39
113.517
113.132
113.262
112.87
113.002
112.603
112.737
112.33
112.467
112.052
112.191
111.767
111.91
111.476
111.622
111.177
111.327
110.871
111.025
110.555
110.714
110.231
110.394
109.895
110.064
109.723
116.368
116.604
118.1
105.634
105.373
112.219
109.189
116.6
117.104
116.811
117.556
117.022
117.933
117.249
118.224
117.502
118.422
117.915
118.437
117.772
118.534
118.02
118.575
118.212
118.578
118.687
118.296
118.574
118.773
310.846
118.578
8.79984
118.595
118.64
117.876
116.976
116.908
116.495
106.146
105.892
106.649
106.398
107.152
106.899
107.67
107.407
108.201
107.936
108.692
108.459
109.089
108.901
109.416
109.258
109.725
109.568
110.056
109.885
110.413
110.232
110.775
110.594
111.131
110.955
111.469
111.304
111.767
111.624
112.036
111.902
112.342
112.182
112.708
112.52
113.07
112.893
113.394
113.237
113.692
113.545
113.977
113.835
114.252
114.116
114.518
114.387
114.773
114.648
115.008
114.894
115.209
115.114
115.383
115.298
115.573
115.471
115.804
115.684
116.039
115.924
116.241
116.145
116.409
116.329
116.555
116.484
116.685
116.621
116.804
116.746
116.908
116.858
116.998
116.955
117.073
117.036
117.145
117.106
117.163
117.172
117.046
114.975
114.112
114.25
114.962
111.496
113.032
108.152
109.818
105.34
106.625
103.77
104.371
103.779
103.568
105.368
104.39
108.198
106.662
111.564
109.874
114.344
113.113
115.091
115.067
112.352
114.237
105.108
109.327
117.152
117.056
117.346
117.264
117.295
117.326
117.184
117.23
117.113
117.15
117.032
117.075
116.932
116.982
116.82
116.877
116.695
116.759
116.556
116.627
116.403
116.482
116.235
116.321
116.053
116.145
115.856
115.956
115.646
115.753
115.424
115.537
115.19
115.309
114.945
115.069
114.69
114.819
114.425
114.559
114.15
114.289
113.867
114.01
113.575
113.722
113.275
113.426
112.967
113.122
112.652
112.811
112.329
112.492
111.999
112.165
111.662
111.831
111.317
111.49
110.964
111.141
110.604
110.785
110.235
110.421
109.859
110.048
109.473
109.667
109.078
109.276
108.672
108.876
108.256
108.466
107.829
108.044
107.389
107.61
106.935
107.164
106.467
106.703
105.984
106.228
105.484
105.736
104.967
105.228
116.745
117.028
116.949
117.545
104.839
99.71
99.3591
99.5669
104.701
99.2211
117.125
118.006
117.294
118.386
116.854
117.85
117.477
118.669
118.434
117.682
118.85
117.904
118.937
118.112
118.948
118.722
118.268
118.918
118.826
118.277
118.874
118.866
169.835
231.564
118.833
118.803
118.81
116.82
115.273
115.226
116.9
100.396
100.056
101.064
100.732
101.722
101.392
102.379
102.05
103.052
102.712
103.738
103.395
104.364
104.066
104.886
104.637
105.327
105.114
105.742
105.533
106.185
105.958
106.657
106.418
107.133
106.896
107.6
107.368
108.042
107.825
108.433
108.244
108.79
108.612
109.191
108.976
109.67
109.424
110.141
109.911
110.564
110.359
110.955
110.762
111.329
111.144
111.692
111.512
112.043
111.869
112.379
112.213
112.689
112.538
112.95
112.826
113.175
113.065
113.424
113.291
113.744
113.577
114.07
113.91
114.351
114.217
114.585
114.473
114.79
114.691
114.975
114.885
115.145
115.062
115.297
115.223
115.429
115.365
115.544
115.488
115.66
115.601
115.693
115.692
115.447
115.582
115.229
115.331
115.018
115.137
112.112
109.004
114.996
114.073
114.352
115.029
111.632
113.156
108.289
109.958
105.465
106.757
103.882
104.489
103.891
103.679
105.491
104.506
108.334
106.792
111.7
110.014
114.445
113.236
115.111
115.134
112.242
114.197
109.139
115.427
115.339
115.64
115.527
115.83
115.752
115.8
115.836
115.649
115.723
115.544
115.594
115.425
115.488
115.282
115.355
115.125
115.205
114.951
115.04
114.76
114.858
114.55
114.657
114.321
114.438
114.076
114.201
113.813
113.947
113.534
113.676
113.24
113.389
112.932
113.088
112.61
112.773
112.275
112.444
111.928
112.103
111.57
111.751
111.2
111.386
110.82
111.011
110.429
110.626
110.029
110.23
109.619
109.825
109.198
109.41
108.769
108.985
108.329
108.55
107.879
108.105
107.42
107.651
106.949
107.186
106.468
106.71
105.975
106.223
105.47
105.724
104.952
105.213
104.421
104.688
103.875
104.15
103.314
103.596
102.737
103.027
102.142
102.441
101.529
101.838
100.896
101.215
100.242
100.572
99.9073
117.129
117.459
93.2188
92.7919
112.762
108.792
104.431
98.8693
117.304
117.995
115.203
116.805
117.445
118.466
117.84
117.574
118.846
118.443
117.71
119.12
117.867
119.285
118.038
119.347
118.757
118.193
119.331
118.903
118.312
119.263
118.965
118.292
119.176
9.38819
119.087
119.017
119.001
116.432
108.979
117.311
94.0549
93.6396
94.8698
94.4652
95.6752
95.2728
96.4801
96.0768
97.2979
96.8858
98.1323
97.7166
98.8909
98.5246
99.5407
99.2286
100.087
99.8186
100.609
100.347
101.166
100.884
101.754
101.458
102.344
102.05
102.921
102.634
103.469
103.2
103.959
103.721
104.405
104.186
104.908
104.642
105.501
105.199
106.083
105.797
106.607
106.351
107.094
106.854
107.563
107.33
108.018
107.792
108.46
108.24
108.885
108.675
109.274
109.085
109.603
109.448
109.885
109.748
110.204
110.032
110.622
110.404
111.05
110.84
111.424
111.245
111.737
111.586
112.014
111.879
112.267
112.143
112.501
112.386
112.713
112.61
112.902
112.81
113.068
112.987
113.221
113.149
113.282
113.265
113.136
113.232
112.957
113.037
112.887
112.002
108.816
115.017
114.034
114.458
115.099
111.775
113.286
108.435
110.105
105.598
106.898
104.004
104.615
104.012
103.798
105.623
104.631
108.479
106.931
111.842
110.16
114.55
113.365
115.131
115.203
112.131
114.157
104.565
108.948
92.3585
99.0024
104.841
104.634
113.186
113.019
115.211
112.871
112.913
112.932
112.888
113.079
112.999
113.275
113.177
113.392
113.354
113.375
113.396
113.205
113.292
113.036
113.111
112.866
112.955
112.665
112.768
112.449
112.558
112.211
112.332
111.952
112.085
111.672
111.815
111.371
111.524
111.05
111.213
110.711
110.883
110.353
110.534
109.977
110.167
109.586
109.784
109.179
109.385
108.758
108.97
108.323
108.542
107.875
108.1
107.413
107.646
106.94
107.178
106.455
106.699
105.958
106.208
105.449
105.705
104.929
105.19
104.397
104.664
103.854
104.127
103.298
103.577
102.73
103.016
102.149
102.441
101.555
101.854
100.946
101.252
100.323
100.637
99.6846
100.006
99.0293
99.3591
98.3567
98.6952
97.6658
98.0136
96.9554
97.3131
96.2247
96.5927
95.4722
95.8512
94.6973
95.0877
93.8984
94.3009
93.0752
93.4899
92.2268
92.6541
110.019
115.267
117.52
117.897
116.801
117.667
118.451
91.9193
84.804
84.2988
84.6733
91.7929
84.1747
117.838
117.773
118.932
118.461
117.86
119.312
117.95
119.578
118.057
119.727
118.804
118.177
119.766
118.984
118.306
119.718
119.086
118.368
119.613
118.309
119.481
8.76512
119.35
119.177
119.248
117.428
116.331
112.302
114.616
110.182
113.128
115.331
112.149
47.9766
117.73
85.7947
85.3025
86.7598
86.2804
87.7047
87.2344
88.6382
88.1736
89.5723
89.1043
90.521
90.0436
91.4794
91.0055
92.3733
91.9386
93.1297
92.7662
93.7766
93.4577
94.4023
94.0849
95.065
94.73
95.7584
95.41
96.4543
96.1075
97.1352
96.7972
97.7845
97.4651
98.3728
98.0865
98.9144
98.6446
99.5148
99.1985
100.209
99.8582
100.893
100.558
101.512
101.21
102.093
101.806
102.654
102.375
103.2
102.928
103.731
103.467
104.244
103.99
104.717
104.486
105.114
104.926
105.454
105.287
105.842
105.631
106.36
106.09
106.895
106.631
107.368
107.143
107.765
107.573
108.12
107.946
108.448
108.287
108.753
108.603
109.033
108.896
109.286
109.163
109.509
109.401
109.703
109.612
109.796
109.765
109.764
109.802
109.698
109.73
109.582
109.657
109.319
109.454
109.147
104.157
98.512
111.891
108.625
115.04
113.995
114.568
115.171
111.924
113.421
108.589
110.26
105.741
107.047
104.136
104.752
104.143
103.928
105.764
104.766
108.631
107.079
111.99
110.314
114.659
113.5
115.153
115.275
112.017
114.116
104.286
108.754
98.6404
109.716
109.805
109.694
109.686
109.791
109.741
109.902
109.854
109.94
109.932
109.886
109.915
109.684
109.79
109.456
109.568
109.225
109.346
108.96
109.095
108.67
108.816
108.362
108.52
108.029
108.199
107.672
107.854
107.293
107.485
106.892
107.095
106.471
106.684
106.031
106.253
105.571
105.803
105.096
105.335
104.603
104.851
104.095
104.351
103.572
103.835
103.035
103.305
102.484
102.761
101.919
102.203
101.342
101.632
100.752
101.048
100.148
100.452
99.5325
99.8421
98.9035
99.2196
98.2613
98.584
97.6055
97.9351
96.9356
97.2724
96.2511
96.5952
95.5514
95.9032
94.8357
95.1956
94.1031
94.4715
93.3529
93.7303
92.5841
92.9709
91.7958
92.1924
90.9872
91.3941
90.157
90.5748
89.3044
89.7336
88.4284
88.8694
87.528
87.9813
86.6022
87.0683
85.6508
86.1299
85.1655
116.823
117.918
118.342
48.7522
76.5749
76.0209
91.3529
83.6698
117.847
118.037
118.915
118.487
118.108
119.405
118.154
119.786
118.198
120.043
118.86
118.257
120.175
119.076
118.339
120.191
119.219
118.408
120.112
118.425
119.969
118.331
119.797
119.353
119.631
118.02
117.367
119.493
116.238
114.493
109.892
105.81
105.581
204.625
289.057
112.002
109.723
112.991
115.305
116.848
118.156
77.664
77.1226
78.7286
78.1992
79.7753
79.2535
80.8108
80.2943
81.8446
81.3256
82.9008
82.3687
83.9645
83.4375
84.9596
84.483
85.812
85.4103
86.5415
86.1824
87.2588
86.895
88.0093
87.6268
88.7965
88.4005
89.5836
89.1912
90.3546
89.9717
91.0928
90.7289
91.772
91.442
92.4075
92.0909
93.096
92.7363
93.8718
93.4777
94.6378
94.2626
95.3415
94.9976
96.005
95.6768
96.6483
96.3285
97.2769
96.9643
97.8902
97.5855
98.4844
98.1904
99.0347
98.767
99.4928
99.2773