/*--------------------------------*- C++ -*----------------------------------*\
| =========                 |                                                 |
| \\      /  F ield         | OpenFOAM: The Open Source CFD Toolbox           |
|  \\    /   O peration     | Version:  2212                                  |
|   \\  /    A nd           | Website:  www.openfoam.com                      |
|    \\/     M anipulation  |                                                 |
\*---------------------------------------------------------------------------*/
FoamFile
{
    version     2.0;
    format      ascii;
    arch        "LSB;label=32;scalar=64";
    class       volScalarField;
    location    "0.0308";
    object      T;
}
// * * * * * * * * * * * * * * * * * * * * * * * * * * * * * * * * * * * * * //

dimensions      [0 0 0 1 0 0 0];

internalField   nonuniform List<scalar> 
31661
(
271.639
229.631
230.634
230.136
229.438
230.46
229.951
229.246
230.29
229.769
268.422
227.107
274.034
266.065
272.445
271.256
272.409
271.474
232.606
271.061
251.54
251.745
256.213
268.386
229.833
252.178
257.844
251.776
226.403
221.914
268.327
236.35
240.608
230.454
241.952
268.038
239.566
268.218
252.905
250.777
253.813
229.766
268.459
233.095
233.942
225.188
233.473
228.825
238.394
258.979
259.466
256.02
224.859
228.916
248.599
231.91
225.584
225.147
252.296
229.124
226.646
227.982
231.031
229.572
231.024
265.5
272.567
252.837
253.384
253.911
228.451
254.608
255.085
255.541
255.979
256.399
256.801
257.183
257.545
257.887
258.21
258.515
258.805
259.071
259.086
258.825
258.536
258.233
257.913
257.575
257.219
256.843
256.45
256.037
255.61
255.172
254.725
254.28
253.832
253.356
252.859
252.368
251.893
251.545
251.424
251.017
250.928
250.481
250.413
249.948
249.894
249.418
249.373
248.892
248.854
248.371
248.338
247.854
247.827
247.345
247.321
246.842
246.822
246.349
246.332
245.864
245.85
245.389
245.377
244.924
244.913
244.469
244.459
244.026
244.016
243.593
243.584
243.172
243.164
242.762
242.754
242.363
242.356
241.976
241.97
241.602
241.596
241.24
241.235
240.89
240.885
240.553
240.548
240.229
240.224
239.917
239.914
239.619
239.616
239.334
239.331
239.063
239.06
238.805
238.803
238.561
238.559
238.33
238.33
238.114
238.114
238.12
238.335
238.565
238.809
239.067
239.338
239.622
239.92
240.23
240.554
240.89
241.24
241.601
241.975
242.361
242.759
243.169
243.59
244.022
244.465
244.92
245.384
245.859
246.343
246.837
247.339
247.85
248.369
248.895
249.43
249.97
250.517
251.071
251.642
252.217
252.799
253.376
253.938
254.475
254.982
255.454
255.906
256.338
256.748
257.138
257.506
259.297
259.284
257.854
258.18
258.488
258.782
259.052
259.41
259.411
259.409
259.306
259.098
258.84
258.55
258.245
257.924
257.584
257.224
256.846
256.449
256.036
255.608
255.168
254.719
254.258
253.793
253.317
252.83
252.338
251.844
251.347
250.844
250.336
249.823
249.31
248.797
248.288
247.781
247.28
246.786
246.298
245.819
245.349
244.888
244.436
243.995
243.565
243.146
242.738
242.342
241.958
241.585
241.225
240.877
240.542
240.22
239.91
239.613
239.331
239.061
238.805
238.563
238.334
238.12
237.92
237.913
237.912
237.918
237.931
238.131
238.345
238.574
238.816
239.073
239.342
239.625
239.922
240.231
240.554
240.889
241.236
241.596
241.968
242.353
242.749
243.157
243.576
244.007
244.449
244.902
245.365
245.839
246.322
246.816
247.319
247.83
248.35
248.879
249.415
249.957
250.507
251.063
251.623
252.185
252.75
253.308
253.854
254.379
254.883
255.364
255.826
256.267
256.687
257.085
257.46
257.813
258.144
259.268
258.457
258.756
259.033
259.441
259.452
259.403
259.458
259.33
259.276
259.423
259.404
259.304
259.103
258.848
258.552
258.243
257.919
257.577
257.216
256.836
256.438
256.024
255.595
255.153
254.695
254.225
253.748
253.265
252.774
252.277
251.776
251.271
250.763
250.253
249.742
249.232
248.724
248.219
247.718
247.222
246.732
246.249
245.774
245.307
244.849
244.401
243.963
243.536
243.12
242.715
242.322
241.94
241.57
241.212
240.867
240.535
240.215
239.907
239.613
239.332
239.065
238.811
238.571
238.345
238.133
237.935
237.752
237.735
237.727
237.725
237.731
237.745
237.766
237.95
238.148
238.36
238.587
238.827
239.081
239.349
239.63
239.924
240.231
240.551
240.883
241.228
241.585
241.955
242.337
242.73
243.135
243.552
243.98
244.419
244.869
245.33
245.801
246.283
246.774
247.275
247.785
248.304
248.831
249.366
249.908
250.456
251.009
251.563
252.119
252.672
253.218
253.755
254.276
254.781
255.269
255.738
256.187
256.616
257.022
257.404
257.763
258.101
258.422
259.253
258.728
259.012
259.363
258.636
258.782
259.395
259.456
259.382
257.06
256.576
258.419
259.192
259.393
259.386
259.295
259.101
258.848
258.547
258.234
257.907
257.562
257.198
256.815
256.413
255.995
255.56
255.11
254.646
254.17
253.687
253.197
252.699
252.197
251.691
251.183
250.673
250.162
249.652
249.143
248.637
248.136
247.639
247.148
246.663
246.186
245.715
245.253
244.799
244.355
243.922
243.499
243.086
242.685
242.296
241.918
241.552
241.197
240.856
240.526
240.209
239.905
239.614
239.337
239.073
238.822
238.585
238.362
238.152
237.957
237.777
237.612
237.584
237.565
237.555
237.553
237.559
237.574
237.598
237.63
237.796
237.977
238.172
238.381
238.605
238.842
239.093
239.357
239.635
239.925
240.229
240.545
240.874
241.216
241.569
241.935
242.313
242.703
243.105
243.517
243.942
244.377
244.823
245.28
245.747
246.224
246.712
247.209
247.716
248.231
248.755
249.287
249.826
250.37
250.918
251.468
252.017
252.563
253.104
253.637
254.159
254.667
255.159
255.635
256.093
256.531
256.946
257.337
257.706
258.053
258.381
258.695
259.237
258.987
258.873
257.385
259.383
253.079
253.958
259.451
259.384
258.921
248.214
246.755
251.868
255.888
258.108
259.066
259.352
259.357
259.273
259.091
258.844
258.537
258.217
257.882
257.53
257.16
256.77
256.362
255.937
255.495
255.039
254.569
254.089
253.601
253.106
252.604
252.098
251.589
251.079
250.568
250.058
249.549
249.042
248.539
248.04
247.547
247.06
246.581
246.108
245.643
245.186
244.738
244.299
243.871
243.453
243.046
242.65
242.265
241.891
241.53
241.18
240.843
240.518
240.205
239.905
239.619
239.345
239.085
238.838
238.604
238.385
238.179
237.988
237.811
237.649
237.502
237.462
237.431
237.41
237.399
237.396
237.403
237.419
237.444
237.479
237.671
237.833
238.011
238.202
238.408
238.627
238.861
239.107
239.368
239.641
239.928
240.227
240.539
240.863
241.2
241.549
241.91
242.284
242.668
243.065
243.473
243.892
244.322
244.763
245.214
245.676
246.148
246.63
247.123
247.624
248.135
248.654
249.181
249.714
250.253
250.795
251.339
251.883
252.426
252.964
253.497
254.02
254.532
255.031
255.515
255.982
256.429
256.854
257.257
257.638
257.996
258.334
258.658
259.219
258.958
237.523
259.198
257.582
259.364
254.551
259.441
249.341
259.378
242.583
243.767
258.925
257.676
240.071
239.091
241.267
245.018
250.283
254.934
257.667
258.889
259.289
259.323
259.242
259.069
258.83
258.517
258.188
257.845
257.484
257.105
256.706
256.289
255.855
255.405
254.942
254.466
253.981
253.489
252.989
252.484
251.976
251.465
250.955
250.445
249.936
249.429
248.925
248.425
247.931
247.442
246.96
246.485
246.017
245.559
245.108
244.667
244.235
243.812
243.4
242.999
242.608
242.229
241.861
241.505
241.161
240.829
240.509
240.202
239.908
239.626
239.357
239.101
238.859
238.63
238.415
238.214
238.027
237.855
237.696
237.553
237.424
237.37
237.326
237.294
237.271
237.259
237.256
237.262
237.279
237.306
237.343
237.39
237.578
237.721
237.88
238.053
238.24
238.441
238.656
238.884
239.126
239.381
239.65
239.931
240.225
240.532
240.851
241.182
241.525
241.881
242.248
242.627
243.017
243.419
243.832
244.255
244.69
245.135
245.59
246.056
246.531
247.017
247.512
248.017
248.529
249.05
249.576
250.107
250.643
251.181
251.721
252.261
252.799
253.332
253.859
254.376
254.881
255.374
255.852
256.31
256.747
257.164
257.558
257.928
258.278
258.615
258.925
259.17
237.448
259.305
259.337
254.903
259.422
250.129
259.361
244.735
258.901
240.93
257.671
237.595
238.419
255.05
237.31
237.253
237.206
237.171
237.147
237.134
237.13
237.137
237.155
237.183
237.223
237.273
237.335
237.518
237.643
237.782
237.936
238.104
238.286
238.482
238.691
238.914
239.15
239.399
239.662
239.937
240.225
240.525
240.838
241.162
241.499
241.848
242.208
242.58
242.963
243.357
243.762
244.178
244.605
245.042
245.49
245.948
246.416
246.893
247.381
247.877
248.382
248.893
249.411
249.935
250.465
250.998
251.534
252.071
252.609
253.143
253.673
254.195
254.708
255.211
255.699
256.17
256.623
257.055
257.463
257.847
258.214
258.567
258.886
259.138
259.265
259.351
259.299
237.409
236.407
235.624
236.722
238.06
239.926
243.119
248.302
253.623
257.04
258.636
259.198
259.278
259.208
259.046
258.806
258.488
258.15
257.796
257.424
257.034
256.624
256.196
255.752
255.293
254.821
254.338
253.847
253.35
252.846
252.339
251.829
251.318
250.808
250.299
249.793
249.29
248.79
248.295
247.806
247.322
246.846
246.377
245.916
245.464
245.02
244.586
244.161
243.746
243.34
242.946
242.562
242.19
241.829
241.479
241.142
240.816
240.502
240.201
239.913
239.637
239.374
239.124
238.887
238.664
238.454
238.258
238.076
237.908
237.754
237.615
237.49
237.38
259.391
250.592
259.088
259.198
259.328
245.431
258.844
241.618
257.589
239.13
255.013
237.143
250.761
234.62
235.327
237.495
237.6
237.72
237.854
238.003
238.165
238.341
238.531
238.734
238.951
239.18
239.423
239.678
239.947
240.227
240.52
240.826
241.143
241.472
241.813
242.165
242.528
242.903
243.289
243.686
244.093
244.511
244.939
245.378
245.826
246.285
246.753
247.231
247.718
248.212
248.715
249.225
249.741
250.263
250.79
251.322
251.857
252.394
252.929
253.461
253.989
254.511
255.023
255.524
256.01
256.479
256.928
257.354
257.76
258.146
258.517
258.847
259.098
259.214
259.23
258.931
233.95
234.865
235.873
237.05
238.645
241.223
245.968
251.846
256.134
258.265
259.063
259.216
259.166
259.023
258.774
258.454
258.103
257.736
257.352
256.948
256.525
256.084
255.628
255.158
254.676
254.186
253.689
253.186
252.678
252.169
251.658
251.148
250.639
250.133
249.63
249.131
248.636
248.147
247.664
247.188
246.718
246.257
245.803
245.359
244.923
244.496
244.079
243.672
243.276
242.889
242.513
242.149
241.795
241.453
241.123
240.804
240.498
240.204
239.922
239.653
239.396
239.153
238.922
238.705
238.501
238.311
238.135
237.972
237.824
237.689
237.569
237.463
237.371
237.285
237.211
237.151
237.102
237.065
237.04
237.025
237.021
237.029
237.047
237.077
237.118
237.171
237.236
237.313
233.098
237.404
258.096
257.65
233.683
259.275
245.838
237.328
237.234
237.153
237.085
237.029
236.986
236.955
236.935
236.928
236.931
236.947
236.974
237.013
237.064
237.127
237.204
237.295
258.41
258.751
242.106
232.303
231.921
232.622
233.377
234.193
235.103
236.126
237.476
239.504
243.446
249.51
254.81
257.702
258.856
259.129
259.109
258.99
258.741
258.42
258.052
257.668
257.267
256.847
256.409
255.954
255.484
255.001
254.509
254.01
253.506
252.997
252.487
251.975
251.464
250.955
250.448
249.945
249.446
248.953
248.465
247.983
247.507
247.039
246.578
246.125
245.68
245.244
244.818
244.4
243.992
243.595
243.207
242.829
242.463
242.107
241.762
241.428
241.106
240.796
240.498
240.211
239.937
239.676
239.427
239.19
238.967
238.756
238.559
238.375
238.205
238.048
237.905
237.776
237.661
237.56
237.472
237.4
254.445
255.53
257.421
239.688
254.803
237.776
250.655
236.007
245.959
234.312
232.786
231.246
231.552
229.48
229.938
237.437
237.508
237.596
237.696
237.811
237.939
238.081
238.238
238.407
238.59
238.787
238.996
239.219
239.454
239.702
239.962
240.235
240.52
240.816
241.125
241.446
241.777
242.121
242.475
242.841
243.217
243.604
244.001
244.409
244.827
245.255
245.693
246.141
246.6
247.067
247.543
248.027
248.52
249.02
249.527
250.041
250.562
251.09
251.623
252.156
252.69
253.226
253.759
254.289
254.812
255.326
255.829
256.315
256.784
257.232
257.661
258.072
258.467
258.804
259.042
259.146
259.138
258.693
257.006
252.937
237.266
248.721
246.461
231.509
237.378
258.614
242.381
237.169
237.086
237.015
236.958
236.913
236.881
236.861
236.853
236.857
236.873
236.901
236.941
236.994
237.06
237.139
237.232
237.34
256.292
257.165
240.074
229.95
231.035
231.639
232.273
232.939
233.65
234.446
235.338
236.453
238.064
241.037
246.643
252.883
256.825
258.519
259.01
259.031
258.93
258.706
258.39
257.999
257.593
257.172
256.733
256.277
255.805
255.319
254.824
254.32
253.812
253.3
252.786
252.272
251.759
251.249
250.741
250.238
249.739
249.246
248.759
248.278
247.804
247.338
246.879
246.427
245.984
245.55
245.124
244.707
244.3
243.902
243.515
243.137
242.77
242.413
242.067
241.731
241.407
241.094
240.793
240.504
240.226
239.96
239.707
239.466
239.238
239.022
238.819
238.629
238.452
238.288
238.138
238.001
237.878
237.768
237.672
237.588
237.521
237.464
250.578
254.417
238.273
240.794
242.632
250.287
236.602
245.806
234.927
242.441
233.331
231.932
230.822
229.409
237.22
237.336
229.265
228.891
237.505
237.562
237.628
237.711
237.806
237.915
238.037
238.174
238.323
238.486
238.662
238.851
239.052
239.267
239.494
239.733
239.985
240.249
240.525
240.813
241.112
241.423
241.745
242.079
242.423
242.778
243.144
243.52
243.907
244.304
244.71
245.127
245.553
245.99
246.436
246.891
247.355
247.828
248.31
248.8
249.297
249.803
250.319
250.842
251.368
251.898
252.432
252.969
253.509
254.046
254.58
255.108
255.626
256.133
256.624
257.098
257.553
257.992
258.411
258.741
258.969
259.072
259.011
258.312
256.009
250.838
243.971
239.238
228.508
229.028
237.964
236.94
230.491
256.811
240.282
237.118
237.032
236.959
236.899
236.853
236.819
236.799
236.79
236.794
236.811
236.84
236.881
236.936
237.005
237.087
237.184
237.296
237.425
252.02
253.854
238.613
228.895
230.44
230.946
231.467
232.03
232.628
233.254
233.932
234.7
235.61
236.877
239.087
243.524
250.177
255.441
257.975
258.83
258.956
258.86
258.657
258.355
257.944
257.513
257.068
256.607
256.13
255.639
255.137
254.627
254.111
253.593
253.073
252.555
252.038
251.525
251.015
250.51
250.011
249.518
249.032
248.553
248.08
247.616
247.159
246.711
246.27
245.838
245.415
245
244.595
244.199
243.813
243.436
243.069
242.713
242.367
242.031
241.706
241.392
241.09
240.799
240.518
240.25
239.994
239.749
239.517
239.297
239.09
238.895
238.713
238.543
238.387
238.243
238.113
237.996
237.891
237.801
237.722
237.659
237.605
237.571
244.493
249.658
237.072
239.079
245.389
235.48
235.591
236.345
242.294
233.88
240.317
232.38
231.113
230.111
237.191
237.307
229.397
228.904
229.631
228.59
237.468
237.618
237.65
237.703
237.765
237.843
237.932
238.036
238.152
238.281
238.424
238.579
238.747
238.928
239.122
239.328
239.546
239.777
240.019
240.274
240.54
240.818
241.107
241.407
241.719
242.042
242.375
242.719
243.074
243.438
243.813
244.198
244.592
244.997
245.411
245.834
246.267
246.71
247.161
247.62
248.09
248.569
249.057
249.556
250.063
250.577
251.098
251.626
252.158
252.698
253.241
253.785
254.329
254.871
255.407
255.935
256.451
256.951
257.435
257.905
258.352
258.679
258.895
258.997
258.833
257.741
254.514
248.187
241.503
237.863
236.067
234.97
268.758
234.621
234.144
256.249
225.355
253.089
238.793
237.089
237.001
236.926
236.865
236.817
236.782
236.761
236.753
236.756
236.773
236.803
236.846
236.903
236.973
237.057
237.155
237.268
237.396
237.542
246.219
248.775
237.396
224.922
229.425
230.03
230.488
230.942
231.418
231.899
232.416
232.972
233.569
234.212
234.971
235.922
237.585
240.69
246.819
253.299
257.085
258.536
258.844
258.793
258.624
258.307
257.888
257.429
256.956
256.47
255.97
255.459
254.939
254.413
253.885
253.357
252.83
252.307
251.789
251.275
250.768
250.267
249.774
249.288
248.809
248.339
247.877
247.423
246.977
246.54
246.111
245.692
245.281
244.879
244.486
244.102
243.728
243.363
243.008
242.663
242.329
242.005
241.691
241.388
241.097
240.815
240.545
240.287
240.041
239.806
239.583
239.372
239.173
238.987
238.813
238.651
238.502
238.366
238.242
238.131
238.033
237.948
237.874
237.816
237.765
237.736
237.708
240.301
244.724
235.927
237.21
241.95
234.387
235.202
240.185
232.854
233.407
233.766
238.816
231.461
230.312
237.171
237.291
229.431
228.809
228.398
228.175
237.439
237.588
237.786
237.814
237.864
237.921
237.994
238.078
238.175
238.285
238.407
238.542
238.69
238.85
239.022
239.207
239.404
239.613
239.834
240.067
240.312
240.567
240.835
241.114
241.403
241.703
242.015
242.336
242.668
243.011
243.363
243.725
244.097
244.479
244.87
245.271
245.68
246.101
246.53
246.967
247.413
247.87
248.337
248.816
249.304
249.798
250.304
250.82
251.342
251.877
252.417
252.961
253.511
254.065
254.621
255.175
255.725
256.266
256.794
257.309
257.812
258.283
258.632
258.821
258.886
258.546
256.839
252.276
245.195
239.507
236.777
235.358
234.498
233.784
233.145
228.535
232.751
232.565
228.159
237.758
247.652
237.567
237.066
236.976
236.9
236.838
236.789
236.753
236.732
236.724
236.727
236.744
236.774
236.818
236.876
236.947
237.033
237.134
237.25
237.385
237.537
237.708
241.568
243.837
236.241
229.242
229.555
229.894
230.225
230.625
231.031
231.44
231.87
232.321
232.793
233.319
233.879
234.509
235.255
236.435
238.691
243.29
250.228
255.575
257.986
258.665
258.693
258.564
258.272
257.851
257.352
256.844
256.327
255.802
255.268
254.728
254.187
253.646
253.108
252.576
252.049
251.529
251.017
250.513
250.018
249.531
249.053
248.584
248.124
247.673
247.231
246.798
246.373
245.958
245.551
245.153
244.764
244.384
244.014
243.652
243.3
242.958
242.626
242.303
241.991
241.69
241.399
241.117
240.847
240.589
240.341
240.105
239.88
239.667
239.465
239.276
239.098
238.933
238.779
238.638
238.509
238.393
238.288
238.196
238.116
238.048
237.994
237.947
237.922
237.896
237.899
238.123
241.424
234.808
235.878
239.892
233.306
228.918
234.242
238.687
231.851
233.022
237.585
230.575
237.181
237.303
232.034
232.129
229.537
228.775
228.242
227.913
227.781
237.43
237.586
237.759
237.951
237.976
238.001
238.046
238.099
238.166
238.245
238.335
238.439
238.554
238.681
238.821
238.973
239.137
239.313
239.5
239.7
239.911
240.133
240.368
240.613
240.869
241.136
241.415
241.704
242.002
242.312
242.631
242.961
243.3
243.649
244.008
244.376
244.753
245.14
245.536
245.942
246.357
246.78
247.214
247.658
248.112
248.578
249.052
249.536
250.035
250.541
251.062
251.593
252.13
252.675
253.23
253.795
254.365
254.937
255.509
256.077
256.639
257.193
257.738
258.227
258.575
258.722
258.719
258.037
255.379
249.318
242.215
237.953
235.932
234.85
234.157
233.531
232.978
232.48
232.016
231.542
227.779
231.581
228.186
237.954
242.773
236.408
237.075
236.983
236.906
236.842
236.792
236.756
236.734
236.724
236.728
236.746
236.777
236.822
236.881
236.954
237.041
237.143
237.261
237.395
237.546
237.716
237.907
239.044
240.739
235.11
229.604
229.892
230.191
230.502
230.836
231.185
231.546
231.919
232.309
232.731
233.167
233.655
234.191
234.817
235.626
237.294
240.263
246.576
253.099
256.999
258.376
258.6
258.477
258.22
257.826
257.286
256.737
256.186
255.631
255.073
254.513
253.956
253.402
252.856
252.317
251.788
251.268
250.759
250.26
249.771
249.293
248.824
248.366
247.917
247.478
247.049
246.629
246.218
245.816
245.423
245.039
244.664
244.298
243.941
243.593
243.255
242.926
242.607
242.298
241.998
241.708
241.427
241.159
240.901
240.653
240.416
240.191
239.976
239.773
239.581
239.401
239.233
239.076
238.931
238.798
238.676
238.567
238.469
238.383
238.308
238.246
238.195
238.154
238.131
238.108
238.113
238.123
236.628
239.446
233.692
229.309
228.603
234.819
238.409
232.24
233.381
237.452
230.874
237.192
237.314
232.322
236.422
231.567
229.708
228.792
231.175
231.074
228.128
227.688
227.449
227.38
237.44
237.594
237.768
237.963
238.173
238.168
238.19
238.212
238.252
238.302
238.363
238.436
238.52
238.617
238.725
238.845
238.977
239.12
239.275
239.442
239.62
239.81
240.011
240.223
240.446
240.68
240.926
241.181
241.447
241.724
242.012
242.308
242.614
242.93
243.257
243.592
243.937
244.291
244.654
245.027
245.408
245.799
246.2
246.609
247.029
247.459
247.899
248.351
248.813
249.289
249.774
250.273
250.787
251.309
251.844
252.392
252.954
253.526
254.11
254.701
255.296
255.897
256.499
257.103
257.696
258.174
258.496
258.64
258.494
257.175
253.055
245.873
239.862
236.808
235.333
234.517
233.921
233.381
232.915
232.469
232.067
231.686
231.324
230.788
227.857
230.979
227.416
238.183
239.932
235.272
237.086
236.995
236.918
236.854
236.805
236.768
236.745
236.735
236.74
236.758
236.789
236.834
236.892
236.965
237.052
237.154
237.272
237.406
237.558
237.729
237.92
238.136
237.409
238.865
233.976
229.708
229.974
230.24
230.51
230.792
231.084
231.39
231.706
232.034
232.378
232.737
233.126
233.546
233.994
234.543
235.132
236.288
238.357
242.85
249.662
255.315
257.806
258.423
258.395
258.203
257.794
257.239
256.645
256.054
255.466
254.882
254.302
253.728
253.163
252.608
252.065
251.534
251.016
250.511
250.018
249.537
249.068
248.61
248.164
247.728
247.302
246.887
246.481
246.084
245.696
245.318
244.948
244.588
244.236
243.893
243.559
243.234
242.92
242.614
242.317
242.028
241.75
241.484
241.227
240.98
240.744
240.518
240.303
240.1
239.907
239.725
239.554
239.395
239.247
239.11
238.985
238.871
238.768
238.677
238.598
238.528
238.471
238.424
238.388
238.367
238.348
238.355
238.365
238.379
228.297
235.466
237.992
232.582
229.024
229.447
233.848
237.176
231.188
237.212
237.333
232.604
236.284
235.282
231.675
229.921
228.866
231.042
228.068
230.642
227.506
230.65
230.42
227.159
227.002
226.983
237.451
237.606
237.78
237.976
238.197
238.431
238.421
238.413
238.431
238.452
238.486
238.533
238.588
238.657
238.734
238.825
238.926
239.038
239.162
239.297
239.443
239.6
239.769
239.949
240.139
240.341
240.553
240.776
241.01
241.254
241.508
241.771
242.046
242.332
242.626
242.93
243.241
243.562
243.892
244.232
244.581
244.939
245.306
245.682
246.068
246.463
246.868
247.284
247.709
248.147
248.597
249.059
249.533
250.025
250.527
251.042
251.575
252.125
252.69
253.272
253.867
254.473
255.094
255.728
256.371
257.026
257.674
258.141
258.428
258.548
258.089
255.762
249.924
242.475
238.204
236.013
234.949
234.306
233.791
233.338
232.917
232.54
232.181
231.843
231.519
231.208
230.911
230.333
227.059
227.525
230.618
238.445
238.172
234.129
237.106
237.015
236.937
236.874
236.824
236.788
236.765
236.755
236.76
236.777
236.808
236.853
236.912
236.984
237.072
237.174
237.292
237.426
237.578
237.749
237.941
238.158
238.401
227.995
236.149
237.455
227.21
227.703
232.839
228.741
229.187
229.632
229.87
230.111
230.353
230.597
230.844
231.099
231.362
231.634
231.915
232.207
232.51
232.83
233.167
233.53
233.928
234.374
234.888
235.653
237.065
240.011
245.633
252.562
256.746
258.156
258.313
258.153
257.792
257.259
256.6
255.953
255.324
254.709
254.106
253.516
252.94
252.378
251.831
251.3
250.785
250.285
249.8
249.328
248.87
248.425
247.991
247.568
247.157
246.755
246.364
245.982
245.609
245.245
244.89
244.544
244.207
243.879
243.56
243.249
242.945
242.65
242.365
242.092
241.828
241.573
241.328
241.093
240.868
240.653
240.449
240.256
240.073
239.901
239.74
239.59
239.45
239.322
239.204
239.098
239.002
238.917
238.844
238.779
238.728
238.684
238.655
238.632
238.62
238.627
238.638
238.652
238.676
234.407
236.767
231.477
237.247
237.368
232.976
236.004
235.141
231.873
230.158
228.994
231.072
234.136
228.06
230.543
227.369
230.226
226.906
230.067
226.651
230.335
230.023
226.564
226.596
237.471
237.626
237.801
237.998
238.219
238.468
238.749
238.725
238.71
238.7
238.693
238.702
238.726
238.753
238.797
238.846
238.91
238.982
239.066
239.16
239.265
239.381
239.508
239.645
239.794
239.953
240.123
240.303
240.494
240.696
240.908
241.13
241.363
241.605
241.857
242.118
242.388
242.669
242.961
243.262
243.571
243.887
244.212
244.546
244.888
245.241
245.602
245.973
246.353
246.743
247.143
247.555
247.978
248.414
248.862
249.326
249.804
250.296
250.807
251.336
251.884
252.452
253.038
253.641
254.265
254.913
255.582
256.276
256.997
257.684
258.148
258.34
258.318
257.251
253.312
246.544
240.04
237.158
235.509
234.747
234.221
233.771
233.373
233.012
232.672
232.353
232.048
231.756
231.474
231.197
230.924
230.657
230.06
230.395
230.158
226.714
230.322
236.828
230.375
230.209
226.9
227.418
228.464
228.932
229.396
228.194
228.681
229.164
227.93
228.436
228.936
228.194
227.671
228.71
227.14
228.487
227.957
227.417
232.977
237.141
237.049
236.972
236.908
236.858
236.822
236.799
236.789
236.794
236.811
236.842
236.887
236.946
237.019
237.106
237.209
237.327
237.461
237.612
237.784
237.977
238.193
238.436
238.711
230.719
230.995
231.253
231.51
231.768
232.029
232.295
232.574
232.863
233.171
233.494
233.853
234.229
234.694
235.255
236.416
238.472
243.108
250.119
255.838
257.963
258.275
258.095
257.669
257.021
256.235
255.483
254.773
254.097
253.451
252.836
252.248
251.682
251.138
250.615
250.112
249.629
249.164
248.714
248.279
247.857
247.449
247.053
246.667
246.293
245.928
245.573
245.227
244.89
244.561
244.239
243.925
243.619
243.323
243.037
242.761
242.494
242.235
241.986
241.745
241.515
241.294
241.083
240.881
240.69
240.509
240.339
240.178
240.028
239.888
239.759
239.64
239.531
239.433
239.346
239.268
239.202
239.143
239.099
239.058
239.035
239.011
239.009
239.016
239.027
239.043
239.067
235.024
236.248
231.697
237.505
237.661
237.836
238.033
238.254
238.503
238.784
239.102
229.006
229.217
229.429
229.643
229.857
230.075
230.295
230.516
230.74
230.965
231.192
231.425
231.664
231.91
232.164
232.427
232.7
232.987
233.288
233.611
233.954
234.34
234.786
235.349
236.315
238.218
242.121
248.815
254.864
257.582
258.2
258.115
257.832
257.296
256.585
255.891
255.216
254.567
253.941
253.335
252.747
252.18
251.631
251.102
250.592
250.098
249.622
249.161
248.715
248.282
247.862
247.453
247.056
246.669
246.293
245.925
245.568
245.219
244.88
244.549
244.225
243.908
243.599
243.299
243.009
242.73
242.46
242.199
241.946
241.703
241.47
241.246
241.033
240.829
240.635
240.452
240.279
240.117
239.965
239.823
239.692
239.572
239.462
239.363
239.274
239.195
239.127
239.067
239.022
238.98
238.956
238.932
238.928
238.935
238.946
238.961
238.985
239.02
233.441
235.598
234.862
232.159
230.38
229.144
231.188
233.996
237.3
237.421
228.088
230.513
232.98
227.271
230.077
226.691
229.831
226.331
229.727
226.162
229.724
226.136
229.799
226.215
229.951
226.376
226.598
228.796
228.265
226.865
229.105
228.588
235.653
229.634
229.828
227.722
227.166
231.816
230.647
230.856
231.075
231.342
231.599
231.848
232.091
232.336
232.582
232.842
233.11
233.397
233.692
234.02
234.361
234.763
235.231
236.008
237.498
240.621
246.62
253.566
257.285
258.161
258.072
257.742
257.099
256.247
255.433
254.681
253.978
253.316
252.691
252.099
251.536
250.998
250.483
249.99
249.517
249.064
248.628
248.208
247.801
247.409
247.028
246.659
246.3
245.949
245.605
245.27
244.943
244.624
244.316
244.017
243.727
243.447
243.175
242.91
242.654
242.407
242.169
241.94
241.72
241.51
241.309
241.118
240.937
240.765
240.604
240.452
240.311
240.179
240.057
239.946
239.844
239.753
239.671
239.599
239.538
239.484
239.443
239.406
239.388
239.365
239.366
239.373
239.386
239.402
239.427
239.462
237.195
237.104
237.027
236.964
236.914
236.877
236.854
236.845
236.849
236.866
236.897
236.942
237.001
237.074
237.161
237.263
237.38
237.513
237.664
237.835
238.026
238.242
238.484
238.757
239.066
233.976
235.098
228.932
231.174
234.469
232.529
230.555
229.296
229.311
229.514
229.715
229.915
230.116
230.316
230.518
230.722
230.928
231.135
231.343
231.554
231.769
231.989
232.216
232.449
232.69
232.942
233.203
233.48
233.77
234.085
234.421
234.804
235.267
235.956
237.22
239.847
244.935
251.888
256.424
257.951
258.069
257.871
257.377
256.667
255.887
255.159
254.472
253.82
253.197
252.601
252.03
251.482
250.957
250.453
249.968
249.502
249.053
248.619
248.199
247.793
247.399
247.017
246.646
246.284
245.932
245.588
245.251
244.921
244.6
244.287
243.985
243.691
243.408
243.133
242.866
242.607
242.357
242.116
241.884
241.662
241.449
241.246
241.053
240.87
240.696
240.533
240.379
240.236
240.103
239.98
239.867
239.764
239.671
239.588
239.515
239.453
239.398
239.356
239.318
239.299
239.276
239.276
239.283
239.295
239.311
239.336
239.37
239.415
231.392
233.725
237.558
237.712
237.887
238.083
238.303
238.551
238.831
239.148
239.506
237.369
237.488
228.378
228.116
228.043
228.154
230.545
232.847
227.216
229.976
231.816
226.514
229.629
226.04
229.45
225.777
229.396
225.683
229.436
225.714
229.552
225.844
229.749
226.045
230.506
226.3
226.594
234.542
229.375
229.279
233.996
232.984
229.418
237.265
237.176
237.1
237.038
236.989
236.953
236.931
236.921
236.925
236.943
236.973
237.017
237.075
237.146
237.232
237.332
237.448
237.58
237.729
237.898
238.087
238.301
238.541
238.813
239.12
239.467
231.051
229.613
229.825
230.019
230.21
230.4
230.588
230.775
230.963
231.154
231.345
231.539
231.734
231.932
232.133
232.339
232.551
232.771
232.997
233.232
233.477
233.735
234.009
234.297
234.613
234.949
235.352
235.864
236.765
238.457
241.946
248.223
254.425
257.372
258.022
257.874
257.433
256.831
255.979
255.171
254.438
253.762
253.127
252.525
251.953
251.407
250.886
250.389
249.914
249.459
249.023
248.602
248.197
247.805
247.424
247.054
246.693
246.341
245.999
245.665
245.341
245.027
244.722
244.426
244.139
243.858
243.585
243.32
243.064
242.816
242.577
242.348
242.126
241.914
241.712
241.519
241.335
241.161
240.996
240.841
240.696
240.561
240.435
240.32
240.214
240.117
240.031
239.953
239.886
239.827
239.778
239.739
239.705
239.688
239.667
239.67
239.678
239.691
239.708
239.732
239.767
239.81
239.862
231.679
233.353
230.698
230.896
231.096
231.306
231.518
231.745
231.98
232.216
232.449
232.682
232.916
233.159
233.413
233.685
233.968
234.271
234.595
234.954
235.36
235.949
237.022
239.204
243.533
250.645
256.033
257.9
258.062
257.814
257.204
256.356
255.461
254.651
253.923
253.252
252.623
252.03
251.469
250.936
250.43
249.947
249.487
249.047
248.626
248.22
247.828
247.448
247.078
246.719
246.37
246.03
245.7
245.38
245.07
244.769
244.476
244.191
243.912
243.642
243.38
243.126
242.881
242.645
242.417
242.198
241.989
241.788
241.597
241.415
241.243
241.08
240.927
240.783
240.649
240.525
240.411
240.306
240.211
240.125
240.049
239.983
239.925
239.876
239.838
239.805
239.789
239.769
239.772
239.78
239.793
239.81
239.835
239.87
239.913
237.624
237.777