/*--------------------------------*- C++ -*----------------------------------*\
| =========                 |                                                 |
| \\      /  F ield         | OpenFOAM: The Open Source CFD Toolbox           |
|  \\    /   O peration     | Version:  2212                                  |
|   \\  /    A nd           | Website:  www.openfoam.com                      |
|    \\/     M anipulation  |                                                 |
\*---------------------------------------------------------------------------*/
FoamFile
{
    version     2.0;
    format      ascii;
    arch        "LSB;label=32;scalar=64";
    class       volScalarField;
    location    "0.0054";
    object      k;
}
// * * * * * * * * * * * * * * * * * * * * * * * * * * * * * * * * * * * * * //

dimensions      [0 2 -2 0 0 0 0];

internalField   nonuniform List<scalar> 
31661
(
946.956
358.746
358.807
358.775
359.071
359.139
359.104
359.391
359.463
359.428
792.279
369.649
3360.95
499.497
983.159
894.017
988.326
927.867
374.154
872.291
360.257
360.927
203.793
768.157
361.456
358.383
185.204
219.297
369.512
368.578
756.255
252.158
266.205
377.64
366.15
723.095
366.617
716.485
311.749
279.759
327.787
357.719
622.848
383.491
384.749
371.663
384.165
376.034
366.908
433.436
346.242
388.312
373.364
374.246
337.538
371.019
374.904
375.809
340.6
373.569
371.704
371.934
383.533
355.466
361.005
597.575
1114.53
341
341.434
341.869
368.608
342.531
342.958
343.4
343.848
344.299
344.753
345.208
345.663
346.117
346.568
347.014
347.453
347.886
347.918
347.488
347.05
346.605
346.156
345.704
345.253
344.803
344.355
343.911
343.475
343.05
342.647
342.259
341.841
341.424
341.026
340.66
340.312
340.008
339.942
339.64
339.582
339.278
339.23
338.927
338.891
338.592
338.564
338.272
338.25
337.968
337.95
337.678
337.665
337.403
337.393
337.143
337.135
336.897
336.892
336.664
336.661
336.444
336.443
336.237
336.236
336.04
336.039
335.854
335.853
335.676
335.676
335.506
335.505
335.342
335.342
335.183
335.183
335.028
335.027
334.875
334.874
334.723
334.722
334.571
334.57
334.418
334.416
334.262
334.26
334.102
334.101
333.938
333.936
333.769
333.767
333.593
333.591
333.411
333.408
333.222
333.218
333.024
333.02
332.814
332.818
332.818
333.024
333.222
333.412
333.594
333.77
333.94
334.104
334.264
334.42
334.574
334.727
334.879
335.032
335.187
335.347
335.511
335.681
335.859
336.046
336.243
336.451
336.672
336.906
337.153
337.416
337.694
337.987
338.296
338.622
338.965
339.325
339.704
340.102
340.526
340.977
341.444
341.911
342.381
342.86
343.325
343.785
344.244
344.704
345.164
345.623
348.341
348.312
346.08
346.533
346.979
347.42
347.856
348.731
348.757
348.788
348.373
347.95
347.52
347.084
346.641
346.195
345.747
345.298
344.851
344.405
343.963
343.527
343.1
342.678
342.26
341.844
341.437
341.042
340.662
340.291
339.921
339.56
339.211
338.876
338.555
338.246
337.949
337.664
337.394
337.137
336.892
336.662
336.444
336.237
336.041
335.855
335.677
335.507
335.343
335.184
335.029
334.876
334.723
334.571
334.417
334.26
334.099
333.934
333.764
333.588
333.404
333.214
333.015
332.808
332.593
332.6
332.603
332.603
332.599
332.814
333.021
333.22
333.41
333.594
333.77
333.941
334.106
334.267
334.424
334.578
334.732
334.884
335.038
335.194
335.354
335.519
335.689
335.868
336.055
336.253
336.462
336.683
336.917
337.166
337.43
337.709
338.004
338.316
338.644
338.989
339.35
339.726
340.118
340.526
340.956
341.407
341.87
342.332
342.799
343.268
343.735
344.201
344.664
345.128
345.588
346.046
346.5
348.285
346.949
347.392
347.83
349.196
349.167
348.71
349.144
349.598
349.628
349.227
348.819
348.404
347.981
347.552
347.117
346.677
346.232
345.786
345.339
344.892
344.446
344.003
343.564
343.131
342.702
342.279
341.863
341.455
341.056
340.669
340.29
339.918
339.559
339.211
338.876
338.553
338.244
337.949
337.667
337.398
337.143
336.9
336.67
336.452
336.245
336.049
335.863
335.685
335.514
335.35
335.19
335.034
334.88
334.726
334.573
334.418
334.259
334.098
333.932
333.76
333.583
333.398
333.206
333.007
332.799
332.583
332.358
332.369
332.376
332.38
332.38
332.375
332.365
332.59
332.806
333.013
333.213
333.405
333.59
333.768
333.94
334.106
334.268
334.427
334.583
334.737
334.891
335.046
335.203
335.364
335.529
335.701
335.88
336.068
336.266
336.475
336.697
336.932
337.181
337.445
337.725
338.021
338.334
338.662
339.007
339.367
339.742
340.131
340.535
340.955
341.39
341.839
342.296
342.759
343.228
343.698
344.167
344.636
345.101
345.561
346.016
346.47
346.921
348.263
347.368
347.808
349.571
350.023
349.993
348.69
349.126
349.55
350.412
350.443
350.055
349.66
349.259
348.85
348.433
348.011
347.581
347.147
346.707
346.263
345.818
345.371
344.923
344.477
344.033
343.593
343.157
342.725
342.3
341.882
341.472
341.071
340.68
340.298
339.926
339.566
339.219
338.883
338.56
338.251
337.955
337.674
337.407
337.153
336.912
336.683
336.465
336.258
336.062
335.875
335.697
335.526
335.36
335.2
335.042
334.886
334.731
334.576
334.419
334.26
334.096
333.929
333.755
333.576
333.39
333.197
332.996
332.786
332.569
332.343
332.108
332.125
332.137
332.144
332.148
332.148
332.142
332.131
332.116
332.35
332.576
332.794
333.003
333.204
333.397
333.583
333.763
333.937
334.105
334.269
334.429
334.587
334.743
334.899
335.056
335.214
335.376
335.543
335.715
335.895
336.084
336.282
336.492
336.714
336.949
337.198
337.463
337.743
338.039
338.351
338.678
339.022
339.38
339.753
340.141
340.543
340.96
341.39
341.831
342.279
342.736
343.2
343.667
344.137
344.606
345.073
345.535
345.994
346.45
346.902
347.346
348.244
347.788
349.969
350.384
348.673
350.825
350.795
349.111
349.535
349.951
351.202
351.235
350.859
350.476
350.087
349.691
349.288
348.878
348.461
348.037
347.608
347.173
346.733
346.291
345.845
345.398
344.951
344.505
344.061
343.62
343.182
342.749
342.323
341.904
341.493
341.092
340.699
340.317
339.945
339.585
339.238
338.903
338.581
338.272
337.977
337.695
337.428
337.173
336.932
336.703
336.485
336.278
336.081
335.893
335.714
335.541
335.374
335.211
335.052
334.894
334.738
334.58
334.421
334.26
334.095
333.925
333.75
333.568
333.38
333.185
332.982
332.771
332.552
332.324
332.088
331.843
331.865
331.883
331.896
331.904
331.907
331.907
331.9
331.889
331.872
332.096
332.332
332.559
332.778
332.989
333.191
333.386
333.575
333.756
333.932
334.103
334.269
334.431
334.591
334.749
334.907
335.066
335.227
335.39
335.558
335.732
335.914
336.103
336.302
336.512
336.734
336.97
337.219
337.483
337.763
338.059
338.37
338.696
339.038
339.395
339.767
340.153
340.552
340.965
341.388
341.817
342.257
342.709
343.167
343.634
344.103
344.573
345.041
345.507
345.971
346.432
346.884
347.331
348.226
347.774
331.851
348.212
350.362
348.659
350.769
349.097
351.173
349.525
351.606
351.574
349.939
350.346
351.971
352.007
351.642
351.271
350.893
350.509
350.119
349.721
349.316
348.905
348.486
348.062
347.632
347.197
346.758
346.316
345.871
345.425
344.978
344.532
344.088
343.647
343.209
342.776
342.35
341.93
341.519
341.118
340.725
340.343
339.972
339.612
339.266
338.932
338.611
338.302
338.007
337.726
337.457
337.202
336.96
336.729
336.511
336.303
336.105
335.916
335.734
335.56
335.391
335.226
335.064
334.904
334.745
334.585
334.424
334.26
334.092
333.92
333.743
333.559
333.368
333.171
332.965
332.752
332.531
332.301
332.063
331.817
331.562
331.59
331.614
331.632
331.646
331.654
331.658
331.656
331.65
331.637
331.62
331.597
331.825
332.071
332.309
332.538
332.758
332.971
333.176
333.373
333.564
333.748
333.926
334.099
334.268
334.433
334.595
334.756
334.916
335.077
335.24
335.406
335.577
335.752
335.935
336.126
336.326
336.537
336.76
336.995
337.244
337.508
337.787
338.082
338.392
338.716
339.056
339.411
339.781
340.165
340.562
340.972
341.392
341.819
342.254
342.699
343.158
343.619
344.081
344.547
345.013
345.481
345.947
346.407
346.863
347.317
347.764
348.205
331.569
348.642
348.645
350.75
349.085
351.15
349.516
351.547
349.932
351.941
350.337
352.367
352.332
350.737
331.298
331.328
331.353
331.373
331.387
331.396
331.399
331.398
331.39
331.377
331.358
331.334
331.305
331.537
331.794
332.042
332.281
332.513
332.736
332.951
333.158
333.358
333.551
333.738
333.919
334.095
334.266
334.434
334.599
334.763
334.926
335.09
335.256
335.424
335.597
335.775
335.96
336.152
336.354
336.566
336.789
337.025
337.274
337.537
337.815
338.108
338.416
338.739
339.077
339.43
339.798
340.179
340.573
340.98
341.398
341.825
342.258
342.696
343.139
343.593
344.058
344.523
344.991
345.458
345.921
346.381
346.841
347.293
347.745
348.191
348.632
349.073
349.067
331.272
352.722
352.761
352.406
352.046
351.679
351.306
350.927
350.541
350.149
349.749
349.343
348.93
348.512
348.087
347.657
347.222
346.783
346.341
345.897
345.451
345.005
344.56
344.117
343.676
343.239
342.807
342.381
341.961
341.551
341.149
340.757
340.376
340.005
339.646
339.3
338.966
338.645
338.338
338.043
337.761
337.492
337.236
336.993
336.762
336.541
336.332
336.132
335.941
335.758
335.581
335.41
335.242
335.078
334.916
334.754
334.591
334.427
334.26
334.09
333.915
333.734
333.548
333.354
333.154
332.946
332.73
332.506
332.275
332.034
331.786
331.529
331.263
349.074
351.133
349.494
349.499
349.507
351.526
349.928
351.917
350.333
352.304
350.73
352.689
351.123
353.11
353.072
331.233
331.5
331.758
332.009
332.25
332.484
332.71
332.927
333.138
333.341
333.537
333.726
333.911
334.089
334.264
334.435
334.604
334.771
334.937
335.104
335.272
335.444
335.619
335.8
335.988
336.182
336.386
336.599
336.824
337.06
337.309
337.571
337.847
338.138
338.444
338.765
339.101
339.451
339.816
340.195
340.586
340.991
341.407
341.831
342.264
342.703
343.147
343.597
344.05
344.508
344.971
345.436
345.901
346.367
346.826
347.285
347.737
348.182
348.624
349.061
349.49
353.155
352.805
352.448
352.086
351.717
351.342
350.96
350.573
350.178
349.777
349.37
348.956
348.537
348.112
347.682
347.247
346.809
346.368
345.924
345.48
345.035
344.591
344.148
343.708
343.272
342.841
342.415
341.997
341.587
341.186
340.794
340.413
340.043
339.684
339.339
339.005
338.685
338.377
338.082
337.8
337.531
337.274
337.03
336.797
336.576
336.364
336.163
335.97
335.784
335.605
335.431
335.261
335.094
334.928
334.764
334.598
334.431
334.261
334.087
333.908
333.724
333.535
333.338
333.135
332.924
332.705
332.479
332.244
332.001
331.75
331.491
331.223
330.946
330.989
331.026
331.057
331.084
331.105
331.12
331.129
331.132
331.13
331.122
331.108
331.088
331.063
331.033
330.998
353.5
330.958
349.916
349.913
353.455
349.499
351.512
330.674
330.716
330.752
330.784
330.81
330.83
330.845
330.853
330.856
330.852
330.843
330.827
330.805
330.778
330.744
330.706
330.662
349.916
349.923
351.899
353.839
353.891
353.55
353.203
352.851
352.491
352.126
351.755
351.378
350.994
350.604
350.208
349.806
349.397
348.983
348.563
348.138
347.709
347.275
346.837
346.397
345.954
345.511
345.067
344.623
344.182
343.743
343.308
342.878
342.454
342.036
341.627
341.227
340.836
340.455
340.085
339.728
339.382
339.049
338.728
338.42
338.125
337.843
337.573
337.315
337.07
336.836
336.613
336.4
336.196
336.001
335.812
335.631
335.454
335.281
335.111
334.942
334.774
334.605
334.434
334.26
334.083
333.901
333.714
333.52
333.32
333.113
332.899
332.677
332.448
332.21
331.964
331.711
331.448
331.178
330.899
330.612
350.328
350.327
350.332
352.283
350.729
352.664
351.118
353.042
351.504
353.419
353.796
354.226
354.175
355.341
354.942
330.628
330.913
331.19
331.458
331.719
331.972
332.216
332.452
332.681
332.901
333.115
333.321
333.52
333.714
333.901
334.083
334.261
334.436
334.608
334.778
334.948
335.118
335.29
335.465
335.644
335.828
336.018
336.215
336.421
336.636
336.861
337.098
337.346
337.609
337.884
338.173
338.477
338.795
339.128
339.475
339.837
340.213
340.604
341.006
341.418
341.838
342.267
342.705
343.15
343.599
344.052
344.511
344.971
345.436
345.897
346.363
346.822
347.278
347.73
348.179
348.624
349.061
349.491
349.915
350.33
330.383
350.735
350.739
382.382
330.335
349.917
351.887
330.426
330.463
330.496
330.523
330.544
330.559
330.568
330.57
330.567
330.557
330.54
330.518
330.489
330.454
330.414
330.369
330.317
350.327
350.331
352.267
355.018
354.284
353.947
353.603
353.254
352.898
352.536
352.167
351.794
351.414
351.028
350.636
350.239
349.835
349.426
349.012
348.592
348.167
347.737
347.304
346.867
346.428
345.986
345.544
345.101
344.659
344.219
343.781
343.347
342.918
342.495
342.079
341.671
341.271
340.881
340.501
340.132
339.775
339.429
339.096
338.775
338.467
338.171
337.888
337.618
337.359
337.113
336.877
336.652
336.437
336.231
336.034
335.843
335.658
335.478
335.302
335.129
334.956
334.785
334.612
334.437
334.26
334.078
333.892
333.701
333.504
333.3
333.09
332.872
332.647
332.414
332.173
331.924
331.667
331.402
331.129
330.848
330.558
330.261
350.734
350.73
352.645
351.142
351.137
351.119
353.019
351.502
353.391
351.881
353.762
354.134
354.507
355.264
330.083
330.034
355.873
356.183
330.282
330.576
330.863
331.142
331.413
331.676
331.931
332.178
332.418
332.649
332.873
333.09
333.3
333.503
333.699
333.891
334.077
334.258
334.437
334.612
334.786
334.96
335.134
335.309
335.487
335.67
335.857
336.05
336.25
336.458
336.675
336.902
337.14
337.39
337.651
337.925
338.212
338.514
338.83
339.16
339.504
339.864
340.237
340.625
341.024
341.433
341.851
342.278
342.714
343.156
343.605
344.058
344.515
344.974
345.434
345.895
346.355
346.816
347.273
347.729
348.18
348.624
349.061
349.492
349.917
350.333
350.743
351.146
356.226
355.648
351.538
351.544
383.05
350.327
352.258
330.127
330.166
330.2
330.227
330.249
330.264
330.273
330.276
330.272
330.261
330.245
330.221
330.192
330.156
330.114
330.067
330.014
329.956
350.733
350.731
352.632
360.181
354.687
354.35
354.007
353.659
353.305
352.945
352.58
352.209
351.832
351.45
351.063
350.67
350.271
349.867
349.457
349.042
348.622
348.197
347.768
347.335
346.899
346.461
346.02
345.579
345.137
344.697
344.258
343.821
343.389
342.961
342.539
342.124
341.717
341.318
340.929
340.55
340.182
339.825
339.479
339.146
338.825
338.517
338.221
337.937
337.666
337.406
337.158
336.921
336.694
336.477
336.269
336.068
335.875
335.687
335.504
335.324
335.147
334.971
334.796
334.619
334.44
334.258
334.073
333.883
333.688
333.486
333.279
333.064
332.842
332.613
332.376
332.132
331.88
331.619
331.351
331.075
330.791
330.5
330.2
329.893
351.134
351.122
353.003
351.533
351.503
353.371
351.936
351.927
351.88
353.738
352.254
354.104
354.47
354.837
329.776
329.725
355.208
355.581
371.825
355.952
329.979
329.919
330.223
330.519
330.808
331.089
331.363
331.629
331.887
332.137
332.38
332.615
332.843
333.063
333.277
333.483
333.684
333.879
334.069
334.255
334.437
334.617
334.795
334.972
335.15
335.329
335.511
335.696
335.887
336.083
336.286
336.497
336.717
336.946
337.185
337.435
337.696
337.971
338.257
338.556
338.87
339.198
339.541
339.898
340.268
340.65
341.045
341.453
341.868
342.294
342.728
343.167
343.614
344.066
344.521
344.978
345.436
345.897
346.356
346.819
347.278
347.732
348.182
348.625
349.062
349.493
349.919
350.337
350.748
351.153
351.554
351.947
657.068
352.321
352.333
356.712
372.56
350.732
352.625
329.821
329.861
329.895
329.923
329.945
329.961
329.97
329.972
329.968
329.957
329.94
329.916
329.885
329.849
329.806
329.757
329.703
329.643
329.578
351.13
351.125
352.993
372.734
360.139
355.128
354.775
354.424
354.07
353.714
353.355
352.991
352.622
352.249
351.87
351.487
351.098
350.704
350.304
349.9
349.49
349.074
348.655
348.23
347.802
347.369
346.934
346.496
346.057
345.616
345.176
344.737
344.299
343.864
343.433
343.007
342.586
342.172
341.766
341.368
340.98
340.602
340.234
339.877
339.532
339.199
338.878
338.569
338.273
337.988
337.716
337.455
337.206
336.967
336.738
336.519
336.308
336.105
335.908
335.717
335.531
335.347
335.166
334.986
334.807
334.626
334.442
334.256
334.067
333.872
333.672
333.467
333.255
333.036
332.81
332.577
332.336
332.088
331.832
331.568
331.297
331.018
330.731
330.437
330.135
329.826
329.509
351.528
351.507
353.358
351.921
351.882
353.721
352.312
352.254
354.082
352.714
352.7
352.622
354.443
354.804
329.461
329.409
355.166
355.531
355.896
356.237
329.669
329.607
329.853
330.159
330.458
330.75
331.034
331.31
331.579
331.84
332.094
332.34
332.579
332.81
333.035
333.252
333.463
333.668
333.867
334.061
334.252
334.438
334.622
334.804
334.985
335.167
335.35
335.535
335.724
335.918
336.117
336.323
336.537
336.759
336.99
337.231
337.483
337.746
338.021
338.307
338.605
338.918
339.244
339.584
339.938
340.303
340.682
341.075
341.476
341.891
342.315
342.746
343.183
343.627
344.077
344.53
344.987
345.445
345.906
346.366
346.824
347.282
347.737
348.184
348.627
349.065
349.498
349.924
350.344
350.758
351.166
351.565
351.96
352.35
352.732
356.521
353.089
353.108
356.528
329.54
351.127
352.987
329.506
329.547
329.582
329.61
329.633
329.649
329.658
329.66
329.655
329.644
329.626
329.601
329.57
329.533
329.489
329.439
329.383
329.322
329.256
329.185
351.522
351.513
353.35
356.203
355.881
355.544
355.193
354.834
354.477
354.12
353.761
353.399
353.033
352.663
352.288
351.908
351.524
351.134
350.739
350.339
349.934
349.524
349.109
348.689
348.265
347.837
347.406
346.971
346.534
346.096
345.656
345.217
344.779
344.342
343.909
343.479
343.054
342.635
342.222
341.817
341.42
341.033
340.655
340.288
339.932
339.587
339.254
338.933
338.624
338.327
338.042
337.768
337.506
337.255
337.014
336.784
336.562
336.348
336.142
335.942
335.748
335.558
335.371
335.186
335.002
334.817
334.632
334.444
334.254
334.059
333.86
333.656
333.445
333.229
333.006
332.775
332.538
332.293
332.041
331.781
331.514
331.239
330.957
330.667
330.37
330.065
329.754
329.435
329.109
351.915
351.887
353.71
352.302
352.256
354.068
356.533
352.689
352.622
354.424
353.073
352.986
354.78
329.137
329.084
353.479
353.459
355.136
355.494
355.853
356.204
356.524
329.351
329.287
329.219
329.468
329.783
330.092
330.393
330.687
330.974
331.253
331.525
331.79
332.047
332.297
332.54
332.776
333.004
333.226
333.441
333.651
333.854
334.053
334.248
334.439
334.627
334.813
334.999
335.185
335.371
335.56
335.753
335.95
336.152
336.361
336.578
336.803
337.036
337.279
337.533
337.797
338.073
338.36
338.66
338.972
339.297
339.635
339.986
340.348
340.726
341.113
341.513
341.923
342.342
342.767
343.202
343.645
344.093
344.546
345.001
345.46
345.92
346.379
346.836
347.292
347.743
348.192
348.637
349.076
349.51
349.936
350.357
350.773
351.18
351.583
351.98
352.37
352.753
353.13
353.501
353.844
356.841
353.868
356.85
329.145
351.517
353.346
329.184
329.225
329.26
329.288
329.311
329.327
329.336
329.338
329.333
329.322
329.303
329.278
329.246
329.208
329.163
329.113
329.056
328.994
328.926
328.853
328.776
351.908
351.893
353.704
356.223
355.884
355.539
355.198
354.854
354.506
354.154
353.798
353.437
353.071
352.701
352.326
351.946
351.561
351.171
350.776
350.376
349.971
349.561
349.146
348.726
348.303
347.875
347.444
347.01
346.574
346.137
345.698
345.26
344.823
344.388
343.955
343.527
343.103
342.685
342.273
341.869
341.474
341.087
340.71
340.344
339.988
339.644
339.311
338.989
338.68
338.382
338.096
337.822
337.558
337.306
337.063
336.83
336.606
336.39
336.181
335.978
335.779
335.585
335.394
335.205
335.016
334.828
334.637
334.445
334.25
334.05
333.846
333.637
333.422
333.201
332.973
332.738
332.496
332.247
331.991
331.727
331.456
331.178
330.892
330.599
330.299
329.992
329.678
329.357
329.029
328.694
352.294
352.262
354.059
356.558
356.865
352.678
352.626
354.412
353.06
352.987
354.764
328.806
328.752
353.441
353.346
353.823
355.115
355.467
354.23
354.204
355.82
356.172
356.511
356.832
329.025
328.96
328.89
328.815
329.067
329.392
329.709
330.02
330.324
330.621
330.911
331.194
331.469
331.738
331.999
332.253
332.5
332.739
332.972
333.198
333.418
333.632
333.841
334.044
334.244
334.439
334.632
334.823
335.013
335.203
335.394
335.587
335.783
335.983
336.189
336.401
336.62
336.847
337.083
337.329
337.584
337.85
338.128
338.417
338.717
339.03
339.354
339.691
340.041
340.403
340.775
341.158
341.555
341.959
342.373
342.796
343.228
343.668
344.115
344.566
345.02
345.479
345.938
346.396
346.854
347.308
347.759
348.207
348.653
349.093
349.527
349.955
350.378
350.794
351.204
351.608
352.004
352.395
352.778
353.157
353.529
353.897
354.26
354.589
357.172
354.621
357.158
328.735
351.901
353.701
328.853
328.895
328.93
328.958
328.981
328.997
329.006
329.008
329.002
328.99
328.971
328.946
328.914
328.875
328.829
328.778
328.721
328.657
328.589
328.515
328.436
328.353
352.286
352.269
354.054
356.591
356.254
355.914
355.572
355.23
354.888
354.541
354.19
353.835
353.475
353.11
352.74
352.365
351.985
351.601
351.211
350.815
350.415
350.01
349.6
349.185
348.766
348.343
347.916
347.485
347.052
346.617
346.18
345.742
345.305
344.869
344.435
344.003
343.576
343.153
342.736
342.326
341.923
341.528
341.143
340.766
340.401
340.045
339.701
339.368
339.047
338.737
338.439
338.152
337.876
337.612
337.357
337.113
336.878
336.651
336.432
336.219
336.013
335.811
335.613
335.418
335.224
335.031
334.837
334.642
334.445
334.245
334.04
333.831
333.617
333.397
333.171
332.938
332.699
332.452
332.199
331.938
331.67
331.395
331.113
330.824
330.527
330.224
329.914
329.598
329.275
328.945
328.609
328.266
357.191
352.668
352.631
354.404
356.89
356.924
353.047
352.991
354.753
328.467
328.413
353.425
353.347
353.701
353.803
355.101
355.449
354.181
355.796
354.559
356.146
354.975
354.942
356.489
356.82
357.145
328.692
328.626
328.555
328.478
328.397
328.652
328.985
329.312
329.632
329.945
330.252
330.552
330.845
331.131
331.411
331.683
331.948
332.206
332.457
332.701
332.939
333.17
333.394
333.613
333.827
334.035
334.239
334.44
334.638
334.833
335.028
335.222
335.417
335.614
335.814
336.018
336.227
336.442
336.663
336.893
337.131
337.379
337.637
337.905
338.184
338.474
338.776
339.089
339.414
339.75
340.099
340.458
340.827
341.209
341.601
342.001
342.412
342.834
343.263
343.7
344.143
344.59
345.043
345.501
345.96
346.418
346.876
347.33
347.781
348.23
348.676
349.116
349.551
349.98
350.403
350.821
351.232
351.635
352.033
352.423
352.81
353.188
353.562
353.931
354.296
354.657
355.012
355.323
357.474
357.492
355.363
328.312
352.277
354.052
328.515
328.556
328.591
328.62
328.643
328.659
328.667
328.668
328.663
328.65
328.631
328.605
328.573
328.533
328.487
328.435
328.377
328.313
328.244
328.169
328.089
328.005
327.917
357.514
352.658
352.639
357.807
357.831
354.4
357.218
357.253
357.296
356.966
356.633
356.296
355.957
355.617
355.276
354.931
354.584
354.233
353.877
353.517
353.152
352.783
352.408
352.028
351.643
351.253
350.858
350.458
350.053
349.643
349.228
348.809
348.386
347.959
347.529
347.096
346.661
346.225
345.788
345.352
344.917
344.483
344.053
343.627
343.205
342.789
342.38
341.978
341.584
341.199
340.823
340.458
340.103
339.759
339.426
339.105
338.795
338.496
338.208
337.932
337.665
337.409
337.163
336.925
336.696
336.474
336.258
336.048
335.843
335.64
335.441
335.243
335.045
334.846
334.646
334.444
334.238
334.029
333.815
333.595
333.37
333.139
332.901
332.657
332.406
332.148
331.883
331.61
331.331
331.045
330.752
330.453
330.147
329.834
329.515
329.189
328.857
328.519
328.175
327.825
353.035
352.997
354.747
328.12
328.065
353.41
353.352
353.704
353.784
355.092
355.436
354.159
354.053
355.78
354.533
356.124
354.909
356.469
355.288
356.804
355.71
355.667
357.132
357.458
328.352
328.285
328.212
328.134
328.052
327.966
327.876
328.223
328.565
328.9
329.229
329.551
329.867
330.177
330.48
330.776
331.066
331.349
331.625
331.895
332.157
332.413
332.662
332.904
333.14
333.369
333.593
333.812
334.025
334.234
334.44
334.643
334.843
335.043
335.242
335.441
335.642
335.846
336.054
336.266
336.484
336.708
336.94
337.181
337.431
337.69
337.96
338.241
338.532
338.835
339.149
339.474
339.811
340.158
340.516
340.885
341.264
341.653
342.051
342.46
342.878
343.305
343.738
344.178
344.624
345.077
345.533
345.991
346.449
346.906
347.36
347.811
348.259
348.704
349.144
349.579
350.008
350.432
350.85
351.26
351.665
352.062
352.455
352.84
353.221
353.598
353.971
354.339
354.701
355.06
355.415
355.762
356.048
356.1
356.435
357.786
358.444
352.647
356.72
357.047
358.117
358.144
357.542
357.578
357.622
357.861
357.899
357.943
358.176
358.215
358.261
358.526
358.484
358.574
358.451
358.881
358.831
358.787
354.399
328.168
328.21
328.245
328.274
328.296
328.312
328.32
328.321
328.314
328.302
328.282
328.256
328.223
328.183
328.137
328.085
328.026
327.962
327.892
327.816
327.736
327.651
327.562
327.469
356.192
355.844
355.484
355.12
354.754
354.385
354.013
353.635
353.254
352.871
352.483
352.091
351.691
351.288
350.877
350.46
350.036
349.609
349.174
348.735
348.291
347.843
347.392
346.938
346.482
346.025
345.571
345.117
344.666
344.22
343.781
343.351
342.927
342.511
342.105
341.708
341.321
340.944
340.576
340.218
339.871
339.535
339.209
338.895
338.591
338.298
338.016
337.745
337.484
337.232
336.989
336.754
336.527
336.306
336.09
335.879
335.671
335.465
335.261
335.058
334.853
334.648
334.44
334.229
334.014
333.796
333.572
333.343
333.108
332.867
332.62
332.366
332.106
331.839
331.566
331.285
330.998
330.705
330.405
330.099
329.786
329.467
329.143
328.811
328.475
328.132
327.783
353.023
353.004
354.744
328.003
327.936
327.862
327.783
327.7
327.613
327.522
327.428
358.939
358.629
358.315
357.996
357.673
357.347
357.017
356.684
356.348
356.01
355.67
355.327
354.982
354.634
354.282
353.926
353.565
353.2
352.83
352.456
352.076
351.691
351.3
350.905
350.505
350.1
349.689
349.275
348.856
348.433
348.006
347.576
347.143
346.709
346.273
345.837
345.401
344.966
344.533
344.104
343.678
343.258
342.842
342.434
342.033
341.64
341.256
340.881
340.516
340.161
339.818
339.485
339.163
338.853
338.553
338.265
337.987
337.719
337.461
337.213
336.973
336.741
336.516
336.297
336.083
335.873
335.667
335.463
335.26
335.057
334.854
334.649
334.441
334.23
334.016
333.796
333.571
333.341
333.105
332.862
332.613
332.357
332.094
331.824
331.548
331.265
330.975
330.678
330.375
330.065
329.75
329.428
329.1
328.766
328.426
328.081
327.73
327.372
353.397
353.357
353.708
353.768
355.086
355.428
354.139
354.056
327.765
327.709
355.769
354.509
354.401
356.109
354.881
356.451
355.254
356.788
355.629
357.117
356.004
357.443
356.383
357.768
356.741
358.095
358.423
359.244
359.183
358.752
359.611
359.544
353.013
361.028
358.419
359.129
359.083
354.743
357.035
356.656
356.291
355.92
355.547
355.174
354.801
354.427
354.052
353.672
353.288
352.902
352.514
352.119
351.721
351.317
350.906
350.488
350.065
349.636
349.203
348.765
348.321
347.874
347.423
346.971
346.517
346.061
345.607
345.157
344.708
344.265
343.827
343.398
342.978
342.565
342.16
341.765
341.379
341.002
340.635
340.278
339.931
339.594
339.268
338.953
338.649
338.356
338.073
337.8
337.537
337.284
337.039
336.801
336.571
336.346
336.127
335.912
335.699
335.489
335.28
335.072
334.863
334.652
334.439
334.222
334.003
333.778
333.549
333.315
333.075
332.829
332.577
332.318
332.053
331.782
331.504
331.219
330.928
330.631
330.328
330.018
329.703
329.381
329.054
328.72
328.381
328.037
327.686
327.33
327.813
327.855
327.89
327.919
327.941
327.956
327.964
327.964
327.958
327.945
327.925
327.898
327.865
327.825
327.779
327.726
327.668
327.603
327.532
327.456
327.375
327.29
327.2
327.107
327.01
353.384
353.365
359.908
365.615
353.714
353.754
355.084
355.423
359.309
359.004
358.693
358.378
358.058
357.735
357.407
357.077
356.744
356.408
356.07
355.729
355.386
355.04
354.691
354.338
353.981
353.62
353.255
352.884
352.509
352.129
351.743
351.353
350.957
350.556
350.151
349.74
349.325
348.906
348.483
348.056
347.626
347.193
346.759
346.323
345.887
345.451
345.017
344.585
344.156
343.731
343.311
342.896
342.489
342.088
341.696
341.312
340.938
340.574
340.219
339.876
339.543
339.221
338.91
338.61
338.321
338.042
337.772
337.513
337.262
337.02
336.785
336.557
336.334
336.117
335.903
335.693
335.484
335.276
335.069
334.86
334.65
334.437
334.221
334
333.775
333.545
333.31
333.068
332.82
332.566
332.305
332.037
331.763
331.482
331.195
330.901
330.601
330.294
329.981
329.663
329.338
329.008
328.672
328.33
327.983
327.631
327.273
326.909
354.121
354.06
327.647
327.579
327.505
327.425
327.341
327.253
327.162
327.067
326.969
327.401
327.345
359.841
360.122
359.478
355.761
354.488
354.404
356.1
354.855
354.745
356.436
355.223
356.773
355.593
357.104
355.966
357.429
356.339
357.752
356.707
358.075
357.044
358.399
358.105
358.723
359.048
353.374
360.422
360.708
353.721
353.741
355.421
327.45
327.492
327.527
327.556
327.578
327.592
327.599
327.599
327.593
327.579
327.559
327.532
327.498
327.458
327.412
327.36
327.301
327.236
327.165
327.089
327.008
326.922
326.832
326.738
326.641
326.54
383.953
359.692
359.392
359.083
358.769
358.45
358.128
357.803
357.474
357.143
356.81
356.473
356.135
355.793
355.45
355.103
354.754
354.4
354.043
353.681
353.315
352.944
352.568
352.188
351.802
351.411
351.014
350.613
350.207
349.796
349.38
348.96
348.536
348.109
347.678
347.245
346.811
346.375
345.939
345.503
345.069
344.637
344.209
343.784
343.365
342.951
342.544
342.144
341.752
341.369
340.995
340.631
340.277
339.934
339.601
339.278
338.967
338.666
338.376
338.095
337.825
337.563
337.31
337.065
336.828
336.596
336.371
336.149
335.932
335.717
335.503
335.291
335.078
334.865
334.649
334.431
334.209
333.983
333.753
333.517
333.276
333.029
332.776
332.516
332.25
331.978
331.699
331.414
331.122
330.825
330.52
330.21
329.895
329.573
329.246
328.913
328.575
328.231
327.883
327.529
327.17
326.806
326.436
354.106
354.066
357.763
357.412
357.052
356.685
356.325
355.956
355.583
355.209
354.835
354.461
354.086
353.709
353.325
352.937
352.546
352.152
351.753
351.349
350.938
350.519
350.095
349.666
349.232
348.793
348.35
347.904
347.454
347.003
346.55
346.097
345.645
345.197
344.751
344.311
343.877
343.449
343.03
342.619
342.216
341.821
341.436
341.06
340.693
340.336
339.989
339.653
339.327
339.012
338.707
338.413
338.129
337.855
337.591
337.335
337.088
336.847
336.614
336.386
336.163
335.943
335.727
335.512
335.299
335.085
334.871
334.655
334.436
334.214
333.989
333.759
333.525
333.285
333.04
332.789
332.531
332.268
331.998
331.722
331.439
331.151
330.856
330.555
330.248
329.935
329.616
329.292
328.962
328.626
328.285
327.939
327.587
327.23
326.867
327.283
327.215