/*--------------------------------*- C++ -*----------------------------------*\
| =========                 |                                                 |
| \\      /  F ield         | OpenFOAM: The Open Source CFD Toolbox           |
|  \\    /   O peration     | Version:  2212                                  |
|   \\  /    A nd           | Website:  www.openfoam.com                      |
|    \\/     M anipulation  |                                                 |
\*---------------------------------------------------------------------------*/
FoamFile
{
    version     2.0;
    format      ascii;
    arch        "LSB;label=32;scalar=64";
    class       surfaceScalarField;
    location    "0.0054";
    object      phi;
}
// * * * * * * * * * * * * * * * * * * * * * * * * * * * * * * * * * * * * * //

dimensions      [1 0 -1 0 0 0 0];

oriented        oriented;

internalField   nonuniform List<scalar> 
62761
(
8.75276e-07
-9.72422e-05
1.39588e-05
8.23776e-05
7.40644e-06
-0.000190948
0.000191514
-7.14738e-06
-6.83858e-06
-0.00019106
0.000190685
8.04528e-06
-0.000191047
0.000192446
7.81838e-06
-0.000191142
-6.79588e-06
-8.79566e-06
-0.000191713
1.02781e-05
-0.000191194
7.76509e-06
-7.38673e-06
-0.000190678
-8.40971e-06
9.30869e-06
-0.000191768
-0.000190992
-0.000131797
-1.90091e-05
2.16433e-05
0.000129143
-6.06983e-05
-0.000140365
7.74632e-05
0.00012448
2.27613e-05
-3.47536e-05
1.19957e-05
9.30868e-05
-9.43377e-06
-0.000113284
3.02663e-05
6.24047e-05
3.04382e-06
-7.36316e-05
8.16189e-06
8.615e-05
-6.45574e-05
-4.64755e-05
2.48699e-05
5.4402e-05
-4.12527e-05
-6.8005e-05
5.48375e-05
-8.17978e-05
8.53997e-05
-3.09902e-05
2.73654e-05
0.000146684
1.9769e-05
-0.000168647
3.59518e-06
9.07725e-05
4.63454e-06
-5.27965e-06
-9.01372e-05
0.000156192
-0.000116764
-7.5501e-07
-3.73916e-05
9.16885e-06
0.000166153
-1.75163e-05
1.78949e-06
-0.000116081
0.000118355
-2.54385e-06
-8.79623e-05
0.000119908
4.15003e-05
-7.34209e-05
0.000162608
-3.68444e-05
-0.000188494
6.3551e-05
-0.00010187
-5.62615e-05
4.24453e-05
-0.000107569
4.94114e-07
0.000110444
0.000128789
3.58493e-05
-0.000140689
-2.18047e-05
0.00013718
-7.44144e-05
-0.0001228
-0.000131949
0.000124708
0.000116727
-0.000108217
0.000112041
2.31706e-05
-1.72323e-05
-0.000117941
8.07084e-06
-9.96425e-05
-9.48548e-06
0.000102318
1.06336e-06
-9.93723e-05
0.000107561
-8.98451e-05
-0.000154461
0.000170135
7.6147e-05
-7.41604e-06
0.000170922
-0.000157546
-5.17067e-06
8.11867e-05
-6.71663e-05
5.68706e-05
-7.08323e-05
-0.000101165
-5.87384e-05
7.62986e-05
8.48307e-05
0.000123215
4.55808e-05
-8.75292e-05
0.000104699
-9.59713e-05
6.08785e-05
-6.80737e-05
4.01889e-05
-0.000112087
0.000109172
-3.56474e-05
0.00013914
-0.000133957
-3.14804e-06
-3.80999e-07
-0.00019109
-7.26926e-06
0.000191592
7.57536e-06
1.63418e-05
-2.302e-05
8.53043e-05
-7.85e-05
-0.000121728
0.000117266
0.000104986
-9.86694e-05
9.09946e-05
-0.00011345
-9.18057e-05
0.000116045
-8.77869e-05
0.000129277
-0.000126994
8.66263e-05
9.56712e-05
-0.000124546
-0.000150013
9.8494e-05
-6.09018e-05
0.000114399
-0.000116506
7.1015e-05
-5.4284e-05
-0.000127961
3.4924e-05
-1.96202e-05
0.000114203
-3.68455e-05
4.54829e-05
-0.000147826
0.000140997
-0.000163811
-3.60867e-05
6.77143e-05
0.000134182
8.61567e-05
0.000111555
-0.000147421
-4.91555e-05
-0.000140041
0.000157227
-2.34604e-05
8.29766e-06
4.4032e-05
-0.000135265
-6.00847e-05
0.000153705
-6.24708e-05
-0.00013847
0.000143256
5.89141e-05
7.7673e-05
-7.20171e-05
0.000125627
-0.000129947
4.90243e-05
-8.54606e-05
0.000158781
-0.000121052
-0.000223118
-2.10242e-05
2.98406e-05
0.000214915
0.000161259
-0.000158815
-2.43356e-05
2.32852e-05
-1.81367e-06
-0.000138133
-5.30432e-05
0.000194259
-0.000146027
0.000164283
0.000120576
-0.000137316
0.00011633
-7.77044e-05
-0.000127191
9.01787e-05
4.65416e-05
0.000226974
-0.000173763
-9.89569e-05
-6.8965e-05
0.000121227
-0.000121881
7.16529e-05
-1.00438e-06
0.000131243
-2.85225e-06
-0.000127333
-7.53915e-05
8.95818e-05
2.15137e-05
-3.5715e-05
-0.000224161
-5.85411e-06
7.54065e-06
-0.000221266
6.45969e-06
-8.70744e-06
2.29992e-05
-3.09833e-05
-0.000212667
-0.000148447
-4.72267e-05
0.000157976
3.86209e-05
-0.000219797
-2.19681e-05
3.37517e-05
0.00020863
-0.000222213
-8.18633e-06
1.12179e-05
-0.000223547
-3.09378e-06
5.04493e-06
-0.000223996
-1.27175e-06
2.34393e-06
-0.000223742
-9.26498e-07
1.30089e-06
-0.000223123
-9.15969e-07
9.33229e-07
-0.000222925
-1.10357e-06
1.54615e-06
-0.000222539
-1.75935e-06
2.02133e-06
-0.000222326
-2.19709e-06
2.63953e-06
-0.00022222
-3.09894e-06
3.65208e-06
-0.000222321
-3.82628e-06
4.58927e-06
-0.000221736
-4.59911e-06
4.6796e-06
-4.70479e-06
-0.000221803
5.44119e-06
0.000223523
-0.000223543
-4.01155e-06
0.000223041
-3.44844e-06
0.000222799
-2.91915e-06
0.000222683
-2.31961e-06
0.000222879
-1.73882e-06
0.000223163
-1.39567e-06
0.000223543
-8.43717e-07
0.00022397
-7.12229e-07
0.000224351
-6.81916e-07
0.000225118
-1.42082e-06
0.000225129
-2.49663e-06
0.000224191
-6.64922e-06
0.000215335
-1.25516e-05
0.000212493
-4.30319e-07
3.79287e-06
0.000225246
1.07947e-05
0.000227871
4.43269e-06
0.000226827
-4.21393e-06
0.000216342
-9.99045e-06
0.000216303
3.93691e-07
1.52859e-07
2.61285e-05
0.00022661
-3.68128e-05
-0.000215307
0.000229797
1.3181e-05
1.08131e-05
0.000230411
-1.39976e-05
0.00023251
8.69192e-06
4.74895e-06
0.000232399
-6.12129e-06
0.000233704
4.1572e-06
1.87895e-06
0.000233872
-2.73525e-06
0.000234551
1.63944e-06
9.80406e-07
0.000234838
-1.32933e-06
0.000235262
8.80232e-07
5.8937e-07
0.000235628
-7.59339e-07
0.000236026
4.40326e-07
3.83969e-07
0.000236375
-5.0902e-07
0.000236731
2.96693e-07
7.78409e-08
0.00023721
-2.87272e-07
0.000237388
4.39364e-08
5.14789e-08
0.000237982
-1.93482e-07
0.000238086
-1.89442e-08
1.06244e-07
0.000238645
-1.36705e-07
0.000238771
5.24681e-08
8.63831e-09
0.000239373
-1.00054e-07
0.000239518
-1.02931e-07
9.93235e-09
0.000240146
-1.41314e-07
0.00024025
-8.15158e-08
3.3092e-08
0.000240867
-1.0755e-07
0.00024099
-6.16359e-08
-6.22166e-08
0.000241646
-6.64741e-08
0.000241614
-3.31499e-08
1.97448e-08
0.000242392
-1.09304e-07
0.000242357
-6.67403e-08
1.05969e-07
0.000243077
-1.28783e-07
0.000243111
1.46757e-08
9.81296e-08
0.000243783
-1.37406e-07
0.000243859
1.88777e-08
6.72882e-08
0.000244515
-1.26052e-07
0.000244541
5.88625e-08
5.85398e-08
0.000245258
-1.21363e-07
0.000245242
3.87026e-08
7.21876e-08
0.000245981
-1.08582e-07
0.000245996
4.41617e-09
5.41382e-08
0.000246714
-9.54606e-08
0.000246714
2.75997e-08
6.6e-08
0.000247431
-8.50722e-08
0.000247456
2.20787e-08
4.12825e-08
0.000248159
-6.59649e-08
0.000248162
3.82724e-08
6.45426e-08
0.000248921
-1.1695e-07
0.000248868
6.74216e-08
1.09114e-07
0.000249656
-1.30895e-07
0.000249636
5.47128e-08
1.23068e-07
0.000250359
-1.08676e-07
0.000250368
1.07765e-07
1.13077e-07
0.000251102
-1.3551e-07
0.000251095
1.0636e-07
1.48963e-07
0.000251817
-1.40141e-07
0.000251854
1.13129e-07
1.44173e-07
0.000252544
-1.46385e-07
0.00025256
1.62526e-07
1.71251e-07
0.000253279
-1.79471e-07
0.00025332
1.3775e-07
2.1354e-07
0.000254017
-2.23317e-07
0.000254025
2.34667e-07
2.78266e-07
0.000254726
-2.61098e-07
0.000254753
2.75895e-07
3.55646e-07
0.000255445
-3.4979e-07
0.000255509
3.2436e-07
-4.43233e-07
4.13666e-07
0.00025626
-4.49861e-07
0.000256175
-0.00025541
0.000256121
-4.38272e-07
-0.000254703
-3.31219e-07
-0.000253994
-2.43743e-07
-0.000253287
-2.03362e-07
-0.000252563
-1.76924e-07
-0.000251838
-1.46066e-07
-0.000251101
-1.5301e-07
-0.000250382
-1.34607e-07
-0.000249627
-1.46258e-07
-0.000248919
-1.24322e-07
-0.000248227
-1.00194e-07
-0.000247466
-1.23466e-07
-0.000246752
-1.00917e-07
-0.00024602
-1.35095e-07
-0.000245287
-1.55603e-07
-0.000244597
-1.31125e-07
-0.000243896
-1.53003e-07
-0.000243161
-2.04424e-07
-0.000242428
-2.00881e-07
-0.000241654
-2.26436e-07
-0.000240852
-2.17363e-07
-0.000240102
-2.11778e-07
-0.000239417
-1.83987e-07
-0.000238706
-1.74047e-07
-0.000237942
-2.66658e-07
-0.000237228
-2.75665e-07
-0.00023635
-5.36115e-07
-0.000235529
-7.03823e-07
-0.000234621
-1.04146e-06
-0.000233534
-1.79081e-06
-0.000232328
-3.31402e-06
-0.000231142
-6.67439e-06
-0.000233641
-1.08458e-05
-0.000256424
-1.33104e-05
-0.000231875
6.01342e-06
-0.000226901
3.25818e-06
-0.000229908
-5.00562e-06
-0.000252226
-7.9479e-06
-0.000228023
1.02738e-05
-0.000224671
8.51911e-06
-0.000224105
5.11661e-06
-0.000223525
2.3982e-06
-0.000223037
1.44816e-06
-0.000222797
1.33241e-06
-0.000222411
1.80323e-06
-0.000221956
2.21591e-06
5.39087e-06
-0.000223575
-4.68058e-06
-0.000222762
7.0269e-06
-0.000221997
3.33484e-06
-0.000222131
4.44227e-06
-0.000221482
4.60097e-06
-0.000220876
4.73793e-06
-0.0002209
6.13599e-06
-6.00967e-06
6.24369e-06
-0.000222313
-4.90607e-06
-0.000223994
0.000224379
-0.000224475
-4.12339e-06
0.000224036
-3.65471e-06
0.000223788
-3.08758e-06
0.000223471
-2.45903e-06
0.000223338
-2.11992e-06
0.000223295
-1.6126e-06
0.00022346
-1.24855e-06
0.000223712
-9.9867e-07
0.000224285
-7.74778e-07
0.000224666
-4.62028e-07
0.00022517
-5.58263e-07
0.000225398
-1.02727e-06
0.000225823
-2.31256e-06
0.000224228
-4.45399e-06
0.0002188
-6.53521e-06
0.000220282
-1.34289e-06
0.000225162
6.48586e-06
0.000227683
2.49781e-06
0.000226341
-2.28706e-06
0.000222612
-5.69062e-06
0.000222961
6.06666e-07
0.000229231
7.48224e-06
0.000232725
5.78428e-06
0.000234181
3.29787e-06
0.00023485
1.57277e-06
0.000235773
5.63152e-07
0.000236405
4.1983e-07
0.000237021
2.99209e-07
0.000237725
-3.62318e-08
0.000238394
-5.97235e-08
0.000239122
-4.29938e-08
0.000239695
-3.81034e-08
0.00024041
-1.54012e-07
0.000241048
-5.40246e-08
0.000241775
-1.0728e-07
0.000242414
-4.76034e-08
0.000243154
-6.10729e-08
0.000243886
-4.40333e-08
0.000244634
-1.29053e-08
0.000245337
1.75901e-08
0.000246052
-2.25735e-08
0.000246753
1.96215e-08
0.000247466
6.65069e-09
0.000248185
2.20607e-08
0.000248928
3.31761e-08
0.000249669
2.62815e-08
0.000250406
8.70937e-08
0.000251159
7.33245e-08
0.000251883
1.1062e-07
0.000252649
1.20245e-07
0.000253334
1.77991e-07
0.000254083
2.09608e-07
0.000254855
2.28529e-07
0.000255581
3.21083e-07
0.000256351
3.6268e-07
-4.18254e-07
3.73792e-07
0.000257111
-4.9017e-07
0.000257049
-5.4646e-07
0.00025695
-5.54523e-07
0.000256848
-0.000256158
0.000256826
-5.04368e-07
-0.000255431
-4.43412e-07
-0.00025475
-2.87366e-07
-0.000254039
-2.28791e-07
-0.000253297
-2.18537e-07
-0.000252587
-1.60422e-07
-0.00025184
-1.67758e-07
-0.000251154
-1.15162e-07
-0.000250403
-1.65441e-07
-0.000249685
-1.4653e-07
-0.000248958
-1.38266e-07
-0.000248265
-8.38874e-08
-0.000247539
-1.45805e-07
-0.000246788
-1.52832e-07
-0.000246056
-1.7471e-07
-0.000245376
-1.4934e-07
-0.000244671
-1.55601e-07
-0.000243914
-2.3537e-07
-0.000243174
-2.7712e-07
-0.000242428
-2.83884e-07
-0.000241692
-3.06514e-07
-0.00024095
-3.075e-07
-0.000240258
-2.56893e-07
-0.000239539
-2.60264e-07
-0.000238778
-2.95637e-07
-0.000237988
-4.20068e-07
-0.000237218
-4.13269e-07
-0.000236465
-6.56404e-07
-0.000235625
-9.12152e-07
-0.000234572
-1.46332e-06
-0.000233599
-2.13142e-06
-0.000232886
-3.39133e-06
-0.000233878
-5.03786e-06
-0.00023692
-7.14419e-06
-0.000242398
-7.15481e-06
-0.000236031
3.36349e-07
-0.000232195
1.0754e-07
-0.000234032
-2.48308e-06
-0.000238732
-2.55727e-06
-0.000231416
3.64345e-06
-0.000227328
5.09318e-06
-0.000225493
3.93069e-06
-0.000224583
2.13083e-06
-0.000224095
1.60032e-06
-0.000222636
5.14462e-07
-0.000222285
2.09494e-06
-0.00022243
3.01027e-06
-0.000222518
4.07689e-06
-0.000221732
4.31447e-06
-0.000219094
5.89363e-06
-0.000221023
4.55368e-06
-0.000220493
4.87351e-06
-0.000219557
5.87012e-06
5.0538e-06
-0.000224264
-4.57182e-06
5.43747e-06
-0.000223686
8.05785e-06
-0.000220228
5.55533e-06
-0.000221743
-4.47095e-06
5.24462e-06
-0.000224338
0.000224694
-0.000224549
-3.91323e-06
0.000224465
-3.64608e-06
0.000224245
-3.21259e-06
0.00022399
-2.71497e-06
0.000223807
-2.22487e-06
0.000223777
-1.75402e-06
0.000223642
-1.31641e-06
0.00022374
-1.04641e-06
0.000223961
-8.10771e-07
0.000224248
-6.35671e-07
0.000224621
-5.02323e-07
0.000225178
-3.81366e-07
0.000225696
-4.44509e-07
0.000226132
-8.37609e-07
0.000226052
-1.61455e-06
0.000224918
-2.70933e-06
0.000222965
-3.97961e-06
0.000222529
-3.15291e-07
0.000226066
3.53599e-06
0.000227775
1.38095e-06
0.000227306
-1.2268e-06
0.000225286
-3.0861e-06
0.000226313
1.61348e-07
0.000229958
4.42471e-06
0.000232739
3.59998e-06
0.000234331
2.30896e-06
0.000235297
1.21553e-06
0.000235899
5.7129e-07
0.000236645
2.87344e-07
0.000237422
1.37699e-07
0.000237978
2.74199e-08
0.000238635
-9.39959e-08
0.00023919
2.86608e-08
0.000239866
-8.00544e-08
0.000240472
-1.21573e-07
0.000241216
-1.5281e-07
0.000241887
-1.25471e-07
0.000242608
-1.12016e-07
0.000243244
-3.40409e-08
0.000243964
-9.39671e-08
0.000244677
-5.16607e-08
0.000245389
-1.32076e-08
0.000246083
-2.88186e-08
0.000246811
-1.51729e-08
0.000247515
7.74059e-10
0.000248256
-1.64553e-08
0.000248963
3.33621e-08
0.000249674
2.60998e-08
0.000250438
3.98183e-08
0.000251172
5.74389e-08
0.00025192
8.27321e-08
0.00025265
1.12199e-07
0.000253414
1.368e-07
0.000254152
1.94176e-07
0.000254877
2.2575e-07
0.00025564
2.78259e-07
0.000256427
2.92636e-07
0.000257179
3.33736e-07
-3.90295e-07
2.64374e-07
0.000258011
-4.59337e-07
0.00025789
-4.87328e-07
0.000257788
-5.0432e-07
0.00025768
-6.05091e-07
0.000257662
-5.98352e-07
0.000257532
-0.00025677
0.000257478
-5.95787e-07
-0.000256118
-4.40585e-07
-0.000255471
-3.70393e-07
-0.00025473
-3.05956e-07
-0.000254034
-2.00735e-07
-0.000253335
-1.9187e-07
-0.000252592
-1.7784e-07
-0.000251905
-1.31121e-07
-0.000251145
-1.52146e-07
-0.000250427
-1.63142e-07
-0.000249738
-1.18516e-07
-0.000249009
-1.53634e-07
-0.000248281
-1.03494e-07
-0.000247575
-1.48416e-07
-0.00024683
-1.98194e-07
-0.000246139
-1.7314e-07
-0.000245403
-1.97927e-07
-0.000244659
-2.19182e-07
-0.000243915
-3.04905e-07
-0.000243255
-2.68176e-07
-0.00024251
-3.65663e-07
-0.000241792
-3.66006e-07
-0.000241118
-3.28877e-07
-0.000240408
-3.19209e-07
-0.000239647
-3.76844e-07
-0.000238866
-4.34728e-07
-0.000238079
-5.6908e-07
-0.000237349
-5.07261e-07
-0.000236491
-8.78871e-07
-0.000235618
-1.1496e-06
-0.000234816
-1.62984e-06
-0.00023416
-2.14995e-06
-0.00023403
-2.87835e-06
-0.000234521
-3.89814e-06
-0.000236214
-4.7971e-06
-0.000237736
-4.97088e-06
-0.000235698
-1.03079e-06
-0.000233921
-9.96757e-07
-0.000234161
-1.56883e-06
-0.000234663
-1.38039e-06
-0.000231858
1.50946e-06
-0.000228908
2.80843e-06
-0.00022666
2.34013e-06
-0.000225476
1.59901e-06
-0.000223715
4.89656e-07
-0.000223777
1.22559e-06
-0.000223476
2.44435e-06
-0.000223296
3.48221e-06
-0.000222265
3.70024e-06
-0.000221262
3.97194e-06
-0.000220546
4.49978e-06
-0.000219266
6.27944e-06
-0.00021995
4.94496e-06
-0.000218881
5.47373e-06
5.48644e-06
-0.000223231
4.45355e-06
-0.00022412
-4.17286e-06
4.63789e-06
-0.000223816
6.84405e-06
-0.000217373
6.91372e-06
-0.000220899
6.1393e-06
-0.000221702
-3.96857e-06
4.38329e-06
-0.00022382
0.000224271
-0.000223964
-3.55694e-06
0.000224223
-3.41248e-06
0.00022414
-3.1233e-06
0.000223951
-2.75709e-06
0.000223759
-2.32607e-06
0.000223606
-1.87393e-06
0.000223495
-1.43039e-06
0.000223538
-1.12019e-06
0.000223695
-8.01129e-07
0.000223922
-6.07615e-07
0.000224219
-4.45946e-07
0.000224548
-3.10803e-07
0.000224991
-2.96034e-07
0.00022557
-3.16875e-07
0.000226009
-2.47401e-07
0.00022638
-5.77424e-07
0.000226452
-1.06199e-06
0.000226022
-1.66065e-06
0.000224882
-2.22643e-06
0.00022443
7.3787e-07
0.000227168
1.39769e-06
0.000228471
6.78361e-07
0.000228437
-5.93209e-07
0.000227223
-1.27822e-06
0.000228441
-4.63705e-07
0.000230935
2.52836e-06
0.000232987
2.14959e-06
0.000234431
1.47015e-06
0.000235408
8.47593e-07
0.000236171
4.20868e-07
0.000236886
1.86544e-07
0.000237559
8.12941e-08
0.000238187
2.03088e-08
0.000238791
-7.61364e-08
0.000239452
-6.48131e-09
0.000240072
-6.67754e-08
0.000240706
-1.15826e-07
0.000241308
-1.10097e-07
0.00024195
-1.15485e-07
0.000242639
-1.44339e-07
0.000243371
-1.03609e-07
0.000244005
-5.85492e-08
0.00024472
-9.20113e-08
0.000245446
-5.85753e-08
0.000246147
-4.43623e-08
0.000246845
-2.05533e-08
0.000247574
-3.05339e-08
0.00024827
-1.11671e-08
0.000249016
-5.83179e-09
0.000249731
2.03957e-08
0.000250462
2.3434e-08
0.000251196
4.00032e-08
0.000251935
6.17243e-08
0.000252695
7.23116e-08
0.000253439
1.1327e-07
0.000254192
1.61107e-07
0.000254917
2.1883e-07
0.000255687
2.25515e-07
0.000256458
2.34733e-07
0.000257285
2.15658e-07
0.000258104
1.47335e-07
-1.05569e-07
3.98556e-08
0.000258865
-2.42616e-07
0.000258847
-4.24456e-07
0.000258774
-5.71501e-07
0.00025864
-6.23619e-07
0.000258438
-6.09652e-07
0.000258354
-5.90527e-07
0.000258218
-6.45193e-07
0.000258236
-0.000257438
0.000258116
-6.22085e-07
-0.00025681
-5.17235e-07
-0.000256107
-4.30419e-07
-0.000255442
-3.18629e-07
-0.000254777
-2.51391e-07
-0.00025403
-2.25422e-07
-0.000253338
-1.60673e-07
-0.000252635
-1.57505e-07
-0.00025189
-1.54091e-07
-0.000251169
-1.51571e-07
-0.000250471
-1.42255e-07
-0.000249725
-1.47952e-07
-0.000249035
-1.31308e-07
-0.00024829
-1.39597e-07
-0.000247592
-1.43491e-07
-0.000246896
-1.96127e-07
-0.000246172
-2.03431e-07
-0.000245418
-2.64386e-07
-0.000244687
-2.68822e-07
-0.000244013
-3.0353e-07
-0.000243279
-3.3186e-07
-0.00024263
-3.49755e-07
-0.000241996
-3.40488e-07
-0.000241247
-4.23678e-07
-0.000240475
-4.4057e-07
-0.000239735
-4.70582e-07
-0.000238967
-5.59905e-07
-0.000238223
-6.72539e-07
-0.000237429
-6.62388e-07
-0.000236642
-1.02694e-06
-0.000235936
-1.21757e-06
-0.000235292
-1.63476e-06
-0.000234744
-2.05698e-06
-0.000234399
-2.57842e-06
-0.000234567
-3.08366e-06
-0.000235215
-3.49969e-06
-0.000235918
-3.61493e-06
-0.000234927
-1.36271e-06
-0.000234031
-1.23184e-06
-0.00023368
-1.25318e-06
-0.000233594
-7.97308e-07
-0.00023178
3.68316e-07
-0.000229381
1.07985e-06
-0.000227742
1.36911e-06
-0.000226378
8.9983e-07
-0.000225476
2.52307e-07
-0.000225047
1.4588e-06
-0.000224653
2.71144e-06
-0.000223242
2.73181e-06
-0.000222004
3.12291e-06
-0.000220785
3.4153e-06
-0.000220358
4.73539e-06
-0.000219314
4.57012e-06
-0.000218086
6.16313e-06
-0.000218521
5.35539e-06
4.62002e-06
-0.000222509
4.12667e-06
-0.000222846
6.03675e-06
-0.000216599
3.99652e-06
-0.000223499
-3.7365e-06
3.78925e-06
-0.00022289
7.71258e-06
-0.000217487
5.63991e-06
-0.000219706
4.54094e-06
-0.000220921
-3.44633e-06
3.32223e-06
-0.000222643
0.000223435
-0.00022293
-3.21724e-06
0.000223508
-3.08074e-06
0.000223539
-2.86524e-06
0.000223447
-2.60519e-06
0.000223314
-2.28045e-06
0.000223174
-1.91304e-06
0.000223078
-1.5325e-06
0.000223061
-1.16464e-06
0.000223062
-7.45148e-07
0.000223343
-7.20965e-07
0.000223578
-3.61244e-07
0.000223896
-2.5592e-07
0.000224285
-1.7178e-07
0.000224755
-1.22423e-07
0.000225238
-1.26485e-07
0.000225668
-9.88115e-08
0.000226247
-1.85925e-07
0.000226658
-3.51773e-07
0.000226906
-6.79563e-07
0.000227256
-1.38416e-06
0.000226622
-9.73001e-07
0.000227041
9.31882e-07
0.000228316
7.32148e-07
0.00022932
2.83064e-07
0.000229688
-3.54338e-07
0.000229562
-5.47051e-07
0.000229985
-2.85203e-07
0.000231782
1.33561e-06
0.00023334
1.19807e-06
0.000234555
8.64593e-07
0.00023549
5.24231e-07
0.000236263
2.61034e-07
0.00023695
1.15535e-07
0.000237614
3.63247e-08
0.000238278
-2.13518e-08
0.000238889
-6.35493e-08
0.000239558
-4.56972e-08
0.000240181
-5.56237e-08
0.000240771
-6.6727e-08
0.0002414
-9.44606e-08
0.000242069
-1.31919e-07
0.000242728
-1.45473e-07
0.000243407
-1.20136e-07
0.000244117
-9.91171e-08
0.000244763
-6.39146e-08
0.00024547
-8.48563e-08
0.000246176
-6.41928e-08
0.000246893
-4.63818e-08
0.000247594
-3.48547e-08
0.000248311
-2.75736e-08
0.000249027
-1.69844e-08
0.000249771
-1.5043e-08
0.000250482
2.4294e-08
0.000251214
2.18976e-08
0.000251962
3.02989e-08
0.000252684
6.60921e-08
0.000253432
8.30412e-08
0.000254185
1.23761e-07
0.000254945
1.74452e-07
0.000255714
1.68566e-07
0.000256494
1.6356e-07
0.000257284
1.29657e-07
0.000258067
6.20741e-08
0.000258799
-2.4124e-09
5.91398e-08
-8.50196e-08
0.000259506
1.5018e-08
0.000259595
-7.22662e-08
0.000259625
-2.04299e-07
0.000259599
-3.81954e-07
0.000259514
-5.77653e-07
0.000259331
-5.81579e-07
0.000259056
-7.24764e-07
0.000259058
-6.84616e-07
0.000258891
-6.74339e-07
0.000258797
-0.00025745
0.000258097
-5.73591e-07
-0.000256845
-4.19543e-07
-0.00025618
-3.86327e-07
-0.00025546
-3.25062e-07
-0.000254767
-2.28162e-07
-0.000254087
-1.86988e-07
-0.000253342
-1.85148e-07
-0.00025264
-1.39158e-07
-0.000251925
-1.48378e-07
-0.000251195
-1.62752e-07
-0.000250495
-1.24385e-07
-0.000249779
-1.49022e-07
-0.000249037
-1.6212e-07
-0.000248317
-1.52911e-07
-0.000247621
-1.36064e-07
-0.000246917
-2.02871e-07
-0.000246184
-2.42397e-07
-0.000245458
-3.03274e-07
-0.000244772
-2.72542e-07
-0.000244054
-3.44676e-07
-0.0002434
-3.14365e-07
-0.000242692
-3.91204e-07
-0.000242025
-3.46863e-07
-0.000241312
-4.80365e-07
-0.000240558
-5.42171e-07
-0.000239817
-5.62938e-07
-0.000239106
-6.26605e-07
-0.000238379
-7.56794e-07
-0.000237594
-8.05976e-07
-0.00023691
-1.07114e-06
-0.000236145
-1.34239e-06
-0.000235438
-1.70035e-06
-0.000234755
-2.09895e-06
-0.000234413
-2.27829e-06
-0.000234416
-2.43676e-06
-0.000234719
-2.55139e-06
-0.0002352
-2.48401e-06
-0.000234402
-1.50708e-06
-0.000233613
-1.36789e-06
-0.00023305
-1.16414e-06
-0.000232035
-1.15718e-06
-0.00023094
-6.06693e-08
-0.000229667
4.71074e-07
-0.00022818
5.54131e-07
-0.000226861
2.54262e-07
-0.000226547
6.13134e-07
-0.000225913
1.49975e-06
-0.000224592
2.06468e-06
-0.00022317
1.98256e-06
-0.000221684
2.31086e-06
-0.000221458
3.86156e-06
-0.000220211
4.15909e-06
-0.00021919
4.22646e-06
5.67067e-06
-0.000217348
-0.000217882
4.72564e-06
0.000258768
-6.5798e-07
5.34998e-06
-0.000216879
3.87959e-06
-0.000221551
5.63046e-06
-0.000216258
3.49561e-06
-0.000221832
7.02346e-06
-0.000215223
3.41493e-06
-0.000222253
6.30138e-06
-0.000217457
3.8551e-06
-0.000222483
-3.56201e-06
3.74589e-06
-0.000221797
4.63224e-06
-0.000219097
3.68797e-06
-0.00022002
-3.57297e-06
3.52381e-06
-0.000221687
0.000222357
-0.000221956
-3.2241e-06
0.000222462
-2.92376e-06
0.000222594
-2.61163e-06
0.000222595
-2.34963e-06
0.000222536
-2.08167e-06
0.000222445
-1.79409e-06
0.000222363
-1.48537e-06
0.000222328
-1.17107e-06
0.000222373
-8.75669e-07
0.000222541
-6.37299e-07
0.000222909
-4.23522e-07
0.000223024
-1.52201e-07
0.000223411
-6.96569e-08
0.000223845
-1.7871e-08
0.000224328
1.2828e-08
0.000224847
2.05771e-08
0.000225406
-2.91465e-08
0.000225936
2.16375e-08
0.000226464
-6.82247e-08
0.000226922
-1.70082e-07
0.000227287
-4.08687e-07
0.000227559
-1.02518e-06
0.000227434
-2.23221e-07
0.000228306
6.80075e-07
0.000229235
4.19896e-07
0.000230063
6.9955e-08
0.000230909
-5.87027e-07
0.000230871
1.02392e-07
0.000231557
-3.61516e-07
0.000232534
9.68375e-07
0.000233694
6.48909e-07
0.000234708
4.62794e-07
0.000235565
2.82012e-07
0.000236298
1.43571e-07
0.000236978
5.48257e-08
0.000237644
-7.4314e-09
0.000238289
-4.3073e-08
0.000238919
-6.53014e-08
0.000239579
-7.47025e-08
0.000240241
-8.20968e-08
0.000240893
-7.92195e-08
0.000241518
-7.31166e-08
0.000242145
-1.06195e-07
0.00024278
-1.23244e-07
0.000243461
-1.37107e-07
0.000244143
-1.11356e-07
0.000244847
-9.37912e-08
0.000245513
-7.02661e-08
0.000246213
-7.88329e-08
0.000246917
-6.04454e-08
0.000247625
-4.80259e-08
0.000248341
-4.44527e-08
0.000249057
-2.90275e-08
0.000249765
-1.64312e-08
0.000250512
-1.41338e-08
0.000251232
1.3439e-08
0.000251954
2.02618e-08
0.0002527
3.40688e-08
0.000253437
5.89188e-08
0.000254187
8.61672e-08
0.000254954
1.18231e-07
0.000255713
1.16823e-07
0.000256478
1.01665e-07
0.00025724
6.54488e-08
0.000257989
5.19213e-09
0.000258689
-1.81192e-08
0.000259403
-1.23638e-07
1.54717e-07
0.000260073
-1.59631e-07
4.35333e-08
0.000260289
2.68787e-09
0.000260312
-1.59258e-08
0.000260323
-9.01076e-08
0.000260357
-2.09203e-07
0.000260319
-3.91454e-07
0.000260201
-6.6314e-07
0.000260016
-5.46761e-07
0.000259629
-6.45803e-07
0.000259675
-7.25368e-07
0.000259558
-7.36718e-07
0.000259458
-0.000258103
0.000258763
-6.35257e-07
-0.000257456
-5.2984e-07
-0.00025682
-3.58585e-07
-0.000256161
-3.40909e-07
-0.00025549
-2.87753e-07
-0.00025477
-2.356e-07
-0.000254074
-1.68027e-07
-0.000253374
-1.68506e-07
-0.000252636
-1.59993e-07
-0.000251919
-1.48526e-07
-0.00025122
-1.45234e-07
-0.000250482
-1.47437e-07
-0.000249776
-1.42372e-07
-0.000249067
-1.61157e-07
-0.00024834
-1.74e-07
-0.000247638
-1.35981e-07
-0.000246922
-2.21081e-07
-0.00024619
-2.80858e-07
-0.000245512
-2.93019e-07
-0.000244804
-2.98722e-07
-0.000244174
-2.9659e-07
-0.000243439
-3.76851e-07
-0.000242793
-3.70641e-07
-0.00024205
-4.27117e-07
-0.000241353
-5.18914e-07
-0.000240635
-6.07336e-07
-0.000239953
-5.94822e-07
-0.000239261
-6.71932e-07
-0.000238623
-7.50428e-07
-0.000237842
-9.43693e-07
-0.000237117
-1.15539e-06
-0.000236349
-1.46855e-06
-0.000235748
-1.66e-06
-0.000235476
-1.7311e-06
-0.000235273
-1.83869e-06
-0.000234889
-2.17767e-06
-0.000234622
-2.17379e-06
-0.000234636
-1.82022e-06
-0.000233573
-1.91939e-06
-0.000233072
-1.21786e-06
-0.00023241
-1.17474e-06
-0.000232049
-8.66219e-07
-0.000231163
-2.93925e-07
-0.000229885
-1.45653e-07
-0.000228647
-2.06782e-08
-0.000227808
8.15726e-08
-0.000226977
4.56619e-07
-0.00022625
1.45083e-06
-0.000224643
1.13886e-06
-0.00022315
1.17272e-06
-0.000223002
2.84641e-06
-0.000222131
3.67394e-06
-0.000220146
2.85992e-06
-0.000219481
4.25079e-06
-0.000218172
4.10541e-06
-0.000216343
4.21123e-06
0.000259416
-7.16918e-07
-4.86207e-06
4.84742e-06
-0.000215634
-0.000215424
3.14512e-06
-0.000220482
5.97827e-06
-0.000214523
2.9424e-06
-0.000220633
6.84349e-06
-0.000215073
2.93046e-06
-0.000220701
4.95983e-06
-0.000217087
3.14095e-06
-0.00022067
3.64399e-06
-0.000218346
3.92566e-06
-0.000221393
-3.73454e-06
3.51469e-06
-0.000220524
2.87414e-06
-0.000219033
5.5066e-08
-4.67909e-08
0.00026072
9.74637e-08
0.000260907
3.65525e-08
0.000261038
-5.18555e-08
0.000261081
-7.61684e-08
0.000261053
-1.33395e-07
0.000261051
-2.47389e-07
0.000260991
-4.14796e-07
0.000260859
-7.14428e-07
0.000260604
-7.66919e-07
0.000260401
-8.46601e-07
0.000260309
-8.69635e-07
0.000260147
-7.96442e-07
0.000260004
-0.00025872
0.000259334
-6.65037e-07
-0.00025814
-5.39176e-07
-0.000257469
-5.15595e-07
-0.000256824
-3.11859e-07
-0.000256149
-3.18542e-07
-0.000255468
-2.64968e-07
-0.000254795
-2.01435e-07
-0.000254059
-1.93787e-07
-0.000253368
-1.47041e-07
-0.00025265
-1.64773e-07
-0.00025194
-1.45436e-07
-0.000251214
-1.57516e-07
-0.000250514
-1.3523e-07
-0.00024979
-1.56187e-07
-0.000249073
-1.70547e-07
-0.000248389
-1.53513e-07
-0.000247647
-1.77317e-07
-0.000246926
-2.45145e-07
-0.000246251
-2.63203e-07
-0.000245576
-2.80779e-07
-0.000244911
-2.81278e-07
-0.000244186
-3.43019e-07
-0.000243539
-3.51303e-07
-0.000242813
-4.28013e-07
-0.000242098
-4.78225e-07
-0.000241404
-5.54183e-07
-0.000240846
-5.10276e-07
-0.000240051
-7.38463e-07
-0.000239469
-6.0568e-07
-0.000238757
-8.1797e-07
-0.000238056
-1.0011e-06
-0.000237333
-1.23635e-06
-0.000236899
-1.26072e-06
-0.000236421
-1.49771e-06
-0.000235994
-1.51752e-06
-0.000235347
-1.84559e-06
-0.000235049
-1.83331e-06
-0.00023491
-1.66816e-06
-0.000234362
-1.71937e-06
-0.00023414
-1.49215e-06
-0.000233131
-1.57446e-06
-0.000232534
-1.11954e-06
-0.000231988
-7.58703e-07
-0.00023123
-3.99535e-07
-0.000230184
-5.31166e-07
-0.000229347
-1.91974e-07
-0.000228284
-3.05933e-07
-0.000227436
2.82851e-07
-0.000226004
6.9743e-07
-0.000224609
4.27354e-07
-0.000224483
1.73489e-06
-0.000223602
2.65593e-06
-0.000221253
2.0165e-06
-0.000221192
3.49339e-06
-0.000219162
2.91813e-06
-0.000217651
3.29034e-06
-0.000216459
3.72173e-06
-0.000214808
3.90045e-06
4.89949e-06
-5.78437e-06
-0.000214051
-0.000213714
4.50908e-06
-7.13546e-07
0.000259906
-4.0375e-06
4.05159e-06
-0.000220648
0.000221334
-0.000221035
-3.57407e-06
0.000221392
-3.03566e-06
0.00022148
-2.56e-06
0.000221494
-2.19135e-06
0.000221493
-1.86943e-06
0.000221461
-1.5835e-06
0.000221424
-1.3155e-06
0.000221408
-1.05568e-06
0.000221443
-8.0365e-07
0.000221551
-5.68651e-07
0.000221744
-3.64728e-07
0.000222004
-1.99166e-07
0.000222328
-5.44291e-08
0.000222789
7.34292e-08
0.000223274
1.26649e-07
0.00022379
1.42469e-07
0.00022433
1.43068e-07
0.000224899
1.16067e-07
0.000225431
9.84609e-08
0.000226047
5.9451e-08
0.000226613
1.51668e-08
0.00022714
-5.35474e-08
0.00022761
-2.3948e-07
0.000227767
-5.46457e-07
0.000228002
1.70203e-07
0.00022901
2.97047e-07
0.000229843
2.09485e-07
0.000231028
-4.94926e-07
0.000230915
1.43684e-07
0.000231793
-1.60113e-07
0.000231791
2.54321e-07
0.00023303
3.42754e-07
0.000233987
3.0669e-07
0.000234849
2.15682e-07
0.00023562
1.27953e-07
0.000236333
5.01984e-08
0.000237017
-8.32447e-09
0.000237667
-3.33669e-08
0.000238305
-5.45135e-08
0.000238947
-7.6734e-08
0.000239593
-8.68904e-08
0.000240243
-9.4456e-08
0.000240913
-1.05901e-07
0.000241574
-8.65058e-08
0.000242204
-8.36947e-08
0.000242858
-1.18263e-07
0.000243505
-1.20488e-07
0.000244178
-1.14694e-07
0.000244862
-1.03177e-07
0.00024556
-8.87661e-08
0.000246245
-7.83185e-08
0.000246948
-7.43498e-08
0.00024765
-5.63835e-08
0.000248355
-5.22647e-08
0.000249065
-3.76709e-08
0.000249788
-3.51009e-08
0.000250503
-2.29624e-08
0.000251233
-9.71563e-09
0.000251961
1.47086e-09
0.000252693
1.1238e-08
0.00025343
3.05888e-08
0.000254174
4.97543e-08
0.00025493
6.71157e-08
0.000255681
6.78469e-08
0.000256431
4.87766e-08
0.000257172
1.64977e-08
0.000257865
-2.96294e-09
0.000258606
-8.12696e-08
0.000259311
-1.59742e-07
0.000259959
-1.48905e-07
-1.08237e-07
0.000260669
-0.000214535
2.51383e-06
-0.000219329
-5.08968e-06
4.43637e-06
-0.000212351
-5.06123e-06
-0.000213381
6.41419e-06
-0.000213399
2.46536e-06
-0.000219434
5.29859e-06
-0.000214715
2.65507e-06
-0.000219473
3.81671e-06
-0.000216554
2.77964e-06
-0.000219184
2.77557e-06
-0.000217534
3.72661e-06
-0.000219442
2.20519e-06
-0.000218001
4.62601e-06
-4.40332e-06
-0.000220492
4.1557e-06
-0.000219414
-0.000259295
0.0002599
-6.70916e-07
-0.000258718
-5.82858e-07
-0.000258066
-5.22461e-07
-0.000257532
-3.72583e-07
-0.00025676
-3.98643e-07
-0.000256118
-2.6899e-07
-0.000255447
-2.38481e-07
-0.000254735
-2.12157e-07
-0.000254053
-1.70796e-07
-0.000253333
-1.59862e-07
-0.000252649
-1.40503e-07
-0.000251924
-1.60706e-07
-0.000251226
-1.4612e-07
-0.000250509
-1.43537e-07