/*--------------------------------*- C++ -*----------------------------------*\
| =========                 |                                                 |
| \\      /  F ield         | OpenFOAM: The Open Source CFD Toolbox           |
|  \\    /   O peration     | Version:  2212                                  |
|   \\  /    A nd           | Website:  www.openfoam.com                      |
|    \\/     M anipulation  |                                                 |
\*---------------------------------------------------------------------------*/
FoamFile
{
    version     2.0;
    format      ascii;
    arch        "LSB;label=32;scalar=64";
    class       volScalarField;
    location    "0.053";
    object      pPrime2Mean;
}
// * * * * * * * * * * * * * * * * * * * * * * * * * * * * * * * * * * * * * //

dimensions      [0 4 -4 0 0 0 0];

internalField   nonuniform List<scalar> 
24240
(
1.35766e+06
1.35765e+06
1.35765e+06
1.35763e+06
1.35761e+06
1.35759e+06
1.35756e+06
1.35753e+06
1.3575e+06
1.35746e+06
1.35742e+06
1.35739e+06
1.35735e+06
1.35731e+06
1.35728e+06
1.35724e+06
1.35721e+06
1.35719e+06
1.35717e+06
1.35716e+06
1.23857e+06
1.23857e+06
1.23857e+06
1.23857e+06
1.23856e+06
1.23856e+06
1.23855e+06
1.23854e+06
1.23854e+06
1.23853e+06
1.23852e+06
1.23851e+06
1.2385e+06
1.23849e+06
1.23848e+06
1.23848e+06
1.23847e+06
1.23846e+06
1.23846e+06
1.23846e+06
1.16705e+06
1.16705e+06
1.16705e+06
1.16706e+06
1.16706e+06
1.16706e+06
1.16706e+06
1.16706e+06
1.16706e+06
1.16706e+06
1.16707e+06
1.16707e+06
1.16707e+06
1.16707e+06
1.16707e+06
1.16708e+06
1.16708e+06
1.16708e+06
1.16708e+06
1.16708e+06
1.12403e+06
1.12403e+06
1.12403e+06
1.12404e+06
1.12404e+06
1.12405e+06
1.12405e+06
1.12406e+06
1.12407e+06
1.12408e+06
1.12408e+06
1.12409e+06
1.1241e+06
1.12411e+06
1.12411e+06
1.12412e+06
1.12413e+06
1.12413e+06
1.12414e+06
1.12414e+06
1.09517e+06
1.09517e+06
1.09517e+06
1.09518e+06
1.09518e+06
1.09519e+06
1.0952e+06
1.09521e+06
1.09522e+06
1.09523e+06
1.09524e+06
1.09525e+06
1.09527e+06
1.09528e+06
1.09529e+06
1.0953e+06
1.09531e+06
1.09531e+06
1.09532e+06
1.09532e+06
1.07548e+06
1.07549e+06
1.07549e+06
1.0755e+06
1.0755e+06
1.07551e+06
1.07552e+06
1.07553e+06
1.07555e+06
1.07556e+06
1.07557e+06
1.07559e+06
1.0756e+06
1.07561e+06
1.07563e+06
1.07564e+06
1.07565e+06
1.07566e+06
1.07566e+06
1.07567e+06
1.06259e+06
1.06259e+06
1.0626e+06
1.0626e+06
1.06261e+06
1.06262e+06
1.06263e+06
1.06264e+06
1.06266e+06
1.06267e+06
1.06268e+06
1.0627e+06
1.06271e+06
1.06273e+06
1.06274e+06
1.06275e+06
1.06277e+06
1.06277e+06
1.06278e+06
1.06279e+06
1.05512e+06
1.05512e+06
1.05513e+06
1.05513e+06
1.05514e+06
1.05515e+06
1.05516e+06
1.05517e+06
1.05519e+06
1.0552e+06
1.05521e+06
1.05523e+06
1.05524e+06
1.05526e+06
1.05527e+06
1.05528e+06
1.0553e+06
1.0553e+06
1.05531e+06
1.05532e+06
1.05122e+06
1.05122e+06
1.05123e+06
1.05123e+06
1.05124e+06
1.05125e+06
1.05126e+06
1.05127e+06
1.05128e+06
1.05129e+06
1.05131e+06
1.05132e+06
1.05133e+06
1.05135e+06
1.05136e+06
1.05137e+06
1.05138e+06
1.05139e+06
1.0514e+06
1.0514e+06
1.05254e+06
1.05254e+06
1.05255e+06
1.05255e+06
1.05256e+06
1.05256e+06
1.05257e+06
1.05258e+06
1.0526e+06
1.05261e+06
1.05262e+06
1.05263e+06
1.05265e+06
1.05266e+06
1.05267e+06
1.05268e+06
1.05269e+06
1.0527e+06
1.05271e+06
1.05271e+06
1.05792e+06
1.05792e+06
1.05792e+06
1.05793e+06
1.05793e+06
1.05794e+06
1.05795e+06
1.05796e+06
1.05797e+06
1.05798e+06
1.05799e+06
1.058e+06
1.05802e+06
1.05803e+06
1.05804e+06
1.05805e+06
1.05806e+06
1.05806e+06
1.05807e+06
1.05807e+06
1.0675e+06
1.0675e+06
1.0675e+06
1.0675e+06
1.06751e+06
1.06751e+06
1.06752e+06
1.06753e+06
1.06754e+06
1.06755e+06
1.06756e+06
1.06757e+06
1.06758e+06
1.06759e+06
1.0676e+06
1.06761e+06
1.06762e+06
1.06762e+06
1.06763e+06
1.06763e+06
1.08164e+06
1.08164e+06
1.08164e+06
1.08164e+06
1.08165e+06
1.08165e+06
1.08166e+06
1.08166e+06
1.08167e+06
1.08168e+06
1.08169e+06
1.0817e+06
1.08171e+06
1.08172e+06
1.08172e+06
1.08173e+06
1.08174e+06
1.08175e+06
1.08175e+06
1.08175e+06
1.10099e+06
1.101e+06
1.101e+06
1.101e+06
1.101e+06
1.101e+06
1.10101e+06
1.10101e+06
1.10102e+06
1.10103e+06
1.10103e+06
1.10104e+06
1.10105e+06
1.10105e+06
1.10106e+06
1.10107e+06
1.10107e+06
1.10108e+06
1.10108e+06
1.10108e+06
1.12671e+06
1.12671e+06
1.12671e+06
1.12671e+06
1.12671e+06
1.12671e+06
1.12672e+06
1.12672e+06
1.12672e+06
1.12672e+06
1.12673e+06
1.12673e+06
1.12674e+06
1.12674e+06
1.12675e+06
1.12675e+06
1.12675e+06
1.12676e+06
1.12676e+06
1.12676e+06
1.16067e+06
1.16067e+06
1.16067e+06
1.16067e+06
1.16067e+06
1.16067e+06
1.16067e+06
1.16067e+06
1.16067e+06
1.16067e+06
1.16067e+06
1.16067e+06
1.16067e+06
1.16067e+06
1.16067e+06
1.16067e+06
1.16068e+06
1.16068e+06
1.16068e+06
1.16068e+06
1.20651e+06
1.20651e+06
1.2065e+06
1.2065e+06
1.2065e+06
1.20649e+06
1.20649e+06
1.20648e+06
1.20648e+06
1.20647e+06
1.20647e+06
1.20646e+06
1.20646e+06
1.20646e+06
1.20645e+06
1.20645e+06
1.20645e+06
1.20645e+06
1.20645e+06
1.20645e+06
1.27165e+06
1.27165e+06
1.27164e+06
1.27164e+06
1.27163e+06
1.27162e+06
1.27161e+06
1.2716e+06
1.27159e+06
1.27158e+06
1.27156e+06
1.27155e+06
1.27154e+06
1.27153e+06
1.27152e+06
1.27151e+06
1.2715e+06
1.27149e+06
1.27149e+06
1.27149e+06
1.37791e+06
1.3779e+06
1.3779e+06
1.37789e+06
1.37787e+06
1.37786e+06
1.37784e+06
1.37782e+06
1.3778e+06
1.37777e+06
1.37775e+06
1.37772e+06
1.37769e+06
1.37767e+06
1.37764e+06
1.37762e+06
1.3776e+06
1.37759e+06
1.37758e+06
1.37757e+06
1.53069e+06
1.53069e+06
1.53068e+06
1.53066e+06
1.53063e+06
1.5306e+06
1.53056e+06
1.53051e+06
1.53046e+06
1.53041e+06
1.53035e+06
1.53029e+06
1.53023e+06
1.53017e+06
1.53012e+06
1.53006e+06
1.53002e+06
1.52998e+06
1.52994e+06
1.52992e+06
1.148e+07
1.148e+07
1.14799e+07
1.14798e+07
1.14797e+07
1.14796e+07
1.14794e+07
1.14792e+07
1.14791e+07
1.14788e+07
1.14786e+07
1.14784e+07
1.14782e+07
1.1478e+07
1.14778e+07
1.14776e+07
1.14774e+07
1.14773e+07
1.14772e+07
1.14771e+07
1.09105e+07
1.09105e+07
1.09105e+07
1.09105e+07
1.09104e+07
1.09104e+07
1.09103e+07
1.09102e+07
1.09102e+07
1.09101e+07
1.091e+07
1.09099e+07
1.09099e+07
1.09098e+07
1.09097e+07
1.09097e+07
1.09096e+07
1.09095e+07
1.09095e+07
1.09095e+07
1.03943e+07
1.03943e+07
1.03943e+07
1.03943e+07
1.03943e+07
1.03943e+07
1.03943e+07
1.03943e+07
1.03943e+07
1.03943e+07
1.03943e+07
1.03943e+07
1.03943e+07
1.03943e+07
1.03943e+07
1.03943e+07
1.03943e+07
1.03943e+07
1.03943e+07
1.03943e+07
1.00454e+07
1.00454e+07
1.00454e+07
1.00454e+07
1.00454e+07
1.00455e+07
1.00455e+07
1.00456e+07
1.00456e+07
1.00456e+07
1.00457e+07
1.00457e+07
1.00458e+07
1.00458e+07
1.00459e+07
1.00459e+07
1.00459e+07
1.0046e+07
1.0046e+07
1.0046e+07
9.8017e+06
9.80171e+06
9.80173e+06
9.80176e+06
9.80181e+06
9.80186e+06
9.80191e+06
9.80198e+06
9.80205e+06
9.80212e+06
9.8022e+06
9.80227e+06
9.80235e+06
9.80242e+06
9.80249e+06
9.80255e+06
9.80261e+06
9.80266e+06
9.8027e+06
9.80272e+06
9.63265e+06
9.63266e+06
9.63269e+06
9.63273e+06
9.63278e+06
9.63284e+06
9.63291e+06
9.63299e+06
9.63308e+06
9.63317e+06
9.63326e+06
9.63335e+06
9.63345e+06
9.63354e+06
9.63362e+06
9.6337e+06
9.63377e+06
9.63383e+06
9.63388e+06
9.6339e+06
9.52018e+06
9.52019e+06
9.52022e+06
9.52026e+06
9.52031e+06
9.52038e+06
9.52046e+06
9.52055e+06
9.52064e+06
9.52074e+06
9.52084e+06
9.52095e+06
9.52105e+06
9.52115e+06
9.52125e+06
9.52133e+06
9.52141e+06
9.52148e+06
9.52153e+06
9.52155e+06
9.45578e+06
9.4558e+06
9.45583e+06
9.45587e+06
9.45592e+06
9.45599e+06
9.45607e+06
9.45616e+06
9.45625e+06
9.45635e+06
9.45646e+06
9.45656e+06
9.45667e+06
9.45677e+06
9.45687e+06
9.45695e+06
9.45703e+06
9.4571e+06
9.45715e+06
9.45718e+06
9.42755e+06
9.42756e+06
9.42759e+06
9.42763e+06
9.42768e+06
9.42774e+06
9.42782e+06
9.4279e+06
9.42799e+06
9.42809e+06
9.42819e+06
9.42829e+06
9.42839e+06
9.42849e+06
9.42858e+06
9.42867e+06
9.42874e+06
9.4288e+06
9.42885e+06
9.42888e+06
9.43842e+06
9.43843e+06
9.43845e+06
9.43849e+06
9.43854e+06
9.43859e+06
9.43866e+06
9.43874e+06
9.43883e+06
9.43892e+06
9.43901e+06
9.4391e+06
9.4392e+06
9.43929e+06
9.43938e+06
9.43946e+06
9.43953e+06
9.43959e+06
9.43964e+06
9.43966e+06
9.48511e+06
9.48512e+06
9.48514e+06
9.48517e+06
9.48521e+06
9.48527e+06
9.48533e+06
9.4854e+06
9.48548e+06
9.48556e+06
9.48564e+06
9.48573e+06
9.48582e+06
9.4859e+06
9.48598e+06
9.48606e+06
9.48613e+06
9.48618e+06
9.48622e+06
9.48625e+06
9.56858e+06
9.56858e+06
9.5686e+06
9.56863e+06
9.56867e+06
9.56871e+06
9.56877e+06
9.56883e+06
9.56889e+06
9.56896e+06
9.56904e+06
9.56912e+06
9.56919e+06
9.56927e+06
9.56934e+06
9.56941e+06
9.56947e+06
9.56952e+06
9.56956e+06
9.56958e+06
9.69179e+06
9.69179e+06
9.69181e+06
9.69183e+06
9.69186e+06
9.69189e+06
9.69194e+06
9.69198e+06
9.69204e+06
9.6921e+06
9.69216e+06
9.69222e+06
9.69229e+06
9.69235e+06
9.69241e+06
9.69247e+06
9.69252e+06
9.69256e+06
9.69259e+06
9.69262e+06
9.86005e+06
9.86006e+06
9.86006e+06
9.86008e+06
9.8601e+06
9.86012e+06
9.86015e+06
9.86019e+06
9.86022e+06
9.86027e+06
9.86031e+06
9.86036e+06
9.8604e+06
9.86045e+06
9.8605e+06
9.86054e+06
9.86058e+06
9.86061e+06
9.86064e+06
9.86066e+06
1.00826e+07
1.00826e+07
1.00826e+07
1.00826e+07
1.00826e+07
1.00826e+07
1.00826e+07
1.00826e+07
1.00827e+07
1.00827e+07
1.00827e+07
1.00827e+07
1.00828e+07
1.00828e+07
1.00828e+07
1.00828e+07
1.00829e+07
1.00829e+07
1.00829e+07
1.00829e+07
1.03739e+07
1.03739e+07
1.03739e+07
1.03739e+07
1.03739e+07
1.03739e+07
1.03739e+07
1.03739e+07
1.03739e+07
1.03739e+07
1.03739e+07
1.03738e+07
1.03738e+07
1.03738e+07
1.03738e+07
1.03738e+07
1.03738e+07
1.03739e+07
1.03739e+07
1.03739e+07
1.07597e+07
1.07596e+07
1.07596e+07
1.07596e+07
1.07596e+07
1.07595e+07
1.07595e+07
1.07594e+07
1.07594e+07
1.07593e+07
1.07593e+07
1.07592e+07
1.07592e+07
1.07591e+07
1.07591e+07
1.07591e+07
1.0759e+07
1.0759e+07
1.0759e+07
1.0759e+07
1.12837e+07
1.12837e+07
1.12837e+07
1.12836e+07
1.12836e+07
1.12835e+07
1.12834e+07
1.12833e+07
1.12832e+07
1.12831e+07
1.1283e+07
1.12828e+07
1.12827e+07
1.12826e+07
1.12825e+07
1.12824e+07
1.12823e+07
1.12823e+07
1.12822e+07
1.12822e+07
1.20343e+07
1.20343e+07
1.20342e+07
1.20342e+07
1.2034e+07
1.20339e+07
1.20338e+07
1.20336e+07
1.20334e+07
1.20332e+07
1.2033e+07
1.20328e+07
1.20325e+07
1.20323e+07
1.20321e+07
1.20319e+07
1.20318e+07
1.20316e+07
1.20315e+07
1.20315e+07
1.27778e+07
1.27777e+07
1.27776e+07
1.27775e+07
1.27773e+07
1.27771e+07
1.27768e+07
1.27765e+07
1.27762e+07
1.27759e+07
1.27755e+07
1.27751e+07
1.27747e+07
1.27744e+07
1.2774e+07
1.27737e+07
1.27734e+07
1.27731e+07
1.27729e+07
1.27728e+07
3.06191e+07
3.0619e+07
3.06189e+07
3.06187e+07
3.06185e+07
3.06182e+07
3.06179e+07
3.06175e+07
3.06171e+07
3.06167e+07
3.06163e+07
3.06158e+07
3.06154e+07
3.0615e+07
3.06146e+07
3.06142e+07
3.06139e+07
3.06136e+07
3.06134e+07
3.06133e+07
2.9526e+07
2.9526e+07
2.95259e+07
2.95258e+07
2.95258e+07
2.95256e+07
2.95255e+07
2.95254e+07
2.95252e+07
2.9525e+07
2.95249e+07
2.95247e+07
2.95245e+07
2.95243e+07
2.95242e+07
2.9524e+07
2.95239e+07
2.95238e+07
2.95237e+07
2.95237e+07
2.84287e+07
2.84287e+07
2.84287e+07
2.84287e+07
2.84287e+07
2.84287e+07
2.84287e+07
2.84287e+07
2.84286e+07
2.84286e+07
2.84286e+07
2.84286e+07
2.84286e+07
2.84286e+07
2.84285e+07
2.84285e+07
2.84285e+07
2.84285e+07
2.84285e+07
2.84285e+07
2.76219e+07
2.7622e+07
2.7622e+07
2.7622e+07
2.76221e+07
2.76221e+07
2.76222e+07
2.76223e+07
2.76224e+07
2.76225e+07
2.76225e+07
2.76226e+07
2.76227e+07
2.76228e+07
2.76229e+07
2.7623e+07
2.7623e+07
2.76231e+07
2.76231e+07
2.76232e+07
2.70308e+07
2.70308e+07
2.70309e+07
2.7031e+07
2.7031e+07
2.70312e+07
2.70313e+07
2.70314e+07
2.70316e+07
2.70317e+07
2.70319e+07
2.70321e+07
2.70322e+07
2.70324e+07
2.70325e+07
2.70327e+07
2.70328e+07
2.70329e+07
2.7033e+07
2.7033e+07
2.66098e+07
2.66098e+07
2.66099e+07
2.661e+07
2.66101e+07
2.66102e+07
2.66104e+07
2.66105e+07
2.66107e+07
2.66109e+07
2.66111e+07
2.66113e+07
2.66116e+07
2.66118e+07
2.66119e+07
2.66121e+07
2.66123e+07
2.66124e+07
2.66125e+07
2.66125e+07
2.63222e+07
2.63222e+07
2.63223e+07
2.63224e+07
2.63225e+07
2.63227e+07
2.63229e+07
2.63231e+07
2.63233e+07
2.63235e+07
2.63237e+07
2.6324e+07
2.63242e+07
2.63244e+07
2.63247e+07
2.63249e+07
2.6325e+07
2.63252e+07
2.63253e+07
2.63253e+07
2.61587e+07
2.61588e+07
2.61588e+07
2.61589e+07
2.61591e+07
2.61592e+07
2.61594e+07
2.61596e+07
2.61598e+07
2.61601e+07
2.61603e+07
2.61605e+07
2.61608e+07
2.6161e+07
2.61612e+07
2.61614e+07
2.61616e+07
2.61618e+07
2.61619e+07
2.61619e+07
2.60902e+07
2.60902e+07
2.60902e+07
2.60903e+07
2.60905e+07
2.60906e+07
2.60908e+07
2.6091e+07
2.60912e+07
2.60914e+07
2.60916e+07
2.60919e+07
2.60921e+07
2.60923e+07
2.60925e+07
2.60927e+07
2.60929e+07
2.60931e+07
2.60932e+07
2.60932e+07
2.61197e+07
2.61197e+07
2.61198e+07
2.61198e+07
2.612e+07
2.61201e+07
2.61203e+07
2.61204e+07
2.61206e+07
2.61209e+07
2.61211e+07
2.61213e+07
2.61215e+07
2.61217e+07
2.61219e+07
2.61221e+07
2.61223e+07
2.61224e+07
2.61225e+07
2.61226e+07
2.62432e+07
2.62432e+07
2.62432e+07
2.62433e+07
2.62434e+07
2.62436e+07
2.62437e+07
2.62439e+07
2.6244e+07
2.62442e+07
2.62444e+07
2.62446e+07
2.62448e+07
2.6245e+07
2.62452e+07
2.62454e+07
2.62455e+07
2.62457e+07
2.62458e+07
2.62458e+07
2.64628e+07
2.64628e+07
2.64629e+07
2.64629e+07
2.6463e+07
2.64631e+07
2.64633e+07
2.64634e+07
2.64636e+07
2.64637e+07
2.64639e+07
2.64641e+07
2.64642e+07
2.64644e+07
2.64646e+07
2.64647e+07
2.64649e+07
2.6465e+07
2.64651e+07
2.64651e+07
2.67853e+07
2.67853e+07
2.67853e+07
2.67854e+07
2.67854e+07
2.67855e+07
2.67856e+07
2.67857e+07
2.67859e+07
2.6786e+07
2.67861e+07
2.67863e+07
2.67864e+07
2.67866e+07
2.67867e+07
2.67868e+07
2.67869e+07
2.6787e+07
2.67871e+07
2.67872e+07
2.72222e+07
2.72222e+07
2.72223e+07
2.72223e+07
2.72223e+07
2.72224e+07
2.72225e+07
2.72225e+07
2.72226e+07
2.72227e+07
2.72228e+07
2.72229e+07
2.7223e+07
2.72231e+07
2.72232e+07
2.72233e+07
2.72234e+07
2.72235e+07
2.72235e+07
2.72236e+07
2.77933e+07
2.77933e+07
2.77933e+07
2.77933e+07
2.77933e+07
2.77934e+07
2.77934e+07
2.77934e+07
2.77934e+07
2.77935e+07
2.77935e+07
2.77936e+07
2.77936e+07
2.77937e+07
2.77937e+07
2.77938e+07
2.77938e+07
2.77939e+07
2.77939e+07
2.77939e+07
2.85269e+07
2.85269e+07
2.85269e+07
2.85268e+07
2.85268e+07
2.85268e+07
2.85268e+07
2.85267e+07
2.85267e+07
2.85266e+07
2.85266e+07
2.85266e+07
2.85266e+07
2.85265e+07
2.85265e+07
2.85265e+07
2.85265e+07
2.85265e+07
2.85265e+07
2.85265e+07
2.94687e+07
2.94687e+07
2.94687e+07
2.94686e+07
2.94685e+07
2.94684e+07
2.94683e+07
2.94682e+07
2.94681e+07
2.94679e+07
2.94678e+07
2.94677e+07
2.94675e+07
2.94674e+07
2.94673e+07
2.94672e+07
2.94671e+07
2.9467e+07
2.9467e+07
2.9467e+07
3.06839e+07
3.06839e+07
3.06838e+07
3.06837e+07
3.06835e+07
3.06833e+07
3.06831e+07
3.06829e+07
3.06826e+07
3.06823e+07
3.0682e+07
3.06818e+07
3.06815e+07
3.06812e+07
3.0681e+07
3.06807e+07
3.06805e+07
3.06804e+07
3.06803e+07
3.06802e+07
3.22757e+07
3.22756e+07
3.22755e+07
3.22753e+07
3.2275e+07
3.22747e+07
3.22744e+07
3.2274e+07
3.22735e+07
3.2273e+07
3.22725e+07
3.2272e+07
3.22715e+07
3.22711e+07
3.22706e+07
3.22702e+07
3.22698e+07
3.22695e+07
3.22692e+07
3.22691e+07
3.37414e+07
3.37413e+07
3.37411e+07
3.37408e+07
3.37404e+07
3.37399e+07
3.37394e+07
3.37387e+07
3.3738e+07
3.37372e+07
3.37365e+07
3.37356e+07
3.37348e+07
3.3734e+07
3.37333e+07
3.37326e+07
3.37319e+07
3.37314e+07
3.37309e+07
3.37307e+07
5.8142e+07
5.81419e+07
5.81418e+07
5.81415e+07
5.81411e+07
5.81407e+07
5.81402e+07
5.81397e+07
5.81391e+07
5.81385e+07
5.81379e+07
5.81372e+07
5.81366e+07
5.8136e+07
5.81354e+07
5.81349e+07
5.81344e+07
5.8134e+07
5.81337e+07
5.81335e+07
5.6519e+07
5.65189e+07
5.65188e+07
5.65187e+07
5.65186e+07
5.65184e+07
5.65182e+07
5.6518e+07
5.65177e+07
5.65174e+07
5.65172e+07
5.65169e+07
5.65166e+07
5.65164e+07
5.65161e+07
5.65159e+07
5.65157e+07
5.65155e+07
5.65154e+07
5.65153e+07
5.48164e+07
5.48164e+07
5.48164e+07
5.48163e+07
5.48163e+07
5.48163e+07
5.48163e+07
5.48163e+07
5.48162e+07
5.48162e+07
5.48162e+07
5.48161e+07
5.48161e+07
5.4816e+07
5.4816e+07
5.4816e+07
5.48159e+07
5.48159e+07
5.48159e+07
5.48159e+07
5.35022e+07
5.35022e+07
5.35022e+07
5.35023e+07
5.35024e+07
5.35024e+07
5.35026e+07
5.35027e+07
5.35028e+07
5.35029e+07
5.35031e+07
5.35032e+07
5.35033e+07
5.35035e+07
5.35036e+07
5.35037e+07
5.35038e+07
5.35039e+07
5.35039e+07
5.3504e+07
5.25052e+07
5.25052e+07
5.25053e+07
5.25054e+07
5.25055e+07
5.25057e+07
5.25059e+07
5.25061e+07
5.25064e+07
5.25066e+07
5.25069e+07
5.25071e+07
5.25074e+07
5.25076e+07
5.25078e+07
5.2508e+07
5.25082e+07
5.25084e+07
5.25085e+07
5.25086e+07
5.17764e+07
5.17765e+07
5.17766e+07
5.17767e+07
5.17769e+07
5.17771e+07
5.17774e+07
5.17777e+07
5.1778e+07
5.17783e+07
5.17787e+07
5.1779e+07
5.17793e+07
5.17797e+07
5.178e+07
5.17802e+07
5.17805e+07
5.17807e+07
5.17808e+07
5.17809e+07
5.12806e+07
5.12807e+07
5.12808e+07
5.12809e+07
5.12811e+07
5.12814e+07
5.12817e+07
5.1282e+07
5.12823e+07
5.12827e+07
5.12831e+07
5.12835e+07
5.12838e+07
5.12842e+07
5.12845e+07
5.12848e+07
5.12851e+07
5.12853e+07
5.12855e+07
5.12856e+07
5.09925e+07
5.09926e+07
5.09927e+07
5.09928e+07
5.0993e+07
5.09933e+07
5.09936e+07
5.09939e+07
5.09943e+07
5.09947e+07
5.0995e+07
5.09954e+07
5.09958e+07
5.09962e+07
5.09965e+07
5.09968e+07
5.09971e+07
5.09974e+07
5.09975e+07
5.09976e+07
5.08766e+07
5.08767e+07
5.08768e+07
5.0877e+07
5.08772e+07
5.08774e+07
5.08777e+07
5.0878e+07
5.08784e+07
5.08787e+07
5.08791e+07
5.08795e+07
5.08798e+07
5.08802e+07
5.08805e+07
5.08809e+07
5.08811e+07
5.08813e+07
5.08815e+07
5.08816e+07
5.09351e+07
5.09351e+07
5.09352e+07
5.09354e+07
5.09356e+07
5.09358e+07
5.09361e+07
5.09364e+07
5.09367e+07
5.0937e+07
5.09374e+07
5.09378e+07
5.09381e+07
5.09385e+07
5.09388e+07
5.09391e+07
5.09393e+07
5.09395e+07
5.09397e+07
5.09398e+07
5.11643e+07
5.11643e+07
5.11644e+07
5.11646e+07
5.11647e+07
5.11649e+07
5.11652e+07
5.11655e+07
5.11657e+07
5.11661e+07
5.11664e+07
5.11667e+07
5.1167e+07
5.11674e+07
5.11676e+07
5.11679e+07
5.11682e+07
5.11683e+07
5.11685e+07
5.11686e+07
5.15676e+07
5.15676e+07
5.15677e+07
5.15678e+07
5.1568e+07
5.15682e+07
5.15684e+07
5.15686e+07
5.15689e+07
5.15691e+07
5.15694e+07
5.15697e+07
5.157e+07
5.15703e+07
5.15705e+07
5.15708e+07
5.1571e+07
5.15711e+07
5.15713e+07
5.15713e+07
5.21552e+07
5.21552e+07
5.21553e+07
5.21554e+07
5.21555e+07
5.21556e+07
5.21558e+07
5.2156e+07
5.21562e+07
5.21564e+07
5.21566e+07
5.21568e+07
5.21571e+07
5.21573e+07
5.21575e+07
5.21577e+07
5.21579e+07
5.2158e+07
5.21581e+07
5.21582e+07
5.29439e+07
5.29439e+07
5.2944e+07
5.2944e+07
5.29441e+07
5.29442e+07
5.29443e+07
5.29444e+07
5.29446e+07
5.29447e+07
5.29449e+07
5.2945e+07
5.29452e+07
5.29453e+07
5.29455e+07
5.29456e+07
5.29457e+07
5.29458e+07
5.29459e+07
5.2946e+07
5.39616e+07
5.39616e+07
5.39616e+07
5.39616e+07
5.39616e+07
5.39617e+07
5.39617e+07
5.39617e+07
5.39618e+07
5.39618e+07
5.39619e+07
5.3962e+07
5.3962e+07
5.39621e+07
5.39621e+07
5.39622e+07
5.39623e+07
5.39623e+07
5.39624e+07
5.39624e+07
5.52449e+07
5.52449e+07
5.52449e+07
5.52448e+07
5.52448e+07
5.52447e+07
5.52447e+07
5.52446e+07
5.52445e+07
5.52445e+07
5.52444e+07
5.52443e+07
5.52443e+07
5.52442e+07
5.52442e+07
5.52441e+07
5.52441e+07
5.52441e+07
5.52441e+07
5.52441e+07
5.68498e+07
5.68497e+07
5.68497e+07
5.68496e+07
5.68494e+07
5.68493e+07
5.68491e+07
5.68489e+07
5.68486e+07
5.68484e+07
5.68482e+07
5.68479e+07
5.68477e+07
5.68475e+07
5.68473e+07
5.68471e+07
5.68469e+07
5.68468e+07
5.68467e+07
5.68467e+07
5.8844e+07
5.8844e+07
5.88439e+07
5.88437e+07
5.88434e+07
5.88431e+07
5.88427e+07
5.88423e+07
5.88419e+07
5.88414e+07
5.88409e+07
5.88405e+07
5.884e+07
5.88395e+07
5.88391e+07
5.88387e+07
5.88384e+07
5.88381e+07
5.88379e+07
5.88378e+07
6.13241e+07
6.1324e+07
6.13238e+07
6.13235e+07
6.13231e+07
6.13225e+07
6.13219e+07
6.13213e+07
6.13205e+07
6.13198e+07
6.1319e+07
6.13182e+07
6.13174e+07
6.13166e+07
6.13159e+07
6.13152e+07
6.13146e+07
6.13141e+07
6.13137e+07
6.13135e+07
6.35445e+07
6.35444e+07
6.3544e+07
6.35435e+07
6.35429e+07
6.35421e+07
6.35412e+07
6.35402e+07
6.35391e+07
6.35379e+07
6.35366e+07
6.35354e+07
6.35341e+07
6.35329e+07
6.35318e+07
6.35307e+07
6.35297e+07
6.35289e+07
6.35282e+07
6.35279e+07
9.36025e+07
9.36024e+07
9.36021e+07
9.36018e+07
9.36013e+07
9.36008e+07
9.36002e+07
9.35995e+07
9.35987e+07
9.35979e+07
9.35971e+07
9.35963e+07
9.35956e+07
9.35948e+07
9.35941e+07
9.35934e+07
9.35928e+07
9.35923e+07
9.35919e+07
9.35917e+07
9.14611e+07
9.14611e+07
9.1461e+07
9.14608e+07
9.14606e+07
9.14604e+07
9.14601e+07
9.14598e+07
9.14595e+07
9.14591e+07
9.14588e+07
9.14584e+07
9.14581e+07
9.14577e+07
9.14574e+07
9.14571e+07
9.14568e+07
9.14566e+07
9.14565e+07
9.14564e+07
8.91622e+07
8.91622e+07
8.91622e+07
8.91622e+07
8.91621e+07
8.91621e+07
8.91621e+07
8.9162e+07
8.9162e+07
8.91619e+07
8.91619e+07
8.91618e+07
8.91618e+07
8.91617e+07
8.91616e+07
8.91616e+07
8.91615e+07
8.91615e+07
8.91615e+07
8.91615e+07
8.73364e+07
8.73364e+07
8.73365e+07
8.73365e+07
8.73366e+07
8.73368e+07
8.73369e+07
8.73371e+07
8.73372e+07
8.73374e+07
8.73375e+07
8.73377e+07
8.73379e+07
8.7338e+07
8.73382e+07
8.73383e+07
8.73384e+07
8.73385e+07
8.73386e+07
8.73387e+07
8.59158e+07
8.59158e+07
8.59159e+07
8.59161e+07
8.59163e+07
8.59165e+07
8.59168e+07
8.59171e+07
8.59175e+07
8.59178e+07
8.59182e+07
8.59185e+07
8.59189e+07
8.59192e+07
8.59195e+07
8.59198e+07
8.592e+07
8.59202e+07
8.59204e+07
8.59205e+07
8.48678e+07
8.48679e+07
8.4868e+07
8.48682e+07
8.48685e+07
8.48688e+07
8.48691e+07
8.48695e+07
8.487e+07
8.48704e+07
8.48709e+07
8.48713e+07
8.48717e+07
8.48722e+07
8.48726e+07
8.48729e+07
8.48732e+07
8.48735e+07
8.48737e+07
8.48738e+07
8.41478e+07
8.41479e+07
8.41481e+07
8.41483e+07
8.41486e+07
8.41489e+07
8.41493e+07
8.41497e+07
8.41502e+07
8.41507e+07
8.41512e+07
8.41517e+07
8.41522e+07
8.41527e+07
8.41531e+07
8.41535e+07
8.41539e+07
8.41541e+07
8.41544e+07
8.41545e+07
8.37294e+07
8.37294e+07
8.37296e+07
8.37298e+07
8.37301e+07
8.37305e+07
8.37309e+07
8.37313e+07
8.37318e+07
8.37323e+07
8.37328e+07
8.37333e+07
8.37339e+07
8.37343e+07
8.37348e+07
8.37352e+07
8.37356e+07
8.37359e+07
8.37361e+07
8.37362e+07
8.3569e+07
8.35691e+07
8.35692e+07
8.35695e+07
8.35697e+07
8.35701e+07
8.35705e+07
8.35709e+07
8.35714e+07
8.35719e+07
8.35724e+07
8.35729e+07
8.35734e+07
8.35739e+07
8.35743e+07
8.35747e+07
8.35751e+07
8.35754e+07
8.35756e+07
8.35757e+07
8.36683e+07
8.36684e+07
8.36685e+07
8.36687e+07
8.3669e+07
8.36693e+07
8.36697e+07
8.36701e+07
8.36705e+07
8.3671e+07
8.36715e+07
8.3672e+07
8.36724e+07
8.36729e+07
8.36733e+07
8.36737e+07
8.3674e+07
8.36743e+07
8.36745e+07
8.36746e+07
8.40261e+07
8.40261e+07
8.40263e+07
8.40265e+07
8.40267e+07
8.4027e+07
8.40273e+07
8.40277e+07
8.40281e+07
8.40285e+07
8.4029e+07
8.40294e+07
8.40299e+07
8.40303e+07
8.40307e+07
8.4031e+07
8.40313e+07
8.40316e+07
8.40317e+07
8.40318e+07
8.46468e+07
8.46469e+07
8.4647e+07
8.46471e+07
8.46473e+07
8.46476e+07
8.46479e+07
8.46482e+07
8.46486e+07
8.46489e+07
8.46493e+07
8.46497e+07
8.46501e+07
8.46504e+07
8.46508e+07
8.46511e+07
8.46513e+07
8.46516e+07
8.46517e+07
8.46518e+07
8.5543e+07
8.55431e+07
8.55432e+07
8.55433e+07
8.55435e+07
8.55437e+07
8.55439e+07
8.55441e+07
8.55444e+07
8.55447e+07
8.5545e+07
8.55453e+07
8.55456e+07
8.55459e+07
8.55462e+07
8.55464e+07
8.55466e+07
8.55468e+07
8.55469e+07
8.5547e+07
8.67347e+07
8.67348e+07
8.67348e+07
8.67349e+07
8.6735e+07
8.67351e+07
8.67353e+07
8.67355e+07
8.67356e+07
8.67358e+07
8.6736e+07
8.67362e+07
8.67364e+07
8.67366e+07
8.67368e+07
8.6737e+07
8.67371e+07
8.67372e+07
8.67373e+07
8.67373e+07
8.82541e+07
8.82541e+07
8.82541e+07
8.82542e+07
8.82542e+07
8.82542e+07
8.82543e+07
8.82543e+07
8.82544e+07
8.82545e+07
8.82545e+07
8.82546e+07
8.82547e+07
8.82547e+07
8.82548e+07
8.82549e+07
8.82549e+07
8.8255e+07
8.8255e+07
8.8255e+07
9.01405e+07
9.01404e+07
9.01404e+07
9.01404e+07
9.01403e+07
9.01402e+07
9.01401e+07
9.01401e+07
9.014e+07
9.01398e+07
9.01397e+07
9.01396e+07
9.01395e+07
9.01394e+07
9.01393e+07
9.01393e+07
9.01392e+07
9.01391e+07
9.01391e+07
9.0139e+07
9.24518e+07
9.24518e+07
9.24517e+07
9.24515e+07
9.24514e+07
9.24511e+07
9.24509e+07
9.24506e+07
9.24502e+07
9.24499e+07
9.24496e+07
9.24492e+07
9.24489e+07
9.24486e+07
9.24483e+07
9.2448e+07
9.24478e+07
9.24476e+07
9.24474e+07
9.24473e+07
9.52497e+07
9.52496e+07
9.52494e+07
9.52492e+07
9.52488e+07
9.52484e+07
9.52479e+07
9.52473e+07
9.52467e+07
9.52461e+07
9.52454e+07
9.52448e+07
9.52441e+07
9.52435e+07
9.52429e+07
9.52424e+07
9.52419e+07
9.52415e+07
9.52412e+07
9.52411e+07
9.86198e+07
9.86197e+07
9.86194e+07
9.86189e+07
9.86183e+07
9.86176e+07
9.86168e+07
9.86159e+07
9.86149e+07
9.86139e+07
9.86128e+07
9.86117e+07
9.86106e+07
9.86096e+07
9.86086e+07
9.86078e+07
9.8607e+07
9.86063e+07
9.86059e+07
9.86056e+07
1.01592e+08
1.01592e+08
1.01592e+08
1.01591e+08
1.0159e+08
1.01589e+08
1.01588e+08
1.01586e+08
1.01585e+08
1.01583e+08
1.01582e+08
1.0158e+08
1.01578e+08
1.01577e+08
1.01575e+08
1.01574e+08
1.01573e+08
1.01572e+08
1.01571e+08
1.01571e+08
1.36639e+08
1.36639e+08
1.36638e+08
1.36638e+08
1.36638e+08
1.36637e+08
1.36636e+08
1.36635e+08
1.36634e+08
1.36634e+08
1.36633e+08
1.36632e+08
1.36631e+08
1.3663e+08
1.36629e+08
1.36628e+08
1.36628e+08
1.36627e+08
1.36627e+08
1.36626e+08
1.33996e+08
1.33996e+08
1.33996e+08
1.33995e+08
1.33995e+08
1.33995e+08
1.33994e+08
1.33994e+08
1.33994e+08
1.33993e+08
1.33993e+08
1.33992e+08
1.33992e+08
1.33992e+08
1.33991e+08
1.33991e+08
1.33991e+08
1.3399e+08
1.3399e+08
1.3399e+08
1.31118e+08
1.31118e+08
1.31118e+08
1.31118e+08
1.31118e+08
1.31118e+08
1.31118e+08
1.31118e+08
1.31118e+08
1.31118e+08
1.31118e+08
1.31118e+08
1.31118e+08
1.31118e+08
1.31117e+08
1.31117e+08
1.31117e+08
1.31117e+08
1.31117e+08
1.31117e+08
1.28791e+08
1.28791e+08
1.28791e+08
1.28791e+08
1.28791e+08
1.28792e+08
1.28792e+08
1.28792e+08
1.28792e+08
1.28792e+08
1.28793e+08
1.28793e+08
1.28793e+08
1.28793e+08
1.28793e+08
1.28794e+08
1.28794e+08
1.28794e+08
1.28794e+08
1.28794e+08
1.26962e+08
1.26962e+08
1.26962e+08
1.26963e+08
1.26963e+08
1.26963e+08
1.26963e+08
1.26964e+08
1.26964e+08
1.26965e+08
1.26965e+08
1.26965e+08
1.26966e+08
1.26966e+08
1.26966e+08
1.26967e+08
1.26967e+08
1.26967e+08
1.26968e+08
1.26968e+08
1.25596e+08
1.25597e+08
1.25597e+08
1.25597e+08
1.25597e+08
1.25598e+08
1.25598e+08
1.25598e+08
1.25599e+08
1.25599e+08
1.256e+08
1.25601e+08
1.25601e+08
1.25602e+08
1.25602e+08
1.25602e+08
1.25603e+08
1.25603e+08
1.25603e+08
1.25603e+08
1.24654e+08
1.24655e+08
1.24655e+08
1.24655e+08
1.24655e+08
1.24656e+08
1.24656e+08
1.24657e+08
1.24657e+08
1.24658e+08
1.24659e+08
1.24659e+08
1.2466e+08
1.2466e+08
1.24661e+08
1.24661e+08
1.24662e+08
1.24662e+08
1.24662e+08
1.24662e+08
1.24111e+08
1.24112e+08
1.24112e+08
1.24112e+08
1.24112e+08
1.24113e+08
1.24113e+08
1.24114e+08
1.24114e+08
1.24115e+08
1.24116e+08
1.24116e+08
1.24117e+08
1.24117e+08
1.24118e+08
1.24118e+08
1.24119e+08
1.24119e+08
1.24119e+08
1.2412e+08
1.23916e+08
1.23916e+08
1.23916e+08
1.23917e+08
1.23917e+08
1.23917e+08
1.23918e+08
1.23918e+08
1.23919e+08
1.2392e+08
1.2392e+08
1.23921e+08
1.23921e+08
1.23922e+08
1.23922e+08
1.23923e+08
1.23923e+08
1.23924e+08
1.23924e+08
1.23924e+08
1.24069e+08
1.24069e+08
1.24069e+08
1.24069e+08
1.2407e+08
1.2407e+08
1.24071e+08
1.24071e+08
1.24072e+08
1.24072e+08
1.24073e+08
1.24073e+08
1.24074e+08
1.24074e+08
1.24075e+08
1.24075e+08
1.24076e+08
1.24076e+08
1.24076e+08
1.24076e+08
1.24573e+08
1.24573e+08
1.24573e+08
1.24574e+08
1.24574e+08
1.24574e+08
1.24575e+08
1.24575e+08
1.24576e+08
1.24576e+08
1.24577e+08
1.24577e+08
1.24578e+08
1.24578e+08
1.24579e+08
1.24579e+08
1.24579e+08
1.2458e+08
1.2458e+08
1.2458e+08
1.25434e+08
1.25434e+08
1.25434e+08
1.25434e+08
1.25435e+08
1.25435e+08
1.25435e+08
1.25436e+08
1.25436e+08
1.25437e+08
1.25437e+08
1.25437e+08
1.25438e+08
1.25438e+08
1.25439e+08
1.25439e+08
1.25439e+08
1.2544e+08
1.2544e+08
1.2544e+08
1.26665e+08
1.26665e+08
1.26665e+08
1.26666e+08
1.26666e+08
1.26666e+08
1.26666e+08
1.26667e+08
1.26667e+08
1.26667e+08
1.26668e+08
1.26668e+08
1.26668e+08
1.26669e+08
1.26669e+08
1.26669e+08
1.26669e+08
1.2667e+08
1.2667e+08
1.2667e+08
1.28288e+08
1.28288e+08
1.28288e+08
1.28288e+08
1.28288e+08
1.28288e+08
1.28288e+08
1.28289e+08
1.28289e+08
1.28289e+08
1.28289e+08
1.2829e+08
1.2829e+08
1.2829e+08
1.2829e+08
1.2829e+08
1.28291e+08
1.28291e+08
1.28291e+08
1.28291e+08
1.30335e+08
1.30335e+08
1.30335e+08
1.30335e+08
1.30335e+08
1.30335e+08
1.30336e+08
1.30336e+08
1.30336e+08
1.30336e+08
1.30336e+08
1.30336e+08
1.30336e+08
1.30336e+08
1.30336e+08
1.30336e+08
1.30336e+08
1.30336e+08
1.30336e+08
1.30336e+08
1.32845e+08
1.32845e+08
1.32845e+08
1.32845e+08
1.32845e+08
1.32845e+08
1.32845e+08
1.32845e+08
1.32845e+08
1.32845e+08
1.32845e+08
1.32844e+08
1.32844e+08
1.32844e+08
1.32844e+08
1.32844e+08
1.32844e+08
1.32844e+08
1.32843e+08
1.32843e+08
1.35874e+08
1.35874e+08
1.35874e+08
1.35874e+08
1.35874e+08
1.35873e+08
1.35873e+08
1.35873e+08
1.35872e+08
1.35872e+08
1.35871e+08
1.35871e+08
1.35871e+08
1.3587e+08
1.3587e+08
1.35869e+08
1.35869e+08
1.35869e+08
1.35869e+08
1.35868e+08
1.39474e+08
1.39474e+08
1.39473e+08
1.39473e+08
1.39473e+08
1.39472e+08
1.39471e+08
1.39471e+08
1.3947e+08
1.39469e+08
1.39468e+08
1.39468e+08
1.39467e+08
1.39466e+08
1.39465e+08
1.39465e+08
1.39464e+08
1.39464e+08
1.39463e+08
1.39463e+08
1.4372e+08
1.4372e+08
1.43719e+08
1.43719e+08
1.43718e+08
1.43717e+08
1.43716e+08
1.43715e+08
1.43714e+08
1.43713e+08
1.43711e+08
1.4371e+08
1.43709e+08
1.43707e+08
1.43706e+08
1.43705e+08
1.43704e+08
1.43704e+08
1.43703e+08
1.43703e+08
1.47431e+08
1.47431e+08
1.4743e+08
1.47429e+08
1.47428e+08
1.47427e+08
1.47425e+08
1.47424e+08
1.47422e+08
1.4742e+08
1.47418e+08
1.47416e+08
1.47414e+08
1.47412e+08
1.47411e+08
1.47409e+08
1.47408e+08
1.47407e+08
1.47406e+08
1.47406e+08
1.86933e+08
1.86933e+08
1.86933e+08
1.86932e+08
1.86932e+08
1.86931e+08
1.8693e+08
1.86929e+08
1.86929e+08
1.86928e+08
1.86927e+08
1.86926e+08
1.86925e+08
1.86924e+08
1.86923e+08
1.86922e+08
1.86922e+08
1.86921e+08
1.8692e+08
1.8692e+08
1.83805e+08
1.83805e+08
1.83805e+08
1.83804e+08
1.83804e+08
1.83804e+08
1.83803e+08
1.83803e+08
1.83803e+08
1.83802e+08
1.83802e+08
1.83801e+08
1.83801e+08
1.83801e+08
1.838e+08
1.838e+08
1.83799e+08
1.83799e+08
1.83799e+08
1.83799e+08
1.8037e+08
1.8037e+08
1.80369e+08
1.80369e+08