/*--------------------------------*- C++ -*----------------------------------*\
| =========                 |                                                 |
| \\      /  F ield         | OpenFOAM: The Open Source CFD Toolbox           |
|  \\    /   O peration     | Version:  2212                                  |
|   \\  /    A nd           | Website:  www.openfoam.com                      |
|    \\/     M anipulation  |                                                 |
\*---------------------------------------------------------------------------*/
FoamFile
{
    version     2.0;
    format      ascii;
    arch        "LSB;label=32;scalar=64";
    class       volScalarField;
    location    "0.082";
    object      k;
}
// * * * * * * * * * * * * * * * * * * * * * * * * * * * * * * * * * * * * * //

dimensions      [0 2 -2 0 0 0 0];

internalField   nonuniform List<scalar> 
24240
(
6.98761e-06
1.36133e-05
1.76774e-05
1.77204e-05
1.77203e-05
1.77206e-05
1.77208e-05
1.77211e-05
1.77212e-05
1.77213e-05
1.77214e-05
1.77213e-05
1.77212e-05
1.7721e-05
1.77207e-05
1.77203e-05
1.77202e-05
1.7677e-05
1.36126e-05
6.97817e-06
2.66696e-11
7.09069e-09
4.22521e-08
5.08544e-08
4.56759e-08
4.56693e-08
4.56615e-08
4.56528e-08
4.56433e-08
4.56331e-08
4.56225e-08
4.56116e-08
4.56007e-08
4.559e-08
4.55796e-08
4.55698e-08
5.07177e-08
4.21223e-08
7.05371e-09
2.66094e-11
7.37228e-15
5.24997e-14
3.99932e-13
7.75047e-09
6.36141e-09
6.36041e-09
6.35928e-09
6.358e-09
6.3566e-09
6.35511e-09
6.35356e-09
6.35197e-09
6.35037e-09
6.34879e-09
6.34728e-09
6.34586e-09
7.72874e-09
3.98935e-13
5.23214e-14
7.36327e-15
1.00002e-15
1.00886e-15
1.2497e-15
4.51341e-11
4.52122e-11
4.52124e-11
4.52127e-11
4.52131e-11
4.52135e-11
4.52141e-11
4.52147e-11
4.52154e-11
4.52162e-11
4.52171e-11
4.5218e-11
4.5219e-11
4.51414e-11
1.24922e-15
1.00882e-15
1.00002e-15
1e-15
1e-15
1.1051e-15
5.62264e-11
5.6767e-11
5.67692e-11
5.67718e-11
5.67747e-11
5.67777e-11
5.67809e-11
5.67841e-11
5.67875e-11
5.67908e-11
5.67942e-11
5.67975e-11
5.68007e-11
5.62646e-11
1.10592e-15
1e-15
1e-15
1e-15
1e-15
1.00832e-15
4.69617e-12
4.74782e-12
4.74788e-12
4.74796e-12
4.74804e-12
4.74814e-12
4.74824e-12
4.74834e-12
4.74845e-12
4.74856e-12
4.74867e-12
4.74877e-12
4.74886e-12
4.69732e-12
1.00836e-15
1e-15
1e-15
1e-15
1e-15
1.03664e-15
2.09911e-11
2.13277e-11
2.13278e-11
2.13279e-11
2.13281e-11
2.13282e-11
2.13284e-11
2.13287e-11
2.13291e-11
2.13294e-11
2.13298e-11
2.13302e-11
2.13305e-11
2.09942e-11
1.03624e-15
1e-15
1e-15
1e-15
1e-15
1.00076e-15
5.45994e-13
5.54826e-13
5.548e-13
5.54769e-13
5.54736e-13
5.54703e-13
5.54671e-13
5.54641e-13
5.54613e-13
5.54589e-13
5.54568e-13
5.54549e-13
5.54534e-13
5.4567e-13
1.00076e-15
1e-15
1e-15
1e-15
1e-15
1.00281e-15
2.19742e-12
2.24633e-12
2.24613e-12
2.24591e-12
2.24568e-12
2.24545e-12
2.24524e-12
2.24505e-12
2.24488e-12
2.24474e-12
2.24464e-12
2.24456e-12
2.24452e-12
2.19545e-12
1.00274e-15
1e-15
1e-15
1e-15
1e-15
1.00006e-15
4.09656e-14
4.18291e-14
4.18242e-14
4.18189e-14
4.18135e-14
4.18082e-14
4.18033e-14
4.17991e-14
4.17957e-14
4.17932e-14
4.17916e-14
4.17908e-14
4.17908e-14
4.09242e-14
1.00005e-15
1e-15
1e-15
1e-15
1e-15
1e-15
1.49332e-15
1.50342e-15
1.50458e-15
1.50594e-15
1.50747e-15
1.50916e-15
1.51097e-15
1.51289e-15
1.51487e-15
1.51687e-15
1.51887e-15
1.52079e-15
1.52259e-15
1.51471e-15
1e-15
1e-15
1e-15
1e-15
1e-15
1.00057e-15
5.12119e-13
5.19221e-13
5.19134e-13
5.19038e-13
5.18938e-13
5.18835e-13
5.18735e-13
5.18639e-13
5.18552e-13
5.18476e-13
5.18413e-13
5.18365e-13
5.18335e-13
5.11158e-13
1.00055e-15
1e-15
1e-15
1e-15
1e-15
1.00004e-15
2.3647e-14
2.39078e-14
2.39051e-14
2.39022e-14
2.38993e-14
2.38964e-14
2.38938e-14
2.38915e-14
2.38897e-14
2.38884e-14
2.38877e-14
2.38877e-14
2.38883e-14
2.36269e-14
1.00004e-15
1e-15
1e-15
1e-15
1e-15
1.03701e-15
2.1424e-11
2.16142e-11
2.16134e-11
2.16126e-11
2.16119e-11
2.16112e-11
2.16106e-11
2.16102e-11
2.16099e-11
2.161e-11
2.16103e-11
2.16109e-11
2.16118e-11
2.14221e-11
1.03547e-15
1e-15
1e-15
1e-15
1e-15
1.00344e-15
1.8687e-12
1.88307e-12
1.88303e-12
1.88299e-12
1.88296e-12
1.88293e-12
1.88292e-12
1.88292e-12
1.88295e-12
1.883e-12
1.88307e-12
1.88318e-12
1.88331e-12
1.86905e-12
1.00326e-15
1e-15
1e-15
1e-15
1e-15
2.01424e-15
4.89534e-10
4.91985e-10
4.91977e-10
4.91968e-10
4.91959e-10
4.91951e-10
4.91943e-10
4.91938e-10
4.91935e-10
4.91935e-10
4.91938e-10
4.91944e-10
4.91953e-10
4.89503e-10
1.95898e-15
1e-15
1e-15
1.00014e-15
1.00848e-15
8.56523e-14
3.63736e-10
3.63973e-10
3.62695e-10
3.62687e-10
3.6268e-10
3.62673e-10
3.62668e-10
3.63757e-10
3.62756e-10
3.62758e-10
3.62762e-10
3.62769e-10
3.64042e-10
3.63802e-10
8.52169e-14
1.00841e-15
1.00014e-15
4.2299e-14
1.4819e-13
1.92582e-08
2.72759e-08
2.17903e-08
2.16593e-08
2.16546e-08
2.16491e-08
2.1643e-08
2.16363e-08
2.3888e-08
2.16283e-08
2.16207e-08
2.16131e-08
2.16057e-08
2.17273e-08
2.71779e-08
1.91758e-08
1.45042e-13
4.22385e-14
1.37852e-10
6.41232e-09
1.52554e-07
1.86131e-07
1.67794e-07
1.67729e-07
1.67695e-07
1.67657e-07
1.67613e-07
1.67566e-07
1.67928e-07
1.6747e-07
1.67416e-07
1.67363e-07
1.6731e-07
1.67297e-07
1.85493e-07
1.51962e-07
6.36884e-09
1.37622e-10
4.16928e-05
6.97555e-05
8.97503e-05
9.00224e-05
9.00181e-05
9.00155e-05
9.00123e-05
9.00085e-05
9.00042e-05
8.99994e-05
8.9994e-05
8.99885e-05
8.99826e-05
8.99766e-05
8.99706e-05
8.99648e-05
8.99619e-05
8.96838e-05
6.96955e-05
4.16411e-05
8.72209e-06
1.65424e-05
2.06714e-05
2.06691e-05
2.06689e-05
2.06691e-05
2.06691e-05
2.06692e-05
2.06692e-05
2.06691e-05
2.06689e-05
2.06687e-05
2.06683e-05
2.06679e-05
2.06674e-05
2.06669e-05
2.06666e-05
2.06684e-05
1.65395e-05
8.71516e-06
1.98754e-11
1.01775e-08
6.18916e-08
7.45649e-08
6.67663e-08
6.67579e-08
6.6748e-08
6.67369e-08
6.67248e-08
6.6712e-08
6.66985e-08
6.66848e-08
6.6671e-08
6.66574e-08
6.66442e-08
6.66318e-08
7.43908e-08
6.17262e-08
1.01318e-08
1.98633e-11
5.94235e-15
1.07637e-13
3.98774e-13
1.26915e-08
1.03437e-08
1.03424e-08
1.0341e-08
1.03393e-08
1.03375e-08
1.03356e-08
1.03336e-08
1.03316e-08
1.03295e-08
1.03275e-08
1.03256e-08
1.03238e-08
1.26635e-08
3.98084e-13
1.07398e-13
5.93281e-15
1.00007e-15
1.02549e-15
2.09971e-15
4.0638e-10
4.0789e-10
4.0789e-10
4.0789e-10
4.07891e-10
4.07893e-10
4.07895e-10
4.07898e-10
4.07902e-10
4.07906e-10
4.07911e-10
4.07917e-10
4.07923e-10
4.06419e-10
2.09291e-15
1.02544e-15
1.00007e-15
1e-15
1.00001e-15
1.76436e-15
4.73148e-10
4.77682e-10
4.77693e-10
4.77706e-10
4.77721e-10
4.77737e-10
4.77753e-10
4.7777e-10
4.77788e-10
4.77807e-10
4.77825e-10
4.77844e-10
4.77862e-10
4.73353e-10
1.7769e-15
1.00001e-15
1e-15
1e-15
1e-15
1.07274e-15
4.80443e-11
4.85668e-11
4.8567e-11
4.85673e-11
4.85676e-11
4.8568e-11
4.85684e-11
4.85689e-11
4.85694e-11
4.85699e-11
4.85705e-11
4.85711e-11
4.85716e-11
4.80495e-11
1.07314e-15
1e-15
1e-15
1e-15
1e-15
1.26202e-15
1.76041e-10
1.78798e-10
1.78797e-10
1.78797e-10
1.78796e-10
1.78795e-10
1.78795e-10
1.78795e-10
1.78796e-10
1.78797e-10
1.78798e-10
1.78799e-10
1.788e-10
1.76044e-10
1.2607e-15
1e-15
1e-15
1e-15
1e-15
1.0074e-15
6.41972e-12
6.52242e-12
6.52221e-12
6.52197e-12
6.52172e-12
6.52147e-12
6.52123e-12
6.521e-12
6.5208e-12
6.52061e-12
6.52046e-12
6.52032e-12
6.52021e-12
6.41726e-12
1.0074e-15
1e-15
1e-15
1e-15
1e-15
1.02233e-15
2.26359e-11
2.31254e-11
2.31258e-11
2.31262e-11
2.31267e-11
2.31273e-11
2.3128e-11
2.31288e-11
2.31297e-11
2.31306e-11
2.31316e-11
2.31325e-11
2.31334e-11
2.26446e-11
1.02197e-15
1e-15
1e-15
1e-15
1e-15
1.00043e-15
4.42743e-13
4.51492e-13
4.51418e-13
4.51336e-13
4.5125e-13
4.51163e-13
4.5108e-13
4.51002e-13
4.50933e-13
4.50873e-13
4.50825e-13
4.50786e-13
4.50759e-13
4.4194e-13
1.00042e-15
1e-15
1e-15
1e-15
1e-15
1e-15
4.37764e-15
4.43524e-15
4.43669e-15
4.43842e-15
4.44044e-15
4.44271e-15
4.44524e-15
4.44799e-15
4.45092e-15
4.45397e-15
4.4571e-15
4.46019e-15
4.46314e-15
4.40889e-15
1e-15
1e-15
1e-15
1e-15
1e-15
1.00596e-15
6.53119e-12
6.62079e-12
6.62004e-12
6.61921e-12
6.61835e-12
6.61747e-12
6.61663e-12
6.61584e-12
6.61513e-12
6.61453e-12
6.61406e-12
6.61373e-12
6.61357e-12
6.52342e-12
1.00583e-15
1e-15
1e-15
1e-15
1e-15
1.00021e-15
1.66452e-13
1.68475e-13
1.68459e-13
1.68441e-13
1.68423e-13
1.68405e-13
1.68389e-13
1.68373e-13
1.68361e-13
1.68351e-13
1.68345e-13
1.68343e-13
1.68345e-13
1.66316e-13
1.00021e-15
1e-15
1e-15
1e-15
1e-15
1.2605e-15
1.76872e-10
1.78443e-10
1.78439e-10
1.78435e-10
1.78432e-10
1.78429e-10
1.78427e-10
1.78426e-10
1.78427e-10
1.78429e-10
1.78433e-10
1.78439e-10
1.78448e-10
1.76883e-10
1.25066e-15
1e-15
1e-15
1e-15
1e-15
1.02762e-15
1.72593e-11
1.73873e-11
1.73872e-11
1.73871e-11
1.73872e-11
1.73872e-11
1.73875e-11
1.73878e-11
1.73884e-11
1.73891e-11
1.73901e-11
1.73912e-11
1.73926e-11
1.72658e-11
1.02623e-15
1e-15
1e-15
1e-15
1.00001e-15
6.93319e-15
3.32441e-09
3.34139e-09
3.34136e-09
3.34133e-09
3.3413e-09
3.34127e-09
3.34125e-09
3.34125e-09
3.34126e-09
3.34129e-09
3.34133e-09
3.3414e-09
3.34147e-09
3.32453e-09
6.63285e-15
1.00001e-15
1e-15
1.00011e-15
1.01279e-15
1.40305e-13
2.73957e-09
2.74501e-09
2.7386e-09
2.73857e-09
2.73855e-09
2.73853e-09
2.73852e-09
2.74381e-09
2.73893e-09
2.73897e-09
2.73902e-09
2.73908e-09
2.74552e-09
2.74005e-09
1.39439e-13
1.01269e-15
1.00011e-15
4.624e-14
2.0041e-13
3.16133e-08
4.69369e-08
4.01567e-08
3.81837e-08
3.81773e-08
3.817e-08
3.81618e-08
3.81529e-08
4.23652e-08
3.81346e-08
3.81245e-08
3.81145e-08
3.81046e-08
4.00651e-08
4.67999e-08
3.15079e-08
1.95567e-13
4.61749e-14
1.54205e-10
9.77511e-09
2.24004e-07
2.74403e-07
2.46881e-07
2.46697e-07
2.46652e-07
2.46602e-07
2.46545e-07
2.46483e-07
2.46899e-07
2.46356e-07
2.46286e-07
2.46216e-07
2.46148e-07
2.46231e-07
2.73565e-07
2.23231e-07
9.71685e-09
1.53997e-10
6.54618e-05
9.10332e-05
0.000109685
0.00010971
0.000109705
0.000109702
0.000109698
0.000109694
0.00010969
0.000109684
0.000109678
0.000109672
0.000109666
0.00010966
0.000109653
0.000109647
0.000109644
0.000109613
9.09661e-05
6.53884e-05
1.50913e-05
2.21401e-05
2.63658e-05
2.63218e-05
2.63218e-05
2.63219e-05
2.6322e-05
2.6322e-05
2.6322e-05
2.6322e-05
2.63218e-05
2.63216e-05
2.63213e-05
2.63209e-05
2.63205e-05
2.632e-05
2.63196e-05
2.63632e-05
2.21372e-05
1.5086e-05
3.53034e-11
1.09127e-08
6.31008e-08
7.54552e-08
6.74465e-08
6.74397e-08
6.74317e-08
6.74228e-08
6.74131e-08
6.74027e-08
6.73919e-08
6.73809e-08
6.73699e-08
6.7359e-08
6.73484e-08
6.73384e-08
7.53145e-08
6.29665e-08
1.08756e-08
3.52765e-11
9.42349e-15
3.11123e-13
1.22952e-12
1.25546e-08
1.02008e-08
1.01997e-08
1.01985e-08
1.01972e-08
1.01958e-08
1.01943e-08
1.01927e-08
1.01911e-08
1.01895e-08
1.01879e-08
1.01863e-08
1.01849e-08
1.2532e-08
1.22892e-12
3.10814e-13
9.41724e-15
1.00046e-15
1.1104e-15
5.17753e-15
2.80568e-09
2.81869e-09
2.8187e-09
2.81871e-09
2.81873e-09
2.81875e-09
2.81877e-09
2.8188e-09
2.81883e-09
2.81886e-09
2.8189e-09
2.81894e-09
2.81898e-09
2.806e-09
5.14788e-15
1.11031e-15
1.00046e-15
1e-15
1.00009e-15
4.75317e-15
3.0557e-09
3.08484e-09
3.08489e-09
3.08494e-09
3.08501e-09
3.08508e-09
3.08515e-09
3.08522e-09
3.0853e-09
3.08538e-09
3.08546e-09
3.08554e-09
3.08562e-09
3.05659e-09
4.84684e-15
1.00009e-15
1e-15
1e-15
1e-15
1.4554e-15
3.96184e-10
4.00446e-10
4.00446e-10
4.00447e-10
4.00447e-10
4.00448e-10
4.00449e-10
4.0045e-10
4.00452e-10
4.00454e-10
4.00457e-10
4.00459e-10
4.00461e-10
3.962e-10
1.45854e-15
1e-15
1e-15
1e-15
1e-15
2.21824e-15
1.11559e-09
1.13245e-09
1.13244e-09
1.13243e-09
1.13242e-09
1.13241e-09
1.1324e-09
1.1324e-09
1.13239e-09
1.13239e-09
1.13239e-09
1.13239e-09
1.13239e-09
1.11552e-09
2.22276e-15
1e-15
1e-15
1e-15
1e-15
1.04674e-15
5.89124e-11
5.98369e-11
5.98369e-11
5.98369e-11
5.9837e-11
5.98371e-11
5.98374e-11
5.98376e-11
5.98381e-11
5.98384e-11
5.98389e-11
5.98392e-11
5.98395e-11
5.8915e-11
1.04715e-15
1e-15
1e-15
1e-15
1e-15
1.10337e-15
1.3238e-10
1.34945e-10
1.34941e-10
1.34937e-10
1.34932e-10
1.34927e-10
1.34923e-10
1.34919e-10
1.34916e-10
1.34914e-10
1.34912e-10
1.3491e-10
1.34909e-10
1.32339e-10
1.1026e-15
1e-15
1e-15
1e-15
1e-15
1.0025e-15
5.0653e-12
5.15565e-12
5.15491e-12
5.15409e-12
5.15324e-12
5.15238e-12
5.15155e-12
5.15077e-12
5.15007e-12
5.14946e-12
5.14895e-12
5.14854e-12
5.14823e-12
5.05713e-12
1.00248e-15
1e-15
1e-15
1e-15
1e-15
1.00003e-15
5.62101e-14
5.69569e-14
5.69383e-14
5.69177e-14
5.68967e-14
5.68755e-14
5.68554e-14
5.68366e-14
5.68202e-14
5.68063e-14
5.67951e-14
5.67861e-14
5.67797e-14
5.60149e-14
1.00003e-15
1e-15
1e-15
1e-15
1e-15
1.04193e-15
6.68723e-11
6.77701e-11
6.77643e-11
6.77579e-11
6.77513e-11
6.77445e-11
6.77381e-11
6.77322e-11
6.7727e-11
6.77226e-11
6.77193e-11
6.77171e-11
6.77163e-11
6.68144e-11
1.0412e-15
1e-15
1e-15
1e-15
1e-15
1.00139e-15
1.66273e-12
1.68132e-12
1.68123e-12
1.68113e-12
1.68104e-12
1.68095e-12
1.68087e-12
1.68081e-12
1.68076e-12
1.68074e-12
1.68075e-12
1.68078e-12
1.68085e-12
1.66228e-12
1.00135e-15
1e-15
1e-15
1e-15
1e-15
2.18479e-15
1.10342e-09
1.11321e-09
1.11319e-09
1.11319e-09
1.11318e-09
1.11318e-09
1.11318e-09
1.11319e-09
1.1132e-09
1.11323e-09
1.11326e-09
1.11331e-09
1.11336e-09
1.10362e-09
2.14717e-15
1e-15
1e-15
1e-15
1e-15
1.18238e-15
1.4485e-10
1.45884e-10
1.45885e-10
1.45885e-10
1.45887e-10
1.4589e-10
1.45893e-10
1.45898e-10
1.45905e-10
1.45913e-10
1.45922e-10
1.45933e-10
1.45946e-10
1.44924e-10
1.17342e-15
1e-15
1e-15
1e-15
1.00002e-15
2.26978e-14
1.63359e-08
1.64219e-08
1.64219e-08
1.64219e-08
1.64219e-08
1.64219e-08
1.6422e-08
1.64221e-08
1.64223e-08
1.64226e-08
1.6423e-08
1.64234e-08
1.64238e-08
1.63382e-08
2.17467e-14
1.00002e-15
1e-15
1.00015e-15
1.01535e-15
1.59763e-13
1.52874e-08
1.53334e-08
1.53152e-08
1.53152e-08
1.53152e-08
1.53152e-08
1.53154e-08
1.53303e-08
1.53165e-08
1.53168e-08
1.53171e-08
1.53175e-08
1.53362e-08
1.52903e-08
1.58012e-13
1.01526e-15
1.00015e-15
5.7733e-14
2.18925e-13
3.27741e-08
4.87519e-08
4.28163e-08
3.98336e-08
3.98277e-08
3.9821e-08
3.98135e-08
3.98054e-08
4.42009e-08
3.97876e-08
3.97784e-08
3.97692e-08
3.97603e-08
4.27276e-08
4.86251e-08
3.2676e-08
2.13921e-13
5.76717e-14
2.09429e-10
1.20453e-08
2.39646e-07
2.92265e-07
2.62713e-07
2.62486e-07
2.62447e-07
2.62403e-07
2.62353e-07
2.623e-07
2.62564e-07
2.62188e-07
2.62128e-07
2.62067e-07
2.62008e-07
2.62146e-07
2.91531e-07
2.38968e-07
1.1989e-08
2.09189e-10
8.94298e-05
0.000103526
0.000122091
0.00012202
0.000122016
0.000122014
0.000122011
0.000122008
0.000122004
0.000122
0.000121996
0.000121991
0.000121986
0.000121981
0.000121976
0.000121971
0.000121969
0.000122035
0.000103473
8.93608e-05
6.67706e-07
3.96627e-06
5.56088e-06
5.57474e-06
5.57482e-06
5.57492e-06
5.57502e-06
5.57512e-06
5.57521e-06
5.57529e-06
5.57534e-06
5.57538e-06
5.57539e-06
5.57538e-06
5.57534e-06
5.57528e-06
5.57518e-06
5.56127e-06
3.96649e-06
6.67153e-07
1.71532e-11
9.42587e-09
3.77553e-08
4.44094e-08
3.89283e-08
3.89275e-08
3.89267e-08
3.89258e-08
3.89248e-08
3.89239e-08
3.89229e-08
3.89219e-08
3.89209e-08
3.892e-08
3.8919e-08
3.89181e-08
4.43938e-08
3.77398e-08
9.41853e-09
1.71581e-11
7.25578e-15
1.15326e-12
4.40359e-12
7.84772e-09
6.25109e-09
6.25078e-09
6.25046e-09
6.2501e-09
6.24972e-09
6.24931e-09
6.24889e-09
6.24847e-09
6.24804e-09
6.24762e-09
6.24721e-09
6.24684e-09
7.84161e-09
4.40252e-12
1.15256e-12
7.25416e-15
1.00318e-15
1.57425e-15
1.20247e-14
7.25398e-09
7.29999e-09
7.29996e-09
7.29993e-09
7.2999e-09
7.29987e-09
7.29985e-09
7.29984e-09
7.29982e-09
7.29982e-09
7.29981e-09
7.29982e-09
7.29983e-09
7.25379e-09
1.19931e-14
1.57388e-15
1.00318e-15
1e-15
1.0006e-15
1.15398e-14
8.23063e-09
8.31103e-09
8.31101e-09
8.31099e-09
8.31097e-09
8.31095e-09
8.31093e-09
8.31091e-09
8.31091e-09
8.3109e-09
8.3109e-09
8.3109e-09
8.31092e-09
8.23052e-09
1.18192e-14
1.0006e-15
1e-15
1e-15
1e-15
2.76866e-15
1.61118e-09
1.62838e-09
1.62837e-09
1.62835e-09
1.62833e-09
1.62831e-09
1.62829e-09
1.62827e-09
1.62825e-09
1.62823e-09
1.62821e-09
1.6282e-09
1.62818e-09
1.61095e-09
2.78579e-15
1e-15
1e-15
1e-15
1e-15
3.78687e-15
2.52856e-09
2.56388e-09
2.56385e-09
2.56382e-09
2.56377e-09
2.56373e-09
2.56369e-09
2.56365e-09
2.56362e-09
2.56358e-09
2.56355e-09
2.56353e-09
2.56351e-09
2.52815e-09
3.80544e-15
1e-15
1e-15
1e-15
1e-15
1.14702e-15
1.84967e-10
1.8761e-10
1.87607e-10
1.87603e-10
1.87599e-10
1.87595e-10
1.87591e-10
1.87588e-10
1.87584e-10
1.87581e-10
1.87579e-10
1.87576e-10
1.87574e-10
1.84926e-10
1.14919e-15
1e-15
1e-15
1e-15
1e-15
1.19158e-15
2.45211e-10
2.49007e-10
2.48997e-10
2.48985e-10
2.48973e-10
2.4896e-10
2.48947e-10
2.48935e-10
2.48924e-10
2.48913e-10
2.48904e-10
2.48895e-10
2.48888e-10
2.45077e-10
1.19075e-15
1e-15
1e-15
1e-15
1e-15
1.00749e-15
1.67721e-11
1.70173e-11
1.70156e-11
1.70137e-11
1.70116e-11
1.70095e-11
1.70075e-11
1.70055e-11
1.70037e-11
1.7002e-11
1.70005e-11
1.69992e-11
1.69981e-11
1.67507e-11
1.00757e-15
1e-15
1e-15
1e-15
1e-15
1.00034e-15
1.20382e-12
1.219e-12
1.21875e-12
1.21847e-12
1.21817e-12
1.21787e-12
1.21757e-12
1.21729e-12
1.21703e-12
1.21679e-12
1.21659e-12
1.21641e-12
1.21626e-12
1.2008e-12
1.00034e-15
1e-15
1e-15
1e-15
1e-15
1.1299e-15
2.02804e-10
2.05315e-10
2.05302e-10
2.05288e-10
2.05273e-10
2.05257e-10
2.05242e-10
2.05227e-10
2.05214e-10
2.05203e-10
2.05194e-10
2.05187e-10
2.05183e-10
2.02661e-10
1.1291e-15
1e-15
1e-15
1e-15
1e-15
1.01131e-15
1.95938e-11
1.97914e-11
1.97906e-11
1.97897e-11
1.97888e-11
1.9788e-11
1.97873e-11
1.97868e-11
1.97865e-11
1.97864e-11
1.97866e-11
1.97871e-11
1.97879e-11
1.95906e-11
1.011e-15
1e-15
1e-15
1e-15
1e-15
3.75555e-15
2.73412e-09
2.75892e-09
2.7589e-09
2.75887e-09
2.75885e-09
2.75883e-09
2.75882e-09
2.75881e-09
2.75882e-09
2.75884e-09
2.75888e-09
2.75893e-09
2.759e-09
2.73426e-09
3.7074e-15
1e-15
1e-15
1e-15
1e-15
1.95306e-15
9.62617e-10
9.69387e-10
9.69389e-10
9.69392e-10
9.69398e-10
9.69408e-10
9.69423e-10
9.69442e-10
9.69468e-10
9.695e-10
9.69539e-10
9.69583e-10
9.69633e-10
9.62913e-10
1.91083e-15
1e-15
1e-15
1e-15
1.00003e-15
3.81632e-14
2.7401e-08
2.75642e-08
2.75643e-08
2.75642e-08
2.75642e-08
2.75642e-08
2.75643e-08
2.75644e-08
2.75646e-08
2.75648e-08
2.75652e-08
2.75656e-08
2.7566e-08
2.74033e-08
3.71751e-14
1.00003e-15
1e-15
1.00002e-15
1.01632e-15
1.57021e-13
2.56324e-08
2.5755e-08
2.57553e-08
2.57555e-08
2.57556e-08
2.57559e-08
2.57561e-08
2.57546e-08
2.57554e-08
2.57557e-08
2.57562e-08
2.57566e-08
2.57569e-08
2.5635e-08
1.54909e-13
1.01625e-15
1.00002e-15
1.07219e-14
1.67917e-13
2.85097e-08
3.8208e-08
3.73141e-08
3.07492e-08
3.07468e-08
3.0744e-08
3.07409e-08
3.07377e-08
3.45248e-08
3.07273e-08
3.07237e-08
3.07202e-08
3.07168e-08
3.72602e-08
3.81548e-08
2.84692e-08
1.65341e-13
1.07152e-14
3.50054e-11
1.29898e-08
1.82412e-07
2.20925e-07
1.96176e-07
1.95765e-07
1.95753e-07
1.95738e-07
1.95723e-07
1.95707e-07
1.95893e-07
1.95674e-07
1.95656e-07
1.95639e-07
1.95622e-07
1.96005e-07
2.20695e-07
1.82197e-07
1.29456e-08
3.49825e-11
2.26697e-05
4.15423e-05
5.2294e-05
5.23845e-05
5.23832e-05
5.23826e-05
5.23818e-05
5.23808e-05
5.23797e-05
5.23784e-05
5.2377e-05
5.23756e-05
5.23741e-05
5.23725e-05
5.23709e-05
5.23693e-05
5.23686e-05
5.22764e-05
4.15255e-05
2.26512e-05
4.58551e-07
4.60604e-06
6.11151e-06
6.10755e-06
6.10765e-06
6.10776e-06
6.10788e-06
6.10801e-06
6.10814e-06
6.10826e-06
6.10838e-06
6.10848e-06
6.10856e-06
6.10863e-06
6.10867e-06
6.10869e-06
6.10866e-06
6.11267e-06
4.60703e-06
4.58484e-07
9.85011e-11
8.01268e-09
3.18179e-08
3.71802e-08
3.29077e-08
3.29065e-08
3.29053e-08
3.29039e-08
3.29023e-08
3.29008e-08
3.28991e-08
3.28975e-08
3.28958e-08
3.28942e-08
3.28926e-08
3.28911e-08
3.71583e-08
3.17968e-08
8.00705e-09
9.85689e-11
3.9187e-14
4.3597e-12
1.68309e-11
6.34827e-09
5.04125e-09
5.04104e-09
5.04084e-09
5.04061e-09
5.04037e-09
5.04012e-09
5.03986e-09
5.0396e-09
5.03935e-09
5.03909e-09
5.03885e-09
5.03864e-09
6.34444e-09
1.68254e-11
4.35739e-12
3.91821e-14
1.02104e-15
3.87542e-15
2.51421e-14
1.13328e-08
1.14369e-08
1.14368e-08
1.14367e-08
1.14366e-08
1.14365e-08
1.14364e-08
1.14363e-08
1.14362e-08
1.14361e-08
1.1436e-08
1.1436e-08
1.1436e-08
1.13318e-08
2.52353e-14
3.87377e-15
1.02104e-15
1.00001e-15
1.00313e-15
1.58996e-14
1.19452e-08
1.20664e-08
1.20663e-08
1.20662e-08
1.20661e-08
1.2066e-08
1.20659e-08
1.20657e-08
1.20656e-08
1.20655e-08
1.20654e-08
1.20654e-08
1.20654e-08
1.19442e-08
1.65737e-14
1.00313e-15
1.00001e-15
1e-15
1.00001e-15
3.87004e-15
2.78054e-09
2.81008e-09
2.81005e-09
2.81001e-09
2.80997e-09
2.80992e-09
2.80988e-09
2.80983e-09
2.80979e-09
2.80974e-09
2.80971e-09
2.80968e-09
2.80968e-09
2.78014e-09
3.95415e-15
1.00001e-15
1e-15
1e-15
1e-15
4.64622e-15
3.42307e-09
3.46597e-09
3.46593e-09
3.46589e-09
3.46584e-09
3.46578e-09
3.46572e-09
3.46566e-09
3.46561e-09
3.46556e-09
3.46551e-09
3.46548e-09
3.46546e-09
3.42252e-09
4.71142e-15
1e-15
1e-15
1e-15
1e-15
1.23074e-15
3.15584e-10
3.19584e-10
3.19577e-10
3.19568e-10
3.19559e-10
3.19549e-10
3.19539e-10
3.19528e-10
3.19518e-10
3.19507e-10
3.19498e-10
3.19489e-10
3.1948e-10
3.15466e-10
1.23713e-15
1e-15
1e-15
1e-15
1e-15
1.28979e-15
3.78063e-10
3.83135e-10
3.83121e-10
3.83105e-10
3.83088e-10
3.8307e-10
3.83052e-10
3.83033e-10
3.83016e-10
3.82998e-10
3.82982e-10
3.82966e-10
3.82949e-10
3.77851e-10
1.28883e-15
1e-15
1e-15
1e-15
1e-15
1.02e-15
4.56202e-11
4.62094e-11
4.62067e-11
4.62035e-11
4.62001e-11
4.61966e-11
4.6193e-11
4.61895e-11
4.61861e-11
4.61829e-11
4.61798e-11
4.61768e-11
4.61738e-11
4.55798e-11
1.02043e-15
1e-15
1e-15
1e-15
1e-15
1.00289e-15
9.5732e-12
9.687e-12
9.68595e-12
9.68472e-12
9.68341e-12
9.68203e-12
9.68065e-12
9.67927e-12
9.67795e-12
9.67667e-12
9.67547e-12
9.67433e-12
9.67325e-12
9.5578e-12
1.00289e-15
1e-15
1e-15
1e-15
1e-15
1.30162e-15
4.56834e-10
4.62121e-10
4.62107e-10
4.6209e-10
4.62072e-10
4.62053e-10
4.62034e-10
4.62015e-10
4.61998e-10
4.61981e-10
4.61967e-10
4.61955e-10
4.61945e-10
4.56641e-10
1.30252e-15
1e-15
1e-15
1e-15
1e-15
1.0703e-15
1.32274e-10
1.33568e-10
1.33567e-10
1.33566e-10
1.33566e-10
1.33565e-10
1.33565e-10
1.33566e-10
1.33566e-10
1.33567e-10
1.33569e-10
1.33571e-10
1.33574e-10
1.32283e-10
1.06846e-15
1e-15
1e-15
1e-15
1e-15
5.7658e-15
4.86343e-09
4.9079e-09
4.90789e-09
4.90789e-09
4.90788e-09
4.90788e-09
4.90788e-09
4.90789e-09
4.90791e-09
4.90793e-09
4.90797e-09
4.90802e-09
4.90809e-09
4.86369e-09
5.7256e-15
1e-15
1e-15
1e-15
1e-15
3.96107e-15
3.15377e-09
3.17675e-09
3.17677e-09
3.1768e-09
3.17683e-09
3.17687e-09
3.17691e-09
3.17696e-09
3.17702e-09
3.17708e-09
3.17716e-09
3.17723e-09
3.17732e-09
3.15444e-09
3.83534e-15
1e-15
1e-15
1e-15
1.00004e-15
4.66166e-14
3.50861e-08
3.53333e-08
3.53332e-08
3.53333e-08
3.53334e-08
3.53335e-08
3.53336e-08
3.53337e-08
3.53338e-08
3.5334e-08
3.53341e-08
3.53343e-08
3.53346e-08
3.50878e-08
4.58378e-14
1.00004e-15
1e-15
1.00004e-15
1.01641e-15
1.46551e-13
3.57384e-08
3.59628e-08
3.59886e-08
3.59887e-08
3.59889e-08
3.5989e-08
3.59892e-08
3.59698e-08
3.59893e-08
3.59895e-08
3.59898e-08
3.599e-08
3.59646e-08
3.57405e-08
1.43973e-13
1.01636e-15
1.00004e-15
1.93949e-14
1.58006e-13
2.37205e-08
3.42997e-08
3.1814e-08
2.77551e-08
2.77533e-08
2.77513e-08
2.77492e-08
2.77469e-08
3.09903e-08
2.774e-08
2.77374e-08
2.77349e-08
2.77324e-08
3.17855e-08
3.42615e-08
2.36923e-08
1.56329e-13
1.93832e-14
6.24151e-11
1.33679e-08
1.62745e-07
1.96195e-07
1.75017e-07
1.74898e-07
1.74888e-07
1.74875e-07
1.74862e-07
1.74848e-07
1.74933e-07
1.74819e-07
1.74803e-07
1.74787e-07
1.74772e-07
1.74867e-07
1.95998e-07
1.62559e-07
1.33356e-08
6.23739e-11
3.04509e-05
4.61308e-05
5.66146e-05
5.66264e-05
5.66258e-05
5.66255e-05
5.66251e-05
5.66246e-05
5.66241e-05
5.66234e-05
5.66227e-05
5.6622e-05
5.66212e-05
5.66204e-05
5.66195e-05
5.66186e-05
5.66182e-05
5.66052e-05
4.61209e-05
3.0437e-05
3.52685e-07
2.96802e-06
4.14568e-06
4.14997e-06
4.15011e-06
4.1502e-06
4.15031e-06
4.15042e-06
4.15054e-06
4.15067e-06
4.15079e-06
4.15091e-06
4.15103e-06
4.15114e-06
4.15123e-06
4.15131e-06
4.15132e-06
4.14714e-06
2.96934e-06
3.52575e-07
2.30083e-10
8.75855e-09
3.2549e-08
3.81806e-08
3.34745e-08
3.34739e-08
3.34731e-08
3.34723e-08
3.34714e-08
3.34706e-08
3.34697e-08
3.34688e-08
3.3468e-08
3.34672e-08
3.34664e-08
3.34656e-08
3.81683e-08
3.25374e-08
8.75424e-09
2.2998e-10
1.34818e-13
9.05421e-12
3.4176e-11
6.07751e-09
4.79104e-09
4.79088e-09
4.79074e-09
4.79059e-09
4.79043e-09
4.79026e-09
4.79009e-09
4.78993e-09
4.78976e-09
4.78961e-09
4.78945e-09
4.78933e-09
6.07492e-09
3.41632e-11
9.04923e-12
1.34771e-13
1.08985e-15
9.73531e-15
4.75317e-14
1.18396e-08
1.19476e-08
1.19475e-08
1.19474e-08
1.19473e-08
1.19472e-08
1.19471e-08
1.1947e-08
1.19469e-08
1.19468e-08
1.19467e-08
1.19467e-08
1.19467e-08
1.18388e-08
4.78688e-14
9.73026e-15
1.08983e-15
1.00007e-15
1.01004e-15
1.68041e-14
1.26455e-08
1.27765e-08
1.27764e-08
1.27763e-08
1.27761e-08
1.2776e-08
1.27759e-08
1.27758e-08
1.27756e-08
1.27755e-08
1.27755e-08
1.27755e-08
1.27755e-08
1.26446e-08
1.77091e-14
1.01004e-15
1.00007e-15
1e-15
1.00001e-15
4.26635e-15
3.23031e-09
3.26485e-09
3.26482e-09
3.26478e-09
3.26474e-09
3.26469e-09
3.26464e-09
3.26459e-09
3.26454e-09
3.2645e-09
3.26447e-09
3.26446e-09
3.26448e-09
3.22997e-09
4.40179e-15
1.00002e-15
1e-15
1e-15
1e-15
4.9808e-15
3.79164e-09
3.83737e-09
3.83734e-09
3.83729e-09
3.83724e-09
3.83718e-09
3.83712e-09
3.83706e-09
3.837e-09
3.83694e-09
3.83689e-09
3.83686e-09
3.83685e-09
3.7911e-09
5.08101e-15
1e-15
1e-15
1e-15
1e-15
1.29306e-15
4.10838e-10
4.158e-10
4.1579e-10
4.15778e-10
4.15765e-10
4.15751e-10
4.15736e-10
4.1572e-10
4.15704e-10
4.15689e-10
4.15673e-10
4.15658e-10
4.15642e-10
4.10658e-10
1.3026e-15
1e-15
1e-15
1e-15
1e-15
1.37156e-15
4.88931e-10
4.94924e-10
4.94908e-10
4.94888e-10
4.94866e-10
4.94842e-10
4.94817e-10
4.94791e-10
4.94764e-10
4.94737e-10
4.94709e-10
4.94677e-10
4.94642e-10
4.886e-10
1.37047e-15
1e-15
1e-15
1e-15
1e-15
1.04132e-15
9.01054e-11
9.11818e-11
9.11786e-11
9.11746e-11
9.11701e-11
9.11653e-11
9.11601e-11
9.11546e-11
9.11489e-11
9.11429e-11
9.11363e-11
9.1129e-11
9.11205e-11
9.0033e-11
1.04233e-15
1e-15
1e-15
1e-15
1e-15
1.01119e-15
3.15944e-11
3.19508e-11
3.19484e-11
3.19456e-11
3.19424e-11
3.19389e-11
3.19353e-11
3.19315e-11
3.19275e-11
3.19234e-11
3.19191e-11
3.19147e-11
3.19098e-11
3.15473e-11
1.01115e-15
1e-15
1e-15
1e-15
1e-15
1.52546e-15
7.6125e-10
7.69701e-10
7.69687e-10
7.69668e-10
7.69648e-10
7.69624e-10
7.696e-10
7.69573e-10
7.69546e-10
7.69517e-10
7.69487e-10
7.69455e-10
7.69422e-10
7.60929e-10
1.53073e-15
1e-15
1e-15
1e-15
1e-15
1.20804e-15
3.54318e-10
3.57753e-10
3.57753e-10
3.57752e-10
3.57752e-10
3.5775e-10
3.57749e-10
3.57746e-10
3.57744e-10
3.57741e-10
3.57738e-10
3.57734e-10
3.5773e-10
3.54292e-10
1.20371e-15
1e-15
1e-15
1e-15
1e-15
7.32076e-15
6.38161e-09
6.4411e-09
6.44109e-09
6.44107e-09
6.44105e-09
6.44102e-09
6.44099e-09
6.44096e-09
6.44093e-09
6.44089e-09
6.44085e-09
6.44081e-09
6.44078e-09
6.38125e-09
7.34107e-15
1e-15
1e-15
1e-15
1e-15
5.80031e-15
4.94358e-09
4.98208e-09
4.9821e-09
4.98211e-09
4.98213e-09
4.98214e-09
4.98216e-09
4.98217e-09
4.98218e-09
4.98219e-09
4.9822e-09
4.98221e-09
4.98222e-09
4.94374e-09
5.63871e-15
1e-15
1e-15
1e-15
1.00004e-15
4.83703e-14
3.60766e-08
3.63473e-08
3.63473e-08
3.63474e-08
3.63474e-08
3.63474e-08
3.63474e-08
3.63475e-08
3.63475e-08
3.63475e-08
3.63475e-08
3.63475e-08
3.63475e-08
3.60768e-08
4.80567e-14
1.00004e-15
1e-15
1.00003e-15
1.0159e-15
1.35775e-13
3.60414e-08
3.62758e-08
3.62882e-08
3.62883e-08
3.62884e-08
3.62884e-08
3.62885e-08
3.62792e-08
3.62885e-08
3.62886e-08
3.62888e-08
3.62888e-08
3.62766e-08
3.60423e-08
1.33881e-13
1.01588e-15
1.00003e-15
1.38696e-14
1.41173e-13
2.16833e-08
2.99623e-08
2.79685e-08
2.40338e-08
2.40328e-08
2.40318e-08
2.40306e-08
2.40294e-08
2.69094e-08
2.40243e-08
2.40228e-08
2.40215e-08
2.40202e-08
2.79489e-08
2.99404e-08
2.16672e-08
1.40711e-13
1.38662e-14
4.40255e-11
1.33627e-08
1.46158e-07
1.75936e-07
1.56631e-07
1.56525e-07
1.56519e-07
1.56512e-07
1.56505e-07
1.56498e-07
1.56562e-07
1.56483e-07
1.56475e-07
1.56468e-07
1.5646e-07
1.56554e-07
1.75834e-07
1.46061e-07
1.33402e-08
4.40128e-11
1.97326e-05
3.18601e-05
3.99451e-05
3.99911e-05
3.9991e-05
3.99911e-05
3.99912e-05
3.99912e-05
3.99912e-05
3.99913e-05
3.99913e-05
3.99913e-05
3.99913e-05
3.99913e-05
3.99913e-05
3.99912e-05
3.99912e-05
3.99448e-05
3.18591e-05
1.97296e-05
3.42604e-07
2.74402e-06
3.83261e-06
3.83496e-06
3.83508e-06
3.83517e-06
3.83526e-06
3.83537e-06
3.83549e-06
3.83561e-06
3.83573e-06
3.83585e-06
3.83597e-06
3.83608e-06
3.83619e-06
3.83628e-06
3.83631e-06
3.8341e-06
2.74539e-06
3.42564e-07
4.14666e-10
9.94239e-09
3.53469e-08
4.21639e-08
3.61799e-08
3.61793e-08
3.61787e-08
3.61781e-08
3.61774e-08
3.61767e-08
3.61761e-08
3.61754e-08
3.61748e-08
3.61742e-08
3.61736e-08
3.61731e-08
4.21544e-08
3.53381e-08
9.93948e-09
4.14623e-10
2.97835e-13
1.34552e-11
4.97712e-11
6.31961e-09
4.95894e-09
4.95881e-09
4.9587e-09
4.95858e-09
4.95847e-09
4.95834e-09
4.95822e-09
4.95811e-09
4.958e-09
4.95789e-09
4.95779e-09
4.95772e-09
6.31751e-09
4.9759e-11
1.34502e-11
2.97819e-13
1.22634e-15
1.69373e-14
7.31147e-14
1.19113e-08
1.20157e-08
1.20156e-08
1.20155e-08
1.20155e-08
1.20154e-08
1.20153e-08
1.20152e-08
1.20151e-08
1.20151e-08
1.2015e-08
1.2015e-08
1.20151e-08
1.19107e-08
7.3626e-14
1.69306e-14
1.22633e-15
1.0002e-15
1.0198e-15
1.69103e-14
1.26908e-08
1.2824e-08
1.28239e-08
1.28238e-08
1.28237e-08
1.28236e-08
1.28235e-08
1.28234e-08
1.28233e-08
1.28232e-08
1.28232e-08
1.28232e-08
1.28233e-08
1.26902e-08
1.79269e-14
1.01979e-15
1.0002e-15
1e-15
1.00003e-15
4.43981e-15
3.45233e-09
3.48975e-09
3.48974e-09
3.48972e-09
3.48969e-09
3.48966e-09
3.48963e-09
3.4896e-09
3.48957e-09
3.48955e-09
3.48954e-09
3.48956e-09
3.4896e-09
3.45225e-09
4.60504e-15
1.00003e-15
1e-15
1e-15
1e-15
5.12503e-15
3.98584e-09
4.0329e-09
4.03287e-09
4.03283e-09
4.0328e-09
4.03274e-09
4.03269e-09
4.03263e-09
4.03257e-09
4.03252e-09
4.03249e-09
4.03246e-09
4.03247e-09
3.98542e-09
5.2527e-15
1e-15
1e-15
1e-15
1e-15
1.35407e-15
5.05291e-10
5.1123e-10
5.11218e-10
5.11203e-10
5.11187e-10
5.11169e-10
5.1115e-10
5.1113e-10
5.11109e-10
5.11088e-10
5.11066e-10
5.11043e-10
5.11019e-10
5.0505e-10
1.3657e-15
1e-15
1e-15
1e-15
1e-15
1.46222e-15
6.10084e-10
6.17191e-10
6.17167e-10
6.1714e-10
6.17108e-10
6.17074e-10
6.17035e-10
6.16997e-10
6.16953e-10
6.16908e-10
6.16855e-10
6.16798e-10
6.1673e-10
6.09536e-10
1.46036e-15
1e-15
1e-15
1e-15
1e-15
1.07753e-15
1.58854e-10