/*--------------------------------*- C++ -*----------------------------------*\
| =========                 |                                                 |
| \\      /  F ield         | OpenFOAM: The Open Source CFD Toolbox           |
|  \\    /   O peration     | Version:  2212                                  |
|   \\  /    A nd           | Website:  www.openfoam.com                      |
|    \\/     M anipulation  |                                                 |
\*---------------------------------------------------------------------------*/
FoamFile
{
    version     2.0;
    format      ascii;
    arch        "LSB;label=32;scalar=64";
    class       volScalarField;
    location    "0.0064";
    object      p;
}
// * * * * * * * * * * * * * * * * * * * * * * * * * * * * * * * * * * * * * //

dimensions      [1 -1 -2 0 0 0 0];

internalField   nonuniform List<scalar> 
2308
(
574.852
577.598
565.037
599.379
584.225
589.873
589.822
586.868
581.1
589.773
589.088
587.919
586.524
584.585
582.533
580.82
579.976
580.061
579.841
580.804
582.666
584.975
587.111
588.721
589.717
590.515
591.334
592.288
589.867
580.285
593.394
594.394
595.259
596.115
597.327
598.726
599.808
599.895
598.586
595.974
592.997
591.3
592.526
596.386
601.046
596.813
592.745
590.173
590.009
592.053
594.846
597.256
598.721
599.279
599.12
598.643
597.943
596.814
595.303
593.485
591.618
589.939
588.66
588.028
587.635
587.159
586.199
584.612
582.748
581.254
580.572
602.716
600.086
580.168
581.251
583.208
585.538
587.648
589.175
590.144
590.854
591.458
592.04
592.498
592.791
593.149
594.12
595.922
598.374
600.638
601.628
600.749
598.251
595.404
594.158
596.192
600.494
604.897
581.278
603.807
581.61
581.05
596.199
593.156
590.515
589.569
590.547
592.796
594.959
596.75
598.139
599.084
599.696
599.839
599.201
597.661
595.333
592.569
589.987
588.057
586.848
586.601
586.697
586.707
586.162
584.942
583.434
582.184
581.683
584.27
590.4
590.301
590.511
581.488
581.017
582.165
584.095
586.245
588.032
589.243
589.972
590.449
590.813
591.005
590.947
590.739
590.899
592.024
594.467
598.063
601.645
603.741
603.535
601.322
598.777
597.906
600.262
604.183
607.773
603.768
595.6
598.707
601.396
601.275
585.466
598.205
581.086
578.623
582.537
576.976
586.546
583.521
582.306
581.171
585.665
590.654
594.062
595.01
592.898
593.707
592.341
590.806
590.152
591.18
593.051
594.779
595.973
596.972
598.088
599.305
600.374
600.781
599.9
597.607
594.183
590.436
587.354
585.447
584.646
584.922
585.764
586.402
586.439
585.74
584.629
583.635
583.332
586.276
573.748
586.884
586.563
589.083
589.905
588.986
586.883
584.505
582.755
582.379
583.463
585.217
586.958
588.229
588.95
589.299
589.493
589.609
589.502
589.105
588.595
588.642
590.06
593.147
597.795
602.662
605.885
606.449
604.62
602.383
601.774
604.144
607.18
609.447
602.983
593.675
578.615
576.714
578.585
576.761
604.828
563.689
577.636
583.873
586.041
589.12
589.622
589.541
590.266
592.116
594.78
596.613
597.491
597.557
597.709
598.559
599.926
601.186
601.437
599.857
596.397
591.766
587.326
584.221
582.532
582.219
583.245
584.899
586.305
587.014
586.921
586.263
585.576
585.474
584.002
575.389
577.382
586.057
588.9
590.163
589.669
587.958
585.972
584.549
584.295
585.184
586.52
587.638
588.213
588.327
588.236
588.152
588.068
587.789
587.202
586.558
586.671
588.424
592.094
597.579
603.458
607.615
608.856
607.449
605.554
605.2
607.425
609.939
610.468
602.852
592.874
578
568.806
568.322
569.998
574.05
579.344
585.435
590.432
591.595
589.085
574.853
564.158
607.203
575.718
573.442
608.63
586.111
585.462
573.633
573.909
572.556
588.733
585.911
588.896
590.595
590.661
589.465
587.943
586.819
586.572
587.132
587.848
588.173
587.96
587.45
586.892
586.562
586.375
586.059
585.466
584.89
585.235
587.292
591.368
597.371
603.806
608.461
610.138
609.205
607.863
608.008
610.239
612.516
611.619
603.612
593.336
578.819
570.499
570.63
568.841
567.618
567.452
569.236
573.498
579.733
585.905
589.332
588.861
585.689
585.358
585.326
586.896
588.715
591.993
595.911
599.314
600.522
600.35
599.358
598.862
599.542
600.909
602.052
601.646
598.85
593.97
588.335
583.66
580.799
579.453
579.871
581.725
584.163
586.366
587.808
588.34
588.208
587.87
587.951
573.726
587.329
587.355
588.664
572.674
572.987
574.068
575.364
575.98
582.176
581.507
585.309
588.797
591.118
591.892
591.341
590.324
589.449
589.066
589.105
589.045
588.499
587.505
586.348
585.421
584.888
584.677
584.467
584.067
583.805
584.478
586.745
590.997
597.09
603.486
608.113
609.965
609.609
609.214
610.283
612.941
614.944
613.252
604.97
594.519
580.471
572.749
573.059
577.073
574.757
573.438
572.579
572.303
573.079
576.459
581.246
586.85
591.634
593.9
592.592
588.277
581.765
582.1
582.878
586.14
590.34
595.599
600.474
603.686
603.991
602.808
601.086
600.328
600.959
602.177
602.789
601.156
596.787
590.548
584.313
579.82
577.296
576.546
577.819
580.447
583.581
586.497
588.655
589.859
590.289
590.419
590.718
588.536
572.458
572.404
599.192
589.472
575.551
574.365
573.475
589.278
589.313
588.576
588.886
572.313
572.843
571.873
571.974
572.193
572.691
573.405
574.656
577.003
580.004
583.699
586.694
587.52
585.796
582.973
579.815
583.574
578.997
580.546
583.02
587.607
593.948
600.259
604.387
606.995
606.315
604.471
602.594
602.026
602.683
603.563
603.065
599.755
593.737
586.444
580.112
576.086
573.988
574.054
576.152
579.448
583.163
586.636
589.417
591.32
592.41
593.073
593.673
591.241
584.243
571.92
590.806
564.65
584.456
588.646
591.717
593.32
593.546
593.036
592.317
591.618
590.952
590.001
588.562
586.822
585.161
583.913
583.262
583.127
583.166
583.156
583.375
584.388
586.796
590.971
596.645
602.349
606.485
608.369
608.813
609.686
611.996
615.339
617.245
614.938
606.37
595.788
582.254
575.246
576.238
581.121
572.07
571.575
571.682
574.045
590.287
572.508
590.543
577.59
580.808
578.87
581.695
585.733
591.337
598
604.435
607.034
608.556
607.225
605.267
603.866
603.814
604.492
604.687
602.608
597.441
589.931
582.097
576.125
572.66
571.15
572.081
574.891
578.729
582.868
586.76
590.062
592.608
594.386
595.647
596.718
594.188
586.684
571.932
593.863
591.692
593.905
597.73
603.428
609.242
614.412
617.62
617.936
617.713
620.574
625.595
624.126
615.389
605.542
597.052
581.28
573.583
573.872
574.297
574.932
589.869
589.287
576.932
599.127
584.017
588.651
592.429
594.966
596.043
595.999
595.259
594.067
592.529
590.633
588.381
586.022
583.943
582.463
581.774
581.83
582.233
582.767
583.536
584.929
587.441
591.291
595.996
600.531
603.779
605.58
606.952
609.292
612.958
617.053
618.981
616.153
607.287
596.712
584.238
578.249
579.934
586.35
573.378
597.128
571.015
591.789
590.677
571.192
571.539
571.288
588.783
573.353
576.86
590.343
591.328
597.34
590.183
572.416
581.893
568.721
592.399
576.915
581.365
581.202
585.749
590.014
595.817
601.645
607.175
608.039
608.359
606.876
605.391
604.903
605.445
606.03
605.14
601.251
594.304
585.726
577.906
572.615
569.714
568.943
570.646
574.021
578.258
582.696
586.879
590.576
593.643
596.116
598.207
599.652
600.275
583.846
576.493
575.939
547.212
552.365
556.835
556.756
554.749
551.944
550.015
549.802
552.018
554.186
559.561
564.76
567.056
573.905
582.173
585.955
583.662
578.998
589.24
574.977
575.096
575.181
575.209
575.416
563.584
572.886
579.555
583.841
588.831
593.326
596.843
598.742
599.043
598.126
596.205
593.748
590.952
588.009
585.169
582.767
581.128
580.491
580.838
581.7
582.864
584.27
586.047
588.492
591.615
595.074
598.211
600.542
602.283
604.434
607.962
612.803
617.487
619.549
616.518
607.718
597.541
586.78
582.188
583.815
590.836
575.89
597.8
545.716
578.47
594.224
574.725
571.669
571.241
571.257
592.258
571.873
571.293
571.51
569.031
576.177
563.655
589.381
602.435
586.119
574.026
570.905
603.358
602.456
600.426
597.652
594.414
590.91
586.982
582.602
578.003
573.516
569.738
567.418
567.406
569.728
574.21
581.536
590.596
598.985
604.628
606.865
606.661
605.667
605.164
605.764
607.027
607.684
608.156
604.298
600.125
594.516
590.996
585.314
584.678
577.8
591.89
569.712
568.395
601.85
604.67
607.831
607.177
611.672
618.575
630.735
642.449
653.51
659.388
654.96
639.613
627.252
638.083
645.229
638.777
629.69
616.892
609.782
611.188
581.183
596.709
572.559
576.843
577.064
577.506
577.578
577.756
574.058
570.806
568.125
597.323
566.616
576.33
579.766
577.837
571.445
571.413
571.747
592.291
576.01
572.574
576.86
577.054
577.071
576.739
576.388
575.798
577.319
576.908
579.376
583.679
589.068
594.357
598.861
601.531
602.008
600.678
598.061
594.602
590.997
587.515
584.307
581.662
579.943
579.453
580.164
581.539
583.391
585.457
587.576
589.71
591.909
594.023
595.848
597.351
598.94
601.523
605.652
611.131
616.201
618.702
616.157
608.132
598.915
590.109
586.751
587.415
593.066
578.919
593.909
549.296
599.452
574.519
574.377
574.206
563.796
576.253
593.906
563.843
576.089
565.24
571.804
572.112
571.677
572.83
572.073
571.829
568.239
573.141
566.079
567.633
573.823
578.769
578.638
570.532
573.941
577.759
606.038
604.848
602.272
598.902
594.945
591.148
587.053
582.613
577.921
573.319
569.316
566.552
565.828
567.538
571.213
577.753
586.689
595.937
603.008
606.658
607.172
606.108
604.905
604.588
605.392
606.45
607.599
605.652
603.43
598.916
596.125
589.897
589.084
581.425
590.265
571.722
603.511
578.693
579.298
579.728
579.695
579.24
578.396
563.99
584.014
598.664
571.886
572.683
566.07
566.184
574.65
572.542
586.616
564.213
563.323
582.168
578.579
581.31
569.112
572.764
577.206
517.362
524.487
525.545
526.857
533.191
533.381
530.578
525.437
520.712
516.667
517.336
516.124
528.814
541.55
535.653
532.151
540.759
550.616
563.377
566.933
547.702
551.215
581.154
581.092
581.378
581.472
581.748
581.881
567.205
595.254
574.019
574.094
576.075
582.259
564.683
564.761
572.515
563.791
575.632
572.322
563.982
592.992
609.849
581.246
572.332
575.784
575.615
576.649
579.082
583.442
589.293
595.447
600.918
604.26
604.752
602.873
599.539
595.133
590.898
586.949
583.462
580.651
578.931
578.681
579.78
581.683
584.244
586.934
589.234
590.932
592.132
593.013
593.77
594.591
595.893
598.358
602.408
607.807
613.078
616.102
615.391
609.149
601.431
594.173
591.151
590.122
592.715
580.612
586.556
555.611
591.184
525.299
601.036
568.888
608.966
571.9
566.064
573.535
572.694
575.555
588.565
565.877
581.663
580.136
580.307
581.598
582.486
583.005
582.797
581.914
580.35
578.26
575.592
575.719
577.506
578.775
588.485
576.098
602.791
607.509
608.575
606.952
603.751
599.868
595.452
591.284
587.134
582.66
577.98
573.387
569.281
566.216
564.924
566.019
568.994
574.608
583.009
592.43
600.386
605.253
606.825
606.158
604.779
603.884
604.172
605.208
606.452
605.976
605.4
602.233
600.175
594.572
594.142
586.833
592.698
576.355
601.844
556.88
570.268
573.843
577.874
582.199
564.95
608.059
581.792
581.859
581.232
571.804
577.646
574.857
584.473
578.731
593.892
595.809
572.766
572.783
576.021
574.772
564.499
564.526
575.204
573.233
587.673
563.884
588.342
564.717
566.695
574.687
573.089
563.957
591.228
585.149
576.799
578.934
565.481
564.167
563.734
576.252
578.058
585.707
585.621
585.468
585.403
585.565
585.672
585.984
586.217
586.712
576.101
593.194
572.951
573.005
563.778
563.911
573.948
575.499
575.159
576.141
578.58
583.068
589.427
596.46
602.82
606.739
607.136
604.675
600.629
595.564
590.678
586.401
582.676
579.761
578.124
578.166
579.63
582.054
585.274
588.466
590.827
592.04
592.308
592.191
592.161
592.4
593.287
595.196
598.47
603.234
608.609
612.673
614.131
610.95
605.128
598.571
594.584
591.136
590.117
579.969
580.768
560.384
592.971
535.378
704.554
685.832
662.999
647.103
653.254
667.454
674.013
675.544
683.011
701.961
711.365
718.637
719.701
709.142
695.815
665.905
678.414
671.833
669.498
668.87
665.577
658.272
652.983
644.062
633.47
574.155
563.797
572.824
573.403
574.628
579.861
586.06
576.912
589.449
591.438
582.529
584.547
585.859
586.506
586.025
584.586
582.187
579.07
575.48
571.822
566.513
569.982
568.716
595.434
572.332
575.623
564.466
574.563
585.949
564.464
567.538
569.596
573.891
564.837
588.666
564.352
575.234
574.372
578.334
581.551
583.841
585.058
585.037
583.519
579.023
581.453
576.97
567.12
570.129
573.777
577.906
582.381
587.06
578.835
590.419
611.434
573.413
591.533
590.834
590.324
590.172
590.004
589.935
590.01
590.128
590.439
590.74
591.31
591.83
565.428
563.872
579.629
573.465
589.885
609.914
580.143
577.122
575.264
574.57
575.433
577.886
582.509
589.351
597.171
604.374
608.785
609.059
606.074
601.437
596.012
590.504
585.929
581.976
579.035
577.552
577.869
579.635
582.539
586.306
589.867
592.21
592.969
592.464
591.633
590.978
590.786
591.191
592.272
594.407
598.148
603.5
609.05
612.924
613.153
609.433
602.627
596.332
590.209
586.413
578.546
578.2
567.063
600.44
552.094
710.44
474.815
489.448
485.315
489.095
494.613
488.157
485.346
483.259
495.176
482.02
452.677
441.931
438.783
431.59
438.309
444.208
463.664
459.056
465.412
492.927
502.228
496.083
493.364
492.449
498.563
506.225
542.477
627.472
565.192
604.123
582.308
597.03
591.994
598.638
598.453
602.787
603.927
606.093
605.78
605.645
604.568
603.8
603.816
604.759
605.79
605.572
602.903
597.188
588.926
579.834
572.2
567.477
565.049
564.532
566.267
569.532
573.654
578.144
582.732
587.205
591.405
595.991
600.603
604.895
608.563
610.532
609.15
603.448
596.33
588.111
581.244
570.325
575.186
575.856
574.192
576.236
587.008
580.997
573.485
565.077
592.533
588.224
573.13
574.132
574.518
574.265
563.767
563.717
573.64
565.847
570.824
572.886
567.802
573.518
574.335
564.032
566.963
568.874
587.098
564.945
573.991
570.502
568.211
573.622
573.634
563.755
574.361
573.127
590.912
567.024
570.329
574.784
579.51
583.767
586.937
589.027
589.841
589.159
587.358
584.742
573.633
574.41
590.154
584.273
586.822
588.308
588.162
586.281
583.149
578.857
573.789
574.169
581.619
564.147
566.121
569.087
572.725
589.819
568.299
575.995
569.304
577.041
564.625
575.157
566.88
569.974
573.709
578.019
582.806
587.784
592.662
578.167
579.67
573.684
572.895
573.735
576.261
581.011
587.974
596.556
604.878
610.692
612.017
609.748
605.77
601.229
596.514
591.599
587.262
582.811
578.383
574.023
569.931
566.535
564.471
564.483
566.499
570.503
577.313
585.84
593.989
600.166
603.788
604.992
604.796
604.291
604.232
604.683
605.5
605.535
606.079
604.352
604.082
600.875
601.842
596.097
600.968
587.449
605.581
574.576
620.252
546.006
573.273
573.601
805.172
826.754
801.631
775.36
758.944
754.481
748.559
763.812
775.233
797.803
823.325
852.311
877.053
891.215
893.175
880.029
853.931
815.461
798.618
784.767
768.539
758.494
748.995
739.487
725.89
711.452
697.364
691.097
565.038
596.161
595.497
594.991
594.729
594.53
594.437
594.457
594.561
594.853
595.189
595.737
596.37
597.221
581.49
586.268
591.728
597.025
580.057
577.093
574.797
573.821
574.565
577.056
581.812
588.996
597.489
605.413
610.321
610.446
607.075
602.1
596.513
590.494
585.576
581.406
578.525
577.207
577.727
579.73
583.026
587.203
590.969
593.271
593.706
592.656
591.275
590.185
589.687
589.65
589.831
590.768
593.457
598.675
605.708
612.185
615.397
613.09
605.406
596.708
588.188
582.959
578.076
579.405
576.172
609.028
562.136
695.032
459.423
779.379
566.388
571.442
564.147
564.008
575.373
573.677
588.706
583.415
572.375
573.493
583.237
572.991
583.441
583.102
586.626
589.411
590.921
590.619
588.303
584.186
578.944
573.387
573.288
581.066
563.728
563.927
566.138
569.538
586.574
565.259
568.673
574.002
579.446
584.564
588.826
591.569
592.541
591.695
589.503
586.376
574.237
574.409
564.145
571.918
568.906
571.509
573.526
578.134
575.256
572.939
572.077
572.816
575.418
580.295
587.564
596.45
605.338
611.682
612.933
610.595
606.473
601.686
596.896
592.116
587.225
582.92
578.665
574.427
570.361
566.87
564.566
564.175
565.871
569.387
575.5
583.428
591.323
597.788
602.091
604.085
604.844
604.989
605.087
605.347
605.671
605.588
605.957
604.132
604.623
601.968
603.654
598.66
603.827
590.406
607.955
574.023
623.635
513.536
635.858
564.203
566.559
569.83
573.549
577.933
582.794
587.992
593.39
598.193
579.73
564.925
573.019
566.999
565.283
577.182
584.504
580.081
585.555
591.26
596.788
578.006
564.286
601.112
600.356
599.661
599.15
598.823
598.614
598.508
598.499
598.586
598.84
599.168
599.726
600.416
601.388
602.741
607.538
37.1446
38.9844
40.1216
41.5116
41.3794
42.6171
44.8356
44.183
40.7384
36.8702
35.5078
37.5763
39.8823
42.8441
43.4867
42.3417
40.4825
37.6801
34.7636
33.7655
32.8238
32.546
32.6089
33.2117
33.7321
33.7323
31.3879
30.8387
29.4337
38.8745
579.853
576.688
574.214
573.063
573.682
576.216
581.059
588.403
597.349
606.007
611.268
611.302
607.845
602.64
596.882
591.008
585.234
581.054
578.239
577.031
577.631
579.812
583.367
587.74
591.631
593.998
594.279
592.849
591.069
589.663
589.053
588.692
588.099
588.015
589.958
595.053
603.181
611.964
616.864
615.121
606.969
596.763
586.459
580.973
578.75
582.745
585.297
619.191
574.768
658.133
496.632
733.463
51.23
572.305
569.621
565.298
575.563
582.298
518.472
510.764
581.529
578.238
86.484
2638.29
2624.03
2371.76
2576.15
2476.45
2563.85
2538.92
2535.5
2539.73
2466.57
2511.09
2409.96
2412.76
2409.98
2415.86
2407.56
2405.01
2427.22
2396.02
2483.28
2499.17
2462.37
2444.01
2464.37
2467.51
2376.85
2451.79
2356.08
2272.99
620.374
100.749
2337.29
2222.18
617.513
534.597
630.661
573.239
586.029
589.113
580.278
579.54
597.053
586.007
616.194
608.062
611.572
617.391
593.146
601.819
586.588
588.063
588.221
587.263
589.39
588.789
593.047
590.864
594.504
594.592
587.874
591.851
579.79
583.451
577.035
577.561
580.968
578.308
591.42
585.351
603.349
597.436
611.68
608.581
605.751
611.304
587.682
596.874
575.545
580.401
572.54
573.043
576.308
573.774
583.459
579.717
590.675
587.26
594.387
593.257
590.727
593.622
580.184
585.995
568.17
573.921
563.167
564.569
566.129
563.454
572.919
569.84
583.453
577.726
595.786
589.69
606.804
607.05
607.463
606.135
606.506
605.686
605.857
605.535
605.57
605.619
605.552
605.929
605.747
606.54
606.18
605.728
607.092
603.648
603.318
608.942
610.81
601.942
606.134
590.028
596.315
578.082
583.763
570.228
573.331
563.807
566.354
564.778
563.304
574.111
568.186
585.936
580.287
592.528
590.263
590.967
592.629
584.557
588.084
577.387
580.956
572.343
574.441
572.273
571.501
579.767
574.908
596.14
586.971
611.734
605.207
611.259
613.276
602.34
607.198
592.437
597.338
583.059
587.45
574.879
579.056
567.196
570.792
564.016
564.697
568.763
565.478
581.91
574.462
596.322
589.735
603.437
600.751
605.477
604.869
605.92
605.739
605.862
606.011
604.096
605.886
602.124
604.989
599.854
604.406
592.572
605.619
577.888
609.214
614.899
609.174
610.851
567.709
589.626
2219.95
571.632
2144.53
568.932
611.472
611.742
611.727
611.919
611.923
611.978
611.977
591.261
566.082
567.752
570.395
570.335
583.593
586.204
583.251
575.841
581.443
578.51
573.877
578.552
575.991
572.405
575.995
573.913
571.574
573.959
572.458
566.388
579.33
610.698
577.275
601.874
584.303
575.666
568.223
578.899
576.525
578.651
588.862
580.258
565.338
577.356
588.343
575.337
576.655
573.423
577.613
586.341
582.919
563.767
589.887
606.024
588.536
574.075
590.955
590.147
587.686
574.913
610.807
571.013
574.474
582.618
580.697
566.413
587.42
566.05
578.176
604.261
594.909
600.32
602.327
581.51
583.356
566.96
576.643
572.332
587.938
588.347
590.454
577.365
)
;

boundaryField
{
    wall
    {
        type            zeroGradient;
    }
    outlet
    {
        type            fixedValue;
        value           uniform 1e-05;
    }
    inlet
    {
        type            fixedValue;
        value           uniform 612;
    }
    frontAndBackPlanes
    {
        type            empty;
    }
}


// ************************************************************************* //
