/*--------------------------------*- C++ -*----------------------------------*\
| =========                 |                                                 |
| \\      /  F ield         | OpenFOAM: The Open Source CFD Toolbox           |
|  \\    /   O peration     | Version:  2212                                  |
|   \\  /    A nd           | Website:  www.openfoam.com                      |
|    \\/     M anipulation  |                                                 |
\*---------------------------------------------------------------------------*/
FoamFile
{
    version     2.0;
    format      ascii;
    arch        "LSB;label=32;scalar=64";
    class       volScalarField;
    location    "0.1559";
    object      s;
}
// * * * * * * * * * * * * * * * * * * * * * * * * * * * * * * * * * * * * * //

dimensions      [0 0 0 0 0 0 0];

internalField   nonuniform List<scalar> 
24240
(
1.57388e-104
1.55576e-104
1.58422e-104
1.52527e-104
1.56528e-104
1.5586e-104
1.56136e-104
1.51716e-104
1.53089e-104
1.57267e-104
1.53219e-104
1.58361e-104
1.52685e-104
1.5681e-104
1.51534e-104
1.58313e-104
1.51161e-104
1.53506e-104
1.55338e-104
1.49698e-104
1.31274e-101
1.29731e-101
1.32081e-101
1.27222e-101
1.30506e-101
1.29983e-101
1.30205e-101
1.26514e-101
1.27673e-101
1.31137e-101
1.27801e-101
1.32039e-101
1.27364e-101
1.3078e-101
1.26408e-101
1.32028e-101
1.26095e-101
1.28031e-101
1.29534e-101
1.2488e-101
6.10845e-99
6.03516e-99
6.14347e-99
5.92001e-99
6.0703e-99
6.04762e-99
6.05748e-99
5.88554e-99
5.94005e-99
6.10038e-99
5.94696e-99
6.14184e-99
5.9271e-99
6.08496e-99
5.88278e-99
6.14271e-99
5.86801e-99
5.95733e-99
6.02599e-99
5.81169e-99
1.61284e-96
1.59308e-96
1.62141e-96
1.56311e-96
1.60214e-96
1.5966e-96
1.59906e-96
1.55361e-96
1.56814e-96
1.61029e-96
1.57022e-96
1.62109e-96
1.56512e-96
1.60653e-96
1.55347e-96
1.62169e-96
1.54948e-96
1.57289e-96
1.59069e-96
1.53466e-96
3.11842e-94
3.07937e-94
3.1337e-94
3.02228e-94
3.09647e-94
3.08666e-94
3.09108e-94
3.0031e-94
3.03135e-94
3.11265e-94
3.03593e-94
3.1332e-94
3.02636e-94
3.10598e-94
3.00397e-94
3.1351e-94
2.99594e-94
3.04103e-94
3.07478e-94
2.96732e-94
4.15872e-92
4.10541e-92
4.17742e-92
4.03049e-92
4.12783e-92
4.11599e-92
4.12132e-92
4.00381e-92
4.04158e-92
4.15005e-92
4.0485e-92
4.17696e-92
4.03626e-92
4.14195e-92
4.00664e-92
4.18052e-92
3.9952e-92
4.05533e-92
4.09948e-92
3.95689e-92
3.94435e-90
3.89235e-90
3.96057e-90
3.82252e-90
3.91347e-90
3.90349e-90
3.90777e-90
3.79604e-90
3.83161e-90
3.93523e-90
3.83916e-90
3.96018e-90
3.82823e-90
3.92828e-90
3.80054e-90
3.96461e-90
3.78832e-90
3.84591e-90
3.88706e-90
3.75153e-90
2.48226e-88
2.44842e-88
2.49149e-88
2.40532e-88
2.46179e-88
2.45631e-88
2.45839e-88
2.38783e-88
2.40979e-88
2.47596e-88
2.41538e-88
2.49124e-88
2.40908e-88
2.47209e-88
2.39202e-88
2.4948e-88
2.38297e-88
2.42003e-88
2.44551e-88
2.35933e-88
4.07947e-87
4.02904e-87
4.08817e-87
3.95679e-87
4.04374e-87
4.0341e-87
4.04269e-87
3.9301e-87
3.97349e-87
4.06435e-87
3.97883e-87
4.09138e-87
3.96423e-87
4.06041e-87
3.93154e-87
4.09582e-87
3.9336e-87
3.97961e-87
4.01597e-87
3.90097e-87
3.30772e-87
3.31392e-87
3.30083e-87
3.24203e-87
3.28926e-87
3.27232e-87
3.31487e-87
3.24072e-87
3.32161e-87
3.28214e-87
3.29379e-87
3.3217e-87
3.25039e-87
3.28455e-87
3.1957e-87
3.29353e-87
3.29192e-87
3.24787e-87
3.25511e-87
3.29615e-87
4.90981e-87
4.97355e-87
4.99637e-87
4.93159e-87
4.89426e-87
4.92988e-87
5.01035e-87
4.89279e-87
5.04514e-87
5.01161e-87
5.01508e-87
5.02671e-87
4.95742e-87
4.90085e-87
4.85805e-87
4.93644e-87
4.90509e-87
4.89563e-87
4.93389e-87
4.96855e-87
5.81175e-87
5.86547e-87
5.88682e-87
5.80656e-87
5.76459e-87
5.64687e-87
5.77589e-87
5.65828e-87
5.84037e-87
5.99612e-87
5.94823e-87
5.76228e-87
5.92849e-87
5.83061e-87
5.82585e-87
5.86797e-87
5.61256e-87
5.85472e-87
5.74324e-87
5.7705e-87
6.59597e-87
6.76298e-87
6.71021e-87
6.65619e-87
6.6951e-87
6.75547e-87
6.96587e-87
6.67686e-87
6.71716e-87
6.64483e-87
6.67379e-87
6.67244e-87
6.71694e-87
6.68664e-87
6.56154e-87
6.68107e-87
6.7301e-87
6.60491e-87
6.57338e-87
6.6058e-87
7.32217e-87
7.34895e-87
7.42733e-87
7.54403e-87
7.46236e-87
7.56705e-87
7.43078e-87
7.54826e-87
7.47722e-87
7.16438e-87
7.28027e-87
7.28005e-87
7.34701e-87
7.1959e-87
7.18642e-87
7.24261e-87
7.22513e-87
7.35237e-87
7.28125e-87
7.42864e-87
7.44691e-87
7.47133e-87
7.60293e-87
7.54713e-87
7.45328e-87
7.54045e-87
7.56748e-87
7.67374e-87
7.44872e-87
7.56648e-87
7.52653e-87
7.53427e-87
7.62819e-87
7.5342e-87
7.47236e-87
7.7431e-87
7.49572e-87
7.41645e-87
7.51494e-87
7.58364e-87
7.63305e-87
7.47672e-87
7.57834e-87
7.49285e-87
7.60911e-87
7.66031e-87
7.69499e-87
7.61443e-87
7.42342e-87
7.49158e-87
7.43585e-87
7.70056e-87
7.62402e-87
7.75912e-87
7.71812e-87
7.72686e-87
7.64172e-87
7.63156e-87
7.53852e-87
7.58157e-87
6.94509e-87
7.02863e-87
6.9533e-87
7.23591e-87
7.02979e-87
7.20454e-87
7.06746e-87
7.12431e-87
7.0306e-87
7.05123e-87
7.0377e-87
7.17749e-87
7.06062e-87
7.26845e-87
6.99917e-87
7.17192e-87
7.13384e-87
6.89413e-87
7.15995e-87
7.14154e-87
6.34843e-87
6.6398e-87
6.52742e-87
6.49917e-87
6.40193e-87
6.72586e-87
6.616e-87
6.6145e-87
6.56946e-87
6.43263e-87
6.57122e-87
6.70079e-87
6.51676e-87
6.84791e-87
6.562e-87
6.68881e-87
6.75525e-87
6.57501e-87
6.7229e-87
6.72997e-87
5.69288e-87
5.67847e-87
5.63714e-87
5.74057e-87
5.81951e-87
5.79432e-87
5.68665e-87
5.67009e-87
5.84961e-87
5.64465e-87
5.79845e-87
5.80011e-87
5.67291e-87
5.85851e-87
5.84257e-87
5.94817e-87
5.75208e-87
5.88958e-87
5.80888e-87
5.97907e-87
4.22006e-87
4.25532e-87
4.22495e-87
4.1966e-87
4.29276e-87
4.24955e-87
4.3215e-87
4.25029e-87
4.32073e-87
4.35049e-87
4.26731e-87
4.3844e-87
4.2478e-87
4.41632e-87
4.26037e-87
4.25752e-87
4.31718e-87
4.38526e-87
4.30841e-87
4.43983e-87
7.2838e-103
7.19862e-103
7.32871e-103
7.05926e-103
7.24131e-103
7.21221e-103
7.22484e-103
7.0202e-103
7.08472e-103
7.27637e-103
7.09158e-103
7.32651e-103
7.06712e-103
7.25627e-103
7.01377e-103
7.32556e-103
6.99704e-103
7.10392e-103
7.18725e-103
6.9299e-103
6.49909e-100
6.42158e-100
6.53647e-100
6.29894e-100
6.45868e-100
6.43447e-100
6.4453e-100
6.26253e-100
6.32078e-100
6.49076e-100
6.32789e-100
6.53498e-100
6.30653e-100
6.47408e-100
6.25908e-100
6.53559e-100
6.24407e-100
6.3385e-100
6.4115e-100
6.18444e-100
3.12397e-97
3.08596e-97
3.14062e-97
3.02784e-97
3.10331e-97
3.09254e-97
3.0975e-97
3.00957e-97
3.03786e-97
3.11912e-97
3.04175e-97
3.1401e-97
3.03173e-97
3.1117e-97
3.00899e-97
3.14109e-97
3.00169e-97
3.04668e-97
3.0811e-97
2.97315e-97
8.55298e-95
8.44685e-95
8.59497e-95
8.29003e-95
8.49307e-95
8.46603e-95
8.47884e-95
8.2379e-95
8.31605e-95
8.53752e-95
8.32808e-95
8.59412e-95
8.30136e-95
8.51885e-95
8.23934e-95
8.59881e-95
8.21896e-95
8.34123e-95
8.43359e-95
8.14113e-95
1.66835e-92
1.64722e-92
1.67584e-92
1.61709e-92
1.656e-92
1.65122e-92
1.65354e-92
1.6065e-92
1.62184e-92
1.66491e-92
1.62447e-92
1.67577e-92
1.61942e-92
1.66159e-92
1.60738e-92
1.67707e-92
1.60327e-92
1.627e-92
1.64464e-92
1.58812e-92
2.25229e-90
2.22314e-90
2.26147e-90
2.18311e-90
2.23473e-90
2.22896e-90
2.23181e-90
2.16823e-90
2.18901e-90
2.24711e-90
2.19298e-90
2.26151e-90
2.18644e-90
2.24307e-90
2.17029e-90
2.26381e-90
2.16441e-90
2.19639e-90
2.21971e-90
2.1439e-90
2.10216e-88
2.07426e-88
2.10988e-88
2.03755e-88
2.08494e-88
2.08022e-88
2.08251e-88
2.02307e-88
2.04239e-88
2.09685e-88
2.04658e-88
2.10999e-88
2.04079e-88
2.09347e-88
2.02588e-88
2.11267e-88
2.01982e-88
2.04985e-88
2.07116e-88
2.0005e-88
1.3095e-86
1.29163e-86
1.31376e-86
1.26918e-86
1.29824e-86
1.29571e-86
1.29687e-86
1.25977e-86
1.27166e-86
1.30589e-86
1.27465e-86
1.31387e-86
1.2713e-86
1.30406e-86
1.26214e-86
1.31591e-86
1.25785e-86
1.27682e-86
1.28982e-86
1.24564e-86
2.11736e-85
2.09083e-85
2.12123e-85
2.05397e-85
2.09814e-85
2.09388e-85
2.0981e-85
2.03965e-85
2.06227e-85
2.10935e-85
2.06535e-85
2.12309e-85
2.058e-85
2.10754e-85
2.04107e-85
2.12575e-85
2.04188e-85
2.06569e-85
2.08411e-85
2.02501e-85
1.69946e-85
1.7025e-85
1.69609e-85
1.66618e-85
1.6899e-85
1.68181e-85
1.70336e-85
1.6651e-85
1.70695e-85
1.6865e-85
1.69273e-85
1.70658e-85
1.67049e-85
1.6878e-85
1.6426e-85
1.69195e-85
1.69142e-85
1.66894e-85
1.6726e-85
1.69364e-85
2.52707e-85
2.55925e-85
2.57158e-85
2.53779e-85
2.51873e-85
2.53671e-85
2.57774e-85
2.51735e-85
2.59596e-85
2.57828e-85
2.58091e-85
2.58586e-85
2.55125e-85
2.52206e-85
2.50023e-85
2.53996e-85
2.52384e-85
2.51937e-85
2.53909e-85
2.55658e-85
2.97296e-85
3.00023e-85
3.01124e-85
2.96952e-85
2.94896e-85
2.88895e-85
2.95517e-85
2.89524e-85
2.98779e-85
3.06668e-85
3.04211e-85
2.94774e-85
3.03247e-85
2.98228e-85
2.97992e-85
3.00127e-85
2.87103e-85
2.99416e-85
2.93721e-85
2.95124e-85
3.37533e-85
3.45954e-85
3.43347e-85
3.40596e-85
3.42619e-85
3.45676e-85
3.56363e-85
3.41695e-85
3.43718e-85
3.39955e-85
3.41449e-85
3.41416e-85
3.43743e-85
3.42276e-85
3.35874e-85
3.41905e-85
3.44405e-85
3.38045e-85
3.36438e-85
3.3807e-85
3.70932e-85
3.72191e-85
3.76082e-85
3.82071e-85
3.77987e-85
3.83216e-85
3.76321e-85
3.82319e-85
3.7861e-85
3.62926e-85
3.68729e-85
3.68786e-85
3.72132e-85
3.64532e-85
3.63991e-85
3.66905e-85
3.65899e-85
3.7239e-85
3.68774e-85
3.76276e-85
3.77714e-85
3.78848e-85
3.85579e-85
3.8267e-85
3.77965e-85
3.82479e-85
3.8377e-85
3.89163e-85
3.77771e-85
3.8379e-85
3.81791e-85
3.82172e-85
3.86807e-85
3.82179e-85
3.79076e-85
3.92651e-85
3.80188e-85
3.76133e-85
3.81109e-85
3.84456e-85
3.81811e-85
3.73974e-85
3.78931e-85
3.74753e-85
3.80598e-85
3.83169e-85
3.8482e-85
3.80814e-85
3.71331e-85
3.74684e-85
3.71835e-85
3.85044e-85
3.81348e-85
3.8807e-85
3.86027e-85
3.86424e-85
3.82186e-85
3.81744e-85
3.77062e-85
3.79199e-85
3.48465e-85
3.52693e-85
3.48877e-85
3.6304e-85
3.52637e-85
3.61393e-85
3.54498e-85
3.57463e-85
3.52737e-85
3.53787e-85
3.53149e-85
3.60107e-85
3.54191e-85
3.6464e-85
3.51145e-85
3.59755e-85
3.57892e-85
3.45929e-85
3.59208e-85
3.58328e-85
3.14173e-85
3.28522e-85
3.2301e-85
3.21509e-85
3.16783e-85
3.32735e-85
3.27291e-85
3.27255e-85
3.25015e-85
3.1828e-85
3.25072e-85
3.31462e-85
3.22436e-85
3.38692e-85
3.24591e-85
3.30848e-85
3.34102e-85
3.25312e-85
3.32578e-85
3.32929e-85
2.83652e-85
2.8292e-85
2.80923e-85
2.86054e-85
2.89922e-85
2.88669e-85
2.83286e-85
2.82634e-85
2.9147e-85
2.81294e-85
2.889e-85
2.8902e-85
2.82595e-85
2.91904e-85
2.91078e-85
2.96386e-85
2.866e-85
2.93406e-85
2.89379e-85
2.97829e-85
2.09928e-85
2.11669e-85
2.10185e-85
2.08752e-85
2.13469e-85
2.11367e-85
2.14866e-85
2.11413e-85
2.14803e-85
2.16342e-85
2.12183e-85
2.17992e-85
2.11252e-85
2.19594e-85
2.11851e-85
2.11717e-85
2.14638e-85
2.18043e-85
2.14235e-85
2.20729e-85
4.1173e-101
4.06834e-101
4.14102e-101
3.99061e-101
4.09173e-101
4.07637e-101
4.08334e-101
3.96761e-101
4.00459e-101
4.11207e-101
4.00898e-101
4.1401e-101
3.99535e-101
4.10133e-101
3.96516e-101
4.14031e-101
3.95587e-101
4.01549e-101
4.06173e-101
3.91822e-101
3.63124e-98
3.58725e-98
3.65065e-98
3.51966e-98
3.60729e-98
3.59476e-98
3.60066e-98
3.49852e-98
3.5315e-98
3.62572e-98
3.53592e-98
3.65014e-98
3.52417e-98
3.61695e-98
3.49762e-98
3.65114e-98
3.4894e-98
3.54146e-98
3.58145e-98
3.45636e-98
1.71268e-95
1.69154e-95
1.72111e-95
1.66012e-95
1.70071e-95
1.69529e-95
1.69794e-95
1.64973e-95
1.66545e-95
1.70964e-95
1.66779e-95
1.72099e-95
1.66239e-95
1.70583e-95
1.64989e-95
1.72185e-95
1.64598e-95
1.67031e-95
1.68879e-95
1.63048e-95
4.65155e-93
4.59307e-93
4.67248e-93
4.50899e-93
4.61723e-93
4.60386e-93
4.61065e-93
4.47965e-93
4.52272e-93
4.64214e-93
4.52982e-93
4.67252e-93
4.51553e-93
4.63269e-93
4.4817e-93
4.67591e-93
4.47093e-93
4.53647e-93
4.58559e-93
4.42899e-93
8.9152e-91
8.80097e-91
8.95153e-91
8.64227e-91
8.84589e-91
8.82294e-91
8.83502e-91
8.58382e-91
8.66693e-91
8.89494e-91
8.682e-91
8.95218e-91
8.65548e-91
8.87853e-91
8.59085e-91
8.96073e-91
8.56967e-91
8.69452e-91
8.78656e-91
8.48955e-91
1.19231e-88
1.17672e-88
1.19666e-88
1.15584e-88
1.18257e-88
1.17987e-88
1.18135e-88
1.14773e-88
1.15889e-88
1.18933e-88
1.16112e-88
1.19684e-88
1.15771e-88
1.18737e-88
1.1491e-88
1.19826e-88
1.14614e-88
1.16278e-88
1.1748e-88
1.13542e-88
1.09459e-86
1.07997e-86
1.09813e-86
1.06112e-86
1.08522e-86
1.08309e-86
1.08428e-86
1.05338e-86
1.06362e-86
1.09161e-86
1.0659e-86
1.09836e-86
1.06291e-86
1.09002e-86
1.05507e-86
1.09992e-86
1.05213e-86
1.06744e-86
1.07821e-86
1.04222e-86
6.73337e-85
6.64132e-85
6.75219e-85
6.52747e-85
6.67302e-85
6.66204e-85
6.66826e-85
6.47804e-85
6.5407e-85
6.71342e-85
6.55634e-85
6.754e-85
6.53906e-85
6.70508e-85
6.49121e-85
6.76533e-85
6.47142e-85
6.56615e-85
6.63069e-85
6.40986e-85
1.07079e-83
1.05719e-83
1.07241e-83
1.03889e-83
1.06072e-83
1.05895e-83
1.06096e-83
1.0314e-83
1.04289e-83
1.06666e-83
1.04461e-83
1.07346e-83
1.04101e-83
1.06586e-83
1.03246e-83
1.07498e-83
1.03274e-83
1.04475e-83
1.05382e-83
1.02424e-83
8.49827e-84
8.51269e-84
8.4823e-84
8.33424e-84
8.45006e-84
8.41278e-84
8.51888e-84
8.32674e-84
8.53751e-84
8.43444e-84
8.4668e-84
8.53361e-84
8.35587e-84
8.44122e-84
8.21746e-84
8.45961e-84
8.45843e-84
8.34687e-84
8.36486e-84
8.46975e-84
1.26633e-83
1.28214e-83
1.28861e-83
1.27146e-83
1.26199e-83
1.27082e-83
1.29117e-83
1.26098e-83
1.30047e-83
1.29139e-83
1.29313e-83
1.2951e-83
1.27828e-83
1.26362e-83
1.25279e-83
1.27237e-83
1.26431e-83
1.26227e-83
1.27217e-83
1.28075e-83
1.48166e-83
1.49514e-83
1.50068e-83
1.47954e-83
1.46976e-83
1.43995e-83
1.47306e-83
1.44332e-83
1.48914e-83
1.52807e-83
1.51577e-83
1.46913e-83
1.5112e-83
1.48614e-83
1.485e-83
1.49553e-83
1.43083e-83
1.49182e-83
1.46349e-83
1.47051e-83
1.6833e-83
1.72466e-83
1.71213e-83
1.69849e-83
1.70872e-83
1.72379e-83
1.77669e-83
1.70417e-83
1.71406e-83
1.69502e-83
1.70251e-83
1.70252e-83
1.71438e-83
1.70751e-83
1.67557e-83
1.70522e-83
1.71762e-83
1.68615e-83
1.67816e-83
1.68615e-83
1.83499e-83
1.84074e-83
1.85957e-83
1.88958e-83
1.86962e-83
1.89512e-83
1.8611e-83
1.89098e-83
1.87203e-83
1.79533e-83
1.82368e-83
1.82432e-83
1.84062e-83
1.80331e-83
1.80033e-83
1.81506e-83
1.8095e-83
1.84184e-83
1.82387e-83
1.86115e-83
1.87154e-83
1.87672e-83
1.91026e-83
1.89546e-83
1.87243e-83
1.89528e-83
1.90125e-83
1.92799e-83
1.87177e-83
1.90168e-83
1.89192e-83
1.89377e-83
1.91608e-83
1.89385e-83
1.87862e-83
1.94508e-83
1.88378e-83
1.86353e-83
1.88816e-83
1.90398e-83
1.87166e-83
1.83314e-83
1.85679e-83
1.83684e-83
1.8656e-83
1.87826e-83
1.88597e-83
1.86644e-83
1.82028e-83
1.83647e-83
1.82221e-83
1.88679e-83
1.8693e-83
1.90209e-83
1.89212e-83
1.89383e-83
1.87321e-83
1.87135e-83
1.84825e-83
1.85863e-83
1.71449e-83
1.73541e-83
1.7165e-83
1.78597e-83
1.73458e-83
1.77755e-83
1.74359e-83
1.75873e-83
1.73534e-83
1.74061e-83
1.73763e-83
1.77161e-83
1.74229e-83
1.79373e-83
1.7275e-83
1.76955e-83
1.76057e-83
1.70211e-83
1.76706e-83
1.76297e-83
1.53007e-83
1.59953e-83
1.57298e-83
1.56523e-83
1.54259e-83
1.61988e-83
1.59332e-83
1.59336e-83
1.58237e-83
1.54978e-83
1.58249e-83
1.61351e-83
1.56998e-83
1.64842e-83
1.58003e-83
1.61041e-83
1.62602e-83
1.58387e-83
1.61904e-83
1.62074e-83
1.39125e-83
1.3877e-83
1.37817e-83
1.4032e-83
1.42176e-83
1.41574e-83
1.38923e-83
1.38691e-83
1.42965e-83
1.37994e-83
1.41697e-83
1.41775e-83
1.38579e-83
1.43182e-83
1.42753e-83
1.4538e-83
1.40583e-83
1.43887e-83
1.41915e-83
1.46039e-83
1.02347e-83
1.03187e-83
1.02477e-83
1.01769e-83
1.04039e-83
1.03033e-83
1.04697e-83
1.03059e-83
1.04656e-83
1.05432e-83
1.03397e-83
1.0622e-83
1.02962e-83
1.07008e-83
1.03244e-83
1.03185e-83
1.0458e-83
1.06251e-83
1.04401e-83
1.07545e-83
2.32189e-99
2.29385e-99
2.33435e-99
2.2506e-99
2.30661e-99
2.29859e-99
2.30242e-99
2.23713e-99
2.25826e-99
2.31842e-99
2.26103e-99
2.33404e-99
2.25347e-99
2.31271e-99
2.23643e-99
2.33459e-99
2.23127e-99
2.26447e-99
2.29005e-99
2.2102e-99
2.02784e-96
2.00291e-96
2.03787e-96
1.96569e-96
2.01372e-96
2.00729e-96
2.01049e-96
1.95344e-96
1.9721e-96
2.02432e-96
1.97482e-96
2.03778e-96
1.96838e-96
2.01972e-96
1.95353e-96
2.03872e-96
1.94901e-96
1.97771e-96
1.9996e-96
1.93071e-96
9.37287e-94
9.25559e-94
9.41527e-94
9.08608e-94
9.30392e-94
9.27696e-94
9.291e-94
9.02722e-94
9.11429e-94
9.35428e-94
9.12832e-94
9.41559e-94
9.09928e-94
9.33482e-94
9.03076e-94
9.42202e-94
9.00978e-94
9.1412e-94
9.24016e-94
8.92565e-94
2.5235e-91
2.49137e-91
2.53385e-91
2.44642e-91
2.50395e-91
2.49745e-91
2.50101e-91
2.42997e-91
2.45363e-91
2.5179e-91
2.45779e-91
2.53414e-91
2.45019e-91
2.51314e-91
2.43177e-91
2.53644e-91
2.42607e-91
2.46115e-91
2.48718e-91
2.40353e-91
4.75264e-89
4.69105e-89
4.77008e-89
4.60771e-89
4.71394e-89
4.70314e-89
4.70938e-89
4.57557e-89
4.62043e-89
4.74094e-89
4.62903e-89
4.771e-89
4.61517e-89
4.73289e-89
4.58055e-89
4.7764e-89
4.56963e-89
4.63522e-89
4.68307e-89
4.52734e-89
6.2793e-87
6.19647e-87
6.29968e-87
6.08815e-87
6.22575e-87
6.21346e-87
6.221e-87
6.04419e-87
6.10378e-87
6.26249e-87
6.1162e-87
6.30146e-87
6.09855e-87
6.25307e-87
6.05295e-87
6.31002e-87
6.03805e-87
6.12424e-87
6.18583e-87
5.98218e-87
5.6696e-85
5.59335e-85
5.68557e-85
5.4972e-85
5.61902e-85
5.60975e-85
5.61579e-85
5.45608e-85
5.50997e-85
5.65315e-85
5.52226e-85
5.68758e-85
5.50703e-85
5.64576e-85
5.46603e-85
5.69661e-85
5.4518e-85
5.52951e-85
5.58362e-85
5.40114e-85
3.43892e-83
3.3918e-83
3.44701e-83
3.33449e-83
3.40688e-83
3.40234e-83
3.40557e-83
3.30871e-83
3.3414e-83
3.42812e-83
3.34956e-83
3.44856e-83
3.34076e-83
3.42438e-83
3.31597e-83
3.45481e-83
3.30688e-83
3.35396e-83
3.38577e-83
3.27602e-83
5.37913e-82
5.30999e-82
5.38561e-82
5.21969e-82
5.3268e-82
5.31988e-82
5.32932e-82
5.18087e-82
5.23885e-82
5.35805e-82
5.24825e-82
5.39142e-82
5.2308e-82
5.35465e-82
5.18788e-82
5.40001e-82
5.18871e-82
5.24886e-82
5.29314e-82
5.14618e-82
4.21868e-82
4.22547e-82
4.21126e-82
4.13847e-82
4.19457e-82
4.17764e-82
4.22945e-82
4.13371e-82
4.23904e-82
4.1875e-82
4.20416e-82
4.2361e-82
4.14924e-82
4.19099e-82
4.08107e-82
4.19895e-82
4.19911e-82
4.14415e-82
4.15293e-82
4.20483e-82
6.30171e-82
6.37877e-82
6.41244e-82
6.32597e-82
6.27922e-82
6.32226e-82
6.42252e-82
6.27266e-82
6.46959e-82
6.4234e-82
6.43416e-82
6.44138e-82
6.36031e-82
6.28722e-82
6.2338e-82
6.32965e-82
6.2896e-82
6.28042e-82
6.32975e-82
6.37154e-82
7.33678e-82
7.40291e-82
7.43063e-82
7.32428e-82
7.27813e-82
7.1311e-82
7.29546e-82
7.14896e-82
7.37416e-82
7.56507e-82
7.50388e-82
7.27496e-82
7.48234e-82
7.35806e-82
7.35255e-82
7.40428e-82
7.08489e-82
7.38504e-82
7.24504e-82
7.27994e-82
8.34441e-82
8.54621e-82
8.4864e-82
8.41921e-82
8.47061e-82
8.54449e-82
8.80465e-82
8.44836e-82
8.4964e-82
8.40068e-82
8.438e-82
8.43892e-82
8.49895e-82
8.46713e-82
8.30874e-82
8.45357e-82
8.5147e-82
8.35996e-82
8.32044e-82
8.35932e-82
9.03771e-82
9.0636e-82
9.15431e-82
9.30399e-82
9.20666e-82
9.33057e-82
9.16351e-82
9.31172e-82
9.21538e-82
8.84214e-82
8.97997e-82
8.98485e-82
9.06386e-82
8.88151e-82
8.86535e-82
8.93951e-82
8.9092e-82
9.06957e-82
8.9807e-82
9.16513e-82
9.23659e-82
9.26002e-82
9.42638e-82
9.35155e-82
9.23931e-82
9.3545e-82
9.38189e-82
9.51381e-82
9.23755e-82
9.38556e-82
9.33798e-82
9.34718e-82
9.45384e-82
9.3476e-82
9.27312e-82
9.59717e-82
9.29715e-82
9.19614e-82
9.31758e-82
9.39188e-82
9.16918e-82
8.97986e-82
9.09245e-82
8.99752e-82
9.13891e-82
9.20109e-82
9.23697e-82
9.14178e-82
8.9173e-82
8.99549e-82
8.92427e-82
9.2397e-82
9.15695e-82
9.31703e-82
9.26843e-82
9.27532e-82
9.17527e-82
9.16772e-82
9.05366e-82
9.10408e-82
8.4317e-82
8.53529e-82
8.44164e-82
8.78212e-82
8.52834e-82
8.73915e-82
8.57198e-82
8.64915e-82
8.53346e-82
8.5599e-82
8.54588e-82
8.71186e-82
8.56673e-82
8.81965e-82
8.49484e-82
8.70013e-82
8.65684e-82
8.37129e-82
8.68899e-82
8.66998e-82
7.47724e-82
7.81455e-82
7.68628e-82
7.64613e-82
7.53743e-82
7.91312e-82
7.78311e-82
7.78437e-82
7.73025e-82
7.5721e-82
7.73005e-82
7.8812e-82
7.67054e-82
8.05027e-82
7.71749e-82
7.86551e-82
7.94059e-82
7.73791e-82
7.90861e-82
7.91702e-82
6.84355e-82
6.82626e-82
6.78075e-82
6.9032e-82
6.99246e-82
6.96335e-82
6.83247e-82
6.82543e-82
7.03271e-82
6.78913e-82
6.96994e-82
6.97475e-82
6.81533e-82
7.04351e-82
7.02131e-82
7.15162e-82
6.9158e-82
7.0767e-82
6.97974e-82
7.18167e-82
5.00406e-82
5.0448e-82
5.01071e-82
4.97561e-82
5.08505e-82
5.03694e-82
5.1162e-82
5.03837e-82
5.11367e-82
5.15294e-82
5.053e-82
5.19059e-82
5.03265e-82
5.22949e-82
5.04598e-82
5.04338e-82
5.11016e-82
5.19237e-82
5.10231e-82
5.25494e-82
1.27571e-97
1.26006e-97
1.28205e-97
1.23664e-97
1.26684e-97
1.2628e-97
1.26484e-97
1.22896e-97
1.24071e-97
1.27353e-97
1.2424e-97
1.28201e-97
1.23833e-97
1.27059e-97
1.22896e-97
1.28255e-97
1.22615e-97
1.24417e-97
1.25795e-97
1.21467e-97
1.13152e-94
1.11741e-94
1.13667e-94
1.09694e-94
1.12322e-94
1.11997e-94
1.12169e-94
1.08986e-94
1.10039e-94
1.12933e-94
1.10206e-94
1.13674e-94
1.09854e-94
1.12693e-94
1.09024e-94
1.13747e-94
1.08775e-94
1.10357e-94
1.11553e-94
1.07762e-94
5.13582e-92
5.07069e-92
5.15702e-92
4.97918e-92
5.09615e-92
5.08291e-92
5.09032e-92
4.94583e-92
4.99408e-92
5.12464e-92
5.00242e-92
5.15774e-92
4.98685e-92
5.11472e-92
4.94921e-92
5.16221e-92
4.9379e-92
5.00902e-92
5.06203e-92
4.89218e-92
1.36511e-89
1.34751e-89
1.37016e-89
1.32356e-89
1.35403e-89
1.35093e-89
1.35278e-89
1.31438e-89
1.32732e-89
1.36183e-89
1.32974e-89
1.37048e-89
1.32572e-89
1.35945e-89
1.31573e-89
1.37197e-89
1.31271e-89
1.33144e-89
1.34518e-89
1.30062e-89
2.5258e-87
2.49271e-87
2.53406e-87
2.4491e-87
2.50431e-87
2.49937e-87
2.50255e-87
2.4315e-87
2.45562e-87
2.51915e-87
2.46049e-87
2.53487e-87
2.45329e-87
2.51523e-87
2.43482e-87
2.53819e-87
2.42917e-87
2.46355e-87
2.48832e-87
2.40691e-87
3.29283e-85
3.24899e-85
3.30219e-85
3.19307e-85
3.26356e-85
3.25816e-85
3.26196e-85
3.16937e-85
3.201e-85
3.28348e-85
3.20788e-85
3.30357e-85
3.19883e-85
3.27901e-85
3.17478e-85
3.30863e-85
3.16727e-85
3.21178e-85
3.24317e-85
3.13829e-85
2.92326e-83
2.88368e-83
2.9303e-83
2.83488e-83
2.89614e-83
2.8923e-83
2.89532e-83
2.81314e-83
2.84132e-83
2.91432e-83
2.84794e-83
2.93178e-83
2.84023e-83
2.91093e-83
2.81891e-83
2.93691e-83
2.81201e-83
2.85133e-83
2.87836e-83
2.78623e-83
1.74629e-81
1.72229e-81
1.74966e-81
1.69364e-81
1.72941e-81
1.72767e-81
1.72931e-81
1.68026e-81
1.69718e-81
1.74054e-81
1.70143e-81
1.75075e-81
1.697e-81
1.7389e-81
1.68425e-81
1.75417e-81
1.68007e-81
1.70339e-81
1.71897e-81
1.66467e-81
2.6867e-80
2.65177e-80
2.68912e-80
2.60751e-80
2.6597e-80
2.65725e-80
2.66164e-80
2.58753e-80
2.61659e-80
2.67604e-80
2.62168e-80
2.69231e-80
2.61328e-80
2.67463e-80
2.59186e-80
2.69705e-80
2.59198e-80
2.62194e-80
2.6434e-80
2.57082e-80
2.08099e-80
2.08416e-80
2.0776e-80
2.04204e-80
2.06902e-80
2.06144e-80
2.08657e-80
2.03917e-80
2.09147e-80
2.06587e-80
2.07437e-80
2.08953e-80
2.04736e-80
2.06764e-80
2.014e-80
2.07099e-80
2.07144e-80
2.04454e-80
2.04881e-80
2.07431e-80
3.11704e-80
3.15436e-80
3.17172e-80
3.12842e-80
3.10549e-80
3.12633e-80
3.17538e-80
3.10149e-80
3.19908e-80
3.17576e-80
3.18208e-80
3.18441e-80
3.14559e-80
3.10938e-80
3.08321e-80
3.12981e-80
3.11003e-80
3.10598e-80
3.13039e-80
3.15061e-80
3.61276e-80
3.64502e-80
3.65881e-80
3.60562e-80
3.58403e-80
3.51191e-80
3.59303e-80
3.52129e-80
3.63132e-80
3.72442e-80
3.69412e-80
3.58244e-80
3.68405e-80
3.62281e-80
3.62015e-80
3.6454e-80
3.48864e-80
3.63549e-80
3.56673e-80
3.58396e-80
4.11494e-80
4.21285e-80
4.1845e-80
4.15161e-80
4.17725e-80
4.21328e-80
4.34052e-80
4.16647e-80
4.18966e-80
4.14184e-80
4.1603e-80
4.16116e-80
4.19138e-80
4.17683e-80
4.09869e-80
4.16905e-80
4.19899e-80
4.12334e-80
4.10388e-80
4.1227e-80
4.43295e-80
4.44447e-80
4.48795e-80
4.56226e-80
4.51501e-80
4.57488e-80
4.49329e-80
4.56649e-80
4.51759e-80
4.33694e-80
4.40361e-80
4.40689e-80
4.44497e-80
4.35626e-80
4.34761e-80
4.38474e-80
4.36846e-80
4.44766e-80
4.40387e-80
4.4947e-80
4.5418e-80
4.55215e-80
4.63435e-80
4.5967e-80
4.54224e-80
4.60006e-80
4.61246e-80
4.67733e-80
4.54211e-80
4.61503e-80
4.59193e-80
4.59651e-80
4.64723e-80
4.59686e-80
4.56051e-80
4.7178e-80
4.57152e-80
4.52148e-80
4.58101e-80
4.61569e-80
4.48001e-80
4.38733e-80
4.44069e-80
4.39577e-80
4.46494e-80
4.49538e-80
4.51201e-80
4.46588e-80
4.35699e-80
4.39466e-80
4.35921e-80
4.51267e-80
4.47378e-80
4.55164e-80
4.52806e-80
4.53072e-80
4.48225e-80
4.47936e-80
4.42327e-80
4.44769e-80
4.13762e-80
4.18875e-80
4.14248e-80
4.30888e-80
4.18393e-80
4.28711e-80
4.20503e-80
4.24416e-80
4.18708e-80
4.20037e-80
4.19374e-80
4.27472e-80
4.20302e-80
4.32707e-80
4.1682e-80
4.26813e-80
4.24736e-80
4.10823e-80
4.26319e-80
4.25439e-80
3.65062e-80
3.81421e-80
3.75234e-80
3.73165e-80
3.67953e-80
3.86192e-80
3.79833e-80
3.79948e-80
3.77285e-80
3.69617e-80
3.77234e-80
3.84593e-80
3.74412e-80
3.92772e-80
3.76598e-80
3.83803e-80
3.87408e-80
3.77676e-80
3.8595e-80
3.86366e-80
3.36423e-80
3.3558e-80
3.33409e-80
3.39396e-80
3.43683e-80
3.42277e-80
3.35819e-80
3.3569e-80
3.45732e-80
3.33809e-80
3.42628e-80
3.42913e-80
3.34966e-80
3.46269e-80
3.45127e-80
3.51586e-80
3.40001e-80
3.47829e-80
3.43064e-80
3.52944e-80
2.45799e-80
2.47787e-80
2.46144e-80
2.44393e-80
2.49692e-80
2.47383e-80
2.51176e-80
2.47463e-80
2.51019e-80
2.53017e-80
2.48083e-80
2.54825e-80
2.47131e-80
2.56753e-80
2.47762e-80
2.47647e-80
2.50862e-80
2.54923e-80
2.50519e-80
2.57961e-80
7.21964e-96
7.12979e-96
7.25272e-96
6.99916e-96
7.16682e-96
7.14604e-96
7.15717e-96
6.95412e-96
7.02135e-96
7.20589e-96
7.03189e-96
7.25318e-96
7.00931e-96
7.19028e-96
6.95621e-96
7.25761e-96
6.94046e-96
7.04126e-96
7.11763e-96
6.87594e-96
6.31224e-93
6.23241e-93
6.33851e-93
6.11993e-93
6.26362e-93
6.24736e-93
6.2566e-93
6.07907e-93
6.13844e-93
6.2988e-93
6.1486e-93
6.33952e-93
6.12937e-93
6.28634e-93
6.08299e-93
6.3448e-93
6.06924e-93
6.15648e-93
6.22171e-93
6.01316e-93
2.8113e-90
2.77519e-90
2.82181e-90
2.72586e-90
2.78856e-90
2.78218e-90
2.78606e-90
2.707e-90
2.73369e-90
2.80468e-90
2.73863e-90
2.82251e-90
2.7303e-90
2.79965e-90
2.70965e-90
2.82548e-90
2.70353e-90
2.742e-90
2.77034e-90
2.67871e-90
7.36569e-88
7.26964e-88
7.3901e-88
7.14243e-88
7.30326e-88
7.28886e-88
7.29839e-88
7.09132e-88
7.16185e-88
7.34677e-88
7.17588e-88
7.39269e-88
7.15473e-88
7.33499e-88
7.10063e-88
7.40209e-88
7.08459e-88
7.18444e-88
7.25676e-88
7.01992e-88
1.33855e-85
1.32083e-85
1.34241e-85
1.29809e-85
1.32668e-85
1.32449e-85
1.3261e-85
1.28849e-85
1.3014e-85
1.33482e-85
1.30415e-85
1.343e-85
1.30043e-85
1.33293e-85
1.2906e-85
1.34501e-85
1.28768e-85
1.30566e-85
1.31844e-85
1.27599e-85
1.71933e-83
1.69623e-83
1.72354e-83
1.66751e-83
1.70343e-83
1.70118e-83
1.70307e-83
1.65479e-83
1.67149e-83
1.7142e-83
1.67529e-83
1.7245e-83
1.67068e-83
1.71211e-83
1.65805e-83
1.72744e-83
1.65426e-83
1.67717e-83
1.69308e-83
1.63928e-83
1.50034e-81
1.47989e-81
1.50335e-81
1.45525e-81
1.48589e-81
1.48442e-81
1.4859e-81
1.44381e-81
1.45846e-81
1.49555e-81
1.46201e-81
1.50434e-81
1.45814e-81
1.49402e-81
1.44712e-81
1.50722e-81
1.44376e-81
1.4636e-81
1.47702e-81
1.43069e-81
8.81851e-80
8.69692e-80
8.83195e-80
8.55452e-80
8.73022e-80
8.72439e-80
8.73247e-80
8.4855e-80
8.57235e-80
8.78832e-80
8.59444e-80
8.83898e-80
8.57241e-80
8.78125e-80
8.50729e-80
8.85749e-80
8.48804e-80
8.60316e-80
8.67896e-80
8.41154e-80
1.33443e-78
1.31689e-78
1.33522e-78
1.29533e-78
1.32059e-78
1.31988e-78
1.32189e-78
1.28511e-78
1.2996e-78
1.32908e-78
1.30232e-78
1.33696e-78
1.29831e-78
1.32852e-78
1.28767e-78
1.33953e-78
1.28759e-78
1.30243e-78
1.31275e-78
1.27712e-78
1.02028e-78
1.02175e-78
1.01876e-78
1.00149e-78
1.01437e-78
1.01104e-78
1.02314e-78
9.99826e-79
1.02563e-78
1.013e-78
1.0173e-78
1.02445e-78
1.0041e-78
1.01389e-78
9.87877e-79
1.01524e-78
1.01565e-78
1.00257e-78
1.00463e-78
1.01708e-78
1.53282e-78
1.55078e-78
1.55966e-78
1.53811e-78
1.52693e-78
1.53696e-78
1.5608e-78
1.5246e-78
1.57267e-78
1.56098e-78
1.56457e-78
1.56511e-78
1.54665e-78
1.52881e-78
1.51607e-78
1.53858e-78
1.52887e-78
1.52712e-78
1.53913e-78
1.54884e-78
1.76935e-78
1.785e-78
1.79183e-78
1.76537e-78
1.75536e-78
1.72018e-78
1.75998e-78
1.72507e-78
1.7785e-78
1.82367e-78
1.80873e-78
1.75456e-78
1.80406e-78
1.77406e-78
1.77277e-78
1.78504e-78
1.70852e-78
1.77997e-78
1.7464e-78
1.75484e-78
2.01884e-78
2.06608e-78
2.05273e-78
2.03673e-78
2.04943e-78
2.06692e-78
2.12881e-78
2.04426e-78
2.05538e-78
2.03163e-78
2.04071e-78
2.04132e-78
2.05644e-78
2.04989e-78
2.01153e-78
2.04553e-78
2.06011e-78
2.02333e-78
2.01379e-78
2.02285e-78
2.16546e-78
2.17051e-78
2.19125e-78
2.22798e-78
2.20515e-78
2.23395e-78
2.19426e-78
2.23027e-78
2.20557e-78
2.11853e-78
2.15062e-78
2.15267e-78
2.17092e-78
2.12795e-78
2.12338e-78
2.14188e-78
2.13324e-78
2.17218e-78
2.1507e-78
2.19524e-78
2.22475e-78
2.22924e-78
2.26969e-78
2.25083e-78
2.22452e-78
2.25342e-78
2.25895e-78
2.29074e-78
2.22482e-78
2.2606e-78
2.24942e-78
2.2517e-78
2.27569e-78
2.25195e-78
2.23429e-78
2.31031e-78
2.23926e-78
2.21458e-78
2.24364e-78
2.25972e-78
2.18448e-78
2.13926e-78
2.16446e-78
2.14327e-78
2.17699e-78
2.19187e-78
2.19953e-78
2.17728e-78
2.12456e-78
2.14267e-78
2.12507e-78
2.19952e-78
2.18136e-78
2.21908e-78
2.20768e-78
2.20867e-78
2.18521e-78
2.18419e-78
2.15671e-78
2.16851e-78
2.02639e-78
2.05154e-78
2.02872e-78
2.10984e-78
2.0485e-78
2.09889e-78
2.05868e-78
2.07844e-78
2.05034e-78
2.05702e-78
2.05387e-78
2.09333e-78
2.05796e-78
2.1187e-78
2.04117e-78
2.08967e-78
2.07975e-78
2.01213e-78
2.08752e-78
2.08346e-78
1.7821e-78
1.86141e-78
1.83158e-78
1.82097e-78
1.79597e-78
1.88449e-78
1.85339e-78
1.85422e-78
1.84111e-78
1.80396e-78
1.84065e-78
1.87649e-78
1.8273e-78
1.91604e-78
1.83745e-78
1.87252e-78
1.88981e-78
1.8431e-78
1.8832e-78
1.88526e-78
1.65316e-78
1.64909e-78
1.63875e-78
1.66799e-78
1.68852e-78
1.68179e-78
1.64993e-78
1.65038e-78
1.69895e-78
1.64064e-78
1.68362e-78
1.68528e-78
1.64568e-78
1.70165e-78
1.69577e-78
1.72776e-78
1.67091e-78
1.70892e-78
1.68555e-78
1.73384e-78
1.20331e-78
1.21295e-78
1.20507e-78
1.19638e-78
1.22196e-78
1.21089e-78
1.22895e-78
1.21133e-78
1.22805e-78
1.23814e-78
1.21389e-78
1.24679e-78
1.20945e-78
1.25632e-78
1.21245e-78
1.21196e-78
1.22734e-78
1.24735e-78
1.22587e-78
1.26204e-78
4.08179e-94
4.03027e-94
4.09892e-94
3.95752e-94
4.05043e-94
4.03992e-94
4.04595e-94
3.93116e-94
3.96956e-94
4.07326e-94
3.97608e-94
4.09959e-94
3.9636e-94
4.06502e-94
3.93354e-94
4.10286e-94
3.92467e-94
3.98104e-94
4.02328e-94
3.88846e-94
3.51211e-91
3.4671e-91
3.52537e-91
3.40548e-91
3.48378e-91
3.47582e-91
3.48073e-91
3.38198e-91
3.41534e-91
3.50402e-91
3.42146e-91
3.52631e-91
3.41103e-91
3.49758e-91
3.38517e-91
3.5299e-91
3.37756e-91