/*--------------------------------*- C++ -*----------------------------------*\
| =========                 |                                                 |
| \\      /  F ield         | OpenFOAM: The Open Source CFD Toolbox           |
|  \\    /   O peration     | Version:  2212                                  |
|   \\  /    A nd           | Website:  www.openfoam.com                      |
|    \\/     M anipulation  |                                                 |
\*---------------------------------------------------------------------------*/
FoamFile
{
    version     2.0;
    format      ascii;
    arch        "LSB;label=32;scalar=64";
    class       volScalarField;
    location    "0.0502";
    object      epsilon;
}
// * * * * * * * * * * * * * * * * * * * * * * * * * * * * * * * * * * * * * //

dimensions      [0 2 -3 0 0 0 0];

internalField   nonuniform List<scalar> 
31661
(
1.08257e+06
91362.7
106344
97364.8
90447.3
103071
95505.6
89883.5
100633
94169.8
1.05257e+07
126475
3.31534e+07
260121
534655
652921
626973
804746
176710
617315
668613
665210
2.13261e+06
895766
100200
704704
3.34648e+06
1.41695e+06
124813
110049
816674
1.65635e+06
1.80591e+06
204599
321830
648436
388638
598422
726434
2.1618e+06
1.35124e+06
90335.8
340233
119254
121105
133874
121224
261712
372664
280217
1.05472e+06
479160
140479
270130
526728
151395
151571
145433
509696
153056
136626
140589
149409
77791.2
354950
1.52671e+06
5.70527e+06
453147
390931
333577
123282
258989
219343
185587
158103
135859
118357
104719
94303.6
86408.4
80532.4
76209.5
73083.9
70847.5
71841.2
74412.8
77979.3
82853.3
89370.4
97954.4
109059
123190
140943
162858
189308
220781
255228
291393
334799
383150
433575
481915
528285
595869
579348
645669
627738
688140
670330
722655
706290
749536
735542
769584
758329
783850
775264
793430
787207
799320
795047
802359
799616
803225
801638
802445
801703
800418
800275
797444
797711
793750
794284
789511
790212
784854
785651
779876
780719
774652
775504
769243
770081
763703
764512
758074
758842
752391
753116
746683
747361
740982
741612
735318
735899
729714
730251
724196
724692
718790
719248
713522
713944
708421
708809
703519
703877
698849
699180
694760
694450
694362
698749
703412
708309
713408
718678
724087
729610
735220
740891
746598
752311
758002
763636
769177
774581
779794
784750
789367
793540
797127
799943
801737
802179
800833
797127
790338
779576
763837
742040
713212
676661
632051
579372
520308
455903
389840
328091
274550
229979
193920
164650
141073
122423
107863
96705.6
70020.2
69284.5
88259.4
81985
77367.1
73998
71569.3
68234.5
68771.4
70384.9
72165.6
74682
78147.3
82825.7
89058.3
97181.6
107549
120530
136381
155401
177738
203343
231955
263089
295853
331318
369502
409146
449637
491509
536750
582152
625366
664731
699205
728146
751351
769082
781865
790441
795577
797971
798237
796872
794275
790743
786521
781789
776676
771286
765702
759987
754197
748370
742544
736749
731023
725391
719878
714514
709326
704348
699615
695168
691058
690663
690371
690298
690402
694449
698833
703503
708419
713546
718850
724302
729872
735536
741262
747023
752788
758528
764202
769766
775165
780329
785175
789590
793429
796496
798536
799210
798075
794569
787997
777561
762369
741607
714654
681280
641771
596983
548021
496359
440498
385899
335057
288366
246804
211502
181474
156303
135603
118823
105605
95375
87596
69854.8
81742.7
77384.7
74182.5
69155
67957
68682.3
67567.3
68351
70033.7
71379.4
73337.6
76064
79781.4
84756.2
91281.6
99686.1
110288
123298
138916
157104
177685
200301
224490
249721
275410
301113
327525
354991
383690
413986
447119
484075
523517
564124
604473
642984
678341
709199
734934
755266
770488
781135
787889
791487
792589
791764
789482
786112
781939
777181
771999
766517
760834
755030
749160
743274
737407
731604
725897
720315
714888
709648
704629
699866
695407
691299
687602
687336
686944
686666
686613
686748
686891
690494
694512
698888
703569
708510
713677
719032
724541
730179
735916
741714
747547
753374
759157
764848
770383
775686
780655
785162
789034
792043
793891
794190
792441
788033
780245
768289
751416
729032
700921
667350
629142
587608
544376
500981
458120
415029
374147
335692
300132
266114
234711
205988
180143
157265
137772
121641
108598
98198.2
90056.6
71864.1
83852.4
79185.3
67452.3
69140.3
67853.1
70220.4
67920
67163.9
68553.4
70172.3
71239.8
72809.9
75045.4
78141.6
82321.2
87854.3
95040.8
104180
115541
129292
145427
163765
183895
205119
226774
248107
268573
287818
305929
323711
341747
360733
381432
404986
432401
463503
497864
534780
573129
611441
648065
681471
710409
734242
752852
766490
775723
781249
783778
783975
782393
779481
775592
770999
765902
760457
754788
748986
743120
737248
731419
725676
720058
714599
709335
704303
699544
695105
691042
687416
684297
684383
684068
683663
683396
683373
683556
683776
683761
686753
690267
694228
698570
703241
708192
713381
718772
724327
730014
735798
741639
747499
753326
759063
764641
769964
774913
779325
782989
785627
786875
786271
783240
777102
767110
752531
732749
707493
676967
641918
603690
563884
524216
486237
450915
418322
387892
360085
334068
309222
284214
259180
234189
209560
185956
164308
145149
128571
114655
103315
94365.4
75710.3
87384.5
67159.8
67568.4
73167.5
69462.7
68215.3
69097.8
67446.5
66944.2
69028.8
70554.1
71431
72714.8
74571.4
77190.6
80764.9
85547.2
91820.2
99880.6
110004
122412
137181
154194
173090
193253
213844
233958
252790
269805
284768
297704
309169
319917
330666
342100
354975
370180
388620
410684
436587
466348
499619
535610
573077
610429
645920
678098
705788
728315
745624
758072
766223
770816
772575
772137
770045
766735
762546
757733
752494
746982
741310
735565
729819
724130
718550
713122
707895
702907
698207
693848
689890
686397
683447
681128
681766
681719
681329
680896
680636
680650
680901
681233
681384
683169
685971
689338
693190
697453
702067
706982
712150
717527
723073
728746
734499
740287
746049
751714
757190
762367
767093
771167
774322
776216
776404
774336
769351
760731
747729
729729
706410
677840
644683
608227
570044
531925
495506
462017
432168
406143
383577
363817
346437
330419
314706
298300
280625
261269
240296
218346
196334
175053
155251
137582
122586
110096
82069.5
99918.4
681028
91901.4
67043.1
78064.1
67464.2
71337.9
68072.4
68358.1
69994.8
68814.7
67170.2
66885.1
69680
71107.4
71831.1
72905.7
74470.4
76692.4
79753.7
83902.8
89402.1
96545.1
105626
116895
130487
146402
164387
183909
204190
224286
243212
260211
274780
286793
296435
304104
310452
316124
321730
327799
334924
343756
354950
369018
386442
407644
432879
462124
494957
530483
567373
604016
638698
669866
696466
717908
734179
745657
752977
756886
758093
757237
754844
751339
747043
742207
737020
731631
726147
720657
715234
709943
704841
699982
695422
691220
687444
684165
681468
679449
678220
679544
679922
679699
679206
678729
678473
678534
678881
679362
679728
679664
679805
681626
684162
687306
690973
695086
699575
704380
709448
714726
720163
725704
731287
736841
742278
747483
752308
756569
760013
762307
763027
761638
757505
749903
738085
721442
699585
672512
640871
605713
568593
531351
495635
462802
433670
408609
387610
370289
356081
344345
334437
325512
316742
307262
296320
283247
267694
249705
229798
208620
187225
166931
148404
131922
117972
106476
678822
97216.4
85720.7
67067.5
75087.2
67493.1
70070.3
68067.3
67883.3
68759
67062.1
70666.8
69550.2
66950.9
677912
678819
678880
678434
677803
677263
677009
677133
677605
678279
678916
679210
678814
676848
677362
678769
680948
683780
687175
691046
695315
699912
704769
709822
715001
720231
725417
730449
735185
739436
742963
745453
746494
745570
742056
735246
724393
708848
688188
662393
631971
597941
561802
525348
490191
457746
428935
404194
383627
366957
353729
343403
335428
329287
324411
320199
316120
311557
305862
298368
288466
275758
260090
241717
221596
200683
179766
160163
142345
126851
113798
89984.5
103185
677367
70441.6
71797.1
72389.9
73307.8
74639.3
76533.1
79174.1
82778.7
87597.2
93919.8
102046
112252
124745
139593
156657
175538
195558
215814
235305
253082
268451
281044
290863
298192
303466
307219
309994
312281
314485
317025
320226
324534
330451
338389
348812
362226
379119
399895
424776
453693
486173
521270
557632
593593
627438
657706
683315
703785
719144
729815
736477
739868
740704
739608
737098
733576
729358
724686
719745
714674
709588
704579
699728
695109
690788
686840
683338
680366
678016
676393
675615
675815
81005.6
67189
94863
84447.8
72925.6
67622.4
69216
68177.5
67611.8
68825.6
67089.5
69553.4
67101.7
71460.7
70381.3
674501
673393
673358
674266
675989
678417
681437
684959
688894
693154
697654
702306
707016
711662
716103
720158
723591
726097
727283
726649
723589
717398
707342
692741
673145
648466
619163
586179
551019
515337
480749
448736
420276
395804
375487
359096
346224
336394
329076
323802
320151
317693
316038
314855
313755
312385
310286
306938
301783
294219
283749
270189
253743
234709
214226
193029
172518
153500
136464
121906
109958
73100.9
73872.1
75023.8
76656.5
78949
82104
86331.4
91914.8
99171.6
108387
119808
133578
149661
167783
187388
207664
227627
246275
262754
276510
287344
295380
300974
304591
306711
307795
308229
308341
308385
308659
309367
310685
312996
316641
321975
329397
339365
352373
368903
389348
413899
442457
474528
509122
544875
580088
613091
642416
667068
686613
701135
711117
717241
720256
720868
719692
717224
713859
709902
705589
701099
696580
692151
687914
683957
680373
677251
674687
672782
671649
671409
672191
674130
677136
678670
679100
678780
678058
677251
676624
676369
676573
677207
678127
679098
679817
679932
679062
72621.3
676814
88389
100391
71312.4
77461.1
67388.6
680449
682083
682340
681656
680443
679069
677847
677013
676710
676970
677707
678736
679791
680553
680660
679731
677350
80247.8
71391.4
67827.2
72365
73959.1
74609.9
75604.3
77020.4
79026.9
81808.6
85546.8
90499.4
96956.7
105257
115659
128359
143410
160654
179664
199740
219961
239309
256845
271855
283962
293132
299612
303805
306183
307188
307209
306570
305521
304260
302961
301772
300894
300416
300447
301256
303139
306403
311367
318432
328058
340736
356931
377016
401179
429303
460853
494847
529858
564246
596316
624658
648338
666980
680732
690101
695793
698551
699078
697970
695712
692690
689202
685480
681708
678043
674613
671529
668905
666854
665490
664931
665298
666711
669278
673092
92941.1
83451.3
68641.4
68366.2
67512.7
68982.3
67211.8
69672.5
67322.8
70444.4
71303.9
73573.6
72281.6
75921.5
74631.1
676983
672786
669861
668128
667484
667812
668995
670911
673453
676501
679962
683717
687661
691670
695591
699242
702392
704744
705917
705427
702680
696986
687606
673855
655233
631618
603374
571436
537188
502345
468454
437012
408908
384790
364741
348601
335973
326433
319423
314518
311323
309479
308700
308494
308845
309550
310309
310912
311087
310491
308715
305238
299539
291102
279580
264782
247045
227298
206430
185292
165084
146921
131012
117551
106772
685505
87165.2
98120.5
236921
682496
74852.1
67643.9
686570
686209
684917
683146
681305
679724
678648
678227
678496
679372
680667
682111
683370
684059
683748
681964
678216
77121
70328.8
68088.4
76455.9
75505
76363.5
77617.9
79386.9
81839
85171.2
89604.3
95393.3
102839
112275
123951
137963
154254
172519
192180
212407
232215
250613
266775
280167
290597
298186
303268
306282
307675
307856
307155
305842
304116
302137
300027
297884
295804
293875
292228
290932
290056
289765
290293
291908
294905
299601
306387
315715
328067
343898
363579
387280
414860
445777
479025
513194
546624
577673
604974
627654
645413
658438
667270
672624
675252
675842
674979
673137
670695
667946
665124
662431
660023
658038
656616
655885
655971
656986
659035
662195
666512
671987
79732.3
68301.7
68615.3
91408
82746.7
67541.3
69209.7
67411.2
69870.3
67594
70602.1
71416.5
72328.6
74469.5
692046
689319
78377.3
77922.6
677015
671220
666570
663084
660733
659450
659142
659698
661008
662940
665375
668173
671204
674316
677307
679949
681949
682935
682438
679875
674568
665780
652807
635123
612544
585385
554503
521243
487219
454126
423287
395765
372030
352389
336527
324173
314842
308088
303395
300433
298869
298360
298667
299558
300825
302473
304302
306185
307995
309550
310657
311052
310385
308229
304070
297345
287625
274684
258722
239980
219333
198268
177612
158238
140911
126117
113893
104078
76485.1
75516.5
86255.7
96328.6
150304
72973.4
67943.8
692647
691709
689797
687435
685077
683082
681725
681165
681448
682489
684093
685975
687774
689059
689336
688066
684672
678577
74833.5
69605.8
68392.2
90588.5
77250.3
78391.4
79965.7
82161
85168.7
89165.4
94397.8
101138
109685
120349
133352
148662
166084
185158
205162
225172
244192
261319
275889
287562
296327
302428
306257
308256
308846
308384
307157
305385
303233
300827
298261
295611
292942
290307
287757
285349
283163
281299
279774
278676
278207
278572
280016
282816
287291
293827
302865
314877
330313
349526
372668
399599
429753
462133
495319
527687
557615
583813
605477
622359
634705
643088
648236
650896
651749
651369
650222
648676
647033
645538
644378
643719
643716
644500
646178
648829
652492
657163
662782
669243
76977.9
68153.2
68911.2
79456.5
67669.6
69490.5
90302.9
82361.7
67666
70129.9
67905.7
70834.5
71613.5
72476.5
700100
697407
73431.5
74420.1
284852
75375.1
683891
675218
668560
662704
657764
653823
650902
648982
647999
647860
648446
649629
651246
653143
655135
656969
658357
658934
658238
655703
650658
642370
630120
613348
591820
565775
536011
503812
470763
438478
408378
381447
358275
339027
323556
311455
302356
295815
291348
288544
287133
286765
287286
288416
289970
291890
294128
296547
299064
301642
304177
306555
308691
310405
311497
311667
310550
307654
302506
294577
283496
269185
251879
232404
211525
190432
170147
151743
135589
121916
110801
101971
375927
85720.8
95039.7
803369
138667
71660.1
68275.7
700419
699015
696538
693590
690675
688227
686556
685842
686142
687369
689313
691663
694009
695851
696624
695709
692439
686185
676407
73200.3
69156.4
68728.9
137986
93834.8
79090.1
80632.6
82681.6
85435.3
89095.4
93884.6
100050
107868
117625
129589
143930
160458
178824
198415
218391
237785
255653
271233
284053
293972
301128
305855
308571
309700
309622
308646
307014
304909
302466
299787
296947
294004
291005
287994
285006
282071
279225
276508
273970
271688
269709
268072
266884
266322
266582
267902
270548
274831
281129
289877
301528
316522
335195
357700
383874
413149
444522
476598
507779
536508
561555
582194
598247
610009
618085
623216
626145
627544
627973
627886
627658
627586
627882
628721
630255
632586
635772
639812
644652
650185
656263
662730
74987.1
68145.8
69243.3
77058.5
67872
69812.8
79462.1
67965.6
70437.9
89662.3
82278.1
68246.4
71123.7
71876.6
709663
706684
72702.1
73593.2
74510.5
75478.9
691731
682533
662912
656718
651033
645997
641743
638342
635814
634135
633223
632958
633179
633715
634351
634779
634639
633482
630753
625794
617870
606254
590355
569879
545000
516430
485389
453411
422088
392807
366586
343996
325214
310133
298395
289556
283192
278891
276228
274915
274671
275262
276493
278177
280226
282571
285166
287966
290832
293814
296824
299777
302665
305408
307924
310067
311671
312488
312202
310419
306633
300327
291079
278668
263116
244826
224645
203534
182878
163436
145805
130953
118564
108512
100542
77858.4
85575.3
94293.4
76604.6
669464
70745.2
68633.7
709973
708311
705396
701922
698473
695568
693566
692683
692996
694417
696709
699512
702349
704642
705739
704921
701460
694703
684130
669462
72065.8
68927.1
69090.7
80233.8
81032.7
81794.3
83305.2
85832.3
89259.7
93734.4
99458.3
106692
115709
126764
140067
155691
173276
192314
212056
231588
249964
266355
280179
291171
299362
305011
308498
310241
310630
309996
308603
306652
304294
301642
298775
295757
292637
289448
286222
282990
279772
276592
273474
270444
267539
264790
262233
259931
257921
256250
255035
254432
254631
255863
258384
262496
268565
277013
288283
302795
320874
342652
367960
396236
426481
457332
487238
514713
538606
558270
573602
584951
592946
598338
601861
604170
605802
607204
608736
610609
612972
615953
619596
623875
628702
633942
639439
645052
650714
73586.8
68248.2
69603.1
75347.2
68131.8
70166.9
79740.8
77368.6
68297.2
70783.6
79744.6
68610.8
71457.3
720724
717075
89453.2
82509.4
72192.5
72990.2
73842.4
74743.9
75726.3
700416
690365
676268
652426
646768
641229
635916
630980
626568
622795
619707
617302
615511
614180
613155
612209
610969
609001
605772
600638
592871
581735
566607
547142
523438
496125
466337
435544
405292
376954
351534
329616
311384
296721
285327
276774
270613
266445
263901
262665
262473
263105
264355
266069
268137
270509
273149
275962
278988
282064
285261
288515
291766
294992
298186
301319
304304
307086
309541
311534
312870
313274
312381
309762
304957
297483
286914
273162
256421
237297
216853
195982
175875
157359
141019
127351
116123
107017
99754.4
85773.1
76844.6
94038.1
77930.2
658154
70155.2
69010.8
721390
719781
716680
712853
708979
705660
703338
702284
702606
704203
706796
709963
713149
715679
716801
715712
711662
704022
692327
676424
656465
71302.9
68859.6
69472.4
83679.1
85166.1
87057.1
89866.8
93855.8
99189.8
105990
114443
124772
137184
151806
168579
186967
206317
225783
244441
261427
276079
288025
297186
303739
308014
310408
311316
311081
309988
308255
306050
303497
300684
297685
294545
291306
288004
284653
281280
277909
274548
271217
267937
264724
261605
258595
255707
252981
250471
248218
246233
244579
243383
242784
242954
244125
246542
250501
256354
264501
275367
289356
306777
327752
352107
379286
408313
437870
466468
492702
515511
534336
549148
560340
568564
574562
579048
582624
585795
588988
592385
596077
600147
604563
609241
614054
618869
623604
628269
632984
72623.1
68432.9
69984.7
82587.1
79507.2
74135.7
68435
70546.4
75889.9
68655.2
71158.9
733313
728552
77915.4
68992.7
80271
71826.1
72550.4
89629.5
83032.8
73332.5
74170
75068.8
76054.2
709853
698642
683295
663989
636390
631651
626894
622086
617280
612592
608153
604084
600448
597235
594338
591649
588949
585796
581697
576049
568143
557245
542708
524135
501547
475490
447003
417475
388398
361099
336571
315400
297779
283600
272566
264287
258332
254295
251832
250647
250479
251097
252335
254022
256052
258393
260978
263775
266731
269862
273071
276348
279748
283124
286524
289931
293344
296702
299994
303150
306105
308811
311111
312848
313795
313666
312082
308579
302655
293920
282048
267116
249530
230015
209400
188805
169579
152268
137465
124928
114581
106155
99411.7
86275.3
78101
94119.9
77147.8
641220
69819
69403.5
734804
733698
730812
726959
722896
719320
716776
715592
715904
717600
720348
723663
726900
729290
729990
728161
723072
714131
700996
683655
662412
637920
70836.3
68918.7
69869.3
86882.5
88906.8
91580.2
95057.1
99705.3
105833
113692
123418
135141
148923
164775
182465
201305
220531
239263
256631
271918
284662
294692
302093
307139
310196
311649
311850
311096
309625
307617
305209
302500
299569
296466
293244
289926
286543
283127
279675
276204
272740
269298
265887
262521
259211
255970
252814
249754
246817
244023
241387
238948
236762
234861
233278
232135
231574
231754
232890
235228
239048
244688
252527
262976
276419
293148
313276
336629
362665
390447
418710
446041
471134
493023
511237
525806
537155
545930
552831
558492
563429
568127
572792
577398
581970
586485
590865
595035
599002
602877
606855
611153
79443
71996.5
68680.8
70383.7
81852.7
85388.8
73324.5
68771.7
70945.7
747578
741166
74851.6
69032.4
69389
76612.7
71557.7
72222.8
78661
72943
81044.5
73720.8
90085.3
83807.8
74553.6
75455.4
76441.2
719991
707330
690558
669973
646216
615843
611707
607739
603753
599627
595346
590948
586519
582143
577834
573552
569275
564761
559520
553028
544648
533673
519457
501564
479950
455065
427853
399609
371748
345551
321982
301608
284634
270967
260322
252321
246560
242653
240255
239090
238911
239489
240657
242284
244240
246477
248985
251699
254584
257598
260765
264015
267328
270753
274202
277660
281167
284703
288228
291752
295208
298583
301866
304986
307873
310410
312471
313873
314368
313625
311229
306772
299731
289832
276880
261034
242648
222875
202544
182955
164825
148858
135025
123260
113536
105659
99458.6
87065.4
77525.2
78372.8
94558.1
620209
69673.8
69808.4
750519
750535
748515
745206
741443
737993
735464
734248
734496
736100
738685
741712
744450
746069
745700
742502
735797
725103
710218
691253
668639
643133
615761
79535.3
70594.4
69072.1
78722.2
79748.4
70279
81402.9
84329.7
88729
90689.7
93323.3
96804.1
101260
106888
114019
122952
133865
146848
161903
178824
197098
215956
234578
252122
267849
281223
291987
300151
305922
309626
311630
312286
311899
310720
308941
306711
304139
301311
298283
295109
291821
288453
285034
281558
278048
274529
271012
267509
264030
260583
257179
253825
250530
247306
244162
241112
238170
235353
232683
230171
227855
225784
223992
222526
221485
221002
221224
222346
224621
228322
233768
241325
251373
264280
280325
299610
321968
346881
373460
400514
426721
450868
472082
489956
504552
516279
525721
533477
540053
545898
551327
556353
560910
565034
568767
572228
575628
579251
583332
587740
71637.6
68976.6
70796.4
763887
755098
72822.6
69133.9
69425.6
74174.7
71361.1
71975.4
75729.8
69796.4
72642.4
77529.4
73363.4
79610
74141.6
82025.4
74979.9
90798.4
84804.1
75887.1
76874.1
730838
716416
698010
676041
651220
624510
597071
593113
588979
585155
581637
578174
574545
570638
566407
561826
556884
551631
546039
539781
532390
523341
512023
497834
480346
459468
435577
409520
382491
355824
330728
308127
288566
272243
259083
248819
241084
235501
231703
229360
228202
227972
228469
229541
231046
232885
235011
237392
239986
242736
245632
248661
251810
255046
258354
261753
265194
268662
272181
275756
279342
282957
286543
290081
293616
297109
300494
303720
306728
309456
311776
313541
314545
314510
313113
309908
304508
296467
285459
271592
254972
236520
216811
197261
178662
161537
146281
133127
122103
112940
105471
99598.6
88012.5
94994.8
91624.1
77951.4
99812.6
69674.2
97578
94674.6
79136.7
80059.1
81190.9
83635.2
87286.3
81183.1
83239.7
86294.9
81310.4
83077.3
85664.3
83104.1
81558.2
85311
80443
85175.3
83259.2
81895.6
70223.7
769120
771316
771136
769408
766884
764312
762315
761273
761384
762504
764286
766161
767417
767226
764766
759284
750207
737178
720114
699227
675041
648355
620189
591721
104842
112092
120909
131632
144271
158735
175116
193295
212515
231644
250086
266786
281320
293028
301982
308237
312214
314272
314844
314269
312842
310779
308254
305389
302269
298961
295547
292019
288425
284791
281156
277534
273904
270285
266713
263168
259687
256248
252858
249518
246260
243079
239983
236999
234128
231390
228802
226376
224151
222181
220513
219167
218232
217851
218167
219366
221684
225413
230853
238357
248292
260985
276689
295482
317178
341256
366851
392823
417934
441075
461461
478754
493027
504649
514121
521936
528521
534265
539374
543858
547746
551217
554522
558001
561937
566226
570137
70523.8
69298.8
70698.9
742421
725795
705422
681790
655636
627916
599750
572297
87954.4
88560.7
89503
90867.9
92752.6
95294.1
98655.5
102995
108496
115337
123711
133863
145991
160110
176072
193657
212107
230497
248042
264005
277828
289183
298001
304425
308737
311279
312393
312388
311520
309993
307967
305558
302859
299932
296836
293604
290274
286883
283422
279909
276372
272826
269281
265749
262236
258751
255300
251892
248533
245229
241988
238818
235726
232725
229823
227034
224378
221869
219518
217358
215444
213824
212522
211616
211247
211556
212722
214972
218593
223890
231206
240909
253338
268751
287255
308694
332588
358105
384130
409428
432865
453621
471310
485965
497921
507652
515640
522302
528015
533017
537345
541074
544448
547790
551493
555783
560359
564161
71478.7
69309.2
69516.2
72556.3
71220.6
71789.6
73779.8
69831
783047
770734
72408.5
75177.3
70213.3
73080.1
76777.8
73808.1
78619.2
74590
80738.3
75435.6
83192.2
76351.6
86030.8
77343.4
89615.7
78422.7
79598.5
87614.2
85217.3
80885.8
90459.2
87492.6
69787.2
97369.6
92694.5
83525.7
82302.9
70647
104646
109827
117948
128917
141749
156299
172427
189846
208226
227230
245821
262787
277509
289824
299357
306362
310993
313679
314772
314639
313573
311800
309503
306813
303835
300642
297294
293818
290271
286695
283032
279352
275670
272020
268407
264809
261239
257723
254248
250834
247470
244160
240908
237737
234643
231635
228730
225930
223254
220718
218332
216099
214079
212322
210852
209719
208984
208779
209250
210563
212939
216650
222016
229363
239033
251352
266548
284692
305620
328848
353562
378690
403058
425601
445552
462552
476615
488031
497220
504620
510642
515666
520009
523873
527559
531502
535976
540769
544865
546638
791968
797914
801402
803067
803515
803294
802872
802507
802293
802197
801866
800991
798972
795166
788925
779699
767054
750744
730768
707393
681154
652831
623393
593943
565601
70584
69580
90223.3
125095
69670.1
71474.7
71127.6
71654.3
91081.4
92019.7
93365.9
95196.6
97656.8
100913
105093
110399
117025
125138
134880
146365
159650
174712
191316
209048
227051
244453
260507
274605
286387
295730
302718
307581
310628
312189
312567
312022
310765
308960
306734
304185
301381
298384
295231
291963
288617
285192
281701
278173
274625
271068
267514
263970
260445
256945
253477
250047
246661
243324
240042
236820
233664
230579
227574
224655
221833
219117
216521
214067
211760
209598
207642
205946
204529
203442
202744
202558
203028
204317
206637
210250
215468
222627
232060
244109
259021
276877
297554
320605
345253
370447
395008
417838
438118
455429
469737
481303
490538
497891
503787
508622
512815
516661
520500
524790
529713
534781
538599
539361
72473.3
69914.2
754801
735250
712316
686491
658499
629260
599826
571283
544636
806663
788936
87548.2
87624
85379.6
72228.9
73599.1
70246.4
72854.3
74874.8
70637.7
73532.6
76325.7
74267.1
77978.1
75059.1
79881.6
75916.3
82085
76841.4
84704.9
77841.5
88071.4
78926.7
103058
80101.5
81375.7
69984.4
94032.9
94132.3
69903.7
70744
71563.5
821596
834016
844224
852496
859004
863813
866912
868159
867430
864656
860001
853541
845063
834437
821508
806028
787748
766507
742318
715421
686274
655570
624190
593138
563436
536003
155080
94614.9
96055.1
97906.2
100375
103601
107701
112841
119227
127052
136457
147528
160280
174622
190345
207127
224550
241608
257525
271702
283737
293458
300891
306222
309726
311706
312456
312235
311254
309684
307658
305275
302613
299731
296676
293488
290203
286834
283386
279883
276351
272802
269247
265694
262153
258630
255131
251664
248232
244842
241498
238205
234967
231788
228674
225629
222659
219769
216965
214256
211652
209163
206815
204602
202518
200609
198918
197483
196338
195547
195165
195272
196012
197551
200079
203835
209105
216223
225538
237344
251895
269284
289363
311721
335618
360038
383818
405860
425318
441738
455075
465606
473789
480183
485358
489927
494645
500022
506046
511909
515869
516014
511644
71588
70053
107240
112727
119565
128188
139309
153086
169137
186778
205323
224087
242143
258808
273960
286791
296882
304367
309571
312777
314364
314652
313940
312468
310421
307940
305138
302077
298832
295449
291963
288422
284811
281164
277493
273814
270154
266491
262890
259335
255809
252323
248895
245516
242200
238939
235737
232603
229545
226569
223679
220886
218198
215625
213193
210900
208739
206755
204994
203494
202290
201445
201012
201077
201801
203345
205907
209738
215134
222434
231973
244044
258885
276558
296898
319446
343430
367818
391461
413299
432546
448801
462057
472595
480858
487359
492609
497147
501649
506578
512066
517710
522187
523628
520721
768246
744582
718143
689357
658885
627587
596444
566461
538612
513978
91196.4
89224.5
87689.6
85639.5
85966.6
72096
72529
70324.7
72677.3
73583.1
70670.2
73310
74769
71077.6
71068.9
73997.7
76105.3
74741.4
77626.7
75545.9
79371.1
76414.6
81389.9
77351.8
83808.4
78366.8
141647
79459.3
2.06348e+06
110627
80634.6
83874.4
82765.4
81901.3
837651
811483
94300.8
70246
71514.3
862322
885524
907241
927105
944415
958301
967848
972177
970633
963410
951102
934576
914664
892248
867987
842156
814807
785871
755323
723255
689956
655958
621980
588868
557566
529023
504134
70980.2
70260.1
493507
500364
503901
502756
497744
490904
484103
478052
472317
466107
458657
449198
437121
422053
403926
383120
360412
336866
313629
291713
271874
254554
239929
227947
218396
210976
205345
201194
198256
196316
195184
194678
194689
195147
195984
197145
198571
200224
202093
204131
206285
208567
210990
213531
216177
218921
221755
224672
227668
230736
233870
237063
240323
243636
247012
250437
253902
257426
260988
264602
268234
271887
275544
279190
282829
286434
289976
293439
296844
300119
303223
306121
308739
311000
312782
313955
314318
313638
311635
307979
302279
294332
283996
271267
256169
239127
220733
201701
183527
167140
152836
140758
130690
122464
115958
133061
86351.5
72005.8
97790.4
98258.4
98804.1
100571
103198
106514
110674
115808
122083
129659
138725
149388
161653
175432
190503
206522
223018
239542
255166
269245
281358
291297
299045
304744
308632
310988
312086
312178
311474
310146
308329
306125
303620
300869
297926
294831
291621
288327
284938
281476
277977
274450
270909
267364
263823
260294
256783
253298
249842
246423
243043
239709
236423
233190
230014
226898
223847
220865
217955
215124
212376
209718
207157
204702
202366
200171
198099
196144
194358
192784
191439
190358
189597
189212
189269
189843
191033
192996
195931
200043
205580
212846
222175
233886
248199
265195
284733
306398
329473
352961
375708
396615
414850
429997
442101
451560
459035
465380
471465
478069
485414
492308
496504
496166
491323
483767
71792
70453.5
72544.8
72692
70745.6
73133.7
73693.8
71101.1
73775.1
74812.8
71505.9
74472.5
76069.9
75227.6
77492.9
76045.7
79113.9
76928.5
80987.7
77883.9
83193.9
78911.1
1.41623e+06
1.11236e+07
80012.6
81193.5
880402
841561
783660
754080
722801
690104
656519
622761
589735
558454
529890
505179
484848
91495.6
89552.3
276479
95438.1
88052.4
84289.2
84759.1
91869.6
83271.6
83817.9
89996.6
82457.7
92373.4
70556.9
152921
85278.7
71956.6
919801
959363
998312
1.03528e+06
1.06829e+06
1.09517e+06
1.11386e+06
1.12258e+06
1.12011e+06
1.10681e+06
1.08378e+06
1.05285e+06
1.01632e+06
976401
934987
893330
852078
811445
771390
731816
692740
654400
617251
581921
549160
519827
494895
474583
71274.8
70642
86848.3
72453.9
101736
103176
104728
106694
109766
113908