/*--------------------------------*- C++ -*----------------------------------*\
| =========                 |                                                 |
| \\      /  F ield         | OpenFOAM: The Open Source CFD Toolbox           |
|  \\    /   O peration     | Version:  2212                                  |
|   \\  /    A nd           | Website:  www.openfoam.com                      |
|    \\/     M anipulation  |                                                 |
\*---------------------------------------------------------------------------*/
FoamFile
{
    version     2.0;
    format      ascii;
    arch        "LSB;label=32;scalar=64";
    class       volVectorField;
    location    "0.095";
    object      U_0;
}
// * * * * * * * * * * * * * * * * * * * * * * * * * * * * * * * * * * * * * //

dimensions      [0 1 -1 0 0 0 0];

internalField   nonuniform List<vector> 
24240
(
(9.39432 0.600066 7.76431e-07)
(9.39439 0.600071 -8.95457e-07)
(9.39439 0.600071 -8.6218e-07)
(9.39439 0.600071 -1.44071e-06)
(9.39439 0.600071 -1.70219e-06)
(9.39439 0.600071 -2.02958e-06)
(9.39439 0.600071 -2.26143e-06)
(9.39439 0.600071 -2.45709e-06)
(9.39439 0.600071 -2.58641e-06)
(9.39439 0.600071 -2.65657e-06)
(9.39439 0.600071 -2.66212e-06)
(9.39439 0.600071 -2.60324e-06)
(9.39439 0.600072 -2.48539e-06)
(9.39439 0.600072 -2.31361e-06)
(9.39439 0.600072 -2.08781e-06)
(9.39439 0.600072 -1.85062e-06)
(9.39439 0.600073 -1.49818e-06)
(9.39439 0.600073 -1.3613e-06)
(9.39439 0.600073 -5.29577e-07)
(9.39432 0.600069 -1.30812e-06)
(9.10531 0.600851 -3.14408e-07)
(9.10538 0.600856 -7.14458e-07)
(9.10538 0.600857 -1.03556e-06)
(9.10538 0.600858 -1.43767e-06)
(9.10538 0.600858 -1.7172e-06)
(9.10538 0.600859 -1.98004e-06)
(9.10538 0.600861 -2.16218e-06)
(9.10538 0.600862 -2.2903e-06)
(9.10538 0.600863 -2.3516e-06)
(9.10538 0.600864 -2.35411e-06)
(9.10538 0.600866 -2.2995e-06)
(9.10538 0.600867 -2.19306e-06)
(9.10538 0.600868 -2.04121e-06)
(9.10538 0.600869 -1.85063e-06)
(9.10538 0.600869 -1.62998e-06)
(9.10538 0.60087 -1.39773e-06)
(9.10538 0.600871 -1.12276e-06)
(9.10538 0.600871 -8.86322e-07)
(9.10538 0.600872 -4.99879e-07)
(9.10531 0.600867 -1.26431e-07)
(9.14021 0.300524 -1.55134e-07)
(9.14028 0.300526 -4.73886e-08)
(9.14028 0.300527 4.86485e-08)
(9.14028 0.300527 6.39786e-09)
(9.14028 0.300527 -2.4948e-09)
(9.14028 0.300527 -8.02302e-08)
(9.14028 0.300528 -1.65961e-07)
(9.14027 0.300528 -2.79843e-07)
(9.14027 0.300528 -3.99475e-07)
(9.14027 0.300529 -5.1935e-07)
(9.14027 0.300529 -6.27124e-07)
(9.14027 0.30053 -7.12909e-07)
(9.14027 0.30053 -7.71012e-07)
(9.14027 0.30053 -7.93735e-07)
(9.14026 0.300531 -7.80889e-07)
(9.14026 0.300531 -7.36181e-07)
(9.14026 0.300531 -6.35911e-07)
(9.14026 0.300531 -5.38962e-07)
(9.14026 0.300532 -3.05978e-07)
(9.14019 0.300529 -1.45864e-08)
(8.92352 0.298665 -1.53905e-07)
(8.92358 0.298668 -4.62687e-07)
(8.92358 0.298668 -7.05783e-07)
(8.92358 0.298668 -9.60475e-07)
(8.92358 0.298668 -1.15576e-06)
(8.92359 0.298669 -1.3283e-06)
(8.92359 0.298669 -1.45108e-06)
(8.92359 0.298669 -1.53562e-06)
(8.92359 0.29867 -1.57444e-06)
(8.92359 0.29867 -1.57191e-06)
(8.92359 0.29867 -1.52897e-06)
(8.92359 0.298671 -1.4483e-06)
(8.92359 0.298671 -1.33465e-06)
(8.92359 0.298672 -1.19301e-06)
(8.92359 0.298672 -1.02925e-06)
(8.92359 0.298672 -8.54965e-07)
(8.92359 0.298673 -6.60689e-07)
(8.92359 0.298673 -4.74382e-07)
(8.92359 0.298673 -2.63063e-07)
(8.92353 0.29867 -1.09724e-07)
(8.94407 0.152284 -2.90314e-09)
(8.94414 0.152285 1.66362e-07)
(8.94414 0.152286 3.16336e-07)
(8.94414 0.152286 4.08078e-07)
(8.94414 0.152286 4.76206e-07)
(8.94413 0.152287 4.93281e-07)
(8.94413 0.152287 4.75294e-07)
(8.94413 0.152288 4.21109e-07)
(8.94413 0.152289 3.41812e-07)
(8.94413 0.152289 2.45487e-07)
(8.94413 0.15229 1.42108e-07)
(8.94413 0.15229 4.34092e-08)
(8.94413 0.152291 -4.43793e-08)
(8.94413 0.152291 -1.1109e-07)
(8.94412 0.152292 -1.54105e-07)
(8.94412 0.152292 -1.68315e-07)
(8.94412 0.152292 -1.53497e-07)
(8.94412 0.152293 -1.16905e-07)
(8.94412 0.152293 -5.64496e-08)
(8.94406 0.152291 1.27734e-08)
(8.81217 0.147422 -4.5097e-08)
(8.81224 0.147424 -1.36572e-07)
(8.81224 0.147423 -1.98103e-07)
(8.81224 0.147423 -2.74958e-07)
(8.81224 0.147423 -3.31224e-07)
(8.81224 0.147423 -3.88015e-07)
(8.81224 0.147422 -4.32745e-07)
(8.81224 0.147422 -4.69733e-07)
(8.81224 0.147422 -4.93782e-07)
(8.81224 0.147421 -5.05125e-07)
(8.81224 0.147421 -5.01983e-07)
(8.81224 0.147421 -4.83023e-07)
(8.81224 0.14742 -4.48733e-07)
(8.81224 0.14742 -3.99437e-07)
(8.81224 0.14742 -3.35496e-07)
(8.81224 0.14742 -2.6238e-07)
(8.81224 0.14742 -1.74673e-07)
(8.81224 0.14742 -9.62267e-08)
(8.81224 0.14742 -2.71767e-08)
(8.81217 0.147418 -1.88826e-08)
(8.82452 0.0660757 -2.03813e-08)
(8.82459 0.0660764 8.5077e-09)
(8.82459 0.0660764 3.35013e-08)
(8.82459 0.0660765 3.19212e-08)
(8.82459 0.0660765 2.21557e-08)
(8.82459 0.0660765 -5.61064e-09)
(8.82459 0.0660765 -4.70844e-08)
(8.82459 0.0660765 -1.00358e-07)
(8.82458 0.0660765 -1.61585e-07)
(8.82458 0.0660765 -2.26638e-07)
(8.82458 0.0660765 -2.89856e-07)
(8.82458 0.0660766 -3.45044e-07)
(8.82458 0.0660766 -3.87049e-07)
(8.82458 0.0660765 -4.10132e-07)
(8.82458 0.0660765 -4.10922e-07)
(8.82458 0.0660765 -3.86523e-07)
(8.82458 0.0660764 -3.35611e-07)
(8.82458 0.0660763 -2.6458e-07)
(8.82458 0.0660762 -1.70523e-07)
(8.82451 0.0660755 -5.42139e-08)
(8.76182 0.058605 -3.30647e-08)
(8.76189 0.0586056 -1.1081e-07)
(8.76189 0.0586056 -1.7356e-07)
(8.76189 0.0586056 -2.44932e-07)
(8.76189 0.0586056 -2.9811e-07)
(8.76189 0.0586056 -3.45928e-07)
(8.76189 0.0586057 -3.82634e-07)
(8.76189 0.0586057 -4.11782e-07)
(8.76189 0.0586057 -4.32476e-07)
(8.76189 0.0586058 -4.453e-07)
(8.76189 0.0586058 -4.50545e-07)
(8.76189 0.0586058 -4.46556e-07)
(8.76189 0.0586058 -4.32059e-07)
(8.76189 0.0586057 -4.06817e-07)
(8.76189 0.0586057 -3.68714e-07)
(8.76189 0.0586056 -3.24057e-07)
(8.76189 0.0586055 -2.65436e-07)
(8.76189 0.0586054 -2.15136e-07)
(8.76189 0.0586052 -1.44871e-07)
(8.76182 0.0586046 -6.42193e-08)
(8.77366 0.00359975 -7.92658e-09)
(8.77373 0.00359984 2.94336e-08)
(8.77373 0.00359991 5.26545e-08)
(8.77373 0.00360001 5.44882e-08)
(8.77373 0.00360014 4.81963e-08)
(8.77373 0.00360029 3.0362e-08)
(8.77373 0.00360045 -1.07899e-09)
(8.77373 0.00360063 -4.55214e-08)
(8.77373 0.0036008 -1.04427e-07)
(8.77372 0.00360097 -1.75025e-07)
(8.77372 0.00360112 -2.54453e-07)
(8.77372 0.00360124 -3.37701e-07)
(8.77372 0.00360133 -4.15337e-07)
(8.77372 0.00360139 -4.81403e-07)
(8.77372 0.00360141 -5.24265e-07)
(8.77372 0.0036014 -5.42756e-07)
(8.77372 0.00360137 -5.19059e-07)
(8.77372 0.00360133 -4.64082e-07)
(8.77372 0.00360129 -3.3217e-07)
(8.77365 0.00360125 -1.0827e-07)
(8.76502 -0.0117114 -8.32937e-09)
(8.76509 -0.0117121 -3.18952e-08)
(8.76509 -0.011713 -4.67175e-08)
(8.76508 -0.0117144 -7.11687e-08)
(8.76508 -0.0117161 -9.04036e-08)
(8.76508 -0.0117181 -1.09495e-07)
(8.76508 -0.0117203 -1.29635e-07)
(8.76508 -0.0117226 -1.53465e-07)
(8.76508 -0.0117251 -1.84195e-07)
(8.76508 -0.0117275 -2.21893e-07)
(8.76508 -0.0117298 -2.66453e-07)
(8.76508 -0.011732 -3.1239e-07)
(8.76508 -0.011734 -3.52796e-07)
(8.76508 -0.0117358 -3.83552e-07)
(8.76508 -0.0117373 -3.93158e-07)
(8.76508 -0.0117387 -3.87671e-07)
(8.76508 -0.0117397 -3.48795e-07)
(8.76508 -0.0117405 -3.05526e-07)
(8.76508 -0.0117411 -1.93775e-07)
(8.76501 -0.0117412 -5.91741e-08)
(8.78044 -0.0573722 -3.74051e-07)
(8.78051 -0.0573731 -1.12771e-06)
(8.78051 -0.0573737 -1.83748e-06)
(8.78051 -0.0573745 -2.47981e-06)
(8.78051 -0.0573756 -3.02174e-06)
(8.78052 -0.0573769 -3.4566e-06)
(8.78052 -0.0573783 -3.77699e-06)
(8.78052 -0.0573799 -3.98454e-06)
(8.78052 -0.0573816 -4.08448e-06)
(8.78053 -0.0573832 -4.08337e-06)
(8.78053 -0.0573849 -3.99107e-06)
(8.78053 -0.0573865 -3.81783e-06)
(8.78053 -0.0573881 -3.57133e-06)
(8.78053 -0.0573895 -3.26482e-06)
(8.78054 -0.0573907 -2.90367e-06)
(8.78054 -0.0573918 -2.51012e-06)
(8.78054 -0.0573927 -2.07161e-06)
(8.78054 -0.0573934 -1.60844e-06)
(8.78054 -0.0573939 -1.0349e-06)
(8.78047 -0.0573935 -3.5518e-07)
(8.82389 -0.0743331 -2.71414e-07)
(8.82395 -0.0743339 -7.61983e-07)
(8.82395 -0.0743339 -1.23465e-06)
(8.82396 -0.074334 -1.67428e-06)
(8.82396 -0.0743341 -2.06057e-06)
(8.82396 -0.0743342 -2.38664e-06)
(8.82396 -0.0743343 -2.64749e-06)
(8.82396 -0.0743344 -2.84151e-06)
(8.82396 -0.0743346 -2.96919e-06)
(8.82396 -0.0743347 -3.03016e-06)
(8.82396 -0.0743348 -3.02565e-06)
(8.82396 -0.074335 -2.95519e-06)
(8.82396 -0.0743351 -2.81814e-06)
(8.82397 -0.0743352 -2.61888e-06)
(8.82397 -0.0743352 -2.35428e-06)
(8.82397 -0.0743353 -2.04694e-06)
(8.82397 -0.0743352 -1.68404e-06)
(8.82397 -0.0743352 -1.29676e-06)
(8.82397 -0.0743351 -8.08189e-07)
(8.8239 -0.0743342 -2.45023e-07)
(8.83947 -0.135228 -3.77784e-07)
(8.83954 -0.13523 -1.19935e-06)
(8.83954 -0.13523 -1.94312e-06)
(8.83954 -0.13523 -2.62158e-06)
(8.83954 -0.13523 -3.19524e-06)
(8.83954 -0.13523 -3.66067e-06)
(8.83954 -0.135231 -4.00777e-06)
(8.83954 -0.135231 -4.23691e-06)
(8.83955 -0.135231 -4.35062e-06)
(8.83955 -0.135231 -4.35469e-06)
(8.83955 -0.135232 -4.25667e-06)
(8.83955 -0.135232 -4.06425e-06)
(8.83955 -0.135232 -3.78508e-06)
(8.83956 -0.135232 -3.43082e-06)
(8.83956 -0.135233 -3.00792e-06)
(8.83956 -0.135233 -2.5462e-06)
(8.83956 -0.135233 -2.03651e-06)
(8.83956 -0.135233 -1.52792e-06)
(8.83956 -0.135233 -9.18269e-07)
(8.83949 -0.135232 -3.0835e-07)
(8.94868 -0.146445 -3.31648e-07)
(8.94875 -0.146446 -8.63505e-07)
(8.94875 -0.146447 -1.38577e-06)
(8.94875 -0.146447 -1.88134e-06)
(8.94875 -0.146447 -2.32764e-06)
(8.94875 -0.146447 -2.71471e-06)
(8.94875 -0.146447 -3.03454e-06)
(8.94875 -0.146448 -3.28325e-06)
(8.94875 -0.146448 -3.45801e-06)
(8.94875 -0.146448 -3.55606e-06)
(8.94875 -0.146449 -3.57447e-06)
(8.94875 -0.146449 -3.51061e-06)
(8.94876 -0.146449 -3.36046e-06)
(8.94876 -0.14645 -3.1257e-06)
(8.94876 -0.14645 -2.80304e-06)
(8.94876 -0.14645 -2.4184e-06)
(8.94876 -0.14645 -1.96388e-06)
(8.94876 -0.14645 -1.47442e-06)
(8.94876 -0.14645 -8.90867e-07)
(8.94869 -0.146448 -2.44761e-07)
(8.95506 -0.252007 -4.05665e-07)
(8.95513 -0.25201 -1.3509e-06)
(8.95513 -0.25201 -2.18819e-06)
(8.95513 -0.25201 -2.96146e-06)
(8.95513 -0.25201 -3.61306e-06)
(8.95513 -0.25201 -4.14916e-06)
(8.95513 -0.252011 -4.55003e-06)
(8.95514 -0.252011 -4.8155e-06)
(8.95514 -0.252011 -4.94494e-06)
(8.95514 -0.252011 -4.94294e-06)
(8.95514 -0.252012 -4.8163e-06)
(8.95515 -0.252012 -4.5737e-06)
(8.95515 -0.252012 -4.22499e-06)
(8.95515 -0.252013 -3.78499e-06)
(8.95515 -0.252013 -3.26848e-06)
(8.95515 -0.252013 -2.71602e-06)
(8.95515 -0.252014 -2.12319e-06)
(8.95515 -0.252014 -1.56649e-06)
(8.95516 -0.252014 -9.35874e-07)
(8.95509 -0.252012 -3.40057e-07)
(9.15271 -0.25478 -4.14774e-07)
(9.15278 -0.254783 -9.6778e-07)
(9.15278 -0.254783 -1.53568e-06)
(9.15278 -0.254783 -2.10626e-06)
(9.15278 -0.254783 -2.62545e-06)
(9.15278 -0.254784 -3.09318e-06)
(9.15278 -0.254784 -3.48739e-06)
(9.15278 -0.254784 -3.80639e-06)
(9.15278 -0.254785 -4.0399e-06)
(9.15278 -0.254785 -4.18288e-06)
(9.15278 -0.254786 -4.22878e-06)
(9.15279 -0.254786 -4.17294e-06)
(9.15279 -0.254786 -4.01029e-06)
(9.15279 -0.254787 -3.74304e-06)
(9.15279 -0.254787 -3.37287e-06)
(9.15279 -0.254787 -2.9242e-06)
(9.15279 -0.254787 -2.39226e-06)
(9.15279 -0.254787 -1.82276e-06)
(9.15279 -0.254787 -1.11824e-06)
(9.15272 -0.254785 -2.86342e-07)
(9.13888 -0.465946 -4.70531e-07)
(9.13895 -0.46595 -1.54442e-06)
(9.13895 -0.465951 -2.48495e-06)
(9.13895 -0.465951 -3.38529e-06)
(9.13895 -0.465951 -4.14287e-06)
(9.13895 -0.465952 -4.77571e-06)
(9.13896 -0.465952 -5.24864e-06)
(9.13896 -0.465952 -5.56553e-06)
(9.13896 -0.465953 -5.7196e-06)
(9.13897 -0.465953 -5.71562e-06)
(9.13897 -0.465954 -5.56021e-06)
(9.13897 -0.465955 -5.26468e-06)
(9.13897 -0.465955 -4.84446e-06)
(9.13897 -0.465955 -4.32305e-06)
(9.13898 -0.465956 -3.72086e-06)
(9.13898 -0.465956 -3.09072e-06)
(9.13898 -0.465957 -2.41672e-06)
(9.13898 -0.465957 -1.78447e-06)
(9.13898 -0.465957 -1.02394e-06)
(9.13891 -0.465953 -3.52367e-07)
(9.4468 -0.459828 -6.23394e-07)
(9.44687 -0.459832 -1.26756e-06)
(9.44687 -0.459832 -1.89859e-06)
(9.44687 -0.459832 -2.64672e-06)
(9.44687 -0.459832 -3.26349e-06)
(9.44687 -0.459832 -3.85508e-06)
(9.44687 -0.459832 -4.33623e-06)
(9.44687 -0.459832 -4.72944e-06)
(9.44687 -0.459832 -5.0078e-06)
(9.44687 -0.459832 -5.17054e-06)
(9.44687 -0.459832 -5.20889e-06)
(9.44687 -0.459832 -5.12136e-06)
(9.44687 -0.459832 -4.90681e-06)
(9.44687 -0.459832 -4.57397e-06)
(9.44687 -0.459832 -4.12366e-06)
(9.44687 -0.459832 -3.59187e-06)
(9.44687 -0.459832 -2.91559e-06)
(9.44687 -0.459832 -2.23385e-06)
(9.44687 -0.459832 -1.27936e-06)
(9.4468 -0.459828 -2.34997e-07)
(9.40113 -0.898463 -5.71384e-07)
(9.4012 -0.898471 -1.58303e-06)
(9.4012 -0.898471 -2.47891e-06)
(9.4012 -0.898472 -3.42221e-06)
(9.4012 -0.898473 -4.15384e-06)
(9.4012 -0.898473 -4.80791e-06)
(9.40121 -0.898474 -5.28825e-06)
(9.40121 -0.898475 -5.62492e-06)
(9.40121 -0.898476 -5.79377e-06)
(9.40121 -0.898476 -5.80381e-06)
(9.40121 -0.898477 -5.65725e-06)
(9.40122 -0.898478 -5.36743e-06)
(9.40122 -0.898478 -4.94748e-06)
(9.40122 -0.898479 -4.42899e-06)
(9.40122 -0.898479 -3.82227e-06)
(9.40122 -0.89848 -3.1936e-06)
(9.40122 -0.89848 -2.45514e-06)
(9.40122 -0.89848 -1.82351e-06)
(9.40122 -0.89848 -9.7445e-07)
(9.40115 -0.898473 -2.33796e-07)
(9.78972 -0.885904 3.92153e-07)
(9.78979 -0.88591 -1.91153e-06)
(9.78978 -0.885909 -2.43542e-06)
(9.78978 -0.885909 -3.7005e-06)
(9.78979 -0.88591 -4.4712e-06)
(9.78979 -0.88591 -5.25603e-06)
(9.78979 -0.88591 -5.8381e-06)
(9.78979 -0.885911 -6.29067e-06)
(9.78979 -0.885911 -6.56759e-06)
(9.78979 -0.885912 -6.67921e-06)
(9.78979 -0.885912 -6.61968e-06)
(9.78979 -0.885913 -6.39974e-06)
(9.78979 -0.885914 -6.02509e-06)
(9.78979 -0.885914 -5.52715e-06)
(9.78979 -0.885915 -4.89947e-06)
(9.78979 -0.885916 -4.23746e-06)
(9.78979 -0.885917 -3.34746e-06)
(9.78979 -0.885917 -2.8042e-06)
(9.7898 -0.885918 -1.31387e-06)
(9.78973 -0.885912 -1.469e-06)
(8.70239 0.688209 2.21288e-07)
(8.70245 0.688214 -3.20922e-07)
(8.70245 0.688214 -3.44437e-07)
(8.70245 0.688213 -6.46457e-07)
(8.70244 0.688213 -7.57117e-07)
(8.70244 0.688212 -9.58348e-07)
(8.70244 0.688211 -1.11173e-06)
(8.70244 0.68821 -1.27793e-06)
(8.70244 0.68821 -1.41292e-06)
(8.70244 0.688209 -1.5252e-06)
(8.70243 0.688209 -1.60146e-06)
(8.70243 0.688208 -1.63132e-06)
(8.70243 0.688208 -1.62144e-06)
(8.70243 0.688208 -1.56887e-06)
(8.70243 0.688208 -1.46576e-06)
(8.70243 0.688208 -1.3424e-06)
(8.70243 0.688208 -1.11676e-06)
(8.70243 0.688208 -1.00574e-06)
(8.70243 0.688208 -5.82126e-07)
(8.70236 0.688203 -6.03387e-07)
(8.80162 0.696801 -2.2346e-07)
(8.80169 0.696807 -7.54714e-07)
(8.80169 0.696808 -1.1696e-06)
(8.80169 0.696809 -1.61543e-06)
(8.80169 0.69681 -1.902e-06)
(8.80169 0.696812 -2.15382e-06)
(8.80169 0.696814 -2.30493e-06)
(8.80168 0.696816 -2.39066e-06)
(8.80168 0.696818 -2.39729e-06)
(8.80168 0.69682 -2.35118e-06)
(8.80168 0.696822 -2.24612e-06)
(8.80168 0.696824 -2.09624e-06)
(8.80168 0.696826 -1.91353e-06)
(8.80168 0.696827 -1.70323e-06)
(8.80168 0.696828 -1.47544e-06)
(8.80168 0.69683 -1.24871e-06)
(8.80168 0.696831 -9.81439e-07)
(8.80168 0.696831 -7.70945e-07)
(8.80168 0.696832 -4.50187e-07)
(8.80161 0.696826 -2.17304e-07)
(8.83867 0.442302 2.17043e-07)
(8.83873 0.442306 7.06677e-07)
(8.83873 0.442306 1.25704e-06)
(8.83873 0.442306 1.62618e-06)
(8.83873 0.442307 1.96278e-06)
(8.83873 0.442307 2.14119e-06)
(8.83873 0.442307 2.22684e-06)
(8.83873 0.442307 2.19679e-06)
(8.83873 0.442307 2.08435e-06)
(8.83873 0.442308 1.90228e-06)
(8.83873 0.442308 1.67469e-06)
(8.83873 0.442308 1.42383e-06)
(8.83872 0.442308 1.16344e-06)
(8.83872 0.442308 9.16846e-07)
(8.83872 0.442308 6.91228e-07)
(8.83872 0.442308 4.9446e-07)
(8.83872 0.442308 3.52037e-07)
(8.83872 0.442309 2.00418e-07)
(8.83872 0.442309 1.36862e-07)
(8.83866 0.442305 -3.54048e-09)
(8.76636 0.437897 -1.95996e-07)
(8.76643 0.437901 -6.07615e-07)
(8.76643 0.437901 -9.33005e-07)
(8.76643 0.4379 -1.26357e-06)
(8.76643 0.4379 -1.51193e-06)
(8.76643 0.4379 -1.7235e-06)
(8.76643 0.437899 -1.86258e-06)
(8.76643 0.437899 -1.94866e-06)
(8.76643 0.437898 -1.97158e-06)
(8.76643 0.437898 -1.94117e-06)
(8.76643 0.437897 -1.86096e-06)
(8.76643 0.437897 -1.73689e-06)
(8.76643 0.437897 -1.57885e-06)
(8.76643 0.437897 -1.39373e-06)
(8.76643 0.437897 -1.18932e-06)
(8.76643 0.437897 -9.79354e-07)
(8.76643 0.437897 -7.47038e-07)
(8.76643 0.437897 -5.32337e-07)
(8.76643 0.437897 -2.86479e-07)
(8.76636 0.437893 -1.29765e-07)
(8.78861 0.256637 1.20842e-07)
(8.78868 0.256639 4.61515e-07)
(8.78868 0.25664 8.22556e-07)
(8.78868 0.25664 1.09241e-06)
(8.78868 0.256641 1.31689e-06)
(8.78868 0.256641 1.45405e-06)
(8.78868 0.256642 1.52073e-06)
(8.78868 0.256642 1.51756e-06)
(8.78868 0.256643 1.4587e-06)
(8.78868 0.256644 1.35046e-06)
(8.78868 0.256644 1.21287e-06)
(8.78868 0.256645 1.0605e-06)
(8.78868 0.256646 8.99242e-07)
(8.78867 0.256646 7.48895e-07)
(8.78867 0.256647 6.09983e-07)
(8.78867 0.256647 4.96562e-07)
(8.78867 0.256647 4.05117e-07)
(8.78867 0.256648 3.21768e-07)
(8.78867 0.256648 2.3712e-07)
(8.78861 0.256646 7.22672e-08)
(8.71115 0.249596 -8.39279e-08)
(8.71121 0.249598 -2.2997e-07)
(8.71121 0.249598 -3.49867e-07)
(8.71121 0.249597 -4.74354e-07)
(8.71121 0.249597 -5.62525e-07)
(8.71121 0.249596 -6.44273e-07)
(8.71121 0.249596 -6.98744e-07)
(8.71121 0.249595 -7.35515e-07)
(8.71121 0.249594 -7.47445e-07)
(8.71122 0.249594 -7.3722e-07)
(8.71122 0.249593 -7.06214e-07)
(8.71122 0.249593 -6.53576e-07)
(8.71122 0.249592 -5.83952e-07)
(8.71122 0.249592 -5.0015e-07)
(8.71122 0.249591 -4.02901e-07)
(8.71122 0.249591 -3.05504e-07)
(8.71122 0.249591 -1.92787e-07)
(8.71122 0.24959 -1.0621e-07)
(8.71122 0.24959 -3.10373e-08)
(8.71115 0.249588 -1.59105e-08)
(8.72358 0.114815 7.7987e-09)
(8.72365 0.114816 1.31167e-07)
(8.72365 0.114816 2.52153e-07)
(8.72365 0.114816 3.38224e-07)
(8.72365 0.114816 4.06624e-07)
(8.72365 0.114816 4.41393e-07)
(8.72365 0.114817 4.48431e-07)
(8.72365 0.114817 4.27225e-07)
(8.72365 0.114817 3.83194e-07)
(8.72365 0.114817 3.23686e-07)
(8.72365 0.114817 2.52883e-07)
(8.72365 0.114817 1.80845e-07)
(8.72365 0.114817 1.12134e-07)
(8.72364 0.114817 5.61662e-08)
(8.72364 0.114817 1.65933e-08)
(8.72364 0.114817 -2.85048e-09)
(8.72364 0.114817 2.12608e-09)
(8.72364 0.114817 1.5171e-08)
(8.72364 0.114817 3.54197e-08)
(8.72358 0.114816 2.87334e-08)
(8.68365 0.102025 -6.12072e-08)
(8.68371 0.102026 -1.95839e-07)
(8.68371 0.102026 -3.05811e-07)
(8.68371 0.102025 -4.13674e-07)
(8.68371 0.102025 -4.89973e-07)
(8.68372 0.102025 -5.53295e-07)
(8.68372 0.102024 -5.93258e-07)
(8.68372 0.102024 -6.16559e-07)
(8.68372 0.102024 -6.21254e-07)
(8.68372 0.102023 -6.09384e-07)
(8.68372 0.102023 -5.83616e-07)
(8.68372 0.102022 -5.43333e-07)
(8.68372 0.102022 -4.9018e-07)
(8.68372 0.102022 -4.26911e-07)
(8.68372 0.102021 -3.51023e-07)
(8.68372 0.102021 -2.78003e-07)
(8.68372 0.102021 -1.88506e-07)
(8.68372 0.102021 -1.27753e-07)
(8.68372 0.10202 -5.48658e-08)
(8.68365 0.102019 -2.18e-08)
(8.69287 0.000693684 -5.51644e-08)
(8.69293 0.000693622 -6.43434e-08)
(8.69293 0.00069342 -8.20188e-08)
(8.69293 0.000693147 -1.07997e-07)
(8.69293 0.000692793 -1.32414e-07)
(8.69293 0.000692382 -1.59975e-07)
(8.69293 0.000691923 -1.91293e-07)
(8.69293 0.000691434 -2.28859e-07)
(8.69293 0.000690925 -2.73596e-07)
(8.69294 0.000690409 -3.22583e-07)
(8.69294 0.000689895 -3.76271e-07)
(8.69294 0.000689393 -4.29108e-07)
(8.69294 0.000688914 -4.73618e-07)
(8.69294 0.000688468 -5.05392e-07)
(8.69294 0.000688063 -5.11278e-07)
(8.69294 0.000687714 -4.96956e-07)
(8.69294 0.000687416 -4.35625e-07)
(8.69294 0.000687198 -3.61361e-07)
(8.69294 0.000687033 -2.09621e-07)
(8.69287 0.000686974 -2.82073e-08)
(8.69104 -0.0240954 -1.54899e-07)
(8.69111 -0.0240962 -4.52058e-07)
(8.69111 -0.0240971 -7.19218e-07)
(8.69111 -0.0240984 -9.6136e-07)
(8.69111 -0.0241001 -1.15937e-06)
(8.69111 -0.0241022 -1.31636e-06)
(8.69111 -0.0241044 -1.42754e-06)
(8.69111 -0.0241068 -1.4978e-06)
(8.69111 -0.0241092 -1.52957e-06)
(8.69111 -0.0241117 -1.52492e-06)
(8.69111 -0.0241141 -1.48851e-06)
(8.69111 -0.0241164 -1.42033e-06)
(8.69111 -0.0241185 -1.32029e-06)
(8.69111 -0.0241203 -1.19383e-06)
(8.69112 -0.024122 -1.03473e-06)
(8.69112 -0.0241234 -8.67333e-07)
(8.69112 -0.0241245 -6.63597e-07)
(8.69112 -0.0241253 -4.85042e-07)
(8.69112 -0.0241259 -2.43374e-07)
(8.69105 -0.0241259 -4.34438e-08)
(8.7025 -0.11339 -4.12927e-07)
(8.70256 -0.113391 -1.22908e-06)
(8.70256 -0.113391 -1.99226e-06)
(8.70256 -0.113392 -2.68089e-06)
(8.70256 -0.113393 -3.26169e-06)
(8.70256 -0.113394 -3.72831e-06)
(8.70256 -0.113395 -4.07167e-06)
(8.70256 -0.113396 -4.29339e-06)
(8.70256 -0.113397 -4.39887e-06)
(8.70256 -0.113398 -4.39449e-06)
(8.70256 -0.1134 -4.29019e-06)
(8.70256 -0.113401 -4.0956e-06)
(8.70256 -0.113402 -3.819e-06)
(8.70256 -0.113403 -3.47427e-06)
(8.70256 -0.113404 -3.06336e-06)
(8.70256 -0.113405 -2.6161e-06)
(8.70256 -0.113405 -2.10366e-06)
(8.70256 -0.113406 -1.58237e-06)
(8.70256 -0.113406 -9.48769e-07)
(8.7025 -0.113405 -2.90499e-07)
(8.74124 -0.138906 -3.75269e-07)
(8.74131 -0.138907 -1.00507e-06)
(8.74131 -0.138908 -1.60351e-06)
(8.74131 -0.138908 -2.14767e-06)
(8.74131 -0.138908 -2.61722e-06)
(8.74131 -0.138909 -3.00186e-06)
(8.74131 -0.138909 -3.29497e-06)
(8.74131 -0.13891 -3.49549e-06)
(8.74131 -0.13891 -3.60516e-06)
(8.74131 -0.138911 -3.62452e-06)
(8.74131 -0.138912 -3.55762e-06)
(8.74131 -0.138912 -3.40717e-06)
(8.74131 -0.138913 -3.17491e-06)
(8.74131 -0.138913 -2.87337e-06)
(8.74131 -0.138913 -2.49824e-06)
(8.74131 -0.138913 -2.08758e-06)
(8.74131 -0.138914 -1.61602e-06)
(8.74131 -0.138914 -1.15704e-06)
(8.74131 -0.138914 -6.3308e-07)
(8.74124 -0.138912 -1.31269e-07)
(8.7492 -0.252565 -4.759e-07)
(8.74927 -0.252567 -1.50293e-06)
(8.74927 -0.252567 -2.43835e-06)
(8.74927 -0.252567 -3.28602e-06)
(8.74927 -0.252568 -3.99759e-06)
(8.74927 -0.252568 -4.57613e-06)
(8.74927 -0.252568 -5.00226e-06)
(8.74927 -0.252568 -5.27823e-06)
(8.74927 -0.252568 -5.40499e-06)
(8.74927 -0.252569 -5.38957e-06)
(8.74927 -0.252569 -5.24241e-06)
(8.74927 -0.252569 -4.97389e-06)
(8.74927 -0.252569 -4.59641e-06)
(8.74927 -0.25257 -4.12703e-06)
(8.74927 -0.25257 -3.5749e-06)
(8.74927 -0.25257 -2.97716e-06)
(8.74927 -0.25257 -2.31036e-06)
(8.74927 -0.25257 -1.66913e-06)
(8.74927 -0.25257 -9.4637e-07)
(8.7492 -0.252568 -2.97012e-07)
(8.83379 -0.267869 -4.38338e-07)
(8.83386 -0.267871 -1.10093e-06)
(8.83386 -0.267871 -1.73243e-06)
(8.83386 -0.267872 -2.32354e-06)
(8.83386 -0.267872 -2.84468e-06)
(8.83386 -0.267872 -3.28565e-06)
(8.83386 -0.267873 -3.63408e-06)
(8.83386 -0.267873 -3.88742e-06)
(8.83386 -0.267874 -4.04207e-06)
(8.83386 -0.267874 -4.09678e-06)
(8.83386 -0.267875 -4.05093e-06)
(8.83386 -0.267875 -3.90484e-06)
(8.83386 -0.267875 -3.65808e-06)
(8.83386 -0.267876 -3.32006e-06)
(8.83386 -0.267876 -2.88843e-06)
(8.83385 -0.267876 -2.39957e-06)
(8.83385 -0.267876 -1.83728e-06)
(8.83385 -0.267876 -1.28155e-06)
(8.83385 -0.267876 -6.83737e-07)
(8.83379 -0.267874 -1.23748e-07)
(8.83106 -0.436412 -5.37634e-07)
(8.83113 -0.436416 -1.73651e-06)
(8.83113 -0.436416 -2.80433e-06)
(8.83113 -0.436416 -3.78149e-06)
(8.83113 -0.436417 -4.59165e-06)
(8.83113 -0.436417 -5.26478e-06)
(8.83113 -0.436417 -5.75998e-06)
(8.83113 -0.436417 -6.0818e-06)
(8.83113 -0.436417 -6.22478e-06)
(8.83113 -0.436418 -6.1971e-06)
(8.83113 -0.436418 -6.00888e-06)
(8.83113 -0.436418 -5.67372e-06)
(8.83113 -0.436418 -5.20981e-06)
(8.83113 -0.436419 -4.63686e-06)
(8.83113 -0.436419 -3.97468e-06)
(8.83113 -0.436419 -3.26317e-06)
(8.83113 -0.436419 -2.4759e-06)
(8.83113 -0.43642 -1.73727e-06)
(8.83113 -0.43642 -9.377e-07)
(8.83106 -0.436416 -3.00627e-07)
(8.95491 -0.439219 -4.77441e-07)
(8.95498 -0.439223 -1.18649e-06)
(8.95498 -0.439223 -1.82349e-06)
(8.95498 -0.439223 -2.47353e-06)
(8.95498 -0.439223 -3.05186e-06)
(8.95498 -0.439224 -3.56219e-06)
(8.95498 -0.439224 -3.97485e-06)
(8.95498 -0.439224 -4.29549e-06)
(8.95498 -0.439225 -4.50926e-06)
(8.95498 -0.439225 -4.61499e-06)
(8.95498 -0.439225 -4.60545e-06)
(8.95498 -0.439226 -4.48006e-06)
(8.95498 -0.439226 -4.23403e-06)
(8.95498 -0.439226 -3.87582e-06)
(8.95497 -0.439226 -3.40681e-06)
(8.95497 -0.439227 -2.85966e-06)
(8.95497 -0.439227 -2.22354e-06)
(8.95497 -0.439227 -1.57114e-06)
(8.95497 -0.439227 -8.20746e-07)
(8.95491 -0.439223 -1.65653e-07)
(8.93339 -0.686265 -6.09753e-07)
(8.93346 -0.686272 -1.96545e-06)
(8.93346 -0.686271 -3.09533e-06)
(8.93346 -0.686271 -4.17901e-06)
(8.93346 -0.686271 -5.08358e-06)
(8.93346 -0.686271 -5.83642e-06)
(8.93346 -0.686271 -6.38288e-06)
(8.93346 -0.686271 -6.7382e-06)
(8.93346 -0.686271 -6.88807e-06)
(8.93346 -0.686271 -6.84459e-06)
(8.93346 -0.686271 -6.61823e-06)
(8.93346 -0.686271 -6.2274e-06)
(8.93346 -0.686272 -5.69356e-06)
(8.93346 -0.686272 -5.04857e-06)
(8.93346 -0.686272 -4.3105e-06)
(8.93346 -0.686272 -3.53396e-06)
(8.93346 -0.686272 -2.67567e-06)
(8.93346 -0.686273 -1.84035e-06)
(8.93346 -0.686273 -9.0441e-07)
(8.93339 -0.686267 -2.83512e-07)
(9.03322 -0.676148 -4.57941e-07)
(9.03329 -0.676154 -1.16082e-06)
(9.03329 -0.676153 -1.71895e-06)
(9.03329 -0.676153 -2.40015e-06)
(9.03329 -0.676153 -2.94149e-06)
(9.03329 -0.676153 -3.48435e-06)
(9.03329 -0.676152 -3.92283e-06)
(9.03329 -0.676152 -4.29661e-06)
(9.03329 -0.676152 -4.5681e-06)
(9.03329 -0.676151 -4.7403e-06)
(9.03329 -0.676151 -4.7982e-06)
(9.03328 -0.676151 -4.74126e-06)
(9.03328 -0.67615 -4.55531e-06)
(9.03328 -0.67615 -4.25532e-06)
(9.03328 -0.67615 -3.81926e-06)
(9.03328 -0.67615 -3.29905e-06)
(9.03328 -0.676149 -2.61263e-06)
(9.03328 -0.676149 -1.94661e-06)
(9.03328 -0.676149 -1.07112e-06)
(9.03321 -0.676143 -2.97538e-07)
(8.97825 -1.0358 -5.21181e-07)
(8.97831 -1.03581 -1.80367e-06)
(8.97831 -1.03581 -2.8514e-06)
(8.97831 -1.03581 -3.92479e-06)
(8.97831 -1.03582 -4.72702e-06)
(8.97831 -1.03582 -5.43567e-06)
(8.97831 -1.03582 -5.9299e-06)
(8.97831 -1.03582 -6.26081e-06)
(8.97831 -1.03582 -6.39427e-06)
(8.97831 -1.03582 -6.34853e-06)
(8.97831 -1.03582 -6.13017e-06)
(8.97831 -1.03582 -5.76032e-06)
(8.97831 -1.03582 -5.24729e-06)
(8.9783 -1.03583 -4.64606e-06)
(8.9783 -1.03583 -3.9506e-06)
(8.9783 -1.03583 -3.24138e-06)
(8.9783 -1.03583 -2.39278e-06)
(8.9783 -1.03583 -1.71691e-06)
(8.9783 -1.03583 -8.01048e-07)
(8.97823 -1.03582 -2.34026e-07)
(8.80539 -0.990085 -1.45564e-06)
(8.80545 -0.990092 -1.87606e-06)
(8.80544 -0.990091 -2.68952e-06)
(8.80544 -0.990091 -3.81333e-06)
(8.80544 -0.990091 -4.60469e-06)
(8.80544 -0.990091 -5.39754e-06)
(8.80544 -0.990091 -5.99261e-06)
(8.80544 -0.990091 -6.46571e-06)
(8.80543 -0.990091 -6.75901e-06)
(8.80543 -0.990091 -6.8875e-06)
(8.80543 -0.990092 -6.8406e-06)
(8.80543 -0.990092 -6.6332e-06)
(8.80543 -0.990093 -6.2537e-06)
(8.80543 -0.990093 -5.75581e-06)
(8.80543 -0.990094 -5.11148e-06)
(8.80543 -0.990095 -4.40907e-06)
(8.80542 -0.990095 -3.46924e-06)
(8.80542 -0.990096 -2.72348e-06)
(8.80543 -0.990097 -1.46466e-06)
(8.80537 -0.990091 3.38627e-07)
(8.87521 0.752089 2.97096e-07)
(8.87528 0.752096 -3.62113e-07)
(8.87528 0.752095 1.02527e-07)
(8.87528 0.752095 5.24591e-08)
(8.87528 0.752094 1.74846e-07)
(8.87528 0.752093 1.34778e-07)
(8.87527 0.752092 1.22853e-07)
(8.87527 0.752091 5.8745e-08)
(8.87527 0.75209 -9.26069e-09)
(8.87527 0.752089 -9.04986e-08)
(8.87527 0.752088 -1.71605e-07)
(8.87527 0.752087 -2.45328e-07)
(8.87527 0.752087 -3.08163e-07)
(8.87527 0.752086 -3.59627e-07)
(8.87527 0.752085 -3.74143e-07)
(8.87527 0.752085 -3.96121e-07)
(8.87527 0.752084 -2.7587e-07)
(8.87527 0.752084 -2.98483e-07)
(8.87527 0.752084 1.94609e-07)
(8.8752 0.752077 -4.21859e-07)
(8.73386 0.757135 -4.8807e-07)
(8.73393 0.757141 -6.87524e-07)
(8.73393 0.757141 -7.771e-07)
(8.73393 0.757142 -1.00551e-06)
(8.73393 0.757142 -1.1537e-06)
(8.73393 0.757143 -1.33902e-06)
(8.73393 0.757144 -1.46897e-06)
(8.73393 0.757145 -1.58071e-06)
(8.73393 0.757146 -1.64821e-06)
(8.73393 0.757147 -1.68378e-06)
(8.73392 0.757148 -1.681e-06)
(8.73392 0.757149 -1.64224e-06)
(8.73392 0.757149 -1.57505e-06)
(8.73392 0.75715 -1.47979e-06)
(8.73392 0.757151 -1.3493e-06)
(8.73392 0.757151 -1.2079e-06)
(8.73392 0.757152 -9.83381e-07)
(8.73392 0.757152 -7.50496e-07)
(8.73392 0.757153 -3.27347e-07)
(8.73386 0.757147 7.51745e-08)
(8.77151 0.478448 -1.13916e-07)
(8.77158 0.478452 4.09172e-07)
(8.77158 0.478452 8.62473e-07)
(8.77158 0.478452 1.16029e-06)
(8.77157 0.478452 1.45212e-06)
(8.77157 0.478452 1.60013e-06)
(8.77157 0.478452 1.6879e-06)
(8.77157 0.478452 1.68427e-06)
(8.77157 0.478452 1.62055e-06)
(8.77157 0.478452 1.50554e-06)
(8.77157 0.478452 1.3546e-06)
(8.77157 0.478452 1.18538e-06)
(8.77157 0.478452 1.0046e-06)
(8.77157 0.478452 8.29832e-07)
(8.77157 0.478452 6.69712e-07)
(8.77157 0.478452 5.22787e-07)
(8.77157 0.478452 4.37704e-07)
(8.77157 0.478452 3.21865e-07)
(8.77157 0.478452 2.69754e-07)
(8.77151 0.478449 2.6771e-07)
(8.67649 0.477944 -2.53047e-07)
(8.67655 0.477948 -5.22706e-07)
(8.67655 0.477948 -7.42248e-07)
(8.67655 0.477948 -9.83932e-07)
(8.67655 0.477948 -1.17986e-06)
(8.67655 0.477948 -1.36321e-06)
(8.67655 0.477948 -1.49797e-06)
(8.67655 0.477948 -1.59924e-06)
(8.67655 0.477948 -1.65301e-06)
(8.67655 0.477948 -1.66319e-06)
(8.67655 0.477948 -1.63038e-06)
(8.67655 0.477948 -1.55713e-06)
(8.67655 0.477949 -1.45071e-06)
(8.67655 0.477949 -1.31621e-06)
(8.67655 0.477949 -1.15432e-06)
(8.67655 0.477949 -9.76269e-07)
(8.67655 0.477949 -7.49202e-07)
(8.67655 0.477949 -5.00118e-07)
(8.67655 0.477949 -2.31041e-07)
(8.67648 0.477946 -3.4882e-08)
(8.69711 0.27624 6.89605e-08)
(8.69718 0.276242 4.83855e-07)
(8.69718 0.276242 8.84807e-07)
(8.69718 0.276243 1.20226e-06)
(8.69718 0.276243 1.46313e-06)
(8.69718 0.276243 1.63297e-06)
(8.69718 0.276244 1.73037e-06)
(8.69718 0.276244 1.75217e-06)
(8.69718 0.276245 1.70929e-06)
(8.69718 0.276245 1.62211e-06)
(8.69718 0.276246 1.50136e-06)
(8.69717 0.276246 1.35787e-06)
(8.69717 0.276247 1.20114e-06)
(8.69717 0.276247 1.04934e-06)
(8.69717 0.276248 9.02405e-07)
(8.69717 0.276248 7.78371e-07)
(8.69717 0.276248 6.77749e-07)
(8.69717 0.276248 5.72359e-07)
(8.69717 0.276249 4.33648e-07)
(8.69711 0.276247 2.03016e-07)