/*--------------------------------*- C++ -*----------------------------------*\
| =========                 |                                                 |
| \\      /  F ield         | OpenFOAM: The Open Source CFD Toolbox           |
|  \\    /   O peration     | Version:  2212                                  |
|   \\  /    A nd           | Website:  www.openfoam.com                      |
|    \\/     M anipulation  |                                                 |
\*---------------------------------------------------------------------------*/
FoamFile
{
    version     2.0;
    format      ascii;
    arch        "LSB;label=32;scalar=64";
    class       volScalarField;
    location    "5.2e-05";
    object      T;
}
// * * * * * * * * * * * * * * * * * * * * * * * * * * * * * * * * * * * * * //

dimensions      [0 0 0 1 0 0 0];

internalField   nonuniform List<scalar> 
17100
(
399.996
399.998
400.002
400.001
400
400
400.001
400.001
400.001
400.001
400.001
400.001
400.001
400.001
400.001
400.001
400.001
400.001
400.001
400.001
400.001
400.001
400.001
400
400
400
400
399.999
399.999
399.999
399.999
399.998
399.998
399.998
399.998
399.998
399.998
399.997
399.997
399.997
399.997
399.997
399.997
399.997
399.997
399.997
399.997
399.997
399.997
399.997
399.998
399.998
399.998
399.998
399.998
399.994
400.003
400.005
399.967
399.975
399.995
400.006
400.01
400.012
400.013
400.013
400.013
400.013
400.012
400.012
400.011
400.01
400.01
400.009
400.008
400.007
400.006
400.006
400.005
400.004
400.003
400.002
400.001
399.999
399.998
399.997
399.996
399.995
399.994
399.993
399.992
399.991
399.99
399.989
399.988
399.987
399.986
399.985
399.985
399.984
399.983
399.982
399.982
399.981
399.98
399.979
399.979
399.979
399.979
399.981
399.986
400.002
400.054
400.105
399.843
399.855
399.887
399.927
399.964
399.989
400.006
400.016
400.021
400.024
400.025
400.025
400.025
400.024
400.022
400.021
400.019
400.018
400.016
400.014
400.012
400.01
400.008
400.006
400.004
400.002
400
399.997
399.995
399.993
399.99
399.988
399.986
399.984
399.981
399.979
399.977
399.975
399.973
399.971
399.969
399.968
399.966
399.964
399.962
399.961
399.96
399.959
399.959
399.96
399.963
399.969
399.982
400.004
400.042
400.096
400.137
399.904
399.908
399.92
399.938
399.96
399.982
399.999
400.013
400.022
400.028
400.032
400.034
400.034
400.034
400.033
400.031
400.029
400.027
400.025
400.022
400.019
400.016
400.013
400.01
400.006
400.003
399.999
399.996
399.992
399.988
399.985
399.981
399.978
399.974
399.971
399.967
399.964
399.961
399.958
399.955
399.952
399.95
399.947
399.945
399.943
399.941
399.941
399.941
399.942
399.944
399.949
399.957
399.967
399.981
399.996
400.003
400.007
400.047
400.042
400.033
400.027
400.023
400.022
400.026
400.032
400.037
400.041
400.043
400.044
400.045
400.044
400.043
400.041
400.038
400.036
400.033
400.029
400.025
400.021
400.017
400.013
400.008
400.003
399.999
399.994
399.989
399.984
399.979
399.974
399.969
399.964
399.959
399.955
399.95
399.946
399.942
399.938
399.934
399.931
399.928
399.925
399.922
399.92
399.918
399.916
399.915
399.914
399.912
399.909
399.904
399.895
399.876
399.851
399.836
400.197
400.187
400.167
400.143
400.121
400.103
400.091
400.084
400.078
400.074
400.07
400.067
400.064
400.061
400.058
400.054
400.05
400.046
400.042
400.037
400.032
400.027
400.021
400.015
400.009
400.003
399.997
399.991
399.984
399.978
399.971
399.965
399.959
399.953
399.946
399.94
399.935
399.929
399.923
399.918
399.913
399.908
399.903
399.898
399.892
399.887
399.881
399.874
399.867
399.857
399.845
399.829
399.807
399.777
399.737
399.695
399.673
400.327
400.316
400.292
400.26
400.228
400.2
400.176
400.156
400.14
400.127
400.115
400.106
400.097
400.089
400.082
400.075
400.068
400.061
400.055
400.048
400.04
400.033
400.026
400.018
400.011
400.003
399.995
399.987
399.979
399.971
399.963
399.955
399.947
399.939
399.931
399.923
399.915
399.908
399.9
399.892
399.884
399.876
399.868
399.859
399.849
399.839
399.827
399.813
399.797
399.778
399.756
399.728
399.694
399.654
399.606
399.561
399.538
400.427
400.418
400.394
400.363
400.328
400.295
400.264
400.237
400.213
400.191
400.173
400.156
400.142
400.128
400.116
400.104
400.093
400.083
400.072
400.062
400.052
400.042
400.033
400.023
400.013
400.003
399.993
399.983
399.973
399.963
399.953
399.942
399.932
399.922
399.912
399.902
399.891
399.881
399.87
399.859
399.847
399.835
399.823
399.809
399.794
399.778
399.759
399.739
399.715
399.689
399.659
399.625
399.586
399.543
399.496
399.454
399.433
400.502
400.493
400.472
400.444
400.411
400.377
400.344
400.313
400.284
400.258
400.234
400.211
400.191
400.172
400.155
400.139
400.123
400.108
400.094
400.081
400.067
400.054
400.041
400.028
400.016
400.003
399.991
399.978
399.965
399.953
399.94
399.928
399.915
399.902
399.889
399.876
399.862
399.848
399.834
399.819
399.804
399.788
399.77
399.752
399.732
399.71
399.686
399.66
399.632
399.601
399.567
399.531
399.492
399.451
399.408
399.372
399.355
400.556
400.547
400.528
400.502
400.473
400.441
400.409
400.377
400.346
400.317
400.289
400.263
400.239
400.216
400.194
400.173
400.154
400.135
400.117
400.1
400.083
400.066
400.05
400.034
400.019
400.003
399.988
399.973
399.957
399.942
399.927
399.911
399.896
399.88
399.864
399.848
399.831
399.814
399.796
399.777
399.758
399.738
399.716
399.694
399.67
399.644
399.617
399.588
399.557
399.524
399.49
399.454
399.417
399.38
399.343
399.312
399.296
400.592
400.583
400.565
400.542
400.516
400.486
400.456
400.425
400.394
400.364
400.335
400.306
400.279
400.253
400.228
400.204
400.181
400.159
400.138
400.117
400.097
400.078
400.059
400.04
400.021
400.003
399.985
399.967
399.949
399.931
399.913
399.895
399.876
399.858
399.839
399.82
399.8
399.779
399.759
399.737
399.714
399.691
399.667
399.641
399.614
399.586
399.557
399.526
399.495
399.462
399.428
399.395
399.36
399.327
399.294
399.267
399.253
400.614
400.606
400.589
400.568
400.543
400.516
400.487
400.457
400.427
400.397
400.367
400.338
400.31
400.282
400.255
400.229
400.204
400.179
400.156
400.132
400.109
400.087
400.065
400.044
400.023
400.002
399.982
399.961
399.941
399.921
399.9
399.88
399.859
399.838
399.816
399.795
399.772
399.749
399.726
399.701
399.676
399.651
399.624
399.597
399.568
399.539
399.509
399.478
399.446
399.414
399.382
399.35
399.318
399.287
399.258
399.233
399.22
400.627
400.618
400.602
400.582
400.559
400.533
400.506
400.477
400.448
400.418
400.388
400.359
400.33
400.302
400.274
400.247
400.22
400.194
400.169
400.144
400.119
400.095
400.071
400.048
400.025
400.002
399.979
399.957
399.934
399.911
399.889
399.866
399.843
399.82
399.796
399.773
399.748
399.724
399.698
399.672
399.646
399.619
399.591
399.562
399.533
399.503
399.472
399.441
399.41
399.379
399.347
399.317
399.287
399.258
399.231
399.208
399.196
400.632
400.623
400.608
400.588
400.566
400.542
400.515
400.488
400.459
400.431
400.401
400.372
400.343
400.315
400.286
400.258
400.231
400.204
400.178
400.151
400.126
400.1
400.075
400.05
400.025
400.001
399.977
399.952
399.928
399.904
399.88
399.855
399.831
399.806
399.781
399.755
399.73
399.704
399.677
399.65
399.623
399.594
399.566
399.536
399.506
399.476
399.445
399.414
399.383
399.353
399.322
399.293
399.264
399.237
399.212
399.19
399.178
400.632
400.622
400.607
400.589
400.567
400.544
400.519
400.492
400.465
400.437
400.408
400.38
400.351
400.322
400.294
400.266
400.238
400.21
400.183
400.156
400.129
400.103
400.077
400.051
400.025
399.999
399.974
399.949
399.923
399.898
399.873
399.847
399.821
399.795
399.769
399.743
399.716
399.689
399.661
399.633
399.605
399.576
399.546
399.517
399.486
399.456
399.425
399.394
399.364
399.334
399.304
399.276
399.248
399.222
399.198
399.177
399.166
400.627
400.618
400.604
400.586
400.565
400.543
400.519
400.493
400.467
400.439
400.411
400.383
400.355
400.326
400.298
400.269
400.241
400.213
400.185
400.158
400.131
400.104
400.077
400.051
400.024
399.998
399.972
399.946
399.92
399.893
399.867
399.841
399.814
399.787
399.76
399.733
399.705
399.677
399.649
399.62
399.591
399.561
399.532
399.502
399.471
399.441
399.41
399.38
399.35
399.32
399.291
399.263
399.237
399.212
399.188
399.169
399.158
400.621
400.612
400.598
400.581
400.561
400.539
400.516
400.491
400.465
400.438
400.411
400.383
400.355
400.327
400.298
400.27
400.242
400.214
400.186
400.158
400.131
400.104
400.077
400.05
400.023
399.997
399.97
399.943
399.917
399.89
399.863
399.836
399.808
399.781
399.753
399.725
399.697
399.668
399.64
399.61
399.581
399.551
399.521
399.491
399.46
399.43
399.4
399.37
399.34
399.311
399.283
399.256
399.23
399.206
399.183
399.165
399.154
400.613
400.604
400.59
400.573
400.554
400.533
400.511
400.487
400.461
400.435
400.408
400.381
400.353
400.325
400.297
400.269
400.241
400.213
400.185
400.158
400.131
400.103
400.076
400.049
400.022
399.995
399.968
399.941
399.914
399.887
399.86
399.832
399.804
399.776
399.748
399.72
399.691
399.662
399.633
399.604
399.574
399.544
399.514
399.483
399.453
399.423
399.393
399.363
399.333
399.305
399.277
399.251
399.226
399.203
399.181
399.163
399.153
400.603
400.594
400.58
400.564
400.545
400.525
400.503
400.48
400.455
400.43
400.403
400.376
400.349
400.322
400.294
400.267
400.239
400.212
400.184
400.157
400.13
400.102
400.075
400.048
400.021
399.994
399.967
399.94
399.912
399.885
399.857
399.829
399.801
399.773
399.745
399.716
399.687
399.658
399.629
399.599
399.569
399.539
399.509
399.479
399.449
399.418
399.388
399.359
399.33
399.302
399.275
399.249
399.225
399.202
399.181
399.164
399.154
400.592
400.583
400.569
400.553
400.535
400.516
400.494
400.472
400.448
400.423
400.397
400.371
400.345
400.318
400.291
400.264
400.237
400.21
400.183
400.156
400.129
400.101
400.074
400.047
400.02
399.993
399.966
399.938
399.911
399.883
399.855
399.827
399.799
399.771
399.742
399.714
399.685
399.656
399.626
399.597
399.567
399.537
399.507
399.476
399.446
399.416
399.387
399.357
399.329
399.301
399.275
399.249
399.226
399.204
399.184
399.167
399.157
400.581
400.572
400.558
400.543
400.525
400.506
400.486
400.464
400.44
400.416
400.392
400.366
400.34
400.314
400.288
400.261
400.235
400.208
400.181
400.154
400.127
400.101
400.074
400.047
400.019
399.992
399.965
399.937
399.91
399.882
399.854
399.826
399.798
399.77
399.741
399.712
399.683
399.654
399.625
399.595
399.565
399.535
399.506
399.476
399.446
399.416
399.387
399.358
399.33
399.302
399.276
399.252
399.229
399.207
399.188
399.171
399.162
400.569
400.56
400.547
400.532
400.515
400.497
400.477
400.456
400.434
400.41
400.386
400.361
400.336
400.311
400.285
400.259
400.233
400.206
400.18
400.153
400.126
400.1
400.073
400.046
400.019
399.991
399.964
399.936
399.909
399.881
399.853
399.825
399.797
399.769
399.74
399.711
399.682
399.653
399.624
399.594
399.565
399.535
399.505
399.476
399.446
399.417
399.388
399.359
399.332
399.305
399.279
399.255
399.233
399.212
399.193
399.178
399.168
400.558
400.55
400.537
400.522
400.506
400.488
400.469
400.449
400.427
400.404
400.381
400.357
400.332
400.307
400.282
400.256
400.23
400.204
400.178
400.152
400.125
400.098
400.072
400.045
400.018
399.99
399.963
399.936
399.908
399.88
399.852
399.824
399.796
399.768
399.739
399.71
399.681
399.652
399.623
399.594
399.564
399.535
399.505
399.476
399.447
399.418
399.389
399.361
399.334
399.308
399.283
399.26
399.239
399.219
399.2
399.185
399.176
400.547
400.539
400.527
400.512
400.497
400.48
400.461
400.441
400.42
400.398
400.375
400.352
400.328
400.303
400.278
400.253
400.228
400.202
400.176
400.15
400.124
400.097
400.07
400.043
400.017
399.989
399.962
399.935
399.907
399.879
399.852
399.824
399.795
399.767
399.739
399.71
399.681
399.652
399.623
399.594
399.564
399.535
399.506
399.477
399.448
399.419
399.392
399.364
399.338
399.312
399.288
399.266
399.245
399.226
399.208
399.194
399.185
400.537
400.529
400.516
400.503
400.488
400.471
400.453
400.434
400.413
400.392
400.37
400.347
400.323
400.299
400.275
400.25
400.225
400.199
400.174
400.148
400.122
400.095
400.069
400.042
400.015
399.988
399.961
399.934
399.906
399.879
399.851
399.823
399.795
399.767
399.739
399.71
399.681
399.652
399.623
399.594
399.565
399.536
399.507
399.478
399.45
399.422
399.394
399.368
399.342
399.317
399.293
399.272
399.251
399.233
399.216
399.203
399.194
400.526
400.518
400.506
400.493
400.478
400.462
400.445
400.426
400.406
400.386
400.364
400.341
400.318
400.295
400.271
400.246
400.221
400.196
400.171
400.145
400.119
400.093
400.067
400.041
400.014
399.987
399.96
399.933
399.906
399.878
399.851
399.823
399.795
399.767
399.739
399.71
399.682
399.653
399.624
399.595
399.566
399.538
399.509
399.481
399.452
399.425
399.398
399.372
399.346
399.322
399.299
399.278
399.259
399.241
399.225
399.212
399.204
400.515
400.507
400.496
400.482
400.468
400.453
400.436
400.418
400.399
400.378
400.357
400.335
400.313
400.289
400.266
400.242
400.217
400.192
400.167
400.142
400.117
400.091
400.065
400.039
400.012
399.986
399.959
399.932
399.905
399.878
399.85
399.823
399.795
399.767
399.739
399.711
399.682
399.654
399.625
399.597
399.568
399.54
399.511
399.483
399.456
399.429
399.402
399.376
399.351
399.328
399.306
399.285
399.266
399.249
399.234
399.221
399.214
400.504
400.496
400.484
400.472
400.458
400.443
400.426
400.409
400.39
400.37
400.349
400.328
400.306
400.283
400.26
400.236
400.212
400.188
400.163
400.138
400.113
400.087
400.062
400.036
400.01
399.983
399.957
399.93
399.903
399.876
399.849
399.822
399.794
399.767
399.739
399.711
399.683
399.655
399.627
399.598
399.57
399.542
399.514
399.487
399.459
399.433
399.407
399.381
399.357
399.334
399.313
399.293
399.275
399.258
399.244
399.232
399.224
400.493
400.484
400.473
400.46
400.447
400.432
400.416
400.398
400.38
400.361
400.34
400.319
400.298
400.276
400.253
400.23
400.206
400.182
400.158
400.133
400.108
400.083
400.058
400.032
400.006
399.98
399.954
399.927
399.901
399.874
399.847
399.82
399.793
399.766
399.739
399.711
399.683
399.656
399.628
399.6
399.572
399.545
399.517
399.49
399.463
399.437
399.412
399.387
399.364
399.342
399.321
399.302
399.284
399.269
399.254
399.243
399.236
400.48
400.472
400.461
400.448
400.435
400.42
400.404
400.387
400.369
400.35
400.331
400.31
400.289
400.267
400.245
400.222
400.199
400.175
400.151
400.127
400.102
400.077
400.052
400.027
400.001
399.976
399.95
399.924
399.897
399.871
399.845
399.818
399.791
399.764
399.737
399.71
399.683
399.656
399.628
399.601
399.574
399.547
399.52
399.494
399.468
399.442
399.418
399.394
399.371
399.35
399.33
399.312
399.295
399.28
399.266
399.255
399.248
400.468
400.459
400.448
400.435
400.422
400.408
400.393
400.376
400.358
400.34
400.32
400.3
400.28
400.258
400.236
400.214
400.191
400.168
400.144
400.12
400.096
400.071
400.046
400.021
399.996
399.971
399.945
399.919
399.893
399.867
399.841
399.815
399.788
399.762
399.735
399.708
399.682
399.655
399.628
399.602
399.575
399.549
399.523
399.497
399.472
399.447
399.424
399.401
399.379
399.359
399.339
399.322
399.306
399.291
399.278
399.268
399.261
400.454
400.446
400.434
400.422
400.409
400.395
400.38
400.364
400.347
400.329
400.31
400.29
400.27
400.249
400.227
400.205
400.182
400.159
400.136
400.112
400.088
400.064
400.04
400.015
399.99
399.965
399.94
399.914
399.889
399.863
399.838
399.812
399.785
399.759
399.733
399.707
399.68
399.654
399.628
399.602
399.576
399.55
399.525
399.5
399.476
399.452
399.429
399.407
399.386
399.366
399.348
399.331
399.316
399.302
399.29
399.28
399.273
400.44
400.432
400.421
400.409
400.396
400.383
400.368
400.352
400.335
400.317
400.299
400.279
400.259
400.238
400.217
400.195
400.173
400.15
400.127
400.104
400.08
400.057
400.033
400.008
399.984
399.96
399.935
399.91
399.885
399.86
399.834
399.809
399.783
399.757
399.732
399.706
399.68
399.654
399.628
399.602
399.577
399.552
399.527
399.503
399.479
399.456
399.434
399.412
399.392
399.373
399.356
399.339
399.325
399.312
399.3
399.291
399.285
400.426
400.418
400.407
400.395
400.382
400.369
400.355
400.339
400.322
400.305
400.286
400.267
400.247
400.227
400.206
400.184
400.163
400.14
400.118
400.095
400.072
400.049
400.026
400.002
399.978
399.955
399.93
399.906
399.882
399.857
399.832
399.807
399.782
399.757
399.731
399.706
399.68
399.654
399.629
399.604
399.579
399.554
399.529
399.506
399.482
399.46
399.438
399.417
399.398
399.379
399.362
399.347
399.333
399.32
399.309
399.301
399.295
400.411
400.402
400.391
400.379
400.367
400.354
400.339
400.324
400.307
400.29
400.272
400.253
400.233
400.213
400.193
400.172
400.151
400.13
400.108
400.086
400.064
400.042
400.019
399.997
399.974
399.95
399.927
399.903
399.879
399.855
399.831
399.806
399.782
399.757
399.731
399.706
399.681
399.656
399.631
399.606
399.582
399.557
399.533
399.51
399.487
399.465
399.444
399.423
399.404
399.386
399.369
399.354
399.34
399.328
399.317
399.309
399.304
400.394
400.385
400.373
400.361
400.348
400.335
400.321
400.305
400.289
400.272
400.254
400.236
400.218
400.199
400.179
400.16
400.14
400.12
400.099
400.079
400.058
400.036
400.015
399.993
399.97
399.948
399.925
399.901
399.878
399.854
399.83
399.805
399.781
399.756
399.731
399.707
399.682
399.657
399.633
399.609
399.585
399.561
399.538
399.515
399.493
399.471
399.451
399.431
399.412
399.394
399.377
399.362
399.349
399.337
399.326
399.318
399.313
400.375
400.365
400.353
400.34
400.327
400.314
400.3
400.285
400.27
400.254
400.237
400.221
400.203
400.186
400.168
400.15
400.132
400.113
400.093
400.074
400.054
400.033
400.012
399.99
399.968
399.945
399.922
399.899
399.875
399.851
399.827
399.803
399.778
399.754
399.73
399.705
399.681
399.657
399.634
399.61
399.587
399.565
399.542
399.521
399.499
399.479
399.459
399.44
399.422
399.404
399.388
399.373
399.36
399.348
399.337
399.328
399.323
400.352
400.342
400.33
400.318
400.306
400.293
400.281
400.267
400.254
400.239
400.225
400.21
400.195
400.179
400.163
400.146
400.128
400.11
400.092
400.072
400.052
400.031
400.01
399.988
399.965
399.942
399.919
399.895
399.871
399.846
399.822
399.797
399.772
399.748
399.723
399.699
399.676
399.653
399.63
399.607
399.585
399.564
399.543
399.523
399.503
399.484
399.465
399.448
399.431
399.415
399.4
399.386
399.373
399.361
399.35
399.342
399.336
400.33
400.321
400.31
400.299
400.289
400.279
400.269
400.258
400.246
400.234
400.222
400.208
400.195
400.18
400.164
400.147
400.13
400.112
400.093
400.073
400.052
400.03
400.008
399.985
399.961
399.937
399.913
399.888
399.863
399.838
399.813
399.788
399.763
399.738
399.714
399.69
399.666
399.643
399.62
399.599
399.578
399.558
399.538
399.519
399.501
399.483
399.467
399.451
399.436
399.422
399.408
399.396
399.385
399.374
399.364
399.356
399.351
400.313
400.306
400.298
400.291
400.284
400.276
400.268
400.26
400.25
400.239
400.227
400.215
400.201
400.186
400.169
400.152
400.133
400.113
400.091
400.069
400.047
400.023
399.999
399.975
399.951
399.926
399.901
399.876
399.852
399.827
399.802
399.777
399.753
399.729
399.704
399.681
399.657
399.634
399.612
399.59
399.568
399.548
399.528
399.51
399.493
399.477
399.461
399.447
399.433
399.421
399.41
399.4
399.39
399.382
399.375
399.368
399.364
400.306
400.303
400.299
400.295
400.29
400.285
400.278
400.271
400.261
400.25
400.237
400.222
400.205
400.187
400.167
400.147
400.125
400.102
400.078
400.054
400.03
400.006
399.981
399.957
399.933
399.909
399.885
399.862
399.838
399.815
399.792
399.769
399.746
399.723
399.7
399.677
399.654
399.631
399.608
399.585
399.563
399.542
399.521
399.502
399.483
399.466
399.45
399.435
399.423
399.412
399.402
399.393
399.386
399.38
399.375
399.372
399.369
400.311
400.31
400.309
400.307
400.303
400.298
400.29
400.279
400.267
400.252
400.235
400.215
400.194
400.172
400.148
400.124
400.099
400.074
400.049
400.024
399.999
399.975
399.952
399.93
399.908
399.887
399.867
399.847
399.827
399.807
399.787
399.768
399.747
399.727
399.705
399.684
399.661
399.639
399.615
399.592
399.569
399.545
399.523
399.501
399.48
399.46
399.442
399.425
399.41
399.397
399.387
399.378
399.372
399.367
399.365
399.363
399.363
400.322
400.322
400.32
400.316
400.309
400.299
400.286
400.271
400.253
400.232
400.209
400.185
400.159
400.133
400.107
400.081
400.054
400.029
400.005
399.981
399.959
399.939
399.919
399.901
399.883
399.867
399.851
399.836
399.82
399.805
399.789
399.773
399.756
399.739
399.72
399.7
399.68
399.658
399.635
399.611
399.587
399.562
399.537
399.513
399.488
399.465
399.443
399.422
399.404
399.388
399.374
399.363
399.354
399.349
399.345
399.344
399.345
400.329
400.325
400.318
400.306
400.291
400.275
400.256
400.233
400.209
400.183
400.156
400.129
400.101
400.074
400.049
400.024
400.001
399.979
399.96
399.941
399.924
399.909
399.894
399.881
399.868
399.856
399.844
399.833
399.821
399.808
399.796
399.782
399.768
399.752
399.736
399.718
399.7
399.679
399.658
399.635
399.612
399.587
399.562
399.536
399.51
399.485
399.46
399.435
399.413
399.392
399.374
399.358
399.345
399.335
399.327
399.324
399.323
400.318
400.305
400.287
400.265
400.243
400.219
400.193
400.166
400.138
400.111
400.084
400.059
400.036
400.014
399.995
399.977
399.961
399.947
399.934
399.923
399.912
399.902
399.892
399.882
399.872
399.861
399.85
399.838
399.826
399.813
399.799
399.785
399.77
399.755
399.739
399.722
399.705
399.687
399.669
399.649
399.629
399.607
399.585
399.562
399.538
399.513
399.488
399.463
399.439
399.416
399.393
399.373
399.355
399.34
399.325
399.316
399.312
400.278
400.254
400.224
400.194
400.166
400.138
400.11
400.084
400.061
400.039
400.02
400.004
399.991
399.981
399.972
399.965
399.96
399.955
399.95
399.944
399.938
399.93
399.921
399.91
399.897
399.883
399.866
399.849
399.83
399.81
399.79
399.77
399.751
399.731
399.713
399.695
399.678
399.662
399.647
399.632
399.617
399.603
399.587
399.571
399.554
399.537
399.517
399.497
399.476
399.454
399.432
399.41
399.389
399.369
399.351
399.334
399.325
400.208
400.176
400.139
400.106
400.079
400.055
400.035
400.019
400.007
399.999
399.995
399.994
399.995
399.999
400.003
400.007
400.011
400.013
400.013
400.009
400.002
399.991
399.977
399.958
399.937
399.912
399.884
399.855
399.824
399.792
399.761
399.731
399.702
399.675
399.651
399.629
399.61
399.595
399.582
399.572
399.564
399.557
399.552
399.547
399.541
399.535
399.528
399.519
399.508
399.495
399.479
399.462
399.443
399.423
399.402
399.383
399.369
400.121
400.087
400.054
400.03
400.013
400.003
399.999
400.001
400.007
400.017
400.03
400.045
400.061
400.077
400.09
400.101
400.108
400.11
400.107
400.098
400.083
400.063
400.037
400.007
399.971
399.932
399.89
399.845
399.8
399.755
399.71
399.668
399.628
399.592
399.56
399.532
399.509
399.492
399.479
399.472
399.469
399.469
399.473
399.48
399.487
399.495
399.503
399.509
399.513
399.515
399.513
399.507
399.498
399.485
399.469
399.452
399.438
400.041
400.018
400.002
399.997
400.001
400.011
400.027
400.049
400.073
400.1
400.126
400.152
400.173
400.192
400.205
400.213
400.213
400.207
400.194
400.173
400.143
400.11
400.07
400.025
399.976
399.924
399.869
399.813
399.757
399.702
399.648
399.597
399.549
399.505
399.466
399.433
399.405
399.384
399.368
399.359
399.357
399.36
399.368
399.381
399.397
399.416
399.436
399.457
399.477
399.494
399.509
399.52
399.527
399.529
399.526
399.518
399.508
399.998
399.997
400.009
400.03
400.057
400.088
400.122
400.158
400.192
400.224
400.252
400.274
400.29
400.298
400.298
400.29
400.274
400.251
400.22
400.18
400.138
400.091
400.04
399.986
399.93
399.873
399.815
399.758
399.701
399.646
399.592
399.541
399.493
399.449
399.408
399.372
399.341
399.315
399.295
399.279
399.269
399.267
399.271
399.281
399.296
399.316
399.34
399.368
399.397
399.426
399.455
399.482
399.505
399.525
399.539
399.547
399.547
400.016
400.043
400.085
400.131
400.174
400.217
400.257
400.292
400.321
400.342
400.354
400.356
400.349
400.333
400.307
400.274
400.234
400.189
400.137
400.086
400.033
399.979
399.926
399.874
399.824
399.776
399.73
399.687
399.645
399.605
399.567
399.53
399.493
399.458
399.423
399.39
399.359
399.329
399.303
399.275
399.255
399.239
399.229
399.224
399.225
399.232
399.246
399.266
399.291
399.32
399.352
399.386
399.421
399.454
399.485
399.511
399.524
400.1
400.154
400.217
400.273
400.319
400.355
400.382
400.398
400.401
400.392
400.371
400.338
400.296
400.245
400.188
400.127
400.061
399.997
399.935
399.877
399.823
399.775
399.734
399.7
399.672
399.649
399.632
399.618
399.608
399.598
399.589
399.578
399.565
399.55
399.53
399.507
399.48
399.449
399.416
399.38
399.344
399.309
399.276
399.246
399.221
399.202
399.19
399.186
399.19
399.203
399.223
399.25
399.282
399.318
399.357
399.396
399.42
400.235
400.301
400.365
400.411
400.437
400.446
400.44
400.417
400.378
400.325
400.261
400.186
400.105
400.02
399.933
399.848
399.769
399.697
399.635
399.583
399.543
399.516
399.502
399.498
399.506
399.522
399.545
399.573
399.603
399.633
399.661
399.685
399.703
399.713
399.715
399.707
399.69
399.663
399.627
399.583
399.532
399.477
399.419
399.36
399.303
399.25
399.202
399.162
399.132
399.112
399.103
399.106
399.12
399.144
399.178
399.215
399.245
400.382
400.439
400.477
400.487
400.472
400.437
400.383
400.311
400.224
400.125
400.019
399.907
399.796
399.687
399.586
399.494
399.416
399.352
399.305
399.276
399.264
399.269
399.291
399.327
399.375
399.433
399.497
399.566
399.636
399.705
399.768
399.825
399.872
399.908
399.932
399.941
399.937
399.918
399.884
399.837
399.777
399.708
399.63
399.547
399.461
399.374
399.29
399.212
399.141
399.08
399.032
398.998
398.98
398.976
398.988
399.011
399.037
400.493
400.513
400.499
400.453
400.386
400.3
400.196
400.078
399.951
399.818
399.685
399.557
399.436
399.327
399.233
399.156
399.099
399.062
399.045
399.049
399.073
399.114
399.171
399.242
399.323
399.412
399.507
399.603
399.698
399.79
399.875
399.951
400.017
400.07
400.108
400.131
400.139
400.13
400.103
400.061
400.003
399.931
399.846
399.752
399.65
399.543
399.434
399.325
399.221
399.124
399.038
398.964
398.907
398.865
398.843
398.839
398.851
400.518
400.479
400.396
400.289
400.17
400.041
399.902
399.757
399.613
399.473
399.343
399.227
399.127
399.045
398.983
398.943
398.924
398.926
398.948
398.988
399.044
399.112
399.196
399.283
399.377
399.474
399.572
399.67
399.764
399.852
399.934
400.007
400.071
400.123
400.163
400.193
400.207
400.206
400.191
400.161
400.117
400.058
399.985
399.9
399.804
399.698
399.585
399.468
399.35
399.234
399.124
399.015
398.926
398.85
398.791
398.754
398.746
400.421
400.315
400.164
400.006
399.855
399.706
399.559
399.42
399.294
399.183
399.09
399.018
398.967
398.939
398.931
398.943
398.972
399.017
399.073
399.137
399.219
399.295
399.374
399.454
399.531
399.605
399.675
399.739
399.799
399.852
399.899
399.942
399.978
400.009
400.035
400.054
400.068
400.073
400.071
400.061
400.042
400.013
399.972
399.918
399.853
399.776
399.688
399.591
399.486
399.376
399.265
399.152
399.046
398.948
398.855
398.791
398.762
400.191
400.028
399.829
399.648
399.496
399.363
399.247
399.152
399.08
399.032
399.009
399.009
399.03
399.07
399.125
399.192
399.266
399.345
399.423
399.499
399.569
399.631
399.681
399.721
399.75
399.768
399.775
399.774
399.766
399.754
399.739
399.724
399.711
399.702
399.696
399.696
399.699
399.706
399.717
399.73
399.744
399.754
399.76
399.759
399.748
399.726
399.692
399.644
399.582
399.509
399.423
399.333
399.239
399.14
399.045
398.96
398.911
399.851
399.652
399.444
399.283
399.17
399.091
399.043
399.026
399.038
399.079
399.143
399.226
399.325
399.434
399.547
399.658
399.763
399.856
399.934
399.993
400.032
400.048
400.044
400.017
399.97
399.905
399.826
399.737
399.641
399.544
399.449
399.361
399.284
399.221
399.174
399.144
399.132
399.138
399.16
399.197
399.246
399.302
399.362
399.423
399.48
399.53
399.568
399.593
399.601
399.592
399.564
399.519
399.458
399.387
399.307
399.231
399.179
399.451
399.254
399.085
398.987
398.95
398.956
399.001
399.082
399.192
399.326
399.478
399.64
399.805
399.966
400.117
400.249
400.359
400.442
400.494
400.513
400.498
400.449
400.368
400.258
400.121
399.963
399.789
399.605
399.418
399.233
399.056
398.895
398.753
398.636
398.546
398.486
398.455
398.454
398.483
398.54
398.62
398.718
398.831
398.954
399.083
399.209
399.328
399.434
399.524
399.594
399.642
399.665
399.665
399.642
399.598
399.544
399.499
399.059
398.907
398.824
398.825
398.886
398.992
399.137
399.314
399.514
399.729
399.949
400.166
400.364
400.549
400.707
400.832
400.919
400.965
400.969
400.928
400.843
400.719
400.559
400.365
400.144
399.902
399.646
399.383
399.12
398.864
398.623
398.404
398.212
398.052
397.93
397.846
397.798
397.791
397.822
397.891
397.988
398.116
398.273
398.449
398.635
398.825
399.012
399.192
399.36
399.506
399.63
399.728
399.799
399.839
399.849
399.833
399.806
398.744
398.679
398.715
398.831
398.994
399.192
399.422
399.674
399.935
400.195
400.445
400.675
400.878
401.046
401.174
401.257
401.294
401.283
401.223
401.117
400.965
400.774
400.548
400.291
400.012
399.717
399.412
399.103
398.8
398.509
398.236
397.989
397.772
397.592
397.452
397.356
397.297
397.274
397.305
397.382
397.493
397.637
397.811
398.011
398.229
398.459
398.692
398.915
399.137
399.346
399.533
399.696
399.829
399.932
400.003
400.036
400.034
398.566
398.614
398.779
399.005
399.251
399.514
399.794
400.078
400.354
400.614
400.846
401.044
401.202
401.315
401.381
401.398
401.367
401.287
401.165
401.003
400.796
400.566
400.309
400.03
399.736
399.433
399.126
398.822
398.527
398.246
397.984
397.746
397.538
397.363
397.225
397.127
397.073
397.037
397.064
397.129
397.23
397.365
397.531
397.726
397.944
398.179
398.423
398.67
398.914
399.151
399.372
399.579
399.756
399.905
400.024
400.103
400.131
398.56
398.725
399.006
399.312
399.606
399.889
400.168
400.432
400.67
400.874
401.038
401.157
401.229
401.254
401.233
401.168
401.063
400.923
400.753
400.558
400.342
400.111
399.867
399.614
399.359
399.103
398.85
398.604
398.367
398.143
397.934
397.744
397.575
397.431
397.315
397.229
397.177
397.137
397.147
397.189
397.261
397.363
397.495
397.654
397.838
398.041
398.259
398.487
398.72
398.952
399.177
399.39
399.585
399.756
399.913
400.019
400.07
398.734
398.999
399.359
399.693
399.977
400.232
400.458
400.646
400.791
400.889
400.939
400.941
400.899
400.818
400.702
400.558
400.393
400.212
400.026
399.838
399.648
399.465
399.286
399.115
398.949
398.792
398.642
398.5
398.366
398.238
398.117
398.003
397.899
397.805
397.723
397.656
397.607
397.562