/*--------------------------------*- C++ -*----------------------------------*\
| =========                 |                                                 |
| \\      /  F ield         | OpenFOAM: The Open Source CFD Toolbox           |
|  \\    /   O peration     | Version:  2212                                  |
|   \\  /    A nd           | Website:  www.openfoam.com                      |
|    \\/     M anipulation  |                                                 |
\*---------------------------------------------------------------------------*/
FoamFile
{
    version     2.0;
    format      ascii;
    arch        "LSB;label=32;scalar=64";
    class       volScalarField;
    location    "0.0226";
    object      k;
}
// * * * * * * * * * * * * * * * * * * * * * * * * * * * * * * * * * * * * * //

dimensions      [0 2 -2 0 0 0 0];

internalField   nonuniform List<scalar> 
31661
(
1733.61
696.536
633.213
662.543
702.896
638.201
668.206
709.795
643.429
674.257
1958.17
659.46
4815.97
1061.56
1437.35
1664.13
1507.25
1760.28
647.735
1645.1
493.155
483.029
968.559
1863.67
654.663
491.449
1088.1
838.432
673.177
758.221
1831.11
64.1935
71.4256
628.61
659.834
1713.51
672.853
1657.44
1194.23
106.683
112.295
714.688
1250.43
655.243
661.405
695.458
660.7
705.817
672.549
1132.11
184.922
1370.94
722.516
676.984
1100.47
624.872
705.7
767.093
791.07
616.382
664.62
638.88
736.524
870.171
647.541
1722.51
1583.93
795.137
799.302
803.367
624.556
809.068
812.648
816.144
819.509
822.785
826.01
829.217
832.429
835.689
839.018
842.438
845.971
849.663
850.077
846.354
842.778
839.316
835.963
832.688
829.458
826.25
823.013
819.736
816.425
813.068
809.752
806.488
802.889
799.134
795.265
791.494
787.811
784.732
783.81
780.395
779.685
776.016
775.419
771.59
771.066
767.121
766.643
762.615
762.173
758.084
757.672
753.535
753.146
748.978
748.607
744.423
744.066
739.876
739.528
735.339
734.997
730.818
730.48
726.312
725.975
721.827
721.488
717.373
717.028
712.953
712.606
708.568
708.219
704.208
703.856
699.874
699.517
695.572
695.213
691.304
690.94
687.071
686.704
682.869
682.499
678.702
678.327
674.57
674.192
670.472
670.091
666.407
666.025
662.374
661.991
658.371
657.988
654.398
654.015
650.456
650.072
646.54
646.158
642.272
642.651
641.768
645.65
649.558
653.492
657.456
661.45
665.474
669.531
673.62
677.742
681.898
686.087
690.311
694.568
698.859
703.182
707.531
711.908
716.32
720.768
725.245
729.746
734.266
738.803
743.356
747.923
752.496
757.075
761.65
766.221
770.792
775.376
780.016
784.743
789.36
793.861
798.378
802.829
806.881
810.661
814.258
817.706
821.053
824.332
827.576
830.812
853.981
853.541
834.077
837.39
840.777
844.285
847.952
857.647
858.113
857.258
853.082
849.133
845.373
841.775
838.293
834.919
831.622
828.369
825.142
821.895
818.613
815.292
811.909
808.435
804.913
801.349
797.634
793.798
789.886
785.936
781.908
777.777
773.536
769.206
764.808
760.357
755.876
751.362
746.84
742.312
737.78
733.256
728.743
724.237
719.754
715.296
710.875
706.491
702.131
697.796
693.494
689.224
684.99
680.79
676.624
672.491
668.395
664.335
660.308
656.313
652.349
648.416
644.512
640.638
636.795
638.416
638.79
637.912
635.779
639.618
643.484
647.373
651.291
655.238
659.214
663.222
667.26
671.333
675.437
679.575
683.743
687.948
692.187
696.459
700.763
705.093
709.454
713.851
718.285
722.748
727.234
731.741
736.268
740.814
745.378
749.95
754.534
759.124
763.724
768.331
772.956
777.589
782.203
786.722
791.132
795.478
799.705
803.712
807.485
811.092
814.578
817.974
821.295
824.582
827.841
831.106
834.403
851.807
837.782
841.281
844.934
861.757
862.561
855.905
862.078
866.602
864.511
859.604
855.037
850.794
846.792
842.982
839.343
835.832
832.428
829.106
825.82
822.548
819.266
815.951
812.577
809.123
805.572
801.991
798.374
794.631
790.758
786.78
782.741
778.671
774.517
770.267
765.938
761.552
757.116
752.651
748.153
743.643
739.128
734.607
730.092
725.585
721.088
716.616
712.169
707.756
703.378
699.03
694.706
690.414
686.154
681.932
677.745
673.593
669.473
665.389
661.343
657.33
653.352
649.406
645.492
641.607
637.753
633.93
630.139
632.982
634.591
634.96
634.084
631.966
628.608
632.395
636.204
640.041
643.904
647.793
651.713
655.663
659.641
663.653
667.7
671.776
675.886
680.028
684.203
688.415
692.659
696.935
701.238
705.574
709.947
714.355
718.792
723.252
727.733
732.237
736.762
741.307
745.86
750.429
755.011
759.602
764.202
768.806
773.398
777.939
782.404
786.753
791.012
795.152
799.127
802.91
806.539
810.05
813.48
816.85
820.171
823.443
826.708
830.01
833.398
848.774
836.895
840.543
867.356
869.658
871.694
852.855
860.324
866.855
874.972
871.552
866.184
860.973
855.994
851.353
847.038
842.974
839.107
835.406
831.841
828.383
825.005
821.67
818.351
815.031
811.671
808.249
804.747
801.159
797.537
793.867
790.079
786.173
782.167
778.084
773.98
769.803
765.544
761.214
756.828
752.401
747.944
743.463
738.974
734.479
729.977
725.48
720.991
716.509
712.052
707.626
703.233
698.871
694.538
690.236
685.964
681.725
677.523
673.358
669.227
665.132
661.072
657.048
653.061
649.107
645.188
641.301
637.445
633.621
629.829
626.069
622.342
626.381
629.201
630.794
631.157
630.287
628.184
624.85
620.295
624.017
627.764
631.535
635.33
639.154
643.005
646.884
650.795
654.736
658.709
662.716
666.755
670.827
674.931
679.068
683.241
687.447
691.685
695.952
700.25
704.586
708.957
713.356
717.778
722.223
726.693
731.182
735.692
740.216
744.757
749.309
753.869
758.437
763.002
767.541
772.026
776.441
780.747
784.96
789.059
793.016
796.815
800.469
804.014
807.484
810.901
814.242
817.528
820.815
824.147
827.556
831.049
844.381
834.698
872.416
876.961
848.452
877.156
880.531
857.268
865.094
871.899
883.097
878.188
872.201
866.541
861.111
855.836
850.789
846.074
841.685
837.55
833.619
829.853
826.228
822.714
819.279
815.89
812.52
809.146
805.739
802.274
798.727
795.121
791.475
787.756
783.93
779.997
775.976
771.876
767.749
763.557
759.294
754.968
750.592
746.177
741.734
737.272
732.803
728.33
723.855
719.39
714.93
710.481
706.05
701.648
697.284
692.952
688.647
684.372
680.133
675.927
671.756
667.621
663.525
659.465
655.44
651.451
647.499
643.581
639.699
635.85
632.034
628.25
624.5
620.781
617.094
613.436
618.645
622.654
625.452
627.03
627.386
626.519
624.427
621.118
616.601
614.536
618.205
621.898
625.617
629.362
633.132
636.931
640.76
644.618
648.509
652.432
656.387
660.376
664.397
668.452
672.538
676.661
680.818
685.006
689.222
693.472
697.758
702.08
706.429
710.801
715.199
719.622
724.062
728.527
733.01
737.506
742.016
746.535
751.06
755.568
760.043
764.469
768.824
773.089
777.264
781.332
785.29
789.107
792.793
796.378
799.89
803.338
806.702
810.02
813.352
816.723
820.138
823.641
838.533
827.313
610.891
831.148
877.658
842.606
882.501
852.86
886.442
862.052
884.549
889.419
870.152
877.136
891.296
884.658
877.882
871.48
865.444
859.732
854.247
848.915
843.807
839.028
834.576
830.388
826.405
822.592
818.917
815.351
811.862
808.419
805.001
801.576
798.12
794.613
791.031
787.399
783.728
779.977
776.126
772.172
768.143
764.041
759.909
755.716
751.459
747.147
742.79
738.398
733.982
729.549
725.107
720.664
716.224
711.795
707.379
702.974
698.586
694.223
689.897
685.608
681.346
677.114
672.916
668.755
664.63
660.541
656.489
652.476
648.499
644.559
640.654
636.785
632.951
629.154
625.389
621.658
617.96
614.293
610.657
607.051
603.473
609.807
614.977
618.957
621.734
623.299
623.648
622.781
620.703
617.418
612.935
607.273
604.016
607.597
611.2
614.825
618.476
622.156
625.862
629.595
633.358
637.153
640.978
644.837
648.727
652.652
656.61
660.601
664.623
668.683
672.777
676.902
681.053
685.238
689.463
693.721
698.006
702.318
706.655
711.017
715.401
719.806
724.233
728.679
733.14
737.605
742.05
746.474
750.878
755.24
759.536
763.774
767.912
771.962
775.908
779.73
783.444
787.064
790.61
794.08
797.471
800.84
804.222
807.61
811.031
814.573
818.248
822.094
600.461
826.17
835.211
883.191
847.02
888.397
857.653
892.73
867.13
896.139
875.404
891.802
898.427
882.67
599.925
606.207
611.337
615.287
618.044
619.596
619.941
619.075
617.007
613.744
609.295
603.68
596.932
592.55
596.025
599.522
603.046
606.587
610.158
613.756
617.382
621.036
624.72
628.435
632.18
635.959
639.77
643.615
647.494
651.405
655.35
659.331
663.346
667.39
671.462
675.568
679.714
683.895
688.101
692.336
696.596
700.882
705.193
709.522
713.877
718.255
722.64
727.015
731.377
735.731
740.058
744.338
748.582
752.751
756.865
760.882
764.808
768.623
772.354
775.999
779.57
783.063
786.488
789.907
793.312
796.703
800.16
803.719
807.412
811.275
815.373
830.584
819.764
589.102
899.326
890.594
883.085
875.93
869.13
862.698
856.629
850.884
845.371
840.019
834.893
830.093
825.616
821.397
817.381
813.53
809.815
806.204
802.669
799.182
795.718
792.25
788.754
785.211
781.605
777.953
774.259
770.485
766.614
762.657
758.637
754.548
750.425
746.241
742.002
737.716
733.39
729.035
724.658
720.267
715.869
711.472
707.079
702.699
698.332
693.985
689.654
685.347
681.076
676.84
672.638
668.464
664.325
660.222
656.157
652.129
648.138
644.184
640.27
636.392
632.55
628.744
624.974
621.241
617.541
613.876
610.243
606.641
603.07
599.529
596.016
592.534
839.628
889.091
824.489
835.347
851.812
894.677
862.748
899.436
872.404
903.261
880.942
905.96
888.573
898.474
907.24
580.264
583.614
586.99
590.389
593.812
597.261
600.732
604.233
607.763
611.321
614.909
618.527
622.177
625.86
629.574
633.322
637.104
640.919
644.769
648.653
652.57
656.517
660.493
664.504
668.555
672.64
676.75
680.887
685.054
689.243
693.457
697.691
701.955
706.229
710.513
714.795
719.079
723.339
727.565
731.759
735.914
740.038
744.107
748.079
751.959
755.769
759.493
763.147
766.731
770.248
773.714
777.161
780.557
783.972
787.458
791.035
794.739
798.607
802.704
807.083
811.742
887.275
879.435
871.948
864.82
858.053
851.656
845.618
839.902
834.415
829.086
823.977
819.185
814.706
810.477
806.443
802.57
798.827
795.185
791.618
788.097
784.599
781.098
777.575
774.008
770.386
766.733
763.023
759.238
755.358
751.425
747.425
743.371
739.266
735.108
730.902
726.656
722.377
718.073
713.752
709.419
705.081
700.747
696.419
692.104
687.806
683.527
679.269
675.037
670.839
666.677
662.547
658.45
654.387
650.361
646.371
642.421
638.508
634.633
630.795
626.996
623.232
619.506
615.816
612.163
608.544
604.959
601.406
597.885
594.394
590.932
587.5
584.098
580.728
589.08
596.406
602.635
607.723
611.644
614.38
615.921
616.262
615.401
613.345
610.103
605.69
600.121
593.434
585.683
895.456
576.942
829.529
816.724
906.739
844.422
895.377
573.649
582.296
589.971
596.594
602.114
606.495
609.713
611.756
612.61
612.272
610.742
608.026
604.136
599.089
592.913
585.656
577.384
840.411
856.909
901.371
904.021
889.844
881.419
873.334
865.611
858.247
851.233
844.573
838.275
832.322
826.684
821.266
816
810.946
806.194
801.742
797.528
793.498
789.622
785.871
782.217
778.634
775.097
771.581
768.066
764.532
760.957
757.343
753.696
749.989
746.214
742.358
738.457
734.5
730.487
726.423
722.312
718.161
713.975
709.761
705.529
701.281
697.026
692.77
688.518
684.275
680.046
675.835
671.646
667.48
663.34
659.236
655.168
651.133
647.13
643.163
639.232
635.34
631.485
627.669
623.89
620.149
616.446
612.78
609.152
605.559
602.003
598.482
594.994
591.538
588.113
584.719
581.354
578.02
574.716
571.441
568.193
821.855
834.743
868.045
906.554
877.952
910.799
886.846
913.898
894.873
915.567
915.419
898.639
913.005
890.617
900.051
564.136
567.315
570.524
573.759
577.018
580.302
583.611
586.946
590.307
593.691
597.108
600.552
604.026
607.53
611.066
614.634
618.234
621.867
625.534
629.235
632.969
636.738
640.538
644.369
648.229
652.128
656.064
660.032
664.024
668.048
672.093
676.167
680.257
684.384
688.527
692.683
696.848
701.014
705.17
709.31
713.434
717.528
721.631
725.689
729.661
733.556
737.393
741.169
744.881
748.521
752.101
755.624
759.123
762.578
765.99
769.447
772.923
776.511
780.179
784.041
788.131
792.435
797.022
801.923
806.942
570.389
827.189
812.216
803.016
560.985
849.495
902.07
578.941
586.537
593.099
598.574
602.921
606.112
608.138
608.985
608.648
607.128
604.433
600.575
595.569
589.448
582.258
574.066
564.973
845.67
862.219
908.486
879.881
881.366
872.768
864.524
856.647
849.121
841.943
835.104
828.61
822.465
816.649
811.136
805.831
800.669
795.707
791.032
786.638
782.468
778.472
774.621
770.888
767.246
763.672
760.142
756.634
753.128
749.607
746.049
742.464
738.843
735.165
731.426
727.622
723.776
719.877
715.926
711.93
707.893
703.821
699.719
695.596
691.456
687.307
683.154
679.001
674.855
670.72
666.602
662.502
658.425
654.373
650.348
646.359
642.407
638.491
634.605
630.754
626.941
623.166
619.429
615.73
612.069
608.446
604.86
601.311
597.799
594.324
590.884
587.478
584.106
580.766
577.456
574.177
570.928
567.709
564.519
561.358
558.224
555.116
840.146
873.602
914.084
817.684
832.821
883.856
918.746
893.157
922.259
901.578
924.319
924.536
922.482
910.924
567.161
557.862
866.931
876.806
550.88
553.904
556.955
560.032
563.135
566.262
569.414
572.591
575.797
579.025
582.28
585.564
588.875
592.217
595.588
598.991
602.425
605.891
609.39
612.922
616.487
620.087
623.719
627.383
631.076
634.801
638.565
642.365
646.193
650.051
653.933
657.837
661.77
665.736
669.714
673.711
677.721
681.755
685.777
689.8
693.806
697.8
701.807
705.806
709.741
713.614
717.425
721.177
724.907
728.568
732.163
735.726
739.234
742.727
746.186
749.607
753.114
756.617
760.144
763.78
767.622
771.626
775.825
780.338
785.143
790.027
795.149
800.446
903.515
904.111
823.478
806.054
745.686
854.797
909.194
575.622
583.144
589.647
595.069
599.373
602.539
604.546
605.385
605.048
603.539
600.865
597.038
592.076
586.01
578.886
570.776
561.779
552.035
851.164
867.772
916.032
728.438
870.339
861.433
852.951
844.9
837.235
829.932
822.98
816.363
810.086
804.145
798.522
793.181
788.036
783.023
778.197
773.64
769.346
765.26
761.335
757.544
753.864
750.269
746.738
743.247
739.778
736.311
732.834
729.328
725.799
722.228
718.609
714.936
711.216
707.449
703.635
699.777
695.878
691.944
687.98
683.991
679.985
675.967
671.943
667.918
663.896
659.883
655.883
651.901
647.939
644.001
640.088
636.203
632.353
628.543
624.768
621.025
617.316
613.644
610.01
606.414
602.855
599.334
595.851
592.404
588.994
585.62
582.282
578.979
575.71
572.473
569.268
566.093
562.948
559.834
556.748
553.692
550.662
547.659
544.681
541.73
845.877
879.505
922.051
838.782
890.175
927.131
812.005
829.638
899.884
931.055
908.718
933.511
934.119
932.505
563.96
554.769
928.557
923.173
648.532
917.281
547.881
537.42
540.276
543.155
546.061
548.993
551.947
554.927
557.931
560.961
564.014
567.095
570.2
573.332
576.492
579.682
582.9
586.15
589.43
592.742
596.086
599.462
602.872
606.314
609.789
613.294
616.829
620.398
624.004
627.644
631.313
635.008
638.726
642.473
646.251
650.042
653.849
657.696
661.541
665.392
669.246
673.109
676.971
680.848
684.717
688.554
692.353
696.113
699.8
703.479
707.12
710.68
714.224
717.71
721.191
724.638
728.073
731.497
734.983
738.473
741.945
745.578
749.369
753.215
757.301
761.695
766.387
771.142
776.039
781.156
786.551
792.205
1311.17
818.255
798.155
390.85
699.408
860.328
916.753
572.332
579.777
586.214
591.585
595.855
598.994
600.981
601.81
601.473
599.975
597.322
593.525
588.606
582.595
575.539
567.51
558.612
548.98
538.804
856.99
873.666
924.014
714.348
689.657
858.266
847.911
838.612
830.123
822.234
814.822
807.813
801.171
794.863
788.887
783.231
777.87
772.771
767.849
763.045
758.413
754.029
749.887
745.934
742.128
738.445
734.863
731.358
727.91
724.5
721.11
717.722
714.325
710.91
707.464
703.982
700.459
696.89
693.282
689.629
685.934
682.201
678.433
674.634
670.811
666.967
663.111
659.245
655.376
651.509
647.648
643.797
639.962
636.144
632.349
628.578
624.833
621.116
617.434
613.79
610.183
606.608
603.067
599.562
596.094
592.663
589.27
585.913
582.593
579.308
576.06
572.847
569.668
566.523
563.411
560.331
557.282
554.262
551.272
548.311
545.378
542.472
539.592
536.737
533.909
531.105
528.325
852.013
885.827
930.455
845.148
896.92
935.953
836.183
907.043
940.289
804.436
824.854
916.291
943.155
944.194
560.788
551.705
943.156
940.189
935.833
927.708
544.911
534.59
526.74
529.438
532.159
534.905
537.676
540.466
543.281
546.121
548.984
551.869
554.781
557.717
560.68
563.67
566.687
569.734
572.81
575.916
579.053
582.221
585.421
588.653
591.916
595.211
598.535
601.89
605.278
608.704
612.161
615.644
619.153
622.689
626.255
629.837
633.435
637.07
640.734
644.386
648.034
651.701
655.387
659.091
662.808
666.471
670.125
673.79
677.378
680.96
684.522
688.014
691.464
694.887
698.305
701.691
705.071
708.452
711.817
715.245
718.672
722.098
725.65
729.35
733.067
737.024
741.232
745.758
750.322
755.018
759.909
764.98
770.341
775.966
781.852
884.633
810.976
787.985
912.425
524.065
866.198
924.752
569.069
576.437
582.813
588.133
592.362
595.471
597.439
598.258
597.924
596.436
593.803
590.039
585.163
579.206
572.218
564.271
555.468
545.95
535.902
525.567
863.199
879.978
932.434
845.568
837.669
835.175
827.246
818.639
810.473
802.856
795.706
788.94
782.511
776.391
770.559
765.017
759.759
754.757
749.984
745.364
740.843
736.475
732.329
728.402
724.642
721.013
717.492
714.059
710.695
707.381
704.099
700.833
697.569
694.298
691.008
687.69
684.34
680.955
677.53
674.067
670.566
667.028
663.457
659.856
656.229
652.581
648.917
645.243
641.564
637.883
634.206
630.537
626.881
623.24
619.619
616.02
612.447
608.899
605.38
601.893
598.444
595.032
591.653
588.306
584.995
581.719
578.48
575.276
572.108
568.975
565.876
562.813
559.783
556.786
553.821
550.888
547.986
545.112
542.268
539.452
536.663
533.901
531.165
528.453
525.766
523.103
520.463
517.844
515.247
858.528
892.576
939.297
851.908
904.088
945.214
853.376
843.081
914.628
949.967
831.796
924.306
953.258
557.648
548.67
794.44
817.887
954.778
954.404
952.259
947.327
937.291
541.967
531.781
521.408
513.669
516.175
518.702
521.25
523.821
526.413
529.027
531.661
534.318
536.997
539.698
542.424
545.174
547.949
550.749
553.576
556.431
559.314
562.226
565.168
568.139
571.141
574.173
577.236
580.328
583.449
586.601
589.787
593.007
596.257
599.532
602.834
606.165
609.516
612.886
616.279
619.704
623.142
626.589
630.028
633.493
636.984
640.484
643.986
647.426
650.919
654.375
657.802
661.23
664.606
667.919
671.207
674.512
677.785
681.07
684.339
687.595
690.891
694.198
697.535
700.857
704.308
707.854
711.426
715.229
719.231
723.546
727.854
732.306
736.951
741.611
746.657
751.888
757.307
762.976
768.929
801.163
922.264
775.167
893.557
511.18
872.477
933.189
565.836
573.125
579.434
584.701
588.89
591.972
593.924
594.735
594.4
592.921
590.31
586.577
581.743
575.841
568.921
561.056
552.348
542.942
533.022
522.832
512.672
869.839
886.719
941.295
812.056
805.81
801.396
794.667
787.21
779.852
772.971
766.53
760.448
754.664
749.145
743.873
738.85
734.071
729.507
725.136
720.891
716.724
712.688
708.847
705.199
701.694
698.301
695.001
691.775
688.606
685.478
682.375
679.285
676.194
673.094
669.975
666.832
663.659
660.453
657.213
653.938
650.628
647.287
643.916
640.52
637.101
633.666
630.218
626.762
623.303
619.844
616.392
612.948
609.518
606.105
602.711
599.34
595.993
592.674
589.381
586.12
582.893
579.704
576.547
573.422
570.33
567.272
564.249
561.26
558.304
555.382
552.493
549.637
546.813
544.02
541.257
538.523
535.819
533.141
530.491
527.867
525.269
522.696
520.147
517.621
515.118
512.636
510.175
507.735
505.314
502.914
865.451
899.751
948.575
819.065
861.611
859.045
911.687
954.915
850.339
922.659
960.09
554.539
545.663
839.098
932.76
825.099
963.822
965.843
781.729
808.241
966.037
964.067
958.309
947.689
539.05
528.996
518.773
508.711
501.497
503.804
506.129
508.474
510.834
513.216
515.616
518.037
520.478
522.937
525.418
527.919
530.443
532.99
535.559
538.153
540.772
543.417
546.088
548.787
551.513
554.268
557.052
559.864
562.705
565.574
568.47
571.398
574.359
577.352
580.371
583.416
586.489
589.583
592.699
595.84
599.001
602.183
605.383
608.598
611.81
615.054
618.309
621.568
624.825
628.078
631.346
634.545
637.796
640.986
644.132
647.244
650.385
653.505
656.633
659.741
662.831
665.971
669.1
672.255
675.412
678.621
681.917
685.247
688.636
692.239
695.988
700.033
704.039
708.211
712.519
716.906
721.517
726.262
731.162
736.325
741.723
747.425
753.446
788.562
903.377
759.815
932.859
499.207
879.189
942.062
562.638
569.848
576.088
581.301
585.452
588.504
590.436
591.237
590.9
589.431
586.841
583.14
578.349
572.502
565.649
557.865
549.255
539.959
530.166
520.117
510.118
500.533
876.897
893.885
950.589
782.467
776.316
770.698
765.707
759.98
753.691
747.308
741.249
735.532
730.138
725.019
720.133
715.463
711.005
706.755
702.684
698.773
694.961
691.208
687.561
684.085
680.774
677.582
674.484
671.461
668.498
665.58
662.691
659.82
656.955
654.087
651.206
648.307
645.384
642.433
639.451
636.437
633.391
630.315
627.21
624.079
620.925
617.752
614.565
611.368
608.165
604.961
601.759
598.563
595.377
592.205
589.05
585.914
582.8
579.71
576.646
573.609
570.601
567.624
564.683
561.775
558.897
556.049
553.233
550.45
547.699
544.979
542.29
539.632
537.004
534.406
531.837
529.296
526.781
524.293
521.83
519.391
516.977
514.586
512.218
509.872
507.547
505.241
502.956
500.689
498.441
496.21
493.997
491.8
870.537
872.775
907.353
958.295
826.554
789.033
866.58
919.725
965.051
551.458
542.684
857.992
931.124
941.652
846.756
970.654
974.831
832.64
977.305
815.568
978.007
766.348
795.655
975.724
969.416
958.795
536.161
526.24
516.166
506.265
496.935
490.733
492.834
494.951
497.083
499.232
501.396
503.576
505.774
507.989
510.222
512.473
514.742
517.03
519.338
521.666
524.015
526.387
528.783
531.202
533.645
536.114
538.607
541.128
543.676
546.25
548.851
551.476
554.128
556.813
559.529
562.271
565.04
567.834
570.651
573.489
576.353
579.24
582.141
585.065
588.011
590.963
593.93
596.918
599.907
602.903
605.911
608.923
611.912
614.889
617.883
620.781
623.693
626.617
629.524
632.45
635.354
638.231
641.122
644.058
647.005
649.951
652.905
655.912
658.966
662.066
665.198
668.554
672.014
675.738
679.409
683.209
687.176
691.233
695.353
699.664
703.986
708.577
713.382
718.502
723.91
729.684
735.639
773.088
943.977
913.765
741.953
488.646
886.325
951.377
559.468
566.6
572.774
577.935
582.041
585.061
586.972
587.761
587.425
585.968
583.398
579.727
574.979
569.186
562.401
554.699
546.183
536.996
527.33
517.425
507.582
498.168
489.619
880.023
884.347
901.468
924.519
889.878
960.322
834.583
796.154
756.258
750.101
744.433
739.03
733.954
729.166
724.146
718.886
713.573
708.436
703.459
698.797
694.381
690.161
686.127
682.273
678.584
675.047
671.638
668.302
665.008
661.801
658.737
655.814
652.988
650.236
647.542
644.892
642.273
639.674
637.084
634.493
631.895
629.281
626.647
623.989
621.303
618.587
615.841
613.065
610.261
607.43
604.576
601.701
598.81
595.906
592.993
590.076
587.158
584.243
581.335
578.437
575.552
572.683
569.833
567.004
564.197
561.415
558.659
555.928
553.227
550.558
547.921
545.312
542.731
540.179
537.656
535.163
532.699
530.263
527.855
525.474
523.12
520.792
518.489
516.21
513.954
511.721
509.509
507.319
505.149
502.999
500.869
498.757
496.662
494.584
492.522
490.477
488.446
486.429
484.427
482.439
880.511
915.385
968.441
548.401
539.729
874.5
928.198
940.031
866.007
975.618
981.646
854.744
950.986
986.253
840.503
989.126
823.224
989.984
803.059
987.462
748.657
780.355
981.003
970.47
533.3
523.511
513.582
503.84
494.681
486.574
480.057
481.939
483.834
485.74
487.659
489.589
491.534
493.493
495.465
497.45
499.45
501.467
503.498
505.545
507.609
509.69
511.788
513.906
516.044
518.203
520.383
522.585
524.809
527.056
529.328
531.624
533.944
536.288
538.655
541.049
543.472
545.923
548.399
550.898
553.421
555.964
558.529
561.121
563.73
566.356
569.005
571.666
574.343
577.039
579.737
582.445
585.162
587.902
590.617
593.326
596.039
598.722
601.354
604.017
606.674
609.34
612.001
614.622
617.254
619.924
622.611
625.293
627.969
630.673
633.39
636.164
638.969
641.811
644.835
647.957
651.288
654.614
658.036
661.603
665.172
668.853
672.627
676.52
680.457
684.692
689.238
694.019
699.034
704.381
710.206
716.289
755.652
722.813
730.306
955.501
657.57
893.86
701.14
704.185
935.669
900.115
843.119
803.705
762.785
851.99
811.53
769.548
861.228
819.708
776.661
828.341
870.915
784.243
910.792
792.402
837.533
881.157
961.132
556.325
563.383
569.493
574.599
578.661
581.646
583.535
584.316
583.979
582.531
579.98
576.34
571.633
565.895
559.176
551.554
543.132
534.056
524.517
514.753
505.066
495.822
487.453
480.463
692.425
685.41
679.46
674.01
669.171
664.785
660.564
656.585
652.86
649.44
646.102
642.809
639.659
636.539
633.485
630.442
627.502
624.625
621.885
619.27
616.766
614.303
611.886
609.499
607.123
604.744
602.392
600.02
597.631
595.263
592.927
590.584
588.218
585.849
583.48
581.116
578.758
576.362
573.947
571.531
569.113
566.689
564.281
561.884
559.492
557.109
554.744
552.393
550.057
547.741
545.441
543.164
540.908
538.672
536.457
534.262
532.09
529.943
527.82
525.723
523.648
521.594
519.561
517.549
515.559
513.589
511.638
509.707
507.794
505.899
504.021
502.159
500.313
498.48
496.662
494.856
493.063
491.283
489.515
487.757
486.01
484.274
482.548
480.831
479.123
477.425
475.734
892.218
909.474
970.489
530.459
520.8
511.014
501.43
492.441
484.513
478.182
474.05
747.25
740.081
733.526
727.457
721.735
716.268
711.053
706.2
701.505
697.047
692.779
688.492
684.106
679.761
675.504
671.368
667.466
663.764
660.225
656.845
653.613
650.505
647.526
644.648
641.82
639.018
636.286
633.673
631.177
628.757
626.394
624.072
621.778
619.503
617.238
614.972
612.699
610.414
608.11
605.783
603.43
601.049
598.638
596.198
593.728
591.231
588.71
586.165
583.603
581.024
578.434
575.836
573.233
570.63
568.03
565.435
562.851
560.278
557.72
555.179
552.658
550.157
547.679
545.224
542.793
540.388
538.01
535.662
533.341
531.045
528.774
526.529
524.311
522.118
519.95
517.807
515.688
513.592
511.519
509.467
507.436
505.425
503.434
501.461
499.505
497.567
495.645
493.74
491.85
489.974
488.112
486.264
484.428
482.604
480.792
478.99
477.199
475.418
888.639
923.849
937.111
882.806
979.022
986.607
874.387
949.38
545.369
536.795
993.046
863.085
960.758
998.048
848.711
1001.34
831.233
1002.1
810.856
999.508
787.804
993.12
762.718
982.594
735.434
967.422
947.223
755.2
801.238
921.994
717.127
764.126
901.816
667.113
690.734
847.38
891.997
971.319
671.512
669.392
662.767
655.896
650.112
645.095
640.74
636.913
633.382
629.993
626.767
623.833
620.987
618.263
615.603
613.023
610.429
607.876
605.349
602.949
600.663
598.496
596.404
594.344
592.317
590.306
588.297
586.27
584.259
582.254
580.208
578.168
576.139
574.125
572.1
570.058
568.013
565.964
563.917
561.856
559.774
557.679
555.585
553.49
551.395
549.315
547.24
545.174
543.118
541.077
539.05
537.037
535.042
533.064
531.106
529.166
527.245
525.342
523.458
521.596
519.754
517.934
516.135
514.354
512.591
510.846
509.119
507.408
505.715
504.037
502.375
500.728
499.094
497.473
495.864
494.266
492.679
491.101
489.534
487.975
486.425
484.882
483.348
481.82
480.299
478.784
477.276
475.773
474.274
472.779
553.207
560.192
566.24
571.294
575.311
578.262
580.128
580.897
580.561
579.121
576.589
572.977
568.31
562.626
555.974
548.432
540.105
531.139
521.724
512.1
502.568
493.492
485.303
478.499
473.647
900.494
917.909
725.168
654.674
932.753
897.17
981.086
990.022
709.992
703.568
697.706
692.244
687.216
682.432
677.976
673.614
669.416
665.412
661.602
657.95
654.373
650.797
647.245
643.829
640.518
637.344
634.345
631.482
628.75
626.134
623.616
621.203
618.866
616.56
614.27
612.035
609.898
607.858
605.876
603.933
602.016
600.114
598.218
596.321
594.417
592.499
590.564
588.605
586.622
584.61
582.568
580.495
578.393
576.262
574.103
571.92
569.715
567.491
565.251
563
560.741
558.477
556.211
553.947
551.688
549.437
547.196
544.969
542.756
540.56
538.382
536.224
534.086
531.97
529.875
527.804
525.758
523.738
521.739
519.763
517.808
515.876
513.965
512.076
510.208
508.36
506.532
504.723
502.931
501.156
499.398
497.656
495.928
494.214
492.513
490.826
489.151
487.488
485.836
484.194
482.563
480.94
479.326
477.72
476.122
474.531
472.947
471.369
891.502
946.466
527.638
518.107
508.464
499.035
490.214
482.465
476.319
472.373
471.288
542.36
533.884
774.198
786.091
810.964
998.007
883.142
959.163
1004.85
871.795
970.962
1010.19
857.293
1013.72
839.662
1014.52
818.836
1011.97
795.223
1005.7
769.008
995.131
739.555
979.704
652.87
959.215
933.687
910.192
688.284
690.82
926.778
909.186
992.099
550.112
557.025
563.013
568.015
571.99
574.908
576.75
577.506
577.167
575.738
573.223
569.638
565.012
559.381
552.795
545.332
537.099
528.242
518.951
509.467
500.089
491.179
483.166
476.548
471.885
469.796
748.014
680.815
673.062
666.611
660.921
655.866
651.313
647.153
643.217
639.449
635.855
632.457
629.241
626.171
623.227
620.339
617.51
614.811
612.225
609.758
607.418
605.191
603.073
601.05
599.109
597.251
595.45
593.668
591.893
590.164
588.517
586.949
585.423
583.921
582.433
580.946
579.456
577.956
576.442
574.909
573.352
571.769
570.158
568.515
566.84
565.134
563.395
561.627
559.831
558.01
556.165
554.302
552.422
550.529
548.626
546.718
544.806
542.894
540.986
539.082
537.187
535.302
533.429
531.569
529.725
527.897
526.087
524.294
522.52
520.764
519.029
517.315
515.621
513.945
512.287
510.647
509.025
507.42
505.832
504.26
502.704
501.162
499.634
498.119
496.616
495.125
493.645
492.174
490.714
489.262
487.819
486.383
484.955
483.533
482.118
480.708
479.303
477.902
476.505
475.112
473.721
472.334
470.948
906.107
942.093
648.585
644.234
640.561
637.091
631.995
626.875
622.184
618.075
614.491
611.328
608.49
605.798
603.147
600.695
598.425
596.22
594.148
592.078
590.016
587.95
585.931
584.012
582.22
580.537
578.905
577.291
575.683
574.076
572.46
570.836
569.213
567.593
565.934
564.27
562.606
560.932
559.265
557.586
555.887
554.183
552.47
550.748
549.014
547.266
545.507
543.75
541.993
540.24
538.493
536.753
535.02
533.297
531.587
529.889
528.204
526.534
524.879
523.241
521.619
520.012
518.422
516.848
515.291
513.753
512.232
510.727
509.236
507.759
506.297
504.848
503.412
501.989
500.578
499.178
497.787
496.407
495.034
493.67
492.312
490.961
489.616
488.277
486.942
485.612
484.287
482.964
481.645
480.328
479.013
477.7
476.388
475.077
473.766
524.839
515.434