/*--------------------------------*- C++ -*----------------------------------*\
| =========                 |                                                 |
| \\      /  F ield         | OpenFOAM: The Open Source CFD Toolbox           |
|  \\    /   O peration     | Version:  2212                                  |
|   \\  /    A nd           | Website:  www.openfoam.com                      |
|    \\/     M anipulation  |                                                 |
\*---------------------------------------------------------------------------*/
FoamFile
{
    version     2.0;
    format      ascii;
    arch        "LSB;label=32;scalar=64";
    class       volScalarField;
    location    "0.2834";
    object      s;
}
// * * * * * * * * * * * * * * * * * * * * * * * * * * * * * * * * * * * * * //

dimensions      [0 0 0 0 0 0 0];

internalField   nonuniform List<scalar> 
24240
(
6.88178e-85
6.79109e-85
6.86318e-85
6.72916e-85
6.77945e-85
6.84061e-85
6.82442e-85
6.65235e-85
6.71522e-85
6.88681e-85
6.75282e-85
6.89819e-85
6.76122e-85
6.88899e-85
6.70074e-85
6.93621e-85
6.68195e-85
6.76593e-85
6.7748e-85
6.61369e-85
3.34743e-82
3.30376e-82
3.3382e-82
3.27423e-82
3.29742e-82
3.32807e-82
3.31988e-82
3.23664e-82
3.26715e-82
3.35048e-82
3.2856e-82
3.35555e-82
3.29012e-82
3.35165e-82
3.26048e-82
3.37432e-82
3.2516e-82
3.29223e-82
3.29566e-82
3.21808e-82
8.64031e-80
8.52875e-80
8.616e-80
8.45406e-80
8.51066e-80
8.59202e-80
8.57014e-80
8.35651e-80
8.43508e-80
8.64973e-80
8.48305e-80
8.66162e-80
8.49584e-80
8.65303e-80
8.41876e-80
8.71072e-80
8.3966e-80
8.5008e-80
8.50733e-80
8.30931e-80
1.28687e-77
1.27043e-77
1.28318e-77
1.25953e-77
1.26748e-77
1.27993e-77
1.27656e-77
1.24493e-77
1.25661e-77
1.2885e-77
1.2638e-77
1.29009e-77
1.26587e-77
1.28903e-77
1.25429e-77
1.29748e-77
1.25112e-77
1.26653e-77
1.26715e-77
1.23801e-77
1.3694e-75
1.35212e-75
1.36541e-75
1.34075e-75
1.34869e-75
1.36229e-75
1.35859e-75
1.32514e-75
1.33756e-75
1.37137e-75
1.34524e-75
1.37287e-75
1.3476e-75
1.37197e-75
1.33518e-75
1.3808e-75
1.33197e-75
1.34822e-75
1.34851e-75
1.31791e-75
1.00839e-73
9.95824e-74
1.0054e-73
9.87618e-74
9.93081e-74
1.00335e-73
1.00055e-73
9.76085e-74
9.85236e-74
1.01001e-73
9.90896e-74
1.01097e-73
9.92744e-74
1.01046e-73
9.83512e-74
1.01683e-73
9.81287e-74
9.93113e-74
9.9305e-74
9.70855e-74
5.14571e-72
5.08256e-72
5.13025e-72
5.0415e-72
5.06739e-72
5.12107e-72
5.10644e-72
4.9825e-72
5.02941e-72
5.15476e-72
5.05817e-72
5.15895e-72
5.06805e-72
5.15716e-72
5.02044e-72
5.18873e-72
5.01005e-72
5.06941e-72
5.06764e-72
4.95653e-72
1.74128e-70
1.72033e-70
1.73601e-70
1.70668e-70
1.71477e-70
1.73331e-70
1.72832e-70
1.68672e-70
1.7028e-70
1.74457e-70
1.71239e-70
1.74578e-70
1.71578e-70
1.7454e-70
1.69947e-70
1.75565e-70
1.69645e-70
1.71601e-70
1.71493e-70
1.67838e-70
1.60066e-69
1.58216e-69
1.59604e-69
1.56981e-69
1.57656e-69
1.59385e-69
1.58939e-69
1.55158e-69
1.56699e-69
1.60393e-69
1.5754e-69
1.60496e-69
1.57828e-69
1.60468e-69
1.56302e-69
1.61342e-69
1.56115e-69
1.57814e-69
1.57675e-69
1.5448e-69
7.80377e-70
7.80591e-70
7.8424e-70
7.72617e-70
7.75272e-70
7.79571e-70
7.8283e-70
7.66673e-70
7.87166e-70
7.79298e-70
7.82801e-70
7.8406e-70
7.74637e-70
7.78892e-70
7.64834e-70
7.74729e-70
7.77606e-70
7.70971e-70
7.72558e-70
7.78167e-70
1.27575e-69
1.28377e-69
1.29603e-69
1.27432e-69
1.26704e-69
1.27113e-69
1.28268e-69
1.26056e-69
1.29836e-69
1.28955e-69
1.29656e-69
1.28819e-69
1.28334e-69
1.27025e-69
1.26108e-69
1.27118e-69
1.26155e-69
1.26595e-69
1.27378e-69
1.27566e-69
1.4411e-69
1.45042e-69
1.45796e-69
1.43059e-69
1.43253e-69
1.4104e-69
1.43991e-69
1.4206e-69
1.44547e-69
1.47623e-69
1.45999e-69
1.43081e-69
1.46134e-69
1.4427e-69
1.43947e-69
1.44889e-69
1.39578e-69
1.43797e-69
1.41943e-69
1.42232e-69
1.6749e-69
1.69467e-69
1.69523e-69
1.69012e-69
1.69768e-69
1.71138e-69
1.74207e-69
1.70072e-69
1.70189e-69
1.67945e-69
1.68408e-69
1.68693e-69
1.70388e-69
1.71092e-69
1.68103e-69
1.69761e-69
1.70444e-69
1.68638e-69
1.67524e-69
1.68144e-69
1.81269e-69
1.80496e-69
1.81368e-69
1.84799e-69
1.83545e-69
1.85317e-69
1.82129e-69
1.85748e-69
1.81623e-69
1.77884e-69
1.78932e-69
1.8027e-69
1.80613e-69
1.78131e-69
1.77332e-69
1.79313e-69
1.77371e-69
1.8086e-69
1.79112e-69
1.82435e-69
1.86188e-69
1.85574e-69
1.8875e-69
1.86752e-69
1.85605e-69
1.88994e-69
1.87804e-69
1.90993e-69
1.8626e-69
1.89251e-69
1.88116e-69
1.88639e-69
1.88944e-69
1.89468e-69
1.87704e-69
1.91919e-69
1.87256e-69
1.85131e-69
1.87218e-69
1.86622e-69
1.85809e-69
1.82972e-69
1.83063e-69
1.82875e-69
1.85174e-69
1.86554e-69
1.86226e-69
1.85203e-69
1.81619e-69
1.82657e-69
1.80668e-69
1.85665e-69
1.85819e-69
1.87905e-69
1.87449e-69
1.86859e-69
1.855e-69
1.86058e-69
1.84027e-69
1.84586e-69
1.71293e-69
1.73856e-69
1.71281e-69
1.76687e-69
1.71591e-69
1.75457e-69
1.72287e-69
1.74927e-69
1.72578e-69
1.73802e-69
1.73031e-69
1.7657e-69
1.73071e-69
1.77758e-69
1.72592e-69
1.74972e-69
1.75011e-69
1.70677e-69
1.75627e-69
1.75521e-69
1.53993e-69
1.59168e-69
1.57699e-69
1.56019e-69
1.54642e-69
1.60645e-69
1.57822e-69
1.58598e-69
1.57367e-69
1.5497e-69
1.56703e-69
1.59611e-69
1.56545e-69
1.62026e-69
1.56647e-69
1.59314e-69
1.59889e-69
1.5785e-69
1.60221e-69
1.60685e-69
1.44095e-69
1.44097e-69
1.44012e-69
1.45833e-69
1.46287e-69
1.46272e-69
1.433e-69
1.45853e-69
1.47816e-69
1.43912e-69
1.46631e-69
1.47512e-69
1.43002e-69
1.4835e-69
1.47549e-69
1.50381e-69
1.4622e-69
1.47991e-69
1.46249e-69
1.49527e-69
9.81248e-70
9.88929e-70
9.86223e-70
9.77247e-70
9.89079e-70
9.85387e-70
9.8974e-70
9.87571e-70
9.84959e-70
9.99966e-70
9.78234e-70
1.00256e-69
9.78553e-70
1.01194e-69
9.81181e-70
9.82554e-70
9.86308e-70
1.00533e-69
9.89765e-70
1.01308e-69
2.10297e-83
2.07547e-83
2.09721e-83
2.05695e-83
2.07157e-83
2.09084e-83
2.08567e-83
2.03338e-83
2.05247e-83
2.10501e-83
2.0641e-83
2.10821e-83
2.06695e-83
2.10568e-83
2.04834e-83
2.11998e-83
2.04261e-83
2.06825e-83
2.07047e-83
2.02154e-83
1.01982e-80
1.00663e-80
1.01699e-80
9.97837e-81
1.00454e-80
1.01415e-80
1.01155e-80
9.86338e-81
9.95566e-81
1.02101e-80
1.00125e-80
1.02241e-80
1.00277e-80
1.02136e-80
9.93678e-81
1.02821e-80
9.90983e-81
1.00335e-80
1.00415e-80
9.80657e-81
2.59606e-78
2.56286e-78
2.58872e-78
2.54092e-78
2.55699e-78
2.58215e-78
2.5753e-78
2.51149e-78
2.53492e-78
2.59955e-78
2.5495e-78
2.60277e-78
2.55371e-78
2.60053e-78
2.53037e-78
2.6177e-78
2.52375e-78
2.55502e-78
2.55637e-78
2.49721e-78
3.85189e-76
3.8032e-76
3.84083e-76
3.77131e-76
3.79371e-76
3.83203e-76
3.82153e-76
3.72743e-76
3.76213e-76
3.85778e-76
3.78388e-76
3.862e-76
3.79062e-76
3.85932e-76
3.75571e-76
3.88439e-76
3.74627e-76
3.79232e-76
3.79329e-76
3.70653e-76
4.03338e-74
3.98304e-74
4.02163e-74
3.95031e-74
3.97224e-74
4.0134e-74
4.00207e-74
3.90417e-74
3.94046e-74
4.04026e-74
3.96331e-74
4.0441e-74
3.97086e-74
4.04195e-74
3.93398e-74
4.06771e-74
3.92458e-74
3.97237e-74
3.97228e-74
3.88263e-74
2.93916e-72
2.90298e-72
2.9305e-72
2.87962e-72
2.89448e-72
2.92522e-72
2.91674e-72
2.84588e-72
2.87234e-72
2.9447e-72
2.88901e-72
2.94708e-72
2.89483e-72
2.94598e-72
2.8677e-72
2.96433e-72
2.86126e-72
2.89569e-72
2.89482e-72
2.83045e-72
1.47761e-70
1.45971e-70
1.47321e-70
1.4482e-70
1.4551e-70
1.47091e-70
1.46656e-70
1.4312e-70
1.44456e-70
1.48064e-70
1.4529e-70
1.48162e-70
1.45596e-70
1.48129e-70
1.44218e-70
1.49026e-70
1.43922e-70
1.45624e-70
1.45539e-70
1.42363e-70
4.93685e-69
4.87828e-69
4.92213e-69
4.84049e-69
4.86167e-69
4.91555e-69
4.90087e-69
4.78371e-69
4.82894e-69
4.94764e-69
4.8564e-69
4.95034e-69
4.86675e-69
4.94986e-69
4.82015e-69
4.9786e-69
4.81164e-69
4.86702e-69
4.86285e-69
4.75965e-69
4.4754e-68
4.42445e-68
4.46275e-68
4.39074e-68
4.40803e-68
4.45754e-68
4.44461e-68
4.33961e-68
4.38233e-68
4.48591e-68
4.4061e-68
4.4881e-68
4.41484e-68
4.48785e-68
4.37183e-68
4.51199e-68
4.36664e-68
4.41411e-68
4.40924e-68
4.32022e-68
2.13597e-68
2.13662e-68
2.14694e-68
2.11519e-68
2.12196e-68
2.13402e-68
2.14258e-68
2.09872e-68
2.15487e-68
2.13336e-68
2.14298e-68
2.14609e-68
2.12074e-68
2.13206e-68
2.094e-68
2.12027e-68
2.12852e-68
2.1105e-68
2.11488e-68
2.13014e-68
3.51391e-68
3.5356e-68
3.56953e-68
3.50957e-68
3.48965e-68
3.50056e-68
3.53188e-68
3.47178e-68
3.57545e-68
3.55173e-68
3.57078e-68
3.54734e-68
3.5346e-68
3.49875e-68
3.47356e-68
3.50086e-68
3.47389e-68
3.48657e-68
3.50782e-68
3.51256e-68
3.94676e-68
3.97196e-68
3.9927e-68
3.91774e-68
3.92355e-68
3.86368e-68
3.94414e-68
3.89198e-68
3.95816e-68
4.04207e-68
3.9973e-68
3.91852e-68
4.00148e-68
3.95132e-68
3.94207e-68
3.96794e-68
3.82349e-68
3.93745e-68
3.88766e-68
3.89519e-68
4.59627e-68
4.64895e-68
4.6512e-68
4.63823e-68
4.65845e-68
4.69637e-68
4.77826e-68
4.66756e-68
4.6698e-68
4.60807e-68
4.62047e-68
4.62854e-68
4.675e-68
4.69477e-68
4.61327e-68
4.65802e-68
4.67641e-68
4.62801e-68
4.59695e-68
4.61437e-68
4.94012e-68
4.9181e-68
4.94167e-68
5.03483e-68
5.00105e-68
5.04925e-68
4.9622e-68
5.06144e-68
4.94754e-68
4.84855e-68
4.87568e-68
4.91294e-68
4.92132e-68
4.85457e-68
4.8329e-68
4.88693e-68
4.83332e-68
4.9282e-68
4.88106e-68
4.9708e-68
5.08848e-68
5.0712e-68
5.15754e-68
5.10265e-68
5.07226e-68
5.16518e-68
5.13163e-68
5.21924e-68
5.0905e-68
5.17242e-68
5.14086e-68
5.15539e-68
5.16296e-68
5.17909e-68
5.13034e-68
5.24435e-68
5.11764e-68
5.05932e-68
5.11643e-68
5.09892e-68
5.03939e-68
4.96312e-68
4.96373e-68
4.95989e-68
5.02216e-68
5.05932e-68
5.05002e-68
5.02227e-68
4.92591e-68
4.95359e-68
4.89944e-68
5.03447e-68
5.03941e-68
5.09537e-68
5.08369e-68
5.06634e-68
5.03065e-68
5.04645e-68
4.99122e-68
5.00635e-68
4.66467e-68
4.73532e-68
4.66479e-68
4.81109e-68
4.67167e-68
4.77697e-68
4.69076e-68
4.76338e-68
4.69979e-68
4.7336e-68
4.71201e-68
4.80861e-68
4.71283e-68
4.84e-68
4.70019e-68
4.76406e-68
4.7658e-68
4.64828e-68
4.78271e-68
4.77984e-68
4.16977e-68
4.30847e-68
4.26957e-68
4.22342e-68
4.18695e-68
4.34808e-68
4.27163e-68
4.29307e-68
4.25996e-68
4.19539e-68
4.24151e-68
4.32005e-68
4.23773e-68
4.3847e-68
4.24043e-68
4.31228e-68
4.3271e-68
4.27332e-68
4.33638e-68
4.34946e-68
3.92971e-68
3.92971e-68
3.92804e-68
3.97717e-68
3.98881e-68
3.9885e-68
3.90749e-68
3.97861e-68
4.03066e-68
3.92513e-68
3.99864e-68
4.02301e-68
3.89966e-68
4.04526e-68
4.02376e-68
4.10057e-68
3.98784e-68
4.03502e-68
3.98764e-68
4.07647e-68
2.66089e-68
2.68188e-68
2.67479e-68
2.65021e-68
2.68167e-68
2.67207e-68
2.68339e-68
2.67816e-68
2.6699e-68
2.71115e-68
2.65204e-68
2.71786e-68
2.65327e-68
2.74344e-68
2.6603e-68
2.66407e-68
2.67389e-68
2.72548e-68
2.68354e-68
2.74631e-68
6.33642e-82
6.2543e-82
6.31889e-82
6.19976e-82
6.24148e-82
6.30132e-82
6.28506e-82
6.12843e-82
6.1855e-82
6.34415e-82
6.22097e-82
6.35289e-82
6.23046e-82
6.34615e-82
6.17395e-82
6.38882e-82
6.15676e-82
6.23391e-82
6.23904e-82
6.09254e-82
3.03768e-79
2.99877e-79
3.02917e-79
2.97316e-79
2.99201e-79
3.0215e-79
3.01343e-79
2.93877e-79
2.96605e-79
3.04199e-79
2.98319e-79
3.04575e-79
2.98816e-79
3.04304e-79
2.96085e-79
3.06322e-79
2.95286e-79
2.98964e-79
2.99129e-79
2.92174e-79
7.6036e-77
7.50737e-77
7.58204e-77
7.4446e-77
7.48889e-77
7.56469e-77
7.54381e-77
7.35806e-77
7.42616e-77
7.61587e-77
7.46934e-77
7.62418e-77
7.48278e-77
7.61867e-77
7.41389e-77
7.66843e-77
7.39458e-77
7.48605e-77
7.48813e-77
7.31588e-77
1.11526e-74
1.10132e-74
1.11206e-74
1.0923e-74
1.09838e-74
1.10979e-74
1.10662e-74
1.07955e-74
1.08952e-74
1.11727e-74
1.09588e-74
1.11833e-74
1.098e-74
1.11771e-74
1.08781e-74
1.12489e-74
1.0851e-74
1.09841e-74
1.09842e-74
1.07344e-74
1.1484e-72
1.13424e-72
1.14507e-72
1.12515e-72
1.13097e-72
1.14301e-72
1.13966e-72
1.11196e-72
1.12221e-72
1.15069e-72
1.12879e-72
1.15161e-72
1.13111e-72
1.15115e-72
1.12052e-72
1.15841e-72
1.11787e-72
1.13145e-72
1.13115e-72
1.10575e-72
8.26548e-71
8.16511e-71
8.24136e-71
8.10099e-71
8.13974e-71
8.22848e-71
8.20373e-71
8.00579e-71
8.07957e-71
8.28354e-71
8.12693e-71
8.28898e-71
8.14459e-71
8.28697e-71
8.06767e-71
8.33802e-71
8.0497e-71
8.14636e-71
8.1419e-71
7.96176e-71
4.09037e-69
4.04155e-69
4.07837e-69
4.01045e-69
4.02806e-69
4.07296e-69
4.06045e-69
3.96324e-69
3.9999e-69
4.10002e-69
4.02323e-69
4.10213e-69
4.03234e-69
4.10174e-69
3.99387e-69
4.12628e-69
3.98575e-69
4.0328e-69
4.02946e-69
3.94194e-69
1.34696e-67
1.33123e-67
1.34301e-67
1.32117e-67
1.32645e-67
1.34152e-67
1.33737e-67
1.30563e-67
1.31786e-67
1.35033e-67
1.32543e-67
1.35086e-67
1.32847e-67
1.3509e-67
1.31565e-67
1.35864e-67
1.31335e-67
1.32844e-67
1.32698e-67
1.29894e-67
1.20318e-66
1.18972e-66
1.19987e-66
1.18088e-66
1.18509e-66
1.19873e-66
1.19511e-66
1.16709e-66
1.17847e-66
1.2064e-66
1.18493e-66
1.2068e-66
1.18748e-66
1.20688e-66
1.17582e-66
1.21328e-66
1.17444e-66
1.18718e-66
1.1856e-66
1.16174e-66
5.61382e-67
5.61569e-67
5.64372e-67
5.56044e-67
5.57689e-67
5.60933e-67
5.63087e-67
5.51659e-67
5.66429e-67
5.60788e-67
5.63324e-67
5.64053e-67
5.57508e-67
5.60393e-67
5.50507e-67
5.57191e-67
5.59454e-67
5.54761e-67
5.55922e-67
5.599e-67
9.29611e-67
9.3524e-67
9.44258e-67
9.28354e-67
9.23123e-67
9.25918e-67
9.34068e-67
9.1839e-67
9.45695e-67
9.39564e-67
9.44532e-67
9.38232e-67
9.35027e-67
9.25598e-67
9.18951e-67
9.26033e-67
9.1878e-67
9.2228e-67
9.27824e-67
9.2896e-67
1.03872e-66
1.04527e-66
1.05076e-66
1.03102e-66
1.03268e-66
1.01711e-66
1.0382e-66
1.02468e-66
1.04157e-66
1.06357e-66
1.0517e-66
1.03128e-66
1.05293e-66
1.03997e-66
1.03743e-66
1.04425e-66
1.00651e-66
1.03607e-66
1.02325e-66
1.02512e-66
1.21232e-66
1.22579e-66
1.22658e-66
1.22342e-66
1.22862e-66
1.23871e-66
1.25968e-66
1.23122e-66
1.23156e-66
1.21527e-66
1.21844e-66
1.22063e-66
1.23288e-66
1.2382e-66
1.21686e-66
1.22845e-66
1.2332e-66
1.22075e-66
1.21242e-66
1.21712e-66
1.29559e-66
1.28956e-66
1.29569e-66
1.32003e-66
1.31128e-66
1.32389e-66
1.30102e-66
1.3272e-66
1.29694e-66
1.27175e-66
1.27849e-66
1.28847e-66
1.2904e-66
1.27315e-66
1.26749e-66
1.28166e-66
1.26743e-66
1.29226e-66
1.28003e-66
1.30333e-66
1.33851e-66
1.33383e-66
1.35641e-66
1.34191e-66
1.33418e-66
1.35869e-66
1.34958e-66
1.37275e-66
1.33906e-66
1.36062e-66
1.35219e-66
1.35608e-66
1.35787e-66
1.36259e-66
1.34963e-66
1.37928e-66
1.34616e-66
1.3308e-66
1.3458e-66
1.34088e-66
1.31747e-66
1.29776e-66
1.29748e-66
1.2968e-66
1.31296e-66
1.32263e-66
1.32008e-66
1.31292e-66
1.28794e-66
1.29507e-66
1.28086e-66
1.31596e-66
1.31745e-66
1.33187e-66
1.32899e-66
1.32418e-66
1.31511e-66
1.31941e-66
1.30498e-66
1.3089e-66
1.22478e-66
1.24349e-66
1.22485e-66
1.26297e-66
1.2263e-66
1.25391e-66
1.23134e-66
1.25053e-66
1.23394e-66
1.24296e-66
1.23711e-66
1.26257e-66
1.23732e-66
1.27056e-66
1.23415e-66
1.25058e-66
1.25125e-66
1.22056e-66
1.2557e-66
1.25496e-66
1.08967e-66
1.12552e-66
1.11559e-66
1.1034e-66
1.09405e-66
1.13577e-66
1.11579e-66
1.12151e-66
1.11291e-66
1.09614e-66
1.10796e-66
1.12843e-66
1.10712e-66
1.14513e-66
1.1078e-66
1.12648e-66
1.13016e-66
1.11647e-66
1.13265e-66
1.13621e-66
1.03406e-66
1.03408e-66
1.03381e-66
1.04657e-66
1.04942e-66
1.0494e-66
1.0281e-66
1.0472e-66
1.06048e-66
1.03298e-66
1.05214e-66
1.05865e-66
1.02612e-66
1.06435e-66
1.05877e-66
1.07885e-66
1.04943e-66
1.06151e-66
1.04911e-66
1.07231e-66
6.95673e-67
7.01188e-67
6.99407e-67
6.92932e-67
7.0099e-67
6.98577e-67
7.01392e-67
7.00217e-67
6.97756e-67
7.08668e-67
6.9319e-67
7.10341e-67
6.93587e-67
7.17058e-67
6.95422e-67
6.9643e-67
6.9887e-67
7.12372e-67
7.01468e-67
7.17759e-67
1.86053e-80
1.83665e-80
1.85535e-80
1.82101e-80
1.83257e-80
1.85066e-80
1.84569e-80
1.79998e-80
1.81661e-80
1.86329e-80
1.82714e-80
1.86559e-80
1.8302e-80
1.86387e-80
1.81347e-80
1.87627e-80
1.80844e-80
1.83107e-80
1.83212e-80
1.78935e-80
9.03671e-78
8.92219e-78
9.01133e-78
8.8478e-78
8.9005e-78
8.99078e-78
8.96578e-78
8.74507e-78
8.82558e-78
9.05198e-78
8.87714e-78
9.06184e-78
8.89322e-78
9.05499e-78
8.81133e-78
9.11441e-78
8.78767e-78
8.89694e-78
8.89961e-78
8.69389e-78
2.22546e-75
2.19762e-75
2.21916e-75
2.17968e-75
2.19182e-75
2.21463e-75
2.20828e-75
2.15426e-75
2.17403e-75
2.22968e-75
2.1868e-75
2.23178e-75
2.19107e-75
2.23047e-75
2.17074e-75
2.24488e-75
2.16512e-75
2.19186e-75
2.19192e-75
2.14178e-75
3.22157e-73
3.18181e-73
3.21238e-73
3.1564e-73
3.17275e-73
3.20661e-73
3.19713e-73
3.11943e-73
3.14798e-73
3.22834e-73
3.16657e-73
3.23092e-73
3.17318e-73
3.22954e-73
3.1435e-73
3.25007e-73
3.1357e-73
3.17411e-73
3.17333e-73
3.10155e-73
3.26206e-71
3.22241e-71
3.25271e-71
3.19721e-71
3.21252e-71
3.24763e-71
3.23776e-71
3.15962e-71
3.18848e-71
3.26957e-71
3.20735e-71
3.27169e-71
3.21446e-71
3.27082e-71
3.18413e-71
3.2912e-71
3.17664e-71
3.21518e-71
3.21351e-71
3.14172e-71
2.31615e-69
2.28844e-69
2.30949e-69
2.27092e-69
2.28091e-69
2.30642e-69
2.29924e-69
2.24415e-69
2.26464e-69
2.32194e-69
2.27805e-69
2.32311e-69
2.28336e-69
2.32285e-69
2.26163e-69
2.33699e-69
2.25664e-69
2.28368e-69
2.28186e-69
2.23161e-69
1.12819e-67
1.11494e-67
1.12494e-67
1.10658e-67
1.11101e-67
1.12371e-67
1.12014e-67
1.09351e-67
1.10353e-67
1.13122e-67
1.11003e-67
1.13162e-67
1.11273e-67
1.13166e-67
1.10203e-67
1.13835e-67
1.09981e-67
1.11276e-67
1.11157e-67
1.08753e-67
3.65879e-66
3.6168e-66
3.64834e-66
3.59018e-66
3.60317e-66
3.64511e-66
3.63343e-66
3.54783e-66
3.58075e-66
3.66919e-66
3.60151e-66
3.67003e-66
3.61038e-66
3.6706e-66
3.57524e-66
3.69139e-66
3.56907e-66
3.60998e-66
3.60517e-66
3.52926e-66
3.22032e-65
3.18495e-65
3.21173e-65
3.16191e-65
3.17198e-65
3.20936e-65
3.19933e-65
3.12488e-65
3.15508e-65
3.23006e-65
3.17253e-65
3.2306e-65
3.1799e-65
3.23121e-65
3.14844e-65
3.24812e-65
3.14476e-65
3.17883e-65
3.17386e-65
3.11018e-65
1.46784e-65
1.46838e-65
1.47595e-65
1.45421e-65
1.45816e-65
1.46683e-65
1.47221e-65
1.4426e-65
1.48125e-65
1.46654e-65
1.47318e-65
1.47485e-65
1.45805e-65
1.46536e-65
1.43981e-65
1.45671e-65
1.46287e-65
1.45072e-65
1.45378e-65
1.4641e-65
2.44757e-65
2.46211e-65
2.48595e-65
2.44397e-65
2.43031e-65
2.43742e-65
2.45853e-65
2.41784e-65
2.4894e-65
2.47365e-65
2.48652e-65
2.46969e-65
2.46168e-65
2.43701e-65
2.41955e-65
2.43783e-65
2.41842e-65
2.42801e-65
2.4424e-65
2.44507e-65
2.72177e-65
2.73868e-65
2.75315e-65
2.70145e-65
2.70611e-65
2.66582e-65
2.72083e-65
2.68596e-65
2.72883e-65
2.78623e-65
2.75494e-65
2.70221e-65
2.75848e-65
2.72519e-65
2.71825e-65
2.73617e-65
2.63798e-65
2.7143e-65
2.68147e-65
2.68608e-65
3.18436e-65
3.21858e-65
3.2212e-65
3.21361e-65
3.22691e-65
3.25365e-65
3.30702e-65
3.23424e-65
3.23448e-65
3.19167e-65
3.19973e-65
3.20564e-65
3.23777e-65
3.252e-65
3.19639e-65
3.22629e-65
3.23853e-65
3.20664e-65
3.1844e-65
3.19703e-65
3.38695e-65
3.37055e-65
3.38643e-65
3.44978e-65
3.42722e-65
3.4601e-65
3.40024e-65
3.46903e-65
3.38892e-65
3.32513e-65
3.34173e-65
3.36835e-65
3.37274e-65
3.32827e-65
3.31357e-65
3.35062e-65
3.31297e-65
3.37773e-65
3.34611e-65
3.40639e-65
3.51049e-65
3.49786e-65
3.55671e-65
3.51851e-65
3.49899e-65
3.56339e-65
3.53878e-65
3.59987e-65
3.51197e-65
3.56858e-65
3.54608e-65
3.55645e-65
3.56065e-65
3.57431e-65
3.53991e-65
3.6168e-65
3.5305e-65
3.49017e-65
3.52946e-65
3.51569e-65
3.43892e-65
3.38811e-65
3.38622e-65
3.38531e-65
3.42714e-65
3.45226e-65
3.44531e-65
3.42687e-65
3.36227e-65
3.38057e-65
3.34333e-65
3.43443e-65
3.43881e-65
3.4759e-65
3.46888e-65
3.45559e-65
3.43256e-65
3.44428e-65
3.40664e-65
3.41675e-65
3.21144e-65
3.26097e-65
3.21175e-65
3.31095e-65
3.21461e-65
3.28689e-65
3.22788e-65
3.2785e-65
3.23534e-65
3.25936e-65
3.24355e-65
3.31058e-65
3.24405e-65
3.33085e-65
3.23613e-65
3.27829e-65
3.28067e-65
3.20058e-65
3.29237e-65
3.29044e-65
2.84881e-65
2.94146e-65
2.91613e-65
2.88384e-65
2.85994e-65
2.968e-65
2.91574e-65
2.93099e-65
2.90866e-65
2.86504e-65
2.89538e-65
2.94875e-65
2.89359e-65
2.99193e-65
2.89533e-65
2.94389e-65
2.95298e-65
2.9182e-65
2.95962e-65
2.96933e-65
2.72278e-65
2.7228e-65
2.72256e-65
2.75575e-65
2.76275e-65
2.76275e-65
2.70672e-65
2.75807e-65
2.79193e-65
2.72024e-65
2.77023e-65
2.78762e-65
2.70174e-65
2.80219e-65
2.78776e-65
2.84026e-65
2.76342e-65
2.79435e-65
2.76183e-65
2.82248e-65
1.8278e-65
1.84241e-65
1.83791e-65
1.82072e-65
1.84145e-65
1.83539e-65
1.84245e-65
1.83982e-65
1.83252e-65
1.86159e-65
1.8208e-65
1.86575e-65
1.82211e-65
1.88349e-65
1.82685e-65
1.82953e-65
1.83569e-65
1.87117e-65
1.84271e-65
1.88518e-65
5.62427e-79
5.55286e-79
5.60858e-79
5.50668e-79
5.53955e-79
5.59584e-79
5.58019e-79
5.44286e-79
5.49273e-79
5.63416e-79
5.52494e-79
5.6403e-79
5.535e-79
5.63586e-79
5.48402e-79
5.67298e-79
5.4689e-79
5.53721e-79
5.53898e-79
5.41045e-79
2.69118e-76
2.65746e-76
2.68363e-76
2.63584e-76
2.65054e-76
2.67818e-76
2.67044e-76
2.60513e-76
2.62891e-76
2.69649e-76
2.64443e-76
2.69903e-76
2.64963e-76
2.69735e-76
2.62504e-76
2.71486e-76
2.61803e-76
2.65053e-76
2.65065e-76
2.58973e-76
6.51227e-74
6.43183e-74
6.49394e-74
6.38062e-74
6.41373e-74
6.48231e-74
6.463e-74
6.30596e-74
6.36332e-74
6.52654e-74
6.40111e-74
6.53172e-74
6.41459e-74
6.52875e-74
6.35459e-74
6.57049e-74
6.33827e-74
6.41638e-74
6.41494e-74
6.26897e-74
9.29885e-72
9.18569e-72
9.27262e-72
9.11414e-72
9.15788e-72
9.25821e-72
9.22984e-72
9.00708e-72
9.08876e-72
9.32127e-72
9.14297e-72
9.32729e-72
9.1635e-72
9.32455e-72
9.0771e-72
9.38316e-72
9.05478e-72
9.16547e-72
9.16092e-72
8.9547e-72
9.25529e-70
9.14445e-70
9.22915e-70
9.07474e-70
9.11474e-70
9.21695e-70
9.18794e-70
8.96775e-70
9.04891e-70
9.27953e-70
9.10299e-70
9.28412e-70
9.12462e-70
9.28286e-70
9.03784e-70
9.34006e-70
9.01677e-70
9.12592e-70
9.11889e-70
8.91613e-70
6.47708e-68
6.40084e-68
6.45881e-68
6.35308e-68
6.37863e-68
6.45176e-68
6.43097e-68
6.278e-68
6.33479e-68
6.49541e-68
6.37264e-68
6.49766e-68
6.38856e-68
6.49777e-68
6.32723e-68
6.53688e-68
6.31342e-68
6.38891e-68
6.38226e-68
6.24228e-68
3.10416e-66
3.06834e-66
3.09544e-66
3.04592e-66
3.05697e-66
3.09276e-66
3.0826e-66
3.00987e-66
3.03718e-66
3.11355e-66
3.05523e-66
3.11417e-66
3.06317e-66
3.11467e-66
3.03346e-66
3.13286e-66
3.02743e-66
3.06301e-66
3.05898e-66
2.99306e-66
9.90575e-65
9.79417e-65
9.87827e-65
9.72395e-65
9.75545e-65
9.8717e-65
9.83901e-65
9.60898e-65
9.69729e-65
9.93734e-65
9.754e-65
9.93803e-65
9.77969e-65
9.94082e-65
9.68372e-65
9.99639e-65
9.66722e-65
9.77777e-65
9.7624e-65
9.55751e-65
8.58865e-64
8.49621e-64
8.56658e-64
8.43636e-64
8.46006e-64
8.56206e-64
8.53436e-64
8.33732e-64
8.4171e-64
8.61769e-64
8.4641e-64
8.6177e-64
8.48523e-64
8.6204e-64
8.4006e-64
8.66487e-64
8.39091e-64
8.48162e-64
8.46643e-64
8.29693e-64
3.82168e-64
3.8232e-64
3.84353e-64
3.78702e-64
3.79638e-64
3.81943e-64
3.83278e-64
3.75642e-64
3.85713e-64
3.81896e-64
3.83625e-64
3.84e-64
3.79709e-64
3.81549e-64
3.74977e-64
3.79227e-64
3.80891e-64
3.7776e-64
3.78566e-64
3.81224e-64
6.41811e-64
6.45549e-64
6.51827e-64
6.4079e-64
6.37241e-64
6.39043e-64
6.44484e-64
6.3397e-64
6.52645e-64
6.48616e-64
6.51936e-64
6.47461e-64
6.45468e-64
6.39046e-64
6.34473e-64
6.39174e-64
6.34006e-64
6.36612e-64
6.40335e-64
6.40951e-64
7.10628e-64
7.14979e-64
7.18782e-64
7.05287e-64
7.06584e-64
6.96193e-64
7.10487e-64
7.01537e-64
7.12359e-64
7.2729e-64
7.19066e-64
7.05503e-64
7.20075e-64
7.11559e-64
7.09675e-64
7.14363e-64
6.88914e-64
7.0854e-64
7.00171e-64
7.01298e-64
8.3354e-64
8.42198e-64
8.43023e-64
8.41212e-64
8.44601e-64
8.51666e-64
8.65197e-64
8.46653e-64
8.46549e-64
8.35345e-64
8.3738e-64
8.38974e-64
8.47367e-64
8.51153e-64
8.36718e-64
8.444e-64
8.47529e-64
8.39406e-64
8.33489e-64
8.36869e-64
8.83138e-64
8.78697e-64
8.828e-64
8.99241e-64
8.93442e-64
9.01995e-64
8.86369e-64
9.0439e-64
8.83248e-64
8.67143e-64
8.71212e-64
8.78292e-64
8.7926e-64
8.67827e-64
8.64031e-64
8.73678e-64
8.63754e-64
8.806e-64
8.72452e-64
8.87997e-64
9.18413e-64
9.15019e-64
9.30313e-64
9.20282e-64
9.15375e-64
9.32249e-64
9.25618e-64
9.41682e-64
9.18815e-64
9.33623e-64
9.27641e-64
9.30401e-64
9.31372e-64
9.35281e-64
9.26171e-64
9.46055e-64
9.23637e-64
9.13074e-64
9.23334e-64
9.19516e-64
8.96292e-64
8.83245e-64
8.82461e-64
8.82433e-64
8.93219e-64
8.99756e-64
8.97856e-64
8.93141e-64
8.76459e-64
8.81153e-64
8.71414e-64
8.95006e-64
8.96275e-64
9.05781e-64
9.04067e-64
9.00447e-64
8.94601e-64
8.97754e-64
8.87989e-64
8.90588e-64
8.40884e-64
8.5394e-64
8.40966e-64
8.66718e-64
8.41492e-64
8.60365e-64
8.44981e-64
8.58291e-64
8.47075e-64
8.5346e-64
8.49187e-64
8.66819e-64
8.49329e-64
8.71952e-64
8.4738e-64
8.58147e-64
8.58937e-64
8.38094e-64
8.61993e-64
8.61501e-64
7.44218e-64
7.68141e-64
7.61688e-64
7.53175e-64
7.47047e-64
7.75004e-64
7.61355e-64
7.65413e-64
7.59616e-64
7.48297e-64
7.5607e-64
7.69967e-64
7.55701e-64
7.81114e-64
7.56144e-64
7.68756e-64
7.70998e-64
7.6216e-64
7.72766e-64
7.754e-64
7.16397e-64
7.16419e-64
7.16475e-64
7.2508e-64
7.26774e-64
7.26824e-64
7.121e-64
7.25871e-64
7.34477e-64
7.15811e-64
7.28836e-64
7.33483e-64
7.1085e-64
7.3721e-64
7.33464e-64
7.47173e-64
7.27146e-64
7.35037e-64
7.26537e-64
7.42362e-64
4.78935e-64
4.82776e-64
4.81651e-64
4.77119e-64
4.82437e-64
4.80908e-64
4.82659e-64
4.82104e-64
4.79989e-64
4.87684e-64
4.76991e-64
4.88722e-64
4.77377e-64
4.93389e-64
4.78627e-64
4.79347e-64
4.80863e-64
4.9017e-64
4.82754e-64
4.93799e-64
1.69842e-77
1.67711e-77
1.69369e-77
1.6635e-77
1.6728e-77
1.69027e-77
1.68536e-77
1.64416e-77
1.65909e-77
1.7019e-77
1.66892e-77
1.7035e-77
1.67222e-77
1.70239e-77
1.65669e-77
1.71348e-77
1.65215e-77
1.67275e-77
1.67286e-77
1.63426e-77
8.00604e-75
7.90701e-75
7.98371e-75
7.84426e-75
7.88502e-75
7.9695e-75
7.94562e-75
7.7526e-75
7.82274e-75
8.02422e-75
7.86941e-75
8.03058e-75
7.88608e-75
8.02668e-75
7.81231e-75
8.07823e-75
7.79161e-75
7.88813e-75
7.8865e-75
7.70619e-75
1.90334e-72
1.88015e-72
1.89804e-72
1.86556e-72
1.87453e-72
1.8951e-72
1.88926e-72
1.84366e-72
1.86028e-72
1.9081e-72
1.87144e-72
1.90932e-72
1.87568e-72
1.90871e-72
1.85799e-72
1.92077e-72
1.85326e-72
1.87605e-72
1.87515e-72
1.8327e-72
2.67828e-70
2.64617e-70
2.67083e-70
2.62608e-70
2.63768e-70
2.66733e-70
2.65887e-70
2.59515e-70
2.61847e-70
2.68559e-70
2.63424e-70
2.68691e-70
2.64057e-70
2.68648e-70
2.61547e-70
2.70317e-70
2.6091e-70
2.64093e-70
2.63895e-70
2.57982e-70
2.61986e-68
2.589e-68
2.61261e-68
2.56977e-68
2.58012e-68
2.60978e-68
2.60129e-68
2.5394e-68
2.56216e-68
2.6276e-68
2.57762e-68
2.62849e-68
2.58416e-68
2.62847e-68
2.55938e-68
2.64448e-68
2.55348e-68
2.58432e-68
2.58168e-68
2.52451e-68
1.80552e-66
1.78464e-66
1.80055e-66
1.77167e-66
1.77812e-66
1.799e-66
1.79302e-66
1.75068e-66
1.76637e-66
1.81125e-66
1.77701e-66
1.81159e-66
1.78175e-66
1.81185e-66
1.7645e-66
1.82263e-66
1.7607e-66
1.7817e-66
1.7794e-66
1.74052e-66
8.51196e-65
8.41559e-65
8.48876e-65
8.35572e-65
8.38285e-65
8.48332e-65
8.45455e-65
8.25658e-65
8.33078e-65
8.54072e-65
8.38073e-65
8.54104e-65
8.40392e-65
8.54351e-65
8.32173e-65
8.59279e-65
8.30539e-65
8.40276e-65
8.38966e-65
8.20945e-65
2.67125e-63
2.64177e-63
2.6641e-63
2.62333e-63
2.63083e-63
2.66291e-63
2.6538e-63
2.59224e-63
2.61583e-63
2.68073e-63
2.63126e-63
2.68048e-63
2.63865e-63
2.68157e-63
2.61253e-63
2.69636e-63
2.60815e-63
2.6379e-63
2.63312e-63
2.578e-63
2.28126e-62
2.25725e-62
2.27566e-62
2.24177e-62
2.24723e-62
2.27493e-62
2.26732e-62
2.21539e-62
2.23638e-62
2.28983e-62
2.24898e-62
2.28944e-62
2.255e-62
2.29044e-62
2.23232e-62
2.30209e-62
2.22978e-62
2.25383e-62
2.24928e-62
2.20432e-62
9.90316e-63
9.90741e-63
9.96172e-63
9.81546e-63
9.83737e-63
9.89823e-63
9.93117e-63
9.73525e-63
9.9964e-63
9.89784e-63
9.94261e-63
9.95079e-63
9.84174e-63
9.88776e-63
9.71954e-63
9.82579e-63
9.87038e-63
9.79018e-63
9.81128e-63
9.87942e-63
1.67549e-62
1.68505e-62
1.70151e-62
1.67262e-62
1.66344e-62
1.66798e-62
1.68195e-62
1.65491e-62
1.70342e-62
1.69317e-62
1.70168e-62
1.68985e-62
1.68492e-62
1.66828e-62
1.65636e-62
1.66839e-62
1.65469e-62
1.66173e-62
1.67132e-62
1.6727e-62
1.84763e-62
1.85877e-62
1.86873e-62
1.83365e-62
1.83723e-62
1.81054e-62
1.84752e-62
1.82466e-62
1.85182e-62
1.8905e-62
1.86899e-62
1.83423e-62
1.87183e-62
1.85016e-62
1.84507e-62
1.85728e-62
1.79161e-62
1.84185e-62
1.82061e-62
1.82333e-62
2.17308e-62
2.19487e-62
2.19738e-62
2.19313e-62
2.20172e-62
2.22032e-62
2.25443e-62
2.20742e-62
2.20672e-62
2.17751e-62
2.18261e-62
2.1869e-62
2.20872e-62
2.21872e-62
2.18143e-62
2.20107e-62
2.20904e-62
2.18845e-62
2.17279e-62
2.18181e-62
2.29494e-62
2.28297e-62
2.29355e-62
2.33605e-62
2.3212e-62
2.34338e-62
2.30273e-62
2.34977e-62
2.29418e-62
2.25371e-62
2.26361e-62
2.28236e-62
2.28442e-62
2.25512e-62
2.24536e-62
2.27039e-62
2.24433e-62
2.288e-62
2.26709e-62
2.30701e-62
2.39483e-62
2.38575e-62
2.42536e-62
2.3991e-62
2.38684e-62
2.43089e-62
2.41311e-62
2.4552e-62
2.39593e-62
2.43453e-62
2.41867e-62
2.42598e-62
2.42821e-62
2.43928e-62
2.41523e-62
2.46647e-62
2.40844e-62
2.38085e-62
2.40756e-62
2.39704e-62
2.33075e-62
2.29736e-62
2.29456e-62
2.29504e-62
2.32275e-62
2.33974e-62
2.33455e-62
2.32255e-62
2.27958e-62
2.29158e-62
2.26617e-62
2.32713e-62
2.33075e-62
2.35505e-62
2.35088e-62
2.34107e-62
2.32629e-62
2.33473e-62
2.30947e-62
2.31614e-62
2.19675e-62
2.23109e-62
2.19697e-62
2.26367e-62
2.19776e-62
2.24692e-62
2.20692e-62
2.24182e-62
2.21276e-62
2.22969e-62
2.21817e-62
2.26444e-62
2.21856e-62
2.27739e-62
2.21381e-62
2.24121e-62
2.24372e-62
2.1896e-62
2.25169e-62
2.25043e-62
1.94152e-62
2.00317e-62
1.98679e-62
1.96436e-62
1.9487e-62
2.0209e-62
1.98531e-62
1.99607e-62
1.98106e-62
1.95172e-62
1.97161e-62
2.00773e-62
1.97091e-62
2.03647e-62
1.97204e-62
2.00474e-62
2.01024e-62
1.98784e-62
2.01492e-62
2.02206e-62
1.88189e-62
1.88198e-62
1.88245e-62
1.90472e-62
1.9088e-62
1.90903e-62
1.87041e-62
1.90726e-62
1.92908e-62
1.88057e-62
1.91445e-62
1.92683e-62
1.86729e-62
1.93634e-62
1.92666e-62
1.96237e-62
1.91027e-62
1.93035e-62
1.90817e-62
1.94939e-62
1.25236e-62
1.26245e-62
1.25965e-62
1.24771e-62
1.26132e-62
1.25748e-62
1.26181e-62
1.2607e-62
1.25464e-62
1.27498e-62
1.24699e-62
1.27755e-62
1.24813e-62
1.2898e-62
1.2514e-62
1.25332e-62
1.25705e-62
1.2814e-62
1.26213e-62
1.29079e-62
5.12699e-76
5.06345e-76
5.11277e-76
5.02338e-76
5.04954e-76
5.10374e-76
5.08836e-76
4.96479e-76
5.00949e-76
5.13899e-76
5.03949e-76
5.14307e-76
5.0502e-76
5.1404e-76
5.00294e-76
5.17353e-76
4.98932e-76
5.05141e-76
5.05045e-76
4.93453e-76
2.37706e-73
2.34807e-73
2.3705e-73
2.3299e-73
2.34112e-73
2.36687e-73
2.35952e-73
2.3026e-73
2.32324e-73
2.3832e-73
2.33724e-73
2.38473e-73
2.34256e-73
2.38389e-73
2.32047e-73
2.39903e-73
2.31437e-73
2.34298e-73
2.3419e-73
2.28862e-73
5.55117e-71
5.48456e-71
5.53593e-71
5.44308e-71
5.46716e-71
5.52873e-71
5.51108e-71