/*--------------------------------*- C++ -*----------------------------------*\
| =========                 |                                                 |
| \\      /  F ield         | OpenFOAM: The Open Source CFD Toolbox           |
|  \\    /   O peration     | Version:  2212                                  |
|   \\  /    A nd           | Website:  www.openfoam.com                      |
|    \\/     M anipulation  |                                                 |
\*---------------------------------------------------------------------------*/
FoamFile
{
    version     2.0;
    format      ascii;
    arch        "LSB;label=32;scalar=64";
    class       surfaceScalarField;
    location    "7.8e-05";
    object      phi;
}
// * * * * * * * * * * * * * * * * * * * * * * * * * * * * * * * * * * * * * //

dimensions      [1 0 -1 0 0 0 0];

oriented        oriented;

internalField   nonuniform List<scalar> 
68983
(
-7.17187e-14
9.04095e-14
1.40163e-14
-5.1749e-14
8.20429e-15
-3.37978e-14
5.17393e-15
-1.97989e-14
3.2458e-15
-1.0367e-14
1.92101e-15
-5.20291e-15
8.94379e-16
-2.5126e-15
3.94128e-16
-1.16524e-15
1.68419e-16
-4.97899e-16
7.53799e-17
-1.89333e-16
3.61874e-17
-6.43318e-17
1.63891e-17
-1.88595e-17
6.12153e-18
-4.7207e-18
1.93027e-18
-1.07709e-18
4.09873e-19
-2.25724e-19
1.00478e-20
-3.91819e-20
2.32889e-20
1.33692e-20
8.74851e-21
-4.43718e-20
6.0214e-20
-1.84753e-20
-4.3113e-20
3.05457e-20
-4.15359e-20
-3.85241e-21
7.61333e-20
-4.56697e-21
-3.41321e-21
-1.19568e-20
-6.76229e-21
6.84129e-20
-1.22823e-19
-2.77496e-20
8.63413e-20
2.69899e-20
-5.42698e-20
3.07276e-20
-2.37169e-20
1.32234e-20
4.32691e-20
-5.93726e-20
8.21506e-20
3.26521e-20
-1.1015e-19
-2.32719e-20
2.62677e-20
1.84576e-20
5.07129e-21
3.75372e-20
-5.84245e-20
-2.53235e-20
3.89794e-20
-2.12524e-20
-4.32231e-20
1.46921e-20
1.18599e-20
-3.16473e-20
1.05076e-19
3.27636e-20
-8.55387e-20
-1.54432e-20
4.99992e-20
-8.13938e-22
-2.5411e-21
-1.01246e-21
-4.74235e-20
-3.57481e-20
2.11843e-20
-7.20977e-20
5.67159e-20
-9.5032e-21
-4.99749e-20
-5.44173e-21
1.35896e-20
-9.80973e-21
1.94674e-20
-7.06611e-20
7.59911e-21
-5.15092e-20
-1.43975e-20
5.97607e-20
-5.33368e-20
1.63981e-20
4.91724e-20
-2.64429e-20
5.65741e-24
-4.6457e-20
-4.40411e-20
-4.55355e-20
3.04684e-20
4.22268e-21
-8.64193e-20
-1.36441e-20
-2.45475e-20
-1.98966e-20
3.6404e-20
1.6088e-20
-5.50777e-20
3.6919e-21
4.91402e-20
-3.03819e-20
6.60698e-20
-5.12765e-21
-5.16883e-20
-2.85796e-20
7.96313e-20
-3.46291e-20
3.64434e-20
-1.31832e-20
-2.79487e-20
-1.94767e-20
7.6381e-21
-2.1527e-20
-4.23472e-20
4.23983e-20
-1.44043e-20
-1.24796e-20
8.29931e-20
-3.7064e-20
2.5408e-21
5.37869e-20
-1.21121e-19
-4.53485e-20
9.06226e-20
-1.95018e-20
5.07827e-21
2.07782e-20
-9.31728e-21
1.86347e-20
-1.10078e-20
3.13667e-20
-1.01644e-20
-4.64545e-20
6.8613e-20
-2.45309e-20
-3.21871e-20
2.35979e-20
-5.5059e-20
-5.92951e-21
-1.16604e-13
1.64484e-13
2.51752e-15
1.53732e-14
-1.2277e-08
1.51093e-08
-2.00395e-09
-2.23724e-08
1.12698e-08
-1.9848e-08
-1.08107e-09
-1.77202e-08
-7.0416e-10
-1.58584e-08
-4.05878e-10
-1.35864e-08
-9.57239e-10
-1.15465e-08
-7.58047e-10
-9.75202e-09
-6.36965e-10
-8.18287e-09
-5.28492e-10
-6.85447e-09
-3.69341e-10
-5.72509e-09
-2.94831e-10
-4.74972e-09
-2.28412e-10
-3.92607e-09
-1.78368e-10
-3.23543e-09
-1.37373e-10
-2.65166e-09
-1.05573e-10
-2.16001e-09
-8.17809e-11
-1.75094e-09
-6.38979e-11
-1.41306e-09
-4.93437e-11
-1.13634e-09
-3.7074e-11
-9.08776e-10
-2.99817e-11
-7.23439e-10
-2.36492e-11
-5.73155e-10
-1.8493e-11
-4.52471e-10
-1.37523e-11
-3.55868e-10
-9.93422e-12
-2.78759e-10
-7.16237e-12
-2.17428e-10
-5.23006e-12
-1.6884e-10
-3.91756e-12
-1.30588e-10
-2.93669e-12
-1.00587e-10
-2.27728e-12
-7.71571e-11
-1.78185e-12
-5.89827e-11
-1.35565e-12
-4.48941e-11
-1.04491e-12
-3.40192e-11
-7.33756e-13
-2.56709e-11
-5.1674e-13
-1.92912e-11
-4.07167e-13
-1.44365e-11
-3.17498e-13
-1.0766e-11
-2.04048e-13
-8.01459e-12
-1.17102e-13
-5.95268e-12
-7.91119e-14
-4.40849e-12
-5.78827e-14
-3.25004e-12
-4.32774e-14
-2.38674e-12
-2.8027e-14
-1.7466e-12
-2.09858e-14
-1.27429e-12
-1.37401e-14
-9.26177e-13
-9.21491e-15
-6.70673e-13
-6.84803e-15
-4.83044e-13
-4.39706e-15
-3.45639e-13
-4.59189e-15
-2.43328e-13
-5.20889e-15
-7.60949e-15
1.39483e-08
3.59207e-09
1.5062e-08
1.68831e-09
3.83196e-08
-1.79543e-08
4.33138e-08
3.23985e-09
5.06889e-08
2.64664e-09
5.96037e-08
2.55889e-09
6.71813e-08
4.98189e-09
7.46309e-08
5.66773e-09
8.29663e-08
5.75029e-09
9.16128e-08
6.04373e-09
1.00726e-07
6.50448e-09
1.10136e-07
6.94868e-09
1.19904e-07
7.39874e-09
1.30223e-07
7.47124e-09
1.39334e-07
9.05062e-09
1.49577e-07
8.44029e-09
1.58496e-07
1.02363e-08
1.69241e-07
8.93276e-09
1.80679e-07
8.77803e-09
1.92442e-07
8.96824e-09
2.03529e-07
1.01016e-08
2.14113e-07
1.10187e-08
2.24934e-07
1.13187e-08
2.36143e-07
1.11907e-08
2.47665e-07
1.11975e-08
2.59142e-07
1.15673e-08
2.70942e-07
1.20093e-08
2.82562e-07
1.21799e-08
2.93969e-07
1.27947e-08
3.05217e-07
1.34402e-08
3.16481e-07
1.38608e-08
3.2796e-07
1.39566e-08
3.3943e-07
1.42734e-08
3.50854e-07
1.45438e-08
3.62271e-07
1.49439e-08
3.73733e-07
1.53819e-08
3.8505e-07
1.58027e-08
3.96134e-07
1.60386e-08
4.07239e-07
1.59431e-08
4.18378e-07
1.63789e-08
4.29303e-07
1.67607e-08
4.40431e-07
1.72332e-08
4.51423e-07
1.76217e-08
4.62393e-07
1.74328e-08
4.73217e-07
1.80878e-08
4.84077e-07
1.83804e-08
4.94698e-07
1.88957e-08
5.05336e-07
1.91195e-08
5.15624e-07
1.94956e-08
5.25986e-07
1.94924e-08
5.36097e-07
2.01228e-08
5.46349e-07
1.99688e-08
5.56354e-07
2.03805e-08
5.66416e-07
2.04726e-08
5.75993e-07
2.10598e-08
5.8577e-07
2.12016e-08
5.95054e-07
2.20164e-08
6.04454e-07
2.19848e-08
6.13502e-07
2.22029e-08
6.22622e-07
2.20707e-08
6.31377e-07
2.26003e-08
6.399e-07
2.28754e-08
6.48305e-07
2.30029e-08
6.56605e-07
2.33054e-08
6.64816e-07
2.35118e-08
6.7278e-07
2.36951e-08
6.8055e-07
2.40365e-08
6.88097e-07
2.44594e-08
6.95382e-07
2.4798e-08
7.02563e-07
2.48883e-08
7.09423e-07
2.51282e-08
7.16278e-07
2.5165e-08
7.22662e-07
2.55294e-08
7.29145e-07
2.53451e-08
7.34961e-07
2.59392e-08
7.40969e-07
2.57679e-08
7.46369e-07
2.62927e-08
7.51946e-07
2.61991e-08
7.57009e-07
2.67196e-08
7.6207e-07
2.65705e-08
7.66717e-07
2.6992e-08
7.71233e-07
2.70516e-08
7.75403e-07
2.7323e-08
7.79104e-07
2.75599e-08
7.83084e-07
2.76625e-08
7.86046e-07
2.80574e-08
7.89669e-07
2.76615e-08
7.92136e-07
2.85706e-08
7.95246e-07
2.79051e-08
7.97076e-07
2.89409e-08
7.99704e-07
2.78796e-08
8.0086e-07
2.94033e-08
8.03189e-07
2.79993e-08
8.03913e-07
2.95112e-08
8.05701e-07
2.81578e-08
8.05845e-07
2.97147e-08
8.07306e-07
2.80339e-08
8.06922e-07
2.97317e-08
8.08004e-07
2.806e-08
8.07493e-07
2.94653e-08
8.07877e-07
2.82189e-08
8.06971e-07
2.93251e-08
8.06686e-07
2.83535e-08
8.0542e-07
2.90517e-08
8.04716e-07
2.81316e-08
8.03602e-07
2.82652e-08
8.02582e-07
2.76361e-08
8.01905e-07
2.71974e-08
8.01024e-07
2.66866e-08
8.00827e-07
2.59245e-08
8.00914e-07
2.49665e-08
8.0108e-07
2.44219e-08
8.04053e-07
2.10889e-08
8.08226e-07
1.92455e-08
8.17888e-07
1.2854e-08
8.35756e-07
4.86964e-09
8.98851e-07
-4.08648e-08
9.94338e-07
-7.2727e-08
1.25097e-06
-2.39384e-07
-7.61207e-07
2.04047e-06
1.94286e-08
-2.00343e-08
7.00709e-09
2.02404e-08
4.13842e-09
4.0639e-08
-3.26829e-08
4.56584e-08
6.38266e-09
5.35284e-08
4.50683e-09
6.30878e-08
4.3343e-09
7.15861e-08
8.88099e-09
8.02066e-08
1.01919e-08
8.97706e-08
1.04139e-08
9.97366e-08
1.092e-08
1.10363e-07
1.16782e-08
1.21264e-07
1.26192e-08
1.32949e-07
1.2954e-08
1.45325e-07
1.30519e-08
1.56447e-07
1.63508e-08
1.69087e-07
1.47915e-08
1.7961e-07
1.91987e-08
1.92266e-07
1.62968e-08
2.06734e-07
1.4896e-08
2.21843e-07
1.49816e-08
2.3629e-07
1.72441e-08
2.49745e-07
1.95778e-08
2.62692e-07
2.08335e-08
2.77387e-07
1.93548e-08
2.92971e-07
1.8816e-08
3.07633e-07
2.04215e-08
3.23179e-07
2.05151e-08
3.39053e-07
2.06626e-08
3.54826e-07
2.15883e-08
3.70559e-07
2.28915e-08
3.85661e-07
2.43372e-08
4.00951e-07
2.45722e-08
4.1693e-07
2.4556e-08
4.33415e-07
2.45743e-08
4.49926e-07
2.53157e-08
4.66398e-07
2.62557e-08
4.82903e-07
2.69981e-08
4.99196e-07
2.748e-08
5.15434e-07
2.73039e-08
5.31909e-07
2.80022e-08
5.4846e-07
2.85471e-08
5.65357e-07
2.91686e-08
5.82174e-07
3.00483e-08
5.99123e-07
2.94867e-08
6.16108e-07
3.0596e-08
6.33316e-07
3.10198e-08
6.50396e-07
3.19583e-08
6.67618e-07
3.2258e-08
6.84541e-07
3.29852e-08
7.01622e-07
3.28142e-08
7.18517e-07
3.41021e-08
7.3563e-07
3.37219e-08
7.52591e-07
3.4496e-08
7.69681e-07
3.45545e-08
7.86403e-07
3.5737e-08
8.03545e-07
3.57203e-08
8.2027e-07
3.70566e-08
8.37219e-07
3.69824e-08
8.53938e-07
3.74164e-08
8.70795e-07
3.70619e-08
8.87304e-07
3.81474e-08
9.03595e-07
3.87033e-08
9.19822e-07
3.89216e-08
9.3603e-07
3.96461e-08
9.52195e-07
3.98328e-08
9.68172e-07
4.01791e-08
9.84016e-07
4.08008e-08
9.99752e-07
4.14958e-08
1.0153e-06
4.21152e-08
1.03085e-06
4.2237e-08
1.04609e-06
4.2744e-08
1.06135e-06
4.28234e-08
1.07614e-06
4.363e-08
1.09106e-06
4.32329e-08
1.10532e-06
4.44433e-08
1.11975e-06
4.41703e-08
1.13361e-06
4.52643e-08
1.14759e-06
4.50278e-08
1.16116e-06
4.60488e-08
1.17463e-06
4.58333e-08
1.18788e-06
4.66183e-08
1.20082e-06
4.68157e-08
1.21387e-06
4.72042e-08
1.22573e-06
4.80842e-08
1.23885e-06
4.75088e-08
1.2501e-06
4.93611e-08
1.26231e-06
4.78521e-08
1.27309e-06
5.05355e-08
1.28479e-06
4.87241e-08
1.29466e-06
5.13977e-08
1.30583e-06
4.87904e-08
1.31511e-06
5.23735e-08
1.32603e-06
4.91186e-08
1.33457e-06
5.29979e-08
1.3447e-06
4.97437e-08
1.35235e-06
5.38409e-08
1.36192e-06
4.98259e-08
1.36877e-06
5.42541e-08
1.37764e-06
5.03321e-08
1.38415e-06
5.40102e-08
1.39193e-06
5.11729e-08
1.3979e-06
5.40211e-08
1.40455e-06
5.2057e-08
1.40987e-06
5.38477e-08
1.41568e-06
5.214e-08
1.42062e-06
5.29618e-08
1.4257e-06
5.17153e-08
1.43045e-06
5.15818e-08
1.43524e-06
5.03444e-08
1.43906e-06
5.06257e-08
1.44473e-06
4.71285e-08
1.44764e-06
4.90069e-08
1.45566e-06
4.01109e-08
1.46161e-06
4.02363e-08
1.47971e-06
2.07026e-08
1.49755e-06
1.34909e-08
1.53195e-06
-4.96444e-08
1.53406e-06
-5.06992e-08
1.67615e-06
-3.5949e-07
-9.73292e-07
1.91095e-06
-1.6147e-08
-4.93687e-09
-2.40486e-08
2.04354e-08
-2.06262e-08
-3.05909e-09
-1.84538e-08
-1.46456e-09
-1.65396e-08
-8.78793e-10
-1.42062e-08
-1.93864e-09
-1.21077e-08
-1.54346e-09
-1.0252e-08
-1.32614e-09
-8.61416e-09
-1.10029e-09
-7.22592e-09
-7.74534e-10
-6.04514e-09
-6.2224e-10
-5.01988e-09
-4.80739e-10
-4.15344e-09
-3.83829e-10
-3.42543e-09
-2.92771e-10
-2.80947e-09
-2.31501e-10
-2.28971e-09
-1.73951e-10
-1.85687e-09
-1.37757e-10
-1.49923e-09
-1.08553e-10
-1.2062e-09
-8.22305e-11
-9.65076e-10
-6.70115e-11
-7.6852e-10
-5.30529e-11
-6.09e-10
-4.13359e-11
-4.80804e-10
-3.03961e-11
-3.78187e-10
-2.25432e-11
-2.96282e-10
-1.67076e-11
-2.31114e-10
-1.18939e-11
-1.7946e-10
-8.66717e-12
-1.38811e-10
-6.73883e-12
-1.06931e-10
-5.33879e-12
-8.20285e-11
-4.20572e-12
-6.2707e-11
-3.16996e-12
-4.77247e-11
-2.38984e-12
-3.61628e-11
-1.76508e-12
-2.72842e-11
-1.18776e-12
-2.05039e-11
-9.64501e-13
-1.53422e-11
-7.45032e-13
-1.14388e-11
-5.00243e-13
-8.51309e-12
-2.85329e-13
-6.32242e-12
-2.02282e-13
-4.68213e-12
-1.48415e-13
-3.45125e-12
-1.11636e-13
-2.53366e-12
-7.09384e-14
-1.85366e-12
-5.53002e-14
-1.35218e-12
-3.7054e-14
-9.82424e-13
-2.51693e-14
-7.11293e-13
-1.88761e-14
-5.12107e-13
-1.19559e-14
-3.66456e-13
-1.20038e-14
-2.59134e-13
-1.12808e-14
-1.78796e-13
-1.39216e-14
-1.28348e-13
4.75148e-15
-9.76267e-14
2.73292e-14
-7.54212e-14
2.52589e-14
-5.42213e-14
1.59267e-14
-3.54336e-14
1.02075e-14
-2.07775e-14
6.39815e-15
-1.08875e-14
3.77208e-15
-5.46588e-15
1.74374e-15
-2.6395e-15
7.61449e-16
-1.22391e-15
3.2268e-16
-5.22932e-16
1.43648e-16
-1.98796e-16
6.90915e-17
-6.76412e-17
3.05527e-17
-1.98372e-17
1.18426e-17
-4.95551e-18
3.72353e-18
-1.13994e-18
7.89022e-19
-2.16146e-19
3.53797e-20
-5.41593e-20
6.39211e-20
-2.36432e-21
3.66408e-21
-7.91343e-20
1.12727e-19
-3.18278e-20
-8.37778e-20
4.68619e-20
-1.66893e-19
-1.57835e-20
1.51532e-19
-1.98014e-20
-2.20486e-20
-1.72164e-20
-5.16574e-20
8.70568e-20
-2.10059e-19
-2.98755e-20
1.32079e-19
4.10363e-20
-1.02551e-19
3.73162e-20
-3.05069e-20
-9.24356e-21
1.40671e-19
-7.61622e-20
1.32122e-19
1.41125e-20
-2.43134e-19
-5.50877e-20
1.39769e-19
3.30344e-20
-6.86116e-20
2.67964e-20
-3.80941e-20
-2.56623e-20
7.87819e-20
-4.07571e-20
-5.50735e-20
-4.15579e-21
2.03325e-20
-4.36308e-20
1.71982e-19
4.5425e-20
-1.67699e-19
-1.62362e-20
1.12681e-19
1.34333e-20
1.60905e-20
9.51981e-21
-5.16562e-20
-5.67022e-20
1.10121e-19
-8.77074e-20
4.48549e-20
2.2362e-21
-1.38915e-19
-1.08882e-20
8.50689e-21
-9.96868e-21
-2.28848e-20
-8.8708e-20
9.14577e-20
-6.08132e-20
-3.47243e-20
6.0549e-20
-1.15172e-19
5.54998e-20
3.13843e-20
-6.49374e-20
7.20037e-20
-4.57682e-20
-1.05032e-19
-7.64432e-20
8.29879e-20
-1.64346e-20
-9.65805e-20
-1.58766e-21
-5.92785e-20
-3.92479e-20
1.24496e-19
4.27553e-20
-1.19452e-19
-3.4696e-21
1.63487e-19
-4.3161e-20
1.08421e-19
-1.55829e-20
-1.33847e-19
-4.93176e-20
1.889e-19
-4.53017e-20
3.39007e-20
-1.55846e-20
-7.53841e-20
-2.66562e-20
2.79664e-20
-1.8471e-21
-8.63924e-20
5.81934e-20
-6.01393e-20
-2.89306e-20
2.04967e-19
-6.96159e-20
3.30332e-20
5.91068e-20
-2.38859e-19
-6.18584e-20
1.87186e-19
-2.79917e-20
-5.0877e-21
2.06191e-20
1.35519e-20
4.28411e-20
-6.69114e-20
1.50809e-20
2.62625e-20
-7.65773e-20
1.29599e-19
-3.6965e-20
-4.99748e-20
4.75067e-20
-1.59244e-19
6.26802e-20
-7.9183e-14
1.0297e-13
3.59523e-14
-5.66744e-14
2.33006e-14
-3.6936e-14
1.51251e-14
-2.16241e-14
9.54275e-15
-1.13215e-14
5.64709e-15
-5.68135e-15
2.6103e-15
-2.7429e-15
1.13711e-15
-1.27175e-15
4.80808e-16
-5.43484e-16
2.13498e-16
-2.0673e-16
1.02754e-16
-7.03831e-17
4.48199e-17
-2.06325e-17
1.76729e-17
-5.17092e-18
5.58166e-18
-1.20721e-18
1.1996e-18
-2.01827e-19
2.14644e-20
-6.22377e-20
1.4014e-19
-2.7903e-20
5.70271e-20
-7.28928e-20
1.62697e-19
-3.60969e-20
-1.24448e-19
4.43442e-20
-2.56672e-19
4.58072e-21
1.31216e-19
-2.20717e-20
-1.35809e-20
-2.75235e-20
-8.72329e-20
7.80234e-20
-3.62517e-19
-2.28119e-20
1.83743e-19
3.46691e-20
-1.01703e-19
5.19346e-20
-5.33633e-20
-4.45167e-20
2.09273e-19
-2.3776e-20
1.23647e-19
-3.48999e-20
-1.95701e-19
-5.23477e-20
1.69411e-19
5.27736e-20
-1.66858e-19
-2.73391e-20
4.99983e-20
-6.20416e-22
3.89616e-20
-4.49718e-20
-5.25223e-20
-1.88349e-20
5.08301e-20
-3.73437e-20
2.25333e-19
5.28951e-20
-2.71041e-19
-3.05089e-20
1.77057e-19
3.5408e-20
-6.94526e-20
4.68585e-21
-6.94409e-20
-4.75572e-20
1.99902e-19
-7.88406e-20
3.89215e-20
-3.1275e-20
-1.7449e-19
-2.6167e-20
-5.04597e-21
-3.13163e-20
6.75994e-21
-6.67788e-20
1.12634e-19
-7.97535e-20
3.38875e-20
8.05149e-20
-2.14275e-19
3.65286e-20
6.61124e-20
-4.97913e-20
1.44847e-19
-4.12105e-20
-1.09268e-19
-8.13467e-20
1.37203e-19
-2.9073e-20
-1.51636e-19
-1.41162e-21
-1.18577e-19
-4.16441e-20
1.90566e-19
5.65081e-20
-2.27023e-19
-1.15897e-20
2.84609e-19
-5.5913e-20
1.61784e-19
-3.65211e-20
-1.93983e-19
-2.69049e-20
2.7191e-19
-4.19885e-20
3.38982e-20
-3.73304e-20
-6.43735e-20
-2.48815e-20
9.33255e-21
6.63115e-21
-1.32132e-19
6.5129e-20
-1.31295e-19
-5.48652e-20
3.53198e-19
-6.35348e-20
2.37152e-20
2.90167e-20
-2.80364e-19
-3.97901e-20
2.52409e-19
-4.96853e-22
-4.74403e-20
3.27461e-21
5.59027e-20
3.55882e-20
-8.80868e-20
1.82109e-20
6.18378e-20
-8.04815e-20
2.6089e-19
-3.67534e-20
-9.40206e-20
3.32724e-20
-2.23619e-19
1.07573e-19
-1.35583e-13
1.87725e-13
6.55202e-15
3.86001e-14
-1.89673e-08
2.3316e-08
-8.23078e-09
-2.4053e-08
2.6857e-08
-2.06699e-08
-4.84278e-09
-1.85202e-08
-2.12321e-09
-1.66117e-08
-1.37721e-09
-1.42894e-08
-2.87738e-09
-1.22254e-08
-2.36871e-09
-1.03736e-08
-1.97738e-09
-8.72646e-09
-1.65946e-09
-7.34247e-09
-1.1972e-09
-6.14752e-09
-9.29376e-10
-5.11611e-09
-7.52555e-10
-4.23874e-09
-5.79787e-10
-3.49941e-09
-4.41348e-10
-2.87356e-09
-3.50335e-10
-2.34516e-09
-2.80925e-10
-1.90415e-09
-2.21439e-10
-1.53876e-09
-1.72063e-10
-1.23926e-09
-1.29246e-10
-9.92301e-10
-1.03242e-10
-7.90658e-10
-7.97583e-11
-6.26854e-10
-6.18121e-11
-4.9515e-10
-4.62899e-11
-3.89725e-10
-3.4382e-11
-3.0549e-10
-2.56728e-11
-2.38424e-10
-1.94184e-11
-1.85273e-10
-1.4879e-11
-1.43402e-10
-1.12264e-11
-1.10514e-10
-8.53802e-12
-8.48008e-11
-6.40788e-12
-6.48415e-11
-4.70684e-12
-4.9353e-11
-3.6709e-12
-3.74039e-11
-2.75504e-12
-2.82462e-11
-2.02085e-12
-2.12316e-11
-1.52752e-12
-1.58797e-11
-1.14571e-12
-1.18401e-11
-7.92489e-13
-8.81984e-12
-4.89005e-13
-6.55301e-12
-3.24787e-13
-4.85241e-12
-2.25358e-13
-3.57635e-12
-1.77162e-13
-2.62729e-12
-1.24742e-13
-1.9226e-12
-8.88222e-14
-1.40231e-12
-6.03226e-14
-1.01979e-12
-4.17695e-14
-7.38305e-13
-2.98898e-14
-5.32714e-13
-2.19545e-14
-3.82132e-13
-1.79406e-14
-2.71117e-13
-1.62407e-14
-1.85961e-14
2.29835e-08
1.01091e-08
2.39986e-08
6.83457e-09
4.07017e-08
-4.38425e-08
4.57043e-08
9.47908e-09
5.37034e-08
6.08721e-09
6.34447e-08
5.78043e-09
7.23164e-08
1.25223e-08
8.11122e-08
1.48198e-08
9.09278e-08
1.48075e-08
1.01322e-07
1.57321e-08
1.12369e-07
1.66216e-08
1.23674e-07
1.8048e-08
1.35856e-07
1.82241e-08
1.48934e-07
1.81216e-08
1.60472e-07
2.35462e-08
1.73645e-07
2.09706e-08
1.84658e-07
2.80245e-08
1.978e-07
2.36006e-08
2.12971e-07
2.07682e-08
2.28924e-07
2.064e-08
2.44206e-07
2.40644e-08
2.58475e-07
2.78641e-08
2.72122e-07
3.02195e-08
2.87591e-07
2.73419e-08
3.04129e-07
2.60591e-08
3.19684e-07
2.91605e-08
3.36271e-07
2.8679e-08
3.5317e-07
2.89844e-08
3.69992e-07
3.05332e-08
3.86634e-07
3.21729e-08
4.02886e-07
3.43903e-08
4.1971e-07
3.44354e-08
4.36928e-07
3.43616e-08
4.54552e-07
3.41356e-08
4.72243e-07
3.52815e-08
4.90139e-07
3.64784e-08
5.08297e-07
3.73613e-08
5.25946e-07
3.80858e-08
5.43735e-07
3.85115e-08
5.61957e-07
3.84837e-08
5.80123e-07
3.95809e-08
5.98516e-07
4.04147e-08
6.17082e-07
4.15263e-08
6.35796e-07
4.05764e-08
6.54669e-07
4.20935e-08
6.73683e-07
4.27101e-08
6.92767e-07
4.39309e-08
7.11931e-07
4.42851e-08
7.30904e-07
4.53114e-08
7.50093e-07
4.51702e-08
7.69085e-07
4.6799e-08
7.8831e-07
4.62351e-08
8.0743e-07
4.73314e-08
8.26961e-07
4.70034e-08
8.45974e-07
4.87496e-08
8.65642e-07
4.85305e-08
8.84805e-07
5.04336e-08
9.04546e-07
4.9951e-08
9.23798e-07
5.08837e-08
9.43397e-07
5.03372e-08
9.62761e-07
5.15985e-08
9.81896e-07
5.23314e-08
1.00098e-06
5.27326e-08
1.01995e-06
5.37927e-08
1.03899e-06
5.39308e-08
1.05795e-06
5.43576e-08
1.07707e-06
5.49388e-08
1.09607e-06
5.58772e-08
1.11511e-06
5.6522e-08
1.13393e-06
5.68522e-08
1.15279e-06
5.73094e-08
1.17135e-06
5.76209e-08
1.18987e-06
5.84378e-08
1.20804e-06
5.84e-08
1.22605e-06
5.97227e-08
1.24384e-06
5.96842e-08
1.26162e-06
6.08854e-08
1.27918e-06
6.07582e-08
1.29721e-06
6.14679e-08
1.31367e-06
6.21205e-08
1.33251e-06
6.16019e-08
1.34787e-06
6.42874e-08
1.36532e-06
6.23503e-08
1.38233e-06
6.49732e-08
1.39826e-06
6.41487e-08
1.41343e-06
6.69077e-08
1.42988e-06
6.44936e-08
1.44516e-06
6.82687e-08
1.46035e-06
6.60342e-08
1.47591e-06
6.86503e-08
1.49111e-06
6.63656e-08
1.50564e-06
7.03834e-08
1.51993e-06
6.73798e-08
1.53386e-06
7.1179e-08
1.54813e-06
6.79697e-08
1.56167e-06
7.24406e-08
1.57539e-06
6.79439e-08
1.58858e-06
7.27815e-08
1.60176e-06
6.89312e-08
1.61423e-06
7.28789e-08
1.62638e-06
7.04124e-08
1.63845e-06
7.28407e-08
1.64977e-06
7.17279e-08
1.66168e-06
7.25723e-08
1.67176e-06
7.24559e-08
1.68314e-06
7.14424e-08
1.69267e-06
7.20846e-08
1.70349e-06
7.02842e-08
1.71203e-06
7.08862e-08
1.72186e-06
6.96814e-08
1.73016e-06
6.72744e-08
1.74002e-06
6.67214e-08
1.74985e-06
5.82834e-08
1.75879e-06
5.78192e-08
1.76953e-06
3.51124e-08
1.76798e-06
3.96781e-08
1.80433e-06
-6.11946e-08
1.81359e-06
-3.32152e-08
1.84313e-06
-3.65528e-07
-1.03728e-06
1.9286e-06
2.59377e-08
-2.57763e-08
1.3052e-08
2.76744e-08
9.35128e-09
3.97506e-08
-5.01319e-08
4.59488e-08
1.1316e-08
5.30489e-08
8.29809e-09
6.26753e-08
7.1978e-09
7.16358e-08
1.57535e-08
8.08758e-08
1.89916e-08
9.10636e-08
1.89077e-08
1.01751e-07
2.04127e-08
1.13099e-07
2.13376e-08
1.24773e-07
2.31202e-08
1.37336e-07
2.31715e-08
1.50717e-07
2.3023e-08
1.62809e-07
3.04379e-08
1.76623e-07
2.68415e-08
1.88045e-07
3.68368e-08
2.01649e-07
3.08433e-08
2.17342e-07
2.65583e-08
2.33913e-07
2.61735e-08
2.49889e-07
3.07045e-08
2.6478e-07
3.60845e-08
2.78911e-07
3.95769e-08
2.95003e-07
3.53324e-08
3.12316e-07
3.31432e-08
3.28552e-07
3.79768e-08
3.45667e-07
3.68081e-08
3.63292e-07
3.72254e-08
3.80893e-07
3.93002e-08
3.98361e-07
4.14065e-08
4.1536e-07
4.44324e-08
4.32971e-07
4.43335e-08
4.5097e-07
4.42706e-08
4.69332e-07
4.38435e-08
4.87898e-07
4.52605e-08
5.06679e-07
4.66933e-08
5.25653e-07
4.79668e-08
5.44097e-07
4.88548e-08
5.62711e-07
4.96438e-08
5.8183e-07
4.93152e-08
6.00902e-07
5.08639e-08
6.20231e-07
5.17205e-08
6.39694e-07
5.29696e-08
6.59302e-07
5.19632e-08
6.79206e-07
5.3598e-08
6.99274e-07
5.43788e-08
7.19337e-07
5.60269e-08
7.396e-07
5.62753e-08
7.59656e-07
5.76562e-08
7.79871e-07
5.76055e-08
7.99922e-07
5.95162e-08
8.20232e-07
5.89038e-08
8.40468e-07
6.01856e-08
8.6117e-07
5.94041e-08
8.81244e-07
6.20268e-08
9.02126e-07
6.11918e-08
9.22395e-07
6.36389e-08
9.43338e-07
6.25702e-08
9.63873e-07
6.41926e-08
9.84709e-07
6.35204e-08
1.00538e-06
6.49547e-08
1.02582e-06
6.57691e-08
1.04626e-06
6.66254e-08
1.0665e-06
6.77949e-08
1.08688e-06
6.77828e-08
1.10722e-06
6.82882e-08
1.12777e-06
6.87646e-08
1.14816e-06
6.98101e-08
1.16871e-06
7.03304e-08
1.18902e-06
7.09193e-08
1.20949e-06
7.12909e-08
1.22956e-06
7.19446e-08
1.24972e-06
7.2744e-08
1.2694e-06
7.31585e-08
1.28913e-06
7.43409e-08
1.30838e-06
7.48871e-08
1.32791e-06
7.59012e-08
1.34705e-06
7.59419e-08
1.36668e-06
7.61936e-08
1.38545e-06
7.7501e-08
1.40542e-06
7.60258e-08
1.42325e-06
8.04266e-08
1.44393e-06
7.60683e-08
1.46021e-06
8.24595e-08
1.48136e-06
7.70837e-08
1.49689e-06
8.51577e-08
1.51739e-06
7.77375e-08
1.53292e-06
8.6733e-08
1.55303e-06
7.93573e-08
1.56796e-06
8.73363e-08
1.5879e-06
7.96508e-08
1.60224e-06
8.93431e-08
1.62202e-06
8.06311e-08
1.63579e-06
9.0389e-08
1.65499e-06
8.155e-08
1.66811e-06
9.2174e-08
1.68726e-06
8.10366e-08
1.69927e-06
9.30121e-08
1.71834e-06
8.20146e-08
1.73016e-06
9.29986e-08
1.7483e-06
8.38422e-08
1.75963e-06
9.29886e-08
1.77688e-06
8.56116e-08
1.78769e-06
9.27824e-08
1.80428e-06
8.64248e-08
1.81464e-06
9.14368e-08
1.83053e-06
8.60614e-08
1.84013e-06
9.05877e-08
1.85584e-06
8.42991e-08
1.86345e-06
9.12909e-08
1.88001e-06
7.91221e-08
1.88575e-06
8.89948e-08
1.9033e-06
6.83023e-08
1.90896e-06
7.99812e-08
1.92534e-06
4.35376e-08
1.933e-06
5.82419e-08
1.94444e-06
-4.73355e-08
1.97726e-06
-4.06273e-08
1.93346e-06
-2.99237e-07
-1.06385e-06
1.98079e-06
-2.17129e-08
-1.10807e-08
-2.3558e-08
3.01101e-08
-2.03521e-08
-6.44081e-09
-1.84247e-08
-2.60647e-09
-1.65786e-08
-1.85828e-09
-1.434e-08
-3.68123e-09
-1.23292e-08
-3.13655e-09
-1.05018e-08
-2.6173e-09
-8.85332e-09
-2.19695e-09
-7.4717e-09
-1.6034e-09
-6.27435e-09
-1.22251e-09
-5.23215e-09
-1.01719e-09
-4.3423e-09
-7.80025e-10
-3.59044e-09
-5.79718e-10
-2.95399e-09
-4.69416e-10
-2.41457e-09
-3.87469e-10
-1.96269e-09
-3.05338e-10
-1.58748e-09
-2.35752e-10
-1.27994e-09
-1.76247e-10
-1.02576e-09
-1.41226e-10
-8.17863e-10
-1.08252e-10
-6.48712e-10
-8.19304e-11
-5.12671e-10
-6.11219e-11
-4.03812e-10
-4.60863e-11
-3.16788e-10
-3.53401e-11
-2.47421e-10
-2.73554e-11
-1.92352e-10
-2.11394e-11
-1.48939e-10
-1.57867e-11
-1.14814e-10
-1.19149e-11
-8.81154e-11
-8.88922e-12
-6.73852e-11
-6.22832e-12
-5.12967e-11
-4.86571e-12
-3.8896e-11
-3.81711e-12
-2.93843e-11
-2.86595e-12
-2.20921e-11
-2.13048e-12
-1.65213e-11
-1.55122e-12
-1.23183e-11
-1.1064e-12
-9.17842e-12
-6.95669e-13
-6.8213e-12
-4.55849e-13
-5.05215e-12
-3.00621e-13
-3.72368e-12
-2.43798e-13
-2.73552e-12
-1.79831e-13
-2.00159e-12
-1.25805e-13
-1.45987e-12
-8.47876e-14
-1.06173e-12
-5.92594e-14
-7.68891e-13
-4.09758e-14
-5.55154e-13
-3.22482e-14
-3.98651e-13
-2.42814e-14
-2.84164e-13
-1.98526e-14
-1.99547e-13
-2.07484e-14
-1.45023e-13
7.90343e-15
-1.09211e-13
4.78925e-14
-8.27576e-14
4.49255e-14
-5.88862e-14
3.02006e-14
-3.83167e-14
1.99917e-14
-2.24276e-14
1.27354e-14
-1.17479e-14
7.5772e-15
-5.89739e-15
3.50242e-15
-2.84709e-15
1.5217e-15
-1.32e-15
6.41295e-16
-5.64327e-16
2.84945e-16
-2.14863e-16
1.37241e-16
-7.32219e-17
5.93705e-17
-2.15076e-17
2.36651e-17
-5.37405e-18
7.43603e-18
-1.28259e-18
1.60178e-18
-2.33582e-19
3.78305e-20
-5.1834e-20
1.79951e-19
-1.23608e-20
9.76878e-20
-9.14831e-20
2.10119e-19
-3.59682e-21
-2.08312e-19
3.84729e-20
-3.22734e-19
-8.07017e-21
1.60876e-19
-2.94504e-20
6.74952e-21
-3.6112e-20
-1.27043e-19
7.91358e-20
-4.64163e-19
-4.19342e-21
2.03218e-19
1.4555e-20
-1.46593e-19
6.49564e-20
-1.46522e-19
-5.82769e-20
3.12606e-19
2.0314e-21
3.47051e-20
-6.17295e-20
-1.10152e-19
-2.13869e-20
1.75337e-19
2.0207e-20
-1.66006e-19
-3.32706e-21
6.01578e-20
9.63869e-21
-7.63087e-21
-3.97113e-20
-6.01352e-20
-3.21457e-20
7.11602e-20
-1.52779e-20
2.10072e-19
5.52064e-20
-3.49812e-19
-5.37596e-20
2.67693e-19
3.96725e-20
-1.11796e-19
5.34106e-21
-1.06705e-19
-4.97955e-20
2.78671e-19
-1.299e-19
6.34805e-20
5.31108e-22
-3.19331e-19
-1.15792e-20
-1.60593e-20
-4.73542e-20
3.72514e-20
-8.18345e-20
1.33809e-19
-8.45606e-20
5.92974e-20
1.01933e-19
-3.33707e-19
3.15527e-20
1.82158e-19
-4.4502e-20
2.26162e-19
-2.96696e-20
-1.33835e-19
-8.98036e-20
1.70254e-19
-8.34309e-21
-1.94835e-19
-4.22759e-20
-6.77592e-20
-3.44038e-20
2.18523e-19
3.89111e-20
-2.77845e-19
4.02169e-21
4.21826e-19
-7.53654e-20
1.95667e-19
-2.61512e-20
-2.62592e-19
-2.65661e-20
3.1511e-19
-4.81615e-20
1.78019e-20
-6.90754e-20
-3.9812e-20
-2.95296e-21
-4.65705e-20
-3.37984e-23
-1.57543e-19
6.88624e-20
-1.43998e-19
-8.38014e-20
4.97195e-19
-3.26638e-20
-8.72482e-20
3.50379e-20
-3.2187e-19
-7.25879e-20
3.21019e-19
1.3168e-20
-1.25367e-19
3.83756e-21
7.28433e-20
2.92552e-20
-7.53812e-20
2.61052e-20
1.10118e-19
-1.07997e-19
3.62534e-19
-1.11837e-20
-2.27005e-19
1.66693e-20
-2.40557e-19
1.6263e-19
-8.69023e-14
1.15284e-13
5.30569e-14
-6.15698e-14
3.66331e-14
-3.99447e-14
2.46695e-14
-2.33377e-14
1.58873e-14
-1.2214e-14
9.52298e-15
-6.12876e-15
4.40839e-15
-2.95761e-15
1.91224e-15
-1.37088e-15
8.04474e-16
-5.86131e-16
3.5754e-16
-2.23333e-16
1.72425e-16
-7.61917e-17
7.42418e-17
-2.24244e-17
2.97256e-17
-5.59636e-18
9.29352e-18
-1.35162e-18
2.07593e-18
-2.40321e-19
-1.81218e-20
-3.60301e-21
1.57927e-19
-4.49195e-20
1.90856e-19
-8.48115e-20
2.2875e-19
2.23006e-20
-3.32826e-19
1.02852e-20
-3.43066e-19
-3.26302e-20
2.32886e-19
-2.12803e-20
-2.03467e-20
-3.82615e-20
-1.71087e-19
7.56498e-20
-5.74286e-19
3.71042e-21
2.92155e-19
6.95059e-21
-2.02493e-19
3.16674e-20
-1.20259e-19
-3.09642e-20
3.6936e-19
-1.48194e-20
2.96267e-20
-5.96444e-20
-6.5264e-20
-2.41388e-20
2.12601e-19
2.5007e-20
-1.97341e-19
4.24108e-20
2.1187e-20
-4.73158e-20
4.48799e-20
-4.46439e-20
-1.1518e-19
-1.60149e-20
4.49016e-20
-1.50007e-20
2.63424e-19
3.88707e-20
-4.07403e-19
-5.49114e-20
3.38002e-19
3.18275e-20
-1.61768e-19
1.71431e-21
-1.32959e-19
-4.59612e-20
3.61677e-19
-1.46979e-19
1.46487e-19
-8.71009e-21
-4.54857e-19
1.25578e-20
8.8132e-22
-3.77751e-20
7.7061e-20
-1.01971e-19
1.19402e-19
-9.00014e-20
1.06731e-19
9.10585e-20
-4.59068e-19
3.91538e-20
2.38064e-19
-4.01468e-20
2.65127e-19
-4.15403e-20
-1.32146e-19
-6.55855e-20
1.73634e-19
-4.48468e-20
-2.25328e-19
-4.57698e-20
-1.86337e-20
-1.3195e-20
2.32925e-19
1.19101e-20
-3.18503e-19
1.38614e-20
4.87893e-19
-6.5433e-20
2.38016e-19
2.01929e-23
-3.78636e-19
-4.4712e-20
3.9558e-19
-3.20276e-20
-5.08088e-20
-6.94643e-20
-1.18585e-20
-7.02077e-21
-1.04168e-19
-1.38502e-20
-1.5246e-19
7.99196e-20
-1.5755e-19
-9.11997e-20
6.53898e-19
-3.58931e-20
-1.88047e-19
6.24669e-20
-3.77776e-19
-9.09647e-20
3.85394e-19
1.07008e-20
-1.90587e-19
-6.44398e-20
8.38557e-20
1.04456e-19
-2.42248e-19
1.60667e-20
1.66869e-19
-1.35572e-19
5.006e-19
8.20565e-21
-3.60836e-19
1.8529e-21
-2.22771e-19
2.06676e-19
-1.53451e-13
2.09673e-13
8.72895e-15
5.61493e-14
-2.44392e-08
2.8611e-08
-1.38565e-08
-2.29187e-08
3.00546e-08
-2.05987e-08
-7.48371e-09
-1.81926e-08
-3.54035e-09
-1.63906e-08
-2.27342e-09
-1.42535e-08
-4.45611e-09
-1.22974e-08
-3.83675e-09
-1.05107e-08
-3.21756e-09
-8.88017e-09
-2.73531e-09
-7.51024e-09
-1.9842e-09
-6.32779e-09
-1.51481e-09
-5.28507e-09
-1.26459e-09
-4.39327e-09
-9.70602e-10
-3.64335e-09
-7.26489e-10
-3.00337e-09
-5.85851e-10
-2.45734e-09
-4.84205e-10
-1.99957e-09
-3.8236e-10
-1.61926e-09
-2.9584e-10
-1.30736e-09
-2.20065e-10
-1.04873e-09
-1.76995e-10
-8.36995e-10
-1.36748e-10
-6.64598e-10
-1.06125e-10
-5.25852e-10
-7.87346e-11
-4.1459e-10
-5.87093e-11
-3.25489e-10
-4.4624e-11
-2.54355e-10
-3.42812e-11
-1.97817e-10
-2.64066e-11
-1.53237e-10
-1.98629e-11
-1.18185e-10
-1.50561e-11
-9.07534e-11
-1.13001e-11
-6.94855e-11
-8.16255e-12
-5.29432e-11
-6.32055e-12
-4.01432e-11
-4.87549e-12
-3.03192e-11
-3.63982e-12
-2.27976e-11
-2.71557e-12
-1.70592e-11
-2.01577e-12
-1.27202e-11
-1.41559e-12
-9.47977e-12
-8.72608e-13
-7.04858e-12
-5.72915e-13
-5.22595e-12
-3.94334e-13
-3.85275e-12
-3.17124e-13
-2.82954e-12
-2.29351e-13
-2.07094e-12
-1.60437e-13
-1.51169e-12
-1.08281e-13
-1.09957e-12
-7.56687e-14
-7.97397e-13
-5.36822e-14
-5.75987e-13
-4.03136e-14
-4.14548e-13
-3.04768e-14
-2.964e-13
-2.6995e-14
-2.71876e-14
2.94473e-08
1.58648e-08
3.16497e-08
1.20498e-08
3.89564e-08
-5.12097e-08
4.51136e-08
1.30722e-08
5.2295e-08
9.77421e-09
6.21272e-08
7.6376e-09
7.15456e-08
1.80832e-08
8.08112e-08
2.29793e-08
9.11635e-08
2.29054e-08
1.02169e-07
2.45999e-08
1.13898e-07
2.56131e-08
1.25903e-07
2.79903e-08
1.38938e-07
2.77407e-08
1.53015e-07
2.71111e-08
1.65417e-07
3.72494e-08
1.7958e-07
3.26472e-08
1.91345e-07
4.56598e-08
2.05349e-07
3.80537e-08
2.21647e-07
3.21507e-08
2.38936e-07
3.13853e-08
2.55508e-07
3.72263e-08
2.70977e-07
4.42445e-08
2.85685e-07
4.88611e-08
3.02324e-07
4.33488e-08
3.20276e-07
4.04412e-08
3.37152e-07
4.66065e-08
3.55135e-07
4.4459e-08
3.73587e-07
4.53218e-08
3.9191e-07
4.80326e-08
4.10035e-07
5.07497e-08
4.27724e-07
5.45623e-08
4.46013e-07
5.42598e-08
4.6477e-07
5.4175e-08
4.84061e-07
5.35787e-08
5.03364e-07
5.53639e-08
5.22888e-07
5.69201e-08
5.42628e-07
5.82259e-08
5.62063e-07
6.03556e-08
5.81539e-07
6.07301e-08
6.01545e-07
5.9988e-08
6.21416e-07
6.22745e-08
6.41543e-07
6.28264e-08
6.61796e-07
6.46851e-08
6.82522e-07
6.40245e-08
7.03254e-07
6.53445e-08
7.24182e-07
6.62711e-08
7.45184e-07
6.81092e-08
7.66328e-07
6.84175e-08
7.87291e-07
7.02367e-08
8.08501e-07
7.02127e-08
8.29446e-07
7.25032e-08
8.50722e-07