/*--------------------------------*- C++ -*----------------------------------*\
| =========                 |                                                 |
| \\      /  F ield         | OpenFOAM: The Open Source CFD Toolbox           |
|  \\    /   O peration     | Version:  2212                                  |
|   \\  /    A nd           | Website:  www.openfoam.com                      |
|    \\/     M anipulation  |                                                 |
\*---------------------------------------------------------------------------*/
FoamFile
{
    version     2.0;
    format      ascii;
    arch        "LSB;label=32;scalar=64";
    class       volScalarField;
    location    "0.004";
    object      k;
}
// * * * * * * * * * * * * * * * * * * * * * * * * * * * * * * * * * * * * * //

dimensions      [0 2 -2 0 0 0 0];

internalField   nonuniform List<scalar> 
24240
(
1.19133e-06
9.38882e-07
1.08181e-06
1.08215e-06
1.0821e-06
1.08204e-06
1.08197e-06
1.08188e-06
1.08179e-06
1.08169e-06
1.08159e-06
1.08148e-06
1.08137e-06
1.08127e-06
1.08117e-06
1.08107e-06
1.08098e-06
1.08052e-06
9.37653e-07
1.18948e-06
1.43381e-12
1.36071e-10
1.69398e-11
1.72409e-11
1.72403e-11
1.72396e-11
1.72387e-11
1.72377e-11
1.72366e-11
1.72355e-11
1.72343e-11
1.72331e-11
1.72318e-11
1.72306e-11
1.72296e-11
1.72289e-11
1.72284e-11
1.69265e-11
1.34578e-10
1.37394e-12
1.02202e-15
1.01328e-15
4.61836e-13
1.87051e-12
1.87043e-12
1.87033e-12
1.87021e-12
1.87007e-12
1.86992e-12
1.86976e-12
1.86959e-12
1.86942e-12
1.86925e-12
1.86907e-12
1.86891e-12
1.86875e-12
1.86861e-12
4.61027e-13
1.01326e-15
1.02202e-15
1e-15
1e-15
1.00005e-15
2.86652e-15
2.87399e-15
2.87754e-15
2.88167e-15
2.88631e-15
2.89137e-15
2.89676e-15
2.90238e-15
2.90814e-15
2.91392e-15
2.91963e-15
2.92514e-15
2.93035e-15
2.93034e-15
1.00005e-15
1e-15
1e-15
1e-15
1e-15
1e-15
1.14502e-15
1.1459e-15
1.14605e-15
1.14621e-15
1.14639e-15
1.14659e-15
1.1468e-15
1.14702e-15
1.14725e-15
1.14748e-15
1.1477e-15
1.14791e-15
1.14809e-15
1.14748e-15
1e-15
1e-15
1e-15
1e-15
1e-15
1e-15
1.05972e-15
1.06036e-15
1.06058e-15
1.06084e-15
1.06112e-15
1.06143e-15
1.06176e-15
1.06211e-15
1.06247e-15
1.06283e-15
1.06317e-15
1.06351e-15
1.06381e-15
1.06359e-15
1e-15
1e-15
1e-15
1e-15
1e-15
1e-15
1.03375e-15
1.03435e-15
1.03456e-15
1.0348e-15
1.03507e-15
1.03536e-15
1.03568e-15
1.03601e-15
1.03635e-15
1.03669e-15
1.03702e-15
1.03734e-15
1.03764e-15
1.03742e-15
1e-15
1e-15
1e-15
1e-15
1e-15
1e-15
1.00947e-15
1.00971e-15
1.00968e-15
1.00965e-15
1.00962e-15
1.00959e-15
1.00955e-15
1.00951e-15
1.00948e-15
1.00944e-15
1.00941e-15
1.00937e-15
1.00934e-15
1.00904e-15
1e-15
1e-15
1e-15
1e-15
1e-15
1e-15
1.00647e-15
1.0067e-15
1.00677e-15
1.00685e-15
1.00693e-15
1.00703e-15
1.00713e-15
1.00724e-15
1.00735e-15
1.00747e-15
1.00758e-15
1.00768e-15
1.00778e-15
1.00765e-15
1e-15
1e-15
1e-15
1e-15
1e-15
1e-15
1.00051e-15
1.00053e-15
1.00056e-15
1.00058e-15
1.00062e-15
1.00065e-15
1.00069e-15
1.00073e-15
1.00077e-15
1.00081e-15
1.00085e-15
1.00089e-15
1.00093e-15
1.00094e-15
1e-15
1e-15
1e-15
1e-15
1e-15
1e-15
1.00025e-15
1.00025e-15
1.00025e-15
1.00026e-15
1.00026e-15
1.00027e-15
1.00027e-15
1.00028e-15
1.00028e-15
1.00029e-15
1.00029e-15
1.0003e-15
1.0003e-15
1.0003e-15
1e-15
1e-15
1e-15
1e-15
1e-15
1e-15
1.0004e-15
1.0004e-15
1.00041e-15
1.00041e-15
1.00041e-15
1.00042e-15
1.00042e-15
1.00043e-15
1.00044e-15
1.00044e-15
1.00045e-15
1.00045e-15
1.00046e-15
1.00046e-15
1e-15
1e-15
1e-15
1e-15
1e-15
1e-15
1.0006e-15
1.00061e-15
1.00061e-15
1.00062e-15
1.00062e-15
1.00063e-15
1.00063e-15
1.00064e-15
1.00065e-15
1.00065e-15
1.00066e-15
1.00067e-15
1.00068e-15
1.00068e-15
1e-15
1e-15
1e-15
1e-15
1e-15
1e-15
1.00088e-15
1.00089e-15
1.00089e-15
1.0009e-15
1.0009e-15
1.00091e-15
1.00091e-15
1.00092e-15
1.00093e-15
1.00093e-15
1.00094e-15
1.00094e-15
1.00095e-15
1.00095e-15
1e-15
1e-15
1e-15
1e-15
1e-15
1e-15
1.004e-15
1.00401e-15
1.00401e-15
1.00401e-15
1.004e-15
1.004e-15
1.004e-15
1.004e-15
1.004e-15
1.00401e-15
1.00402e-15
1.00403e-15
1.00404e-15
1.00403e-15
1e-15
1e-15
1e-15
1e-15
1e-15
1e-15
1.13525e-15
1.13568e-15
1.13573e-15
1.13578e-15
1.13585e-15
1.13594e-15
1.13604e-15
1.13617e-15
1.13631e-15
1.13646e-15
1.13662e-15
1.1368e-15
1.13698e-15
1.13674e-15
1e-15
1e-15
1e-15
1e-15
1.00001e-15
1.00051e-15
1.08657e-14
1.08739e-14
1.08678e-14
1.0861e-14
1.08535e-14
1.08456e-14
1.08376e-14
1.08296e-14
1.08219e-14
1.08148e-14
1.08083e-14
1.08026e-14
1.07978e-14
1.07811e-14
1.00051e-15
1.00001e-15
1e-15
1.08242e-15
1.06032e-15
4.54207e-12
1.81204e-11
1.81193e-11
1.81177e-11
1.81158e-11
1.81136e-11
1.81111e-11
1.81084e-11
1.81055e-11
1.81025e-11
1.80994e-11
1.80963e-11
1.80932e-11
1.80903e-11
1.80875e-11
4.52704e-12
1.06014e-15
1.0822e-15
6.50976e-12
2.79439e-10
1.75341e-10
1.78596e-10
1.78588e-10
1.78578e-10
1.78567e-10
1.78553e-10
1.78538e-10
1.78521e-10
1.78504e-10
1.78485e-10
1.78466e-10
1.78447e-10
1.78429e-10
1.78411e-10
1.78396e-10
1.75123e-10
2.7684e-10
6.4084e-12
3.49635e-06
2.70761e-06
3.14222e-06
3.14478e-06
3.14463e-06
3.14441e-06
3.14415e-06
3.14385e-06
3.1435e-06
3.14313e-06
3.14273e-06
3.14231e-06
3.14188e-06
3.14145e-06
3.14102e-06
3.14062e-06
3.14024e-06
3.13722e-06
2.70282e-06
3.48879e-06
7.21563e-08
1.23252e-07
1.59445e-07
1.60191e-07
1.60159e-07
1.60119e-07
1.60071e-07
1.60018e-07
1.5996e-07
1.59899e-07
1.59834e-07
1.59767e-07
1.59701e-07
1.59636e-07
1.59572e-07
1.59513e-07
1.59458e-07
1.58641e-07
1.22535e-07
7.1452e-08
1e-15
7.77262e-09
2.34612e-13
2.77843e-13
2.77651e-13
2.77449e-13
2.77257e-13
2.77048e-13
2.7684e-13
2.76617e-13
2.76397e-13
2.76125e-13
2.7587e-13
2.75622e-13
2.75388e-13
2.75172e-13
2.74921e-13
2.31463e-13
7.71881e-09
1.42452e-15
1.00141e-15
1.61012e-15
6.38285e-15
5.99345e-14
5.98987e-14
5.9854e-14
5.98018e-14
5.9743e-14
5.96787e-14
5.961e-14
5.95382e-14
5.94644e-14
5.93903e-14
5.93172e-14
5.92467e-14
5.91782e-14
5.91175e-14
6.36844e-15
1.60582e-15
1.00134e-15
1e-15
1.00012e-15
1.00001e-15
2.83846e-14
2.84563e-14
2.84526e-14
2.84482e-14
2.84433e-14
2.84378e-14
2.8432e-14
2.8426e-14
2.842e-14
2.8414e-14
2.84084e-14
2.84032e-14
2.83986e-14
2.83197e-14
1.00001e-15
1.00012e-15
1e-15
1e-15
1e-15
1e-15
9.86977e-15
9.93778e-15
9.94677e-15
9.95722e-15
9.96893e-15
9.98164e-15
9.99513e-15
1.00091e-14
1.00234e-14
1.00377e-14
1.00518e-14
1.00654e-14
1.00781e-14
1.00281e-14
1e-15
1e-15
1e-15
1e-15
1e-15
1e-15
2.92269e-15
2.94353e-15
2.95066e-15
2.95899e-15
2.96834e-15
2.97853e-15
2.98939e-15
3.0007e-15
3.01228e-15
3.02389e-15
3.03533e-15
3.04637e-15
3.05678e-15
3.05006e-15
1e-15
1e-15
1e-15
1e-15
1e-15
1e-15
1.57943e-15
1.58965e-15
1.59325e-15
1.59751e-15
1.6023e-15
1.60755e-15
1.61314e-15
1.61898e-15
1.62497e-15
1.63098e-15
1.63689e-15
1.64258e-15
1.64792e-15
1.64446e-15
1e-15
1e-15
1e-15
1e-15
1e-15
1e-15
1.16865e-15
1.17289e-15
1.174e-15
1.17531e-15
1.17678e-15
1.17839e-15
1.18011e-15
1.18192e-15
1.18377e-15
1.18563e-15
1.18747e-15
1.18923e-15
1.19087e-15
1.18853e-15
1e-15
1e-15
1e-15
1e-15
1e-15
1e-15
1.2395e-15
1.24789e-15
1.25018e-15
1.25289e-15
1.25595e-15
1.25934e-15
1.26297e-15
1.26678e-15
1.27066e-15
1.27462e-15
1.27855e-15
1.28233e-15
1.28584e-15
1.2811e-15
1e-15
1e-15
1e-15
1e-15
1e-15
1e-15
1.02659e-15
1.02772e-15
1.02855e-15
1.02954e-15
1.03066e-15
1.03189e-15
1.03323e-15
1.03463e-15
1.03608e-15
1.03754e-15
1.03897e-15
1.04036e-15
1.04163e-15
1.04184e-15
1e-15
1e-15
1e-15
1e-15
1e-15
1e-15
1.01534e-15
1.01569e-15
1.01588e-15
1.0161e-15
1.01635e-15
1.01662e-15
1.01692e-15
1.01723e-15
1.01755e-15
1.01788e-15
1.0182e-15
1.01851e-15
1.0188e-15
1.01881e-15
1e-15
1e-15
1e-15
1e-15
1e-15
1e-15
1.02467e-15
1.02508e-15
1.02528e-15
1.02553e-15
1.02581e-15
1.02612e-15
1.02646e-15
1.02682e-15
1.02719e-15
1.02757e-15
1.02795e-15
1.02832e-15
1.02866e-15
1.02869e-15
1e-15
1e-15
1e-15
1e-15
1e-15
1e-15
1.03711e-15
1.03755e-15
1.03778e-15
1.03806e-15
1.03839e-15
1.03875e-15
1.03914e-15
1.03956e-15
1.04001e-15
1.04046e-15
1.04091e-15
1.04135e-15
1.04178e-15
1.04189e-15
1e-15
1e-15
1e-15
1e-15
1e-15
1e-15
1.0539e-15
1.0543e-15
1.05451e-15
1.05475e-15
1.05504e-15
1.05537e-15
1.05572e-15
1.0561e-15
1.0565e-15
1.05691e-15
1.05732e-15
1.05773e-15
1.05813e-15
1.05823e-15
1e-15
1e-15
1e-15
1e-15
1e-15
1e-15
1.33076e-15
1.33164e-15
1.33117e-15
1.33067e-15
1.33016e-15
1.32968e-15
1.32923e-15
1.32909e-15
1.32919e-15
1.32941e-15
1.32976e-15
1.33024e-15
1.33085e-15
1.33026e-15
1e-15
1e-15
1e-15
1e-15
1e-15
1e-15
2.07681e-14
2.08402e-14
2.0835e-14
2.08293e-14
2.08232e-14
2.08172e-14
2.08114e-14
2.08061e-14
2.08016e-14
2.07982e-14
2.07958e-14
2.07946e-14
2.07941e-14
2.07181e-14
1e-15
1e-15
1e-15
1e-15
1.00026e-15
1.00007e-15
2.53343e-13
2.53495e-13
2.53195e-13
2.52846e-13
2.52456e-13
2.52034e-13
2.51589e-13
2.51132e-13
2.50673e-13
2.50223e-13
2.49792e-13
2.49389e-13
2.49022e-13
2.48313e-13
1.00006e-15
1.00025e-15
1e-15
1.00654e-15
1.86591e-15
2.3568e-14
4.76623e-13
4.76183e-13
4.7562e-13
4.74944e-13
4.74164e-13
4.7329e-13
4.72337e-13
4.71325e-13
4.70284e-13
4.69219e-13
4.68154e-13
4.67115e-13
4.66128e-13
4.65217e-13
2.35071e-14
1.8582e-15
1.00652e-15
1.56609e-13
6.26924e-09
1.96168e-12
2.34942e-12
2.3482e-12
2.34667e-12
2.34483e-12
2.34269e-12
2.3403e-12
2.33767e-12
2.33486e-12
2.33191e-12
2.32888e-12
2.32583e-12
2.32284e-12
2.31999e-12
2.31737e-12
1.9276e-12
6.21376e-09
1.61312e-13
3.06893e-07
4.29723e-07
5.46036e-07
5.48437e-07
5.48323e-07
5.48177e-07
5.48001e-07
5.47798e-07
5.47571e-07
5.47322e-07
5.47057e-07
5.4678e-07
5.46497e-07
5.46212e-07
5.45934e-07
5.4567e-07
5.45425e-07
5.42728e-07
4.26708e-07
3.03502e-07
1.58997e-07
1.86932e-07
2.2357e-07
2.2357e-07
2.23539e-07
2.235e-07
2.23455e-07
2.23404e-07
2.23348e-07
2.23289e-07
2.23227e-07
2.23165e-07
2.23101e-07
2.23039e-07
2.22979e-07
2.22923e-07
2.2287e-07
2.228e-07
1.86223e-07
1.58167e-07
1.33527e-14
1.15823e-08
3.45509e-13
3.61309e-13
3.61269e-13
3.61218e-13
3.61156e-13
3.61088e-13
3.61012e-13
3.60931e-13
3.60846e-13
3.60761e-13
3.60675e-13
3.60592e-13
3.60533e-13
3.60493e-13
3.60498e-13
3.44549e-13
1.15252e-08
1.33242e-14
1.00265e-15
1.8526e-15
4.92646e-15
3.29522e-13
3.29452e-13
3.29365e-13
3.29263e-13
3.29149e-13
3.29026e-13
3.28894e-13
3.28756e-13
3.28616e-13
3.28475e-13
3.28336e-13
3.28202e-13
3.28084e-13
3.27966e-13
4.91605e-15
1.84831e-15
1.00263e-15
1e-15
1.00016e-15
1.00002e-15
1.41843e-13
1.42444e-13
1.42453e-13
1.42463e-13
1.42475e-13
1.42488e-13
1.42502e-13
1.42517e-13
1.42533e-13
1.4255e-13
1.42567e-13
1.42584e-13
1.42601e-13
1.42019e-13
1.00002e-15
1.00016e-15
1e-15
1e-15
1e-15
1.00003e-15
6.89933e-13
6.96004e-13
6.96508e-13
6.9709e-13
6.97738e-13
6.98437e-13
6.99176e-13
6.99938e-13
7.00711e-13
7.01481e-13
7.02235e-13
7.02959e-13
7.03644e-13
6.98526e-13
1.00003e-15
1e-15
1e-15
1e-15
1e-15
1e-15
7.10632e-15
7.17333e-15
7.19185e-15
7.21333e-15
7.23731e-15
7.26332e-15
7.2909e-15
7.31955e-15
7.3488e-15
7.37806e-15
7.40676e-15
7.43433e-15
7.46017e-15
7.4287e-15
1e-15
1e-15
1e-15
1e-15
1e-15
1e-15
4.32083e-15
4.36843e-15
4.37608e-15
4.38657e-15
4.3983e-15
4.41104e-15
4.42454e-15
4.43854e-15
4.45281e-15
4.46707e-15
4.48104e-15
4.49442e-15
4.50683e-15
4.47389e-15
1e-15
1e-15
1e-15
1e-15
1e-15
1e-15
1.19552e-15
1.20028e-15
1.20293e-15
1.20603e-15
1.20951e-15
1.2133e-15
1.21735e-15
1.22156e-15
1.22587e-15
1.23019e-15
1.23443e-15
1.23849e-15
1.24225e-15
1.24227e-15
1e-15
1e-15
1e-15
1e-15
1e-15
1e-15
2.65267e-15
2.6905e-15
2.70053e-15
2.71226e-15
2.72548e-15
2.73998e-15
2.75548e-15
2.77175e-15
2.78849e-15
2.80575e-15
2.82306e-15
2.8397e-15
2.85522e-15
2.83562e-15
1e-15
1e-15
1e-15
1e-15
1e-15
1e-15
1.34374e-15
1.35229e-15
1.35597e-15
1.3603e-15
1.36519e-15
1.37058e-15
1.37635e-15
1.38242e-15
1.38865e-15
1.39494e-15
1.40114e-15
1.4071e-15
1.41265e-15
1.41076e-15
1e-15
1e-15
1e-15
1e-15
1e-15
1e-15
1.24192e-15
1.24746e-15
1.25041e-15
1.25391e-15
1.25788e-15
1.26226e-15
1.26699e-15
1.27197e-15
1.27712e-15
1.28232e-15
1.28748e-15
1.29245e-15
1.2971e-15
1.29723e-15
1e-15
1e-15
1e-15
1e-15
1e-15
1e-15
1.38676e-15
1.3931e-15
1.39641e-15
1.40034e-15
1.40484e-15
1.40983e-15
1.41524e-15
1.42097e-15
1.42691e-15
1.43295e-15
1.43897e-15
1.44481e-15
1.45033e-15
1.45085e-15
1e-15
1e-15
1e-15
1e-15
1e-15
1e-15
1.57671e-15
1.5835e-15
1.58725e-15
1.59165e-15
1.59683e-15
1.60262e-15
1.60892e-15
1.61563e-15
1.62263e-15
1.62979e-15
1.63698e-15
1.64405e-15
1.6508e-15
1.65253e-15
1e-15
1e-15
1e-15
1e-15
1e-15
1e-15
1.8293e-15
1.83566e-15
1.83897e-15
1.84295e-15
1.84754e-15
1.85268e-15
1.85827e-15
1.86424e-15
1.87047e-15
1.87688e-15
1.88334e-15
1.88973e-15
1.8959e-15
1.89749e-15
1e-15
1e-15
1e-15
1e-15
1e-15
1e-15
8.19535e-15
8.21267e-15
8.19902e-15
8.18428e-15
8.16895e-15
8.1536e-15
8.13884e-15
8.12967e-15
8.12528e-15
8.1235e-15
8.12468e-15
8.12906e-15
8.13667e-15
8.11795e-15
1e-15
1e-15
1e-15
1e-15
1e-15
1.00012e-15
3.26318e-12
3.27573e-12
3.2745e-12
3.2731e-12
3.27156e-12
3.26993e-12
3.26826e-12
3.2666e-12
3.265e-12
3.26352e-12
3.26218e-12
3.261e-12
3.25995e-12
3.24557e-12
1.00008e-15
1e-15
1e-15
1e-15
1.00037e-15
1.00038e-15
3.64828e-12
3.65317e-12
3.64963e-12
3.64554e-12
3.64102e-12
3.6362e-12
3.63119e-12
3.62614e-12
3.62117e-12
3.61641e-12
3.61195e-12
3.60786e-12
3.60419e-12
3.59331e-12
1.00029e-15
1.00037e-15
1e-15
1.01269e-15
2.31253e-15
1.574e-14
3.30463e-12
3.30378e-12
3.30263e-12
3.30127e-12
3.2997e-12
3.29795e-12
3.29604e-12
3.29401e-12
3.29189e-12
3.28972e-12
3.28755e-12
3.28542e-12
3.28339e-12
3.28146e-12
1.56863e-14
2.30226e-15
1.01259e-15
2.20628e-13
9.70355e-09
3.08956e-12
3.22334e-12
3.22298e-12
3.22251e-12
3.22195e-12
3.22131e-12
3.22059e-12
3.21981e-12
3.21897e-12
3.21808e-12
3.21718e-12
3.21626e-12
3.21536e-12
3.2145e-12
3.21371e-12
3.07911e-12
9.62958e-09
2.21768e-13
6.47929e-07
6.73588e-07
7.96811e-07
7.96954e-07
7.9683e-07
7.9667e-07
7.96479e-07
7.96261e-07
7.96016e-07
7.95751e-07
7.95468e-07
7.95174e-07
7.94872e-07
7.94571e-07
7.94271e-07
7.93989e-07
7.93725e-07
7.93257e-07
6.70256e-07
6.43651e-07
1.34077e-07
1.51906e-07
1.83223e-07
1.83357e-07
1.83342e-07
1.83323e-07
1.83301e-07
1.83276e-07
1.83249e-07
1.8322e-07
1.8319e-07
1.8316e-07
1.8313e-07
1.831e-07
1.83071e-07
1.83044e-07
1.83018e-07
1.82851e-07
1.51568e-07
1.33668e-07
2.20517e-14
1.15142e-08
1.66946e-13
1.74757e-13
1.74752e-13
1.74742e-13
1.74731e-13
1.74717e-13
1.74703e-13
1.74688e-13
1.74673e-13
1.74657e-13
1.74638e-13
1.74621e-13
1.74602e-13
1.74585e-13
1.74592e-13
1.6674e-13
1.14814e-08
2.2928e-14
1.00239e-15
1.7713e-15
4.40332e-15
1.50658e-13
1.5064e-13
1.50611e-13
1.50577e-13
1.50539e-13
1.50497e-13
1.50452e-13
1.50406e-13
1.50359e-13
1.50312e-13
1.50266e-13
1.50221e-13
1.50179e-13
1.50137e-13
4.39393e-15
1.76904e-15
1.00239e-15
1e-15
1.00015e-15
1.00024e-15
4.86523e-12
4.89434e-12
4.89537e-12
4.89658e-12
4.89792e-12
4.89939e-12
4.90094e-12
4.90255e-12
4.90418e-12
4.90581e-12
4.90741e-12
4.90893e-12
4.91036e-12
4.88324e-12
1.0003e-15
1.00015e-15
1e-15
1e-15
1e-15
1.00021e-15
5.24235e-12
5.29294e-12
5.29456e-12
5.29643e-12
5.2985e-12
5.30074e-12
5.30308e-12
5.30548e-12
5.30788e-12
5.31025e-12
5.31256e-12
5.31475e-12
5.31679e-12
5.26909e-12
1.00023e-15
1e-15
1e-15
1e-15
1e-15
1e-15
6.00444e-15
6.05278e-15
6.06303e-15
6.07481e-15
6.08788e-15
6.10187e-15
6.11656e-15
6.13168e-15
6.14701e-15
6.16215e-15
6.17691e-15
6.19089e-15
6.20371e-15
6.1733e-15
1e-15
1e-15
1e-15
1e-15
1e-15
1e-15
1.24005e-13
1.25906e-13
1.26005e-13
1.26119e-13
1.26245e-13
1.26382e-13
1.26532e-13
1.26692e-13
1.26855e-13
1.27017e-13
1.27175e-13
1.27325e-13
1.27464e-13
1.25737e-13
1e-15
1e-15
1e-15
1e-15
1e-15
1e-15
1.30862e-15
1.31586e-15
1.32085e-15
1.32663e-15
1.33308e-15
1.34008e-15
1.34748e-15
1.35516e-15
1.36296e-15
1.37075e-15
1.37836e-15
1.38562e-15
1.39234e-15
1.39421e-15
1e-15
1e-15
1e-15
1e-15
1e-15
1e-15
2.91153e-15
2.94639e-15
2.95913e-15
2.97391e-15
2.99047e-15
3.00851e-15
3.02768e-15
3.04812e-15
3.06953e-15
3.09097e-15
3.11204e-15
3.13227e-15
3.15109e-15
3.14019e-15
1e-15
1e-15
1e-15
1e-15
1e-15
1e-15
1.19858e-15
1.20368e-15
1.20733e-15
1.21157e-15
1.21633e-15
1.22153e-15
1.22707e-15
1.23285e-15
1.23877e-15
1.24471e-15
1.25079e-15
1.25661e-15
1.262e-15
1.2639e-15
1e-15
1e-15
1e-15
1e-15
1e-15
1e-15
1.1099e-15
1.11301e-15
1.11557e-15
1.11856e-15
1.12193e-15
1.12562e-15
1.12956e-15
1.13368e-15
1.13791e-15
1.14217e-15
1.14637e-15
1.15041e-15
1.15416e-15
1.15599e-15
1e-15
1e-15
1e-15
1e-15
1e-15
1e-15
1.14838e-15
1.15163e-15
1.15428e-15
1.15738e-15
1.16088e-15
1.16473e-15
1.16884e-15
1.17316e-15
1.17761e-15
1.1821e-15
1.18655e-15
1.19086e-15
1.1949e-15
1.19701e-15
1e-15
1e-15
1e-15
1e-15
1e-15
1e-15
1.21545e-15
1.218e-15
1.21961e-15
1.2216e-15
1.22373e-15
1.22608e-15
1.22859e-15
1.23123e-15
1.23395e-15
1.23671e-15
1.23945e-15
1.24211e-15
1.24463e-15
1.24547e-15
1e-15
1e-15
1e-15
1e-15
1e-15
1e-15
1.30412e-15
1.30682e-15
1.30853e-15
1.31055e-15
1.31284e-15
1.31537e-15
1.31809e-15
1.32096e-15
1.32395e-15
1.32729e-15
1.33069e-15
1.33404e-15
1.33725e-15
1.33872e-15
1e-15
1e-15
1e-15
1e-15
1e-15
1e-15
1.35953e-15
1.36115e-15
1.36193e-15
1.36291e-15
1.36408e-15
1.36543e-15
1.36696e-15
1.36858e-15
1.37032e-15
1.37222e-15
1.37429e-15
1.37651e-15
1.37887e-15
1.38022e-15
1e-15
1e-15
1e-15
1e-15
1e-15
1.00059e-15
1.43996e-11
1.44711e-11
1.4469e-11
1.44667e-11
1.44642e-11
1.44616e-11
1.44589e-11
1.44563e-11
1.4454e-11
1.44518e-11
1.445e-11
1.44485e-11
1.44473e-11
1.43732e-11
1.00042e-15
1e-15
1e-15
1e-15
1.00046e-15
1.0014e-15
2.50649e-11
2.51371e-11
2.51327e-11
2.51277e-11
2.51223e-11
2.51165e-11
2.51107e-11
2.5105e-11
2.50995e-11
2.50945e-11
2.50899e-11
2.50858e-11
2.50823e-11
2.50037e-11
1.00114e-15
1.00045e-15
1e-15
1.01307e-15
2.63279e-15
1.34422e-14
1.59796e-12
1.59767e-12
1.59722e-12
1.59669e-12
1.59608e-12
1.59541e-12
1.59468e-12
1.5939e-12
1.59309e-12
1.59227e-12
1.59145e-12
1.59064e-12
1.58987e-12
1.58908e-12
1.34002e-14
2.62392e-15
1.01301e-15
3.50109e-13
1.268e-08
1.3475e-12
1.4069e-12
1.40684e-12
1.40677e-12
1.40669e-12
1.40659e-12
1.40648e-12
1.40636e-12
1.40623e-12
1.40609e-12
1.40595e-12
1.40581e-12
1.40567e-12
1.40553e-12
1.4054e-12
1.34613e-12
1.26134e-08
3.5124e-13
6.23411e-07
6.17336e-07
7.33513e-07
7.34054e-07
7.33975e-07
7.33874e-07
7.33754e-07
7.33617e-07
7.33466e-07
7.33302e-07
7.33128e-07
7.32948e-07
7.32765e-07
7.32582e-07
7.32405e-07
7.32233e-07
7.32071e-07
7.31332e-07
6.15304e-07
6.2071e-07
9.12652e-08
1.07951e-07
1.31599e-07
1.31712e-07
1.31706e-07
1.31697e-07
1.31686e-07
1.31675e-07
1.31662e-07
1.31649e-07
1.31636e-07
1.31622e-07
1.31608e-07
1.31595e-07
1.31582e-07
1.3157e-07
1.31558e-07
1.31429e-07
1.07799e-07
9.10874e-08
8.91053e-14
9.40505e-09
9.21474e-14
9.65056e-14
9.65007e-14
9.64974e-14
9.64935e-14
9.64893e-14
9.64846e-14
9.64797e-14
9.64746e-14
9.64694e-14
9.64665e-14
9.64615e-14
9.64566e-14
9.64519e-14
9.64468e-14
9.20356e-14
9.3888e-09
8.98449e-14
1.00177e-15
1.79135e-15
3.95676e-15
8.46057e-14
8.46019e-14
8.45904e-14
8.45771e-14
8.45622e-14
8.45461e-14
8.45291e-14
8.45114e-14
8.44934e-14
8.44755e-14
8.44579e-14
8.4441e-14
8.44251e-14
8.44036e-14
3.94949e-15
1.79006e-15
1.00177e-15
1e-15
1.00011e-15
1.00068e-15
1.52582e-11
1.53641e-11
1.53656e-11
1.53673e-11
1.53692e-11
1.53713e-11
1.53736e-11
1.53759e-11
1.53782e-11
1.53805e-11
1.53828e-11
1.5385e-11
1.5387e-11
1.52841e-11
1.00086e-15
1.00011e-15
1e-15
1e-15
1e-15
1.00061e-15
1.49865e-11
1.5137e-11
1.51397e-11
1.51429e-11
1.51463e-11
1.515e-11
1.5154e-11
1.5158e-11
1.5162e-11
1.51659e-11
1.51697e-11
1.51734e-11
1.51768e-11
1.50312e-11
1.00069e-15
1e-15
1e-15
1e-15
1e-15
1e-15
9.3948e-14
9.48857e-14
9.4948e-14
9.50194e-14
9.50983e-14
9.51834e-14
9.52724e-14
9.53632e-14
9.54544e-14
9.55441e-14
9.56305e-14
9.57124e-14
9.5788e-14
9.49571e-14
1e-15
1e-15
1e-15
1e-15
1e-15
1.00001e-15
4.01563e-13
4.07169e-13
4.07314e-13
4.07481e-13
4.07665e-13
4.07863e-13
4.08124e-13
4.08445e-13
4.08769e-13
4.09089e-13
4.094e-13
4.09696e-13
4.09971e-13
4.04683e-13
1.00001e-15
1e-15
1e-15
1e-15
1e-15
1e-15
1.5722e-15
1.58336e-15
1.59071e-15
1.59918e-15
1.60858e-15
1.61874e-15
1.62955e-15
1.64073e-15
1.65202e-15
1.66324e-15
1.67416e-15
1.68455e-15
1.69417e-15
1.69653e-15
1e-15
1e-15
1e-15
1e-15
1e-15
1e-15
2.71897e-15
2.7462e-15
2.75909e-15
2.77392e-15
2.79041e-15
2.80824e-15
2.82712e-15
2.84664e-15
2.86641e-15
2.8861e-15
2.90528e-15
2.92352e-15
2.94032e-15
2.93629e-15
1e-15
1e-15
1e-15
1e-15
1e-15
1e-15
1.03845e-15
1.03991e-15
1.0413e-15
1.04288e-15
1.04465e-15
1.04657e-15
1.0486e-15
1.0507e-15
1.05284e-15
1.05498e-15
1.05885e-15
1.06256e-15
1.06595e-15
1.06833e-15
1e-15
1e-15
1e-15
1e-15
1e-15
1e-15
1.01591e-15
1.01714e-15
1.01849e-15
1.02005e-15
1.02178e-15
1.02366e-15
1.02565e-15
1.02771e-15
1.02982e-15
1.03192e-15
1.03397e-15
1.03592e-15
1.0377e-15
1.03894e-15
1e-15
1e-15
1e-15
1e-15
1e-15
1e-15
1.02632e-15
1.02763e-15
1.02902e-15
1.03063e-15
1.03242e-15
1.03437e-15
1.03644e-15
1.03858e-15
1.04077e-15
1.04296e-15
1.0451e-15
1.04715e-15
1.04904e-15
1.05037e-15
1e-15
1e-15
1e-15
1e-15
1e-15
1e-15
1.01876e-15
1.0201e-15
1.02162e-15
1.02339e-15
1.02537e-15
1.02752e-15
1.0298e-15
1.03217e-15
1.03459e-15
1.03702e-15
1.03941e-15
1.04171e-15
1.04386e-15
1.04555e-15
1e-15
1e-15
1e-15
1e-15
1e-15
1e-15
1.00048e-15
1.00049e-15
1.00049e-15
1.00049e-15
1.0005e-15
1.0005e-15
1.0005e-15
1.00051e-15
1.00065e-15
1.00365e-15
1.00655e-15
1.00939e-15
1.01204e-15
1.01442e-15
1e-15
1e-15
1e-15
1e-15
1e-15
1e-15
1e-15
1e-15
1e-15
1e-15
1e-15
1e-15
1e-15
1e-15
1e-15
1e-15
1e-15
1e-15
1e-15
1e-15
1e-15
1e-15
1e-15
1e-15
1e-15
1.0012e-15
2.79383e-11
2.81006e-11
2.80994e-11
2.80979e-11
2.80964e-11
2.80949e-11
2.80934e-11
2.80922e-11
2.80911e-11
2.80904e-11
2.809e-11
2.80899e-11
2.80901e-11
2.79272e-11
1.00089e-15
1e-15
1e-15
1e-15
1.00046e-15
1.00195e-15
3.87621e-11
3.89106e-11
3.89083e-11
3.89056e-11
3.89028e-11
3.88998e-11
3.88969e-11
3.88941e-11
3.88916e-11
3.88894e-11
3.88875e-11
3.8886e-11
3.88848e-11
3.87334e-11
1.00165e-15
1.00045e-15
1e-15
1.01123e-15
2.65003e-15
1.25336e-14
1.01281e-12
1.01271e-12
1.01248e-12
1.01221e-12
1.0119e-12
1.01156e-12
1.0112e-12
1.01081e-12
1.01042e-12
1.01001e-12
1.00961e-12
1.00921e-12
1.00883e-12
1.0084e-12
1.24691e-14
2.64373e-15
1.01119e-15
4.50632e-13
1.35704e-08
6.90071e-13
7.18648e-13
7.18633e-13
7.18614e-13
7.18591e-13
7.18565e-13
7.18536e-13
7.18504e-13
7.1847e-13
7.18435e-13
7.18397e-13
7.18359e-13
7.1832e-13
7.18281e-13
7.18245e-13
6.90161e-13
1.35204e-08
4.51705e-13
5.23163e-07
5.15319e-07
6.15359e-07
6.15857e-07
6.1581e-07
6.15748e-07
6.15676e-07
6.15594e-07
6.15504e-07
6.15407e-07
6.15305e-07
6.15201e-07
6.15094e-07
6.14988e-07
6.14884e-07
6.14784e-07
6.1469e-07
6.14076e-07
5.1413e-07
5.21587e-07
7.11389e-08
8.54947e-08
1.05052e-07
1.05148e-07
1.05145e-07
1.0514e-07
1.05134e-07
1.05128e-07
1.05122e-07
1.05115e-07
1.05108e-07
1.05101e-07
1.05094e-07
1.05087e-07
1.0508e-07
1.05074e-07
1.05067e-07
1.04963e-07
8.54166e-08
7.10522e-08
1.37305e-13
7.9626e-09
8.04777e-14
8.37027e-14
8.3702e-14
8.37009e-14
8.36996e-14
8.36981e-14
8.36965e-14
8.36947e-14
8.36929e-14
8.36911e-14
8.36893e-14
8.36876e-14
8.36863e-14
8.36855e-14
8.36856e-14
8.04203e-14
7.95395e-09
1.38009e-13
1.00311e-15
2.65805e-14
3.58065e-15
5.53325e-14
5.5329e-14
5.53247e-14
5.53197e-14
5.53141e-14
5.53081e-14
5.53017e-14
5.52951e-14
5.52885e-14
5.52819e-14
5.52755e-14
5.52693e-14
5.52635e-14
5.52589e-14
3.57559e-15
2.65441e-14
1.00312e-15
1e-15
1.00011e-15
1.00102e-15
2.30153e-11
2.3197e-11
2.3198e-11
2.31993e-11
2.32008e-11
2.32023e-11
2.3204e-11
2.32056e-11
2.32074e-11
2.32091e-11
2.32107e-11
2.32124e-11
2.32141e-11
2.30348e-11
1.00132e-15
1.00011e-15
1e-15
1e-15
1e-15
1.00104e-15
2.55735e-11
2.58343e-11
2.58365e-11
2.5839e-11
2.58418e-11
2.58447e-11
2.58479e-11
2.5851e-11
2.58542e-11
2.58574e-11
2.58604e-11
2.58634e-11
2.58663e-11
2.56096e-11
1.00124e-15
1e-15
1e-15
1e-15
1e-15
1e-15
1.85917e-13
1.87751e-13
1.87814e-13
1.87886e-13
1.87965e-13
1.8805e-13
1.88139e-13
1.88229e-13
1.88319e-13
1.88408e-13
1.88496e-13
1.88581e-13
1.88664e-13
1.86948e-13
1.00001e-15
1e-15
1e-15
1e-15
1e-15
1.00001e-15
4.94826e-13
5.01155e-13
5.01296e-13
5.01456e-13
5.01633e-13
5.01821e-13
5.02017e-13
5.02217e-13
5.02418e-13
5.02616e-13
5.02809e-13
5.02995e-13
5.03174e-13
4.97097e-13
1.00001e-15
1e-15
1e-15
1e-15
1e-15
1e-15
1.74651e-15
1.75927e-15
1.76747e-15
1.77686e-15
1.78723e-15
1.79867e-15
1.81244e-15
1.82653e-15
1.8407e-15
1.85465e-15
1.86813e-15
1.88087e-15
1.89259e-15
1.89591e-15
1e-15
1e-15
1e-15
1e-15
1e-15
1e-15
2.54373e-15
2.56591e-15
2.57737e-15
2.59045e-15
2.6049e-15
2.62046e-15
2.63792e-15
2.65581e-15
2.6738e-15
2.6915e-15
2.70855e-15
2.7245e-15
2.73886e-15
2.73691e-15
1e-15
1e-15
1e-15
1e-15
1e-15
1e-15
1.00142e-15
1.00144e-15
1.00145e-15
1.00146e-15
1.00147e-15
1.00148e-15
1.0015e-15
1.00152e-15
1.00153e-15
1.00155e-15
1.00156e-15
1.00158e-15
1.00159e-15
1.00159e-15
1e-15
1e-15
1e-15
1e-15
1e-15
1e-15
1e-15
1e-15
1e-15
1e-15
1e-15
1e-15
1e-15
1e-15
1e-15
1e-15
1e-15
1e-15
1e-15
1e-15
1e-15
1e-15
1e-15
1e-15
1e-15
1e-15
1e-15
1e-15
1e-15
1e-15
1e-15
1e-15
1e-15
1e-15
1e-15
1e-15
1e-15
1e-15
1e-15
1e-15
1e-15
1e-15
1e-15
1e-15
1e-15
1e-15
1e-15
1e-15
1e-15
1e-15
1e-15
1e-15
1e-15
1e-15
1e-15
1e-15
1e-15
1e-15
1e-15
1e-15
1e-15
1e-15
1e-15
1e-15
1e-15
1e-15
1.43618e-15
1.43796e-15
1.43747e-15
1.43691e-15
1.43629e-15
1.43564e-15
1.43496e-15
1.43427e-15
1.43359e-15
1.43292e-15
1.43232e-15
1.43175e-15
1.43133e-15
1.4289e-15
1e-15
1e-15
1e-15
1e-15
1e-15
1e-15
1.00639e-15
1.00642e-15
1.00642e-15
1.00642e-15
1.00642e-15
1.00642e-15
1.00641e-15
1.00641e-15
1.00641e-15
1.0064e-15
1.0064e-15
1.0064e-15
1.00639e-15
1.00636e-15
1e-15
1e-15
1e-15
1e-15
1e-15
1.00179e-15
4.11452e-11
4.14142e-11
4.14142e-11
4.14142e-11
4.14142e-11
4.14142e-11
4.14143e-11
4.14145e-11
4.14148e-11
4.14154e-11
4.14161e-11
4.1417e-11
4.14181e-11
4.11502e-11
1.00141e-15
1e-15
1e-15
1e-15
1.00043e-15
1.00228e-15
4.74139e-11
4.76405e-11
4.76402e-11
4.76398e-11
4.76394e-11
4.7639e-11
4.76387e-11
4.76385e-11
4.76385e-11
4.76386e-11
4.76388e-11
4.76392e-11
4.76396e-11
4.7413e-11
1.00198e-15
1.00043e-15
1e-15
1.00973e-15
2.55766e-15
1.15855e-14
7.14554e-13
7.14544e-13
7.14425e-13
7.14285e-13
7.14127e-13
7.13954e-13
7.13768e-13
7.13573e-13
7.13373e-13
7.1317e-13
7.12969e-13
7.1277e-13
7.12577e-13
7.12313e-13
1.15498e-14
2.55373e-15
1.00971e-15
5.10675e-13
1.37006e-08
4.26347e-13
4.42542e-13
4.42539e-13
4.42534e-13
4.42529e-13
4.42522e-13
4.42515e-13
4.42507e-13
4.42498e-13
4.42489e-13
4.42479e-13
4.42468e-13
4.42457e-13
4.42445e-13
4.42433e-13
4.26858e-13
1.36674e-08
5.11562e-13
4.57414e-07
4.43259e-07
5.31285e-07
5.31741e-07
5.31714e-07
5.31677e-07
5.31634e-07
5.31586e-07
5.31533e-07
5.31477e-07
5.31418e-07
5.31358e-07
5.31297e-07
5.31237e-07
5.31177e-07
5.3112e-07
5.31066e-07
5.30541e-07
4.42566e-07
4.56461e-07
6.38632e-08
7.60143e-08
9.40605e-08
9.41545e-08
9.41525e-08
9.41495e-08
9.4146e-08
9.41423e-08
9.41382e-08
9.41341e-08
9.41299e-08
9.41257e-08
9.41216e-08
9.41176e-08
9.41137e-08
9.411e-08
9.41059e-08
9.4007e-08
7.59689e-08
6.38154e-08
7.05405e-13
7.35405e-09
8.81069e-13
8.87883e-13
8.87907e-13
8.87926e-13
8.87947e-13
8.87968e-13
8.8799e-13
8.8801e-13
8.88031e-13
8.88049e-13
8.88071e-13
8.88097e-13
8.88137e-13
8.88199e-13
8.88301e-13
8.81641e-13
7.34889e-09
7.06561e-13
1.01594e-15
8.6789e-14
3.26876e-15
4.40667e-14
4.40653e-14
4.40632e-14
4.40609e-14
4.40584e-14
4.40556e-14
4.40527e-14
4.40498e-14
4.40469e-14
4.4044e-14
4.40412e-14
4.40385e-14
4.40361e-14
4.40337e-14
3.26515e-15
8.67173e-14
1.01606e-15
1e-15
1.00091e-15
1.00123e-15
2.45827e-11
2.4795e-11
2.47955e-11
2.47961e-11
2.47968e-11
2.47975e-11
2.47983e-11
2.47992e-11
2.48e-11
2.48009e-11
2.48018e-11
2.48028e-11
2.48039e-11
2.45932e-11
1.00158e-15
1.00091e-15
1e-15
1e-15
1e-15
1.00117e-15
2.87092e-11
2.90044e-11
2.90054e-11
2.90066e-11
2.9008e-11
2.90094e-11
2.90109e-11
2.90124e-11
2.9014e-11
2.90155e-11
2.90172e-11
2.9019e-11
2.90209e-11
2.87285e-11
1.00145e-15
1e-15
1e-15
1e-15
1e-15
1e-15
1.6265e-13
1.6424e-13
1.64274e-13
1.64313e-13
1.64356e-13
1.64402e-13
1.64449e-13
1.64497e-13
1.64547e-13
1.64596e-13
1.64648e-13
1.64702e-13
1.64761e-13
1.63256e-13
1e-15
1e-15
1e-15
1e-15
1e-15
1.00001e-15
4.47478e-13
4.52843e-13
4.52952e-13
4.53074e-13
4.53209e-13
4.53351e-13
4.53498e-13
4.53647e-13
4.538e-13
4.53952e-13
4.54101e-13
4.54246e-13
4.54388e-13
4.49231e-13
1.00001e-15
1e-15
1e-15
1e-15
1e-15
1e-15
2.15929e-15
2.17765e-15
2.18922e-15
2.20241e-15
2.21692e-15
2.23238e-15
2.24845e-15
2.2648e-15
2.28108e-15
2.29694e-15
2.31211e-15
2.3263e-15
2.33925e-15
2.3407e-15
1e-15
1e-15
1e-15
1e-15
1e-15
1e-15
2.69261e-15
2.71467e-15
2.72594e-15
2.7387e-15
2.75267e-15
2.7675e-15
2.78288e-15
2.79846e-15
2.8139e-15
2.82883e-15
2.84288e-15
2.85563e-15
2.86664e-15
2.86172e-15
1e-15
1e-15
1e-15
1e-15
1e-15
1e-15
1.00192e-15
1.00194e-15
1.00196e-15
1.00197e-15
1.00199e-15
1.002e-15
1.00202e-15
1.00204e-15
1.00205e-15
1.00207e-15
1.00208e-15
1.0021e-15
1.00211e-15
1.0021e-15
1e-15
1e-15
1e-15
1e-15
1e-15
1e-15
1e-15
1e-15
1e-15
1e-15
1e-15
1e-15
1e-15
1e-15
1e-15
1e-15
1e-15
1e-15
1e-15
1e-15
1e-15
1e-15
1e-15
1e-15
1e-15
1e-15
1e-15
1e-15
1e-15
1e-15
1e-15
1e-15
1e-15
1e-15
1e-15
1e-15
1e-15
1e-15
1e-15
1e-15
1e-15
1e-15
1e-15
1e-15
1e-15
1e-15
1e-15
1e-15
1e-15
1e-15
1e-15
1e-15
1e-15
1e-15
1e-15
1e-15
1e-15
1e-15
1e-15
1e-15
1e-15
1e-15
1e-15
1e-15
1e-15
1e-15
1.34311e-14
1.35163e-14
1.35118e-14
1.35065e-14
1.35005e-14
1.34939e-14
1.34868e-14
1.34792e-14
1.34715e-14
1.34635e-14
1.34555e-14
1.34476e-14
1.344e-14
1.33448e-14
1e-15
1e-15
1e-15
1e-15
1e-15
1e-15
2.41114e-15
2.41719e-15
2.41695e-15
2.41662e-15
2.4162e-15
2.41569e-15
2.41511e-15
2.41445e-15
2.41372e-15
2.41293e-15
2.4121e-15
2.41125e-15
2.41042e-15
2.40344e-15
1e-15
1e-15
1e-15
1e-15
1e-15
1.00222e-15
5.14684e-11
5.18399e-11
5.18415e-11
5.18431e-11
5.18447e-11
5.18464e-11
5.18481e-11
5.18497e-11
5.18511e-11
5.18525e-11
5.18538e-11
5.18548e-11
5.18556e-11
5.14858e-11
1.00186e-15
1e-15
1e-15
1e-15
1.00039e-15
1.00241e-15
5.20445e-11
5.23424e-11
5.2343e-11
5.23437e-11
5.23444e-11
5.23451e-11
5.23459e-11
5.23467e-11
5.23475e-11
5.23483e-11
5.2349e-11
5.23497e-11
5.23501e-11
5.20529e-11
1.00217e-15
1.00039e-15
1e-15
1.00846e-15
2.43875e-15
1.06275e-14
5.24196e-13
5.24231e-13
5.24171e-13
5.24102e-13
5.24023e-13