/*--------------------------------*- C++ -*----------------------------------*\
| =========                 |                                                 |
| \\      /  F ield         | OpenFOAM: The Open Source CFD Toolbox           |
|  \\    /   O peration     | Version:  2212                                  |
|   \\  /    A nd           | Website:  www.openfoam.com                      |
|    \\/     M anipulation  |                                                 |
\*---------------------------------------------------------------------------*/
FoamFile
{
    version     2.0;
    format      ascii;
    arch        "LSB;label=32;scalar=64";
    class       volVectorField;
    location    "0.0011";
    object      U;
}
// * * * * * * * * * * * * * * * * * * * * * * * * * * * * * * * * * * * * * //

dimensions      [0 1 -1 0 0 0 0];

internalField   nonuniform List<vector> 
2681
(
(-3.49139e-05 4.41543e-05 -6.23936e-17)
(-3.21913e-05 5.64474e-05 0)
(-2.30241e-05 5.40235e-05 -9.32879e-17)
(1.15252e-07 9.88661e-05 -2.76084e-16)
(-1.96089e-05 7.8689e-05 6.45546e-17)
(3.30793e-05 6.12079e-05 1.58736e-16)
(1.17685e-05 2.43684e-05 -6.86649e-17)
(-5.78605e-09 9.95188e-05 8.92834e-18)
(-3.90893e-09 9.95973e-05 1.77024e-17)
(3.97135e-09 9.95997e-05 -4.45632e-18)
(2.97496e-09 9.90712e-05 0)
(1.5578e-09 9.95659e-05 -4.73411e-18)
(2.09504e-09 9.95607e-05 -4.59654e-18)
(-2.209e-06 8.88438e-05 0)
(1.75375e-08 9.96621e-05 -2.10124e-17)
(-6.26585e-08 9.84484e-05 3.44212e-17)
(-4.35692e-07 9.5865e-05 0)
(2.10633e-08 9.95702e-05 -2.20037e-17)
(-2.54809e-10 9.95787e-05 9.75083e-17)
(6.01103e-09 9.95934e-05 -1.12651e-16)
(-1.57922e-09 9.95931e-05 -3.62719e-16)
(2.39785e-09 9.95657e-05 2.6707e-17)
(6.82804e-09 9.95736e-05 -1.06688e-16)
(9.12535e-09 9.95847e-05 7.18723e-17)
(-6.60054e-11 9.95854e-05 -3.98776e-17)
(1.42307e-09 9.95637e-05 0)
(-2.61621e-09 9.9536e-05 -8.35997e-17)
(1.89463e-08 9.95801e-05 7.83212e-18)
(-5.23856e-08 9.95954e-05 3.55857e-17)
(-1.47063e-08 9.9487e-05 4.26726e-17)
(-6.56918e-09 9.95162e-05 -2.0175e-17)
(1.5135e-08 9.94984e-05 4.18331e-17)
(-6.48642e-09 9.94759e-05 -3.65094e-17)
(6.78673e-09 9.95453e-05 1.84943e-17)
(6.41703e-09 9.95267e-05 0)
(1.52133e-09 9.95557e-05 -2.73842e-17)
(7.53028e-09 9.95597e-05 6.91676e-17)
(-4.55901e-09 9.95627e-05 8.2888e-18)
(-1.37265e-09 9.95655e-05 -1.6528e-17)
(4.59248e-09 9.95647e-05 -1.67531e-17)
(3.90602e-08 9.95206e-05 3.08466e-17)
(-7.95973e-09 9.95534e-05 0)
(3.82052e-09 9.9565e-05 -8.74589e-18)
(1.81673e-08 9.95596e-05 0)
(2.74806e-09 9.95413e-05 0)
(5.19292e-06 8.18161e-05 0)
(2.49244e-09 9.95892e-05 4.51503e-18)
(-6.13738e-09 9.95921e-05 -3.51833e-17)
(2.23039e-09 9.91773e-05 0)
(-1.56883e-09 9.95774e-05 -8.94098e-18)
(-4.54368e-09 9.95856e-05 6.89565e-27)
(-1.11111e-09 9.95681e-05 6.58004e-17)
(-2.76009e-07 9.49981e-05 4.91996e-18)
(-1.75729e-08 9.82613e-05 -8.90864e-18)
(-4.07343e-09 9.82703e-05 1.81262e-17)
(1.73335e-09 9.84421e-05 4.59105e-18)
(5.56992e-09 9.84648e-05 -1.38009e-17)
(3.34217e-09 9.95814e-05 -9.30149e-18)
(2.93609e-10 9.95705e-05 0)
(-4.96179e-10 9.84921e-05 1.77438e-17)
(1.95e-09 9.84637e-05 4.44983e-18)
(2.20736e-08 9.86034e-05 0)
(7.37051e-09 9.85848e-05 7.82086e-17)
(4.25416e-08 9.86853e-05 9.28855e-17)
(-2.73533e-08 9.86925e-05 -1.59204e-17)
(1.42429e-08 9.85157e-05 -2.59074e-26)
(1.62266e-08 9.85702e-05 0)
(-9.8677e-09 9.8472e-05 0)
(1.40247e-09 9.84807e-05 1.70974e-17)
(-3.14489e-06 -3.52181e-06 0)
(5.38933e-08 9.84883e-05 3.52835e-17)
(-6.47996e-09 9.8399e-05 8.04248e-18)
(-1.97945e-08 9.83983e-05 -2.89693e-17)
(-4.35923e-08 9.84919e-05 -5.17729e-17)
(-1.39427e-08 9.84339e-05 -1.55121e-17)
(1.19181e-08 9.95901e-05 1.90541e-17)
(1.88115e-05 -1.49576e-05 0)
(-1.10289e-06 8.62454e-05 2.43412e-16)
(-2.81195e-05 6.40417e-05 1.56335e-16)
(-2.01854e-08 9.83857e-05 3.836e-17)
(1.33559e-08 9.86165e-05 -2.13638e-17)
(-4.33104e-08 9.853e-05 5.42997e-17)
(-4.17707e-08 9.81849e-05 0)
(-1.33027e-09 9.82718e-05 3.98046e-17)
(1.15111e-08 9.81913e-05 4.0061e-17)
(-6.43554e-09 9.81487e-05 -3.85569e-18)
(2.29866e-08 9.8359e-05 0)
(2.35754e-08 9.82754e-05 -1.91984e-17)
(5.75112e-09 9.84133e-05 2.76291e-17)
(1.25425e-08 9.83866e-05 0)
(-1.06095e-07 9.82355e-05 0)
(-3.43503e-09 9.83766e-05 3.69576e-17)
(6.93213e-09 9.84075e-05 -3.63458e-17)
(4.15882e-08 9.84379e-05 9.33615e-18)
(9.14514e-09 9.83635e-05 0)
(7.99474e-10 9.85903e-05 0)
(1.34696e-08 9.85411e-05 -9.06038e-18)
(-2.38171e-08 9.85587e-05 0)
(-2.44718e-09 9.85866e-05 0)
(-1.00344e-08 9.8524e-05 1.76301e-17)
(4.24052e-09 9.8268e-05 -2.27425e-18)
(-4.53603e-11 9.95249e-05 2.2707e-18)
(1.94968e-08 9.85226e-05 1.81904e-17)
(6.49288e-08 9.83964e-05 1.47497e-16)
(2.69213e-08 9.95871e-05 0)
(-2.05215e-08 9.95835e-05 -6.68057e-17)
(2.73928e-09 9.86179e-05 0)
(7.69004e-09 9.46942e-05 -4.40436e-18)
(4.82836e-09 9.46186e-05 -2.20143e-17)
(3.45774e-07 9.49889e-05 -2.17069e-16)
(2.9252e-07 9.46793e-05 1.41776e-16)
(1.13232e-07 9.83913e-05 0)
(-1.13261e-07 9.85499e-05 0)
(-3.00992e-09 9.3789e-05 -6.349e-17)
(9.58993e-08 9.83372e-05 1.41738e-16)
(-1.39754e-07 9.44196e-05 1.56583e-16)
(-1.27177e-09 9.41403e-05 -1.80643e-17)
(5.59277e-09 9.82549e-05 3.67157e-17)
(5.27279e-09 9.40321e-05 1.84089e-17)
(4.76871e-07 9.73164e-05 -7.075e-17)
(1.86166e-06 8.90405e-05 4.40105e-17)
(-2.30548e-07 9.45338e-05 -9.70402e-18)
(3.5983e-06 9.54823e-05 -3.28061e-16)
(3.81101e-08 9.86263e-05 3.58747e-17)
(1.53448e-08 9.96107e-05 -3.76791e-17)
(-4.64173e-08 9.95431e-05 0)
(7.71968e-09 9.84292e-05 0)
(-2.21185e-05 5.59252e-05 2.3585e-16)
(6.08023e-10 9.9551e-05 1.5797e-18)
(-3.81644e-06 9.3854e-05 0)
(-3.32988e-06 8.76533e-05 7.41632e-17)
(1.37088e-07 9.5667e-05 1.02084e-16)
(4.9731e-08 9.61427e-05 -3.3178e-17)
(1.6509e-08 9.51603e-05 -8.52677e-18)
(7.63099e-08 9.52625e-05 8.72081e-18)
(6.35737e-08 9.51641e-05 -4.88448e-17)
(-2.56563e-08 9.51935e-05 1.66417e-17)
(5.43707e-08 9.48677e-05 0)
(6.73625e-08 9.50073e-05 3.27623e-17)
(4.02749e-08 9.48642e-05 1.61916e-17)
(1.8857e-08 9.48032e-05 1.86368e-17)
(-6.49273e-08 9.50373e-05 3.04552e-17)
(-5.94361e-08 9.44244e-05 7.95441e-18)
(-1.10092e-07 9.43443e-05 -1.94446e-17)
(-4.84644e-08 9.45765e-05 3.87284e-18)
(-7.47624e-08 9.44754e-05 -8.23787e-26)
(-1.59672e-06 8.5338e-05 3.47379e-17)
(-2.23311e-09 9.9523e-05 9.06495e-18)
(6.34591e-06 9.98232e-05 7.66693e-16)
(-5.25761e-08 9.41984e-05 -8.79995e-18)
(9.53752e-10 9.41876e-05 0)
(5.14078e-08 9.46945e-05 4.37516e-18)
(1.24933e-07 9.39096e-05 3.33014e-17)
(1.60373e-08 9.4627e-05 0)
(-2.7308e-08 9.43836e-05 -1.91157e-17)
(-3.6056e-08 9.45902e-05 -3.59194e-17)
(-4.3599e-08 9.40417e-05 9.82574e-18)
(8.61376e-09 9.41689e-05 -9.6699e-18)
(6.72965e-08 9.40119e-05 -1.93657e-17)
(-8.32445e-08 9.39334e-05 1.84306e-17)
(9.49442e-08 9.43695e-05 0)
(-7.22557e-09 9.41418e-05 -9.49471e-18)
(3.43237e-08 9.46652e-05 0)
(-6.2537e-09 9.45498e-05 -9.15259e-18)
(3.10526e-08 9.49061e-05 -1.776e-17)
(-2.99191e-10 9.47579e-05 0)
(2.3295e-06 8.86362e-05 0)
(3.381e-08 9.51613e-05 3.44739e-17)
(-4.50292e-08 9.42729e-05 -1.83726e-17)
(1.60919e-07 9.39895e-05 3.98606e-17)
(-1.08937e-08 9.44134e-05 -1.8238e-17)
(1.49578e-08 9.44089e-05 3.68071e-17)
(3.43144e-08 9.46426e-05 -9.14891e-18)
(6.80959e-08 9.44695e-05 0)
(-3.62903e-09 9.49401e-05 2.18997e-18)
(2.32335e-08 9.48292e-05 0)
(-4.52069e-08 9.48711e-05 -3.48946e-17)
(7.25259e-09 9.49341e-05 1.96483e-17)
(-2.56302e-08 9.4777e-05 1.75699e-17)
(7.69694e-10 9.9564e-05 1.35135e-17)
(1.89654e-09 9.45199e-05 4.36592e-17)
(-9.30106e-10 9.84338e-05 4.42174e-18)
(8.12181e-10 9.95256e-05 -1.81604e-17)
(1.3522e-05 -2.43423e-05 7.63559e-17)
(6.80498e-07 9.04588e-05 -1.07258e-16)
(4.89216e-06 7.65836e-05 -2.17059e-16)
(-7.03211e-07 8.4832e-05 -2.86742e-17)
(6.13512e-07 9.49771e-05 -7.62782e-17)
(7.13553e-07 9.58286e-05 3.98392e-17)
(2.72321e-08 9.95507e-05 7.67901e-17)
(1.5147e-08 9.87324e-05 -1.07507e-16)
(-3.25901e-08 9.96082e-05 0)
(1.50761e-06 8.21795e-05 6.24149e-17)
(-2.15259e-08 9.86101e-05 -7.05914e-17)
(-6.34767e-08 9.49958e-05 7.08891e-17)
(-1.35335e-08 8.40205e-05 1.79888e-17)
(-9.29531e-08 8.37344e-05 -2.27663e-17)
(2.07729e-07 9.84242e-05 3.79613e-17)
(-1.41904e-07 9.87361e-05 7.88724e-17)
(-5.6324e-10 9.84144e-05 0)
(-1.67103e-07 9.3871e-05 -1.65645e-17)
(7.01476e-07 0.0111896 1.01269e-19)
(-1.08424e-07 0.00404576 -1.34941e-19)
(-1.37995e-06 0.00404937 -1.09683e-18)
(-3.64818e-06 0.0111974 1.0887e-18)
(8.5521e-08 9.43057e-05 -1.73641e-17)
(5.51057e-08 8.45861e-05 -1.72817e-17)
(3.13211e-07 8.40327e-05 0)
(-1.08857e-06 8.59236e-05 1.73279e-16)
(1.4414e-06 8.69223e-05 0)
(1.81251e-05 -2.75009e-05 -8.16337e-17)
(1.02059e-07 9.71343e-05 3.50606e-17)
(-1.94867e-05 7.21608e-05 -3.26924e-16)
(-9.66745e-06 8.15634e-05 2.21094e-16)
(1.27923e-05 8.54115e-05 -8.98224e-17)
(1.04097e-08 9.96358e-05 0)
(-1.88991e-08 9.962e-05 0)
(-2.5743e-05 5.49984e-05 3.67938e-16)
(4.78067e-09 9.95646e-05 -3.58545e-17)
(1.31588e-05 5.05819e-05 1.43519e-16)
(-7.35138e-09 8.8151e-05 -3.32061e-17)
(4.08252e-08 8.87099e-05 3.38295e-17)
(1.50329e-07 8.70276e-05 0)
(7.23973e-08 8.76216e-05 3.34825e-17)
(4.61823e-08 8.61351e-05 8.38445e-18)
(1.10051e-07 8.64037e-05 -1.68945e-17)
(8.93278e-08 8.60087e-05 1.64569e-17)
(1.46329e-09 8.60794e-05 -4.95838e-27)
(1.03827e-07 8.55741e-05 0)
(1.34691e-07 8.58026e-05 -8.17383e-18)
(1.06832e-08 8.5546e-05 0)
(4.96975e-08 8.54437e-05 -2.04919e-18)
(7.02036e-07 8.56736e-05 -3.25909e-17)
(6.73702e-08 8.57209e-05 0)
(9.50277e-07 8.58786e-05 -1.73465e-17)
(-1.82437e-07 8.45111e-05 1.59297e-17)
(-3.30971e-07 8.44699e-05 2.35519e-17)
(-6.869e-08 8.47421e-05 -1.97097e-17)
(-2.24101e-07 8.45951e-05 -1.56665e-17)
(4.60701e-08 8.44319e-05 4.08795e-18)
(8.187e-09 8.47056e-05 9.9694e-18)
(-1.38381e-07 8.42661e-05 -2.11395e-18)
(-1.09815e-07 8.4319e-05 0)
(-5.53218e-08 8.4388e-05 -1.69083e-17)
(-7.15722e-08 8.42933e-05 2.16183e-17)
(-3.21162e-08 8.42153e-05 0)
(-1.78594e-07 0.00136199 3.37242e-20)
(-1.5736e-07 0.000470896 -3.36959e-20)
(-1.01428e-07 0.000196687 -5.21757e-19)
(-2.09279e-08 0.000121457 1.61377e-18)
(-6.01636e-09 0.000103665 -8.05782e-19)
(-2.30163e-10 0.000100459 -1.33964e-19)
(-2.3279e-11 0.000100045 -2.26882e-18)
(-4.16611e-11 0.000100004 -4.12206e-18)
(-2.29636e-10 9.99999e-05 -1.31927e-19)
(-1.38463e-09 9.99976e-05 -2.09297e-18)
(1.32538e-09 9.99976e-05 0)
(-7.682e-09 9.99872e-05 4.13357e-18)
(-3.80302e-08 9.99401e-05 1.42287e-17)
(2.7438e-08 9.99482e-05 2.4269e-17)
(6.52931e-09 9.99882e-05 -8.26817e-18)
(3.49207e-11 0.000100004 4.39487e-18)
(2.34219e-10 9.99999e-05 8.33394e-18)
(-1.01092e-10 0.00010046 8.0431e-19)
(-4.83455e-11 0.000100045 0)
(-9.23247e-10 0.000121503 5.38186e-19)
(2.94916e-10 0.000103673 -5.07194e-27)
(-1.90096e-07 0.000471479 5.73046e-19)
(-4.04454e-08 0.000196865 -1.21153e-18)
(-8.80241e-07 0.00136359 -3.37246e-20)
(1.14307e-07 8.43233e-05 0)
(-1.47453e-07 8.36126e-05 0)
(-3.39263e-08 8.42383e-05 1.86451e-17)
(6.00998e-09 8.43996e-05 0)
(7.33582e-09 8.38858e-05 -9.56309e-18)
(2.84873e-08 8.40017e-05 -9.45594e-18)
(1.29293e-07 8.38754e-05 9.63432e-18)
(-1.03505e-07 8.38118e-05 -8.43295e-18)
(1.40414e-07 8.44237e-05 -1.85071e-17)
(-1.51376e-07 8.40824e-05 -9.37406e-18)
(5.4351e-08 8.51599e-05 0)
(8.46576e-09 8.4864e-05 1.81636e-17)
(1.85014e-08 8.56936e-05 -1.74158e-17)
(-5.20484e-08 8.5399e-05 8.83757e-18)
(-2.58456e-05 6.9851e-05 3.36253e-16)
(5.51829e-08 8.62028e-05 2.35596e-17)
(4.41383e-07 8.71358e-05 3.81502e-18)
(-1.00688e-07 8.5596e-05 0)
(-7.78924e-08 9.56815e-05 -2.75152e-16)
(-1.49521e-06 9.13942e-05 -2.75875e-16)
(6.34118e-07 8.65136e-05 -6.17031e-17)
(9.44329e-09 8.39341e-05 1.89089e-17)
(-1.89238e-07 8.46492e-05 0)
(1.54078e-08 8.42074e-05 -1.84143e-17)
(3.02617e-07 8.39149e-05 -9.47239e-18)
(7.97133e-09 8.45577e-05 -9.06734e-18)
(-1.51604e-08 8.44522e-05 1.81592e-17)
(-4.78401e-09 8.50343e-05 2.67633e-17)
(6.39869e-08 8.47423e-05 0)
(-5.50147e-09 8.54591e-05 1.52963e-17)
(4.56113e-08 8.52834e-05 -8.83569e-18)
(-5.70234e-08 8.5369e-05 -1.7387e-17)
(2.2592e-08 8.54615e-05 -1.90923e-17)
(3.89613e-08 8.50354e-05 4.37019e-18)
(-4.54729e-08 8.5196e-05 8.72358e-18)
(2.86273e-08 8.48799e-05 4.3611e-18)
(5.50003e-09 9.95534e-05 -1.79794e-17)
(2.28976e-08 9.83813e-05 -1.763e-17)
(-4.72282e-09 9.82318e-05 -5.73665e-17)
(2.01027e-09 9.95213e-05 2.04183e-17)
(-2.96678e-07 8.32818e-05 1.84575e-17)
(-4.6585e-08 9.3914e-05 0)
(-1.80712e-05 7.57143e-05 0)
(3.25432e-05 7.17058e-05 -1.61397e-16)
(5.45338e-08 9.95579e-05 -3.74898e-17)
(2.47731e-08 9.88642e-05 1.40169e-16)
(-4.65282e-08 9.88343e-05 -1.41641e-16)
(-3.72956e-08 9.96515e-05 -7.46488e-17)
(-2.11297e-06 8.1372e-05 -1.56758e-17)
(4.93743e-06 7.06659e-05 1.40082e-16)
(-7.04842e-06 0.028521 1.35026e-19)
(-2.00683e-06 0.0285357 0)
(-4.09038e-06 5.98821e-05 -7.23236e-17)
(3.52454e-05 0.000122597 0)
(-6.68521e-09 9.99906e-05 8.39871e-18)
(-3.37982e-08 9.99543e-05 8.32616e-18)
(2.25585e-07 9.87082e-05 -1.5394e-16)
(6.64853e-07 9.73673e-05 9.15364e-17)
(-2.22283e-07 9.69226e-05 2.8206e-16)
(-1.95474e-07 9.86441e-05 8.09299e-17)
(6.50773e-07 9.13286e-05 3.70595e-17)
(7.70415e-07 7.71915e-05 1.22854e-16)
(1.18144e-05 0.0285368 -5.40025e-19)
(-1.66627e-05 0.0644041 -1.68748e-19)
(1.14876e-05 0.064451 1.08004e-18)
(3.05642e-07 9.39141e-05 -1.08489e-18)
(9.07256e-07 8.29179e-05 6.95358e-18)
(1.11101e-07 6.53882e-05 2.38751e-25)
(1.05791e-06 6.43537e-05 0)
(9.69474e-08 9.97917e-05 2.32637e-17)
(-1.6583e-07 9.97454e-05 -1.5761e-17)
(4.98921e-07 8.43233e-05 4.9033e-17)
(-3.189e-07 9.37866e-05 5.37696e-17)
(8.1302e-07 9.57645e-05 0)
(-7.66587e-07 9.53137e-05 8.84807e-17)
(8.01405e-07 8.26645e-05 4.01998e-17)
(1.00363e-07 9.28461e-05 -2.31247e-16)
(1.66464e-05 8.2205e-05 1.66218e-16)
(3.51565e-06 7.251e-05 1.54862e-16)
(1.1181e-05 7.75754e-05 1.38456e-16)
(-9.79676e-06 -2.40422e-06 -1.55949e-16)
(-1.15857e-06 6.33809e-05 -1.37379e-17)
(-1.12094e-06 8.24045e-05 -1.85188e-17)
(-2.88724e-06 6.15153e-05 1.85472e-17)
(1.93357e-08 9.96715e-05 -8.54084e-26)
(-1.88726e-08 9.96826e-05 7.21844e-17)
(-8.96815e-07 8.19482e-05 3.46264e-17)
(-5.16986e-08 9.83761e-05 -1.72096e-17)
(-2.911e-07 9.38345e-05 3.42269e-17)
(3.06124e-08 9.93572e-05 3.52395e-17)
(-1.57041e-09 9.95602e-05 -1.63994e-17)
(1.70412e-07 9.74202e-05 -3.59005e-17)
(1.36e-07 7.01255e-05 -1.64514e-17)
(-1.74405e-06 7.07444e-05 1.54878e-17)
(1.55295e-07 6.92673e-05 0)
(4.4111e-09 6.99339e-05 1.6669e-17)
(7.91003e-08 6.83068e-05 -8.34393e-18)
(1.36402e-07 6.8653e-05 0)
(9.73962e-08 6.79736e-05 8.27294e-18)
(8.01486e-08 6.80769e-05 1.24471e-17)
(1.34287e-07 6.7442e-05 -4.08418e-18)
(1.87927e-07 6.77259e-05 -2.45465e-17)
(4.64444e-08 6.7513e-05 -3.33793e-17)
(1.77707e-07 6.72879e-05 2.8587e-17)
(1.56133e-06 6.82172e-05 3.24418e-17)
(5.0573e-07 6.79222e-05 -3.24924e-17)
(2.19504e-06 6.91186e-05 2.48714e-17)
(-7.51852e-07 9.5733e-05 -8.68149e-17)
(-3.78325e-06 7.18102e-05 -3.29769e-16)
(-2.21322e-06 6.69982e-05 -3.02286e-17)
(-1.83022e-06 6.93078e-05 2.16039e-17)
(-6.05539e-07 6.58304e-05 -3.15803e-17)
(-1.09176e-06 6.61256e-05 3.89123e-17)
(-1.56803e-07 6.61051e-05 0)
(-5.34083e-07 6.59705e-05 1.55282e-17)
(1.05172e-07 6.57629e-05 4.08406e-18)
(-6.11865e-08 6.60764e-05 -2.00639e-18)
(-1.79174e-07 6.58363e-05 8.29487e-18)
(-2.2612e-07 6.57223e-05 0)
(-3.65553e-08 6.58598e-05 -5.41328e-19)
(-2.76295e-07 6.58747e-05 -8.43356e-18)
(-5.73791e-08 6.5045e-05 1.79306e-17)
(-2.60425e-07 6.55498e-05 -2.18797e-17)
(-3.6462e-07 6.44605e-05 1.35719e-17)
(1.97641e-07 0.00404649 0)
(1.64142e-06 0.0111945 -5.73678e-19)
(-6.49172e-08 0.000470722 0)
(-3.63661e-08 0.00136187 0)
(-1.96804e-09 0.000121438 1.68063e-20)
(-1.51681e-08 0.000196614 -1.68339e-20)
(-2.8719e-10 0.000100459 -5.36193e-19)
(-5.3719e-10 0.00010366 1.17557e-19)
(-1.91008e-10 0.000100004 0)
(-7.20279e-12 0.000100045 4.81328e-18)
(-1.19198e-09 9.99986e-05 -8.47402e-18)
(-9.60034e-06 0.0285662 -1.08033e-18)
(-1.85166e-05 0.0644931 -1.08026e-18)
(1.43689e-05 0.0644259 3.03801e-19)
(2.36854e-07 9.92579e-05 8.34697e-17)
(1.50837e-06 9.82782e-05 5.26603e-17)
(4.85453e-05 8.16426e-05 1.38869e-16)
(1.21414e-07 9.98492e-05 -3.69895e-17)
(4.2663e-07 9.94854e-05 -3.20471e-17)
(6.30087e-09 9.99914e-05 -8.42493e-18)
(2.98155e-08 9.99614e-05 0)
(1.88639e-10 0.000100004 -4.26328e-18)
(1.1663e-09 9.99986e-05 -4.24465e-18)
(-6.18183e-10 0.000100461 -1.60815e-18)
(7.50084e-11 0.000100045 -5.35289e-19)
(-1.0563e-08 0.000121531 -8.07424e-19)
(-5.64432e-09 0.000103679 1.61044e-18)
(-1.20895e-07 0.000471973 -6.73916e-20)
(1.55983e-09 0.000196982 6.73087e-19)
(-1.5321e-06 0.00405453 5.56839e-19)
(-7.71398e-08 0.00136532 -5.0589e-19)
(-3.52166e-06 0.0112106 1.07176e-18)
(-2.57964e-07 6.43513e-05 -9.10273e-18)
(-4.34419e-07 6.33283e-05 1.80261e-17)
(-7.54269e-08 6.48372e-05 -4.64434e-18)
(-3.01958e-08 6.48305e-05 -9.14265e-18)
(-1.00166e-07 6.47058e-05 4.70319e-18)
(8.87493e-08 6.47417e-05 -2.34112e-18)
(-9.16203e-08 6.47744e-05 -9.26079e-18)
(-1.07747e-07 6.46995e-05 8.48908e-18)
(1.494e-07 6.56346e-05 -9.19232e-18)
(2.61703e-09 6.5119e-05 0)
(-8.57369e-08 6.68217e-05 0)
(5.32343e-08 6.6319e-05 0)
(-1.1333e-07 6.76578e-05 -1.08384e-17)
(-9.38957e-08 6.72405e-05 2.19672e-18)
(1.21809e-07 6.89506e-05 -1.66782e-17)
(8.71865e-08 6.8326e-05 -1.17031e-24)
(-8.07861e-07 6.79171e-05 -5.14554e-17)
(2.59215e-07 6.90533e-05 2.90127e-17)
(1.66362e-07 8.45854e-05 -1.8754e-17)
(2.85097e-07 6.66412e-05 1.79061e-17)
(1.11183e-07 6.66603e-05 0)
(9.01473e-07 8.46107e-05 1.32769e-16)
(-1.21473e-06 6.68652e-05 -2.43448e-17)
(7.80356e-07 8.18251e-05 8.49305e-17)
(-1.43678e-06 6.35984e-05 9.87074e-18)
(2.12397e-06 6.5526e-05 3.56795e-17)
(2.11165e-06 6.73217e-05 1.22247e-16)
(-9.23061e-07 6.48854e-05 3.69475e-17)
(1.00082e-07 6.73226e-05 -5.01885e-17)
(-1.19921e-06 6.90278e-05 3.79243e-18)
(5.52018e-08 6.51537e-05 4.50644e-17)
(-7.15454e-08 6.60404e-05 3.52298e-17)
(1.33995e-07 6.53035e-05 -9.02553e-18)
(3.19972e-07 6.49752e-05 -2.7312e-17)
(1.5158e-08 6.58124e-05 8.94867e-18)
(2.33905e-08 6.56443e-05 1.80054e-17)
(-2.18725e-08 6.64379e-05 -1.32392e-17)
(1.50558e-08 6.6105e-05 2.22513e-17)
(-1.16467e-08 6.69144e-05 0)
(4.01839e-08 6.67105e-05 -1.31764e-17)
(-4.14552e-08 6.68518e-05 0)
(4.49926e-08 6.6946e-05 -5.44719e-19)
(1.07531e-07 6.63769e-05 -1.08724e-17)
(-2.8681e-08 6.66175e-05 8.69077e-18)
(1.8579e-07 6.6105e-05 4.33634e-18)
(1.26944e-08 9.95298e-05 -5.59708e-19)
(6.99901e-08 9.82702e-05 2.46808e-18)
(-8.22802e-08 9.8163e-05 1.60468e-17)
(-1.37643e-08 9.95069e-05 -1.55239e-17)
(-3.44621e-07 9.36173e-05 0)
(1.62245e-05 7.39876e-05 -3.37242e-16)
(3.16004e-05 4.48972e-05 -3.5778e-16)
(-1.50453e-07 9.98046e-05 -2.47047e-26)
(5.51646e-08 9.96479e-05 7.53845e-17)
(4.49849e-08 9.92191e-05 1.44674e-16)
(-4.53308e-08 9.91604e-05 0)
(-4.80633e-08 9.96461e-05 -2.29613e-16)
(2.24084e-06 5.54597e-05 -1.10456e-17)
(2.0666e-05 7.15983e-05 -8.01989e-16)
(5.07327e-06 7.70387e-05 -7.59214e-17)
(-1.50372e-06 9.02663e-05 -1.44022e-16)
(7.82944e-06 0.0285925 1.07973e-18)
(2.12231e-05 0.0645697 3.37443e-20)
(-2.00473e-06 8.19388e-05 -4.42946e-17)
(3.54282e-05 6.78825e-05 1.84038e-16)
(1.01437e-06 5.78087e-05 2.96034e-16)
(-1.4831e-06 6.00189e-05 -3.11973e-24)
(-4.60027e-06 5.91896e-05 0)
(1.73246e-06 6.17032e-05 2.47654e-17)
(-2.86837e-06 3.52863e-05 -2.27074e-17)
(-5.97878e-06 3.2295e-05 -2.67124e-25)
(-6.19852e-07 9.89998e-05 -1.18853e-16)
(-1.37064e-05 5.7173e-05 1.40133e-16)
(-1.62163e-05 6.23675e-05 1.39353e-16)
(7.53695e-06 7.34627e-05 1.71979e-16)
(1.5598e-05 -2.58804e-06 0)
(-2.12574e-08 9.99671e-05 -1.69291e-17)
(-9.71662e-08 9.9856e-05 4.93383e-27)
(1.57494e-05 5.25077e-05 1.50587e-16)
(2.87704e-05 4.13704e-05 6.43929e-17)
(2.4242e-05 6.13873e-05 1.43223e-16)
(-2.44164e-08 9.78588e-05 -1.60985e-16)
(2.31696e-07 9.8713e-05 0)
(-2.23625e-07 9.87022e-05 0)
(-1.13859e-07 9.77426e-05 0)
(-8.13165e-06 7.53613e-05 4.24582e-16)
(-5.99548e-06 0.0286223 3.37492e-20)
(-1.54366e-05 0.0646149 6.74983e-20)
(-3.80392e-05 6.17469e-05 1.71941e-16)
(2.93965e-05 6.94327e-05 -6.22261e-17)
(2.19563e-05 7.59341e-05 -2.80162e-24)
(8.78601e-06 7.08201e-05 -1.43333e-16)
(9.60939e-07 9.62215e-05 0)
(-1.17144e-08 9.41466e-05 -1.92746e-17)
(2.13481e-07 6.74077e-05 0)
(3.76207e-08 8.52884e-05 0)
(-1.55275e-07 6.56756e-05 3.67174e-17)
(6.2521e-08 8.42324e-05 3.10248e-24)
(-9.26157e-08 9.44966e-05 1.45133e-16)
(-8.40248e-07 9.55135e-05 0)
(-2.67307e-06 9.54391e-05 -3.25925e-16)
(-5.78565e-07 9.92658e-05 -4.86568e-17)
(1.22145e-05 4.8036e-06 5.83889e-16)
(4.62237e-06 8.82325e-05 3.0738e-16)
(2.68383e-05 6.13793e-05 2.06292e-16)
(1.63216e-08 9.97604e-05 -7.36243e-17)
(-1.89343e-08 9.975e-05 0)
(-1.84673e-07 9.82654e-05 1.60017e-26)
(-7.1792e-07 9.37123e-05 -2.61111e-17)
(7.43901e-08 9.93184e-05 -1.7606e-17)
(-2.38922e-08 9.95081e-05 1.35659e-19)
(1.11665e-06 9.12139e-05 0)
(3.42342e-07 9.73698e-05 1.80783e-17)
(5.52417e-06 5.34045e-05 0)
(2.76355e-06 7.7089e-05 -3.91835e-17)
(1.05168e-05 2.30541e-05 0)
(-8.63309e-07 3.78233e-05 -4.35633e-24)
(1.02892e-05 2.74874e-05 -1.04008e-17)
(4.53495e-08 4.29382e-05 0)
(3.91204e-06 4.29352e-05 -7.70424e-17)
(2.02994e-07 4.23929e-05 4.47276e-18)
(3.12443e-07 4.28026e-05 -4.44812e-18)
(1.46772e-07 4.16526e-05 -8.3537e-18)
(1.33368e-07 4.19716e-05 4.1791e-18)
(1.08289e-07 4.12258e-05 0)
(9.07633e-08 4.14821e-05 3.54089e-25)
(1.97734e-07 4.08941e-05 2.46066e-17)
(2.29504e-07 4.11145e-05 4.11855e-18)
(5.71163e-07 4.13431e-05 -5.15951e-19)
(4.03442e-07 4.07979e-05 -1.23286e-17)
(3.22521e-06 4.36284e-05 -3.20272e-17)
(1.72629e-06 4.23223e-05 0)
(5.36743e-06 5.07035e-05 4.44755e-17)
(5.43302e-06 4.63793e-05 2.36244e-17)
(1.40569e-05 5.38824e-05 -1.20113e-16)
(-7.84942e-06 5.01854e-05 5.62491e-17)
(-1.26288e-05 5.39109e-05 -1.15577e-16)
(-3.77584e-06 4.23195e-05 0)
(-6.23827e-06 4.5486e-05 -5.13964e-17)
(-1.43758e-06 3.95227e-05 1.52607e-17)
(-2.34518e-06 4.0506e-05 0)
(-5.44203e-07 3.94492e-05 -7.87921e-18)
(-9.43845e-07 3.93651e-05 0)
(8.55417e-08 3.90691e-05 0)
(-2.6819e-07 3.94864e-05 0)
(-1.55291e-07 3.93546e-05 1.65049e-17)
(-2.87908e-07 3.92636e-05 -1.63541e-17)
(-1.09882e-07 3.936e-05 8.58141e-18)
(-5.31197e-07 3.94741e-05 4.16042e-18)
(-4.75622e-07 3.81476e-05 -8.86561e-18)
(-3.80982e-07 3.89641e-05 -2.17166e-17)
(-1.20103e-06 3.70512e-05 1.79037e-17)
(9.10782e-07 0.00405285 -4.72116e-19)
(3.34267e-06 0.0112146 -1.01201e-18)
(3.4136e-08 0.000471188 5.38879e-19)
(3.37245e-07 0.00136367 6.73983e-19)
(-7.86736e-09 0.000121467 0)
(1.21997e-08 0.000196731 -5.38479e-19)
(4.44707e-10 0.00010046 -1.07358e-18)
(9.6679e-10 0.000103667 -6.71976e-20)
(-7.40042e-10 0.000100003 -4.26736e-18)
(-7.96831e-11 0.000100045 -2.14258e-18)
(-4.11515e-09 9.99937e-05 1.27713e-17)
(8.93749e-06 0.129337 0)
(1.50558e-05 0.129484 1.01177e-18)
(-1.07141e-05 0.129369 -7.41936e-19)
(7.43123e-08 9.22366e-05 -7.87949e-17)
(-6.48695e-06 0.129644 -6.74499e-20)
(-1.05048e-05 0.129442 6.74306e-20)
(1.07215e-05 8.77342e-05 0)
(1.6253e-05 8.06289e-05 9.97808e-17)
(2.65142e-06 9.67007e-05 -3.54492e-17)
(5.68957e-06 9.32556e-05 8.71627e-17)
(3.17589e-07 9.95915e-05 -2.95312e-17)
(1.0023e-06 9.87655e-05 4.23162e-17)
(2.03855e-08 9.99699e-05 4.24485e-18)
(8.82643e-08 9.98791e-05 4.23061e-18)
(7.03384e-10 0.000100003 -4.26981e-18)
(4.06865e-09 9.99939e-05 -8.78707e-30)
(-1.76768e-10 0.000100462 -2.14252e-18)
(-2.35576e-11 0.000100045 8.56168e-18)
(-2.39532e-09 0.000121572 -2.69236e-19)
(3.43432e-09 0.000103688 -2.68778e-19)
(6.50406e-09 0.000472461 -4.71574e-19)
(7.83751e-09 0.000197109 5.38727e-19)
(-5.51688e-07 0.00406126 5.3971e-19)
(-9.69708e-08 0.0013672 2.36088e-19)
(-1.93486e-06 0.0112314 -5.40048e-19)
(-6.20911e-06 2.94462e-05 1.35159e-16)
(-8.73649e-06 2.72848e-05 7.76517e-17)
(-4.3076e-06 2.94202e-05 -2.36753e-16)
(-4.95823e-07 3.21518e-05 -1.03554e-17)
(-1.12292e-06 2.7493e-05 -3.34504e-17)
(-3.94959e-07 3.60365e-05 -4.07356e-18)
(-9.96559e-07 3.49577e-05 1.42235e-17)
(-2.36038e-07 3.7125e-05 2.31904e-18)
(-2.70819e-07 3.68992e-05 -5.76995e-19)
(-2.20155e-07 3.73217e-05 2.45428e-18)
(6.35128e-08 3.72291e-05 9.83901e-26)
(-3.11227e-07 3.75457e-05 -2.29216e-18)
(-2.56337e-08 3.74047e-05 -2.87351e-19)
(-8.32903e-08 3.86553e-05 1.35783e-17)
(3.31835e-08 3.79713e-05 4.56895e-18)
(-2.32601e-07 4.00791e-05 4.41338e-18)
(-1.08006e-08 3.94359e-05 -3.80738e-25)
(-1.90092e-07 4.10757e-05 1.08436e-17)
(-8.00413e-08 4.0569e-05 -1.31644e-17)
(8.35607e-09 4.21455e-05 2.11395e-18)
(1.00581e-07 4.16174e-05 -1.50901e-17)
(-5.42313e-07 4.14165e-05 -5.97821e-17)
(1.19848e-07 4.21939e-05 1.2725e-17)
(1.48115e-07 4.04236e-05 -1.74654e-17)
(-1.02387e-08 4.05453e-05 3.47498e-17)
(-3.77902e-09 6.83531e-05 0)
(-9.98944e-09 4.19654e-05 -1.72907e-17)
(3.27071e-07 4.1117e-05 1.73979e-17)
(3.17108e-07 4.24779e-05 0)
(-1.23673e-07 4.25822e-05 -4.25012e-18)
(-2.57584e-07 6.77781e-05 0)
(-2.69536e-07 4.09254e-05 8.70796e-18)
(1.46682e-07 4.21318e-05 0)
(-4.37681e-07 3.79726e-05 -1.13051e-18)
(-3.32847e-07 3.91398e-05 8.92904e-18)
(-5.80521e-07 3.90066e-05 0)
(8.31421e-07 3.82654e-05 1.10327e-18)
(1.09784e-06 3.99206e-05 2.55028e-17)
(-4.57295e-07 3.89499e-05 -4.32891e-18)
(-2.18503e-07 4.01354e-05 6.91549e-25)
(-3.66944e-07 4.09248e-05 1.65934e-17)
(2.62225e-08 3.83262e-05 -8.80914e-18)
(-2.79603e-08 3.90684e-05 0)
(1.88639e-07 3.83536e-05 8.93633e-18)
(3.32351e-07 3.80622e-05 -1.78786e-17)
(-1.40622e-08 3.89315e-05 4.42234e-18)
(2.10911e-08 3.87085e-05 4.45296e-18)
(-5.58834e-08 3.94649e-05 -2.19277e-17)
(1.16871e-08 3.91795e-05 1.32358e-17)
(-2.15847e-08 3.98654e-05 -8.70805e-18)
(2.51254e-08 3.96948e-05 1.31252e-17)
(1.1702e-08 3.98508e-05 0)
(5.85944e-08 3.99175e-05 0)
(2.60037e-07 3.93414e-05 1.95297e-17)
(4.41705e-08 3.96121e-05 -6.5061e-18)
(5.84211e-07 3.78701e-05 -7.11599e-25)
(5.84616e-07 3.89267e-05 -8.65701e-18)
(7.59031e-07 3.28028e-05 -3.06398e-17)
(3.06293e-06 3.52608e-05 3.36162e-17)
(5.34972e-06 5.89991e-05 2.48958e-17)
(1.33745e-05 2.81895e-05 4.64422e-17)
(6.9266e-07 9.3322e-05 2.18117e-18)
(1.99405e-06 8.14431e-05 -1.22979e-17)
(3.48695e-08 9.94612e-05 -1.11692e-18)
(1.96479e-07 9.80689e-05 1.20734e-17)
(-2.60705e-07 9.78727e-05 -2.28157e-18)
(-5.11893e-08 9.94169e-05 1.80091e-17)
(-2.53105e-06 8.06319e-05 0)
(-9.1579e-07 9.28066e-05 2.29833e-18)
(-9.90735e-06 2.82934e-05 1.68248e-17)
(-5.58023e-06 5.84489e-05 -1.73777e-17)
(3.01333e-05 7.29799e-05 -1.64042e-16)
(-1.96541e-06 9.67277e-05 -1.34569e-16)
(4.31854e-08 9.45458e-05 -3.14469e-17)
(2.70552e-05 3.03871e-05 2.91722e-16)
(-3.80734e-07 9.94541e-05 -1.6773e-17)
(2.56213e-05 7.72608e-05 3.05971e-16)
(1.73435e-05 6.0999e-05 -1.6704e-16)
(3.29617e-05 6.44392e-05 -1.15463e-24)
(2.4394e-05 7.33991e-05 2.22054e-16)
(2.18806e-05 7.01198e-05 -2.32755e-16)
(2.58208e-08 9.94219e-05 7.47271e-17)
(6.02334e-08 9.96566e-05 -7.42726e-17)
(-5.13338e-09 6.90211e-05 -1.70292e-17)
(2.8745e-07 6.90485e-05 4.51478e-25)
(-5.93603e-08 9.96574e-05 3.13206e-16)
(-3.75725e-08 9.93996e-05 0)
(-7.79225e-06 7.6044e-05 -4.62189e-16)
(2.20187e-05 3.7681e-05 -1.20757e-16)
(-2.91609e-05 4.64129e-05 -2.72389e-17)
(1.8509e-06 2.04528e-06 -1.42333e-16)
(-7.72125e-06 8.36831e-05 -5.10711e-16)
(-2.31385e-05 4.19125e-05 8.19882e-18)
(-1.47362e-05 2.85111e-05 5.89193e-17)
(5.9381e-06 0.12969 -1.07933e-18)
(3.08244e-05 7.05388e-05 8.68752e-17)
(2.7498e-05 6.33347e-05 -2.65994e-25)
(-1.193e-05 2.57618e-05 1.91348e-17)
(-1.435e-05 -2.68866e-06 5.13027e-25)
(-1.27231e-05 -2.26775e-06 9.79937e-17)
(-3.60526e-06 7.62324e-05 3.90776e-16)
(1.22108e-05 7.42575e-05 -3.14244e-16)
(3.00005e-07 9.8884e-05 0)
(3.74138e-08 9.81822e-05 7.65263e-17)
(9.03114e-08 8.60834e-05 -2.20464e-18)
(-2.1289e-07 8.61295e-05 0)
(-8.41488e-08 9.83482e-05 8.62658e-25)
(-2.92954e-07 9.8653e-05 -2.52243e-16)
(-3.35132e-06 8.71947e-05 -1.6624e-16)
(9.2241e-06 4.95954e-05 -1.44847e-17)
(1.4024e-05 1.90348e-05 4.83303e-18)
(-1.92745e-06 9.75852e-05 1.58029e-17)
(4.08989e-05 5.51213e-05 8.49474e-17)
(-1.20487e-05 0.000142319 -2.01992e-16)
(3.67788e-05 6.13962e-05 4.95035e-16)
(-2.35829e-07 9.63053e-05 0)
(1.39314e-05 8.0279e-05 1.92726e-16)
(6.29341e-06 8.75453e-05 -4.14509e-16)
(-3.35509e-05 6.82492e-05 -1.26559e-16)
(5.12383e-06 8.69884e-05 -3.18555e-16)
(3.81594e-06 9.55299e-05 2.88816e-24)
(9.35843e-07 9.69102e-05 -4.83387e-16)
(5.56229e-08 9.46157e-05 1.82954e-17)
(-9.79089e-08 9.40973e-05 -7.10611e-17)
(-1.08606e-06 9.62764e-05 -9.74558e-17)
(-1.32309e-05 2.3995e-05 2.32707e-18)
(-1.42208e-05 -7.86406e-07 -8.69354e-18)
(-1.60051e-05 -3.41626e-06 6.97752e-18)
(-0.000118948 0.222996 0)
(-1.48436e-05 0.129909 1.07942e-18)
(-9.13106e-05 0.223341 0)
(-1.28806e-06 9.82149e-05 6.64522e-17)
(7.78205e-06 5.6145e-05 8.55936e-18)
(2.00891e-06 9.65134e-05 -7.35981e-25)
(-9.94303e-07 9.83561e-05 -1.49288e-16)
(2.15731e-05 6.66407e-05 -1.08589e-16)
(8.36106e-09 9.95294e-05 -3.49958e-17)
(4.21266e-08 9.84805e-05 2.26403e-17)
(1.85152e-08 9.98087e-05 7.35823e-17)
(-5.24225e-08 6.92509e-05 2.12624e-17)
(-2.06134e-08 9.98053e-05 -1.50094e-16)
(-1.05051e-05 7.91799e-05 4.21415e-24)
(-4.05229e-06 7.98129e-05 3.59714e-17)
(-8.23292e-06 5.66148e-05 -1.84922e-17)
(-4.60671e-07 9.77896e-05 1.52926e-17)
(-1.55613e-06 9.25228e-05 0)
(1.57693e-07 9.91129e-05 -4.068e-26)
(-7.47236e-08 9.93234e-05 -6.55662e-18)
(2.08914e-06 8.99675e-05 0)
(6.85884e-07 9.68426e-05 -8.97247e-18)
(4.95019e-06 7.47625e-05 -9.48572e-18)
(1.51611e-05 -4.51816e-06 9.69345e-18)
(4.50965e-06 6.68683e-06 7.24357e-17)
(1.17011e-05 1.05524e-06 0)
(1.38378e-06 1.38853e-05 -2.55101e-25)
(3.76466e-06 1.17552e-05 -8.49759e-18)
(3.93891e-07 1.39168e-05 -2.6463e-19)
(7.62436e-07 1.40233e-05 4.36363e-18)
(1.92277e-07 1.36801e-05 2.09379e-18)
(3.02599e-07 1.38283e-05 4.34035e-18)
(2.09802e-07 1.34706e-05 2.07499e-18)
(1.61977e-07 1.35633e-05 -1.45462e-17)
(4.10914e-07 1.33889e-05 -2.46675e-17)
(1.39263e-07 1.33776e-05 1.24451e-17)
(1.57161e-06 1.46967e-05 6.73928e-17)
(9.8572e-07 1.35699e-05 -3.29597e-17)
(5.86739e-06 1.90744e-05 0)
(3.46736e-06 1.63581e-05 -3.25158e-17)
(1.19989e-05 2.79541e-05 4.62102e-17)
(8.48443e-06 2.31231e-05 0)
(1.37706e-05 3.32212e-05 1.14509e-16)
(3.24883e-06 8.51063e-05 -1.79726e-16)
(-2.02032e-05 3.53431e-05 1.5573e-26)
(-6.86248e-06 1.80917e-05 0)
(-1.05071e-05 2.28794e-05 0)