/*--------------------------------*- C++ -*----------------------------------*\
| =========                 |                                                 |
| \\      /  F ield         | OpenFOAM: The Open Source CFD Toolbox           |
|  \\    /   O peration     | Version:  2212                                  |
|   \\  /    A nd           | Website:  www.openfoam.com                      |
|    \\/     M anipulation  |                                                 |
\*---------------------------------------------------------------------------*/
FoamFile
{
    version     2.0;
    format      ascii;
    arch        "LSB;label=32;scalar=64";
    class       volScalarField;
    location    "0.4234";
    object      s;
}
// * * * * * * * * * * * * * * * * * * * * * * * * * * * * * * * * * * * * * //

dimensions      [0 0 0 0 0 0 0];

internalField   nonuniform List<scalar> 
24240
(
9.59531e-72
9.54661e-72
9.61447e-72
9.50403e-72
9.48815e-72
9.63591e-72
9.5914e-72
9.39158e-72
9.46227e-72
9.71159e-72
9.52643e-72
9.68724e-72
9.57973e-72
9.70581e-72
9.47168e-72
9.75381e-72
9.45317e-72
9.55911e-72
9.51363e-72
9.28278e-72
3.2458e-69
3.2307e-69
3.25325e-69
3.21644e-69
3.21027e-69
3.26063e-69
3.24546e-69
3.17825e-69
3.20213e-69
3.28622e-69
3.22382e-69
3.27753e-69
3.24233e-69
3.28421e-69
3.20556e-69
3.30024e-69
3.19971e-69
3.23519e-69
3.21943e-69
3.14098e-69
5.50725e-67
5.48393e-67
5.52149e-67
5.45993e-67
5.44813e-67
5.53419e-67
5.50829e-67
5.39489e-67
5.4354e-67
5.57758e-67
5.47214e-67
5.56209e-67
5.50437e-67
5.57409e-67
5.4416e-67
5.60089e-67
5.43237e-67
5.49193e-67
5.46459e-67
5.33097e-67
5.47938e-65
5.45845e-65
5.49511e-65
5.43472e-65
5.42165e-65
5.50785e-65
5.48192e-65
5.36974e-65
5.41004e-65
5.55094e-65
5.44648e-65
5.53473e-65
5.4793e-65
5.54728e-65
5.41644e-65
5.57348e-65
5.40797e-65
5.46652e-65
5.43876e-65
5.30538e-65
3.84901e-63
3.83589e-63
3.86112e-63
3.81928e-63
3.80919e-63
3.87012e-63
3.85182e-63
3.77351e-63
3.80187e-63
3.90036e-63
3.82736e-63
3.88843e-63
3.85095e-63
3.89769e-63
3.8065e-63
3.91572e-63
3.8011e-63
3.84168e-63
3.82185e-63
3.72797e-63
1.87541e-61
1.86975e-61
1.88177e-61
1.86166e-61
1.8563e-61
1.88616e-61
1.87721e-61
1.8393e-61
1.85316e-61
1.90085e-61
1.8655e-61
1.89476e-61
1.87722e-61
1.89947e-61
1.85541e-61
1.90803e-61
1.85305e-61
1.87251e-61
1.86272e-61
1.81697e-61
6.35036e-60
6.3337e-60
6.37339e-60
6.30621e-60
6.28655e-60
6.38816e-60
6.3578e-60
6.23037e-60
6.27767e-60
6.43777e-60
6.31906e-60
6.41624e-60
6.35941e-60
6.4328e-60
6.28501e-60
6.46084e-60
6.27815e-60
6.34274e-60
6.30928e-60
6.1548e-60
1.39935e-58
1.39616e-58
1.40467e-58
1.39004e-58
1.38539e-58
1.40783e-58
1.40117e-58
1.37332e-58
1.38393e-58
1.4187e-58
1.39289e-58
1.41377e-58
1.40183e-58
1.41751e-58
1.38531e-58
1.42338e-58
1.38411e-58
1.39794e-58
1.39058e-58
1.3569e-58
8.93736e-58
8.92166e-58
8.97467e-58
8.88218e-58
8.85058e-58
8.99349e-58
8.95179e-58
8.77598e-58
8.84685e-58
9.06226e-58
8.90194e-58
9.03001e-58
8.95817e-58
9.05379e-58
8.85171e-58
9.0879e-58
8.84694e-58
8.93091e-58
8.88467e-58
8.67367e-58
2.48571e-58
2.48867e-58
2.50846e-58
2.47194e-58
2.46835e-58
2.48638e-58
2.48869e-58
2.4484e-58
2.51057e-58
2.49616e-58
2.50097e-58
2.49933e-58
2.48264e-58
2.48732e-58
2.45274e-58
2.4684e-58
2.47428e-58
2.46371e-58
2.46925e-58
2.47279e-58
4.54063e-58
4.56081e-58
4.60773e-58
4.52564e-58
4.50787e-58
4.51201e-58
4.54154e-58
4.48583e-58
4.60488e-58
4.58935e-58
4.60253e-58
4.56536e-58
4.5642e-58
4.52632e-58
4.49446e-58
4.51643e-58
4.47372e-58
4.49605e-58
4.52e-58
4.50776e-58
4.88511e-58
4.90825e-58
4.94013e-58
4.85076e-58
4.86567e-58
4.81747e-58
4.90169e-58
4.85789e-58
4.88698e-58
4.97882e-58
4.92099e-58
4.84823e-58
4.93673e-58
4.90162e-58
4.88096e-58
4.91305e-58
4.77371e-58
4.86019e-58
4.83326e-58
4.82669e-58
5.86697e-58
5.89308e-58
5.91712e-58
5.92306e-58
5.93758e-58
5.98815e-58
6.02848e-58
5.96286e-58
5.94251e-58
5.87213e-58
5.8742e-58
5.88847e-58
5.94481e-58
5.96395e-58
5.89219e-58
5.92487e-58
5.92677e-58
5.90991e-58
5.85739e-58
5.8861e-58
6.18842e-58
6.14389e-58
6.17104e-58
6.2669e-58
6.23989e-58
6.29906e-58
6.19139e-58
6.31932e-58
6.15036e-58
6.09903e-58
6.09785e-58
6.1574e-58
6.14838e-58
6.08948e-58
6.07247e-58
6.13004e-58
6.05778e-58
6.16038e-58
6.1236e-58
6.19537e-58
6.48823e-58
6.46159e-58
6.55096e-58
6.47627e-58
6.47569e-58
6.5843e-58
6.51928e-58
6.63578e-58
6.49955e-58
6.5956e-58
6.54109e-58
6.56357e-58
6.56599e-58
6.62335e-58
6.55015e-58
6.65646e-58
6.52445e-58
6.45381e-58
6.52371e-58
6.4679e-58
6.34862e-58
6.29487e-58
6.25728e-58
6.27703e-58
6.33144e-58
6.37725e-58
6.35655e-58
6.33744e-58
6.24594e-58
6.2653e-58
6.1969e-58
6.33931e-58
6.36291e-58
6.40348e-58
6.40764e-58
6.36386e-58
6.34554e-58
6.37237e-58
6.31837e-58
6.32703e-58
5.96454e-58
6.06335e-58
5.96918e-58
6.11085e-58
5.94541e-58
6.06186e-58
5.97002e-58
6.06023e-58
5.99747e-58
6.05129e-58
6.00365e-58
6.13794e-58
6.01295e-58
6.15172e-58
6.01844e-58
6.04938e-58
6.08077e-58
5.95302e-58
6.09688e-58
6.09165e-58
5.34268e-58
5.47888e-58
5.45331e-58
5.39123e-58
5.35762e-58
5.51527e-58
5.42296e-58
5.45876e-58
5.42845e-58
5.35498e-58
5.39764e-58
5.4856e-58
5.40159e-58
5.54623e-58
5.4075e-58
5.48273e-58
5.48488e-58
5.44842e-58
5.49625e-58
5.5241e-58
5.26614e-58
5.27071e-58
5.28874e-58
5.32988e-58
5.32666e-58
5.32969e-58
5.23089e-58
5.35693e-58
5.38026e-58
5.27192e-58
5.35265e-58
5.39235e-58
5.23384e-58
5.40578e-58
5.39083e-58
5.46675e-58
5.35561e-58
5.37549e-58
5.3245e-58
5.41555e-58
3.22379e-58
3.25259e-58
3.25325e-58
3.21886e-58
3.24186e-58
3.23596e-58
3.23889e-58
3.24938e-58
3.21371e-58
3.27196e-58
3.20344e-58
3.2734e-58
3.21073e-58
3.30661e-58
3.21972e-58
3.22559e-58
3.22562e-58
3.28601e-58
3.24291e-58
3.30402e-58
2.01591e-70
2.0065e-70
2.02059e-70
1.99775e-70
1.99397e-70
2.0253e-70
2.01588e-70
1.97413e-70
1.98892e-70
2.0413e-70
2.00244e-70
2.03591e-70
2.01393e-70
2.03999e-70
1.99105e-70
2.04996e-70
1.98724e-70
2.00934e-70
1.99952e-70
1.95065e-70
6.72903e-68
6.70058e-68
6.74677e-68
6.67163e-68
6.65738e-68
6.7627e-68
6.73104e-68
6.59245e-68
6.64176e-68
6.81603e-68
6.68683e-68
6.79709e-68
6.72618e-68
6.81154e-68
6.64935e-68
6.84437e-68
6.63749e-68
6.7105e-68
6.67696e-68
6.51299e-68
1.12368e-65
1.11942e-65
1.12699e-65
1.11462e-65
1.11197e-65
1.12968e-65
1.12436e-65
1.10135e-65
1.10958e-65
1.13858e-65
1.11709e-65
1.13526e-65
1.12383e-65
1.13781e-65
1.11092e-65
1.14321e-65
1.10909e-65
1.12115e-65
1.11543e-65
1.08793e-65
1.10482e-63
1.1011e-63
1.1084e-63
1.09641e-63
1.09354e-63
1.11106e-63
1.1058e-63
1.08331e-63
1.0914e-63
1.11979e-63
1.09876e-63
1.11637e-63
1.10554e-63
1.119e-63
1.09277e-63
1.12422e-63
1.09111e-63
1.10282e-63
1.09709e-63
1.06994e-63
7.64131e-62
7.61886e-62
7.6683e-62
7.58646e-62
7.56481e-62
7.68673e-62
7.65019e-62
7.49557e-62
7.55165e-62
7.74708e-62
7.60236e-62
7.72228e-62
7.65033e-62
7.74137e-62
7.56139e-62
7.77672e-62
7.55101e-62
7.6309e-62
7.59068e-62
7.40239e-62
3.67678e-60
3.66748e-60
3.69073e-60
3.65186e-60
3.64059e-60
3.69956e-60
3.68192e-60
3.608e-60
3.63508e-60
3.72852e-60
3.65932e-60
3.71605e-60
3.68284e-60
3.72561e-60
3.63975e-60
3.74219e-60
3.6353e-60
3.67313e-60
3.65355e-60
3.56288e-60
1.22721e-58
1.2246e-58
1.23217e-58
1.21936e-58
1.21531e-58
1.23509e-58
1.22919e-58
1.2047e-58
1.21381e-58
1.24473e-58
1.22182e-58
1.24038e-58
1.22981e-58
1.2437e-58
1.21532e-58
1.24905e-58
1.21405e-58
1.22642e-58
1.21984e-58
1.18964e-58
2.66496e-57
2.66023e-57
2.6762e-57
2.6487e-57
2.63932e-57
2.68235e-57
2.66961e-57
2.61686e-57
2.637e-57
2.70315e-57
2.65408e-57
2.69338e-57
2.67153e-57
2.70075e-57
2.63983e-57
2.71178e-57
2.63765e-57
2.66375e-57
2.6495e-57
2.58458e-57
1.67856e-56
1.67648e-56
1.68628e-56
1.66913e-56
1.66286e-56
1.68988e-56
1.68201e-56
1.64917e-56
1.66244e-56
1.70287e-56
1.6728e-56
1.69656e-56
1.68363e-56
1.70118e-56
1.66349e-56
1.7075e-56
1.66265e-56
1.67828e-56
1.66947e-56
1.6293e-56
4.52068e-57
4.52634e-57
4.56275e-57
4.49612e-57
4.48915e-57
4.52149e-57
4.52575e-57
4.4533e-57
4.56674e-57
4.5402e-57
4.54918e-57
4.54521e-57
4.51594e-57
4.52341e-57
4.46151e-57
4.48848e-57
4.49968e-57
4.48067e-57
4.49109e-57
4.49738e-57
8.36336e-57
8.40004e-57
8.48663e-57
8.33498e-57
8.30306e-57
8.3097e-57
8.36402e-57
8.26268e-57
8.48066e-57
8.45338e-57
8.47657e-57
8.40745e-57
8.4068e-57
8.33731e-57
8.27899e-57
8.31865e-57
8.23932e-57
8.28053e-57
8.32471e-57
8.3009e-57
8.94667e-57
8.98829e-57
9.04708e-57
8.88399e-57
8.91175e-57
8.82505e-57
8.97844e-57
8.89939e-57
8.94903e-57
9.11679e-57
9.01066e-57
8.87829e-57
9.04047e-57
8.9778e-57
8.93976e-57
8.99843e-57
8.7457e-57
8.90072e-57
8.85324e-57
8.84044e-57
1.0779e-56
1.08241e-56
1.08696e-56
1.08824e-56
1.09083e-56
1.10019e-56
1.10712e-56
1.09554e-56
1.09164e-56
1.07865e-56
1.07903e-56
1.08175e-56
1.09198e-56
1.09534e-56
1.08245e-56
1.08828e-56
1.08858e-56
1.08573e-56
1.07607e-56
1.08141e-56
1.13157e-56
1.12332e-56
1.12832e-56
1.14563e-56
1.14079e-56
1.15164e-56
1.13195e-56
1.15536e-56
1.12437e-56
1.11541e-56
1.11502e-56
1.12591e-56
1.12419e-56
1.1135e-56
1.11055e-56
1.12096e-56
1.10774e-56
1.12634e-56
1.11986e-56
1.13265e-56
1.19066e-56
1.18577e-56
1.20202e-56
1.18824e-56
1.18842e-56
1.20819e-56
1.19622e-56
1.21753e-56
1.19279e-56
1.21036e-56
1.20026e-56
1.20436e-56
1.20487e-56
1.21561e-56
1.2021e-56
1.22134e-56
1.19737e-56
1.18436e-56
1.1972e-56
1.18677e-56
1.15959e-56
1.15004e-56
1.14291e-56
1.14669e-56
1.15646e-56
1.16476e-56
1.161e-56
1.15754e-56
1.1411e-56
1.14446e-56
1.132e-56
1.15789e-56
1.16227e-56
1.16947e-56
1.17041e-56
1.16218e-56
1.1591e-56
1.16408e-56
1.15427e-56
1.15583e-56
1.09449e-56
1.1127e-56
1.09544e-56
1.12117e-56
1.09082e-56
1.11206e-56
1.09534e-56
1.11185e-56
1.1005e-56
1.11043e-56
1.10161e-56
1.12628e-56
1.1033e-56
1.12862e-56
1.10441e-56
1.10978e-56
1.11577e-56
1.09237e-56
1.11869e-56
1.11774e-56
9.77495e-57
1.0021e-56
9.97608e-57
9.86178e-57
9.80202e-57
1.00869e-56
9.91879e-57
9.98437e-57
9.93022e-57
9.79538e-57
9.87347e-57
1.0033e-56
9.88102e-57
1.01428e-56
9.89255e-57
1.00288e-56
1.00317e-56
9.96681e-57
1.00517e-56
1.01037e-56
9.70659e-57
9.71443e-57
9.74914e-57
9.8235e-57
9.8169e-57
9.8218e-57
9.64083e-57
9.8744e-57
9.91495e-57
9.71727e-57
9.86533e-57
9.93846e-57
9.64749e-57
9.96221e-57
9.93626e-57
1.00738e-56
9.87171e-57
9.9057e-57
9.81242e-57
9.97871e-57
5.90907e-57
5.96217e-57
5.96397e-57
5.90027e-57
5.94164e-57
5.93123e-57
5.9364e-57
5.9561e-57
5.88926e-57
5.99666e-57
5.8712e-57
5.99882e-57
5.8853e-57
6.05992e-57
5.90125e-57
5.91186e-57
5.91179e-57
6.02207e-57
5.94381e-57
6.05484e-57
4.05119e-69
4.03408e-69
4.06205e-69
4.01689e-69
4.0084e-69
4.07194e-69
4.05288e-69
3.96946e-69
3.99905e-69
4.10427e-69
4.02629e-69
4.09286e-69
4.04998e-69
4.10144e-69
4.00362e-69
4.12121e-69
3.99613e-69
4.0402e-69
4.01989e-69
3.92084e-69
1.33096e-66
1.32595e-66
1.33497e-66
1.32035e-66
1.31723e-66
1.33825e-66
1.33194e-66
1.30469e-66
1.3144e-66
1.34885e-66
1.32333e-66
1.34491e-66
1.33132e-66
1.3479e-66
1.316e-66
1.35431e-66
1.31371e-66
1.32803e-66
1.32122e-66
1.28849e-66
2.18617e-64
2.17892e-64
2.19346e-64
2.16978e-64
2.16414e-64
2.19888e-64
2.18847e-64
2.14396e-64
2.15991e-64
2.2163e-64
2.17456e-64
2.20952e-64
2.18801e-64
2.21469e-64
2.16268e-64
2.22506e-64
2.15922e-64
2.18248e-64
2.17107e-64
2.11703e-64
2.12153e-62
2.11545e-62
2.12928e-62
2.1066e-62
2.10063e-62
2.13455e-62
2.12439e-62
2.08144e-62
2.09692e-62
2.15142e-62
2.11109e-62
2.14452e-62
2.12444e-62
2.14978e-62
2.09971e-62
2.15966e-62
2.09662e-62
2.11891e-62
2.10766e-62
2.05496e-62
1.44328e-60
1.43979e-60
1.449e-60
1.43377e-60
1.42937e-60
1.45258e-60
1.44564e-60
1.4166e-60
1.42716e-60
1.46404e-60
1.43675e-60
1.45914e-60
1.44604e-60
1.46288e-60
1.4291e-60
1.46947e-60
1.42721e-60
1.44216e-60
1.43441e-60
1.39843e-60
6.84844e-59
6.83476e-59
6.87746e-59
6.80612e-59
6.78364e-59
6.89434e-59
6.86131e-59
6.7244e-59
6.77466e-59
6.94856e-59
6.81989e-59
6.92427e-59
6.86481e-59
6.94276e-59
6.78388e-59
6.9732e-59
6.77593e-59
6.84571e-59
6.80854e-59
6.63757e-59
2.25074e-57
2.2472e-57
2.26086e-57
2.23772e-57
2.2298e-57
2.26634e-57
2.25548e-57
2.21082e-57
2.22746e-57
2.28411e-57
2.24218e-57
2.27579e-57
2.2572e-57
2.2821e-57
2.23041e-57
2.29177e-57
2.22818e-57
2.25065e-57
2.23836e-57
2.18225e-57
4.80943e-56
4.80357e-56
4.83193e-56
4.783e-56
4.76504e-56
4.84325e-56
4.82015e-56
4.7255e-56
4.76172e-56
4.88099e-56
4.7926e-56
4.86259e-56
4.82489e-56
4.87638e-56
4.76722e-56
4.89598e-56
4.76352e-56
4.81014e-56
4.78402e-56
4.66525e-56
2.98444e-55
2.98243e-55
2.99958e-55
2.96949e-55
2.95771e-55
3.00608e-55
2.99203e-55
2.93398e-55
2.95748e-55
3.02932e-55
2.97595e-55
3.01761e-55
2.99571e-55
3.02614e-55
2.95961e-55
3.03719e-55
2.95824e-55
2.98573e-55
2.96987e-55
2.89737e-55
7.76934e-56
7.77952e-56
7.84286e-56
7.72791e-56
7.71517e-56
7.7699e-56
7.77735e-56
7.65433e-56
7.84988e-56
7.8038e-56
7.81958e-56
7.81101e-56
7.76271e-56
7.77364e-56
7.66905e-56
7.71277e-56
7.73271e-56
7.7005e-56
7.71905e-56
7.72944e-56
1.45629e-55
1.46259e-55
1.47769e-55
1.4512e-55
1.44579e-55
1.44678e-55
1.45622e-55
1.4388e-55
1.47652e-55
1.47201e-55
1.47585e-55
1.4637e-55
1.46385e-55
1.45181e-55
1.44172e-55
1.44847e-55
1.43456e-55
1.44173e-55
1.44945e-55
1.44506e-55
1.54921e-55
1.55628e-55
1.56655e-55
1.53842e-55
1.5433e-55
1.52859e-55
1.55498e-55
1.5415e-55
1.54946e-55
1.57839e-55
1.55999e-55
1.53724e-55
1.56532e-55
1.55477e-55
1.54814e-55
1.55827e-55
1.515e-55
1.54121e-55
1.53333e-55
1.53098e-55
1.87286e-55
1.8802e-55
1.88834e-55
1.89088e-55
1.89526e-55
1.91159e-55
1.92282e-55
1.90354e-55
1.89648e-55
1.87385e-55
1.8745e-55
1.87936e-55
1.89695e-55
1.90248e-55
1.88063e-55
1.89046e-55
1.89084e-55
1.88636e-55
1.86956e-55
1.87893e-55
1.95779e-55
1.94335e-55
1.95204e-55
1.98159e-55
1.97342e-55
1.99224e-55
1.95816e-55
1.99869e-55
1.94493e-55
1.93012e-55
1.92915e-55
1.948e-55
1.94492e-55
1.92657e-55
1.92173e-55
1.93953e-55
1.91668e-55
1.94857e-55
1.93781e-55
1.95932e-55
2.06786e-55
2.05935e-55
2.08729e-55
2.06324e-55
2.06411e-55
2.09812e-55
2.07727e-55
2.11415e-55
2.07166e-55
2.10206e-55
2.08434e-55
2.0914e-55
2.09244e-55
2.11141e-55
2.08785e-55
2.12078e-55
2.07961e-55
2.05695e-55
2.07925e-55
2.06083e-55
2.00573e-55
1.98976e-55
1.97697e-55
1.9838e-55
2.00034e-55
2.01464e-55
2.00813e-55
2.00226e-55
1.97432e-55
1.97979e-55
1.95832e-55
2.00283e-55
2.01055e-55
2.02264e-55
2.02454e-55
2.00994e-55
2.00508e-55
2.01373e-55
1.99695e-55
1.99961e-55
1.90243e-55
1.93414e-55
1.9042e-55
1.94841e-55
1.89576e-55
1.93239e-55
1.90361e-55
1.93217e-55
1.91277e-55
1.93011e-55
1.91462e-55
1.95755e-55
1.91756e-55
1.96131e-55
1.91972e-55
1.92843e-55
1.93928e-55
1.89874e-55
1.94428e-55
1.94265e-55
1.69514e-55
1.73725e-55
1.72978e-55
1.70988e-55
1.69979e-55
1.74853e-55
1.71953e-55
1.73091e-55
1.72175e-55
1.69833e-55
1.71187e-55
1.73927e-55
1.71323e-55
1.75811e-55
1.71536e-55
1.73872e-55
1.73904e-55
1.7281e-55
1.74238e-55
1.75156e-55
1.6965e-55
1.69779e-55
1.70412e-55
1.71682e-55
1.71554e-55
1.7163e-55
1.68489e-55
1.72591e-55
1.73254e-55
1.69837e-55
1.7241e-55
1.73688e-55
1.68628e-55
1.74086e-55
1.7366e-55
1.76018e-55
1.72541e-55
1.73085e-55
1.7147e-55
1.74346e-55
1.02766e-55
1.03693e-55
1.03736e-55
1.02618e-55
1.03323e-55
1.03147e-55
1.03233e-55
1.03586e-55
1.02399e-55
1.04275e-55
1.02099e-55
1.04305e-55
1.02355e-55
1.05371e-55
1.02626e-55
1.02809e-55
1.02802e-55
1.04712e-55
1.03364e-55
1.05277e-55
8.14513e-68
8.11449e-68
8.17004e-68
8.08073e-68
8.06184e-68
8.19073e-68
8.15217e-68
7.98539e-68
8.04466e-68
8.25609e-68
8.09957e-68
8.23196e-68
8.14842e-68
8.24998e-68
8.05441e-68
8.28921e-68
8.03971e-68
8.12757e-68
8.08566e-68
7.88463e-68
2.6335e-65
2.62486e-65
2.64248e-65
2.61401e-65
2.60726e-65
2.64921e-65
2.63666e-65
2.58303e-65
2.60218e-65
2.67031e-65
2.6199e-65
2.66212e-65
2.6361e-65
2.66828e-65
2.60553e-65
2.68079e-65
2.60112e-65
2.62921e-65
2.6154e-65
2.54998e-65
4.2542e-63
4.24225e-63
4.27018e-63
4.22481e-63
4.2129e-63
4.28108e-63
4.2607e-63
4.17457e-63
4.20549e-63
4.31515e-63
4.23406e-63
4.30131e-63
4.26089e-63
4.31178e-63
4.2112e-63
4.33169e-63
4.20465e-63
4.24951e-63
4.2268e-63
4.12048e-63
4.07086e-61
4.06133e-61
4.08752e-61
4.04467e-61
4.03232e-61
4.09793e-61
4.07834e-61
3.99639e-61
4.02599e-61
4.13046e-61
4.05322e-61
4.11661e-61
4.07949e-61
4.1271e-61
4.03163e-61
4.14581e-61
4.0259e-61
4.06827e-61
4.04622e-61
3.94392e-61
2.72326e-59
2.71815e-59
2.73529e-59
2.70699e-59
2.69809e-59
2.74223e-59
2.72907e-59
2.67459e-59
2.69443e-59
2.76396e-59
2.71257e-59
2.75428e-59
2.73053e-59
2.76162e-59
2.69831e-59
2.77388e-59
2.69487e-59
2.72281e-59
2.70788e-59
2.63915e-59
1.27315e-57
1.27132e-57
1.27914e-57
1.26608e-57
1.26162e-57
1.28236e-57
1.27619e-57
1.25088e-57
1.26019e-57
1.29249e-57
1.26861e-57
1.28777e-57
1.27717e-57
1.29134e-57
1.262e-57
1.29692e-57
1.26059e-57
1.27343e-57
1.26639e-57
1.23419e-57
4.11904e-56
4.11492e-56
4.13955e-56
4.09778e-56
4.08243e-56
4.14977e-56
4.12981e-56
4.04853e-56
4.07891e-56
4.18247e-56
4.10589e-56
4.16659e-56
4.13404e-56
4.17854e-56
4.08461e-56
4.19597e-56
4.08075e-56
4.12143e-56
4.09858e-56
3.99446e-56
8.65534e-55
8.64985e-55
8.70005e-55
8.61318e-55
8.57906e-55
8.72076e-55
8.67903e-55
8.50965e-55
8.57466e-55
8.78906e-55
8.63031e-55
8.75453e-55
8.68987e-55
8.78025e-55
8.58525e-55
8.81498e-55
8.57899e-55
8.66199e-55
8.61433e-55
8.39744e-55
5.29066e-54
5.29025e-54
5.32011e-54
5.26745e-54
5.24549e-54
5.33179e-54
5.30679e-54
5.20446e-54
5.24601e-54
5.37324e-54
5.27881e-54
5.3516e-54
5.31475e-54
5.36728e-54
5.25025e-54
5.38655e-54
5.24801e-54
5.29623e-54
5.26776e-54
5.13719e-54
1.3301e-54
1.33191e-54
1.34289e-54
1.32313e-54
1.32083e-54
1.33003e-54
1.33134e-54
1.31054e-54
1.34412e-54
1.33615e-54
1.33891e-54
1.33713e-54
1.32922e-54
1.33076e-54
1.31317e-54
1.32019e-54
1.32372e-54
1.31828e-54
1.32158e-54
1.32329e-54
2.52755e-54
2.53833e-54
2.5646e-54
2.51848e-54
2.50936e-54
2.51076e-54
2.52713e-54
2.49729e-54
2.56235e-54
2.55492e-54
2.56125e-54
2.53995e-54
2.54069e-54
2.51988e-54
2.50248e-54
2.51395e-54
2.48964e-54
2.50204e-54
2.5155e-54
2.50746e-54
2.67464e-54
2.6866e-54
2.70447e-54
2.65612e-54
2.66466e-54
2.63981e-54
2.68505e-54
2.66213e-54
2.67479e-54
2.72451e-54
2.69273e-54
2.65374e-54
2.70221e-54
2.6845e-54
2.67302e-54
2.69046e-54
2.61661e-54
2.66074e-54
2.64775e-54
2.64344e-54
3.24492e-54
3.25676e-54
3.27127e-54
3.2762e-54
3.28358e-54
3.31201e-54
3.33004e-54
3.29809e-54
3.28537e-54
3.24608e-54
3.24718e-54
3.25583e-54
3.28601e-54
3.29502e-54
3.25815e-54
3.27461e-54
3.27503e-54
3.2681e-54
3.23897e-54
3.25536e-54
3.38016e-54
3.35493e-54
3.37003e-54
3.42034e-54
3.40659e-54
3.43917e-54
3.38028e-54
3.45032e-54
3.35724e-54
3.33288e-54
3.3307e-54
3.36328e-54
3.35773e-54
3.32632e-54
3.31844e-54
3.34878e-54
3.30937e-54
3.36393e-54
3.34616e-54
3.38221e-54
3.58409e-54
3.56936e-54
3.61727e-54
3.57538e-54
3.57785e-54
3.63621e-54
3.60005e-54
3.66363e-54
3.5909e-54
3.6434e-54
3.61236e-54
3.62446e-54
3.62659e-54
3.66001e-54
3.619e-54
3.67521e-54
3.60468e-54
3.56526e-54
3.60391e-54
3.57146e-54
3.46588e-54
3.43925e-54
3.41637e-54
3.42868e-54
3.4566e-54
3.48121e-54
3.46997e-54
3.46003e-54
3.41262e-54
3.4215e-54
3.38453e-54
3.461e-54
3.47457e-54
3.49477e-54
3.49855e-54
3.4727e-54
3.46512e-54
3.4801e-54
3.45147e-54
3.45598e-54
3.30383e-54
3.35902e-54
3.30713e-54
3.38299e-54
3.29176e-54
3.35484e-54
3.30534e-54
3.35474e-54
3.3216e-54
3.35184e-54
3.32467e-54
3.39931e-54
3.32978e-54
3.40529e-54
3.33392e-54
3.34799e-54
3.36758e-54
3.29743e-54
3.37611e-54
3.37333e-54
2.94014e-54
3.01215e-54
2.99976e-54
2.96515e-54
2.94814e-54
3.03147e-54
2.9815e-54
3.00119e-54
2.98574e-54
2.94503e-54
2.96854e-54
3.01558e-54
2.97097e-54
3.04789e-54
2.97491e-54
3.01493e-54
3.01517e-54
2.99677e-54
3.02071e-54
3.03692e-54
2.96573e-54
2.96786e-54
2.97938e-54
3.00104e-54
2.9986e-54
2.99975e-54
2.94525e-54
3.01728e-54
3.02805e-54
2.96899e-54
3.01373e-54
3.03606e-54
2.94807e-54
3.04274e-54
3.03575e-54
3.07616e-54
3.01636e-54
3.02497e-54
2.99703e-54
3.04676e-54
1.78612e-54
1.80228e-54
1.80324e-54
1.78366e-54
1.79568e-54
1.79268e-54
1.7941e-54
1.80042e-54
1.77939e-54
1.8121e-54
1.77442e-54
1.81251e-54
1.77902e-54
1.83109e-54
1.78366e-54
1.7868e-54
1.78657e-54
1.81962e-54
1.79641e-54
1.82935e-54
1.63627e-66
1.63091e-66
1.64193e-66
1.62428e-66
1.62013e-66
1.64624e-66
1.63845e-66
1.60514e-66
1.617e-66
1.65945e-66
1.62805e-66
1.65435e-66
1.63812e-66
1.65813e-66
1.61907e-66
1.6659e-66
1.61619e-66
1.63368e-66
1.62505e-66
1.58425e-66
5.20953e-64
5.19508e-64
5.2295e-64
5.17407e-64
5.15959e-64
5.24325e-64
5.2183e-64
5.11282e-64
5.15056e-64
5.28523e-64
5.18568e-64
5.26825e-64
5.21854e-64
5.28092e-64
5.15755e-64
5.30534e-64
5.14906e-64
5.20413e-64
5.17616e-64
5.04533e-64
8.27486e-62
8.25599e-62
8.3096e-62
8.22272e-62
8.19777e-62
8.33145e-62
8.29162e-62
8.12502e-62
8.18496e-62
8.39807e-62
8.24063e-62
8.36989e-62
8.29412e-62
8.39106e-62
8.19666e-62
8.42925e-62
8.18431e-62
8.27072e-62
8.2256e-62
8.01637e-62
7.8047e-60
7.79072e-60
7.84025e-60
7.75935e-60
7.734e-60
7.86076e-60
7.82302e-60
7.66679e-60
7.72337e-60
7.92347e-60
7.77567e-60
7.89569e-60
7.82727e-60
7.91658e-60
7.73475e-60
7.95194e-60
7.72416e-60
7.80458e-60
7.76145e-60
7.56287e-60
5.1328e-58
5.1261e-58
5.15794e-58
5.10539e-58
5.08753e-58
5.17133e-58
5.14642e-58
5.04431e-58
5.0816e-58
5.21251e-58
5.11584e-58
5.19347e-58
5.15052e-58
5.20781e-58
5.08929e-58
5.23057e-58
5.08307e-58
5.13518e-58
5.10652e-58
4.97527e-58
2.36284e-56
2.36084e-56
2.37514e-56
2.35123e-56
2.34247e-56
2.38122e-56
2.36973e-56
2.32303e-56
2.34026e-56
2.40012e-56
2.35591e-56
2.391e-56
2.37218e-56
2.39786e-56
2.3438e-56
2.40806e-56
2.3413e-56
2.36487e-56
2.3516e-56
2.29099e-56
7.5226e-55
7.51965e-55
7.5639e-55
7.48869e-55
7.45907e-55
7.5829e-55
7.54631e-55
7.39871e-55
7.45404e-55
7.64292e-55
7.50337e-55
7.6127e-55
7.55604e-55
7.63531e-55
7.46502e-55
7.66666e-55
7.45835e-55
7.53182e-55
7.48949e-55
7.29649e-55
1.55351e-53
1.55348e-53
1.56234e-53
1.54695e-53
1.54051e-53
1.56611e-53
1.55859e-53
1.52836e-53
1.54e-53
1.57843e-53
1.55e-53
1.57198e-53
1.56096e-53
1.57676e-53
1.54203e-53
1.58289e-53
1.54098e-53
1.55571e-53
1.54705e-53
1.50751e-53
9.35169e-53
9.35682e-53
9.40865e-53
9.31673e-53
9.27602e-53
9.4295e-53
9.3852e-53
9.20533e-53
9.27858e-53
9.50322e-53
9.33665e-53
9.46339e-53
9.4018e-53
9.49211e-53
9.28688e-53
9.52558e-53
9.28331e-53
9.36755e-53
9.31671e-53
9.08201e-53
2.26945e-53
2.27265e-53
2.29161e-53
2.25774e-53
2.25362e-53
2.26903e-53
2.27133e-53
2.23629e-53
2.29375e-53
2.28003e-53
2.28483e-53
2.28126e-53
2.26837e-53
2.27042e-53
2.24095e-53
2.25217e-53
2.25834e-53
2.24922e-53
2.25504e-53
2.25782e-53
4.37241e-53
4.39082e-53
4.43635e-53
4.35631e-53
4.34101e-53
4.34291e-53
4.3712e-53
4.32025e-53
4.43209e-53
4.41991e-53
4.43027e-53
4.39307e-53
4.39516e-53
4.35934e-53
4.32945e-53
4.34884e-53
4.30653e-53
4.32788e-53
4.3513e-53
4.33662e-53
4.60361e-53
4.6238e-53
4.65481e-53
4.572e-53
4.58687e-53
4.54509e-53
4.62238e-53
4.58352e-53
4.60347e-53
4.68858e-53
4.6339e-53
4.5673e-53
4.65069e-53
4.62108e-53
4.60125e-53
4.63116e-53
4.5056e-53
4.5796e-53
4.5583e-53
4.55045e-53
5.60564e-53
5.62461e-53
5.65037e-53
5.65974e-53
5.67215e-53
5.72141e-53
5.75017e-53
5.69746e-53
5.67465e-53
5.60676e-53
5.60858e-53
5.62386e-53
5.67551e-53
5.69002e-53
5.6281e-53
5.65557e-53
5.65576e-53
5.6453e-53
5.59497e-53
5.62349e-53
5.82157e-53
5.77765e-53
5.80379e-53
5.88923e-53
5.86618e-53
5.92245e-53
5.82093e-53
5.94165e-53
5.78089e-53
5.741e-53
5.7364e-53
5.79251e-53
5.78261e-53
5.729e-53
5.71624e-53
5.76777e-53
5.70007e-53
5.79314e-53
5.7639e-53
5.8241e-53
6.19713e-53
6.1717e-53
6.25367e-53
6.18088e-53
6.18683e-53
6.28664e-53
6.22414e-53
6.33343e-53
6.20934e-53
6.29967e-53
6.24549e-53
6.26615e-53
6.27044e-53
6.32901e-53
6.25788e-53
6.35353e-53
6.23305e-53
6.16474e-53
6.23156e-53
6.17453e-53
5.97791e-53
5.93368e-53
5.89297e-53
5.91496e-53
5.96197e-53
6.00427e-53
5.98491e-53
5.96816e-53
5.88791e-53
5.9022e-53
5.83869e-53
5.96974e-53
5.99357e-53
6.02722e-53
6.03459e-53
5.98897e-53
5.97726e-53
6.00303e-53
5.95443e-53
5.96202e-53
5.72685e-53
5.82256e-53
5.73291e-53
5.86267e-53
5.70504e-53
5.81341e-53
5.72849e-53
5.81367e-53
5.75721e-53
5.80981e-53
5.76227e-53
5.89175e-53
5.77122e-53
5.9012e-53
5.77912e-53
5.80157e-53
5.83681e-53
5.71578e-53
5.8513e-53
5.84656e-53
5.09136e-53
5.21435e-53
5.19379e-53
5.13384e-53
5.10509e-53
5.24732e-53
5.16134e-53
5.1954e-53
5.16938e-53
5.09882e-53
5.13954e-53
5.2202e-53
5.14383e-53
5.27546e-53
5.15105e-53
5.21945e-53
5.21942e-53
5.18847e-53
5.22859e-53
5.25712e-53
5.17529e-53
5.17878e-53
5.19969e-53
5.23651e-53
5.23188e-53
5.23363e-53
5.13923e-53
5.26543e-53
5.28279e-53
5.18093e-53
5.25856e-53
5.29752e-53
5.14485e-53
5.3087e-53
5.29729e-53
5.36635e-53
5.2638e-53
5.27722e-53
5.22903e-53
5.31481e-53
3.09719e-53
3.12527e-53
3.1273e-53
3.09311e-53
3.11354e-53
3.10843e-53
3.11075e-53
3.12206e-53
3.08492e-53
3.14181e-53
3.07673e-53
3.14233e-53
3.08494e-53
3.17462e-53
3.0929e-53
3.09829e-53
3.09767e-53
3.15471e-53
3.11484e-53
3.17144e-53
3.28899e-65
3.27991e-65
3.30178e-65
3.26687e-65
3.25781e-65
3.31074e-65
3.295e-65
3.22842e-65
3.25218e-65
3.33743e-65
3.27445e-65
3.3267e-65
3.29519e-65
3.33461e-65
3.25657e-65
3.35001e-65
3.25093e-65
3.28576e-65
3.26799e-65
3.18509e-65
1.02927e-62
1.02697e-62
1.03368e-62
1.0229e-62
1.01982e-62
1.03648e-62
1.03153e-62
1.01081e-62
1.01824e-62
1.04482e-62
1.02519e-62
1.04131e-62
1.03185e-62
1.04391e-62
1.01969e-62
1.04867e-62
1.01806e-62
1.02884e-62
1.02319e-62
9.97034e-63
1.60716e-60
1.60439e-60
1.61466e-60
1.59805e-60
1.59286e-60
1.61902e-60
1.61125e-60
1.57907e-60
1.59068e-60
1.63203e-60
1.60151e-60
1.62631e-60
1.61216e-60
1.63058e-60
1.59307e-60
1.63789e-60
1.59075e-60
1.60736e-60
1.59841e-60
1.55727e-60
1.49325e-58
1.49144e-58
1.50079e-58
1.48554e-58
1.48037e-58
1.50481e-58
1.49756e-58
1.46783e-58
1.47863e-58
1.51687e-58
1.48865e-58
1.51132e-58
1.49876e-58
1.51546e-58
1.48091e-58
1.52213e-58
1.47896e-58
1.49419e-58
1.48578e-58
1.44727e-58
9.65232e-57
9.64552e-57
9.70453e-57
9.60716e-57
9.57153e-57
9.73024e-57
9.68323e-57
9.49229e-57
9.56223e-57
9.80808e-57
9.6267e-57
9.77073e-57
9.69349e-57
9.79869e-57
9.57738e-57
9.84085e-57
9.5662e-57
9.66311e-57
9.60829e-57
9.35796e-57
4.37317e-55
4.37218e-55
4.39824e-55
4.35462e-55
4.3375e-55
4.4097e-55
4.38836e-55
4.3024e-55
4.33423e-55
4.44487e-55
4.36323e-55
4.42727e-55
4.39407e-55
4.44042e-55
4.3411e-55
4.459e-55
4.3367e-55
4.37984e-55
4.35489e-55
4.24104e-55
1.36978e-53
1.37012e-53
1.37804e-53
1.36453e-53
1.35886e-53
1.38155e-53
1.37487e-53
1.34814e-53
1.3582e-53
1.39254e-53
1.36719e-53
1.38681e-53
1.37701e-53
1.39107e-53
1.3603e-53
1.39669e-53
1.35916e-53
1.37238e-53
1.36457e-53
1.32887e-53
2.77896e-52
2.78071e-52
2.79627e-52
2.76911e-52
2.75701e-52
2.80309e-52
2.78961e-52
2.73583e-52
2.75661e-52
2.82525e-52
2.77452e-52
2.81325e-52
2.79459e-52
2.82209e-52
2.76046e-52
2.83288e-52
2.75872e-52
2.78475e-52
2.76908e-52
2.69719e-52
1.6472e-51
1.64919e-51
1.65814e-51
1.64215e-51
1.63465e-51
1.66184e-51
1.65402e-51
1.62252e-51
1.63539e-51
1.6749e-51
1.64563e-51
1.66761e-51
1.6574e-51
1.67285e-51
1.63699e-51
1.67864e-51
1.63643e-51
1.65109e-51
1.64206e-51
1.59998e-51
3.85579e-52
3.8614e-52
3.89401e-52
3.83617e-52
3.82888e-52
3.85449e-52
3.85856e-52
3.79978e-52
3.89768e-52
3.87419e-52
3.88249e-52
3.8755e-52
3.85467e-52
3.85716e-52
3.80803e-52
3.82578e-52
3.83648e-52
3.82124e-52
3.8315e-52
3.83597e-52
7.53519e-52
7.56652e-52
7.64513e-52
7.50672e-52
7.4812e-52
7.48358e-52
7.5323e-52
7.44563e-52
7.63712e-52
7.61732e-52
7.63415e-52
7.56944e-52
7.57446e-52
7.513e-52
7.46188e-52
7.49451e-52
7.42123e-52
7.45775e-52
7.49839e-52
7.47172e-52
7.89433e-52
7.92825e-52
7.9819e-52
7.84063e-52
7.86641e-52
7.79649e-52
7.92801e-52
7.86236e-52
7.89347e-52
8.03854e-52
7.94483e-52
7.8315e-52
7.97442e-52
7.92514e-52
7.89105e-52
7.94214e-52
7.72957e-52
7.85307e-52
7.81835e-52
7.80416e-52
9.64918e-52
9.67929e-52
9.72484e-52
9.74239e-52
9.76318e-52
9.84821e-52
9.89359e-52
9.80715e-52
9.76644e-52
9.6496e-52
9.65259e-52
9.67947e-52
9.76752e-52
9.79059e-52
9.68716e-52
9.73274e-52
9.73214e-52
9.71674e-52
9.63015e-52
9.67954e-52
9.99342e-52
9.91718e-52
9.96228e-52
1.01069e-51
1.00684e-51
1.01653e-51
9.9908e-52
1.01983e-51
9.92149e-52
9.85652e-52
9.84722e-52
9.94347e-52
9.92595e-52
9.83472e-52
9.81426e-52
9.90145e-52
9.78555e-52
9.94369e-52
9.89594e-52
9.99602e-52
1.06809e-51
1.06373e-51
1.0777e-51
1.06509e-51
1.0664e-51
1.08341e-51
1.07266e-51
1.09136e-51
1.07028e-51
1.08577e-51
1.07635e-51
1.07986e-51
1.08071e-51
1.09094e-51
1.07864e-51
1.09485e-51
1.07435e-51
1.06255e-51
1.07407e-51
1.06407e-51
1.02812e-51
1.02082e-51
1.0136e-51
1.01751e-51
1.02539e-51
1.03264e-51
1.02932e-51
1.02651e-51
1.01297e-51
1.01525e-51
1.00437e-51
1.02677e-51
1.03094e-51
1.03652e-51
1.03793e-51
1.0299e-51
1.02813e-51
1.03255e-51
1.02433e-51
1.0256e-51
9.89938e-52
1.0065e-51
9.91057e-52
1.01319e-51
9.86018e-52
1.00458e-51
9.90053e-52
1.0047e-51
9.95117e-52
1.00424e-51
9.95951e-52
1.01835e-51
9.97504e-52
1.01982e-51
9.9899e-52
1.00254e-51
1.00886e-51
9.88025e-52
1.01131e-51
1.01051e-51
8.79594e-52
9.00538e-52
8.97152e-52
8.86777e-52
8.8195e-52
9.06157e-52
8.91408e-52
8.97275e-52
8.92908e-52
8.80696e-52
8.87742e-52
9.01534e-52
8.88503e-52
9.1097e-52
8.89822e-52
9.01478e-52
9.01397e-52
8.96216e-52
9.02898e-52
9.07908e-52
9.01185e-52
9.01747e-52
9.05531e-52
9.11775e-52
9.1091e-52
9.11154e-52
8.94847e-52
9.1691e-52
9.19684e-52
9.02156e-52
9.156e-52
9.22379e-52
8.95952e-52
9.24244e-52
9.22401e-52
9.34167e-52
9.16622e-52
9.18683e-52
9.10384e-52
9.25147e-52
5.36586e-52
5.4146e-52
5.41875e-52
5.35908e-52
5.39378e-52
5.38505e-52
5.38889e-52
5.40904e-52
5.34351e-52
5.44242e-52
5.33009e-52
5.44295e-52
5.34476e-52
5.49903e-52
5.35832e-52
5.36752e-52
5.36613e-52
5.4645e-52
5.39608e-52
5.49321e-52
6.60141e-64
6.58674e-64
6.63008e-64
6.56113e-64
6.54152e-64
6.64862e-64
6.61689e-64
6.48399e-64
6.53155e-64
6.70249e-64
6.57632e-64
6.67993e-64
6.61898e-64
6.69645e-64
6.54081e-64
6.72691e-64
6.52978e-64
6.59898e-64
6.56252e-64
6.39416e-64
2.03194e-61
2.02853e-61
2.0416e-61
2.02066e-61
2.01414e-61
2.04729e-61
2.03747e-61
1.99679e-61
2.01142e-61
2.06384e-61
2.02517e-61
2.05659e-61
2.03863e-61
2.06193e-61
2.01443e-61
2.07118e-61
2.01131e-61
2.03236e-61
2.02097e-61
1.96869e-61
3.11808e-59
3.11453e-59
3.1342e-59
3.10246e-59
3.09173e-59
3.14286e-59
3.12773e-59
3.06566e-59