/*--------------------------------*- C++ -*----------------------------------*\
| =========                 |                                                 |
| \\      /  F ield         | OpenFOAM: The Open Source CFD Toolbox           |
|  \\    /   O peration     | Version:  2212                                  |
|   \\  /    A nd           | Website:  www.openfoam.com                      |
|    \\/     M anipulation  |                                                 |
\*---------------------------------------------------------------------------*/
FoamFile
{
    version     2.0;
    format      ascii;
    arch        "LSB;label=32;scalar=64";
    class       surfaceScalarField;
    location    "0.000135";
    object      phi;
}
// * * * * * * * * * * * * * * * * * * * * * * * * * * * * * * * * * * * * * //

dimensions      [1 0 -1 0 0 0 0];

oriented        oriented;

internalField   nonuniform List<scalar> 
59218
(
-2.63455e-11
-6.85378e-09
7.93025e-12
-5.96111e-11
-1.09862e-08
-1.06431e-10
-1.54425e-08
-1.61755e-10
-1.92483e-08
-2.29621e-10
-2.43575e-08
-3.05603e-10
-2.97057e-08
-3.8785e-10
-3.44529e-08
-4.78425e-10
-3.75993e-08
-5.76215e-10
-4.08124e-08
-6.87021e-10
-4.52095e-08
-8.06035e-10
-4.85755e-08
-9.30532e-10
-5.13119e-08
-1.07694e-09
-5.85628e-08
-1.24101e-09
-6.61261e-08
-1.4235e-09
-7.29606e-08
-1.63113e-09
-8.02371e-08
-1.88018e-09
-9.13664e-08
-2.17504e-09
-9.91459e-08
-2.53028e-09
-1.0808e-07
-2.93752e-09
-1.15186e-07
-3.33376e-09
-1.0926e-07
-3.70335e-09
-1.00687e-07
-4.10579e-09
-1.05709e-07
-4.59113e-09
-1.18353e-07
-5.1825e-09
-1.31374e-07
-5.88419e-09
-1.43685e-07
-6.68477e-09
-1.59818e-07
-7.56093e-09
-1.873e-07
-8.15491e-09
-1.81447e-07
-8.0463e-09
-1.66358e-07
-6.98442e-09
-1.4559e-07
-5.53422e-09
-1.15301e-07
-4.27449e-09
-9.28288e-08
-3.22094e-09
-7.29698e-08
-2.47265e-09
-5.95845e-08
-1.96417e-09
-4.99224e-08
-1.61959e-09
-4.30343e-08
-1.38206e-09
-3.89167e-08
-1.20715e-09
-3.86323e-08
-1.06843e-09
-3.40022e-08
-9.32933e-10
-2.74893e-08
-8.2004e-10
-2.39279e-08
-6.9334e-10
-2.12077e-08
-5.62922e-10
-1.82089e-08
-4.64484e-10
-1.61021e-08
-4.19119e-10
-1.34095e-08
-3.87842e-10
-9.70189e-09
-4.44474e-09
-2.42592e-11
-6.84103e-09
7.41261e-12
-5.43747e-11
-1.0933e-08
-9.65129e-11
-1.53815e-08
-1.47202e-10
-1.9171e-08
-2.07947e-10
-2.42741e-08
-2.78437e-10
-2.96008e-08
-3.56096e-10
-3.43442e-08
-4.38394e-10
-3.74876e-08
-5.26925e-10
-4.07051e-08
-6.26888e-10
-4.50948e-08
-7.33815e-10
-4.84122e-08
-8.45528e-10
-5.11377e-08
-9.76183e-10
-5.83661e-08
-1.12234e-09
-6.59164e-08
-1.28424e-09
-7.26888e-08
-1.46662e-09
-7.98924e-08
-1.68452e-09
-9.09024e-08
-1.94006e-09
-9.88069e-08
-2.2401e-09
-1.0773e-07
-2.58074e-09
-1.14514e-07
-2.91393e-09
-1.08484e-07
-3.22431e-09
-9.99492e-08
-3.56454e-09
-1.04943e-07
-3.97414e-09
-1.17544e-07
-4.4682e-09
-1.305e-07
-5.05153e-09
-1.42696e-07
-5.71457e-09
-1.58769e-07
-6.44878e-09
-1.86196e-07
-6.95703e-09
-1.80566e-07
-6.89442e-09
-1.6596e-07
-6.03674e-09
-1.45674e-07
-4.86416e-09
-1.16277e-07
-3.71978e-09
-9.41658e-08
-2.8102e-09
-7.34598e-08
-2.15855e-09
-5.99175e-08
-1.7044e-09
-5.01818e-08
-1.39197e-09
-4.32253e-08
-1.17495e-09
-3.90408e-08
-1.01549e-09
-3.86914e-08
-9.16419e-10
-3.40054e-08
-8.2947e-10
-2.74935e-08
-7.2887e-10
-2.3939e-08
-6.14239e-10
-2.12085e-08
-4.75378e-10
-1.82004e-08
-3.45852e-10
-1.60223e-08
-2.41423e-10
-1.32079e-08
-1.76739e-10
-9.31748e-09
-4.0169e-09
-3.39092e-11
-6.84473e-09
9.97777e-12
-7.38487e-11
-1.08954e-08
-1.29868e-10
-1.53321e-08
-1.97816e-10
-1.91122e-08
-2.77963e-10
-2.42066e-08
-3.74289e-10
-2.9517e-08
-4.83089e-10
-3.42599e-08
-5.96845e-10
-3.73884e-08
-7.18546e-10
-4.05621e-08
-8.53802e-10
-4.49528e-08
-9.97682e-10
-4.82523e-08
-1.14786e-09
-5.09386e-08
-1.32183e-09
-5.81406e-08
-1.51545e-09
-6.56599e-08
-1.72769e-09
-7.2392e-08
-1.96349e-09
-7.95314e-08
-2.24136e-09
-9.0438e-08
-2.55945e-09
-9.83756e-08
-2.92102e-09
-1.0721e-07
-3.32189e-09
-1.13807e-07
-3.71046e-09
-1.07769e-07
-4.0741e-09
-9.92808e-08
-4.47245e-09
-1.04294e-07
-4.9446e-09
-1.16833e-07
-5.5027e-09
-1.29611e-07
-6.15382e-09
-1.4158e-07
-6.88768e-09
-1.57451e-07
-7.68212e-09
-1.84819e-07
-8.19484e-09
-1.7972e-07
-8.10663e-09
-1.65564e-07
-7.09505e-09
-1.4604e-07
-5.7793e-09
-1.17533e-07
-4.36259e-09
-9.54529e-08
-3.28176e-09
-7.43114e-08
-2.51338e-09
-6.04037e-08
-1.98236e-09
-5.05119e-08
-1.61084e-09
-4.34498e-08
-1.34778e-09
-3.92068e-08
-1.14915e-09
-3.87941e-08
-1.01213e-09
-3.40513e-08
-9.3301e-10
-2.74932e-08
-8.47032e-10
-2.39424e-08
-7.52823e-10
-2.11998e-08
-6.40806e-10
-1.81767e-08
-4.81609e-10
-1.5987e-08
-3.21035e-10
-1.30898e-08
-1.94324e-10
-9.04468e-09
-3.66086e-09
-4.27469e-11
-6.81453e-09
1.21588e-11
-9.04178e-11
-1.08592e-08
-1.58326e-10
-1.52748e-08
-2.4108e-10
-1.90489e-08
-3.36027e-10
-2.41343e-08
-4.54346e-10
-2.94279e-08
-5.93606e-10
-3.41579e-08
-7.38359e-10
-3.72705e-08
-8.90369e-10
-4.04292e-08
-1.05753e-09
-4.47869e-08
-1.2355e-09
-4.80965e-08
-1.42114e-09
-5.07671e-08
-1.63515e-09
-5.79289e-08
-1.87201e-09
-6.53888e-08
-2.12974e-09
-7.2065e-08
-2.4133e-09
-7.91532e-08
-2.74075e-09
-8.99796e-08
-3.10976e-09
-9.78429e-08
-3.52052e-09
-1.06567e-07
-3.96697e-09
-1.13135e-07
-4.39226e-09
-1.07142e-07
-4.79575e-09
-9.86904e-08
-5.23997e-09
-1.03694e-07
-5.75884e-09
-1.16144e-07
-6.35776e-09
-1.28764e-07
-7.04607e-09
-1.40539e-07
-7.81862e-09
-1.56291e-07
-8.64106e-09
-1.83678e-07
-9.12644e-09
-1.791e-07
-9.0156e-09
-1.65255e-07
-7.86682e-09
-1.46647e-07
-6.44448e-09
-1.18639e-07
-4.8449e-09
-9.63506e-08
-3.65011e-09
-7.52983e-08
-2.79978e-09
-6.09974e-08
-2.21044e-09
-5.09188e-08
-1.79559e-09
-4.37228e-08
-1.49586e-09
-3.94118e-08
-1.2664e-09
-3.89382e-08
-1.10434e-09
-3.41316e-08
-9.88896e-10
-2.7535e-08
-9.08796e-10
-2.39455e-08
-8.17784e-10
-2.12002e-08
-7.16685e-10
-1.81531e-08
-5.79256e-10
-1.59422e-08
-4.31729e-10
-1.29848e-08
-2.71552e-10
-8.83015e-09
-3.42923e-09
-4.52996e-11
-6.76399e-09
1.28502e-11
-9.53806e-11
-1.08076e-08
-1.66389e-10
-1.5203e-08
-2.53013e-10
-1.89664e-08
-3.52337e-10
-2.40406e-08
-4.76307e-10
-2.93149e-08
-6.22216e-10
-3.40193e-08
-7.75545e-10
-3.71279e-08
-9.35816e-10
-4.02662e-08
-1.11145e-09
-4.45964e-08
-1.29754e-09
-4.78735e-08
-1.49181e-09
-5.05361e-08
-1.71575e-09
-5.7657e-08
-1.96343e-09
-6.50739e-08
-2.23309e-09
-7.17253e-08
-2.52866e-09
-7.87791e-08
-2.87034e-09
-8.95359e-08
-3.254e-09
-9.73065e-08
-3.68161e-09
-1.05908e-07
-4.14616e-09
-1.12466e-07
-4.58486e-09
-1.06536e-07
-4.99861e-09
-9.81272e-08
-5.45336e-09
-1.03094e-07
-5.98433e-09
-1.15438e-07
-6.59669e-09
-1.2794e-07
-7.29877e-09
-1.39563e-07
-8.09116e-09
-1.55165e-07
-8.95048e-09
-1.82525e-07
-9.52174e-09
-1.78319e-07
-9.45357e-09
-1.6496e-07
-8.17746e-09
-1.47464e-07
-6.65322e-09
-1.19539e-07
-5.04464e-09
-9.65636e-08
-3.82828e-09
-7.6351e-08
-2.9333e-09
-6.16573e-08
-2.30767e-09
-5.13734e-08
-1.86884e-09
-4.40232e-08
-1.54908e-09
-3.96281e-08
-1.30235e-09
-3.91029e-08
-1.13044e-09
-3.42292e-08
-1.00859e-09
-2.75865e-08
-9.10567e-10
-2.39703e-08
-8.26867e-10
-2.11998e-08
-7.38673e-10
-1.81316e-08
-6.20283e-10
-1.58953e-08
-4.80151e-10
-1.28807e-08
-2.97671e-10
-8.66552e-09
-3.26691e-09
-4.31199e-11
-6.73959e-09
1.21992e-11
-9.03302e-11
-1.07485e-08
-1.57682e-10
-1.51206e-08
-2.40033e-10
-1.88728e-08
-3.34695e-10
-2.39326e-08
-4.52515e-10
-2.91875e-08
-5.91758e-10
-3.3869e-08
-7.3879e-10
-3.69764e-08
-8.91691e-10
-4.01113e-08
-1.05899e-09
-4.44272e-08
-1.23593e-09
-4.76812e-08
-1.42045e-09
-5.03182e-08
-1.63316e-09
-5.73988e-08
-1.86874e-09
-6.47795e-08
-2.12584e-09
-7.14033e-08
-2.40756e-09
-7.84294e-08
-2.73277e-09
-8.91298e-08
-3.09672e-09
-9.68249e-08
-3.50422e-09
-1.05328e-07
-3.95016e-09
-1.11865e-07
-4.37315e-09
-1.05984e-07
-4.77204e-09
-9.76178e-08
-5.21006e-09
-1.02536e-07
-5.72094e-09
-1.14772e-07
-6.31089e-09
-1.27163e-07
-6.989e-09
-1.38659e-07
-7.758e-09
-1.541e-07
-8.60584e-09
-1.81399e-07
-9.18719e-09
-1.77511e-07
-9.16075e-09
-1.64611e-07
-7.99744e-09
-1.48101e-07
-6.46277e-09
-1.20561e-07
-4.92079e-09
-9.7482e-08
-3.7266e-09
-7.71902e-08
-2.85267e-09
-6.22921e-08
-2.23576e-09
-5.18239e-08
-1.80426e-09
-4.43226e-08
-1.4918e-09
-3.98343e-08
-1.25194e-09
-3.92546e-08
-1.08398e-09
-3.43261e-08
-9.66723e-10
-2.76385e-08
-8.7239e-10
-2.39945e-08
-7.91836e-10
-2.11995e-08
-7.20032e-10
-1.81003e-08
-6.16785e-10
-1.5845e-08
-4.85109e-10
-1.2789e-08
-2.9559e-10
-8.53827e-09
-3.14718e-09
-2.95579e-11
-6.72207e-09
8.2295e-12
-6.2406e-11
-1.07193e-08
-1.09162e-10
-1.50805e-08
-1.66119e-10
-1.88231e-08
-2.32418e-10
-2.38754e-08
-3.1315e-10
-2.91157e-08
-4.08577e-10
-3.37717e-08
-5.11082e-10
-3.68629e-08
-6.16796e-10
-3.99858e-08
-7.3291e-10
-4.42759e-08
-8.565e-10
-4.75161e-08
-9.85543e-10
-5.0146e-08
-1.13534e-09
-5.7194e-08
-1.30153e-09
-6.4548e-08
-1.48401e-09
-7.11442e-08
-1.68628e-09
-7.81267e-08
-1.92452e-09
-8.87771e-08
-2.19552e-09
-9.6414e-08
-2.50395e-09
-1.04857e-07
-2.8475e-09
-1.11372e-07
-3.17759e-09
-1.05521e-07
-3.48978e-09
-9.71874e-08
-3.83526e-09
-1.02077e-07
-4.24324e-09
-1.14229e-07
-4.72175e-09
-1.26524e-07
-5.27943e-09
-1.37916e-07
-5.92305e-09
-1.53222e-07
-6.66034e-09
-1.80416e-07
-7.20017e-09
-1.76771e-07
-7.2608e-09
-1.64218e-07
-6.40202e-09
-1.48465e-07
-5.19897e-09
-1.21395e-07
-3.99481e-09
-9.87235e-08
-3.01804e-09
-7.7925e-08
-2.28974e-09
-6.28303e-08
-1.76125e-09
-5.21976e-08
-1.41317e-09
-4.45468e-08
-1.16496e-09
-3.99823e-08
-9.79814e-10
-3.93488e-08
-8.55624e-10
-3.43764e-08
-7.70958e-10
-2.7663e-08
-7.04904e-10
-2.39992e-08
-6.48688e-10
-2.11833e-08
-5.93809e-10
-1.8066e-08
-5.29072e-10
-1.57788e-08
-4.2558e-10
-1.27038e-08
-2.62114e-10
-8.43468e-09
-3.06314e-09
-7.58667e-12
-6.79064e-09
2.24172e-12
-1.83083e-11
-1.07221e-08
-3.33035e-11
-1.50799e-08
-5.10717e-11
-1.88245e-08
-7.27213e-11
-2.38788e-08
-9.42933e-11
-2.91317e-08
-1.23773e-10
-3.37909e-08
-1.49098e-10
-3.68844e-08
-1.79224e-10
-3.99971e-08
-2.1298e-10
-4.4271e-08
-2.49548e-10
-4.74986e-08
-2.89755e-10
-5.01248e-08
-3.38655e-10
-5.7156e-08
-3.92885e-10
-6.4489e-08
-4.55377e-10
-7.10567e-08
-5.30363e-10
-7.79981e-08
-6.29274e-10
-8.86001e-08
-7.51382e-10
-9.61619e-08
-9.06114e-10
-1.04562e-07
-1.09343e-09
-1.11051e-07
-1.28205e-09
-1.0521e-07
-1.46125e-09
-9.68948e-08
-1.66569e-09
-1.01762e-07
-1.9195e-09
-1.13845e-07
-2.23447e-09
-1.2605e-07
-2.61946e-09
-1.37346e-07
-3.08314e-09
-1.52538e-07
-3.65254e-09
-1.79612e-07
-4.10805e-09
-1.76121e-07
-4.20424e-09
-1.63823e-07
-3.82214e-09
-1.48409e-07
-3.17621e-09
-1.21679e-07
-2.42595e-09
-9.92987e-08
-1.76834e-09
-7.84378e-08
-1.2997e-09
-6.30871e-08
-9.76782e-10
-5.23515e-08
-7.73965e-10
-4.46237e-08
-6.38278e-10
-4.00252e-08
-5.4903e-10
-3.9355e-08
-4.98556e-10
-3.43583e-08
-4.70784e-10
-2.76343e-08
-4.533e-10
-2.39621e-08
-4.40687e-10
-2.11321e-08
-4.25314e-10
-1.80029e-08
-3.98905e-10
-1.56933e-08
-3.40044e-10
-1.26045e-08
-2.15674e-10
-8.34055e-09
-2.99875e-09
5.7863e-12
-6.94707e-09
-1.40292e-12
6.0543e-12
-1.0744e-08
9.08742e-12
-1.50998e-08
1.36184e-11
-1.8848e-08
1.91488e-11
-2.3899e-08
2.88295e-11
-2.91443e-08
4.22751e-11
-3.38046e-08
5.61867e-11
-3.68983e-08
6.98723e-11
-4.00014e-08
8.13629e-11
-4.42705e-08
9.23471e-11
-4.74898e-08
1.03619e-10
-5.00943e-08
1.12403e-10
-5.71107e-08
1.20668e-10
-6.44424e-08
1.25362e-10
-7.10045e-08
1.226e-10
-7.79448e-08
1.05557e-10
-8.8536e-08
7.11356e-11
-9.60903e-08
1.48213e-11
-1.04439e-07
-8.84723e-11
-1.10871e-07
-2.0075e-10
-1.05041e-07
-3.0651e-10
-9.67367e-08
-4.31169e-10
-1.01574e-07
-5.97986e-10
-1.13588e-07
-8.1921e-10
-1.25721e-07
-1.10455e-09
-1.36944e-07
-1.46828e-09
-1.52038e-07
-1.94384e-09
-1.78976e-07
-2.32791e-09
-1.7555e-07
-2.51004e-09
-1.63329e-07
-2.39018e-09
-1.48169e-07
-2.01343e-09
-1.21914e-07
-1.51147e-09
-1.00122e-07
-1.04188e-09
-7.87021e-08
-7.3232e-10
-6.32615e-08
-5.3575e-10
-5.23982e-08
-4.11903e-10
-4.46245e-08
-3.36827e-10
-4.00067e-08
-2.99102e-10
-3.93175e-08
-2.90182e-10
-3.43087e-08
-2.94145e-10
-2.75813e-08
-3.04131e-10
-2.39023e-08
-3.15595e-10
-2.10636e-08
-3.22552e-10
-1.79268e-08
-3.16988e-10
-1.56024e-08
-2.80215e-10
-1.25039e-08
-1.84003e-10
-8.2515e-09
-2.94667e-09
1.56108e-12
-6.94331e-09
-1.02767e-13
-4.78267e-12
-1.07512e-08
-9.81051e-12
-1.50955e-08
-1.42137e-11
-1.88332e-08
-1.97283e-11
-2.38841e-08
-2.32312e-11
-2.91194e-08
-2.61744e-11
-3.3784e-08
-2.79888e-11
-3.68824e-08
-3.15922e-11
-3.99768e-08
-3.85957e-11
-4.42423e-08
-4.66719e-11
-4.74586e-08
-5.55152e-11
-5.00637e-08
-6.9543e-11
-5.70696e-08
-8.63819e-11
-6.43894e-08
-1.08642e-10
-7.09351e-08
-1.40127e-10
-7.7862e-08
-1.89763e-10
-8.8436e-08
-2.60504e-10
-9.59427e-08
-3.59754e-10
-1.04275e-07
-4.89642e-10
-1.10658e-07
-6.24355e-10
-1.04804e-07
-7.53624e-10
-9.65138e-08
-9.0284e-10
-1.01351e-07
-1.09507e-09
-1.13329e-07
-1.34053e-09
-1.25408e-07
-1.64879e-09
-1.36569e-07
-2.03346e-09
-1.51586e-07
-2.51959e-09
-1.78391e-07
-2.9097e-09
-1.75005e-07
-3.041e-09
-1.62955e-07
-2.87353e-09
-1.48037e-07
-2.50296e-09
-1.22414e-07
-1.81447e-09
-1.01222e-07
-1.26932e-09
-7.93051e-08
-9.13683e-10
-6.34799e-08
-6.82394e-10
-5.2486e-08
-5.30008e-10
-4.46795e-08
-4.30281e-10
-4.00202e-08
-3.69597e-10
-3.93e-08
-3.41119e-10
-3.42813e-08
-3.31209e-10
-2.75472e-08
-3.28926e-10
-2.38595e-08
-3.30199e-10
-2.10104e-08
-3.27127e-10
-1.7866e-08
-3.12954e-10
-1.55264e-08
-2.69693e-10
-1.24202e-08
-1.7398e-10
-8.17663e-09
-2.90544e-09
-4.95413e-12
-6.91977e-09
1.48405e-12
-1.87345e-11
-1.07503e-08
-3.41546e-11
-1.50807e-08
-5.1412e-11
-1.88089e-08
-7.15742e-11
-2.38453e-08
-9.51921e-11
-2.90723e-08
-1.2046e-10
-3.37299e-08
-1.46269e-10
-3.68327e-08
-1.75219e-10
-3.99261e-08
-2.09179e-10
-4.41835e-08
-2.45765e-10
-4.73911e-08
-2.83543e-10
-4.99939e-08
-3.29767e-10
-5.69857e-08
-3.82253e-10
-6.42939e-08
-4.42297e-10
-7.0833e-08
-5.14064e-10
-7.77643e-08
-6.06629e-10
-8.83261e-08
-7.22867e-10
-9.58235e-08
-8.67731e-10
-1.04129e-07
-1.04084e-09
-1.10491e-07
-1.21767e-09
-1.04647e-07
-1.38633e-09
-9.63565e-08
-1.57594e-09
-1.0116e-07
-1.81046e-09
-1.13093e-07
-2.09971e-09
-1.25098e-07
-2.45495e-09
-1.36186e-07
-2.88596e-09
-1.51093e-07
-3.41484e-09
-1.77767e-07
-3.8263e-09
-1.74454e-07
-3.90996e-09
-1.62636e-07
-3.65281e-09
-1.48161e-07
-3.1221e-09
-1.22878e-07
-2.33555e-09
-1.01886e-07
-1.66099e-09
-7.9967e-08
-1.2182e-09
-6.3869e-08
-9.19477e-10
-5.26584e-08
-7.18747e-10
-4.4796e-08
-5.80221e-10
-4.00753e-08
-4.85875e-10
-3.93201e-08
-4.31981e-10
-3.42787e-08
-4.02266e-10
-2.75326e-08
-3.83197e-10
-2.38364e-08
-3.68754e-10
-2.09758e-08
-3.52697e-10
-1.78223e-08
-3.26157e-10
-1.54681e-08
-2.72708e-10
-1.23524e-08
-1.71099e-10
-8.1157e-09
-2.87266e-09
-1.04822e-11
-6.93461e-09
3.03726e-12
-3.04787e-11
-1.07233e-08
-5.48236e-11
-1.50359e-08
-8.21529e-11
-1.87458e-08
-1.14927e-10
-2.37631e-08
-1.52647e-10
-2.89734e-08
-1.96121e-10
-3.36206e-08
-2.42595e-10
-3.67224e-08
-2.91805e-10
-3.98165e-08
-3.4704e-10
-4.40676e-08
-4.05752e-10
-4.72744e-08
-4.67881e-10
-4.98722e-08
-5.4137e-10
-5.68431e-08
-6.23226e-10
-6.41321e-08
-7.14816e-10
-7.06687e-08
-8.19539e-10
-7.75954e-08
-9.51309e-10
-8.81411e-08
-1.10626e-09
-9.56246e-08
-1.29466e-09
-1.03922e-07
-1.51408e-09
-1.1027e-07
-1.73064e-09
-1.04437e-07
-1.93729e-09
-9.61574e-08
-2.16747e-09
-1.00909e-07
-2.44658e-09
-1.12791e-07
-2.78473e-09
-1.24759e-07
-3.19252e-09
-1.35802e-07
-3.68062e-09
-1.50606e-07
-4.26572e-09
-1.77125e-07
-4.71724e-09
-1.73891e-07
-4.80187e-09
-1.62426e-07
-4.47002e-09
-1.48302e-07
-3.78217e-09
-1.23166e-07
-2.89886e-09
-1.01989e-07
-2.0624e-09
-8.04376e-08
-1.52205e-09
-6.45027e-08
-1.14919e-09
-5.29329e-08
-8.98874e-10
-4.4964e-08
-7.23102e-10
-4.01696e-08
-5.97718e-10
-3.93716e-08
-5.19804e-10
-3.42954e-08
-4.72843e-10
-2.75343e-08
-4.39726e-10
-2.38267e-08
-4.13647e-10
-2.09534e-08
-3.86909e-10
-1.77893e-08
-3.49822e-10
-1.54206e-08
-2.86363e-10
-1.22945e-08
-1.7573e-10
-8.06343e-09
-2.84541e-09
-1.3471e-11
-6.88137e-09
3.97044e-12
-3.64199e-11
-1.06862e-08
-6.52178e-11
-1.49735e-08
-9.83418e-11
-1.86638e-08
-1.36866e-10
-2.36625e-08
-1.83425e-10
-2.88598e-08
-2.38929e-10
-3.34936e-08
-2.94818e-10
-3.65864e-08
-3.54703e-10
-3.96804e-08
-4.22462e-10
-4.39299e-08
-4.93904e-10
-4.71378e-08
-5.6773e-10
-4.97354e-08
-6.55303e-10
-5.6697e-08
-7.53093e-10
-6.39705e-08
-8.61904e-10
-7.05119e-08
-9.85629e-10
-7.74332e-08
-1.1372e-09
-8.79743e-08
-1.31577e-09
-9.54501e-08
-1.52799e-09
-1.03744e-07
-1.77122e-09
-1.10099e-07
-2.01291e-09
-1.04269e-07
-2.24118e-09
-9.60017e-08
-2.49548e-09
-1.00715e-07
-2.80249e-09
-1.12538e-07
-3.17227e-09
-1.2444e-07
-3.61173e-09
-1.35391e-07
-4.13653e-09
-1.50098e-07
-4.7624e-09
-1.76442e-07
-5.25033e-09
-1.73285e-07
-5.3641e-09
-1.62154e-07
-4.94795e-09
-1.48609e-07
-4.11661e-09
-1.23418e-07
-3.16106e-09
-1.02014e-07
-2.34881e-09
-8.07807e-08
-1.70008e-09
-6.48371e-08
-1.29579e-09
-5.32462e-08
-1.00954e-09
-4.51499e-08
-8.07055e-10
-4.02981e-08
-6.61742e-10
-3.94404e-08
-5.68601e-10
-3.43273e-08
-5.10628e-10
-2.75448e-08
-4.68845e-10
-2.38259e-08
-4.35628e-10
-2.09396e-08
-4.02817e-10
-1.77641e-08
-3.59892e-10
-1.53818e-08
-2.91133e-10
-1.22444e-08
-1.75826e-10
-8.0186e-09
-2.82323e-09
-4.6382e-12
-6.80974e-09
1.77502e-12
-1.71344e-11
-1.06496e-08
-3.2298e-11
-1.49051e-08
-4.88505e-11
-1.85836e-08
-6.87503e-11
-2.35571e-08
-9.05827e-11
-2.87355e-08
-1.12416e-10
-3.33594e-08
-1.3791e-10
-3.64486e-08
-1.65356e-10
-3.95463e-08
-1.97216e-10
-4.37822e-08
-2.31407e-10
-4.69875e-08
-2.67778e-10
-4.95976e-08
-3.12855e-10
-5.65526e-08
-3.64162e-10
-6.38339e-08
-4.23031e-10
-7.03604e-08
-4.93851e-10
-7.72735e-08
-5.89067e-10
-8.78103e-08
-7.08261e-10
-9.52973e-08
-8.61101e-10
-1.03589e-07
-1.04713e-09
-1.09943e-07
-1.23504e-09
-1.04121e-07
-1.41354e-09
-9.58537e-08
-1.61663e-09
-1.00551e-07
-1.86923e-09
-1.12323e-07
-2.18273e-09
-1.24168e-07
-2.5657e-09
-1.35042e-07
-3.0334e-09
-1.49676e-07
-3.61043e-09
-1.75855e-07
-4.08452e-09
-1.72763e-07
-4.23787e-09
-1.61992e-07
-3.98451e-09
-1.48688e-07
-3.31262e-09
-1.23451e-07
-2.55535e-09
-1.01559e-07
-1.86149e-09
-8.09171e-08
-1.32905e-09
-6.50369e-08
-9.98836e-10
-5.34698e-08
-7.63861e-10
-4.5287e-08
-6.0485e-10
-4.03781e-08
-4.93967e-10
-3.94794e-08
-4.29062e-10
-3.43325e-08
-3.93867e-10
-2.75336e-08
-3.72687e-10
-2.3805e-08
-3.58173e-10
-2.09089e-08
-3.42349e-10
-1.77254e-08
-3.165e-10
-1.53327e-08
-2.63502e-10
-1.21869e-08
-1.62304e-10
-7.97004e-09
-2.80203e-09
-1.22924e-12
-6.73514e-09
1.10196e-12
-8.27154e-12
-1.06679e-08
-1.689e-11
-1.48264e-08
-2.61348e-11
-1.84878e-08
-3.72152e-11
-2.344e-08
-4.78358e-11
-2.86077e-08
-5.75639e-11
-3.32304e-08
-6.6834e-11
-3.63165e-08
-7.8598e-11
-3.94136e-08
-9.44693e-11
-4.36515e-08
-1.11814e-10
-4.68634e-08
-1.29647e-10
-4.94826e-08
-1.54342e-10
-5.64337e-08
-1.82975e-10
-6.37097e-08
-2.18339e-10
-7.02268e-08
-2.64821e-10
-7.71484e-08
-3.32296e-10
-8.7679e-08
-4.24666e-10
-9.5153e-08
-5.48691e-10
-1.03428e-07
-7.0543e-10
-1.09758e-07
-8.68392e-10
-1.03943e-07
-1.02332e-09
-9.5687e-08
-1.20253e-09
-1.00391e-07
-1.4297e-09
-1.12114e-07
-1.71507e-09
-1.239e-07
-2.0693e-09
-1.3469e-07
-2.50768e-09
-1.49233e-07
-3.06104e-09
-1.7528e-07
-3.53202e-09
-1.72264e-07
-3.69572e-09
-1.61806e-07
-3.52726e-09
-1.4866e-07
-2.92981e-09
-1.23418e-07
-2.27028e-09
-1.01343e-07
-1.61155e-09
-8.10447e-08
-1.16734e-09
-6.51513e-08
-8.54901e-10
-5.36333e-08
-6.46202e-10
-4.54183e-08
-5.05164e-10
-4.04529e-08
-4.11338e-10
-3.95041e-08
-3.57897e-10
-3.43254e-08
-3.31547e-10
-2.75134e-08
-3.18179e-10
-2.37773e-08
-3.11628e-10
-2.08729e-08
-3.02705e-10
-1.76836e-08
-2.85491e-10
-1.52804e-08
-2.41635e-10
-1.21297e-08
-1.50233e-10
-7.92277e-09
-2.78269e-09
-9.38337e-12
-6.65704e-09
3.35448e-12
-2.29337e-11
-1.06035e-08
-4.26548e-11
-1.47339e-08
-6.60209e-11
-1.83793e-08
-9.34235e-11
-2.33083e-08
-1.24069e-10
-2.84646e-08
-1.58346e-10
-3.30711e-08
-1.94358e-10
-3.61489e-08
-2.33671e-10
-3.92478e-08
-2.78241e-10
-4.34792e-08
-3.258e-10
-4.66845e-08
-3.75468e-10
-4.9298e-08
-4.35861e-10
-5.62353e-08
-5.03381e-10
-6.34946e-08
-5.80718e-10
-7.00321e-08
-6.71574e-10
-7.69601e-08
-7.87712e-10
-8.74825e-08
-9.3051e-10
-9.4937e-08
-1.1078e-09
-1.03179e-07
-1.3173e-09
-1.09475e-07
-1.52852e-09
-1.03677e-07
-1.72856e-09
-9.54407e-08
-1.95587e-09
-1.00127e-07
-2.23415e-09
-1.11824e-07
-2.57435e-09
-1.23554e-07
-2.98571e-09
-1.34271e-07
-3.48566e-09
-1.48703e-07
-4.10096e-09
-1.74649e-07
-4.62349e-09
-1.71742e-07
-4.77109e-09
-1.61623e-07
-4.46998e-09
-1.48707e-07
-3.71138e-09
-1.23532e-07
-2.9204e-09
-1.01711e-07
-2.09798e-09
-8.14321e-08
-1.53763e-09
-6.54314e-08
-1.14003e-09
-5.38393e-08
-8.73513e-10
-4.55768e-08
-6.84984e-10
-4.05632e-08
-5.50476e-10
-3.95773e-08
-4.66263e-10
-3.43549e-08
-4.17266e-10
-2.7517e-08
-3.84776e-10
-2.37689e-08
-3.59571e-10
-2.08554e-08
-3.37089e-10
-1.76578e-08
-3.06086e-10
-1.5243e-08
-2.51015e-10
-1.20847e-08
-1.52913e-10
-7.88458e-09
-2.76767e-09
-2.06891e-11
-6.57263e-09
6.28039e-12
-4.39535e-11
-1.04972e-08
-7.91745e-11
-1.4625e-08
-1.20707e-10
-1.82492e-08
-1.71384e-10
-2.31585e-08
-2.31036e-10
-2.82973e-08
-2.99146e-10
-3.28789e-08
-3.71725e-10
-3.59402e-08
-4.4845e-10
-3.9041e-08
-5.3309e-10
-4.32577e-08
-6.22692e-10
-4.64574e-08
-7.15931e-10
-4.90711e-08
-8.25097e-10
-5.59813e-08
-9.48135e-10
-6.3237e-08
-1.08409e-09
-6.97536e-08
-1.23724e-09
-7.66548e-08
-1.42201e-09
-8.71438e-08
-1.63792e-09
-9.45881e-08
-1.89204e-09
-1.02805e-07
-2.18026e-09
-1.09077e-07
-2.46365e-09
-1.03302e-07
-2.73188e-09
-9.50986e-08
-3.03219e-09
-9.97311e-08
-3.39095e-09
-1.11382e-07
-3.81566e-09
-1.23062e-07
-4.31689e-09
-1.33736e-07
-4.91803e-09
-1.48059e-07
-5.64111e-09
-1.73895e-07
-6.25197e-09
-1.71121e-07
-6.43444e-09
-1.61366e-07
-5.84129e-09
-1.48972e-07
-4.90413e-09
-1.23994e-07
-3.89912e-09
-1.0245e-07
-2.86056e-09
-8.21171e-08
-2.1263e-09
-6.58703e-08
-1.58836e-09
-5.4182e-08
-1.2185e-09
-4.58117e-08
-9.55595e-10
-4.07439e-08
-7.62299e-10
-3.97105e-08
-6.32764e-10
-3.44312e-08
-5.50851e-10
-2.75537e-08
-4.90354e-10
-2.37862e-08
-4.41058e-10
-2.08626e-08
-3.98798e-10
-1.76525e-08
-3.49339e-10
-1.52244e-08
-2.75467e-10
-1.20549e-08
-1.62011e-10
-7.85681e-09
-2.75654e-09
-2.22213e-11
-6.48796e-09
6.71825e-12
-4.46178e-11
-1.03829e-08
-8.01771e-11
-1.45159e-08
-1.23273e-10
-1.8129e-08
-1.76229e-10
-2.30157e-08
-2.35773e-10
-2.81299e-08
-3.05943e-10
-3.26987e-08
-3.8072e-10
-3.5741e-08
-4.58964e-10
-3.8834e-08
-5.45466e-10
-4.30363e-08
-6.37059e-10
-4.6234e-08
-7.32502e-10
-4.8846e-08
-8.44817e-10
-5.57278e-08
-9.69227e-10
-6.29463e-08
-1.10615e-09
-6.94186e-08
-1.26186e-09
-7.62953e-08
-1.45037e-09
-8.67481e-08
-1.67025e-09
-9.41726e-08
-1.92906e-09
-1.02368e-07
-2.22235e-09
-1.08632e-07
-2.5111e-09
-1.02887e-07
-2.78378e-09
-9.47209e-08
-3.08853e-09
-9.93238e-08
-3.45385e-09
-1.10885e-07
-3.88762e-09
-1.22502e-07
-4.39828e-09
-1.33109e-07
-5.01305e-09
-1.47361e-07
-5.75523e-09
-1.731e-07
-6.39139e-09
-1.70424e-07
-6.61454e-09
-1.60926e-07
-6.0199e-09
-1.48877e-07
-5.05683e-09
-1.24619e-07
-4.05642e-09
-1.03467e-07
-3.00593e-09
-8.28857e-08
-2.21191e-09
-6.6306e-08
-1.65921e-09
-5.45198e-08
-1.26607e-09
-4.60505e-08
-9.82849e-10
-4.09259e-08
-7.75011e-10
-3.98535e-08
-6.37141e-10
-3.45212e-08
-5.49996e-10
-2.75991e-08
-4.8626e-10
-2.38105e-08
-4.34707e-10
-2.0876e-08
-3.91482e-10
-1.76505e-08
-3.42064e-10
-1.52104e-08
-2.69044e-10
-1.20308e-08
-1.57047e-10
-7.83284e-09
-2.74674e-09
-1.89778e-11
-6.40512e-09
6.06312e-12
-3.62523e-11
-1.02742e-08
-6.55428e-11
-1.44114e-08
-1.01336e-10
-1.80089e-08
-1.44086e-10
-2.2875e-08
-1.9404e-10
-2.79704e-08
-2.50359e-10
-3.25114e-08
-3.10247e-10
-3.55468e-08
-3.72934e-10
-3.86393e-08
-4.43495e-10
-4.28306e-08
-5.18531e-10
-4.60193e-08
-5.95956e-10
-4.86249e-08
-6.87547e-10
-5.54809e-08
-7.89917e-10
-6.26603e-08
-9.04614e-10
-6.91176e-08
-1.03577e-09
-7.59768e-08
-1.1965e-09
-8.63942e-08
-1.38799e-09
-9.37778e-08
-1.61836e-09
-1.01945e-07
-1.88345e-09
-1.08175e-07
-2.14611e-09
-1.02446e-07
-2.39565e-09
-9.43242e-08
-2.67611e-09
-9.89196e-08
-3.01509e-09
-1.10411e-07
-3.42132e-09
-1.21938e-07
-3.90312e-09
-1.32451e-07
-4.49333e-09
-1.46638e-07
-5.21604e-09
-1.72282e-07
-5.83883e-09
-1.69693e-07
-6.05642e-09
-1.60396e-07
-5.59232e-09
-1.48756e-07
-4.73378e-09
-1.25423e-07
-3.78825e-09
-1.0459e-07
-2.81953e-09
-8.366e-08
-2.07887e-09
-6.67548e-08
-1.53834e-09
-5.48359e-08
-1.16463e-09
-4.62816e-08
-8.95737e-10
-4.1089e-08
-6.99175e-10
-3.99756e-08
-5.69083e-10
-3.46053e-08
-4.88749e-10
-2.76417e-08
-4.32222e-10
-2.38316e-08
-3.89808e-10
-2.08824e-08
-3.53788e-10
-1.76457e-08
-3.1248e-10
-1.51947e-08
-2.49498e-10
-1.20076e-08
-1.47396e-10
-7.80941e-09
-2.73804e-09
-2.24827e-11
-6.32661e-09
6.86013e-12
-4.1807e-11
-1.01708e-08
-7.4335e-11
-1.43094e-08
-1.14905e-10
-1.78925e-08
-1.62793e-10
-2.27426e-08
-2.18741e-10
-2.78242e-08
-2.83483e-10
-3.23372e-08
-3.51585e-10
-3.53591e-08
-4.23356e-10
-3.84498e-08
-5.02507e-10
-4.26259e-08
-5.86251e-10
-4.57965e-08
-6.73454e-10
-4.83927e-08
-7.75771e-10
-5.52151e-08
-8.90166e-10
-6.23748e-08
-1.01672e-09
-6.88014e-08
-1.16051e-09
-7.56224e-08
-1.3349e-09
-8.59843e-08
-1.54076e-09
-9.33466e-08
-1.78386e-09
-1.01453e-07
-2.06039e-09
-1.07641e-07
-2.33432e-09
-1.01958e-07
-2.59345e-09
-9.38771e-08
-2.88414e-09
-9.84397e-08
-3.23369e-09
-1.09898e-07
-3.64903e-09
-1.21367e-07
-4.14113e-09
-1.31834e-07
-4.73851e-09
-1.45911e-07
-5.46555e-09
-1.7142e-07
-6.08407e-09
-1.689e-07
-6.31096e-09
-1.59845e-07
-5.93555e-09
-1.48877e-07
-5.01e-09
-1.26476e-07
-4.03231e-09
-1.05571e-07
-2.96488e-09
-8.4479e-08
-2.19508e-09
-6.73549e-08
-1.64097e-09
-5.52666e-08
-1.24548e-09
-4.65595e-08
-9.58637e-10
-4.12782e-08
-7.39297e-10
-4.01149e-08
-5.95156e-10
-3.47032e-08
-5.03493e-10
-2.77011e-08
-4.3812e-10
-2.38673e-08
-3.88207e-10
-2.09009e-08
-3.45638e-10
-1.76517e-08
-3.00609e-10
-1.51913e-08
-2.37972e-10
-1.19947e-08
-1.39293e-10
-7.79409e-09
-2.73258e-09
-1.85049e-11
-6.24574e-09
5.86128e-12
-3.31182e-11
-1.00846e-08
-5.83883e-11
-1.42212e-08
-9.02695e-11
-1.77949e-08
-1.27894e-10
-2.26372e-08
-1.71244e-10
-2.77085e-08
-2.2128e-10
-3.22087e-08
-2.73164e-10
-3.52175e-08
-3.27388e-10
-3.82988e-08
-3.87952e-10
-4.24629e-08
-4.53055e-10
-4.56386e-08
-5.20374e-10
-4.82303e-08
-6.00131e-10
-5.50307e-08
-6.89386e-10
-6.21646e-08
-7.88886e-10
-6.85541e-08
-9.02654e-10
-7.53368e-08
-1.04399e-09
-8.56516e-08
-1.21295e-09
-9.29647e-08
-1.41649e-09
-1.01034e-07
-1.65278e-09
-1.07206e-07
-1.88847e-09
-1.01547e-07
-2.11235e-09
-9.34951e-08
-2.36494e-09
-9.80239e-08
-2.67167e-09
-1.09414e-07
-3.04136e-09
-1.20839e-07
-3.48228e-09
-1.31256e-07
-4.02123e-09
-1.45243e-07
-4.67991e-09
-1.70589e-07
-5.24998e-09
-1.68144e-07
-5.48544e-09
-1.59368e-07
-5.23239e-09
-1.49162e-07
-4.47513e-09
-1.2722e-07
-3.56964e-09
-1.06295e-07
-2.63429e-09
-8.52167e-08
-1.94815e-09
-6.79447e-08
-1.44579e-09
-5.56664e-08
-1.08679e-09
-4.68277e-08
-8.31496e-10
-4.1453e-08
-6.35259e-10
-4.02358e-08
-5.06052e-10
-3.47852e-08
-4.24915e-10
-2.77522e-08
-3.68786e-10
-2.38979e-08
-3.27247e-10
-2.09165e-08
-2.91969e-10
-1.76573e-08
-2.55351e-10
-1.51882e-08
-2.047e-10
-1.19837e-08
-1.21429e-10
-7.78094e-09
-2.72859e-09
-1.37372e-11
-6.19639e-09
4.81693e-12
-2.33533e-11
-1.0017e-08
-4.0527e-11
-1.41572e-08
-6.27692e-11
-1.77266e-08
-8.89374e-11
-2.25694e-08
-1.1771e-10
-2.76335e-08
-1.49664e-10
-3.21139e-08
-1.82933e-10
-3.51257e-08
-2.17866e-10
-3.82072e-08
-2.5782e-10
-4.23659e-08
-3.00299e-10
-4.55279e-08
-3.44459e-10
-4.81166e-08
-3.97819e-10
-5.49022e-08
-4.57659e-10
-6.20059e-08
-5.25877e-10
-6.83725e-08
-6.06728e-10
-7.5134e-08
-7.10689e-10
-8.54249e-08
-8.41353e-10
-9.27006e-08
-1.00517e-09
-1.00728e-07
-1.19969e-09
-1.06842e-07
-1.39625e-09
-1.01179e-07
-1.58502e-09
-9.31583e-08
-1.8004e-09
-9.76778e-08
-2.06555e-09
-1.09002e-07
-2.38972e-09
-1.20365e-07
-2.78234e-09
-1.30713e-07
-3.26729e-09
-1.44632e-07
-3.87226e-09
-1.69825e-07
-4.4067e-09
-1.6745e-07
-4.63714e-09
-1.58983e-07
-4.50967e-09
-1.4931e-07
-3.90089e-09
-1.27825e-07
-3.08209e-09
-1.06911e-07
-2.28173e-09
-8.59109e-08
-1.67238e-09
-6.84698e-08
-1.22709e-09
-5.6043e-08
-9.15908e-10
-4.70892e-08
-6.9196e-10
-4.16189e-08
-5.21979e-10
-4.03435e-08
-4.10452e-10
-3.48512e-08
-3.42308e-10
-2.7791e-08
-2.9758e-10
-2.39196e-08
-2.66433e-10
-2.09246e-08
-2.40933e-10
-1.76578e-08
-2.14151e-10
-1.51814e-08
-1.75421e-10
-1.19705e-08
-1.06426e-10
-7.76699e-09
-2.72485e-09
-1.58907e-11
-6.13482e-09
5.40418e-12
-2.74146e-11
-9.96917e-09
-4.66055e-11
-1.41102e-08
-7.09086e-11
-1.76803e-08
-9.97249e-11
-2.25269e-08
-1.32e-10
-2.75875e-08
-1.68084e-10
-3.2054e-08
-2.05685e-10
-3.50601e-08
-2.44869e-10
-3.81367e-08
-2.8879e-10
-4.22879e-08
-3.36252e-10
-4.54499e-08
-3.85225e-10
-4.80328e-08
-4.43165e-10
-5.47972e-08
-5.0925e-10
-6.18979e-08
-5.84196e-10
-6.82479e-08
-6.71777e-10
-7.49835e-08
-7.81923e-10
-8.52177e-08
-9.18479e-10
-9.24629e-08
-1.08653e-09
-1.00426e-07
-1.28594e-09
-1.06482e-07
-1.48825e-09
-1.00837e-07
-1.68193e-09
-9.28366e-08
-1.9008e-09
-9.73158e-08
-2.17e-09
-1.08597e-07
-2.4975e-09
-1.19899e-07
-2.89237e-09
-1.302e-07
-3.37689e-09
-1.44016e-07
-3.97937e-09
-1.69071e-07
-4.51874e-09
-1.66776e-07
-4.77237e-09
-1.58674e-07
-4.66715e-09
-1.49464e-07
-4.03519e-09
-1.28394e-07
-3.18863e-09
-1.07547e-07
-2.38935e-09
-8.66523e-08
-1.76284e-09
-6.90163e-08
-1.27843e-09
-5.6434e-08
-9.524e-10
-4.73673e-08
-7.19748e-10
-4.18119e-08
-5.42901e-10
-4.04729e-08
-4.23221e-10
-3.49287e-08
-3.47997e-10
-2.78373e-08
-2.97299e-10
-2.3949e-08
-2.61161e-10
-2.09407e-08
-2.31844e-10
-1.76658e-08
-2.0199e-10
-1.51825e-08
-1.62923e-10
-1.19645e-08
-9.8179e-11
-7.75861e-09
-2.72292e-09
-2.4466e-11
-6.12724e-09
7.27251e-12
-4.44265e-11
-9.94187e-09
-7.50046e-11
-1.40778e-08
-1.12233e-10
-1.76516e-08
-1.58364e-10
-2.25048e-08
-2.12372e-10
-2.75571e-08
-2.72606e-10
-3.20158e-08
-3.36037e-10
-3.50205e-08
-4.0249e-10
-3.80904e-08
-4.75848e-10
-4.22316e-08
-5.53432e-10
-4.53881e-08
-6.33978e-10
-4.7966e-08
-7.27853e-10
-5.4713e-08
-8.32304e-10
-6.17898e-08
-9.47922e-10
-6.81133e-08
-1.07838e-09
-7.48175e-08
-1.23671e-09
-8.50232e-08
-1.42249e-09
-9.22175e-08
-1.64259e-09
-1.0015e-07
-1.89396e-09
-1.06184e-07
-2.14173e-09
-1.0053e-07
-2.3776e-09
-9.25346e-08
-2.64238e-09
-9.69633e-08
-2.95916e-09
-1.08159e-07
-3.33552e-09
-1.19395e-07
-3.77954e-09