/*--------------------------------*- C++ -*----------------------------------*\
| =========                 |                                                 |
| \\      /  F ield         | OpenFOAM: The Open Source CFD Toolbox           |
|  \\    /   O peration     | Version:  2212                                  |
|   \\  /    A nd           | Website:  www.openfoam.com                      |
|    \\/     M anipulation  |                                                 |
\*---------------------------------------------------------------------------*/
FoamFile
{
    version     2.0;
    format      ascii;
    arch        "LSB;label=32;scalar=64";
    class       volScalarField;
    location    "6e-06";
    object      p;
}
// * * * * * * * * * * * * * * * * * * * * * * * * * * * * * * * * * * * * * //

dimensions      [1 -1 -2 0 0 0 0];

internalField   nonuniform List<scalar> 
25920
(
283453
283480
283461
283438
283430
283436
283529
283693
283781
283861
283878
283857
283789
283635
283571
283487
283328
283147
282778
282065
280927
278259
272799
264818
255925
247062
238516
230387
222685
216058
209890
204105
198575
193271
187205
180830
174562
169395
164392
160102
154880
150700
143272
142015
133030
134228
125830
281882
281887
281833
281768
281730
281753
281829
282002
282095
282087
282041
282000
281894
281636
281533
281526
281534
281419
281049
280354
279267
276669
271306
263457
254628
245779
237257
229132
221451
214825
208669
202874
197357
192037
185984
179604
173354
168171
163208
158899
153702
149410
142100
140727
131813
133049
125002
289490
289488
289487
289490
289493
289463
289563
289778
289895
289948
289977
289937
289856
289700
289617
289550
289397
289294
289026
288365
287412
285463
280229
272486
263516
254322
245519
237110
229161
222291
215949
210110
204447
198966
192788
186223
179764
174356
169255
164758
159444
154935
147848
145740
137052
137742
130340
296822
296805
296820
296839
296834
296797
296800
296978
297205
297313
297327
297269
297251
297209
297164
297135
296977
296767
296409
295828
294916
293252
288416
280670
271499
261973
252862
244158
235926
228797
222251
216167
210400
204758
198415
191658
184994
179380
174132
169498
164055
159313
151954
149731
140847
141471
133499
305663
305665
305658
305647
305656
305682
305521
305491
305661
305895
306015
306040
306052
306087
305961
305895
305863
305596
305185
304672
303763
302231
297818
290562
281286
271430
261998
252979
244442
237017
230228
223902
217908
212082
205568
198592
191701
185861
180422
175620
170030
165099
157396
155001
145771
146470
137976
314433
314446
314424
314377
314386
314402
314237
313966
313986
314169
314367
314469
314555
314617
314475
314374
314330
314159
313806
313278
312326
310760
306658
299917
290759
280678
270981
261698
252869
245174
238156
231605
225386
219333
212614
205413
198302
192271
186657
181696
175972
170917
162889
160315
150733
151517
142756
323936
323949
323902
323846
323770
323714
323630
323308
323128
323178
323337
323575
323688
323689
323594
323522
323449
323293
322895
322445
321431
319723
316066
309867
300952
290737
280816
271301
262178
254231
246972
240185
233742
227490
220570
213141
205801
199559
193766
188625
182753
177462
169216
166345
156518
157218
148040
333163
333189
333088
333024
332927
332872
332756
332597
332262
332174
332312
332520
332584
332588
332500
332448
332407
332272
331733
331338
330347
328605
325354
319641
310956
300725
290665
280966
271579
263384
255907
248905
242261
235818
228690
221033
213467
207006
201017
195697
189688
184226
175764
172607
162637
163219
153829
342851
342884
342742
342633
342594
342578
342410
342200
341986
341892
341996
342120
342085
342061
342043
341963
341862
341788
341304
340816
339966
338464
335458
330361
321920
311724
301568
291683
282044
273617
265948
258739
251884
245246
237937
230048
222259
215589
209395
203865
197672
192020
183402
179920
169802
170246
160258
352126
352148
352013
351909
351838
351798
351613
351414
351340
351224
351212
351289
351292
351267
351257
351207
351039
350958
350673
350164
349276
347985
345126
340517
332371
322236
312072
302066
292175
283567
275747
268349
261304
254497
247024
238893
230899
224030
217635
211924
205529
199834
190913
187342
176974
177406
167179
362265
362264
362142
362053
361874
361746
361605
361483
361421
361314
361180
361123
361134
361189
361254
361273
361069
360941
360719
360285
359336
358133
355368
351239
343458
333546
323399
313203
303099
294306
286326
278746
271525
264571
256933
248602
240400
233328
226728
220827
214190
208358
199173
195490
184773
185244
174451
372631
372617
372489
372380
372170
372022
371910
371784
371685
371658
371563
371382
371321
371343
371465
371508
371360
371254
371012
370627
369702
368538
365763
362075
354615
344916
334798
324383
314066
305121
296982
289192
281772
274657
266838
258272
249852
242575
235770
229673
222835
216900
207362
203753
192620
193092
182072
383962
383932
383790
383655
383435
383289
383191
383046
382968
382975
382911
382715
382595
382548
382536
382532
382466
382415
382156
381980
381088
379878
377209
373920
366866
357535
347536
336879
326306
317180
308851
300853
293222
285928
277890
269076
260468
252998
245989
239682
232604
226409
216651
212915
201353
201819
190155
395214
395151
394972
394828
394580
394401
394295
394111
394022
393990
393799
393646
393500
393349
393235
393197
393179
393141
392844
392679
391837
390790
388305
385275
378525
369602
359749
348873
338107
328858
320336
312121
304315
296865
288637
279596
270766
263074
255855
249359
242065
235702
225631
221875
209983
210367
198510
407033
406912
406695
406538
406288
406098
405961
405732
405575
405447
405179
405036
404866
404677
404471
404357
404310
404279
403948
403735
403022
402198
399869
397127
390697
382435
372787
361720
350771
341366
332646
324182
316186
308606
300214
290947
281900
273973
266530
259829
252329
245717
235478
231492
219310
219626
207151
418550
418393
418138
417968
417678
417458
417273
417156
416961
416733
416438
416194
415980
415840
415581
415326
415218
415187
414855
414655
414076
413393
411220
408748
402602
395045
385587
374305
363185
353637
344705
335994
327834
320123
311557
302079
292850
284708
277031
270101
262352
255643
245041
241047
228510
228785
215977
430882
430697
430375
430160
429821
429566
429299
429176
428962
428709
428409
428080
427808
427636
427349
427044
426808
426698
426439
426303
425761
425137
423197
421026
415206
408465
399329
387914
376690
366967
357781
348826
340483
332609
323808
314073
304650
296300
288374
281161
273112
266246
255374
251319
238267
238586
225174
443368
443122
442712
442424
442017
441730
441365
441135
440845
440589
440255
439919
439587
439326
438941
438645
438301
438043
437835
437726
437142
436562
434848
432894
427344
421376
412599
401091
389834
379936
370428
361223
352790
344787
335750
325789
316165
307576
299419
291987
283626
276647
265412
261447
247890
248230
234604
456838
456523
456027
455676
455189
454846
454399
454065
453682
453404
453018
452667
452246
451895
451419
451124
450644
450280
450010
449892
449309
448774
447219
445421
440164
435040
426665
415317
404127
394036
384190
374738
366175
357989
348647
338454
328627
319803
311428
303804
295225
287862
276480
272206
258361
258626
244211
469970
469608
469045
468659
468109
467710
467210
466826
466393
466078
465643
465258
464746
464346
463838
463530
462946
462564
462132
461947
461448
460978
459516
457847
452857
448441
440434
429339
418299
407997
397804
388142
379440
371050
361405
351004
340999
331941
323330
315474
306598
299098
287312
283089
268756
269054
254492
483387
482984
482357
481935
481326
480868
480312
479904
479438
479084
478596
478162
477570
477148
476620
476293
475653
475294
474673
474382
473941
473548
472192
470691
465994
462254
454599
444115
433314
422782
412234
402388
393600
385021
375078
364478
354268
344946
336061
327903
318799
310934
298984
294531
279870
280048
264790
496324
495887
495204
494747
494086
493581
492974
492542
492046
491662
491125
490646
489995
489543
488967
488604
487921
487554
486806
486438
485957
485586
484380
483057
478650
475472
468025
458572
447997
437110
426221
416275
407395
398566
388378
377694
367318
357763
348676
340294
330939
322896
310597
306114
291166
291206
275698
509661
509202
508476
507990
507290
506752
506101
505650
505125
504719
504141
503631
502953
502487
501872
501495
500785
500415
499614
499215
498650
498273
497276
496145
492034
489381
482085
474007
463858
452717
441631
431640
422581
413447
403011
392200
381656
371907
362624
354012
344361
335899
323511
318692
303536
303367
287295
523026
522548
521784
521273
520541
519979
519293
518820
518268
517844
517234
516700
515995
515511
514857
514466
513721
513328
512503
512095
511416
510988
510153
509220
505408
503152
495933
489176
479528
468195
457070
447062
437793
428347
417706
406728
395918
385934
376463
367656
357766
349093
336396
331522
316087
315774
299269
537257
536751
535940
535395
534621
534028
533299
532798
532211
531763
531115
530551
529808
529300
528602
528191
527399
526978
526105
525674
524898
524392
523658
522882
519434
517514
510407
504840
495869
484537
473564
463533
453952
444187
433458
422327
411224
401018
391364
382320
372176
363216
350222
345164
329317
328902
311979
551297
550769
549919
549346
548539
547920
547157
546634
546019
545550
544873
544287
543508
542982
542250
541824
540997
540559
539639
539183
538364
537820
537122
536443
533395
531761
524886
520262
511937
501007
490315
480157
470170
460169
449438
438082
426675
416309
406516
397267
386872
377671
364457
359105
343094
342502
325266
565932
565395
564520
563933
563104
562475
561689
561157
560524
560045
559350
558753
557949
557417
556660
556230
555381
554937
553982
553509
552664
552110
551447
550842
548207
546790
540372
536534
528686
518806
508558
498174
487796
477699
466996
455295
443583
433109
423171
413678
403055
393561
380033
374368
357973
357251
339544
580450
579909
579011
578411
577564
576925
576118
575578
574929
574441
573729
573124
572295
571759
570979
570545
569676
569225
568242
567755
566882
566310
565672
565143
562915
561676
555817
552553
544810
536545
526827
516128
505503
495436
484672
472522
460558
450009
439906
430179
419378
409739
395940
389939
373299
372486
354419
595715
595168
594244
593631
592760
592112
591281
590731
590064
589567
588836
588221
587367
586826
586022
585582
584691
584234
583222
582720
581816
581216
580578
580093
578259
577238
572000
569226
561384
554809
545879
534957
524393
514413
503422
490822
478719
468072
457736
447741
436774
426958
412808
406427
389346
388456
369993
611578
611016
610053
609413
608505
607834
606966
606395
605700
605182
604420
603783
602891
602332
601492
601036
600108
599633
598576
598049
597099
596458
595776
595287
593788
592985
588389
586047
578135
572753
564776
554083
543789
533800
522349
509446
497291
486445
475807
465575
454494
444541
430012
423341
405814
404902
386156
628129
627549
626540
625870
624917
624220
623310
622714
621987
621446
620649
619985
619050
618470
617591
617115
616146
615650
614541
613986
612983
612303
611548
611021
609793
609157
605260
603356
595471
590944
583721
574078
564130
553976
541995
529105
516918
505724
494745
484323
473144
462957
448006
441038
422966
421953
402876
645092
644490
643428
642721
641716
640987
640028
639400
638635
638065
637226
636528
635543
634932
634008
633506
632485
631962
630789
630201
629136
628414
627561
626979
625907
625378
622170
620657
613044
609130
602254
594281
584726
574225
561914
549296
536946
525277
513998
503478
492184
481681
466335
459185
440572
439394
419837
662489
661849
660711
659950
658870
658088
657062
656386
655567
654952
654053
653303
652249
651588
650604
650057
648967
648398
647139
646500
645352
644576
643594
642939
641889
641392
638783
637544
630540
627101
620319
613768
604860
594020
581852
569504
556794
544626
533160
522615
511120
500150
484430
477205
458063
456614
436430
680026
679321
678074
677230
676043
675179
674056
673305
672409
671725
670741
669909
668758
668018
666950
666329
665146
664503
663125
662407
661149
660293
659163
658413
657253
656708
654555
653458
647265
644239
637408
631656
623450
612747
601028
588683
575491
562938
551397
540830
529046
517507
501460
494257
474649
472847
452138
697726
696939
695563
694618
693306
692340
691104
690261
689274
688507
687423
686491
685228
684390
683226
682512
681228
680486
678982
678163
676778
675826
674545
673702
672367
671717
669850
668809
663529
660963
653934
648700
640984
631126
619919
607277
593643
580896
569332
558690
546513
534356
518058
510853
490854
488588
467376
715603
714729
713218
712166
710725
709650
708296
707357
706275
705420
704233
703195
701816
700876
699612
698800
697411
696560
694932
694006
692487
691436
690006
689063
687570
686784
685037
683981
679633
677603
670321
665537
658011
649720
638908
625774
611856
599149
587546
576748
564057
551340
534884
527594
507300
504482
482634
733460
732491
730838
729671
728092
726899
725420
724377
723194
722245
720948
719795
718296
717243
715874
714956
713457
712487
710730
709688
708029
706871
705288
704238
702596
701674
699904
698794
695200
693676
686299
681951
674517
667809
657393
643734
629782
617302
605600
594506
581238
568120
551587
544080
523556
520195
497710
751262
750191
748389
747100
745378
744059
742448
741294
740005
738957
737545
736269
734644
733470
731993
730961
729347
728253
726360
725196
723389
722118
720377
719215
717425
716373
714510
713333
710231
709072
701917
698043
690734
685138
675220
661238
647514
635319
623461
611905
598080
584735
568184
560303
539586
535723
512718
768983
767818
765881
764479
762628
761193
759461
758205
756819
755678
754163
752772
751034
749748
748172
747035
745315
744106
742087
740811
738868
737494
735607
734344
732417
731254
729292
728071
725240
724238
717738
714378
707210
702397
692935
679132
665860
653929
641896
629707
615445
602029
585509
577094
556222
551894
528447
786617
785377
783335
781843
779891
778364
776536
775198
773736
772519
770923
769439
767613
766235
764581
763359
761555
760254
758133
756770
754713
753262
751251
749911
747869
746624
744578
743346
740666
739640
734086
731322
724323
720157
710847
698172
685426
673666
661478
648605
634097
620774
604202
595184
574160
569453
545524
803795
802502
800387
798832
796808
795217
793320
791924
790408
789137
787484
785932
784045
782601
780892
779607
777743
776377
774182
772759
770616
769115
767008
765618
763484
762186
760075
758831
756290
755111
750544
748345
741690
738165
728564
717795
705873
694064
681702
668284
653896
640700
623804
614356
593122
588182
563759
819323
818015
815877
814305
812257
810647
808728
807312
805780
804488
802821
801242
799340
797869
796144
794836
792952
791563
789340
787903
785719
784213
782056
780660
778478
777169
775026
773799
771385
770109
766344
764609
758492
755634
745808
736966
726232
714188
701463
688387
674367
661042
643486
634081
612526
607532
582728
833110
831833
829726
828188
826169
824592
822700
821308
819801
818527
816889
815331
813463
812011
810312
809023
807164
805801
803600
802198
800024
798562
796407
795052
792872
791599
789467
788299
785988
784747
781591
780256
774731
772413
762920
755953
746118
733946
720905
709283
695517
681753
663544
654431
632540
627660
602516
846475
845245
843186
841700
839726
838197
836352
834996
833529
832285
830692
829170
827352
825934
824276
823020
821200
819880
817717
816367
814220
812818
810683
809384
807223
806001
803896
802791
800555
799426
796691
795670
790759
788670
780189
775035
765235
753369
740996
730587
717117
702838
684213
675368
653180
648461
622870
860522
859312
857273
855810
853854
852343
850518
849172
847723
846486
844914
843399
841605
840193
838553
837304
835499
834191
832040
830712
828564
827193
825051
823778
821609
820409
818303
817213
815024
813994
811494
810619
806325
804304
797059
793363
782896
772261
761082
751135
737848
723526
704671
695866
673470
668804
642767
875793
874563
872502
871016
869033
867493
865649
864273
862809
861542
859954
858402
856589
855141
853482
852200
850373
849032
846848
845496
843301
841914
839721
838428
836209
834987
832832
831706
829516
828526
826137
825251
821535
819731
813342
810615
799612
790919
780470
770838
757445
743703
724676
715702
693117
688421
662043
892344
891073
888965
887432
885401
883805
881921
880490
878994
877676
876052
874437
872580
871072
869373
868034
866163
864761
862520
861115
858847
857416
855144
853803
851506
850236
847999
846820
844580
843580
841243
840300
837049
835610
829760
827534
816626
810099
799866
790707
777125
764370
745203
735993
713170
708425
681746
909928
908617
906462
904879
902804
901146
899224
897734
896206
894833
893171
891489
889587
888013
886272
884870
882953
881484
879182
877718
875372
873889
871532
870136
867754
866430
864100
862867
860549
859510
857194
856230
853284
852159
846816
844742
834797
829961
819806
811452
797854
786233
767009
757631
734543
729738
702729
928048
926706
924517
922887
920784
919067
917119
915573
914019
912594
910900
909154
907212
905575
903795
902332
900373
898836
896478
894953
892530
890996
888553
887101
884633
883253
880826
879542
877132
876043
873710
872742
869975
869011
864193
862329
853529
849915
839731
832702
819305
808837
789674
780295
756979
752097
724722
945981
944619
942422
940754
938645
936879
934920
933328
931757
930290
928572
926774
924801
923111
921301
919782
917791
916190
913786
912202
909711
908128
905604
904100
901549
900116
897593
896261
893753
892613
890234
889251
886576
885678
881302
879814
871912
869149
859179
853639
840532
831287
812352
803176
779702
774779
747044
962941
961578
959420
957735
955656
953865
951922
950307
948739
947249
945529
943702
941720
939995
938175
936617
934612
932963
930535
928906
926368
924750
922162
920621
918001
916529
913925
912557
909959
908778
906342
905338
902704
901839
897789
896692
889486
887222
878017
873685
860964
853051
834519
825763
802232
797355
769343
978500
977171
975118
973462
971467
969701
967819
966223
964693
963217
961529
959715
957762
956040
954242
952676
950692
949025
946612
944966
942420
940794
938176
936627
933969
932484
929829
928450
925790
924589
922108
921090
918483
917648
913847
913068
906427
904707
896293
892957
880868
874360
856417
848335
824895
820201
792090
992262
991038
989187
987647
985824
984169
982427
980922
979491
978092
976501
974773
972920
971267
969551
968038
966136
964515
962187
960585
958100
956526
953944
952446
949808
948372
945721
944385
941719
940548
938059
937066
934507
933722
930158
929650
923529
922609
914753
912436
901186
896237
879141
872138
849041
844729
816695
1.0038e+06
1.00276e+06
1.00122e+06
999894
998342
996901
995391
994064
992805
991559
990145
988591
986925
985422
983862
982472
980729
979230
977073
975589
973252
971800
969338
967959
965421
964100
961529
960299
957695
956614
954168
953255
950770
950074
946749
946461
940941
940803
933390
932268
921863
918597
902608
897153
874826
871152
843399
1.01309e+06
1.01228e+06
1.01107e+06
1.01002e+06
1.00879e+06
1.00763e+06
1.00641e+06
1.00532e+06
1.00429e+06
1.00326e+06
1.00209e+06
1.00078e+06
999377
998094
996756
995554
994036
992727
990817
989512
987400
986124
983857
982645
980276
979113
976688
975606
973121
972173
969815
969018
966624
966036
962923
962797
958013
958202
951595
951438
941705
940270
925299
921931
900697
897892
870813
1.02034e+06
1.01974e+06
1.01886e+06
1.01808e+06
1.01716e+06
1.01629e+06
1.01537e+06
1.01455e+06
1.01376e+06
1.01296e+06
1.01206e+06
1.01104e+06
1.00994e+06
1.00892e+06
1.00785e+06
1.00689e+06
1.00565e+06
1.00459e+06
1.003e+06
1.00193e+06
1.00012e+06
999080
997088
996091
993969
993004
990795
989896
987592
986810
984589
983930
981658
981199
978289
978270
974135
974458
969026
969305
960581
960477
946601
945527
925442
924057
897905
1.02552e+06
1.02511e+06
1.0245e+06
1.02396e+06
1.02332e+06
1.02271e+06
1.02206e+06
1.02147e+06
1.02091e+06
1.02034e+06
1.01968e+06
1.01895e+06
1.01814e+06
1.01739e+06
1.0166e+06
1.01588e+06
1.01495e+06
1.01416e+06
1.01293e+06
1.01214e+06
1.01069e+06
1.00993e+06
1.00829e+06
1.00757e+06
1.00578e+06
1.00508e+06
1.00318e+06
1.00253e+06
1.0005e+06
999942
997945
997486
995417
995105
992461
992532
989009
989349
985049
985528
978449
978915
967000
967185
949109
948988
924653
1.02878e+06
1.02851e+06
1.02811e+06
1.02775e+06
1.02733e+06
1.02692e+06
1.02648e+06
1.02608e+06
1.0257e+06
1.02531e+06
1.02487e+06
1.02436e+06
1.0238e+06
1.02329e+06
1.02273e+06
1.02223e+06
1.02157e+06
1.02102e+06
1.02012e+06
1.01959e+06
1.01851e+06
1.01801e+06
1.01674e+06
1.01629e+06
1.01487e+06
1.01445e+06
1.0129e+06
1.01254e+06
1.01085e+06
1.01056e+06
1.00887e+06
1.00865e+06
1.00688e+06
1.00678e+06
1.00454e+06
1.00467e+06
1.00183e+06
1.00215e+06
998885
999405
994084
994838
985469
986186
971162
971553
950377
1.03074e+06
1.03057e+06
1.03031e+06
1.03007e+06
1.0298e+06
1.02953e+06
1.02925e+06
1.02899e+06
1.02874e+06
1.02848e+06
1.02818e+06
1.02785e+06
1.02748e+06
1.02714e+06
1.02676e+06
1.02643e+06
1.02598e+06
1.02562e+06
1.02499e+06
1.02466e+06
1.02388e+06
1.02359e+06
1.02265e+06
1.02241e+06
1.02133e+06
1.02114e+06
1.01994e+06
1.01981e+06
1.01847e+06
1.0184e+06
1.01704e+06
1.01703e+06
1.01562e+06
1.01564e+06
1.01392e+06
1.01408e+06
1.01195e+06
1.01224e+06
1.00988e+06
1.01036e+06
1.00659e+06
1.00742e+06
1.00061e+06
1.00153e+06
990110
990675
973470
1.03196e+06
1.03185e+06
1.03169e+06
1.03154e+06
1.03136e+06
1.03119e+06
1.03101e+06
1.03085e+06
1.03069e+06
1.03052e+06
1.03033e+06
1.03012e+06
1.02988e+06
1.02966e+06
1.02942e+06
1.02921e+06
1.02891e+06
1.02869e+06
1.02826e+06
1.02807e+06
1.02753e+06
1.02738e+06
1.02671e+06
1.02661e+06
1.02582e+06
1.02578e+06
1.02489e+06
1.02489e+06
1.0239e+06
1.02393e+06
1.02294e+06
1.02299e+06
1.02198e+06
1.02204e+06
1.02081e+06
1.02096e+06
1.01945e+06
1.01969e+06
1.01807e+06
1.01846e+06
1.01594e+06
1.01668e+06
1.01201e+06
1.01288e+06
1.0049e+06
1.00546e+06
992520
1.03276e+06
1.03269e+06
1.03259e+06
1.03249e+06
1.03239e+06
1.03228e+06
1.03217e+06
1.03207e+06
1.03197e+06
1.03186e+06
1.03175e+06
1.03161e+06
1.03147e+06
1.03133e+06
1.03118e+06
1.03105e+06
1.03086e+06
1.03073e+06
1.03045e+06
1.03034e+06
1.02998e+06
1.02991e+06
1.02945e+06
1.02943e+06
1.02889e+06
1.02891e+06
1.02829e+06
1.02833e+06
1.02766e+06
1.02771e+06
1.02704e+06
1.02709e+06
1.02642e+06
1.02647e+06
1.02565e+06
1.02577e+06
1.02476e+06
1.02493e+06
1.02386e+06
1.02415e+06
1.02253e+06
1.02311e+06
1.02007e+06
1.02077e+06
1.01549e+06
1.016e+06
1.00687e+06
1.03327e+06
1.03323e+06
1.03317e+06
1.03311e+06
1.03305e+06
1.03299e+06
1.03292e+06
1.03286e+06
1.0328e+06
1.03274e+06
1.03267e+06
1.03259e+06
1.0325e+06
1.03242e+06
1.03232e+06
1.03225e+06
1.03213e+06
1.03205e+06
1.03188e+06
1.03182e+06
1.03159e+06
1.03157e+06
1.03126e+06
1.03127e+06
1.03092e+06
1.03095e+06
1.03055e+06
1.03059e+06
1.03016e+06
1.0302e+06
1.02977e+06
1.02981e+06
1.02938e+06
1.02942e+06
1.02889e+06
1.02898e+06
1.02833e+06
1.02845e+06
1.02777e+06
1.02796e+06
1.02696e+06
1.02736e+06
1.02548e+06
1.02599e+06
1.02262e+06
1.02305e+06
1.01693e+06
1.0336e+06
1.03357e+06
1.03354e+06
1.03351e+06
1.03347e+06
1.03343e+06
1.0334e+06
1.03336e+06
1.03333e+06
1.03329e+06
1.03325e+06
1.03321e+06
1.03315e+06
1.03311e+06
1.03305e+06
1.03301e+06
1.03294e+06
1.0329e+06
1.03279e+06
1.03277e+06
1.03262e+06
1.03262e+06
1.03243e+06
1.03244e+06
1.03222e+06
1.03225e+06
1.03201e+06
1.03204e+06
1.03177e+06
1.0318e+06
1.03154e+06
1.03157e+06
1.0313e+06
1.03133e+06
1.031e+06
1.03106e+06
1.03065e+06
1.03073e+06
1.03031e+06
1.03043e+06
1.02983e+06
1.03009e+06
1.02897e+06
1.02931e+06
1.02726e+06
1.02757e+06
1.02366e+06
1.03379e+06
1.03378e+06
1.03376e+06
1.03375e+06
1.03373e+06
1.03371e+06
1.03369e+06
1.03367e+06
1.03365e+06
1.03363e+06
1.03361e+06
1.03358e+06
1.03355e+06
1.03353e+06
1.0335e+06
1.03347e+06
1.03343e+06
1.03341e+06
1.03335e+06
1.03334e+06
1.03325e+06
1.03326e+06
1.03315e+06
1.03316e+06
1.03303e+06
1.03305e+06
1.03291e+06
1.03292e+06
1.03277e+06
1.03279e+06
1.03264e+06
1.03265e+06
1.0325e+06
1.03251e+06
1.03232e+06
1.03235e+06
1.03211e+06
1.03216e+06
1.03191e+06
1.03198e+06
1.03163e+06
1.03179e+06
1.03115e+06
1.03137e+06
1.03016e+06
1.03038e+06
1.02799e+06
1.0339e+06
1.0339e+06
1.03389e+06
1.03388e+06
1.03387e+06
1.03386e+06
1.03385e+06
1.03384e+06
1.03383e+06
1.03382e+06
1.03381e+06
1.03379e+06
1.03378e+06
1.03377e+06
1.03375e+06
1.03374e+06
1.03372e+06
1.03371e+06
1.03367e+06
1.03367e+06
1.03362e+06
1.03362e+06
1.03356e+06
1.03357e+06
1.0335e+06
1.03351e+06
1.03343e+06
1.03344e+06
1.03336e+06
1.03337e+06
1.03329e+06
1.03329e+06
1.03321e+06
1.03322e+06
1.03311e+06
1.03313e+06
1.03299e+06
1.03301e+06
1.03288e+06
1.03291e+06
1.03272e+06
1.03281e+06
1.03246e+06
1.03258e+06
1.03191e+06
1.03205e+06
1.03066e+06
1.03396e+06
1.03395e+06
1.03395e+06
1.03395e+06
1.03394e+06
1.03394e+06
1.03393e+06
1.03393e+06
1.03392e+06
1.03392e+06
1.03391e+06
1.0339e+06
1.0339e+06
1.03389e+06
1.03388e+06
1.03388e+06
1.03387e+06
1.03386e+06
1.03384e+06
1.03384e+06
1.03382e+06
1.03382e+06
1.03379e+06
1.03379e+06
1.03376e+06
1.03376e+06
1.03372e+06
1.03373e+06
1.03368e+06
1.03369e+06
1.03364e+06
1.03365e+06
1.0336e+06
1.03361e+06
1.03355e+06
1.03356e+06
1.03349e+06
1.0335e+06
1.03342e+06
1.03344e+06
1.03334e+06
1.03338e+06
1.0332e+06
1.03327e+06
1.03291e+06
1.03299e+06
1.03223e+06
1.03398e+06
1.03398e+06
1.03398e+06
1.03398e+06
1.03397e+06
1.03397e+06
1.03397e+06
1.03397e+06
1.03397e+06
1.03396e+06
1.03396e+06
1.03396e+06
1.03395e+06
1.03395e+06
1.03395e+06
1.03395e+06
1.03394e+06
1.03394e+06
1.03393e+06
1.03393e+06
1.03392e+06
1.03392e+06
1.0339e+06
1.0339e+06
1.03389e+06
1.03389e+06
1.03387e+06
1.03387e+06
1.03385e+06
1.03385e+06
1.03383e+06
1.03383e+06
1.03381e+06
1.03381e+06
1.03378e+06
1.03379e+06
1.03375e+06
1.03375e+06
1.03372e+06
1.03373e+06
1.03367e+06
1.0337e+06
1.0336e+06
1.03364e+06
1.03345e+06
1.0335e+06
1.0331e+06
1.03399e+06
1.03399e+06
1.03399e+06
1.03399e+06
1.03399e+06
1.03399e+06
1.03399e+06
1.03399e+06
1.03399e+06
1.03398e+06
1.03398e+06
1.03398e+06
1.03398e+06
1.03398e+06
1.03398e+06
1.03398e+06
1.03397e+06
1.03397e+06
1.03397e+06
1.03397e+06
1.03396e+06
1.03396e+06
1.03396e+06
1.03396e+06
1.03395e+06
1.03395e+06
1.03394e+06
1.03394e+06
1.03393e+06
1.03393e+06
1.03392e+06
1.03392e+06
1.03391e+06
1.03391e+06
1.0339e+06
1.0339e+06
1.03388e+06
1.03388e+06
1.03386e+06
1.03387e+06
1.03384e+06
1.03385e+06
1.03381e+06
1.03383e+06
1.03373e+06
1.03376e+06
1.03355e+06
1.034e+06
1.034e+06
1.034e+06
1.034e+06
1.034e+06
1.03399e+06
1.03399e+06
1.03399e+06
1.03399e+06
1.03399e+06
1.03399e+06
1.03399e+06
1.03399e+06
1.03399e+06
1.03399e+06
1.03399e+06
1.03399e+06
1.03399e+06
1.03399e+06
1.03399e+06
1.03398e+06
1.03398e+06
1.03398e+06
1.03398e+06
1.03398e+06
1.03398e+06
1.03397e+06
1.03397e+06
1.03397e+06
1.03397e+06
1.03396e+06
1.03396e+06
1.03396e+06
1.03396e+06
1.03395e+06
1.03395e+06
1.03394e+06
1.03394e+06
1.03393e+06
1.03394e+06
1.03392e+06
1.03393e+06
1.03391e+06
1.03392e+06
1.03387e+06
1.03388e+06
1.03378e+06
1.034e+06
1.034e+06
1.034e+06
1.034e+06
1.034e+06
1.034e+06
1.034e+06
1.034e+06
1.034e+06
1.034e+06
1.034e+06
1.034e+06
1.034e+06
1.034e+06
1.034e+06
1.034e+06
1.03399e+06
1.03399e+06
1.03399e+06
1.03399e+06
1.03399e+06
1.03399e+06
1.03399e+06
1.03399e+06
1.03399e+06
1.03399e+06
1.03399e+06
1.03399e+06
1.03398e+06
1.03398e+06
1.03398e+06
1.03398e+06
1.03398e+06
1.03398e+06
1.03398e+06
1.03398e+06
1.03397e+06
1.03397e+06
1.03397e+06
1.03397e+06
1.03396e+06
1.03396e+06
1.03395e+06
1.03396e+06
1.03393e+06
1.03394e+06
1.03389e+06
1.034e+06
1.034e+06
1.034e+06
1.034e+06
1.034e+06
1.034e+06
1.034e+06
1.034e+06
1.034e+06
1.034e+06
1.034e+06
1.034e+06
1.034e+06
1.034e+06
1.034e+06
1.034e+06
1.034e+06
1.034e+06
1.034e+06
1.034e+06
1.034e+06
1.034e+06
1.034e+06
1.034e+06
1.03399e+06
1.03399e+06
1.03399e+06
1.03399e+06
1.03399e+06
1.03399e+06
1.03399e+06
1.03399e+06
1.03399e+06
1.03399e+06
1.03399e+06
1.03399e+06
1.03399e+06
1.03399e+06
1.03398e+06
1.03398e+06
1.03398e+06
1.03398e+06
1.03398e+06
1.03398e+06
1.03397e+06
1.03397e+06
1.03394e+06
1.034e+06
1.034e+06
1.034e+06
1.034e+06
1.034e+06
1.034e+06
1.034e+06
1.034e+06
1.034e+06
1.034e+06
1.034e+06
1.034e+06
1.034e+06
1.034e+06
1.034e+06
1.034e+06
1.034e+06
1.034e+06
1.034e+06
1.034e+06
1.034e+06
1.034e+06
1.034e+06
1.034e+06
1.034e+06
1.034e+06
1.034e+06
1.034e+06
1.034e+06
1.034e+06
1.034e+06
1.034e+06
1.034e+06
1.034e+06
1.03399e+06
1.03399e+06
1.03399e+06
1.03399e+06
1.03399e+06
1.03399e+06
1.03399e+06
1.03399e+06
1.03399e+06
1.03399e+06
1.03398e+06
1.03399e+06
1.03397e+06
1.034e+06
1.034e+06
1.034e+06
1.034e+06
1.034e+06
1.034e+06
1.034e+06
1.034e+06
1.034e+06
1.034e+06
1.034e+06
1.034e+06
1.034e+06
1.034e+06
1.034e+06
1.034e+06
1.034e+06
1.034e+06
1.034e+06
1.034e+06
1.034e+06
1.034e+06
1.034e+06
1.034e+06
1.034e+06
1.034e+06
1.034e+06
1.034e+06
1.034e+06
1.034e+06
1.034e+06
1.034e+06
1.034e+06
1.034e+06
1.034e+06
1.034e+06
1.034e+06
1.034e+06
1.034e+06
1.034e+06
1.034e+06
1.034e+06
1.034e+06
1.034e+06
1.03399e+06
1.03399e+06
1.03399e+06
1.034e+06
1.034e+06
1.034e+06
1.034e+06
1.034e+06
1.034e+06
1.034e+06
1.034e+06
1.034e+06
1.034e+06
1.034e+06
1.034e+06
1.034e+06
1.034e+06
1.034e+06
1.034e+06
1.034e+06
1.034e+06
1.034e+06
1.034e+06
1.034e+06
1.034e+06
1.034e+06
1.034e+06
1.034e+06
1.034e+06
1.034e+06
1.034e+06
1.034e+06
1.034e+06
1.034e+06
1.034e+06
1.034e+06
1.034e+06
1.034e+06
1.034e+06
1.034e+06
1.034e+06
1.034e+06
1.034e+06
1.034e+06
1.034e+06
1.034e+06
1.034e+06
1.034e+06
1.034e+06
1.03399e+06
1.034e+06
1.034e+06
1.034e+06
1.034e+06
1.034e+06
1.034e+06
1.034e+06
1.034e+06
1.034e+06
1.034e+06
1.034e+06
1.034e+06
1.034e+06
1.034e+06
1.034e+06
1.034e+06
1.034e+06
1.034e+06
1.034e+06
1.034e+06
1.034e+06
1.034e+06
1.034e+06
1.034e+06
1.034e+06
1.034e+06
1.034e+06
1.034e+06
1.034e+06
1.034e+06
1.034e+06
1.034e+06
1.034e+06
1.034e+06
1.034e+06
1.034e+06
1.034e+06
1.034e+06
1.034e+06
1.034e+06
1.034e+06
1.034e+06
1.034e+06
1.034e+06
1.034e+06
1.034e+06
1.034e+06
1.034e+06
1.034e+06
1.034e+06
1.034e+06
1.034e+06
1.034e+06
1.034e+06
1.034e+06
1.034e+06
1.034e+06
1.034e+06
1.034e+06
1.034e+06
1.034e+06
1.034e+06
1.034e+06
1.034e+06
1.034e+06
1.034e+06
1.034e+06
1.034e+06
1.034e+06
1.034e+06
1.034e+06
1.034e+06
1.034e+06
1.034e+06
1.034e+06
1.034e+06
1.034e+06
1.034e+06
1.034e+06
1.034e+06
1.034e+06
1.034e+06
1.034e+06
1.034e+06
1.034e+06
1.034e+06
1.034e+06