/*--------------------------------*- C++ -*----------------------------------*\
| =========                 |                                                 |
| \\      /  F ield         | OpenFOAM: The Open Source CFD Toolbox           |
|  \\    /   O peration     | Version:  2212                                  |
|   \\  /    A nd           | Website:  www.openfoam.com                      |
|    \\/     M anipulation  |                                                 |
\*---------------------------------------------------------------------------*/
FoamFile
{
    version     2.0;
    format      ascii;
    arch        "LSB;label=32;scalar=64";
    class       volScalarField;
    location    "0.016";
    object      alphat;
}
// * * * * * * * * * * * * * * * * * * * * * * * * * * * * * * * * * * * * * //

dimensions      [1 -1 -1 0 0 0 0];

internalField   nonuniform List<scalar> 
44662
(
0.000216655
0.00124276
0.00123691
0.00124807
0.00124332
0.000134619
0.000843684
0.000127364
0.000984921
0.00184555
0.000155072
0.000128768
0.000803838
0.000632554
3.95333e-05
0.000140751
4.43702e-05
4.8055e-05
0.00148656
0.00134522
0.00168407
4.65189e-05
0.00115536
0.00161725
5.95453e-05
0.00122727
0.000671989
0.000430237
0.000527228
0.000550699
1.55642e-05
0.0014276
1.45355e-05
0.000160486
0.000155352
0.00164768
0.00027286
0.000220111
0.00141562
0.000735538
0.000656573
0.000344916
0.000198006
0.00123883
0.00140215
0.000145775
0.000722131
0.00173595
0.00183234
0.00130723
0.0012272
0.000536316
0.000856212
2.45423e-05
0.00185641
0.000146921
0.000714977
0.000236804
0.000443869
0.000429095
0.000149168
2.9156e-05
0.00187626
0.000738397
0.00176765
0.000168553
6.9971e-05
3.61545e-05
0.000839278
0.000961148
2.54443e-05
0.000111884
0.000747591
0.000165824
0.000906092
0.000441643
6.99129e-05
0.000479313
0.000377296
6.75723e-05
0.000142568
0.000852316
0.00110508
0.000853176
0.000141666
0.00102741
0.000798318
0.00133085
0.00163028
0.000999843
0.000664125
0.000741078
0.00161395
7.56891e-05
0.0013913
0.00154995
0.000161842
0.00139371
0.00158845
0.00129836
0.00110607
0.00132217
0.00033852
6.27008e-05
0.000720975
0.00054828
0.000649703
0.000144585
0.00118291
0.000782194
0.00058287
0.000818452
0.00131864
0.00152237
9.62718e-05
0.000515719
0.000320501
0.00109258
3.23208e-05
0.000451628
0.000719456
0.000493628
0.000321298
0.000399979
0.000459923
0.00141994
0.000357041
0.000425983
0.00125555
0.000319286
0.000393372
0.000330889
0.00015246
0.000382487
0.000276036
0.000363944
0.00027568
0.000270945
0.000230948
0.000339093
0.000341864
0.000193914
0.000546843
0.000410713
0.000164702
0.0012537
0.001155
0.00114667
0.00141263
0.00125592
0.000775245
0.0012434
0.000164747
0.000105549
0.00137701
0.00140256
0.000738052
0.00111762
0.00111809
0.00111879
0.00111973
0.00112089
0.00112227
0.00112384
0.00112562
0.00112759
0.00112977
0.00113214
0.00113469
0.00113742
0.00114031
0.00114337
0.00114657
0.00114991
0.00115337
0.00115695
0.00116062
0.00116439
0.00116823
0.00117212
0.00117606
0.00118002
0.00118399
0.00118796
0.0011919
0.00119581
0.00119966
0.00120344
0.00120713
0.00121072
0.0012142
0.00121755
0.00122076
0.00122381
0.00122668
0.00122938
0.00123188
0.00123418
0.00123627
0.00123814
0.00123978
0.00124119
0.00124236
0.0012433
0.00124399
0.00124444
0.00124274
0.00124324
0.001242
3.1289e-05
0.00111739
0.00111436
0.00111397
0.00124464
0.00124462
0.00124347
0.00124347
0.00123979
0.00124101
0.00123665
0.00123833
0.00123261
0.00123474
0.00122773
0.00123027
0.00122208
0.001225
0.00121575
0.001219
0.00120882
0.00121235
0.00120142
0.00120517
0.00119371
0.00119759
0.00118582
0.00118978
0.00117784
0.00118183
0.00116989
0.00117385
0.00116209
0.00116596
0.00115458
0.00115829
0.00114747
0.00115097
0.00114086
0.00114409
0.00113484
0.00113777
0.00112947
0.00113207
0.00112483
0.00112706
0.00112097
0.0011228
0.00111797
0.00111936
0.00111591
0.00111681
0.00111528
0.00111575
0.00111495
0.00111796
0.00111676
0.00112096
0.00111936
0.00112476
0.00112276
0.00112933
0.00112695
0.00113464
0.00113189
0.00114064
0.00113756
0.00114724
0.00114387
0.00115435
0.00115074
0.00116186
0.00115806
0.00116968
0.00116574
0.00117767
0.00117366
0.00118571
0.00118169
0.00119366
0.00118971
0.00120137
0.00119755
0.00120872
0.0012051
0.00121562
0.00121224
0.00122193
0.00121885
0.00122758
0.00122485
0.00123245
0.00123012
0.00123648
0.00123457
0.00123959
0.00123815
0.00124175
0.00124079
0.00124295
0.00124247
0.00124319
0.00124317
0.00123875
0.00123936
0.00123789
2.83863e-05
3.25838e-05
0.00110523
0.00110469
0.00124319
0.00123977
0.00123956
0.00123921
0.00124293
0.00123905
0.0011138
0.00111738
0.00123969
0.00123543
0.00123677
0.00123205
0.00123385
0.00122779
0.00123003
0.00122268
0.00122533
0.00121681
0.00121984
0.00121023
0.0012136
0.00120304
0.00120671
0.00119536
0.00119924
0.00118739
0.00119139
0.0011793
0.00118336
0.00117115
0.00117523
0.00116301
0.00116708
0.00115501
0.00115899
0.00114729
0.00115111
0.00113997
0.00114358
0.00113316
0.0011365
0.00112694
0.00112997
0.00112137
0.00112407
0.00111649
0.00111884
0.00111236
0.00111432
0.00110918
0.00111065
0.00110709
0.00110799
0.0011065
0.000533644
0.00124432
0.00110688
0.00110596
0.00110928
0.00110799
0.00111242
0.00111075
0.00111636
0.00111429
0.00112108
0.00111862
0.00112658
0.00112374
0.00113276
0.00112959
0.00113956
0.00113609
0.00114688
0.00114316
0.0011546
0.00115069
0.00116264
0.00115859
0.00117087
0.00116674
0.00117915
0.00117501
0.00118734
0.00118327
0.00119528
0.00119135
0.00120285
0.00119912
0.00120996
0.00120647
0.00121651
0.00121331
0.00122238
0.00121953
0.00122747
0.00122503
0.00123171
0.0012297
0.00123503
0.00123349
0.00123738
0.00123632
0.00123876
0.00123818
0.00123909
0.00110434
0.00123346
0.00123355
0.00123206
0.00123285
0.00123101
0.00124235
0.00123857
0.0011149
0.00110421
0.00111384
0.00111756
0.00123304
0.00122494
0.00122469
0.0011141
0.00110431
0.00123333
0.00122816
0.0012297
0.0012244
0.00122639
0.00121976
0.00122219
0.00121429
0.00121713
0.00120804
0.00121126
0.00120108
0.00120464
0.00119346
0.00119734
0.00118532
0.00118944
0.00117695
0.00118116
0.00116853
0.00117275
0.00116007
0.0011643
0.0011516
0.00115583
0.00114325
0.0011474
0.00113518
0.00113917
0.00112752
0.0011313
0.00112038
0.00112388
0.00111382
0.00111702
0.00110792
0.00111079
0.00110266
0.0011052
0.00109812
0.00110028
0.00109463
0.00109623
0.00109242
0.00109337
0.0018001
0.00109177
0.00124258
0.0012437
0.00123902
0.00108876
0.00108916
0.00108885
0.00109038
0.00108968
0.00109235
0.00109128
0.00109502
0.00109359
0.00109842
0.00109661
0.00110262
0.00110042
0.00110763
0.00110502
0.00111341
0.00111042
0.00111991
0.00111658
0.00112703
0.0011234
0.00113468
0.0011308
0.00114276
0.00113867
0.00115115
0.00114692
0.00115975
0.00115543
0.00116841
0.00116408
0.00117698
0.00117272
0.00118529
0.00118117
0.00119324
0.00118932
0.00120073
0.00119705
0.00120764
0.00120426
0.00121388
0.00121085
0.00121933
0.00121671
0.00122393
0.00122174
0.00122758
0.00122588
0.00123026
0.00122904
0.00123197
0.00123123
0.00123272
0.00123245
0.00123239
0.00123272
0.0011046
0.00108887
0.00110614
0.00122486
0.00111505
0.00123234
0.00122416
0.00121408
0.00121405
0.00122388
0.00123177
0.00122345
0.0011179
0.00111453
0.00110511
0.00122142
0.00122272
0.00122375
0.00108916
0.00107006
0.00109113
0.00122444
0.00121805
0.00121985
0.00121378
0.00121603
0.00120863
0.00121131
0.00120264
0.00120574
0.00119588
0.00119935
0.00118838
0.00119222
0.00118019
0.00118437
0.00117144
0.00117586
0.00116253
0.00116702
0.00115362
0.00115806
0.00114472
0.00114918
0.00113579
0.00114025
0.00112695
0.00113134
0.0011184
0.00112263
0.00111026
0.00111427
0.00110265
0.00110638
0.00109564
0.00109906
0.00108927
0.00109237
0.00108349
0.0010863
0.00107841
0.00108084
0.00107451
0.00107629
0.00107203
0.00107312
0.00107646
0.00107125
0.00139537
0.0012415
0.00123781
0.00124171
0.00124281
0.00123821
0.00106763
0.00106763
0.00106753
0.00106844
0.00106794
0.00107006
0.00106915
0.00107238
0.00107114
0.00107541
0.00107381
0.00107919
0.0010772
0.00108377
0.00108137
0.00108917
0.00108637
0.00109537
0.00109217
0.00110229
0.00109874
0.00110986
0.001106
0.00111797
0.00111385
0.00112652
0.00112219
0.0011354
0.00113092
0.00114449
0.00113993
0.00115366
0.00114907
0.00116273
0.00115821
0.00117157
0.00116719
0.00118003
0.00117585
0.00118804
0.0011841
0.00119546
0.00119183
0.0012022
0.00119892
0.00120815
0.00120528
0.00121323
0.00121081
0.00121736
0.00121542
0.00122049
0.00121904
0.00122263
0.00122168
0.00122381
0.00122333
0.00122401
0.00108964
0.00106791
0.00110629
0.00121377
0.0012108
0.00121212
0.00120919
0.00121373
0.00123092
0.00122279
0.00104334
0.00106996
0.00104298
0.00111547
0.00111842
0.00111513
0.00110574
0.00109024
0.00106832
0.0010912
0.00121311
0.00120518
0.00120731
0.00120027
0.00120284
0.00119449
0.00119749
0.00118785
0.00119127
0.00118044
0.00118424
0.00117227
0.00117645
0.00116336
0.0011679
0.00115387
0.00115866
0.00114427
0.00114904
0.00113474
0.00113948
0.00112528
0.00113001
0.00111573
0.00112051
0.00110627
0.00111098
0.00109711
0.00110164
0.00108838
0.00109268
0.00108018
0.00108421
0.00107259
0.00107631
0.00106564
0.00106904
0.00105922
0.00106237
0.00105351
0.00105626
0.00104906
0.00105109
0.00104621
0.00104745
0.00104443
0.00104523
0.00104381
0.00124044
0.00123683
0.00124063
0.00124171
0.00123144
0.0012372
0.00121321
0.00122342
0.00104096
0.00104071
0.00104076
0.00104121
0.00104086
0.00104247
0.00104173
0.00104452
0.0010434
0.0010473
0.00104583
0.00105078
0.00104895
0.00105502
0.0010528
0.00106009
0.00105745
0.001066
0.00106294
0.00107271
0.00106926
0.00108017
0.00107635
0.00108828
0.00108415
0.00109696
0.00109256
0.0011061
0.00110148
0.00111559
0.00111081
0.00112529
0.00112042
0.00113508
0.00113018
0.00114479
0.00113995
0.00115427
0.00114957
0.0011634
0.00115889
0.00117205
0.00116779
0.00118011
0.00117616
0.00118748
0.00118389
0.00119405
0.00119087
0.00119974
0.00119701
0.00120445
0.00120222
0.00120816
0.00120643
0.00121086
0.00120963
0.00121255
0.00121182
0.00121312
0.001213
0.0012125
0.00121293
0.00106887
0.00104128
0.00104271
0.00106998
0.00110666
0.00120095
0.0012012
0.00120035
0.001116
0.00121248
0.00120088
0.00120041
0.00120017
0.00121183
0.00119976
0.00101027
0.00104241
0.00100946
0.00111907
0.00111587
0.00110648
0.00109098
0.00106952
0.00119806
0.0011964
0.00119442
0.00104173
0.00109143
0.00120114
0.00119939
0.00118967
0.00119217
0.001184
0.00118695
0.00117746
0.00118084
0.00117006
0.00117386
0.00116186
0.00116605
0.00115289
0.00115747
0.00114313
0.00114811
0.00113275
0.00113798
0.0011223
0.00112752
0.00111209
0.00111717
0.00110193
0.00110702
0.00109165
0.0010968
0.00108145
0.00108652
0.00107156
0.00107646
0.00106212
0.00106677
0.00105323
0.0010576
0.00104497
0.00104902
0.00103733
0.00104107
0.00103021
0.0010337
0.00102374
0.00102687
0.00101863
0.00102105
0.00101531
0.00101681
0.00101309
0.00101413
0.00101158
0.00101228
0.00101092
0.00122984
0.00122188
0.00123914
0.00123561
0.00123932
0.00124039
0.00123033
0.00123596
0.00122247
0.00100877
0.00100851
0.00100858
0.00100881
0.0010086
0.00100984
0.00100925
0.00101161
0.00101064
0.00101421
0.00101284
0.00101748
0.00101575
0.00102148
0.00101939
0.00102628
0.00102378
0.00103192
0.00102899
0.00103843
0.00103507
0.00104574
0.00104199
0.00105382
0.00104969
0.00106259
0.00105813
0.00107193
0.00106719
0.00108176
0.00107679
0.00109195
0.00108682
0.00110238
0.00109715
0.0011129
0.00110764
0.00112336
0.00111815
0.00113361
0.00112852
0.00114351
0.00113861
0.00115293
0.00114829
0.00116175
0.00115742
0.00116987
0.00116591
0.00117718
0.00117363
0.00118358
0.0011805
0.00118901
0.00118642
0.0011934
0.00119133
0.00119675
0.00119519
0.00119905
0.00119801
0.00120022
0.0011998
0.00120031
0.00104228
0.0010091
0.00107014
0.00110714
0.00118564
0.00118622
0.00118471
0.00117963
0.00118169
0.00117725
0.00118653
0.00118636
0.00121089
0.00119909
0.00100818
0.00104196
0.00111666
0.00111988
0.00111674
0.00110738
0.00109187
0.00107028
0.001043
0.00100955
0.00109181
0.00118648
0.00118339
0.00117165
0.00117457
0.00116511
0.00116848
0.00115769
0.00116151
0.00114941
0.00115365
0.00114032
0.00114496
0.00113044
0.00113548
0.0011197
0.00112517
0.00110831
0.00111405
0.00109691
0.00110259
0.00108589
0.00109136
0.00107492
0.00108042
0.00106379
0.00106936
0.00105274
0.00105824
0.00104202
0.00104733
0.00103177
0.00103683
0.0010221
0.00102686
0.00101307
0.0010175
0.00100469
0.0010088
0.000996802
0.00100069
0.000989542
0.000993059
0.000983779
0.000986451
0.000979949
0.00098166
0.000977294
0.000978527
0.0009754
0.000976272
0.000973878
0.000974615
0.000971871
0.000973044
0.00100611
0.000969753
0.0012285
0.00122073
0.0012376
0.00123415
0.00123777
0.00123882
0.00122898
0.00123448
0.00121151
0.0012213
0.00118597
0.00119971
0.000971406
0.000971196
0.000971249
0.000971534
0.000971274
0.000972454
0.000971935
0.000974066
0.000973189
0.000976423
0.000975135
0.000979531
0.00097789
0.000983369
0.000981337
0.000987953
0.000985559
0.000993357
0.000990545
0.00099964
0.000996389
0.0010068
0.00100312
0.0010148
0.0010107
0.00102359
0.0010191
0.00103307
0.00102825
0.00104317
0.00103805
0.00105378
0.00104842
0.00106477
0.00105923
0.00107601
0.00107037
0.00108737
0.00108169
0.00109868
0.00109304
0.00110979
0.00110427
0.00112057
0.00111523
0.00113087
0.00112578
0.00114056
0.0011358
0.00114954
0.00114515
0.00115769
0.00115372
0.00116492
0.00116142
0.00117115
0.00116816
0.00117632
0.00117386
0.00118042
0.00117849
0.00118342
0.00118204
0.00118528
0.00118452
0.00118588
0.00118571
0.00118543
0.00118579
0.00101019
0.000971747
0.00107032
0.00110778
0.00116828
0.00116924
0.00116695
0.00116062
0.00116311
0.00115779
0.00104163
0.00111751
0.00118532
0.00117038
0.00117007
0.00117
0.00118479
0.0011697
0.000968005
0.00100508
0.00112082
0.00111774
0.00110838
0.00109279
0.00107115
0.00104373
0.000972448
0.00101098
0.0010923
0.00117025
0.00117044
0.00116985
0.00116523
0.00115123
0.00115464
0.00114373
0.0011476
0.00113534
0.00113965
0.00112608
0.00113081
0.00111599
0.00112114
0.00110509
0.00111065
0.0010933
0.00109931
0.00108082
0.0010871
0.00106835
0.00107452
0.0010564
0.00106233
0.00104452
0.00105048
0.00103245
0.00103849
0.00102045
0.00102642
0.00100881
0.00101458
0.00099767
0.00100317
0.000987138
0.000992322
0.000977275
0.000982123
0.00096805
0.0009726
0.000959387
0.000963684
0.000951261
0.000955204
0.000944773
0.00094779
0.000940321
0.000942343
0.000937126
0.00093863
0.000934702
0.000935825
0.000932737
0.000933693
0.000930416
0.000931727
0.000925386
0.000928396
0.00097122
0.000927593
0.000925445
0.00120969
0.00119815
0.00122692
0.00121931
0.00123581
0.00123243
0.00123598
0.001237
0.00122738
0.00123277
0.00121031
0.00121988
0.00119876
0.000934957
0.000929996
0.00097386
0.000931617
0.000929458
0.000929488
0.000929835
0.000929607
0.000930778
0.000930233
0.000932273
0.000931449
0.00093441
0.0009333
0.000937347
0.000935798
0.000941015
0.000939105
0.000945428
0.000943122
0.000950634
0.000947937
0.000956703
0.00095357
0.000963673
0.00096007
0.000971539
0.000967491
0.000980274
0.0009758
0.000989816
0.000984946
0.00100009
0.000994867
0.00101101
0.00100548
0.00102246
0.00101668
0.00103432
0.00102835
0.00104646
0.00104037
0.00105874
0.00105259
0.00107098
0.00106487
0.00108305
0.00107705
0.0010948
0.00108898
0.00110607
0.0011005
0.00111673
0.00111148
0.00112666
0.00112179
0.00113575
0.00113132
0.0011439
0.00113995
0.00115102
0.00114759
0.00115707
0.00115419
0.001162
0.00115967
0.0011658
0.00116403
0.00116844
0.00116729
0.00116976
0.00116923
0.00117002
0.0010706
0.00110855
0.00114898
0.00115036
0.00114722
0.00115307
0.00115314
0.00118388
0.00116911
0.00104183
0.00111845
0.00100971
0.00112185
0.000929295
0.000973542
0.00111882
0.00110945
0.00109381
0.00107207
0.00104469
0.00101222
0.000976183
0.00089007
0.000935433
0.0011425
0.00113953
0.00113621
0.00109292
0.00115217
0.00115274
0.00115138
0.00114506
0.00112862
0.00113255
0.00112005
0.00112445
0.0011106
0.00111544
0.00110028
0.00110555
0.0010891
0.00109479
0.00107709
0.0010832
0.00106416
0.00107073
0.00105048
0.00105737
0.00103689
0.00104364
0.00102392
0.00103035
0.00101103
0.00101749
0.000997939
0.00100449
0.000984934
0.000991402
0.000972301
0.000978559
0.000960206
0.000966179
0.000948752
0.000954393
0.000938002
0.00094329
0.000927929
0.000932869
0.000918356
0.000923064
0.000909331
0.000913727
0.000901945
0.000905364
0.000896782
0.000899131
0.000892865
0.000894753
0.000889655
0.000891195
0.000886814
0.000888224
0.000883539
0.000885301
0.0008789
0.000881193
0.00087959
0.000878672
0.000930619
0.000881475
0.000880607
0.00120824
0.00119695
0.00122508
0.00121765
0.00123378
0.00123048
0.00123395
0.00123495
0.00122555
0.00123081
0.00120885
0.00121821
0.00118441
0.00119756
0.00115293
0.0011695
0.000886033
0.000888183
0.000885183
0.00088524
0.000885709
0.000885365
0.000886947
0.000886258
0.000888865
0.000887822
0.000891553
0.000890155
0.000894985
0.000893193
0.000899174
0.000896981
0.00090419
0.000901598
0.000910043
0.000906999
0.000916782
0.000913304
0.000924449
0.000920492
0.000933052
0.000928633
0.000942553
0.000937692
0.000952895
0.000947623
0.000964002
0.000958358
0.000975784
0.000969815
0.000988134
0.000981896
0.00100093
0.000994483
0.00101403
0.00100745
0.00102729
0.00102065
0.00104054
0.00103393
0.00105365
0.00104712
0.00106643
0.00106009
0.00107875
0.00107266
0.00109046
0.00108469
0.00110143
0.00109605
0.00111155
0.0011066
0.0011207
0.00111625
0.00112881
0.00112489
0.0011358
0.00113245
0.00114165
0.00113887
0.00114632
0.00114412
0.0011498
0.00114824
0.00115193
0.001151
0.00115293
0.00115257
0.00115276
0.00115299
0.00107122
0.00110945
0.00112789
0.00112974
0.00112565
0.00111652
0.00112
0.00111265
0.001044
0.00111949
0.00115244
0.00113481
0.00113471
0.00113495
0.00115225
0.00113481
0.00101253
0.00112297
0.000975145
0.00111997
0.000882154
0.000931551
0.00111056
0.00109485
0.00107313
0.00104588
0.00101384
0.000976772
0.000887535
0.000934095
0.00109373
0.00113416
0.00113463
0.00113242
0.00113341
0.0011312
0.00112303
0.00110399
0.00110847
0.00109426
0.00109925
0.00108369
0.00108909
0.00107222
0.00107807
0.00105988
0.00106616
0.00104669
0.00105339
0.00103255
0.00103973
0.00101763
0.00102514
0.00100285
0.00101019
0.000988756
0.000995752
0.000974809
0.000981803
0.000960642
0.000967737
0.000946572
0.000953568
0.000932908
0.000939677
0.000919815
0.000926283
0.000907401
0.000913519
0.000895726
0.00090147
0.00088473
0.000890145
0.000874259
0.000879449
0.000864311
0.000869175
0.000855944
0.000859889
0.000849976
0.000852583
0.000845219
0.000847517
0.000841077
0.000843089
0.00083721
0.000839137
0.000832948
0.000835202
0.000828567
0.000830565
0.000827946
0.000827861
0.000828556
0.000828239
0.000882811
0.000829222
0.000828892
0.0011827
0.00116825
0.00120654
0.00119549
0.00122301
0.00121574
0.00123152
0.00122829
0.00123169
0.00123266
0.00122347
0.00122862
0.00120715
0.0012163
0.00118324
0.0011961
0.00116865
0.000887302
0.000838197
0.000844551
0.000839661
0.00084026
0.000842914
0.000838554
0.000838948
0.000838997
0.000838631
0.000840418
0.000839609
0.000842738
0.000841509
0.000845878
0.000844266
0.000849822
0.000847756
0.000854573
0.000852088
0.000860153
0.000857254
0.000866649
0.000863269
0.000874064
0.000870237
0.00088244
0.000878121
0.000891791
0.000886995
0.000902073
0.000896818
0.000913232
0.000907546
0.000925193
0.000919117
0.000937869
0.000931449
0.000951152
0.000944442
0.000964914
0.000957981
0.00097902
0.000971934
0.000993316
0.000986154
0.00100764
0.00100048
0.00102183
0.00101476
0.00103572
0.00102882
0.00104916
0.00104251
0.00106198
0.00105565
0.00107406
0.00106812
0.00108527
0.00107979
0.0010955
0.00109052
0.00110466
0.00110022
0.00111268
0.00110882
0.00111952
0.00111624
0.00112513
0.00112247
0.00112952
0.0011275
0.00113251
0.00113115
0.00113434
0.00113357
0.00113479
0.00107255
0.00111046
0.00110518
0.00110752
0.00110245
0.00109177
0.00109577
0.00108733
0.00111528
0.00111559
0.00115146
0.00113438
0.0010463
0.00112065
0.0010144
0.0011242
0.00097631
0.00112118
0.00093242
0.00111173
0.000829616
0.000883509
0.001096
0.00107433
0.00104723
0.00101462
0.000976894
0.000839395
0.000934184
0.000888682
0.000789743
0.000841724
0.000793054
0.0010948
0.00111377
0.00111468
0.00111114
0.00111259
0.00110946
0.0010993
0.00107752
0.0010826
0.00106662
0.0010722
0.00105483
0.00106083
0.00104215
0.00104861
0.00102858
0.00103548
0.00101415
0.00102147
0.000998756
0.00100658
0.000982582
0.000990718
0.000966549
0.000974497
0.000951295
0.000958871
0.000936229
0.000943776
0.00092096
0.000928598
0.000905806
0.000913342
0.000891094
0.000898382
0.000876995
0.00088396
0.000863616
0.000870209
0.000851001
0.000857213
0.000839111
0.000844969
0.000827722
0.000833369
0.000816905
0.00082221
0.000807609
0.000811973
0.000800739
0.000803846
0.000795165
0.000797896
0.000790106
0.000792588
0.000785294
0.000787687
0.000780334
0.00078286
0.000775786
0.000777834
0.00077386
0.000774501
0.000773372
0.000773567
0.00077298
0.000773166
0.000830154
0.000772929
0.000772872
0.00118126
0.00116712
0.00120459
0.00119378
0.00122071
0.00121359
0.00122903
0.00122587
0.0012292
0.00123015
0.00122116
0.00122619
0.0012052
0.00121415
0.00118182
0.0011944
0.00115167
0.00116754
0.00111559
0.00113432
0.000787224
0.00078792
0.000790155
0.000788133
0.00078927
0.00078994
0.000788623
0.000788741
0.000789491
0.000788918
0.000791476
0.000790395
0.000794265
0.000792758
0.00079792
0.000796009
0.000802355
0.000800032
0.000807643
0.000804909
0.000813827
0.00081063
0.000820945
0.000817262
0.000829039
0.000824868
0.000838125
0.000833452
0.000848215
0.000843047
0.000859274
0.000853626
0.000871249
0.000865151
0.000884072
0.00087756
0.00089765
0.000890773
0.000911879
0.000904691
0.000926633
0.000919199
0.00094177
0.000934163
0.000957135
0.000949434
0.000972561
0.000964851
0.000987883
0.000980245
0.00100293
0.000995451
0.00101753
0.00101029
0.00103153
0.00102461
0.00104478
0.00103825
0.00105714
0.00105108
0.00106851
0.00106296
0.00107878
0.00107379
0.00108788
0.00108348
0.00109576
0.00109197
0.00110238
0.00109922
0.00110774
0.00110524
0.00111164
0.00110984
0.00111435
0.00111315
0.00111579
0.00111522
0.00111601
0.00111605
0.00107435
0.00111166
0.00108388
0.00108103
0.00104813
0.00112191
0.00111531
0.00109563
0.00109575
0.00109645
0.00111567
0.00109651
0.0010158
0.00112549
0.00097736
0.00112246
0.000933315
0.00111299
0.00088426
0.00109725
0.000773197
0.000830844
0.00107558
0.00104812
0.0010154
0.000977431
0.00107472
0.00133029
0.000935504
0.000891377
0.000845133
0.000646556
0.00077301
0.00107001
0.00079583
0.00106544
0.00109614
0.00109447
0.00109521
0.00109206
0.00109342
0.00108848
0.0010904
0.00108632
0.0010778
0.0010741
0.00104941
0.00106047
0.00105508
0.00103731
0.00104349
0.00102427
0.0010309
0.00101032
0.00101741
0.000995485
0.00100301
0.00097977
0.000987734
0.000963093
0.00097155
0.000945634
0.000954408
0.000928369
0.000936943
0.000911922
0.000920069
0.000895717
0.000903825
0.000879336
0.00088752
0.000863106
0.000871173
0.000847361
0.000855159
0.000832277
0.000839728
0.000817962
0.000825018
0.00080446
0.000811113
0.000791681
0.000797985
0.000779478
0.000785504
0.000767803
0.000773513
0.000757721
0.000762506
0.000750036
0.000753609
0.000743719
0.000746802
0.00073788
0.000740759
0.000732323
0.00073507
0.000726943
0.000729616
0.00072218
0.00072434
0.000719265
0.000720499
0.00071754
0.000718352
0.000716049
0.000716799
0.000714889
0.000715404
0.000773677
0.000714448
0.000714552
0.00115039
0.00113367
0.00117957
0.00116573
0.0012024
0.00119182
0.00121817
0.0012112
0.00122632
0.00122322
0.00122648
0.00122741
0.00121862
0.00122354
0.00120302
0.00121177
0.00118014
0.00119245
0.00115063
0.00116617
0.00113364
0.00073514
0.0007358
0.000736054
0.000735155
0.000736059
0.000736069
0.000736503
0.000736127
0.000738133
0.000737173
0.000740657
0.000739337
0.000744025
0.000742266
0.000748198
0.000746017
0.000753161
0.000750591
0.000758999
0.000755969
0.000765747
0.000762251
0.00077348
0.000769491
0.000782226
0.000777722
0.000791995
0.00078698
0.000802802
0.000797271
0.000814615
0.000808582
0.000827389
0.000820885
0.000841056
0.000834116
0.000855529
0.000848198
0.0008707
0.000863035
0.000886446
0.00087851
0.000902621
0.00089449
0.000919069
0.000910822
0.000935619
0.000927342
0.000952096
0.000943877
0.000968324
0.000960252
0.000984126
0.000976289
0.000999335
0.000991815
0.00101379
0.00100667
0.00102736
0.0010207
0.00103992
0.00103377
0.00105135
0.00104578
0.00106158
0.00105662
0.00107055
0.00106623
0.00107822
0.00107455
0.0010846
0.00108159
0.00108947
0.00108719
0.00109309
0.00109144
0.00109541
0.00109441
0.00109609
0.00107602
0.00111303
0.00107456
0.0010751
0.000234567
0.00111504
0.00109627
0.00104961
0.00112326
0.00101695
0.00112683
0.000978336
0.00112378
0.000934188
0.0011143
0.000885088
0.00109851
0.000831673
0.00107661
0.000715128
0.0007747
0.00104907
0.00101624
0.000978639
0.000937785
0.000894342
0.000847375
0.000795148
0.0007402
0.000516715
0.000717051
0.00133607
0.0010977
0.00107251
0.00107369
0.00106916
0.00107099
0.0010646
0.00106702
0.00105895
0.00106194
0.00105179
0.00105557
0.00104291
0.00104761
0.00103214
0.00103776
0.00101989
0.00102616
0.00100655
0.00101334
0.000992245
0.000999508
0.000977009
0.00098474
0.000960877
0.000969051
0.000943867
0.00095248
0.000925888
0.000934992
0.000907145
0.000916561
0.000888668
0.00089783
0.00087104
0.000879773
0.000853703
0.000862377
0.000836232
0.000844962
0.000818965
0.000827547
0.000802235
0.000810518
0.000786224
0.000794132
0.00077104
0.000778523
0.000756729
0.000763776
0.000743177
0.000749848
0.000730191
0.000736586
0.000717825
0.000723893
0.000707092
0.000712158
0.000698705
0.000702662
0.000691772
0.000695132
0.000685332
0.000688517
0.000679232
0.000682232
0.000673554
0.000676331
0.000668602
0.000670938
0.000665029
0.000666642
0.000662447
0.000663666
0.000660344
0.000661397
0.0006587
0.000659447
0.00065796
0.000658226
0.000595401
0.000583187
0.000658752
0.000465862
0.000630099
0.000418391
0.00114905
0.00113267
0.00117763
0.00116407
0.00119997
0.00118962
0.00121541
0.00120859
0.00122338
0.00122035
0.00122354
0.00122445
0.00121586
0.00122067
0.0012006
0.00120916
0.00117821
0.00119026
0.00114932
0.00116453
0.00111472
0.00113268
0.00107532
0.00109556
0.000682018
0.000682864
0.00068236
0.00068208
0.000682904
0.000682548
0.000683946
0.000683343
0.000685982
0.000684815
0.000688959
0.000687389
0.000692762
0.000690802
0.000697375
0.000695001
0.000702828
0.000700017
0.000709181
0.000705891
0.000716487
0.000712719
0.000724796
0.000720516
0.000734149
0.000729338
0.00074456
0.000739219
0.00075604
0.000750167
0.000768569
0.000762174
0.000782106
0.000775216
0.000796584
0.000789232
0.00081192
0.000804151
0.00082801
0.000819879
0.000844729
0.000836299
0.000861932
0.00085328
0.000879457
0.000870664
0.000897131
0.000888286
0.000914771
0.000905967
0.000932195
0.000923522
0.000949218
0.000940768
0.000965662
0.000957523
0.000981361
0.000973614
0.000996164
0.000988883
0.00100994
0.00100319
0.00102257
0.0010164
0.00103397
0.00102843
0.00104407
0.00103919
0.00105283
0.00104862
0.00106027
0.00105674
0.00106614
0.00106337
0.00107072
0.0010686
0.00107394
0.0010725
0.00107584
0.00107506
0.00107647
0.00107631
0.000689142
0.00107753
0.00111448
0.00105088
0.00112466
0.00107524
0.00105414
0.00105446
0.00105577
0.00107632
0.00105601
0.00101805
0.0011282
0.000979326
0.00112515
0.000935096
0.00111562
0.000885926
0.00109969
0.000832617
0.00107777
0.000775901
0.00105022
0.00101745
0.00107513
0.000980492
0.000462484
0.000940235
0.000896233
0.00079002
0.000731899
0.000679282
0.000720548
0.000668985
0.000847629
0.000661747
0.000616662
0.000609399
0.0010992
0.00105251
0.00105349
0.00104955
0.0010512
0.00104523
0.00104756
0.00103967
0.00104259
0.00103295
0.00103648
0.00102466
0.00102901
0.00101461
0.0010199
0.00100264
0.00100886
0.000989172
0.000996055
0.000974592
0.000982004
0.000959012
0.000966913
0.000942487
0.000950866
0.000925059
0.000933881
0.000906749
0.000916022
0.000887493
0.000897254
0.000867504
0.000877538
0.00084786
0.000857554
0.000829067
0.000838342
0.000810632
0.000819858
0.000792124
0.000801381
0.000773892
0.000782954
0.000756257
0.000764985
0.000739405
0.000747725
0.000723442
0.000731308
0.00070842
0.000715817
0.000694187
0.000701228
0.000680559
0.000687318
0.000667652
0.000673983
0.000656424
0.000661709
0.00064754
0.000651695
0.00064007
0.000643653
0.00063319
0.000636601
0.000626701
0.00062988
0.000620786
0.000623666
0.000615681
0.000618119
0.000611693
0.000613548
0.000608648
0.000610068
0.000606305
0.000607393
0.000604799
0.000605418
0.000605057
0.000604583
0.000605915
0.000606238
0.000421544
0.00111413
0.00109573
0.00114746
0.00113141
0.00117544
0.00116217
0.00119732
0.00118719
0.00121242
0.00120575
0.00122023
0.00121727
0.00122039
0.00122128
0.00121288
0.00121759
0.00119795
0.00120632
0.00117604
0.00118783
0.00114775
0.00116265
0.00111386
0.00113145
0.00109508
0.000635631
0.000626869
0.000631436
0.000634367
0.000628418
0.000629324
0.000628689
0.000628413
0.000629646
0.000629071
0.000631183
0.000630387
0.000633596
0.000632255
0.00063694
0.00063517
0.000641088
0.000638919
0.000646128
0.000643495
0.000651997
0.000648946
0.000658828
0.000655294
0.000666623
0.0006626
0.000675455
0.000670908
0.000685354
0.00068027
0.000696349
0.000690712
0.000708444
0.00070226
0.00072163
0.000714902
0.000735871
0.000728622
0.000751106
0.000743369
0.000767256
0.000759072
0.000784219
0.000775643
0.000801872
0.000792968
0.00082007
0.000810913
0.000838647
0.000829322
0.000857427
0.000848023
0.000876221
0.000866834
0.000894836
0.000885563
0.000913082
0.000904017
0.000930768
0.000922006
0.00094772
0.000939347
0.000963776
0.000955869
0.000978792
0.000971422
0.000992648
0.000985872
0.00100525
0.000999108
0.00101651
0.00101105
0.00102639
0.00102162
0.0010349
0.00103083
0.00104181
0.00103854
0.00104737
0.00104476
0.00105153
0.00104962
0.00105431
0.00105309
0.0010552
0.00107888
0.00111591
0.000717563
0.00103213
0.00103288
0.00107586
0.00105595
0.00105212
0.00112605
0.00101916
0.0011296
0.000980325
0.00112652
0.00093605
0.00111691
0.000886801
0.00110095
0.00060538
0.000657743
0.000833353
0.00107902
0.000776293
0.00105147
0.000718187
0.00101902
0.000713105
0.000678269
0.000982503
0.000768615
0.00131293
0.000942047
0.000114039
0.00089708
0.000846845