/*--------------------------------*- C++ -*----------------------------------*\
| =========                 |                                                 |
| \\      /  F ield         | OpenFOAM: The Open Source CFD Toolbox           |
|  \\    /   O peration     | Version:  2212                                  |
|   \\  /    A nd           | Website:  www.openfoam.com                      |
|    \\/     M anipulation  |                                                 |
\*---------------------------------------------------------------------------*/
FoamFile
{
    version     2.0;
    format      ascii;
    arch        "LSB;label=32;scalar=64";
    class       volScalarField;
    location    "0.000132";
    object      T;
}
// * * * * * * * * * * * * * * * * * * * * * * * * * * * * * * * * * * * * * //

dimensions      [0 0 0 1 0 0 0];

internalField   nonuniform List<scalar> 
232988
(
20.6124
22.0603
21.539
21.6261
21.6128
21.6059
21.4177
21.2407
21.2178
21.2823
21.2898
21.2237
21.1545
21.0206
21.0284
21.1685
21.1681
21.0341
21.0572
21.0524
20.9707
20.9658
21.0061
21.0356
20.9654
20.8749
20.7886
20.7863
20.8728
20.9218
20.8344
20.7738
20.6776
20.6967
20.7951
20.9604
20.9031
20.8129
20.6784
20.634
20.7035
20.8436
20.9538
20.8652
20.7461
20.6298
20.6814
20.7609
20.8496
20.7874
20.6509
20.5544
20.5767
20.6949
20.8133
20.7641
20.74
20.7504
20.7281
20.5977
20.6106
20.6699
20.7872
20.7398
20.5554
20.5153
20.607
20.7937
20.7647
20.6471
20.5171
20.533
20.66
20.7957
20.7978
20.6195
20.5819
20.6232
20.7617
20.7217
20.579
20.4924
20.5225
20.6772
20.8471
20.8575
20.7362
20.6186
20.6402
20.7533
20.838
20.6945
20.5036
20.5112
20.5849
20.641
20.6933
20.7273
20.6883
20.6072
20.5563
20.6172
20.7859
20.8148
20.6674
20.5317
20.5766
20.7232
20.839
20.686
20.5386
20.5862
20.7034
20.7208
20.6281
20.6429
20.6797
20.6537
20.6086
20.6858
20.8141
20.7927
20.617
20.6301
20.7635
20.9151
20.7927
20.6232
20.6454
20.7719
20.857
20.7165
20.6625
20.7615
20.8505
20.7492
20.7034
20.8026
20.9347
20.9039
20.7471
20.8135
20.9372
20.9544
20.8764
20.7832
20.7743
20.7166
20.7292
20.8034
20.8644
20.7823
20.7262
20.7837
20.9217
20.9451
20.8573
20.8047
20.8798
20.9912
20.9163
20.7236
20.7183
20.791
20.9504
21.0851
21.0234
20.8677
20.9074
21.0669
21.1514
21.1829
21.0231
20.827
20.8175
20.9019
21.0241
21.0064
20.8613
20.8347
20.9338
21.0674
21.1706
21.0973
20.9549
20.8579
20.9196
21.0811
21.2404
21.1942
20.9804
20.9586
21.0904
21.2514
21.327
21.2636
21.0718
21.1308
21.1858
21.1014
21.0183
21.0572
21.1802
21.1596
21.0289
21.0154
21.1927
21.3319
21.2458
21.0457
21.0964
21.209
21.3034
21.3045
21.126
21.1262
21.2204
21.2911
21.2545
21.08
21.1319
21.2695
21.3577
21.213
21.0835
21.147
21.3239
21.3437
21.1753
21.09
21.1617
21.2672
21.2379
21.1245
21.1649
21.3145
21.2709
21.13
21.1621
21.2872
21.3542
21.2544
21.1817
21.2533
21.263
21.2342
21.249
21.259
21.2105
21.2184
21.2959
21.3551
21.3804
21.3932
21.3568
21.337
21.2915
21.2175
21.1733
21.1919
21.2191
21.2363
21.2067
21.2205
21.2332
21.2493
21.2534
21.2429
21.2415
21.2438
21.2402
21.2516
21.2627
21.2692
21.2529
21.2329
21.248
21.2532
21.2563
21.2699
21.2795
21.2862
21.2903
21.2913
21.2968
21.3093
21.316
21.3232
21.3351
21.355
21.3859
21.4283
21.4743
21.52
21.563
21.6042
21.642
21.6741
21.6954
21.7039
21.6958
21.6572
21.6143
21.5614
21.5108
21.5114
21.5788
21.7672
22.1725
22.7366
22.1243
23.8261
23.3572
23.3806
23.299
23.2366
23.1436
23.1049
23.1169
23.1177
23.009
23.0016
22.9627
22.9327
22.9545
22.9534
22.7981
22.7578
22.7098
22.6938
22.7233
22.7886
22.8019
22.7415
22.7182
22.6992
22.6758
22.6839
22.6601
22.5404
22.5619
22.552
22.5469
22.5893
22.5929
22.4758
22.4331
22.441
22.4333
22.4872
22.5576
22.549
22.4452
22.3647
22.3695
22.4037
22.5036
22.512
22.4495
22.418
22.4422
22.4248
22.4596
22.4593
22.346
22.322
22.3262
22.3436
22.3464
22.3927
22.4293
22.4438
22.397
22.3047
22.323
22.3647
22.417
22.3414
22.2281
22.2442
22.2835
22.3639
22.378
22.3743
22.2966
22.2919
22.3756
22.424
22.3645
22.2473
22.276
22.2698
22.352
22.3805
22.3566
22.2479
22.2448
22.3059
22.4299
22.4433
22.3945
22.2913
22.2924
22.2953
22.3753
22.3599
22.3526
22.2494
22.2292
22.2547
22.3253
22.3837
22.3211
22.1876
22.1922
22.2542
22.3668
22.3745
22.2436
22.2144
22.2956
22.3539
22.3248
22.2616
22.3202
22.3502
22.3146
22.2628
22.3359
22.3902
22.3736
22.2769
22.2996
22.3986
22.454
22.368
22.3012
22.3556
22.4416
22.4543
22.3468
22.3308
22.4135
22.4442
22.3491
22.303
22.3658
22.4395
22.4116
22.3225
22.3797
22.4767
22.4793
22.4651
22.4121
22.4206
22.4027
22.4074
22.4608
22.4703
22.3751
22.3503
22.3981
22.4446
22.4143
22.3308
22.3219
22.4395
22.507
22.4844
22.3791
22.396
22.4183
22.5043
22.4906
22.4359
22.353
22.4144
22.5604
22.6157
22.6492
22.6197
22.5607
22.5286
22.5751
22.6567
22.6061
22.4978
22.5064
22.5567
22.6634
22.625
22.5609
22.4843
22.4995
22.5272
22.6629
22.6842
22.6558
22.5313
22.5644
22.6541
22.7294
22.7391
22.7306
22.6328
22.6878
22.7254
22.6809
22.6387
22.6735
22.709
22.663
22.5569
22.5938
22.6687
22.7008
22.6039
22.5533
22.646
22.7569
22.7704
22.7764
22.6856
22.6672
22.7655
22.7694
22.7495
22.6466
22.6793
22.787
22.8078
22.7022
22.6678
22.7153
22.8145
22.7834
22.6637
22.6943
22.7418
22.8318
22.8104
22.6951
22.7195
22.7899
22.7417
22.6603
22.6981
22.7971
22.8173
22.7742
22.7082
22.7773
22.8114
22.7671
22.7616
22.7506
22.7013
22.7232
22.7993
22.829
22.8331
22.8576
22.86
22.8442
22.8036
22.7431
22.751
22.7562
22.7539
22.7359
22.7196
22.7156
22.7133
22.7137
22.7203
22.7196
22.7256
22.7328
22.7292
22.7277
22.7354
22.7378
22.7386
22.7333
22.7386
22.7418
22.741
22.7485
22.7547
22.7584
22.757
22.7596
22.7681
22.7779
22.7838
22.7862
22.7908
22.8062
22.8191
22.8415
22.8741
22.9098
22.9474
22.9871
23.0197
23.0472
23.0672
23.0766
23.0614
23.0346
23.0341
23.0043
22.9699
22.9352
22.8962
22.9195
23.0038
23.2076
23.3649
21.3144
23.1342
22.7284
22.7328
22.5409
22.473
22.4847
22.558
22.6206
22.522
22.4064
22.434
22.4202
22.4564
22.4952
22.4043
22.2429
22.2458
22.1956
22.1927
22.2613
22.3151
22.27
22.1641
22.1821
22.1837
22.2318
22.2577
22.1566
22.0475
22.0714
22.0702
22.1509
22.178
22.0854
21.9038
21.9236
21.9436
22.0265
22.127
22.115
21.9771
21.8321
21.8634
21.9364
22.0613
22.0739
22.0235
21.866
21.8775
21.987
22.0673
22.0719
21.9894
21.8514
21.8715
21.8808
21.8675
21.8522
21.9863
22.0327
22.0373
21.8999
21.8689
21.9224
22.0131
22
21.7955
21.7868
21.8115
21.943
22.0154
21.9666
21.8073
21.7377
21.8573
22.0074
22.0156
21.8906
21.8438
21.8693
21.9418
22.0307
21.9868
21.768
21.725
21.7575
21.9546
22.0281
22.0225
21.8594
21.8462
21.9148
22.0363
22.0515
22.0081
21.8958
21.7994
21.8369
21.909
22.0174
21.9937
21.7958
21.7489
21.8051
21.9902
22.01
21.8917
21.7484
21.8514
22.0113
22.007
21.9029
21.8881
22.0106
22.0219
21.9346
21.9312
22.064
22.058
21.9501
21.8829
22.0283
22.128
22.0758
21.8943
21.9456
22.0998
22.1384
22.0785
21.937
22.0311
22.1449
22.1153
21.9644
22.005
22.1443
22.1386
21.9868
21.9612
22.1657
22.1859
22.1647
22.0968
22.0942
22.1293
22.1173
22.1995
22.2202
22.178
22.062
22.0973
22.2042
22.2018
22.0835
22.0142
22.05
22.228
22.2254
22.1577
22.1265
22.1964
22.3147
22.2832
22.2038
22.0373
22.0518
22.1932
22.3215
22.2992
22.2488
22.1364
22.19
22.2898
22.3985
22.3701
22.2791
22.2182
22.2772
22.4218
22.3896
22.3505
22.2222
22.2162
22.2426
22.3888
22.4393
22.4009
22.2509
22.2352
22.334
22.473
22.4338
22.4106
22.2986
22.3014
22.483
22.4586
22.3727
22.4014
22.4859
22.4848
22.3533
22.3209
22.4064
22.5125
22.4044
22.2559
22.2842
22.5211
22.5433
22.5381
22.5009
22.3886
22.5149
22.6111
22.5748
22.4796
22.4181
22.5547
22.5932
22.5247
22.3789
22.4427
22.6023
22.6237
22.4871
22.4192
22.4948
22.6438
22.6217
22.5416
22.4966
22.6172
22.6142
22.4508
22.4451
22.5743
22.6601
22.6084
22.5055
22.5408
22.6615
22.6274
22.5926
22.6029
22.5621
22.5315
22.6206
22.689
22.655
22.6541
22.6751
22.6593
22.6218
22.5641
22.5842
22.5892
22.6108
22.5976
22.5759
22.5525
22.5887
22.5848
22.5861
22.5765
22.55
22.5726
22.5944
22.5868
22.5916
22.5939
22.5897
22.5856
22.5904
22.6126
22.6109
22.6139
22.6185
22.62
22.6242
22.6169
22.6179
22.6353
22.652
22.6633
22.6731
22.6848
22.7085
22.735
22.7778
22.8326
22.8925
22.9515
23.0039
23.0463
23.0876
23.1243
23.1513
23.1575
23.1364
23.1199
23.0936
23.0655
23.0447
23.051
23.0927
23.2085
23.4211
23.598
21.2363
23.0434
22.6854
22.6297
22.5189
22.4637
22.4813
22.5584
22.5292
22.3421
22.3598
22.3477
22.3751
22.4812
22.4717
22.3035
22.2892
22.2736
22.2558
22.2876
22.3135
22.2581
22.108
22.102
22.1017
22.1576
22.25
22.2437
22.1241
22.1266
22.0923
22.1361
22.2111
22.1802
22.007
22.0034
21.975
21.9961
22.1168
22.139
21.9479
21.8575
21.8713
21.9094
22.0125
22.1117
22.0547
21.8329
21.8146
21.871
22.0277
22.124
22.0848
21.9133
21.9458
21.9346
21.914
21.8751
21.8891
21.9828
22.0268
22.0216
21.88
21.9047
21.9562
22.0371
21.9541
21.8489
21.851
21.875
22.0214
22.0399
21.8345
21.7061
21.7359
21.9173
22.0512
22.0363
21.8926
21.9079
21.908
22.0361
22.0641
21.8426
21.7214
21.7423
21.8134
22.0531
22.0614
21.8989
21.7325
21.7886
21.9604
22.0903
22.0793
21.928
21.7964
21.8555
21.9498
22.0203
22.0379
21.9168
21.8556
21.8715
21.9482
22.04
21.9507
21.7927
21.8103
21.9633
22.0128
21.9309
21.876
21.984
21.9945
21.945
21.9062
22.0218
22.0798
22.024
21.8614
21.9171
22.1012
22.1676
22.0362
21.9064
22.0415
22.1507
22.1499
21.9909
22.0046
22.1222
22.1292
22.0546
22.039
22.1666
22.1942
22.0957
21.9767
22.0374
22.2043
22.1803
22.1495
22.0428
22.0487
22.0846
22.1656
22.249
22.2546
22.1663
22.0983
22.1839
22.2363
22.2141
22.0745
22.0801
22.1266
22.2638
22.2307
22.0936
22.1263
22.2853
22.3724
22.3364
22.1425
22.0785
22.0859
22.2824
22.3382
22.2456
22.0674
22.056
22.1318
22.3421
22.441
22.4034
22.221
22.2187
22.3678
22.468
22.4445
22.3334
22.2479
22.2902
22.3587
22.4801
22.476
22.3463
22.2228
22.3031
22.4705
22.4859
22.4307
22.3286
22.2384
22.3298
22.4271
22.3282
22.3172
22.4268
22.4814
22.4573
22.3478
22.412
22.5104
22.5068
22.3178
22.3359
22.3954
22.5308
22.5386
22.5387
22.41
22.4159
22.6039
22.6211
22.5788
22.4286
22.4488
22.5951
22.6078
22.4214
22.4226
22.5438
22.6488
22.6113
22.4654
22.4799
22.6292
22.6647
22.6297
22.511
22.5947
22.65
22.5848
22.4891
22.5604
22.7139
22.6886
22.598
22.5004
22.6166
22.6784
22.6324
22.6143
22.6038
22.5416
22.607
22.7054
22.6862
22.6227
22.6286
22.6615
22.6191
22.4966
22.5584
22.6051
22.5866
22.5963
22.5892
22.5661
22.5687
22.6101
22.609
22.6056
22.5676
22.5362
22.5781
22.5864
22.589
22.595
22.5827
22.5651
22.5612
22.5849
22.6173
22.6214
22.6249
22.6255
22.6238
22.6252
22.612
22.6116
22.6326
22.6503
22.6634
22.6744
22.6849
22.7087
22.7364
22.78
22.8354
22.8926
22.9467
23.0005
23.0509
23.099
23.1441
23.1848
23.2234
23.2557
23.2693
23.2735
23.2735
23.2748
23.2879
23.3396
23.4496
23.6229
23.7666
21.1624
22.8806
22.495
22.4606
22.4076
22.3955
22.4463
22.4508
22.2858
22.2513
22.244
22.2371
22.3306
22.3638
22.2412
22.1666
22.2098
22.197
22.2222
22.2568
22.2369
22.0324
22.015
22.0067
22.0465
22.128
22.1164
21.9984
21.9838
21.9856
22.0341
22.1086
22.083
21.9639
21.9811
21.9621
21.9851
22.0659
22.0339
21.8739
21.8674
21.858
21.8585
21.9798
21.9839
21.8851
21.749
21.7859
21.818
21.9771
21.9857
21.9228
21.7349
21.7858
21.9112
21.9342
21.9138
21.8201
21.8079
21.8533
21.8313
21.8041
21.8066
21.8798
21.9192
21.8926
21.8035
21.8227
21.8518
21.9336
21.9139
21.7493
21.7033
21.7046
21.8257
21.8961
21.8483
21.7473
21.744
21.8087
21.9585
21.9776
21.8653
21.7591
21.7566
21.7625
21.9458
21.9615
21.8232
21.6932
21.7265
21.7961
21.9701
21.9697
21.8252
21.6862
21.7518
21.8808
21.9727
21.9691
21.8586
21.7781
21.8653
21.9615
21.9874
21.8849
21.7845
21.822
21.9125
21.9446
21.8443
21.7841
21.8889
21.9666
21.9407
21.8316
21.891
21.998
21.9565
21.7901
21.8431
22.0088
22.0113
21.9282
21.8246
21.9738
22.0674
22.0477
21.9346
21.9221
22.0451
22.0834
22.0434
21.9377
22.0421
22.1631
22.1516
21.9773
21.9907
22.1221
22.1318
22.0787
21.9188
21.889
21.9247
22.0607
22.1687
22.1814
22.1138
21.9913
22.0815
22.1545
22.157
22.0884
22.0695
22.1081
22.1972
22.1494
21.9825
21.9771
22.0826
22.239
22.2438
22.1939
22.1037
22.1237
22.2365
22.2693
22.1919
22.0494
22.0689
22.1032
22.2313
22.2822
22.2327
22.0633
22.0762
22.2413
22.3379
22.3208
22.2755
22.1552
22.2132
22.3489
22.4057
22.3854
22.3103
22.1883
22.2421
22.4215
22.4409
22.4483
22.3659
22.2303
22.276
22.3467
22.3027
22.3028
22.3144
22.397
22.3698
22.2928
22.3601
22.4692
22.4711
22.3541
22.3326
22.4041
22.5003
22.4416
22.4371
22.3583
22.3353
22.4927
22.5619
22.5382
22.4722
22.4425
22.5391
22.5264
22.422
22.4324
22.5282
22.6199
22.5882
22.5214
22.4974
22.6034
22.631
22.5865
22.4675
22.4859
22.6038
22.589
22.485
22.538
22.6867
22.6836
22.6046
22.457
22.5234
22.6399
22.5941
22.576
22.5798
22.5145
22.5597
22.6739
22.6619
22.5733
22.5938
22.6111
22.579
22.4427
22.4537
22.5411
22.5417
22.5379
22.5235
22.4999
22.508
22.5642
22.588
22.5931
22.582
22.5148
22.545
22.5861
22.5694
22.5552
22.5518
22.5452
22.5389
22.5363
22.5599
22.5906
22.602
22.6084
22.6099
22.6072
22.6069
22.593
22.5966
22.6161
22.634
22.6494
22.6621
22.6742
22.7001
22.7292
22.7754
22.8344
22.8999
22.9613
23.0218
23.0859
23.1462
23.2034
23.2543
23.2952
23.3299
23.3603
23.3832
23.4033
23.4248
23.4605
23.5323
23.6542
23.8084
23.9161
21.1615
22.7538
22.384
22.427
22.3842
22.4028
22.4342
22.3501
22.222
22.2548
22.2346
22.289
22.3287
22.2123
22.0999
22.1164
22.1055
22.1152
22.2126
22.2181
22.0941
21.9874
22.0031
22.0031
22.1002
22.1057
21.9417
21.8502
21.8734
21.949
22.0576
22.066
21.9495
21.8572
21.8835
21.9054
22.0307
22.0501
21.9714
21.8253
21.852
21.8451
21.9234
21.9906
21.923
21.7165
21.7364
21.75
21.8759
21.968
21.9284
21.6646
21.6308
21.7529
21.8964
21.9215
21.8867
21.7685
21.8078
21.8481
21.7694
21.6833
21.6855
21.8316
21.8432
21.7398
21.6684
21.7559
21.8789
21.9101
21.8283
21.6731
21.6989
21.7139
21.8702
21.8543
21.6638
21.5678
21.6089
21.8005
21.9379
21.9416
21.7792
21.757
21.7652
21.8602
21.9506
21.869
21.6709
21.7044
21.7336
21.9213
21.9204
21.7434
21.648
21.6974
21.815
21.9242
21.9082
21.7448
21.6962
21.7532
21.902
21.9861
21.9797
21.8171
21.7901
21.8513
21.9652
21.9146
21.7422
21.7925
21.9065
21.9138
21.8157
21.8216
21.9269
21.9237
21.7582
21.7793
21.8944
22.0177
21.9337
21.7444
21.7827
22.0139
22.0586
21.9704
21.8386
21.942
22.0513
22.0339
21.8876
21.9095
22.0588
22.0583
21.993
21.9557
22.0749
22.157
22.1156
21.9117
21.8977
21.9003
21.9862
22.1157
22.1003
22.0132
21.8819
21.97
22.1184
22.1188
22.0951
22.0237
22.0632
22.1707
22.1928
22.034
21.9665
21.9824
22.1478
22.2018
22.1945
22.0541
22.0689
22.2055
22.3034
22.2748
22.091
22.0709
22.064
22.1646
22.2733
22.23
22.0192
21.9944
22.0839
22.299
22.3031
22.2448
22.0583
22.1254
22.249
22.3779
22.3953
22.3751
22.1583
22.1778
22.2906
22.4327
22.4303
22.4211
22.2691
22.2838
22.3719
22.379
22.3052
22.3022
22.3053
22.264
22.1992
22.2344
22.4108
22.4437
22.4147
22.2965
22.3917
22.5042
22.5092
22.4384
22.3746
22.3008
22.3884
22.5576
22.5339
22.5089
22.4354
22.48
22.5635
22.5116
22.3896
22.4404
22.6243
22.6171
22.5808
22.4841
22.5238
22.6315
22.6186
22.4873
22.4106
22.5217
22.5731
22.5222
22.4943
22.6542
22.679
22.6179
22.4357
22.4766
22.6239
22.6264
22.5768
22.5592
22.5068
22.5141
22.647
22.6333
22.5279
22.571
22.6126
22.6059
22.4571
22.4553
22.5115
22.5336
22.5335
22.5385
22.5164
22.5154
22.5332
22.5908
22.578
22.5531
22.4992
22.532
22.5978
22.5893
22.5636
22.5423
22.5505
22.5545
22.5507
22.5557
22.5702
22.577
22.5922
22.601
22.6038
22.6018
22.6016
22.5919
22.5977
22.6123
22.6307
22.6454
22.6619
22.6766
22.7
22.7313
22.7784
22.8417
22.9156
22.988
23.0554
23.1231
23.1906
23.2588
23.3247
23.385
23.4383
23.4778
23.5078
23.5326
23.5596
23.602
23.6753
23.7895
23.9286
24.0246
21.0992
22.6713
22.3477
22.3842
22.3669
22.3981
22.3859
22.2213
22.2274
22.2266
22.2348
22.2839
22.2336
22.0798
22.1001
22.0486
22.0422
22.1162
22.1575
22.1013
21.9608
21.9972
21.99
22.0384
22.0637
21.9022
21.8179
21.8377
21.8665
22.0015
22.0172
21.8567
21.7442
21.7572
21.7894
21.932
21.9817
21.9183
21.7705
21.8073
21.801
21.8837
21.9531
21.9123
21.7425
21.7619
21.7447
21.8027
21.9033
21.8591
21.6521
21.6548
21.6793
21.8401
21.8284
21.8259
21.7269
21.7175
21.8504
21.8603
21.7436
21.6282
21.6072
21.6168
21.5652
21.5597
21.6112
21.7881
21.8292
21.7855
21.6689
21.7056
21.7283
21.8295
21.8262
21.6389
21.5612
21.5739
21.6515
21.8526
21.8324
21.7705
21.6771
21.7257
21.7916
21.9246
21.9047
21.707
21.689
21.7357
21.8811
21.8968
21.7749
21.6459
21.6948
21.769
21.8793
21.8432
21.6645
21.6806
21.7183
21.8582
21.8985
21.8457
21.6898
21.6939
21.8242
21.9311
21.8971
21.7502
21.8073
21.8864
21.8667
21.8144
21.7789
21.8534
21.9007
21.8037
21.7491
21.8353
21.9276
21.854
21.7196
21.7635
21.9214
21.9356
21.8635
21.7712
21.8892
21.9968
21.9908
21.8925
21.858
21.9862
22.0381
21.954
21.8217
21.9115
22.1018
22.1178
21.9919
21.9306
21.9199
21.9354
22.0935
22.0816
21.9625
21.8407
21.8747
22.0213
22.1046
22.0866
22.0085
21.9533
22.0799
22.1438
22.1102
21.9668
21.9955
22.0267
22.1736
22.1219
21.9543
21.9075
22.0058
22.2177
22.2389
22.18
22.0857
22.1089
22.1629
22.2811
22.2181
22.0341
22.0222
22.0602
22.2419
22.2527
22.2047
22.0208
22.0699
22.193
22.3386
22.3322
22.3111
22.1856
22.1157
22.236
22.3797
22.3531
22.3609
22.2866
22.211
22.3165
22.4105
22.3941
22.3323
22.3
22.2447
22.2035
22.2086
22.3225
22.4021
22.3606
22.2312
22.2724
22.45
22.4712
22.4729
22.4294
22.3243
22.3404
22.5197
22.5241
22.4982
22.4628
22.4169
22.5015
22.5237
22.459
22.4225
22.5522
22.5847
22.5612
22.4942
22.4367
22.5646
22.5669
22.503
22.3928
22.4917
22.5714
22.5101
22.4621
22.5551
22.638
22.5954
22.4121
22.4266
22.5487
22.6445
22.6143
22.5667
22.5041
22.4636
22.5811
22.6154
22.4931
22.5141
22.5866
22.5889
22.5103
22.4679
22.5247
22.5583
22.5267
22.5403
22.5365
22.5253
22.5217
22.563
22.579
22.5155
22.4684
22.4785
22.5803
22.6002
22.577
22.5507
22.5405
22.5474
22.5493
22.547
22.5544
22.5677
22.5631
22.58
22.5887
22.5926
22.5891
22.5883
22.5822
22.5911
22.6056
22.6215
22.6344
22.6503
22.6689
22.6948
22.7284
22.7764
22.8438
22.9216
22.9992
23.0714
23.1421
23.2157
23.291
23.3635
23.4306
23.4939
23.5527
23.6016
23.6417
23.682
23.7327
23.8112
23.9214
24.0408
24.117
21.0309
22.6322
22.3241
22.3505
22.3566
22.3737
22.2995
22.2051
22.2196
22.2075
22.2434
22.2374
22.0949
22.0913
22.0672
22.0335
22.0627
22.1286
22.0926
21.9004
21.8943
21.9521
21.9886
22.0346
21.9636
21.8159
21.8201
21.8188
21.9054
21.9508
21.8141
21.6971
21.728
21.7443
21.8677
21.9222
21.8436
21.6112
21.6073
21.6375
21.7767
21.8915
21.8822
21.739
21.6679
21.7076
21.7656
21.8789
21.8551
21.6952
21.6016
21.6492
21.7588
21.818
21.7715
21.5896
21.5041
21.6481
21.8226
21.8358
21.7045
21.5971
21.5843
21.591
21.5612
21.5554
21.6547
21.776
21.7569
21.6388
21.582
21.6438
21.7808
21.8324
21.7612
21.5648
21.574
21.5711
21.7715
21.7945
21.6925
21.4857
21.4878
21.5967
21.8231
21.8606
21.7936
21.6402
21.6843
21.8224
21.8707
21.8089
21.6155
21.6675
21.7446
21.8527
21.8404
21.6617
21.6392
21.6856
21.7768
21.8847
21.828
21.597
21.5529
21.6513
21.8652
21.915
21.8423
21.6899
21.8401
21.8814
21.8617
21.7711
21.7738
21.8454
21.8239
21.7313
21.7752
21.8746
21.8915
21.6996
21.7082
21.7678
21.9392
21.8694
21.6941
21.7373
21.9245
21.9894
21.9513
21.8016
21.8837
22.0099
21.9946
21.8038
21.8084
21.9409
22.0491
22.0521
21.9252
21.9406
21.9518
22.0985
22.0832
21.9717
21.8577
21.8744
21.9505
22.0593
22.0484
22.0099
21.9087
21.9753
22.0971
22.0808
22.0008
21.9912
22.0069
22.1169
22.1427
21.9748
21.8894
21.9143
22.0718
22.1658
22.157
22.0557
22.0302
22.1193
22.2599
22.2581
22.1321
22.0498
22.0569
22.1545
22.2448
22.1832
21.9797
21.9763
22.0725
22.2777
22.2795
22.2747
22.183
22.0238
22.1242
22.3313
22.3709
22.3263
22.212
22.0573
22.1037
22.3177
22.382
22.3902
22.3258
22.2973
22.2196
22.2017
22.2495
22.3846
22.3585
22.186
22.1951
22.3122
22.4112
22.4221
22.4274
22.3452
22.2959
22.455
22.5119
22.4924
22.4669
22.4105
22.412
22.4878
22.4652
22.4117
22.4547
22.5498
22.546
22.5422
22.4169
22.4352
22.5661
22.5467
22.3773
22.4092
22.5669
22.5782
22.4767
22.4578
22.5694
22.5753
22.4009
22.401
22.4602
22.6233
22.6091
22.5916
22.5646
22.445
22.4989
22.585
22.4857
22.4834
22.5689
22.5741
22.5416
22.4601
22.5045
22.5675
22.537
22.5233
22.538
22.5263
22.5189
22.5263
22.5574
22.5157
22.4772
22.488
22.5395
22.59
22.5943
22.5666
22.546
22.5411
22.5426
22.5458
22.5482
22.5571
22.5635
22.5578
22.5729
22.5832
22.5888
22.5843
22.5808
22.5794
22.5897
22.6039
22.6182
22.6307
22.6463
22.6667
22.6947
22.7299
22.7779
22.8474
22.929
23.0122
23.0924
23.171
23.2539
23.3395
23.423
23.5004
23.5715
23.6338
23.6861
23.7302
23.7744
23.8295
23.9097
24.0147
24.1266
24.1925
20.9771
22.6026
22.2717
22.3091
22.3344
22.3327
22.2067
22.1899
22.1834
22.1978
22.2208
22.1509
22.0858
22.0834
22.034
22.0352
22.082
22.092
21.9384
21.8675
21.8484
21.888
21.9776
21.987
21.8544
21.8375
21.8183
21.8424
21.9151
21.8241
21.696
21.7026
21.7087
21.7586
21.8745
21.8366
21.5945
21.5924
21.6015
21.6543
21.8204
21.8342
21.7002
21.5009
21.5314
21.6421
21.8087
21.8429
21.7668
21.5309
21.5761
21.7108
21.796
21.7463
21.5084
21.4525
21.4837
21.6867
21.7522
21.7642
21.6059
21.5919
21.5805
21.5727
21.5543
21.5542
21.6917
21.7135
21.5827
21.4533
21.4698
21.642
21.765
21.7614
21.6397
21.5949
21.5909
21.6821
21.7842
21.7104
21.4644
21.4702
21.492
21.6705
21.7739
21.7609
21.5365
21.5186
21.7101
21.8031
21.7788
21.5753
21.5758
21.7001
21.822
21.8086
21.6501
21.5832
21.6575
21.7792
21.8374
21.7842
21.5874
21.6033
21.605
21.7945
21.8144
21.7737
21.6411
21.7452
21.8117
21.8167
21.7995
21.7537
21.7822
21.8024
21.7341
21.71
21.8048
21.8308
21.7314
21.7155
21.7766
21.8774
21.8192
21.6743
21.7034
21.8618
21.8958
21.8774
21.7672
21.7885
21.9512
21.9551
21.8816
21.8028
21.8769
22.0072
21.9591
21.867
21.8006
21.9079
22.0628
22.0924
22.0517
21.8899
21.886
21.897
22.0554
22.0478
22.0084
21.8662
21.8896
22.0362
22.072
22.0196
21.9408
21.9846
22.0764
22.1512
22.0618
21.9125
21.9209
21.9738
22.1295
22.1032
21.9806
21.8831
21.9306
22.1313
22.1983
22.1762
22.0486
22.0735
22.1411
22.2405
22.1941
21.9968
21.9755
22.0014
22.1675
22.2242
22.2215
22.1632
21.9733
22.0175
22.1885
22.3414
22.3392
22.2439
22.063
22.0567
22.1199
22.2917
22.2966
22.3119
22.2726
22.2122
22.2417
22.3027
22.3627
22.3475
22.2193
22.1966
22.2361
22.3593
22.344
22.3664
22.2823
22.2145
22.3251
22.466
22.458
22.4554
22.4127
22.3624
22.3789
22.4516
22.4122
22.3756
22.4627
22.5378
22.5237
22.4473
22.3434
22.4873
22.5031
22.4297
22.4022
22.5439
22.5468
22.51
22.4616
22.4845
22.5174
22.3863
22.4078
22.4368
22.5853
22.5844
22.5829
22.5814
22.5007
22.4639
22.5657
22.5105
22.4658
22.5482
22.5663
22.5453
22.4674
22.4778
22.5613
22.5314
22.4723
22.5052
22.5131
22.5024
22.5009
22.5052
22.4931
22.479
22.4899
22.5218
22.5789
22.5739
22.5715
22.5517
22.528
22.5241
22.5242
22.5263
22.5353
22.5486
22.5466
22.5484
22.5599
22.571
22.5775
22.5764
22.5725
22.5731
22.5828
22.597
22.6122
22.6245
22.6414
22.6632
22.693
22.7317
22.7782
22.8479
22.9312
23.0164
23.1
23.1836
23.2722
23.364
23.4537
23.5384
23.6202
23.6972
23.7632
23.819
23.8711
23.9308
24.0107
24.1082
24.206
24.2611
20.9232
22.5117
22.2056
22.2587
22.268
22.2058
22.0922
22.0953
22.1086
22.1566
22.1609
22.0771
22.0754
22.0492
22.0248
22.0453
22.064
22.0175
21.8707
21.8697
21.8543
21.9037
21.9106
21.8917
21.821
21.8286
21.8337
21.901
21.8806
21.7292
21.7308
21.7087
21.7282
21.8303
21.8019
21.6065
21.6081
21.5997
21.6079
21.7587
21.7671
21.6114
21.4493
21.4754
21.5321
21.7053
21.7584
21.7345
21.4783
21.4719
21.5878
21.7423
21.7442
21.572
21.484
21.4784
21.5354
21.7175
21.6603
21.5965
21.4669
21.5493
21.553
21.5645
21.5734
21.6138
21.6483
21.5681
21.4123
21.4371
21.499
21.6728
21.6745
21.6321
21.5002
21.5543
21.6379
21.76
21.7359
21.5342
21.4703
21.4858
21.5651
21.7132
21.6723
21.4561
21.417
21.5438
21.7226
21.7058
21.5535
21.4582
21.5833
21.7692
21.7917
21.6897
21.5054
21.5731
21.7089
21.8109
21.8076
21.6348
21.5859
21.5897
21.6909
21.7972
21.7734
21.6248
21.5619
21.7678
21.7875
21.7853
21.7284
21.7207
21.7622
21.7215
21.646
21.7008
21.7803
21.7516
21.6548
21.7203
21.862
21.8939
21.7567
21.6522
21.7265
21.8945
21.8799
21.7109
21.6651
21.81
21.9441
21.932
21.7838
21.8024
21.9501
21.9917
21.8723
21.7185
21.7206
21.8939
22.0303
22.0332
21.9552
21.8536
21.9054
22.0228
22.0568
22.0061
21.8606
21.835
21.9361
22.0212
22.0191
21.8931
21.8479
21.9447
22.1011
22.1185
21.9702
21.9443
21.9252
22.0554
22.0971
21.9752
21.8621
21.8953
21.9844
22.1148
22.0706
21.9066
21.8863
22.0398
22.1881
22.2028
22.0866
22.009
22.0074
22.0642
22.1818
22.1188
22.0717
21.9163
21.9436
22.0454
22.2583
22.2614
22.2545
22.107
22.1094
22.0935
22.2176
22.2597
22.2428
22.1557
22.0895
22.1337
22.2623
22.3411
22.3432
22.2414
22.1609
22.2562
22.3836
22.37
22.3243
22.2376
22.1891
22.2403
22.4084
22.3995
22.3994
22.4017
22.3234
22.2579
22.3609
22.4095
22.3652
22.3099
22.4362
22.4729
22.436
22.2881
22.3959
22.4909
22.4547
22.3722
22.4542
22.5605
22.5404
22.479
22.4556
22.4894
22.4634
22.3826
22.4033
22.4831
22.5903
22.5703
22.5621
22.5145
22.4319
22.546
22.5549
22.4769
22.5251
22.5838
22.5571
22.5093
22.4707
22.542
22.5483
22.4803
22.492
22.5215
22.5015
22.4821
22.4744
22.465
22.469
22.4909
22.4933
22.5373
22.5611
22.5555
22.5469
22.5039
22.4914
22.4878
22.4799
22.4816
22.4964
22.4964
22.4933
22.5108
22.5304
22.5611
22.57
22.574
22.5702
22.5696
22.5797
22.5935
22.6093
22.6226
22.6399
22.6625
22.6932
22.7352
22.7835
22.8489
22.9332
23.0203
23.1094
23.2039
23.3017
23.4024
23.5009
23.5932
23.6801
23.7601
23.8294
23.889
23.9453
24.0096
24.0907
24.1848
24.2747
24.323
20.8381
22.5061
22.2123
22.2452
22.1511
22.04
22.0649
22.0676
22.1046
22.1092
22.0399
22.0301
22.0461
22.0108
22.0198
22.0375
22.0253
21.9183
21.8786
21.8668
21.8833
21.8988
21.8491
21.7799
21.7776
21.7935
21.8636
21.883
21.8003
21.7326
21.7303
21.7383
21.8304
21.8311
21.7036
21.6094
21.6077
21.606
21.7246
21.7426
21.6193
21.4457
21.4552
21.4742
21.6445
21.6903
21.6399
21.4158
21.3916
21.478
21.6657
21.6678
21.599
21.4363
21.4964
21.5059
21.6686
21.6973
21.5979
21.3505
21.3295
21.366
21.4438
21.5606
21.6067
21.6115
21.5793
21.4198
21.4286
21.4556
21.6223
21.6211
21.5304
21.3427
21.3388
21.4605
21.6678
21.6979
21.6227
21.4554
21.4975
21.5323
21.6855
21.6504
21.4448
21.3998
21.4288
21.6464
21.6563
21.4941
21.3717
21.476
21.6849
21.7226
21.6716
21.4591
21.5225
21.6632
21.7403
21.7044
21.5393
21.5175
21.606
21.7303
21.7704
21.6783
21.4955
21.4596
21.6462
21.7027
21.7115
21.7043
21.6161
21.6265
21.646
21.6207
21.6329
21.7127
21.7225
21.6346
21.6512
21.8179
21.8531
21.8125
21.6758
21.7666
21.8387
21.7973
21.6605
21.6589
21.7159
21.8393
21.808
21.6903
21.6534
21.8466
21.9331
21.9234
21.7494
21.7617
21.765
21.9466
21.9097
21.8358
21.6842
21.7355
21.9393
22.0048
21.9983
21.9024
21.8319
21.9069
21.9953
21.9664
21.8994
21.7925
21.8228
21.9686
22.041
22.0254
21.9479
21.9924
22.0368
22.1034
22.0059
21.8699
21.8887
21.9237
22.0639
22.0517
21.8554
21.8473
21.8715
22.0623
22.1334
22.1272
22.0007
22.0172
22.0657
22.1931
22.1756
22.0656
21.9121
21.9071
21.9519
22.1678
22.1988
22.1874
22.1327
22.0948
22.1054
22.1606
22.2755
22.2274
22.1251
22.0523
22.1023
22.196
22.2716
22.2825
22.232
22.0978
22.1513
22.3573
22.3938
22.3732
22.2678
22.1705
22.2106
22.3714
22.3878
22.3542
22.293
22.2235
22.1642
22.2407
22.3713
22.3542
22.2639
22.2989
22.4128
22.3892
22.2661
22.2827
22.461
22.472
22.39
22.3276
22.4857
22.5066
22.5135
22.4564
22.4482
22.4551
22.4147
22.4184
22.4339
22.5434
22.5291
22.5327
22.5162
22.3876
22.4406
22.5669
22.5195
22.4996
22.5809
22.5721
22.5451
22.4823
22.5128
22.5485
22.5247
22.4847
22.5362
22.5328
22.4936
22.4681
22.4632
22.4617
22.4737
22.4843
22.4947
22.5347
22.53
22.5079
22.4706
22.4808
22.493
22.4902
22.4845
22.4914
22.499
22.4891
22.4838
22.4902
22.5239
22.5427
22.556
22.5642
22.5652
22.5646
22.5715
22.5857
22.6015
22.6156
22.6348
22.6592
22.6925
22.7371
22.7903
22.8513
22.9331
23.0219
23.1164
23.2143
23.3161
23.4214
23.5258
23.6251
23.7213
23.8121
23.8909
23.9576
24.0186
24.085
24.1649
24.2532
24.3342
24.377
20.7901
22.4849
22.2013
22.1883
22.0329
22.0411
22.0558
22.0745
22.0741
21.9979
21.9649
21.9621
21.9181
21.9098
21.9927
22.0009
21.9477
21.8476
21.865
21.8672
21.8856
21.8735
21.7742
21.6958
21.6892
21.7827
21.8408
21.8102
21.6517
21.6647
21.6799
21.7779
21.8073
21.789
21.6268
21.6142
21.6072
21.7113
21.7471
21.6897
21.486
21.4819
21.4653
21.5612
21.6472
21.5844
21.3671
21.339
21.3902
21.5781
21.6325
21.5691
21.3278
21.3316
21.4216
21.5979
21.6769
21.6503
21.4273
21.3729
21.3462
21.3545
21.4321
21.5356
21.5667
21.5672
21.4888
21.4268
21.4619
21.5802
21.6036
21.5137
21.3058
21.3075
21.3426
21.5487
21.5944
21.5544
21.3369
21.3484
21.5017
21.6542
21.6662
21.5293
21.4162
21.4207
21.5412
21.6043
21.4395
21.3242
21.3881
21.5952
21.6477
21.6158
21.4035
21.4402
21.5982
21.713
21.6992
21.5482
21.4483
21.5021
21.6422
21.7516
21.7642
21.5394
21.4452
21.4543
21.6604
21.6652
21.6464
21.5292
21.495
21.6178
21.612
21.6152
21.6448
21.6748
21.5549
21.5549
21.7293
21.7968
21.7927
21.673
21.6604
21.8147
21.8302
21.7158
21.6373
21.6532
21.7732
21.8136
21.662
21.5908
21.6406
21.8778
21.9017
21.8299
21.7372
21.7703
21.9056
21.9341
21.7946
21.6225
21.6337
21.7642
21.9458
21.9588
21.9522
21.8076
21.8455
21.9815
21.9926
21.9363
21.7658
21.7843
21.8497
21.9944
21.9588
21.9093
21.9119
22.015
22.1035
22.0839
21.9188
21.907
21.8922
21.9972
22.0338
21.9145
21.8774
21.8662
21.9605
22.0726
21.9973
21.8522
21.8379
21.9596
22.132
22.1691
22.1523
22.03
21.9764
21.956
22.083
22.1757
22.1456
22.1111
22.0269
22.0598
22.1037
22.2467
22.2518
22.1721
22.0367
22.0723
22.1731
22.2899
22.2393
22.1634
22.0455
22.1026
22.2777
22.3199
22.3373
22.3348
22.2121
22.2117
22.3317
22.3918
22.3557
22.2429
22.2051
22.1837
22.1843
22.3233
22.3518
22.296
22.2526
22.3694
22.3902
22.2997
22.2237
22.3587
22.4402
22.393
22.2666
22.3477
22.4362
22.4431
22.4256
22.3536
22.411
22.4246
22.3923
22.421
22.4884
22.5387
22.5084
22.5029
22.3746
22.3679
22.5092
22.5274
22.4848
22.5313
22.5642
22.5459
22.4963
22.4814
22.526
22.5334
22.4973
22.5019
22.5216
22.51
22.4615
22.4872
22.4778
22.4679
22.4655
22.4734
22.5113
22.5253
22.488
22.4651
22.4772
22.4957
22.4934
22.4905
22.492
22.5073
22.5081
22.4965
22.5025
22.5168
22.5258
22.5301
22.546
22.5556