/*--------------------------------*- C++ -*----------------------------------*\
| =========                 |                                                 |
| \\      /  F ield         | OpenFOAM: The Open Source CFD Toolbox           |
|  \\    /   O peration     | Version:  2212                                  |
|   \\  /    A nd           | Website:  www.openfoam.com                      |
|    \\/     M anipulation  |                                                 |
\*---------------------------------------------------------------------------*/
FoamFile
{
    version     2.0;
    format      ascii;
    arch        "LSB;label=32;scalar=64";
    class       volScalarField;
    location    "0.00118";
    object      nut;
}
// * * * * * * * * * * * * * * * * * * * * * * * * * * * * * * * * * * * * * //

dimensions      [0 2 -1 0 0 0 0];

internalField   nonuniform List<scalar> 
7220
(
0.317812
0.330718
0.330675
0.330598
0.330683
0.330638
0.330671
0.330675
0.330594
0.330632
0.308384
0.190824
0.32654
0.311334
0.316822
0.261248
0.306458
0.320279
0.331638
0.31783
0.330875
0.291261
0.330397
0.268791
0.331694
0.0667407
0.0804468
0.309178
0.331227
0.32624
0.33128
0.328462
0.330995
0.327327
0.331503
0.325076
0.330716
0.307518
0.308978
0.324269
0.325303
0.325304
0.32427
0.326734
0.326787
0.327119
0.327035
0.327086
0.326022
0.326476
0.326476
0.326022
0.326738
0.326877
0.326877
0.326738
0.326945
0.326976
0.326975
0.326944
0.326989
0.326994
0.326994
0.326988
0.326995
0.326995
0.326996
0.326995
0.326995
0.326994
0.326996
0.326996
0.326993
0.326992
0.326996
0.326996
0.32699
0.326987
0.326998
0.326997
0.326982
0.326976
0.327007
0.327
0.327054
0.327024
0.326968
0.326956
0.326931
0.326551
0.322914
0.322915
0.324712
0.323659
0.326654
0.32711
0.326901
0.326932
0.326346
0.326396
0.326375
0.326418
0.326412
0.326425
0.326422
0.326429
0.326428
0.326431
0.32643
0.326426
0.32643
0.32638
0.326412
0.326169
0.326311
0.325441
0.325903
0.323656
0.324709
0.325904
0.325443
0.326311
0.32617
0.326411
0.326379
0.326429
0.326424
0.326432
0.326431
0.326433
0.326433
0.326434
0.326433
0.326439
0.326436
0.326458
0.326445
0.326488
0.326305
0.322277
0.322279
0.325629
0.325472
0.326608
0.326949
0.326257
0.326214
0.325096
0.325617
0.326228
0.325046
0.325186
0.325144
0.32525
0.325221
0.325285
0.325273
0.325297
0.325291
0.325304
0.325301
0.325307
0.325306
0.325303
0.325307
0.325256
0.325288
0.325041
0.325185
0.324294
0.324768
0.322462
0.323544
0.320638
0.319357
0.321044
0.321305
0.321305
0.321049
0.319361
0.32064
0.323548
0.322467
0.32477
0.324297
0.325185
0.325042
0.325288
0.325256
0.325307
0.325302
0.32531
0.325309
0.325312
0.325311
0.325314
0.325313
0.325323
0.325317
0.325357
0.325334
0.325398
0.325549
0.325575
0.324196
0.324026
0.318846
0.31751
0.319468
0.31772
0.327093
0.325526
0.326586
0.326262
0.323655
0.324077
0.324095
0.325024
0.324188
0.32361
0.323725
0.323694
0.323784
0.323761
0.323821
0.323804
0.323837
0.323828
0.323847
0.323843
0.32385
0.323849
0.323847
0.323851
0.323799
0.323832
0.323579
0.323727
0.322813
0.323299
0.320926
0.322041
0.317714
0.319461
0.319545
0.319545
0.317513
0.318847
0.322047
0.320933
0.323302
0.322817
0.323727
0.32358
0.323833
0.3238
0.323853
0.323848
0.323856
0.323855
0.323858
0.323857
0.323862
0.32386
0.323873
0.323865
0.323913
0.323889
0.323956
0.324125
0.315798
0.315803
0.326949
0.325502
0.32406
0.327087
0.323575
0.322517
0.322392
0.322519
0.325045
0.315903
0.31391
0.315605
0.31382
0.326243
0.326566
0.324053
0.325476
0.322414
0.322575
0.324049
0.326953
0.322002
0.322077
0.322039
0.322129
0.322101
0.322163
0.32215
0.322198
0.322184
0.322216
0.322207
0.322227
0.322223
0.322232
0.32223
0.322228
0.322232
0.32218
0.322213
0.321955
0.322106
0.32117
0.321669
0.319229
0.320377
0.317714
0.313818
0.316995
0.315603
0.317726
0.317726
0.316996
0.313916
0.317723
0.315911
0.320384
0.319237
0.321672
0.321175
0.322107
0.321957
0.322215
0.322181
0.322237
0.322231
0.32224
0.322239
0.322242
0.322241
0.322246
0.322244
0.322261
0.322249
0.322301
0.322277
0.322336
0.322434
0.322463
0.322418
0.322421
0.322452
0.32358
0.311844
0.311848
0.320771
0.320692
0.320787
0.321089
0.325012
0.327075
0.326542
0.324013
0.326258
0.321135
0.320375
0.325446
0.321992
0.320361
0.322626
0.320433
0.320403
0.320464
0.320446
0.32049
0.32048
0.320516
0.320502
0.320533
0.320524
0.320544
0.320539
0.32055
0.320548
0.320545
0.32055
0.320496
0.32053
0.320268
0.320422
0.319469
0.319977
0.31748
0.318658
0.314049
0.315921
0.309827
0.31198
0.307685
0.311854
0.309794
0.315157
0.313712
0.315917
0.315917
0.313713
0.315157
0.309797
0.311855
0.307688
0.311988
0.309832
0.315932
0.314059
0.318666
0.31749
0.31998
0.319474
0.320424
0.32027
0.320534
0.320499
0.320556
0.320549
0.320559
0.320558
0.320562
0.32056
0.320565
0.320563
0.320584
0.32057
0.320619
0.320603
0.320652
0.320708
0.320741
0.320709
0.320691
0.320787
0.321927
0.323477
0.326983
0.32032
0.319041
0.318993
0.319069
0.307863
0.305629
0.307831
0.305631
0.327062
0.32651
0.325418
0.320789
0.318939
0.318919
0.320655
0.321979
0.325145
0.324045
0.326253
0.320343
0.322445
0.318702
0.318742
0.318717
0.318775
0.318754
0.318794
0.318786
0.318818
0.318808
0.318833
0.31882
0.318848
0.31884
0.31886
0.318855
0.318866
0.318863
0.31886
0.318865
0.318812
0.318846
0.318582
0.318737
0.317773
0.318288
0.315751
0.316951
0.312234
0.314158
0.310098
0.305629
0.309971
0.30783
0.313384
0.311894
0.314169
0.314169
0.311894
0.313384
0.309972
0.305634
0.310108
0.307871
0.314169
0.312246
0.316959
0.315761
0.318292
0.317779
0.318739
0.318585
0.31885
0.318815
0.318873
0.318866
0.318877
0.318876
0.318879
0.318878
0.318885
0.318881
0.318907
0.318889
0.318927
0.318923
0.318966
0.318999
0.319028
0.318983
0.318988
0.319126
0.318969
0.319042
0.323552
0.318704
0.303478
0.303482
0.317336
0.317369
0.320305
0.321914
0.327079
0.327057
0.326489
0.325412
0.318935
0.320667
0.31552
0.322391
0.331273
0.323982
0.318697
0.317107
0.317104
0.317103
0.317132
0.317107
0.317147
0.317124
0.317161
0.317156
0.317179
0.317166
0.31719
0.317182
0.317202
0.317195
0.317213
0.317208
0.317218
0.317216
0.317213
0.317218
0.317165
0.317199
0.316935
0.31709
0.316125
0.316641
0.314087
0.315298
0.310512
0.312472
0.306018
0.308323
0.301458
0.303701
0.299362
0.303722
0.301478
0.308216
0.306006
0.311717
0.310192
0.31252
0.31252
0.310192
0.311717
0.306006
0.308216
0.30148
0.303722
0.299365
0.303708
0.301463
0.308334
0.306028
0.312484
0.310525
0.315306
0.314097
0.316645
0.316131
0.317094
0.316939
0.317204
0.317169
0.317228
0.31722
0.317233
0.31723
0.317237
0.317235
0.317243
0.317236
0.317261
0.31724
0.317279
0.317267
0.317311
0.317341
0.3174
0.317364
0.317327
0.317337
0.317536
0.317307
0.317275
0.317478
0.317229
0.317239
0.316908
0.317162
0.318897
0.317175
0.323382
0.330841
0.318622
0.317073
0.327107
0.330634
0.299631
0.297442
0.299686
0.297477
0.327042
0.318818
0.326479
0.320625
0.322372
0.32539
0.323963
0.330718
0.331216
0.331155
0.331237
0.336348
0.331079
0.320171
0.321711
0.330946
0.320062
0.315038
0.31518
0.325833
0.324656
0.31853
0.330897
0.31701
0.33391
0.318416
0.316927
0.330758
0.31502
0.316815
0.315365
0.315188
0.315506
0.315494
0.315566
0.315545
0.315557
0.315562
0.315572
0.315554
0.31558
0.315563
0.315591
0.315585
0.315604
0.315592
0.315615
0.315613
0.315625
0.31562
0.315634
0.31563
0.315638
0.315637
0.315633
0.315637
0.315586
0.315619
0.315358
0.315511
0.314554
0.315066
0.31252
0.31373
0.308922
0.310899
0.304344
0.306699
0.301958
0.297476
0.302011
0.299685
0.306628
0.304365
0.310186
0.30864
0.311
0.310999
0.30864
0.310187
0.304365
0.306628
0.302011
0.297446
0.301967
0.299638
0.306712
0.304355
0.310912
0.308935
0.313738
0.312531
0.315071
0.31456
0.315516
0.315363
0.315625
0.31559
0.315649
0.315642
0.315655
0.315653
0.315658
0.315657
0.315661
0.315657
0.315675
0.315658
0.315704
0.315682
0.315746
0.315722
0.315807
0.315779
0.315762
0.31578
0.315749
0.315756
0.315848
0.315778
0.315702
0.315818
0.315552
0.315612
0.315411
0.331145
0.331077
0.331104
0.323214
0.326629
0.331068
0.306819
0.332369
0.31738
0.295458
0.295461
0.331284
0.321599
0.324519
0.325753
0.32708
0.318549
0.331335
0.319957
0.313503
0.313324
0.313923
0.327036
0.320547
0.322333
0.318341
0.0292333
0.326469
0.310392
0.31664
0.331342
0.325378
0.323958
0.330863
0.330979
0.316319
0.3312
0.331115
0.330715
0.314159
0.314092
0.314094
0.314167
0.314126
0.314108
0.314111
0.314124
0.314111
0.314102
0.314114
0.314104
0.314124
0.314118
0.314134
0.31413
0.314143
0.314141
0.314151
0.314147
0.314159
0.314156
0.314163
0.314162
0.314157
0.314162
0.31411
0.314143
0.313888
0.314038
0.313099
0.313602
0.311093
0.312288
0.307512
0.309484
0.302897
0.30528
0.298069
0.300463
0.293715
0.295796
0.291895
0.295853
0.293741
0.300539
0.298146
0.305237
0.302942
0.30882
0.307267
0.309635
0.309634
0.307267
0.308821
0.302942
0.305237
0.298146
0.300539
0.293742
0.295854
0.291897
0.295802
0.293719
0.300474
0.298078
0.305293
0.302909
0.309497
0.307526
0.312297
0.311104
0.313608
0.313106
0.314043
0.313894
0.314151
0.314116
0.314174
0.314166
0.314178
0.314177
0.314176
0.314178
0.314174
0.314177
0.314189
0.314178
0.314225
0.314206
0.314263
0.314241
0.314321
0.314301
0.314268
0.314294
0.314262
0.31426
0.314277
0.314287
0.314178
0.314255
0.313964
0.31407
0.313797
0.331385
0.331335
0.313237
0.330881
0.33101
0.323107
0.326621
0.331247
0.318638
0.318615
0.331446
0.331205
0.33075
0.32151
0.312049
0.311697
0.312545
0.327081
0.32445
0.325693
0.331352
0.320463
0.330755
0.292361
0.290437
0.29234
0.290394
0.322284
0.331468
0.319865
0.313351
0.330732
0.330674
0.330678
0.330686
0.331225
0.327031
0.331109
0.330847
0.331426
0.331481
0.331492
0.331944
0.318151
0.314523
0.33097
0.330901
0.33092
0.330994
0.331264
0.326464
0.323943
0.316474
0.330788
0.325377
0.330689
0.330296
0.330808
0.314817
0.330877
0.330485
0.331004
0.331152
0.318158
0.330758
0.315648
0.335488
0.312855
0.313219
0.312802
0.312858
0.312863
0.312843
0.312841
0.31286
0.312829
0.312834
0.312821
0.312818
0.312825
0.31282
0.312832
0.31283
0.312837
0.312836
0.312845
0.312841
0.312852
0.312849
0.312856
0.312855
0.312851
0.312855
0.312805
0.312837
0.312591
0.312735
0.311828
0.312315
0.309875
0.311041
0.306358
0.308301
0.301764
0.304145
0.296871
0.299309
0.29453
0.290393
0.294538
0.29234
0.299337
0.296897
0.304071
0.301767
0.307642
0.306098
0.308448
0.308448
0.306098
0.307642
0.301766
0.304071
0.296897
0.299337
0.294538
0.29044
0.294537
0.292366
0.299321
0.296881
0.304159
0.301777
0.308313
0.306372
0.311049
0.309886
0.312321
0.311835
0.312741
0.312597
0.312845
0.312812
0.312866
0.31286
0.312867
0.312868
0.312865
0.312866
0.312861
0.312865
0.312877
0.312869
0.31291
0.312896
0.312944
0.312926
0.312993
0.312984
0.312939
0.312968
0.312935
0.312936
0.312888
0.312927
0.312809
0.312875
0.312561
0.312701
0.312356
0.331402
0.33082
0.330782
0.330802
0.331072
0.330976
0.334255
0.323028
0.309732
0.311061
0.326615
0.33161
0.33143
0.33131
0.331495
0.331493
0.331512
0.331305
0.331157
0.0972878
0.320286
0.312661
0.330943
0.288824
0.288826
0.322226
0.331471
0.331656
0.331563
0.33161
0.331341
0.321424
0.330795
0.311634
0.330716
0.331057
0.331156
0.331148
0.330685
0.327082
0.324399
0.325667
0.331112
0.331454
0.33139
0.331446
0.330776
0.330725
0.33091
0.330966
0.33121
0.331404
0.332787
0.330953
0.330883
0.330651
0.331568
0.332042
0.319731
0.312749
0.331287
0.331077
0.331742
0.327028
0.330996
0.330523
0.330671
0.330906
0.323901
0.317946
0.309395
0.313743
0.331224
0.331021
0.330712
0.330673
0.330631
0.330712
0.330723
0.326462
0.330607
0.330937
0.330603
0.33088
0.309366
0.331528
0.325368
0.316188
0.330788
0.330579
0.330901
0.33088
0.330403
0.314258
0.330882
0.33048
0.330357
0.330039
0.331017
0.330246
0.317634
0.320186
0.307726
0.330221
0.330599
0.314949
0.197668
0.312031
0.31251
0.311855
0.311904
0.311904
0.311889
0.311871
0.3119
0.311845
0.311856
0.311821
0.311833
0.311816
0.311814
0.311821
0.31182
0.311824
0.311822
0.31183
0.311827
0.311835
0.311833
0.311838
0.311837
0.311835
0.311838
0.311791
0.311821
0.311589
0.311725
0.310862
0.311326
0.308992
0.31011
0.305592
0.307475
0.301087
0.303431
0.296195
0.298647
0.291573
0.293812
0.287831
0.289555
0.286464
0.28925
0.287573
0.293552
0.291286
0.298418
0.295956
0.303138
0.300848
0.306663
0.305142
0.307454
0.307454
0.305142
0.306663
0.300848
0.303138
0.295956
0.298418
0.291286
0.293552
0.287574
0.28925
0.286465
0.289559
0.287833
0.29382
0.291579
0.298659
0.296206
0.303445
0.3011
0.307487
0.305605
0.310118
0.309003
0.311332
0.310869
0.311731
0.311594
0.31183
0.311799
0.311848
0.311843
0.311848
0.311849
0.311845
0.311847
0.311841
0.311843
0.311853
0.31185
0.311878
0.311869
0.311905
0.31189
0.311942
0.311939
0.311897
0.31192
0.311883
0.311891
0.311823
0.311865
0.311723
0.311799
0.311425
0.311609
0.310828
0.311172
0.310357
0.322039
0.331686
0.33082
0.331052
0.33105
0.331513
0.331651
0.330814
0.330823
0.33082
0.330886
0.330839
0.331071
0.330965
0.3312
0.322955
0.310203
0.309117
0.330641
0.326615
0.331286
0.331464
0.331106
0.331367
0.3314
0.33128
0.311406
0.330801
0.330836
0.33085
0.330841
0.331169
0.331272
0.309902
0.331324
0.331222
0.331153
0.330796
0.330948
0.331657
0.332043
0.331804
0.331894
0.331315
0.321316
0.311076
0.331276
0.331162
0.330788
0.330653
0.327076
0.324356
0.325648
0.331212
0.331438
0.331419
0.331452
0.331076
0.323847
0.330757
0.287692
0.286217
0.286708
0.285494
0.331813
0.332859
0.319561
0.331409
0.311944
0.331289
0.331103
0.330751
0.330757
0.330667
0.327023
0.331183
0.331077
0.331449
0.325328
0.331449
0.317778
0.31292
0.331278
0.330705
0.326452
0.331164
0.331102
0.330542
0.315775
0.330768
0.330589
0.330192
0.331134
0.329915
0.313567
0.330877
0.329962
0.31703
0.319974
0.330991
0.329833
0.321884
0.330857
0.329852
0.3311
0.331944
0.314252
0.330563
0.33057
0.330716
0.330536
0.310796
0.309699
0.311065
0.310427
0.311367
0.311391
0.311399
0.311383
0.311439
0.31143
0.31139
0.311425
0.31134
0.311361
0.311297
0.311317
0.311276
0.311281
0.311274
0.311276
0.311275
0.311274
0.311279
0.311277
0.311284
0.311282
0.311287
0.311285
0.311282
0.311286
0.311243
0.311271
0.311055
0.311182
0.310377
0.310811
0.308619
0.309671
0.305395
0.307184
0.301063
0.303326
0.296262
0.298682
0.291599
0.293875
0.289511
0.285493
0.288474
0.286707
0.292887
0.290578
0.297764
0.295309
0.302422
0.300169
0.305872
0.304386
0.306641
0.306641
0.304386
0.305872
0.300169
0.302422
0.295309
0.297764
0.290578
0.292888
0.288474
0.28622
0.289516
0.287696
0.293884
0.291606
0.298694
0.296272
0.303339
0.301075
0.307195
0.305407
0.309679
0.308629
0.310816
0.310383
0.311188
0.31106
0.311279
0.31125
0.311293
0.31129
0.311292
0.311293
0.311287
0.31129
0.311284
0.311284
0.311291
0.31129
0.311303
0.311301
0.311316
0.311307
0.311346
0.311343
0.311315
0.311327
0.311298
0.311308
0.31125
0.31128
0.31111
0.311205
0.310742
0.310965
0.310049
0.310441
0.308888
0.30952
0.308177
0.330679
0.3306
0.330638
0.330535
0.330565
0.330512
0.330487
0.33051
0.330567
0.330538
0.330601
0.330567
0.330639
0.330843
0.330853
0.330822
0.330834
0.330832
0.330944
0.330868
0.331051
0.331347
0.331334
0.312175
0.331063
0.331726
0.331984
0.330801
0.330718
0.330758
0.330846
0.330833
0.330827
0.330838
0.330875
0.330835
0.331064
0.330954
0.331188
0.322881
0.30964
0.331233
0.312025
0.330811
0.33061
0.326609
0.331345
0.331455
0.331279
0.331195
0.331344
0.323696
0.308375
0.331355
0.306128
0.331704
0.285141
0.285144
0.311101
0.308884
0.33084
0.330794
0.330874
0.338381
0.331375
0.331275
0.331239
0.331039
0.331129
0.33195
0.332793
0.332261
0.332451
0.331308
0.321201
0.307763
0.310265
0.331288
0.331183
0.308941
0.310025
0.330816
0.330759
0.330545
0.330622
0.310442
0.31147
0.327069
0.324299
0.325612
0.331339
0.308756
0.308509
0.308464
0.331411
0.331455
0.331458
0.33121
0.309181
0.334152
0.334817
0.331382
0.325272
0.331438
0.306522
0.330652
0.330687
0.332178
0.334386
0.319433
0.311025
0.331314
0.331123
0.330792
0.330466
0.33049
0.330641
0.327012
0.331343
0.331249
0.30952
0.330969
0.326419
0.317521
0.308667
0.308668
0.312166
0.307819
0.308108
0.331331
0.330605
0.330675
0.330899
0.330159
0.331326
0.331291
0.330023
0.315257
0.307758
0.307268
0.330512
0.33054
0.330742
0.329783
0.316441
0.319575
0.309132
0.308046
0.308183
0.307348
0.307759
0.306956
0.307615
0.30695
0.33084
0.329507
0.321729
0.330866
0.329544
0.330945
0.329414
0.323545
0.243776
0.331082
0.330874
0.313616
0.306937
0.30813
0.307598
0.30924
0.308424
0.310671
0.31008
0.311273
0.311024
0.311556
0.311452
0.311609
0.311604
0.311545
0.311587
0.31147
0.311503
0.311404
0.311435
0.311367
0.31138
0.311353
0.311359
0.311349
0.31135
0.311352
0.31135
0.311355
0.311354
0.311357
0.311356
0.311352
0.311356
0.311318
0.311342
0.311148
0.311263
0.310527
0.310925
0.308906
0.309877
0.305913
0.307578
0.301837
0.303976
0.297216
0.299562
0.292588
0.294867
0.288563
0.290459
0.285768
0.286978
0.284963
0.284926
0.284492
0.288038
0.286213
0.292496
0.290177
0.297323
0.294903
0.301877
0.29968
0.305229
0.303787
0.305973
0.305973
0.303787
0.305229
0.29968
0.301877
0.294903
0.297323
0.290177
0.292496
0.286214
0.288038
0.284494
0.284928
0.284966
0.286982
0.285771
0.290465
0.288568
0.294876
0.292596
0.299573
0.297226
0.303987
0.301848
0.307587
0.305923
0.309883
0.308914
0.310929
0.310531
0.311268
0.311152
0.311349
0.311324
0.311361
0.311358
0.311358
0.311361
0.311351
0.311355
0.311349
0.311348
0.311348
0.31135
0.311349
0.311351
0.311352
0.311346
0.311372
0.311369
0.311356
0.31136
0.311346
0.311354
0.311304
0.311334
0.311116
0.311238
0.310673
0.310933
0.309883
0.310329
0.30859
0.309295
0.30785
0.33058
0.330615
0.33052
0.330548
0.330472
0.330495
0.330447
0.330432
0.330451
0.330489
0.330473
0.330521
0.330496
0.33058
0.330549
0.330615
0.330718
0.330751
0.330869
0.330884
0.330834
0.330843
0.330938
0.330863
0.331168
0.331047
0.331276
0.330725
0.331321
0.331192
0.332098
0.33264
0.330841
0.330752
0.330797
0.330879
0.330871
0.330835
0.33086
0.33087
0.330833
0.33106
0.330949
0.331184
0.322799
0.308841
0.331251
0.312963
0.311362
0.330792
0.330582
0.309617
0.310618
0.32659
0.309012
0.331422
0.310698
0.309062
0.33144
0.331292
0.30865
0.309414
0.331476
0.331972
0.326052
0.314062
0.31503
0.325154
0.330907
0.312281
0.330964
0.33145
0.331493
0.305077
0.311941
0.320324
0.330718
0.330697
0.330826
0.331043
0.331445
0.331557
0.331539
0.332449
0.334203
0.333088
0.33348
0.321093
0.306861
0.309242
0.331313
0.331204
0.30922
0.330806
0.330728
0.33052
0.330592
0.312638
0.327056
0.324242
0.325577
0.308737
0.310371
0.325662
0.331437
0.30835
0.33134
0.331455
0.331425
0.331337
0.309021
0.308942
0.331734
0.31055
0.326365
0.30854
0.286808
0.285822
0.28426
0.28456
0.330745
0.330724
0.3323
0.332737
0.336838
0.319237
0.310121
0.322557
0.210119
0.308623
0.331351
0.330811
0.306701
0.307211
0.330648
0.330469
0.330607
0.331523
0.330303
0.326982
0.308537
0.331437
0.307451
0.331373
0.331378
0.3086
0.330443
0.307055
0.306114
0.30764
0.317104
0.311515
0.307267
0.330575
0.330416
0.33043
0.330638
0.329755
0.338793
0.331413
0.306683
0.315752
0.319048
0.314758
0.308818
0.306627
0.330515
0.330702
0.329311
0.306436
0.321423
0.330884
0.329378
0.330453
0.330468
0.330795
0.329048
0.323389
0.329059
0.309452
0.330916
0.32502
0.331077
0.330898
0.324183
0.316452
0.321781
0.305773
0.305954
0.307755
0.306846
0.309501
0.308627
0.310911
0.310356
0.311638
0.311303
0.312019
0.31188
0.31209
0.312079
0.312028
0.312069
0.311947
0.311984
0.311876
0.311909
0.311833
0.31185
0.311815
0.311823
0.31181
0.311811
0.311812
0.311811
0.311815
0.311814
0.311817
0.311817
0.311812
0.311816
0.311781
0.311803
0.311623
0.31173
0.311045
0.311415
0.309538
0.31044
0.306749
0.308301
0.302921
0.304936
0.298507
0.300761
0.293966
0.29622
0.289861
0.291819
0.288169
0.284558
0.284741
0.284258
0.287888
0.286053
0.292308
0.290018
0.297025
0.294666
0.301439
0.299312
0.304683
0.303288
0.3054
0.3054
0.303288
0.304683
0.299312
0.301439
0.294666
0.297025
0.290018
0.292307
0.286053
0.287888
0.284743
0.285826
0.288173
0.286812
0.291826
0.289866
0.29623
0.293974
0.300771
0.298517
0.304946
0.302932
0.308309
0.306758
0.310445
0.309544
0.311418
0.311048
0.311734
0.311626
0.311808
0.311785
0.31182
0.311817
0.311817
0.31182
0.31181
0.311813
0.311808
0.311807
0.311804
0.311806
0.311805
0.311806
0.311807
0.311803
0.311821
0.311819
0.311811
0.311812
0.311803
0.311809
0.311761
0.311792
0.311554
0.311687
0.311072
0.311354
0.310202
0.310696
0.308751
0.309548
0.307895
0.330696
0.330637
0.330668
0.330573
0.330604
0.330516
0.330543
0.330468
0.330491
0.330427
0.330446
0.330405
0.330401
0.330412
0.330434
0.33043
0.330469
0.330448
0.330517
0.330492
0.330573
0.330543
0.330637
0.330604
0.330668
0.33078
0.330892
0.330914
0.330841
0.330857
0.330943
0.330869
0.331172
0.331053
0.331357
0.331278
0.331411
0.331449
0.331511
0.332758
0.333877
0.330781
0.330721
0.330745
0.330875
0.330828
0.330909
0.330905
0.330851
0.330884
0.330877
0.330842
0.331062
0.330954
0.331304
0.331182
0.310147
0.322716
0.307729
0.331272
0.312349
0.310657
0.330768
0.330553
0.311592
0.326575
0.30973
0.313829
0.312405
0.331465
0.30909
0.331382
0.331378
0.308792
0.327423
0.333169
0.326266
0.309586
0.330931
0.305736
0.313936
0.329108
0.331232
0.333194
0.285222
0.285225
0.330685
0.33071
0.330848
0.331548
0.331824
0.332467
0.332276
0.333245
0.33655
0.334475
0.335306
0.331743
0.331541
0.320944
0.305493
0.308185
0.329084
0.303936
0.326814
0.317103
0.331335
0.331201
0.308301
0.330695
0.330496
0.33056
0.332564
0.330668
0.327024
0.32416
0.32552
0.309619
0.118958
0.315081
0.311601
0.311582
0.31199
0.331475
0.33223
0.308015
0.331336
0.331391
0.33141
0.0856463
0.308056
0.331239
0.307495
0.306655
0.305089
0.334018
0.339866
0.330749
0.30866
0.330739
0.318927
0.309183
0.313111
0.311545
0.308745
0.307952
0.314193
0.331373
0.099481
0.306229
0.330615
0.330451
0.33057
0.331095
0.326153
0.329921
0.33753
0.326932
0.309582
0.330415
0.330431
0.330416
0.331463
0.330317
0.332535
0.333531
0.306895
0.188964
0.302819
0.332558
0.318382
0.33144
0.316639
0.313046
0.311024
0.30722
0.310532
0.306833
0.319652
0.317761
0.305078
0.30482
0.330548
0.330418
0.330598
0.330392
0.330391
0.330388
0.325725
0.329283
0.331957
0.327319
0.306323
0.331101
0.320972
0.331041
0.311738
0.330708
0.314206
0.300755
0.313179
0.261935
0.306272
0.329444
0.330492
0.330394
0.330398
0.330659
0.330389
0.331379
0.328824
0.323132
0.328849
0.310033
0.330449
0.330758
0.32865
0.324868
0.326144
0.310566
0.330419
0.330905
0.33211
0.274385
0.32143
0.31616
0.31761
0.311616
0.313149
0.314741
0.30423
0.304905
0.306612
0.305743
0.308415
0.307514
0.310111
0.309277
0.311457
0.310902
0.312273
0.311893
0.312711
0.312552
0.312788
0.312779
0.312705
0.312757
0.312599
0.312649
0.312508
0.312551
0.31245
0.312474
0.31242
0.312433
0.31241
0.312413
0.312411
0.31241
0.312413
0.312412
0.312414
0.312414
0.31241
0.312413
0.312381
0.312401
0.312232
0.312333
0.31169
0.312037
0.310285
0.311125
0.307705
0.309139
0.304175
0.306033
0.300071
0.302173
0.295774
0.297918
0.291787
0.293709
0.288591
0.290065
0.286537
0.287406
0.285998
0.284526
0.284986
0.284899
0.284399
0.287968
0.286178
0.292256
0.290039
0.296805
0.294533
0.301057
0.299007
0.304188
0.302841
0.30488
0.30488
0.302841
0.304188
0.299007
0.301057
0.294533
0.296805
0.290039
0.292256
0.286179
0.287968
0.2844
0.284901
0.284988
0.284527
0.286002
0.28741
0.286542
0.29007
0.288596
0.293716
0.291793
0.297927
0.295782
0.302182
0.30008
0.306042
0.304184
0.309144
0.307712
0.311128
0.310289
0.312039
0.311692
0.312335
0.312234
0.312403
0.312382
0.312415
0.312412
0.312413
0.312415
0.312406
0.312409
0.312403
0.312405
0.312394
0.312398
0.312389
0.312392
0.31239
0.312387
0.312401
0.312398
0.312399
0.312397
0.312399
0.312401
0.312347
0.312388
0.31211
0.312259
0.311598
0.311894
0.310672
0.311198
0.309176
0.309992
0.308348
0.330683
0.330705
0.330629
0.330657
0.330572
0.330601
0.330519
0.330545
0.33047
0.330494
0.33043
0.330448
0.330403
0.330414
0.330396
0.330471
0.33045
0.330519
0.330494
0.330572
0.330545
0.33063
0.330601
0.330658
0.330732
0.330766
0.330745
0.330801
0.330913
0.330938
0.330855
0.330875
0.330939
0.330874
0.331164
0.331047
0.331352
0.331271
0.331406
0.331534
0.317631
0.332123
0.333826
0.336009
0.330801
0.330766
0.330899
0.33085
0.330933
0.33093
0.330871
0.330907
0.330886
0.330857
0.331061
0.330957
0.331294
0.331179
0.331407
0.322605
0.306526
0.306353
0.322921
0.331281
0.311597
0.309828
0.330744
0.330525
0.328304
0.328032
0.332487
0.331365
0.330843
0.333225
0.335549
0.311133
0.311805
0.310158
0.166796
0.306946
0.326531
0.310713
0.312065
0.313284
0.312168
0.331447
0.332094
0.30905
0.331268
0.331384
0.331409
0.308126
0.328301
0.320691
0.332628
0.332684
0.165966
0.324091
0.31085
0.336886
0.310159
0.305244
0.321201
0.305346
0.327763
0.330928
0.331431
0.331779
0.332508
0.334915
0.3397
0.338338
0.33073
0.320712
0.303783
0.304328
0.30713
0.309807
0.308114
0.308957
0.312088
0.331339
0.308305
0.329868
0.331276
0.212531
0.309168
0.307313
0.33066
0.330474
0.330526
0.330391
0.330394
0.330394
0.33039
0.325859
0.325592
0.334299
0.333554
0.332092
0.330314
0.336088
0.320046
0.303337
0.326965
0.324025
0.325422
0.310773
0.330405
0.199764
0.330761
0.3165
0.312937
0.313543
0.313678
0.3308
0.331446
0.333842
0.335276
0.30763
0.332107
0.31788
0.313849
0.331197
0.331368
0.331633
0.308554
0.331424
0.331312
0.331506
0.331682
0.288579
0.287664
0.285072
0.285779
0.330721
0.330739
0.330731
0.333706
0.335022
0.336225
0.336023
0.318534
0.309191
0.315361
0.306601
0.308169
0.310162
0.308186
0.307576
0.315303
0.330897
0.305218
0.329508
0.330804
0.330584
0.330436
0.330532
0.330387
0.325641
0.324303
0.332576
0.329457
0.336658
0.316815
0.312124
0.326839
0.310747
0.330403
0.317418
0.314663
0.33144
0.306659
0.314864
0.320271
0.0807911
0.333569
0.335586
0.299912
0.316144
0.309579
0.305937
0.309593
0.311473
0.309937
0.31047
0.306613
0.319067
0.329829
0.30385
0.330522
0.33041
0.330557
0.330387
0.32472
0.333103
0.328784
0.305407
0.317086
0.32779
0.331319
0.306311
0.322707
0.249201
0.313517
0.309696
0.306062
0.328867
0.304086
0.303374
0.310434
0.330472
0.330394
0.330623
0.332733
0.328386
0.333703
0.324622
0.325991
0.311372
0.330433
0.330747
0.328392
0.329447
0.332844
0.218026
0.301976
0.330723
0.323211
0.317822
0.319393
0.314582
0.316234
0.309831
0.311436
0.312944
0.30336
0.304122
0.305493
0.304743
0.307139
0.306282
0.309025
0.308073
0.310812
0.309949
0.31217
0.311586
0.313063
0.312653
0.313502
0.313352
0.313532
0.313549
0.313402
0.313476
0.313257
0.313326
0.313139
0.313194
0.313063
0.313095
0.313021
0.313038
0.313005
0.31301
0.313003
0.313003
0.313005
0.313004
0.313006
0.313006
0.313002
0.313005
0.312975
0.312994
0.312834
0.312929
0.312323
0.31265
0.311007
0.311793
0.308619
0.309941
0.305404
0.30709
0.301704
0.303597
0.29784
0.299766
0.294223
0.295979
0.291072
0.292582
0.289725
0.285774
0.284816
0.285069
0.285347
0.284843
0.28823
0.286544
0.292295
0.290192
0.296624
0.294459
0.300697
0.29873
0.303719
0.302416
0.304387
0.304387
0.302416
0.303719
0.29873
0.300697
0.294459
0.296624
0.290192
0.292295
0.286545
0.28823
0.284844
0.285348
0.284818
0.287671
0.289733
0.288586
0.29259
0.29108
0.295988
0.294231
0.299775
0.297848
0.303605
0.301712
0.307096
0.305411
0.309945
0.308624
0.311794
0.311009
0.312649
0.312323
0.312928
0.312833
0.312994
0.312973
0.313005
0.313002
0.313003
0.313005
0.312998
0.313
0.312992
0.312996
0.312979
0.312986
0.312969
0.312974
0.312969
0.312967
0.312981
0.312978
0.312987
0.312982
0.312994
0.312993
0.312935
0.312983
0.312677
0.312837
0.312122
0.312445
0.311102
0.311681
0.309579
0.310387
0.308001
0.308805
0.306113
0.3073
0.330673
0.330696
0.330624
0.33065
0.330573
0.330599
0.330522
0.330547
0.330474
0.330498
0.330434
0.330452
0.330408
0.330419
0.330397
0.330401
0.330396
0.330394
0.330392
0.33039
0.330397
0.330395
0.330409
0.330401
0.330435
0.33042
0.330474
0.330453
0.330522
0.330498
0.330573
0.330547
0.330625
0.330599
0.330676
0.330651
0.3307
0.330763
0.330744
0.330795
0.330911
0.330935
0.330853
0.330872
0.330948
0.330876
0.331158
0.331047
0.331341
0.331262
0.331391
0.331694
0.0950824
0.334319
0.33584
0.339248
0.330738
0.330708
0.330721
0.330795
0.330761
0.330892
0.330843
0.33093
0.330925
0.330869
0.330905
0.33088
0.330855
0.33105
0.330953
0.331274
0.331161
0.331386
0.322427
0.30545
0.308116
0.310395
0.331267
0.309954
0.334097
0.310782
0.308932
0.307221
0.330497
0.33039
0.325479
0.33103
0.3348
0.335107
0.318556
0.316357
0.318134
0.336079
0.313464
0.309822
0.30831
0.305134
0.304106
0.32646
0.311949
0.0768189
0.330893
0.314368
0.313811
0.0615455
0.334974
0.308937
0.314226
0.331123
0.331333
0.31472
0.296986
0.331377
0.331947
0.0872046
0.332011
0.337388
0.201808
0.311342
0.303666
0.24486
0.287004
0.287011
0.304427
0.330695
0.321598
0.332002
0.333605
0.335765
0.337563
0.336671
0.341614
0.320386
0.149164
0.306754
0.302537
0.303221
0.306112
0.308541
0.30744
0.308844
0.31275
0.331314
0.331119
0.328347
0.15201
0.306314
0.330729
0.330623
0.330455
0.330495
0.330386
0.323922
0.323739
0.331479
0.329848
0.332867
0.329101
0.250985
0.301706
0.302458
0.326865
0.323836
0.325273
0.31205
0.330396
0.330386
0.330388
0.315384
0.31811
0.314428
0.315188
0.315301
0.331311
0.331445
0.330795
0.331196
0.331383
0.335244
0.338092
0.307567
0.304005
0.319973
0.33084
0.330914
0.289569
0.331018
0.306433
0.26263
0.337571
0.317089
0.171909
0.286505
0.330512
0.330699
0.330495
0.318102
0.308156
0.30518
0.306995
0.30857
0.307424
0.310123
0.308649
0.308777
0.307576
0.316539
0.33059
0.331986
0.274952
0.329436
0.304129
0.330554
0.330426
0.330497
0.330386
0.331354
0.324145
0.323482
0.331941
0.328949
0.309146
0.33327
0.279373
0.264498
0.300108
0.301985
0.305101
0.304618
0.326715
0.311897
0.330407
0.335469
0.31558
0.316436
0.331376
0.306787
0.18597
0.322345
0.323958
0.327692
0.304212
0.334703
0.312731
0.315537
0.307639
0.305021
0.307255
0.308211
0.308206
0.306819
0.141645
0.321289
0.329207
0.309447
0.30283
0.312665
0.330497
0.330406
0.330527
0.330392
0.324749
0.33269
0.328314
0.330888
0.336399
0.204873
0.331568
0.305487
0.302545
0.324225
0.325729
0.311845
0.330453
0.330614
0.328068
0.336623
0.333967
0.332426
0.319388
0.322005
0.316374
0.317548
0.313851
0.315164
0.311215
0.312524
0.310002
0.304968
0.302902
0.302356
0.304235
0.303511
0.305968
0.305063
0.307917
0.306925
0.309819
0.308915
0.311136
0.310569
0.31216
0.311661
0.312681
0.312507
0.312693