/*--------------------------------*- C++ -*----------------------------------*\
| =========                 |                                                 |
| \\      /  F ield         | OpenFOAM: The Open Source CFD Toolbox           |
|  \\    /   O peration     | Version:  2212                                  |
|   \\  /    A nd           | Website:  www.openfoam.com                      |
|    \\/     M anipulation  |                                                 |
\*---------------------------------------------------------------------------*/
FoamFile
{
    version     2.0;
    format      ascii;
    arch        "LSB;label=32;scalar=64";
    class       volScalarField;
    location    "0.361";
    object      nut;
}
// * * * * * * * * * * * * * * * * * * * * * * * * * * * * * * * * * * * * * //

dimensions      [0 2 -1 0 0 0 0];

internalField   nonuniform List<scalar> 
24240
(
0
0
0
0
0
0
0
0
0
0
0
0
0
0
0
0
0
0
0
0
0
0
0
0
0
0
0
0
0
0
0
0
0
0
0
0
0
0
0
0
0
0
0
0
0
0
0
0
0
0
0
0
0
0
0
0
0
0
0
0
0
0
0
0
0
0
0
0
0
0
0
0
0
0
0
0
0
0
0
0
0
0
0
0
0
0
0
0
0
0
0
0
0
0
0
0
0
0
0
0
0
0
0
0
0
0
0
0
0
0
0
0
0
0
0
0
0
0
0
0
0
0
0
0
0
0
0
0
0
0
0
0
0
0
0
0
0
0
0
0
0
0
0
0
0
0
0
0
0
0
0
0
0
0
0
0
0
0
0
0
0
0
0
0
0
0
0
0
0
0
0
0
0
0
0
0
0
0
0
0
0
0
0
0
0
0
0
0
0
0
0
0
0
0
0
0
0
0
0
0
0
0
0
0
0
0
0
0
0
0
0
0
0
0
0
0
0
0
0
0
0
0
0
0
0
0
0
0
0
0
0
0
0
0
0
0
0
0
0
0
0
0
0
0
0
0
0
0
0
0
0
0
0
0
0
0
0
0
0
0
0
0
0
0
0
0
0
0
0
0
0
0
0
0
0
0
0
0
0
0
0
0
0
0
0
0
0
0
0
0
0
0
0
0
0
0
0
0
0
0
0
0
0
0
0
0
0
0
0
0
0
0
0
0
0
0
0
0
0
0
0
0
0
0
0
0
0
0
0
0
0
0
0
0
0
0
0
0
0
0
0
0
0
0
0
0
0
0
0
0
0
0
0
0
0
0
0
0
0
0
0
0
0
0
0
0
0
0
0
0
0
0
0
0
0
0
0
0
0
0
0
0
0
0
0
0
0
0
0
0
0
0
0
0
0
0
0
0
0
0
0
0
0
0
0
0
0
0
0
0
0
0
0
0
0
0
0
0
0
0
0
0
0
0
0
0
0
0
0
0
0
0
0
0
0
0
0
0
0
0
0
0
0
0
0
0
0
0
0
0
0
0
0
0
0
0
0
0
0
0
0
0
0
0
0
0
0
0
0
0
0
0
0
0
0
0
0
0
0
0
0
0
0
0
0
0
0
0
0
0
0
0
0
0
0
0
0
0
0
0
0
0
0
0
0
0
0
0
0
0
0
0
0
0
0
0
0
0
0
0
0
0
0
0
0
0
0
0
0
0
0
0
0
0
0
0
0
0
0
0
0
0
0
0
0
0
0
0
0
0
0
0
0
0
0
0
0
0
0
0
0
0
0
0
0
0
0
0
0
0
0
0
0
0
0
0
0
0
0
0
0
0
0
0
0
0
0
0
0
0
0
0
0
0
0
0
0
0
0
0
0
0
0
0
0
0
0
0
0
0
0
0
0
0
0
0
0
0
0
0
0
0
0
0
0
0
0
0
0
0
0
0
0
0
0
0
0
0
0
0
0
0
0
0
0
0
0
0
0
0
0
0
0
0
0
0
0
0
0
0
0
0
0
0
0
0
0
0
0
0
0
0
0
0
0
0
0
0
0
0
0
0
0
0
0
0
0
0
0
0
0
0
0
0
0
0
0
0
0
0
0
0
0
0
0
0
0
0
0
0
0
0
0
0
0
0
0
0
0
0
0
0
0
0
0
0
0
0
0
0
0
0
0
0
0
0
0
0
0
0
0
0
0
0
0
0
0
0
0
0
0
0
0
0
0
0
0
0
0
0
0
0
0
0
0
0
0
0
0
0
0
0
0
0
0
0
0
0
0
0
0
0
0
0
0
0
0
0
0
0
0
0
0
0
0
0
0
0
0
0
0
2.45685e-07
3.73528e-07
3.72765e-07
3.72883e-07
3.73019e-07
3.73175e-07
3.73342e-07
3.73517e-07
3.73694e-07
3.7387e-07
3.7404e-07
3.742e-07
3.74349e-07
3.74482e-07
3.74602e-07
3.74699e-07
3.75632e-07
2.47325e-07
0
0
0
1.66582e-08
2.02732e-08
1.90795e-08
1.90845e-08
1.90903e-08
1.90966e-08
1.91032e-08
1.911e-08
1.91168e-08
1.91234e-08
1.91297e-08
1.91356e-08
1.91411e-08
1.91461e-08
2.03494e-08
1.67349e-08
0
0
0
0
0
0
0
0
0
0
0
0
0
0
0
0
0
0
0
0
0
0
0
0
0
2.59094e-06
2.61159e-06
2.6115e-06
2.6114e-06
2.61129e-06
2.61117e-06
2.61105e-06
2.61093e-06
2.61082e-06
2.61071e-06
2.61062e-06
2.61053e-06
2.61045e-06
2.58967e-06
0
0
0
0
0
0
2.64431e-06
2.66769e-06
2.6677e-06
2.6677e-06
2.6677e-06
2.6677e-06
2.6677e-06
2.6677e-06
2.6677e-06
2.6677e-06
2.6677e-06
2.66769e-06
2.66768e-06
2.64429e-06
0
0
0
0
0
0
1.96509e-06
1.98274e-06
1.98269e-06
1.98262e-06
1.98256e-06
1.98248e-06
1.98241e-06
1.98234e-06
1.98226e-06
1.98219e-06
1.98212e-06
1.98206e-06
1.982e-06
1.96425e-06
0
0
0
0
0
0
1.96816e-06
1.9867e-06
1.98667e-06
1.98664e-06
1.98661e-06
1.98657e-06
1.98653e-06
1.98649e-06
1.98645e-06
1.9864e-06
1.98636e-06
1.98631e-06
1.98627e-06
1.96766e-06
0
0
0
0
0
0
1.30703e-06
1.31935e-06
1.31924e-06
1.31911e-06
1.31897e-06
1.31883e-06
1.31868e-06
1.31853e-06
1.31838e-06
1.31823e-06
1.31809e-06
1.31796e-06
1.31785e-06
1.30535e-06
0
0
0
0
0
0
1.20964e-06
1.2209e-06
1.22079e-06
1.22067e-06
1.22054e-06
1.2204e-06
1.22026e-06
1.22012e-06
1.21998e-06
1.21984e-06
1.21971e-06
1.21959e-06
1.21948e-06
1.20804e-06
0
0
0
0
0
0
1.29466e-06
1.3065e-06
1.30636e-06
1.3062e-06
1.30603e-06
1.30585e-06
1.30566e-06
1.30547e-06
1.30528e-06
1.3051e-06
1.30493e-06
1.30478e-06
1.30463e-06
1.29256e-06
0
0
0
0
0
0
1.15823e-06
1.16858e-06
1.16839e-06
1.16817e-06
1.16794e-06
1.16769e-06
1.16745e-06
1.1672e-06
1.16696e-06
1.16673e-06
1.16652e-06
1.16633e-06
1.16617e-06
1.15554e-06
0
0
0
0
0
0
1.95467e-06
1.97181e-06
1.97165e-06
1.97148e-06
1.97129e-06
1.97109e-06
1.97089e-06
1.97069e-06
1.9705e-06
1.97032e-06
1.97015e-06
1.97e-06
1.96987e-06
1.95249e-06
0
0
0
0
0
0
1.84505e-06
1.86031e-06
1.8601e-06
1.85987e-06
1.85962e-06
1.85937e-06
1.85911e-06
1.85886e-06
1.85862e-06
1.8584e-06
1.85821e-06
1.85804e-06
1.8579e-06
1.84238e-06
0
0
0
0
0
0
3.22563e-06
3.25157e-06
3.25148e-06
3.25138e-06
3.25127e-06
3.25116e-06
3.25106e-06
3.25096e-06
3.25088e-06
3.2508e-06
3.25074e-06
3.25069e-06
3.25065e-06
3.22461e-06
0
0
0
0
0
0
3.23739e-06
3.26198e-06
3.26179e-06
3.26157e-06
3.26134e-06
3.26111e-06
3.26088e-06
3.26067e-06
3.26048e-06
3.26031e-06
3.26017e-06
3.26007e-06
3.25999e-06
3.2352e-06
0
0
0
0
0
0
4.93145e-06
4.96703e-06
4.96724e-06
4.96745e-06
4.96769e-06
4.96793e-06
4.9682e-06
4.96848e-06
4.96876e-06
4.96905e-06
4.96933e-06
4.9696e-06
4.96982e-06
4.9346e-06
0
0
0
0
0
0
5.52233e-06
5.55974e-06
5.55995e-06
5.56004e-06
5.56015e-06
5.56026e-06
5.56039e-06
5.56045e-06
5.56071e-06
5.56088e-06
5.56108e-06
5.56127e-06
5.56134e-06
5.52418e-06
0
0
0
0
0
0
5.17069e-09
5.02952e-09
4.82333e-09
4.82522e-09
4.82727e-09
4.82945e-09
4.83168e-09
5.01032e-09
4.83593e-09
4.83798e-09
4.84002e-09
4.84189e-09
5.05286e-09
5.19808e-09
0
0
0
0
0
5.74023e-08
6.69817e-08
6.32758e-08
6.32376e-08
6.32421e-08
6.32469e-08
6.32521e-08
6.32574e-08
6.33225e-08
6.3268e-08
6.3273e-08
6.3278e-08
6.32826e-08
6.33291e-08
6.70453e-08
5.74635e-08
0
0
2.22256e-07
2.14893e-06
2.7423e-06
2.74066e-06
2.74097e-06
2.74134e-06
2.74177e-06
2.74225e-06
2.74275e-06
2.74327e-06
2.74379e-06
2.7443e-06
2.7448e-06
2.74527e-06
2.74572e-06
2.74614e-06
2.7465e-06
2.74866e-06
2.1541e-06
2.23161e-07
0
2.70361e-08
7.8387e-08
7.85285e-08
7.85741e-08
7.86264e-08
7.86869e-08
7.87518e-08
7.88201e-08
7.88893e-08
7.8958e-08
7.90247e-08
7.90879e-08
7.91471e-08
7.92006e-08
7.92494e-08
7.92895e-08
7.92113e-08
2.75306e-08
0
0
0
0
0
0
0
0
0
0
0
0
0
0
0
0
0
0
0
0
0
0
0
0
0
0
0
0
0
0
0
0
0
0
0
0
0
0
0
0
0
0
0
0
2.58703e-06
2.60813e-06
2.60811e-06
2.60808e-06
2.60804e-06
2.608e-06
2.60796e-06
2.60792e-06
2.60787e-06
2.60783e-06
2.60779e-06
2.60775e-06
2.6077e-06
2.58655e-06
0
0
0
0
0
0
2.85276e-06
2.87922e-06
2.87921e-06
2.87919e-06
2.87916e-06
2.87913e-06
2.87911e-06
2.87908e-06
2.87905e-06
2.87902e-06
2.87899e-06
2.87895e-06
2.87891e-06
2.85241e-06
0
0
0
0
0
0
2.05432e-06
2.07304e-06
2.07297e-06
2.07289e-06
2.07281e-06
2.07271e-06
2.07262e-06
2.07252e-06
2.07243e-06
2.07233e-06
2.07225e-06
2.07216e-06
2.07208e-06
2.05323e-06
0
0
0
0
0
0
2.13985e-06
2.16051e-06
2.16044e-06
2.16035e-06
2.16027e-06
2.16017e-06
2.16008e-06
2.15998e-06
2.15988e-06
2.15979e-06
2.1597e-06
2.15961e-06
2.15953e-06
2.13875e-06
0
0
0
0
0
0
1.42384e-06
1.43744e-06
1.43731e-06
1.43716e-06
1.437e-06
1.43683e-06
1.43666e-06
1.43648e-06
1.43631e-06
1.43614e-06
1.43598e-06
1.43582e-06
1.43569e-06
1.42187e-06
0
0
0
0
0
0
1.36743e-06
1.38024e-06
1.38011e-06
1.37996e-06
1.3798e-06
1.37963e-06
1.37946e-06
1.37928e-06
1.37911e-06
1.37895e-06
1.37879e-06
1.37864e-06
1.37851e-06
1.36549e-06
0
0
0
0
0
0
1.49108e-06
1.50496e-06
1.50479e-06
1.50459e-06
1.50438e-06
1.50416e-06
1.50394e-06
1.50371e-06
1.50348e-06
1.50326e-06
1.50305e-06
1.50286e-06
1.50268e-06
1.48853e-06
0
0
0
0
0
0
1.39556e-06
1.40806e-06
1.40787e-06
1.40765e-06
1.40742e-06
1.40717e-06
1.40691e-06
1.40666e-06
1.40641e-06
1.40617e-06
1.40594e-06
1.40573e-06
1.40554e-06
1.39275e-06
0
0
0
0
0
0
2.34214e-06
2.3635e-06
2.36331e-06
2.36309e-06
2.36286e-06
2.36262e-06
2.36236e-06
2.36211e-06
2.36187e-06
2.36164e-06
2.36142e-06
2.36122e-06
2.36104e-06
2.33939e-06
0
0
0
0
0
0
2.27332e-06
2.29231e-06
2.29211e-06
2.29189e-06
2.29164e-06
2.29139e-06
2.29113e-06
2.29087e-06
2.29062e-06
2.29038e-06
2.29016e-06
2.28996e-06
2.28979e-06
2.27051e-06
0
0
0
0
0
0
3.88284e-06
3.91656e-06
3.91644e-06
3.91629e-06
3.91614e-06
3.91598e-06
3.91582e-06
3.91566e-06
3.91552e-06
3.91539e-06
3.91527e-06
3.91517e-06
3.91508e-06
3.88119e-06
0
0
0
0
0
0
3.79181e-06
3.82181e-06
3.82167e-06
3.82149e-06
3.82131e-06
3.82112e-06
3.82093e-06
3.82074e-06
3.82058e-06
3.82042e-06
3.82029e-06
3.82017e-06
3.82006e-06
3.78986e-06
0
0
0
0
0
0
5.6999e-06
5.74433e-06
5.74453e-06
5.74472e-06
5.74494e-06
5.74517e-06
5.74541e-06
5.74567e-06
5.74594e-06
5.74622e-06
5.74649e-06
5.74674e-06
5.74695e-06
5.70286e-06
0
0
0
0
0
0
5.7431e-06
5.78422e-06
5.78451e-06
5.7847e-06
5.78491e-06
5.78514e-06
5.78538e-06
5.78555e-06
5.78588e-06
5.78613e-06
5.78638e-06
5.78662e-06
5.78673e-06
5.74592e-06
0
0
0
0
0
0
0
0
0
0
0
0
0
0
0
0
0
0
0
0
0
0
0
0
0
1.78985e-08
2.45874e-08
2.3225e-08
2.32197e-08
2.32274e-08
2.32359e-08
2.32449e-08
2.32542e-08
2.32742e-08
2.32727e-08
2.32816e-08
2.32901e-08
2.32981e-08
2.33176e-08
2.46982e-08
1.80068e-08
0
0
0
1.0213e-06
1.41921e-06
1.42109e-06
1.42137e-06
1.42171e-06
1.42211e-06
1.42255e-06
1.42302e-06
1.42351e-06
1.424e-06
1.42449e-06
1.42497e-06
1.42543e-06
1.42587e-06
1.42628e-06
1.42665e-06
1.42526e-06
1.02617e-06
0
0
1.18514e-07
2.01469e-07
2.01301e-07
2.01359e-07
2.01425e-07
2.01501e-07
2.01584e-07
2.01671e-07
2.0176e-07
2.01849e-07
2.01936e-07
2.0202e-07
2.02098e-07
2.0217e-07
2.02236e-07
2.0229e-07
2.02543e-07
1.192e-07
0
0
0
9.49204e-09
1.35683e-08
1.26602e-08
1.26632e-08
1.26667e-08
1.26704e-08
1.26744e-08
1.26785e-08
1.26825e-08
1.26864e-08
1.26902e-08
1.26937e-08
1.2697e-08
1.27e-08
1.36158e-08
9.53794e-09
0
0
0
0
0
0
0
0
0
0
0
0
0
0
0
0
0
0
0
0
0
0
0
0
0
4.86378e-06
4.90561e-06
4.90556e-06
4.9055e-06
4.90544e-06
4.90536e-06
4.90529e-06
4.90521e-06
4.90513e-06
4.90505e-06
4.90497e-06
4.90489e-06
4.90481e-06
4.86288e-06
0
0
0
0
0
0
4.86218e-06
4.90741e-06
4.90738e-06
4.90733e-06
4.90727e-06
4.9072e-06
4.90714e-06
4.90707e-06
4.907e-06
4.90694e-06
4.90687e-06
4.90681e-06
4.90674e-06
4.86142e-06
0
0
0
0
0
0
3.48446e-06
3.51758e-06
3.51751e-06
3.51742e-06
3.51733e-06
3.51722e-06
3.51711e-06
3.517e-06
3.51689e-06
3.51678e-06
3.51668e-06
3.51657e-06
3.51647e-06
3.4832e-06
0
0
0
0
0
0
3.40368e-06
3.43678e-06
3.43669e-06
3.43658e-06
3.43647e-06
3.43634e-06
3.43621e-06
3.43608e-06
3.43595e-06
3.43582e-06
3.43571e-06
3.43559e-06
3.43549e-06
3.40223e-06
0
0
0
0
0
0
2.39404e-06
2.41741e-06
2.41725e-06
2.41708e-06
2.41689e-06
2.41668e-06
2.41647e-06
2.41626e-06
2.41604e-06
2.41583e-06
2.41562e-06
2.41543e-06
2.41525e-06
2.39161e-06
0
0
0
0
0
0
2.29325e-06
2.31481e-06
2.31464e-06
2.31445e-06
2.31424e-06
2.31402e-06
2.3138e-06
2.31358e-06
2.31335e-06
2.31313e-06
2.31292e-06
2.31272e-06
2.31253e-06
2.29068e-06
0
0
0
0
0
0
2.44882e-06
2.47176e-06
2.47156e-06
2.47132e-06
2.47107e-06
2.4708e-06
2.47053e-06
2.47024e-06
2.46996e-06
2.46968e-06
2.46942e-06
2.46916e-06
2.46893e-06
2.44563e-06
0
0
0
0
0
0
2.35662e-06
2.37831e-06
2.37809e-06
2.37784e-06
2.37757e-06
2.37728e-06
2.37699e-06
2.37668e-06
2.37638e-06
2.37608e-06
2.37579e-06
2.37552e-06
2.37527e-06
2.35321e-06
0
0
0
0
0
0
3.59792e-06
3.63064e-06
3.63042e-06
3.63017e-06
3.6299e-06
3.62961e-06
3.62931e-06
3.629e-06
3.62871e-06
3.62841e-06
3.62813e-06
3.62786e-06
3.62762e-06
3.59453e-06
0
0
0
0
0
0
3.67423e-06
3.70695e-06
3.70673e-06
3.70647e-06
3.7062e-06
3.7059e-06
3.7056e-06
3.70529e-06
3.70499e-06
3.70469e-06
3.7044e-06
3.70413e-06
3.70388e-06
3.67078e-06
0
0
0
0
0
0
5.8167e-06
5.86787e-06
5.86771e-06
5.86752e-06
5.86733e-06
5.86712e-06
5.86691e-06
5.86669e-06
5.8665e-06
5.8663e-06
5.86612e-06
5.86595e-06
5.86578e-06
5.81436e-06
0
0
0
0
0
0
6.16077e-06
6.21332e-06
6.21317e-06
6.21299e-06
6.2128e-06
6.21259e-06
6.21238e-06
6.21216e-06
6.21196e-06
6.21176e-06
6.21157e-06
6.21138e-06
6.2112e-06
6.15836e-06
0
0
0
0
0
0
9.31233e-06
9.38808e-06
9.38825e-06
9.3884e-06
9.38858e-06
9.38876e-06
9.38897e-06
9.38919e-06
9.38943e-06
9.38967e-06
9.38991e-06
9.39013e-06
9.3903e-06
9.31482e-06
0
0
0
0
0
0
1.01139e-05
1.01935e-05
1.01938e-05
1.01941e-05
1.01943e-05
1.01946e-05
1.01949e-05
1.01953e-05
1.01956e-05
1.01959e-05
1.01962e-05
1.01965e-05
1.01967e-05
1.01174e-05
0
0
0
0
0
0
0
0
0
0
0
0
0
0
0
0
0
0
0
0
0
0
0
0
0
4.31484e-08
5.10375e-08
4.81513e-08
4.81156e-08
4.81228e-08
4.81307e-08
4.81392e-08
4.8148e-08
4.81736e-08
4.8166e-08
4.81747e-08
4.81835e-08
4.81918e-08
4.82417e-08
5.11466e-08
4.32553e-08
0
0
1.21468e-07
1.55404e-06
2.05503e-06
2.05613e-06
2.05642e-06
2.05678e-06
2.05719e-06
2.05766e-06
2.05816e-06
2.05869e-06
2.05922e-06
2.05976e-06
2.06029e-06
2.06081e-06
2.06131e-06
2.06179e-06
2.06221e-06
2.06167e-06
1.55948e-06
1.22625e-07
0
1.60797e-08
5.54818e-08
5.55899e-08
5.56204e-08
5.5655e-08
5.56952e-08
5.57386e-08
5.57846e-08
5.58316e-08
5.58785e-08
5.59245e-08
5.59683e-08
5.60097e-08
5.60472e-08
5.60814e-08
5.6109e-08
5.60436e-08
1.63912e-08
0
0
0
0
0
0
0
0
0
0
0
0
0
0
0
0
0
0
0
0
0
0
0
0
0
0
0
0
0
0
0
0
0
0
0
0
0
0
0
0
0
0
0
0
4.18355e-06
4.22099e-06
4.22096e-06
4.22091e-06
4.22086e-06
4.2208e-06
4.22073e-06
4.22067e-06
4.2206e-06
4.22053e-06
4.22046e-06
4.22039e-06
4.22032e-06
4.18279e-06
0
0
0
0
0
0
4.38104e-06
4.42401e-06
4.42398e-06
4.42392e-06
4.42387e-06
4.4238e-06
4.42374e-06
4.42367e-06
4.42361e-06
4.42354e-06
4.42348e-06
4.42341e-06
4.42335e-06
4.3803e-06
0
0
0
0
0
0
3.27413e-06
3.30618e-06
3.30611e-06
3.30603e-06
3.30594e-06
3.30584e-06
3.30574e-06
3.30564e-06
3.30554e-06
3.30543e-06
3.30534e-06
3.30525e-06
3.30516e-06
3.27299e-06
0
0
0
0
0
0
3.33079e-06
3.36436e-06
3.36427e-06
3.36416e-06
3.36404e-06
3.36391e-06
3.36379e-06
3.36365e-06
3.36353e-06
3.3634e-06
3.36328e-06
3.36317e-06
3.36308e-06
3.32936e-06
0
0
0
0
0
0
2.41112e-06
2.43528e-06
2.43514e-06
2.43498e-06
2.4348e-06
2.43461e-06
2.43442e-06
2.43422e-06
2.43402e-06
2.43381e-06
2.43362e-06
2.43344e-06
2.43327e-06
2.40885e-06
0
0
0
0
0
0
2.35411e-06
2.37676e-06
2.37659e-06
2.3764e-06
2.3762e-06
2.37599e-06
2.37577e-06
2.37555e-06
2.37533e-06
2.3751e-06
2.37489e-06
2.37469e-06
2.3745e-06
2.35157e-06
0
0
0
0
0
0
2.53708e-06
2.5616e-06
2.5614e-06
2.56118e-06
2.56093e-06
2.56067e-06
2.5604e-06
2.56012e-06
2.55984e-06
2.55956e-06
2.55929e-06
2.55903e-06
2.5588e-06
2.53394e-06
0
0
0
0
0
0
2.477e-06
2.50047e-06
2.50027e-06
2.50003e-06
2.49978e-06
2.49951e-06
2.49923e-06
2.49893e-06
2.49864e-06
2.49835e-06
2.49806e-06
2.49778e-06
2.49753e-06
2.47369e-06
0
0
0
0
0
0
3.72896e-06
3.76478e-06
3.76456e-06
3.76429e-06
3.76401e-06
3.7637e-06
3.76339e-06
3.76306e-06
3.76274e-06
3.76242e-06
3.76211e-06
3.76181e-06
3.76154e-06
3.72532e-06
0
0
0
0
0
0
3.74899e-06
3.78334e-06
3.78312e-06
3.78287e-06
3.7826e-06
3.78229e-06
3.78199e-06
3.78166e-06
3.78134e-06
3.78102e-06
3.78071e-06
3.7804e-06
3.78011e-06
3.74535e-06
0
0
0
0
0
0
5.7285e-06
5.78208e-06
5.78193e-06
5.78175e-06
5.78156e-06
5.78134e-06
5.78113e-06
5.78091e-06
5.7807e-06
5.78048e-06
5.78028e-06
5.78007e-06
5.77988e-06
5.72601e-06
0
0
0
0
0
0
5.8169e-06
5.86861e-06
5.86849e-06
5.86833e-06
5.86817e-06
5.86798e-06
5.86779e-06
5.86758e-06
5.86738e-06
5.86717e-06
5.86696e-06
5.86673e-06
5.86651e-06
5.81449e-06
0
0
0
0
0
0
8.22199e-06
8.29663e-06
8.29683e-06
8.297e-06
8.29721e-06
8.29742e-06
8.29766e-06
8.2979e-06
8.29816e-06
8.29841e-06
8.29867e-06
8.29888e-06
8.29906e-06
8.22469e-06
0
0
0
0
0
0
8.54137e-06
8.61513e-06
8.61547e-06
8.61578e-06
8.61613e-06
8.61648e-06
8.61686e-06
8.61719e-06
8.61761e-06
8.61795e-06
8.61827e-06
8.61854e-06
8.61871e-06
8.54532e-06
0
0
0
0
0
0
0
0
0
0
0
0
0
0
0
0
0
0
0
0
0
0
0
0
0
2.08842e-08
2.68514e-08
2.53113e-08
2.53125e-08
2.53188e-08
2.53257e-08
2.53332e-08
2.53411e-08
2.53551e-08
2.53572e-08
2.53652e-08
2.53733e-08
2.53811e-08
2.53926e-08
2.69499e-08
2.09811e-08
0
0
0
9.8002e-07
1.35297e-06
1.3545e-06
1.35472e-06
1.35499e-06
1.35532e-06
1.35568e-06
1.35608e-06
1.35649e-06
1.35692e-06
1.35736e-06
1.3578e-06
1.35823e-06
1.35865e-06
1.35906e-06
1.35942e-06
1.35836e-06
9.84382e-07
0
0
5.46751e-08
1.05993e-07
1.05687e-07
1.05717e-07
1.05752e-07
1.05791e-07
1.05834e-07
1.0588e-07
1.05928e-07
1.05975e-07
1.06022e-07
1.06068e-07
1.0611e-07
1.06149e-07
1.06185e-07
1.06213e-07
1.06563e-07
5.50275e-08
0
0
0
3.98723e-09
8.17979e-09
7.65439e-09
7.65676e-09
7.65961e-09
7.66265e-09
7.6659e-09
7.66921e-09
7.67251e-09
7.67574e-09
7.6788e-09
7.68169e-09
7.68426e-09
7.68666e-09
8.21786e-09
4.02238e-09
0
0
0
0
0
0
0
0
0
0
0
0
0
0
0
0
0
0
0
0
0
0
0
0
0
5.23517e-06
5.28399e-06
5.28397e-06
5.28393e-06
5.2839e-06
5.28384e-06
5.2838e-06
5.28374e-06
5.28368e-06
5.28362e-06
5.28355e-06
5.28348e-06
5.28341e-06
5.2345e-06
0
0
0
0
0
0
5.26581e-06
5.31875e-06
5.31873e-06
5.31867e-06
5.31862e-06
5.31855e-06
5.31849e-06
5.31842e-06
5.31836e-06
5.31829e-06
5.31823e-06
5.31816e-06
5.31809e-06
5.26506e-06
0
0
0
0
0
0
3.8633e-06
3.9029e-06
3.90283e-06
3.90275e-06
3.90266e-06
3.90256e-06
3.90245e-06
3.90234e-06
3.90224e-06
3.90213e-06
3.90204e-06
3.90194e-06
3.90187e-06
3.86215e-06
0
0
0
0
0
0
3.84151e-06
3.88128e-06
3.8812e-06
3.8811e-06
3.88099e-06
3.88087e-06
3.88075e-06
3.88063e-06
3.88051e-06
3.88039e-06
3.88029e-06
3.88019e-06
3.88011e-06
3.84023e-06
0
0
0
0
0
0
2.85757e-06
2.88719e-06
2.88704e-06
2.88688e-06
2.8867e-06
2.8865e-06
2.88631e-06
2.8861e-06
2.88589e-06
2.88569e-06
2.88549e-06
2.8853e-06
2.88513e-06
2.85525e-06
0
0
0
0
0
0
2.79479e-06
2.82238e-06
2.82221e-06
2.82201e-06
2.82181e-06
2.82159e-06
2.82136e-06
2.82113e-06
2.8209e-06
2.82067e-06
2.82045e-06
2.82024e-06
2.82005e-06
2.79216e-06
0
0
0
0
0
0
2.99219e-06
3.0217e-06
3.0215e-06
3.02128e-06
3.02105e-06
3.02079e-06
3.02054e-06
3.02026e-06
3.01999e-06
3.01972e-06
3.01946e-06
3.01921e-06
3.01899e-06
2.98915e-06
0
0
0
0
0
0
2.95728e-06
2.98618e-06
2.98599e-06
2.98577e-06
2.98554e-06
2.98528e-06
2.98502e-06
2.98473e-06
2.98446e-06
2.98417e-06
2.98389e-06
2.98362e-06
2.98338e-06
2.95413e-06
0
0
0
0
0
0
4.26245e-06
4.30453e-06
4.30432e-06
4.30408e-06
4.30382e-06
4.30354e-06
4.30325e-06
4.30295e-06
4.30266e-06
4.30236e-06
4.30208e-06
4.30181e-06
4.30157e-06
4.25915e-06
0
0
0
0
0
0
4.39159e-06
4.43376e-06
4.43356e-06
4.43333e-06
4.43308e-06
4.4328e-06
4.43251e-06
4.4322e-06
4.4319e-06
4.43158e-06
4.43128e-06
4.43097e-06
4.43071e-06
4.38815e-06
0
0
0
0
0
0
6.47863e-06
6.54087e-06
6.54071e-06
6.54051e-06
6.5403e-06
6.54006e-06
6.53983e-06
6.53957e-06
6.53933e-06
6.53906e-06
6.53881e-06
6.53856e-06
6.53832e-06
6.47574e-06
0
0
0
0
0
0
6.82085e-06
6.88423e-06
6.88411e-06
6.88395e-06
6.88378e-06
6.88358e-06
6.88338e-06
6.88314e-06
6.88291e-06
6.88264e-06
6.88238e-06
6.88209e-06
6.8818e-06
6.81805e-06
0
0
0
0
0
0
9.74171e-06
9.83392e-06
9.83412e-06
9.83429e-06
9.83452e-06
9.83472e-06
9.83497e-06
9.83519e-06
9.83545e-06
9.83568e-06
9.83591e-06
9.83609e-06
9.83623e-06
9.74426e-06
0
0
0
0
0
0
1.04012e-05
1.04971e-05
1.04973e-05
1.04976e-05
1.0498e-05
1.04984e-05
1.04987e-05
1.04992e-05
1.04995e-05
1.04998e-05
1.05001e-05
1.05003e-05
1.05006e-05
1.0405e-05
0
0
0
0
0
0
0
0
0
0
0
0
0
0
0
0
0
0
0
0
0
0
0
0
0
3.47435e-08
4.18246e-08
3.94317e-08
3.94223e-08
3.94283e-08
3.94352e-08
3.94425e-08
3.94503e-08
3.94684e-08
3.94667e-08
3.9475e-08
3.94836e-08
3.94919e-08
3.95143e-08
4.19255e-08
3.48435e-08
0
0
7.72378e-08
1.20764e-06
1.61397e-06
1.61427e-06
1.61448e-06
1.61474e-06
1.61504e-06
1.61539e-06
1.61576e-06
1.61617e-06
1.61659e-06
1.61702e-06
1.61746e-06
1.6179e-06
1.61833e-06
1.61875e-06
1.61913e-06
1.61929e-06
1.21203e-06
7.82513e-08
0
0
1.96139e-08
1.9701e-08
1.97143e-08
1.97292e-08
1.9747e-08
1.97663e-08
1.9787e-08
1.98082e-08
1.98297e-08
1.98509e-08
1.98712e-08
1.98905e-08
1.99079e-08
1.99238e-08
1.99361e-08
1.98671e-08
0
0
0
0
0
0
0
0
0
0
0
0
0
0
0
0
0
0
0
0
0
0
0
0
0
0
0
0
0
0
0
0
0
0
0
0
0
0
0
0
0
0
0
0
0
4.81263e-06
4.86023e-06
4.86022e-06
4.86019e-06
4.86017e-06
4.86013e-06
4.8601e-06
4.86004e-06
4.86001e-06
4.85995e-06
4.8599e-06
4.85984e-06
4.85977e-06
4.81209e-06
0
0
0
0
0
0
4.9355e-06
4.98742e-06
4.98741e-06
4.98736e-06
4.98732e-06
4.98727e-06
4.98722e-06
4.98716e-06
4.98711e-06
4.98706e-06
4.98701e-06
4.98695e-06
4.98688e-06
4.93489e-06
0
0
0
0
0
0
3.84233e-06
3.8831e-06
3.88304e-06
3.88295e-06
3.88286e-06
3.88276e-06
3.88266e-06
3.88254e-06
3.88244e-06
3.88233e-06
3.88224e-06
3.88215e-06
3.88208e-06
3.84121e-06
0
0
0
0
0
0
3.89412e-06
3.93578e-06
3.9357e-06
3.9356e-06
3.93551e-06
3.93539e-06
3.93528e-06
3.93516e-06
3.93505e-06
3.93494e-06
3.93484e-06
3.93475e-06
3.93469e-06
3.89294e-06
0
0
0
0
0
0
2.98836e-06
3.02019e-06
3.02005e-06
3.01988e-06
3.01971e-06
3.01952e-06
3.01933e-06
3.01913e-06
3.01893e-06
3.01872e-06
3.01853e-06
3.01835e-06
3.01819e-06
2.98612e-06
0
0
0
0
0
0
2.94798e-06
2.97793e-06
2.97777e-06
2.97759e-06
2.97739e-06
2.97718e-06
2.97697e-06
2.97675e-06
2.97654e-06
2.97632e-06
2.97611e-06
2.97591e-06
2.97573e-06
2.9455e-06
0
0
0
0
0
0
3.17118e-06
3.20363e-06
3.20346e-06
3.20327e-06
3.20307e-06
3.20284e-06
3.20262e-06
3.20238e-06
3.20214e-06
3.2019e-06
3.20168e-06
3.20146e-06
3.20129e-06
3.16856e-06
0
0
0
0
0
0
3.16448e-06
3.19667e-06
3.19651e-06
3.19633e-06
3.19613e-06
3.19591e-06
3.19569e-06
3.19545e-06
3.19521e-06
3.19496e-06
3.19473e-06
3.1945e-06
3.1943e-06
3.16184e-06
0
0
0
0
0
0
4.44161e-06
4.48712e-06
4.48695e-06
4.48673e-06
4.48651e-06
4.48626e-06
4.48601e-06
4.48574e-06
4.48548e-06
4.48521e-06
4.48496e-06
4.48472e-06
4.48452e-06
4.43871e-06
0
0
0
0
0
0
4.58122e-06
4.62712e-06
4.62695e-06
4.62674e-06
4.62652e-06
4.62627e-06
4.62602e-06
4.62574e-06
4.62546e-06
4.62517e-06
4.62489e-06
4.62461e-06
4.62437e-06
4.57813e-06
0
0
0
0
0
0
6.44363e-06
6.51015e-06
6.51001e-06
6.50981e-06
6.50963e-06
6.50939e-06
6.50918e-06
6.50892e-06
6.50869e-06
6.50843e-06
6.50819e-06
6.50794e-06
6.50772e-06
6.44091e-06
0
0
0
0
0
0
6.66365e-06
6.73085e-06
6.73075e-06
6.73061e-06
6.73047e-06
6.73028e-06
6.7301e-06
6.72988e-06
6.72966e-06
6.7294e-06
6.72916e-06
6.72888e-06
6.72862e-06
6.66109e-06
0
0
0
0
0
0
8.76487e-06
8.85427e-06
8.85445e-06
8.85459e-06
8.85477e-06
8.85493e-06
8.85514e-06
8.85531e-06
8.85553e-06
8.8557e-06
8.85589e-06
8.85602e-06
8.85615e-06
8.76694e-06
0
0
0
0
0
0
9.16002e-06
9.25174e-06
9.2521e-06
9.25236e-06
9.25268e-06
9.25297e-06
9.2533e-06
9.25356e-06
9.25391e-06
9.25417e-06
9.25443e-06
9.25461e-06
9.25469e-06
9.16324e-06
0
0
0
0
0
0
0
0
0
0
0
0
0
0
0
0
0
0
0
0
0
0
0
0
0
1.83155e-08
2.3642e-08
2.22453e-08
2.22383e-08
2.22431e-08
2.22486e-08
2.22544e-08
2.22607e-08
2.22721e-08
2.2274e-08
2.22808e-08
2.22878e-08
2.22947e-08
2.23114e-08
2.37239e-08
1.83962e-08
0
0
0
8.14374e-07
1.14987e-06
1.1518e-06
1.15196e-06
1.15214e-06
1.15237e-06
1.15264e-06
1.15292e-06
1.15323e-06
1.15356e-06
1.1539e-06
1.15424e-06
1.15459e-06
1.15492e-06
1.15526e-06
1.15555e-06
1.15398e-06
8.17686e-07
0
0
1.45187e-08
4.13418e-08
4.11698e-08
4.11832e-08
4.11984e-08
4.12167e-08
4.12365e-08
4.1258e-08
4.12803e-08
4.13031e-08
4.13257e-08
4.13478e-08
4.13688e-08
4.13879e-08
4.14055e-08
4.14194e-08
4.16124e-08
1.46574e-08
0
0
0
0
2.11357e-09
1.92187e-09
1.92324e-09
1.92494e-09
1.92677e-09
1.92875e-09
1.93078e-09
1.93282e-09
1.93485e-09
1.93678e-09
1.93865e-09
1.94029e-09
1.94191e-09
2.13821e-09
0
0
0
0
0
0
0
0
0
0
0
0
0
0
0
0
0
0
0
0
0
0
0
0
0
0
5.31493e-06
5.36926e-06
5.36926e-06
5.36923e-06
5.36922e-06
5.36918e-06
5.36915e-06
5.3691e-06
5.36907e-06
5.36902e-06
5.36898e-06
5.36892e-06
5.36886e-06
5.31446e-06
0
0
0
0
0
0
5.34379e-06
5.40169e-06
5.40168e-06
5.40164e-06
5.40161e-06
5.40155e-06
5.40151e-06
5.40145e-06
5.40141e-06
5.40135e-06
5.4013e-06
5.40124e-06
5.40117e-06
5.34318e-06
0
0
0
0
0
0
4.14402e-06
4.18906e-06
4.189e-06
4.18891e-06
4.18883e-06
4.18872e-06
4.18862e-06
4.1885e-06
4.1884e-06
4.18828e-06
4.18819e-06
4.18809e-06
4.18801e-06
4.14286e-06
0
0
0
0
0
0
4.17306e-06
4.2195e-06
4.21943e-06
4.21933e-06
4.21924e-06
4.21913e-06
4.21902e-06
4.2189e-06
4.21879e-06
4.21868e-06
4.21859e-06
4.2185e-06
4.21844e-06
4.17191e-06
0
0
0
0
0
0
3.2874e-06
3.32379e-06
3.32366e-06
3.3235e-06
3.32333e-06
3.32315e-06
3.32297e-06
3.32278e-06
3.32259e-06
3.3224e-06
3.32223e-06
3.32205e-06
3.3219e-06
3.28527e-06
0
0
0
0
0
0
3.24132e-06
3.27523e-06
3.27509e-06
3.27492e-06
3.27475e-06
3.27456e-06
3.27438e-06
3.27417e-06
3.27399e-06
3.27379e-06
3.27361e-06
3.27343e-06
3.27328e-06
3.2391e-06
0
0
0
0
0
0
3.47172e-06
3.50838e-06
3.50824e-06
3.50808e-06
3.50792e-06
3.50774e-06
3.50756e-06
3.50736e-06
3.50718e-06
3.50698e-06
3.50681e-06
3.50664e-06
3.50651e-06
3.46965e-06
0
0
0
0
0
0
3.49214e-06
3.52897e-06
3.52885e-06
3.52871e-06
3.52856e-06
3.52839e-06
3.52822e-06
3.52803e-06
3.52785e-06
3.52765e-06
3.52748e-06
3.52731e-06
3.52718e-06
3.49016e-06
0
0
0
0
0
0
4.76177e-06
4.81354e-06
4.81341e-06
4.81324e-06
4.81307e-06
4.81285e-06
4.81265e-06
4.81242e-06
4.81221e-06
4.81197e-06
4.81176e-06
4.81155e-06
4.81138e-06
4.75938e-06
0
0
0
0
0
0
4.95311e-06
5.00686e-06
5.00674e-06
5.00657e-06
5.0064e-06
5.00619e-06
5.00598e-06
5.00573e-06
5.0055e-06
5.00523e-06
5.00499e-06
5.00473e-06
5.00451e-06
4.95048e-06
0
0
0
0
0
0
6.83523e-06
6.90889e-06
6.90877e-06
6.9086e-06
6.90845e-06
6.90824e-06
6.90805e-06
6.90781e-06
6.9076e-06
6.90735e-06
6.90713e-06
6.90688e-06
6.90668e-06
6.83277e-06
0
0
0
0
0
0
7.19519e-06
7.27148e-06
7.27142e-06
7.27129e-06
7.27118e-06
7.27102e-06
7.27087e-06
7.27066e-06
7.27047e-06
7.27023e-06
7.27001e-06
7.26975e-06
7.26952e-06
7.19296e-06
0
0
0
0
0
0
9.49069e-06
9.59316e-06
9.59331e-06
9.5934e-06
9.59355e-06
9.59366e-06
9.59382e-06
9.59393e-06
9.5941e-06
9.59421e-06
9.59435e-06
9.59443e-06
9.59451e-06
9.49218e-06
0
0
0
0
0
0
1.01168e-05
1.02245e-05
1.02247e-05
1.02249e-05
1.02252e-05
1.02254e-05
1.02257e-05
1.0226e-05
1.02262e-05
1.02264e-05
1.02267e-05
1.02268e-05
1.0227e-05
1.01195e-05
0
0
0
0
0
0
0
0
0
0
0
0
0
0
0
0
0
0
0
0
0
0
0
0
0
2.94238e-08
3.56626e-08
3.36028e-08
3.36035e-08
3.36074e-08
3.36119e-08
3.36167e-08
3.3622e-08
3.36307e-08
3.36335e-08
3.36394e-08
3.36457e-08
3.36518e-08
3.36579e-08
3.57319e-08
2.94932e-08
0
0
5.47642e-08
1.01279e-06
1.37211e-06
1.37236e-06
1.3725e-06
1.37266e-06
1.37286e-06
1.37309e-06
1.37334e-06
1.37362e-06
1.37391e-06
1.37422e-06
1.37454e-06
1.37486e-06
1.37518e-06
1.37549e-06
1.37576e-06
1.37583e-06
1.01584e-06
5.54571e-08
0
0
6.29312e-09
6.29615e-09
6.30164e-09
6.30782e-09
6.31526e-09
6.32347e-09
6.33234e-09
6.34166e-09
6.35114e-09
6.36075e-09
6.37005e-09
6.37919e-09
6.38751e-09
6.39557e-09
6.40206e-09
6.40876e-09
0
0
0
0
0
0
0
0
0
0
0
0
0
0
0
0
0
0
0
0
0
0
0
0
0
0
0
0
0
0
0
0
0
0
0
0
0
0
0
0
0
0
0
0
0
5.18015e-06
5.23581e-06
5.23581e-06
5.23578e-06
5.23576e-06
5.23572e-06
5.23569e-06
5.23564e-06
5.23561e-06
5.23555e-06
5.23551e-06
5.23546e-06
5.23542e-06
5.17969e-06
0
0
0
0
0
0
5.26109e-06
5.32009e-06
5.32006e-06
5.32e-06
5.31995e-06
5.31987e-06
5.3198e-06
5.31972e-06
5.31965e-06
5.31957e-06
5.3195e-06
5.31941e-06
5.31933e-06
5.26021e-06
0
0
0
0
0
0
4.23573e-06
4.28321e-06
4.28315e-06
4.28307e-06
4.28299e-06
4.28289e-06
4.28279e-06
4.28268e-06
4.28258e-06
4.28247e-06
4.28237e-06
4.28227e-06
4.28219e-06
4.2346e-06
0
0
0
0
0
0
4.30034e-06
4.3494e-06
4.34933e-06
4.34924e-06
4.34915e-06
4.34904e-06
4.34893e-06
4.34881e-06
4.34871e-06
4.3486e-06
4.3485e-06
4.34841e-06
4.34834e-06
4.29919e-06
0
0
0
0
0
0
3.47348e-06
3.51332e-06
3.51319e-06
3.51304e-06
3.5129e-06
3.51272e-06
3.51256e-06
3.51238e-06
3.51221e-06
3.51203e-06
3.51188e-06
3.51171e-06
3.51157e-06
3.4715e-06
0
0
0
0
0
0
3.43987e-06
3.47717e-06
3.47705e-06
3.47691e-06
3.47678e-06
3.47663e-06
3.47649e-06
3.47632e-06
3.47618e-06
3.47601e-06
3.47588e-06
3.47573e-06
3.47561e-06
3.43809e-06
0
0
0
0
0
0
3.68893e-06
3.72941e-06
3.72931e-06
3.72919e-06
3.72908e-06
3.72894e-06
3.72881e-06
3.72865e-06
3.72852e-06
3.72837e-06
3.72825e-06
3.72811e-06
3.72803e-06
3.6874e-06
0
0
0
0
0
0
3.74261e-06
3.78366e-06
3.78358e-06
3.78348e-06
3.78338e-06
3.78326e-06
3.78314e-06
3.783e-06
3.78288e-06
3.78273e-06
3.78262e-06
3.7825e-06
3.78242e-06
3.74126e-06
0
0
0
0
0
0
4.96155e-06
5.01763e-06
5.01753e-06
5.01739e-06
5.01725e-06
5.01707e-06
5.01691e-06
5.01671e-06
5.01653e-06
5.01631e-06
5.01613e-06
5.01593e-06
5.01578e-06
4.95949e-06
0
0
0
0
0
0
5.17754e-06
5.23619e-06
5.2361e-06
5.23597e-06
5.23584e-06
5.23567e-06
5.2355e-06
5.23529e-06
5.2351e-06
5.23486e-06
5.23466e-06
5.23443e-06
5.23425e-06
5.17536e-06
0
0
0
0
0
0
6.8844e-06
6.96307e-06
6.96301e-06
6.96289e-06
6.96278e-06
6.96262e-06
6.96249e-06
6.9623e-06
6.96214e-06
6.96193e-06
6.96176e-06
6.96155e-06
6.9614e-06
6.88252e-06
0
0
0
0
0
0
7.1977e-06
7.27979e-06
7.27976e-06
7.27969e-06
7.27963e-06
7.27952e-06
7.27942e-06
7.27927e-06
7.27914e-06
7.27895e-06
7.2788e-06
7.2786e-06
7.27845e-06
7.1962e-06
0
0
0
0
0
0
9.06428e-06
9.16928e-06
9.16941e-06
9.16948e-06
9.16959e-06
9.16965e-06
9.16977e-06
9.16983e-06
9.16995e-06
9.17e-06
9.17009e-06
9.17011e-06
9.17015e-06
9.06523e-06
0
0
0
0
0
0
9.5396e-06
9.64929e-06
9.6496e-06
9.64978e-06
9.65001e-06
9.65021e-06
9.65044e-06
9.65061e-06
9.65086e-06
9.65103e-06
9.65121e-06
9.65135e-06
9.65142e-06
9.54191e-06
0
0
0
0
0
0
0
0
0
0
0
0
0
0
0
0
0
0
0
0
0
0
0
0
0
1.947e-08
2.47475e-08
2.32234e-08
2.3213e-08
2.32165e-08
2.32206e-08
2.32249e-08
2.32298e-08
2.32392e-08
2.32403e-08
2.32457e-08
2.32514e-08
2.32568e-08
2.3272e-08
2.48081e-08
1.95314e-08
0
0
0
7.72545e-07
1.09051e-06
1.09219e-06
1.09229e-06
1.09242e-06
1.09258e-06
1.09277e-06
1.09297e-06
1.0932e-06
1.09344e-06
1.09369e-06
1.09394e-06
1.0942e-06
1.09445e-06
1.09469e-06
1.09489e-06
1.09346e-06
7.74913e-07
0
0
0
6.40381e-09
6.35143e-09
6.3552e-09
6.35971e-09
6.36505e-09
6.37109e-09
6.37751e-09
6.38446e-09
6.39144e-09
6.39875e-09
6.40576e-09
6.41288e-09
6.41929e-09
6.42567e-09
6.43087e-09
6.49115e-09
0
0
0
0
0
0
0
0
0
0
0
0
0
0
0
0
0
0
0
0
0
0
0
0
0
0
0
0
0
0
0
0
0
0
0
0
0
0
0
0
0
0
0
0
0
5.38192e-06
5.44148e-06
5.44148e-06
5.44145e-06
5.44143e-06
5.44138e-06
5.44136e-06
5.4413e-06
5.44127e-06
5.44121e-06
5.44118e-06
5.44113e-06
5.4411e-06
5.38149e-06
0
0
0
0
0
0
5.43921e-06
5.50181e-06
5.50177e-06
5.50169e-06
5.50162e-06
5.50153e-06
5.50145e-06
5.50134e-06
5.50126e-06
5.50115e-06
5.50106e-06
5.50096e-06
5.50088e-06
5.43815e-06
0
0
0
0
0
0
4.4194e-06
4.47016e-06
4.4701e-06
4.47001e-06