/*--------------------------------*- C++ -*----------------------------------*\
| =========                 |                                                 |
| \\      /  F ield         | OpenFOAM: The Open Source CFD Toolbox           |
|  \\    /   O peration     | Version:  2212                                  |
|   \\  /    A nd           | Website:  www.openfoam.com                      |
|    \\/     M anipulation  |                                                 |
\*---------------------------------------------------------------------------*/
FoamFile
{
    version     2.0;
    format      ascii;
    arch        "LSB;label=32;scalar=64";
    class       volVectorField;
    location    "0.361";
    object      U_0;
}
// * * * * * * * * * * * * * * * * * * * * * * * * * * * * * * * * * * * * * //

dimensions      [0 1 -1 0 0 0 0];

internalField   nonuniform List<vector> 
24240
(
(9.04544 0.767563 9.1804e-07)
(9.04567 0.767583 -8.3239e-07)
(9.04567 0.767581 -1.51839e-07)
(9.04567 0.767579 -6.70513e-07)
(9.04567 0.767577 -4.89374e-07)
(9.04568 0.767574 -6.74245e-07)
(9.04568 0.76757 -6.42962e-07)
(9.04568 0.767567 -7.30052e-07)
(9.04568 0.767563 -7.29206e-07)
(9.04569 0.767559 -7.66907e-07)
(9.04569 0.767556 -7.48423e-07)
(9.04569 0.767552 -7.52588e-07)
(9.0457 0.767549 -6.87534e-07)
(9.0457 0.767546 -6.77232e-07)
(9.0457 0.767543 -5.17432e-07)
(9.0457 0.767541 -5.50338e-07)
(9.0457 0.767539 -1.73731e-07)
(9.0457 0.767538 -4.77975e-07)
(9.04571 0.767537 4.20224e-07)
(9.04547 0.767516 -1.09992e-06)
(9.03236 0.770701 -1.24679e-06)
(9.0326 0.770723 -2.36491e-06)
(9.0326 0.770723 -3.28793e-06)
(9.0326 0.770724 -4.51407e-06)
(9.0326 0.770726 -5.31134e-06)
(9.03261 0.770728 -6.14252e-06)
(9.03261 0.770729 -6.65598e-06)
(9.03261 0.770732 -7.05713e-06)
(9.03262 0.770734 -7.20343e-06)
(9.03262 0.770736 -7.19745e-06)
(9.03263 0.770738 -6.97802e-06)
(9.03263 0.77074 -6.62596e-06)
(9.03263 0.770742 -6.09539e-06)
(9.03264 0.770744 -5.50515e-06)
(9.03264 0.770746 -4.73975e-06)
(9.03264 0.770747 -4.0408e-06)
(9.03264 0.770748 -3.07045e-06)
(9.03265 0.770749 -2.33458e-06)
(9.03265 0.77075 -1.10403e-06)
(9.03241 0.770729 5.11841e-08)
(9.061 0.538774 -3.54693e-07)
(9.06124 0.53879 3.93065e-07)
(9.06124 0.53879 1.16816e-06)
(9.06124 0.53879 1.56935e-06)
(9.06124 0.53879 2.23433e-06)
(9.06124 0.53879 2.52992e-06)
(9.06124 0.53879 2.85992e-06)
(9.06124 0.53879 2.99974e-06)
(9.06124 0.53879 3.09411e-06)
(9.06124 0.53879 3.06446e-06)
(9.06124 0.53879 2.98299e-06)
(9.06125 0.53879 2.80629e-06)
(9.06125 0.53879 2.61209e-06)
(9.06125 0.538791 2.33188e-06)
(9.06125 0.538791 2.1212e-06)
(9.06125 0.538791 1.75726e-06)
(9.06125 0.538791 1.67189e-06)
(9.06125 0.538791 1.22614e-06)
(9.06125 0.538791 1.07448e-06)
(9.06101 0.538776 8.1803e-07)
(9.02516 0.534783 -1.03942e-06)
(9.0254 0.534799 -2.30365e-06)
(9.0254 0.5348 -3.22834e-06)
(9.0254 0.5348 -4.37174e-06)
(9.0254 0.534801 -5.32486e-06)
(9.0254 0.534803 -6.11453e-06)
(9.0254 0.534804 -6.64764e-06)
(9.02541 0.534806 -7.01349e-06)
(9.02541 0.534807 -7.14401e-06)
(9.02541 0.534809 -7.10371e-06)
(9.02541 0.53481 -6.86675e-06)
(9.02541 0.534812 -6.48853e-06)
(9.02541 0.534813 -5.95108e-06)
(9.02541 0.534815 -5.34195e-06)
(9.02541 0.534816 -4.60647e-06)
(9.02541 0.534817 -3.88147e-06)
(9.02541 0.534818 -3.07589e-06)
(9.02541 0.534818 -2.2817e-06)
(9.02542 0.534819 -1.0569e-06)
(9.02518 0.534804 -8.85515e-08)
(9.04796 0.333709 7.97205e-08)
(9.0482 0.333719 1.1958e-06)
(9.0482 0.33372 2.49552e-06)
(9.0482 0.333722 3.39757e-06)
(9.0482 0.333724 4.19932e-06)
(9.04819 0.333726 4.81131e-06)
(9.04819 0.333728 5.30602e-06)
(9.04819 0.333731 5.58889e-06)
(9.04819 0.333733 5.73166e-06)
(9.04818 0.333736 5.69079e-06)
(9.04818 0.333739 5.52639e-06)
(9.04818 0.333741 5.21471e-06)
(9.04817 0.333744 4.82494e-06)
(9.04817 0.333746 4.32346e-06)
(9.04817 0.333747 3.8108e-06)
(9.04817 0.333749 3.19678e-06)
(9.04817 0.33375 2.60713e-06)
(9.04816 0.333751 1.93078e-06)
(9.04816 0.333752 1.53985e-06)
(9.04792 0.333742 8.37319e-07)
(9.018 0.325546 -5.32857e-07)
(9.01824 0.325556 -1.01749e-06)
(9.01824 0.325555 -1.32234e-06)
(9.01824 0.325555 -1.73865e-06)
(9.01824 0.325555 -1.98877e-06)
(9.01823 0.325554 -2.27569e-06)
(9.01823 0.325553 -2.44233e-06)
(9.01823 0.325553 -2.57715e-06)
(9.01822 0.325552 -2.613e-06)
(9.01822 0.325552 -2.60178e-06)
(9.01822 0.325551 -2.50687e-06)
(9.01822 0.32555 -2.37186e-06)
(9.01821 0.32555 -2.15999e-06)
(9.01821 0.325549 -1.93591e-06)
(9.01821 0.325549 -1.62716e-06)
(9.01821 0.325549 -1.35572e-06)
(9.0182 0.325548 -9.40445e-07)
(9.0182 0.325548 -6.50034e-07)
(9.0182 0.325548 -1.52484e-07)
(9.01796 0.325538 1.58526e-07)
(9.03039 0.151734 1.71642e-08)
(9.03063 0.151739 8.99218e-07)
(9.03062 0.15174 1.93377e-06)
(9.03062 0.151741 2.65932e-06)
(9.03062 0.151742 3.30899e-06)
(9.03061 0.151744 3.80259e-06)
(9.03061 0.151745 4.19448e-06)
(9.0306 0.151747 4.42113e-06)
(9.0306 0.151749 4.53351e-06)
(9.03059 0.151751 4.49662e-06)
(9.03059 0.151753 4.36079e-06)
(9.03058 0.151754 4.10306e-06)
(9.03058 0.151756 3.78476e-06)
(9.03057 0.151757 3.37601e-06)
(9.03057 0.151759 2.96223e-06)
(9.03056 0.15176 2.47709e-06)
(9.03056 0.151761 2.03158e-06)
(9.03056 0.151761 1.51321e-06)
(9.03056 0.151762 1.2265e-06)
(9.03032 0.151757 6.99544e-07)
(9.01773 0.138451 -2.0029e-07)
(9.01797 0.138455 -9.00333e-08)
(9.01797 0.138454 1.5808e-07)
(9.01796 0.138453 2.61127e-07)
(9.01796 0.138452 4.4123e-07)
(9.01796 0.138451 5.10696e-07)
(9.01795 0.138449 5.9796e-07)
(9.01795 0.138448 6.22233e-07)
(9.01794 0.138446 6.46517e-07)
(9.01793 0.138445 6.28186e-07)
(9.01793 0.138443 6.12373e-07)
(9.01792 0.138441 5.64426e-07)
(9.01792 0.13844 5.36236e-07)
(9.01791 0.138439 4.76557e-07)
(9.01791 0.138437 4.69134e-07)
(9.01791 0.138436 4.07602e-07)
(9.0179 0.138436 4.60053e-07)
(9.0179 0.138435 3.8479e-07)
(9.0179 0.138434 4.60067e-07)
(9.01766 0.13843 3.45079e-07)
(9.02149 -0.0181623 -1.84508e-07)
(9.02173 -0.0181628 1.4167e-07)
(9.02173 -0.0181621 6.1285e-07)
(9.02172 -0.018161 8.86077e-07)
(9.02172 -0.0181596 1.17739e-06)
(9.02172 -0.018158 1.36249e-06)
(9.02171 -0.0181561 1.52676e-06)
(9.02171 -0.0181542 1.60636e-06)
(9.0217 -0.0181521 1.65038e-06)
(9.0217 -0.01815 1.62378e-06)
(9.02169 -0.0181479 1.56643e-06)
(9.02169 -0.0181459 1.45017e-06)
(9.02168 -0.0181441 1.32559e-06)
(9.02168 -0.0181425 1.15499e-06)
(9.02168 -0.018141 1.01832e-06)
(9.02167 -0.0181399 8.34701e-07)
(9.02167 -0.0181389 7.46937e-07)
(9.02167 -0.0181383 5.67091e-07)
(9.02167 -0.0181379 6.0769e-07)
(9.02143 -0.0181369 4.62358e-07)
(9.03165 -0.034591 4.66232e-08)
(9.03189 -0.0345935 8.29181e-07)
(9.03189 -0.0345949 1.73596e-06)
(9.03188 -0.0345969 2.39836e-06)
(9.03188 -0.0345995 3.03925e-06)
(9.03188 -0.0346026 3.51519e-06)
(9.03187 -0.034606 3.90487e-06)
(9.03187 -0.0346097 4.13827e-06)
(9.03186 -0.0346135 4.26226e-06)
(9.03186 -0.0346174 4.2395e-06)
(9.03185 -0.0346212 4.11476e-06)
(9.03184 -0.0346248 3.86339e-06)
(9.03184 -0.0346281 3.54618e-06)
(9.03183 -0.0346311 3.13393e-06)
(9.03183 -0.0346337 2.71885e-06)
(9.03183 -0.0346359 2.23656e-06)
(9.03182 -0.0346376 1.82331e-06)
(9.03182 -0.0346388 1.32511e-06)
(9.03182 -0.0346397 9.91642e-07)
(9.03158 -0.0346383 5.39748e-07)
(9.02637 -0.191005 -6.95648e-07)
(9.02661 -0.191011 -1.60862e-06)
(9.02661 -0.191011 -2.29517e-06)
(9.02661 -0.19101 -3.03742e-06)
(9.02661 -0.191008 -3.58778e-06)
(9.02661 -0.191007 -4.105e-06)
(9.0266 -0.191006 -4.46131e-06)
(9.0266 -0.191004 -4.71606e-06)
(9.0266 -0.191002 -4.81868e-06)
(9.0266 -0.191001 -4.80421e-06)
(9.0266 -0.190999 -4.64896e-06)
(9.02659 -0.190997 -4.39198e-06)
(9.02659 -0.190996 -4.01144e-06)
(9.02659 -0.190994 -3.56935e-06)
(9.02659 -0.190993 -3.01659e-06)
(9.02659 -0.190992 -2.47277e-06)
(9.02658 -0.190992 -1.78444e-06)
(9.02658 -0.190991 -1.21752e-06)
(9.02658 -0.190991 -4.42311e-07)
(9.02634 -0.190984 7.16615e-08)
(9.06145 -0.204912 2.5035e-07)
(9.06169 -0.20492 1.59766e-06)
(9.06169 -0.204921 3.07249e-06)
(9.06169 -0.204922 4.20423e-06)
(9.06168 -0.204924 5.21136e-06)
(9.06168 -0.204926 6.01208e-06)
(9.06167 -0.204928 6.63559e-06)
(9.06167 -0.204931 7.0236e-06)
(9.06166 -0.204933 7.21096e-06)
(9.06166 -0.204936 7.16373e-06)
(9.06165 -0.204938 6.92994e-06)
(9.06165 -0.204941 6.49387e-06)
(9.06164 -0.204943 5.92761e-06)
(9.06164 -0.204945 5.22155e-06)
(9.06163 -0.204947 4.4748e-06)
(9.06163 -0.204948 3.6604e-06)
(9.06163 -0.20495 2.87714e-06)
(9.06162 -0.20495 2.05999e-06)
(9.06162 -0.204951 1.44657e-06)
(9.06138 -0.204944 7.23742e-07)
(9.04641 -0.378516 -1.07626e-06)
(9.04665 -0.378529 -2.77949e-06)
(9.04665 -0.378528 -4.23673e-06)
(9.04665 -0.378528 -5.65118e-06)
(9.04665 -0.378527 -6.72031e-06)
(9.04665 -0.378527 -7.71236e-06)
(9.04665 -0.378526 -8.41804e-06)
(9.04665 -0.378525 -8.90766e-06)
(9.04665 -0.378524 -9.11965e-06)
(9.04665 -0.378523 -9.0899e-06)
(9.04665 -0.378522 -8.80317e-06)
(9.04665 -0.378521 -8.30746e-06)
(9.04665 -0.378521 -7.59933e-06)
(9.04665 -0.37852 -6.75763e-06)
(9.04665 -0.378519 -5.74559e-06)
(9.04665 -0.378519 -4.71977e-06)
(9.04665 -0.378519 -3.47301e-06)
(9.04665 -0.378518 -2.39862e-06)
(9.04665 -0.378518 -1.15109e-06)
(9.04641 -0.378505 -1.71079e-07)
(9.10262 -0.387355 3.3559e-07)
(9.10286 -0.387368 2.00798e-06)
(9.10286 -0.387369 3.86274e-06)
(9.10286 -0.38737 5.24183e-06)
(9.10285 -0.387372 6.40555e-06)
(9.10285 -0.387373 7.37283e-06)
(9.10285 -0.387375 8.11714e-06)
(9.10284 -0.387377 8.58069e-06)
(9.10284 -0.387379 8.79677e-06)
(9.10283 -0.387381 8.72458e-06)
(9.10283 -0.387383 8.42233e-06)
(9.10283 -0.387385 7.8721e-06)
(9.10282 -0.387386 7.16159e-06)
(9.10282 -0.387388 6.28639e-06)
(9.10281 -0.387389 5.35558e-06)
(9.10281 -0.38739 4.36035e-06)
(9.10281 -0.387391 3.34561e-06)
(9.10281 -0.387392 2.36967e-06)
(9.10281 -0.387392 1.68141e-06)
(9.10256 -0.387379 8.31627e-07)
(9.07673 -0.592444 -1.38955e-06)
(9.07697 -0.592463 -3.65743e-06)
(9.07697 -0.592463 -5.69961e-06)
(9.07697 -0.592463 -7.63412e-06)
(9.07697 -0.592463 -9.08917e-06)
(9.07697 -0.592463 -1.04658e-05)
(9.07697 -0.592463 -1.14543e-05)
(9.07698 -0.592464 -1.21382e-05)
(9.07698 -0.592464 -1.24386e-05)
(9.07698 -0.592464 -1.24019e-05)
(9.07698 -0.592465 -1.20134e-05)
(9.07698 -0.592465 -1.13348e-05)
(9.07699 -0.592465 -1.03735e-05)
(9.07699 -0.592466 -9.22839e-06)
(9.07699 -0.592466 -7.87481e-06)
(9.07699 -0.592466 -6.49571e-06)
(9.07699 -0.592466 -4.81573e-06)
(9.07699 -0.592467 -3.36826e-06)
(9.07699 -0.592467 -1.74359e-06)
(9.07675 -0.592448 -3.49841e-07)
(9.14325 -0.594936 2.43622e-07)
(9.14349 -0.594955 1.93114e-06)
(9.14348 -0.594955 3.85821e-06)
(9.14348 -0.594956 5.14508e-06)
(9.14348 -0.594957 6.15502e-06)
(9.14348 -0.594958 7.04936e-06)
(9.14348 -0.594959 7.76145e-06)
(9.14348 -0.59496 8.18201e-06)
(9.14348 -0.594961 8.38166e-06)
(9.14348 -0.594962 8.28438e-06)
(9.14347 -0.594963 7.97475e-06)
(9.14347 -0.594964 7.41427e-06)
(9.14347 -0.594965 6.71725e-06)
(9.14347 -0.594966 5.85251e-06)
(9.14347 -0.594967 4.96264e-06)
(9.14347 -0.594967 3.99621e-06)
(9.14347 -0.594968 2.93691e-06)
(9.14346 -0.594968 2.00679e-06)
(9.14346 -0.594968 1.52322e-06)
(9.14322 -0.594949 8.24248e-07)
(9.10498 -0.842061 -1.51302e-06)
(9.10522 -0.842086 -4.00049e-06)
(9.10522 -0.842087 -5.96054e-06)
(9.10522 -0.842088 -8.22262e-06)
(9.10522 -0.842089 -1.03359e-05)
(9.10523 -0.842092 -1.19692e-05)
(9.10523 -0.842094 -1.3173e-05)
(9.10524 -0.842097 -1.39824e-05)
(9.10524 -0.842099 -1.43322e-05)
(9.10525 -0.842102 -1.42935e-05)
(9.10525 -0.842105 -1.3836e-05)
(9.10526 -0.842107 -1.30525e-05)
(9.10526 -0.84211 -1.19436e-05)
(9.10526 -0.842112 -1.06409e-05)
(9.10527 -0.842114 -9.15772e-06)
(9.10527 -0.842116 -7.62738e-06)
(9.10527 -0.842117 -6.15911e-06)
(9.10528 -0.842119 -4.5137e-06)
(9.10528 -0.84212 -2.24939e-06)
(9.10504 -0.842095 -5.27558e-07)
(9.16447 -0.836009 -1.9062e-07)
(9.16471 -0.836033 9.55621e-07)
(9.16471 -0.836032 1.64685e-06)
(9.16471 -0.836032 2.07861e-06)
(9.16472 -0.836032 2.92094e-06)
(9.16472 -0.836031 3.26149e-06)
(9.16472 -0.836031 3.68401e-06)
(9.16472 -0.836031 3.83111e-06)
(9.16473 -0.83603 3.9297e-06)
(9.16473 -0.83603 3.82562e-06)
(9.16473 -0.83603 3.65005e-06)
(9.16474 -0.836029 3.31352e-06)
(9.16474 -0.836029 2.96576e-06)
(9.16474 -0.836029 2.48555e-06)
(9.16474 -0.836029 2.1376e-06)
(9.16475 -0.836028 1.6132e-06)
(9.16475 -0.836028 1.5105e-06)
(9.16475 -0.836028 9.59391e-07)
(9.16475 -0.836029 5.47499e-07)
(9.16451 -0.836005 6.08064e-07)
(9.11236 -1.12786 -1.34544e-06)
(9.1126 -1.12789 -3.33077e-06)
(9.1126 -1.12789 -5.70208e-06)
(9.11261 -1.1279 -8.10158e-06)
(9.11261 -1.1279 -9.87905e-06)
(9.11262 -1.12791 -1.15228e-05)
(9.11263 -1.12791 -1.26266e-05)
(9.11263 -1.12792 -1.34383e-05)
(9.11264 -1.12793 -1.37658e-05)
(9.11265 -1.12793 -1.37541e-05)
(9.11266 -1.12794 -1.33158e-05)
(9.11266 -1.12795 -1.25893e-05)
(9.11267 -1.12795 -1.15211e-05)
(9.11268 -1.12796 -1.03159e-05)
(9.11268 -1.12797 -8.86361e-06)
(9.11269 -1.12797 -7.48698e-06)
(9.11269 -1.12797 -5.85289e-06)
(9.11269 -1.12798 -4.49354e-06)
(9.1127 -1.12798 -2.85541e-06)
(9.11246 -1.12795 -7.5175e-07)
(9.14716 -1.10834 2.5188e-06)
(9.14737 -1.10837 -1.03211e-06)
(9.14737 -1.10836 -2.50663e-06)
(9.14737 -1.10836 -4.62437e-06)
(9.14738 -1.10836 -5.54335e-06)
(9.14739 -1.10836 -6.64721e-06)
(9.1474 -1.10835 -7.23318e-06)
(9.14741 -1.10835 -7.76909e-06)
(9.14742 -1.10835 -7.96277e-06)
(9.14743 -1.10834 -8.01819e-06)
(9.14744 -1.10834 -7.7975e-06)
(9.14745 -1.10834 -7.45117e-06)
(9.14746 -1.10833 -6.86106e-06)
(9.14747 -1.10833 -6.25542e-06)
(9.14747 -1.10833 -5.39357e-06)
(9.14748 -1.10833 -4.76449e-06)
(9.14748 -1.10832 -3.7244e-06)
(9.14749 -1.10832 -3.63268e-06)
(9.1475 -1.10833 -2.79023e-06)
(9.14729 -1.1083 -3.89299e-06)
(8.77374 0.753748 3.41708e-07)
(8.77396 0.753768 -1.42434e-06)
(8.77396 0.753766 -1.07038e-06)
(8.77396 0.753764 -1.79418e-06)
(8.77396 0.753761 -1.77192e-06)
(8.77397 0.753758 -2.13032e-06)
(8.77397 0.753754 -2.19801e-06)
(8.77397 0.75375 -2.3759e-06)
(8.77397 0.753746 -2.40042e-06)
(8.77397 0.753742 -2.44435e-06)
(8.77397 0.753738 -2.37717e-06)
(8.77398 0.753734 -2.31811e-06)
(8.77398 0.75373 -2.13781e-06)
(8.77398 0.753727 -2.01282e-06)
(8.77398 0.753724 -1.67475e-06)
(8.77398 0.753722 -1.5508e-06)
(8.77398 0.75372 -9.29109e-07)
(8.77398 0.753718 -9.94731e-07)
(8.77399 0.753717 1.03748e-07)
(8.77376 0.753696 -8.26991e-07)
(8.78115 0.754973 -1.52365e-06)
(8.78138 0.754995 -3.12207e-06)
(8.78138 0.754996 -4.4427e-06)
(8.78139 0.754998 -6.01997e-06)
(8.78139 0.755 -7.09729e-06)
(8.78139 0.755003 -8.191e-06)
(8.78139 0.755006 -8.88034e-06)
(8.78139 0.75501 -9.42013e-06)
(8.78139 0.755013 -9.62202e-06)
(8.78139 0.755017 -9.63034e-06)
(8.78139 0.755021 -9.35619e-06)
(8.78139 0.755025 -8.91895e-06)
(8.78139 0.755028 -8.23974e-06)
(8.7814 0.755031 -7.48696e-06)
(8.7814 0.755034 -6.49224e-06)
(8.7814 0.755037 -5.56586e-06)
(8.7814 0.755039 -4.28132e-06)
(8.7814 0.75504 -3.23072e-06)
(8.7814 0.755042 -1.62961e-06)
(8.78117 0.755022 -9.6635e-08)
(8.80379 0.547696 -2.60992e-07)
(8.80403 0.547711 5.93086e-07)
(8.80402 0.547711 1.35462e-06)
(8.80402 0.547712 1.91193e-06)
(8.80402 0.547713 2.8281e-06)
(8.80402 0.547714 3.24714e-06)
(8.80402 0.547715 3.72171e-06)
(8.80402 0.547716 3.94509e-06)
(8.80402 0.547717 4.11285e-06)
(8.80402 0.547719 4.11316e-06)
(8.80402 0.54772 4.04686e-06)
(8.80402 0.547721 3.84424e-06)
(8.80402 0.547722 3.61485e-06)
(8.80402 0.547724 3.25447e-06)
(8.80402 0.547725 2.98819e-06)
(8.80402 0.547725 2.50381e-06)
(8.80402 0.547726 2.40851e-06)
(8.80402 0.547727 1.81354e-06)
(8.80402 0.547727 1.35772e-06)
(8.80379 0.547713 9.04735e-07)
(8.79913 0.542964 -1.00089e-06)
(8.79937 0.54298 -2.36207e-06)
(8.79937 0.54298 -3.37227e-06)
(8.79937 0.542981 -4.57611e-06)
(8.79936 0.542982 -5.61779e-06)
(8.79936 0.542984 -6.4522e-06)
(8.79936 0.542986 -7.00752e-06)
(8.79936 0.542988 -7.39675e-06)
(8.79936 0.54299 -7.5303e-06)
(8.79936 0.542992 -7.4975e-06)
(8.79936 0.542994 -7.25335e-06)
(8.79936 0.542996 -6.87514e-06)
(8.79936 0.542998 -6.32192e-06)
(8.79936 0.543 -5.70822e-06)
(8.79936 0.543002 -4.9482e-06)
(8.79936 0.543003 -4.20966e-06)
(8.79936 0.543004 -3.40017e-06)
(8.79936 0.543005 -2.54802e-06)
(8.79936 0.543006 -1.26662e-06)
(8.79913 0.542992 -2.1935e-07)
(8.81857 0.347059 2.82232e-07)
(8.8188 0.347069 1.66189e-06)
(8.8188 0.34707 3.1538e-06)
(8.8188 0.347072 4.32139e-06)
(8.8188 0.347075 5.36116e-06)
(8.8188 0.347078 6.18417e-06)
(8.8188 0.347081 6.87484e-06)
(8.8188 0.347084 7.29727e-06)
(8.8188 0.347088 7.55056e-06)
(8.8188 0.347092 7.55977e-06)
(8.81879 0.347095 7.4145e-06)
(8.81879 0.347099 7.06429e-06)
(8.81879 0.347102 6.61122e-06)
(8.81879 0.347105 5.9875e-06)
(8.81879 0.347108 5.34077e-06)
(8.81879 0.34711 4.52638e-06)
(8.81879 0.347112 3.71287e-06)
(8.81879 0.347113 2.75546e-06)
(8.81879 0.347114 2.00703e-06)
(8.81855 0.347105 9.77587e-07)
(8.81494 0.337847 -3.59146e-07)
(8.81517 0.337856 -6.37207e-07)
(8.81517 0.337856 -8.27947e-07)
(8.81517 0.337855 -1.04764e-06)
(8.81517 0.337855 -1.0736e-06)
(8.81517 0.337855 -1.20927e-06)
(8.81516 0.337855 -1.23879e-06)
(8.81516 0.337855 -1.28503e-06)
(8.81516 0.337855 -1.25718e-06)
(8.81516 0.337855 -1.2375e-06)
(8.81516 0.337854 -1.15278e-06)
(8.81515 0.337854 -1.0731e-06)
(8.81515 0.337854 -9.32612e-07)
(8.81515 0.337854 -8.19501e-07)
(8.81515 0.337854 -6.21939e-07)
(8.81515 0.337854 -5.09e-07)
(8.81515 0.337854 -2.12855e-07)
(8.81515 0.337854 -1.05251e-07)
(8.81515 0.337854 9.06189e-08)
(8.81491 0.337845 1.90207e-07)
(8.82452 0.15455 2.88132e-07)
(8.82475 0.154554 1.56491e-06)
(8.82475 0.154555 2.91488e-06)
(8.82475 0.154557 4.01931e-06)
(8.82475 0.154559 5.01756e-06)
(8.82475 0.154561 5.80639e-06)
(8.82475 0.154564 6.45511e-06)
(8.82475 0.154566 6.86481e-06)
(8.82474 0.154569 7.11051e-06)
(8.82474 0.154572 7.13002e-06)
(8.82474 0.154574 7.00288e-06)
(8.82474 0.154577 6.6825e-06)
(8.82474 0.154579 6.2615e-06)
(8.82473 0.154582 5.68259e-06)
(8.82473 0.154584 5.06872e-06)
(8.82473 0.154586 4.31313e-06)
(8.82473 0.154587 3.56421e-06)
(8.82473 0.154588 2.67018e-06)
(8.82473 0.154589 1.89641e-06)
(8.82449 0.154585 8.95084e-07)
(8.82726 0.14064 8.30712e-08)
(8.82749 0.140643 6.54453e-07)
(8.82749 0.140642 1.25174e-06)
(8.82749 0.140641 1.77836e-06)
(8.82749 0.140639 2.38143e-06)
(8.82749 0.140638 2.77175e-06)
(8.82749 0.140636 3.13562e-06)
(8.82748 0.140634 3.34382e-06)
(8.82748 0.140632 3.49366e-06)
(8.82748 0.14063 3.51526e-06)
(8.82748 0.140629 3.484e-06)
(8.82747 0.140627 3.34507e-06)
(8.82747 0.140625 3.18327e-06)
(8.82747 0.140623 2.92209e-06)
(8.82747 0.140622 2.68788e-06)
(8.82746 0.140621 2.33073e-06)
(8.82746 0.14062 2.08831e-06)
(8.82746 0.140619 1.6268e-06)
(8.82746 0.140619 1.15683e-06)
(8.82722 0.140615 5.44716e-07)
(8.82893 -0.0334864 2.59696e-08)
(8.82916 -0.0334872 6.46175e-07)
(8.82916 -0.0334863 1.32949e-06)
(8.82916 -0.0334846 1.89273e-06)
(8.82916 -0.0334828 2.48029e-06)
(8.82916 -0.0334805 2.89873e-06)
(8.82915 -0.033478 3.2773e-06)
(8.82915 -0.0334753 3.50873e-06)
(8.82915 -0.0334724 3.67341e-06)
(8.82915 -0.0334694 3.70953e-06)
(8.82914 -0.0334665 3.68152e-06)
(8.82914 -0.0334637 3.54043e-06)
(8.82914 -0.0334611 3.36128e-06)
(8.82914 -0.0334587 3.07888e-06)
(8.82914 -0.0334565 2.80455e-06)
(8.82913 -0.0334546 2.41604e-06)
(8.82913 -0.0334531 2.10004e-06)
(8.82913 -0.0334521 1.61555e-06)
(8.82913 -0.0334513 1.20282e-06)
(8.82889 -0.0334496 6.18086e-07)
(8.84006 -0.0485531 4.45054e-07)
(8.84029 -0.048556 1.91347e-06)
(8.84029 -0.0485572 3.40932e-06)
(8.84029 -0.0485592 4.70948e-06)
(8.84029 -0.0485615 5.9463e-06)
(8.84029 -0.0485643 6.90712e-06)
(8.84029 -0.0485675 7.70119e-06)
(8.84029 -0.0485709 8.2183e-06)
(8.84028 -0.0485744 8.53229e-06)
(8.84028 -0.048578 8.58382e-06)
(8.84028 -0.0485815 8.44587e-06)
(8.84028 -0.0485849 8.08077e-06)
(8.84028 -0.0485881 7.57862e-06)
(8.84027 -0.048591 6.89591e-06)
(8.84027 -0.0485936 6.1545e-06)
(8.84027 -0.0485958 5.26107e-06)
(8.84027 -0.0485976 4.38219e-06)
(8.84027 -0.0485988 3.31043e-06)
(8.84027 -0.0485998 2.20121e-06)
(8.84003 -0.048598 9.19613e-07)
(8.8353 -0.225326 -4.37394e-07)
(8.83553 -0.225333 -9.44829e-07)
(8.83553 -0.225333 -1.35029e-06)
(8.83553 -0.225332 -1.73426e-06)
(8.83553 -0.225331 -1.9094e-06)
(8.83553 -0.225329 -2.1617e-06)
(8.83553 -0.225328 -2.28841e-06)
(8.83552 -0.225327 -2.40011e-06)
(8.83552 -0.225325 -2.41107e-06)
(8.83552 -0.225324 -2.38004e-06)
(8.83552 -0.225322 -2.25887e-06)
(8.83551 -0.225321 -2.10334e-06)
(8.83551 -0.225319 -1.86586e-06)
(8.83551 -0.225318 -1.62765e-06)
(8.83551 -0.225317 -1.29629e-06)
(8.83551 -0.225316 -1.02808e-06)
(8.8355 -0.225315 -5.88589e-07)
(8.8355 -0.225314 -3.31123e-07)
(8.8355 -0.225314 -2.27759e-08)
(8.83527 -0.225307 1.43354e-07)
(8.85636 -0.236683 6.31452e-07)
(8.8566 -0.236691 2.58206e-06)
(8.8566 -0.236692 4.59826e-06)
(8.8566 -0.236694 6.31701e-06)
(8.8566 -0.236696 7.86078e-06)
(8.8566 -0.236698 9.12208e-06)
(8.8566 -0.236701 1.01386e-05)
(8.8566 -0.236703 1.08212e-05)
(8.8566 -0.236706 1.12254e-05)
(8.85659 -0.236709 1.1298e-05)
(8.85659 -0.236712 1.11117e-05)
(8.85659 -0.236715 1.06371e-05)
(8.85659 -0.236718 9.96822e-06)
(8.85659 -0.23672 9.07866e-06)
(8.85659 -0.236722 8.07672e-06)
(8.85659 -0.236724 6.91045e-06)
(8.85658 -0.236726 5.66887e-06)
(8.85658 -0.236727 4.27444e-06)
(8.85658 -0.236727 2.87827e-06)
(8.85635 -0.23672 1.1909e-06)
(8.84296 -0.426702 -8.62446e-07)
(8.84319 -0.426714 -2.2458e-06)
(8.84319 -0.426714 -3.56036e-06)
(8.84319 -0.426713 -4.71289e-06)
(8.84319 -0.426713 -5.45699e-06)
(8.84319 -0.426712 -6.26598e-06)
(8.84319 -0.426712 -6.81201e-06)
(8.84318 -0.426711 -7.22013e-06)
(8.84318 -0.42671 -7.39302e-06)
(8.84318 -0.426709 -7.38578e-06)
(8.84318 -0.426709 -7.16276e-06)
(8.84317 -0.426708 -6.78703e-06)
(8.84317 -0.426707 -6.23193e-06)
(8.84317 -0.426707 -5.58983e-06)
(8.84317 -0.426706 -4.77837e-06)
(8.84317 -0.426706 -3.98126e-06)
(8.84317 -0.426705 -2.87786e-06)
(8.84317 -0.426705 -1.99153e-06)
(8.84317 -0.426705 -1.09721e-06)
(8.84293 -0.426692 -2.45456e-07)
(8.87091 -0.432435 7.32458e-07)
(8.87115 -0.432448 2.95668e-06)
(8.87114 -0.432449 5.32576e-06)
(8.87114 -0.432451 7.26281e-06)
(8.87114 -0.432453 8.90501e-06)
(8.87115 -0.432455 1.03126e-05)
(8.87115 -0.432457 1.14368e-05)
(8.87115 -0.43246 1.21945e-05)
(8.87115 -0.432463 1.26357e-05)
(8.87114 -0.432465 1.26991e-05)
(8.87114 -0.432468 1.24667e-05)
(8.87114 -0.432471 1.19051e-05)
(8.87114 -0.432473 1.11219e-05)
(8.87114 -0.432476 1.00934e-05)
(8.87114 -0.432478 8.93061e-06)
(8.87114 -0.43248 7.6031e-06)
(8.87114 -0.432481 6.1161e-06)
(8.87114 -0.432482 4.5677e-06)
(8.87114 -0.432482 3.12676e-06)
(8.8709 -0.43247 1.29463e-06)
(8.847 -0.642158 -1.26225e-06)
(8.84724 -0.642177 -3.40346e-06)
(8.84723 -0.642177 -5.51826e-06)
(8.84723 -0.642177 -7.37453e-06)
(8.84723 -0.642177 -8.66287e-06)
(8.84723 -0.642178 -1.0006e-05)
(8.84723 -0.642179 -1.09617e-05)
(8.84723 -0.64218 -1.16619e-05)
(8.84723 -0.642181 -1.1993e-05)
(8.84723 -0.642182 -1.20214e-05)
(8.84722 -0.642183 -1.17139e-05)
(8.84722 -0.642184 -1.11507e-05)
(8.84722 -0.642185 -1.03184e-05)
(8.84722 -0.642186 -9.32738e-06)
(8.84722 -0.642186 -8.11045e-06)
(8.84722 -0.642187 -6.85876e-06)
(8.84722 -0.642188 -5.1731e-06)
(8.84722 -0.642189 -3.70419e-06)
(8.84722 -0.642189 -2.20108e-06)
(8.84699 -0.642171 -6.27099e-07)
(8.87416 -0.640728 5.7233e-07)
(8.8744 -0.640746 2.60925e-06)
(8.8744 -0.640747 4.87937e-06)
(8.8744 -0.640749 6.56724e-06)
(8.8744 -0.64075 7.87743e-06)
(8.8744 -0.640752 9.08867e-06)
(8.8744 -0.640753 1.00919e-05)
(8.8744 -0.640755 1.07354e-05)
(8.8744 -0.640757 1.11215e-05)
(8.8744 -0.640759 1.11406e-05)
(8.8744 -0.640761 1.09097e-05)
(8.8744 -0.640763 1.03645e-05)
(8.8744 -0.640765 9.64608e-06)
(8.8744 -0.640767 8.69315e-06)
(8.8744 -0.640769 7.6629e-06)
(8.8744 -0.64077 6.46805e-06)
(8.8744 -0.640771 5.04069e-06)
(8.8744 -0.640771 3.70482e-06)
(8.8744 -0.640772 2.67377e-06)
(8.87417 -0.640754 1.17525e-06)
(8.83845 -0.871084 -1.49651e-06)
(8.83869 -0.871109 -4.09586e-06)
(8.83869 -0.87111 -6.11308e-06)
(8.83869 -0.871111 -8.50445e-06)
(8.83869 -0.871113 -1.08772e-05)
(8.83869 -0.871117 -1.26554e-05)
(8.83869 -0.87112 -1.39947e-05)
(8.83869 -0.871124 -1.49304e-05)
(8.83869 -0.871128 -1.5381e-05)
(8.83869 -0.871132 -1.54472e-05)
(8.83869 -0.871136 -1.50731e-05)
(8.83869 -0.871139 -1.43825e-05)
(8.83869 -0.871143 -1.33508e-05)
(8.83869 -0.871146 -1.21269e-05)
(8.83869 -0.871149 -1.07017e-05)
(8.83869 -0.871152 -9.16619e-06)
(8.83869 -0.871154 -7.74422e-06)
(8.83869 -0.871157 -5.83631e-06)
(8.83869 -0.871159 -3.20239e-06)
(8.83846 -0.871135 -1.00521e-06)
(8.85575 -0.860714 -1.18652e-07)
(8.85598 -0.860738 1.01224e-06)
(8.85598 -0.860737 1.44683e-06)
(8.85599 -0.860738 1.99675e-06)
(8.85599 -0.860738 3.18236e-06)
(8.85599 -0.860738 3.618e-06)
(8.85599 -0.860738 4.19277e-06)
(8.85599 -0.860738 4.41181e-06)
(8.856 -0.860738 4.60297e-06)
(8.856 -0.860738 4.54925e-06)
(8.856 -0.860738 4.43511e-06)
(8.856 -0.860738 4.12677e-06)
(8.856 -0.860738 3.8214e-06)
(8.856 -0.860738 3.34201e-06)
(8.85601 -0.860738 3.04041e-06)
(8.85601 -0.860738 2.48571e-06)
(8.85601 -0.860739 2.55841e-06)
(8.85601 -0.860738 1.92278e-06)
(8.85601 -0.860739 1.06469e-06)
(8.85577 -0.860715 7.66627e-07)
(8.80961 -1.1077 -1.56947e-06)
(8.80984 -1.10773 -3.83044e-06)
(8.80984 -1.10773 -6.3941e-06)
(8.80984 -1.10773 -8.96609e-06)
(8.80984 -1.10774 -1.08788e-05)
(8.80984 -1.10774 -1.27147e-05)
(8.80984 -1.10775 -1.39633e-05)
(8.80985 -1.10776 -1.49384e-05)
(8.80985 -1.10776 -1.53799e-05)
(8.80985 -1.10777 -1.54889e-05)
(8.80985 -1.10778 -1.51281e-05)
(8.80985 -1.10779 -1.44852e-05)
(8.80985 -1.10779 -1.34598e-05)
(8.80985 -1.1078 -1.22945e-05)
(8.80985 -1.10781 -1.0812e-05)
(8.80985 -1.10781 -9.35422e-06)
(8.80986 -1.10782 -7.49866e-06)
(8.80986 -1.10782 -5.7716e-06)
(8.80986 -1.10782 -3.70697e-06)
(8.80962 -1.1078 -1.08633e-06)
(8.81379 -1.08815 1.89667e-06)
(8.81399 -1.08817 -1.39215e-06)
(8.81398 -1.08817 -3.06309e-06)
(8.81398 -1.08816 -5.15175e-06)
(8.81398 -1.08816 -6.0168e-06)
(8.81398 -1.08816 -7.17613e-06)
(8.81398 -1.08816 -7.77553e-06)
(8.81399 -1.08815 -8.38261e-06)
(8.81399 -1.08815 -8.61375e-06)
(8.81399 -1.08814 -8.74424e-06)
(8.81399 -1.08814 -8.56858e-06)
(8.81399 -1.08814 -8.28639e-06)
(8.814 -1.08813 -7.72884e-06)
(8.814 -1.08813 -7.17336e-06)
(8.814 -1.08813 -6.28668e-06)
(8.814 -1.08812 -5.62233e-06)
(8.814 -1.08812 -4.39173e-06)
(8.81401 -1.08812 -4.05057e-06)
(8.81402 -1.08812 -3.09955e-06)
(8.81382 -1.0881 -3.54795e-06)
(8.73107 0.746925 -1.54817e-07)
(8.73129 0.746946 -1.95844e-06)
(8.73129 0.746945 -1.66578e-06)
(8.73129 0.746943 -2.40054e-06)
(8.73129 0.746941 -2.49152e-06)
(8.7313 0.746938 -2.93597e-06)
(8.7313 0.746935 -3.088e-06)
(8.7313 0.746932 -3.32997e-06)
(8.7313 0.746929 -3.39511e-06)
(8.7313 0.746925 -3.45992e-06)
(8.7313 0.746922 -3.39208e-06)
(8.7313 0.746918 -3.31561e-06)
(8.7313 0.746915 -3.09819e-06)
(8.7313 0.746913 -2.92127e-06)
(8.73131 0.74691 -2.51263e-06)
(8.73131 0.746908 -2.2801e-06)
(8.73131 0.746906 -1.54216e-06)
(8.73131 0.746905 -1.33492e-06)
(8.73131 0.746904 2.0833e-08)
(8.73108 0.746882 -5.63604e-07)
(8.74759 0.748459 -1.70257e-06)
(8.74782 0.748482 -3.2439e-06)
(8.74782 0.748483 -4.42122e-06)
(8.74782 0.748485 -5.9157e-06)
(8.74782 0.748487 -6.95907e-06)
(8.74782 0.74849 -8.03391e-06)
(8.74782 0.748493 -8.72475e-06)
(8.74782 0.748497 -9.27782e-06)
(8.74782 0.748501 -9.50269e-06)
(8.74782 0.748504 -9.54858e-06)
(8.74782 0.748508 -9.31938e-06)
(8.74782 0.748512 -8.93973e-06)
(8.74782 0.748515 -8.32212e-06)
(8.74782 0.748519 -7.63068e-06)
(8.74782 0.748522 -6.691e-06)
(8.74782 0.748524 -5.79655e-06)
(8.74782 0.748527 -4.51925e-06)
(8.74782 0.748529 -3.40147e-06)
(8.74782 0.74853 -1.65772e-06)
(8.74759 0.748509 7.28224e-09)
(8.77217 0.536833 -5.58155e-07)
(8.7724 0.536849 1.87325e-07)
(8.7724 0.536849 8.49797e-07)
(8.7724 0.53685 1.29777e-06)
(8.7724 0.536852 2.14044e-06)
(8.7724 0.536853 2.47812e-06)
(8.7724 0.536855 2.89811e-06)
(8.7724 0.536857 3.08555e-06)
(8.7724 0.536859 3.24479e-06)
(8.7724 0.536861 3.25985e-06)
(8.7724 0.536863 3.23033e-06)
(8.7724 0.536865 3.08468e-06)
(8.7724 0.536867 2.93242e-06)
(8.7724 0.536869 2.65423e-06)
(8.7724 0.53687 2.48677e-06)
(8.7724 0.536872 2.10319e-06)
(8.7724 0.536873 2.13945e-06)
(8.7724 0.536874 1.66826e-06)
(8.7724 0.536875 1.36622e-06)
(8.77217 0.536859 1.06238e-06)
(8.75456 0.530722 -1.04649e-06)
(8.7548 0.530738 -2.10766e-06)
(8.75479 0.530739 -2.75544e-06)
(8.75479 0.53074 -3.72364e-06)
(8.75479 0.530741 -4.56629e-06)
(8.75479 0.530743 -5.23805e-06)
(8.75479 0.530746 -5.67423e-06)
(8.75479 0.530748 -5.98566e-06)
(8.75479 0.530751 -6.08179e-06)
(8.75479 0.530753 -6.05954e-06)
(8.75479 0.530756 -5.86066e-06)
(8.75479 0.530758 -5.57253e-06)
(8.75479 0.530761 -5.13983e-06)
(8.75479 0.530763 -4.66978e-06)
(8.75479 0.530765 -4.07557e-06)
(8.75479 0.530767 -3.50408e-06)
(8.75479 0.530768 -2.86333e-06)
(8.75479 0.53077 -2.16938e-06)
(8.75479 0.530771 -9.40083e-07)
(8.75455 0.530756 1.3288e-08)
(8.77528 0.335713 6.94348e-08)
(8.77552 0.335723 1.48411e-06)
(8.77551 0.335724 3.04737e-06)
(8.77551 0.335727 4.20826e-06)
(8.77551 0.335729 5.27777e-06)
(8.77551 0.335732 6.11755e-06)
(8.77551 0.335736 6.83404e-06)
(8.77551 0.335739 7.28495e-06)
(8.77551 0.335743 7.57582e-06)
(8.77551 0.335747 7.6258e-06)
(8.77551 0.335751 7.52849e-06)
(8.77551 0.335754 7.22492e-06)
(8.77551 0.335758 6.82133e-06)
(8.77551 0.335761 6.23675e-06)
(8.77551 0.335764 5.62348e-06)
(8.77551 0.335767 4.82387e-06)
(8.77551 0.335769 4.02996e-06)
(8.77551 0.33577 3.0378e-06)
(8.77551 0.335771 2.31947e-06)
(8.77527 0.335762 1.24333e-06)
(8.76183 0.326275 -3.93249e-07)
(8.76206 0.326285 -3.17297e-07)
(8.76206 0.326285 -1.11204e-07)
(8.76206 0.326285 -5.5315e-08)
(8.76206 0.326285 1.7096e-07)
(8.76206 0.326286 2.46568e-07)
(8.76206 0.326286 3.84878e-07)
(8.76206 0.326286 4.54342e-07)
(8.76206 0.326287 5.57112e-07)
(8.76206 0.326287 6.01681e-07)
(8.76206 0.326288 6.73871e-07)
(8.76206 0.326289 6.92632e-07)
(8.76206 0.326289 7.36648e-07)
(8.76206 0.32629 7.18207e-07)
(8.76205 0.32629 7.54308e-07)
(8.76205 0.32629 6.7977e-07)
(8.76205 0.326291 7.71718e-07)
(8.76205 0.326292 6.3966e-07)
(8.76205 0.326292 6.7541e-07)