/*--------------------------------*- C++ -*----------------------------------*\
| =========                 |                                                 |
| \\      /  F ield         | OpenFOAM: The Open Source CFD Toolbox           |
|  \\    /   O peration     | Version:  2212                                  |
|   \\  /    A nd           | Website:  www.openfoam.com                      |
|    \\/     M anipulation  |                                                 |
\*---------------------------------------------------------------------------*/
FoamFile
{
    version     2.0;
    format      ascii;
    arch        "LSB;label=32;scalar=64";
    class       volScalarField;
    location    "0.1004";
    object      s;
}
// * * * * * * * * * * * * * * * * * * * * * * * * * * * * * * * * * * * * * //

dimensions      [0 0 0 0 0 0 0];

internalField   nonuniform List<scalar> 
24240
(
3.118e-119
3.11301e-119
3.19633e-119
3.03429e-119
3.15118e-119
3.12836e-119
3.12669e-119
3.04268e-119
3.0403e-119
3.17715e-119
3.03328e-119
3.19253e-119
3.02909e-119
3.14495e-119
3.00698e-119
3.1707e-119
2.97089e-119
3.06694e-119
3.12378e-119
2.93394e-119
3.76047e-116
3.75188e-116
3.85317e-116
3.65763e-116
3.79846e-116
3.77079e-116
3.76849e-116
3.66643e-116
3.66469e-116
3.8288e-116
3.65688e-116
3.84782e-116
3.65174e-116
3.79096e-116
3.62592e-116
3.82258e-116
3.5819e-116
3.69683e-116
3.76535e-116
3.53688e-116
2.63364e-113
2.62567e-113
2.69751e-113
2.56024e-113
2.65887e-113
2.63948e-113
2.63748e-113
2.56538e-113
2.56476e-113
2.67952e-113
2.55984e-113
2.69306e-113
2.55629e-113
2.65366e-113
2.53894e-113
2.67617e-113
2.50727e-113
2.58752e-113
2.63564e-113
2.4753e-113
1.04811e-110
1.0441e-110
1.07319e-110
1.01833e-110
1.05763e-110
1.04995e-110
1.04892e-110
1.01993e-110
1.01985e-110
1.06567e-110
1.01815e-110
1.07109e-110
1.01682e-110
1.05561e-110
1.01027e-110
1.06471e-110
9.97113e-111
1.02914e-110
1.04839e-110
9.84163e-111
3.14036e-108
3.12539e-108
3.215e-108
3.04919e-108
3.16744e-108
3.14478e-108
3.14049e-108
3.05243e-108
3.0522e-108
3.19121e-108
3.04815e-108
3.20731e-108
3.04468e-108
3.16165e-108
3.02648e-108
3.18928e-108
2.98415e-108
3.08139e-108
3.1398e-108
2.94432e-108
6.54166e-106
6.50309e-106
6.69761e-106
6.34713e-106
6.59559e-106
6.54974e-106
6.53687e-106
6.35011e-106
6.34832e-106
6.64537e-106
6.34281e-106
6.67787e-106
6.33765e-106
6.58464e-106
6.3039e-106
6.64296e-106
6.20575e-106
6.41419e-106
6.53843e-106
6.1195e-106
9.69335e-104
9.6211e-104
9.93022e-104
9.39609e-104
9.77112e-104
9.70701e-104
9.67735e-104
9.39283e-104
9.38379e-104
9.84776e-104
9.38243e-104
9.8919e-104
9.38092e-104
9.75786e-104
9.34089e-104
9.84531e-104
9.16796e-104
9.49604e-104
9.6877e-104
9.03184e-104
9.41595e-102
9.32217e-102
9.66215e-102
9.1137e-102
9.49262e-102
9.4376e-102
9.38867e-102
9.0988e-102
9.07455e-102
9.57526e-102
9.08547e-102
9.60894e-102
9.09656e-102
9.48628e-102
9.07565e-102
9.57214e-102
8.85394e-102
9.21407e-102
9.41536e-102
8.70694e-102
2.91659e-100
2.90542e-100
2.95337e-100
2.82675e-100
2.92357e-100
2.89025e-100
2.90365e-100
2.83195e-100
2.85163e-100
2.92614e-100
2.84251e-100
2.9536e-100
2.82626e-100
2.9098e-100
2.79642e-100
2.94073e-100
2.81233e-100
2.85249e-100
2.89074e-100
2.78718e-100
2.92287e-100
2.93947e-100
2.91612e-100
2.84323e-100
2.91389e-100
2.86345e-100
2.91255e-100
2.86353e-100
2.91651e-100
2.89203e-100
2.88887e-100
2.9406e-100
2.84824e-100
2.88569e-100
2.78834e-100
2.92041e-100
2.90914e-100
2.86152e-100
2.87111e-100
2.90966e-100
4.15055e-100
4.23743e-100
4.22137e-100
4.20166e-100
4.15187e-100
4.20031e-100
4.27803e-100
4.18911e-100
4.29674e-100
4.31803e-100
4.25896e-100
4.32387e-100
4.2199e-100
4.16876e-100
4.13365e-100
4.2187e-100
4.18333e-100
4.1666e-100
4.18415e-100
4.23092e-100
5.0534e-100
5.11044e-100
5.11872e-100
5.08976e-100
5.01102e-100
4.90592e-100
4.99366e-100
4.89203e-100
5.04999e-100
5.23781e-100
5.18845e-100
5.00961e-100
5.1415e-100
5.0825e-100
5.06157e-100
5.1176e-100
4.88536e-100
5.11896e-100
5.03098e-100
5.03891e-100
5.68237e-100
5.88488e-100
5.78854e-100
5.76891e-100
5.75647e-100
5.84229e-100
6.03414e-100
5.76564e-100
5.8046e-100
5.76295e-100
5.7795e-100
5.76255e-100
5.76214e-100
5.71097e-100
5.59853e-100
5.74676e-100
5.79561e-100
5.66957e-100
5.63745e-100
5.68494e-100
6.3655e-100
6.43349e-100
6.55161e-100
6.59874e-100
6.51017e-100
6.64811e-100
6.50309e-100
6.59991e-100
6.58244e-100
6.25639e-100
6.36861e-100
6.33831e-100
6.40719e-100
6.25104e-100
6.28255e-100
6.29754e-100
6.33493e-100
6.41729e-100
6.36652e-100
6.47163e-100
6.48937e-100
6.55942e-100
6.64535e-100
6.6469e-100
6.5401e-100
6.5626e-100
6.60421e-100
6.71917e-100
6.50005e-100
6.60505e-100
6.53053e-100
6.5546e-100
6.7063e-100
6.56473e-100
6.47599e-100
6.8073e-100
6.52674e-100
6.48601e-100
6.5721e-100
6.71902e-100
6.76056e-100
6.65157e-100
6.79203e-100
6.65638e-100
6.75489e-100
6.78244e-100
6.86282e-100
6.76939e-100
6.57173e-100
6.65173e-100
6.64557e-100
6.892e-100
6.75395e-100
6.88566e-100
6.86605e-100
6.86533e-100
6.80968e-100
6.75112e-100
6.69282e-100
6.73475e-100
6.11351e-100
6.20712e-100
6.13019e-100
6.40547e-100
6.22875e-100
6.40643e-100
6.28953e-100
6.28488e-100
6.22827e-100
6.24453e-100
6.19807e-100
6.35476e-100
6.28402e-100
6.44704e-100
6.20315e-100
6.38018e-100
6.33664e-100
6.08299e-100
6.36771e-100
6.31324e-100
5.72554e-100
6.01602e-100
5.89531e-100
5.90597e-100
5.79421e-100
6.1024e-100
6.01338e-100
5.98598e-100
5.96413e-100
5.81559e-100
5.96698e-100
6.09758e-100
5.8913e-100
6.26142e-100
5.99312e-100
6.11574e-100
6.19253e-100
5.97114e-100
6.11175e-100
6.13244e-100
5.0371e-100
5.01984e-100
4.95491e-100
5.05901e-100
5.16716e-100
5.13496e-100
5.05092e-100
4.94996e-100
5.15474e-100
4.97465e-100
5.12493e-100
5.1195e-100
5.04486e-100
5.16474e-100
5.1874e-100
5.24447e-100
5.08025e-100
5.22953e-100
5.15596e-100
5.32372e-100
3.89468e-100
3.94026e-100
3.90022e-100
3.88077e-100
4.00007e-100
3.93901e-100
4.06064e-100
3.93925e-100
4.06391e-100
4.06095e-100
3.98859e-100
4.11135e-100
3.94614e-100
4.13047e-100
3.97981e-100
3.96755e-100
4.05564e-100
4.10813e-100
4.02575e-100
4.17851e-100
1.98639e-117
1.98242e-117
2.03463e-117
1.93239e-117
2.00621e-117
1.99137e-117
1.99081e-117
1.93731e-117
1.93687e-117
2.02194e-117
1.93245e-117
2.03228e-117
1.92935e-117
2.00207e-117
1.91515e-117
2.01881e-117
1.89359e-117
1.95291e-117
1.98857e-117
1.87028e-117
2.76145e-114
2.754e-114
2.82727e-114
2.68501e-114
2.78753e-114
2.76685e-114
2.7658e-114
2.69085e-114
2.691e-114
2.80875e-114
2.68538e-114
2.82342e-114
2.68106e-114
2.78186e-114
2.66199e-114
2.80553e-114
2.63148e-114
2.71343e-114
2.76303e-114
2.59871e-114
2.07939e-111
2.07222e-111
2.12815e-111
2.02075e-111
2.09794e-111
2.08241e-111
2.08126e-111
2.02431e-111
2.02485e-111
2.11348e-111
2.02107e-111
2.12465e-111
2.01788e-111
2.09372e-111
2.00412e-111
2.11181e-111
1.98037e-111
2.04198e-111
2.07945e-111
1.95534e-111
8.76674e-109
8.72943e-109
8.9695e-109
8.5148e-109
8.84055e-109
8.77558e-109
8.76868e-109
8.52604e-109
8.52953e-109
8.90467e-109
8.51589e-109
8.952e-109
8.50315e-109
8.82333e-109
8.44812e-109
8.90069e-109
8.34322e-109
8.60382e-109
8.76271e-109
8.23573e-109
2.68719e-106
2.67322e-106
2.74889e-106
2.60833e-106
2.70856e-106
2.68898e-106
2.68581e-106
2.61041e-106
2.61145e-106
2.72799e-106
2.60817e-106
2.74233e-106
2.60475e-106
2.70353e-106
2.58912e-106
2.72756e-106
2.55439e-106
2.63544e-106
2.68476e-106
2.52056e-106
5.73493e-104
5.69861e-104
5.86706e-104
5.56264e-104
5.77836e-104
5.73785e-104
5.72757e-104
5.56369e-104
5.56463e-104
5.82014e-104
5.56029e-104
5.84976e-104
5.55488e-104
5.76867e-104
5.52518e-104
5.82061e-104
5.44213e-104
5.62043e-104
5.72796e-104
5.36699e-104
8.43055e-102
8.36396e-102
8.62963e-102
8.16945e-102
8.49237e-102
8.43622e-102
8.41189e-102
8.16425e-102
8.15993e-102
8.55637e-102
8.15958e-102
8.5964e-102
8.15707e-102
8.48079e-102
8.12206e-102
8.55812e-102
7.976e-102
8.25489e-102
8.41947e-102
7.85829e-102
8.12057e-100
8.03595e-100
8.32563e-100
7.85728e-100
8.18064e-100
8.1327e-100
8.09206e-100
7.84206e-100
7.82454e-100
8.24928e-100
7.8349e-100
8.28004e-100
7.84332e-100
8.1751e-100
7.82495e-100
8.2507e-100
7.63841e-100
7.94236e-100
8.11372e-100
7.51229e-100
2.44736e-98
2.43698e-98
2.47728e-98
2.3717e-98
2.45213e-98
2.4248e-98
2.43587e-98
2.37531e-98
2.39242e-98
2.45438e-98
2.38508e-98
2.47731e-98
2.37144e-98
2.44115e-98
2.34671e-98
2.46698e-98
2.35969e-98
2.39289e-98
2.42483e-98
2.33863e-98
2.43865e-98
2.45211e-98
2.43275e-98
2.37276e-98
2.43077e-98
2.38982e-98
2.43066e-98
2.38914e-98
2.43396e-98
2.41303e-98
2.41092e-98
2.45317e-98
2.37701e-98
2.40816e-98
2.32735e-98
2.43625e-98
2.42718e-98
2.38757e-98
2.39545e-98
2.42786e-98
3.46315e-98
3.53464e-98
3.52252e-98
3.50459e-98
3.46384e-98
3.50366e-98
3.56853e-98
3.4936e-98
3.58436e-98
3.60018e-98
3.55311e-98
3.60546e-98
3.51989e-98
3.47753e-98
3.44788e-98
3.5186e-98
3.48919e-98
3.47558e-98
3.49091e-98
3.52938e-98
4.19177e-98
4.23886e-98
4.24617e-98
4.22084e-98
4.15662e-98
4.06938e-98
4.14331e-98
4.0585e-98
4.19017e-98
4.34405e-98
4.30364e-98
4.15519e-98
4.26587e-98
4.21577e-98
4.19908e-98
4.24485e-98
4.05234e-98
4.2456e-98
4.17207e-98
4.17955e-98
4.70905e-98
4.87506e-98
4.79688e-98
4.77903e-98
4.77087e-98
4.8409e-98
4.99996e-98
4.77718e-98
4.80947e-98
4.77414e-98
4.78833e-98
4.77481e-98
4.77588e-98
4.73354e-98
4.64071e-98
4.76218e-98
4.80263e-98
4.69849e-98
4.67206e-98
4.71109e-98
5.21771e-98
5.27202e-98
5.36752e-98
5.40798e-98
5.33574e-98
5.44766e-98
5.32918e-98
5.40878e-98
5.39384e-98
5.12684e-98
5.21901e-98
5.195e-98
5.25157e-98
5.12415e-98
5.14873e-98
5.16212e-98
5.19119e-98
5.2597e-98
5.21784e-98
5.30481e-98
5.3172e-98
5.373e-98
5.44444e-98
5.44388e-98
5.35708e-98
5.37716e-98
5.41136e-98
5.50441e-98
5.32537e-98
5.41136e-98
5.3519e-98
5.37087e-98
5.49304e-98
5.3788e-98
5.30728e-98
5.57608e-98
5.34813e-98
5.31355e-98
5.38428e-98
5.50197e-98
5.44714e-98
5.3575e-98
5.46985e-98
5.36221e-98
5.44203e-98
5.46516e-98
5.52815e-98
5.45331e-98
5.29472e-98
5.35866e-98
5.35212e-98
5.5513e-98
5.44147e-98
5.5479e-98
5.53094e-98
5.53119e-98
5.48509e-98
5.44006e-98
5.39172e-98
5.42556e-98
4.93492e-98
5.00964e-98
4.94797e-98
5.17023e-98
5.0269e-98
5.16995e-98
5.07494e-98
5.07305e-98
5.02654e-98
5.03936e-98
5.00326e-98
5.12843e-98
5.06996e-98
5.20303e-98
5.00542e-98
5.14838e-98
5.11315e-98
4.90919e-98
5.13805e-98
5.09555e-98
4.5267e-98
4.75652e-98
4.66113e-98
4.66833e-98
4.58036e-98
4.82477e-98
4.7539e-98
4.73306e-98
4.71503e-98
4.59795e-98
4.71778e-98
4.82061e-98
4.65791e-98
4.94954e-98
4.73703e-98
4.8337e-98
4.89444e-98
4.72073e-98
4.83172e-98
4.84769e-98
4.00647e-98
3.99219e-98
3.94145e-98
4.02419e-98
4.10958e-98
4.08362e-98
4.01649e-98
3.93827e-98
4.10059e-98
3.95693e-98
4.07623e-98
4.07157e-98
4.01175e-98
4.10796e-98
4.12495e-98
4.17166e-98
4.03999e-98
4.15867e-98
4.1e-98
4.23337e-98
3.06722e-98
3.10273e-98
3.07141e-98
3.05602e-98
3.14915e-98
3.10173e-98
3.19583e-98
3.10196e-98
3.19839e-98
3.19716e-98
3.13998e-98
3.23628e-98
3.10734e-98
3.25171e-98
3.13287e-98
3.1236e-98
3.19216e-98
3.23367e-98
3.16927e-98
3.28852e-98
1.65788e-115
1.6538e-115
1.69687e-115
1.61221e-115
1.67335e-115
1.66078e-115
1.6606e-115
1.6159e-115
1.61634e-115
1.68587e-115
1.61276e-115
1.69488e-115
1.60988e-115
1.66981e-115
1.59804e-115
1.68405e-115
1.58092e-115
1.62912e-115
1.65852e-115
1.56158e-115
2.36235e-112
2.35489e-112
2.41684e-112
2.29613e-112
2.38313e-112
2.36521e-112
2.36472e-112
2.30053e-112
2.30178e-112
2.40045e-112
2.29714e-112
2.41353e-112
2.29304e-112
2.3782e-112
2.27674e-112
2.3988e-112
2.25188e-112
2.32013e-112
2.36204e-112
2.22402e-112
1.78655e-109
1.77958e-109
1.82706e-109
1.73557e-109
1.80132e-109
1.78783e-109
1.78715e-109
1.73816e-109
1.73945e-109
1.81406e-109
1.73634e-109
1.82404e-109
1.73331e-109
1.79764e-109
1.72148e-109
1.81344e-109
1.70201e-109
1.75355e-109
1.78533e-109
1.68063e-109
7.67138e-107
7.6353e-107
7.84283e-107
7.44845e-107
7.73092e-107
7.67356e-107
7.66881e-107
7.45622e-107
7.46275e-107
7.78445e-107
7.45141e-107
7.82741e-107
7.43904e-107
7.71566e-107
7.39083e-107
7.7844e-107
7.30297e-107
7.5251e-107
7.66236e-107
7.20952e-107
2.34252e-104
2.3293e-104
2.39447e-104
2.27305e-104
2.3596e-104
2.34241e-104
2.34004e-104
2.27422e-104
2.27616e-104
2.37577e-104
2.27351e-104
2.38873e-104
2.27017e-104
2.35518e-104
2.25651e-104
2.37644e-104
2.22742e-104
2.29629e-104
2.33873e-104
2.19812e-104
4.9737e-102
4.94002e-102
5.08425e-102
4.8228e-102
5.00798e-102
4.97265e-102
4.96459e-102
4.82233e-102
4.82531e-102
5.04265e-102
4.82198e-102
5.06928e-102
4.81656e-102
4.99957e-102
4.79069e-102
5.04528e-102
4.72125e-102
4.87204e-102
4.96405e-102
4.65653e-102
7.19434e-100
7.13439e-100
7.35812e-100
6.96945e-100
7.24203e-100
7.19387e-100
7.17442e-100
6.96298e-100
6.96239e-100
7.29442e-100
6.96279e-100
7.32996e-100
6.9596e-100
7.23221e-100
6.92948e-100
7.29925e-100
6.80879e-100
7.04106e-100
7.17959e-100
6.70902e-100
6.85726e-98
6.78274e-98
7.0241e-98
6.63284e-98
6.90278e-98
6.86198e-98
6.82904e-98
6.618e-98
6.60613e-98
6.95856e-98
6.61566e-98
6.98597e-98
6.62178e-98
6.89814e-98
6.60588e-98
6.96326e-98
6.45258e-98
6.7034e-98
6.84609e-98
6.34677e-98
2.01012e-96
2.00073e-96
2.03389e-96
1.94774e-96
2.01314e-96
1.99123e-96
2.00016e-96
1.95006e-96
1.96461e-96
2.01507e-96
1.95885e-96
2.03381e-96
1.94765e-96
2.00461e-96
1.92765e-96
2.02572e-96
1.93795e-96
1.96483e-96
1.99093e-96
1.9207e-96
1.98968e-96
2.00034e-96
1.98466e-96
1.93639e-96
1.98294e-96
1.95047e-96
1.98367e-96
1.94929e-96
1.98637e-96
1.96889e-96
1.96759e-96
2.00131e-96
1.93993e-96
1.96524e-96
1.89967e-96
1.98744e-96
1.98031e-96
1.9481e-96
1.95443e-96
1.98106e-96
2.82699e-96
2.8845e-96
2.87566e-96
2.85981e-96
2.82721e-96
2.85921e-96
2.91216e-96
2.8504e-96
2.92527e-96
2.93656e-96
2.89998e-96
2.94122e-96
2.87236e-96
2.83803e-96
2.81356e-96
2.87105e-96
2.84717e-96
2.83633e-96
2.8494e-96
2.88035e-96
3.40318e-96
3.44121e-96
3.4475e-96
3.42585e-96
3.37463e-96
3.30376e-96
3.3647e-96
3.29547e-96
3.40288e-96
3.52623e-96
3.49385e-96
3.37328e-96
3.46415e-96
3.42251e-96
3.40954e-96
3.44609e-96
3.28991e-96
3.44641e-96
3.38625e-96
3.39306e-96
3.82163e-96
3.95484e-96
3.89276e-96
3.87699e-96
3.87212e-96
3.92802e-96
4.05719e-96
3.87618e-96
3.90239e-96
3.87311e-96
3.88499e-96
3.87444e-96
3.87648e-96
3.84221e-96
3.76715e-96
3.8646e-96
3.89738e-96
3.81313e-96
3.79183e-96
3.82321e-96
4.19579e-96
4.23831e-96
4.31398e-96
4.34803e-96
4.29024e-96
4.37921e-96
4.28438e-96
4.34853e-96
4.33593e-96
4.12156e-96
4.19582e-96
4.17718e-96
4.22273e-96
4.12076e-96
4.13949e-96
4.15113e-96
4.17326e-96
4.22916e-96
4.19528e-96
4.26588e-96
4.27715e-96
4.32094e-96
4.37907e-96
4.37736e-96
4.30785e-96
4.32541e-96
4.35294e-96
4.42709e-96
4.28315e-96
4.3526e-96
4.3059e-96
4.32051e-96
4.41724e-96
4.32655e-96
4.27002e-96
4.48421e-96
4.30229e-96
4.27347e-96
4.33055e-96
4.42321e-96
4.32217e-96
4.24964e-96
4.33806e-96
4.25383e-96
4.31762e-96
4.33668e-96
4.3853e-96
4.32625e-96
4.20098e-96
4.25127e-96
4.24489e-96
4.40335e-96
4.31737e-96
4.40205e-96
4.38769e-96
4.38851e-96
4.35097e-96
4.3169e-96
4.27755e-96
4.30432e-96
3.92703e-96
3.98568e-96
3.93706e-96
4.11391e-96
3.99932e-96
4.11271e-96
4.0367e-96
4.0367e-96
3.99896e-96
4.009e-96
3.98135e-96
4.07992e-96
4.03235e-96
4.13929e-96
3.9816e-96
4.09532e-96
4.06719e-96
3.90565e-96
4.0868e-96
4.05425e-96
3.54797e-96
3.72789e-96
3.65324e-96
3.65813e-96
3.58951e-96
3.78141e-96
3.72548e-96
3.70982e-96
3.69506e-96
3.60384e-96
3.69756e-96
3.77782e-96
3.65087e-96
3.87831e-96
3.71152e-96
3.7871e-96
3.83459e-96
3.69952e-96
3.78649e-96
3.79862e-96
3.16237e-96
3.15097e-96
3.1116e-96
3.17666e-96
3.24346e-96
3.22296e-96
3.16972e-96
3.10974e-96
3.23727e-96
3.12341e-96
3.21755e-96
3.21367e-96
3.1659e-96
3.2428e-96
3.25526e-96
3.29319e-96
3.18859e-96
3.28202e-96
3.23565e-96
3.34079e-96
2.41079e-96
2.43837e-96
2.41393e-96
2.4018e-96
2.47432e-96
2.43759e-96
2.51015e-96
2.43776e-96
2.51216e-96
2.51203e-96
2.46699e-96
2.54234e-96
2.44196e-96
2.55475e-96
2.46127e-96
2.45429e-96
2.50746e-96
2.54026e-96
2.49001e-96
2.58289e-96
1.52914e-113
1.52464e-113
1.56397e-113
1.48645e-113
1.54243e-113
1.53068e-113
1.53075e-113
1.48944e-113
1.49054e-113
1.55342e-113
1.48734e-113
1.56205e-113
1.48444e-113
1.53906e-113
1.47354e-113
1.55241e-113
1.45847e-113
1.5018e-113
1.5286e-113
1.44072e-113
2.14029e-110
2.13254e-110
2.18804e-110
2.07955e-110
2.15772e-110
2.14132e-110
2.1412e-110
2.08294e-110
2.08504e-110
2.17266e-110
2.08099e-110
2.18493e-110
2.07693e-110
2.15313e-110
2.06217e-110
2.17209e-110
2.04067e-110
2.10091e-110
2.13842e-110
2.01557e-110
1.57693e-107
1.57006e-107
1.61147e-107
1.53141e-107
1.58893e-107
1.57692e-107
1.57657e-107
1.53327e-107
1.53512e-107
1.59964e-107
1.53249e-107
1.60876e-107
1.52957e-107
1.58563e-107
1.51912e-107
1.59979e-107
1.50272e-107
1.54701e-107
1.57471e-107
1.48398e-107
6.79199e-105
6.75702e-105
6.93849e-105
6.59249e-105
6.84021e-105
6.78909e-105
6.78597e-105
6.5975e-105
6.60628e-105
6.88542e-105
6.59679e-105
6.92472e-105
6.5848e-105
6.82659e-105
6.54206e-105
6.88832e-105
6.46766e-105
6.65917e-105
6.77912e-105
6.38549e-105
2.03981e-102
2.02742e-102
2.08342e-102
1.97872e-102
2.05332e-102
2.03828e-102
2.03655e-102
1.97918e-102
1.98176e-102
2.06677e-102
1.97962e-102
2.07842e-102
1.97641e-102
2.04947e-102
1.96448e-102
2.06823e-102
1.9402e-102
1.9986e-102
2.03505e-102
1.91488e-102
4.2851e-100
4.25427e-100
4.37682e-100
4.15391e-100
4.31171e-100
4.28116e-100
4.27497e-100
4.15231e-100
4.15674e-100
4.34028e-100
4.15426e-100
4.36401e-100
4.14895e-100
4.30451e-100
4.12653e-100
4.34444e-100
4.06902e-100
4.19556e-100
4.27372e-100
4.0137e-100
6.09825e-98
6.04488e-98
6.23182e-98
5.90599e-98
6.13435e-98
6.0934e-98
6.07807e-98
5.89879e-98
5.90093e-98
6.17695e-98
5.90187e-98
6.20821e-98
5.89826e-98
6.12617e-98
5.87244e-98
6.18383e-98
5.77365e-98
5.96556e-98
6.08129e-98
5.68975e-98
5.7417e-96
5.67685e-96
5.87601e-96
5.55218e-96
5.77543e-96
5.74108e-96
5.71471e-96
5.5381e-96
5.53063e-96
5.82038e-96
5.53926e-96
5.8445e-96
5.54354e-96
5.77167e-96
5.52982e-96
5.8272e-96
5.40518e-96
5.61016e-96
5.72787e-96
5.31725e-96
1.63718e-94
1.62879e-94
1.65586e-94
1.5862e-94
1.6389e-94
1.62149e-94
1.62866e-94
1.58752e-94
1.59976e-94
1.64054e-94
1.59529e-94
1.65572e-94
1.58622e-94
1.63236e-94
1.57017e-94
1.64946e-94
1.57825e-94
1.59987e-94
1.62099e-94
1.56423e-94
1.60871e-94
1.61707e-94
1.60449e-94
1.56602e-94
1.60301e-94
1.57753e-94
1.60426e-94
1.57606e-94
1.60646e-94
1.592e-94
1.5913e-94
1.61794e-94
1.56894e-94
1.58932e-94
1.5366e-94
1.60666e-94
1.60113e-94
1.57518e-94
1.58022e-94
1.60189e-94
2.28787e-94
2.33372e-94
2.3274e-94
2.31362e-94
2.28775e-94
2.31323e-94
2.35609e-94
2.30563e-94
2.36685e-94
2.37466e-94
2.34656e-94
2.3787e-94
2.32383e-94
2.29622e-94
2.27622e-94
2.32253e-94
2.30332e-94
2.29477e-94
2.30578e-94
2.33046e-94
2.74034e-94
2.77079e-94
2.77614e-94
2.75783e-94
2.71734e-94
2.66024e-94
2.71005e-94
2.65401e-94
2.74089e-94
2.83895e-94
2.81322e-94
2.71612e-94
2.79007e-94
2.75577e-94
2.74579e-94
2.77473e-94
2.64907e-94
2.77475e-94
2.72594e-94
2.732e-94
3.07807e-94
3.18414e-94
3.13524e-94
3.12153e-94
3.119e-94
3.16326e-94
3.26734e-94
3.12142e-94
3.14254e-94
3.11847e-94
3.12832e-94
3.12018e-94
3.12275e-94
3.09527e-94
3.03503e-94
3.11259e-94
3.13894e-94
3.07132e-94
3.05429e-94
3.0793e-94
3.35441e-94
3.38748e-94
3.44705e-94
3.47548e-94
3.42955e-94
3.49981e-94
3.42439e-94
3.47578e-94
3.46518e-94
3.29416e-94
3.35362e-94
3.33926e-94
3.3757e-94
3.29458e-94
3.30871e-94
3.31873e-94
3.3354e-94
3.38075e-94
3.35347e-94
3.41045e-94
3.42306e-94
3.45721e-94
3.5044e-94
3.50188e-94
3.44651e-94
3.46174e-94
3.48375e-94
3.54252e-94
3.42744e-94
3.4832e-94
3.44687e-94
3.4579e-94
3.53408e-94
3.46246e-94
3.41803e-94
3.58779e-94
3.44337e-94
3.41952e-94
3.46547e-94
3.53786e-94
3.42638e-94
3.36771e-94
3.43722e-94
3.37144e-94
3.42239e-94
3.43802e-94
3.47549e-94
3.42888e-94
3.33004e-94
3.36954e-94
3.36354e-94
3.48953e-94
3.42226e-94
3.48963e-94
3.47755e-94
3.47859e-94
3.44818e-94
3.42247e-94
3.39042e-94
3.41158e-94
3.12341e-94
3.16945e-94
3.13113e-94
3.27172e-94
3.18018e-94
3.26997e-94
3.20924e-94
3.21046e-94
3.17984e-94
3.18772e-94
3.1666e-94
3.24414e-94
3.20551e-94
3.29132e-94
3.16561e-94
3.256e-94
3.23355e-94
3.1057e-94
3.249e-94
3.22412e-94
2.7959e-94
2.93743e-94
2.87873e-94
2.88201e-94
2.82822e-94
2.97964e-94
2.93527e-94
2.92344e-94
2.91136e-94
2.83992e-94
2.91354e-94
2.97652e-94
2.87701e-94
3.05521e-94
2.92366e-94
2.98308e-94
3.02035e-94
2.91479e-94
2.98333e-94
2.99256e-94
2.50859e-94
2.49952e-94
2.46882e-94
2.52019e-94
2.57267e-94
2.55645e-94
2.51401e-94
2.46787e-94
2.5685e-94
2.47782e-94
2.55249e-94
2.54928e-94
2.51088e-94
2.57272e-94
2.58181e-94
2.61274e-94
2.52931e-94
2.60315e-94
2.56633e-94
2.64961e-94
1.89664e-94
1.91807e-94
1.899e-94
1.88942e-94
1.94592e-94
1.91745e-94
1.97342e-94
1.91757e-94
1.975e-94
1.97554e-94
1.94005e-94
1.99904e-94
1.92085e-94
2.00904e-94
1.93546e-94
1.93021e-94
1.97145e-94
1.9974e-94
1.95815e-94
2.03057e-94
1.34527e-111
1.3407e-111
1.37489e-111
1.30726e-111
1.35609e-111
1.34566e-111
1.34593e-111
1.30954e-111
1.31113e-111
1.36531e-111
1.30842e-111
1.37318e-111
1.30565e-111
1.3531e-111
1.29607e-111
1.36503e-111
1.28348e-111
1.32058e-111
1.34386e-111
1.26797e-111
1.9202e-108
1.91237e-108
1.96158e-108
1.86508e-108
1.93459e-108
1.91975e-108
1.91994e-108
1.86759e-108
1.87034e-108
1.94735e-108
1.86685e-108
1.95873e-108
1.86291e-108
1.93041e-108
1.84967e-108
1.94768e-108
1.83132e-108
1.88392e-108
1.91714e-108
1.80895e-108
1.40488e-105
1.39814e-105
1.43458e-105
1.3639e-105
1.41466e-105
1.40389e-105
1.4038e-105
1.36516e-105
1.36743e-105
1.42375e-105
1.36521e-105
1.43213e-105
1.36238e-105
1.4117e-105
1.35307e-105
1.42448e-105
1.33915e-105
1.37755e-105
1.40191e-105
1.32257e-105
5.99566e-103
5.96218e-103
6.12028e-103
5.81779e-103
6.03426e-103
5.98893e-103
5.98714e-103
5.82055e-103
5.83094e-103
6.07232e-103
5.82306e-103
6.10809e-103
5.81158e-103
6.02223e-103
5.77377e-103
6.07744e-103
5.71111e-103
5.8756e-103
5.98006e-103
5.63913e-103
1.7688e-100
1.7573e-100
1.80518e-100
1.71534e-100
1.77931e-100
1.76624e-100
1.76504e-100
1.71524e-100
1.71825e-100
1.79045e-100
1.71655e-100
1.80087e-100
1.7135e-100
1.77601e-100
1.70311e-100
1.79249e-100
1.68299e-100
1.73226e-100
1.76342e-100
1.66121e-100
3.66973e-98
3.64182e-98
3.74523e-98
3.55643e-98
3.69e-98
3.6638e-98
3.65915e-98
3.55405e-98
3.55944e-98
3.71341e-98
3.55765e-98
3.73437e-98
3.55256e-98
3.68394e-98
3.53321e-98
3.71856e-98
3.486e-98
3.59144e-98
3.65738e-98
3.43903e-98
5.13714e-96
5.09012e-96
5.24516e-96
4.97391e-96
5.16388e-96
5.12935e-96
5.11745e-96
4.96642e-96
4.97045e-96
5.19831e-96
4.97173e-96
5.22556e-96
4.96794e-96
5.15719e-96
4.94588e-96
5.20642e-96
4.86574e-96
5.02314e-96
5.11912e-96
4.7957e-96
4.77156e-94
4.71573e-94
4.87863e-94
4.61284e-94
4.79593e-94
4.7673e-94
4.74644e-94
4.59978e-94
4.59565e-94
4.8319e-94
4.60334e-94
4.85287e-94
4.60619e-94
4.79299e-94
4.59439e-94
4.83992e-94
4.49403e-94
4.66011e-94
4.75637e-94
4.4216e-94
1.32349e-92
1.31613e-92
1.33802e-92
1.28215e-92
1.32426e-92
1.31056e-92
1.31627e-92
1.28277e-92
1.29293e-92
1.32566e-92
1.28953e-92
1.33787e-92
1.28225e-92
1.31932e-92
1.26946e-92
1.33307e-92
1.27571e-92
1.29299e-92
1.30994e-92
1.26442e-92
1.29027e-92
1.29676e-92
1.28676e-92
1.25634e-92
1.2855e-92
1.26569e-92
1.28703e-92
1.26407e-92
1.2888e-92
1.27695e-92
1.27666e-92
1.29753e-92
1.25873e-92
1.27501e-92
1.23297e-92
1.28843e-92
1.28418e-92
1.26344e-92
1.26743e-92
1.28491e-92
1.83745e-92
1.8737e-92
1.86929e-92
1.85748e-92
1.8371e-92
1.85723e-92
1.89164e-92
1.85075e-92
1.90041e-92
1.90561e-92
1.88428e-92
1.90908e-92
1.86572e-92
1.84366e-92
1.82746e-92
1.86447e-92
1.84915e-92
1.84245e-92
1.85164e-92
1.87117e-92
2.19063e-92
2.21482e-92
2.21932e-92
2.20397e-92
2.17223e-92
2.12657e-92
2.16696e-92
2.12195e-92
2.1917e-92
2.26907e-92
2.24876e-92
2.17116e-92
2.23087e-92
2.20284e-92
2.19523e-92
2.21797e-92
2.1176e-92
2.2178e-92
2.17849e-92
2.18378e-92
2.46262e-92
2.54649e-92
2.50825e-92
2.4965e-92
2.49558e-92
2.53036e-92
2.61367e-92
2.49685e-92
2.51375e-92
2.4941e-92
2.50221e-92
2.49597e-92
2.49878e-92
2.47692e-92
2.42889e-92
2.49019e-92
2.51122e-92
2.45732e-92
2.4438e-92
2.46357e-92
2.66711e-92
2.69265e-92
2.73926e-92
2.76285e-92
2.72654e-92
2.78168e-92
2.72207e-92
2.763e-92
2.75411e-92
2.61848e-92
2.66582e-92
2.65483e-92
2.68381e-92
2.61965e-92
2.63021e-92
2.63875e-92
2.65118e-92
2.68775e-92
2.66592e-92
2.71165e-92
2.72641e-92
2.75287e-92
2.791e-92
2.78807e-92
2.74427e-92
2.75719e-92
2.77482e-92
2.82111e-92
2.72961e-92
2.77411e-92
2.746e-92
2.75427e-92
2.81393e-92
2.75768e-92
2.72295e-92
2.85677e-92
2.74273e-92
2.72311e-92
2.75989e-92
2.81613e-92
2.70767e-92
2.66036e-92
2.7148e-92
2.66367e-92
2.70418e-92
2.71694e-92
2.74572e-92
2.70903e-92
2.63131e-92
2.66224e-92
2.65672e-92
2.75657e-92
2.70415e-92
2.75757e-92
2.7475e-92
2.74858e-92
2.72407e-92
2.70477e-92
2.67874e-92
2.69547e-92
2.47819e-92
2.51425e-92
2.48414e-92
2.59557e-92
2.52264e-92
2.59356e-92
2.54516e-92
2.54711e-92
2.52233e-92
2.52851e-92
2.51245e-92
2.57327e-92
2.54202e-92
2.61066e-92
2.51072e-92
2.58237e-92
2.5645e-92
2.4636e-92
2.57666e-92
2.55769e-92
2.20199e-92
2.31321e-92
2.26711e-92
2.26923e-92
2.22712e-92
2.34649e-92
2.31131e-92
2.30241e-92
2.29254e-92
2.23663e-92
2.29441e-92
2.34379e-92
2.26588e-92
2.40535e-92
2.30169e-92
2.34838e-92
2.37758e-92
2.29517e-92
2.34915e-92
2.35617e-92
1.98927e-92
1.98206e-92
1.95814e-92
1.99869e-92
2.03989e-92
2.02705e-92
1.99323e-92
1.95782e-92
2.03717e-92
1.96499e-92
2.02418e-92
2.02154e-92
1.99067e-92
2.0404e-92
2.04696e-92
2.07215e-92
2.00566e-92
2.06398e-92
2.03474e-92
2.10067e-92
1.50161e-92
1.51837e-92
1.5034e-92
1.49577e-92
1.54006e-92
1.51787e-92
1.56129e-92
1.51795e-92
1.56254e-92
1.56348e-92
1.53532e-92
1.5818e-92
1.52053e-92
1.5899e-92
1.53163e-92
1.52765e-92
1.55985e-92
1.5805e-92
1.54966e-92
1.60646e-92
1.24192e-109
1.23714e-109
1.26834e-109
1.20642e-109
1.25112e-109
1.24141e-109
1.24184e-109
1.20818e-109
1.2102e-109
1.25922e-109
1.20779e-109
1.26671e-109
1.20505e-109
1.24831e-109
1.19621e-109
1.25949e-109
1.18517e-109
1.2185e-109
1.23974e-109
1.17094e-109
1.74635e-106
1.73845e-106
1.78266e-106
1.69567e-106
1.75831e-106
1.74474e-106
1.74517e-106
1.69748e-106
1.70075e-106
1.76936e-106
1.69772e-106
1.78002e-106
1.69387e-106
1.75448e-106
1.68183e-106
1.77039e-106
1.66597e-106
1.71251e-106
1.74234e-106
1.64577e-106
1.25285e-103
1.24629e-103
1.27836e-103
1.21593e-103
1.26075e-103
1.25111e-103
1.25122e-103
1.21671e-103
1.21929e-103
1.26847e-103
1.2174e-103
1.27617e-103
1.2147e-103
1.25811e-103
1.20638e-103
1.26965e-103
1.19459e-103
1.22789e-103
1.24932e-103
1.17991e-103
5.27272e-101
5.24104e-101
5.37815e-101
5.11485e-101
5.30316e-101
5.26322e-101
5.26249e-101
5.11582e-101
5.12724e-101
5.33509e-101
5.12077e-101
5.36745e-101
5.1099e-101
5.29268e-101
5.07653e-101
5.34182e-101
5.02413e-101
5.16476e-101
5.25533e-101
4.96136e-101
1.5276e-98
1.51705e-98
1.55779e-98
1.48104e-98
1.53566e-98
1.52436e-98
1.52358e-98
1.48054e-98
1.48381e-98
1.54485e-98
1.48247e-98
1.5541e-98
1.47961e-98
1.53285e-98
1.47059e-98
1.54725e-98
1.45403e-98
1.49538e-98
1.5219e-98
1.43539e-98
3.12479e-96
3.09979e-96
3.18645e-96
3.02758e-96
3.13989e-96
3.1176e-96
3.11422e-96
3.02469e-96
3.03064e-96
3.15897e-96
3.02939e-96
3.17735e-96
3.0246e-96
3.13488e-96
3.00796e-96
3.1647e-96
2.96955e-96
3.05681e-96
3.11209e-96
2.92995e-96
4.30162e-94
4.2606e-94
4.38826e-94
4.16398e-94
4.32094e-94
4.29206e-94
4.28296e-94
4.15652e-94
4.16177e-94
4.3486e-94
4.16325e-94
4.37216e-94
4.15944e-94
4.31557e-94
4.14066e-94
4.35729e-94
4.07623e-94
4.20438e-94
4.28344e-94
4.01817e-94
3.93742e-92
3.88984e-92
4.02197e-92
3.80555e-92
3.95451e-92
3.93088e-92
3.91456e-92
3.79367e-92
3.79198e-92
3.9831e-92
3.79875e-92
4.00115e-92
3.80051e-92
3.95231e-92
3.79038e-92
3.99163e-92
3.71034e-92
3.84378e-92
3.92188e-92
3.65116e-92
1.0624e-90
1.05604e-90
1.0736e-90
1.02914e-90
1.06253e-90
1.05183e-90
1.05635e-90
1.02927e-90
1.03763e-90
1.06372e-90
1.03508e-90
1.07345e-90
1.02928e-90
1.05884e-90
1.01915e-90
1.06982e-90
1.02393e-90
1.03767e-90
1.05116e-90
1.0149e-90
1.02714e-90
1.03213e-90
1.02426e-90
1.00039e-90
1.02319e-90
1.00793e-90
1.02482e-90
1.00628e-90
1.02625e-90
1.01661e-90
1.0166e-90
1.03281e-90
1.00234e-90
1.01523e-90
9.81975e-91
1.02553e-90
1.02229e-90
1.00585e-90
1.00898e-90
1.02296e-90
1.46518e-90
1.49363e-90
1.49065e-90
1.48063e-90
1.4647e-90
1.48049e-90
1.5079e-90
1.47502e-90
1.51501e-90
1.5183e-90
1.50227e-90
1.52123e-90
1.48724e-90
1.46974e-90
1.45672e-90
1.48607e-90
1.47395e-90
1.46873e-90
1.47634e-90
1.49169e-90
1.73934e-90
1.75842e-90
1.76217e-90
1.74942e-90
1.72472e-90
1.68846e-90
1.72098e-90
1.68508e-90
1.74068e-90
1.80131e-90
1.78539e-90
1.7238e-90
1.77167e-90
1.74893e-90
1.74318e-90
1.76092e-90
1.68131e-90
1.76063e-90
1.7292e-90
1.73374e-90
1.9578e-90
2.02369e-90
1.994e-90
1.98404e-90
1.98418e-90
2.01132e-90
2.07757e-90
1.98466e-90
1.99809e-90
1.98216e-90
1.98879e-90
1.98405e-90
1.98689e-90
1.96963e-90
1.93157e-90
1.97969e-90
1.99638e-90
1.9537e-90
1.94302e-90
1.95855e-90
2.10959e-90
2.1292e-90
2.16544e-90
2.18488e-90
2.15634e-90
2.19936e-90
2.15252e-90
2.18495e-90
2.17752e-90
2.07057e-90
2.10804e-90
2.0997e-90
2.12261e-90
2.07214e-90
2.07996e-90
2.08715e-90
2.09634e-90
2.12567e-90
2.10827e-90
2.14479e-90
2.16133e-90
2.18166e-90
2.21232e-90
2.20925e-90
2.17479e-90
2.18569e-90
2.19971e-90
2.23598e-90
2.16363e-90
2.19893e-90
2.1773e-90
2.18347e-90
2.22993e-90
2.18598e-90
2.15898e-90
2.26393e-90
2.17437e-90
2.15833e-90
2.18758e-90
2.23102e-90
2.13364e-90
2.09566e-90
2.13813e-90
2.09855e-90
2.13063e-90
2.141e-90
2.16302e-90
2.13426e-90
2.07333e-90
2.09748e-90
2.09249e-90
2.17138e-90
2.13071e-90
2.17289e-90
2.16457e-90
2.16562e-90
2.14592e-90
2.1315e-90
2.11047e-90
2.12367e-90
1.96127e-90
1.98942e-90
1.96584e-90
2.05388e-90
1.99598e-90
2.05182e-90
2.01337e-90
2.01567e-90
1.99568e-90
2.00052e-90
1.98837e-90
2.03594e-90
2.01074e-90
2.06547e-90
1.98626e-90
2.04287e-90
2.02872e-90
1.94931e-90
2.03825e-90
2.02384e-90
1.73372e-90
1.82108e-90
1.7849e-90
1.78618e-90
1.75324e-90
1.84729e-90
1.81941e-90
1.81273e-90
1.80468e-90
1.76094e-90
1.80627e-90
1.84496e-90
1.784e-90
1.89309e-90
1.81145e-90
1.84813e-90
1.87098e-90
1.80669e-90
1.84919e-90
1.85451e-90
1.57674e-90
1.57102e-90
1.5524e-90