/*--------------------------------*- C++ -*----------------------------------*\
| =========                 |                                                 |
| \\      /  F ield         | OpenFOAM: The Open Source CFD Toolbox           |
|  \\    /   O peration     | Version:  2212                                  |
|   \\  /    A nd           | Website:  www.openfoam.com                      |
|    \\/     M anipulation  |                                                 |
\*---------------------------------------------------------------------------*/
FoamFile
{
    version     2.0;
    format      ascii;
    arch        "LSB;label=32;scalar=64";
    class       volScalarField;
    location    "0.0002385";
    object      T;
}
// * * * * * * * * * * * * * * * * * * * * * * * * * * * * * * * * * * * * * //

dimensions      [0 0 0 1 0 0 0];

internalField   nonuniform List<scalar> 
105480
(
7.48162
7.57342
7.65588
7.72301
7.77956
7.83243
7.87995
7.92199
7.96029
7.99638
8.02942
8.05814
8.08275
8.10403
8.12268
8.13901
8.15307
8.16441
8.17318
8.18027
8.18653
8.19211
8.19664
8.19968
8.20106
8.20109
8.19941
8.19664
8.19244
8.18613
8.17815
8.16948
8.16032
8.15095
8.14124
8.1308
8.11966
8.10751
8.09389
8.07906
8.06379
8.04925
8.03594
8.0232
8.00994
7.99498
7.9774
7.95777
7.93725
7.9161
7.89433
7.87231
7.85048
7.82921
7.80852
7.78795
7.7673
7.74654
7.72532
7.70355
7.68183
7.66073
7.64006
7.61933
7.59864
7.57841
7.55886
7.54007
7.52159
7.50272
7.4841
7.4669
7.45108
7.43596
7.42122
7.40687
7.39277
7.37878
7.3647
7.35005
7.33466
7.31887
7.30306
7.28755
7.27258
7.25824
7.24456
7.23195
7.22093
7.21112
7.20143
7.19138
7.18147
7.17229
7.16396
7.15626
7.14881
7.14152
7.1345
7.1278
7.12126
7.11448
7.10704
7.09883
7.09004
7.08017
7.06829
7.05443
7.0393
7.02324
7.00621
6.98776
6.96793
6.9476
6.92723
6.90698
6.88753
6.86949
6.85299
6.83827
6.82549
6.81422
6.80432
6.79609
6.78995
6.78582
6.7831
6.78153
6.78128
6.78273
6.78704
6.79458
6.80771
6.83024
6.87042
6.9416
7.06372
7.2696
7.62274
8.23172
9.21406
10.6666
12.6695
15.3724
7.395
7.55931
7.64946
7.71762
7.77341
7.82628
7.87402
7.91632
7.95483
7.99101
8.02395
8.05249
8.07678
8.09783
8.1163
8.13248
8.14642
8.15764
8.16635
8.17341
8.17961
8.18512
8.18956
8.19251
8.19404
8.1944
8.19252
8.18973
8.18537
8.17901
8.17101
8.16228
8.15321
8.14391
8.13426
8.12386
8.11269
8.10049
8.08688
8.07206
8.05682
8.04235
8.02913
8.01642
8.00315
7.98812
7.97053
7.95094
7.93048
7.90939
7.8877
7.86576
7.84401
7.82283
7.80222
7.78173
7.76116
7.74048
7.71936
7.69773
7.67617
7.65523
7.6347
7.61412
7.59358
7.5735
7.55409
7.53544
7.51707
7.49832
7.47984
7.46277
7.44705
7.43202
7.41737
7.4031
7.38907
7.37515
7.36113
7.34656
7.33128
7.31562
7.29996
7.28462
7.26983
7.25567
7.24226
7.23007
7.21946
7.21
7.20062
7.19082
7.1811
7.17204
7.16378
7.15609
7.14865
7.14135
7.13433
7.12762
7.12103
7.11416
7.1066
7.09823
7.08924
7.0791
7.06687
7.05262
7.0371
7.0207
7.00339
6.98479
6.96501
6.94491
6.92492
6.90517
6.88628
6.86878
6.85275
6.83837
6.82571
6.8145
6.80461
6.79637
6.79022
6.78604
6.78328
6.78164
6.78132
6.78273
6.78684
6.79403
6.80651
6.82796
6.86627
6.93422
7.04964
7.24454
7.57708
8.14857
9.06383
10.4044
12.1878
14.3024
7.28022
7.52014
7.62712
7.69719
7.75218
7.80604
7.85476
7.89794
7.93722
7.97405
8.00747
8.03634
8.06095
8.08221
8.10093
8.11744
8.13159
8.14297
8.15191
8.15921
8.16561
8.17122
8.1757
8.1788
8.18065
8.18132
8.17966
8.17684
8.17231
8.16581
8.15778
8.14915
8.14027
8.13108
8.1215
8.11117
8.10006
8.08795
8.07444
8.05969
8.04455
8.03021
8.01712
8.00452
7.99129
7.9763
7.95881
7.93937
7.91906
7.89815
7.87664
7.85489
7.83333
7.81232
7.79188
7.77155
7.75115
7.73064
7.70971
7.68831
7.667
7.64629
7.62599
7.60563
7.58531
7.56545
7.54624
7.52777
7.50957
7.491
7.47272
7.45583
7.44027
7.42539
7.41087
7.39673
7.38283
7.36904
7.35515
7.34073
7.32563
7.3102
7.29478
7.27969
7.26516
7.25128
7.23817
7.22624
7.21586
7.20659
7.19739
7.1878
7.17829
7.16942
7.16131
7.15375
7.14641
7.13921
7.13223
7.12553
7.11889
7.11192
7.1042
7.09561
7.08633
7.07588
7.06333
7.04877
7.03296
7.01632
6.99882
6.98011
6.9603
6.94024
6.92035
6.90077
6.88211
6.86484
6.84906
6.83499
6.82277
6.81206
6.80269
6.79493
6.78919
6.78534
6.7828
6.78136
6.78123
6.78271
6.78642
6.79321
6.80481
6.82459
6.85995
6.92267
7.02768
7.20547
7.50749
8.02403
8.83952
9.99423
11.4405
13.0233
7.1694
7.47377
7.59611
7.66476
7.71841
7.77315
7.82327
7.86805
7.90883
7.94693
7.98134
8.01109
8.03643
8.05826
8.0775
8.09446
8.10902
8.12083
8.13019
8.13792
8.14473
8.1507
8.15545
8.15902
8.16128
8.16224
8.16135
8.15869
8.15387
8.14729
8.13933
8.13088
8.12211
8.11301
8.10351
8.09327
8.08226
8.07027
8.05692
8.04236
8.02735
8.01318
8.00023
7.98779
7.97473
7.95992
7.94264
7.92344
7.90339
7.88273
7.86147
7.83998
7.81865
7.79787
7.77765
7.75755
7.73738
7.71711
7.69644
7.67533
7.65431
7.63388
7.61383
7.59373
7.57367
7.55406
7.5351
7.51684
7.49886
7.48052
7.46247
7.4458
7.43044
7.41573
7.40138
7.38741
7.37368
7.36006
7.34635
7.33214
7.31731
7.30217
7.28705
7.27226
7.25803
7.24447
7.23168
7.22004
7.20989
7.20082
7.19183
7.18249
7.17326
7.16465
7.15677
7.14942
7.14228
7.13525
7.1284
7.12178
7.11516
7.10817
7.10039
7.0917
7.08227
7.07162
7.05882
7.04399
7.02791
7.01102
6.99332
6.97447
6.95458
6.93452
6.91468
6.89521
6.87669
6.85959
6.84399
6.83012
6.81815
6.80783
6.79896
6.79172
6.78644
6.78299
6.78087
6.77992
6.7803
6.78216
6.78563
6.79197
6.80264
6.82055
6.85244
6.90933
7.00324
7.15961
7.42292
7.86697
8.55431
9.50055
10.6375
11.8464
7.07741
7.42606
7.55439
7.62356
7.67701
7.7327
7.78411
7.83034
7.87262
7.91224
7.94807
7.97903
8.00546
8.02825
8.04825
8.06592
8.08112
8.0935
8.10338
8.11159
8.11887
8.1253
8.13047
8.13453
8.13721
8.13854
8.13882
8.13589
8.13078
8.1241
8.11625
8.10805
8.09932
8.09029
8.08088
8.07071
8.05982
8.04795
8.03473
8.02036
8.00558
7.99156
7.97876
7.96648
7.95358
7.93897
7.92191
7.90297
7.88319
7.86282
7.84187
7.82069
7.79967
7.77919
7.75924
7.73941
7.71952
7.69952
7.67916
7.65835
7.63765
7.61751
7.59775
7.57793
7.55817
7.53884
7.52013
7.50213
7.4844
7.46632
7.44856
7.43214
7.41698
7.40247
7.38833
7.37456
7.36104
7.34762
7.33412
7.32019
7.30566
7.29084
7.27607
7.26161
7.24773
7.23452
7.2221
7.2108
7.20094
7.19213
7.18342
7.17442
7.16555
7.15727
7.14971
7.14265
7.1358
7.12904
7.12244
7.11598
7.10949
7.10258
7.09484
7.08614
7.07664
7.06585
7.05288
7.03785
7.02156
7.00445
6.98657
6.96757
6.9476
6.92749
6.90766
6.88824
6.8698
6.85278
6.83729
6.82354
6.81172
6.80163
6.79317
6.78642
6.78164
6.77858
6.77679
6.77668
6.77778
6.77994
6.78345
6.7897
6.79976
6.8159
6.84419
6.89509
6.97738
7.1108
7.33379
7.70094
8.26407
9.01839
9.90484
10.8492
7.009
7.37626
7.50611
7.57888
7.63253
7.68883
7.7411
7.78848
7.83201
7.87291
7.90993
7.942
7.96941
7.99321
8.01409
8.03254
8.04846
8.06147
8.0719
8.08061
8.08836
8.09526
8.10089
8.10543
8.10859
8.11049
8.11138
8.10847
8.10313
8.0964
8.08857
8.08068
8.07199
8.06304
8.05372
8.04366
8.03289
8.02116
8.00811
7.99393
7.97939
7.9656
7.95302
7.94089
7.92817
7.91378
7.89694
7.87828
7.8588
7.83874
7.81811
7.79724
7.77652
7.75634
7.73668
7.71713
7.69754
7.67785
7.65781
7.63734
7.61697
7.59715
7.5777
7.55819
7.53873
7.51971
7.50129
7.48357
7.46611
7.44833
7.43087
7.4147
7.39977
7.38548
7.37156
7.35801
7.34471
7.33153
7.31829
7.30465
7.29045
7.27598
7.26155
7.24746
7.23394
7.22113
7.20911
7.19819
7.18865
7.18013
7.17175
7.16314
7.15468
7.1468
7.13961
7.13293
7.12645
7.12005
7.11377
7.10759
7.10132
7.09459
7.087
7.07839
7.06892
7.05813
7.04511
7.02999
7.01359
6.99636
6.97836
6.95927
6.93924
6.91911
6.89927
6.87987
6.86147
6.84448
6.82901
6.81529
6.80353
6.79354
6.78531
6.77898
6.7746
6.77193
6.77064
6.77121
6.77294
6.77531
6.779
6.78523
6.79476
6.81014
6.83517
6.88004
6.95112
7.06536
7.2503
7.55139
8.00024
8.59372
9.28632
10.028
6.9527
7.32764
7.45991
7.53572
7.58879
7.64516
7.6977
7.74562
7.7899
7.83162
7.86947
7.90233
7.93055
7.9551
7.97678
7.99595
8.01252
8.02611
8.03704
8.04622
8.05442
8.06175
8.06779
8.07279
8.07646
8.07883
8.08009
8.07729
8.07172
8.06501
8.05741
8.04964
8.04105
8.03221
8.02301
8.01309
8.00247
7.9909
7.97804
7.96409
7.94979
7.93624
7.92387
7.91197
7.89949
7.88533
7.86872
7.85034
7.83116
7.8114
7.79109
7.77053
7.75012
7.73023
7.71085
7.69159
7.67227
7.65288
7.63314
7.613
7.59296
7.57347
7.55433
7.53514
7.516
7.49727
7.47916
7.46171
7.44453
7.42705
7.40988
7.39397
7.37927
7.3652
7.35151
7.3382
7.32514
7.31221
7.29925
7.28588
7.27199
7.25784
7.24377
7.23004
7.21691
7.20451
7.19288
7.18232
7.17311
7.16489
7.15687
7.14868
7.14064
7.13318
7.12639
7.12012
7.11406
7.10807
7.10217
7.09633
7.09036
7.0839
7.07654
7.06814
7.05882
7.04813
7.0352
7.02014
7.00375
6.98651
6.96849
6.9494
6.92939
6.90927
6.88946
6.87009
6.85171
6.83473
6.81924
6.80551
6.79373
6.78377
6.77561
6.76949
6.76541
6.76289
6.7627
6.76367
6.76596
6.76856
6.77249
6.77871
6.78785
6.80181
6.82541
6.86469
6.92628
7.02349
7.17707
7.4226
7.7794
8.23999
8.77913
9.36315
6.89857
7.28592
7.4201
7.49591
7.54767
7.60348
7.65572
7.70366
7.74815
7.79021
7.82845
7.86176
7.89049
7.91559
7.93787
7.9576
7.9747
7.98877
8.00014
8.00972
8.01832
8.02603
8.03242
8.03784
8.04204
8.04474
8.04617
8.0433
8.03776
8.03109
8.0238
8.01616
8.00769
7.99899
7.98995
7.9802
7.96975
7.95837
7.94573
7.93202
7.91798
7.90467
7.8925
7.8808
7.86854
7.85468
7.83841
7.82026
7.80141
7.78186
7.76186
7.74161
7.72149
7.70188
7.68278
7.66379
7.64475
7.62563
7.60617
7.58633
7.5666
7.54741
7.52856
7.50967
7.49082
7.47239
7.45455
7.43738
7.42045
7.40325
7.38635
7.37068
7.3562
7.34234
7.32887
7.31577
7.30294
7.29025
7.27753
7.26442
7.25081
7.23698
7.22325
7.20988
7.19713
7.18508
7.17381
7.16359
7.15468
7.14677
7.1391
7.13129
7.12366
7.11659
7.11022
7.10437
7.09873
7.09315
7.08765
7.08218
7.07656
7.07042
7.06336
7.05523
7.04614
7.03566
7.02293
7.00804
6.99179
6.97466
6.95672
6.93771
6.91779
6.89775
6.878
6.85869
6.84034
6.82336
6.80786
6.7941
6.78228
6.77229
6.76413
6.75807
6.75417
6.752
6.75259
6.75425
6.75655
6.75944
6.76399
6.77065
6.77951
6.79234
6.81472
6.84924
6.90293
6.98405
7.11216
7.31343
7.59338
7.95192
8.36623
8.82437
6.85065
7.2488
7.38398
7.45866
7.50879
7.5636
7.61513
7.66272
7.70703
7.749
7.78724
7.82067
7.84961
7.87503
7.89785
7.918
7.9355
7.94995
7.96167
7.97159
7.98053
7.98858
7.99527
8.00105
8.00578
8.00885
8.00993
8.00729
8.00189
7.99526
7.98837
7.98086
7.97254
7.96403
7.95518
7.94563
7.93538
7.92421
7.91181
7.89837
7.88459
7.87152
7.85956
7.84804
7.83598
7.82236
7.80644
7.78869
7.77009
7.75075
7.73101
7.71106
7.69121
7.67188
7.65304
7.63431
7.61553
7.59668
7.5775
7.55794
7.5385
7.51959
7.50101
7.48239
7.46381
7.44565
7.42807
7.41113
7.39444
7.37748
7.36082
7.34537
7.33108
7.31742
7.30413
7.29123
7.27859
7.2661
7.25359
7.24071
7.22735
7.2138
7.20036
7.18732
7.17489
7.16316
7.1522
7.1423
7.13371
7.1261
7.11871
7.11122
7.10394
7.09724
7.09126
7.08579
7.08054
7.07535
7.07025
7.06517
7.0599
7.05409
7.04737
7.03955
7.03075
7.02054
7.00809
6.99348
6.97746
6.96052
6.94275
6.92389
6.9041
6.88418
6.86452
6.84529
6.82699
6.81003
6.79453
6.78075
6.7689
6.75885
6.75065
6.74456
6.74058
6.73928
6.7402
6.74251
6.74502
6.74822
6.75296
6.76012
6.76953
6.78244
6.80249
6.83322
6.88002
6.94774
7.05261
7.21441
7.43673
7.71349
8.03175
8.38401
6.80805
7.21425
7.34968
7.42288
7.47123
7.52481
7.57544
7.62239
7.66619
7.70775
7.74572
7.77903
7.80808
7.83392
7.85694
7.87736
7.89516
7.90989
7.9219
7.93213
7.94137
7.9497
7.95671
7.96286
7.96814
7.97128
7.97242
7.96949
7.96428
7.95801
7.95168
7.94421
7.93611
7.92783
7.91921
7.90988
7.89987
7.88894
7.87679
7.86361
7.8501
7.83728
7.82552
7.81419
7.80231
7.78891
7.77328
7.75587
7.73761
7.71866
7.69905
7.67939
7.65978
7.6407
7.62212
7.60365
7.58513
7.56654
7.54763
7.52835
7.50918
7.49054
7.47222
7.45385
7.43553
7.4176
7.40025
7.38353
7.36706
7.35031
7.33385
7.31859
7.30446
7.29096
7.27784
7.26509
7.25262
7.2403
7.22795
7.21526
7.2021
7.18878
7.17559
7.1628
7.15064
7.13917
7.12848
7.11885
7.11052
7.10315
7.09601
7.0888
7.08185
7.0755
7.06984
7.06467
7.05973
7.05491
7.05019
7.04548
7.04054
7.03506
7.02865
7.02116
7.01267
7.00276
6.99065
6.97637
6.96066
6.94397
6.92641
6.90774
6.88811
6.86832
6.84876
6.82961
6.81135
6.79441
6.77894
6.76516
6.75327
6.74317
6.73492
6.72874
6.72457
6.72418
6.72543
6.72811
6.73105
6.73456
6.73975
6.74729
6.75702
6.76997
6.78973
6.81643
6.85546
6.91401
7.00008
7.1292
7.30146
7.51417
7.75614
8.02404
6.76884
7.18078
7.31591
7.38747
7.43401
7.48632
7.53591
7.58201
7.62509
7.66606
7.70362
7.73686
7.76615
7.79207
7.8151
7.83572
7.85375
7.86874
7.88102
7.8915
7.901
7.90962
7.91701
7.92354
7.92912
7.93235
7.93355
7.93073
7.92575
7.9198
7.91395
7.90662
7.89881
7.8908
7.88243
7.87336
7.8636
7.85292
7.84104
7.82815
7.81492
7.80234
7.79079
7.77964
7.76796
7.75476
7.7394
7.72228
7.70434
7.68577
7.66657
7.647
7.62771
7.60882
7.5905
7.5723
7.55404
7.53571
7.51707
7.49807
7.47918
7.4608
7.44274
7.42461
7.40653
7.38884
7.3717
7.35519
7.3389
7.32234
7.30607
7.29096
7.27698
7.26361
7.25062
7.238
7.22566
7.21346
7.20125
7.1887
7.17571
7.16256
7.14956
7.13697
7.125
7.11373
7.10325
7.09383
7.08569
7.07851
7.07156
7.06458
7.05789
7.05182
7.04641
7.04143
7.03676
7.03234
7.02803
7.02363
7.01898
7.01377
7.00766
7.00047
6.99227
6.98268
6.97089
6.95697
6.94157
6.92516
6.90782
6.88933
6.86985
6.85016
6.83067
6.81157
6.79334
6.77642
6.76099
6.74722
6.73527
6.72514
6.71681
6.71053
6.7062
6.70656
6.70832
6.71098
6.7141
6.71812
6.72418
6.73231
6.74232
6.7559
6.77485
6.7985
6.83162
6.88114
6.95279
7.05707
7.19255
7.35411
7.53654
7.74099
6.73113
7.14705
7.28156
7.35139
7.3962
7.44719
7.4956
7.54071
7.58298
7.62341
7.66078
7.69394
7.72315
7.74892
7.77199
7.79274
7.81101
7.82626
7.83876
7.84946
7.85924
7.86821
7.87612
7.88309
7.88882
7.89218
7.89339
7.89066
7.8861
7.88079
7.87516
7.86812
7.86064
7.85294
7.84486
7.83608
7.82659
7.8162
7.80461
7.79201
7.77907
7.76676
7.75542
7.74446
7.73297
7.72
7.7049
7.68808
7.67043
7.6522
7.63338
7.61423
7.59506
7.5765
7.55837
7.54044
7.52246
7.50441
7.48606
7.46735
7.44876
7.43066
7.41285
7.39499
7.37715
7.35969
7.34277
7.32645
7.31035
7.29397
7.27786
7.2629
7.24905
7.23579
7.22291
7.21041
7.19817
7.18607
7.17397
7.16153
7.14866
7.13564
7.12278
7.11033
7.09851
7.08738
7.07704
7.06777
7.05977
7.0527
7.04589
7.03908
7.03259
7.02671
7.02143
7.01662
7.01223
7.00811
7.00412
7.0001
6.99575
6.99076
6.98491
6.97799
6.97006
6.96074
6.94927
6.93566
6.92056
6.90438
6.88723
6.86889
6.84951
6.82988
6.8104
6.79131
6.77311
6.75623
6.74079
6.72697
6.71495
6.7048
6.69637
6.68999
6.68559
6.6863
6.6885
6.6914
6.69487
6.69912
6.7055
6.71485
6.72576
6.7393
6.75801
6.77936
6.80725
6.84645
6.90603
6.99195
7.10296
7.23099
7.36883
7.52099
6.69329
7.11235
7.24645
7.31434
7.3574
7.40697
7.45413
7.49829
7.53994
7.57998
7.61701
7.64992
7.67881
7.70439
7.72754
7.74849
7.76698
7.78243
7.79517
7.80615
7.81627
7.8257
7.83433
7.84207
7.84743
7.85076
7.85209
7.84955
7.84553
7.84092
7.83558
7.82891
7.82181
7.81444
7.80668
7.79821
7.78902
7.77892
7.76764
7.75535
7.74272
7.73068
7.71957
7.70882
7.69753
7.68479
7.66996
7.65344
7.6361
7.6182
7.59973
7.58098
7.56226
7.54384
7.52604
7.50832
7.49065
7.47292
7.45488
7.43649
7.41821
7.40041
7.38289
7.36529
7.34772
7.3305
7.3138
7.29768
7.28177
7.26556
7.24962
7.23481
7.22107
7.20792
7.19514
7.18273
7.17058
7.15857
7.14654
7.13419
7.12141
7.10849
7.09573
7.08339
7.07166
7.06062
7.05037
7.04118
7.03327
7.02628
7.01956
7.01285
7.00648
7.00072
6.99553
6.99088
6.98668
6.98278
6.97904
6.97528
6.97131
6.96651
6.96088
6.95421
6.94653
6.93747
6.92627
6.91294
6.89808
6.8821
6.86508
6.84682
6.82747
6.80782
6.78829
6.76912
6.75088
6.73396
6.71848
6.70464
6.69263
6.68235
6.67376
6.66727
6.66274
6.66363
6.66611
6.66928
6.67303
6.67775
6.68442
6.69446
6.70648
6.72041
6.73928
6.75899
6.78253
6.8134
6.85862
6.92606
7.01996
7.1293
7.23779
7.35487
6.65638
7.07767
7.21116
7.27718
7.31866
7.3669
7.41298
7.45639
7.49751
7.53707
7.57358
7.60608
7.63456
7.66015
7.68344
7.70455
7.72322
7.73894
7.75197
7.7633
7.77384
7.78379
7.79309
7.80162
7.80655
7.81023
7.81119
7.80905
7.80563
7.80172
7.79671
7.79044
7.78372
7.7767
7.76925
7.76109
7.7522
7.7424
7.73143
7.71946
7.70714
7.69537
7.68449
7.67393
7.66284
7.65033
7.63577
7.61956
7.60253
7.58494
7.56682
7.54843
7.53012
7.51218
7.4945
7.47714
7.45971
7.4423
7.4246
7.40655
7.3886
7.37111
7.35388
7.33657
7.31926
7.30229
7.28582
7.2699
7.25418
7.23815
7.22237
7.2077
7.19407
7.18102
7.16833
7.156
7.14393
7.13199
7.12002
7.10773
7.09503
7.08217
7.06948
7.05719
7.04552
7.03453
7.02432
7.01518
7.00729
7.00034
6.99365
6.98699
6.98068
6.975
6.96988
6.96532
6.96124
6.95749
6.95393
6.95036
6.94666
6.94206
6.93665
6.93019
6.92274
6.9139
6.90295
6.88987
6.87521
6.85936
6.84241
6.82416
6.80476
6.78499
6.76531
6.74599
6.72759
6.71054
6.69494
6.68101
6.66893
6.65856
6.64991
6.64324
6.63843
6.63934
6.64193
6.64531
6.64934
6.65434
6.66158
6.67194
6.68484
6.69953
6.71895
6.73777
6.75811
6.7826
6.81689
6.86803
6.93899
7.02669
7.12469
7.2223
6.62184
7.04452
7.17706
7.24159
7.28178
7.32893
7.37416
7.41692
7.45746
7.49638
7.53226
7.56422
7.59269
7.61836
7.64173
7.66297
7.68189
7.69792
7.7113
7.723
7.73397
7.74446
7.75441
7.76364
7.76846
7.77151
7.77292
7.771
7.76817
7.7649
7.7602
7.75432
7.74796
7.74125
7.7341
7.72622
7.71761
7.70808
7.69739
7.68572
7.67368
7.66216
7.65149
7.64111
7.6302
7.61789
7.60358
7.58765
7.57092
7.55363
7.53582
7.51778
7.49982
7.48227
7.46507
7.44776
7.43067
7.41356
7.39619
7.37848
7.36087
7.34369
7.32675
7.30971
7.29267
7.27594
7.2597
7.24398
7.22844
7.21258
7.19697
7.18242
7.1689
7.15594
7.14333
7.13107
7.11905
7.10716
7.09525
7.083
7.07034
7.05753
7.04487
7.03262
7.02096
7.00998
6.99979
6.99064
6.98275
6.97578
6.96909
6.96244
6.95614
6.95048
6.94544
6.9409
6.93688
6.9332
6.92975
6.92632
6.92278
6.9184
6.91314
6.90687
6.89962
6.89099
6.88026
6.86738
6.85288
6.83713
6.82021
6.8019
6.78238
6.76241
6.7425
6.72292
6.70427
6.68698
6.67116
6.65705
6.6448
6.63429
6.62551
6.6187
6.61366
6.61438
6.61687
6.62041
6.62471
6.62982
6.63765
6.64821
6.66128
6.67719
6.69738
6.71601
6.73429
6.75418
6.78015
6.81822
6.87104
6.9373
7.01205
7.09365
6.59025
7.01352
7.14511
7.20854
7.24779
7.29403
7.3385
7.38061
7.42048
7.45852
7.4939
7.52574
7.5542
7.57989
7.60333
7.62475
7.64396
7.66031
7.67403
7.6861
7.6975
7.70851
7.7192
7.72859
7.73352
7.73617
7.73723
7.73607
7.73371
7.73099
7.72653
7.72101
7.71496
7.70853
7.70162
7.69399
7.68561
7.67631
7.66586
7.65444
7.64265
7.63133
7.62083
7.6106
7.59983
7.58768
7.57358
7.55789
7.54142
7.5244
7.50688
7.48914
7.47149
7.45426
7.43743
7.42055
7.4035
7.38669
7.36966
7.35227
7.33498
7.31811
7.30145
7.28468
7.26789
7.2514
7.23536
7.21983
7.20446
7.18877
7.1733
7.15887
7.14544
7.13256
7.12001
7.10781
7.09584
7.084
7.07211
7.05989
7.04725
7.03446
7.02181
7.00955
6.99788
6.98688
6.97666
6.96748
6.95955
6.95254
6.9458
6.93911
6.93278
6.92712
6.92212
6.91757
6.91353
6.90988
6.90649
6.90314
6.89971
6.89547
6.89035
6.88425
6.87716
6.86871
6.85817
6.84546
6.83109
6.8154
6.79846
6.78006
6.76035
6.74013
6.7199
6.69997
6.68097
6.66335
6.64721
6.63281
6.6203
6.60955
6.60055
6.59353
6.58822
6.58867
6.59093
6.59457
6.59895
6.60467
6.61226
6.62275
6.63605
6.65302
6.67412
6.69317
6.71042
6.72712
6.74677
6.77443
6.81243
6.86057
6.91585
6.97734
6.56111
6.98434
7.11509
7.17778
7.2163
7.26171
7.30548
7.34688
7.38577
7.42336
7.4585
7.4902
7.5186
7.54429
7.56784
7.58947
7.60895
7.62563
7.6397
7.65215
7.66398
7.67556
7.68706
7.69587
7.7009
7.70345
7.7043
7.70333
7.70162
7.69942
7.69512
7.68993
7.68414
7.67793
7.67123
7.6638
7.65561
7.6465
7.63625
7.62503
7.61343
7.60229
7.59191
7.5818
7.57114
7.55913
7.5452
7.5297
7.51343
7.49664
7.47935
7.46188
7.44451
7.42755
7.41102
7.39453
7.37768
7.36113
7.34438
7.32731
7.31033
7.29375
7.27736
7.26085
7.24431
7.22804
7.21221
7.19686
7.18165
7.16611
7.15078
7.13646
7.12312
7.1103
7.09781
7.08566
7.07372
7.0619
7.05003
7.03782
7.02518
7.01239
6.99972
6.98744
6.97574
6.96469
6.9544
6.94516
6.93716
6.93008
6.92326
6.9165
6.9101
6.90439
6.89938
6.89486
6.89074
6.88705
6.88366
6.88036
6.87699
6.87282
6.86784
6.86187
6.85493
6.84664
6.83626
6.82371
6.80945
6.79379
6.7768
6.75825
6.7383
6.71775
6.69713
6.67678
6.65734
6.63928
6.62272
6.60792
6.59504
6.58394
6.5746
6.56728
6.56173
6.56146
6.56346
6.56732
6.5721
6.57763
6.58471
6.59517
6.60886
6.6266
6.64805
6.66835
6.68558
6.70021
6.71514
6.73454
6.76044
6.79336
6.83204
6.87647
6.53399
6.9569
7.08694
7.14916
7.18707
7.23174
7.27479
7.3152
7.35368
7.39096
7.42583
7.45738
7.48573
7.51147
7.53517
7.55702
7.57678
7.59379
7.6082
7.62102
7.63327
7.64535
7.65697
7.66591
7.67057
7.67296
7.67377
7.67313
7.67162
7.66991
7.66579
7.66087
7.65529
7.64926
7.64272
7.63544
7.6274
7.61844
7.60835
7.59729
7.58584
7.57483
7.56456
7.55452
7.54394
7.53201
7.51819
7.50283
7.48672
7.4701
7.45302
7.43577
7.41864
7.40194
7.38568
7.36947
7.35303
7.33655
7.32009
7.30335
7.28667
7.27037
7.25424
7.23798
7.22168
7.20563
7.19
7.17483
7.15977
7.14438
7.12917
7.11495
7.10169
7.08894
7.0765
7.06438
7.05247
7.04066
7.02879
7.01658
7.00394
6.99112
6.97843
6.9661
6.95433
6.94321
6.93284
6.92351
6.91541
6.90823
6.90133
6.89446
6.88796
6.88216
6.87709
6.8726
6.86838
6.86462
6.86119
6.85788
6.85452
6.85041
6.84553
6.83969
6.83289
6.82474
6.81452
6.8021
6.78792
6.77228
6.75521
6.73649
6.71626
6.69533
6.67426
6.65339
6.63342
6.61483
6.59775
6.58243
6.56908
6.55753
6.54774
6.54
6.53422
6.53277
6.53446
6.53862
6.54315
6.54852
6.55554
6.56584
6.57977
6.59809
6.61809
6.641
6.65903
6.67278
6.68431
6.69744
6.714
6.73466
6.75992
6.7911
6.51003
6.9326
7.06201
7.12377
7.16108
7.20499
7.24712
7.28719
7.3254
7.3624
7.39705
7.42849
7.45682
7.48266
7.50652
7.5286
7.54864
7.56596
7.5807
7.59387
7.60654
7.61924
7.63066
7.63916
7.64342
7.6456
7.64646
7.64622
7.64502
7.64337
7.63951
7.6348
7.62937
7.62346
7.61703
7.60986
7.60192
7.59306
7.58307
7.57212
7.56077
7.54983
7.5396
7.52959
7.51902
7.50712
7.49335
7.47806
7.46204
7.44554
7.42861
7.41152
7.39459
7.3781
7.36205
7.3461
7.33005
7.31353
7.29742
7.28097
7.26456
7.24851
7.23263
7.21661
7.20052
7.18467
7.16922
7.15421
7.1393
7.12403
7.10895
7.09482
7.08162
7.06892
7.05652
7.04443
7.03254
7.02073
7.00886
6.99663
6.98396
6.97111
6.95836
6.94597
6.93413
6.92292
6.91244
6.903
6.89479
6.8875
6.88047
6.87348
6.86685
6.86093
6.85577
6.85122
6.84702
6.84312
6.8396
6.83627
6.83285
6.82879
6.824
6.81828
6.8116
6.80358
6.7935
6.78122
6.76711
6.75147
6.73431
6.7154
6.69487
6.67353
6.65195
6.63052
6.60996
6.59075
6.57305
6.55714
6.54321
6.5311
6.52076
6.51249
6.50641
6.50353
6.50491
6.50868
6.51307
6.51838
6.52517
6.53518
6.54896
6.56674
6.58691
6.61141
6.63076
6.64474
6.654
6.66288
6.67272
6.6847
6.70041
6.72176
6.48988
6.91196
7.04076
7.10201
7.13863
7.18176
7.22365
7.26349
7.30147
7.33825
7.37276
7.40415
7.43252
7.45846
7.4825
7.50482
7.52514
7.54274
7.55776
7.57121
7.5843
7.5977
7.60816
7.61616
7.62017
7.62231
7.62308
7.62314
7.6222
7.62053
7.61689
7.61228
7.60695
7.60111
7.59474
7.58764
7.57975
7.57094
7.561
7.55009
7.53877
7.52784
7.5176
7.50756
7.49697
7.48503
7.47124
7.45595
7.43996
7.4235
7.40664
7.38967
7.37287
7.35653
7.34065
7.32489
7.30908
7.29273
7.27685
7.26062
7.24444
7.22862
7.21295
7.19713
7.18123
7.16556
7.15026
7.13539
7.1206
7.10545
7.09047
7.07642
7.06328
7.05062
7.03824
7.02617
7.01429
7.00247
6.99058
6.97832
6.96562
6.95272
6.93991
6.92745
6.91551
6.90419
6.8936
6.88403
6.8757
6.86828
6.86112
6.85398
6.84722
6.84115
6.83588
6.83123
6.827
6.82305
6.81941
6.81601
6.8125
6.80849
6.80378
6.79817
6.79161
6.78372
6.77378
6.76162
6.74759
6.73194
6.7147
6.69561
6.67477
6.65301
6.63092
6.60891
6.58771
6.56785
6.54948
6.5329
6.51833
6.50559
6.49463
6.48574
6.47924
6.47492
6.47576
6.47883
6.48301
6.48823
6.49481
6.50458
6.51756
6.53391
6.5546
6.58028
6.60114
6.61603
6.62435
6.63047
6.63635
6.64341
6.65285
6.66674
6.47291
6.89466
7.02286
7.08308
7.11928
7.1623
7.20402
7.24368
7.28149
7.31813
7.35257
7.38396
7.4124
7.43846
7.46267
7.48521
7.5058
7.52368
7.53891
7.55254
7.56582
7.57951
7.58971
7.59661
7.60073
7.60263
7.60338
7.60355
7.60286
7.60111
7.59758
7.59303
7.58774
7.58195
7.5756
7.56851
7.56063
7.55182
7.54187
7.53094
7.51961
7.50863
7.49834
7.48823
7.47755
7.46553
7.45166
7.4363
7.42026
7.40379
7.38694
7.37002
7.3533
7.33706
7.3213
7.30567
7.28999
7.27389
7.25814
7.2421
7.22612
7.21049
7.195
7.17934
7.1636
7.14808
7.13292
7.11816
7.10348
7.08843
7.07353
7.05954
7.04644
7.03381
7.02145
7.00938
6.9975
6.98567
6.97374
6.96145
6.9487
6.93575
6.92287
6.91031
6.89827
6.88684
6.87612
6.86641
6.85794
6.85038
6.84308
6.83579
6.82887
6.82266
6.81724
6.81248
6.80816
6.80417
6.80046
6.79693
6.79336
6.78939
6.78475
6.77923
6.77279
6.76504
6.75523
6.74319
6.72924
6.71361
6.69629
6.67702
6.65589
6.63372
6.61112
6.58852
6.56667
6.54612
6.52704
6.50975
6.49448
6.48106
6.4694
6.45981
6.45269
6.44754
6.44699
6.44917
6.4532
6.45846
6.46505
6.47346
6.48491
6.50048
6.52176
6.54744
6.56994
6.58643
6.59528
6.59967
6.60337
6.60715
6.6127
6.62164
6.45845
6.8796
7.00735
7.06706
7.10323
7.14613
7.18772
7.22727
7.26498
7.30155
7.33597
7.3674
7.39593
7.42211
7.44648
7.46922
7.49005
7.50817
7.52357
7.53731
7.55067
7.56422
7.57457
7.58078
7.58404
7.58597
7.58688
7.58702
7.58655
7.58464
7.58116
7.57662
7.57134
7.56554
7.55918
7.55206
7.54416
7.5353
7.5253
7.51432
7.50291
7.49185
7.48146
7.47124
7.46044
7.44827
7.43426
7.41877
7.40262
7.38606
7.36917
7.35224
7.33554
7.31935
7.30366
7.28811
7.27254
7.2566
7.24096
7.22507
7.20924
7.19377
7.17842
7.16291
7.1473
7.1319
7.11685
7.10219
7.08758
7.07261
7.05778
7.04384
7.03076
7.01814
7.00579
6.99372
6.98182
6.96996
6.958
6.94566
6.93285
6.91983
6.90687
6.89421
6.88205
6.87049
6.85962
6.84977
6.84115
6.83344
6.82597
6.81852
6.81142
6.80504
6.79947
6.79457
6.79013
6.78606
6.78228
6.77868
6.77505
6.77108
6.7665
6.76107
6.75475
6.74713
6.73746
6.72555
6.71169
6.69608
6.67871
6.65929
6.63789
6.61532
6.5922
6.56899
6.54648
6.52521
6.50538
6.48731
6.47128
6.45711
6.44469
6.43433
6.42648
6.4209
6.41817
6.41951
6.42348
6.42811
6.43401
6.44165
6.45228
6.46704
6.487
6.51186
6.53631
6.55486
6.56583
6.56926
6.57241
6.57495
6.5778
6.58231
6.44562
6.86608
6.99368
7.05352
7.08969
7.13257
7.1741
7.21358
7.25125
7.28779
7.32222
7.35371
7.38234
7.40866
7.43319
7.45611
7.47715
7.49545
7.51101
7.52483
7.53827
7.55156
7.56155
7.5675
7.57039
7.57182
7.57258
7.57296
7.57267
7.57058
7.56708
7.56252
7.55722
7.55138
7.54498
7.53782
7.52986
7.52093
7.51083
7.49975
7.48823
7.47705
7.46652
7.45615
7.44517
7.43283
7.41862
7.40294
7.38661
7.36992
7.35292
7.33593
7.3192
7.30301
7.28734
7.27184
7.25634
7.24048
7.22493
7.20917
7.19347
7.17812
7.16288
7.14748
7.13198
7.11667
7.10171
7.08712
7.07258
7.05767
7.04289
7.02898
7.01592
7.0033
6.99095
6.97886
6.96694
6.95504
6.94303
6.93063
6.91776
6.90465
6.89159
6.87881
6.86653
6.85482
6.8438
6.83378
6.82499
6.81712
6.80949
6.80185
6.79457
6.78801
6.78226
6.7772
6.77262
6.76844
6.76457
6.76091
6.75724
6.75328
6.74875
6.74342
6.73721
6.72973
6.72021
6.70844
6.69469
6.67913
6.66173
6.64218
6.62053
6.59757
6.57396
6.55015
6.52695
6.50494
6.4843
6.46541
6.44857
6.43358
6.42033
6.40911
6.40044
6.39424
6.3897
6.39004
6.39284
6.39693
6.40237
6.40924
6.41899
6.43272
6.45052
6.47367
6.49975
6.52042
6.53421
6.53875
6.54192
6.54388
6.54532
6.54755
6.43441
6.85421
6.98182
7.04186
7.07808
7.12094
7.16249
7.20199
7.23966
7.27622
7.31068
7.34225
7.37098
7.39744
7.42213
7.44524
7.46645
7.48489
7.50056
7.51447
7.52794
7.5406
7.55057
7.55608
7.55873
7.55995
7.56051
7.56071
7.56069
7.55843
7.55486
7.55026
7.54492
7.53903
7.53257
7.52535
7.5173
7.50827
7.49806
7.48684
7.47517
7.46383
7.45313
7.44258
7.4314
7.41882
7.40436
7.38844
7.37189
7.355
7.33786
7.32074
7.30393
7.2877
7.27202
7.25653
7.24106
7.22521
7.20976
7.1941
7.1785
7.16324
7.14809
7.13276
7.11735
7.10212
7.08723
7.0727
7.05821
7.04335
7.0286
7.01471
7.00166
6.98904
6.97667
6.96457
6.95261
6.94067
6.92861
6.91614
6.90319
6.88999
6.87682
6.86392
6.8515
6.83963
6.82845
6.81825
6.80929
6.80125
6.79344
6.78561
6.77813
6.77137
6.76544
6.7602
6.75546
6.75114
6.74719
6.74347
6.73978
6.73584
6.73135
6.72612
6.72004
6.71271
6.70336
6.69176
6.67815
6.66268
6.64528
6.62565
6.60379
6.5805
6.55641
6.53201
6.50812
6.48536
6.4639
6.44414
6.42643
6.41057
6.39644
6.3843
6.37471
6.36768
6.36248
6.36016
6.36175
6.36559
6.37072
6.377
6.38496
6.39634
6.41251
6.43443
6.46027
6.4828
6.49972
6.50732
6.51059
6.51236
6.51286
6.5138
6.42481
6.84409
6.97186
7.03225
7.06845
7.11139
7.15301
7.19258
7.23029
7.26688
7.30139
7.33302
7.36186
7.38844
7.41328
7.43655
7.4579
7.47645
7.49223
7.50641
7.52027
7.53161
7.54132
7.54639
7.54899
7.55007
7.55058
7.55076
7.55056
7.54826
7.54463
7.53997
7.53457
7.52862
7.52209
7.51479
7.50664
7.49749
7.48713
7.47575
7.4639
7.45237
7.44147
7.4307
7.41929
7.40644
7.3917
7.37549
7.35867
7.34154
7.32421
7.30693
7.29
7.27369
7.25796
7.24245
7.227
7.21107
7.1957
7.18011
7.16458
7.14938
7.13429
7.11902
7.10367
7.0885
7.07366
7.05917
7.04472
7.02989
7.01517
7.0013
6.98825
6.97562
6.96323
6.9511
6.93911
6.92712
6.915
6.90246
6.88942
6.87613
6.86286
6.84983
6.83726
6.82524
6.81388
6.80352
6.79438
6.78616
6.77816
6.77014
6.76245
6.75549
6.74937
6.74395
6.73905
6.73459
6.73053
6.72676
6.72306
6.71915
6.71473
6.70961
6.70367
6.69649
6.68733
6.67592
6.66249
6.64715
6.62982
6.61016
6.58816
6.56458
6.54008
6.51515
6.49063
6.46714
6.44487
6.42425
6.40566
6.38891
6.37387
6.36081
6.35027
6.34235
6.33647
6.33201
6.33224
6.33512
6.33931
6.34483
6.35165
6.36151
6.37602
6.39519
6.41926
6.44339
6.46273
6.47481
6.47814
6.4806
6.48207
6.48352
6.41682
6.83575
6.96369
7.02441
7.06083
7.10404
7.1458
7.18545
7.22322
7.25982
7.29432
7.326
7.35492
7.3816
7.40655
7.42993
7.45138
7.47
7.48583
7.5001
7.51424
7.52508
7.5337
7.53899
7.54122
7.54225
7.5427
7.54287
7.54247
7.5401
7.53639
7.53167
7.52621
7.52018
7.51357
7.50617
7.4979
7.48861
7.47809
7.46653
7.45448
7.44274
7.43162
7.42062
7.40894
7.39581
7.38075
7.36423
7.34711
7.32971
7.31215
7.29467
7.2776
7.26118
7.24536
7.2298
7.21429
7.19834
7.18298
7.16742
7.15193
7.13676
7.1217
7.10647
7.09116
7.07602
7.06121
7.04675
7.03232
7.01751
7.00281
6.98894
6.97588
6.96323
6.95082
6.93866
6.92663
6.91459
6.90241
6.8898
6.87668
6.86329
6.8499
6.83676
6.82405
6.81187
6.80034
6.7898
6.78049
6.77209
6.76391