/*--------------------------------*- C++ -*----------------------------------*\
| =========                 |                                                 |
| \\      /  F ield         | OpenFOAM: The Open Source CFD Toolbox           |
|  \\    /   O peration     | Version:  2212                                  |
|   \\  /    A nd           | Website:  www.openfoam.com                      |
|    \\/     M anipulation  |                                                 |
\*---------------------------------------------------------------------------*/
FoamFile
{
    version     2.0;
    format      ascii;
    arch        "LSB;label=32;scalar=64";
    class       volScalarField;
    location    "0.234";
    object      pMean;
}
// * * * * * * * * * * * * * * * * * * * * * * * * * * * * * * * * * * * * * //

dimensions      [0 2 -2 0 0 0 0];

internalField   nonuniform List<scalar> 
24240
(
7.51741
7.51742
7.51742
7.51744
7.51745
7.51748
7.5175
7.51752
7.51755
7.51758
7.51761
7.51764
7.51766
7.51769
7.51771
7.51773
7.51775
7.51776
7.51777
7.51777
5.79807
5.79808
5.79808
5.79809
5.7981
5.79811
5.79812
5.79813
5.79815
5.79816
5.79818
5.79819
5.79821
5.79822
5.79823
5.79824
5.79825
5.79825
5.79826
5.79826
5.93944
5.93944
5.93944
5.93943
5.93942
5.93941
5.9394
5.93939
5.93938
5.93937
5.93936
5.93935
5.93934
5.93933
5.93933
5.93932
5.93931
5.93931
5.9393
5.9393
5.33594
5.33594
5.33594
5.33594
5.33594
5.33594
5.33594
5.33594
5.33594
5.33593
5.33593
5.33593
5.33593
5.33592
5.33592
5.33592
5.33591
5.33591
5.33591
5.3359
5.39698
5.39698
5.39697
5.39696
5.39695
5.39693
5.39692
5.3969
5.39688
5.39686
5.39684
5.39682
5.3968
5.39679
5.39677
5.39676
5.39675
5.39674
5.39673
5.39672
5.18315
5.18315
5.18315
5.18314
5.18314
5.18313
5.18312
5.18311
5.1831
5.18309
5.18308
5.18307
5.18306
5.18305
5.18304
5.18303
5.18302
5.18302
5.18301
5.18301
5.22115
5.22115
5.22114
5.22113
5.22112
5.22111
5.2211
5.22108
5.22106
5.22104
5.22102
5.22101
5.22099
5.22097
5.22096
5.22094
5.22093
5.22092
5.22092
5.22091
5.13063
5.13063
5.13062
5.13062
5.13061
5.1306
5.13059
5.13058
5.13057
5.13055
5.13054
5.13052
5.13051
5.1305
5.13048
5.13047
5.13046
5.13046
5.13045
5.13045
5.15304
5.15304
5.15303
5.15302
5.15302
5.15301
5.15299
5.15298
5.15297
5.15295
5.15294
5.15292
5.15291
5.15289
5.15288
5.15287
5.15286
5.15285
5.15284
5.15284
5.13518
5.13518
5.13517
5.13516
5.13516
5.13514
5.13513
5.13512
5.1351
5.13509
5.13507
5.13505
5.13504
5.13502
5.13501
5.135
5.13499
5.13498
5.13498
5.13497
5.1342
5.1342
5.1342
5.1342
5.1342
5.1342
5.1342
5.1342
5.13419
5.13419
5.13419
5.13418
5.13418
5.13418
5.13417
5.13417
5.13416
5.13416
5.13416
5.13415
5.19171
5.19171
5.1917
5.1917
5.19169
5.19167
5.19166
5.19165
5.19163
5.19161
5.1916
5.19158
5.19156
5.19155
5.19154
5.19153
5.19152
5.19151
5.19151
5.1915
5.16733
5.16733
5.16734
5.16734
5.16734
5.16735
5.16736
5.16736
5.16737
5.16737
5.16737
5.16738
5.16738
5.16738
5.16738
5.16738
5.16738
5.16737
5.16737
5.16737
5.319
5.319
5.319
5.31899
5.31898
5.31897
5.31896
5.31895
5.31894
5.31892
5.31891
5.31889
5.31888
5.31887
5.31886
5.31885
5.31885
5.31884
5.31884
5.31883
5.27236
5.27236
5.27237
5.27238
5.27239
5.2724
5.27241
5.27243
5.27244
5.27245
5.27246
5.27247
5.27248
5.27249
5.2725
5.2725
5.2725
5.2725
5.2725
5.2725
5.61635
5.61634
5.61634
5.61634
5.61633
5.61632
5.61632
5.61631
5.6163
5.61629
5.61628
5.61627
5.61627
5.61626
5.61626
5.61625
5.61625
5.61625
5.61624
5.61624
5.5446
5.54461
5.54461
5.54463
5.54464
5.54466
5.54468
5.5447
5.54472
5.54475
5.54477
5.54479
5.54481
5.54482
5.54484
5.54485
5.54486
5.54486
5.54487
5.54487
6.50954
6.50955
6.50955
6.50955
6.50956
6.50956
6.50957
6.50957
6.50958
6.50959
6.5096
6.5096
6.50961
6.50962
6.50963
6.50963
6.50964
6.50964
6.50964
6.50964
6.3382
6.3382
6.33821
6.33823
6.33825
6.33827
6.3383
6.33834
6.33837
6.3384
6.33844
6.33848
6.33851
6.33854
6.33857
6.3386
6.33862
6.33863
6.33865
6.33865
9.04085
9.04086
9.04087
9.04089
9.04092
9.04095
9.04099
9.04103
9.04108
9.04113
9.04117
9.04122
9.04127
9.04131
9.04135
9.04139
9.04142
9.04144
9.04146
9.04147
17.3793
17.3793
17.3794
17.3794
17.3794
17.3794
17.3795
17.3795
17.3796
17.3796
17.3796
17.3797
17.3797
17.3798
17.3798
17.3799
17.3799
17.3799
17.3799
17.3799
15.9985
15.9985
15.9985
15.9985
15.9985
15.9985
15.9986
15.9986
15.9986
15.9986
15.9987
15.9987
15.9987
15.9987
15.9988
15.9988
15.9988
15.9988
15.9988
15.9988
16.3283
16.3283
16.3283
16.3283
16.3283
16.3283
16.3282
16.3282
16.3282
16.3282
16.3282
16.3282
16.3281
16.3281
16.3281
16.3281
16.3281
16.3281
16.3281
16.3281
15.6072
15.6073
15.6072
15.6072
15.6072
15.6072
15.6072
15.6072
15.6072
15.6072
15.6072
15.6072
15.6072
15.6072
15.6072
15.6072
15.6072
15.6072
15.6072
15.6072
15.7803
15.7803
15.7802
15.7802
15.7802
15.7802
15.7801
15.7801
15.7801
15.78
15.78
15.78
15.7799
15.7799
15.7799
15.7799
15.7798
15.7798
15.7798
15.7798
15.3675
15.3675
15.3675
15.3675
15.3675
15.3674
15.3674
15.3674
15.3674
15.3674
15.3673
15.3673
15.3673
15.3673
15.3673
15.3672
15.3672
15.3672
15.3672
15.3672
15.4729
15.4729
15.4729
15.4728
15.4728
15.4728
15.4728
15.4727
15.4727
15.4727
15.4726
15.4726
15.4725
15.4725
15.4725
15.4725
15.4724
15.4724
15.4724
15.4724
15.2653
15.2653
15.2653
15.2653
15.2653
15.2653
15.2652
15.2652
15.2652
15.2652
15.2651
15.2651
15.2651
15.265
15.265
15.265
15.265
15.265
15.2649
15.2649
15.3242
15.3242
15.3242
15.3242
15.3242
15.3242
15.3241
15.3241
15.3241
15.3241
15.324
15.324
15.324
15.3239
15.3239
15.3239
15.3239
15.3238
15.3238
15.3238
15.2871
15.2871
15.2871
15.2871
15.2871
15.2871
15.2871
15.287
15.287
15.287
15.2869
15.2869
15.2869
15.2869
15.2868
15.2868
15.2868
15.2868
15.2868
15.2867
15.2925
15.2925
15.2925
15.2925
15.2925
15.2925
15.2925
15.2924
15.2924
15.2924
15.2924
15.2924
15.2924
15.2923
15.2923
15.2923
15.2923
15.2923
15.2923
15.2923
15.4346
15.4346
15.4346
15.4346
15.4345
15.4345
15.4345
15.4345
15.4345
15.4344
15.4344
15.4344
15.4343
15.4343
15.4343
15.4343
15.4343
15.4342
15.4342
15.4342
15.3853
15.3853
15.3853
15.3853
15.3853
15.3853
15.3853
15.3853
15.3853
15.3853
15.3853
15.3853
15.3853
15.3853
15.3853
15.3853
15.3853
15.3853
15.3853
15.3853
15.7355
15.7355
15.7355
15.7355
15.7355
15.7355
15.7354
15.7354
15.7354
15.7354
15.7354
15.7353
15.7353
15.7353
15.7353
15.7353
15.7353
15.7352
15.7352
15.7352
15.6208
15.6208
15.6208
15.6208
15.6208
15.6209
15.6209
15.6209
15.6209
15.6209
15.6209
15.6209
15.621
15.621
15.621
15.621
15.621
15.621
15.621
15.621
16.2536
16.2536
16.2536
16.2536
16.2536
16.2536
16.2536
16.2536
16.2536
16.2536
16.2536
16.2535
16.2535
16.2535
16.2535
16.2535
16.2535
16.2535
16.2535
16.2535
16.0393
16.0393
16.0393
16.0393
16.0394
16.0394
16.0394
16.0395
16.0395
16.0395
16.0396
16.0396
16.0396
16.0397
16.0397
16.0397
16.0397
16.0397
16.0397
16.0397
17.0918
17.0918
17.0918
17.0918
17.0918
17.0918
17.0918
17.0918
17.0918
17.0918
17.0919
17.0919
17.0919
17.0919
17.0919
17.092
17.092
17.092
17.092
17.092
16.6645
16.6645
16.6646
16.6646
16.6646
16.6647
16.6647
16.6648
16.6649
16.6649
16.665
16.6651
16.6651
16.6652
16.6652
16.6653
16.6653
16.6653
16.6654
16.6654
18.6606
18.6606
18.6606
18.6606
18.6607
18.6607
18.6608
18.6609
18.6609
18.661
18.6611
18.6612
18.6613
18.6614
18.6615
18.6615
18.6616
18.6616
18.6617
18.6617
28.6996
28.6996
28.6996
28.6996
28.6996
28.6997
28.6997
28.6998
28.6998
28.6999
28.6999
28.7
28.7
28.7001
28.7001
28.7002
28.7002
28.7002
28.7003
28.7003
26.6529
26.6529
26.6529
26.6529
26.6529
26.6529
26.653
26.653
26.653
26.6531
26.6531
26.6531
26.6531
26.6532
26.6532
26.6532
26.6532
26.6532
26.6532
26.6533
27.0934
27.0934
27.0934
27.0934
27.0934
27.0934
27.0934
27.0933
27.0933
27.0933
27.0933
27.0933
27.0933
27.0933
27.0933
27.0933
27.0933
27.0932
27.0932
27.0932
25.9211
25.9211
25.9211
25.9211
25.9211
25.9211
25.9211
25.9211
25.9211
25.921
25.921
25.921
25.921
25.921
25.921
25.921
25.921
25.921
25.921
25.921
26.1732
26.1732
26.1732
26.1732
26.1732
26.1731
26.1731
26.1731
26.173
26.173
26.1729
26.1729
26.1729
26.1728
26.1728
26.1728
26.1727
26.1727
26.1727
26.1727
25.5273
25.5273
25.5273
25.5273
25.5273
25.5273
25.5272
25.5272
25.5272
25.5272
25.5271
25.5271
25.5271
25.527
25.527
25.527
25.527
25.5269
25.5269
25.5269
25.6858
25.6858
25.6858
25.6857
25.6857
25.6857
25.6856
25.6856
25.6855
25.6855
25.6855
25.6854
25.6854
25.6853
25.6853
25.6852
25.6852
25.6852
25.6852
25.6852
25.3743
25.3742
25.3742
25.3742
25.3742
25.3742
25.3741
25.3741
25.3741
25.374
25.374
25.374
25.3739
25.3739
25.3738
25.3738
25.3738
25.3738
25.3737
25.3737
25.4607
25.4607
25.4607
25.4607
25.4606
25.4606
25.4606
25.4605
25.4605
25.4605
25.4604
25.4604
25.4603
25.4603
25.4603
25.4602
25.4602
25.4602
25.4602
25.4602
25.4112
25.4112
25.4111
25.4111
25.4111
25.4111
25.4111
25.411
25.411
25.411
25.4109
25.4109
25.4109
25.4108
25.4108
25.4108
25.4107
25.4107
25.4107
25.4107
25.4273
25.4273
25.4273
25.4273
25.4273
25.4273
25.4273
25.4273
25.4272
25.4272
25.4272
25.4272
25.4271
25.4271
25.4271
25.4271
25.427
25.427
25.427
25.427
25.6431
25.6431
25.6431
25.6431
25.6431
25.643
25.643
25.643
25.643
25.6429
25.6429
25.6429
25.6428
25.6428
25.6428
25.6428
25.6427
25.6427
25.6427
25.6427
25.59
25.59
25.59
25.59
25.59
25.59
25.59
25.59
25.59
25.59
25.59
25.59
25.59
25.59
25.59
25.59
25.5899
25.5899
25.5899
25.5899
26.1185
26.1185
26.1185
26.1185
26.1185
26.1185
26.1185
26.1185
26.1184
26.1184
26.1184
26.1184
26.1184
26.1183
26.1183
26.1183
26.1183
26.1183
26.1183
26.1183
25.9782
25.9782
25.9782
25.9782
25.9782
25.9782
25.9782
25.9783
25.9783
25.9783
25.9783
25.9784
25.9784
25.9784
25.9784
25.9784
25.9784
25.9784
25.9784
25.9784
26.9621
26.9621
26.9621
26.9621
26.9621
26.9621
26.9621
26.9621
26.9621
26.9621
26.9621
26.9621
26.9621
26.9621
26.9621
26.9621
26.9621
26.9621
26.9621
26.9621
26.6808
26.6808
26.6809
26.6809
26.6809
26.681
26.681
26.6811
26.6811
26.6812
26.6812
26.6813
26.6813
26.6813
26.6814
26.6814
26.6814
26.6815
26.6815
26.6815
28.4438
28.4438
28.4438
28.4439
28.4439
28.4439
28.4439
28.444
28.444
28.4441
28.4441
28.4441
28.4442
28.4442
28.4443
28.4443
28.4443
28.4443
28.4443
28.4443
27.8838
27.8838
27.8838
27.8839
27.8839
27.884
27.884
27.8841
27.8842
27.8843
27.8844
27.8845
27.8846
27.8847
27.8847
27.8848
27.8849
27.8849
27.8849
27.8849
30.929
30.929
30.929
30.9291
30.9291
30.9292
30.9293
30.9294
30.9295
30.9296
30.9298
30.9299
30.93
30.9301
30.9302
30.9303
30.9304
30.9305
30.9305
30.9306
38.7903
38.7904
38.7904
38.7904
38.7904
38.7905
38.7905
38.7906
38.7906
38.7907
38.7907
38.7908
38.7908
38.7909
38.7909
38.791
38.791
38.791
38.7911
38.7911
36.7981
36.7981
36.7981
36.7981
36.7981
36.7981
36.7982
36.7982
36.7982
36.7982
36.7983
36.7983
36.7983
36.7984
36.7984
36.7984
36.7984
36.7984
36.7984
36.7985
37.2861
37.2861
37.2861
37.2861
37.286
37.286
37.286
37.286
37.286
37.286
37.286
37.2859
37.2859
37.2859
37.2859
37.2859
37.2859
37.2859
37.2859
37.2859
36.0182
36.0182
36.0182
36.0182
36.0182
36.0182
36.0182
36.0182
36.0181
36.0181
36.0181
36.0181
36.0181
36.0181
36.0181
36.0181
36.0181
36.0181
36.0181
36.0181
36.332
36.332
36.332
36.332
36.3319
36.3319
36.3319
36.3318
36.3318
36.3317
36.3317
36.3316
36.3316
36.3316
36.3315
36.3315
36.3315
36.3314
36.3314
36.3314
35.5612
35.5612
35.5612
35.5612
35.5611
35.5611
35.5611
35.5611
35.561
35.561
35.561
35.5609
35.5609
35.5609
35.5608
35.5608
35.5608
35.5608
35.5607
35.5607
35.7607
35.7607
35.7607
35.7607
35.7606
35.7606
35.7606
35.7605
35.7605
35.7604
35.7604
35.7603
35.7603
35.7602
35.7602
35.7601
35.7601
35.7601
35.76
35.76
35.384
35.384
35.384
35.384
35.3839
35.3839
35.3839
35.3838
35.3838
35.3838
35.3837
35.3837
35.3836
35.3836
35.3835
35.3835
35.3835
35.3834
35.3834
35.3834
35.4906
35.4906
35.4906
35.4905
35.4905
35.4905
35.4904
35.4904
35.4904
35.4903
35.4903
35.4902
35.4902
35.4901
35.4901
35.49
35.49
35.49
35.49
35.49
35.4389
35.4389
35.4389
35.4389
35.4389
35.4388
35.4388
35.4388
35.4387
35.4387
35.4386
35.4386
35.4386
35.4385
35.4385
35.4385
35.4384
35.4384
35.4384
35.4384
35.4635
35.4635
35.4635
35.4635
35.4635
35.4635
35.4634
35.4634
35.4634
35.4634
35.4633
35.4633
35.4633
35.4632
35.4632
35.4632
35.4631
35.4631
35.4631
35.4631
35.7423
35.7423
35.7423
35.7423
35.7423
35.7422
35.7422
35.7422
35.7421
35.7421
35.7421
35.742
35.742
35.742
35.7419
35.7419
35.7419
35.7419
35.7418
35.7418
35.6848
35.6848
35.6848
35.6848
35.6848
35.6848
35.6848
35.6848
35.6848
35.6848
35.6848
35.6848
35.6847
35.6847
35.6847
35.6847
35.6847
35.6847
35.6847
35.6847
36.3431
36.3431
36.3431
36.3431
36.3431
36.343
36.343
36.343
36.343
36.343
36.3429
36.3429
36.3429
36.3429
36.3429
36.3428
36.3428
36.3428
36.3428
36.3428
36.1789
36.1789
36.1789
36.1789
36.179
36.179
36.179
36.179
36.179
36.1791
36.1791
36.1791
36.1791
36.1791
36.1791
36.1791
36.1791
36.1791
36.1791
36.1791
37.3313
37.3313
37.3313
37.3313
37.3313
37.3313
37.3313
37.3313
37.3313
37.3313
37.3313
37.3313
37.3313
37.3313
37.3313
37.3313
37.3313
37.3313
37.3313
37.3313
37.0043
37.0043
37.0043
37.0043
37.0044
37.0044
37.0045
37.0045
37.0046
37.0046
37.0047
37.0047
37.0048
37.0048
37.0048
37.0049
37.0049
37.0049
37.0049
37.0049
38.845
38.8451
38.8451
38.8451
38.8451
38.8451
38.8452
38.8452
38.8453
38.8453
38.8453
38.8454
38.8454
38.8455
38.8455
38.8455
38.8456
38.8456
38.8456
38.8456
38.2427
38.2427
38.2427
38.2428
38.2428
38.2429
38.243
38.2431
38.2432
38.2433
38.2434
38.2435
38.2436
38.2437
38.2438
38.2438
38.2439
38.2439
38.244
38.244
41.1158
41.1158
41.1158
41.1159
41.1159
41.116
41.1161
41.1162
41.1164
41.1165
41.1166
41.1168
41.1169
41.117
41.1171
41.1172
41.1173
41.1174
41.1174
41.1175
49.0731
49.0732
49.0732
49.0732
49.0732
49.0733
49.0733
49.0733
49.0734
49.0734
49.0735
49.0736
49.0736
49.0736
49.0737
49.0737
49.0738
49.0738
49.0738
49.0738
46.9281
46.9281
46.9281
46.9281
46.9281
46.9282
46.9282
46.9282
46.9282
46.9283
46.9283
46.9283
46.9284
46.9284
46.9284
46.9284
46.9284
46.9285
46.9285
46.9285
47.4606
47.4606
47.4606
47.4606
47.4606
47.4606
47.4606
47.4606
47.4605
47.4605
47.4605
47.4605
47.4605
47.4605
47.4604
47.4604
47.4604
47.4604
47.4604
47.4604
46.0226
46.0226
46.0226
46.0226
46.0226
46.0226
46.0226
46.0225
46.0225
46.0225
46.0225
46.0225
46.0225
46.0225
46.0225
46.0225
46.0224
46.0224
46.0224
46.0224
46.3804
46.3804
46.3804
46.3804
46.3803
46.3803
46.3803
46.3802
46.3802
46.3801
46.3801
46.38
46.38
46.3799
46.3799
46.3799
46.3798
46.3798
46.3798
46.3798
45.5002
45.5002
45.5002
45.5002
45.5002
45.5001
45.5001
45.5001
45.5
45.5
45.5
45.4999
45.4999
45.4999
45.4998
45.4998
45.4998
45.4997
45.4997
45.4997
45.7243
45.7242
45.7242
45.7242
45.7242
45.7241
45.7241
45.724
45.724
45.7239
45.7239
45.7238
45.7238
45.7237
45.7237
45.7236
45.7236
45.7236
45.7236
45.7235
45.3018
45.3018
45.3017
45.3017
45.3017
45.3017
45.3016
45.3016
45.3015
45.3015
45.3014
45.3014
45.3014
45.3013
45.3013
45.3012
45.3012
45.3012
45.3011
45.3011
45.4215
45.4215
45.4215
45.4214
45.4214
45.4214
45.4213
45.4213
45.4213
45.4212
45.4212
45.4211
45.4211
45.421
45.421
45.4209
45.4209
45.4209
45.4209
45.4208
45.374
45.374
45.374
45.374
45.374
45.3739
45.3739
45.3739
45.3738
45.3738
45.3737
45.3737
45.3737
45.3736
45.3736
45.3735
45.3735
45.3735
45.3734
45.3734
45.405
45.405
45.405
45.405
45.405
45.405
45.4049
45.4049
45.4049
45.4049
45.4048
45.4048
45.4048
45.4047
45.4047
45.4047
45.4046
45.4046
45.4046
45.4046
45.7392
45.7392
45.7392
45.7391
45.7391
45.7391
45.7391
45.739
45.739
45.739
45.7389
45.7389
45.7389
45.7388
45.7388
45.7388
45.7387
45.7387
45.7387
45.7387
45.6796
45.6796
45.6796
45.6796
45.6796
45.6796
45.6796
45.6796
45.6796
45.6796
45.6796
45.6796
45.6795
45.6795
45.6795
45.6795
45.6795
45.6795
45.6795
45.6795
46.4492
46.4492
46.4492
46.4492
46.4492
46.4492
46.4492
46.4492
46.4491
46.4491
46.4491
46.4491
46.4491
46.449
46.449
46.449
46.449
46.449
46.4489
46.4489
46.2686
46.2686
46.2686
46.2686
46.2686
46.2686
46.2687
46.2687
46.2687
46.2687
46.2687
46.2688
46.2688
46.2688
46.2688
46.2688
46.2688
46.2688
46.2688
46.2688
47.5978
47.5978
47.5978
47.5979
47.5979
47.5979
47.5979
47.5979
47.5979
47.5979
47.5979
47.5979
47.5979
47.5979
47.5979
47.5979
47.5979
47.5979
47.5979
47.5979
47.2333
47.2333
47.2333
47.2334
47.2334
47.2335
47.2335
47.2336
47.2336
47.2337
47.2338
47.2338
47.2339
47.2339
47.234
47.234
47.234
47.2341
47.2341
47.2341
49.3258
49.3258
49.3259
49.3259
49.3259
49.3259
49.326
49.326
49.3261
49.3261
49.3262
49.3262
49.3263
49.3263
49.3264
49.3264
49.3265
49.3265
49.3265
49.3265
48.6706
48.6706
48.6706
48.6707
48.6707
48.6708
48.6709
48.671
48.6711
48.6712
48.6713
48.6714
48.6715
48.6716
48.6717
48.6718
48.6719
48.6719
48.6719
48.672
51.7642
51.7642
51.7643
51.7643
51.7644
51.7645
51.7646
51.7647
51.7648
51.765
51.7651
51.7652
51.7654
51.7655
51.7656
51.7657
51.7658
51.7659
51.7659
51.7659
58.9462
58.9463
58.9463
58.9463
58.9463
58.9464
58.9464
58.9464
58.9465
58.9465
58.9466
58.9466
58.9466
58.9467
58.9467
58.9468
58.9468
58.9468
58.9468
58.9468
56.7973
56.7973
56.7973
56.7973
56.7973
56.7973
56.7974
56.7974
56.7974
56.7974
56.7975
56.7975
56.7975
56.7975
56.7976
56.7976
56.7976
56.7976
56.7976
56.7976
57.357
57.357
57.357
57.357
57.357
57.357
57.357
57.357
57.357
57.3569
57.3569
57.3569
57.3569
57.3569
57.3569
57.3569
57.3568
57.3568
57.3568
57.3568
55.8613
55.8613
55.8613
55.8613
55.8613
55.8613
55.8613
55.8613
55.8613
55.8612
55.8612
55.8612
55.8612
55.8612
55.8612
55.8612
55.8612
55.8612
55.8611
55.8611
56.2464
56.2464
56.2464
56.2464
56.2464
56.2463
56.2463
56.2463
56.2462
56.2462
56.2461
56.2461
56.246
56.246
56.246
56.2459
56.2459
56.2459
56.2458
56.2458
55.3108
55.3108
55.3108
55.3108
55.3108
55.3108
55.3107
55.3107
55.3107
55.3106
55.3106
55.3106
55.3105
55.3105
55.3104
55.3104
55.3104
55.3104
55.3104
55.3103
55.5506
55.5506
55.5506
55.5506
55.5506
55.5505
55.5505
55.5504
55.5504
55.5503
55.5503
55.5502
55.5502
55.5501
55.5501
55.55
55.55
55.55
55.55
55.55
55.1036
55.1036
55.1036
55.1036
55.1036
55.1035
55.1035
55.1034
55.1034
55.1033
55.1033
55.1033
55.1032
55.1032
55.1031
55.1031
55.103
55.103
55.103
55.103
55.2319
55.2319
55.2319
55.2318
55.2318
55.2318
55.2318
55.2317
55.2317
55.2316
55.2316
55.2315
55.2315
55.2314
55.2314
55.2314
55.2313
55.2313
55.2313
55.2313
55.1939
55.1938
55.1938
55.1938
55.1938
55.1938
55.1937
55.1937
55.1936
55.1936
55.1935
55.1935
55.1935
55.1934
55.1934
55.1933
55.1933
55.1933
55.1932
55.1932
55.2283
55.2283
55.2283
55.2283
55.2282
55.2282
55.2282
55.2282
55.2281
55.2281
55.2281
55.228
55.228
55.228
55.2279
55.2279
55.2279
55.2278
55.2278
55.2278
55.6099
55.6099
55.6099
55.6099
55.6099
55.6099
55.6098
55.6098
55.6098
55.6097
55.6097
55.6096
55.6096
55.6096
55.6095
55.6095
55.6095
55.6094
55.6094
55.6094
55.5457
55.5457
55.5457
55.5457
55.5457
55.5457
55.5457
55.5457
55.5457
55.5457
55.5456
55.5456
55.5456
55.5456
55.5456
55.5456
55.5456
55.5455
55.5455
55.5455
56.3989
56.3989
56.3989
56.3989
56.3989
56.3989
56.3988
56.3988
56.3988
56.3988
56.3988
56.3987
56.3987
56.3987
56.3987
56.3986
56.3986
56.3986
56.3986
56.3986
56.2018
56.2018
56.2018
56.2019
56.2019
56.2019
56.2019
56.2019
56.2019
56.2019
56.202
56.202
56.202
56.202
56.202
56.202
56.202
56.202
56.202
56.202
57.6317
57.6317
57.6317
57.6317
57.6317
57.6317
57.6317
57.6317
57.6317
57.6317
57.6317
57.6317
57.6317
57.6317
57.6317
57.6317
57.6317
57.6317
57.6317
57.6317
57.2409
57.2409
57.2409
57.2409
57.241
57.241
57.2411
57.2411
57.2412
57.2412
57.2413
57.2413
57.2414
57.2414
57.2415
57.2415
57.2416
57.2416
57.2416
57.2416
59.394
59.394
59.394
59.394
59.3941
59.3941
59.3941
59.3942
59.3942
59.3943
59.3943
59.3944
59.3944
59.3945
59.3945
59.3945
59.3946
59.3946
59.3946
59.3946
58.7188
58.7188
58.7188
58.7189
58.719
58.719
58.7191
58.7192
58.7193
58.7194
58.7195
58.7196
58.7197
58.7198
58.7199
58.72
58.72
58.7201
58.7201
58.7201
61.7671
61.7672
61.7672
61.7673
61.7673
61.7674
61.7675
61.7676
61.7678
61.7679
61.768
61.7681
61.7683
61.7684
61.7685
61.7686
61.7687
61.7687
61.7688
61.7688
68.7362
68.7362
68.7362
68.7362
68.7363
68.7363
68.7363
68.7363
68.7364
68.7364
68.7365
68.7365
68.7365
68.7366
68.7366
68.7366
68.7367
68.7367
68.7367
68.7367
66.5513
66.5513
66.5513
66.5513
66.5513
66.5513
66.5513
66.5514
66.5514
66.5514
66.5514
66.5514
66.5515
66.5515
66.5515
66.5515
66.5515
66.5515
66.5515
66.5515
67.1247
67.1247
67.1247
67.1247
67.1247
67.1247
67.1247
67.1247
67.1247
67.1246
67.1246
67.1246
67.1246
67.1246
67.1246
67.1245
67.1245
67.1245
67.1245
67.1245
65.5746
65.5746
65.5746
65.5746
65.5746
65.5746
65.5746
65.5745
65.5745
65.5745
65.5745
65.5745
65.5745
65.5745
65.5745
65.5745
65.5744
65.5744
65.5744
65.5744
65.9725
65.9725
65.9725
65.9724
65.9724
65.9724
65.9723
65.9723
65.9723
65.9722
65.9722
65.9721
65.9721
65.9721
65.972
65.972
65.972
65.9719
65.9719
65.9719
64.9989
64.9989
64.9989
64.9988
64.9988
64.9988
64.9988
64.9987
64.9987
64.9987
64.9986
64.9986
64.9985
64.9985
64.9985
64.9985
64.9984
64.9984
64.9984
64.9984
65.2465
65.2464
65.2464
65.2464
65.2464
65.2463
65.2463
65.2463
65.2462
65.2462
65.2461
65.2461
65.246
65.246
65.2459
65.2459
65.2459
65.2458
65.2458
65.2458
64.787
64.787
64.787
64.7869
64.7869
64.7869
64.7868
64.7868
64.7867
64.7867
64.7867
64.7866
64.7866
64.7865
64.7865
64.7864
64.7864
64.7864
64.7864
64.7863
64.9198
64.9198
64.9198
64.9198
64.9198
64.9197
64.9197
64.9196
64.9196
64.9196
64.9195
64.9195
64.9194
64.9194
64.9193
64.9193
64.9193
64.9192
64.9192
64.9192
64.894
64.894
64.894
64.894
64.894
64.894
64.8939
64.8939
64.8938
64.8938
64.8937
64.8937
64.8937
64.8936
64.8936
64.8935
64.8935
64.8935
64.8934
64.8934
64.9299
64.9299
64.9299
64.9299
64.9299
64.9298
64.9298
64.9298
64.9298
64.9297
64.9297
64.9297
64.9296
64.9296
64.9296
64.9295
64.9295
64.9295
64.9295
64.9295
65.3528
65.3528
65.3528
65.3528
65.3528
65.3527
65.3527
65.3527
65.3526
65.3526
65.3526
65.3525
65.3525
65.3525
65.3524
65.3524
65.3524
65.3523
65.3523
65.3523
65.283
65.283
65.283
65.2829
65.2829
65.2829
65.2829
65.2829
65.2829
65.2829
65.2829
65.2829
65.2828
65.2828
65.2828
65.2828
65.2828
65.2828
65.2828
65.2828
66.2056
66.2056
66.2056
66.2056
66.2056
66.2056
66.2056
66.2056
66.2055
66.2055
66.2055
66.2055
66.2055
66.2054
66.2054
66.2054
66.2054
66.2053
66.2053
66.2053
65.9931
65.9931
65.9931
65.9931
65.9932
65.9932
65.9932
65.9932
65.9932
65.9932
65.9932
65.9933
65.9933
65.9933
65.9933
65.9933
65.9933
65.9933
65.9933
65.9933
67.513
67.513
67.513
67.513
67.5131
67.5131
67.5131
67.5131
67.5131
67.5131
67.5131
67.5131
67.5131
67.5131
67.5131
67.5131
67.5131
67.5131
67.5131
67.5131
67.0969
67.0969
67.0969
67.097
67.097
67.097
67.0971
67.0971
67.0972
67.0972
67.0973
67.0973
67.0974
67.0974
67.0975
67.0975
67.0975
67.0976
67.0976
67.0976
69.3435
69.3435
69.3435
69.3436
69.3436
69.3436
69.3437
69.3437
69.3438
69.3438
69.3439
69.3439
69.344
69.344
69.344
69.3441
69.3441
69.3441
69.3441
69.3441
68.6423
68.6423
68.6424
68.6424
68.6425
68.6425
68.6426
68.6427
68.6428
68.6429
68.643
68.6431
68.6432
68.6433
68.6434
68.6435
68.6435
68.6436
68.6436
68.6436
71.7366
71.7366
71.7366
71.7367
71.7368
71.7368
71.7369
71.7371
71.7372
71.7373
71.7374
71.7375
71.7376
71.7378
71.7378
71.7379
71.738
71.738
71.7381
71.7381
78.319
78.319
78.319
78.3191
78.3191
78.3191
78.3191
78.3191
78.3192
78.3192
78.3192
78.3193
78.3193
78.3193
78.3193
78.3194
78.3194
78.3194
78.3194
78.3194
76.129
76.129
76.129
76.1291
76.1291
76.1291
76.1291
76.1291
76.1291
76.1291
76.1292
76.1292
76.1292
76.1292
76.1292
76.1292
76.1292
76.1292
76.1292
76.1292
76.7105
76.7105
76.7105
76.7105
76.7105
76.7105
76.7105
76.7105
76.7105
76.7104
76.7104
76.7104
76.7104
76.7104
76.7104
76.7103
76.7103
76.7103
76.7103
76.7103
75.1412
75.1412
75.1412
75.1412
75.1412
75.1412
75.1412
75.1412
75.1412
75.1411
75.1411
75.1411
75.1411
75.1411
75.1411
75.1411
75.1411
75.1411
75.141
75.141
75.5458
75.5458
75.5458
75.5458
75.5457
75.5457
75.5457
75.5456
75.5456
75.5456
75.5455
75.5455
75.5455
75.5454
75.5454
75.5454
75.5453
75.5453
75.5453
75.5453
74.5545
74.5545
74.5545
74.5545
74.5545
74.5545
74.5544
74.5544
74.5544
74.5544
74.5543
74.5543
74.5543
74.5542
74.5542
74.5542
74.5541
74.5541
74.5541
74.5541
74.8063
74.8063
74.8063
74.8063
74.8063
74.8063
74.8062
74.8062
74.8061
74.8061
74.806
74.806
74.806
74.8059
74.8059
74.8058
74.8058
74.8058
74.8058
74.8058
74.3442
74.3442
74.3442
74.3442
74.3441
74.3441
74.3441
74.344
74.344
74.3439
74.3439
74.3439
74.3438
74.3438
74.3437
74.3437
74.3437
74.3437
74.3436
74.3436
74.4792
74.4792
74.4792
74.4792
74.4791
74.4791
74.4791
74.479
74.479
74.4789
74.4789
74.4789
74.4788
74.4788
74.4787
74.4787
74.4787
74.4787
74.4786
74.4786
74.4675
74.4675
74.4674
74.4674
74.4674
74.4674
74.4673
74.4673
74.4673
74.4672
74.4672
74.4671
74.4671
74.467
74.467
74.467
74.4669
74.4669
74.4669
74.4669
74.5028
74.5028
74.5028
74.5028
74.5028
74.5027
74.5027
74.5027
74.5027
74.5026
74.5026
74.5026
74.5025
74.5025
74.5025
74.5024
74.5024
74.5024
74.5024
74.5024
74.9612
74.9612
74.9612
74.9612
74.9612
74.9611
74.9611
74.9611
74.9611
74.961
74.961
74.9609
74.9609
74.9609
74.9608
74.9608
74.9608
74.9608
74.9607
74.9607
74.8842
74.8842
74.8842
74.8842
74.8841
74.8841
74.8841
74.8841
74.8841
74.8841
74.8841
74.8841
74.884
74.884
74.884
74.884
74.884
74.884
74.884
74.884
75.8612
75.8612
75.8612
75.8612
75.8612
75.8611
75.8611
75.8611
75.8611
75.8611
75.861
75.861
75.861
75.861
75.8609
75.8609
75.8609
75.8609
75.8609
75.8609
75.6336
75.6336
75.6336
75.6336
75.6336
75.6336
75.6337
75.6337
75.6337
75.6337
75.6337
75.6337
75.6337
75.6337
75.6337
75.6338
75.6338
75.6338
75.6338
75.6338
77.2133
77.2133
77.2133
77.2133
77.2133
77.2133
77.2133
77.2133
77.2133
77.2133
77.2133
77.2133
77.2133
77.2133
77.2133
77.2133
77.2133
77.2133
77.2133
77.2133
76.7771
76.7772
76.7772
76.7772
76.7772
76.7772
76.7773
76.7773
76.7774
76.7774
76.7775
76.7775
76.7775
76.7776
76.7776
76.7777
76.7777
76.7777
76.7778
76.7778
79.0624
79.0624
79.0624
79.0624
79.0624
79.0625
79.0625
79.0625
79.0626
79.0626
79.0627
79.0627
79.0627
79.0628
79.0628
79.0628
79.0628
79.0629
79.0629
79.0629
78.3455
78.3455
78.3456
78.3456
78.3456
78.3457
78.3458
78.3459
78.3459
78.346
78.3461
78.3462
78.3463
78.3464
78.3464
78.3465
78.3465
78.3466
78.3466
78.3466
81.4276
81.4277
81.4277
81.4277
81.4278
81.4279
81.428
81.4281
81.4281
81.4283
81.4284
81.4285
81.4286
81.4286
81.4287
81.4288
81.4288
81.4289
81.4289
81.4289
87.7682
87.7682
87.7682
87.7683
87.7683
87.7683
87.7683
87.7683
87.7683
87.7684
87.7684
87.7684
87.7684
87.7685
87.7685
87.7685
87.7685
87.7685
87.7685
87.7685
85.5705
85.5705
85.5706
85.5706
85.5706
85.5706
85.5706
85.5706
85.5706
85.5706
85.5706
85.5706
85.5706
85.5707
85.5707
85.5707
85.5707
85.5707
85.5707
85.5707
86.1554
86.1554
86.1554
86.1554
86.1553
86.1553
86.1553
86.1553
86.1553
86.1553
86.1553
86.1552
86.1552
86.1552
86.1552
86.1552
86.1552
86.1552
86.1552
86.1552
84.5726
84.5726
84.5726
84.5726
84.5726
84.5726
84.5725
84.5725
84.5725
84.5725
84.5725
84.5725
84.5725
84.5725
84.5724
84.5724
84.5724
84.5724
84.5724
84.5724
84.9797
84.9797
84.9797
84.9796
84.9796
84.9796
84.9796
84.9795
84.9795
84.9795
84.9794
84.9794
84.9794
84.9794
84.9793
84.9793
84.9793
84.9793
84.9792
84.9792
83.9796
83.9796
83.9796
83.9796
83.9795
83.9795
83.9795
83.9795
83.9794
83.9794
83.9794
83.9793
83.9793
83.9793
83.9793
83.9792
83.9792
83.9792
83.9792
83.9792
84.2329
84.2329
84.2329
84.2329
84.2329
84.2328
84.2328
84.2328
84.2327
84.2327
84.2327
84.2326
84.2326
84.2325
84.2325
84.2325
84.2325
84.2324
84.2324
84.2324
83.7739
83.7739
83.7738
83.7738
83.7738
83.7738
83.7737
83.7737
83.7737
83.7736
83.7736
83.7736
83.7735
83.7735
83.7735
83.7734
83.7734
83.7734
83.7734
83.7734
83.9092
83.9091
83.9091
83.9091
83.9091
83.9091
83.909
83.909
83.909
83.9089
83.9089
83.9089
83.9088
83.9088
83.9088
83.9087
83.9087
83.9087
83.9087
83.9087
83.9123
83.9123
83.9123
83.9123
83.9122
83.9122
83.9122
83.9122
83.9121
83.9121
83.912
83.912
83.912
83.9119
83.9119
83.9119
83.9118
83.9118
83.9118
83.9118
83.9455
83.9455
83.9455
83.9455
83.9455
83.9455
83.9455
83.9454
83.9454
83.9454
83.9453
83.9453
83.9453
83.9453
83.9452
83.9452
83.9452
83.9452
83.9452
83.9452
84.435
84.435
84.435
84.435
84.435
84.435
84.4349
84.4349
84.4349
84.4348
84.4348
84.4348
84.4347
84.4347
84.4347
84.4346
84.4346
84.4346
84.4346
84.4346
84.3499
84.3499
84.3499
84.3499
84.3499
84.3499
84.3499
84.3499
84.3499
84.3499
84.3498
84.3498
84.3498
84.3498
84.3498
84.3498
84.3498
84.3498
84.3498
84.3498
85.3719
85.3719
85.3719
85.3719
85.3719
85.3719
85.3718
85.3718
85.3718
85.3718
85.3718
85.3717
85.3717
85.3717
85.3717
85.3716
85.3716
85.3716
85.3716
85.3716
85.1297
85.1297
85.1297
85.1297
85.1297
85.1297
85.1297
85.1297
85.1297
85.1297
85.1297
85.1298
85.1298
85.1298
85.1298
85.1298
85.1298
85.1298
85.1298
85.1298
86.7587
86.7587
86.7587
86.7587
86.7587
86.7587
86.7587
86.7587
86.7587
86.7587
86.7587
86.7587
86.7587
86.7587
86.7587
86.7587
86.7587
86.7587
86.7587
86.7587
86.304
86.304
86.304
86.304
86.304
86.304
86.3041
86.3041
86.3041
86.3042
86.3042
86.3043
86.3043
86.3043
86.3044
86.3044
86.3044
86.3045
86.3045
86.3045
88.6273
88.6273
88.6273
88.6273
88.6273
88.6273
88.6274
88.6274
88.6274
88.6275
88.6275
88.6275
88.6276
88.6276
88.6276
88.6276
88.6276
88.6277
88.6277
88.6277
87.8952
87.8952
87.8952
87.8953
87.8953
87.8954
87.8954
87.8955
87.8956
87.8956
87.8957
87.8958
87.8958
87.8959
87.896
87.896
87.8961
87.8961
87.8961
87.8961
90.9831
90.9831
90.9832
90.9832
90.9833
90.9833
90.9834
90.9835
90.9835
90.9836
90.9837
90.9838
90.9839
90.9839
90.984
90.9841
90.9841
90.9841
90.9841
90.9841
97.0654
97.0654
97.0654
97.0654
97.0654
97.0654
97.0654
97.0654
97.0654
97.0654
97.0655
97.0655
97.0655
97.0655
97.0655
97.0655
97.0655
97.0655
97.0655
97.0655
94.8667
94.8667
94.8667
94.8667
94.8667
94.8667
94.8667
94.8667
94.8668
94.8668
94.8668
94.8668
94.8668
94.8668
94.8668
94.8668
94.8668
94.8668
94.8668
94.8668
95.4536
95.4536
95.4536
95.4536
95.4536
95.4536
95.4535
95.4535
95.4535
95.4535
95.4535
95.4535
95.4535
95.4534
95.4534
95.4534
95.4534
95.4534
95.4534
95.4534
93.8667
93.8667
93.8667
93.8667
93.8667
93.8666
93.8666
93.8666
93.8666
93.8666
93.8666
93.8666
93.8666
93.8666
93.8665
93.8665
93.8665
93.8665
93.8665
93.8665
94.2749
94.2749
94.2749
94.2748
94.2748
94.2748
94.2748