/*--------------------------------*- C++ -*----------------------------------*\
| =========                 |                                                 |
| \\      /  F ield         | OpenFOAM: The Open Source CFD Toolbox           |
|  \\    /   O peration     | Version:  2212                                  |
|   \\  /    A nd           | Website:  www.openfoam.com                      |
|    \\/     M anipulation  |                                                 |
\*---------------------------------------------------------------------------*/
FoamFile
{
    version     2.0;
    format      ascii;
    arch        "LSB;label=32;scalar=64";
    class       volVectorField;
    location    "6.6e-05";
    object      U;
}
// * * * * * * * * * * * * * * * * * * * * * * * * * * * * * * * * * * * * * //

dimensions      [0 1 -1 0 0 0 0];

internalField   nonuniform List<vector> 
37872
(
(-1.0264e-09 1.38161 295.109)
(-3.53288e-10 2.2928 295.133)
(-1.5735e-10 3.28252 295.105)
(-7.17434e-11 4.29927 295.044)
(-4.60824e-11 5.2903 295.011)
(-2.70548e-11 6.36424 294.971)
(-1.62598e-11 7.27361 295.022)
(-7.91002e-12 8.369 295.033)
(-1.12011e-11 9.35533 295.073)
(3.29801e-11 10.5948 295.064)
(8.30574e-11 11.5424 295.094)
(3.87853e-11 12.8142 295.065)
(-1.52047e-12 13.6691 295.045)
(2.82928e-13 14.8984 294.944)
(-2.50854e-12 15.7139 294.915)
(1.79314e-12 17.0289 294.85)
(9.18503e-13 17.8705 294.845)
(-1.77117e-12 19.2344 294.767)
(-8.73879e-12 19.9933 294.794)
(-1.75484e-11 21.3487 294.829)
(-8.5632e-12 22.0489 294.949)
(-9.41007e-12 23.4692 294.967)
(4.01045e-11 24.1168 295.059)
(4.16688e-11 25.5875 295.015)
(-5.07391e-12 26.2818 295.059)
(-6.72141e-12 27.9246 294.954)
(-2.88779e-12 28.558 294.932)
(-1.38511e-11 30.4059 294.765)
(-1.26232e-11 31.1754 294.788)
(3.53396e-11 32.9803 294.917)
(3.75806e-11 32.8796 295.02)
(-1.33417e-11 34.4622 294.19)
(-8.85209e-12 34.8356 294.185)
(-1.27692e-11 36.9317 293.946)
(-1.67352e-11 36.8284 294.268)
(-9.62174e-12 39.2088 294.131)
(-2.10193e-11 38.8409 294.486)
(-1.59571e-11 41.4426 294.146)
(3.32606e-11 40.8148 294.454)
(3.51512e-11 43.658 293.958)
(-1.07745e-11 42.8174 294.129)
(-1.44777e-11 46.0275 293.571)
(-1.6459e-11 44.8627 293.932)
(-2.35923e-11 47.8503 293.388)
(-2.47602e-11 46.655 291.785)
(-1.39005e-11 49.9175 280.585)
(-1.44667e-11 38.2961 217.832)
(-1.02488e-09 1.35639 284.141)
(-3.55004e-10 2.28659 284.162)
(-1.57589e-10 3.29026 284.195)
(-7.85149e-11 4.30823 284.17)
(-4.55863e-11 5.29701 284.156)
(-2.69013e-11 6.34354 284.126)
(-2.01823e-11 7.23958 284.164)
(-7.1931e-12 8.33932 284.154)
(3.35093e-11 9.32925 284.17)
(3.26698e-11 10.5652 284.15)
(-7.32331e-12 11.5135 284.176)
(-7.26499e-12 12.7947 284.152)
(-1.81019e-12 13.6669 284.149)
(1.87311e-13 14.8978 284.077)
(-2.48526e-12 15.7035 284.065)
(1.57468e-12 17.0107 284.024)
(8.83489e-13 17.8526 284.03)
(-1.88426e-12 19.2016 283.992)
(3.67959e-11 19.9179 284.038)
(7.46291e-11 21.2499 284.085)
(3.64535e-11 21.9574 284.205)
(-9.14005e-12 23.3884 284.223)
(-4.6276e-12 24.0495 284.285)
(-4.35827e-12 25.5298 284.23)
(-5.29625e-12 26.2233 284.263)
(-6.54188e-12 27.8951 284.158)
(-2.24936e-12 28.541 284.126)
(3.15457e-11 30.3705 283.961)
(3.27916e-11 31.0518 284.023)
(-9.30941e-12 32.844 284.177)
(-6.66981e-12 33.076 284.313)
(3.17439e-11 34.6648 283.596)
(3.45564e-11 34.8213 283.65)
(3.18637e-11 36.8267 283.472)
(2.77204e-11 36.6811 283.763)
(-9.61565e-12 39.0539 283.578)
(2.27442e-11 38.7415 283.881)
(2.93195e-11 41.3704 283.545)
(-9.89569e-12 40.7819 283.862)
(-9.56565e-12 43.6654 283.392)
(-1.06966e-11 42.8182 283.623)
(-1.45666e-11 45.9805 283.099)
(-1.65207e-11 44.793 283.454)
(2.08178e-11 47.9729 282.847)
(1.75661e-11 46.3856 281.162)
(-1.43405e-11 47.3209 268.835)
(-1.44462e-11 34.9089 197.601)
(-1.02379e-09 1.33114 288.25)
(-3.56837e-10 2.26932 288.259)
(-1.57825e-10 3.28785 288.298)
(-8.08326e-11 4.31302 288.306)
(-4.971e-11 5.30047 288.314)
(-2.66379e-11 6.32791 288.303)
(-1.03327e-11 7.21465 288.315)
(-1.7867e-12 8.31891 288.298)
(-1.30846e-11 9.31012 288.296)
(-1.49995e-11 10.5401 288.282)
(-8.19096e-12 11.4874 288.298)
(-7.87878e-12 12.7719 288.29)
(4.45521e-11 13.6519 288.299)
(4.75951e-11 14.884 288.273)
(-2.47831e-12 15.6812 288.27)
(1.34856e-12 16.9836 288.252)
(7.54861e-13 17.8222 288.248)
(-2.055e-12 19.1595 288.229)
(-1.01352e-11 19.8513 288.245)
(-1.92531e-11 21.1672 288.247)
(-9.65008e-12 21.8795 288.282)
(3.79314e-11 23.3245 288.249)
(4.12501e-11 23.9965 288.262)
(-5.39886e-12 25.4823 288.213)
(-5.45558e-12 26.1752 288.252)
(-6.30501e-12 27.8662 288.194)
(-1.73058e-12 28.5181 288.223)
(-1.67235e-11 30.3169 288.114)
(-1.36879e-11 30.9214 288.194)
(-7.63401e-12 32.6934 288.218)
(3.96361e-11 33.1664 288.315)
(3.21948e-11 34.7755 288.016)
(3.42831e-11 34.7656 288.146)
(3.14838e-11 36.7209 288.022)
(-1.7869e-11 36.5669 288.209)
(3.82397e-11 38.9464 287.983)
(2.30082e-11 38.6638 288.153)
(2.89284e-11 41.3023 287.854)
(3.59471e-11 40.7335 288.078)
(3.83691e-11 43.64 287.707)
(8.05277e-11 42.7883 287.97)
(3.34431e-11 45.9232 287.545)
(-1.63486e-11 44.7393 287.841)
(-2.68839e-11 48.089 287.217)
(-1.96231e-11 46.3539 284.936)
(-1.4942e-11 46.4742 272.456)
(-1.44095e-11 33.7387 198.142)
(-1.02527e-09 1.30618 289.521)
(-3.59598e-10 2.24752 289.518)
(-1.58167e-10 3.27744 289.55)
(-8.32203e-11 4.30967 289.566)
(-4.27422e-11 5.29463 289.582)
(-2.62186e-11 6.31151 289.578)
(-2.24393e-11 7.19309 289.582)
(-1.34167e-11 8.29961 289.565)
(-8.85318e-12 9.28857 289.56)
(-5.24527e-12 10.512 289.551)
(-8.7839e-12 11.4582 289.563)
(-8.36165e-12 12.7413 289.562)
(-2.30037e-11 13.622 289.575)
(-2.1809e-11 14.8541 289.565)
(-2.68023e-12 15.6435 289.567)
(1.11157e-12 16.945 289.553)
(4.91379e-13 17.7777 289.544)
(-2.46148e-12 19.1092 289.53)
(-1.62334e-12 19.7949 289.534)
(1.78095e-12 21.104 289.52)
(5.41421e-11 21.8179 289.524)
(2.92817e-11 23.2708 289.475)
(-2.29892e-11 23.9465 289.476)
(-6.27643e-12 25.4322 289.431)
(-5.53632e-12 26.1225 289.475)
(-5.95326e-12 27.8192 289.438)
(-1.73884e-12 28.476 289.49)
(-4.22061e-12 30.2343 289.404)
(-1.23724e-12 30.7894 289.484)
(5.40946e-11 32.5365 289.461)
(3.04709e-11 33.1432 289.538)
(-2.85377e-11 34.7574 289.389)
(3.49739e-11 34.6668 289.543)
(3.22511e-11 36.6082 289.431)
(-6.02412e-12 36.4832 289.584)
(-3.50013e-11 38.8747 289.352)
(-3.52779e-11 38.6051 289.479)
(-3.49187e-11 41.2262 289.198)
(-3.22799e-11 40.667 289.383)
(-3.48165e-11 43.5678 289.047)
(-5.4653e-11 42.723 289.314)
(-3.88094e-11 45.8482 288.924)
(-1.53457e-11 44.6883 289.198)
(-1.50487e-11 48.177 288.571)
(-1.96786e-11 46.442 286.752)
(-1.56324e-11 46.4845 274.279)
(-1.43634e-11 33.7494 199.471)
(-1.02747e-09 1.29129 289.95)
(-3.61794e-10 2.22664 289.932)
(-1.53438e-10 3.25604 289.956)
(-7.50755e-11 4.29432 289.973)
(-4.45307e-11 5.28225 289.992)
(-3.06359e-11 6.29934 289.991)
(-1.78369e-11 7.1817 289.994)
(-9.47069e-12 8.2891 289.98)
(-1.00876e-11 9.27319 289.976)
(-8.4269e-12 10.4892 289.97)
(-8.97448e-12 11.4313 289.982)
(-8.62172e-12 12.7119 289.985)
(-2.6529e-13 13.5914 290)
(2.40488e-12 14.8248 289.996)
(-2.6001e-12 15.6089 290)
(9.38627e-13 16.9132 289.987)
(1.53012e-13 17.7417 289.975)
(-2.81147e-12 19.0704 289.959)
(-6.32365e-12 19.7561 289.958)
(-4.99883e-12 21.0672 289.937)
(-1.15967e-11 21.7854 289.928)
(-1.4812e-11 23.2413 289.873)
(-4.8616e-12 23.9104 289.874)
(-6.09639e-12 25.3866 289.832)
(-5.52026e-12 26.0708 289.882)
(-5.61902e-12 27.7596 289.861)
(-2.36439e-12 28.4282 289.919)
(-1.13125e-11 30.164 289.848)
(-7.21398e-12 30.6996 289.924)
(-2.16241e-11 32.4333 289.879)
(-1.47951e-11 33.0764 289.945)
(-6.70547e-13 34.6801 289.862)
(3.65074e-11 34.5791 290.023)
(3.35796e-11 36.5257 289.911)
(-1.06127e-11 36.4373 290.051)
(-2.12193e-12 38.8378 289.825)
(-1.03054e-11 38.5705 289.936)
(-6.64291e-12 41.167 289.667)
(-3.91905e-12 40.6123 289.831)
(-2.75896e-12 43.4938 289.51)
(1.38347e-12 42.6572 289.771)
(4.91699e-11 45.7922 289.399)
(3.51594e-11 44.6505 289.66)
(-2.03187e-11 48.1941 289.051)
(-1.96667e-11 46.4886 287.7)
(2.0904e-11 46.5887 275.393)
(1.22152e-11 33.901 201.097)
(-1.03151e-09 1.29142 290.08)
(-3.59588e-10 2.21726 290.053)
(-1.49856e-10 3.2366 290.072)
(-8.16264e-11 4.27699 290.087)
(-4.40113e-11 5.26789 290.107)
(-2.16206e-11 6.28643 290.108)
(-1.0296e-11 7.16959 290.11)
(-6.27668e-12 8.27677 290.099)
(-9.83164e-12 9.25577 290.097)
(-7.7528e-12 10.4658 290.093)
(-8.96258e-12 11.4039 290.106)
(-8.68796e-12 12.683 290.11)
(-4.86288e-12 13.5616 290.125)
(-2.89831e-12 14.7974 290.125)
(-2.59018e-12 15.579 290.129)
(7.27927e-13 16.8858 290.114)
(-2.19966e-13 17.7113 290.101)
(-3.07038e-12 19.0373 290.084)
(3.44111e-11 19.7241 290.08)
(3.62953e-11 21.0374 290.056)
(-1.9202e-12 21.7598 290.042)
(-9.11057e-12 23.2131 289.985)
(3.2071e-11 23.8734 289.989)
(3.41671e-11 25.3377 289.948)
(-5.46183e-12 26.014 290)
(-5.33746e-12 27.6851 289.991)
(-2.74292e-12 28.3737 290.049)
(-1.01245e-11 30.097 289.99)
(3.21021e-11 30.6317 290.058)
(9.47425e-11 32.3547 290.002)
(4.28967e-11 32.9892 290.063)
(-8.61849e-12 34.602 290)
(-2.54252e-12 34.5022 290.176)
(-5.58144e-12 36.4528 290.059)
(-1.02801e-11 36.3928 290.193)
(2.8893e-11 38.802 289.957)
(2.28294e-11 38.5376 290.079)
(-1.613e-11 41.1207 289.814)
(2.88237e-11 40.5669 289.97)
(2.92429e-11 43.4339 289.645)
(2.60366e-11 42.5965 289.912)
(2.59911e-11 45.7414 289.527)
(-1.34442e-11 44.613 289.801)
(-1.87222e-11 48.1915 289.181)
(-1.97388e-11 46.4974 288.071)
(-1.60025e-11 46.6699 275.87)
(-1.47742e-11 34.0231 202.155)
(-1.04361e-09 1.3199 290.054)
(-3.71527e-10 2.21977 289.996)
(-1.57996e-10 3.20386 289.977)
(-8.33933e-11 4.23958 289.971)
(-5.17407e-11 5.23297 289.988)
(-3.71631e-11 6.25479 289.997)
(-1.77171e-11 7.138 290.004)
(5.1467e-13 8.24102 290.011)
(-1.91282e-12 9.20766 290.029)
(-7.17304e-12 10.4069 290.039)
(-8.50108e-12 11.3369 290.053)
(-8.54943e-12 12.6131 290.062)
(-5.59037e-12 13.489 290.077)
(-4.09171e-12 14.7303 290.086)
(-2.35262e-12 15.513 290.093)
(1.26262e-13 16.8252 290.064)
(-1.24633e-12 17.6458 290.041)
(-3.55915e-12 18.9676 290.006)
(-4.11671e-11 19.6584 289.99)
(-4.52093e-11 20.9778 289.954)
(-2.77739e-12 21.7067 289.931)
(-1.02225e-11 23.1437 289.891)
(-4.53436e-11 23.7823 289.917)
(-4.68903e-11 25.2131 289.893)
(-5.4148e-12 25.8721 289.964)
(-4.97912e-12 27.5397 289.941)
(-2.83337e-12 28.2418 290.05)
(-1.24338e-11 29.9755 289.969)
(-2.89561e-11 30.5164 290.067)
(-1.19678e-10 32.2261 289.939)
(-4.73562e-11 32.7998 289.978)
(-8.2308e-12 34.4828 290.022)
(-2.62193e-12 34.409 290.194)
(-4.7137e-12 36.3669 290.058)
(-1.12791e-11 36.3364 290.188)
(2.76801e-11 38.7526 289.967)
(2.31404e-11 38.4915 290.099)
(-1.55238e-11 41.0688 289.838)
(2.97361e-11 40.5117 289.982)
(3.00966e-11 43.3588 289.664)
(-1.18779e-11 42.5212 289.907)
(-1.26232e-11 45.6756 289.523)
(2.61779e-11 44.5618 289.794)
(2.15536e-11 48.1642 289.185)
(-1.9686e-11 46.4784 288.169)
(-1.4659e-11 46.7335 276.053)
(-1.51472e-11 34.1178 202.732)
(-1.04473e-09 1.35738 289.944)
(-3.61046e-10 2.25747 289.897)
(-1.57725e-10 3.23225 289.847)
(-8.15264e-11 4.24942 289.778)
(-3.65318e-11 5.23053 289.766)
(-2.18886e-11 6.24816 289.766)
(-1.85956e-11 7.12325 289.785)
(-2.51055e-11 8.22063 289.816)
(-1.77557e-11 9.19058 289.859)
(-6.57572e-12 10.3988 289.878)
(-7.33591e-12 11.3307 289.888)
(-7.6407e-12 12.6053 289.878)
(-5.03927e-12 13.4763 289.874)
(-3.99549e-12 14.7193 289.861)
(-2.21732e-12 15.5143 289.86)
(-3.97594e-13 16.8373 289.83)
(-1.4378e-12 17.6609 289.82)
(-2.88805e-12 18.9807 289.777)
(1.25202e-10 19.6609 289.768)
(1.18417e-10 20.9741 289.722)
(-3.37083e-12 21.6889 289.742)
(-8.03505e-12 23.1177 289.743)
(3.92198e-11 23.7605 289.805)
(3.32905e-11 25.1837 289.776)
(-5.2971e-12 25.8358 289.82)
(-5.37519e-12 27.5019 289.771)
(2.79021e-13 28.181 289.804)
(-9.11196e-12 29.9292 289.794)
(1.42471e-11 30.4561 289.832)
(1.09486e-10 32.2047 289.759)
(3.19313e-11 32.7585 289.809)
(-7.8812e-12 34.2832 289.883)
(-3.53269e-12 34.2678 290.032)
(-4.11492e-12 36.237 289.848)
(-1.20078e-11 36.2232 289.98)
(-4.29801e-11 38.6423 289.769)
(2.41445e-11 38.3827 289.926)
(6.34428e-11 40.964 289.67)
(-3.70981e-11 40.4125 289.804)
(-3.69446e-11 43.2401 289.496)
(-1.20001e-11 42.3936 289.678)
(5.83168e-11 45.5566 289.285)
(9.219e-11 44.4543 289.564)
(2.2233e-11 48.0643 288.983)
(1.85055e-11 46.4341 288.131)
(6.34118e-11 46.7864 276.094)
(1.14104e-11 34.1959 203.085)
(-1.04455e-09 1.37779 289.727)
(-3.71035e-10 2.29047 289.688)
(-1.56866e-10 3.27576 289.663)
(-9.15957e-11 4.26993 289.629)
(-6.1923e-11 5.21578 289.636)
(-3.82973e-11 6.21357 289.641)
(-1.78029e-11 7.0658 289.649)
(-1.28201e-12 8.14908 289.668)
(-1.92685e-12 9.11508 289.706)
(-6.43613e-12 10.3325 289.728)
(-7.29163e-12 11.2754 289.747)
(-7.94214e-12 12.5545 289.746)
(-5.81826e-12 13.426 289.726)
(-5.42833e-12 14.6614 289.7)
(-2.86269e-12 15.4499 289.691)
(-1.29454e-12 16.7708 289.674)
(-2.15926e-12 17.5866 289.68)
(-3.67825e-12 18.9154 289.65)
(-1.3002e-10 19.5987 289.637)
(-1.23733e-10 20.9038 289.608)
(-3.34127e-12 21.5839 289.629)
(7.76673e-11 22.9982 289.631)
(3.22895e-11 23.6375 289.688)
(-4.92248e-11 25.0747 289.671)
(-5.59402e-12 25.7337 289.704)
(-5.42261e-12 27.3965 289.65)
(8.10156e-11 28.0737 289.684)
(7.28087e-11 29.8208 289.625)
(5.82628e-11 30.3885 289.706)
(-4.66131e-11 32.0783 289.558)
(-4.09884e-11 32.5532 289.711)
(-7.79603e-12 34.1562 289.709)
(7.31466e-11 34.1995 289.832)
(7.47714e-11 36.209 289.68)
(7.37173e-11 36.1554 289.82)
(1.08681e-10 38.5775 289.611)
(2.45221e-11 38.319 289.76)
(-1.73573e-12 40.9507 289.505)
(9.30061e-11 40.392 289.648)
(1.72793e-10 43.2239 289.327)
(6.19567e-11 42.3819 289.484)
(-8.98901e-11 45.5265 289.117)
(-5.11256e-11 44.4035 289.403)
(2.17778e-11 47.9826 288.843)
(-1.9189e-11 46.3681 288.02)
(-3.99933e-11 46.8485 276.03)
(-1.63623e-11 34.2573 203.312)
(-1.04753e-09 1.37808 289.553)
(-3.57952e-10 2.29364 289.518)
(-1.55734e-10 3.26552 289.481)
(-7.19532e-11 4.25115 289.457)
(-3.09165e-11 5.19974 289.467)
(-2.32364e-11 6.20843 289.458)
(-1.93676e-11 7.0616 289.456)
(-2.10303e-11 8.13668 289.461)
(-1.1515e-11 9.09919 289.483)
(-5.21371e-12 10.3158 289.493)
(-5.67046e-12 11.2574 289.511)
(-7.01484e-12 12.5603 289.503)
(-5.36153e-12 13.4438 289.476)
(7.46922e-11 14.6735 289.442)
(7.45497e-11 15.4508 289.431)
(-1.74898e-12 16.7624 289.404)
(-2.4505e-12 17.5859 289.415)
(-2.4325e-12 18.9136 289.392)
(1.06909e-10 19.5852 289.401)
(1.13948e-10 20.8782 289.395)
(-3.16649e-12 21.5592 289.446)
(-8.79511e-11 22.9726 289.45)
(-4.59379e-11 23.6046 289.504)
(3.982e-11 25.0565 289.478)
(-5.3269e-12 25.7186 289.497)
(-6.42833e-12 27.3817 289.44)
(-8.10073e-11 28.0352 289.428)
(-9.07139e-11 29.7619 289.385)
(-6.45129e-11 30.3139 289.42)
(2.4008e-11 32.0264 289.379)
(2.80014e-11 32.4574 289.469)
(-7.99083e-12 33.9945 289.566)
(-7.27708e-11 34.1079 289.707)
(-8.47299e-11 36.0904 289.542)
(-7.49988e-11 36.06 289.61)
(-1.2248e-10 38.4909 289.368)
(-5.18032e-11 38.224 289.524)
(-2.83435e-11 40.8607 289.302)
(-1.08772e-10 40.3051 289.47)
(-1.13767e-10 43.1644 289.165)
(-1.35786e-11 42.3074 289.326)
(1.30242e-10 45.4184 288.926)
(8.58013e-11 44.2969 289.21)
(2.30385e-11 47.8583 288.643)
(1.85862e-11 46.2908 287.868)
(-8.09866e-12 46.8859 275.877)
(-1.70687e-11 34.3023 203.471)
(-1.04527e-09 1.40662 289.335)
(-3.6493e-10 2.33094 289.324)
(-1.54555e-10 3.29964 289.316)
(-9.88656e-11 4.25889 289.312)
(-6.40978e-11 5.19031 289.32)
(-3.09326e-11 6.19122 289.32)
(-1.81848e-11 7.02719 289.322)
(-2.86263e-12 8.08819 289.313)
(-2.68823e-12 9.04625 289.316)
(-4.70289e-12 10.2614 289.32)
(-5.90878e-12 11.2095 289.324)
(-7.82805e-12 12.5217 289.313)
(-5.83524e-12 13.4008 289.287)
(-8.55852e-11 14.6234 289.265)
(-8.2884e-11 15.3919 289.266)
(-3.17491e-12 16.6895 289.25)
(-2.84122e-12 17.5035 289.267)
(-2.95793e-12 18.8444 289.268)
(-1.05869e-10 19.5091 289.29)
(-1.2675e-10 20.7722 289.301)
(-3.60864e-12 21.4401 289.352)
(6.66651e-11 22.8479 289.344)
(3.54872e-11 23.5013 289.371)
(-4.6338e-11 24.9592 289.344)
(-6.35618e-12 25.6241 289.353)
(-6.63733e-12 27.2922 289.289)
(7.54673e-11 27.9449 289.266)
(6.73576e-11 29.6616 289.194)
(4.3766e-11 30.2359 289.261)
(-3.59348e-11 31.8666 289.196)
(-4.10977e-11 32.247 289.375)
(-7.46891e-12 33.857 289.361)
(7.3192e-11 34.0272 289.46)
(7.6277e-11 36.0857 289.32)
(1.32168e-10 36.0546 289.411)
(1.78714e-10 38.4594 289.203)
(2.39143e-11 38.1601 289.339)
(5.50287e-12 40.7986 289.066)
(8.95799e-11 40.2516 289.233)
(9.12647e-11 43.1303 288.914)
(-1.35926e-11 42.2788 289.111)
(-1.65672e-10 45.3952 288.755)
(-1.14836e-10 44.2456 289.037)
(-5.71315e-11 47.7732 288.469)
(1.87072e-11 46.2136 287.695)
(5.74979e-11 46.879 275.696)
(1.00787e-11 34.3305 203.581)
(-1.04162e-09 1.39869 289.078)
(-3.54595e-10 2.31129 289.073)
(-1.55263e-10 3.26478 289.096)
(-6.29398e-11 4.22848 289.115)
(-3.25764e-11 5.17466 289.124)
(-2.85453e-11 6.18201 289.119)
(-1.0256e-11 7.03125 289.114)
(-1.42094e-11 8.09704 289.088)
(-1.12325e-11 9.0436 289.069)
(-3.23381e-12 10.2549 289.043)
(-4.65003e-12 11.2027 289.034)
(7.24841e-11 12.5196 289.022)
(7.27495e-11 13.408 289.01)
(7.59216e-11 14.6222 288.999)
(7.58929e-11 15.3863 289.002)
(-3.25491e-12 16.6805 288.991)
(-3.21414e-12 17.4796 289.013)
(-2.33277e-12 18.7971 289.012)
(1.07531e-10 19.4501 289.054)
(1.20038e-10 20.7412 289.074)
(-2.94246e-12 21.4155 289.106)
(-4.34283e-12 22.8431 289.089)
(2.9875e-11 23.4826 289.102)
(3.30814e-11 24.9359 289.073)
(-6.20978e-12 25.6049 289.077)
(-7.66885e-12 27.2899 289.048)
(-3.39147e-13 27.9562 289.034)
(-1.00039e-11 29.6315 288.961)
(-5.09686e-11 30.1529 288.991)
(1.71299e-11 31.7904 288.989)
(3.25949e-11 32.1573 289.063)
(-7.9843e-12 33.7349 289.079)
(-7.12352e-11 33.9454 289.18)
(-8.47152e-11 35.9963 289.072)
(-1.57469e-10 35.9431 289.143)
(-2.01933e-10 38.3468 288.901)
(2.44321e-11 38.0689 289.038)
(5.25609e-11 40.7243 288.765)
(-1.07057e-10 40.17 288.965)
(-1.11658e-10 43.049 288.634)
(-1.27103e-11 42.2037 288.89)
(1.3259e-10 45.2796 288.482)
(8.48421e-11 44.1495 288.757)
(2.31732e-11 47.654 288.192)
(-1.90486e-11 46.1383 287.438)
(-8.36023e-11 46.8769 275.45)
(-1.72258e-11 34.3406 203.595)
(-1.03502e-09 1.38646 288.854)
(-3.5898e-10 2.29636 288.869)
(-1.53253e-10 3.25278 288.894)
(-1.05322e-10 4.22031 288.887)
(-7.50992e-11 5.1664 288.89)
(-3.03755e-11 6.17409 288.889)
(-2.5053e-11 7.02114 288.882)
(-1.2653e-11 8.08557 288.866)
(-3.86405e-12 9.03152 288.85)
(-1.76812e-12 10.2331 288.829)
(-4.86571e-12 11.1668 288.807)
(-8.76593e-11 12.4729 288.791)
(-8.40107e-11 13.3462 288.785)
(-8.52471e-11 14.5542 288.788)
(-8.31979e-11 15.3179 288.797)
(-4.59027e-12 16.6049 288.792)
(7.38868e-11 17.3944 288.812)
(7.60208e-11 18.7136 288.839)
(-1.1765e-10 19.3673 288.877)
(-1.2465e-10 20.6503 288.876)
(-3.4355e-12 21.3266 288.898)
(-1.08267e-11 22.7626 288.887)
(-3.31154e-11 23.4005 288.885)
(-4.01891e-11 24.8607 288.867)
(-7.03637e-12 25.5201 288.855)
(7.04795e-11 27.1833 288.806)
(7.68196e-11 27.8453 288.774)
(-1.00824e-11 29.5192 288.732)
(3.94714e-11 30.0522 288.772)
(-2.75458e-11 31.6552 288.726)
(-4.32067e-11 32.0159 288.834)
(-7.24683e-12 33.6454 288.731)
(1.3636e-10 33.8559 288.795)
(1.46681e-10 35.9084 288.64)
(1.39775e-10 35.9189 288.733)
(2.50657e-10 38.3477 288.543)
(2.33695e-11 38.0568 288.685)
(-7.72325e-11 40.6765 288.409)
(8.63739e-11 40.1213 288.604)
(8.73048e-11 42.9952 288.251)
(-1.85003e-11 42.1322 288.507)
(-1.55931e-10 45.2646 288.126)
(-3.8289e-11 44.1136 288.414)
(2.40548e-11 47.6079 287.852)
(-1.88583e-11 46.0704 287.076)
(2.10707e-11 46.8497 275.139)
(-1.71506e-11 34.3235 203.298)
(-1.03293e-09 1.36017 288.438)
(-3.50384e-10 2.27098 288.46)
(-1.51733e-10 3.23305 288.498)
(-6.09945e-11 4.20806 288.515)
(-3.35541e-11 5.1475 288.526)
(-2.82024e-11 6.15675 288.522)
(-2.34945e-12 7.01258 288.516)
(-1.34072e-11 8.0859 288.493)
(-1.91792e-11 9.02934 288.464)
(-6.35154e-13 10.238 288.44)
(-4.39414e-12 11.1694 288.411)
(6.94592e-11 12.4814 288.399)
(7.14127e-11 13.3497 288.391)
(7.38854e-11 14.5477 288.39)
(7.40403e-11 15.3048 288.403)
(7.53852e-11 16.5887 288.409)
(-2.87787e-12 17.3672 288.434)
(-8.04699e-11 18.6756 288.445)
(1.14442e-10 19.3251 288.484)
(1.88473e-10 20.62 288.497)
(7.47559e-11 21.3038 288.514)
(-6.09942e-12 22.7371 288.498)
(1.98837e-11 23.3705 288.483)
(2.87507e-11 24.8408 288.466)
(6.90945e-11 25.501 288.433)
(-6.28713e-12 27.2037 288.394)
(-8.00628e-11 27.8631 288.379)
(6.61505e-11 29.5182 288.317)
(2.44655e-11 30.0083 288.339)
(6.53707e-12 31.608 288.323)
(3.01791e-11 31.9811 288.386)
(-7.35409e-12 33.5858 288.32)
(-1.27551e-10 33.802 288.386)
(-1.46431e-10 35.8826 288.245)
(-1.53131e-10 35.8556 288.33)
(-2.665e-10 38.2363 288.11)
(-5.19738e-11 37.9458 288.257)
(5.65805e-11 40.5803 287.995)
(-1.03984e-10 40.0479 288.193)
(-1.04265e-10 42.9189 287.864)
(6.74064e-11 42.0692 288.105)
(1.93591e-10 45.1742 287.718)
(9.14755e-12 44.0167 287.996)
(-5.38501e-11 47.5158 287.419)
(1.92752e-11 46.0076 286.683)
(2.3343e-11 46.8181 274.769)
(3.53739e-11 34.3027 203.046)
(-1.03244e-09 1.34946 288.075)
(-3.50515e-10 2.24904 288.08)
(-1.45294e-10 3.21315 288.117)
(-9.2607e-11 4.19715 288.132)
(-6.60652e-11 5.14881 288.15)
(-2.76631e-11 6.16141 288.142)
(-3.01639e-11 7.01148 288.122)
(-1.77515e-11 8.08671 288.087)
(-1.93856e-12 9.02831 288.046)
(1.54451e-12 10.2317 288.009)
(-3.73873e-12 11.1512 287.981)
(-8.54603e-11 12.4397 287.967)
(-8.07015e-11 13.2932 287.979)
(-8.21806e-11 14.4862 287.996)
(-3.66365e-12 15.2355 288.02)
(7.42991e-11 16.5087 288.037)
(7.19824e-11 17.2795 288.068)
(7.28401e-11 18.5881 288.097)
(-1.15307e-10 19.2454 288.135)
(-1.90401e-10 20.5542 288.15)
(-7.84655e-11 21.2362 288.16)
(-1.03905e-11 22.6923 288.14)
(-2.71647e-11 23.3262 288.133)
(4.40328e-11 24.7826 288.097)
(7.04364e-11 25.4553 288.077)
(6.82026e-11 27.1011 288)
(7.34334e-11 27.7592 287.99)
(-8.76411e-11 29.4088 287.95)
(-3.18288e-11 29.9119 287.987)
(-1.86818e-11 31.4805 287.943)
(-3.6741e-11 31.8739 288.022)
(-7.76925e-12 33.5265 287.926)
(1.20674e-10 33.749 288.01)
(1.29775e-10 35.8137 287.838)
(1.25723e-10 35.7851 287.89)
(2.29585e-10 38.2008 287.676)
(2.14063e-11 37.9204 287.82)
(-7.97963e-11 40.555 287.58)
(8.49634e-11 40.0102 287.754)
(8.39386e-11 42.8825 287.443)
(-9.34592e-11 42.0135 287.674)
(-2.17021e-10 45.1315 287.288)
(-3.95408e-11 43.9889 287.578)
(2.17782e-11 47.4687 287.034)
(1.97078e-11 45.9397 286.277)
(2.11825e-11 46.7722 274.373)
(-7.02273e-11 34.2733 202.672)
(-1.03028e-09 1.32768 287.515)
(-3.60624e-10 2.22255 287.534)
(-1.567e-10 3.17668 287.566)
(-5.82296e-11 4.15893 287.589)
(-3.33838e-11 5.12538 287.614)
(-2.64222e-11 6.16279 287.611)
(-1.12076e-12 7.03312 287.592)
(-1.28525e-11 8.1191 287.553)
(-1.92093e-11 9.05068 287.509)
(1.67974e-12 10.2411 287.47)
(-3.91198e-12 11.1444 287.446)
(6.52565e-11 12.4215 287.44)
(6.92064e-11 13.2705 287.46)
(7.29638e-11 14.4584 287.481)
(-2.12089e-12 15.2116 287.511)
(-7.96e-11 16.4954 287.524)
(-7.88855e-11 17.2525 287.557)
(-7.86174e-11 18.5538 287.579)
(1.00282e-10 19.1961 287.624)
(1.84104e-10 20.5193 287.646)
(7.38084e-11 21.2077 287.645)
(-3.93505e-12 22.6679 287.637)
(2.34784e-11 23.2954 287.628)
(-5.21517e-11 24.7748 287.59)
(-8.4822e-11 25.4428 287.572)
(-8.30511e-11 27.1261 287.513)
(2.85409e-12 27.7589 287.525)
(1.47977e-10 29.4002 287.473)
(2.12881e-11 29.8702 287.508)
(-4.20443e-12 31.46 287.46)
(9.67197e-11 31.8287 287.525)
(1.50631e-10 33.4391 287.474)
(2.75073e-11 33.6658 287.564)
(2.03831e-11 35.7773 287.428)
(-6.58927e-11 35.7767 287.526)
(-1.72459e-10 38.1548 287.292)
(1.01814e-10 37.8303 287.384)
(1.39443e-10 40.4512 287.13)
(-1.04566e-10 39.9179 287.32)
(-1.05663e-10 42.7882 287.045)
(1.48115e-10 41.9496 287.293)
(2.66869e-10 45.0735 286.932)
(1.03379e-11 43.899 287.19)
(-5.38077e-11 47.3619 286.61)
(-1.82253e-11 45.8683 285.871)
(-2.98813e-11 46.7176 273.955)
(3.52937e-11 34.2324 202.365)
(-1.04147e-09 1.32518 287.084)
(-3.53127e-10 2.2083 287.093)
(-1.41654e-10 3.16338 287.122)
(-9.4693e-11 4.15596 287.136)
(-7.10925e-11 5.1203 287.15)
(-2.70674e-11 6.15432 287.144)
(-2.24268e-11 7.0226 287.136)
(-8.05887e-12 8.1152 287.101)
(-1.67569e-12 9.05333 287.068)
(3.08313e-12 10.2395 287.026)
(-2.83107e-12 11.1315 287.01)
(-8.54856e-11 12.3917 286.995)
(-8.0188e-11 13.2105 287.012)
(-8.13721e-11 14.3877 287.043)
(-3.6532e-12 15.1304 287.07)
(7.61352e-11 16.4006 287.111)
(7.30051e-11 17.1569 287.158)
(7.39351e-11 18.4619 287.184)
(-9.82503e-11 19.1162 287.23)
(-2.04236e-10 20.4478 287.246)
(-8.13771e-11 21.146 287.248)
(-7.35355e-12 22.6133 287.206)
(-3.1464e-11 23.2467 287.202)
(4.85876e-11 24.7068 287.142)
(7.27828e-11 25.3839 287.147)
(7.11158e-11 27.0154 287.099)
(-1.12121e-11 27.6566 287.137)
(-9.36836e-11 29.3035 287.082)
(4.89597e-11 29.7908 287.125)
(-6.87427e-12 31.3321 287.071)
(-1.09932e-10 31.7183 287.126)
(-9.22833e-11 33.3542 287.024)
(5.37677e-11 33.6078 287.114)
(-3.25877e-11 35.7102 286.982)
(1.21823e-10 35.7022 287.067)
(2.20449e-10 38.11 286.838)
(-1.3522e-10 37.7984 286.94)
(-1.66492e-10 40.4235 286.708)
(8.78966e-11 39.8615 286.861)
(1.69879e-10 42.7315 286.596)
(-1.03671e-10 41.8729 286.84)
(-3.0614e-10 45.0095 286.493)
(3.97181e-11 43.863 286.773)
(1.05627e-10 47.3477 286.222)
(-1.81385e-11 45.7991 285.445)
(-1.22131e-11 46.6582 273.516)
(-1.58639e-11 34.179 201.939)
(-1.04152e-09 1.3114 286.541)
(-3.66414e-10 2.19452 286.547)
(-1.56024e-10 3.14665 286.556)
(-5.27779e-11 4.13304 286.568)
(-2.82938e-11 5.11234 286.584)
(-2.31674e-11 6.15952 286.577)
(-5.92127e-12 7.04117 286.579)
(-1.61615e-11 8.13409 286.546)
(-1.71347e-11 9.06258 286.528)
(2.02155e-12 10.2386 286.494)
(-3.27495e-12 11.1129 286.477)
(6.73963e-11 12.3631 286.467)
(7.24388e-11 13.1751 286.493)
(7.58873e-11 14.3597 286.52)
(-4.73106e-13 15.0958 286.551)
(-8.10725e-11 16.3595 286.59)
(-8.0684e-11 17.1155 286.637)
(-1.12428e-12 18.4073 286.666)
(1.63084e-10 19.0523 286.701)
(1.93089e-10 20.4188 286.712)
(7.73547e-11 21.1247 286.7)
(-1.11076e-11 22.6015 286.67)
(9.97732e-11 23.2365 286.676)
(2.67762e-11 24.7046 286.613)
(-8.79401e-11 25.3426 286.606)
(-8.62731e-11 26.9916 286.589)
(7.92265e-12 27.6273 286.615)
(7.69231e-11 29.252 286.575)
(-6.52579e-11 29.7196 286.617)
(-1.3764e-11 31.3165 286.552)
(9.71001e-11 31.6813 286.593)
(1.56481e-10 33.2781 286.527)
(9.15037e-11 33.5066 286.609)
(1.01465e-10 35.6189 286.481)
(-1.43354e-10 35.6385 286.591)
(-2.41265e-10 38.0711 286.392)
(1.09509e-10 37.7337 286.515)
(2.22888e-10 40.3363 286.25)
(-2.88796e-11 39.7573 286.405)
(-1.91049e-10 42.6197 286.137)
(8.18608e-11 41.7747 286.388)
(2.75806e-10 44.9303 286.064)
(-7.81667e-11 43.7932 286.343)
(-1.39913e-10 47.2437 285.759)
(2.01469e-11 45.7386 284.989)
(3.33536e-11 46.5909 273.048)
(3.84757e-11 34.111 201.575)
(-1.04813e-09 1.30479 286.113)
(-3.5698e-10 2.17823 286.124)
(-1.35715e-10 3.12747 286.142)
(-8.91011e-11 4.11877 286.137)
(-6.12256e-11 5.09728 286.136)
(-1.14619e-11 6.13605 286.129)
(-1.5058e-11 7.02097 286.126)
(-9.27905e-12 8.12588 286.112)
(-4.15907e-12 9.05487 286.098)
(1.59278e-12 10.2318 286.074)
(-2.86896e-12 11.0974 286.054)
(-7.00375e-12 12.3208 286.042)
(-4.95168e-12 13.1032 286.066)
(-8.32395e-11 14.2722 286.094)
(-2.74648e-12 15.0028 286.135)
(7.77138e-11 16.2683 286.174)
(1.5177e-10 17.0259 286.216)
(7.40529e-11 18.3398 286.242)
(-1.67601e-10 18.9866 286.272)
(-2.00136e-10 20.3484 286.272)
(-6.22974e-12 21.0679 286.266)
(7.2199e-11 22.5298 286.224)
(-1.04449e-10 23.1736 286.233)
(-3.87863e-11 24.6218 286.175)
(7.43394e-11 25.2633 286.193)
(7.32332e-11 26.883 286.143)
(-1.24128e-11 27.5298 286.2)
(-9.30592e-11 29.1818 286.151)
(5.95011e-11 29.6637 286.192)
(-4.35097e-12 31.2091 286.128)
(-1.084e-10 31.5993 286.158)
(-1.72733e-10 33.2085 286.038)
(-9.68657e-11 33.4332 286.101)
(-1.12254e-10 35.5523 285.983)
(1.20783e-10 35.5755 286.074)
(2.08546e-10 37.9997 285.881)
(-1.38041e-10 37.6652 285.999)
(-2.37124e-10 40.3036 285.748)
(7.39231e-12 39.6927 285.917)
(1.71673e-10 42.5699 285.639)
(-1.07806e-10 41.691 285.867)
(-2.95161e-10 44.8494 285.527)
(5.65041e-11 43.7131 285.817)
(1.08174e-10 47.2278 285.262)
(2.07864e-11 45.6862 284.502)
(1.89411e-11 46.524 272.56)
(-6.98608e-11 34.0366 201.08)
(-1.05777e-09 1.30603 285.59)
(-3.71747e-10 2.18238 285.581)
(-1.54224e-10 3.13827 285.582)
(-4.92697e-11 4.12735 285.566)
(-2.61829e-11 5.10219 285.561)
(-3.20715e-11 6.14245 285.563)
(-1.44668e-11 7.01892 285.556)
(-1.40929e-11 8.11761 285.559)
(-1.52623e-11 9.04809 285.549)
(-4.90303e-14 10.2301 285.531)
(-3.31094e-12 11.0871 285.515)
(-1.12565e-11 12.3093 285.514)
(-4.9951e-12 13.0816 285.538)
(7.1903e-11 14.2467 285.557)
(-1.7511e-12 14.9574 285.59)
(-7.80842e-11 16.2173 285.628)
(-1.52093e-10 16.969 285.664)
(-7.5911e-11 18.2732 285.682)
(1.48086e-10 18.9303 285.704)
(1.76826e-10 20.3188 285.714)
(-7.99769e-13 21.0396 285.709)
(-8.22501e-11 22.5329 285.673)
(9.77412e-11 23.1612 285.673)
(4.12568e-11 24.6253 285.629)
(-9.01775e-12 25.2293 285.644)
(-5.36039e-12 26.8597 285.616)
(4.87448e-12 27.4787 285.656)
(1.47773e-10 29.097 285.635)
(8.14336e-11 29.5768 285.663)
(6.3695e-11 31.194 285.588)
(9.24777e-11 31.5642 285.606)
(1.51371e-10 33.1278 285.546)
(8.86136e-11 33.3516 285.602)
(1.75319e-10 35.4676 285.464)
(-6.55897e-11 35.4791 285.55)
(-2.30189e-10 37.9338 285.382)
(1.07184e-10 37.6017 285.525)
(2.04801e-10 40.2409 285.282)
(-2.57821e-11 39.6155 285.428)
(-1.90754e-10 42.4841 285.146)
(1.59396e-10 41.5973 285.372)
(4.1409e-10 44.7598 285.033)
(-2.01126e-11 43.6564 285.327)
(-1.37747e-10 47.1467 284.762)
(-1.73034e-11 45.6275 284.004)
(2.32564e-11 46.4507 272.064)
(9.13532e-11 33.9638 200.675)
(-1.0568e-09 1.30216 285.165)
(-3.59915e-10 2.17166 285.16)
(-1.3395e-10 3.12722 285.164)
(-8.36275e-11 4.12173 285.146)
(-6.35738e-11 5.0859 285.132)
(-1.77368e-11 6.12697 285.132)
(-1.35504e-11 6.99909 285.12)
(-1.14254e-11 8.10037 285.134)
(6.88361e-11 9.03535 285.129)
(7.58231e-11 10.2126 285.12)
(-3.35395e-12 11.0601 285.105)
(-6.7779e-12 12.2491 285.108)
(-5.55189e-12 13.0073 285.129)
(-7.7796e-11 14.1734 285.156)
(-1.77289e-12 14.881 285.184)
(7.18554e-11 16.147 285.211)
(1.42288e-10 16.9092 285.237)
(6.92407e-11 18.2245 285.251)
(-1.50878e-10 18.8726 285.264)