/*--------------------------------*- C++ -*----------------------------------*\
| =========                 |                                                 |
| \\      /  F ield         | OpenFOAM: The Open Source CFD Toolbox           |
|  \\    /   O peration     | Version:  2212                                  |
|   \\  /    A nd           | Website:  www.openfoam.com                      |
|    \\/     M anipulation  |                                                 |
\*---------------------------------------------------------------------------*/
FoamFile
{
    version     2.0;
    format      ascii;
    arch        "LSB;label=32;scalar=64";
    class       surfaceScalarField;
    location    "0.25";
    object      phi;
}
// * * * * * * * * * * * * * * * * * * * * * * * * * * * * * * * * * * * * * //

dimensions      [1 0 -1 0 0 0 0];

oriented        oriented;

internalField   nonuniform List<scalar> 
4475
(
0.00132182
-0.00126201
0.00201385
-0.0020692
-1.24442e-05
2.83693e-06
-1.20566e-07
9.80743e-06
0.00219933
-0.00284464
0.00116654
-0.00051913
-1.11118e-05
0.00104591
6.13367e-06
-0.00104063
-0.00113935
0.00103918
0.00109222
-0.000991753
0.000963677
-0.000732696
-0.00107946
0.000848893
-0.000303444
0.000292664
0.00144659
-0.00143612
-0.000920614
-0.00120694
0.00107127
0.00105604
0.00108368
-0.00119941
-0.00102357
-0.000913755
-2.21186e-05
0.000135792
0.000800232
-0.000169395
0.00016353
-0.00090818
-0.00104269
0.000144162
-5.85466e-05
0.000957131
-0.00108068
4.23962e-05
-4.32084e-06
-0.00111391
1.87287e-05
1.46474e-05
-0.00113903
1.15338e-05
1.39804e-05
-0.00115098
6.14109e-06
6.15663e-06
1.19472e-05
-0.0011273
-3.53669e-05
0.00110758
-8.56263e-05
-0.00109618
7.42112e-05
0.00115997
-4.03859e-05
0.00114845
1.77475e-05
0.00112152
3.87034e-05
0.00109106
4.94082e-05
0.00106411
6.94766e-05
0.00113586
7.27134e-05
0.000967845
-1.64862e-06
0.000888704
5.71531e-05
0.0010951
0.000144502
-0.000350829
0.00100884
3.30679e-05
5.28861e-05
0.00147962
-0.00150042
-0.000283067
-0.00111835
-9.44252e-05
0.000968506
2.5044e-05
1.5076e-05
0.000937869
2.2715e-05
7.836e-06
0.000913042
2.05491e-05
4.30984e-06
0.000888414
2.16454e-05
3.03001e-06
0.00086705
1.81945e-05
3.13731e-06
0.000844625
1.93737e-05
2.97109e-06
0.000823961
1.8418e-05
2.23175e-06
0.00080421
1.72612e-05
2.57019e-06
0.000786066
1.58969e-05
2.36942e-06
0.000767417
1.70834e-05
1.72266e-06
0.000750949
1.54925e-05
1.08244e-06
0.000734241
1.56898e-05
1.1802e-06
0.000718411
1.49654e-05
1.04429e-06
0.000704051
1.35894e-05
1.00637e-06
1.08392e-05
0.000693432
6.92369e-08
-0.00070386
0.000690182
2.46909e-05
-0.000717764
2.77621e-05
-0.000729692
2.71186e-05
-0.000745086
3.12791e-05
-0.00076062
3.12e-05
-0.000776525
3.31308e-05
-0.000792621
3.20536e-05
-0.000814896
3.96205e-05
-0.000833898
3.74352e-05
-0.000853294
3.88536e-05
-0.000877788
4.28351e-05
-0.000899812
4.38427e-05
-0.000924807
4.56376e-05
-0.000951587
4.93977e-05
-0.000989636
6.2967e-05
-0.00106309
0.00010652
-0.000849563
0.000236109
-0.000449457
-0.00091358
0.000199788
-0.000902344
0.000152359
-0.000947039
9.39377e-05
-4.90631e-05
-0.00103924
3.36574e-05
-0.00107962
3.62794e-05
-0.00111033
4.56519e-05
-0.00113489
3.88852e-05
-0.00114151
1.32856e-05
-0.00115545
-2.09994e-05
1.28553e-05
3.27084e-07
0.000680378
2.12114e-05
0.000682092
0.00116551
-6.69313e-05
-0.00113916
0.00114788
3.55603e-05
0.00112381
6.28699e-05
0.001093
8.05229e-05
0.00107999
8.26226e-05
0.00107184
8.10427e-05
0.00100845
6.16347e-05
0.000983396
8.19317e-05
0.00102408
0.00010375
0.0010016
7.50399e-05
0.000968868
4.76495e-05
0.000940873
3.56671e-05
0.000916378
2.87017e-05
0.000893702
2.55677e-05
0.000872202
2.44738e-05
0.000849792
2.53747e-05
0.000830543
2.1517e-05
0.000810441
2.28883e-05
0.000791816
2.11049e-05
0.000772745
2.0977e-05
0.000756006
1.78503e-05
0.000738577
1.87194e-05
0.000722589
1.71012e-05
0.000706587
1.70991e-05
0.000691594
1.53562e-05
-0.000134002
-0.00112015
0.000157958
1.31114e-05
0.0006788
-0.000211208
-0.0010412
-0.00115255
-9.69754e-05
-0.000685825
0.000674225
3.28687e-05
-0.0006975
3.65488e-05
-0.000706058
3.63807e-05
-0.000721166
4.24682e-05
-0.000733063
4.33152e-05
-0.000747116
4.54279e-05
-0.00076149
4.7612e-05
-0.000780951
5.16998e-05
-0.00079517
5.39544e-05
-0.000813373
5.57297e-05
-0.000834906
6.04734e-05
-0.000855425
6.34551e-05
-0.000877369
6.59365e-05
-0.000901658
7.0023e-05
-0.000929706
7.74275e-05
-0.000960043
9.33092e-05
-0.000980381
0.000126855
-0.000922069
0.000177902
-0.000905997
0.000183594
-0.000922532
0.000168884
-0.000957316
0.000128958
-0.00101421
9.0502e-05
-0.00106139
8.37846e-05
-0.00109577
8.01563e-05
-0.00113042
7.3862e-05
-0.00115476
3.80383e-05
-0.00116809
-7.2321e-06
-0.00114655
0.0016906
-0.00146579
0.00058859
-0.00117595
-0.000356668
0.000944117
-0.000740427
-0.000686352
0.000813611
0.000613204
0.000811877
0.00135712
0.000176934
-0.000277159
-0.00125729
0.00120918
8.08639e-05
0.001165
7.97124e-05
0.00113027
9.76914e-05
0.00110344
0.000107441
0.00108123
0.00010484
0.00106025
0.00010195
0.00102763
9.39054e-05
0.00100694
0.000102397
0.00100503
0.000105389
0.000988535
9.12274e-05
0.000964662
7.14151e-05
0.000939825
6.03125e-05
0.000917767
5.07218e-05
0.000893662
4.93768e-05
0.000873138
4.4889e-05
0.000853082
4.53997e-05
0.00083235
4.23401e-05
0.000812525
4.29282e-05
0.000794237
3.96373e-05
0.000777737
3.76557e-05
0.00076017
3.55697e-05
0.000742756
3.62559e-05
0.000728489
3.14486e-05
0.000714739
3.0991e-05
0.000701107
2.90889e-05
0.000688255
2.61669e-05
-1.20449e-05
0.000677643
2.29665e-05
5.74861e-07
0.000666464
1.22676e-05
0.000668968
2.23484e-05
0.000672137
-0.00104182
0.0009989
-0.00116439
0.000660898
3.56979e-05
-0.00143287
-0.00138218
0.00166656
-0.00121534
0.00182361
0.00102196
-0.00162979
-0.000237033
-0.00112668
0.00131723
-0.000998531
0.00132863
-0.00164879
0.00106632
0.00105098
-0.00107816
-0.00143848
1.98533e-05
0.000298531
-0.00119429
-7.03291e-05
-7.88643e-06
2.07156e-05
0.000665004
2.67831e-06
0.000656095
1.22807e-05
0.00065963
2.25893e-05
0.000661891
2.69054e-05
0.000656629
-0.000689397
-1.86712e-06
0.000718455
-0.000680022
2.66123e-05
-0.000686309
3.9413e-05
-0.000699243
4.98636e-05
-0.000717389
5.50186e-05
-0.000725835
5.13338e-05
-0.000735045
5.29313e-05
-0.000745102
5.58374e-05
-0.000757475
6.02708e-05
-0.000771222
6.56601e-05
-0.000786006
6.89571e-05
-0.000801644
7.15376e-05
-0.000818038
7.70018e-05
-0.00083663
8.22572e-05
-0.000857506
8.68462e-05
-0.000879295
9.18883e-05
-0.000904599
0.000102647
-0.000927055
0.00011572
-0.000938712
0.000138507
-0.000926282
0.000165602
-0.000926194
0.000183642
-0.000928437
0.000171286
-0.000957107
0.000157787
-0.00100326
0.000136715
-0.00104413
0.000124805
-0.00108738
0.000123497
-0.00112562
0.000112201
-0.00116878
8.14623e-05
2.38913e-05
-0.00119948
0.000180125
-0.00013682
-0.00133881
0.00129531
0.00147153
-0.00211747
0.0018937
-0.00124937
0.00102714
-0.000983438
0.00104894
0.00139488
0.000136522
0.000158619
0.00144271
0.000294899
-0.000343092
0.00142459
0.000310455
0.0013812
0.000274797
-0.000231425
0.00133043
0.000230597
0.00130316
0.000211722
-0.000184776
0.00129596
0.000183714
0.00122822
0.00014823
0.00117644
0.000131412
0.00113738
0.000136555
0.00110828
0.00013667
0.00107919
0.000133689
0.00105571
0.000125267
0.0010253
0.000123793
0.00100532
0.000121965
0.000991486
0.000118954
0.000974566
0.000107837
0.000950662
9.5269e-05
0.000928139
8.26402e-05
0.000906885
7.19077e-05
0.000884835
7.12435e-05
0.000863914
6.57093e-05
0.000844465
6.49896e-05
0.000823776
6.33073e-05
0.000806064
6.10449e-05
0.000789833
5.62008e-05
0.000773047
5.47424e-05
0.00075453
5.43142e-05
0.000742414
4.86786e-05
0.000728142
4.60555e-05
0.000716852
4.26512e-05
0.000704524
4.16041e-05
0.000692059
3.89799e-05
0.000679554
3.63757e-05
2.77568e-05
0.000671977
-0.000858734
0.00326412
-0.00222469
-0.000180693
-0.00134118
0.00122492
-0.000969646
0.00100057
0.000589135
-0.000620105
-0.000376346
0.000852361
0.000337677
-0.000813743
-0.00180692
-9.60955e-06
0.000428085
0.001389
-0.00147186
-0.00112671
-0.000185081
-0.00124594
-0.00128614
-0.000162625
0.00131189
-0.000783639
0.000953116
-0.000170911
-0.000725973
-3.05711e-05
-0.000694749
8.39836e-06
-0.000688962
4.4356e-05
-0.000688863
5.509e-05
-0.000706734
6.94293e-05
-0.000720145
6.65176e-05
-0.000731089
6.69124e-05
-0.000741303
7.06622e-05
-0.000753288
7.75916e-05
-0.000766066
8.18552e-05
-0.000781371
8.70495e-05
-0.000796004
9.1915e-05
-0.000812968
9.95279e-05
-0.000831117
0.000105278
-0.00085151
0.000112452
-0.000869938
0.000121196
-0.000888107
0.000134111
-0.000900267
0.000150833
-0.000903676
0.000169242
-0.000907185
0.00018726
-0.000915016
0.000179329
-0.000941078
0.000184224
-0.000979391
0.000175172
-0.00101935
0.000164873
-0.00106146
0.000165542
-0.00110526
0.00015599
-0.00114723
0.000123733
-0.00120778
8.46443e-05
-2.96337e-05
-0.00123973
-0.00115202
-0.00109667
0.00124932
-0.000370146
-0.00187135
0.00171968
0.000526784
0.00149196
0.000291602
-0.001647
0.00147926
0.000307598
0.00145179
0.000337309
0.00140486
0.000321324
0.00135919
0.000275691
0.00132399
0.000246678
0.00128758
0.000219614
0.00123934
0.000196209
0.00118825
0.000181784
0.00115109
0.000173454
0.00111429
0.000172522
0.00108524
0.000162452
0.00105577
0.000153806
0.00102926
0.000149741
0.00100699
0.000143649
0.000988745
0.000136258
0.000969464
0.000126779
0.000950759
0.000113325
0.000931236
0.000101865
0.00090879
9.41708e-05
0.000889977
8.97865e-05
0.000867249
8.82512e-05
0.000848609
8.3841e-05
0.000829402
8.26296e-05
0.00081635
7.42817e-05
0.000798117
7.42387e-05
0.000782705
7.0375e-05
0.000770737
6.62841e-05
0.00076175
5.73474e-05
0.000750741
5.79117e-05
0.000734092
5.85472e-05
0.000722989
5.43471e-05
0.000710719
5.00189e-05
0.000712363
3.66363e-05
0.000724812
1.67502e-05
-1.80147e-05
-2.23786e-05
0.000769374
-1.57766e-05
0.000671434
-5.40996e-06
0.000655083
4.03995e-06
0.000646718
9.21686e-06
0.00065434
2.08372e-05
0.000650345
1.83183e-05
0.000659261
-3.59195e-05
0.000773053
0.00113102
-0.000213097
-0.00104787
-0.000556806
0.000635276
-0.000614027
0.000941054
-0.00209558
0.00176823
-0.0013418
0.00136247
-0.00185482
0.00183415
-0.00175857
-0.00105372
0.00152005
0.00181312
-0.00201117
-0.00087613
0.00102421
0.00112088
-0.00124933
1.20723e-05
-0.000112239
-0.00131228
-0.00105326
-0.00121922
0.00111929
-0.00138798
-0.000900012
0.000529706
-0.00188749
0.00100175
-0.00121536
0.00209881
0.00098301
0.00111044
0.00150314
-0.00154309
0.000332262
0.00144405
0.000366959
0.00141448
0.000366766
0.00137711
0.000358002
0.00133699
0.000314836
0.00129727
0.000285136
0.00125623
0.000259623
0.00121244
0.000239031
0.00117162
0.000221779
0.00113235
0.00021206
0.00110196
0.000202691
0.0010698
0.000193875
0.00104288
0.000180145
0.00101763
0.000174041
0.000997854
0.000162768
0.000976746
0.000156687
0.000959305
0.000143711
0.000938486
0.000133839
0.000917747
0.000122324
0.000893724
0.000117888
0.000873964
0.000109163
0.000853838
0.000108151
0.000835175
0.000102239
0.000820817
9.67451e-05
0.000804277
9.10358e-05
0.000787792
9.10626e-05
0.00077844
7.91515e-05
0.000771426
7.49965e-05
0.00075586
7.1636e-05
0.000743245
7.29828e-05
0.000735191
6.55469e-05
0.000738155
5.22296e-05
0.000760904
2.80122e-05
0.000815929
-1.84174e-05
0.000957277
-0.000122223
0.0011497
-0.000215185
0.00013611
-0.000224109
0.00123796
3.4754e-06
0.000905786
-8.16483e-06
0.000682921
-5.07907e-06
0.000652354
1.11543e-06
0.000640679
9.17288e-06
0.000646202
1.49256e-05
0.000644805
-9.55032e-06
0.00068393
-0.000172071
0.000935845
-0.000225713
0.0011845
-0.00127175
0.0012505
-0.00020457
-0.00124697
-0.000237999
-0.00118544
-0.000232562
-0.000998382
-0.000216236
-0.000830764
-0.000158691
-0.000760656
-2.5185e-05
-0.000730303
2.48124e-05
-0.000714591
5.39631e-05
-0.000715953
6.80236e-05
-0.000733449
8.46088e-05
-0.000749455
8.68927e-05
-0.000761074
8.94498e-05
-0.000769542
9.06616e-05
-0.000785787
0.000103538
-0.000798203
0.000104519
-0.000813072
0.000114642
-0.000826269
0.000118646
-0.000842255
0.000128688
-0.000856249
0.000135335
-0.000870676
0.000148333
-0.000881764
0.000161982
-0.000890626
0.000178129
-0.000899475
0.000196304
-0.000911758
0.000191921
-0.000934536
0.000207191
-0.000963045
0.000203656
-0.000999811
0.000201411
-0.00104053
0.000206087
-0.00108626
0.000201558
-0.0011442
0.000181672
0.000135398
-0.00119479
-0.00119613
-0.0011565
0.00125591
-5.81644e-05
-0.00130357
-0.00149332
-0.000126092
0.00030761
-0.00012363
-0.00106506
-0.00137719
0.00161134
-0.00149784
-0.00101187
0.001555
-0.0009954
-0.000913839
0.00134171
-0.00165782
-0.000433999
0.00172793
0.000301372
-1.93787e-05
0.0015422
0.000311488
-0.00155021
0.00145972
0.000416637
0.00139788
0.000430381
0.00135271
0.00041267
0.00132393
0.000386882
0.00128904
0.000349675
0.0012556
0.000318814
0.0012182
0.000296598
0.00118262
0.000273459
0.00114931
0.000254267
0.00111849
0.00024131
0.00109261
0.000227739
0.00106758
0.000217925
0.0010449
0.000202297
0.00102611
0.000191878
0.00100692
0.000181421
0.000991924
0.000171035
0.000973755
0.000161836
0.000958169
0.00014903
0.000936788
0.000143693
0.000919735
0.000134838
0.00089913
0.000129919
0.000884226
0.000123442
0.0008682
0.000118621
0.000853752
0.000111767
0.000838607
0.00010594
0.000832677
9.95047e-05
0.000813496
9.60631e-05
0.000797237
9.38246e-05
0.000786082
8.08774e-05
0.000799573
5.89336e-05
0.00083056
3.46519e-05
0.000898432
-2.0378e-05
0.00104747
-0.000123167
0.00125744
-0.00023239
0.00135095
-0.000221458
0.00137653
-0.000243313
0.0013671
-0.000219158
0.000252185
0.00130752
-0.00019594
0.000215029
0.00127594
3.89781e-05
0.00109798
1.99334e-06
0.000723711
1.43426e-06
0.00065359
4.90072e-06
0.000637104
7.16298e-06
0.000643865
-3.11203e-07
0.000652321
-4.60958e-05
0.000729789
-0.000210115
0.00109993
-0.000238626
0.00121288
-0.000188892
0.00120056
-0.00120346
0.00117926
-0.0001649
-0.00123505
-0.000173067
-0.00129152
-0.000181834
-0.00132775
-0.000196613
-0.00131389
-0.000230303
-0.00123833
-0.000234542
-0.00104266
-0.000219284
-0.00086093
-0.00015633
-0.000786133
-1.66974e-05
-0.00075425
3.63257e-05
-0.000737262
6.79584e-05
-0.000737032
8.69255e-05
-0.000752365
0.000105054
-0.000771907
0.000110548
-0.000780336
0.000112361
-0.000789641
0.000114221
-0.000800035
0.000125462
-0.000813298
0.000132052
-0.000825184
0.000140729
-0.000837493
0.000147767
-0.000848724
0.000159537
-0.000857423
0.000171086
-0.000866109
0.000186989
-0.0008716
0.000202181
-0.000888954
0.00020957
-0.000905675
0.000224048
-0.000931886
0.000230137
-0.000960715
0.000230437
-0.000996554
0.000241812
-0.00103801
0.000242429
-0.00108872
0.000232048
0.000198825
-0.00115183
-0.00124995
6.71865e-05
-0.00114699
-0.00126852
-0.00117836
-0.00127639
0.0012978
0.00133862
0.0025998
-0.00226755
-0.00167094
-0.00129446
-1.38615e-05
-0.00161155
-0.000542411
0.000287113
-0.00167737
-0.000846064
-0.00165458
-0.0010185
2.0796e-05
-0.000484745
-0.00102901
-0.000565225
-0.00121442
6.97375e-05
-0.0013448
-8.48807e-05
-0.0011383
-0.00142634
-0.00152013
-0.00114534
0.000239727
-0.000194129
0.00126076
0.000224603
0.00128766
0.000169955
0.00115357
2.71025e-05
0.000867798
5.85508e-06
0.000675589
6.81574e-06
0.000636466
3.6116e-06
0.000647022
-2.13952e-05
0.000677634
-0.000184993
0.000893244
-0.0002238
0.00113857
-0.000214134
0.00120305
-0.000182825
0.00116914
-0.00016116
0.00115742
-0.00117507
-0.00014154
0.00115527
-0.00119258
-0.000147694
-0.00121516
-0.000150646
-0.00124033
-0.000156946
-0.00127699
-0.000160467
-0.00133961
-0.000168402
-0.00138375
-0.000191113
-0.00139488
-0.000208703
-0.0013155
-0.000236015
-0.00111533
-0.000218468
-0.000917782
-0.000160503
-0.000831547
-2.00202e-05
-0.000787717
4.35536e-05
-0.00076577
8.34495e-05
-0.000758082
0.000103169
-0.000768875
0.000123526
-0.000789777
0.000135614
-0.000798444
0.000134596
-0.00080452
0.000138514
-0.000817929
0.000154602
-0.000829462
0.000159593
-0.000843827
0.000173947
-0.000854037
0.000181544
-0.000864806
0.000197851
-0.00087161
0.000209422
-0.000881024
0.000219465
-0.000896079
0.000239477
-0.000909539
0.000243806
-0.000931905
0.000252674
-0.000954357
0.000263817
-0.000982623
0.000270552
-0.00102555
0.000275174
0.000263214
-0.00108963
0.000132007
-0.00121645
0.00108089
-0.000893195
-0.00117112
-0.00108514
-0.00143964
0.000825361
0.000124766
-5.04579e-05
-0.000899655
0.00188765
0.000358673
-0.00205351
-0.000178416
0.00135541
0.000529791
-0.00146657
0.00129625
0.000491117
0.00125959
0.000450397
0.00123084
0.000415832
0.00120111
0.000379878
0.00117327
0.00034606
0.00114506
0.000324464
0.00111897
0.000298998
0.00109417
0.000278319
0.00107251
0.000262138
0.0010502
0.000249365
0.00103158
0.000234854
0.00100904
0.000223723
0.00098983
0.0002097
0.000970117
0.000199691
0.00095331
0.00018671
0.000938235
0.000175955
0.00092104
0.000165795
0.000904924
0.000159031
0.000889868
0.00014975
0.000877382
0.000142337
0.000867252
0.000134333
0.000860717
0.000125034
0.000856043
0.000118136
0.000836736
0.000124745
0.000828548
0.00010889
0.000847193
7.72601e-05
0.000878015
6.38653e-05
0.000936068
2.01219e-05
0.00102547
-3.54667e-05
0.00120591
-0.00015112
0.00139471
-0.000229705
0.0014833
-0.000216629
0.00146963
-0.000223949
0.00144065
-0.000196255
0.00137639
-0.000182153
0.00133279
-0.000176086
0.00130717
-0.000171038
0.0012763
-0.00016601
-0.00116705
-0.00136551
0.00135447
-0.00123829
-0.00130626
0.00163449
-0.000217367
0.00017576
-0.00159277
-0.00118629
-0.000137465
-0.00114007
-0.00130842
-7.0985e-05
-0.00117139
0.00115419
-0.000124843
-0.00119088
-0.000128684
-0.0012082
-0.000133498
-0.00123047
-0.000134988
-0.00125224
-0.00013906
-0.00128329
-0.000137968
-0.00133288
-0.000142275
-0.00139452
-0.000147638
-0.00146399
-0.000166887
-0.00148967
-0.00019288
-0.00141501
-0.00023539
-0.00121988
-0.000212002
-0.000981104
-0.000194579
-0.000887504
-9.82626e-06
-0.000837395
5.34092e-05
-0.000808934
9.52066e-05
-0.000792232
0.000119227
-0.000800856
0.000143667
-0.000826267
0.00016449
-0.000836641
0.000165326
-0.000845146
0.000168388
-0.000853373
0.000182314
-0.000860875
0.000189522
-0.000868051
0.000204984
-0.00087239
0.000213816
-0.00088134
0.000228268
-0.000883052
0.000241254
-0.000887037
0.000247911
-0.000898441
0.000264786
-0.000905802
0.000271522
-0.000922436
0.000287623
-0.000952051
0.000304727
-0.00102279
0.000333457
0.0002143
-0.001172
0.00100935
-0.000833597
0.000905224
-0.00155348
-0.000957909
0.000189402
-0.000162598
0.00124507
0.000212256
0.0012356
0.000253444
0.00124737
0.00021481
0.00119308
6.54364e-05
0.00102673
1.55274e-05
0.000726855
5.6148e-06
0.000646128
-5.03287e-06
0.000657932
-5.77154e-05
0.000730165
-0.000207214
0.00104233
-0.00023825
0.00116932
-0.000195821
0.00116044
-0.000176535
0.00114982
-0.000156981
0.00113779
-0.000139148
0.00113736
-0.000125124
0.00113995
0.0013267
-0.000905708
-0.00131429
0.00182958
-0.00116084
0.00180207
-0.000989734
0.00175504
-0.000793166
-0.000441329
-0.000979011
0.000930839
0.00103162
-0.000414317
-0.00149395
-0.000131059
0.0001423
1.77784e-05
-2.78845e-05
-2.81469e-05
-0.000989955
0.001005
0.00121493
0.000532279
-0.00121514
0.00120986
0.000498697
0.0011964
0.000465849
0.00118804
0.000425788
0.00116931
0.000399094
0.00115048
0.000364639
0.00112927
0.000344849
0.00111044
0.000316049
0.0010897
0.000298673
0.00107253
0.000278256
0.00105666
0.00026484
0.00104146
0.000250165
0.0010266
0.000237751
0.00100838
0.000228046
0.000994624
0.000212593
0.000976467
0.000205474
0.000962109
0.00018892
0.000943464
0.000184969
0.000933466
0.000168301
0.000917345
0.000165896
0.000907772
0.000152475
0.000888541
0.000154302
0.000867786
0.000146187
0.000863024
0.00012223
0.000900767
8.75348e-05
0.00095652
4.88504e-05
0.00104133
-5.22281e-06
0.00115675
-5.94249e-05
0.00137029
-0.000204079
0.00151615
-0.000205669
0.00157248
-0.000218758
0.00153504
-0.000185608
0.00150076
-0.000176251
0.00143028
-0.000157552
0.00138689
-0.000153872
0.00135
-0.000146686
0.00132134
-0.000147216
0.00129528
-0.000146349
0.00126806
-0.000141228
0.00124473
-0.000141562
0.000171129
0.0017653
-0.000301852
1.00804e-05
-0.00124027
-0.000789698
0.000415694
-0.0011445
-0.00147372
0.00145166
-0.00115844
-0.00151987
-0.00129797
-0.00137387
-0.00157547
-0.000971854
0.00233003
0.00309135
-0.0011459
-0.00280397
0.00109395
-7.89529e-05
-0.00136639
0.000412615
-0.00122215
0.00108784
0.000787703
-0.000843611
-0.000626655
-0.00116131
0.000740443
0.000592459
-0.000857478
-0.000355842
0.000620806
-0.00102437
-0.00292324
0.00113906
0.00280864
-0.00115873
0.00114033
-0.000107475
-0.00117655
-0.000108159
-0.00119333
-0.000112233
-0.00121385
-0.000113641
-0.00123325
-0.000116493
-0.00125567
-0.000116569
-0.00127626
-0.000117765
-0.00130608
-0.0001129
-0.00134076
-0.000113401
-0.00139516
-0.00011315
-0.00146912
-0.000119794
-0.0015696
-0.000135516
-0.0016081
-0.000173753
-0.00161055
-0.000192605
-0.00142996
-0.000190643
-0.00115186
-0.000224674
-0.00102552
-3.79042e-05
-0.000940316
3.45585e-05
-0.000884142
8.78478e-05
-0.0008419
0.000122558
-0.000827369
0.000150913
-0.000836002
0.00017719
-0.000842425
0.00018891
-0.000849044
0.000196403
-0.000844461
0.000200375
-0.000841356
0.000211189
-0.000844388
0.000231672
-0.000848477
0.000245769
-0.000861992
0.000261786
-0.000867616
0.000270781
-0.000888715
0.000292948
-0.000901438
0.000300736
-0.000920054
0.000323791
-0.000923787
0.000337002
0.000371219
-0.000882547
0.00127833
-0.000785584
-0.00244517
0.00214172
-0.000954493
0.00144156
-0.000820071
-0.00306521
0.000163222
-0.000142175
0.00122197
0.000186294
0.00121849
0.000205587
0.00121163
0.000252735
0.00120072
0.000232033
0.00121446
0.00018249
0.00107923
3.85767e-05
0.000871866
9.32192e-06
0.000674836
-2.38673e-05
0.000691785
-0.000181927
0.000888199
-0.000223578
0.00108379
-0.00022309
0.00116847
-0.000191973
0.00112911
-0.000170417
0.00112806
-0.000152217
0.0011193
-0.000136363
0.00112127
-0.000119421
0.00112275
-0.000103746
0.00112422
-0.000994855
0.00199861
-0.00114171
0.00186813
-0.000852135
0.00160215
-0.000515342
0.00143982
-0.000275314
-0.000300189
0.00131012
-0.000114004
0.000187839
0.00143726
-0.00185444
0.00108628
0.000538697
-0.00103605
-0.000589054
0.00111573
0.000503511
0.00113205
0.000483368
0.00113723
0.000460848
0.00112953
0.000434832
0.00111919
0.000409708
0.0011001
0.000384633
0.00108435
0.000360464
0.0010593
0.000340328
0.00104044
0.000315651
0.0010177
0.000299541
0.00100303
0.000278073
0.000986133
0.000265875
0.000977442
0.000246983
0.000963584
0.000240217
0.000957391
0.000220003
0.000950109
0.000211842
0.00094633
0.000193021
0.000945055
0.000187161
0.000925823
0.000187365
0.000921104
0.000172168
0.000912161
0.000160688
0.000939711
0.000126037
0.00100085
8.8337e-05
0.00107522
4.55464e-05
0.00119013
-3.5198e-05
0.00142935
-0.000176058
0.00158104
-0.000224998
0.00170342
-0.000172305
0.00167468
-0.000172611
0.00163286
-0.0001566
0.0015575
-0.00013295
0.00150738
-0.000122701
0.00145978
-0.000121391
0.00142778
-0.000122242
0.00139071
-0.000115767
0.00136111
-0.000117283
0.00133259
-0.000119276
0.00130382
-0.000117931
0.00128216
-0.000122095
0.00126041
-0.000122762
0.00123895
-0.000123841
0.00139822
-0.000917388
-0.001388
4.49672e-05
-0.00120723
0.00133671
-0.00196431
-0.00152327
0.00149775
-0.000983238
0.00100797
-0.00153844
-0.00103904
0.00105429
-0.00110611
-0.00157767
-0.00126776
-4.33942e-05
-0.00171151
-0.00150568
-0.00126527
-0.00149799
-0.00139538
0.00239678
-0.00280243
-0.000618381
0.00125175
-0.000752001
0.000762403
-0.00126032
-0.00190033
0.00160917
0.00027446
0.00100422
-0.000674864
0.000897661
-0.000228377
-0.000604491
0.00129499
0.000588273
0.00163263
-0.00154334
8.63252e-05
-1.33736e-05
0.00181728
0.000905395
0.000363577
0.000900219
0.000341877
0.000897666
0.000326581
0.000895071
0.000303674
0.000893834
0.000294611
0.000887782
0.000277338
0.000882527
0.000267309
0.000872492
0.000256204
0.000859727
0.000244752
0.000840705
0.00023058
0.000835028
0.00020649
0.000847227
0.000184408
0.000891232
0.000145044
0.000947207
0.000121393
0.00100461
9.34706e-05
0.00111218
1.53535e-05
0.00131882
-0.000118431
0.00155894
-0.00020544
0.00169742
-0.00017063
0.00163602
-0.000164022
0.00157441
-0.000130248
0.00147973
-9.88792e-05
0.00139417
-8.92177e-05
0.00134133
-8.36814e-05
0.00130742
-8.68048e-05
0.00128228
-8.8691e-05
0.00126169
-9.3553e-05
0.00125084
-0.000102591
0.00123997
-0.00010749
0.00122511
-0.000102119
0.00120655
-9.83906e-05
0.00118594
-9.37069e-05
0.0011651
-9.22887e-05
0.00114709
-9.08363e-05
0.00112706
-8.82702e-05
0.00111055
-8.8049e-05
0.000275708
0.00231066
-0.000820819
0.00014491
-0.000125394
0.00121556
0.000163408
0.00120121
0.00018147
0.00119689
0.000202978
0.00118494
0.000228294
0.00117234
0.000252667
0.00119041
0.000220906
0.00110974
8.38292e-05
0.00101151
1.12293e-05
0.000745558
-6.46271e-05
0.000769917
-0.000212416
0.00103648
-0.000234193
0.00110506
-0.000201559
0.00113572
-0.000183817
0.00111125
-0.000165934
0.00111006
-0.000149376
0.00110238
-0.000132684
0.00110419
-0.000118484
0.00110815
-0.000100749
0.00110614
-8.46816e-05
0.00109405
0.00139254
-0.000779245
-6.99918e-06
-0.00117029
-0.000937325
0.00148104
0.000952883
0.000480448
0.00207219
-0.00131234
-0.00124024
0.000311214
-0.00140623
0.000200157
-0.00148177
0.000161983
-0.00150517
0.0015296
0.000101726
-0.00146936
0.0017383
-0.00012249
0.00250673
-0.000782212
0.000120047
-0.0005882
0.00297522
0.000890593
-9.40444e-05
0.00108254
0.0022864
-0.00232219
-0.00104656
0.00070827
0.00106623
-0.000525828
0.000670948
0.000500395
-0.000818389
-0.000355341
0.000916547
-0.00160409
-0.000951211
0.00157388
-0.00164031
-0.00100328
-0.00106019
-0.00168614
-7.21636e-05
-0.00127424
0.0014086
-0.000904528
-0.00142153
0.00156493
-0.00122414
0.00188434
-0.000875836
0.00157775
-0.000537983
0.00130314
-0.000227192
0.0011575
-0.000123594
-0.000102058
0.000962356
-0.00049261
0.00110781
0.000697391
0.000118901
-1.9192e-05
-0.000268364
0.000169631
0.000876813
0.000438455
-0.000567435
-0.000746253
0.000978696
0.000436379
0.0010397
0.000441512
0.00108428
0.000437683
0.0011096
0.000435471
0.00111628
0.000426281
0.00111817
0.000407587
0.0011115
0.00038947
0.00110338
0.000367252
0.00109342
0.000350017
0.00107704
0.000330939
0.0010608
0.000315229
0.00104368
0.000294314
0.00102548
0.00028301
0.00100851
0.000262785
0.000994149
0.000254524
0.000975544
0.000234819
0.000967933
0.000222094
0.00093382
0.000225328
0.00093531
0.000185054
0.000980557
0.000146555
0.0010159
0.000128125
0.00109613
9.30581e-05
0.0011981
1.62981e-05
0.0013694
-8.42396e-05
0.00158685
-0.000167803
0.00173351
-0.000165885
0.00173018
-0.000162757
0.00164384
-0.000143229
0.00160285
-0.000115738
0.00155271
-0.000103399
0.00150063
-9.43462e-05
0.00146335
-8.94728e-05
0.00143323
-8.89823e-05
0.00140715
-9.16896e-05
0.00137734
-9.19261e-05
0.00135419
-9.12968e-05
0.00133694
-9.71173e-05
0.00132014
-9.89646e-05
0.00130808
-0.000101811
0.00129
-0.000101269
0.00126647
-9.95799e-05
0.00124263
-0.000102648
0.00121694
-0.000103037
0.00192041
0.000888043
-0.00204631
0.00173551
0.000894943
-0.00047137
0.00080829
0.00139691
-0.00167213
0.000581704
0.00150319
-0.000412569
0.000849301
-0.000255973
-2.43373e-05
-0.001226
-0.000559457
0.00201604
0.000740403
0.000404979
0.000738442
-0.000297448
0.00115199
0.00207413
-0.00158321
-0.00164274
-0.00156901
-0.00143463
-0.00166977
-0.00121686
-0.00162545
0.000946737
-0.00197355
0.00192123
0.0017277
-0.000949779
-0.00178142
0.00172464
0.00221304
-0.00203516
0.00200562
0.000870294
-0.000479615
-0.00268766
-0.000641658
0.00274192
0.00176132
-0.00177192
-0.00210699
-0.000796876
-0.000156295
0.00069535
-0.000408137
-0.00253407
-0.000935727
-0.00186997
-0.000786712
-0.00150873
-0.000259482
0.000867316
0.000348737
0.000866278
0.000342758
0.000862686
0.00033066
0.000856627
0.000310437
0.000860433
0.000291446
0.000854729
0.000283727
0.000861776
0.000260514
0.000874176
0.000244326
0.000905148
0.00021422
0.000957267
0.000178967
0.00100079
0.000162999
0.00107015
0.000114848
0.00118328
3.1487e-05
0.0013476
-4.11594e-05
0.00161662
-0.000175421
0.00176499
-0.000133315
0.00178771
-0.000141907
0.00168718
-0.000104959
0.00159177
-7.52669e-05
0.00148819
-6.09341e-05
0.00140971
-5.2337e-05
0.00136498
-5.46177e-05
0.0013322
-5.71466e-05
0.00131326
-6.56365e-05
0.00130478
-7.89815e-05
0.00130742
-9.19995e-05
0.00130792
-9.47401e-05
0.00129313
-8.86131e-05
0.00126676
-8.18933e-05
0.00124021
-7.61905e-05
0.00121529
-7.41087e-05
0.00119364
-7.27142e-05
0.00117384
-7.33202e-05
0.00115287
-7.06597e-05
0.00113477
-7.10484e-05
0.00111552
-6.95837e-05
0.00110018
-6.98283e-05
-0.000444099
-3.48853e-05
0.000377535
-0.000499173
-6.76644e-05
-0.000618039
-0.000105219
-0.000907258
-0.000245952
-0.00122903
-0.000544566
-0.00156835
-0.000615383
-0.00111883
0.000827235
0.000691821
-0.000573338
0.00136187
-0.00111242
0.00111107
-0.000924153
0.00155906
0.000902075
0.00182738
0.000609092
0.00307528
-0.000708762
0.000325063
0.00306829
0.000834512
-0.00232242
-0.000561436
-0.000977536
-0.0018636
0.00140957
-0.000468276
0.000321092
-0.00126224
-0.000280578
-0.00123678
-5.7788e-06
-0.00128334
0.00145622
-0.000824856
0.000240061
-0.000246388
-0.00141459
0.00142092
-0.00266525
0.00111491
0.00268933
-0.000631909
-0.00176047
0.000124236
-0.000103793
0.00119205
0.000142871
0.00119236
0.000160819
0.00117966
0.000179237
0.00117476
0.000199301
0.00116088
0.000216417
0.001152
0.000262278
0.00114079
0.000239085
0.00113164
0.000190923
0.0010588
1.67477e-05
0.000918311
-0.000171728
0.000962543
-0.000219403
0.0010828
-0.000222308
0.00110756
-0.000193009
0.00110613
-0.000177473
0.00109555
-0.000160884
0.00109339
-0.000144482
0.00108577
-0.000130278
0.00108981
-0.000115752
0.00109352
-0.000100302
0.00109051
-8.58724e-05
0.00107947
-6.8981e-05
0.001083
0.000299848
-0.00137215
0.000277782
-0.00138416
0.000233014
-0.00143698
0.000202119
-0.00147429
0.000184208
-0.00145147
0.000150764
-0.00147531
-0.00287648
-0.000606908
-1.20985e-05
-0.00118192
-0.000884086
0.00146162
0.000618017
0.00118748
-0.000219099
0.00065545
0.000297395
-0.000636355
0.000755902
0.000473505
0.000932015
0.00226635
-0.00203356
0.00102336
0.00241515
-0.00164438
-0.00159536
-0.00227473
0.000505692
-0.00173335
0.00182032
-0.00113744
-0.00176421
0.00199966
0.00101445
-0.00123734
-6.03733e-05
0.000889063
-0.00117315