/*--------------------------------*- C++ -*----------------------------------*\
| =========                 |                                                 |
| \\      /  F ield         | OpenFOAM: The Open Source CFD Toolbox           |
|  \\    /   O peration     | Version:  2212                                  |
|   \\  /    A nd           | Website:  www.openfoam.com                      |
|    \\/     M anipulation  |                                                 |
\*---------------------------------------------------------------------------*/
FoamFile
{
    version     2.0;
    format      ascii;
    arch        "LSB;label=32;scalar=64";
    class       surfaceScalarField;
    location    "0.0006";
    object      phi;
}
// * * * * * * * * * * * * * * * * * * * * * * * * * * * * * * * * * * * * * //

dimensions      [1 0 -1 0 0 0 0];

oriented        oriented;

internalField   nonuniform List<scalar> 
5190
(
-1.3342e-17
-2.95411e-17
5.90908e-17
9.15877e-17
-2.27711e-17
7.77278e-17
1.86833e-17
-3.60607e-17
3.24233e-18
-3.34503e-18
1.59684e-17
1.67266e-17
4.33895e-17
-1.32713e-17
5.09169e-18
-8.44239e-18
2.92127e-17
3.36593e-17
1.90301e-17
3.57625e-17
1.04897e-17
-7.8241e-18
-6.92264e-19
7.32413e-17
-4.13777e-18
-3.46186e-17
-2.78484e-17
-1.46671e-17
-9.39837e-17
1.11993e-16
9.90041e-17
-1.12117e-17
9.4907e-17
9.31733e-18
-3.24895e-17
1.24998e-16
5.16964e-17
-8.62365e-17
8.36474e-17
-6.43746e-17
2.30531e-17
5.53344e-17
-3.34406e-17
-1.39603e-17
2.60444e-18
5.56958e-17
-2.17681e-17
3.44538e-17
2.83529e-17
4.71055e-17
2.29325e-17
-3.55881e-18
3.46889e-17
-1.95745e-17
3.4435e-17
-1.32958e-17
-8.67448e-17
-3.10894e-17
2.32869e-17
6.34528e-17
7.75637e-17
3.04785e-17
-2.61725e-17
-7.62937e-17
-1.29696e-17
-3.07939e-17
-2.19129e-17
-2.59945e-17
-5.71896e-17
-3.88832e-17
1.64625e-17
3.18624e-17
-3.28161e-19
-3.68713e-18
-8.3156e-18
4.63278e-17
2.26145e-17
-1.37031e-17
2.40985e-17
-1.18998e-17
-3.00469e-17
-4.26069e-17
-8.39859e-19
-8.48098e-18
1.88961e-18
-8.04278e-18
-6.76829e-18
-2.84605e-17
-8.79934e-19
-5.16462e-17
-6.87376e-17
-2.92414e-17
2.18128e-18
3.04328e-17
4.87332e-17
-1.40482e-18
9.2759e-18
3.06348e-17
2.98759e-17
3.65136e-17
1.03379e-17
2.78984e-17
3.17047e-17
-7.08849e-18
4.43103e-17
2.25384e-17
6.96774e-18
7.91793e-18
3.93227e-18
-2.38067e-17
8.45645e-18
3.87787e-18
2.9396e-17
-7.14937e-17
3.05568e-17
-7.02989e-17
1.47723e-17
-3.60768e-17
1.19867e-16
-6.52638e-17
6.90115e-17
2.28202e-17
4.28083e-18
-2.32153e-17
4.60464e-17
3.14699e-17
-1.08379e-16
2.80095e-17
-3.37815e-17
3.29296e-17
-5.31199e-18
2.67827e-17
4.81748e-17
-1.4696e-18
-6.64341e-18
-3.5173e-17
-2.83188e-17
5.35001e-18
-3.36751e-17
-4.24275e-17
-9.4182e-18
-3.3297e-17
-1.06221e-17
-6.48043e-17
-2.1684e-17
1.94418e-17
-3.86146e-17
9.61462e-17
-9.41835e-17
-4.64577e-17
-4.85721e-17
-7.65038e-18
-5.15381e-17
-4.5083e-17
-1.53026e-16
1.00682e-16
-9.74339e-17
-3.77658e-17
3.67038e-17
-7.51998e-17
-2.5286e-17
2.35881e-17
1.07468e-17
1.02041e-17
-5.26097e-18
-2.02245e-17
-3.74413e-18
-6.55279e-17
-4.78643e-18
4.12558e-17
2.36223e-17
1.16259e-17
-4.52528e-18
5.36321e-17
4.55581e-17
4.93041e-17
-1.33862e-16
1.08574e-16
-3.78551e-17
1.11451e-17
-1.71994e-17
-6.77648e-17
3.66297e-18
4.78327e-17
5.31746e-18
-3.78241e-17
5.34781e-17
-1.47463e-17
2.94831e-17
2.59769e-17
3.93566e-17
-2.76558e-17
-3.11823e-17
1.19077e-18
5.59006e-17
1.85689e-17
9.27537e-17
-3.36213e-17
-5.31115e-18
-7.24791e-17
-7.35972e-18
-1.78655e-17
3.49221e-17
1.68467e-17
4.80169e-17
1.25475e-16
-3.28693e-17
9.24595e-18
3.90581e-17
6.72004e-17
1.32409e-17
3.12386e-17
6.23416e-18
-3.17549e-17
-3.99788e-17
2.56884e-17
9.45669e-19
3.03479e-17
-1.55772e-17
2.46884e-17
2.46291e-17
-3.84225e-17
1.36813e-16
2.99491e-17
1.08628e-17
-4.53163e-17
-5.2687e-17
-4.96647e-17
8.50848e-18
-8.59801e-18
4.86709e-18
4.91002e-18
4.63426e-17
3.25658e-17
3.97224e-17
-1.83116e-17
5.22239e-18
-1.87977e-17
6.75698e-18
2.83781e-17
4.77123e-17
2.25387e-17
-9.20781e-18
1.23452e-17
6.95254e-18
1.0698e-17
-3.51557e-17
2.99319e-17
2.69523e-17
2.92944e-17
-3.57047e-17
9.79864e-18
4.13035e-17
-2.59417e-17
1.40498e-17
-2.52279e-17
3.77633e-17
-7.07643e-17
-4.98967e-17
-1.50258e-17
7.77441e-17
-4.44582e-17
1.93871e-17
-2.96148e-17
6.88055e-17
-1.87007e-17
1.09038e-17
-4.86851e-17
-5.59821e-17
-1.59261e-17
-8.28227e-17
-2.35069e-17
2.30681e-17
-5.1335e-17
1.2914e-17
-3.88415e-17
4.87294e-17
-2.77148e-17
5.12319e-17
-2.72251e-17
3.13692e-17
1.2723e-18
2.80945e-17
1.06963e-17
-4.86114e-17
3.15119e-17
6.07816e-17
3.60671e-18
7.6919e-17
-1.32379e-17
4.7139e-17
7.31998e-17
-3.76555e-17
4.02705e-17
-3.34425e-17
-3.12316e-18
2.17689e-17
-2.79779e-17
-3.50439e-17
1.10328e-17
3.12204e-17
-2.61096e-17
-1.90507e-17
-5.04126e-17
2.31772e-17
-2.42575e-17
-6.00447e-17
-7.79226e-17
-3.98984e-18
-4.86265e-17
-5.13733e-17
1.31991e-17
5.24686e-17
-1.67552e-17
-3.07922e-17
-6.13005e-17
-3.01526e-17
-1.30002e-17
8.12175e-18
-1.00412e-17
2.08343e-18
-5.70932e-17
-8.23754e-18
-8.27579e-18
1.57765e-17
5.16887e-17
3.7171e-17
-2.71391e-17
3.24059e-17
3.81879e-18
-3.74494e-18
4.56992e-17
2.95268e-17
4.55248e-17
-3.64156e-17
3.44776e-17
2.53237e-17
4.85251e-18
5.4812e-17
4.23343e-17
-6.47263e-18
1.67352e-17
-3.20596e-18
1.14521e-17
1.04726e-17
1.44337e-17
3.47582e-18
2.29831e-17
3.20345e-17
-1.44933e-17
-4.15296e-18
9.02184e-17
1.15403e-17
1.48443e-17
3.43002e-17
2.78156e-17
5.90334e-17
-2.45842e-17
-4.99294e-17
-3.00301e-17
3.36632e-17
9.33904e-18
5.83167e-17
5.90865e-17
3.83918e-17
-2.75456e-17
-7.03609e-17
-2.78773e-17
-3.19153e-17
4.96435e-17
2.24644e-17
6.48503e-17
-4.30641e-17
5.05156e-17
3.06677e-17
-3.89168e-17
-5.24635e-18
5.48613e-17
-4.43975e-17
1.35203e-17
3.47422e-17
-1.00836e-17
-2.01625e-17
-6.85658e-17
-1.05628e-16
1.08744e-17
-1.7199e-17
-4.03841e-17
-5.69244e-17
-5.45451e-17
-3.32538e-18
1.85892e-17
-1.17729e-17
7.09623e-18
1.4825e-17
5.73672e-17
5.65634e-17
3.16138e-17
-3.59277e-17
-2.2507e-17
5.08636e-18
-4.64166e-17
-1.89624e-17
4.45487e-18
1.13617e-17
6.95501e-18
2.96585e-17
2.12123e-17
-2.68592e-17
1.26431e-17
3.71542e-17
1.67202e-17
1.28884e-17
-2.18729e-17
1.27322e-17
8.26704e-19
5.30783e-18
-2.26159e-17
6.05654e-17
-2.85853e-17
5.27332e-18
-3.8401e-17
-4.10103e-17
1.05453e-17
2.68158e-17
2.10415e-17
1.07764e-17
9.33697e-18
4.77041e-18
-1.8081e-17
5.89781e-17
8.43456e-18
-1.8707e-18
1.62276e-17
-5.81673e-17
-5.57672e-17
-7.63283e-17
9.12757e-17
-2.55451e-17
-6.40422e-17
-4.94454e-17
1.40111e-17
-4.96779e-17
1.73598e-18
-5.84442e-17
3.55644e-17
-7.51903e-17
-2.66771e-17
1.02856e-17
9.0528e-17
-4.02587e-17
9.88621e-17
3.61184e-17
-6.99588e-18
5.21519e-17
6.32487e-17
3.31755e-17
8.87125e-18
1.87249e-17
-1.66355e-17
-2.25638e-17
1.22254e-18
-9.6648e-18
1.28218e-17
2.75277e-18
-1.92988e-17
1.09606e-17
-1.31323e-17
-3.53858e-17
-4.29829e-17
-6.48747e-17
-5.86154e-17
-3.37194e-17
-5.27379e-18
7.72343e-18
-1.84395e-17
2.41296e-17
-2.99254e-17
3.23689e-17
-1.27641e-17
-4.98746e-17
-7.93613e-18
-8.20985e-18
7.24895e-17
-3.17744e-17
9.24473e-17
5.16024e-18
2.60562e-17
-1.16235e-17
-6.3126e-17
-5.333e-17
3.5849e-17
5.78093e-17
2.07075e-17
4.44169e-17
-5.63752e-18
7.24512e-18
-1.58945e-17
-2.26345e-18
-5.27747e-17
3.39234e-18
4.00739e-17
-3.95229e-17
1.0414e-17
2.11107e-18
-6.35157e-08
-2.43017e-11
3.5907e-07
-3.45832e-11
-8.8175e-12
-1.29882e-08
-5.69042e-12
6.35691e-08
-1.30049e-08
-1.94027e-11
3.5931e-07
-6.72363e-11
7.23568e-17
2.52189e-17
7.5125e-17
3.51553e-17
-3.19248e-17
6.07838e-17
3.26154e-17
1.45298e-16
-9.71533e-18
-1.51171e-17
1.75323e-17
-6.73711e-17
3.75297e-17
2.49102e-17
-3.7463e-17
1.26634e-17
-2.66277e-17
-1.55784e-17
2.09943e-17
6.53336e-17
-5.30629e-18
-1.58295e-18
-3.67199e-17
2.94472e-18
-1.22124e-17
1.5323e-17
-6.37208e-18
-1.95544e-17
-1.767e-17
-2.3123e-17
-9.8139e-18
-2.0413e-18
-2.60589e-17
2.27428e-17
-7.48043e-18
8.56804e-17
-4.85322e-17
2.42612e-17
5.56302e-17
-1.08451e-17
-8.28128e-17
-5.63312e-18
-5.23157e-18
6.48774e-17
-1.33474e-17
3.22968e-17
-2.74368e-17
5.10048e-17
1.82029e-17
-1.74877e-18
9.0943e-18
-4.66001e-17
4.86532e-17
-3.36034e-17
-1.65471e-17
-1.36756e-17
-2.38458e-17
-1.23276e-17
-5.81853e-17
5.67023e-17
1.5195e-17
-6.02681e-17
-4.32157e-17
-5.55236e-17
2.25387e-17
4.78175e-17
1.06876e-16
6.55018e-18
-4.15086e-17
6.21395e-17
1.08399e-16
5.57131e-17
-8.21029e-18
5.5357e-17
-1.02322e-17
-4.12245e-17
-1.44568e-17
-1.17593e-17
3.91648e-17
4.55146e-17
3.41639e-18
3.62844e-17
-8.11092e-18
-7.19679e-17
4.63449e-17
-1.59537e-17
-5.6583e-18
-2.32756e-17
6.08231e-17
-2.38535e-17
1.82706e-17
-5.65823e-17
3.82904e-17
-8.39881e-19
-2.20118e-17
-2.48904e-17
-9.71871e-17
5.13122e-17
-3.5643e-17
-1.91423e-09
-1.73374e-12
-1.69212e-13
-3.3626e-10
-4.56937e-13
1.134e-13
-4.26893e-11
-6.84611e-14
4.29184e-14
-6.51296e-12
-1.15478e-14
8.92063e-15
-7.28822e-13
-2.03042e-15
1.36598e-15
-9.73463e-14
-4.63572e-16
3.34608e-16
-9.65364e-15
-1.32365e-16
5.07152e-17
-1.03529e-15
-2.07623e-17
8.25219e-18
-7.63959e-17
-3.99379e-17
-1.43773e-17
-2.66176e-17
-8.27273e-17
-5.90077e-17
-7.81906e-18
8.16024e-17
2.33819e-17
-8.60331e-18
-1.03031e-18
1.10908e-17
1.72502e-17
5.62233e-18
-3.13989e-17
3.22439e-18
2.13329e-17
6.59846e-17
4.30686e-17
-1.08702e-15
9.67366e-15
-3.29507e-17
-3.95949e-17
-9.74627e-14
7.2932e-13
-6.36292e-16
-1.07308e-16
-6.52314e-12
4.27497e-11
-1.17446e-14
-2.75133e-15
-3.36888e-10
1.91687e-09
-5.46428e-13
-5.23828e-14
-2.28229e-12
-1.83617e-17
-1.65069e-17
1.93055e-17
-3.4375e-17
3.95065e-17
-1.46099e-17
5.0312e-18
-9.13369e-18
-1.76571e-17
-3.86567e-18
2.60534e-17
3.11199e-17
-3.51138e-17
-1.08694e-17
-5.43454e-18
5.44089e-17
3.26886e-17
-1.82824e-17
4.0007e-17
3.09347e-17
-2.71726e-17
-3.52098e-17
2.97749e-17
2.60949e-18
4.2494e-17
4.23951e-17
-1.96278e-17
-4.517e-17
3.97389e-18
2.79961e-17
-1.04991e-17
-2.94842e-17
6.28365e-17
-8.10987e-19
-5.99053e-18
5.01788e-18
6.1945e-17
4.5018e-18
-7.15772e-17
1.9018e-17
3.46271e-17
6.3492e-17
-3.52699e-17
-1.06356e-18
-2.6149e-17
-6.72612e-17
2.11906e-18
-3.5232e-17
3.86814e-17
-2.08667e-17
-1.71261e-17
-6.98854e-19
-2.59151e-17
3.03026e-17
3.46712e-17
2.39749e-17
-2.55263e-17
-4.25011e-17
-3.57988e-17
4.46504e-17
-1.31112e-17
-8.15561e-17
-1.06377e-16
4.25042e-17
-1.02517e-16
-3.7157e-17
-7.69372e-17
3.90735e-17
3.53553e-17
-2.35026e-17
6.72893e-17
-5.08095e-17
6.66446e-17
1.35113e-16
4.86877e-17
8.94311e-17
-6.82527e-17
4.88363e-17
1.58256e-17
6.61333e-17
1.06957e-17
3.50907e-18
1.36644e-17
9.83236e-18
-5.23419e-17
6.08775e-18
-2.66516e-17
1.61399e-17
3.78849e-18
-1.73461e-17
7.30565e-18
-7.44548e-18
2.14661e-17
-6.75058e-17
-2.30426e-17
3.80235e-17
4.08256e-17
-8.74009e-18
5.97703e-18
-3.14559e-17
-6.47315e-17
6.81284e-17
1.62638e-17
3.14495e-17
-2.74059e-18
-3.35857e-17
5.72259e-17
2.65942e-17
-2.71325e-17
-8.33751e-17
-1.79528e-10
-2.81031e-10
1.48967e-06
-4.32653e-10
1.49066e-06
-1.50299e-17
2.52945e-17
-5.86253e-18
-2.53026e-17
5.4401e-17
7.04884e-19
6.98512e-17
1.47816e-17
5.58969e-17
-6.10988e-17
-3.85887e-17
-1.599e-17
1.82385e-17
1.96444e-17
-8.87793e-18
5.82938e-18
-2.97885e-17
-1.25374e-17
-1.77053e-17
3.24856e-17
-4.56672e-18
3.33749e-17
-4.5353e-17
3.673e-18
1.51461e-17
-2.28089e-17
8.4756e-18
8.96776e-18
1.4908e-06
-3.59296e-07
-7.71172e-10
-5.3454e-10
-1.32686e-10
6.68936e-06
-1.97644e-09
6.69466e-06
2.445e-17
1.0296e-17
8.86867e-17
-3.99686e-17
-1.98076e-17
4.76739e-17
-1.3689e-17
2.36504e-17
-4.28096e-17
5.76682e-17
2.36712e-17
9.30047e-18
-6.13217e-17
1.84333e-17
-9.75574e-18
-1.37279e-17
-1.88586e-17
4.48326e-17
-1.4894e-17
5.09308e-18
1.5311e-17
2.94905e-18
-1.44256e-17
-5.42843e-17
2.22279e-20
-1.8301e-17
7.61689e-18
-4.93536e-18
1.95193e-17
4.98483e-18
1.6216e-17
4.89301e-18
2.66397e-17
4.81365e-17
1.32986e-17
4.28847e-17
-9.93717e-17
-7.70633e-18
-5.58565e-17
-3.12493e-17
1.21418e-18
1.5665e-17
1.13026e-17
-1.19645e-17
-4.08134e-17
-3.34703e-17
-3.11577e-18
2.92057e-18
-9.38413e-18
-3.61989e-17
5.81403e-18
-3.02696e-17
-1.48034e-17
2.13809e-17
1.18652e-17
6.34666e-17
7.30248e-18
-1.32588e-17
-6.19391e-17
1.06714e-19
-1.94969e-17
2.45042e-17
-4.94238e-17
1.13567e-16
-4.72045e-17
-1.50151e-17
-2.58892e-17
-2.22304e-18
-2.10411e-17
5.85338e-17
-5.08144e-18
1.12346e-17
-3.01497e-18
2.27226e-17
4.68967e-18
3.43082e-17
1.65208e-17
1.19383e-17
5.3072e-17
-4.48059e-17
-3.20295e-17
-3.10587e-18
-5.30832e-17
2.63272e-17
-3.17648e-17
3.48389e-18
-1.71925e-17
3.19796e-17
8.08357e-17
-2.08857e-17
-1.04626e-17
2.38799e-17
9.50478e-17
-4.09545e-18
-5.65832e-17
5.92734e-18
-9.9624e-18
3.62134e-17
-6.23281e-17
-1.00371e-17
9.0771e-18
7.34555e-18
-5.207e-17
-6.2544e-17
-3.48473e-17
5.06247e-17
-2.06542e-17
2.098e-17
-7.47082e-17
-4.5116e-17
-1.7696e-17
3.82701e-17
6.85518e-17
6.02429e-17
4.16249e-19
-5.39131e-17
-5.41778e-19
-4.49462e-17
3.50822e-17
-3.31746e-17
-1.47164e-17
2.0839e-17
7.94469e-18
-1.57939e-17
-2.11104e-17
2.08732e-17
3.1952e-17
5.63803e-17
-3.22214e-18
2.7592e-17
6.35361e-08
-1.29898e-08
-1.88515e-11
-8.35164e-11
1.91364e-09
-3.35968e-10
-2.60869e-13
-1.89659e-12
4.26566e-11
-6.50418e-12
1.08165e-15
-2.44423e-14
7.28411e-13
-9.73972e-14
7.10398e-17
1.82525e-16
9.69713e-15
-1.09024e-15
-2.50997e-18
1.08839e-17
-5.74404e-17
1.49264e-06
-3.59785e-07
-6.98995e-10
7.36281e-10
-1.84527e-09
6.69898e-06
6.69114e-06
-2.57682e-17
-2.17116e-19
3.78382e-18
-1.53838e-17
3.03629e-17
-2.63968e-17
-1.16988e-16
-6.44479e-18
-7.24918e-17
4.89848e-17
2.2007e-17
-1.83571e-17
3.33793e-17
7.07255e-18
-1.17353e-17
2.84385e-18
-1.04522e-15
9.67366e-15
-1.23106e-17
-1.9116e-17
-9.73822e-14
7.30884e-13
-1.14698e-15
-7.19674e-17
-6.53422e-12
4.28e-11
-1.17105e-14
-2.70794e-15
-3.37242e-10
1.91989e-09
-4.43185e-13
-4.36117e-14
-1.30224e-08
6.3661e-08
-2.2246e-11
-1.66332e-12
-7.68243e-11
4.20779e-19
-5.92233e-18
1.03006e-17
2.66901e-17
-1.5578e-18
1.73327e-17
2.59941e-17
3.11846e-17
-2.10057e-17
-1.30794e-17
3.18546e-17
4.01768e-17
-4.01052e-18
1.26175e-17
-9.01133e-18
2.73626e-17
2.27141e-17
-2.41227e-17
-4.66115e-18
-8.5927e-18
1.29903e-17
-3.05136e-17
1.67442e-17
2.37585e-17
5.51388e-17
4.82813e-17
2.65592e-17
-3.97775e-17
-6.65109e-17
-2.69698e-17
-6.43347e-17
-3.46148e-17
-8.00261e-18
-1.52464e-17
2.22261e-17
-1.58448e-17
4.02124e-17
3.14106e-17
1.20053e-17
-2.8508e-17
2.90224e-17
-3.97731e-17
9.45975e-17
6.97168e-17
3.96551e-17
7.86363e-18
2.17478e-17
3.91868e-19
-2.23675e-17
-4.87227e-17
-4.80565e-18
6.00132e-18
-2.89224e-17
-2.61789e-17
9.58702e-18
-2.96636e-17
-3.55886e-17
-6.62459e-17
-1.14993e-17
6.03814e-17
-4.07699e-17
1.72853e-17
5.60699e-17
-1.52865e-17
2.82223e-17
6.03494e-17
3.26519e-18
1.11336e-17
-7.66803e-17
5.79897e-17
-3.2164e-17
3.4536e-17
-2.43718e-18
-6.09771e-17
-3.85328e-17
-2.4619e-17
3.69091e-17
-8.32606e-17
-3.70823e-17
-6.45749e-17
6.45192e-17
-6.02751e-18
-1.21631e-16
-9.66519e-17
-8.96204e-17
4.07602e-17
-8.67434e-17
-7.67204e-17
6.64008e-17
-9.4661e-18
-1.36559e-17
-3.92419e-17
-7.09054e-17
-2.31383e-17
3.95988e-17
4.27495e-17
8.46615e-17
-1.44142e-17
6.45387e-17
1.67478e-17
7.87114e-17
-1.43022e-17
-4.34762e-17
-5.97006e-17
-2.30365e-17
2.77059e-17
3.1008e-17
7.51526e-18
4.21273e-17
-2.97775e-17
-3.87326e-17
-4.29753e-17
4.20095e-17
2.23232e-17
2.4503e-17
-1.64308e-18
-1.83233e-17
-1.68655e-17
3.94327e-17
1.46551e-17
3.35691e-17
-4.63873e-18
5.35595e-17
-6.45491e-18
-2.2157e-17
1.41079e-17
-2.63597e-18
2.66406e-17
1.33876e-17
-3.47942e-17
2.20564e-17
3.56185e-17
1.63309e-17
2.089e-17
1.49459e-06
-3.60062e-07
-8.56183e-10
6.71128e-06
-2.47178e-09
4.18618e-17
-2.66452e-17
-2.90588e-17
1.19243e-17
6.64932e-17
-2.65241e-17
-3.61088e-17
-7.17119e-18
1.98305e-17
-9.94828e-18
3.63179e-17
1.21724e-17
-2.30771e-17
1.78694e-17
1.61266e-18
-2.38226e-17
1.07475e-17
-1.78698e-17
5.08799e-18
-3.19135e-17
1.2888e-17
-1.35509e-17
-9.45299e-20
6.17411e-17
-8.02919e-17
-6.24488e-17
3.77169e-17
-1.64694e-17
-2.46547e-17
1.33371e-17
9.91926e-18
4.69953e-17
-5.07487e-17
-9.66129e-18
9.96568e-17
-1.24522e-17
2.85217e-17
5.7503e-17
-2.81066e-18
7.11156e-19
3.86929e-17
2.46018e-17
-9.65868e-18
5.19433e-18
1.12424e-17
4.84424e-17
1.11162e-17
-2.87314e-18
4.84845e-17
-1.9808e-17
3.351e-17
5.31335e-17
1.51382e-17
-4.51449e-20
1.78716e-17
-4.7528e-17
-2.47249e-17
1.49627e-06
-3.6055e-07
-7.34867e-10
6.71632e-06
-1.98073e-09
7.00258e-18
5.42851e-18
-3.92076e-17
4.10238e-17
-6.78803e-18
2.26277e-18
5.75772e-17
1.63815e-19
3.36064e-18
-3.64641e-17
-2.95907e-17
4.88126e-17
2.66452e-17
-1.28629e-17
3.10345e-17
-1.83816e-17
-2.75386e-17
-5.18628e-17
1.4043e-16
-6.91065e-17
5.22493e-17
2.70467e-17
3.75949e-18
-1.94346e-17
2.74229e-17
1.89373e-17
2.5521e-17
-1.45691e-17
2.96412e-17
1.06729e-17
2.1702e-18
4.036e-17
3.25825e-17
-1.22237e-17
9.96739e-18
-7.70005e-18
4.2046e-17
-3.95228e-18
6.15878e-18
1.58965e-17
2.96856e-17
-1.60936e-17
-1.81959e-17
1.25423e-17
-2.13276e-17
1.08685e-17
-1.57694e-17
-3.74148e-17
-4.29003e-17
7.47403e-17
-1.36943e-17
-1.9632e-17
-4.70336e-17
-5.73748e-17
2.59143e-17
3.73501e-17
-4.33952e-17
-3.16047e-17
1.3165e-17
5.67611e-18
-1.96406e-18
-2.84853e-17
-9.38712e-18
1.23439e-17
2.26673e-17
-4.56043e-17
2.90436e-17
5.32506e-18
-2.17179e-17
3.57171e-17
1.54438e-18
-5.85315e-18
1.56778e-17
2.27669e-17
2.2986e-17
2.65273e-17
1.08624e-17
1.13717e-17
1.7076e-17
1.91237e-17
6.64385e-19
8.63978e-18
-2.36824e-17
-1.42166e-18
4.25954e-17
6.47977e-17
-2.15939e-17
1.70009e-17
-2.43954e-17
9.3117e-18
3.00764e-17
7.05288e-17
5.43418e-17
-9.01975e-17
4.31899e-17
7.21676e-18
2.17376e-17
-3.28717e-17
-5.11555e-17
4.19113e-18
-6.06941e-17
3.96942e-17
-2.708e-17
-1.36077e-17
2.04111e-17
-2.83423e-17
-8.15695e-18
-2.67185e-18
8.56497e-17
1.1568e-18
2.91953e-17
-1.85239e-17
-2.95172e-17
-2.63202e-17
-5.22975e-17
-5.10679e-17
3.83242e-18
3.2928e-17
5.07523e-17
-4.56639e-17
-6.12831e-17
-4.42225e-17
1.13557e-17
1.20968e-17
9.43666e-17
-1.45751e-17
9.05954e-18
-1.65406e-17
-2.43385e-17
7.88296e-17
2.00916e-17
5.33829e-17
-3.92126e-17
3.31923e-17
-9.91273e-17
-3.46726e-17
3.67196e-17
-3.07467e-17
-2.66192e-17
-7.34854e-17
2.0954e-17
6.36587e-08
-1.30114e-08
-2.72325e-11
-1.03757e-10
1.91624e-09
-3.36384e-10
-5.13588e-13
-2.83944e-12
4.26991e-11
-6.51159e-12
-6.97234e-15
-4.86421e-14
7.29316e-13
-9.76569e-14
-1.03491e-16
-8.24407e-16
9.77737e-15
-1.1091e-15
1.54524e-17
9.88132e-18
-1.07981e-17
-9.55601e-10
-5.23749e-09
2.33413e-05
5.79925e-09
-8.71736e-09
2.33759e-05
2.33473e-05
2.39812e-17
9.52458e-18
9.08969e-09
2.34198e-05
-1.34706e-08
2.33663e-05
-3.81338e-19
-2.69736e-17
2.22556e-18
2.2181e-17
3.96689e-17
1.51265e-17
-1.24457e-17
2.16545e-17
1.94687e-17
4.95887e-17
-7.15147e-17
7.64873e-19
-7.12813e-17
3.87411e-17
4.69549e-17
7.55595e-17
1.84112e-17
7.75444e-18
-1.08986e-15
9.72936e-15
4.09282e-18
-4.82009e-18
-9.76985e-14
7.31958e-13
-9.21909e-16
-1.01423e-16
-6.53774e-12
4.28667e-11
-1.66082e-14
-2.37095e-15
-3.37511e-10
1.92304e-09
-4.01278e-13
-3.58555e-14
-1.30415e-08
6.37946e-08
-1.86967e-11
-1.73489e-12
-7.73613e-11
-8.60557e-18
8.44331e-18
-4.46013e-17
2.46427e-17
-3.21882e-17
2.0903e-17
-1.6173e-17
-2.32359e-17
6.6755e-18
-4.69487e-17
-2.85466e-17
-5.1002e-18
-2.045e-17
1.01363e-17
-6.24758e-17
-1.667e-18
3.71477e-17
2.39619e-17
1.05501e-17
-2.25556e-17
-9.21552e-18
-2.45711e-17
-3.40438e-17
-4.9459e-17
5.88173e-18
-2.58854e-17
-4.39782e-17
-2.84743e-17
1.40407e-17
-4.02695e-18
-1.51731e-17
-2.66928e-17
5.354e-18
-8.10036e-17
-2.05588e-17
2.38621e-18
4.63496e-17
1.58601e-17
-8.34957e-18
1.39921e-17
-5.45743e-17
3.26479e-17
-5.50634e-17
-8.03674e-18
-5.98289e-17
6.91933e-17
-3.78659e-17
2.66585e-17
-1.94594e-17
-9.94717e-18
1.31088e-17
6.60149e-18
6.93388e-17
-9.70631e-18
-2.79666e-17
1.3124e-16
-9.36262e-17
8.1678e-17
-9.92682e-18
-7.75868e-18
-5.23195e-17
9.16931e-17
1.04991e-16
5.47124e-18
6.11301e-17
4.13655e-17
-5.94883e-17
3.3163e-17
-7.65021e-17
-6.09126e-17
1.27202e-17
-4.76849e-17
4.32955e-17
3.2941e-17
-1.73173e-17
-8.30356e-17
-5.60888e-17
-1.21955e-17
3.0906e-17
-1.06591e-16
-9.31283e-18
5.31459e-18
-9.90464e-18
-3.75668e-17
-5.88939e-17
4.75047e-17
1.78298e-17
-2.69402e-18
-2.54622e-17
-3.00793e-17
5.33537e-17
-5.02838e-17
-1.51381e-17
-4.92741e-18
-6.50074e-17
-6.81742e-17
-8.5067e-17
7.01289e-17
-1.16602e-16
-2.76312e-17
-1.18373e-16
1.14183e-16
-1.31891e-17
-5.09194e-17
-1.09641e-16
-5.48052e-17
1.37168e-17
3.89589e-17
7.76438e-17
-2.44353e-17
8.1417e-17
9.47795e-17
6.96724e-17
-1.56716e-16
2.64246e-17
5.5096e-18
1.41122e-16
1.8439e-17
2.76538e-17
8.16914e-17
4.52384e-17
7.33149e-17
-2.68196e-17
6.68414e-17
2.07324e-17
-2.61084e-17
-1.89464e-17
-4.51844e-17
4.85436e-17
-6.21923e-17
-1.064e-17
-1.4084e-17
6.68714e-18
4.85522e-17
-5.41297e-18
3.49695e-17
5.15687e-17
-7.49892e-18
3.09204e-17
-2.81545e-17
1.50923e-18
-1.12048e-18
5.00558e-18
6.34532e-18
-1.94751e-17
5.91031e-18
-8.88625e-18
-1.19888e-17
3.40318e-17
1.73668e-17
1.15645e-17
-1.4474e-17
-2.73189e-17
-2.66644e-17
1.07891e-17
-6.54466e-17
2.37775e-17
1.33313e-17
-1.49296e-17
1.6236e-17
2.5972e-17
-7.88194e-17
-1.25536e-17
-4.85216e-18
-5.69772e-18
4.27481e-17
-1.03324e-17
2.82891e-18
1.45587e-19
1.14259e-17
-1.08214e-17
-3.45304e-17
-1.77756e-17
-1.44895e-18
1.44953e-17
-8.91666e-18
4.6457e-17
-1.75095e-17
3.56061e-17
-5.67215e-17
1.7822e-18
3.01234e-17
-1.54768e-17
3.42712e-17
3.45489e-17
-3.45868e-17
-1.72851e-17
-5.89473e-17
1.76772e-17
-1.22621e-17
-8.27885e-18
-2.3623e-17
2.49928e-17
-3.43117e-17
-2.40155e-17
2.37426e-17
-2.37246e-17
-1.34907e-17
2.42079e-17
-2.25089e-17
-3.80718e-18
5.91195e-18
-6.03568e-17
-7.16353e-18
4.87486e-18
-1.27719e-08
2.343e-05
-1.00802e-18
4.67055e-17
3.32845e-17
1.10793e-18
4.27014e-17
3.20567e-17
-2.71309e-17
1.85326e-17
-1.0235e-17
-2.0368e-18
-1.76723e-17
-4.07936e-17
1.61906e-17
2.08999e-17
-3.97559e-17
-2.62039e-17
-4.75845e-19
2.016e-17
-9.67629e-18
8.93136e-18
-2.76824e-17
4.0597e-17
-7.44326e-17
2.0566e-17
-3.71585e-17
-9.13439e-19
5.14678e-17
-3.00332e-18
-3.77155e-17
-6.37939e-17
-9.30908e-17
1.95111e-17
-2.78958e-17
2.81523e-18
-3.93834e-17
-4.5306e-17
-9.95742e-18
-1.17315e-17
2.06906e-17
2.32133e-17
-4.5915e-17
7.77902e-17
5.58108e-17
6.60328e-18
-2.42983e-18
7.38022e-17
-3.31211e-17
1.34271e-17
1.75915e-17
1.6217e-17
3.0404e-17
1.95763e-17
-2.26869e-17
1.34471e-17
1.30378e-17
2.01595e-17
3.06925e-17
-3.28378e-18
-1.10462e-19
-6.2323e-18
-1.18337e-18
5.69585e-17
-5.84181e-18
2.43156e-17
-6.7752e-17
4.64299e-18
3.47891e-17
8.62229e-18
9.48074e-18
6.0342e-17
4.53418e-18
5.91908e-17
2.96747e-17
9.03989e-18
-2.46114e-17
-3.20255e-17
3.2694e-17
2.38134e-17
-1.81857e-08
1.08251e-08
7.73771e-05
2.3483e-05
-6.73079e-06
-1.97345e-08
-5.37153e-08
7.75239e-05
3.30451e-17
6.59859e-17
3.31627e-17
-1.94786e-17
-1.9523e-17
8.03406e-18
2.92325e-17
2.69075e-17
2.70949e-17
-4.01512e-17
1.92393e-17
-2.98829e-17
3.23926e-17
-2.87803e-17
8.7851e-18
5.32616e-18
1.37849e-17
3.11008e-17
-1.53449e-17
1.07974e-17
3.27196e-18
6.38316e-18
6.08451e-17
-2.62213e-17
2.5445e-18
1.69206e-17
5.88415e-17
-1.47786e-18
2.43088e-17
-1.87785e-17
-1.15794e-16
1.92445e-17
1.83901e-17
5.66782e-17
-3.30272e-17
4.84632e-17
-1.45321e-18
-5.63362e-18
-2.58319e-17
-3.6683e-17
7.18491e-19
-1.63024e-17
-6.58122e-18
1.13982e-17
3.4275e-17
1.58022e-17
-1.06658e-17
3.73108e-17
8.64449e-17
3.43695e-17
-4.54145e-17
4.892e-18
9.35128e-18
-7.57606e-18
4.5279e-17
-2.7207e-17
2.51952e-17
1.35525e-18
5.01518e-17
1.63075e-17
-3.60002e-17
-5.25576e-17
-2.28091e-17
1.5445e-18
2.4536e-18
3.69067e-18
-3.1048e-17
-2.19838e-17
-3.05492e-17
4.40941e-17
-5.97717e-17
7.04774e-18
1.65101e-17
-2.3728e-17
5.46576e-17
-5.36207e-17
2.68788e-17
1.03367e-17
1.99725e-17
-6.42057e-18
-9.88091e-18
-2.50228e-17
9.51676e-18
4.22724e-17
9.17996e-18
3.06271e-17
-6.81559e-17
-3.5536e-17
-4.52057e-17
3.34001e-17
-2.15324e-17
-4.45196e-17
-9.43514e-18
-8.63834e-17
-5.43965e-17
-8.38602e-17
7.19085e-17
2.59674e-17
1.7007e-17
2.66206e-17
-4.54395e-17
4.41067e-18
5.27696e-17
6.34633e-17
5.98092e-17
2.52837e-17
-3.9384e-17
-4.5202e-17
-1.02779e-16
3.82588e-17
-6.30253e-17
-1.47173e-17
5.00004e-17
-3.90717e-17
-2.35979e-17
-4.96796e-17
-3.95484e-18
1.49879e-06
-3.60934e-07
-1.03962e-09
-3.40289e-09
6.38065e-08
-1.30385e-08
-3.39784e-11
-1.40703e-10
1.9198e-09
-3.37016e-10
-7.66697e-13
-3.74657e-12
4.27705e-11
-6.52529e-12
-1.95566e-14
-8.62971e-14
7.31495e-13
-9.80087e-14
-2.97752e-16
-1.70926e-15
9.79327e-15
-1.11913e-15
3.37029e-17
-2.36966e-17
7.05885e-17
3.82115e-17
5.66527e-18
-8.08421e-18
1.97455e-17
4.2189e-17
3.75134e-17
3.5494e-17
-8.87758e-09
5.95094e-09
7.72512e-05
2.34906e-05
-6.73422e-06
-1.8731e-08
1.83529e-08
-4.91003e-08
7.7531e-05
7.73825e-05
-5.05933e-09
-6.41331e-09
7.71735e-05
7.71918e-05
7.7235e-05
3.58514e-18
-1.07641e-18
3.27876e-17
8.99485e-17
2.50857e-17
-2.95329e-17
6.87977e-17
7.25768e-17
-5.58582e-17
5.32528e-17
-2.85571e-17
6.50386e-17
-1.37657e-17
1.54069e-17
-2.23388e-17
7.5568e-17
-1.09937e-15
9.81657e-15
-1.61893e-17
-2.62299e-17
-9.80124e-14
7.32767e-13
-9.94928e-16
-1.01438e-16
-6.54282e-12
4.28828e-11
-1.89838e-14
-3.72853e-15
-3.37842e-10
1.92516e-09
-5.34832e-13
-9.8822e-14
-1.30605e-08
6.39051e-08
-2.13674e-11
-2.27425e-12
-3.61297e-07
1.49997e-06
-8.55311e-10
-1.09151e-10
-2.91431e-09
2.29501e-17
1.96165e-17
2.85632e-18
1.53527e-17
-2.28068e-17
2.21068e-19
-3.74565e-17
-1.58246e-17
3.91207e-17
6.16985e-18
-2.45415e-17
-4.15077e-17
-2.81726e-17
-9.63892e-18
2.59353e-18
7.0499e-18
8.4337e-19
-1.45579e-17
-2.56823e-18
-2.75722e-17
1.20098e-17
1.05848e-17
-4.80205e-18
-1.00369e-17
-2.12132e-17
-3.53713e-17
2.84165e-17
1.56561e-17
1.07478e-17
-6.64627e-17
1.56195e-17
5.67835e-17
9.93589e-18
1.02186e-17
3.63416e-17
2.66503e-17
-3.85411e-17
7.82791e-17
2.49584e-17
-1.14122e-17
-1.77607e-17
3.86722e-17
-6.91584e-17
-7.19702e-17
-6.54971e-17
1.47869e-17
-5.56451e-17
-4.88571e-17
4.71569e-17
-8.49452e-17
-3.43942e-17
-1.04142e-16
4.74688e-17
3.46932e-17
9.31643e-17
5.22695e-18
-2.43818e-17
-9.47204e-17
-4.35357e-17
5.87846e-17
4.32182e-17
2.27156e-17
-9.40568e-18
-7.2948e-17
3.70745e-17
6.07576e-17
-3.12159e-17
-8.22089e-17
-2.53533e-17
-3.94605e-17
-8.84623e-17
-7.19357e-17
4.42452e-17
4.03618e-17
-2.87361e-18
-9.95179e-17
-1.58915e-17
1.82906e-18
2.62066e-17
-2.71268e-17
2.46899e-17
-8.02469e-17
-2.7189e-17
-5.76633e-17
3.89041e-17
-1.28146e-16
-6.05143e-17
5.13705e-18
3.94692e-17
1.08748e-16
1.41189e-17
-1.3461e-17
-6.34469e-17
1.00313e-17
4.07843e-17
8.13078e-17
-4.40948e-17
8.51141e-17
1.44892e-16
1.03837e-16
-5.17029e-17
3.67806e-17
2.12931e-17
6.01787e-17
-3.30582e-17
2.35476e-17
1.69256e-17
-9.41901e-18
6.99664e-17
2.96633e-17
-2.04556e-17
-3.60615e-17
4.51299e-18
4.28437e-17
2.58037e-17
-8.57806e-17
2.41912e-17
-3.28053e-17
7.70663e-17
6.74639e-19
1.3709e-17
2.10904e-17
1.31831e-17
6.04299e-17
-4.29034e-17
7.7902e-18
-4.8247e-18
-9.79898e-18
-2.22231e-17
3.30316e-17
4.13327e-17
-5.60068e-17
-5.6607e-17
7.84598e-17
-8.37545e-17
-5.15923e-17
-2.27923e-17
-3.77774e-18
1.94747e-17
1.51255e-17
2.22586e-17
1.45014e-17
-1.4447e-17
1.98478e-18
-7.26686e-18
-1.54917e-17
-3.06941e-17
1.72356e-17
2.69148e-17
-3.24565e-17
5.84782e-18
4.30669e-17
6.01427e-17
-8.13424e-17
8.16383e-18
4.82173e-18
8.87782e-18
-1.91563e-17
-2.07798e-17
-3.90042e-17
-1.03093e-17
3.23264e-17
4.92467e-17
5.01513e-19
9.01249e-18
6.67747e-18
3.64843e-17
3.67643e-17
2.43391e-17
1.61595e-17
-1.66717e-18
-4.62768e-17
-3.43272e-17
-4.90023e-17
2.71045e-17
-4.58844e-18
-2.34224e-17
-1.88997e-17
-9.8906e-18
-3.64456e-18
-5.02495e-17
1.12192e-17
-4.76344e-17
4.92717e-18
-3.21865e-18
2.35377e-05
-6.74713e-06
-3.44002e-08
7.76409e-05
-1.42468e-07
2.38415e-17
3.91021e-17
4.35068e-17
-4.708e-17
2.51379e-17
4.13162e-17
-3.12866e-17
-1.8918e-17
-2.06063e-17
1.97103e-17
-1.72902e-17
-3.14887e-17
3.55804e-17
4.2701e-17
1.30775e-17
-1.88726e-17
-6.3651e-17
4.09118e-18
3.65787e-19
2.93221e-17
1.07513e-16
-4.21594e-17
-3.68219e-17
-1.64932e-17
3.68249e-17
5.51062e-17
1.29004e-17
-6.00719e-18
-3.45186e-18
-2.24732e-18
-4.16462e-17
-1.10464e-17
1.22767e-17
1.35219e-18
6.26924e-17
-2.30781e-17
-1.89886e-17
1.52466e-17
2.60839e-18
-2.10246e-18
-4.82285e-18
1.12756e-17
2.08911e-17
2.0825e-17
2.35347e-05
-6.74551e-06
-3.53758e-08
7.76427e-05
-1.4337e-07
-8.05288e-08
4.34655e-08
0.000198796
-2.04053e-07
0.000199062
6.23097e-18
-3.3851e-19
-1.47127e-17
2.07083e-17
1.53547e-17
1.13853e-17
-1.06083e-17
-1.78447e-18
1.72813e-17
-1.32539e-17
6.9686e-18
9.42545e-18
5.31713e-17
-2.32594e-18
2.98245e-18
1.50391e-17
-1.81793e-17
4.72786e-17
-1.42277e-17
-2.71483e-17
-3.55438e-17
3.2959e-17
4.92197e-17
2.10282e-17
2.85102e-17
3.70284e-18
7.85783e-17
-2.04151e-17
5.56182e-17
3.29202e-17
2.78125e-17
2.02698e-17
-1.54194e-17
4.95047e-17
-6.76248e-17
-9.87086e-18
-6.19079e-17
1.74224e-17
-2.5328e-17
1.96377e-17
9.44368e-18
2.48674e-17
-3.15264e-17
-6.72652e-18
-4.043e-17
8.69551e-19
-3.49664e-18
2.5655e-17
-7.95529e-18
-2.08438e-17
2.31743e-18
-2.23881e-17
1.83028e-17
2.40977e-17
6.92263e-18
7.72042e-18
-3.02026e-17
-1.51379e-17
7.48216e-17
1.8909e-17
-1.74619e-17
-8.89534e-18
-7.93499e-17
5.86465e-18
-1.06318e-17
4.32266e-18
-1.00495e-17
5.48132e-17
3.30082e-17
2.00782e-17
-6.25387e-17
4.91155e-17
1.39596e-18
4.58638e-18
6.11244e-17
-6.18965e-17
-3.03267e-19
-1.07116e-17
1.1427e-17
-7.55977e-17
-9.19594e-17
8.99318e-18
2.54112e-19
-1.18024e-17
-4.3949e-17
-7.91251e-17
-2.80705e-17
3.33966e-17
2.75313e-17
7.1519e-17
-7.73637e-17
7.05738e-17
-1.18536e-17
4.43858e-17
3.50462e-17
-5.59851e-17
-6.20902e-17
3.44982e-18
1.01896e-17
7.83219e-17
9.89024e-17
-3.26623e-18
3.28904e-17
-2.03829e-18
7.14077e-17
-4.40314e-17
9.54879e-18
-4.65789e-17
5.61017e-17
-5.94399e-17
4.56193e-18
-7.93743e-17
-2.93185e-17
4.70327e-17
2.56629e-17
5.41808e-18
-3.83342e-18
1.40138e-17
-8.32338e-17
1.32239e-17
3.29825e-17
3.07347e-17
2.32742e-17
3.59839e-17
4.00138e-17
2.67436e-19
4.1367e-17
3.89929e-17
4.35916e-17
-1.86797e-17
-1.10989e-17
-6.04408e-18
-1.75535e-17
-1.41285e-17
1.50235e-06
-3.61693e-07
-1.52831e-09
-7.34989e-09
6.39466e-08
-1.30623e-08
-4.58771e-11
-2.5557e-10
1.92368e-09
-3.37664e-10
-1.16054e-12
-6.35031e-12
4.28871e-11
-6.54489e-12
-2.62196e-14
-1.45245e-13
7.34169e-13
-9.84593e-14
-4.0009e-16
-3.02578e-15
9.87512e-15
-1.1596e-15
-2.42635e-17
-1.98331e-17
9.0883e-17
8.13755e-17
2.19026e-17
-1.33915e-17
-2.77964e-17
-1.34575e-17
6.77899e-17
3.92211e-17