/*--------------------------------*- C++ -*----------------------------------*\
| =========                 |                                                 |
| \\      /  F ield         | OpenFOAM: The Open Source CFD Toolbox           |
|  \\    /   O peration     | Version:  2212                                  |
|   \\  /    A nd           | Website:  www.openfoam.com                      |
|    \\/     M anipulation  |                                                 |
\*---------------------------------------------------------------------------*/
FoamFile
{
    version     2.0;
    format      ascii;
    arch        "LSB;label=32;scalar=64";
    class       volScalarField;
    location    "0.0055";
    object      T;
}
// * * * * * * * * * * * * * * * * * * * * * * * * * * * * * * * * * * * * * //

dimensions      [0 0 0 1 0 0 0];

internalField   nonuniform List<scalar> 
2308
(
197.859
186.932
232.315
173.149
182.861
178.499
176.565
180.737
184.465
151.977
153.855
156.54
158.445
160.362
162.255
164.113
165.917
167.47
165.773
163.982
162.091
160.153
158.168
156.118
154.07
152.014
150.008
147.985
176.879
167.674
145.878
143.836
141.816
139.809
137.813
135.822
133.834
131.845
129.853
127.862
125.87
123.881
121.891
119.901
117.911
117.911
119.899
121.885
123.874
125.862
127.849
129.837
131.827
133.813
135.8
137.791
139.783
141.784
143.798
145.835
147.918
149.865
151.77
153.596
155.33
157.022
158.792
160.64
162.502
164.35
166.181
115.925
115.917
165.972
164.007
162.033
160.042
158.031
156.009
153.991
151.941
149.893
147.89
145.861
143.833
141.82
139.819
137.822
135.829
133.836
131.844
129.852
127.86
125.868
123.878
121.888
119.899
117.911
169.139
115.922
169.366
167.983
115.896
117.888
119.875
121.864
123.851
125.84
127.83
129.822
131.808
133.796
135.784
137.772
139.761
141.755
143.756
145.757
147.746
149.693
151.647
153.546
155.402
157.23
159.058
160.911
162.776
164.633
166.48
182.141
177.785
176.117
177.132
168.301
166.178
164.063
162.019
159.991
157.967
155.943
153.921
151.888
149.846
147.843
145.835
143.823
141.816
139.818
137.821
135.827
133.835
131.842
129.849
127.856
125.865
123.874
121.883
119.894
117.907
115.919
113.93
113.935
113.937
113.925
181.859
113.907
183.546
184.284
169.747
186.548
181.476
170.957
168.332
111.941
111.944
111.945
111.933
111.918
111.903
113.89
115.882
117.868
119.857
121.844
123.833
125.823
127.814
129.805
131.794
133.782
135.77
137.758
139.747
141.736
143.725
145.71
147.678
149.619
151.574
153.508
155.45
157.375
159.263
161.148
163.032
164.914
166.779
172.491
200.95
181.352
180.38
178.34
176.375
174.367
172.324
170.259
168.185
166.124
164.056
161.998
159.958
157.928
155.9
153.875
151.847
149.818
147.813
145.813
143.811
141.811
139.815
137.819
135.826
133.832
131.838
129.844
127.853
125.86
123.867
121.877
119.889
117.9
115.912
113.924
111.935
248.548
185.276
203.92
171.176
223.583
185.304
170.18
172.661
111.889
113.878
115.866
117.855
119.841
121.83
123.82
125.811
127.802
129.792
131.782
133.771
135.759
137.747
139.733
141.719
143.699
145.673
147.632
149.578
151.531
153.487
155.461
157.439
159.397
161.337
163.254
165.154
167.051
168.649
187.772
184.389
180.47
178.282
176.251
174.224
172.185
170.138
168.089
166.044
163.999
161.955
159.921
157.892
155.867
153.842
151.817
149.797
147.793
145.795
143.8
141.807
139.81
137.817
135.822
133.827
131.832
129.84
127.847
125.853
123.861
121.872
119.882
117.892
115.904
113.915
111.928
109.939
109.945
109.949
109.951
109.95
109.943
109.929
109.916
109.902
207.088
229.682
271.129
187.019
196.094
271.999
168.93
170.52
189.389
188.909
197.182
179.963
180.233
178.181
176.13
174.093
172.059
170.025
167.993
165.962
163.931
161.901
159.875
157.853
155.833
153.812
151.793
149.78
147.777
145.782
143.792
141.8
139.806
137.812
135.817
133.821
131.829
129.835
127.84
125.847
123.857
121.865
119.873
117.884
115.895
113.907
111.92
109.933
107.944
107.95
107.955
107.955
107.958
107.96
107.95
107.939
107.928
107.917
107.907
109.892
111.88
113.868
115.857
117.843
119.832
121.821
123.811
125.802
127.792
129.782
131.771
133.76
135.747
137.733
139.718
141.699
143.675
145.643
147.601
149.552
151.508
153.475
155.456
157.442
159.447
161.44
163.41
165.349
167.275
189.231
170.78
172.389
174.553
190.854
190.508
188.692
187.029
185.289
182.311
182.157
180.15
178.07
176.006
173.961
171.932
169.909
167.891
165.874
163.856
161.839
159.822
157.808
155.795
153.783
151.772
149.764
147.765
145.773
143.782
141.79
139.797
137.803
135.808
133.815
131.822
129.827
127.834
125.843
123.851
121.858
119.867
117.875
115.887
113.9
111.912
109.925
107.938
105.951
105.956
105.96
105.963
105.966
105.964
105.964
105.956
105.949
105.939
105.931
105.921
105.913
107.9
109.886
111.874
113.861
115.849
117.838
119.826
121.816
123.806
125.795
127.785
129.773
131.762
133.749
135.736
137.72
139.703
141.68
143.654
145.62
147.579
149.535
151.493
153.469
155.448
157.437
159.446
161.466
163.488
165.491
167.453
169.178
190.949
190.759
265.726
171.037
186.394
188.393
190.266
174.087
178.467
174.721
172.592
192.311
192.218
103.962
103.965
103.969
103.971
103.971
103.971
103.969
103.964
103.957
103.95
103.942
103.933
103.925
103.918
105.906
107.894
109.882
111.87
113.858
115.846
117.835
119.823
121.812
123.801
125.79
127.778
129.766
131.753
133.739
135.724
137.707
139.687
141.665
143.636
145.602
147.563
149.522
151.484
153.46
155.442
157.428
159.44
161.457
163.486
165.532
167.569
169.391
182.747
192.574
176.442
230.819
180.072
177.94
175.861
173.818
171.798
169.788
167.784
165.781
163.776
161.771
159.765
157.759
155.755
153.751
151.748
149.747
147.751
145.759
143.768
141.776
139.784
137.791
135.798
133.805
131.812
129.82
127.828
125.836
123.843
121.851
119.859
117.868
115.881
113.892
111.904
109.917
107.931
105.944
103.957
192.333
192.561
245.452
174.329
194.19
172.866
103.911
105.901
107.889
109.878
111.866
113.855
115.844
117.832
119.821
121.809
123.797
125.785
127.772
129.758
131.744
133.729
135.711
137.693
139.672
141.648
143.62
145.587
147.55
149.512
151.477
153.455
155.429
157.421
159.429
161.444
163.472
165.524
167.607
169.576
181.301
194.071
101.967
101.971
101.974
101.977
101.977
101.977
101.977
101.975
101.97
101.965
101.958
101.95
101.943
101.936
101.928
101.921
184.12
193.86
191.703
189.593
187.469
178.584
179.245
185.953
173.838
179.85
177.732
175.676
173.655
171.654
169.663
167.674
165.686
163.694
161.7
159.705
157.709
155.712
153.716
151.72
149.725
147.733
145.742
143.751
141.76
139.769
137.777
135.785
133.794
131.802
129.81
127.819
125.827
123.836
121.844
119.852
117.863
115.872
113.884
111.898
109.911
107.924
105.938
103.951
101.962
242.069
171.283
175.811
193.902
194.317
194.207
179.92
244.905
248.22
177.289
174.707
169.746
177.138
210.267
179.113
239.13
101.916
103.906
105.895
107.885
109.874
111.863
113.852
115.841
117.83
119.817
121.805
123.792
125.779
127.765
129.75
131.735
133.718
135.699
137.679
139.656
141.632
143.605
145.575
147.54
149.504
151.471
153.446
155.422
157.413
159.415
161.427
163.451
165.489
167.538
169.598
182.667
199.255
201.959
99.9723
99.9765
99.9791
99.9825
99.9836
99.9841
99.9846
99.9825
99.9785
99.9752
99.9701
99.9637
99.9575
99.951
99.9437
99.9371
99.9313
99.925
178.951
195.384
193.043
190.827
188.719
186.704
226.836
199.419
181.378
179.425
177.439
175.452
173.473
171.502
169.534
167.563
165.59
163.612
161.63
159.644
157.657
155.668
153.679
151.69
149.7
147.711
145.721
143.732
141.742
139.753
137.762
135.772
133.782
131.791
129.8
127.809
125.818
123.827
121.836
119.846
117.855
115.866
113.878
111.892
109.904
107.917
105.931
103.943
101.956
99.9664
185.352
171.535
200.347
191.446
193.405
195.427
173.148
195.939
195.863
196.069
239.025
199.833
224.639
174.75
171.275
181.255
245.333
241.864
169.337
167.4
165.411
163.407
161.399
159.398
157.404
155.412
153.438
151.467
149.497
147.529
145.561
143.59
141.617
139.642
137.666
135.687
133.707
131.725
129.742
127.757
125.772
123.787
121.8
119.813
117.825
115.837
113.848
111.86
109.87
107.881
105.891
103.901
101.911
99.9197
238.782
97.9761
97.9808
97.9841
97.9873
97.9899
97.9897
97.9903
97.9884
97.9852
97.9825
97.9786
97.9736
97.9685
97.9633
97.9571
97.9512
97.9457
97.9394
97.9342
97.9285
183.724
171.828
189.538
249.078
248.93
248.977
248.952
248.859
245.147
241.546
238.103
174.603
235.881
197.46
201.668
200.999
192.74
194.785
196.903
174.995
186.507
244.069
196.672
194.27
192.056
190.037
188.223
185.239
186.844
182.668
180.872
179.018
177.129
175.214
173.285
171.349
169.406
167.455
165.497
163.533
161.562
159.586
157.607
155.625
153.642
151.658
149.672
147.686
145.7
143.713
141.725
139.736
137.748
135.758
133.769
131.779
129.789
127.799
125.809
123.818
121.828
119.838
117.849
115.86
113.872
111.884
109.896
107.91
105.923
103.936
101.948
99.9589
97.9696
198.459
196.347
194.244
225.544
195.249
173.463
228.361
193.246
233.394
197.827
197.842
197.501
195.179
196.086
193.986
238.451
197.308
234.367
237.223
203.217
195.828
198.301
241.021
244.858
248.704
169.229
167.283
165.322
163.344
161.358
159.371
157.387
155.405
153.429
151.457
149.487
147.517
145.547
143.576
141.604
139.629
137.653
135.675
133.695
131.715
129.732
127.749
125.765
123.779
121.794
119.807
117.82
115.832
113.844
111.855
109.866
107.877
105.887
103.897
101.906
99.9154
97.9237
189.434
191.161
193.14
195.32
197.695
200.237
220.947
182.093
172.439
190.763
193.126
234.801
235.334
200.649
198.283
173.097
229.833
224.784
183.538
184.712
253.16
239.713
244.618
202.923
95.9793
95.9846
95.9886
95.9916
95.9947
95.9948
95.9945
95.9926
95.9902
95.988
95.9848
95.9809
95.977
95.9729
95.9682
95.9633
95.9585
95.9527
95.9472
95.942
95.9374
95.9338
253.062
252.891
252.791
252.733
252.681
252.612
236.31
173.865
187.656
192.24
191.433
178.625
231.995
232.228
199.745
228.09
203.548
199.096
229.142
175.366
272.492
252.881
199.597
184.968
183.62
182.076
180.409
178.655
176.843
174.987
173.103
171.201
169.283
167.352
165.41
163.459
161.499
159.532
157.56
155.585
153.607
151.627
149.645
147.663
145.678
143.693
141.707
139.72
137.733
135.745
133.756
131.767
129.778
127.789
125.799
123.81
121.82
119.831
117.841
115.853
113.864
111.876
109.89
107.902
105.915
103.927
101.939
99.9503
97.9618
95.9728
267.59
214.184
272.262
191.962
235.006
199.546
243.678
186.435
180.024
234.336
182.866
182.247
188.709
190.247
192.003
193.971
196.14
198.503
201.054
203.777
205.78
206.653
180.376
192.768
176.838
185.795
172.846
170.989
169.11
167.186
165.242
163.283
161.313
159.339
157.363
155.388
153.416
151.445
149.475
147.506
145.535
143.564
141.591
139.617
137.642
135.664
133.685
131.705
129.723
127.741
125.757
123.772
121.787
119.801
117.814
115.827
113.839
111.851
109.862
107.872
105.883
103.892
101.902
99.9112
97.9206
95.9307
240.438
244.49
248.519
252.526
231.775
271.922
193.929
196.235
198.883
210.997
204.648
207.813
171.457
187.327
175.688
174.416
188.836
191.158
189.701
186.015
231.47
231.726
204.869
201.547
173.627
225.245
179.77
220.96
217.19
203.026
200.593
224.987
177.232
180.988
181.556
190.963
218.483
221.441
224.847
186.839
188.046
256.839
256.866
256.815
256.72
256.626
256.556
256.52
256.488
256.461
185.77
175.826
201.354
201.691
228.382
222.487
182.691
184.563
183.158
181.65
180.049
178.36
176.603
174.794
172.947
171.072
169.175
167.261
165.332
163.393
161.442
159.483
157.518
155.548
153.575
151.599
149.62
147.64
145.658
143.675
141.69
139.705
137.719
135.731
133.744
131.756
129.767
127.779
125.79
123.801
121.812
119.822
117.834
115.845
113.857
111.869
109.881
107.894
105.906
103.918
101.93
99.9421
97.9539
95.9655
93.9762
93.9824
93.9878
93.9926
93.9955
93.9972
93.9977
93.9969
93.9955
93.9937
93.9918
93.9889
93.9863
93.9833
93.9802
93.9769
93.973
93.969
93.9642
93.9595
93.9551
93.9506
93.9466
93.9432
93.9399
190.37
228.485
209.655
208.813
206.435
187.497
256.959
247.939
175.663
176.814
189.071
190.757
192.566
194.548
196.718
199.094
201.688
204.497
207.501
210.621
216.511
212.648
213.703
175.053
190.015
187.915
231.497
204.446
172.038
221.369
215.536
213.589
201.928
221.005
179.063
221.546
183.251
208.658
205.288
202.186
199.368
196.8
194.482
192.23
188.364
252.78
183.386
235.785
239.945
244.144
248.309
252.445
256.441
183.834
177.733
272.971
203.667
261.036
260.824
260.702
260.637
260.568
260.489
260.407
260.343
260.304
260.285
260.279
260.279
217.993
224.86
180.514
198.415
175.958
272.434
184.815
185.927
184.391
182.9
181.376
179.797
178.146
176.424
174.65
172.829
170.973
169.09
167.186
165.268
163.336
161.394
159.442
157.482
155.517
153.547
151.574
149.598
147.62
145.64
143.658
141.675
139.691
137.705
135.719
133.732
131.745
129.757
127.769
125.78
123.792
121.803
119.814
117.826
115.837
113.849
111.861
109.873
107.885
105.897
103.91
101.922
99.934
97.9463
95.9582
93.9693
91.9789
91.9849
91.9902
91.994
91.997
91.9984
91.9985
91.9982
91.9972
91.9959
91.9942
91.9922
91.9903
91.988
91.9857
91.9833
91.9804
91.9773
91.9738
91.9701
91.9665
91.9629
91.9592
91.9561
91.953
91.9495
91.9472
93.9367
95.9271
97.9182
99.9081
101.898
103.888
105.879
107.868
109.857
111.846
113.834
115.821
117.808
119.795
121.78
123.765
125.75
127.733
129.715
131.696
133.676
135.654
137.631
139.607
141.581
143.553
145.524
147.494
149.464
151.433
153.401
155.37
157.339
159.307
161.271
163.229
165.176
167.113
169.036
170.954
172.94
174.797
176.632
178.36
212.217
182.188
184.322
184.82
186.575
180.396
188.739
203.752
218.384
176.384
177.652
189.29
186.95
185.061
188.597
228.045
228.033
208.099
218.196
211.894
209.454
215.934
203.01
205.629
224.679
217.484
213.495
179.574
221.018
204.466
212.624
214.991
206.9
207.577
227.906
186.848
188.149
177.007
215.234
211.768
208.31
205.074
202.119
199.451
197.052
194.881
192.911
191.112
189.428
205.595
184.048
178.21
190.64
192.628
194.797
197.128
199.677
202.524
205.736
209.375
184.581
182.107
229.334
234.193
238.973
243.523
178.481
213.878
185.103
214.386
182.304
221.291
180.935
235.1
239.462
243.802
248.121
252.401
256.526
260.543
183.395
182.007
184.505
182.862
181.266
179.629
178.018
176.357
174.584
172.763
170.878
168.972
167.055
165.126
163.185
161.236
159.279
157.318
155.354
153.388
151.421
149.453
147.485
145.515
143.544
141.572
139.598
137.623
135.646
133.668
131.689
129.708
127.726
125.743
123.759
121.775
119.789
117.803
115.816
113.829
111.841
109.853
107.864
105.875
103.885
101.895
99.9054
97.915
95.9246
93.9346
91.9456
208.446
205.556
89.9869
89.991
89.9945
89.997
89.9985
89.9986
89.9984
89.9978
89.997
89.9958
89.9944
89.9929
89.9913
89.9897
89.988
89.9861
89.984
89.9817
89.9792
89.9766
89.974
89.9711
89.9684
89.9654
89.9629
89.9606
89.9591
89.958
218.588
264.709
264.524
264.421
264.342
264.264
264.189
264.12
264.06
264.017
263.991
263.973
264.036
264.423
252.37
256.549
260.804
264.807
187.229
185.726
184.22
182.723
181.204
179.638
178.007
176.309
174.552
172.745
170.9
169.026
167.13
165.218
163.292
161.355
159.408
157.453
155.491
153.524
151.554
149.58
147.603
145.625
143.644
141.662
139.678
137.693
135.708
133.722
131.735
129.747
127.76
125.771
123.783
121.795
119.806
117.818
115.829
113.841
111.853
109.865
107.877
105.889
103.902
101.914
99.9266
97.9389
95.9509
93.9623
91.9726
89.982
217.739
211.252
224.272
224.418
184.085
187.519
178.335
179.564
209.771
206.016
188.319
208.245
183.144
189.216
190.988
192.911
195.002
197.319
199.885
202.742
205.971
209.652
243.98
168.713
223.605
228.806
234.112
239.097
189.735
217.256
212.985
208.952
205.423
202.36
199.669
197.258
195.08
193.108
191.321
178.939
186.373
185.81
224.17
210.612
214.431
211.406
207.168
186.955
185.504
184.07
182.602
181.093
179.525
177.897
176.212
174.46
172.655
170.802
168.916
167.01
165.088
163.154
161.21
159.258
157.301
155.341
153.377
151.412
149.445
147.477
145.508
143.537
141.565
139.591
137.616
135.64
133.662
131.683
129.702
127.721
125.738
123.754
121.77
119.785
117.799
115.812
113.825
111.837
109.849
107.86
105.871
103.882
101.892
99.9026
97.9126
95.9227
93.9332
91.9448
89.9573
229.577
234.354
239
243.47
247.98
252.432
256.88
261.145
264.962
181.424
220.733
208.276
217.098
220.365
183.15
180.303
250.868
255.567
260.202
264.458
186.117
220.672
268.379
268.158
268.043
267.986
267.933
267.878
267.823
267.771
267.725
267.687
267.657
267.648
267.698
268.04
268.482
271.025
87.9893
87.9916
87.9942
87.996
87.9977
87.9982
87.998
87.9974
87.9969
87.9962
87.9954
87.9944
87.9934
87.9923
87.9913
87.9902
87.9889
87.9876
87.9862
87.9848
87.9834
87.9819
87.9802
87.9783
87.9767
87.9746
87.9732
87.9719
87.9713
87.9709
186.928
185.517
184.063
182.595
181.101
179.559
177.94
176.247
174.492
172.69
170.851
168.983
167.093
165.185
163.262
161.328
159.383
157.431
155.472
153.507
151.538
149.566
147.59
145.612
143.632
141.651
139.668
137.683
135.698
133.712
131.726
129.739
127.751
125.763
123.775
121.787
119.799
117.81
115.822
113.834
111.846
109.858
107.87
105.882
103.895
101.907
99.9197
97.9321
95.9442
93.9558
91.967
89.9773
87.9861
210.08
213.759
220.251
184.747
180.872
89.9571
91.9444
190.217
189.204
87.9713
85.986
85.986
85.9858
85.9883
85.9868
85.9904
85.9895
85.9908
85.9907
85.9903
85.9901
85.9913
85.9908
85.9923
85.9918
85.9929
85.9926
85.9934
85.9932
85.9944
85.9939
85.9955
85.995
85.9972
85.9967
85.9955
85.9965
85.9935
85.9949
89.9735
87.9836
85.9925
85.9927
93.9506
91.9624
97.9264
95.9386
101.902
99.914
105.877
103.889
109.852
107.864
113.828
111.84
117.804
115.816
121.78
119.792
125.756
123.768
129.731
127.744
133.705
131.718
137.675
135.69
141.642
139.659
145.603
143.624
149.555
147.581
153.495
151.527
157.417
155.459
161.311
159.368
165.166
163.245
168.963
167.073
172.668
170.829
176.221
174.47
179.529
177.913
182.524
181.056
185.394
183.962
188.332
186.842
191.431
189.825
195.181
193.211
199.775
197.359
205.558
202.478
213.42
209.137
223.189
218.201
233.786
228.583
243.132
238.711
252.787
247.922
262.143
257.652
269.529
271.441
271.56
271.313
271.315
271.338
271.324
271.377
271.356
271.419
271.398
271.454
271.438
271.51
271.472
270.612
271.62
268.783
269.418
272.094
272.8
267.158
269.572
259.468
263.802
249.418
254.598
239.399
244.282
228.842
234.132
218.756
223.741
209.806
214.046
202.858
206.098
197.419
199.992
193.025
195.102
189.558
191.186
186.679
188.092
183.867
185.284
180.984
182.439
177.856
179.47
174.405
176.162
170.755
172.6
166.979
168.878
163.133
165.063
159.244
161.192
155.331
157.29
151.405
153.369
147.471
149.439
143.532
145.502
139.586
141.56
135.635
137.611
131.678
133.657
127.716
129.698
123.75
125.734
119.781
121.766
115.808
117.795
111.834
113.821
107.857
109.845
103.879
105.868
99.9004
101.89
95.9217
97.911
93.9327
272.069
272.778
216.486
178.62
85.9878
211.016
85.9928
239.591
272.963
273.108
273.11
273.154
273.153
273.16
273.16
176.483
217.685
216.35
212.899
213.123
170.426
172.876
170.697
187.508
184.264
185.856
188.996
185.682
187.314
190.512
187.025
188.747
191.984
188.294
190.113
216.787
182.395
272.701
183.684
267.309
181.052
201.435
214.662
183.726
185.795
180.297
174.825
167.366
218.531
179.672
174.556
185.648
247.577
183.323
249.698
177.898
182.223
225.838
177.061
270.524
174.621
204.666
176.535
175.335
179.881
188.106
272.689
242.207
202.109
188.287
188.059
218.228
257.813
234.649
194.023
269.458
175.245
171.089
172.592
192.184
170.777
236.399
185.922
195.295
180.483
155.222
150.414
187.939
)
;

boundaryField
{
    wall
    {
        type            zeroGradient;
    }
    outlet
    {
        type            fixedValue;
        value           uniform 85;
    }
    inlet
    {
        type            fixedValue;
        value           uniform 273.16;
    }
    frontAndBackPlanes
    {
        type            empty;
    }
}


// ************************************************************************* //
