/*--------------------------------*- C++ -*----------------------------------*\
| =========                 |                                                 |
| \\      /  F ield         | OpenFOAM: The Open Source CFD Toolbox           |
|  \\    /   O peration     | Version:  2212                                  |
|   \\  /    A nd           | Website:  www.openfoam.com                      |
|    \\/     M anipulation  |                                                 |
\*---------------------------------------------------------------------------*/
FoamFile
{
    version     2.0;
    format      ascii;
    arch        "LSB;label=32;scalar=64";
    class       volScalarField;
    location    "0.000432";
    object      T;
}
// * * * * * * * * * * * * * * * * * * * * * * * * * * * * * * * * * * * * * //

dimensions      [0 0 0 1 0 0 0];

internalField   nonuniform List<scalar> 
26145
(
2.85561
2.87145
2.87694
2.88305
2.89057
2.89934
2.90863
2.91768
2.92633
2.93457
2.94225
2.94931
2.95587
2.96195
2.96765
2.97333
2.97956
2.98639
2.99338
3.00029
3.007
3.01366
3.02046
3.02753
3.03501
3.04299
3.05148
3.0605
3.07015
3.08053
3.09153
3.10316
3.11564
3.12931
3.14448
3.16128
3.179
3.19616
3.21256
3.22942
3.24786
3.26851
3.29232
3.32018
3.35154
3.38492
3.41968
3.45574
3.49303
3.5333
3.58024
3.63829
3.71416
3.8184
3.96251
4.15751
4.42105
4.78122
5.28306
5.98479
6.94168
8.2085
9.95178
12.5105
16.1459
20.8991
26.5448
33.036
40.2374
47.7694
55.4637
63.1329
2.84301
2.86987
2.87545
2.88162
2.88929
2.89819
2.90755
2.91664
2.92528
2.9335
2.94117
2.94822
2.95477
2.96085
2.96654
2.97222
2.97846
2.98529
2.99228
2.99919
3.00592
3.01259
3.01939
3.02648
3.03397
3.04196
3.05047
3.0595
3.06918
3.07957
3.09061
3.10227
3.11478
3.12848
3.14368
3.16051
3.17824
3.1954
3.21183
3.22873
3.2472
3.26788
3.29171
3.31959
3.35094
3.38428
3.41899
3.45495
3.49214
3.53228
3.57895
3.63652
3.71161
3.81458
3.95659
4.14838
4.40714
4.76017
5.25118
5.93612
6.86806
8.0999
9.7913
12.2671
15.7752
20.3408
25.7253
31.8506
38.4752
45.0443
51.0674
56.1866
2.82641
2.86465
2.87057
2.87736
2.88576
2.89519
2.90482
2.91397
2.92255
2.93067
2.93823
2.9452
2.95171
2.95777
2.96346
2.96915
2.9754
2.98225
2.98927
2.99622
3.003
3.00974
3.01661
3.02377
3.03136
3.03946
3.04811
3.0573
3.06714
3.0777
3.08882
3.10054
3.11311
3.12684
3.14212
3.15904
3.17677
3.19397
3.21046
3.22744
3.24598
3.26671
3.29059
3.3185
3.34982
3.38303
3.41758
3.45335
3.49029
3.53004
3.57613
3.63273
3.70622
3.80659
3.94438
4.12987
4.37914
4.71838
5.18904
5.84337
6.73191
7.90417
9.50857
11.8471
15.1498
19.4114
24.3421
29.732
35.278
40.4595
44.9692
48.6774
2.80641
2.85496
2.86226
2.87047
2.87979
2.88984
2.89977
2.90898
2.91751
2.92553
2.933
2.93993
2.94642
2.95248
2.95819
2.9639
2.97018
2.97707
2.98415
2.99117
2.99803
3.00486
3.01184
3.0191
3.02681
3.03505
3.04388
3.05325
3.06328
3.07404
3.08541
3.09738
3.11021
3.12424
3.13971
3.15668
3.17447
3.19176
3.20835
3.22542
3.24406
3.26487
3.28884
3.31684
3.34814
3.3812
3.41554
3.45101
3.48756
3.52676
3.57199
3.6272
3.69834
3.79494
3.92666
4.10311
4.33908
4.65942
5.10224
5.71677
6.5501
7.64665
9.14135
11.2996
14.2869
18.0667
22.3375
26.8862
31.4206
35.5471
39.1012
42.0554
2.78447
2.8421
2.85111
2.861
2.87144
2.88213
2.89229
2.90153
2.90998
2.91789
2.9253
2.9322
2.93871
2.94482
2.95058
2.95635
2.96271
2.96969
2.97687
2.984
2.99099
2.99795
3.00505
3.01246
3.02031
3.02872
3.03773
3.0473
3.05754
3.06851
3.08009
3.0923
3.10543
3.11989
3.13571
3.15301
3.17109
3.18854
3.20521
3.22235
3.2411
3.26208
3.28618
3.31428
3.34562
3.37861
3.41277
3.4479
3.48396
3.5225
3.56665
3.62013
3.68831
3.78016
3.90442
4.06999
4.2902
4.58841
4.99933
5.56689
6.32963
7.32567
8.67098
10.589
13.2121
16.4782
20.1052
23.8994
27.624
30.9923
33.9089
36.3758
2.76172
2.82683
2.83751
2.849
2.86066
2.8719
2.88221
2.89142
2.89979
2.90763
2.915
2.92194
2.92852
2.93472
2.94059
2.94649
2.95298
2.96011
2.96744
2.97474
2.98189
2.98902
2.99629
3.00386
3.01188
3.02047
3.02968
3.03945
3.04989
3.06106
3.07285
3.08528
3.09874
3.11352
3.12963
3.14724
3.16566
3.18345
3.20047
3.21795
3.2369
3.25794
3.28207
3.31018
3.34166
3.37484
3.40888
3.44368
3.47921
3.51701
3.55997
3.61151
3.67635
3.76258
3.87794
4.03004
4.23108
4.50203
4.87337
5.38304
6.06457
6.94898
8.13345
9.80564
12.0676
14.8481
17.9017
21.0658
24.1564
26.9616
29.4192
31.5336
2.73972
2.80914
2.82183
2.83504
2.84767
2.85926
2.86959
2.87872
2.88701
2.89481
2.90221
2.90924
2.91596
2.92231
2.92834
2.93441
2.9411
2.94842
2.95596
2.96346
2.97083
2.97816
2.98563
2.99338
3.00159
3.01037
3.01977
3.02974
3.04036
3.0517
3.06365
3.07627
3.09007
3.10504
3.12137
3.13922
3.15789
3.17597
3.19329
3.21106
3.23033
3.25171
3.2761
3.30441
3.33596
3.36918
3.40314
3.43766
3.47258
3.50934
3.55069
3.59961
3.66026
3.73974
3.84467
3.98181
4.16173
4.40315
4.73229
5.18148
5.77891
6.54978
7.57491
9.00993
10.9329
13.2753
15.8301
18.4704
21.0541
23.4175
25.5141
27.3457
2.7162
2.79079
2.80547
2.81979
2.8329
2.84452
2.85473
2.86375
2.87198
2.87978
2.88726
2.89443
2.90133
2.90789
2.91412
2.9204
2.92731
2.93488
2.94266
2.9504
2.95799
2.96555
2.97322
2.98116
2.98955
2.99851
3.00809
3.01822
3.02898
3.04045
3.05252
3.0653
3.07932
3.0944
3.11086
3.12884
3.14766
3.1659
3.18343
3.20143
3.22093
3.2425
3.26702
3.29539
3.32686
3.35997
3.39376
3.42783
3.46204
3.49772
3.53738
3.58355
3.63988
3.71241
3.80674
3.92863
4.08717
4.29854
4.58547
4.97487
5.49
6.15123
7.02546
8.23963
9.85503
11.8118
13.9392
16.1402
18.3049
20.3033
22.0975
23.6874
2.69365
2.77291
2.78871
2.80336
2.81639
2.82777
2.83781
2.84676
2.85498
2.86284
2.87044
2.8778
2.88492
2.89171
2.89817
2.90468
2.91184
2.91968
2.92771
2.9357
2.94353
2.95131
2.95919
2.96731
2.97586
2.98498
2.9947
3.00496
3.01581
3.02734
3.03948
3.05239
3.06646
3.08158
3.09807
3.11606
3.1349
3.15319
3.1708
3.18891
3.20853
3.23019
3.25475
3.283
3.31429
3.34707
3.38055
3.41414
3.44761
3.48222
3.52024
3.56374
3.61595
3.68181
3.76609
3.87348
4.01177
4.19435
4.44147
4.77499
5.21388
5.77456
6.51216
7.52926
8.87617
10.5026
12.2717
14.1067
15.9235
17.6167
19.1538
20.5331
2.67295
2.75537
2.77125
2.78566
2.7981
2.8093
2.81927
2.82821
2.83649
2.84444
2.85219
2.85976
2.86712
2.87415
2.88086
2.88761
2.89503
2.90312
2.9114
2.91963
2.92769
2.93568
2.94373
2.95201
2.96069
2.96992
2.97973
2.99007
3.00095
3.01249
3.02462
3.03759
3.0516
3.06668
3.08309
3.10097
3.1197
3.13792
3.1555
3.1736
3.19321
3.21482
3.23929
3.26736
3.29832
3.33069
3.3637
3.39674
3.42947
3.46304
3.49949
3.54056
3.58901
3.64883
3.72409
3.81846
3.93862
4.09555
4.30618
4.58968
4.96079
5.43282
6.05093
6.8988
8.01645
9.36529
10.8357
12.3677
13.8935
15.3294
16.6465
17.8415
2.65379
2.73628
2.75164
2.76587
2.77851
2.78975
2.79974
2.80873
2.81707
2.82512
2.83302
2.84078
2.84836
2.85563
2.86256
2.86953
2.87718
2.88549
2.89399
2.90242
2.91067
2.91882
2.92702
2.9354
2.94417
2.95345
2.96331
2.97365
2.9845
2.99597
3.00802
3.02097
3.03484
3.04977
3.06598
3.08365
3.10214
3.12017
3.13761
3.15559
3.17507
3.19652
3.22076
3.24851
3.27905
3.31094
3.34335
3.37578
3.40776
3.44029
3.47526
3.51413
3.55922
3.61375
3.68111
3.76414
3.86853
4.00317
4.18219
4.42122
4.73327
5.12852
5.64395
6.3477
7.27246
8.38863
9.60926
10.8871
12.1684
13.3839
14.5097
15.5416
2.6347
2.71545
2.73042
2.74451
2.75718
2.76848
2.77851
2.78756
2.79597
2.80412
2.81215
2.82009
2.82789
2.83537
2.8425
2.84968
2.85753
2.86605
2.87473
2.88333
2.89173
2.90002
2.90831
2.91677
2.92557
2.93486
2.94471
2.955
2.96575
2.97709
2.98901
3.00186
3.01551
3.03019
3.04613
3.06347
3.08163
3.09937
3.11657
3.13433
3.15358
3.17475
3.19865
3.22595
3.25596
3.28726
3.31907
3.3508
3.38196
3.41347
3.44708
3.48394
3.52602
3.57593
3.63641
3.70966
3.80044
3.91598
4.0679
4.26882
4.52921
4.85839
5.28616
5.86792
6.63083
7.55168
8.56351
9.62844
10.7033
11.7309
12.6906
13.5785
2.61074
2.69058
2.70551
2.71948
2.73215
2.74351
2.75362
2.76276
2.77127
2.77952
2.78769
2.79583
2.80384
2.81156
2.81891
2.8263
2.83437
2.84309
2.85195
2.86071
2.86926
2.87767
2.88606
2.89457
2.90338
2.91267
2.92249
2.93271
2.94333
2.9545
2.96623
2.97896
2.99232
3.00671
3.0223
3.03924
3.05699
3.07437
3.09126
3.10874
3.12768
3.14851
3.17199
3.19877
3.22817
3.25882
3.28996
3.32098
3.35135
3.38193
3.41425
3.44932
3.48876
3.5347
3.58929
3.65425
3.73352
3.833
3.96211
4.13108
4.34822
4.62113
4.97507
5.45525
6.08421
6.84484
7.68365
8.57239
9.47573
10.3462
11.1654
11.9304
2.58219
2.66076
2.67537
2.68909
2.70174
2.71319
2.72341
2.73268
2.74131
2.74968
2.75801
2.76636
2.77462
2.78259
2.79019
2.79782
2.80613
2.81507
2.82412
2.83306
2.84177
2.85032
2.85881
2.86738
2.87622
2.8855
2.89531
2.90546
2.91596
2.92697
2.93855
2.95103
2.96412
2.9782
2.99343
3.00994
3.02724
3.04423
3.06078
3.07795
3.09656
3.11702
3.14006
3.16629
3.19506
3.22506
3.25554
3.28587
3.31552
3.34528
3.37649
3.41
3.44718
3.48981
3.53951
3.5976
3.66732
3.75361
3.86393
4.00656
4.18817
4.41493
4.70748
5.10364
5.62292
6.25247
6.95051
7.69413
8.45554
9.19542
9.89802
10.5596
2.54861
2.6245
2.6384
2.65174
2.66454
2.67598
2.68631
2.69571
2.70447
2.71296
2.72146
2.73002
2.73854
2.74677
2.75464
2.76253
2.77109
2.78026
2.78953
2.79866
2.80754
2.81626
2.82487
2.83352
2.84242
2.85173
2.86154
2.87166
2.88207
2.89294
2.90439
2.91662
2.92945
2.94322
2.95808
2.97416
2.99101
3.0076
3.02382
3.04067
3.05896
3.07905
3.10164
3.12733
3.15548
3.18485
3.21471
3.24441
3.27342
3.30247
3.33277
3.36498
3.40021
3.44007
3.48569
3.53805
3.59983
3.67512
3.76983
3.89054
4.04254
4.23083
4.4723
4.79776
5.22453
5.74446
6.32417
6.94568
7.58647
8.215
8.81714
9.38891
2.50932
2.5817
2.59489
2.60783
2.62051
2.63195
2.64234
2.6518
2.66065
2.66922
2.67782
2.68655
2.69528
2.70375
2.71185
2.71996
2.72874
2.7381
2.74754
2.75682
2.76586
2.77472
2.78345
2.79219
2.80115
2.81051
2.82035
2.83045
2.84079
2.85153
2.86288
2.87486
2.88745
2.90092
2.91542
2.93107
2.94747
2.96366
2.97954
2.99608
3.01404
3.03375
3.05589
3.08104
3.10857
3.13731
3.16657
3.19568
3.22411
3.25255
3.28208
3.31322
3.34681
3.38426
3.42643
3.47395
3.52906
3.59509
3.67668
3.77897
3.906
4.06173
4.25989
4.52533
4.87262
5.29723
5.77409
6.2891
6.82446
7.35358
7.86563
8.35628
2.46674
2.53543
2.5479
2.56029
2.57261
2.58389
2.59412
2.60344
2.61214
2.6206
2.62913
2.63789
2.64672
2.65533
2.66356
2.67181
2.68072
2.6902
2.69978
2.7092
2.71839
2.72739
2.73621
2.74501
2.75399
2.76335
2.77318
2.78323
2.79347
2.80408
2.81534
2.82708
2.8394
2.85257
2.86671
2.88193
2.89789
2.91367
2.9292
2.94541
2.96301
2.98232
3.00398
3.02855
3.05543
3.08351
3.11213
3.14065
3.16851
3.19638
3.22524
3.25546
3.28767
3.323
3.36219
3.40564
3.45517
3.51347
3.58419
3.67124
3.77757
3.90621
4.06814
4.28317
4.56332
4.90627
5.29339
5.71547
6.15757
6.5983
7.02896
7.44559
2.42367
2.48851
2.50014
2.51181
2.52356
2.53446
2.54437
2.55341
2.56186
2.57011
2.57851
2.58719
2.59601
2.60463
2.61289
2.62118
2.63013
2.63966
2.64927
2.65876
2.668
2.67704
2.68589
2.69466
2.70361
2.71291
2.72266
2.73261
2.74271
2.75314
2.76429
2.77577
2.78782
2.8007
2.81447
2.82927
2.84478
2.86014
2.8753
2.89114
2.90835
2.92722
2.94836
2.97231
2.9985
3.02587
3.05383
3.08171
3.10899
3.1363
3.16454
3.19394
3.22496
3.25848
3.29504
3.33504
3.37993
3.43189
3.49379
3.56856
3.65829
3.76516
3.89787
4.07205
4.2974
4.57295
4.88515
5.22761
5.58966
5.9539
6.31232
6.66296
2.3821
2.44327
2.45402
2.46489
2.47591
2.48625
2.49569
2.50433
2.51242
2.52034
2.52847
2.53695
2.54562
2.55413
2.56232
2.57054
2.57944
2.58892
2.59849
2.60794
2.61717
2.62619
2.63499
2.64369
2.65253
2.66173
2.67137
2.68118
2.6911
2.70132
2.71232
2.72353
2.73531
2.74787
2.76129
2.77567
2.79072
2.80565
2.82041
2.83586
2.85265
2.87105
2.89164
2.91493
2.94038
2.96702
2.99425
3.02148
3.04815
3.07489
3.10251
3.13115
3.1611
3.19303
3.2273
3.2643
3.30528
3.35201
3.40679
3.47179
3.54843
3.6382
3.74799
3.89001
4.07194
4.29346
4.54477
4.82177
5.11644
5.41588
5.71254
6.00565
2.34374
2.40159
2.41145
2.42144
2.43166
2.44131
2.45019
2.45835
2.46601
2.47355
2.48133
2.48951
2.49792
2.50622
2.51423
2.52229
2.53102
2.54032
2.54973
2.55904
2.56814
2.57703
2.58571
2.59428
2.60299
2.61204
2.62152
2.63116
2.64089
2.65092
2.66163
2.67256
2.68404
2.69627
2.70931
2.72324
2.73782
2.75229
2.76663
2.78165
2.79798
2.81585
2.83583
2.85841
2.88308
2.9089
2.93536
2.96184
2.98784
3.01394
3.04091
3.06875
3.09765
3.12811
3.16032
3.19458
3.23212
3.27439
3.32323
3.38027
3.44643
3.52267
3.61443
3.73119
3.8789
4.05733
4.25948
4.48274
4.72104
4.96543
5.20917
5.45181
2.30997
2.36488
2.37389
2.38302
2.39243
2.40137
2.40965
2.41727
2.42444
2.43152
2.43888
2.44669
2.45477
2.46277
2.47052
2.47835
2.48684
2.4959
2.50508
2.51418
2.52309
2.53181
2.5403
2.54868
2.5572
2.56605
2.5753
2.58471
2.5942
2.60398
2.61435
2.62497
2.63611
2.64797
2.66058
2.67404
2.68811
2.7021
2.71597
2.73051
2.74632
2.76361
2.78293
2.80474
2.82854
2.85348
2.87907
2.90472
2.92994
2.95532
2.98152
3.00851
3.03632
3.06531
3.09557
3.12733
3.16169
3.19999
3.24371
3.29408
3.35167
3.41705
3.49452
3.59147
3.71237
3.85678
4.01972
4.19935
4.39155
4.58916
4.78804
4.98713
2.28061
2.33293
2.34107
2.34937
2.35801
2.36628
2.37398
2.38109
2.3878
2.39446
2.40143
2.40886
2.41659
2.42428
2.43175
2.4393
2.4475
2.45627
2.46517
2.474
2.48266
2.49114
2.4994
2.50755
2.51581
2.52442
2.53341
2.54255
2.55176
2.56126
2.57128
2.58156
2.59234
2.6038
2.61597
2.62894
2.64248
2.65596
2.66934
2.68338
2.69864
2.71532
2.73394
2.75494
2.77784
2.80185
2.82651
2.85127
2.87565
2.90021
2.92558
2.95163
2.97831
3.00585
3.03424
3.06367
3.09512
3.1298
3.16901
3.21367
3.26409
3.32061
3.38667
3.46805
3.56806
3.68601
3.8182
3.96317
4.11828
4.27795
4.43924
4.6013
2.25394
2.3038
2.31116
2.31872
2.32669
2.33445
2.34156
2.34816
2.35442
2.36066
2.36722
2.37428
2.38165
2.38901
2.39618
2.40345
2.41136
2.41983
2.42843
2.43699
2.4454
2.45364
2.46166
2.46957
2.47759
2.48595
2.49467
2.50355
2.51249
2.52173
2.53141
2.54135
2.55177
2.56285
2.57458
2.58707
2.60011
2.61308
2.62598
2.63951
2.65422
2.67029
2.68822
2.7084
2.73041
2.75348
2.7772
2.80105
2.82456
2.84828
2.87279
2.89789
2.92343
2.94955
2.97617
3.00344
3.03224
3.06363
3.09876
3.1384
3.1827
3.23183
3.28858
3.35754
3.44114
3.53853
3.64678
3.7646
3.89034
4.01961
4.15056
4.28232
2.22855
2.27619
2.28281
2.28967
2.297
2.30422
2.31081
2.31695
2.32279
2.32863
2.33482
2.34151
2.34855
2.3556
2.3625
2.3695
2.37714
2.38532
2.39366
2.40197
2.41014
2.41815
2.42596
2.43366
2.44147
2.4496
2.45809
2.46673
2.47542
2.48442
2.49381
2.50344
2.51354
2.52425
2.53559
2.54763
2.56019
2.57269
2.58512
2.59817
2.61235
2.62783
2.64508
2.66448
2.68561
2.70777
2.73057
2.75352
2.77617
2.79906
2.82271
2.84687
2.87132
2.89609
2.92105
2.94631
2.9727
3.00113
3.0326
3.06776
3.10672
3.14955
3.19853
3.25739
3.32792
3.40925
3.49884
3.59557
3.69832
3.80364
3.91033
4.01783
2.2041
2.24967
2.25562
2.26185
2.2686
2.2753
2.28144
2.28715
2.29261
2.29809
2.30394
2.31031
2.31704
2.32381
2.33045
2.33722
2.34461
2.35255
2.36065
2.36874
2.3767
2.38452
2.39214
2.39965
2.40728
2.41522
2.42352
2.43195
2.44043
2.44923
2.45836
2.46772
2.47752
2.48791
2.49889
2.51053
2.52264
2.5347
2.54669
2.55928
2.57296
2.58787
2.60447
2.62312
2.64341
2.66469
2.6866
2.70867
2.73049
2.75257
2.77537
2.79863
2.82204
2.84555
2.86897
2.8924
2.91659
2.94237
2.97058
3.00175
3.036
3.07338
3.11579
3.16628
3.22622
3.29481
3.36977
3.45012
3.535
3.62164
3.70924
3.79752
2.18085
2.22467
2.23006
2.23573
2.24195
2.24818
2.25391
2.25925
2.26436
2.26953
2.27508
2.28116
2.28761
2.29414
2.30056
2.30712
2.3143
2.32202
2.32992
2.33781
2.34561
2.35326
2.36073
2.36809
2.37556
2.38335
2.39147
2.39973
2.40802
2.41667
2.42557
2.43469
2.44423
2.45433
2.46498
2.47624
2.48795
2.4996
2.51118
2.52335
2.53655
2.55093
2.56691
2.58484
2.60434
2.62478
2.64583
2.66706
2.68807
2.70936
2.73136
2.75375
2.77619
2.79854
2.82056
2.84234
2.86456
2.88798
2.91333
2.94104
2.97118
3.00383
3.04063
3.08411
3.13538
3.19375
3.25716
3.32478
3.39582
3.46804
3.54085
3.61416
2.15953
2.20168
2.20656
2.21174
2.21749
2.2233
2.22867
2.23367
2.23849
2.24338
2.24867
2.2545
2.26072
2.26704
2.27327
2.27964
2.28664
2.29418
2.3019
2.30964
2.31729
2.32481
2.33214
2.33938
2.34672
2.35438
2.36236
2.37047
2.3786
2.38711
2.39581
2.40472
2.41403
2.42386
2.43421
2.44514
2.45647
2.46774
2.47895
2.49071
2.50346
2.51734
2.53275
2.55
2.56874
2.58838
2.60863
2.62905
2.6493
2.66983
2.69107
2.71265
2.73419
2.75549
2.77627
2.79659
2.81709
2.83844
2.86129
2.886
2.91263
2.94125
2.97325
3.01083
3.05492
3.10496
3.15914
3.21673
3.27699
3.33806
3.39944
3.46118
2.13992
2.18058
2.18502
2.18977
2.1951
2.20054
2.20558
2.2103
2.21485
2.2195
2.22455
2.23016
2.23617
2.24231
2.24837
2.25459
2.26142
2.2688
2.27637
2.28397
2.29149
2.29889
2.30611
2.31324
2.32047
2.32801
2.33586
2.34384
2.35182
2.36021
2.36872
2.37743
2.38653
2.39612
2.40619
2.41679
2.42777
2.43868
2.44952
2.4609
2.47323
2.48663
2.50148
2.51809
2.5361
2.55498
2.57445
2.59409
2.61359
2.6334
2.6539
2.67471
2.69542
2.71575
2.73541
2.75443
2.77339
2.79292
2.81357
2.83566
2.85923
2.88435
2.91223
2.9447
2.98265
3.02565
3.07216
3.12153
3.17305
3.22517
3.27746
3.32999
2.12175
2.16105
2.16511
2.16948
2.17444
2.17954
2.18428
2.18873
2.19305
2.19748
2.20232
2.20773
2.21356
2.21952
2.22544
2.23152
2.2382
2.24543
2.25287
2.26034
2.26775
2.27504
2.28216
2.28917
2.2963
2.30373
2.31146
2.31931
2.32716
2.33542
2.34375
2.35227
2.36116
2.37052
2.38032
2.39061
2.40125
2.41181
2.42231
2.43332
2.44523
2.45817
2.47248
2.48846
2.50576
2.52389
2.54259
2.56147
2.58024
2.59933
2.61911
2.63918
2.65909
2.67853
2.69717
2.71502
2.73261
2.75051
2.76922
2.78898
2.80984
2.83189
2.85616
2.88419
2.91674
2.95361
2.99351
3.03588
3.08005
3.12471
3.16949
3.21443
2.10474
2.14281
2.14653
2.15055
2.15518
2.15997
2.16444
2.16866
2.17276
2.17699
2.18164
2.18687
2.19253
2.19834
2.20413
2.21008
2.21664
2.22374
2.23105
2.23841
2.24571
2.25291
2.25993
2.26685
2.27388
2.2812
2.28883
2.29656
2.30428
2.31242
2.32057
2.32892
2.33762
2.34675
2.35629
2.36628
2.37659
2.38682
2.39698
2.40764
2.41916
2.43164
2.44543
2.4608
2.47742
2.49483
2.51278
2.53093
2.54898
2.56737
2.58645
2.60582
2.62499
2.64362
2.66134
2.67815
2.69455
2.71102
2.72801
2.74573
2.76423
2.78359
2.80471
2.8289
2.8568
2.88831
2.92246
2.95879
2.99669
3.03504
3.07352
3.1121
2.08873
2.12565
2.12907
2.13279
2.13711
2.14162
2.14584
2.14984
2.15376
2.1578
2.16228
2.16734
2.17285
2.17853
2.1842
2.19004
2.19648
2.20346
2.21066
2.21792
2.22513
2.23224
2.23917
2.24601
2.25295
2.26017
2.26771
2.27533
2.28293
2.29093
2.29893
2.30711
2.31562
2.32454
2.33384
2.34355
2.35355
2.36345
2.3733
2.38362
2.39476
2.40681
2.4201
2.43489
2.45085
2.46755
2.48479
2.50222
2.51959
2.53731
2.55573
2.57443
2.59291
2.6108
2.62772
2.64363
2.65898
2.67423
2.68974
2.7057
2.72214
2.73917
2.75757
2.77843
2.80233
2.82924
2.85839
2.88946
2.92194
2.95487
2.98796
3.02115
2.07356
2.10942
2.11256
2.116
2.12003
2.12427
2.12831
2.1321
2.13583
2.13971
2.14402
2.14894
2.15431
2.15987
2.16543
2.17117
2.17751
2.18438
2.19147
2.19864
2.20576
2.21279
2.21965
2.2264
2.23326
2.24039
2.24783
2.25536
2.26285
2.2707
2.27857
2.2866
2.29493
2.30365
2.31271
2.32215
2.33185
2.34145
2.35099
2.36099
2.37176
2.38341
2.39622
2.41044
2.42577
2.4418
2.45835
2.4751
2.4918
2.50888
2.52666
2.54473
2.56258
2.57981
2.59601
2.61114
2.62561
2.6398
2.65405
2.66851
2.68319
2.69821
2.71426
2.73226
2.75272
2.77566
2.80049
2.82699
2.85473
2.88295
2.91136
2.93989
2.05918
2.09407
2.09696
2.1001
2.10385
2.10787
2.11179
2.11537
2.11893
2.12264
2.12681
2.13158
2.13683
2.14228
2.14773
2.15338
2.15962
2.1664
2.17339
2.18047
2.18752
2.19447
2.20125
2.20793
2.21471
2.22176
2.22911
2.23654
2.24393
2.25164
2.25937
2.26726
2.27543
2.28395
2.29279
2.30197
2.31139
2.3207
2.32995
2.33964
2.35007
2.36132
2.37368
2.38736
2.40209
2.41748
2.43336
2.44945
2.46551
2.48198
2.49916
2.51664
2.5339
2.55054
2.56613
2.58059
2.59431
2.60762
2.62082
2.634
2.64719
2.66051
2.67456
2.69012
2.70765
2.7272
2.74833
2.77087
2.7945
2.8186
2.84293
2.86742
2.0458
2.07978
2.08242
2.08532
2.08883
2.09264
2.0964
2.09982
2.10321
2.10678
2.1108
2.11544
2.12057
2.12592
2.13128
2.13684
2.14299
2.14967
2.15657
2.16356
2.17054
2.17742
2.18413
2.19073
2.19743
2.20439
2.21166
2.219
2.22629
2.23387
2.24147
2.24922
2.25723
2.26557
2.27419
2.28312
2.29227
2.30131
2.31029
2.31969
2.32979
2.34067
2.35259
2.36576
2.37992
2.3947
2.40996
2.42542
2.44088
2.45676
2.47336
2.49028
2.50701
2.52312
2.53817
2.55208
2.56517
2.57776
2.59008
2.60221
2.61417
2.62607
2.63844
2.65196
2.66702
2.6837
2.70168
2.72084
2.74093
2.76147
2.78225
2.80323
2.03336
2.06648
2.06891
2.07159
2.07487
2.07849
2.08208
2.08535
2.0886
2.09203
2.09592
2.10044
2.10546
2.1107
2.11598
2.12145
2.12751
2.1341
2.14091
2.14782
2.15472
2.16153
2.16816
2.17469
2.18132
2.1882
2.19538
2.20263
2.20982
2.21727
2.22475
2.23235
2.24021
2.24838
2.2568
2.2655
2.27439
2.28317
2.29189
2.30101
2.3108
2.32132
2.33284
2.34553
2.35914
2.37335
2.38801
2.40288
2.41776
2.43309
2.44915
2.46555
2.48178
2.49741
2.51199
2.52542
2.538
2.55
2.56161
2.57288
2.58384
2.59456
2.60555
2.61737
2.63037
2.64464
2.65996
2.67625
2.69331
2.71078
2.72849
2.74643
2.02153
2.05384
2.05607
2.05853
2.06161
2.06504
2.06848
2.07161
2.07473
2.07802
2.08179
2.08619
2.0911
2.09625
2.10144
2.10684
2.11281
2.11931
2.12604
2.13287
2.13969
2.14643
2.153
2.15945
2.16601
2.1728
2.1799
2.18706
2.19416
2.20149
2.20885
2.21632
2.22403
2.23204
2.24026
2.24874
2.25739
2.26593
2.27441
2.28326
2.29276
2.30295
2.31407
2.32631
2.33941
2.35307
2.36717
2.38148
2.39582
2.41062
2.42616
2.44207
2.45784
2.47304
2.48722
2.50025
2.51241
2.52393
2.53498
2.54557
2.55571
2.56549
2.57534
2.58576
2.59706
2.60933
2.62242
2.63627
2.65076
2.6656
2.68066
2.69597
2.01008
2.04161
2.04366
2.04593
2.04882
2.05207
2.05536
2.05835
2.06135
2.06452
2.06817
2.07246
2.07727
2.08233
2.08744
2.09276
2.09866
2.10507
2.11172
2.11847
2.12523
2.1319
2.13841
2.14479
2.15128
2.15799
2.16501
2.17209
2.1791
2.18632
2.19357
2.20092
2.2085
2.21634
2.22439
2.23266
2.24108
2.24939
2.25764
2.26625
2.27547
2.28535
2.29611
2.30792
2.32054
2.33368
2.34726
2.36103
2.37485
2.38916
2.40422
2.41967
2.43502
2.44984
2.46366
2.47637
2.4882
2.49936
2.50996
2.52003
2.52953
2.53856
2.54751
2.5568
2.56672
2.57735
2.58859
2.60041
2.61273
2.62534
2.63814
2.65119
1.99882
2.02961
2.03147
2.03356
2.03627
2.03936
2.0425
2.04538
2.04826
2.05132
2.05486
2.05905
2.06376
2.06874
2.07378
2.07903
2.08486
2.09119
2.09777
2.10445
2.11115
2.11777
2.12422
2.13054
2.13696
2.14361
2.15056
2.15756
2.1645
2.17162
2.17876
2.18601
2.19346
2.20116
2.20905
2.21713
2.22535
2.23345
2.24148
2.24987
2.25883
2.26842
2.27884
2.29026
2.30243
2.3151
2.32818
2.34146
2.3548
2.36864
2.38326
2.39829
2.41326
2.42774
2.44128
2.45373
2.46531
2.47619
2.48648
2.49616
2.50519
2.51365
2.52191
2.53033
2.53916
2.54849
2.55823
2.5684
2.57892
2.58966
2.60057
2.6117
1.98739
2.01743
2.01913
2.02106
2.0236
2.02653
2.02955
2.03231
2.03509
2.03805
2.0415
2.04559
2.05022
2.05513
2.0601
2.0653
2.07106
2.07734
2.08385
2.09048
2.09713
2.10371
2.1101
2.11638
2.12275
2.12934
2.13623
2.14318
2.15005
2.15709
2.16415
2.1713
2.17865
2.18623
2.19397
2.20188
2.20992
2.21783
2.22568
2.23386
2.2426
2.25192
2.26204
2.27309
2.28485
2.29708
2.30971
2.32254
2.33545
2.34886
2.36307
2.37773
2.39237
2.40657
2.41987
2.43213
2.44354
2.45425
2.46433
2.47375
2.48245
2.49052
2.49827
2.50604
2.51405
2.52237
2.53095
2.53979
2.54887
2.55809
2.56743
2.57696
1.97574
2.00507
2.00662
2.00841
2.0108
2.01359
2.01648
2.01915
2.02184
2.02471
2.02807
2.03208
2.03664
2.04149
2.04641
2.05156
2.05727
2.0635
2.06996
2.07655
2.08316
2.08971
2.09607
2.10231
2.10864
2.11519
2.12204
2.12894
2.13577
2.14274
2.14973
2.15681
2.16407
2.17155
2.17917
2.18694
2.19481
2.20257
2.21025
2.21825
2.22678
2.23587
2.2457
2.25643
2.26782
2.27965
2.29187
2.30429
2.3168
2.32984
2.34368
2.358
2.37235
2.38631
2.39943
2.41156
2.42286
2.43348
2.44346
2.45273
2.46124
2.46905
2.47647
2.48379
2.4912
2.49878
2.50646
2.51427
2.52221
2.53021
2.53827
2.54647
1.96429
1.99293
1.99436
1.99601
1.99827
2.00093
2.00371
2.00629
2.00889
2.01168
2.01496
2.01889
2.02339
2.02817
2.03305
2.03815
2.04382
2.05
2.05641
2.06296
2.06954
2.07606
2.08239
2.0886
2.09489
2.1014
2.10822
2.11507
2.12187
2.12878
2.13571
2.14271
2.14989
2.15728
2.16479
2.17243
2.18016
2.18776
2.19529
2.20312
2.21146
2.22033
2.22991
2.24033
2.25137
2.26283
2.27467
2.28669
2.29883
2.3115
2.32499
2.339
2.35308
2.36682
2.37979
2.39181
2.40305
2.41361
2.42354
2.43274
2.44115
2.44881
2.45601
2.46301
2.46999
2.477
2.48399
2.49099
2.498
2.50498
2.51196
2.51904
1.95328
1.98125
1.98257
1.9841
1.98622
1.98876
1.99142
1.99391
1.99642
1.99913
2.00232
2.00618
2.0106
2.01533
2.02015
2.0252
2.03082
2.03694
2.04331
2.04981
2.05635
2.06283
2.06912
2.07529
2.08153
2.088
2.09477
2.10158
2.10833
2.11517
2.12204
2.12897
2.13606
2.14335
2.15075
2.15825
2.16583
2.17328
2.18066
2.18832
2.19648
2.20512
2.21444
2.22456
2.23526
2.24635
2.2578
2.26943
2.28119
2.29349
2.30663
2.32031
2.33411
2.34762
2.36041
2.37232
2.3835
2.39404
2.40395
2.41312
2.42148
2.42905
2.4361
2.44289
2.44955
2.45612
2.46255
2.46887
2.47509
2.4812
2.48724
2.49331
1.94261
1.96992
1.97114
1.97255
1.97454
1.97695
1.9795
1.98189
1.98432
1.98695
1.99005
1.99383
1.99818
2.00283
2.0076
2.01259
2.01815
2.02421
2.03052
2.03697
2.04346
2.0499
2.05615
2.06227
2.06846
2.07487
2.08159
2.08835
2.09504
2.10182
2.10861
2.11546
2.12247
2.12966
2.13693
2.1443
2.15173
2.15903
2.16625
2.17375
2.18172
2.19015
2.19921
2.20902
2.21937
2.2301
2.24116
2.25241
2.26379
2.27572
2.28849
2.30183
2.31533
2.32859
2.34121
2.35301
2.36413
2.37465
2.38456
2.39374
2.40209
2.40964
2.41663
2.42328
2.42973
2.43599
2.44201
2.4478
2.45338
2.45876
2.46399
2.46918
1.93193
1.95861
1.95972
1.96102
1.96289
1.96518
1.96762
1.96992
1.97227
1.97481
1.97783
1.98153
1.9858
1.99039
1.9951
2.00004
2.00554
2.01154
2.01779
2.02418
2.03063
2.03702
2.04323
2.04931
2.05544
2.06181
2.06848
2.07519
2.08183
2.08854
2.09526
2.10203
2.10896
2.11605
2.12322
2.13046
2.13774
2.1449
2.15197
2.15931
2.16709
2.17531
2.18413
2.19365
2.20368
2.21404
2.22474
2.23561
2.24661
2.25817
2.27058
2.28358
2.29679
2.30981
2.32225
2.33395
2.34502
2.35554
2.36548
2.37471
2.38312
2.3907
2.39771
2.40433
2.41069
2.41678
2.42253
2.42795
2.43305
2.43787
2.44246
2.44694
1.92122
1.94729
1.94832
1.94951
1.95127
1.95345
1.95579
1.95801
1.96027
1.96274
1.96568
1.9693
1.9735
1.97803
1.98268
1.98757
1.99302
1.99895
2.00515
2.01149
2.0179
2.02425
2.03042
2.03646
2.04254
2.04887
2.05549
2.06215
2.06875
2.0754
2.08205
2.08876
2.09561
2.10262
2.10968
2.1168
2.12395
2.13097
2.13791
2.14511
2.15272
2.16074
2.16933
2.17857
2.18828
2.19832
2.20865
2.21916
2.22981
2.24102
2.25308
2.26575
2.27867
2.29145
2.30372
2.31531
2.32634
2.33688
2.34688
2.3562
2.3647
2.37238
2.37947
2.38615
2.39252
2.39856
2.40419
2.40939
2.41419
2.41861
2.42272
2.42665
1.91083
1.93634
1.93729
1.93839
1.94005
1.94212
1.94437
1.94651
1.9487
1.95109
1.95396
1.95751
1.96164
1.9661
1.97069
1.97553
1.98093
1.98681
1.99295
1.99925
2.00561
2.01193
2.01806
2.02406
2.0301
2.03638
2.04296
2.04958
2.05613
2.06273
2.06932
2.07597
2.08275
2.08967
2.09664
2.10365
2.11069
2.11758
2.1244
2.13145
2.1389
2.14674
2.15511
2.1641
2.17352
2.18324
2.19324
2.20341
2.21372
2.22459
2.23631
2.24866
2.26128
2.27383
2.28592
2.29741
2.3084
2.31895
2.32901
2.33843
2.34706
2.35487
2.36209
2.36889
2.37536
2.38146
2.38707
2.39219
2.39682
2.40099
2.40476
2.40828
1.9011
1.92608
1.92697
1.92799
1.92956
1.93153
1.93369
1.93575
1.93787
1.9402
1.943
1.94647
1.95053
1.95494
1.95948
1.96426
1.96961
1.97543
1.98152
1.98776
1.99409
2.00036
2.00645
2.01242
2.01841
2.02465
2.03119
2.03776
2.04428
2.05082
2.05736
2.06394
2.07066
2.07751
2.08439
2.09129
2.09821
2.105
2.11169
2.11862
2.12592
2.13359
2.14176
2.1505
2.15965
2.16907
2.17876
2.1886
2.19858
2.20913
2.22053
2.23256
2.24489
2.2572
2.2691
2.28047
2.2914
2.30195
2.31207
2.32158
2.33034
2.33831
2.34568
2.35264
2.35925
2.36548
2.37118
2.37631
2.38089
2.38491
2.38848
2.39171
1.89203
1.91651
1.91733
1.91828
1.91976
1.92164
1.92372
1.92571
1.92777
1.93003
1.93276
1.93617
1.94017
1.94451
1.94899
1.95373
1.95902
1.96479
1.97082
1.97702
1.9833
1.98954
1.9956
2.00151
2.00747
2.01367
2.02017
2.02669
2.03318
2.03967
2.04615
2.05268
2.05933
2.06611
2.0729
2.07971
2.08653
2.0932
2.09979
2.1066
2.11376
2.12127
2.12925
2.13777
2.14666
2.1558
2.16519
2.17473
2.1844
2.19463
2.20571
2.21744
2.22948
2.24154
2.25325
2.26448
2.27534
2.28588
2.29604
2.30564
2.31453
2.32264
2.33018
2.33732
2.34412
2.35053
2.35638
2.36161
2.36622
2.37021
2.37367
2.37672
1.88328
1.90728
1.90805
1.90893
1.91034
1.91214
1.91414
1.91607
1.91807
1.92027
1.92294
1.92629
1.93022
1.93451
1.93894
1.94363
1.94887
1.95459
1.96057
1.96673
1.97297
1.97918
1.9852
1.99108
1.997
2.00316
2.00962
2.01611
2.02257
2.02901
2.03545
2.04192
2.04852
2.05523
2.06195
2.06868
2.0754
2.08198
2.08846
2.09516
2.1022
2.10956
2.11736
2.12567
2.13432
2.1432
2.15231
2.16156
2.17095
2.18088
2.19165
2.20307
2.21484
2.22664
2.23816
2.24925
2.26003
2.27054
2.28073
2.29042
2.29942
2.30769
2.31541
2.32274
2.32976
2.33639
2.34244
2.34785
2.35257
2.35662
2.36007
2.36304
1.87462
1.89815
1.89888
1.89972
1.90106
1.9028
1.90473
1.90661
1.90856
1.91071
1.91332
1.91661
1.92049
1.92472
1.92911
1.93376
1.93895
1.94463
1.95057
1.95668
1.96289
1.96907
1.97507
1.98091
1.9868
1.99293
1.99936
2.00582
2.01227
2.01867
2.02506
2.0315
2.03805
2.04471
2.05137
2.05802
2.06466
2.07115
2.07755
2.08415
2.09107
2.09829
2.10593
2.11405
2.12248
2.13111
2.13997
2.14895
2.15805
2.1677
2.17818
2.18931
2.20079
2.21235
2.22366
2.2346
2.24529
2.25577
2.26598
2.27574
2.28486
2.29328
2.30118
2.30873
2.31599
2.32287
2.32918
2.33481
2.33973
2.3439
2.34743
2.35041
1.86615
1.88926
1.88997
1.89077
1.89206
1.89374
1.89562
1.89746
1.89936
1.90146
1.90403
1.90726
1.91109
1.91528
1.91963
1.92424
1.9294
1.93503
1.94093
1.94701
1.9532
1.95935
1.96533
1.97115
1.97701
1.98312
1.98953
1.99595
2.0024
2.00877
2.01513
2.02153
2.02805
2.03467
2.04127
2.04786
2.05443
2.06084
2.06716
2.07367
2.08049
2.08759
2.09508
2.10302
2.11124
2.11965
2.12826
2.13698
2.14582
2.1552
2.1654
2.17624
2.18745
2.19875
2.20985
2.22064
2.23123
2.24165
2.25187
2.26167
2.27089
2.27946
2.28754
2.29529
2.3028
2.30996
2.31655
2.32246
2.32762
2.33199
2.33566
2.33874
1.85828
1.881
1.8817
1.88248
1.88374
1.88536
1.88717
1.88901
1.89087
1.89293
1.89545