/*--------------------------------*- C++ -*----------------------------------*\
| =========                 |                                                 |
| \\      /  F ield         | OpenFOAM: The Open Source CFD Toolbox           |
|  \\    /   O peration     | Version:  2212                                  |
|   \\  /    A nd           | Website:  www.openfoam.com                      |
|    \\/     M anipulation  |                                                 |
\*---------------------------------------------------------------------------*/
FoamFile
{
    version     2.0;
    format      ascii;
    arch        "LSB;label=32;scalar=64";
    class       volScalarField;
    location    "0.0019";
    object      nut;
}
// * * * * * * * * * * * * * * * * * * * * * * * * * * * * * * * * * * * * * //

dimensions      [0 2 -1 0 0 0 0];

internalField   nonuniform List<scalar> 
7220
(
0.284325
0.327378
0.32728
0.32722
0.32734
0.327254
0.328197
0.328688
0.327768
0.328124
0.289798
0.0826934
0.316038
0.326381
0.327711
0.267781
0.257797
0.286592
0.314361
0.283182
0.321573
0.236443
0.327456
0.151926
0.341875
0.0649097
0.297557
0.306766
0.322343
0.307718
0.338189
0.306652
0.329551
0.310595
0.327172
0.297991
0.327273
0.292222
0.290227
0.273443
0.27498
0.274982
0.273445
0.30176
0.301478
0.301522
0.301878
0.301919
0.276705
0.27859
0.278592
0.276707
0.280603
0.282711
0.282714
0.280606
0.284877
0.287064
0.287069
0.284881
0.289234
0.291345
0.291349
0.289238
0.293356
0.29522
0.295223
0.293359
0.296893
0.298329
0.298334
0.296896
0.299498
0.300394
0.300402
0.299505
0.30104
0.301478
0.301485
0.301048
0.301759
0.301916
0.301926
0.301764
0.30201
0.302005
0.301977
0.301944
0.301835
0.301753
0.272116
0.272117
0.274927
0.273383
0.30102
0.301193
0.301681
0.301415
0.301697
0.301521
0.301665
0.300805
0.301245
0.299277
0.300163
0.296703
0.298122
0.293203
0.295049
0.289118
0.291212
0.284792
0.286965
0.280538
0.282637
0.276647
0.27853
0.273378
0.27492
0.27854
0.276655
0.282651
0.28055
0.286981
0.284807
0.29123
0.289136
0.295065
0.293221
0.298139
0.296719
0.300183
0.299296
0.301252
0.300822
0.301657
0.301517
0.301723
0.301621
0.272041
0.272045
0.301111
0.301154
0.300415
0.30104
0.30147
0.301281
0.300897
0.300874
0.301081
0.300678
0.301203
0.301094
0.301068
0.301195
0.300359
0.300796
0.29885
0.299723
0.296326
0.297717
0.292894
0.294705
0.288879
0.290938
0.284616
0.286759
0.280408
0.282487
0.276541
0.278415
0.273268
0.274816
0.270923
0.270779
0.271918
0.27101
0.27101
0.271925
0.270785
0.270926
0.274828
0.273277
0.278433
0.276556
0.282511
0.280429
0.286788
0.284642
0.29097
0.288911
0.294736
0.292926
0.297746
0.296356
0.299747
0.298878
0.300789
0.300372
0.301134
0.301031
0.301158
0.299883
0.300451
0.30039
0.300458
0.270026
0.269857
0.271804
0.270641
0.300646
0.299286
0.299775
0.300723
0.300179
0.298637
0.299218
0.300488
0.300158
0.299933
0.300524
0.300397
0.300432
0.300546
0.299743
0.300169
0.298267
0.299121
0.295806
0.297161
0.292462
0.294226
0.288547
0.290555
0.284378
0.286476
0.280247
0.282291
0.276424
0.278281
0.273156
0.274707
0.270634
0.271794
0.270129
0.270128
0.269862
0.270028
0.274723
0.273169
0.278303
0.276443
0.28232
0.280273
0.286512
0.284412
0.290596
0.288586
0.294264
0.292502
0.297194
0.29584
0.299141
0.298296
0.30015
0.299749
0.300457
0.300374
0.300471
0.299754
0.269682
0.269688
0.300534
0.298646
0.298012
0.30005
0.29971
0.299633
0.29972
0.299383
0.300155
0.270591
0.269606
0.269149
0.268939
0.300218
0.299096
0.297338
0.297963
0.295155
0.295765
0.296586
0.300055
0.298908
0.299437
0.299177
0.299793
0.299658
0.29974
0.299841
0.299078
0.299489
0.297645
0.298475
0.295255
0.29657
0.292016
0.293724
0.288226
0.290171
0.284182
0.286218
0.280154
0.28215
0.276397
0.278227
0.273147
0.274695
0.271774
0.268934
0.269343
0.269146
0.269463
0.269463
0.269345
0.269613
0.271785
0.2706
0.274713
0.273161
0.278251
0.276418
0.282182
0.280182
0.286258
0.284218
0.290214
0.288269
0.293761
0.292057
0.296595
0.295285
0.29848
0.297661
0.299452
0.299066
0.299731
0.29966
0.29974
0.298471
0.298984
0.297253
0.297895
0.296521
0.299387
0.268817
0.268823
0.298944
0.299062
0.298678
0.294939
0.299661
0.299383
0.298413
0.295649
0.299621
0.293579
0.29824
0.297179
0.298576
0.297879
0.293972
0.298823
0.29855
0.299165
0.299034
0.29914
0.299222
0.298509
0.298904
0.297122
0.297926
0.294809
0.296081
0.291687
0.293332
0.288042
0.289912
0.284148
0.28611
0.28025
0.282185
0.276582
0.278373
0.273363
0.274903
0.27078
0.271984
0.268932
0.269762
0.268284
0.268381
0.268218
0.268859
0.268632
0.268996
0.268996
0.268634
0.268861
0.268223
0.268384
0.26829
0.269771
0.268939
0.271996
0.270791
0.274922
0.273379
0.278398
0.276603
0.282217
0.280279
0.286151
0.284185
0.289955
0.288085
0.293362
0.291725
0.296088
0.294828
0.297904
0.297116
0.298834
0.298466
0.299094
0.299029
0.299096
0.297779
0.29828
0.296546
0.297206
0.295762
0.298112
0.298931
0.299429
0.297409
0.298467
0.29862
0.298187
0.269419
0.268725
0.267799
0.267816
0.298731
0.297597
0.296185
0.292326
0.291934
0.290691
0.291
0.297384
0.298912
0.294455
0.299221
0.296714
0.292766
0.296931
0.297821
0.297423
0.298453
0.298164
0.298788
0.298661
0.298776
0.298843
0.298181
0.298558
0.29684
0.297618
0.294606
0.295833
0.291609
0.293186
0.288123
0.289911
0.2844
0.286277
0.280656
0.282517
0.277098
0.278841
0.273932
0.275454
0.271335
0.272553
0.270289
0.267811
0.268005
0.267795
0.268552
0.268296
0.268707
0.268707
0.268297
0.268553
0.268008
0.268731
0.270298
0.269427
0.272566
0.271346
0.275472
0.273947
0.278865
0.277119
0.282549
0.280684
0.286316
0.284436
0.289948
0.288163
0.293204
0.291639
0.295816
0.294607
0.297559
0.296802
0.298445
0.298097
0.298687
0.298628
0.29868
0.297287
0.297787
0.29603
0.296703
0.294347
0.295257
0.293097
0.298197
0.296244
0.268202
0.268207
0.298496
0.298309
0.295807
0.296463
0.298479
0.297826
0.296543
0.294979
0.28939
0.289638
0.284072
0.291439
0.334757
0.293208
0.295358
0.295183
0.296752
0.29605
0.297724
0.297283
0.298408
0.298102
0.298758
0.298626
0.298754
0.29881
0.298193
0.298554
0.296896
0.297649
0.29474
0.295923
0.291871
0.293378
0.288553
0.290252
0.285016
0.2868
0.281448
0.283225
0.278026
0.279707
0.274935
0.276427
0.272347
0.273569
0.270381
0.271282
0.269072
0.269645
0.268658
0.267502
0.267842
0.26779
0.267535
0.268399
0.268117
0.26857
0.26857
0.268118
0.268401
0.267539
0.267792
0.267847
0.267507
0.268664
0.269651
0.269078
0.271291
0.270388
0.273581
0.272358
0.276444
0.27495
0.27973
0.278046
0.283255
0.281474
0.286835
0.285049
0.29028
0.288587
0.293377
0.291887
0.295874
0.294718
0.297546
0.29682
0.298388
0.29806
0.298609
0.298559
0.298587
0.297092
0.298013
0.297604
0.295779
0.296483
0.294036
0.294973
0.291849
0.292958
0.289426
0.290665
0.285699
0.286952
0.288055
0.288171
0.29722
0.333902
0.294354
0.294213
0.29779
0.327239
0.270466
0.269986
0.267642
0.268401
0.29672
0.286734
0.29532
0.288263
0.29006
0.29368
0.29189
0.329582
0.335961
0.337139
0.337788
0.330079
0.339826
0.294783
0.295424
0.337129
0.293703
0.286558
0.287573
0.29739
0.296893
0.29331
0.335806
0.293208
0.335741
0.292231
0.292176
0.330903
0.28954
0.291131
0.291427
0.290427
0.293443
0.292444
0.295339
0.294411
0.296908
0.296186
0.297981
0.297489
0.298732
0.298398
0.29912
0.298971
0.299129
0.299176
0.298599
0.298945
0.297341
0.298072
0.295259
0.296399
0.292515
0.293953
0.289368
0.290977
0.286029
0.287712
0.282655
0.284337
0.279395
0.281001
0.27641
0.277858
0.273862
0.275072
0.271867
0.272791
0.271092
0.268396
0.267346
0.267637
0.267717
0.267424
0.268379
0.268075
0.268562
0.268562
0.268076
0.26838
0.267426
0.267719
0.26735
0.269992
0.271099
0.270472
0.2728
0.271875
0.275084
0.273872
0.277873
0.276424
0.281021
0.279413
0.284363
0.282678
0.28774
0.286057
0.290992
0.289393
0.29393
0.292515
0.296315
0.295208
0.297919
0.297222
0.298721
0.298411
0.298915
0.298875
0.29875
0.298875
0.298212
0.29853
0.297254
0.297787
0.295897
0.296619
0.294216
0.295099
0.292153
0.293216
0.28988
0.29103
0.288718
0.335805
0.336838
0.338507
0.296166
0.297619
0.335457
0.297817
0.117317
0.283466
0.269647
0.269652
0.33632
0.294302
0.295674
0.296222
0.296733
0.285485
0.340688
0.292573
0.288626
0.287737
0.285711
0.295465
0.286914
0.288666
0.291112
0.0281677
0.294
0.321749
0.290051
0.338203
0.29233
0.290517
0.333793
0.334738
0.282601
0.334828
0.334521
0.327302
0.292119
0.291113
0.294042
0.29308
0.295855
0.29497
0.297409
0.296678
0.298578
0.298035
0.299414
0.299041
0.299863
0.299688
0.299898
0.299935
0.299397
0.299729
0.298172
0.298883
0.296156
0.297258
0.293528
0.294901
0.290549
0.292068
0.287411
0.288991
0.284247
0.285825
0.281175
0.282692
0.278329
0.279715
0.275851
0.277037
0.273838
0.274783
0.272329
0.273019
0.271332
0.271767
0.271018
0.268273
0.269438
0.26733
0.267575
0.26777
0.267445
0.268473
0.268153
0.268665
0.268665
0.268154
0.268473
0.267447
0.267772
0.267579
0.267333
0.269443
0.268277
0.271023
0.271773
0.271338
0.273027
0.272335
0.274792
0.273846
0.277048
0.275861
0.279728
0.278342
0.282709
0.281191
0.285847
0.284267
0.28901
0.287433
0.292068
0.290562
0.294853
0.293508
0.297135
0.296074
0.298677
0.298007
0.299441
0.299149
0.299606
0.29958
0.299385
0.299542
0.29879
0.299134
0.297787
0.298342
0.296416
0.297138
0.294811
0.295646
0.292864
0.293879
0.290743
0.291813
0.289673
0.33384
0.335035
0.290019
0.337341
0.338124
0.294993
0.296564
0.333894
0.2832
0.284435
0.334427
0.332816
0.329819
0.293114
0.290086
0.289295
0.287021
0.295483
0.294381
0.29492
0.333376
0.285631
0.327402
0.273392
0.272975
0.26935
0.270816
0.287283
0.348935
0.291384
0.285099
0.330488
0.327257
0.327259
0.327275
0.331466
0.294131
0.330237
0.329524
0.332808
0.340443
0.331768
0.333585
0.289937
0.283391
0.332612
0.330749
0.330383
0.331961
0.336946
0.292628
0.289112
0.288938
0.332157
0.290934
0.329396
0.329272
0.329885
0.288632
0.333358
0.329314
0.333949
0.333643
0.282187
0.327318
0.281984
0.33322
0.293205
0.292343
0.295011
0.294111
0.29672
0.295882
0.298238
0.297512
0.299473
0.29889
0.300397
0.299978
0.300927
0.300716
0.301007
0.301027
0.300535
0.300854
0.299339
0.300034
0.297381
0.298448
0.294857
0.296172
0.292035
0.29347
0.289097
0.290572
0.28615
0.287619
0.283284
0.284701
0.280602
0.281913
0.278209
0.279364
0.276176
0.277144
0.274556
0.275311
0.273916
0.270811
0.268274
0.269345
0.26744
0.267641
0.267934
0.267585
0.268665
0.268334
0.268863
0.268863
0.268335
0.268665
0.267587
0.267936
0.267645
0.267442
0.268278
0.27298
0.273922
0.273397
0.275318
0.274562
0.277153
0.276184
0.279373
0.278218
0.281925
0.280612
0.284716
0.283297
0.287635
0.286166
0.290582
0.289111
0.293452
0.292035
0.296096
0.294815
0.298285
0.297265
0.299774
0.299127
0.300503
0.300228
0.300634
0.300623
0.300354
0.300541
0.299703
0.300074
0.298665
0.299233
0.297306
0.298014
0.295771
0.296564
0.29395
0.294897
0.291983
0.292971
0.291008
0.336093
0.334202
0.330079
0.331837
0.330826
0.338916
0.336624
0.293748
0.290658
0.288655
0.295288
0.332321
0.330961
0.330568
0.333002
0.331495
0.332117
0.332906
0.334174
0.0531151
0.284413
0.289427
0.330024
0.272651
0.272657
0.285928
0.3401
0.333003
0.336062
0.334561
0.343027
0.291861
0.327415
0.286416
0.327274
0.334735
0.337982
0.336595
0.329353
0.294143
0.293043
0.29357
0.329735
0.331917
0.330296
0.330785
0.332201
0.333413
0.33363
0.332384
0.332894
0.332371
0.335829
0.333103
0.331073
0.327261
0.343213
0.334293
0.29013
0.284485
0.336769
0.333677
0.3047
0.292729
0.329492
0.331918
0.331248
0.331469
0.287699
0.288731
0.312829
0.282835
0.337658
0.331319
0.328823
0.327841
0.327811
0.328254
0.330683
0.291203
0.329624
0.329654
0.330592
0.330883
0.297476
0.295805
0.289499
0.287852
0.331808
0.330047
0.330018
0.330443
0.32953
0.287821
0.332749
0.33306
0.330874
0.329067
0.333112
0.330104
0.281455
0.283189
0.318807
0.329553
0.328047
0.281663
0.155439
0.294572
0.293802
0.296267
0.295433
0.297874
0.297082
0.299343
0.298633
0.300601
0.299996
0.301596
0.301136
0.30222
0.301963
0.302362
0.302357
0.301929
0.302231
0.300759
0.30144
0.298848
0.299887
0.296415
0.297678
0.293733
0.295091
0.290981
0.292359
0.288246
0.289607
0.285588
0.286904
0.283073
0.284309
0.280764
0.281889
0.278726
0.279706
0.277039
0.277834
0.275745
0.276344
0.27479
0.275231
0.274407
0.270693
0.272405
0.26838
0.269349
0.267657
0.267816
0.268196
0.267828
0.268944
0.268607
0.269146
0.269146
0.268608
0.268944
0.26783
0.268197
0.267819
0.267659
0.269353
0.268383
0.272411
0.270697
0.274413
0.275236
0.274795
0.276349
0.27575
0.277841
0.277045
0.279714
0.278734
0.281897
0.280772
0.284319
0.283082
0.286916
0.285599
0.289618
0.288258
0.292358
0.290988
0.295056
0.293719
0.297574
0.29635
0.299683
0.298697
0.301124
0.300497
0.301819
0.301561
0.301908
0.301923
0.301576
0.30179
0.300873
0.301269
0.299813
0.300388
0.298489
0.299172
0.297016
0.297775
0.295322
0.296194
0.29353
0.294424
0.291859
0.292661
0.291189
0.284606
0.112181
0.327594
0.335448
0.333855
0.337808
0.333819
0.330237
0.334868
0.332181
0.339594
0.337717
0.341112
0.340547
0.341679
0.292444
0.288137
0.316064
0.328551
0.293941
0.329966
0.331376
0.332579
0.332155
0.34436
0.339769
0.29127
0.327334
0.327433
0.329373
0.329537
0.339315
0.341346
0.325649
0.34038
0.336875
0.336251
0.335325
0.335576
0.342092
0.335027
0.338647
0.337146
0.34497
0.290545
0.285907
0.336565
0.335102
0.327598
0.329077
0.292744
0.291652
0.29217
0.329605
0.331623
0.330064
0.330483
0.33162
0.286295
0.327289
0.277103
0.276559
0.272226
0.274079
0.33959
0.336637
0.288841
0.347414
0.283996
0.334997
0.33273
0.328943
0.32828
0.329612
0.291297
0.329668
0.331022
0.350225
0.288049
0.339342
0.287522
0.282546
0.333191
0.330443
0.289751
0.329967
0.330663
0.330201
0.286816
0.331333
0.334877
0.331431
0.330333
0.329111
0.286954
0.332053
0.330282
0.281035
0.282094
0.332287
0.329487
0.283342
0.329121
0.329079
0.331929
0.32033
0.281789
0.327723
0.327965
0.327851
0.327678
0.290569
0.292768
0.294586
0.293453
0.296197
0.295484
0.297736
0.296974
0.299238
0.298494
0.30065
0.299961
0.301891
0.301288
0.302927
0.302444
0.303635
0.303333
0.303857
0.303816
0.30347
0.303749
0.302327
0.302995
0.300459
0.301474
0.298102
0.299322
0.295542
0.296833
0.292953
0.294244
0.290411
0.291674
0.287946
0.289167
0.285584
0.286751
0.283362
0.284451
0.281364
0.282328
0.279676
0.280479
0.278289
0.27895
0.277677
0.274073
0.270642
0.27222
0.268565
0.269426
0.267963
0.268076
0.268543
0.26816
0.269306
0.268965
0.269512
0.269512
0.268966
0.269306
0.268162
0.268544
0.268079
0.267965
0.26943
0.268568
0.270647
0.276565
0.277683
0.277109
0.278955
0.278294
0.280485
0.279682
0.282335
0.28137
0.284459
0.283369
0.286759
0.285592
0.289177
0.287955
0.291679
0.290419
0.294233
0.292952
0.296779
0.295513
0.299189
0.298014
0.301229
0.300274
0.302625
0.30202
0.303283
0.303043
0.303332
0.303369
0.302951
0.303189
0.302206
0.30262
0.301137
0.30171
0.299854
0.300514
0.298441
0.299167
0.296878
0.297678
0.295293
0.296077
0.293887
0.294553
0.292939
0.293339
0.292659
0.327592
0.327569
0.327586
0.327523
0.327546
0.327634
0.327482
0.327501
0.327201
0.327205
0.327229
0.327216
0.327244
0.327984
0.327622
0.32852
0.329651
0.328554
0.333683
0.331336
0.336514
0.343247
0.341382
0.291431
0.335814
0.340247
0.335944
0.328287
0.327591
0.327853
0.330297
0.32903
0.335161
0.332299
0.340812
0.338409
0.34278
0.341968
0.343645
0.291084
0.287721
0.335948
0.288611
0.327957
0.3284
0.292545
0.329777
0.331047
0.331985
0.331776
0.331402
0.284915
0.312574
0.345125
0.294582
0.335404
0.276046
0.276053
0.323091
0.324248
0.327345
0.327301
0.327443
0.342856
0.341811
0.338874
0.338514
0.337874
0.338159
0.340521
0.337348
0.339906
0.338935
0.347151
0.289194
0.289595
0.285512
0.334778
0.333826
0.292259
0.28992
0.328482
0.327573
0.327884
0.328828
0.319723
0.320615
0.291319
0.290226
0.290727
0.329704
0.315113
0.318837
0.320841
0.331497
0.330042
0.330408
0.331114
0.319323
0.332555
0.333228
0.342889
0.286611
0.338748
0.292027
0.327449
0.32745
0.317293
0.336531
0.287545
0.283772
0.333535
0.331959
0.329011
0.327465
0.32759
0.32938
0.289856
0.329911
0.330733
0.317648
0.331403
0.288301
0.28634
0.317097
0.31832
0.282736
0.32142
0.320636
0.332167
0.327223
0.330077
0.337335
0.332426
0.330205
0.330463
0.329566
0.285819
0.321238
0.322999
0.327197
0.327182
0.330776
0.330696
0.280978
0.281251
0.313505
0.322008
0.320103
0.322922
0.320977
0.32348
0.321387
0.323523
0.331256
0.329495
0.28222
0.328958
0.32872
0.331442
0.328848
0.283615
0.143617
0.331349
0.327336
0.282493
0.30965
0.291936
0.294469
0.295144
0.294716
0.296546
0.295755
0.297969
0.297287
0.299347
0.298659
0.300732
0.300038
0.302071
0.301415
0.303266
0.302685
0.304308
0.303818
0.305074
0.304734
0.305379
0.305297
0.305052
0.305302
0.303946
0.304597
0.302121
0.303111
0.299833
0.301014
0.297378
0.298612
0.294931
0.296148
0.292555
0.293734
0.290255
0.291396
0.288027
0.289131
0.285909
0.286948
0.284003
0.284923
0.282359
0.283151
0.280877
0.281608
0.27942
0.280149
0.277993
0.278695
0.277331
0.273781
0.275571
0.270639
0.272081
0.268802
0.26955
0.268335
0.268396
0.268976
0.268567
0.269768
0.269417
0.26998
0.26998
0.269418
0.269769
0.268568
0.268977
0.268398
0.268337
0.269554
0.268805
0.272087
0.270643
0.275577
0.273787
0.277337
0.278701
0.277999
0.280155
0.279425
0.281613
0.280882
0.283156
0.282364
0.284928
0.284008
0.286955
0.285915
0.289138
0.288034
0.291403
0.290262
0.293733
0.29256
0.296126
0.294923
0.298542
0.297336
0.300855
0.299723
0.302829
0.301903
0.304177
0.303594
0.304794
0.304576
0.304805
0.304863
0.304382
0.304641
0.303609
0.304035
0.302549
0.30311
0.301311
0.301945
0.299974
0.300655
0.298552
0.299266
0.297193
0.297855
0.296044
0.296582
0.295277
0.295603
0.295028
0.327432
0.327442
0.32741
0.327421
0.327399
0.327402
0.32745
0.327407
0.327401
0.327192
0.327227
0.327224
0.327223
0.327237
0.327229
0.327248
0.327287
0.327286
0.32801
0.32764
0.329698
0.328616
0.333953
0.331449
0.340326
0.337092
0.342827
0.327324
0.34082
0.338281
0.340228
0.338072
0.328269
0.327579
0.327835
0.330302
0.329014
0.335345
0.33238
0.342072
0.338941
0.344363
0.343394
0.345593
0.289688
0.287411
0.334455
0.286111
0.287833
0.327927
0.328261
0.316037
0.316985
0.291106
0.316688
0.329831
0.32453
0.322523
0.330919
0.331211
0.317311
0.313465
0.336351
0.315464
0.29818
0.324839
0.328331
0.285216
0.327431
0.324017
0.329719
0.345904
0.336252
0.292704
0.29601
0.335479
0.327444
0.327297
0.327295
0.330791
0.336247
0.339186
0.339112
0.324144
0.335862
0.331448
0.332923
0.28783
0.289851
0.28543
0.333519
0.332782
0.289478
0.32837
0.327519
0.327801
0.32863
0.320707
0.289873
0.288787
0.289267
0.317928
0.31025
0.29805
0.329877
0.323845
0.331444
0.330093
0.330422
0.330747
0.310889
0.315431
0.333148
0.30225
0.286881
0.318837
0.279874
0.279067
0.275147
0.276731
0.327284
0.327294
0.259654
0.260464
0.324657
0.286262
0.284195
0.338895
0.159375
0.322305
0.332394
0.333408
0.294393
0.291818
0.327292
0.327542
0.329105
0.338907
0.334035
0.288422
0.318661
0.330069
0.324651
0.331445
0.330447
0.313895
0.330512
0.297109
0.296958
0.293033
0.285201
0.283775
0.323938
0.327189
0.327416
0.327434
0.329657
0.331465
0.299993
0.330239
0.325291
0.281082
0.280715
0.284866
0.308349
0.325154
0.327165
0.330168
0.329727
0.325474
0.281337
0.328847
0.328575
0.327237
0.327191
0.330591
0.328646
0.282474
0.328284
0.314886
0.330786
0.283916
0.330537
0.327261
0.337115
0.3316
0.334042
0.294542
0.296989
0.296943
0.296883
0.297504
0.29715
0.298595
0.298001
0.299783
0.29918
0.300998
0.300387
0.302259
0.301621
0.303514
0.302897
0.304646
0.304096
0.305659
0.305173
0.306445
0.306086
0.306823
0.306703
0.306563
0.30678
0.305506
0.306136
0.303728
0.304693
0.301507
0.302652
0.299145
0.300329
0.296815
0.29797
0.29457
0.295682
0.292398
0.293477
0.290289
0.291334
0.288299
0.289273
0.286521
0.28738
0.284934
0.285714
0.283335
0.284149
0.281608
0.282484
0.280729
0.276724
0.273527
0.27514
0.270665
0.271977
0.269067
0.269701
0.268756
0.26875
0.2695
0.26904
0.270356
0.26998
0.270581
0.270581
0.269981
0.270357
0.269042
0.269501
0.268753
0.268758
0.269704
0.26907
0.271982
0.27067
0.273533
0.279074
0.280734
0.27988
0.282489
0.281613
0.284153
0.28334
0.285718
0.284938
0.287384
0.286525
0.289278
0.288304
0.29134
0.290295
0.29348
0.292404
0.295676
0.294571
0.29794
0.2968
0.300243
0.299091
0.302469
0.301378
0.304375
0.303481
0.305672
0.305114
0.306245
0.306047
0.306219
0.306295
0.305763
0.306037
0.304978
0.305407
0.30394
0.304484
0.302754
0.303358
0.3015
0.302134
0.300238
0.300862
0.2991
0.299647
0.298169
0.298605
0.297521
0.297801
0.297311
0.327382
0.327376
0.327381
0.327364
0.32737
0.327355
0.327358
0.327362
0.327356
0.327394
0.327375
0.327425
0.327444
0.327417
0.327252
0.327304
0.327264
0.327281
0.32725
0.327254
0.327255
0.32725
0.327274
0.327263
0.327286
0.327282
0.328003
0.327628
0.32966
0.32861
0.333981
0.331404
0.340692
0.337228
0.347024
0.344036
0.349704
0.339143
0.33786
0.327591
0.334584
0.327541
0.32737
0.327416
0.328193
0.32778
0.330169
0.328907
0.335428
0.332281
0.343125
0.339334
0.346264
0.344963
0.349563
0.347911
0.32118
0.288279
0.287573
0.33325
0.285436
0.287274
0.327841
0.328128
0.316987
0.289641
0.314295
0.324231
0.324103
0.329933
0.325554
0.330884
0.330784
0.313092
0.317206
0.33475
0.285518
0.315626
0.327349
0.29601
0.0984028
0.319788
0.334507
0.165059
0.278321
0.278328
0.327315
0.327315
0.327224
0.309492
0.310056
0.330763
0.329171
0.27334
0.317567
0.294445
0.300744
0.306251
0.340548
0.28648
0.29042
0.286002
0.298415
0.253162
0.297743
0.263395
0.332349
0.331667
0.28928
0.327447
0.327712
0.328426
0.33241
0.336248
0.288425
0.287345
0.287805
0.315321
0.191205
0.327765
0.326114
0.307134
0.302938
0.329966
0.226962
0.326291
0.330286
0.330779
0.330349
0.0586963
0.311494
0.331918
0.299263
0.299121
0.296621
0.164371
0.282812
0.327256
0.307047
0.327206
0.285018
0.285112
0.320935
0.320163
0.313627
0.325491
0.330371
0.331489
0.0643149
0.291972
0.327237
0.32749
0.328796
0.312701
0.31624
0.332752
0.312742
0.287025
0.315796
0.327334
0.32735
0.327382
0.330018
0.317552
0.321501
0.285926
0.326941
0.0954512
0.111935
0.334596
0.280543
0.330125
0.284126
0.290652
0.293811
0.310517
0.285475
0.326418
0.335333
0.334937
0.297256
0.294908
0.327154
0.327415
0.329205
0.327554
0.327523
0.327538
0.314596
0.330225
0.318977
0.30634
0.327199
0.329178
0.280789
0.329455
0.285211
0.325802
0.284059
0.255856
0.327335
0.0909221
0.327138
0.328762
0.327149
0.327469
0.327431
0.329616
0.327486
0.332132
0.328629
0.281571
0.327912
0.311273
0.327194
0.329957
0.327844
0.28277
0.284256
0.311898
0.327274
0.330231
0.238181
0.2446
0.339895
0.325172
0.329576
0.317074
0.316922
0.320906
0.297737
0.299591
0.299098
0.299272
0.299118
0.29905
0.299596
0.299306
0.300431
0.299978
0.301423
0.30091
0.302466
0.301933
0.303608
0.303025
0.304772
0.304198
0.305833
0.30532
0.306793
0.306323
0.307568
0.307207
0.307999
0.307846
0.307806
0.307989
0.30681
0.307414
0.305085
0.306023
0.302928
0.304039
0.300642
0.301788
0.298397
0.299509
0.296237
0.297307
0.294149
0.295185
0.292134
0.293129
0.290269
0.291176
0.288618
0.289419
0.287054
0.287842
0.285323
0.286218
0.283399
0.284375
0.281457
0.282418
0.279674
0.280537
0.27889
0.276185
0.277654
0.27331
0.27476
0.27071
0.271899
0.26934
0.269863
0.269201
0.269119
0.270018
0.26954
0.270896
0.27051
0.271128
0.271128
0.270511
0.270896
0.269541
0.270019
0.269121
0.269202
0.269866
0.269343
0.271905
0.270714
0.274767
0.273316
0.277662
0.276192
0.278899
0.280545
0.279682
0.282424
0.281465
0.28438
0.283404
0.286222
0.285327
0.287846
0.287057
0.289422
0.288621
0.29118
0.290273
0.293133
0.292138
0.295187
0.294152
0.297297
0.296234
0.299471
0.298376
0.301689
0.300579
0.303837
0.302784
0.305675
0.304813
0.306917
0.306385
0.307444
0.307268
0.307388
0.307478
0.306911
0.307193
0.306126
0.306553
0.30512
0.305645
0.303992
0.304565
0.302836
0.303413
0.301738
0.302273
0.300794
0.301244
0.300023
0.300386
0.299505
0.299718
0.299378
0.32736
0.327356
0.327349
0.327355
0.32734
0.327344
0.327338
0.327338
0.327355
0.327344
0.327397
0.327373
0.327462
0.327428
0.327497
0.327303
0.327323
0.327283
0.32729
0.327282
0.32728
0.327296
0.327287
0.327306
0.327271
0.327219
0.327235
0.327214
0.327874
0.327531
0.329427
0.328443
0.333582
0.331071
0.340833
0.336977
0.347903
0.344523
0.350724
0.306861
0.282894
0.323503
0.282639
0.309321
0.327438
0.327328
0.328046
0.327655
0.329914
0.328713
0.335176
0.331968
0.34397
0.339502
0.348301
0.346632
0.3517
0.350274
0.350408
0.286877
0.28802
0.257188
0.296759
0.331989
0.285036
0.286993
0.327724
0.327992
0.318426
0.31776
0.333819
0.337985
0.326913
0.272024
0.0787561
0.312163
0.30976
0.328558
0.296413
0.305076
0.288173
0.311416
0.283677
0.327318
0.299048
0.329901
0.323508
0.327723
0.330657
0.330159
0.330248
0.309148
0.314599
0.18531
0.232281
0.333162
0.301365
0.344224
0.330827
0.214434
0.313146
0.302021
0.333825
0.298781
0.308082
0.327033
0.352922
0.222949
0.234177
0.18234
0.263475
0.223095
0.327215
0.285161
0.293559
0.291184
0.286834
0.318949
0.316542
0.326692
0.329151
0.331375
0.301289
0.314881
0.329758
0.120261
0.305042
0.289448
0.327353
0.327612
0.328204
0.327567
0.327565
0.327568
0.32757
0.315489
0.314893
0.30775
0.315298
0.333984
0.334582
0.319311
0.330247
0.296175
0.287002
0.285927
0.286366
0.312092
0.327419
0.139763
0.325849
0.331315
0.303478
0.29923
0.292679
0.328236
0.329784
0.32657
0.326199
0.328487
0.333876
0.280701
0.320017
0.329904
0.330685
0.211253
0.295
0.329916
0.329441
0.334338
0.288621
0.279124
0.278164
0.277081
0.278206
0.327317
0.327064
0.327163
0.27472
0.258713
0.232583
0.199845
0.283843
0.296773
0.284585
0.308365
0.286651
0.316476
0.310077
0.327919
0.333744
0.328707
0.292421
0.30661
0.328181
0.327178
0.327433
0.328462
0.327545
0.315392
0.313539
0.32075
0.331147
0.259394
0.288358
0.241459
0.285698
0.312282
0.327368
0.281451
0.28797
0.329807
0.328778
0.317224
0.280676
0.0579391
0.3319
0.329516
0.145277
0.283197
0.292082
0.307457
0.286529
0.31319
0.313319
0.303494
0.328574
0.338988
0.329404
0.295562
0.327118
0.327392
0.328759
0.327492
0.312837
0.294256
0.328833
0.29546
0.268142
0.281939
0.312711
0.328859
0.28101
0.207121
0.283497
0.288607
0.306851
0.327794
0.29996
0.298295
0.307329
0.327134
0.327429
0.329081
0.265185
0.327516
0.317798
0.281813
0.283119
0.307938
0.327201
0.329414
0.327221
0.319771
0.139151
0.158256
0.213109
0.330568
0.338555
0.323044
0.328184
0.314678
0.318581
0.309903
0.308163
0.311194
0.300257
0.300537
0.300264
0.300446
0.300022
0.300095
0.300137
0.300036
0.300557
0.30032
0.301208
0.300851
0.302031
0.301608
0.302924
0.302461
0.303961
0.303428
0.305038
0.304503
0.30603
0.305551
0.306923
0.306483
0.307668
0.307317
0.308125
0.307951
0.307995
0.308147
0.307071
0.307642
0.305404
0.306313
0.303306
0.304388
0.301068
0.302191
0.298852
0.299952
0.296701
0.297768
0.29461
0.295648
0.29261
0.293594
0.290786
0.291671
0.289147
0.289952
0.287473
0.288334
0.285543
0.286543
0.2834
0.284489
0.281206
0.282297
0.280141
0.278197
0.275721
0.277072
0.27313
0.274437
0.270767
0.271844
0.269607
0.270027
0.269618
0.269473
0.270522
0.270002
0.271441
0.271038
0.271683
0.271683
0.271038
0.271441
0.270003
0.270523
0.269475
0.269619
0.27003
0.26961
0.27185
0.270771
0.274444
0.273136
0.275728
0.278174
0.280151
0.279134
0.282305
0.281214
0.284495
0.283407
0.286546
0.285547
0.288337
0.287476
0.289955
0.28915
0.291675
0.29079
0.293598
0.292614
0.295648
0.294613
0.297756
0.296696
0.29991
0.298828
0.302086
0.301
0.304174
0.303153
0.305947
0.305118
0.307134
0.306627
0.307622
0.307463
0.307546
0.307643
0.307068
0.307349
0.306298
0.306714
0.305329
0.305832
0.304266
0.304802
0.303218
0.303734
0.302272
0.302727
0.301477
0.301855
0.300845
0.301137
0.300509
0.300625
0.300464
0.300474
0.300239
0.300395
0.327373
0.327373
0.32736
0.327366
0.327352
0.327355
0.327355
0.327352
0.327374
0.327362
0.327415
0.327392
0.327474
0.327444
0.327534
0.327506
0.327553
0.327562
0.327507
0.32754
0.327521
0.327547
0.327454
0.327488
0.327392
0.327421
0.32735
0.327368
0.327328
0.327336
0.327324
0.327323
0.327333
0.327327
0.32735
0.327342
0.327351
0.326913
0.32694
0.326905
0.327516
0.327204
0.328941
0.328045
0.332831
0.330455
0.340388
0.336229
0.348725
0.34477
0.351801
0.216564
0.096772
0.29816
0.195416
0.24257
0.326859
0.326757
0.326784
0.327081
0.326961
0.32765
0.327284
0.329391
0.328271
0.334548
0.331355
0.344308
0.33909
0.350047
0.348025
0.353273
0.3521
0.350033
0.2855
0.288832
0.317876
0.327918
0.331052
0.28236
0.290473
0.284977
0.287112
0.302393
0.32784
0.327561
0.314524
0.336277
0.323967
0.322362
0.331771
0.321702
0.326096
0.0873929
0.313126
0.306886
0.304165
0.300088
0.298655
0.286729
0.307897
0.299563
0.32695
0.330318
0.295547
0.120011
0.328178
0.32979
0.335566
0.330102
0.330002
0.222848
0.218006
0.329654
0.208803
0.298297
0.299937
0.334108
0.110549
0.333505
0.300529
0.124627
0.277282
0.277293
0.299909
0.326621
0.297842
0.113217
0.125182
0.240958
0.0996097
0.167742
0.122118
0.283908
0.0572746
0.306013
0.293985
0.29177
0.287925
0.315536
0.312898
0.329322
0.332304
0.330497
0.3296
0.318457
0.143189
0.28999
0.32771
0.327259
0.327505
0.327975
0.327543
0.313397
0.312279
0.333224
0.332538
0.277225
0.301129
0.124261
0.292065
0.296323
0.285621
0.28458
0.284983
0.308232
0.327401
0.327503
0.327469
0.133342
0.33473
0.299343
0.295339
0.289766
0.330372
0.27865
0.328057
0.329194
0.329534
0.321161
0.33127
0.330293
0.301866
0.280948
0.327984
0.329762
0.263975
0.329265
0.135757
0.176513
0.334195
0.179209
0.121666
0.115122
0.325291
0.326805
0.325276
0.282803
0.295205
0.305351
0.287541
0.312776
0.306463
0.305533
0.296442
0.30405
0.330119
0.337419
0.330591
0.331869
0.211129
0.287464
0.293245
0.327118
0.32737
0.328132
0.327488
0.329711
0.314175
0.311934
0.324126
0.329372
0.28722
0.29611
0.225395
0.21517
0.287436
0.292342
0.299655
0.300725
0.284454
0.308226
0.327299
0.328081
0.282587
0.285757
0.329472
0.330416
0.0880976
0.280837
0.330993
0.345129
0.302084
0.173589
0.283253
0.282499
0.291516
0.30504
0.288041
0.30998
0.307343
0.330433
0.278658
0.254515
0.328027
0.310378
0.296343
0.316085
0.327081
0.32736
0.328339
0.327416
0.312114
0.30675
0.327403
0.279223
0.323734
0.107524
0.215064
0.304305
0.298785
0.281116
0.282122
0.303779
0.32712
0.328614
0.326546
0.334065
0.0772256
0.118322
0.321912
0.328106
0.311061
0.316048
0.303951
0.307122
0.299204
0.301376
0.297187
0.297009
0.294851
0.294291
0.29523
0.295121
0.295386
0.29529
0.295719
0.295527
0.296208
0.295963
0.296733
0.296455
0.297416
0.297064
0.298211
0.297786