/*--------------------------------*- C++ -*----------------------------------*\
| =========                 |                                                 |
| \\      /  F ield         | OpenFOAM: The Open Source CFD Toolbox           |
|  \\    /   O peration     | Version:  2212                                  |
|   \\  /    A nd           | Website:  www.openfoam.com                      |
|    \\/     M anipulation  |                                                 |
\*---------------------------------------------------------------------------*/
FoamFile
{
    version     2.0;
    format      ascii;
    arch        "LSB;label=32;scalar=64";
    class       volScalarField;
    location    "0.00468";
    object      p;
}
// * * * * * * * * * * * * * * * * * * * * * * * * * * * * * * * * * * * * * //

dimensions      [1 -1 -2 0 0 0 0];

internalField   nonuniform List<scalar> 
7220
(
242.718
588.229
593.823
596.956
587.698
592.665
593.064
589.747
597.448
593.642
255.619
551.232
439.145
308.549
303.262
578.608
265.557
276.163
272.01
270.869
309.135
470.033
602.762
476.47
620.406
495.396
611.795
293.359
308.564
354.58
561.198
389.896
568.125
339.566
589.889
213.405
604.024
257.91
252.773
190.28
191.132
191.152
190.297
205.648
207.024
207.038
206.186
205.331
191.913
192.568
192.588
191.934
193.102
193.558
193.578
193.122
193.979
194.398
194.428
194.003
194.831
195.292
195.337
194.868
195.799
196.349
196.409
195.852
196.946
197.596
197.662
197.009
198.314
199.094
199.164
198.383
199.917
200.775
200.841
199.984
201.666
202.574
202.64
201.73
204.455
203.554
203.489
204.397
205.283
204.749
189.446
189.46
191.332
190.475
208.045
207.976
206.178
207.11
203.618
201.778
202.695
200.02
200.882
198.413
199.195
197.052
197.697
195.917
196.46
194.965
195.418
194.126
194.539
193.252
193.708
192.059
192.715
190.429
191.279
192.771
192.115
193.768
193.309
194.626
194.196
195.55
195.073
196.63
196.07
197.89
197.234
199.399
198.616
201.083
200.222
202.904
201.98
203.831
204.541
189.596
189.633
206.197
205.24
209.137
208.096
205.455
206.385
205.851
207.236
207.353
206.814
203.959
204.904
202.086
203.017
200.308
201.179
198.69
199.476
197.333
197.974
196.212
196.748
195.278
195.722
194.455
194.861
193.586
194.042
192.388
193.047
190.761
191.607
188.567
188.894
189.932
188.424
188.416
189.986
188.914
188.583
191.688
190.83
193.135
192.474
194.143
193.679
195.007
194.574
195.941
195.458
197.026
196.465
198.292
197.632
199.812
199.024
201.507
200.641
203.351
202.414
204.3
209.475
208.342
206.867
205.899
185.288
185.576
190.521
189.421
209.041
210.698
210.337
208.385
206.454
211.343
210.103
207.813
207.867
207.445
204.515
205.483
202.608
203.555
200.806
201.688
199.173
199.965
197.812
198.453
196.697
197.229
195.776
196.213
194.968
195.366
194.111
194.562
192.914
193.574
191.29
192.133
189.406
190.472
185.14
185.145
185.549
185.272
192.222
191.362
193.679
193.013
194.693
194.226
195.56
195.126
196.502
196.015
197.593
197.029
198.871
198.203
200.409
199.612
202.122
201.246
203.988
203.04
204.945
208.953
186.007
185.978
209.171
212.042
212.695
210.231
208.479
207.766
206.784
208.782
208.886
190.111
186.59
181.539
181.973
209.509
211.671
214.172
213.526
218.332
216.677
215.776
210.349
209.349
207.271
208.287
205.29
206.277
203.347
204.31
201.518
202.412
199.866
200.667
198.493
199.139
197.379
197.909
196.465
196.898
195.673
196.063
194.836
195.277
193.647
194.303
192.038
192.873
191.223
182.035
181.281
181.581
181.125
181.132
181.257
186.547
191.257
190.109
192.956
192.098
194.415
193.746
195.428
194.964
196.292
195.858
197.24
196.749
198.34
197.771
199.638
198.958
201.201
200.392
202.941
202.052
204.84
203.874
205.813
211.021
209.866
213.64
212.272
215.122
209.588
182.646
182.558
208.919
207.909
209.957
218.05
210.065
211.566
213.152
217.539
210.663
220.768
210.454
215.167
210.485
211.616
220.187
208.323
209.365
206.296
207.305
204.316
205.296
202.458
203.366
200.783
201.595
199.391
200.045
198.271
198.803
197.363
197.792
196.584
196.965
195.77
196.199
194.603
195.249
193.005
193.835
190.998
192.195
183.412
187.333
179.807
178.361
179.003
177.567
177.884
177.395
177.406
177.818
177.528
178.873
178.265
179.641
187.264
183.292
192.206
190.972
193.9
193.045
195.357
194.69
196.356
195.899
197.21
196.778
198.163
197.669
199.277
198.7
200.604
199.908
202.202
201.377
203.978
203.07
205.917
204.929
206.913
212.224
211.053
214.893
213.494
216.43
211.731
210.807
211.72
212.881
210.329
209.285
211.397
184.328
180.768
175.581
176.392
213.036
214.813
216.981
223.053
224.14
226.579
225.461
213.126
211.341
219.501
211.962
214.284
222.283
214.294
211.819
213.009
209.63
210.7
207.549
208.584
205.525
206.526
203.631
204.557
201.93
202.754
200.511
201.177
199.383
199.917
198.476
198.903
197.709
198.082
196.92
197.335
195.774
196.411
194.197
195.016
192.061
193.386
188.213
176.581
175.05
175.731
174.202
174.541
174.015
174.029
174.463
174.156
174.937
180.562
188.109
184.169
193.362
191.989
195.058
194.208
196.507
195.845
197.482
197.039
198.322
197.895
199.281
198.783
200.413
199.825
201.779
201.061
203.42
202.573
205.241
204.31
207.229
206.217
208.255
213.705
212.515
216.411
214.994
219.696
217.964
221.763
212.187
215.703
177.594
177.365
210.917
212.001
215.85
214.697
213.179
214.693
216.651
218.985
229.172
228.054
247.084
224.635
576.771
221.652
217.261
218.939
215.977
217.391
213.459
214.675
211.21
212.312
209.064
210.131
206.981
208.01
205.039
205.987
203.301
204.142
201.85
202.531
200.712
201.248
199.803
200.231
199.046
199.413
198.278
198.683
197.147
197.777
195.587
196.397
193.253
194.783
185.382
189.223
178.755
181.872
176.043
173.758
174.823
172.147
172.864
171.25
171.61
171.05
171.065
171.529
171.202
172.71
172.03
174.592
173.565
175.779
181.625
178.489
189.071
185.179
194.719
193.12
196.416
195.571
197.853
197.198
198.804
198.374
199.631
199.206
200.596
200.093
201.752
201.149
203.164
202.421
204.857
203.984
206.736
205.775
208.786
207.742
209.847
215.449
213.103
214.244
218.153
216.742
221.449
219.705
225.656
223.423
230.614
228.052
239.598
236.358
231.961
233.374
213.813
579.053
218.977
220.633
214.771
598.596
180.038
177.391
172.216
173.466
216.527
234.955
218.679
230.849
227.22
221.187
224.021
585.959
579.496
581.284
585.155
516.291
583.35
217.591
216.48
577.809
219.492
241.103
237.925
215.054
215.213
220.844
577.837
222.471
519.875
222.87
224.456
582.545
232.984
226.586
228.415
230.59
224.369
226.323
220.887
222.559
217.934
219.348
215.38
216.618
213.069
214.205
210.844
211.951
208.683
209.751
206.674
207.654
204.884
205.748
203.394
204.092
202.241
202.781
201.33
201.76
200.576
200.939
199.818
200.218
198.695
199.321
197.154
197.951
194.525
196.356
186.546
190.348
183.091
173.715
171.319
172.436
169.628
170.38
168.684
169.064
168.476
168.49
168.985
168.638
170.232
169.516
171.134
177.104
182.81
179.743
190.149
186.302
196.258
194.322
197.948
197.111
199.372
198.724
200.306
199.885
201.13
200.704
202.108
201.598
203.291
202.672
204.756
203.985
206.51
205.605
208.462
207.464
210.586
209.505
212.806
211.691
215.073
213.933
217.46
216.241
220.162
218.756
223.446
221.714
227.54
225.389
232.36
229.866
235.045
578.232
578.988
582.311
215.674
214.933
577.789
284.606
575.378
245.976
175.127
174.859
581.85
218.418
217.132
216.854
216.545
238.116
594.434
221.556
239.752
242.749
244.624
218.557
233.844
230.025
225.061
207.689
220.916
305.379
228.88
588.417
223.605
226.627
578.959
577.761
249.343
576.437
576.449
595.61
230.596
232.839
226.537
228.482
223.098
224.748
220.163
221.574
217.582
218.839
215.204
216.377
212.89
214.043
210.629
211.748
208.528
209.552
206.664
207.561
205.123
205.844
203.949
204.496
203.031
203.464
202.268
202.635
201.508
201.909
200.381
201.009
198.863
199.642
195.817
198.069
187.787
191.554
181.41
184.393
176.64
178.835
174.782
171.736
173.206
169.233
170.402
167.456
168.249
166.457
166.858
166.24
166.253
166.787
166.415
168.114
167.354
170.201
169.064
172.964
171.509
174.542
178.541
176.371
184.089
181.101
191.314
187.51
197.948
195.543
199.626
198.811
201.036
200.392
201.97
201.547
202.808
202.373
203.808
203.287
205.024
204.386
206.545
205.743
208.369
207.427
210.414
209.368
212.632
211.504
214.953
213.787
217.31
216.128
219.746
218.508
222.457
221.05
225.724
224.006
229.716
227.628
234.388
231.973
236.977
573.568
577.555
236.974
575.603
579.066
217.634
216.687
574.332
244.724
241.337
574.317
572.695
584.328
220.516
241.875
244.732
245.956
218.54
219.21
218.874
572.469
237.003
589.365
178.235
176.443
171.368
172.998
233.035
614.835
223.798
248.099
583.768
600.948
608.83
616.881
569.333
220.792
543.403
543.871
569.932
584.618
543.4
538.402
227.447
250.411
550.866
554.762
560.103
556.453
565.932
223.371
229.461
231.419
580.794
226.251
544.707
541.609
539.539
235.647
578.697
540.442
576.907
574.487
248.225
598.091
252.863
511.266
232.916
235.246
228.931
230.848
225.548
227.17
222.65
224.047
220.055
221.326
217.61
218.823
215.196
216.402
212.812
213.994
210.593
211.675
208.63
209.573
207.017
207.771
205.808
206.368
204.876
205.316
204.093
204.47
203.312
203.724
202.167
202.801
200.676
201.433
197.072
199.869
189.072
192.791
182.848
185.751
180.355
173.208
170.065
171.582
167.474
168.685
165.621
166.449
164.573
164.994
164.349
164.36
164.933
164.537
166.33
165.532
168.506
167.324
169.862
176.222
180.071
177.981
185.439
182.542
192.526
188.777
199.736
196.758
201.419
200.63
202.819
202.173
203.778
203.34
204.653
204.199
205.685
205.149
206.936
206.278
208.519
207.682
210.43
209.44
212.592
211.485
214.931
213.743
217.368
216.143
219.82
218.593
222.306
221.051
225.023
223.618
228.252
226.558
232.149
230.115
236.69
234.342
239.196
579.615
574.869
582.157
577.792
570.879
578.012
524.735
219.739
249.836
247.756
218.67
548.402
551.76
547.418
566.221
556.456
561.465
572.126
561.754
245.258
240.297
240.011
563.989
174.922
174.734
236.22
589.254
554.002
574.073
566.903
602.81
222.791
591.072
249.302
613.044
550.17
546.079
551.242
586.986
220.772
221.48
221.12
547.291
566.255
554.384
558.208
552.309
550.877
554.802
555.782
561.45
569.584
532.175
543.782
547.765
612.65
602.068
543.871
226.244
251.462
564.736
555.113
576.317
223.256
547.762
548.503
550.3
553.745
232.514
230.057
298.8
253.898
554.717
560.717
588.633
597.46
597.425
592.397
583.335
226.04
545.775
548.582
548.545
552.115
284.841
588.327
229.125
234.189
580.583
547.042
549.587
550.744
535.724
238.5
578.197
546.637
546.434
537.041
575.61
544.564
251.767
243.729
304.801
542.977
594.063
256.507
287.897
235.314
237.459
231.449
233.301
228.174
229.747
225.34
226.711
222.759
224.031
220.262
221.507
217.747
219.011
215.227
216.479
212.865
214.017
210.773
211.777
209.059
209.861
207.79
208.374
206.83
207.283
206.023
206.412
205.204
205.637
204.021
204.671
202.556
203.286
198.234
201.667
190.371
194.017
184.33
187.139
179.889
181.927
176.701
178.167
175.429
171.857
173.611
168.642
170.194
165.99
167.23
164.093
164.941
163.019
163.452
162.792
162.801
163.399
162.989
164.838
164.017
167.074
165.859
170.008
168.465
173.453
171.678
175.305
177.977
176.545
181.664
179.661
186.832
184.037
193.749
190.074
201.523
197.933
203.293
202.535
204.701
204.041
205.716
205.249
206.645
206.166
207.715
207.162
209.008
208.326
210.666
209.786
212.691
211.639
214.998
213.817
217.484
216.225
220.046
218.763
222.586
221.321
225.113
223.845
227.807
226.42
230.97
229.315
234.768
232.787
239.186
236.903
244.207
241.619
246.954
239.554
587.367
582.86
543.654
558.473
581.872
560.27
579.278
571.177
574.173
572.138
570.931
583.899
575.962
593.003
222.025
250.866
301.5
590.512
220.902
550.755
562.238
559.057
569.579
573.249
558.052
241.735
601.416
593.205
560.79
555.16
541.339
551.902
308.76
570.679
565.153
562.551
549.406
553.898
591.986
550.162
573.643
565.371
603.987
225.271
252.618
560.971
555.472
582.345
587.968
223.248
223.972
223.606
550.742
566.398
556.668
559.789
556.763
235.744
607.94
178.503
177.27
172.331
174.208
604.418
537.959
228.904
567.69
254.882
563.324
558.993
587.197
591.713
585.913
225.955
551.344
555.273
576.52
232.197
585.342
232.881
257.503
562.469
583.1
228.926
552.186
554.07
530.499
237.113
580.336
544.664
544.277
553.076
531.956
241.536
577.627
542.131
255.374
247.259
574.881
540.204
243.01
565.361
538.534
572.37
624.709
260.3
597.471
594.364
597.773
597.42
244.888
247.001
241.716
244.052
237.782
239.792
234.056
235.841
230.904
232.419
228.156
229.489
225.618
226.875
223.106
224.367
220.506
221.819
217.854
219.177
215.33
216.564
213.086
214.163
211.239
212.105
209.874
210.5
208.865
209.339
208.025
208.43
207.154
207.618
205.907
206.586
204.462
205.165
199.268
203.319
191.645
195.194
185.817
188.518
181.563
183.514
179.915
174.303
170.681
172.46
167.418
168.993
164.729
165.986
162.808
163.666
161.724
162.16
161.497
161.505
162.115
161.698
163.578
162.743
165.852
164.617
168.834
167.267
170.529
177.181
179.755
178.38
183.273
181.363
188.224
185.541
194.941
191.357
203.181
199.018
205.224
204.485
206.671
205.979
207.77
207.262
208.759
208.254
209.868
209.297
211.218
210.501
212.979
212.042
215.15
214.02
217.631
216.362
220.275
218.941
222.948
221.617
225.544
224.258
228.08
226.814
230.725
229.37
233.785
232.185
237.467
235.545
241.767
239.544
246.646
244.133
252.1
249.305
255.005
603.303
601.509
602.186
600.755
601.085
597.244
599.908
600.38
595.839
599.34
602.653
600.706
605.357
570.818
582.805
564.314
547.186
559.017
534.991
538.631
535.536
564.247
565.879
238.528
558.297
583.153
557.35
590.972
605.097
598.465
575.248
583.003
565.128
568.935
566.223
564.675
582.303
571.543
593.677
224.518
253.961
557.251
243.088
573.856
591.115
223.386
553.674
563.039
561.413
559.383
561.893
239.108
296.927
556.285
263.093
622.515
176.168
176.108
305.49
308.447
605.852
612.96
596.02
285.935
574.814
567.065
562.75
547.732
552.824
593.802
544.817
571.711
561.827
603.023
227.967
258.42
255.915
561.171
558.81
249.996
248.011
567.588
581.908
594.39
588.661
302.291
301.636
225.954
226.697
226.33
553.95
300.762
303.993
305.817
566.641
558.837
561.389
557.991
304.222
500.961
506.189
574.996
235.442
583.595
262.01
608.229
610.729
607.036
530.708
231.773
258.362
562.61
561.959
585.388
599.374
596.94
585.872
228.874
554.751
557.016
302.012
524.915
232.017
235.876
301.798
302.452
261.225
306.377
304.585
562.51
591.944
582.95
542.464
542.003
555.495
556.212
526.37
240.187
305.454
307.718
598.409
595.098
580.08
539.622
259.073
250.811
299.072
307.187
305.071
308.162
305.684
308.586
305.799
308.43
577.21
537.407
246.551
568.286
533.65
574.476
535.445
242.584
244.879
571.528
611.514
264.218
294.992
253.05
255.045
249.298
252.122
244.32
246.634
240.269
242.241
236.689
238.405
233.652
235.11
231.005
232.29
228.539
229.764
226.05
227.309
223.404
224.748
220.646
222.029
217.961
219.279
215.55
216.71
213.547
214.491
212.051
212.737
210.963
211.471
210.07
210.501
209.121
209.629
207.789
208.505
206.363
207.045
200.165
204.634
192.842
196.276
187.257
189.838
183.204
185.061
180.272
181.629
177.994
179.075
176.997
173.29
175.165
169.641
171.434
166.356
167.941
163.65
164.915
161.722
162.583
160.636
161.072
160.41
160.416
161.034
160.613
162.509
161.667
164.801
163.556
167.807
166.227
171.329
169.515
175.13
173.218
176.994
179.013
177.964
181.49
180.173
184.835
183.021
189.556
186.994
196.05
192.57
204.519
199.995
207.183
206.439
208.701
207.958
209.914
209.353
210.964
210.435
212.115
211.521
213.547
212.78
215.446
214.433
217.794
216.571
220.462
219.102
223.252
221.854
225.993
224.636
228.599
227.313
231.094
229.854
233.654
232.348
236.591
235.056
240.141
238.284
244.318
242.156
249.06
246.619
254.344
251.641
257.13
605.321
606.513
603.772
604.468
602.294
603.06
598.864
600.944
601.551
597.715
600.653
602.532
601.47
606.153
604.032
609.028
621.716
618.042
566.913
582.585
536.949
550.884
524.316
527.605
533.858
526.268
545.146
630.829
570.243
557.849
583.365
552.778
589.844
607.862
599.655
569.424
579.413
556.378
561.308
557.624
555.439
578.326
565.031
592.051
227.236
257.077
559.447
244.702
246.243
574.479
591.545
299.409
299.12
226.109
301.941
556.396
308.004
307.191
564.009
560.197
302.616
296.927
562.258
561.042
213.444
303.372
306.055
238.826
600.482
304.705
566.612
581.936
576.713
265.333
285.96
304.833
614.406
624.468
619.065
563.811
567.327
545.634
551.215
592.296
537.949
565.676
555.111
230.874
261.336
259.249
562.03
561.398
251.177
570.682
582.195
594.31
588.732
300.14
228.913
229.642
229.276
302.705
296.626
430.907
557.112
308.938
567.463
561.134
563.223
559.591
297.581
301
519.068
290.932
235.271
302.946
179.712
178.717
174.222
176.083
627.3
629.757
623.674
608.359
522.025
234.831
261.895
304.653
291.384
307.354
563.078
577.757
258.021
256.151
587.598
596.567
585.773
539.899
539.561
231.999
303.032
557.92
310.37
563.13
558.979
299.034
520.428
261.916
264.638
279.412
239.025
264.973
309.67
591.519
600.532
598.464
582.79
536.95
506.742
558.455
311.279
262.733
254.38
243.398
292.88
310.909
594.558
579.811
534.552
311.466
250.125
569.848
528.285
599.932
597.109
576.849
532.309
246.138
530.263
299.495
573.903
242.328
565.639
617.954
299.197
308.871
299.524
261.027
262.827
257.049
259.923
251.549
254.243
246.725
249.02
242.705
244.642
239.26
240.911
236.338
237.741
233.797
235.031
231.424
232.605
228.992
230.228
226.35
227.701
223.526
224.952
220.705
222.099
218.128
219.372
215.961
216.988
214.305
215.069
213.103
213.663
212.131
212.602
211.063
211.637
209.632
210.384
208.192
208.908
200.957
205.404
193.911
197.216
188.59
191.042
184.748
186.508
181.943
183.248
180.778
176.064
172.365
174.238
168.715
170.508
165.428
167.014
162.727
163.989
160.806
161.663
159.727
160.161
159.505
159.51
160.129
159.708
161.601
160.76
163.893
162.648
166.9
165.319
170.424
168.609
172.313
178.737
180.73
179.7
183.113
181.853
186.283
184.567
190.769
188.331
197.025
193.658
205.367
200.864
209.151
208.324
210.747
209.943
212.11
211.479
213.224
212.672
214.423
213.8
215.963
215.131
218.037
216.929
220.59
219.264
223.439
221.995
226.323
224.891
229.072
227.72
231.636
230.376
234.055
232.858
236.502
235.257
239.3
237.835
242.708
240.921
246.757
244.658
251.36
248.993
256.451
253.852
259.139
618.788
612.426
615.216
608.734
610.324
606.435
607.503
604.352
605.381
602.805
603.459
600.273
602.157
602.408
599.25
601.784
603.365
602.529
605.468
604.306
609.22
607.022
615.735
612.117
619.872
623.985
565.807
584.299
527.675
545.435
514.144
517.081
527.33
517.955
551.496
539.471
562.67
571.716
556.82
581.31
546.144
611.69
622.973
619.654
589.119
601.547
561.488
574.506
544.565
550.956
546.605
543.348
571.272
556.284
599.58
586.506
305.119
230.168
260.245
561.529
247.977
249.482
576.36
591.545
297.919
229.049
299.665
302.962
304.685
559.132
310.182
565.446
561.749
299.324
330.87
512.638
238.675
299.987
605.7
281.989
608.336
318.333
563.471
599.377
177.776
177.821
626.614
631.489
625.703
590.645
567.006
543.153
548.964
591.783
528.714
553.862
545.715
621.095
616.258
233.979
264.419
262.592
443.262
421.032
401.963
446.811
563.418
563.779
254.401
582.688
594.072
588.637
537.022
536.871
232.077
232.787
232.43
300.128
507.408
306.377
309.152
294.175
291.28
560.271
569.79
312.089
565.297
563.767
561.355
477.115
297.938
514.184
263.708
266.345
267.089
593.908
511.893
631.347
294.571
635.409
238.055
265.442
301.295
302.233
298.928
311.097
310.867
564.021
247.697
259.282
587.656
596.204
585.613
297.03
333.242
534.066
502.448
235.344
300.228
601.165
604.14
603.529
560.671
314.958
303.809
545.588
313.703
607.507
575.357
527.424
257.918
561.085
242.313
280.879
283.645
296.446
268.498
313.073
306.46
310.018
265.737
264.052
591.197
598.173
582.562
603.783
603.005
602.25
345.19
531.521
311.528
371.656
314.486
569.509
253.689
568.699
271.674
644.204
246.727
270.696
307.654
590.012
314.29
522.358
594.076
601.856
599.963
579.477
601.327
529.308
529.07
249.718
524.617
296.582
596.512
576.404
526.787
245.903
242.208
296.96
598.64
573.354
617.249
288.762
305.966
301.204
303.2
299.381
298.368
299.759
268.618
270.176
264.605
267.415
258.989
261.782
253.664
256.266
248.972
251.219
245.034
246.921
241.705
243.298
238.891
240.241
236.453
237.636
234.186
235.314
231.841
233.038
229.246
230.579
226.404
227.849
223.487
224.939
220.755
222.081
218.423
219.531
216.601
217.445
215.256
215.883
214.181
214.705
212.956
213.613
211.417
212.199
209.65
210.721
201.572
205.71
194.804
197.972
189.762
192.079
186.136
187.799
183.452
184.708
181.264
182.317
179.327
180.271
178.426
175.183
176.879
171.513
173.372
167.885
169.668
164.619
166.193
161.941
163.191
160.043
160.889
158.98
159.407
158.761
158.766
159.38
158.964
160.836
160.004
163.109
161.873
166.096
164.525
169.6
167.795
173.372
171.476
176.944
175.218
178.502
180.295
179.381
182.262
181.251
184.559
183.351
187.56
185.939
191.81
189.496
197.822
194.571
205.802
201.551
211.109
209.866
212.773
211.915
214.298
213.591
215.491
214.915
216.746
216.085
218.418
217.51
220.708
219.486
223.488
222.054
226.469
224.974
229.373
227.943
232.068
230.748
234.549
233.333
236.865
235.722
239.184
238.006
241.838
240.446
245.108
243.388
249.036
246.995
253.514
251.213
258.443
255.928
261.045
621.996
626.222
615.952
618.679
611.776
613.695
608.707
610.152
606.117
607.34
604.484
605.144
603.807
604.082
603.518
605.857
604.924
608.191
606.925
611.981
609.81
618.24
614.76
622.253
637.443
633.873
636.683
630.6
566.089
588.005
524.008
543.77
509.116
512.402
520.24
510.867
544.306
532.156
556.659
591.593
268.667
554.899
574.764
536.568
616.592
624.601
588.616
604.247
552.339
571.163
531.353
538.684
534.322
529.71
561.995
545.924
592.125
577.977
605.747
233.298
263.433
436.947
416.98
563.659
251.353
252.806
577.795
591.417
320.324
320.622
530.325
533.801
632.636
551.237
546.689
294.384
292.882
313.31
580.701
291.307
232.203
297.148
268.166
308.361
288.545
562.081
306.948
313.047
567.042
565.052
563.341
296.252
326.804
483.293
491.05
507.635
575.22
305.388
316.351
538.548
295.858
289.385
300.774
268.905
269.865
613.998
562.735
592.959
565.872
590.636
518.064
536.021
638.111
237.26
268.424
267.469
265.946
302.562
301.274
311.938
312.204
564.717
290.258
324.955
566.567
458.983
292.933
257.66
583.633
593.769
588.445
603.593
605.346
605.398
603.424
333.056
334.361
526.481
518.6
523.295
530.915
498.237
299.55
269.882
235.417
236.119
235.767
297.364
603.094
594.399
640.104
308.549
291.498
288.626
283.322
573.057
562.806
298.884
294.799
315.484
523.476
261.37
297.906
567.766
565.115
589.672
282.069
563.409
567.125
600.343
601.439
180.709
179.83
176.1
177.654
637.944
643.648
643.751
504.113
512.483
496.901
501.006
241.423
286.162
273.387
295.249
268.917
299.844
295.884
314.664
312.887
570.992
262.446
306.294
573.317
587.643
595.883
585.373
601.732
344.204
348.454
511.036
528.248
493.456
288.485
255.337
238.853
297.29
600.706
264.737
278.211
563.262
316.905
295.139
257.154
248.38
495.881
293.072
486.595
245.727
281.673
294.422
271.987
296.861
297.421
290.677
316.53
310.236
516.034
267.077
590.881
597.848
582.216
600.544
361.107
498.001
525.725
290.879
263.558
263.785
276.694
317.273
253.278
284.218
250.154
276.798
293.506
518.485
272.871
271.439
293.66
593.588
599.419
579.031
487.067
523.198
270.477
249.502
245.805
293.932
595.933
575.881
520.877
318.446
599.764
456.694
534.839
583.682
300.513
298.685
299.967
296.784
297.616
295.462
295.092
295.933
275.484
276.708
271.698
274.258
266.316
269.042
260.82
263.558
255.62
258.159
251.05
253.242
247.206
249.044
243.973
245.519
241.249
242.554
238.902
240.039
236.734
237.812
234.493
235.638
231.985
233.278
229.187
230.617
226.24
227.719
223.378
224.781
220.86
222.062
218.859
219.785
217.374
218.066
216.18
216.767
214.776
215.53
213.154
213.945
210.263
212.434
201.964
205.826
195.475
198.508
190.705
192.889
187.294
188.861
184.733
185.938
182.605
183.632
181.633
177.562
174.345
176.021
170.724
172.558
167.139
168.901
163.914
165.468
161.279
162.508
159.416
160.246
158.37
158.79
158.156
158.16
158.767
158.356
160.2
159.382
162.437
161.22
165.384
163.833
168.845
167.063
172.569
170.698
174.392
179.873
181.62
180.728
183.538
182.553
185.75
184.592
188.6
187.064
192.629
190.431
198.409
195.272
206.075
202.025
212.984
210.605
214.726
213.846
216.43
215.623
217.7
217.106
219.005
218.306
220.859
219.843
223.423
222.065
226.4
224.885
229.423
227.924
232.265
230.875
234.858
233.592
237.222
236.066
239.421
238.335
241.623
240.504
244.154
242.824
247.307
245.644
251.129
249.139
255.508
253.259
260.307
257.862
265.415
262.832
270.573
268.005
625.952
629.344
619.465
622.614
614.444
616.738
610.569
612.416
607.62
608.947
605.994
606.647
605.244
605.559
605.079
605.006
605.261
605.391
602.784
603.09
605.026
605.281
605.321
605.019
606.326
605.737
608.121
607.115
610.75
609.325
614.72
612.522
620.684
617.421
628.386
624.289
632.888
640.296
642.714
636.72
572.499
596.24
524.786
547.445
510.008
513.344
517.169
510.653
536.249
526.337
547.687
593.217
279.59
533.921
563.345
524.957
636.175
642.17
639.77
621.913
630.268
590.715
608.803
547.835
570.055
520.593
529.578
522.897
518.563
550.978
535.167
581.988
566.098
594.613
236.618
266.592
302.391
312.281
565.406
514.835
540.335
254.826
256.173
289.448
591.183
603.274
334.147
527.37
488.248
493.371
304.612
297.497
298.958
569.189
293.894
291.699
290.609
273.183
271.555
235.541
294.425
582.822
625.986
311.296
285.904
369.174
297.057
316.277
316.143
569.132
566.441
476.919
469.989
565.459
600.719
600.868
316.375
288.947
378.339
317.829
278.983
425.839
178.989
179.049
275.817
647.896
270.862
581.198
562.527
521.963
568.877
506.221
536.101
240.694
495.107
293.545
271.536
270.525
269.283
299.795
297.89
315.429
314.811
566.263
568.51
320.05
268.482
260.981
577.328
584.114
593.44
588.155
601.315
347.273
349.609
516.232
524.681
489.679
317.587
444.141
283.49
272.85
238.922
239.625
239.277
294.451
600.389
600.705
600.407
575.323
309.265
288.64
285.79
280.597
574.716
575.728
574.083
568.313
565.352
284.395
287.548
318.01
289.986
260.616
573.387
572.709
291.089
570.565
483.168
252.467
288.504
484.462
589.515
488.895
644.21
640.983
640.638
244.908
284.395
293.109
272.287
297.484
292.783
294.221
293.416
293.383
317.51
313.796
509.441
502.796
570.504
343.416
265.619
587.58
595.521
584.993
599.779
565.353
358.211
364.386
503.952
522.126
271.047
264.24
299.015
529.959
288.645
287.581
288.662
287.138
242.442
294.25
598.149
283.071
267.506
275.538
565.529
318.713
480.411
256.81
290.287
297.692
288.059
545.092
253.669
249.233
280.107
292.787
275.842
295.562
294.159
318.563
575.72
464.891
511.839
296.326
270.035
295.972
590.538
597.287
581.732
598.606
377.804
492.234
519.503
481.077
270.606
244.672
588.907
291.442
274.173
253.092
249.418
290.915
593.086
578.478
516.98
277.495
580.881
595.98
292.949
293.407
293.342
293.071
294.409
293.893
294.332
294.435
293.998
289.763
277.886
279.988
273.175
275.61
267.939
270.605
262.532
265.228
257.423
259.912
252.955
255.098
249.201
250.996
246.044
247.555
243.381
244.657
241.091
242.198
238.989
240.031
236.849
237.938
234.465
235.695
231.776
233.156
228.872
230.34
225.933
227.395
223.217
224.524
221.006
222.033
219.37
220.123
218.073
218.714
216.536
217.364
214.878
215.663
209.986
213.727
202.067
205.804
195.806
198.743
191.148
193.268
187.815
189.361
185.228
186.455
183.041
184.099
181.102
182.044
179.357
180.209
178.532
176.73
178.177
173.541
175.195
169.985
171.786
166.466
168.197
163.303
164.826
160.725
161.927
158.901
159.715
157.874
158.287
157.664
157.667
158.267
157.861
159.675
158.872
161.865
160.675
164.753
163.233
168.15
166.4
171.805
169.968
175.283
173.598
178.25
176.832
178.681
180.318
179.488
182.09
181.183
184.061
183.047
186.329
185.147
189.166
187.649
193.096
190.945
198.736
195.693
206.183
202.236
214.401
210.524
216.653
215.745
218.453
217.611
219.734
219.132
221.151
220.373
223.306
222.123
226.144
224.673
229.188
227.66
232.159
230.697
234.872
233.552
237.317
236.125
239.559
238.461
241.654
240.618
243.772
242.693
246.22
244.933
249.281
247.663
253.022
251.072
257.323
255.112
262.028
259.634
267.005
264.49
272.093
269.546
277.247
274.67
279.772
633.159
637.969
624.988
628.983
619.131
621.477
615.464
617.234
611.886
613.671
609.028
610.292
607.436
608.105
606.58
606.934
606.415
606.375
606.908
606.634
607.23
607.123
607.207
607.243
607.484
607.25
608.474
607.897
610.151
609.219
612.57
611.276
615.947
614.082
621.707
618.404
629.87
625.672
638.744
634.227
648.934
643.958
640.822
642.181
641.982
644.8
642.264
275.385
645.29
630.783
275.906
588.856
613.708
536.538
560.501
516.959
522.626
517.697
515.58
526.597
520.03
547.821
535.783
583.558
598.417
479.614
530.328
542.997
508.518
646.334
646.03
631.347
640.945
593.69
614.925
546.901
570.104
515.971
526.37
516.662
512.843
540.555
527.122
566.316
554.078
572.141
240.097
575.714
269.762
299.232
339.76
292.908
292.243
315.619
567.392
563.713
303.806
258.391
259.667
580.698
590.868
600.984
349.096
520.731
484.983
365.153
351.123
333.732
278.604
291.45
291.997
291.782
291.661
291.598
291.769
290.247
291.216
288.359
289.318
287.408
286.313
284.906
274.322
239.042
291.531
600.272
291.102
312.638
283.099
577.031
299.796
371.251
382.116
574.724
570.846
403.965
567.027
288.936
318.318
264.354
619.56
260.904
260.413
264.309
290.347
450.22
499.899
571.725
598.77
459.581
318.34
282.194
473.073
252.443
284.548
287.37
281.585
571.952
287.923
564.749
553.808
535.945
516.625
309.794
497.688
518.807
647.229
648.934
244.254
286.819
291.482
274.487
273.52
272.528
297.137
294.754
290.528
292.496
317.765
315.896
575.924
483.253
567.809
286.616
610.336
361.461
264.367
533.656
425.012
313.129
577.393
584.237
593.032
587.767
599.104
362.288
365.417
509.232
518.227
281.696
261.581
272.263
265.753
330.359
481.555
315.693
279.367
262.015
276.549
265.489
281.021
263.449
285.549
278.395
275.695
242.538
243.293
242.946
291.437
597.82
598.117
597.804
289.934
309.163
285.608
282.769
277.763
567.538
282.499
319.201
268.072
304.408
287.375
277.815
608.944
183.46
182.762
177.472
177.891
649.964
641.493
560.143
257.136
435.279
270.014
248.479
283.032
291.44
275.539
295.296
289.798
293.029
318.959
474.648
314.205
578.235
504.659
572.272
584.891
268.77
287.714
587.417
594.947
584.48
597.681
373.082
380.692
497.226
515.622
473.815
292.261
271.194
286.223
272.432