/*--------------------------------*- C++ -*----------------------------------*\
| =========                 |                                                 |
| \\      /  F ield         | OpenFOAM: The Open Source CFD Toolbox           |
|  \\    /   O peration     | Version:  2212                                  |
|   \\  /    A nd           | Website:  www.openfoam.com                      |
|    \\/     M anipulation  |                                                 |
\*---------------------------------------------------------------------------*/
FoamFile
{
    version     2.0;
    format      ascii;
    arch        "LSB;label=32;scalar=64";
    class       volVectorField;
    location    "0.188";
    object      U_0;
}
// * * * * * * * * * * * * * * * * * * * * * * * * * * * * * * * * * * * * * //

dimensions      [0 1 -1 0 0 0 0];

internalField   nonuniform List<vector> 
24240
(
(9.14664 0.711742 1.47098e-06)
(9.14676 0.711752 1.04162e-06)
(9.14676 0.71175 2.31924e-06)
(9.14676 0.711748 2.74183e-06)
(9.14676 0.711745 3.46237e-06)
(9.14675 0.711742 3.86502e-06)
(9.14675 0.711738 4.21607e-06)
(9.14674 0.711733 4.37375e-06)
(9.14674 0.711729 4.41258e-06)
(9.14673 0.711725 4.30764e-06)
(9.14673 0.711721 4.09302e-06)
(9.14672 0.711717 3.77198e-06)
(9.14672 0.711714 3.37826e-06)
(9.14671 0.711711 2.90983e-06)
(9.14671 0.711708 2.4459e-06)
(9.14671 0.711706 1.89611e-06)
(9.1467 0.711704 1.5282e-06)
(9.1467 0.711702 7.82768e-07)
(9.1467 0.711702 7.41344e-07)
(9.14658 0.71169 -9.72748e-07)
(9.08468 0.714995 -4.36918e-07)
(9.08481 0.715007 -8.37187e-07)
(9.08481 0.715006 -1.18061e-06)
(9.08481 0.715006 -1.67543e-06)
(9.08481 0.715005 -1.95934e-06)
(9.08481 0.715005 -2.25595e-06)
(9.08481 0.715004 -2.42152e-06)
(9.08481 0.715003 -2.53916e-06)
(9.08481 0.715002 -2.56576e-06)
(9.0848 0.715001 -2.53442e-06)
(9.0848 0.715 -2.43825e-06)
(9.0848 0.714999 -2.29622e-06)
(9.0848 0.714998 -2.10634e-06)
(9.0848 0.714997 -1.89728e-06)
(9.0848 0.714997 -1.64827e-06)
(9.0848 0.714996 -1.43697e-06)
(9.0848 0.714996 -1.14115e-06)
(9.0848 0.714995 -9.54697e-07)
(9.0848 0.714995 -5.37696e-07)
(9.08467 0.714983 -8.15953e-08)
(9.11993 0.437636 2.93501e-08)
(9.12006 0.437644 7.56728e-07)
(9.12006 0.437643 1.48901e-06)
(9.12006 0.437642 1.91956e-06)
(9.12006 0.437642 2.38594e-06)
(9.12006 0.437641 2.65429e-06)
(9.12006 0.437639 2.85396e-06)
(9.12005 0.437638 2.9174e-06)
(9.12005 0.437637 2.8903e-06)
(9.12005 0.437636 2.76753e-06)
(9.12005 0.437635 2.57369e-06)
(9.12005 0.437633 2.32064e-06)
(9.12005 0.437632 2.03081e-06)
(9.12004 0.437631 1.71015e-06)
(9.12004 0.437631 1.40317e-06)
(9.12004 0.43763 1.06568e-06)
(9.12004 0.437629 8.25182e-07)
(9.12004 0.437629 5.00267e-07)
(9.12004 0.437629 3.71695e-07)
(9.11991 0.437621 2.68581e-07)
(9.00305 0.432318 -5.20667e-07)
(9.00318 0.432325 -1.36367e-06)
(9.00318 0.432325 -2.07569e-06)
(9.00318 0.432324 -2.81247e-06)
(9.00318 0.432323 -3.40084e-06)
(9.00318 0.432322 -3.89084e-06)
(9.00319 0.432321 -4.22619e-06)
(9.00319 0.43232 -4.4397e-06)
(9.00319 0.432319 -4.51373e-06)
(9.00319 0.432318 -4.46827e-06)
(9.0032 0.432316 -4.30695e-06)
(9.0032 0.432315 -4.04787e-06)
(9.0032 0.432314 -3.70242e-06)
(9.0032 0.432313 -3.29722e-06)
(9.0032 0.432313 -2.83847e-06)
(9.0032 0.432312 -2.37635e-06)
(9.0032 0.432312 -1.87449e-06)
(9.00321 0.432311 -1.39071e-06)
(9.00321 0.432311 -7.59284e-07)
(9.00308 0.432303 -2.0867e-07)
(9.02715 0.247668 -3.95711e-08)
(9.02728 0.247673 2.47183e-07)
(9.02728 0.247673 5.70603e-07)
(9.02728 0.247674 7.43583e-07)
(9.02728 0.247674 8.99693e-07)
(9.02728 0.247674 9.8036e-07)
(9.02728 0.247675 1.02437e-06)
(9.02728 0.247675 1.00759e-06)
(9.02728 0.247675 9.52675e-07)
(9.02728 0.247676 8.60717e-07)
(9.02728 0.247676 7.47291e-07)
(9.02728 0.247677 6.21379e-07)
(9.02728 0.247677 4.95852e-07)
(9.02728 0.247677 3.74043e-07)
(9.02728 0.247677 2.74775e-07)
(9.02728 0.247678 1.81528e-07)
(9.02728 0.247678 1.26065e-07)
(9.02728 0.247678 7.2238e-08)
(9.02728 0.247678 1.20131e-07)
(9.02715 0.247673 1.19625e-07)
(8.93685 0.240611 -4.14735e-07)
(8.93698 0.240615 -1.10086e-06)
(8.93698 0.240615 -1.70099e-06)
(8.93699 0.240614 -2.29274e-06)
(8.93699 0.240613 -2.77034e-06)
(8.93699 0.240612 -3.17571e-06)
(8.93699 0.240611 -3.46557e-06)
(8.937 0.24061 -3.65731e-06)
(8.937 0.240609 -3.73482e-06)
(8.937 0.240607 -3.71182e-06)
(8.93701 0.240606 -3.58911e-06)
(8.93701 0.240605 -3.37889e-06)
(8.93701 0.240604 -3.08992e-06)
(8.93702 0.240603 -2.74539e-06)
(8.93702 0.240603 -2.34374e-06)
(8.93702 0.240602 -1.93084e-06)
(8.93702 0.240601 -1.47385e-06)
(8.93702 0.240601 -1.04098e-06)
(8.93702 0.240601 -5.33317e-07)
(8.93689 0.240596 -1.27067e-07)
(8.9525 0.110881 -1.95469e-07)
(8.95263 0.110883 -3.09634e-07)
(8.95263 0.110883 -3.78988e-07)
(8.95263 0.110883 -5.14484e-07)
(8.95264 0.110884 -6.31792e-07)
(8.95264 0.110884 -7.52848e-07)
(8.95264 0.110884 -8.57648e-07)
(8.95264 0.110884 -9.54171e-07)
(8.95264 0.110884 -1.02971e-06)
(8.95264 0.110884 -1.08602e-06)
(8.95265 0.110884 -1.11501e-06)
(8.95265 0.110884 -1.11375e-06)
(8.95265 0.110884 -1.07679e-06)
(8.95265 0.110884 -1.00916e-06)
(8.95265 0.110884 -9.01648e-07)
(8.95265 0.110884 -7.73027e-07)
(8.95265 0.110884 -6.05978e-07)
(8.95265 0.110884 -4.31284e-07)
(8.95265 0.110884 -1.74657e-07)
(8.95252 0.110882 2.07492e-08)
(8.90617 0.0997635 -3.62082e-07)
(8.9063 0.0997654 -1.01113e-06)
(8.9063 0.0997652 -1.58145e-06)
(8.9063 0.099765 -2.1344e-06)
(8.90631 0.0997647 -2.59086e-06)
(8.90631 0.0997644 -2.97788e-06)
(8.90631 0.099764 -3.26251e-06)
(8.90631 0.0997636 -3.4548e-06)
(8.90632 0.0997632 -3.54326e-06)
(8.90632 0.0997628 -3.53634e-06)
(8.90632 0.0997624 -3.43425e-06)
(8.90633 0.0997621 -3.2453e-06)
(8.90633 0.0997617 -2.97292e-06)
(8.90633 0.0997613 -2.64157e-06)
(8.90634 0.099761 -2.25038e-06)
(8.90634 0.0997607 -1.84568e-06)
(8.90634 0.0997604 -1.40057e-06)
(8.90634 0.0997602 -9.83136e-07)
(8.90634 0.0997601 -4.97268e-07)
(8.90621 0.0997581 -1.19899e-07)
(8.917 -0.000730766 -2.34618e-07)
(8.91713 -0.000730783 -4.87753e-07)
(8.91713 -0.000730811 -7.05787e-07)
(8.91713 -0.000730819 -9.49227e-07)
(8.91713 -0.000730849 -1.15968e-06)
(8.91713 -0.000730877 -1.35092e-06)
(8.91713 -0.000730919 -1.50702e-06)
(8.91714 -0.000730967 -1.633e-06)
(8.91714 -0.000731027 -1.72237e-06)
(8.91714 -0.000731098 -1.77714e-06)
(8.91714 -0.00073118 -1.79278e-06)
(8.91714 -0.00073127 -1.77082e-06)
(8.91714 -0.000731371 -1.70415e-06)
(8.91715 -0.000731474 -1.60021e-06)
(8.91715 -0.000731581 -1.44345e-06)
(8.91715 -0.000731681 -1.25909e-06)
(8.91715 -0.000731778 -1.01297e-06)
(8.91715 -0.000731857 -7.56706e-07)
(8.91715 -0.000731922 -4.01567e-07)
(8.91702 -0.00073192 -5.71315e-08)
(8.91593 -0.0187604 -3.87455e-07)
(8.91606 -0.0187613 -1.039e-06)
(8.91606 -0.018762 -1.61712e-06)
(8.91606 -0.018763 -2.17387e-06)
(8.91606 -0.0187643 -2.64905e-06)
(8.91606 -0.0187659 -3.04964e-06)
(8.91606 -0.0187676 -3.35412e-06)
(8.91607 -0.0187694 -3.56533e-06)
(8.91607 -0.0187713 -3.67669e-06)
(8.91607 -0.0187731 -3.69131e-06)
(8.91607 -0.018775 -3.60828e-06)
(8.91607 -0.0187767 -3.43638e-06)
(8.91607 -0.0187782 -3.17572e-06)
(8.91608 -0.0187796 -2.84915e-06)
(8.91608 -0.0187808 -2.45389e-06)
(8.91608 -0.0187818 -2.03921e-06)
(8.91608 -0.0187827 -1.57187e-06)
(8.91608 -0.0187832 -1.12304e-06)
(8.91608 -0.0187836 -5.78618e-07)
(8.91595 -0.0187833 -1.15247e-07)
(8.92091 -0.112476 -4.81544e-07)
(8.92104 -0.112478 -1.38208e-06)
(8.92104 -0.112477 -2.1803e-06)
(8.92104 -0.112477 -2.93019e-06)
(8.92104 -0.112476 -3.56522e-06)
(8.92104 -0.112476 -4.09109e-06)
(8.92104 -0.112475 -4.48417e-06)
(8.92104 -0.112474 -4.74781e-06)
(8.92104 -0.112473 -4.87928e-06)
(8.92105 -0.112472 -4.88432e-06)
(8.92105 -0.112471 -4.76799e-06)
(8.92105 -0.11247 -4.54263e-06)
(8.92105 -0.11247 -4.21335e-06)
(8.92105 -0.112469 -3.80303e-06)
(8.92105 -0.112469 -3.31207e-06)
(8.92105 -0.112468 -2.78596e-06)
(8.92105 -0.112468 -2.1876e-06)
(8.92105 -0.112468 -1.59377e-06)
(8.92105 -0.112468 -8.71719e-07)
(8.92092 -0.112466 -2.2962e-07)
(8.96978 -0.130115 -2.95711e-07)
(8.96991 -0.130118 -6.2004e-07)
(8.96991 -0.130118 -9.04595e-07)
(8.96991 -0.130119 -1.21225e-06)
(8.96991 -0.130119 -1.48968e-06)
(8.96991 -0.13012 -1.73996e-06)
(8.96991 -0.130121 -1.94958e-06)
(8.96991 -0.130122 -2.11789e-06)
(8.96991 -0.130123 -2.24008e-06)
(8.96991 -0.130124 -2.31407e-06)
(8.96991 -0.130125 -2.33125e-06)
(8.96991 -0.130126 -2.29549e-06)
(8.96991 -0.130127 -2.19504e-06)
(8.96991 -0.130128 -2.04097e-06)
(8.96991 -0.130129 -1.81927e-06)
(8.96991 -0.130129 -1.56669e-06)
(8.96991 -0.130129 -1.24162e-06)
(8.96991 -0.13013 -9.09135e-07)
(8.96991 -0.13013 -4.71265e-07)
(8.96978 -0.130127 -4.79999e-08)
(8.96539 -0.244245 -6.19254e-07)
(8.96552 -0.24425 -1.87514e-06)
(8.96552 -0.244249 -2.97619e-06)
(8.96552 -0.244249 -4.00605e-06)
(8.96552 -0.244249 -4.87168e-06)
(8.96552 -0.244248 -5.59179e-06)
(8.96552 -0.244248 -6.12832e-06)
(8.96553 -0.244247 -6.48357e-06)
(8.96553 -0.244247 -6.65111e-06)
(8.96553 -0.244246 -6.63835e-06)
(8.96553 -0.244246 -6.45266e-06)
(8.96553 -0.244245 -6.11137e-06)
(8.96553 -0.244245 -5.62792e-06)
(8.96553 -0.244245 -5.03339e-06)
(8.96554 -0.244244 -4.33799e-06)
(8.96554 -0.244244 -3.6025e-06)
(8.96554 -0.244244 -2.78429e-06)
(8.96554 -0.244244 -1.99447e-06)
(8.96554 -0.244244 -1.06006e-06)
(8.96541 -0.244239 -2.92771e-07)
(9.06657 -0.256301 -2.72109e-07)
(9.0667 -0.256306 -4.02089e-07)
(9.0667 -0.256306 -4.96387e-07)
(9.0667 -0.256306 -6.67797e-07)
(9.0667 -0.256307 -8.40899e-07)
(9.0667 -0.256307 -1.01432e-06)
(9.06669 -0.256308 -1.17624e-06)
(9.06669 -0.256308 -1.32884e-06)
(9.06669 -0.256308 -1.46131e-06)
(9.06669 -0.256309 -1.57076e-06)
(9.06669 -0.256309 -1.64372e-06)
(9.06669 -0.25631 -1.68296e-06)
(9.06669 -0.25631 -1.66764e-06)
(9.06668 -0.25631 -1.60527e-06)
(9.06668 -0.25631 -1.47309e-06)
(9.06668 -0.256311 -1.30292e-06)
(9.06668 -0.256311 -1.05717e-06)
(9.06668 -0.256311 -7.80105e-07)
(9.06668 -0.256311 -3.80116e-07)
(9.06655 -0.256306 1.47673e-08)
(9.0505 -0.41926 -6.92332e-07)
(9.05063 -0.419269 -2.09768e-06)
(9.05063 -0.419268 -3.32052e-06)
(9.05063 -0.419268 -4.47895e-06)
(9.05063 -0.419267 -5.43122e-06)
(9.05063 -0.419267 -6.24242e-06)
(9.05063 -0.419266 -6.84047e-06)
(9.05063 -0.419265 -7.23546e-06)
(9.05063 -0.419265 -7.41277e-06)
(9.05063 -0.419264 -7.38327e-06)
(9.05063 -0.419263 -7.15442e-06)
(9.05064 -0.419263 -6.74819e-06)
(9.05064 -0.419262 -6.18382e-06)
(9.05064 -0.419262 -5.50012e-06)
(9.05064 -0.419261 -4.71282e-06)
(9.05064 -0.419261 -3.89448e-06)
(9.05064 -0.419261 -2.97818e-06)
(9.05064 -0.419261 -2.12179e-06)
(9.05064 -0.419261 -1.09529e-06)
(9.05051 -0.419253 -2.92101e-07)
(9.19999 -0.42442 -2.17418e-07)
(9.20012 -0.424428 -6.11872e-08)
(9.20012 -0.424428 1.19203e-07)
(9.20012 -0.424427 1.11771e-07)
(9.20012 -0.424427 7.54023e-08)
(9.20012 -0.424427 2.60981e-09)
(9.20011 -0.424427 -8.34993e-08)
(9.20011 -0.424426 -2.08158e-07)
(9.20011 -0.424426 -3.45055e-07)
(9.2001 -0.424426 -5.01392e-07)
(9.2001 -0.424426 -6.53334e-07)
(9.2001 -0.424425 -8.01612e-07)
(9.20009 -0.424425 -9.18037e-07)
(9.20009 -0.424425 -1.01077e-06)
(9.20009 -0.424425 -1.0369e-06)
(9.20009 -0.424424 -1.0299e-06)
(9.20008 -0.424424 -9.3877e-07)
(9.20008 -0.424424 -7.76357e-07)
(9.20008 -0.424424 -4.12959e-07)
(9.19995 -0.424416 1.72275e-08)
(9.16892 -0.674937 -6.51142e-07)
(9.16905 -0.674949 -1.93131e-06)
(9.16905 -0.674948 -3.01207e-06)
(9.16905 -0.674948 -4.13817e-06)
(9.16905 -0.674948 -5.09053e-06)
(9.16905 -0.674947 -5.88086e-06)
(9.16905 -0.674947 -6.45456e-06)
(9.16905 -0.674946 -6.83711e-06)
(9.16905 -0.674945 -7.00508e-06)
(9.16905 -0.674945 -6.97845e-06)
(9.16905 -0.674944 -6.76102e-06)
(9.16905 -0.674944 -6.38176e-06)
(9.16905 -0.674943 -5.85654e-06)
(9.16905 -0.674943 -5.23654e-06)
(9.16905 -0.674943 -4.53013e-06)
(9.16905 -0.674942 -3.81623e-06)
(9.16905 -0.674942 -3.03189e-06)
(9.16905 -0.674942 -2.26059e-06)
(9.16905 -0.674943 -1.2187e-06)
(9.16892 -0.674931 -3.51304e-07)
(9.33843 -0.672939 -2.11104e-07)
(9.33856 -0.672951 2.80872e-07)
(9.33856 -0.67295 6.60199e-07)
(9.33855 -0.672949 7.07195e-07)
(9.33855 -0.672948 8.83884e-07)
(9.33855 -0.672946 8.84891e-07)
(9.33854 -0.672945 8.95131e-07)
(9.33854 -0.672943 8.01477e-07)
(9.33853 -0.672941 6.70439e-07)
(9.33853 -0.672939 4.73124e-07)
(9.33852 -0.672938 2.43856e-07)
(9.33851 -0.672936 -2.51085e-08)
(9.33851 -0.672934 -2.85065e-07)
(9.33851 -0.672933 -5.56507e-07)
(9.3385 -0.672932 -7.44414e-07)
(9.3385 -0.672931 -9.42474e-07)
(9.3385 -0.672931 -9.26254e-07)
(9.33849 -0.67293 -9.74322e-07)
(9.33849 -0.67293 -6.63888e-07)
(9.33836 -0.672918 -1.18411e-08)
(9.28558 -1.05936 -2.9859e-07)
(9.28571 -1.05938 -8.07902e-07)
(9.28571 -1.05938 -1.54776e-06)
(9.28571 -1.05938 -2.40542e-06)
(9.28571 -1.05938 -2.92573e-06)
(9.2857 -1.05938 -3.44541e-06)
(9.2857 -1.05938 -3.77675e-06)
(9.2857 -1.05937 -4.03253e-06)
(9.28569 -1.05937 -4.15288e-06)
(9.28569 -1.05937 -4.18077e-06)
(9.28568 -1.05937 -4.10205e-06)
(9.28568 -1.05937 -3.95216e-06)
(9.28568 -1.05937 -3.71268e-06)
(9.28567 -1.05937 -3.44739e-06)
(9.28567 -1.05937 -3.09885e-06)
(9.28567 -1.05937 -2.8046e-06)
(9.28567 -1.05937 -2.32734e-06)
(9.28566 -1.05937 -2.04541e-06)
(9.28566 -1.05937 -1.39932e-06)
(9.28553 -1.05935 -4.11562e-07)
(9.36062 -1.03858 1.40274e-06)
(9.36073 -1.0386 1.05699e-06)
(9.36073 -1.03859 1.66811e-06)
(9.36072 -1.03859 1.38914e-06)
(9.36072 -1.03859 1.75287e-06)
(9.36071 -1.03859 1.82479e-06)
(9.3607 -1.03858 1.96591e-06)
(9.36069 -1.03858 1.95176e-06)
(9.36069 -1.03857 1.87544e-06)
(9.36068 -1.03857 1.67987e-06)
(9.36067 -1.03857 1.39964e-06)
(9.36066 -1.03856 1.02218e-06)
(9.36065 -1.03856 6.09853e-07)
(9.36065 -1.03856 1.34221e-07)
(9.36064 -1.03856 -2.4473e-07)
(9.36064 -1.03856 -7.08279e-07)
(9.36063 -1.03855 -8.21629e-07)
(9.36063 -1.03855 -1.53046e-06)
(9.36064 -1.03856 -1.25317e-06)
(9.36051 -1.03854 -1.57336e-06)
(8.73895 0.771029 1.24438e-06)
(8.73907 0.77104 1.43047e-06)
(8.73907 0.771038 2.48565e-06)
(8.73907 0.771036 3.06198e-06)
(8.73907 0.771034 3.87503e-06)
(8.73907 0.771031 4.38187e-06)
(8.73907 0.771027 4.84414e-06)
(8.73907 0.771024 5.09303e-06)
(8.73907 0.77102 5.22444e-06)
(8.73906 0.771016 5.19191e-06)
(8.73906 0.771013 5.03644e-06)
(8.73906 0.771009 4.75151e-06)
(8.73906 0.771006 4.37353e-06)
(8.73906 0.771003 3.88064e-06)
(8.73906 0.771 3.37775e-06)
(8.73906 0.770998 2.73781e-06)
(8.73906 0.770996 2.23905e-06)
(8.73906 0.770995 1.3819e-06)
(8.73906 0.770994 8.22823e-07)
(8.73894 0.770983 -5.93371e-07)
(8.78517 0.7782 -2.68544e-07)
(8.78529 0.778212 -4.08734e-07)
(8.78529 0.778212 -5.28401e-07)
(8.78529 0.778211 -7.76398e-07)
(8.78529 0.778211 -8.47203e-07)
(8.78529 0.77821 -9.90224e-07)
(8.78529 0.77821 -1.03388e-06)
(8.78529 0.778209 -1.09135e-06)
(8.78529 0.778209 -1.09682e-06)
(8.78529 0.778208 -1.09254e-06)
(8.78529 0.778207 -1.05264e-06)
(8.78528 0.778207 -1.00296e-06)
(8.78528 0.778206 -9.18098e-07)
(8.78528 0.778205 -8.3826e-07)
(8.78528 0.778205 -7.13406e-07)
(8.78528 0.778204 -6.54579e-07)
(8.78528 0.778204 -4.8973e-07)
(8.78528 0.778204 -4.34749e-07)
(8.78528 0.778204 -2.33071e-07)
(8.78515 0.778192 -1.27939e-08)
(8.8208 0.537952 2.03792e-07)
(8.82093 0.537961 1.06653e-06)
(8.82093 0.53796 1.88925e-06)
(8.82093 0.537959 2.4975e-06)
(8.82093 0.537957 3.15652e-06)
(8.82093 0.537956 3.58103e-06)
(8.82093 0.537954 3.93147e-06)
(8.82093 0.537952 4.11326e-06)
(8.82093 0.53795 4.18165e-06)
(8.82093 0.537948 4.12026e-06)
(8.82093 0.537946 3.95521e-06)
(8.82093 0.537944 3.69464e-06)
(8.82093 0.537942 3.36452e-06)
(8.82093 0.537941 2.96905e-06)
(8.82093 0.537939 2.56676e-06)
(8.82093 0.537938 2.08912e-06)
(8.82093 0.537937 1.71198e-06)
(8.82093 0.537936 1.18454e-06)
(8.82093 0.537936 7.4776e-07)
(8.8208 0.537927 3.29454e-07)
(8.79624 0.534223 -5.1575e-07)
(8.79637 0.534231 -1.32646e-06)
(8.79637 0.534231 -2.02194e-06)
(8.79637 0.53423 -2.73882e-06)
(8.79637 0.534229 -3.32249e-06)
(8.79637 0.534228 -3.81222e-06)
(8.79637 0.534226 -4.14509e-06)
(8.79637 0.534225 -4.36754e-06)
(8.79636 0.534223 -4.44985e-06)
(8.79636 0.534221 -4.4186e-06)
(8.79636 0.53422 -4.27065e-06)
(8.79636 0.534218 -4.0297e-06)
(8.79636 0.534217 -3.69979e-06)
(8.79636 0.534216 -3.31775e-06)
(8.79636 0.534214 -2.87e-06)
(8.79636 0.534213 -2.42577e-06)
(8.79636 0.534213 -1.92206e-06)
(8.79636 0.534212 -1.41528e-06)
(8.79636 0.534212 -7.80504e-07)
(8.79623 0.534203 -2.19816e-07)
(8.8191 0.326404 3.61895e-08)
(8.81922 0.326409 3.81915e-07)
(8.81922 0.326409 7.73053e-07)
(8.81922 0.326409 1.03027e-06)
(8.81922 0.326409 1.2578e-06)
(8.81922 0.326408 1.40619e-06)
(8.81922 0.326408 1.51357e-06)
(8.81922 0.326408 1.54346e-06)
(8.81922 0.326407 1.52617e-06)
(8.81923 0.326407 1.45589e-06)
(8.81923 0.326407 1.3528e-06)
(8.81923 0.326406 1.22107e-06)
(8.81923 0.326406 1.07885e-06)
(8.81923 0.326405 9.24011e-07)
(8.81923 0.326405 7.85654e-07)
(8.81923 0.326405 6.33421e-07)
(8.81923 0.326405 5.11711e-07)
(8.81923 0.326405 3.74362e-07)
(8.81923 0.326404 3.12246e-07)
(8.8191 0.326399 1.56174e-07)
(8.78311 0.318251 -5.15391e-07)
(8.78324 0.318256 -1.42259e-06)
(8.78324 0.318255 -2.27082e-06)
(8.78324 0.318254 -3.05625e-06)
(8.78324 0.318253 -3.68802e-06)
(8.78324 0.318252 -4.2362e-06)
(8.78324 0.31825 -4.62752e-06)
(8.78324 0.318248 -4.8957e-06)
(8.78324 0.318246 -5.01188e-06)
(8.78324 0.318244 -4.99654e-06)
(8.78324 0.318243 -4.84554e-06)
(8.78324 0.318241 -4.58513e-06)
(8.78324 0.318239 -4.21639e-06)
(8.78324 0.318238 -3.77579e-06)
(8.78324 0.318236 -3.25072e-06)
(8.78324 0.318235 -2.71058e-06)
(8.78324 0.318235 -2.08162e-06)
(8.78324 0.318234 -1.48001e-06)
(8.78324 0.318233 -8.21917e-07)
(8.78312 0.318228 -2.32124e-07)
(8.79508 0.14802 -2.58715e-07)
(8.7952 0.148023 -4.93692e-07)
(8.7952 0.148022 -6.92178e-07)
(8.79521 0.148022 -9.20226e-07)
(8.79521 0.148022 -1.1196e-06)
(8.79521 0.148022 -1.30572e-06)
(8.79521 0.148022 -1.45381e-06)
(8.79521 0.148022 -1.57695e-06)
(8.79521 0.148021 -1.6579e-06)
(8.79521 0.148021 -1.70194e-06)
(8.79521 0.148021 -1.69761e-06)
(8.79521 0.148021 -1.65107e-06)
(8.79521 0.14802 -1.55268e-06)
(8.79521 0.14802 -1.418e-06)
(8.79521 0.14802 -1.23084e-06)
(8.79521 0.14802 -1.0269e-06)
(8.79521 0.14802 -7.7448e-07)
(8.79522 0.14802 -5.23475e-07)
(8.79522 0.14802 -2.06196e-07)
(8.79509 0.148017 2.37659e-08)
(8.77683 0.133131 -5.10038e-07)
(8.77696 0.133133 -1.48424e-06)
(8.77696 0.133133 -2.38758e-06)
(8.77696 0.133133 -3.21609e-06)
(8.77696 0.133132 -3.90581e-06)
(8.77696 0.133132 -4.49843e-06)
(8.77696 0.133131 -4.93522e-06)
(8.77696 0.133131 -5.23618e-06)
(8.77697 0.13313 -5.38128e-06)
(8.77697 0.13313 -5.38247e-06)
(8.77697 0.133129 -5.23671e-06)
(8.77697 0.133129 -4.9647e-06)
(8.77697 0.133128 -4.56772e-06)
(8.77697 0.133128 -4.08682e-06)
(8.77697 0.133127 -3.51034e-06)
(8.77697 0.133127 -2.91283e-06)
(8.77697 0.133126 -2.23325e-06)
(8.77697 0.133126 -1.58161e-06)
(8.77697 0.133126 -8.57098e-07)
(8.77685 0.133124 -2.366e-07)
(8.78277 -0.0101953 -3.29222e-07)
(8.7829 -0.0101955 -7.75446e-07)
(8.7829 -0.0101954 -1.19024e-06)
(8.7829 -0.0101953 -1.58156e-06)
(8.7829 -0.0101952 -1.91274e-06)
(8.7829 -0.010195 -2.20109e-06)
(8.7829 -0.0101949 -2.42023e-06)
(8.7829 -0.0101947 -2.5826e-06)
(8.7829 -0.0101946 -2.67824e-06)
(8.7829 -0.0101944 -2.7142e-06)
(8.78291 -0.0101943 -2.68525e-06)
(8.78291 -0.0101942 -2.60279e-06)
(8.78291 -0.0101941 -2.4568e-06)
(8.78291 -0.0101941 -2.26642e-06)
(8.78291 -0.010194 -2.00467e-06)
(8.78291 -0.010194 -1.7158e-06)
(8.78291 -0.010194 -1.34177e-06)
(8.78291 -0.010194 -9.74832e-07)
(8.78291 -0.010194 -5.14654e-07)
(8.78279 -0.0101937 -7.79301e-08)
(8.78945 -0.0311733 -5.15764e-07)
(8.78958 -0.0311744 -1.41424e-06)
(8.78958 -0.031175 -2.24841e-06)
(8.78958 -0.031176 -3.02292e-06)
(8.78958 -0.0311773 -3.68826e-06)
(8.78958 -0.0311787 -4.25708e-06)
(8.78958 -0.0311804 -4.69197e-06)
(8.78958 -0.0311822 -5.00036e-06)
(8.78958 -0.031184 -5.16704e-06)
(8.78958 -0.0311859 -5.19636e-06)
(8.78958 -0.0311877 -5.08265e-06)
(8.78958 -0.0311895 -4.84592e-06)
(8.78958 -0.0311911 -4.48157e-06)
(8.78958 -0.0311926 -4.02799e-06)
(8.78958 -0.0311939 -3.47539e-06)
(8.78958 -0.0311949 -2.89615e-06)
(8.78958 -0.0311958 -2.23109e-06)
(8.78958 -0.0311965 -1.58753e-06)
(8.78958 -0.031197 -8.44471e-07)
(8.78946 -0.0311964 -1.8537e-07)
(8.79127 -0.170745 -5.52372e-07)
(8.7914 -0.170747 -1.62459e-06)
(8.7914 -0.170747 -2.6042e-06)
(8.7914 -0.170746 -3.50055e-06)
(8.7914 -0.170745 -4.25794e-06)
(8.7914 -0.170745 -4.89609e-06)
(8.7914 -0.170743 -5.37323e-06)
(8.7914 -0.170742 -5.70135e-06)
(8.7914 -0.170741 -5.86981e-06)
(8.7914 -0.17074 -5.88808e-06)
(8.7914 -0.170739 -5.75943e-06)
(8.7914 -0.170738 -5.5024e-06)
(8.7914 -0.170737 -5.11946e-06)
(8.7914 -0.170736 -4.64326e-06)
(8.7914 -0.170735 -4.06022e-06)
(8.7914 -0.170734 -3.43556e-06)
(8.7914 -0.170734 -2.69408e-06)
(8.7914 -0.170733 -1.96508e-06)
(8.7914 -0.170733 -1.10211e-06)
(8.79127 -0.17073 -3.04002e-07)
(8.8268 -0.189007 -3.92938e-07)
(8.82692 -0.189011 -8.93548e-07)
(8.82692 -0.189011 -1.35762e-06)
(8.82693 -0.189012 -1.80348e-06)
(8.82693 -0.189013 -2.19782e-06)
(8.82693 -0.189014 -2.54173e-06)
(8.82693 -0.189015 -2.81389e-06)
(8.82693 -0.189016 -3.01867e-06)
(8.82693 -0.189017 -3.14478e-06)
(8.82693 -0.189018 -3.19522e-06)
(8.82693 -0.18902 -3.16e-06)
(8.82693 -0.189021 -3.05131e-06)
(8.82693 -0.189022 -2.85568e-06)
(8.82693 -0.189023 -2.60164e-06)
(8.82693 -0.189023 -2.26184e-06)
(8.82693 -0.189024 -1.89929e-06)
(8.82693 -0.189025 -1.45285e-06)
(8.82693 -0.189025 -1.01628e-06)
(8.82693 -0.189025 -5.01018e-07)
(8.8268 -0.189022 -3.24774e-08)
(8.82084 -0.352094 -7.0728e-07)
(8.82097 -0.352099 -2.17934e-06)
(8.82097 -0.352099 -3.52355e-06)
(8.82097 -0.352099 -4.74727e-06)
(8.82097 -0.352098 -5.76415e-06)
(8.82097 -0.352097 -6.62787e-06)
(8.82097 -0.352096 -7.27418e-06)
(8.82097 -0.352095 -7.71199e-06)
(8.82097 -0.352094 -7.92661e-06)
(8.82097 -0.352093 -7.92997e-06)
(8.82097 -0.352092 -7.7288e-06)
(8.82097 -0.352091 -7.34747e-06)
(8.82097 -0.35209 -6.79921e-06)
(8.82097 -0.352089 -6.12596e-06)
(8.82097 -0.352088 -5.32296e-06)
(8.82097 -0.352088 -4.46958e-06)
(8.82097 -0.352087 -3.47273e-06)
(8.82097 -0.352087 -2.50952e-06)
(8.82097 -0.352087 -1.40687e-06)
(8.82084 -0.35208 -4.17695e-07)
(8.88256 -0.36284 -2.79641e-07)
(8.88269 -0.362846 -4.37628e-07)
(8.88269 -0.362846 -5.56042e-07)
(8.88269 -0.362846 -7.23778e-07)
(8.88269 -0.362847 -8.9134e-07)
(8.88269 -0.362847 -1.04518e-06)
(8.88269 -0.362848 -1.17673e-06)
(8.88269 -0.362848 -1.29475e-06)
(8.88269 -0.362848 -1.38244e-06)
(8.88269 -0.362849 -1.44714e-06)
(8.88269 -0.362849 -1.47183e-06)
(8.88269 -0.36285 -1.46618e-06)
(8.88268 -0.36285 -1.40479e-06)
(8.88268 -0.36285 -1.31223e-06)
(8.88268 -0.362851 -1.15141e-06)
(8.88268 -0.362851 -9.75192e-07)
(8.88268 -0.362851 -7.31215e-07)
(8.88268 -0.362851 -4.7794e-07)
(8.88268 -0.362851 -1.47222e-07)
(8.88256 -0.362845 1.08682e-07)
(8.8651 -0.571506 -7.82792e-07)
(8.86523 -0.571515 -2.40836e-06)
(8.86523 -0.571515 -3.91571e-06)
(8.86523 -0.571514 -5.27537e-06)
(8.86523 -0.571513 -6.35425e-06)
(8.86523 -0.571511 -7.30978e-06)
(8.86523 -0.57151 -8.01368e-06)
(8.86523 -0.571508 -8.48907e-06)
(8.86523 -0.571507 -8.70949e-06)
(8.86523 -0.571505 -8.69392e-06)
(8.86523 -0.571504 -8.44887e-06)
(8.86523 -0.571502 -8.00542e-06)
(8.86523 -0.571501 -7.38232e-06)
(8.86522 -0.571499 -6.62884e-06)
(8.86522 -0.571498 -5.74543e-06)
(8.86522 -0.571497 -4.81885e-06)
(8.86522 -0.571497 -3.70304e-06)
(8.86522 -0.571496 -2.66148e-06)
(8.86522 -0.571496 -1.47354e-06)
(8.8651 -0.571486 -4.27634e-07)
(8.93699 -0.572548 -6.6064e-08)
(8.93712 -0.572558 3.10945e-07)
(8.93712 -0.572558 7.4315e-07)
(8.93712 -0.572558 9.66442e-07)
(8.93712 -0.572557 1.11194e-06)
(8.93712 -0.572557 1.23512e-06)
(8.93711 -0.572556 1.3268e-06)
(8.93711 -0.572556 1.34402e-06)
(8.93711 -0.572555 1.32066e-06)
(8.93711 -0.572555 1.23452e-06)
(8.93711 -0.572554 1.1204e-06)
(8.93711 -0.572554 9.63083e-07)
(8.93711 -0.572553 8.08101e-07)
(8.93711 -0.572553 6.27485e-07)
(8.93711 -0.572552 4.86785e-07)
(8.93711 -0.572552 3.27203e-07)
(8.93711 -0.572552 1.86856e-07)
(8.93711 -0.572551 1.17031e-07)
(8.93711 -0.572551 1.84736e-07)
(8.93698 -0.572542 1.95143e-07)
(8.9024 -0.842006 -7.13036e-07)
(8.90252 -0.842019 -2.14992e-06)
(8.90252 -0.842018 -3.36518e-06)
(8.90252 -0.842017 -4.63102e-06)
(8.90252 -0.842016 -5.73633e-06)
(8.90252 -0.842014 -6.62763e-06)
(8.90252 -0.842012 -7.26765e-06)
(8.90252 -0.84201 -7.69453e-06)
(8.90252 -0.842008 -7.87254e-06)
(8.90251 -0.842006 -7.83581e-06)
(8.90251 -0.842004 -7.5837e-06)
(8.90251 -0.842002 -7.16088e-06)
(8.90251 -0.842 -6.57748e-06)
(8.90251 -0.841998 -5.90372e-06)
(8.90251 -0.841997 -5.13573e-06)
(8.90251 -0.841996 -4.36619e-06)
(8.90251 -0.841995 -3.53162e-06)
(8.90251 -0.841995 -2.64653e-06)
(8.90251 -0.841995 -1.46567e-06)
(8.90238 -0.841981 -4.60862e-07)
(8.94228 -0.82994 2.67919e-07)
(8.94241 -0.829952 1.42947e-06)
(8.94241 -0.829951 2.29804e-06)
(8.94241 -0.829949 2.95221e-06)
(8.94241 -0.829947 3.73932e-06)
(8.94241 -0.829945 4.22618e-06)
(8.9424 -0.829943 4.6588e-06)
(8.9424 -0.82994 4.86053e-06)
(8.9424 -0.829937 4.92855e-06)
(8.9424 -0.829934 4.79972e-06)
(8.9424 -0.829931 4.54116e-06)
(8.94239 -0.829928 4.12654e-06)
(8.94239 -0.829926 3.64302e-06)
(8.94239 -0.829924 3.05104e-06)
(8.94239 -0.829922 2.50994e-06)
(8.94239 -0.82992 1.86728e-06)
(8.94238 -0.829919 1.44472e-06)
(8.94238 -0.829918 8.30181e-07)
(8.94238 -0.829917 2.93302e-07)
(8.94225 -0.829904 1.98782e-07)
(8.88171 -1.14875 -1.86213e-07)
(8.88184 -1.14877 -5.85329e-07)
(8.88184 -1.14877 -1.2171e-06)
(8.88184 -1.14877 -1.90387e-06)
(8.88184 -1.14877 -2.27096e-06)
(8.88183 -1.14877 -2.66456e-06)
(8.88183 -1.14877 -2.866e-06)
(8.88183 -1.14876 -3.02941e-06)
(8.88183 -1.14876 -3.06924e-06)
(8.88182 -1.14876 -3.05661e-06)
(8.88182 -1.14876 -2.95724e-06)
(8.88182 -1.14876 -2.82556e-06)
(8.88182 -1.14876 -2.62655e-06)
(8.88181 -1.14876 -2.4464e-06)
(8.88181 -1.14876 -2.18968e-06)
(8.88181 -1.14876 -2.03301e-06)
(8.88181 -1.14876 -1.67913e-06)
(8.88181 -1.14876 -1.52643e-06)
(8.88181 -1.14876 -1.1377e-06)
(8.88168 -1.14875 -3.9264e-07)
(8.81827 -1.11014 2.30102e-06)
(8.81839 -1.11015 2.45038e-06)
(8.81838 -1.11015 2.96471e-06)
(8.81838 -1.11014 3.20615e-06)
(8.81838 -1.11014 4.0145e-06)
(8.81838 -1.11014 4.50493e-06)
(8.81837 -1.11013 5.01807e-06)
(8.81837 -1.11013 5.28275e-06)
(8.81837 -1.11012 5.4167e-06)
(8.81836 -1.11012 5.3305e-06)
(8.81836 -1.11011 5.09887e-06)
(8.81836 -1.11011 4.67965e-06)
(8.81835 -1.1101 4.17565e-06)
(8.81835 -1.1101 3.52944e-06)
(8.81835 -1.11009 2.9426e-06)
(8.81835 -1.11009 2.17621e-06)
(8.81834 -1.11009 1.66503e-06)
(8.81834 -1.11009 4.9462e-07)
(8.81835 -1.11009 -4.41769e-07)
(8.81823 -1.11007 -1.66289e-06)
(8.85138 0.739747 1.13673e-06)
(8.8515 0.739758 8.38867e-07)
(8.8515 0.739756 2.66035e-06)
(8.8515 0.739754 3.43569e-06)
(8.8515 0.739751 4.47814e-06)
(8.8515 0.739748 5.10925e-06)
(8.8515 0.739744 5.69215e-06)
(8.8515 0.73974 6.02591e-06)
(8.8515 0.739736 6.22267e-06)
(8.8515 0.739731 6.22648e-06)
(8.8515 0.739727 6.08741e-06)
(8.8515 0.739723 5.7936e-06)
(8.8515 0.73972 5.39991e-06)
(8.85149 0.739716 4.8702e-06)
(8.85149 0.739713 4.33165e-06)
(8.85149 0.73971 3.61499e-06)
(8.85149 0.739708 3.11499e-06)
(8.85149 0.739706 2.15457e-06)
(8.85149 0.739705 2.05609e-06)
(8.85137 0.739693 -2.2796e-07)
(8.75015 0.741227 -6.56419e-07)
(8.75027 0.741238 -7.2811e-07)
(8.75027 0.741237 -6.6239e-07)
(8.75027 0.741237 -8.48942e-07)
(8.75027 0.741236 -8.7523e-07)
(8.75027 0.741235 -1.00283e-06)
(8.75027 0.741233 -1.02894e-06)
(8.75027 0.741232 -1.07306e-06)
(8.75028 0.741231 -1.05675e-06)
(8.75028 0.741229 -1.03073e-06)
(8.75027 0.741228 -9.65764e-07)
(8.75027 0.741226 -8.96717e-07)
(8.75027 0.741225 -7.9465e-07)
(8.75027 0.741224 -7.10945e-07)
(8.75027 0.741223 -5.76581e-07)
(8.75027 0.741222 -5.23689e-07)
(8.75027 0.741221 -3.34241e-07)
(8.75027 0.74122 -2.5232e-07)
(8.75027 0.74122 1.3575e-07)
(8.75015 0.741209 4.15975e-07)
(8.78163 0.504922 -1.03741e-07)
(8.78176 0.504929 7.80882e-07)
(8.78176 0.504929 1.57165e-06)
(8.78176 0.504928 2.12863e-06)
(8.78176 0.504927 2.79391e-06)
(8.78176 0.504926 3.19681e-06)
(8.78176 0.504925 3.55231e-06)
(8.78176 0.504924 3.75142e-06)
(8.78176 0.504922 3.85448e-06)
(8.78175 0.504921 3.83973e-06)
(8.78175 0.50492 3.73555e-06)
(8.78175 0.504918 3.54202e-06)
(8.78175 0.504917 3.28431e-06)
(8.78175 0.504916 2.95429e-06)
(8.78175 0.504915 2.62352e-06)
(8.78175 0.504914 2.19133e-06)
(8.78175 0.504913 1.90148e-06)
(8.78175 0.504913 1.38875e-06)
(8.78175 0.504912 9.97566e-07)
(8.78162 0.504905 6.45418e-07)
(8.72581 0.502767 -5.09117e-07)
(8.72594 0.502774 -1.03937e-06)
(8.72594 0.502774 -1.4736e-06)
(8.72594 0.502773 -1.98713e-06)
(8.72594 0.502772 -2.41566e-06)
(8.72594 0.502771 -2.78488e-06)
(8.72594 0.50277 -3.03648e-06)
(8.72594 0.502768 -3.21873e-06)
(8.72594 0.502767 -3.29749e-06)
(8.72594 0.502765 -3.29952e-06)
(8.72594 0.502764 -3.21405e-06)
(8.72594 0.502762 -3.06561e-06)
(8.72594 0.502761 -2.84577e-06)
(8.72594 0.50276 -2.59406e-06)
(8.72594 0.502759 -2.27694e-06)
(8.72594 0.502758 -1.9645e-06)
(8.72594 0.502757 -1.58229e-06)
(8.72594 0.502756 -1.1721e-06)
(8.72594 0.502756 -6.02276e-07)
(8.72582 0.502748 -7.83304e-08)
(8.74698 0.306147 -9.36475e-08)
(8.74711 0.306151 2.75687e-07)
(8.74711 0.306151 6.50121e-07)
(8.74711 0.306151 8.89455e-07)
(8.74711 0.30615 1.10136e-06)
(8.74711 0.306149 1.23876e-06)
(8.74711 0.306148 1.3432e-06)
(8.74711 0.306147 1.37767e-06)
(8.74711 0.306146 1.37331e-06)
(8.74711 0.306145 1.32068e-06)
(8.74711 0.306144 1.24036e-06)
(8.74711 0.306143 1.13297e-06)
(8.74711 0.306142 1.01734e-06)
(8.74711 0.306141 8.84368e-07)
(8.74711 0.306141 7.71143e-07)
(8.74711 0.30614 6.35478e-07)
(8.74711 0.306139 5.41068e-07)
(8.74711 0.306139 4.17495e-07)
(8.74711 0.306139 3.84685e-07)
(8.74698 0.306134 2.88006e-07)
(8.71091 0.298821 -5.52314e-07)
(8.71103 0.298825 -1.42562e-06)
(8.71103 0.298824 -2.24651e-06)
(8.71103 0.298823 -3.02187e-06)
(8.71103 0.298822 -3.63979e-06)
(8.71103 0.29882 -4.19631e-06)
(8.71103 0.298818 -4.60053e-06)
(8.71103 0.298816 -4.88692e-06)
(8.71103 0.298814 -5.02657e-06)