/*--------------------------------*- C++ -*----------------------------------*\
| =========                 |                                                 |
| \\      /  F ield         | OpenFOAM: The Open Source CFD Toolbox           |
|  \\    /   O peration     | Version:  2212                                  |
|   \\  /    A nd           | Website:  www.openfoam.com                      |
|    \\/     M anipulation  |                                                 |
\*---------------------------------------------------------------------------*/
FoamFile
{
    version     2.0;
    format      ascii;
    arch        "LSB;label=32;scalar=64";
    class       surfaceScalarField;
    location    "0.00915";
    object      phi;
}
// * * * * * * * * * * * * * * * * * * * * * * * * * * * * * * * * * * * * * //

dimensions      [1 0 -1 0 0 0 0];

oriented        oriented;

internalField   nonuniform List<scalar> 
5190
(
0.000571024
0.000319564
-0.0012589
-0.000633882
4.27061e-05
0.000242502
-5.35866e-05
-0.000186906
0.000139806
-0.000146635
-7.98184e-05
0.000200125
5.45069e-06
-5.37694e-06
-3.3988e-06
2.40968e-06
4.88314e-05
0.000154296
2.28032e-05
-0.000212964
8.11638e-06
0.000259051
6.44199e-05
-0.000239215
1.19999e-06
1.72183e-07
-1.35575e-06
-1.38066e-07
4.60668e-06
-4.74929e-06
4.20016e-06
-4.77877e-06
-5.29622e-06
4.76556e-06
5.83838e-06
-6.30427e-06
-5.96808e-06
6.89003e-06
-7.52686e-06
3.79292e-06
-3.41098e-06
4.14669e-06
1.24193e-05
-2.03108e-05
1.80932e-05
-1.36473e-05
-1.7476e-05
1.13314e-05
1.54246e-05
5.36938e-05
-5.64152e-05
5.36699e-05
-6.19587e-05
1.56132e-05
2.23389e-05
-1.96373e-05
-2.21673e-05
2.40809e-05
3.06743e-05
-2.61025e-05
-3.4503e-05
3.03456e-05
4.06772e-05
-3.76482e-05
-4.02555e-05
-4.69986e-06
4.75784e-06
-4.66921e-06
3.82026e-06
-4.76577e-06
5.45988e-06
-6.42252e-06
6.38285e-06
-8.88777e-06
-3.55165e-06
-1.02987e-05
6.93433e-06
-8.86862e-06
1.04602e-05
1.20641e-05
-1.31481e-05
1.46258e-05
-1.67445e-05
1.10997e-05
1.18829e-05
-1.36456e-05
9.56921e-06
-1.10003e-05
1.43026e-05
-2.26614e-05
-1.98936e-05
3.09334e-06
-3.92777e-06
4.82183e-06
-3.67746e-06
3.10756e-06
3.4845e-06
4.46551e-06
-5.88022e-06
4.62415e-06
-5.28169e-06
6.05105e-06
5.25435e-06
6.61069e-06
-8.14671e-06
7.0714e-06
6.56539e-06
-6.3306e-06
9.17297e-06
-1.01999e-05
1.0603e-05
8.72813e-06
1.30057e-05
-1.65798e-05
1.21289e-05
-1.54895e-05
1.67548e-05
-1.71847e-05
1.70545e-05
-2.02221e-05
2.13756e-05
-1.89001e-05
-2.38822e-05
-1.48348e-05
1.35551e-05
1.88444e-05
-2.51282e-05
2.43186e-05
-1.86154e-05
-1.23859e-05
9.96844e-06
1.18799e-05
1.49231e-05
-7.78397e-06
6.7585e-06
9.6299e-06
-1.05231e-05
1.04999e-05
-1.04354e-05
-1.21367e-06
-6.57248e-05
9.57179e-05
0.000123496
8.06015e-06
-8.95183e-06
4.27082e-06
5.07198e-06
-5.37159e-06
2.61817e-06
2.5642e-06
-3.31085e-06
-2.57272e-06
-3.75015e-06
3.18578e-06
3.90319e-06
-3.97519e-06
4.44379e-06
-2.73058e-05
-2.14806e-05
3.81516e-05
2.83924e-05
-4.31024e-05
4.66703e-06
-4.80096e-06
-5.3776e-06
4.06278e-06
4.04967e-06
-4.10317e-06
-1.01712e-05
9.21632e-06
1.36229e-05
-1.11226e-05
1.59149e-05
2.89502e-06
2.5503e-06
-3.0989e-06
3.39846e-06
-3.45931e-06
2.62282e-06
2.7093e-06
-3.21843e-06
3.78198e-06
3.29676e-06
2.18542e-06
5.99954e-06
-6.87334e-06
-6.81149e-06
-5.00909e-06
9.25409e-06
-1.08872e-05
-9.50782e-06
-8.29427e-06
1.26443e-05
-1.43973e-05
-1.51014e-05
-1.1927e-05
1.57706e-05
-1.50838e-05
-2.48421e-05
-1.91196e-05
9.26698e-07
6.45934e-07
-9.29778e-07
-8.02301e-07
-3.21062e-05
-1.03095e-05
-2.1705e-05
1.90461e-05
-2.59401e-05
-3.01979e-05
-1.57964e-05
-1.71481e-05
1.3514e-05
-2.13087e-05
2.04418e-05
-1.55626e-05
6.68456e-07
-8.82373e-07
5.4422e-07
-4.58837e-07
4.49844e-05
-6.26734e-05
6.09222e-05
0.000174865
-4.15174e-05
-0.000183398
5.88403e-05
3.18043e-06
-3.52568e-06
4.37357e-06
-2.98484e-06
2.44598e-06
3.25441e-06
3.87887e-06
4.01788e-06
-4.59289e-06
5.68193e-06
4.89956e-06
5.24137e-06
-6.47297e-06
7.0076e-06
6.14577e-06
7.42326e-06
-8.35488e-06
9.54907e-06
8.05703e-06
1.14899e-05
-9.17665e-06
9.85197e-06
1.49307e-05
1.64223e-05
-4.85159e-06
-9.04574e-06
7.61476e-06
1.08857e-05
1.28657e-05
-6.55637e-06
5.93308e-06
8.56609e-06
9.54907e-06
-5.2517e-06
4.72491e-06
6.32857e-06
7.36007e-06
-4.18008e-06
3.71101e-06
4.82767e-06
5.52739e-06
4.28956e-06
3.50211e-06
-3.53821e-06
3.46995e-06
-3.62374e-06
3.03408e-06
-1.24273e-05
1.81978e-05
2.42713e-05
-3.21816e-05
-3.19241e-05
3.44513e-05
2.47268e-05
-2.45172e-05
2.69278e-05
-2.30593e-05
1.91855e-06
2.70568e-06
2.2403e-06
-2.71785e-06
3.5886e-06
1.74641e-06
3.10695e-06
-3.36202e-05
3.01347e-05
-3.55629e-05
3.86273e-05
-3.66289e-05
-4.29345e-05
3.27135e-05
-3.21592e-05
3.41321e-05
-2.83141e-05
-1.18454e-05
9.12644e-06
1.54731e-05
-1.5551e-05
1.76509e-05
-2.3938e-05
-1.96016e-05
2.18459e-05
-1.45697e-05
1.7073e-05
3.82641e-06
-4.49222e-06
-3.50212e-06
-3.00081e-06
3.01787e-06
2.83032e-06
-2.97397e-06
3.19095e-06
-2.83223e-05
-1.40215e-05
1.60014e-05
2.161e-05
-5.30143e-05
5.59461e-05
4.35183e-05
-5.62414e-05
2.64683e-05
-3.93611e-05
0.000161341
-0.000136754
3.85125e-05
-0.000185059
-2.31455e-05
2.08546e-05
-1.41392e-05
-1.82691e-05
-2.06523e-05
-2.52364e-06
2.34366e-06
1.4693e-06
0.00029734
-0.000151388
8.1612e-05
1.97732e-06
-0.000234734
-0.000188776
0.000175344
0.000131338
-8.42072e-05
6.05454e-05
-4.66969e-05
5.70719e-06
-5.9945e-06
-4.1043e-06
-3.39381e-06
4.79868e-06
7.00446e-06
-8.58325e-06
-6.72652e-06
-5.16761e-06
1.05564e-05
-1.24083e-05
-1.01678e-05
-8.26245e-06
1.47236e-05
-1.73025e-05
-1.62102e-05
-1.27184e-05
2.00411e-05
-2.36878e-05
-2.62144e-05
-2.06596e-05
-3.1826e-05
-2.44285e-05
2.16551e-05
-2.84712e-05
-3.42159e-05
-1.87285e-05
-1.87721e-05
1.61652e-05
-2.30658e-05
2.83507e-05
-6.41872e-05
-1.69001e-05
0.00113394
-0.00084535
0.00113865
-0.000956128
5.20693e-06
-4.84901e-06
-6.0022e-06
-4.07496e-06
1.85911e-06
-2.30963e-06
2.97374e-06
-1.38619e-06
2.13184e-06
9.93901e-07
2.49103e-06
2.6833e-06
-3.05379e-06
3.96501e-06
3.48906e-06
3.48103e-06
-3.82823e-06
5.13679e-06
4.50258e-06
4.53289e-06
-5.11917e-06
6.40818e-06
5.84717e-06
6.01384e-06
-6.67384e-06
8.48022e-06
7.51992e-06
7.42366e-06
-7.9949e-06
1.17741e-05
1.01693e-05
8.71714e-06
-9.56171e-06
1.58438e-05
1.38375e-05
5.95009e-05
-6.21066e-05
-6.24561e-05
1.83202e-05
-1.07046e-05
-8.30129e-06
7.76627e-06
1.27436e-05
1.4501e-05
-7.01901e-06
6.13866e-06
9.66026e-06
1.11562e-05
-5.38413e-06
4.93844e-06
7.58876e-06
8.56415e-06
-4.47216e-06
4.01329e-06
5.86096e-06
6.67116e-06
-3.59802e-06
3.15293e-06
4.59763e-06
5.18067e-06
4.07345e-06
2.93704e-06
-2.98243e-06
2.06561e-06
-2.85261e-06
1.26529e-06
2.66985e-06
1.66402e-06
2.45024e-06
2.45962e-07
-9.10771e-07
-2.43493e-07
6.62564e-07
-1.64474e-06
2.00475e-06
-3.56296e-06
2.54618e-06
2.70015e-06
-4.21402e-06
-8.04737e-07
3.04555e-05
-4.99286e-05
-3.83449e-05
4.44877e-05
-5.07498e-05
5.08823e-05
-4.22374e-05
2.90744e-05
-2.61696e-05
-2.645e-05
-1.62303e-05
2.41129e-05
3.03961e-05
-2.50571e-05
-9.86158e-07
5.16536e-07
2.00141e-06
2.2459e-05
-2.6903e-05
-1.9667e-05
1.99207e-05
-1.60445e-05
4.204e-06
-4.9625e-06
-3.39187e-06
3.527e-06
-2.90492e-06
3.88965e-05
-3.34579e-05
3.73084e-05
-3.1607e-05
2.08167e-06
-2.189e-06
1.04571e-06
1.93321e-06
6.3873e-07
0.000133595
-2.10112e-07
-0.000119984
-6.85546e-06
-1.73764e-07
0.000147414
-6.55487e-06
-0.000133649
0.000147478
-6.95533e-06
-0.000120024
-7.317e-06
2.27258e-06
-2.44341e-06
8.46353e-07
8.70214e-07
-1.30349e-06
2.38112e-06
5.22303e-07
2.01803e-06
5.5677e-06
-4.03541e-06
2.15772e-05
-2.71757e-05
4.00221e-05
-5.64941e-05
-8.50735e-07
1.64878e-07
7.12404e-07
2.24891e-06
2.16742e-06
-3.04871e-06
0.00200299
0.00204644
-0.00191813
-0.00191276
-0.000146475
0.000109733
0.000130487
2.8766e-05
-0.00013613
-7.93452e-05
5.24337e-05
0.000142592
-2.04388e-05
-2.23549e-05
4.78551e-05
0.000383693
1.44791e-06
-2.22597e-06
6.28876e-05
-0.000174467
-0.000123075
0.000176583
4.42634e-06
-5.25951e-06
-3.00744e-06
2.98682e-06
-2.34469e-06
2.43954e-06
6.03583e-06
-6.99306e-06
-4.24412e-06
-3.5567e-06
8.20799e-06
-9.92896e-06
-6.71908e-06
-5.28965e-06
1.20495e-05
-1.45098e-05
-1.05056e-05
-8.33546e-06
1.7403e-05
-2.07195e-05
-1.69667e-05
-1.32721e-05
2.44792e-05
-2.89959e-05
-2.71631e-05
-2.16024e-05
3.39959e-05
-3.71258e-05
-4.0055e-05
-3.32663e-05
-4.87165e-05
-2.86172e-05
2.56065e-05
-3.15228e-05
-3.96425e-05
-2.21919e-05
1.86955e-05
-1.97021e-05
-2.47831e-05
-1.53319e-05
1.23522e-05
-1.22663e-05
1.20621e-05
-1.56345e-05
1.51623e-05
-9.90609e-06
8.1323e-06
-7.39856e-06
7.29592e-06
-9.48052e-06
9.38959e-06
-6.81209e-06
5.78553e-06
-4.7929e-06
-5.84809e-06
5.83239e-06
-4.00119e-06
0.00016137
-1.397e-07
-6.22417e-06
0.000175347
-9.64856e-08
-5.84406e-06
0.000189402
-7.4587e-08
-5.50876e-06
0.000203458
-1.06122e-07
-5.20504e-06
0.000217446
-9.48045e-08
-5.05774e-06
0.000231652
-4.57759e-08
-5.55272e-06
0.000246426
1.33279e-07
-7.38544e-06
0.000260461
9.49766e-07
-1.07725e-05
0.000271684
3.08749e-06
-1.82368e-05
5.31969e-06
0.000277813
-3.02936e-05
0.000275934
-0.000270176
-1.98731e-05
0.000261794
7.73443e-06
-5.05721e-05
7.55725e-06
0.000201368
-8.45592e-05
-0.000258093
0.000193292
-6.69673e-05
-3.48062e-05
0.000258935
-0.000245525
-8.36239e-06
-1.2428e-05
0.000231296
-0.000217094
-5.77864e-06
-6.65759e-06
0.000203144
-0.000189268
-5.41401e-06
-5.3821e-06
0.000175348
-0.000161418
-6.08456e-06
-5.65705e-06
-6.54768e-06
1.41421e-06
-1.79401e-06
2.63737e-06
2.26795e-06
2.15774e-06
-2.51988e-06
3.54553e-06
3.09134e-06
2.90332e-06
-3.25903e-06
4.62254e-06
4.06547e-06
3.591e-06
-4.14801e-06
5.89501e-06
5.23655e-06
4.72103e-06
-5.37229e-06
7.62721e-06
6.82112e-06
5.80609e-06
-6.31764e-06
1.0187e-05
8.81152e-06
6.77709e-06
-7.20718e-06
1.34479e-05
1.18393e-05
0.00177259
-0.0016402
0.001977
1.52575e-05
-7.35771e-06
1.95748e-05
-2.54581e-05
7.06662e-06
-1.20436e-05
1.02498e-05
1.8003e-05
2.22206e-05
-2.54469e-05
-1.73716e-05
1.5804e-05
-2.33329e-05
-1.43108e-05
1.74476e-05
2.14861e-05
-8.65183e-06
7.53708e-06
1.37644e-05
1.54884e-05
-7.00199e-06
6.30792e-06
1.10517e-05
1.24565e-05
-5.63351e-06
4.94837e-06
8.53733e-06
9.71394e-06
-4.4535e-06
4.05128e-06
6.75478e-06
7.56072e-06
-3.69766e-06
3.34878e-06
5.36771e-06
6.01817e-06
-3.00381e-06
2.62549e-06
4.24938e-06
4.77794e-06
-2.20986e-06
1.76278e-06
3.25139e-06
3.73316e-06
2.78791e-06
2.53024e-06
-2.56734e-06
1.55392e-06
1.19945e-06
2.58356e-06
-2.57923e-06
2.2234e-06
1.88761e-06
2.54424e-06
-2.47281e-06
2.85696e-06
2.55154e-06
0.000724726
0.000882428
-0.00168583
-0.00146951
0.00260852
-0.00267269
0.0010109
-0.000741323
3.38592e-05
-2.72006e-05
-2.99093e-05
-1.79671e-05
2.66758e-05
-2.96859e-05
-2.04581e-05
3.36903e-05
-2.76029e-05
2.47811e-07
1.73415e-06
4.27949e-05
-7.92034e-05
-3.33072e-05
-2.42871e-07
-7.09738e-06
-0.000106712
-7.60406e-06
-0.000106744
-8.00448e-07
1.46815e-06
8.50129e-07
0.00386432
0.00229151
-0.00169498
-0.00409345
0.000261019
-0.000262572
-5.2381e-05
0.000226288
-8.59509e-05
4.45829e-05
-3.4971e-05
7.88746e-05
2.39199e-05
-0.000167719
-0.000189815
-2.84543e-05
-1.7192e-05
-4.39258e-05
4.16712e-05
-3.67201e-05
-1.74777e-06
1.86828e-06
1.87198e-06
-1.6789e-06
2.11099e-06
-0.000106933
0.000120203
-1.41554e-05
-7.39728e-06
-2.63156e-07
-9.35971e-05
-1.47087e-05
-9.38576e-05
1.95287e-06
-2.10481e-06
5.27556e-07
1.75258e-06
2.69995e-07
5.19676e-07
-8.97012e-07
2.02953e-06
2.43859e-07
1.72651e-06
-1.4043e-05
8.40859e-05
-0.000125086
7.07068e-05
-0.000141649
-2.55113e-05
-4.62138e-06
2.24011e-05
-2.84653e-05
-8.20369e-06
7.2929e-06
5.67341e-05
-4.96525e-05
-4.44882e-05
-2.43052e-05
-9.97383e-06
2.24611e-05
8.04653e-06
-2.80289e-05
-1.50405e-05
-8.03466e-06
2.25305e-05
8.65571e-07
-9.26692e-05
-8.25685e-05
9.54134e-05
0.000126996
-0.000170087
6.88745e-05
2.47838e-07
-3.36443e-07
2.04412e-07
-2.84472e-07
3.14535e-06
-3.8543e-06
-2.36669e-06
-2.12613e-06
2.1842e-06
2.21934e-06
-2.02388e-06
2.46325e-06
-2.19132e-05
-2.39511e-05
-1.69594e-06
1.33491e-07
1.49617e-06
1.83981e-06
-1.92283e-06
7.07364e-07
4.09904e-07
1.97337e-06
-1.92768e-06
1.35197e-06
-1.90044e-06
1.03428e-06
1.6533e-06
4.72425e-06
-5.6066e-06
-3.03237e-06
-2.70084e-06
6.60582e-06
-7.7866e-06
-4.2651e-06
-3.57461e-06
9.30819e-06
-1.13588e-05
-6.58926e-06
-5.26843e-06
1.37819e-05
-1.68246e-05
-1.05354e-05
-8.37161e-06
2.03749e-05
-2.44574e-05
-1.73057e-05
-1.34757e-05
2.91099e-05
-3.4224e-05
-2.80554e-05
-2.20934e-05
3.93148e-05
-4.29661e-05
-4.53689e-05
-3.54767e-05
-5.99036e-05
4.95735e-05
-4.96025e-05
-0.000113692
-0.000100503
0.00010442
-4.07713e-05
3.84953e-05
-5.92106e-05
-7.39309e-05
-4.59839e-05
-3.52426e-05
3.09204e-05
-3.44015e-05
-4.55209e-05
-2.63331e-05
2.19883e-05
-2.01526e-05
-2.59792e-05
-1.80062e-05
1.45366e-05
-1.22467e-05
-1.57515e-05
-1.16012e-05
9.35319e-06
-7.31221e-06
-9.37084e-06
-7.6828e-06
6.44098e-06
-4.68457e-06
-5.75407e-06
-5.46605e-06
4.63196e-06
-3.26437e-06
-3.89046e-06
-2.76351e-06
-0.000133849
0.000147719
-1.29401e-05
-1.3613e-05
-0.000161701
0.00017572
-1.15543e-05
-1.22545e-05
-0.000189736
0.000203699
-1.05441e-05
-1.09393e-05
-0.000217533
0.00023093
-1.14298e-05
-1.05631e-05
-0.000243551
0.000255271
-2.0726e-05
-1.42879e-05
-3.21702e-05
-0.000107035
0.000120318
-1.47035e-05
7.9311e-06
-1.52815e-05
-9.3942e-05
-9.36258e-05
-0.000218304
-2.96148e-05
-7.07889e-06
-0.000229641
0.00273297
0.000255318
-0.00317535
0.000285435
0.000132288
-0.000229361
-0.000119907
-0.000207334
0.00026358
-0.000264623
-4.44205e-05
-7.23122e-05
0.000255403
-0.000242571
-1.95021e-05
-2.90118e-05
0.0002292
-0.00021639
-1.13858e-05
-1.44213e-05
0.000202995
-0.000189423
-1.08437e-05
-1.09181e-05
0.000175657
-0.000161794
-1.18873e-05
-1.12065e-05
0.000147859
-0.000133987
-1.34323e-05
-1.26802e-05
-1.41421e-05
1.00659e-06
-1.2915e-06
2.23049e-06
1.87864e-06
1.60997e-06
-1.94513e-06
3.07728e-06
2.64906e-06
2.28869e-06
-2.6427e-06
4.10226e-06
3.57289e-06
3.00221e-06
-3.44529e-06
5.30643e-06
4.66403e-06
3.7346e-06
-4.14872e-06
6.71576e-06
5.94446e-06
4.51253e-06
-4.91861e-06
8.78623e-06
7.63602e-06
5.14767e-06
-5.37659e-06
1.12619e-05
9.96834e-06
5.40579e-06
-5.23379e-06
1.42006e-05
-1.74982e-05
1.25445e-05
4.94236e-06
-4.26778e-06
1.73742e-05
1.5851e-05
2.34764e-05
-2.72842e-05
-4.92785e-06
3.70465e-06
-3.34467e-06
1.93872e-05
1.82994e-05
2.54363e-05
-1.3201e-05
-2.7104e-05
-2.94543e-06
4.33589e-06
1.96923e-05
2.42103e-05
-4.96939e-06
-2.82072e-05
4.96037e-06
1.92867e-06
-2.25586e-06
2.08415e-05
2.05287e-05
-2.56021e-05
-4.25597e-06
6.07854e-06
1.82528e-05
-2.3871e-05
1.89896e-05
-7.05355e-06
6.96197e-06
1.47372e-05
1.64854e-05
-6.40949e-06
5.79296e-06
1.17494e-05
1.30969e-05
-5.3616e-06
4.90578e-06
9.38722e-06
1.05284e-05
-4.44084e-06
3.98292e-06
7.41435e-06
8.33183e-06
-3.6028e-06
3.29497e-06
5.94646e-06
6.61553e-06
-3.02097e-06
2.74157e-06
4.77696e-06
5.33357e-06
-2.44226e-06
2.09848e-06
3.74141e-06
4.2417e-06
-1.70934e-06
1.30099e-06
2.7851e-06
3.24391e-06
2.3677e-06
2.18094e-06
-2.20363e-06
1.11104e-06
8.10427e-07
2.21138e-06
-2.21139e-06
1.67589e-06
1.38822e-06
1.95054e-06
-1.41868e-05
0.000241673
-0.00172615
-0.000332354
9.75132e-05
0.00085524
0.000142235
-0.000139858
3.91426e-05
-2.85899e-05
-3.39535e-05
-1.76853e-05
-3.31467e-05
-2.12872e-05
3.76315e-05
-3.0357e-05
2.05678e-06
-1.90707e-06
-2.32338e-06
-0.000222351
-2.50658e-05
0.000455622
0.000181398
8.86712e-05
-7.86124e-05
-1.12334e-05
-2.9239e-05
2.24072e-05
-0.000107414
0.00012071
-2.03522e-05
-9.43177e-05
-2.10799e-05
1.35309e-06
-1.51853e-06
8.31572e-08
0.00241249
-0.000427039
0.000769528
-2.37241e-07
1.09301e-06
5.58856e-07
-1.19313e-07
1.1645e-06
1.13329e-06
-4.71587e-08
1.54018e-06
6.80979e-08
3.39478e-06
-4.174e-06
-2.2226e-06
2.68391e-06
-1.90895e-06
-0.000107954
-0.000193327
-0.000122545
0.000114532
0.000116981
-0.000170077
0.00014108
-0.00023832
-0.000111518
4.82337e-05
9.37523e-05
3.33049e-07
-2.20039e-07
0.000233981
-0.000249897
-7.08474e-05
0.000181648
-0.000113754
-0.000233984
-0.000223612
0.000174884
-0.000368126
0.000194343
-0.000290806
-0.000335321
0.000239171
-0.000363353
-3.37937e-05
-1.3376e-05
5.19444e-05
-3.91486e-05
4.65051e-05
-4.18286e-05
-3.24456e-05
-1.80996e-05
-0.000119429
8.82391e-05
-0.000107533
0.00012086
-2.09528e-05
-9.44124e-05
-2.16683e-05
0.00216324
-0.00216753
0.00148007
-0.00145238
-1.60526e-05
-1.24359e-05
7.28264e-05
1.94666e-05
-0.000116331
-0.000179817
0.000115779
6.55284e-05
-6.00271e-05
-6.68072e-05
-3.23411e-05
-7.73892e-06
-2.48717e-05
-2.8292e-06
2.03962e-05
-4.36421e-06
-2.9923e-05
-2.56481e-05
-2.10579e-06
2.13756e-05
-3.86847e-06
-3.15924e-05
-3.19188e-05
-1.53691e-05
5.68474e-05
-5.59317e-05
0.00011093
9.19716e-05
-0.000139467
-9.82107e-05
9.82517e-06
-0.000226
-2.46986e-07
3.19959e-07
1.34436e-07
-4.0996e-07
-0.000131076
4.87729e-05
0.000126486
-0.00204464
0.00114185
0.00086439
-0.000724086
-2.27458e-05
-2.56256e-05
1.64884e-06
-1.74385e-06
4.77682e-07
2.66518e-07
1.79542e-06
-1.7932e-06
9.36489e-07
7.14263e-07
1.76144e-06
-1.72801e-06
1.36945e-06
1.17405e-06
1.64337e-06
-1.64663e-06
1.58226e-06
1.55202e-06
-2.20139e-06
1.71192e-06
-1.65001e-06
2.61293e-06
-4.02075e-06
-2.69129e-06
3.38718e-06
-2.04105e-06
4.93305e-06
-6.02782e-06
-2.89929e-06
-2.69417e-06
7.23891e-06
-8.71454e-06
-4.09798e-06
-3.45804e-06
1.05424e-05
-1.28561e-05
-6.3868e-06
-5.09133e-06
1.5822e-05
-1.93102e-05
-1.03833e-05
-8.10628e-06
2.35576e-05
-2.85072e-05
-1.71025e-05
-1.32463e-05
3.41897e-05
-4.05795e-05
-2.83845e-05
-2.20032e-05
4.7832e-05
-5.59771e-05
-4.82938e-05
-3.67541e-05
6.59133e-05
-8.15475e-05
-8.55473e-05
-6.49216e-05
-0.000113112
-8.18371e-05
-9.95768e-05
8.23604e-05
-0.000102464
9.02278e-05
-0.000124744
-6.91041e-05
5.6292e-05
-6.1088e-05
-8.03006e-05
-4.58587e-05
3.76647e-05
-3.45962e-05
-4.61206e-05
-3.11508e-05
2.55357e-05
-1.97868e-05
-2.5978e-05
-2.07993e-05
1.66873e-05
-1.17891e-05
-1.53977e-05
-1.33209e-05
1.06702e-05
-7.04136e-06
-9.04452e-06
-8.64013e-06
7.14493e-06
-4.47161e-06
-5.50487e-06
-5.97796e-06
5.01364e-06
-3.08368e-06
-3.69439e-06
-2.61434e-06
-0.000134437
0.000148389
-1.87699e-05
-1.96439e-05
-0.000162434
0.000176426
-1.68017e-05
-1.77649e-05
-0.000190344
0.000203921
-1.57426e-05
-1.61043e-05
-0.000216963
0.000229127
-1.77744e-05
-1.61285e-05
-0.000239662
0.000247237
-3.01474e-05
-2.18319e-05
-4.47305e-05
-2.76502e-07
-7.70632e-06
-8.05052e-05
8.26547e-06
-1.57522e-05
-8.08732e-05
-8.05289e-05
-1.01139e-05
-3.42797e-05
1.51781e-05
-8.12553e-05
-2.16469e-05
-8.08018e-05
-2.58523e-05
6.8218e-05
-0.000173053
0.000131788
-0.000174224
0.000167276
-9.49542e-05
1.57108e-05
-0.000214125
-0.000185761
0.000101723
-0.000194717
-0.000162002
-0.000216424
0.000241937
-0.000252296
-6.7733e-05
-0.000105921
0.000247658
-0.000238251
-3.09677e-05
-4.44555e-05
0.000227236
-0.000215234
-1.82329e-05
-2.2779e-05
0.000202864
-0.000189984
-1.61909e-05
-1.66903e-05
0.000176429
-0.000162601
-1.73486e-05
-1.66402e-05
0.000148593
-0.000134616
-1.93804e-05
-1.83395e-05
-2.02567e-05
-1.62388e-07
-2.09884e-08
1.08893e-06
1.56705e-07
-1.23305e-07
1.00347e-06
1.01637e-06
1.70023e-07
-3.61494e-07
1.28715e-06
1.15741e-06
-1.25593e-06
5.41734e-07
-7.88458e-07
1.83081e-06
1.53674e-06
1.07035e-06
-1.36372e-06
2.55314e-06
2.18557e-06
1.69252e-06
-2.00991e-06
3.50052e-06
3.02156e-06
2.34457e-06
-2.65127e-06
4.59444e-06
4.03403e-06
2.97362e-06
-3.30495e-06
5.82801e-06
5.16854e-06
3.61446e-06
-3.84715e-06
7.43823e-06
6.56613e-06
3.98981e-06
-4.09988e-06
9.32847e-06
8.31864e-06
4.19837e-06
-4.17288e-06
1.15612e-05
1.03374e-05
3.91859e-06
-3.50545e-06
1.39184e-05
1.27341e-05
3.11475e-06
-2.68538e-06
1.56563e-05
1.47581e-05
2.13277e-05
-2.06697e-06
-2.62791e-05
2.14698e-06
-1.54575e-06
1.71306e-05
1.64009e-05
-8.26471e-07
-2.21657e-05
1.77061e-05
-1.06161e-07
-2.25154e-05
1.7967e-05
2.22128e-05
-1.19565e-06
-2.75618e-05
-7.78546e-07
1.38826e-06
1.78553e-05
-2.28308e-05
1.81154e-05
-1.78562e-06
2.36051e-06
1.68046e-05
1.73856e-05
-2.94569e-06
3.26092e-06
1.59087e-05
1.64456e-05
-4.00849e-06
4.72141e-06
1.42947e-05
1.49437e-05
-4.89315e-06
4.87271e-06
1.18594e-05
1.31497e-05
-4.64772e-06
4.36411e-06
9.68474e-06
1.07196e-05
-4.08547e-06
3.76996e-06
7.85116e-06
8.7229e-06
-3.44754e-06
3.14263e-06
6.31648e-06
7.03353e-06
-2.87746e-06
2.64497e-06
5.11591e-06
5.67565e-06
-2.42267e-06
2.18239e-06
4.0872e-06
4.58535e-06
-1.90924e-06
1.59282e-06
3.12009e-06
3.59248e-06
-1.24442e-06
8.97274e-07
2.24692e-06
2.65942e-06
-5.75945e-07
3.22401e-07
1.63181e-06
1.90103e-06
-9.8179e-08
-1.2275e-07
1.4384e-06
1.47795e-06
1.42206e-06
-1.56884e-06
-1.51185e-08
1.26328e-06
1.7066e-06
-1.81948e-06
3.17472e-07
1.23946e-07
1.88951e-06
-1.90756e-06
7.65143e-07
5.32489e-07
1.9115e-06
-1.90937e-06
1.21548e-06
9.86902e-07
1.89318e-06
-1.84953e-06
1.64832e-06
1.43151e-06
1.7768e-06
2.02322e-06
-1.66802e-06
1.85006e-06
0.000356805
6.10913e-05
-0.000158496
-0.000199621
1.46978e-05
1.30496e-05
0.00039281
-0.000755912
-0.000432787
9.13377e-05
-0.000176648
-0.000903086
-0.00272672
0.00124727
-0.000420589
0.000320645
-0.00061876
0.000605286
-0.000180578
0.00198243
0.00147723
0.00105637
-0.00221086
0.000664224
0.000648285
-0.00113431
-3.92623e-05
-1.79663e-05
4.5781e-05
-3.02937e-05
4.2101e-08
-2.8673e-05
-1.11891e-06
-2.75274e-05
4.22507e-05
-3.35568e-05
-3.74707e-05
-2.23326e-05
-0.000126931
0.000107198
0.000156795
-0.000189835
0.000133289
-3.7844e-05
5.00108e-07
-5.75798e-07
-4.15474e-07
0.000743245
-0.00150209
0.000765887
-0.00170983
0.000139046
-0.000308413
-0.000122883
0.000101182
-0.00012394
-2.22125e-05
-8.13272e-05
-0.000108163
0.00020805
-6.33128e-05
-8.13789e-05
-0.000100462
9.91838e-07
-1.13463e-06
-4.5552e-08
9.08503e-08
8.89558e-07
-5.49778e-08
1.35774e-07
8.80788e-07
0.000107026
-0.000208589
0.000158178
5.86023e-05
-4.25466e-05
-3.83933e-05
-1.26386e-05
-3.33293e-06
-3.21612e-05
-2.28867e-06
-3.46088e-05
-3.72468e-05
-1.86397e-05
5.24453e-05
-4.65434e-05
-0.000108518
6.45613e-05
0.000111719
-1.53136e-06
1.55001e-06
1.14897e-06
-1.47909e-06
1.23724e-06
-8.77297e-05
-0.000255399
0.000121708
-0.00246766
-0.00265579
0.00285448
-7.41613e-06
0.000194982
0.000170166
0.000210673
-0.000152632
-1.4652e-05
-3.56075e-05
0.000692522
0.000580395
-0.00188278
0.000177258
2.94524e-05
3.25564e-05
0.000124333
-0.000143085
9.19049e-05
-0.00011823
-0.000176365
-8.82188e-05
7.56845e-05
-6.17987e-05
-3.57845e-05
-7.02708e-06
-8.02687e-06
-3.94657e-05
6.11192e-05
-6.9265e-05
-5.86771e-05
-1.49166e-06
1.57255e-06
1.46382e-06
2.18054e-06
-2.87286e-06
-1.54361e-06
-1.3845e-06
1.58263e-06
-2.23082e-05
1.56569e-05
-6.76625e-05
-8.16743e-05
9.47251e-05
-2.72384e-05
-2.82863e-05
-6.81059e-05
-9.65307e-06
-0.000234309
-1.44506e-06
-3.78478e-08
-9.67695e-05
4.14685e-05
0.000111093
-0.000104625
-0.000130154
8.906e-05
0.000505484
-1.08416e-05
6.78627e-06
-6.95216e-06
1.00164e-05
1.47981e-05
-2.29996e-05
-2.81444e-05
-2.76428e-05
0.000101715
-0.000171284
-0.000108313
1.2671e-06
-1.39986e-06
7.75139e-08
-5.87703e-09
1.50411e-06
-1.58408e-06
3.188e-07
1.81604e-07
1.634e-06
-1.65031e-06
6.23889e-07
4.78465e-07
1.64792e-06
-1.61373e-06
9.41045e-07
8.04582e-07
1.081e-06
-2.43328e-06
1.8635e-06
-1.59028e-06
3.20045e-06
-4.34743e-06
-2.27569e-06
-1.87862e-06
5.40765e-06
-6.5137e-06
-2.79218e-06
-2.50783e-06
7.9265e-06
-9.56516e-06
-3.85739e-06
-3.20142e-06
1.1687e-05
-1.43912e-05
-5.96177e-06
-4.74109e-06
1.77877e-05
-2.20468e-05
-9.69491e-06
-7.61198e-06
2.69515e-05
-3.27847e-05
-1.6374e-05
-1.26115e-05
3.9654e-05
-4.77976e-05
-2.78056e-05
-2.12687e-05
5.7737e-05
-7.01914e-05
-4.93076e-05
-3.67906e-05
8.74993e-05
-0.00011223
-9.14879e-05
-6.73454e-05
-0.000128664
0.000764564
-0.00190246
-0.00121895
0.000627395
-0.000186401
-8.19414e-05
6.65631e-05
-6.33784e-05
-8.74378e-05
-5.40632e-05
4.39733e-05
-3.39508e-05
-4.63018e-05
-3.59116e-05
2.91495e-05
-1.87346e-05
-2.5115e-05
-2.35697e-05
1.89043e-05
-1.10068e-05
-1.44827e-05
-1.49626e-05
1.19491e-05
-6.5654e-06
-8.31078e-06
-9.60635e-06
7.85786e-06
-4.13591e-06
-5.09068e-06
-6.50331e-06
5.42961e-06
-2.85272e-06
-3.39456e-06
-4.48263e-06
3.64579e-06
-2.05887e-06
-2.40162e-06
-1.75863e-06
-0.000107868
0.000121272
-2.539e-05
-2.63821e-05
-0.000135121
0.00014917
-2.33857e-05
-2.44689e-05
-0.000163216
0.000177044
-2.13657e-05
-2.24652e-05
-0.00019062
0.00020363
-2.05373e-05
-2.06713e-05
-0.000215679
0.00022587
-2.38968e-05
-2.15055e-05
-0.000233353
0.000236331
-3.86797e-05
-2.92318e-05
-0.000229899
0.000197368
-8.57525e-05
-5.64337e-05
-0.000132194
4.64408e-05
-0.000192232
-0.000131612
-1.62237e-05
8.59475e-06
-6.7322e-05
-8.17176e-05
9.479e-05
-2.77598e-05
2.28589e-05
-2.87875e-05
-6.81396e-05
-6.77038e-05
-2.90168e-07
-8.0191e-06
-6.699e-05
-6.70168e-05
-6.72622e-05
3.66711e-05
1.63433e-05
-0.00018462
-0.000166246
-4.86433e-05
2.51205e-05
-0.000208268
-0.000201055
5.16782e-05
-0.000140647
-0.000177518
-0.000208295
0.000202926
-0.000231122
-8.52148e-05
-0.000126223
0.000234811
-0.000230649
-4.06071e-05
-5.74991e-05
0.000222922
-0.000213257
-2.48819e-05
-3.08731e-05
0.000202191
-0.000189989
-2.13874e-05
-2.24184e-05
0.000177019
-0.0001634
-2.21221e-05
-2.14432e-05
0.000149404
-0.000135307
-2.41092e-05
-2.3258e-05
0.000121401
-0.000107958
-2.59805e-05
-2.5112e-05
-2.69387e-05
-1.47115e-07
1.44069e-07
9.39343e-07
9.01738e-07
-9.72843e-08
-1.71755e-08
1.09085e-06
9.9088e-07
1.68428e-07
-3.58092e-07
1.44765e-06
1.24541e-06
5.90805e-07
-8.50102e-07
2.01885e-06
1.72055e-06
1.13969e-06
-1.42649e-06
2.83998e-06
2.42323e-06
1.72007e-06
-1.9973e-06
3.81695e-06
3.31777e-06
2.27849e-06
-2.57036e-06
4.94114e-06
4.34875e-06
2.82744e-06
-3.01319e-06
6.19785e-06
5.53197e-06
3.13668e-06
-3.20091e-06
7.62951e-06
6.86415e-06
3.28057e-06
-3.21574e-06
9.28755e-06
8.44278e-06
3.08025e-06
-2.81775e-06
1.10298e-05
1.01697e-05
2.53858e-06
-2.19072e-06
1.24002e-05
1.17121e-05
1.77006e-06
-1.29979e-06
1.35349e-05
1.29589e-05
7.34271e-07
-1.72335e-07
1.41779e-05
1.39474e-05
-4.49039e-07
9.81964e-07
1.41298e-05
1.42756e-05
-1.4584e-06
1.87003e-06
1.33627e-05
1.37992e-05
-2.32423e-06
2.74858e-06
1.25298e-05
1.29867e-05
-3.09412e-06
3.47245e-06
1.11608e-05
1.1759e-05
-3.6323e-06
3.59088e-06
9.45744e-06
1.03545e-05
-3.45815e-06
3.27746e-06
7.84355e-06
8.62276e-06
-3.07985e-06
2.88091e-06
6.44607e-06
7.11685e-06
-2.667e-06
2.45817e-06
5.27537e-06
5.83057e-06
-2.26531e-06
2.07875e-06
4.27911e-06
4.75504e-06
-1.88392e-06
1.66465e-06
3.36153e-06
3.81155e-06
-1.41036e-06
1.12662e-06
2.48977e-06
2.9134e-06
-8.29647e-07
5.4936e-07
1.75225e-06
2.09327e-06
-3.15148e-07
1.64877e-07
1.26862e-06
1.47977e-06
-1.278e-07
9.54316e-07
3.51822e-07
1.13562e-06
1.53484e-06
-1.61439e-06
2.0593e-07
6.75779e-08
1.66441e-06
-1.68195e-06
5.25256e-07
3.55993e-07
1.68229e-06
-1.67235e-06
8.55545e-07
6.89939e-07
1.6597e-06
-1.63138e-06
1.18085e-06
1.01735e-06
1.32728e-06
5.65056e-07
-0.00150854
0.00130909
0.00191973
-0.00129207
0.000120329
-0.000485203
-0.000221144
0.000581909
1.11876e-07
-6.50462e-08
7.47955e-07
0.000353394
0.000384733
-0.000253409
0.000203935
0.000352062
0.000420358
5.17224e-05
-3.22311e-05
-4.52947e-05
-1.73973e-05
-2.05966e-06
-3.39825e-05
1.14212e-07
-3.67805e-05
-4.25664e-05
-2.37348e-05
4.79272e-05
-3.73045e-05
-0.000113826
8.57886e-05
-1.18107e-05
8.46036e-06
1.3489e-06
-1.39146e-06
0.000238722
-0.000242753
0.0023948
0.00124793
-0.00248973
-7.35075e-05
0.0002268
8.40772e-05
0.000231955
-0.000569698
-9.14884e-05
-0.000236125
1.46872e-07
7.58826e-07
-0.00224655
0.000192447
-0.000504276
0.00031226
0.000174162
-0.000290879
-8.1967e-05
9.48872e-05
-3.28196e-05
-6.85091e-05
-3.4195e-05
0.000113012
0.000414828
-0.000197231
0.000192074
-1.52262e-05
-3.98455e-05
3.84508e-05
0.000302755
0.000367582
0.000342133
-0.000160708
0.000121572
2.8307e-06
3.12956e-05
6.42271e-05
6.69301e-05
-4.66901e-05
-4.29623e-05
-1.14454e-05
-5.93527e-06
-3.88764e-05
-3.73687e-06
-4.60534e-05
-4.19046e-05
-1.88332e-05
5.81335e-05
-5.38084e-05
-8.52861e-05
6.66723e-05
1.01044e-06
-1.13555e-06
1.63077e-08
8.94026e-07
-2.01415e-08
2.35143e-06
-3.09196e-06
-1.38331e-06
1.71109e-06
-1.24595e-06
-1.35841e-06
1.42876e-06
1.01149e-06
-1.26445e-06
1.09822e-06
-8.19554e-05
9.48597e-05
-3.23645e-05
-6.8495e-05
-3.37635e-05
-2.29528e-05
1.61044e-05
-5.34798e-05
-2.93065e-05
-5.38973e-05
-0.00146787
-0.000278189
-4.07813e-05
-0.000265214
1.28465e-06
-1.36325e-06
-1.69335e-08
1.13487e-06
-9.02072e-08
-1.30763e-05
-0.00022034
7.18913e-07
-9.35751e-07
7.90557e-07
-0.000111531
8.4132e-05
2.44967e-07
-6.42555e-08
1.05804e-07
0.000282902
1.04049e-05
-2.40893e-05
-3.55784e-05
-2.97956e-05
9.42783e-05
-0.000142234
1.23922e-06
-1.33591e-06
8.4537e-08
3.09203e-08
1.41274e-06
-1.47966e-06
2.16602e-07
1.30951e-07
1.51478e-06
-1.54149e-06
3.99122e-07
3.03194e-07
1.53144e-06
-1.52187e-06
6.17554e-07
5.07695e-07
1.47056e-06
-1.43101e-06
7.71436e-07
6.97486e-07
1.3694e-06
-1.27755e-06
9.16011e-07
8.33546e-07
-1.47732e-06
1.01733e-06
-1.15616e-06
2.02938e-06
-2.70205e-06
-1.4403e-06
-1.26826e-06
3.54392e-06
-4.60043e-06
-1.97212e-06
-1.66742e-06
5.76488e-06
-7.09691e-06
-2.47746e-06
-2.21941e-06
8.63137e-06
-1.05001e-05
-3.46349e-06
-2.86375e-06
1.28366e-05
-1.58698e-05
-5.36155e-06
-4.29151e-06
1.97974e-05
-2.45263e-05
-8.73967e-06
-6.76003e-06
3.03076e-05
-3.72749e-05
-1.48661e-05
-1.13373e-05
4.55843e-05
-5.5621e-05
-2.63486e-05
-1.96655e-05
6.86446e-05
-8.60206e-05
-4.89246e-05
-3.5586e-05
0.000112148
-0.000154972
-9.77642e-05
-6.87831e-05
-0.000145028
-0.00135919
0.00116657
0.00206623
-0.000170541
0.000132579
-0.000168177
-0.000293834
-0.00010292
8.07549e-05
-6.49831e-05
-9.92216e-05
-6.39006e-05
5.09348e-05
-3.16848e-05
-4.4731e-05
-4.07326e-05
3.28479e-05
-1.6989e-05
-2.28125e-05
-2.63045e-05
2.09604e-05
-9.74485e-06
-1.28757e-05
-1.65514e-05
1.31623e-05
-5.83046e-06
-7.26513e-06
-1.05256e-05
8.56013e-06
-3.67708e-06
-4.49618e-06
-7.0342e-06
5.82017e-06
-2.52808e-06
-2.9984e-06
-4.80284e-06
3.89211e-06
-1.83993e-06
-2.13696e-06
-1.59771e-06
-0.000107964
0.000121441
-2.96324e-05
-3.10617e-05
-0.000135387
0.000149485
-2.69592e-05
-2.83244e-05
-0.000163509
0.000177233
-2.49378e-05
-2.58332e-05
-0.000190309
0.000202463
-2.45056e-05
-2.43575e-05
-0.000212964
0.000220966
-2.91624e-05
-2.5896e-05
-0.000225081
0.000223382
-4.61626e-05
-3.54475e-05
-0.000204113
0.000161017
-9.70502e-05
-6.5528e-05
-9.23762e-05
2.24955e-05
-0.000172845