/*--------------------------------*- C++ -*----------------------------------*\
| =========                 |                                                 |
| \\      /  F ield         | OpenFOAM: The Open Source CFD Toolbox           |
|  \\    /   O peration     | Version:  2212                                  |
|   \\  /    A nd           | Website:  www.openfoam.com                      |
|    \\/     M anipulation  |                                                 |
\*---------------------------------------------------------------------------*/
FoamFile
{
    version     2.0;
    format      ascii;
    arch        "LSB;label=32;scalar=64";
    class       volScalarField;
    location    "0.0003";
    object      p;
}
// * * * * * * * * * * * * * * * * * * * * * * * * * * * * * * * * * * * * * //

dimensions      [1 -1 -2 0 0 0 0];

internalField   nonuniform List<scalar> 
6888
(
424492
422578
419563
411360
406202
401972
397850
394005
391093
388005
386115
384478
383591
383202
383202
383243
383280
383296
383252
382947
425587
422423
420148
413608
410025
406192
402215
398652
395695
392789
390765
388871
387422
386588
386185
385531
385323
385193
385167
384786
427950
424971
421286
417087
413722
409465
405590
401680
398606
395850
393963
392150
390524
389159
388038
387327
386853
386580
386505
386097
428759
426810
423592
419713
416624
412325
408489
404576
401292
398468
396529
394702
393087
391714
390572
389644
388931
388441
388192
387718
428965
427723
425918
421958
418715
414564
410717
406696
403533
400783
398823
397013
395354
393942
392676
391687
390911
390219
389830
389290
428900
427827
426673
423446
419927
416163
412384
408530
405335
402604
400562
398728
397043
395618
394365
393360
392537
391805
391321
390685
429214
427098
426860
424273
420788
417198
413580
409942
406897
404155
402110
400205
398444
396987
395729
394688
393836
393097
392574
391852
429380
427532
426632
424428
421182
417875
414448
411035
408168
405497
403483
401510
399664
398108
396778
395728
394883
394141
393629
392861
429368
428057
426567
424493
421589
418579
415312
411933
409343
406722
404771
402733
400835
399164
397740
396639
395828
395082
394628
393853
429352
427743
426124
424403
421739
418903
416053
412751
410425
407849
405973
403887
401998
400192
398703
397530
396769
395981
395610
394874
428197
427514
425941
424216
421818
418981
416422
413417
411335
408769
406982
404888
403066
401192
399704
398470
397693
396842
396535
395866
425635
426338
425044
423255
421579
418958
416573
413748
412003
409512
407818
405712
404015
402134
400674
399424
398509
397677
397303
396726
424788
424437
424462
422590
421012
418737
416491
413792
412213
409913
408403
406375
404830
403059
401630
400359
399326
398417
397999
397480
424074
422838
423343
421871
420356
418308
416228
413745
412208
410107
408794
406950
405553
403900
402536
401214
400123
399159
398654
398171
423064
422698
422143
420878
419551
417760
415730
413543
412082
410130
409002
407325
406082
404546
403239
401943
400845
399889
399334
398840
422628
422241
421371
419940
418634
417067
415190
413210
411821
410079
408984
407556
406401
404949
403748
402502
401451
400529
399989
399538
420543
421114
419751
419344
417871
416401
414689
412906
411574
409984
408887
407570
406502
405165
404019
402898
401907
401056
400575
400188
419668
421053
419183
418743
417532
416017
414319
412629
411339
409834
408729
407476
406454
405280
404212
403151
402255
401502
401077
400716
420024
421032
419413
418335
417207
415817
414151
412527
411184
409718
408574
407373
406353
405269
404290
403351
402559
401855
401449
401134
419705
419915
419339
418207
417092
415745
414099
412486
411011
409636
408441
407282
406214
405173
404254
403391
402717
402124
401729
401454
420916
419126
419245
418206
417082
415735
414085
412427
410925
409542
408294
407188
406085
405097
404210
403402
402754
402244
401901
401678
421190
419331
419308
418351
417357
415870
414320
412575
410954
409647
408216
407132
405974
405033
404133
403348
402725
402246
401911
401734
419956
419501
419338
418569
417558
416109
414593
412795
411110
409672
408168
407102
405886
404926
404033
403268
402659
402199
401852
401673
420029
420781
420049
418815
418120
416346
414705
412809
411092
409577
408173
406974
405755
404718
403823
403082
402475
402021
401722
401590
420308
420557
420995
419022
418645
416614
414819
412828
410990
409406
407996
406696
405460
404348
403431
402705
402137
401714
401461
401356
420790
420411
421434
419808
419260
417123
415168
412974
410915
409157
407600
406247
404947
403805
402868
402126
401611
401253
401063
401017
423121
420825
422112
421518
420446
418051
415720
413030
410722
408695
406924
405473
404147
403011
402074
401326
400836
400556
400417
400473
424811
424163
423256
423744
421951
419294
416485
413108
410332
407976
405957
404354
402961
401804
400915
400221
399762
399546
399407
399628
425391
426439
426504
426556
423898
420694
416970
413007
409667
406893
404593
402810
401335
400202
399339
398698
398282
398164
398077
398353
427252
427933
427819
427739
425785
421731
417193
412525
408518
405315
402758
400812
399203
398045
397401
396924
396641
396598
396533
396970
428433
428531
428297
428078
426515
422070
416678
411058
406472
402901
400232
398174
396700
395571
394947
394637
394443
394638
394591
395111
429065
428651
428124
427695
426395
420749
413986
407809
402909
399229
396575
394826
393483
392549
392098
391865
391827
392340
392373
393002
429228
427767
424400
418879
417127
414278
406774
401413
397108
394154
391965
390625
389687
389093
388850
388841
389081
389686
389998
390734
428393
423335
417508
408622
398362
394652
393003
391260
388324
386971
386094
385576
385307
385214
385341
385713
386244
386913
387514
388289
417373
410676
398223
382885
373527
372300
372909
374709
375932
377777
378898
379411
380118
380968
381804
382457
383203
384047
384724
385629
358868
356585
352659
349680
345581
344452
346493
354644
361636
365813
369239
372264
374462
376151
377635
378799
379852
380856
381578
382632
331705
330488
328286
330637
330769
324552
326530
331735
344207
352445
358983
363972
367709
370612
372911
374724
376111
377342
378107
379297
321744
319752
316964
316575
314139
311046
312947
316110
328616
340825
349763
356031
360919
364950
368069
370489
372295
373809
374604
375881
319399
316545
312529
310168
306216
304633
302368
305719
322019
331716
341800
349465
355246
360189
363887
366769
368822
370633
371435
372725
319304
316126
311990
308825
303724
301822
298281
304125
315193
326413
337001
345182
351653
356975
360809
363901
366034
368106
368857
370077
323905
319131
316639
310870
304357
301040
297622
303244
313725
326942
336312
344882
350631
355808
359328
362276
364358
366527
367203
368237
335457
331893
327311
321853
316657
309509
305174
307874
316138
328480
337106
345358
351067
356084
359511
362520
364506
366036
366825
367448
353875
349705
344584
339204
331845
324172
320698
322307
326681
334687
341375
348022
352853
357331
360571
363132
364864
366251
366991
367585
373610
370046
366882
362107
354395
346657
343867
346819
349975
351079
353151
356437
359086
361871
363836
365220
366428
367345
367815
368230
391399
389444
387602
385062
379395
372359
369279
369391
373234
375531
375977
374275
373146
371823
370911
370615
370601
370623
370473
370268
406638
406027
405125
403953
400956
395350
388422
385594
384340
384521
384636
384700
384619
383156
381143
379570
377942
377024
376040
374743
417788
418165
418412
417245
415112
411040
406712
401275
396348
392403
390059
388460
387438
386751
386060
385252
383909
382726
381556
380091
425164
425861
426698
426096
424890
421147
417506
412047
407316
402999
399599
396199
393838
391940
390345
389180
387979
387039
386346
385196
430283
431376
431834
431530
430404
427286
423437
418180
413018
408672
405154
402178
399601
397126
395230
393775
392324
391175
390416
389188
433432
434154
434551
434122
433219
430968
427392
422527
417928
413702
409937
406530
403620
401301
399575
398149
396659
395327
394335
392848
435546
435783
435970
436036
435145
433250
429752
425698
421537
417574
413907
410652
408026
405678
403643
401955
400452
399181
398346
396963
436738
436734
436900
437592
436166
434650
431563
428080
424246
420595
417210
414184
411667
409193
407076
405418
404023
402851
402213
401013
438199
438120
437776
438635
437415
436266
433564
430152
426543
423220
420134
417287
414659
412088
410055
408404
407113
405967
405432
404377
440951
440715
440665
440355
440018
438552
435907
432409
428604
425142
422058
419212
416847
414446
412433
410758
409321
408141
407689
406856
442109
442507
442975
443012
443911
441610
438502
434128
430005
426049
422746
419828
417532
415151
413265
411741
410471
409303
408909
408299
442602
443281
443860
444213
445900
443841
440201
434642
430555
426227
422769
419830
417280
414983
413105
411548
410329
409442
408973
408683
441907
443283
444002
444725
446403
445590
440925
434759
430266
425425
421740
418653
415963
413679
411844
410386
409286
408529
408129
407949
439182
440895
441494
444291
445228
446161
440468
432169
427401
422109
418439
415388
412888
410836
409235
408032
407175
406575
406340
406352
436118
435773
434494
433035
431357
431009
428715
422844
419278
414698
412048
409678
407823
406348
405277
404432
403924
403595
403435
403855
424370
425322
425346
420647
411627
404481
402684
400560
401522
400523
401158
401352
400523
400062
399837
399607
399625
399681
399842
400453
372400
371796
371213
374041
376726
375969
371157
371757
375096
380937
385537
388116
389727
391480
393069
393933
394703
395310
395783
396569
350408
348760
348260
346739
346274
347109
341316
344075
350111
362837
369070
375136
379725
383491
386233
388001
389336
390624
391467
392522
344826
341792
340004
334609
332509
329204
328009
331337
334994
347671
355741
364343
370859
375990
379521
382281
384422
386288
387301
388540
344383
340868
338557
330779
327336
321425
322300
321514
320581
339372
346810
356874
364195
370246
374643
378245
380816
382813
383752
384991
351798
346246
340840
333387
326994
319430
320124
318209
320630
336452
344799
355809
362364
368641
372965
376440
378785
380788
381630
382713
363666
359572
355373
350875
343654
333730
325850
320312
325658
337942
346298
356750
363182
369297
373585
376862
379070
380740
381623
382203
383548
380588
376509
371831
365096
358463
347198
342131
345651
350105
355353
361975
367413
372542
375803
378027
379836
381243
382030
382417
400951
399126
397624
395032
391878
388128
382257
379725
380739
380901
380036
379281
379498
380465
381306
381999
382822
383483
383757
383746
418941
416802
417067
417535
417588
415530
409580
406040
405153
403944
403806
402311
398846
395126
392659
390860
389903
389388
388384
387440
432312
432290
432663
434019
434658
435490
433852
429106
424355
417391
411041
406182
403673
401664
400205
398507
396641
395324
393999
392704
438002
439626
440724
442787
444322
446672
445515
441600
434835
428217
422591
417246
412339
407918
404508
402336
400114
398400
397123
395882
439340
442448
444061
446367
448720
451336
450330
446277
439105
432538
426735
421500
416415
412477
408953
405854
403204
401270
400235
399229
440457
444323
445167
447281
450147
452660
451495
446968
440098
433027
426636
421039
415727
411587
408780
406252
404322
402946
402553
401850
439748
444561
444836
446036
445135
442696
439988
434693
432025
426538
421502
416922
412848
409484
407114
404979
404037
402653
402148
401578
385510
387848
386604
387253
388317
390977
395207
398999
399835
404405
404865
404734
403912
403237
402345
401480
401128
400596
400429
400439
363523
363669
362038
362012
361008
360559
360363
359367
361074
368559
376024
381893
386501
390871
393450
394286
395267
395983
396531
397265
355123
353938
352604
351786
349619
347723
346801
343488
346994
354372
363220
370646
376843
381061
384258
386376
388852
390854
391842
392770
353106
351325
350191
348890
346657
344010
341754
339145
341965
346392
356151
363345
371107
375489
379301
382366
385487
387738
388648
389676
354817
351353
349976
348572
346699
343920
340534
338789
340263
345778
355721
362006
369878
373850
378565
381653
384488
386198
387063
388093
377541
372698
366485
363150
360731
356686
352176
348571
346773
350694
358071
363748
370933
374797
379146
382228
384909
386395
387351
388329
407123
404436
401140
392624
384529
375430
370203
365688
364426
366486
369004
372174
375940
378970
382379
385022
386695
387666
388672
388980
420578
419639
418887
416920
412668
408306
404611
397442
395178
394849
393062
392099
391252
390975
390862
390818
390927
391143
391579
390982
423833
423676
424912
427304
425985
424538
423758
418358
415005
410312
407829
406717
405405
403323
400994
399398
398176
397146
396856
395649
417322
422349
425135
429570
429543
429742
430820
427735
424096
417260
412936
409390
406493
403845
402254
401242
400894
400619
400715
399674
396624
399189
399103
403737
414905
427310
432894
428653
424232
419699
415745
412404
409561
406256
403524
401815
401202
400125
399601
398830
388822
389620
387958
389077
392850
397922
399324
404136
402615
409506
409538
410437
409234
407362
405288
403869
403410
402388
401917
401344
387506
387712
385511
384055
383893
384678
384961
384008
384929
392295
395508
398589
398776
399728
400921
401966
403083
403672
403789
402949
390210
388418
385666
383395
382185
381047
380352
379777
381294
388471
392886
396398
398603
400133
402042
403692
404925
405063
404649
403727
413157
408694
404162
401319
396877
390640
386159
383866
384624
390754
395748
399612
403193
405881
408225
409818
410631
409843
409258
407559
445004
442363
438552
432884
427394
420456
415168
413709
415362
415776
415867
416223
416415
416782
417388
417647
418031
416991
417055
415420
458573
457247
454965
452440
450997
450712
449980
448555
447920
445828
442739
439589
436715
433822
431274
428703
427526
426090
426201
425266
460455
460099
459522
459618
460325
462716
464953
465411
463168
459493
454240
449703
445824
442362
439458
436413
434144
432051
431527
430702
456095
457650
459393
460393
462250
464630
468542
471793
470092
467081
460757
455066
449708
445341
441864
439045
436870
434846
434267
433521
453375
455169
456705
457956
459531
462758
466387
469912
471215
469161
463610
457337
451474
446438
442739
439901
437787
435856
435071
434404
450368
451215
451955
452467
452171
452077
452887
452469
454925
454057
453115
449765
446098
443494
440587
437987
436096
434616
434128
434031
431869
433310
433513
435335
437482
439897
443685
443429
438524
437196
433168
429209
426915
427403
427684
427872
427949
427451
426950
427284
396963
397450
396487
396226
396146
396087
396376
395749
395880
394747
393309
391933
391978
397261
402565
407357
411747
415087
415176
416219
381815
381864
380271
378740
377179
375733
374297
373432
373489
372697
372108
370008
371559
378693
383556
387831
391244
393243
394701
396949
377973
377997
376121
373849
371091
368377
365749
363959
363122
362420
362156
361065
362331
365735
369843
373132
376237
379515
382056
384774
377571
377555
375606
373093
370229
367475
364746
362671
360935
359342
358399
357707
359210
360852
364425
367347
370038
372749
374342
376577
379045
379686
379445
379627
379811
378083
375263
370227
364332
360099
358413
358203
359738
361315
363719
365626
367505
369076
370076
370833
383335
384111
384704
384931
384447
383121
381283
378656
375570
372046
370084
369482
369787
369745
369767
369758
369801
370169
370523
370830
387494
388062
388010
387391
386273
384832
383387
382042
380649
379024
377436
377141
377320
376770
376194
375644
374946
374397
373824
373378
389406
389933
389428
388193
386689
385144
383671
382577
381821
381191
380346
380773
380655
380118
379468
378959
378370
377962
377556
377163
389953
390506
389712
388217
386247
383973
381797
380404
379888
379829
380347
381195
381662
380730
380207
379547
379019
378609
378267
378021
367276
368614
369506
370729
372494
374827
376823
377383
377230
377058
377646
378655
379258
378700
379380
378981
379380
379061
379266
379091
354311
356461
358047
359865
361825
364261
367343
370915
373989
375690
377053
378133
377935
377804
377720
377946
377971
378048
378069
377920
348234
350993
352848
355017
357206
359543
362517
365987
369843
373452
376714
378642
379878
381442
381367
381471
381248
381226
381246
381124
345952
349015
350915
353578
356029
358406
361218
363858
366342
369073
372537
375903
380197
382414
382663
381824
381839
380831
380936
380518
351147
355461
356114
358089
359554
360855
362358
363846
365549
367416
370884
374441
378585
380829
382210
382554
382867
382764
382719
382708
406503
404838
399714
392835
386800
383217
381392
379593
378913
379545
381618
381913
381772
380637
379313
378437
378072
378288
378230
378293
459614
458519
455175
449789
443794
435202
427077
420982
417182
413114
405673
396761
389890
384062
381237
381415
381997
382164
382509
382711
473072
473171
472915
472335
471355
468572
463452
455005
444997
431200
415723
402442
392669
384515
380154
377773
376011
376461
375932
376349
465663
468693
472156
474712
477164
478801
477834
468576
452819
432959
416390
404072
394336
385789
380394
377951
380418
381569
381953
382191
281449
285089
288735
292905
297492
302331
307466
312465
323120
343151
367459
379356
382211
381139
377153
371862
369595
363909
362691
363893
212135
214794
216798
219175
222361
226446
231360
236539
242492
250800
261519
271684
280974
295024
315115
342595
359076
365107
370269
372215
189975
192684
194166
195758
197286
199316
201648
204456
207359
210424
214733
220212
226546
234187
244446
257342
271222
286083
305590
322187
184919
188306
189289
190087
190542
191313
192223
193524
195040
196938
199408
202147
205183
208238
212223
216718
222789
228666
238250
245347
184732
189421
189344
189863
190093
190513
191098
191875
192728
194034
195976
197914
200022
200979
202668
203753
206700
207976
212814
214740
212956
217809
215923
215093
213253
211453
209314
207628
205875
204558
203572
201754
201156
200547
201611
200864
203899
203672
207502
206657
269670
273408
271556
268741
265298
260987
256243
251301
246164
241243
236669
231936
227918
222893
221002
214890
215963
208292
210731
205817
336037
339850
337505
334096
330013
325195
319669
313805
307391
301091
294834
288157
280881
273187
265265
256042
251076
236152
238481
222503
418365
422077
418426
413736
408324
402071
395136
387620
379795
372249
364730
356920
348666
339444
329790
319299
309213
292938
289455
261659
507123
511411
506273
501152
494917
487972
480247
471822
463026
454512
446137
437598
428403
418561
408284
396471
385332
369067
361171
334632
596065
600775
594651
589750
583005
575601
567432
558622
549467
540578
531851
522893
513462
503121
492295
479784
469192
451168
443705
416928
680657
685609
679465
675089
668483
661217
653246
644676
635756
627106
618602
610000
600726
590621
580058
567943
556694
539353
531302
503916
756662
761282
754908
751134
744684
737773
730161
722042
713641
705400
697450
689339
680742
671343
661655
649939
640064
623497
616020
591003
825252
830041
824235
821224
815375
809007
802013
794545
786807
779316
772042
764708
756840
748250
739281
728630
719200
704022
697511
673733
885250
889497
884391
882430
877406
871918
865574
858941
852320
845872
839634
833153
826264
818697
810802
801316
793040
779775
773568
753625
937314
941313
937801
935452
932661
928060
922323
917125
911712
906267
900785
895137
889023
882381
875255
867023
858972
847503
841631
823423
975925
978462
976131
974171
972133
968288
963562
959964
956149
951998
947925
943751
939200
934149
928697
922361
915923
907240
901597
887287
1.00516e+06
1.00722e+06
1.00488e+06
1.00433e+06
1.00268e+06
999212
995147
993857
990798
986450
982489
980819
977979
974898
971606
967476
963752
957881
954896
945726
1.03105e+06
1.03217e+06
1.03055e+06
1.02902e+06
1.02612e+06
1.02246e+06
1.02035e+06
1.01834e+06
1.0155e+06
1.01187e+06
1.00881e+06
1.00688e+06
1.00608e+06
1.00462e+06
1.00291e+06
1.00109e+06
999130
997054
995268
992523
1.04281e+06
1.04394e+06
1.04386e+06
1.04232e+06
1.03989e+06
1.03709e+06
1.03469e+06
1.03264e+06
1.03043e+06
1.02856e+06
1.02708e+06
1.02651e+06
1.02556e+06
1.02461e+06
1.02381e+06
1.02272e+06
1.02174e+06
1.02058e+06
1.02066e+06
1.01933e+06
1.04974e+06
1.05116e+06
1.05033e+06
1.0493e+06
1.0479e+06
1.04646e+06
1.04494e+06
1.04332e+06
1.04185e+06
1.04067e+06
1.04006e+06
1.03984e+06
1.03952e+06
1.0392e+06
1.03864e+06
1.0384e+06
1.03767e+06
1.03724e+06
1.03685e+06
1.03644e+06
1.05792e+06
1.059e+06
1.05884e+06
1.05875e+06
1.05781e+06
1.05669e+06
1.05515e+06
1.0536e+06
1.05231e+06
1.05146e+06
1.05093e+06
1.05056e+06
1.05035e+06
1.04988e+06
1.04975e+06
1.04937e+06
1.04905e+06
1.04863e+06
1.04836e+06
1.0481e+06
1.06309e+06
1.06426e+06
1.06357e+06
1.06309e+06
1.06266e+06
1.06236e+06
1.0621e+06
1.06176e+06
1.06124e+06
1.06052e+06
1.05958e+06
1.05856e+06
1.05773e+06
1.05718e+06
1.05669e+06
1.05628e+06
1.05585e+06
1.05556e+06
1.05532e+06
1.05524e+06
1.06406e+06
1.06514e+06
1.06527e+06
1.06522e+06
1.06502e+06
1.06492e+06
1.06489e+06
1.06491e+06
1.06479e+06
1.06458e+06
1.06427e+06
1.0638e+06
1.06299e+06
1.06213e+06
1.0615e+06
1.0611e+06
1.0608e+06
1.06056e+06
1.06038e+06
1.06032e+06
1.06608e+06
1.06699e+06
1.06718e+06
1.06713e+06
1.067e+06
1.06697e+06
1.06701e+06
1.06705e+06
1.06695e+06
1.06681e+06
1.06668e+06
1.06656e+06
1.06651e+06
1.06637e+06
1.06603e+06
1.06566e+06
1.06537e+06
1.06525e+06
1.06513e+06
1.06516e+06
1.06668e+06
1.06735e+06
1.06789e+06
1.06819e+06
1.06843e+06
1.06868e+06
1.06892e+06
1.06906e+06
1.06912e+06
1.06907e+06
1.06905e+06
1.06908e+06
1.06928e+06
1.06968e+06
1.0702e+06
1.07071e+06
1.0711e+06
1.07137e+06
1.07147e+06
1.07152e+06
1.06696e+06
1.0677e+06
1.06823e+06
1.06861e+06
1.06906e+06
1.06945e+06
1.06987e+06
1.07029e+06
1.07069e+06
1.07112e+06
1.07169e+06
1.07226e+06
1.07266e+06
1.0729e+06
1.07301e+06
1.07315e+06
1.07332e+06
1.0736e+06
1.0739e+06
1.07424e+06
1.06811e+06
1.06856e+06
1.06921e+06
1.06969e+06
1.0703e+06
1.07089e+06
1.0715e+06
1.07212e+06
1.07274e+06
1.07324e+06
1.0736e+06
1.0737e+06
1.07373e+06
1.07377e+06
1.07384e+06
1.07392e+06
1.07395e+06
1.0739e+06
1.07387e+06
1.07392e+06
1.07184e+06
1.07176e+06
1.07265e+06
1.07289e+06
1.07358e+06
1.07404e+06
1.07458e+06
1.07493e+06
1.07514e+06
1.07513e+06
1.07504e+06
1.07499e+06
1.07495e+06
1.07489e+06
1.07473e+06
1.07455e+06
1.07436e+06
1.07423e+06
1.07405e+06
1.07398e+06
1.07733e+06
1.07724e+06
1.07752e+06
1.07721e+06
1.07742e+06
1.07736e+06
1.0774e+06
1.07735e+06
1.07722e+06
1.077e+06
1.07672e+06
1.07636e+06
1.07594e+06
1.07552e+06
1.0751e+06
1.07468e+06
1.07425e+06
1.07391e+06
1.07368e+06
1.07356e+06
1.07847e+06
1.07827e+06
1.07798e+06
1.07742e+06
1.07722e+06
1.07699e+06
1.07688e+06
1.07678e+06
1.07665e+06
1.07647e+06
1.07625e+06
1.07602e+06
1.07579e+06
1.07555e+06
1.07525e+06
1.07498e+06
1.07474e+06
1.07456e+06
1.07443e+06
1.07439e+06
1.07756e+06
1.07781e+06
1.07786e+06
1.07761e+06
1.07729e+06
1.07693e+06
1.07656e+06
1.07623e+06
1.07595e+06
1.07571e+06
1.07562e+06
1.07566e+06
1.07574e+06
1.07584e+06
1.07607e+06
1.07635e+06
1.0766e+06
1.07682e+06
1.07695e+06
1.077e+06
1.07759e+06
1.0775e+06
1.07732e+06
1.07702e+06
1.07664e+06
1.07623e+06
1.07583e+06
1.07548e+06
1.07531e+06
1.0754e+06
1.07559e+06
1.07583e+06
1.07618e+06
1.07664e+06
1.07702e+06
1.07739e+06
1.07772e+06
1.07803e+06
1.07831e+06
1.07857e+06
1.07607e+06
1.07603e+06
1.07582e+06
1.07554e+06
1.07527e+06
1.07508e+06
1.07498e+06
1.07508e+06
1.07533e+06
1.07562e+06
1.07593e+06
1.07625e+06
1.07653e+06
1.07674e+06
1.07697e+06
1.07718e+06
1.07737e+06
1.07752e+06
1.07758e+06
1.07758e+06
1.07464e+06
1.07489e+06
1.07502e+06
1.0751e+06
1.07516e+06
1.07525e+06
1.07544e+06
1.07569e+06
1.07596e+06
1.07622e+06
1.07644e+06
1.07657e+06
1.07665e+06
1.07673e+06
1.07672e+06
1.07667e+06
1.07658e+06
1.07649e+06
1.07636e+06
1.07625e+06
1.07549e+06
1.07573e+06
1.07598e+06
1.07618e+06
1.07635e+06
1.07648e+06
1.07662e+06
1.07672e+06
1.07681e+06
1.07685e+06
1.07682e+06
1.07677e+06
1.07666e+06
1.07644e+06
1.07613e+06
1.07584e+06
1.07553e+06
1.07525e+06
1.07507e+06
1.07494e+06
1.0767e+06
1.07671e+06
1.07678e+06
1.07679e+06
1.07677e+06
1.07669e+06
1.07665e+06
1.07661e+06
1.07662e+06
1.0766e+06
1.07658e+06
1.07651e+06
1.07637e+06
1.07622e+06
1.07611e+06
1.076e+06
1.07589e+06
1.07576e+06
1.07563e+06
1.07554e+06
1.07645e+06
1.07643e+06
1.07656e+06
1.07658e+06
1.07662e+06
1.0766e+06
1.07657e+06
1.07643e+06
1.07633e+06
1.0762e+06
1.07613e+06
1.07607e+06
1.07605e+06
1.07608e+06
1.07613e+06
1.07624e+06
1.0764e+06
1.07662e+06
1.07686e+06
1.07708e+06
1.07568e+06
1.07577e+06
1.07614e+06
1.07632e+06
1.07645e+06
1.07643e+06
1.07634e+06
1.07612e+06
1.07595e+06
1.0758e+06
1.07572e+06
1.07569e+06
1.07575e+06
1.07588e+06
1.07606e+06
1.07624e+06
1.07641e+06
1.07657e+06
1.07673e+06
1.0769e+06
1.07476e+06
1.07469e+06
1.07515e+06
1.07536e+06
1.0756e+06
1.07571e+06
1.07582e+06
1.07584e+06
1.07585e+06
1.07575e+06
1.07566e+06
1.07558e+06
1.07554e+06
1.07555e+06
1.07566e+06
1.07585e+06
1.07607e+06
1.0762e+06
1.07623e+06
1.07615e+06
1.07469e+06
1.07454e+06
1.07481e+06
1.07484e+06
1.07518e+06
1.07543e+06
1.07575e+06
1.07588e+06
1.07596e+06
1.07593e+06
1.07588e+06
1.07578e+06
1.07571e+06
1.07564e+06
1.07557e+06
1.07551e+06
1.07542e+06
1.07535e+06
1.07534e+06
1.07522e+06
1.07558e+06
1.07544e+06
1.07567e+06
1.07551e+06
1.0757e+06
1.07568e+06
1.07581e+06
1.07585e+06
1.07591e+06
1.07589e+06
1.07588e+06
1.07585e+06
1.07582e+06
1.07579e+06
1.07575e+06
1.07567e+06
1.07559e+06
1.07548e+06
1.07539e+06
1.07534e+06
1.07651e+06
1.07633e+06
1.07628e+06
1.07601e+06
1.07598e+06
1.07581e+06
1.07583e+06
1.07574e+06
1.07572e+06
1.07568e+06
1.0757e+06
1.07571e+06
1.07573e+06
1.07576e+06
1.07577e+06
1.07581e+06
1.07586e+06
1.07593e+06
1.07602e+06
1.07608e+06
1.07579e+06
1.07577e+06
1.07583e+06
1.07578e+06
1.07583e+06
1.07571e+06
1.0757e+06
1.07555e+06
1.07548e+06
1.0754e+06
1.0754e+06
1.07542e+06
1.07549e+06
1.07555e+06
1.07564e+06
1.0757e+06
1.07578e+06
1.07584e+06
1.07591e+06
1.07596e+06
1.07473e+06
1.07479e+06
1.07514e+06
1.07517e+06
1.0753e+06
1.07522e+06
1.07521e+06
1.07508e+06
1.07503e+06
1.07499e+06
1.07503e+06
1.07509e+06
1.07517e+06
1.07524e+06
1.0753e+06
1.07536e+06
1.0754e+06
1.0754e+06
1.07541e+06
1.07529e+06
1.074e+06
1.07383e+06
1.07405e+06
1.07402e+06
1.07418e+06
1.07418e+06
1.07424e+06
1.0742e+06
1.07426e+06
1.07434e+06
1.07448e+06
1.07458e+06
1.07466e+06
1.0747e+06
1.07472e+06
1.07474e+06
1.07476e+06
1.07467e+06
1.07468e+06
1.07448e+06
1.07407e+06
1.07388e+06
1.07387e+06
1.07367e+06
1.07358e+06
1.07337e+06
1.07329e+06
1.07323e+06
1.07334e+06
1.07347e+06
1.07359e+06
1.07368e+06
1.07378e+06
1.07388e+06
1.07396e+06
1.07399e+06
1.074e+06
1.07384e+06
1.07383e+06
1.07363e+06
1.07417e+06
1.074e+06
1.07396e+06
1.0738e+06
1.0737e+06
1.07352e+06
1.07343e+06
1.07336e+06
1.07339e+06
1.07341e+06
1.07341e+06
1.07339e+06
1.07337e+06
1.07333e+06
1.07329e+06
1.0732e+06
1.07319e+06
1.07309e+06
1.07302e+06
1.07275e+06
1.07399e+06
1.07381e+06
1.0738e+06
1.0737e+06
1.07366e+06
1.07359e+06
1.07363e+06
1.07366e+06
1.07372e+06
1.07369e+06
1.07365e+06
1.07357e+06
1.07346e+06
1.07332e+06
1.07314e+06
1.07292e+06
1.07269e+06
1.0725e+06
1.07233e+06
1.07208e+06
1.0735e+06
1.07338e+06
1.07344e+06
1.07342e+06
1.07346e+06
1.07346e+06
1.07353e+06
1.07354e+06
1.07359e+06
1.07358e+06
1.07355e+06
1.07346e+06
1.07334e+06
1.07315e+06
1.07293e+06
1.0727e+06
1.07246e+06
1.07216e+06
1.07195e+06
1.07178e+06
1.07297e+06
1.07293e+06
1.07305e+06
1.07307e+06
1.07317e+06
1.07318e+06
1.07324e+06
1.07324e+06
1.07324e+06
1.07319e+06
1.07311e+06
1.07302e+06
1.07289e+06
1.0727e+06
1.0725e+06
1.0723e+06
1.07208e+06
1.0719e+06
1.07184e+06
1.07188e+06
1.07241e+06
1.0724e+06
1.07257e+06
1.07262e+06
1.07272e+06
1.07273e+06
1.07277e+06
1.07272e+06
1.07273e+06
1.07264e+06
1.07253e+06
1.07241e+06
1.07227e+06
1.07211e+06
1.07195e+06
1.07177e+06
1.07164e+06
1.07164e+06
1.07179e+06
1.07193e+06
1.07185e+06
1.07182e+06
1.07202e+06
1.07205e+06
1.07215e+06
1.07214e+06
1.07215e+06
1.07207e+06
1.07203e+06
1.07192e+06
1.07183e+06
1.07173e+06
1.07161e+06
1.07149e+06
1.07138e+06
1.07131e+06
1.07136e+06
1.0715e+06
1.07166e+06
1.07171e+06
1.07128e+06
1.07122e+06
1.0714e+06
1.07139e+06
1.07148e+06
1.07144e+06
1.07146e+06
1.07137e+06
1.0713e+06
1.07122e+06
1.07116e+06
1.07107e+06
1.07098e+06
1.07092e+06
1.0709e+06
1.07099e+06
1.07116e+06
1.07132e+06
1.0714e+06
1.07136e+06
1.07069e+06
1.0706e+06
1.07071e+06
1.07066e+06
1.07072e+06
1.07068e+06
1.0707e+06
1.07065e+06
1.07062e+06
1.07057e+06
1.07054e+06
1.07049e+06
1.07046e+06
1.07049e+06
1.0706e+06
1.07077e+06
1.07093e+06
1.07099e+06
1.07099e+06
1.07092e+06
1.07003e+06
1.06994e+06
1.07001e+06
1.06995e+06
1.06999e+06
1.06997e+06
1.07002e+06
1.07001e+06
1.07005e+06
1.07004e+06
1.07006e+06
1.07007e+06
1.07011e+06
1.07021e+06
1.07034e+06
1.07047e+06
1.0705e+06
1.07048e+06
1.0705e+06
1.07037e+06
1.06934e+06
1.06926e+06
1.06931e+06
1.06927e+06
1.06934e+06
1.06936e+06
1.06945e+06
1.0695e+06
1.06958e+06
1.06963e+06
1.0697e+06
1.06975e+06
1.06982e+06
1.06988e+06
1.06994e+06
1.06996e+06
1.06995e+06
1.06994e+06
1.06995e+06
1.06983e+06
1.06872e+06
1.06866e+06
1.06874e+06
1.06873e+06
1.06884e+06
1.0689e+06
1.06902e+06
1.06912e+06
1.06922e+06
1.06929e+06
1.06937e+06
1.0694e+06
1.06942e+06
1.06944e+06
1.06945e+06
1.06944e+06
1.06943e+06
1.06945e+06
1.06946e+06
1.06945e+06
1.06813e+06
1.0681e+06
1.06823e+06
1.06825e+06
1.06838e+06
1.06849e+06
1.06863e+06
1.06873e+06
1.06885e+06
1.06891e+06
1.06895e+06
1.06898e+06
1.06897e+06
1.06895e+06
1.06896e+06
1.06897e+06
1.06898e+06
1.06903e+06
1.06904e+06
1.06908e+06
1.06759e+06
1.06758e+06
1.06774e+06
1.06781e+06
1.06794e+06
1.06805e+06
1.06818e+06
1.06825e+06
1.06833e+06
1.06838e+06
1.06841e+06
1.0684e+06
1.06838e+06
1.06838e+06
1.06839e+06
1.06843e+06
1.06846e+06
1.06855e+06
1.06854e+06
1.06859e+06
1.06712e+06
1.06712e+06
1.06725e+06
1.06735e+06
1.06745e+06
1.06751e+06
1.06758e+06
1.06763e+06
1.06768e+06
1.06771e+06
1.06775e+06
1.06773e+06
1.06776e+06
1.06778e+06
1.06781e+06
1.06787e+06
1.06789e+06
1.06796e+06
1.06797e+06
1.06805e+06
1.06665e+06
1.06665e+06
1.06675e+06
1.06679e+06
1.06686e+06
1.06687e+06
1.06692e+06
1.06692e+06
1.067e+06
1.067e+06
1.06707e+06
1.06708e+06
1.06715e+06
1.06719e+06
1.06724e+06
1.06727e+06
1.06728e+06
1.06737e+06
1.06736e+06
1.06744e+06
1.06609e+06
1.06608e+06
1.06617e+06
1.06616e+06
1.06621e+06
1.06619e+06
1.06625e+06
1.06624e+06
1.06631e+06
1.06638e+06
1.06644e+06
1.0665e+06