/*--------------------------------*- C++ -*----------------------------------*\
| =========                 |                                                 |
| \\      /  F ield         | OpenFOAM: The Open Source CFD Toolbox           |
|  \\    /   O peration     | Version:  2212                                  |
|   \\  /    A nd           | Website:  www.openfoam.com                      |
|    \\/     M anipulation  |                                                 |
\*---------------------------------------------------------------------------*/
FoamFile
{
    version     2.0;
    format      ascii;
    arch        "LSB;label=32;scalar=64";
    class       volScalarField;
    location    "0.4079";
    object      s;
}
// * * * * * * * * * * * * * * * * * * * * * * * * * * * * * * * * * * * * * //

dimensions      [0 0 0 0 0 0 0];

internalField   nonuniform List<scalar> 
24240
(
5.76315e-73
5.72699e-73
5.76916e-73
5.69972e-73
5.69393e-73
5.78024e-73
5.75414e-73
5.63219e-73
5.67525e-73
5.825e-73
5.71348e-73
5.81268e-73
5.74314e-73
5.82236e-73
5.67976e-73
5.85219e-73
5.66802e-73
5.73288e-73
5.70794e-73
5.57243e-73
2.022e-70
2.0101e-70
2.02464e-70
2.00066e-70
1.9981e-70
2.02865e-70
2.01941e-70
1.97686e-70
1.99194e-70
2.04434e-70
2.00535e-70
2.03973e-70
2.01605e-70
2.04337e-70
1.99367e-70
2.0537e-70
1.98979e-70
2.01233e-70
2.00331e-70
1.95563e-70
3.56989e-68
3.55027e-68
3.57547e-68
3.53378e-68
3.52836e-68
3.58274e-68
3.5663e-68
3.49163e-68
3.51823e-68
3.61044e-68
3.54187e-68
3.60181e-68
3.56129e-68
3.60868e-68
3.52152e-68
3.62664e-68
3.51512e-68
3.55452e-68
3.53812e-68
3.45374e-68
3.69095e-66
3.67207e-66
3.69765e-66
3.65519e-66
3.64866e-66
3.70532e-66
3.6882e-66
3.61146e-66
3.63894e-66
3.73392e-66
3.66332e-66
3.72446e-66
3.68391e-66
3.73198e-66
3.6425e-66
3.75023e-66
3.63635e-66
3.67662e-66
3.65922e-66
3.57183e-66
2.69566e-64
2.68291e-64
2.70122e-64
2.67068e-64
2.66523e-64
2.70692e-64
2.69434e-64
2.63865e-64
2.65874e-64
2.72779e-64
2.67648e-64
2.7205e-64
2.69189e-64
2.7263e-64
2.66144e-64
2.73936e-64
2.65732e-64
2.68636e-64
2.67336e-64
2.60951e-64
1.36565e-62
1.3597e-62
1.36877e-62
1.35353e-62
1.35043e-62
1.3717e-62
1.36529e-62
1.33726e-62
1.34747e-62
1.38224e-62
1.3564e-62
1.37835e-62
1.36437e-62
1.38143e-62
1.34882e-62
1.38788e-62
1.34695e-62
1.36143e-62
1.35472e-62
1.32241e-62
4.80452e-61
4.78537e-61
4.81653e-61
4.76371e-61
4.75159e-61
4.82687e-61
4.80426e-61
4.7064e-61
4.74256e-61
4.86386e-61
4.7737e-61
4.84946e-61
4.80224e-61
4.86078e-61
4.74712e-61
4.88274e-61
4.74136e-61
4.79134e-61
4.76736e-61
4.6542e-61
1.1031e-59
1.09907e-59
1.10604e-59
1.09408e-59
1.09104e-59
1.10838e-59
1.1032e-59
1.08092e-59
1.08937e-59
1.11681e-59
1.09639e-59
1.11337e-59
1.10298e-59
1.11604e-59
1.09022e-59
1.12083e-59
1.08915e-59
1.10031e-59
1.09477e-59
1.06911e-59
7.28515e-59
7.26242e-59
7.30733e-59
7.22929e-59
7.20748e-59
7.32178e-59
7.28828e-59
7.14286e-59
7.20121e-59
7.37693e-59
7.24581e-59
7.35354e-59
7.28859e-59
7.37109e-59
7.20352e-59
7.39993e-59
7.19898e-59
7.26899e-59
7.23285e-59
7.06705e-59
2.14923e-59
2.15146e-59
2.16814e-59
2.13662e-59
2.13418e-59
2.14985e-59
2.15209e-59
2.11642e-59
2.17051e-59
2.15706e-59
2.16184e-59
2.1609e-59
2.14524e-59
2.15013e-59
2.11944e-59
2.13388e-59
2.13972e-59
2.12967e-59
2.1344e-59
2.13894e-59
3.88044e-59
3.89806e-59
3.93796e-59
3.86827e-59
3.85221e-59
3.85668e-59
3.88225e-59
3.83321e-59
3.9362e-59
3.92169e-59
3.93405e-59
3.90287e-59
3.90047e-59
3.86758e-59
3.8401e-59
3.85985e-59
3.82375e-59
3.84298e-59
3.86329e-59
3.85458e-59
4.19837e-59
4.21887e-59
4.24564e-59
4.16818e-59
4.18068e-59
4.137e-59
4.21079e-59
4.1718e-59
4.20051e-59
4.28068e-59
4.23077e-59
4.1669e-59
4.24353e-59
4.2114e-59
4.19403e-59
4.22179e-59
4.09842e-59
4.17726e-59
4.15148e-59
4.14711e-59
5.02256e-59
5.04778e-59
5.06681e-59
5.0704e-59
5.08345e-59
5.12678e-59
5.16601e-59
5.10451e-59
5.08885e-59
5.02792e-59
5.03042e-59
5.04231e-59
5.09103e-59
5.10923e-59
5.04427e-59
5.07425e-59
5.07761e-59
5.05961e-59
5.01509e-59
5.03947e-59
5.31163e-59
5.27421e-59
5.29733e-59
5.38196e-59
5.35747e-59
5.40808e-59
5.31542e-59
5.42546e-59
5.28138e-59
5.23259e-59
5.23367e-59
5.28467e-59
5.27764e-59
5.22559e-59
5.20956e-59
5.26043e-59
5.19805e-59
5.28822e-59
5.2541e-59
5.3198e-59
5.55458e-59
5.53155e-59
5.60995e-59
5.54648e-59
5.54253e-59
5.63747e-59
5.58258e-59
5.68287e-59
5.56334e-59
5.64669e-59
5.60102e-59
5.62036e-59
5.62184e-59
5.66931e-59
5.60704e-59
5.70127e-59
5.58542e-59
5.52454e-59
5.58454e-59
5.53906e-59
5.44566e-59
5.39581e-59
5.3661e-59
5.3816e-59
5.4304e-59
5.46999e-59
5.45234e-59
5.43493e-59
5.35347e-59
5.37189e-59
5.31278e-59
5.43708e-59
5.45625e-59
5.4936e-59
5.49543e-59
5.45982e-59
5.44159e-59
5.46455e-59
5.41668e-59
5.42501e-59
5.10405e-59
5.18828e-59
5.10723e-59
5.23234e-59
5.08934e-59
5.19097e-59
5.11051e-59
5.18867e-59
5.13306e-59
5.1787e-59
5.1391e-59
5.2536e-59
5.14639e-59
5.2673e-59
5.14951e-59
5.18017e-59
5.2045e-59
5.09369e-59
5.21895e-59
5.21464e-59
4.57275e-59
4.69243e-59
4.66876e-59
4.61549e-59
4.58569e-59
4.72482e-59
4.64486e-59
4.67527e-59
4.6479e-59
4.58478e-59
4.62168e-59
4.69845e-59
4.62489e-59
4.75196e-59
4.62934e-59
4.69546e-59
4.69822e-59
4.66515e-59
4.70861e-59
4.73177e-59
4.48022e-59
4.48402e-59
4.49774e-59
4.5348e-59
4.53299e-59
4.53587e-59
4.45049e-59
4.5564e-59
4.57938e-59
4.48472e-59
4.55442e-59
4.58809e-59
4.45166e-59
4.60058e-59
4.58636e-59
4.65376e-59
4.55561e-59
4.57587e-59
4.53135e-59
4.61117e-59
2.77565e-59
2.80017e-59
2.79994e-59
2.77078e-59
2.79156e-59
2.78624e-59
2.78921e-59
2.79731e-59
2.76817e-59
2.81796e-59
2.75842e-59
2.8196e-59
2.76425e-59
2.84805e-59
2.77211e-59
2.77721e-59
2.77783e-59
2.83032e-59
2.79244e-59
2.84634e-59
1.25365e-71
1.24625e-71
1.25531e-71
1.24045e-71
1.2389e-71
1.25787e-71
1.25214e-71
1.22576e-71
1.23508e-71
1.26766e-71
1.24342e-71
1.26481e-71
1.25005e-71
1.26702e-71
1.23615e-71
1.27344e-71
1.23364e-71
1.24766e-71
1.24205e-71
1.21239e-71
4.34637e-69
4.32247e-69
4.35333e-69
4.30261e-69
4.29612e-69
4.36242e-69
4.34239e-69
4.25146e-69
4.28371e-69
4.39634e-69
4.31261e-69
4.38583e-69
4.33624e-69
4.39405e-69
4.28774e-69
4.41599e-69
4.27957e-69
4.32772e-69
4.30769e-69
4.20452e-69
7.55147e-67
7.51297e-67
7.56563e-67
7.47884e-67
7.46566e-67
7.58178e-67
7.54672e-67
7.38967e-67
7.44565e-67
7.64071e-67
7.4958e-67
7.6214e-67
7.53799e-67
7.63661e-67
7.45318e-67
7.67416e-67
7.43995e-67
7.52273e-67
7.48699e-67
7.30721e-67
7.7165e-65
7.68025e-65
7.73305e-65
7.64568e-65
7.63027e-65
7.74982e-65
7.71374e-65
7.55421e-65
7.61139e-65
7.80994e-65
7.66249e-65
7.78907e-65
7.70668e-65
7.80549e-65
7.6194e-65
7.84319e-65
7.60687e-65
7.69048e-65
7.65307e-65
7.46892e-65
5.54866e-63
5.52481e-63
5.562e-63
5.50012e-63
5.48765e-63
5.57424e-63
5.54814e-63
5.43417e-63
5.47533e-63
5.61743e-63
5.51194e-63
5.60162e-63
5.54449e-63
5.61408e-63
5.4813e-63
5.64064e-63
5.47308e-63
5.53241e-63
5.50493e-63
5.37237e-63
2.77646e-61
2.76559e-61
2.7838e-61
2.75327e-61
2.74635e-61
2.78996e-61
2.77684e-61
2.72019e-61
2.74084e-61
2.81152e-61
2.75905e-61
2.8032e-61
2.77567e-61
2.80972e-61
2.74382e-61
2.82268e-61
2.74012e-61
2.76935e-61
2.75536e-61
2.68907e-61
9.628e-60
9.59404e-60
9.65564e-60
9.55135e-60
9.52495e-60
9.67705e-60
9.63144e-60
9.43646e-60
9.5086e-60
9.75159e-60
9.57115e-60
9.72132e-60
9.62983e-60
9.7449e-60
9.5185e-60
9.78836e-60
9.50737e-60
9.60673e-60
9.5576e-60
9.32856e-60
2.17883e-58
2.1719e-58
2.18547e-58
2.16217e-58
2.15569e-58
2.19022e-58
2.17993e-58
2.13617e-58
2.15279e-58
2.20697e-58
2.16668e-58
2.19984e-58
2.18005e-58
2.20532e-58
2.15465e-58
2.21467e-58
2.15263e-58
2.17448e-58
2.16333e-58
2.11209e-58
1.41917e-57
1.41542e-57
1.42404e-57
1.40904e-57
1.40449e-57
1.42693e-57
1.42036e-57
1.3922e-57
1.40351e-57
1.43774e-57
1.41223e-57
1.43297e-57
1.42079e-57
1.43652e-57
1.40409e-57
1.44206e-57
1.40325e-57
1.41678e-57
1.40961e-57
1.37692e-57
4.05824e-58
4.06271e-58
4.09459e-58
4.03492e-58
4.02985e-58
4.05913e-58
4.06334e-58
3.99673e-58
4.09918e-58
4.07351e-58
4.08275e-58
4.08012e-58
4.0515e-58
4.05982e-58
4.00274e-58
4.02866e-58
4.04014e-58
4.02138e-58
4.03059e-58
4.03902e-58
7.41512e-58
7.44831e-58
7.5247e-58
7.39116e-58
7.36114e-58
7.36882e-58
7.41756e-58
7.32501e-58
7.52069e-58
7.49416e-58
7.51681e-58
7.45665e-58
7.45336e-58
7.39082e-58
7.33858e-58
7.37559e-58
7.30594e-58
7.34288e-58
7.38168e-58
7.36393e-58
7.9774e-58
8.01566e-58
8.06689e-58
7.92016e-58
7.94435e-58
7.86273e-58
8.00219e-58
7.92924e-58
7.98041e-58
8.13243e-58
8.03735e-58
7.91685e-58
8.0625e-58
8.00296e-58
7.9697e-58
8.02237e-58
7.79012e-58
7.9369e-58
7.8896e-58
7.8806e-58
9.57249e-58
9.61793e-58
9.6554e-58
9.66403e-58
9.68817e-58
9.77139e-58
9.84184e-58
9.72898e-58
9.69765e-58
9.58097e-58
9.58568e-58
9.60921e-58
9.70101e-58
9.73449e-58
9.61315e-58
9.66879e-58
9.67478e-58
9.64267e-58
9.55762e-58
9.60475e-58
1.00738e-57
1.00018e-57
1.00459e-57
1.02045e-57
1.0159e-57
1.02552e-57
1.00794e-57
1.02883e-57
1.00141e-57
9.92552e-58
9.92583e-58
1.00227e-57
1.00087e-57
9.91081e-58
9.88174e-58
9.97729e-58
9.8588e-58
1.00284e-57
9.96582e-58
1.00875e-57
1.05718e-57
1.05279e-57
1.06758e-57
1.05543e-57
1.05494e-57
1.07288e-57
1.06238e-57
1.08143e-57
1.0589e-57
1.07471e-57
1.06593e-57
1.0696e-57
1.06992e-57
1.07916e-57
1.06723e-57
1.08493e-57
1.0631e-57
1.05147e-57
1.0629e-57
1.05408e-57
1.03139e-57
1.02217e-57
1.0163e-57
1.0194e-57
1.0285e-57
1.03594e-57
1.03261e-57
1.02933e-57
1.01414e-57
1.01748e-57
1.00631e-57
1.02974e-57
1.03343e-57
1.04033e-57
1.04084e-57
1.03388e-57
1.03066e-57
1.03509e-57
1.02606e-57
1.02762e-57
9.71123e-58
9.87227e-58
9.71814e-58
9.95386e-58
9.68174e-58
9.87412e-58
9.72208e-58
9.87048e-58
9.7662e-58
9.85358e-58
9.7774e-58
9.99559e-58
9.79118e-58
1.002e-57
9.79798e-58
9.85364e-58
9.90194e-58
9.69149e-58
9.92919e-58
9.92106e-58
8.67286e-58
8.89707e-58
8.85381e-58
8.75209e-58
8.69711e-58
8.95781e-58
8.8068e-58
8.86466e-58
8.81385e-58
8.69384e-58
8.7637e-58
8.9081e-58
8.77012e-58
9.00862e-58
8.77915e-58
8.90337e-58
8.90767e-58
8.84664e-58
8.92674e-58
8.97166e-58
8.55998e-58
8.56678e-58
8.59431e-58
8.66383e-58
8.65971e-58
8.66465e-58
8.50246e-58
8.7061e-58
8.74774e-58
8.56868e-58
8.70116e-58
8.76547e-58
8.50575e-58
8.7884e-58
8.76264e-58
8.88936e-58
8.70422e-58
8.74055e-58
8.6561e-58
8.80726e-58
5.27317e-58
5.32005e-58
5.32015e-58
5.26417e-58
5.30289e-58
5.29317e-58
5.29858e-58
5.31445e-58
5.25771e-58
5.35289e-58
5.23987e-58
5.35557e-58
5.25161e-58
5.40982e-58
5.26609e-58
5.27567e-58
5.27667e-58
5.37605e-58
5.30476e-58
5.40626e-58
2.61569e-70
2.6013e-70
2.61998e-70
2.58949e-70
2.58563e-70
2.62561e-70
2.61355e-70
2.55884e-70
2.57818e-70
2.64616e-70
2.59564e-70
2.63983e-70
2.60986e-70
2.6447e-70
2.58061e-70
2.65792e-70
2.57548e-70
2.60454e-70
2.59243e-70
2.53013e-70
8.92751e-68
8.88216e-68
8.94475e-68
8.8423e-68
8.82684e-68
8.9644e-68
8.9229e-68
8.73724e-68
8.80314e-68
9.03447e-68
8.86267e-68
9.01158e-68
8.91257e-68
9.02932e-68
8.8121e-68
9.07383e-68
8.7957e-68
8.89389e-68
8.85145e-68
8.63792e-68
1.52556e-65
1.51845e-65
1.52895e-65
1.5117e-65
1.50868e-65
1.53237e-65
1.52523e-65
1.49369e-65
1.50494e-65
1.54434e-65
1.5151e-65
1.54021e-65
1.52386e-65
1.54343e-65
1.50658e-65
1.55092e-65
1.50397e-65
1.52057e-65
1.51314e-65
1.47652e-65
1.53884e-63
1.53231e-63
1.5427e-63
1.52556e-63
1.52213e-63
1.54619e-63
1.53894e-63
1.50732e-63
1.51867e-63
1.55825e-63
1.52888e-63
1.55386e-63
1.53794e-63
1.55728e-63
1.52038e-63
1.56471e-63
1.51796e-63
1.5345e-63
1.52683e-63
1.48977e-63
1.08841e-61
1.08424e-61
1.09144e-61
1.07949e-61
1.0768e-61
1.09393e-61
1.08878e-61
1.06655e-61
1.07459e-61
1.10245e-61
1.08179e-61
1.09919e-61
1.08835e-61
1.10174e-61
1.07585e-61
1.10688e-61
1.07428e-61
1.08583e-61
1.0803e-61
1.05404e-61
5.37172e-60
5.35331e-60
5.38804e-60
5.32991e-60
5.31528e-60
5.40039e-60
5.37483e-60
5.26587e-60
5.30566e-60
5.44233e-60
5.34097e-60
5.42541e-60
5.37399e-60
5.43856e-60
5.31184e-60
5.46329e-60
5.30494e-60
5.36101e-60
5.3333e-60
5.2037e-60
1.83418e-58
1.82863e-58
1.84019e-58
1.82063e-58
1.81518e-58
1.8444e-58
1.83566e-58
1.79873e-58
1.81242e-58
1.85868e-58
1.82436e-58
1.85263e-58
1.83584e-58
1.8573e-58
1.81445e-58
1.86547e-58
1.81242e-58
1.83118e-58
1.82161e-58
1.77749e-58
4.08513e-57
4.07422e-57
4.09928e-57
4.05625e-57
4.04318e-57
4.10843e-57
4.08903e-57
4.00748e-57
4.0385e-57
4.14003e-57
4.06461e-57
4.12602e-57
4.09035e-57
4.1367e-57
4.04235e-57
4.15398e-57
4.03873e-57
4.07933e-57
4.05801e-57
3.96078e-57
2.62166e-56
2.61609e-56
2.63177e-56
2.60447e-56
2.59547e-56
2.63725e-56
2.62504e-56
2.57333e-56
2.59415e-56
2.65735e-56
2.61028e-56
2.64811e-56
2.62655e-56
2.65494e-56
2.59545e-56
2.66502e-56
2.594e-56
2.61876e-56
2.60528e-56
2.54408e-56
7.25409e-57
7.26251e-57
7.32023e-57
7.21324e-57
7.20334e-57
7.25506e-57
7.26256e-57
7.14489e-57
7.32855e-57
7.28231e-57
7.2991e-57
7.29285e-57
7.24351e-57
7.25666e-57
7.15627e-57
7.20011e-57
7.22133e-57
7.18828e-57
7.20526e-57
7.21993e-57
1.34187e-56
1.34778e-56
1.36163e-56
1.3374e-56
1.3321e-56
1.33333e-56
1.34212e-56
1.32559e-56
1.36079e-56
1.35621e-56
1.36013e-56
1.34914e-56
1.34878e-56
1.33753e-56
1.32812e-56
1.33468e-56
1.32197e-56
1.32867e-56
1.3357e-56
1.33227e-56
1.43573e-56
1.44249e-56
1.45178e-56
1.42547e-56
1.42989e-56
1.41548e-56
1.44042e-56
1.4275e-56
1.4361e-56
1.46337e-56
1.44623e-56
1.4247e-56
1.45091e-56
1.44048e-56
1.43445e-56
1.44391e-56
1.40255e-56
1.42837e-56
1.42019e-56
1.41844e-56
1.72845e-56
1.73617e-56
1.74316e-56
1.74502e-56
1.74926e-56
1.76437e-56
1.77631e-56
1.75674e-56
1.75081e-56
1.72969e-56
1.73051e-56
1.73489e-56
1.7513e-56
1.7571e-56
1.73568e-56
1.74543e-56
1.74639e-56
1.74104e-56
1.72564e-56
1.73426e-56
1.81102e-56
1.79789e-56
1.80586e-56
1.83402e-56
1.82602e-56
1.84335e-56
1.81175e-56
1.84933e-56
1.79986e-56
1.78464e-56
1.7844e-56
1.80184e-56
1.79919e-56
1.78175e-56
1.77677e-56
1.79376e-56
1.77245e-56
1.80269e-56
1.79183e-56
1.81316e-56
1.90766e-56
1.8997e-56
1.92614e-56
1.9041e-56
1.90372e-56
1.93583e-56
1.91678e-56
1.95107e-56
1.91084e-56
1.93928e-56
1.92326e-56
1.92985e-56
1.93052e-56
1.94754e-56
1.9259e-56
1.95739e-56
1.91841e-56
1.89737e-56
1.918e-56
1.90177e-56
1.85322e-56
1.83715e-56
1.82615e-56
1.832e-56
1.84805e-56
1.86134e-56
1.85535e-56
1.84956e-56
1.82272e-56
1.82842e-56
1.80842e-56
1.85026e-56
1.85704e-56
1.86908e-56
1.87027e-56
1.85741e-56
1.85205e-56
1.86009e-56
1.84401e-56
1.84677e-56
1.75341e-56
1.78256e-56
1.75476e-56
1.79684e-56
1.7478e-56
1.78228e-56
1.75508e-56
1.78178e-56
1.76323e-56
1.77909e-56
1.76518e-56
1.80464e-56
1.76768e-56
1.80873e-56
1.76912e-56
1.7786e-56
1.78771e-56
1.74985e-56
1.79257e-56
1.79112e-56
1.56198e-56
1.60183e-56
1.59434e-56
1.57594e-56
1.56629e-56
1.61264e-56
1.58557e-56
1.59601e-56
1.58707e-56
1.56543e-56
1.57798e-56
1.60376e-56
1.5792e-56
1.62166e-56
1.58093e-56
1.60306e-56
1.60366e-56
1.59298e-56
1.60698e-56
1.61524e-56
1.5536e-56
1.55476e-56
1.56e-56
1.57235e-56
1.57147e-56
1.57229e-56
1.54304e-56
1.58022e-56
1.58734e-56
1.55519e-56
1.57909e-56
1.59077e-56
1.54384e-56
1.59477e-56
1.59034e-56
1.61293e-56
1.57982e-56
1.58595e-56
1.57076e-56
1.59792e-56
9.52526e-57
9.61032e-57
9.61157e-57
9.50952e-57
9.57809e-57
9.56107e-57
9.57034e-57
9.60009e-57
9.49514e-57
9.66792e-57
9.46424e-57
9.67202e-57
9.48642e-57
9.77035e-57
9.51202e-57
9.52916e-57
9.53042e-57
9.70926e-57
9.58167e-57
9.76337e-57
5.46129e-69
5.43354e-69
5.47204e-69
5.40946e-69
5.40011e-69
5.48443e-69
5.45904e-69
5.34548e-69
5.38566e-69
5.52758e-69
5.42222e-69
5.51356e-69
5.45274e-69
5.52426e-69
5.39114e-69
5.55151e-69
5.38066e-69
5.44088e-69
5.41479e-69
5.28372e-69
1.83424e-66
1.82573e-66
1.83843e-66
1.81773e-66
1.81412e-66
1.84266e-66
1.83406e-66
1.79614e-66
1.80962e-66
1.85714e-66
1.82188e-66
1.85216e-66
1.83242e-66
1.85598e-66
1.8116e-66
1.86501e-66
1.80831e-66
1.82833e-66
1.81934e-66
1.77511e-66
3.08246e-64
3.06951e-64
3.09045e-64
3.05619e-64
3.04936e-64
3.09767e-64
3.08313e-64
3.01978e-64
3.04241e-64
3.122e-64
3.06299e-64
3.11319e-64
3.08117e-64
3.12e-64
3.04596e-64
3.13494e-64
3.04083e-64
3.0741e-64
3.05866e-64
2.98399e-64
3.06624e-62
3.05469e-62
3.07512e-62
3.04152e-62
3.03396e-62
3.08235e-62
3.0678e-62
3.00516e-62
3.02767e-62
3.10651e-62
3.04808e-62
3.09729e-62
3.0666e-62
3.10442e-62
3.03133e-62
3.11901e-62
3.02664e-62
3.05932e-62
3.04364e-62
2.96908e-62
2.13258e-60
2.12548e-60
2.13939e-60
2.11635e-60
2.11057e-60
2.14445e-60
2.13428e-60
2.09099e-60
2.10667e-60
2.16124e-60
2.12081e-60
2.15451e-60
2.134e-60
2.15971e-60
2.1093e-60
2.16966e-60
2.10634e-60
2.12876e-60
2.11766e-60
2.06566e-60
1.03716e-58
1.03414e-58
1.04075e-58
1.0297e-58
1.02664e-58
1.04321e-58
1.03825e-58
1.01733e-58
1.02498e-58
1.05136e-58
1.03181e-58
1.04792e-58
1.03836e-58
1.05057e-58
1.02626e-58
1.05528e-58
1.02498e-58
1.0357e-58
1.03023e-58
1.00493e-58
3.48626e-57
3.47756e-57
3.49921e-57
3.4626e-57
3.45145e-57
3.50744e-57
3.49072e-57
3.42095e-57
3.44686e-57
3.53474e-57
3.46961e-57
3.52268e-57
3.492e-57
3.53192e-57
3.45101e-57
3.54722e-57
3.44731e-57
3.48264e-57
3.46409e-57
3.37919e-57
7.63698e-56
7.62071e-56
7.66681e-56
7.58756e-56
7.5614e-56
7.68434e-56
7.64786e-56
7.49632e-56
7.55409e-56
7.74377e-56
7.60301e-56
7.71634e-56
7.65242e-56
7.73709e-56
7.56193e-56
7.76891e-56
7.55552e-56
7.63069e-56
7.5901e-56
7.40598e-56
4.82828e-55
4.82067e-55
4.84907e-55
4.79949e-55
4.78186e-55
4.85937e-55
4.83677e-55
4.7421e-55
4.78029e-55
4.89664e-55
4.81009e-55
4.87882e-55
4.84088e-55
4.89191e-55
4.78313e-55
4.91019e-55
4.78064e-55
4.8258e-55
4.80058e-55
4.68624e-55
1.29153e-55
1.29311e-55
1.30352e-55
1.2844e-55
1.2825e-55
1.29158e-55
1.29292e-55
1.27222e-55
1.30502e-55
1.29672e-55
1.29976e-55
1.29836e-55
1.28991e-55
1.29194e-55
1.27436e-55
1.28172e-55
1.28562e-55
1.27982e-55
1.28294e-55
1.28548e-55
2.42009e-55
2.4306e-55
2.45563e-55
2.41178e-55
2.40247e-55
2.40439e-55
2.42022e-55
2.3908e-55
2.4539e-55
2.44602e-55
2.45277e-55
2.43275e-55
2.43255e-55
2.41235e-55
2.39549e-55
2.40707e-55
2.38396e-55
2.39605e-55
2.40876e-55
2.40218e-55
2.57596e-55
2.58785e-55
2.60466e-55
2.55762e-55
2.56569e-55
2.54036e-55
2.58481e-55
2.56198e-55
2.57631e-55
2.62506e-55
2.59426e-55
2.55594e-55
2.60294e-55
2.58474e-55
2.57385e-55
2.59079e-55
2.5174e-55
2.56264e-55
2.54857e-55
2.54518e-55
3.1118e-55
3.12482e-55
3.13782e-55
3.14171e-55
3.14912e-55
3.17646e-55
3.19654e-55
3.16276e-55
3.15162e-55
3.11348e-55
3.11493e-55
3.12306e-55
3.15229e-55
3.16224e-55
3.12458e-55
3.14162e-55
3.1431e-55
3.13429e-55
3.10651e-55
3.12221e-55
3.24865e-55
3.22478e-55
3.23915e-55
3.28901e-55
3.27498e-55
3.30614e-55
3.24944e-55
3.31691e-55
3.22788e-55
3.20181e-55
3.20085e-55
3.2322e-55
3.22719e-55
3.19619e-55
3.1877e-55
3.21782e-55
3.17961e-55
3.23341e-55
3.21466e-55
3.2519e-55
3.43513e-55
3.42078e-55
3.46792e-55
3.42804e-55
3.42827e-55
3.48557e-55
3.45118e-55
3.51268e-55
3.44105e-55
3.49209e-55
3.46294e-55
3.4747e-55
3.47616e-55
3.5074e-55
3.46823e-55
3.52412e-55
3.45469e-55
3.41667e-55
3.45383e-55
3.42404e-55
3.32648e-55
3.29856e-55
3.27804e-55
3.28904e-55
3.31724e-55
3.34101e-55
3.33024e-55
3.32005e-55
3.27268e-55
3.28239e-55
3.24659e-55
3.32126e-55
3.33366e-55
3.35463e-55
3.35721e-55
3.33354e-55
3.3247e-55
3.3392e-55
3.31067e-55
3.31555e-55
3.16297e-55
3.2157e-55
3.16561e-55
3.24065e-55
3.15234e-55
3.21406e-55
3.16546e-55
3.21344e-55
3.18052e-55
3.20927e-55
3.1839e-55
3.25517e-55
3.18841e-55
3.26201e-55
3.1914e-55
3.20746e-55
3.22463e-55
3.15656e-55
3.23325e-55
3.23068e-55
2.81373e-55
2.88453e-55
2.8716e-55
2.83831e-55
2.82141e-55
2.90376e-55
2.85527e-55
2.87406e-55
2.85836e-55
2.81931e-55
2.8419e-55
2.8879e-55
2.84419e-55
2.91979e-55
2.84753e-55
2.88695e-55
2.8877e-55
2.86904e-55
2.89347e-55
2.90864e-55
2.82058e-55
2.82259e-55
2.83255e-55
2.85445e-55
2.85263e-55
2.85398e-55
2.80124e-55
2.86909e-55
2.88121e-55
2.8235e-55
2.86664e-55
2.88785e-55
2.80305e-55
2.89481e-55
2.88722e-55
2.92748e-55
2.86829e-55
2.87855e-55
2.85124e-55
2.90003e-55
1.7201e-55
1.73551e-55
1.73594e-55
1.71735e-55
1.72949e-55
1.7265e-55
1.72808e-55
1.73365e-55
1.71428e-55
1.74561e-55
1.70894e-55
1.74623e-55
1.7131e-55
1.76404e-55
1.71765e-55
1.72072e-55
1.72083e-55
1.75299e-55
1.73017e-55
1.76268e-55
1.13899e-67
1.1337e-67
1.14163e-67
1.1288e-67
1.12659e-67
1.14434e-67
1.13901e-67
1.11546e-67
1.1238e-67
1.15339e-67
1.13145e-67
1.1503e-67
1.13799e-67
1.15264e-67
1.12503e-67
1.15825e-67
1.12289e-67
1.13536e-67
1.12975e-67
1.10218e-67
3.76808e-65
3.75234e-65
3.77808e-65
3.73627e-65
3.72798e-65
3.78716e-65
3.76938e-65
3.69194e-65
3.71949e-65
3.81708e-65
3.74476e-65
3.80629e-65
3.76698e-65
3.8145e-65
3.72384e-65
3.83281e-65
3.71725e-65
3.75805e-65
3.73906e-65
3.64736e-65
6.22619e-63
6.20304e-63
6.24478e-63
6.1767e-63
6.16146e-63
6.25993e-63
6.23037e-63
6.10316e-63
6.14867e-63
6.30935e-63
6.19035e-63
6.29062e-63
6.22805e-63
6.30497e-63
6.15631e-63
6.33476e-63
6.14625e-63
6.21288e-63
6.18085e-63
6.02853e-63
6.10508e-61
6.08517e-61
6.12528e-61
6.05947e-61
6.04303e-61
6.14021e-61
6.11105e-61
5.98707e-61
6.0317e-61
6.18859e-61
6.07243e-61
6.16929e-61
6.11029e-61
6.18408e-61
6.03946e-61
6.21275e-61
6.0304e-61
6.09491e-61
6.06292e-61
5.91286e-61
4.17426e-59
4.16254e-59
4.18938e-59
4.14501e-59
4.13274e-59
4.19961e-59
4.17958e-59
4.09535e-59
4.12591e-59
4.23265e-59
4.15365e-59
4.21882e-59
4.18014e-59
4.22943e-59
4.13138e-59
4.24862e-59
4.1258e-59
4.16928e-59
4.14706e-59
4.04411e-59
1.99922e-57
1.99447e-57
2.00703e-57
1.98606e-57
1.97971e-57
2.01191e-57
2.00228e-57
1.96221e-57
1.9769e-57
2.02769e-57
1.99009e-57
2.02076e-57
2.00304e-57
2.02606e-57
1.97952e-57
2.03501e-57
1.97715e-57
1.99763e-57
1.98686e-57
1.93747e-57
6.61293e-56
6.6001e-56
6.64054e-56
6.57212e-56
6.5495e-56
6.65653e-56
6.62465e-56
6.4931e-56
6.54207e-56
6.70861e-56
6.58529e-56
6.68466e-56
6.62888e-56
6.70287e-56
6.55047e-56
6.73147e-56
6.54378e-56
6.61013e-56
6.57427e-56
6.4111e-56
1.42389e-54
1.42166e-54
1.43012e-54
1.41555e-54
1.41036e-54
1.43345e-54
1.42662e-54
1.39853e-54
1.40927e-54
1.4446e-54
1.41841e-54
1.43925e-54
1.42786e-54
1.44327e-54
1.41085e-54
1.44911e-54
1.40972e-54
1.42359e-54
1.4159e-54
1.38109e-54
8.86621e-54
8.85735e-54
8.90862e-54
8.81884e-54
8.78454e-54
8.92789e-54
8.88619e-54
8.71338e-54
8.78326e-54
8.99677e-54
8.8381e-54
8.96256e-54
8.8962e-54
8.98753e-54
8.78929e-54
9.02055e-54
8.78506e-54
8.86711e-54
8.82013e-54
8.60695e-54
2.2916e-54
2.29451e-54
2.31321e-54
2.27917e-54
2.27556e-54
2.29142e-54
2.29383e-54
2.25756e-54
2.31591e-54
2.30108e-54
2.30656e-54
2.30356e-54
2.28917e-54
2.2922e-54
2.26156e-54
2.27383e-54
2.28091e-54
2.27079e-54
2.27651e-54
2.28087e-54
4.35013e-54
4.36875e-54
4.41382e-54
4.33476e-54
4.31849e-54
4.32142e-54
4.3498e-54
4.29763e-54
4.41034e-54
4.39688e-54
4.40842e-54
4.37209e-54
4.37253e-54
4.33641e-54
4.30629e-54
4.32663e-54
4.28482e-54
4.30651e-54
4.32943e-54
4.31687e-54
4.60764e-54
4.62847e-54
4.6588e-54
4.57502e-54
4.58965e-54
4.54531e-54
4.62426e-54
4.58406e-54
4.60777e-54
4.69456e-54
4.63945e-54
4.57145e-54
4.65545e-54
4.62382e-54
4.60421e-54
4.63443e-54
4.5047e-54
4.58363e-54
4.55958e-54
4.55307e-54
5.58575e-54
5.60758e-54
5.63163e-54
5.63951e-54
5.65245e-54
5.70171e-54
5.7353e-54
5.67723e-54
5.65638e-54
5.58789e-54
5.59037e-54
5.60531e-54
5.65731e-54
5.67422e-54
5.60834e-54
5.63795e-54
5.64008e-54
5.62578e-54
5.57582e-54
5.60429e-54
5.81337e-54
5.77012e-54
5.79596e-54
5.884e-54
5.85952e-54
5.91541e-54
5.81388e-54
5.93471e-54
5.77489e-54
5.73041e-54
5.72775e-54
5.78393e-54
5.77457e-54
5.71962e-54
5.70521e-54
5.75843e-54
5.69016e-54
5.78558e-54
5.75334e-54
5.81816e-54
6.17096e-54
6.14515e-54
6.22896e-54
6.15698e-54
6.15907e-54
6.26102e-54
6.19911e-54
6.3091e-54
6.18196e-54
6.27326e-54
6.22037e-54
6.24129e-54
6.2444e-54
6.30144e-54
6.2308e-54
6.32968e-54
6.20638e-54
6.13791e-54
6.20465e-54
6.15019e-54
5.96048e-54
5.91212e-54
5.87405e-54
5.89455e-54
5.94398e-54
5.98643e-54
5.96711e-54
5.94925e-54
5.86586e-54
5.8823e-54
5.81837e-54
5.95129e-54
5.97397e-54
6.01035e-54
6.0158e-54
5.97238e-54
5.95787e-54
5.98388e-54
5.93347e-54
5.94204e-54
5.69555e-54
5.79059e-54
5.70061e-54
5.83401e-54
5.67548e-54
5.78568e-54
5.69904e-54
5.78503e-54
5.72671e-54
5.7787e-54
5.7325e-54
5.86101e-54
5.74076e-54
5.87239e-54
5.74687e-54
5.77385e-54
5.80605e-54
5.68404e-54
5.82127e-54
5.81673e-54
5.06111e-54
5.18674e-54
5.16439e-54
5.10446e-54
5.07476e-54
5.22082e-54
5.13413e-54
5.16791e-54
5.14039e-54
5.07013e-54
5.1107e-54
5.19266e-54
5.11493e-54
5.24931e-54
5.12132e-54
5.19134e-54
5.1922e-54
5.15961e-54
5.2022e-54
5.22998e-54
5.11209e-54
5.11555e-54
5.1344e-54
5.17312e-54
5.16941e-54
5.17163e-54
5.07673e-54
5.20029e-54
5.22079e-54
5.11739e-54
5.19512e-54
5.23357e-54
5.0807e-54
5.24568e-54
5.23269e-54
5.30426e-54
5.19875e-54
5.21572e-54
5.16677e-54
5.25421e-54
3.09811e-54
3.12593e-54
3.12707e-54
3.09337e-54
3.11479e-54
3.1095e-54
3.11218e-54
3.12261e-54
3.08699e-54
3.1436e-54
3.0778e-54
3.14451e-54
3.08554e-54
3.17667e-54
3.09365e-54
3.09913e-54
3.09908e-54
3.15677e-54
3.11603e-54
3.17405e-54
2.3769e-66
2.36698e-66
2.38332e-66
2.357e-66
2.35182e-66
2.38922e-66
2.37801e-66
2.32917e-66
2.3465e-66
2.40822e-66
2.36249e-66
2.40141e-66
2.37651e-66
2.40652e-66
2.34923e-66
2.41807e-66
2.34487e-66
2.37067e-66
2.35863e-66
2.30058e-66
7.73064e-64
7.70212e-64
7.75425e-64
7.66989e-64
7.6511e-64
7.77362e-64
7.7369e-64
7.57895e-64
7.63525e-64
7.83536e-64
7.68721e-64
7.81205e-64
7.73403e-64
7.82965e-64
7.64475e-64
7.8667e-64
7.63159e-64
7.71456e-64
7.67456e-64
7.48454e-64
1.25566e-61
1.25163e-61
1.25994e-61
1.24643e-61
1.24307e-61
1.2631e-61
1.2571e-61
1.2316e-61
1.24074e-61
1.27312e-61
1.24916e-61
1.26915e-61
1.25697e-61
1.27217e-61
1.24237e-61
1.2781e-61
1.24041e-61
1.25372e-61
1.2471e-61
1.21605e-61
1.21296e-59
1.20965e-59
1.21751e-59
1.20464e-59
1.2011e-59
1.22057e-59
1.21474e-59
1.19026e-59
1.19909e-59
1.23024e-59
1.2072e-59
1.22621e-59
1.21492e-59
1.22927e-59
1.20072e-59
1.23489e-59
1.19898e-59
1.21168e-59
1.20518e-59
1.17502e-59
8.15155e-58
8.13314e-58
8.1848e-58
8.09951e-58
8.07372e-58
8.20536e-58
8.16604e-58
8.00253e-58
8.06199e-58
8.27024e-58
8.11625e-58
8.24194e-58
8.16933e-58
8.26348e-58
8.0733e-58
8.30043e-58
8.0628e-58
8.14688e-58
8.10256e-58
7.89901e-58
3.84284e-56
3.8359e-56
3.85967e-56
3.81999e-56
3.80692e-56
3.8693e-56
3.8507e-56
3.77413e-56
3.80227e-56
3.89981e-56
3.82768e-56
3.88587e-56
3.85321e-56
3.89644e-56
3.8076e-56
3.9134e-56
3.80324e-56
3.84221e-56
3.82111e-56
3.72492e-56
1.25059e-54
1.2489e-54
1.25643e-54
1.24368e-54
1.23913e-54
1.25952e-54
1.25346e-54
1.22873e-54
1.23796e-54
1.26942e-54
1.24615e-54
1.26469e-54
1.2546e-54
1.26826e-54
1.23965e-54
1.27359e-54
1.23845e-54
1.25086e-54
1.24396e-54
1.21267e-54
2.64573e-53
2.64317e-53
2.65862e-53
2.63194e-53
2.62172e-53
2.66493e-53
2.65218e-53
2.6003e-53
2.62018e-53
2.68576e-53
2.63719e-53
2.67538e-53
2.65522e-53
2.68313e-53
2.62334e-53
2.69382e-53
2.62138e-53
2.64687e-53
2.63236e-53
2.56671e-53
1.62235e-52
1.62171e-52
1.63093e-52
1.61472e-52
1.60809e-52
1.6345e-52
1.62684e-52
1.59541e-52
1.60816e-52
1.64719e-52
1.61821e-52
1.64065e-52
1.62913e-52
1.6454e-52
1.60941e-52
1.65134e-52
1.6087e-52
1.62355e-52
1.61484e-52
1.57519e-52
4.04867e-53
4.054e-53
4.08747e-53
4.02707e-53
4.0203e-53
4.04785e-53
4.05217e-53
3.9889e-53
4.09228e-53
4.06592e-53
4.07571e-53
4.0695e-53
4.04516e-53
4.04951e-53
3.99633e-53
4.01662e-53
4.02939e-53
4.01182e-53
4.02228e-53
4.02969e-53
7.78928e-53
7.82214e-53
7.90301e-53
7.76099e-53
7.7327e-53
7.73701e-53
7.78773e-53
7.69555e-53
7.89611e-53
7.87324e-53
7.89283e-53
7.82718e-53
7.8294e-53
7.76506e-53
7.71148e-53
7.74708e-53
7.67173e-53
7.71043e-53
7.75167e-53
7.72781e-53
8.2107e-53
8.24708e-53
8.3016e-53
8.15297e-53
8.17939e-53
8.10215e-53
8.24179e-53
8.17128e-53
8.21014e-53
8.36399e-53
8.26578e-53
8.14558e-53
8.29515e-53
8.24041e-53
8.20528e-53
8.25897e-53
8.03063e-53
8.16766e-53
8.12679e-53
8.11441e-53
9.99025e-53
1.00265e-52
1.00709e-52
1.00865e-52
1.0109e-52
1.01974e-52
1.02531e-52
1.01538e-52
1.0115e-52
9.99249e-53
9.99673e-53
1.00241e-52
1.01162e-52
1.01446e-52
1.003e-52
1.00812e-52
1.0084e-52
1.00612e-52
9.97173e-53
1.00231e-52
1.03684e-52
1.02903e-52
1.03366e-52
1.04915e-52
1.0449e-52
1.05489e-52
1.03677e-52
1.05834e-52
1.02974e-52
1.02219e-52
1.02156e-52
1.03158e-52
1.02985e-52
1.02014e-52
1.01771e-52
1.02708e-52
1.01493e-52
1.03179e-52
1.02628e-52
1.03751e-52
1.10499e-52
1.10037e-52
1.11523e-52
1.10226e-52
1.10294e-52
1.12101e-52
1.10992e-52
1.12951e-52
1.10704e-52
1.12331e-52
1.11375e-52
1.11745e-52
1.11811e-52
1.12848e-52
1.11579e-52
1.13321e-52
1.1114e-52
1.0991e-52
1.11106e-52
1.10112e-52
1.06497e-52
1.05664e-52
1.0496e-52
1.05341e-52
1.06204e-52
1.06959e-52
1.06614e-52
1.06302e-52
1.0484e-52
1.05115e-52
1.03978e-52
1.06337e-52
1.0675e-52
1.07378e-52
1.07491e-52
1.06697e-52
1.06462e-52
1.06926e-52
1.06039e-52
1.06189e-52
1.02275e-52
1.03984e-52
1.02373e-52
1.04737e-52
1.01898e-52
1.0386e-52
1.0232e-52
1.03857e-52
1.02828e-52
1.03765e-52
1.02927e-52
1.05237e-52
1.03076e-52
1.05424e-52
1.03199e-52
1.03649e-52
1.04251e-52
1.02069e-52
1.04519e-52
1.04439e-52
9.0825e-53
9.30471e-53
9.26635e-53
9.15859e-53
9.10673e-53
9.36505e-53
9.2105e-53
9.27104e-53
9.22295e-53
9.09671e-53
9.1695e-53
9.31514e-53
9.17732e-53
9.41554e-53
9.1895e-53
9.31356e-53
9.3142e-53
9.25758e-53
9.33137e-53
9.38215e-53
9.24566e-53
9.2515e-53
9.28708e-53
9.35537e-53
9.34798e-53
9.35145e-53
9.18108e-53
9.40562e-53
9.44006e-53
9.25522e-53
9.395e-53
9.46454e-53
9.18953e-53
9.4855e-53
9.46351e-53
9.59033e-53
9.40268e-53
9.43049e-53
9.34289e-53
9.49927e-53
5.57582e-53
5.62605e-53
5.62877e-53
5.56762e-53
5.6054e-53
5.59607e-53
5.60066e-53
5.62003e-53
5.55461e-53
5.6569e-53
5.53888e-53
5.65812e-53
5.55331e-53
5.71616e-53
5.56765e-53
5.5774e-53
5.57693e-53
5.68033e-53
5.60769e-53
5.71114e-53
4.95338e-65
4.93514e-65
4.96875e-65
4.91481e-65
4.90288e-65
4.98154e-65
4.95803e-65
4.85684e-65
4.89281e-65
5.02137e-65
4.92623e-65
5.00642e-65
4.95622e-65
5.01756e-65
4.89887e-65
5.04129e-65
4.89001e-65
4.94328e-65
4.91751e-65
4.79532e-65
1.5846e-62
1.57957e-62
1.59011e-62
1.57311e-62
1.56889e-62
1.59423e-62
1.58666e-62
1.55447e-62
1.56597e-62
1.60696e-62
1.57664e-62
1.60193e-62
1.58649e-62
1.6057e-62
1.56803e-62
1.61319e-62
1.56541e-62
1.58226e-62
1.57385e-62
1.53448e-62
2.52946e-60
2.52269e-60
2.53919e-60
2.51243e-60
2.50508e-60
2.54578e-60
2.53363e-60
2.48256e-60
2.5009e-60