/*--------------------------------*- C++ -*----------------------------------*\
| =========                 |                                                 |
| \\      /  F ield         | OpenFOAM: The Open Source CFD Toolbox           |
|  \\    /   O peration     | Version:  2212                                  |
|   \\  /    A nd           | Website:  www.openfoam.com                      |
|    \\/     M anipulation  |                                                 |
\*---------------------------------------------------------------------------*/
FoamFile
{
    version     2.0;
    format      ascii;
    arch        "LSB;label=32;scalar=64";
    class       volScalarField;
    location    "0.000303";
    object      T;
}
// * * * * * * * * * * * * * * * * * * * * * * * * * * * * * * * * * * * * * //

dimensions      [0 0 0 1 0 0 0];

internalField   nonuniform List<scalar> 
26145
(
4.50608
4.63112
4.67958
4.71974
4.75612
4.79031
4.82143
4.84933
4.87463
4.89795
4.91915
4.93829
4.95573
4.97157
4.98605
5.00016
5.0152
5.03105
5.04658
5.06118
5.07466
5.08734
5.09954
5.11143
5.12302
5.13433
5.14547
5.15623
5.16681
5.17668
5.18565
5.19405
5.20211
5.20999
5.2178
5.22556
5.23296
5.23955
5.24548
5.25126
5.25719
5.26341
5.27008
5.27716
5.28425
5.29115
5.29792
5.30492
5.31271
5.32211
5.33432
5.35046
5.37167
5.39904
5.43067
5.4631
5.49438
5.52384
5.55267
5.58232
5.6144
5.64772
5.7359
5.96921
6.54474
7.82541
10.1988
14.0626
19.5901
26.5479
34.6234
43.3679
4.42392
4.62549
4.67385
4.71418
4.75099
4.78561
4.81712
4.84531
4.87088
4.89437
4.9157
4.93495
4.95248
4.96841
4.98298
4.99716
5.01227
5.02818
5.04375
5.05839
5.07193
5.08468
5.09693
5.10889
5.1206
5.13196
5.14317
5.15416
5.16478
5.17469
5.18391
5.19254
5.20079
5.20883
5.21677
5.22466
5.23218
5.23889
5.24492
5.25078
5.25681
5.26315
5.27
5.2775
5.28527
5.2927
5.29988
5.30737
5.31577
5.32587
5.33879
5.35541
5.37649
5.40224
5.43199
5.46338
5.49394
5.52165
5.54766
5.57433
5.60392
5.64383
5.72645
5.93658
6.45162
7.60153
9.71332
13.115
17.8567
23.5105
29.4526
35.1008
4.33385
4.60591
4.65719
4.69763
4.73519
4.77078
4.8033
4.83233
4.85859
4.8827
4.90466
4.92446
4.9425
4.95888
4.97386
4.9884
5.00387
5.02013
5.03601
5.05093
5.06473
5.07772
5.09021
5.1024
5.11443
5.12585
5.13729
5.14876
5.1595
5.16966
5.1793
5.18834
5.19697
5.20538
5.21369
5.22196
5.22983
5.23685
5.24315
5.24925
5.25546
5.26198
5.269
5.27663
5.28447
5.292
5.29933
5.30696
5.31547
5.32563
5.33846
5.35467
5.37483
5.39913
5.42694
5.45659
5.4851
5.50971
5.53375
5.56215
5.59172
5.63291
5.70676
5.88534
6.3129
7.25508
8.94762
11.6118
15.1832
19.2519
23.363
27.1405
4.25221
4.58005
4.63283
4.67294
4.71125
4.74795
4.78179
4.81203
4.83936
4.86473
4.88779
4.90854
4.92747
4.94463
4.96027
4.97543
4.99149
5.00829
5.02464
5.03999
5.05419
5.06753
5.08034
5.0928
5.1051
5.11662
5.12866
5.14025
5.15122
5.1617
5.17157
5.18084
5.1897
5.19833
5.20688
5.21536
5.22343
5.23059
5.23696
5.24309
5.24934
5.25587
5.26287
5.27037
5.27794
5.28511
5.29208
5.29937
5.30751
5.31708
5.32892
5.34362
5.36165
5.3832
5.40846
5.43694
5.46488
5.48921
5.51504
5.54722
5.58041
5.62052
5.68328
5.82351
6.14147
6.83246
8.06485
9.98638
12.5233
15.375
18.2414
20.8977
4.19359
4.55081
4.60484
4.64571
4.68428
4.7219
4.75686
4.78826
4.81674
4.8432
4.86759
4.88979
4.90984
4.92794
4.94438
4.96028
4.97707
4.99455
5.0115
5.02736
5.04198
5.05567
5.06872
5.08138
5.09382
5.10539
5.1179
5.12939
5.14041
5.15095
5.16084
5.17011
5.17894
5.18752
5.19596
5.20431
5.2122
5.21915
5.22529
5.23117
5.23716
5.24337
5.24997
5.25696
5.26387
5.27027
5.27636
5.28282
5.29003
5.2984
5.3087
5.32165
5.33791
5.35738
5.38064
5.40828
5.43699
5.46266
5.49132
5.52651
5.56289
5.60066
5.6523
5.75619
5.97688
6.44591
7.28414
8.59739
10.3435
12.3227
14.3399
16.2511
4.14355
4.52406
4.57896
4.61973
4.65793
4.69624
4.73207
4.76449
4.79401
4.82133
4.8467
4.86984
4.89091
4.90995
4.92724
4.94391
4.96147
4.9797
4.99734
5.01378
5.02889
5.043
5.05644
5.06941
5.08197
5.09367
5.10623
5.11766
5.12861
5.13899
5.14866
5.15764
5.16611
5.17426
5.18223
5.19008
5.19743
5.20384
5.20945
5.2148
5.22022
5.22584
5.2318
5.23805
5.24408
5.24951
5.25468
5.26015
5.26624
5.27335
5.28236
5.29401
5.30867
5.32678
5.34858
5.375
5.40438
5.43202
5.46273
5.49962
5.53641
5.57122
5.61489
5.69164
5.83828
6.13598
6.68139
7.54779
8.72308
10.0831
11.5014
12.8836
4.107
4.5019
4.55629
4.59669
4.63498
4.67393
4.71047
4.74367
4.77396
4.80207
4.82802
4.85178
4.87361
4.89339
4.91134
4.92862
4.94678
4.96556
4.98365
5.00046
5.01585
5.03014
5.04363
5.05657
5.06911
5.08089
5.09336
5.1047
5.11551
5.12573
5.13523
5.14405
5.15239
5.16046
5.1682
5.17549
5.1822
5.18793
5.19283
5.19735
5.20194
5.2067
5.21165
5.21678
5.22172
5.22623
5.23053
5.23501
5.24006
5.24602
5.25381
5.26406
5.27753
5.29462
5.31567
5.34019
5.36925
5.39843
5.43023
5.46763
5.50325
5.53362
5.57178
5.62834
5.72154
5.90555
6.24524
6.79431
7.56328
8.48167
9.46663
10.4526
4.07889
4.48496
4.53899
4.57927
4.61793
4.65746
4.69459
4.72842
4.75933
4.78804
4.81442
4.83856
4.86087
4.88112
4.89951
4.91721
4.93576
4.95488
4.97323
4.99019
5.00562
5.01987
5.03325
5.04612
5.05855
5.07021
5.08244
5.09347
5.10394
5.11378
5.12287
5.13129
5.13923
5.14677
5.15385
5.16071
5.16702
5.17244
5.17712
5.18159
5.18584
5.18978
5.19367
5.19732
5.20105
5.2043
5.20743
5.21077
5.21484
5.21989
5.22639
5.2351
5.24706
5.26314
5.28297
5.30566
5.33351
5.36304
5.39495
5.43243
5.46658
5.49452
5.5252
5.56535
5.62296
5.73224
5.93579
6.27476
6.75764
7.35813
8.02314
8.70804
4.05927
4.47426
4.52916
4.56961
4.60885
4.649
4.68675
4.72125
4.7528
4.78203
4.80888
4.83342
4.85602
4.87659
4.89527
4.91324
4.93202
4.95129
4.96965
4.98653
5.00184
5.01593
5.02914
5.04177
5.05387
5.06515
5.07695
5.0874
5.09725
5.10646
5.11486
5.12258
5.12983
5.13648
5.14291
5.14915
5.15485
5.15972
5.16397
5.16794
5.1715
5.17508
5.1787
5.18242
5.18501
5.18693
5.18874
5.1911
5.19403
5.19769
5.20255
5.20955
5.21928
5.2337
5.25141
5.27373
5.29903
5.32731
5.35839
5.39524
5.42716
5.45217
5.47497
5.50221
5.53984
5.60218
5.71939
5.92098
6.21141
6.59175
7.03011
7.49277
4.04731
4.46942
4.52546
4.56645
4.60621
4.64706
4.68559
4.72086
4.75319
4.78344
4.81158
4.83746
4.8611
4.8824
4.90161
4.91995
4.93896
4.95828
4.97659
4.99339
5.00858
5.02246
5.03533
5.04749
5.05902
5.06963
5.08077
5.09031
5.09921
5.10738
5.11484
5.12156
5.12755
5.13316
5.13863
5.14384
5.14859
5.15253
5.15604
5.15897
5.1619
5.16488
5.16791
5.17055
5.1721
5.17323
5.17474
5.17716
5.17953
5.18171
5.18487
5.18949
5.19676
5.20797
5.22384
5.24444
5.26725
5.29354
5.32259
5.35727
5.38577
5.40697
5.42373
5.44132
5.46509
5.50042
5.56511
5.67882
5.84742
6.07931
6.3581
6.66285
4.04153
4.46891
4.52731
4.57118
4.61359
4.65642
4.6966
4.73331
4.76697
4.79843
4.82766
4.8545
4.87904
4.90114
4.92102
4.93995
4.95954
4.97944
4.99822
5.01522
5.0303
5.04385
5.05622
5.0678
5.07853
5.0882
5.09824
5.10647
5.11394
5.12055
5.12629
5.13125
5.13573
5.14005
5.14403
5.14771
5.15094
5.15361
5.15554
5.1572
5.15913
5.16096
5.16293
5.16377
5.16404
5.16414
5.16471
5.16641
5.16831
5.16986
5.17198
5.1753
5.18069
5.18916
5.20151
5.2185
5.2391
5.26308
5.28936
5.31966
5.34442
5.36047
5.37166
5.38404
5.39946
5.41773
5.44889
5.50246
5.59362
5.73331
5.90655
6.09951
4.0402
4.47762
4.54228
4.58851
4.63279
4.67759
4.71994
4.75894
4.795
4.82894
4.86062
4.88965
4.91609
4.93978
4.96098
4.98108
5.00175
5.02257
5.04196
5.05913
5.07398
5.08701
5.09859
5.10925
5.11877
5.12697
5.13524
5.14122
5.1466
5.15099
5.15455
5.15741
5.15972
5.1616
5.16313
5.1643
5.16498
5.16492
5.16484
5.16509
5.16542
5.16536
5.16518
5.16428
5.16245
5.16069
5.15945
5.15973
5.15972
5.16042
5.16291
5.16577
5.17019
5.17662
5.18571
5.19829
5.21511
5.23617
5.25996
5.28401
5.30457
5.31496
5.3226
5.33185
5.33915
5.34063
5.34389
5.36977
5.42026
5.49892
5.60163
5.7202
4.04513
4.49892
4.57186
4.62326
4.6727
4.7227
4.76996
4.81338
4.85348
4.89128
4.92657
4.95883
4.9881
5.01423
5.03749
5.05943
5.08173
5.10409
5.12437
5.14177
5.15618
5.16815
5.17834
5.18751
5.19507
5.2012
5.20627
5.20909
5.21107
5.2118
5.21144
5.21027
5.20845
5.20614
5.20342
5.20038
5.19716
5.19417
5.19136
5.18879
5.18592
5.18279
5.17867
5.17447
5.16989
5.16537
5.16156
5.15885
5.15648
5.15518
5.15602
5.15859
5.16245
5.16771
5.17525
5.1856
5.1984
5.21344
5.23461
5.25298
5.26798
5.27452
5.28044
5.2869
5.28482
5.25796
5.25267
5.26501
5.2905
5.33495
5.3947
5.46613
4.07363
4.55557
4.63781
4.69752
4.75457
4.81179
4.86596
4.91595
4.96236
5.00627
5.04723
5.08449
5.11814
5.14819
5.17492
5.19992
5.22436
5.24828
5.26956
5.28715
5.30079
5.31111
5.31919
5.32581
5.33021
5.33285
5.33268
5.33055
5.32685
5.32199
5.31588
5.3086
5.30045
5.29164
5.28233
5.27275
5.26328
5.25444
5.24625
5.23815
5.22999
5.22143
5.21198
5.20222
5.19279
5.18286
5.17431
5.16724
5.1616
5.15741
5.15502
5.15571
5.15788
5.16177
5.16752
5.1758
5.186
5.19968
5.21433
5.22819
5.23759
5.24308
5.24669
5.24606
5.23157
5.18103
5.17009
5.17472
5.1866
5.21072
5.24601
5.29083
4.14955
4.67041
4.76581
4.83722
4.90609
4.97476
5.03971
5.09956
5.15508
5.20756
5.25635
5.30046
5.34018
5.37629
5.40653
5.43398
5.46056
5.48661
5.50918
5.52706
5.53966
5.54753
5.55266
5.55527
5.55462
5.55186
5.54556
5.53674
5.52576
5.51248
5.49753
5.48113
5.46345
5.44471
5.42524
5.40529
5.3856
5.36723
5.35022
5.33357
5.31675
5.29963
5.28169
5.2628
5.24349
5.22438
5.20711
5.19267
5.18081
5.17137
5.164
5.16058
5.15977
5.16091
5.16401
5.16947
5.17723
5.18808
5.2002
5.20928
5.21534
5.22086
5.22103
5.20956
5.17154
5.11622
5.09502
5.09022
5.09461
5.1068
5.12618
5.15218
4.29381
4.87775
4.98986
5.07456
5.15747
5.23909
5.31561
5.38542
5.44956
5.50971
5.56551
5.61502
5.65869
5.69772
5.72941
5.75846
5.78637
5.81385
5.83746
5.85613
5.86946
5.87554
5.87814
5.8783
5.87565
5.86816
5.85604
5.84127
5.82315
5.80207
5.77862
5.75285
5.72465
5.69416
5.66198
5.62844
5.5948
5.5631
5.53348
5.50418
5.4742
5.4434
5.41123
5.37777
5.34408
5.31105
5.2794
5.25145
5.22791
5.2083
5.19181
5.17983
5.17267
5.16903
5.16783
5.16978
5.17456
5.18186
5.19114
5.19776
5.20269
5.20527
5.20061
5.17734
5.10606
5.05674
5.02948
5.01072
5.00745
5.01193
5.02145
5.0349
4.51257
5.17421
5.29184
5.38024
5.4675
5.55106
5.62986
5.70095
5.76431
5.82178
5.87314
5.91859
5.95907
5.99449
6.02476
6.05281
6.08027
6.10758
6.13178
6.15185
6.16705
6.17662
6.18197
6.18548
6.18426
6.18104
6.17395
6.16248
6.1466
6.12623
6.10248
6.07756
6.04891
6.01464
5.97622
5.93454
5.89112
5.84885
5.80783
5.76562
5.72128
5.67488
5.62582
5.57394
5.52091
5.46862
5.41791
5.37023
5.32716
5.28879
5.25569
5.22844
5.20827
5.19448
5.18582
5.18186
5.18095
5.18372
5.18854
5.19263
5.19562
5.1938
5.1803
5.13898
5.05736
5.00507
4.97005
4.94298
4.92775
4.92276
4.9254
4.9319
4.73928
5.45581
5.54689
5.61471
5.68831
5.75619
5.81472
5.8632
5.90481
5.94142
5.97432
6.00498
6.03391
6.06036
6.08428
6.10732
6.13127
6.15578
6.17906
6.20098
6.22068
6.23739
6.25152
6.26589
6.27739
6.28873
6.29898
6.3072
6.31335
6.3166
6.31349
6.30476
6.29141
6.27391
6.25075
6.22061
6.18506
6.14844
6.10911
6.06656
6.01924
5.96695
5.90904
5.84519
5.77725
5.70714
5.63661
5.56776
5.50281
5.44077
5.38246
5.33028
5.287
5.25383
5.23017
5.21448
5.20427
5.19901
5.19651
5.19588
5.19359
5.18574
5.16353
5.10429
5.02135
4.9624
4.91904
4.88405
4.86172
4.84758
4.83922
4.84099
4.84745
5.55853
5.59421
5.63361
5.68407
5.7311
5.77533
5.81409
5.84887
5.88094
5.91131
5.94017
5.96718
5.99184
6.01429
6.03604
6.05874
6.08207
6.10485
6.12668
6.14691
6.16527
6.18166
6.19913
6.21435
6.22974
6.24441
6.2577
6.26977
6.28086
6.29131
6.30117
6.31014
6.31773
6.32486
6.32983
6.32682
6.3106
6.29407
6.27207
6.24394
6.20829
6.16375
6.11
6.04737
5.97773
5.90264
5.82462
5.74628
5.66715
5.58729
5.50899
5.43537
5.37191
5.32207
5.28476
5.25754
5.23826
5.22401
5.21364
5.20259
5.18587
5.15344
5.07965
4.9974
4.93041
4.87818
4.83591
4.80658
4.78556
4.77106
4.76189
4.77824
5.47364
5.50155
5.5341
5.57855
5.6195
5.6586
5.69313
5.72462
5.75451
5.7838
5.81211
5.83857
5.86265
5.8845
5.90555
5.92735
5.94964
5.9716
5.99294
6.01326
6.03234
6.05013
6.06885
6.08643
6.1041
6.12173
6.13889
6.15538
6.17137
6.18696
6.20223
6.21724
6.23187
6.24574
6.25761
6.26661
6.27344
6.27904
6.28426
6.28925
6.28881
6.26944
6.24411
6.21212
6.17049
6.1182
6.05684
5.9897
5.91567
5.83391
5.7464
5.65652
5.56765
5.48614
5.41777
5.36341
5.32074
5.28594
5.25712
5.22976
5.19986
5.15764
5.07746
4.99052
4.91
4.84844
4.79865
4.76246
4.73515
4.71475
4.7
4.68608
5.34084
5.36575
5.39606
5.44038
5.48123
5.52067
5.55607
5.58863
5.61884
5.64775
5.67584
5.70258
5.72707
5.74933
5.77054
5.79239
5.81436
5.83575
5.85642
5.87618
5.89494
5.91229
5.93001
5.94732
5.96465
5.98205
5.99909
6.01561
6.03185
6.04788
6.06386
6.08001
6.09622
6.11208
6.12738
6.14187
6.15543
6.16815
6.17976
6.18964
6.19605
6.19853
6.20051
6.20239
6.20292
6.1956
6.16252
6.12827
6.08655
6.03316
5.96737
5.88978
5.8026
5.71184
5.62406
5.54242
5.46901
5.40412
5.34505
5.28913
5.23604
5.17195
5.08595
4.99342
4.90764
4.83191
4.77299
4.72956
4.69612
4.67023
4.6503
4.59539
5.22347
5.25782
5.29215
5.33885
5.3816
5.42269
5.45929
5.49263
5.52348
5.55308
5.58173
5.60889
5.6338
5.65639
5.67786
5.69982
5.72187
5.74323
5.76367
5.78301
5.80136
5.81804
5.83489
5.85144
5.86788
5.88425
5.90017
5.91548
5.93045
5.94515
5.95968
5.97426
5.98892
6.0035
6.01795
6.0319
6.04484
6.05694
6.06885
6.08099
6.09357
6.10716
6.11778
6.12356
6.12473
6.12398
6.12136
6.11884
6.11462
6.10404
6.08086
6.04334
5.99059
5.92296
5.84474
5.76061
5.67325
5.58425
5.49398
5.40163
5.30839
5.21378
5.11146
5.00607
4.91305
4.83166
4.76171
4.70852
4.66858
4.63728
4.6126
4.52847
5.13
5.1695
5.20858
5.25781
5.30252
5.345
5.38265
5.41682
5.44848
5.47884
5.50814
5.53583
5.56115
5.58403
5.60573
5.62788
5.65011
5.67154
5.69187
5.71094
5.72899
5.7453
5.76144
5.77746
5.79327
5.80888
5.82392
5.83825
5.85208
5.8655
5.87862
5.89162
5.90452
5.9172
5.92979
5.942
5.95332
5.96391
5.97444
5.98528
5.99638
6.00748
6.01789
6.02733
6.03655
6.04619
6.05359
6.05641
6.05934
6.06255
6.0642
6.06437
6.06102
6.04662
6.00501
5.95279
5.88659
5.8024
5.69967
5.57876
5.44266
5.30533
5.17088
5.04001
4.92875
4.83989
4.76362
4.70301
4.65239
4.61551
4.58605
4.47545
5.0534
5.09508
5.13829
5.18975
5.23643
5.28032
5.31911
5.35412
5.38645
5.41737
5.44712
5.47518
5.50075
5.5238
5.54561
5.56785
5.59016
5.61157
5.63176
5.65056
5.66832
5.68429
5.69988
5.71536
5.73055
5.7454
5.75958
5.77294
5.78569
5.79789
5.80963
5.82109
5.83233
5.84317
5.85398
5.86456
5.87446
5.88372
5.89289
5.90222
5.91168
5.92125
5.93088
5.94032
5.94929
5.95749
5.96511
5.97373
5.9862
6.00452
6.0165
6.02353
6.02883
6.03235
6.03726
6.04194
6.03767
6.00142
5.91514
5.80459
5.65529
5.47574
5.28934
5.1139
4.96904
4.85932
4.77324
4.70661
4.65313
4.60637
4.56993
4.43319
4.99042
5.03385
5.0797
5.13249
5.18056
5.22542
5.26495
5.30044
5.33313
5.3643
5.39425
5.42243
5.44806
5.4711
5.49287
5.51505
5.53728
5.55854
5.57849
5.59698
5.61441
5.63003
5.64519
5.66011
5.67464
5.68875
5.70208
5.71452
5.72625
5.73732
5.74783
5.75797
5.7678
5.77725
5.78666
5.79596
5.80472
5.81299
5.82112
5.82932
5.83752
5.84579
5.85417
5.8624
5.8704
5.87835
5.88674
5.89619
5.90755
5.9206
5.93711
5.96023
5.98547
6.00126
6.01168
6.02024
6.02831
6.0354
6.03762
6.02152
5.94575
5.73756
5.50247
5.25705
5.05387
4.90463
4.79704
4.71773
4.65835
4.60915
4.56951
4.39695
4.93761
4.98252
5.02952
5.08254
5.1313
5.17654
5.21631
5.25185
5.28448
5.31556
5.34541
5.37346
5.39895
5.42183
5.44344
5.46543
5.48745
5.50845
5.5281
5.54626
5.56336
5.57863
5.59352
5.60791
5.62186
5.63533
5.64797
5.65965
5.67056
5.68078
5.69039
5.69961
5.70852
5.71709
5.72559
5.73402
5.74205
5.74966
5.7572
5.76465
5.77204
5.77941
5.78685
5.79415
5.80132
5.80864
5.81653
5.82546
5.83604
5.85016
5.86866
5.8904
5.91492
5.94037
5.96892
5.99461
6.01071
6.02234
6.03011
6.03171
6.02242
5.98117
5.8361
5.50215
5.21255
4.99672
4.84658
4.74346
4.67151
4.61763
4.57362
4.36405
4.89125
4.93725
4.98436
5.0368
5.08555
5.13063
5.1702
5.20541
5.23768
5.2684
5.29796
5.32574
5.35099
5.37365
5.39506
5.41683
5.4386
5.45934
5.47872
5.49664
5.51347
5.52843
5.54327
5.55725
5.57078
5.58382
5.596
5.60717
5.61756
5.62723
5.6363
5.64498
5.65337
5.66145
5.66943
5.67737
5.68497
5.6922
5.69938
5.7065
5.71341
5.72029
5.72717
5.73392
5.74047
5.74713
5.7543
5.76243
5.77255
5.78687
5.80569
5.82866
5.85522
5.88388
5.9138
5.9449
5.97166
5.99673
6.01066
6.01948
6.02142
6.00949
5.95962
5.82417
5.46463
5.15897
4.94088
4.79585
4.69991
4.63402
4.58306
4.3326
4.84807
4.89477
4.94141
4.9928
5.04104
5.08556
5.12463
5.1593
5.19103
5.22129
5.25046
5.27793
5.30293
5.32539
5.34662
5.3682
5.38976
5.41031
5.42952
5.44733
5.46395
5.4787
5.49367
5.50737
5.52066
5.53346
5.54539
5.55629
5.56638
5.57575
5.58453
5.59295
5.60108
5.60893
5.61667
5.62438
5.63176
5.63879
5.64577
5.65275
5.65948
5.66611
5.6727
5.67912
5.68529
5.69149
5.69813
5.70562
5.7154
5.72944
5.74837
5.77215
5.80008
5.8303
5.86048
5.89039
5.92204
5.95313
5.97799
5.99182
6.00091
6.00265
5.98511
5.928
5.76246
5.39706
5.10045
4.89261
4.75408
4.66533
4.60232
4.30131
4.80577
4.85284
4.8987
4.94883
4.99628
5.04001
5.07842
5.11243
5.14355
5.1733
5.20209
5.22928
5.25407
5.27638
5.29747
5.31893
5.34036
5.3608
5.37993
5.39775
5.41427
5.42885
5.44407
5.45759
5.47078
5.4835
5.49534
5.50612
5.51608
5.52533
5.53401
5.54233
5.5504
5.55821
5.5659
5.57354
5.58086
5.58784
5.59477
5.60173
5.60851
5.61507
5.62156
5.62784
5.63382
5.6398
5.64617
5.65335
5.66299
5.67679
5.69554
5.71928
5.74739
5.77802
5.80876
5.83938
5.87258
5.90659
5.93574
5.95471
5.96416
5.97167
5.97084
5.94597
5.87623
5.68867
5.32817
5.04858
4.85524
4.72396
4.63953
4.26939
4.76309
4.8103
4.85525
4.90407
4.95059
4.99345
5.03112
5.06446
5.09498
5.12425
5.15269
5.17966
5.2043
5.22651
5.24755
5.26895
5.29032
5.31075
5.3299
5.34781
5.36432
5.37879
5.39428
5.4077
5.42091
5.43368
5.44553
5.45632
5.46628
5.47554
5.48426
5.49265
5.5008
5.5087
5.5165
5.52423
5.53165
5.5387
5.54573
5.55279
5.55973
5.56646
5.57299
5.57927
5.58525
5.59124
5.59763
5.60498
5.61488
5.62873
5.64739
5.67092
5.6988
5.72933
5.76024
5.79089
5.82341
5.85727
5.8872
5.90875
5.91942
5.92619
5.93051
5.92447
5.89215
5.80894
5.60236
5.26134
5.00702
4.82821
4.70574
4.23683
4.71966
4.76683
4.81085
4.85838
4.90394
4.9459
4.98285
5.01554
5.04549
5.07432
5.1025
5.1293
5.15387
5.17606
5.19709
5.2185
5.23989
5.26037
5.27961
5.29767
5.31425
5.3288
5.34426
5.35782
5.37114
5.38402
5.39597
5.40685
5.41691
5.42629
5.43515
5.44372
5.45207
5.46021
5.46824
5.47621
5.48386
5.49115
5.4984
5.5057
5.51287
5.51989
5.52662
5.53307
5.53928
5.54558
5.55239
5.56052
5.57105
5.58535
5.60414
5.62751
5.65499
5.68496
5.71536
5.74518
5.77523
5.80608
5.83392
5.85463
5.86698
5.87401
5.8781
5.87738
5.86652
5.82765
5.73236
5.50663
5.19959
4.97292
4.80943
4.20377
4.67539
4.72242
4.76553
4.81182
4.85643
4.89754
4.93381
4.96589
4.99533
5.0238
5.05176
5.07847
5.10303
5.12524
5.14633
5.1678
5.18926
5.20983
5.22923
5.24745
5.26414
5.27883
5.29426
5.30803
5.32151
5.33456
5.34668
5.35772
5.36795
5.37753
5.38662
5.39545
5.40412
5.41259
5.421
5.42936
5.43738
5.44503
5.45263
5.46026
5.46777
5.47514
5.48232
5.48918
5.49588
5.5029
5.51075
5.51995
5.53145
5.54648
5.56561
5.58886
5.61578
5.64473
5.67374
5.70165
5.72811
5.75395
5.77737
5.79509
5.80691
5.81477
5.81922
5.81882
5.81286
5.79781
5.75159
5.64798
5.40696
5.14295
4.94397
4.17002
4.63048
4.6774
4.71965
4.76479
4.80851
4.84882
4.88445
4.916
4.94499
4.97315
5.00096
5.02764
5.05224
5.07454
5.09571
5.11728
5.13885
5.15953
5.17915
5.19753
5.21438
5.22921
5.24469
5.25869
5.27236
5.28562
5.29795
5.30921
5.31968
5.32954
5.33894
5.34812
5.35719
5.36613
5.37502
5.3839
5.39243
5.40056
5.40863
5.41672
5.42469
5.43256
5.44034
5.44794
5.45559
5.46377
5.47292
5.48342
5.49607
5.51193
5.5314
5.5544
5.58037
5.60767
5.63434
5.65909
5.68103
5.70081
5.71842
5.73177
5.7412
5.74844
5.75357
5.75389
5.7483
5.73849
5.71849
5.66181
5.55181
5.30891
5.0905
4.13652
4.58606
4.63289
4.67437
4.71844
4.76134
4.80093
4.836
4.86707
4.89569
4.92361
4.95132
4.97801
5.00269
5.02508
5.04638
5.06807
5.08976
5.11057
5.13042
5.14894
5.16598
5.18097
5.19655
5.21078
5.22467
5.23815
5.25073
5.26225
5.27301
5.28319
5.29296
5.30257
5.31214
5.32163
5.33113
5.34063
5.34978
5.35849
5.36713
5.37581
5.38439
5.39294
5.40155
5.41019
5.41908
5.42867
5.43927
5.45109
5.46482
5.48133
5.50085
5.52311
5.54751
5.57235
5.59577
5.61635
5.63293
5.64619
5.65737
5.66598
5.67234
5.6776
5.68233
5.68363
5.67942
5.67046
5.65858
5.63089
5.56177
5.42595
5.21338
4.10364
4.54266
4.58942
4.63016
4.67327
4.71541
4.75436
4.78894
4.8196
4.84789
4.87561
4.90326
4.93
4.95477
4.97729
4.99872
5.02054
5.04235
5.06331
5.08336
5.10203
5.11927
5.13446
5.15016
5.16463
5.17874
5.19247
5.20532
5.21714
5.22822
5.23878
5.24899
5.25911
5.26925
5.27938
5.28957
5.29979
5.30963
5.31902
5.32834
5.33772
5.34707
5.35649
5.36616
5.37605
5.38635
5.3974
5.40937
5.42231
5.4368
5.45352
5.47248
5.49332
5.51534
5.53696
5.5564
5.57208
5.58274
5.58962
5.59495
5.59899
5.60179
5.60464
5.60822
5.60983
5.60575
5.5972
5.58682
5.57074
5.53154
5.44385
5.27024
4.07088
4.4997
4.54637
4.58644
4.62864
4.67009
4.70846
4.74261
4.77291
4.80093
4.82849
4.85612
4.88292
4.90782
4.93048
4.95205
4.97402
4.99598
5.01708
5.03734
5.05619
5.07363
5.08908
5.10493
5.11966
5.13401
5.14803
5.1612
5.17337
5.18485
5.19585
5.20658
5.21728
5.22809
5.23895
5.24993
5.26096
5.27158
5.28175
5.29186
5.30208
5.31235
5.32281
5.33371
5.34497
5.35669
5.36908
5.38217
5.39582
5.4105
5.42673
5.44437
5.46297
5.4819
5.49975
5.51474
5.52504
5.53055
5.53234
5.53153
5.53136
5.53164
5.53257
5.53435
5.53449
5.52914
5.5207
5.51096
5.49624
5.46932
5.41375
5.26811
4.03802
4.45685
4.50344
4.54288
4.58424
4.62505
4.66289
4.69666
4.72666
4.75445
4.78189
4.80952
4.83642
4.86146
4.88428
4.90602
4.92816
4.95029
4.97157
4.99204
5.01108
5.02877
5.04453
5.06059
5.07561
5.09025
5.10461
5.11816
5.13075
5.14271
5.15424
5.16557
5.17695
5.18852
5.20021
5.21206
5.22398
5.23548
5.24651
5.25752
5.26871
5.28003
5.29166
5.30384
5.31644
5.32941
5.34282
5.35653
5.37027
5.3844
5.39933
5.41486
5.43058
5.44602
5.45988
5.4703
5.47626
5.47823
5.47464
5.46784
5.46596
5.46584
5.46558
5.46455
5.46147
5.4546
5.44548
5.43432
5.41818
5.39145
5.3456
5.24069
4.0048
4.41381
4.46033
4.49917
4.53975
4.57997
4.61735
4.65079
4.68053
4.70813
4.73548
4.76316
4.79017
4.81538
4.83839
4.86033
4.88267
4.90501
4.92655
4.94719
4.9665
4.98447
5.00066
5.01697
5.03232
5.04732
5.06209
5.07612
5.08923
5.10175
5.11392
5.12595
5.13811
5.15054
5.16313
5.17593
5.18882
5.20127
5.21324
5.22523
5.23748
5.2499
5.2627
5.27609
5.28981
5.30367
5.31759
5.33126
5.34433
5.35716
5.37009
5.38293
5.39549
5.40741
5.41745
5.42407
5.4271
5.42474
5.41586
5.40742
5.40568
5.40555
5.4044
5.40061
5.39489
5.38733
5.37749
5.36392
5.34196
5.30503
5.24663
5.1731
3.97041
4.36949
4.41597
4.45427
4.49413
4.5338
4.57076
4.60393
4.63345
4.66091
4.68823
4.71598
4.74316
4.76858
4.79182
4.81401
4.83661
4.85921
4.88109
4.90196
4.92161
4.93991
4.95666
4.97331
4.98909
5.00454
5.01985
5.03447
5.04822
5.06144
5.07437
5.08722
5.10027
5.11365
5.12725
5.14107
5.15498
5.16844
5.18141
5.19443
5.20774
5.22124
5.23511
5.24946
5.26393
5.27814
5.29192
5.30486
5.31661
5.32755
5.33802
5.348
5.3575
5.36627
5.37308
5.37731
5.37705
5.37002
5.35861
5.35127
5.3503
5.35012
5.34798
5.34235
5.33467
5.32451
5.3102
5.28858
5.25455
5.19542
5.13866
5.08176
3.93507
4.32403
4.37056
4.40838
4.44757
4.48673
4.52333
4.55625
4.58561
4.61296
4.64027
4.66814
4.69553
4.7212
4.74471
4.76719
4.79012
4.81307
4.83537
4.85652
4.87659
4.89529
4.91277
4.92984
4.94611
4.96212
4.9781
4.99345
5.00796
5.022
5.0358
5.04957
5.0636
5.07801
5.09265
5.10752
5.12249
5.13695
5.15089
5.16488
5.17915
5.19354
5.20818
5.22311
5.23779
5.25175
5.26475
5.27637
5.28637
5.29514
5.3031
5.31046
5.31741
5.32364
5.32851
5.33069
5.32668
5.31646
5.30543
5.29974
5.29901
5.29839
5.29529
5.28855
5.27908
5.26524
5.24449
5.21133
5.15854
5.10323
5.05011
5.00345
3.90032
4.2792
4.32585
4.36325
4.4018
4.44048
4.47672
4.50941
4.53862
4.56587
4.5932
4.62119
4.64879
4.67472
4.69851
4.7213
4.74457
4.7679
4.79066
4.81216
4.83267
4.8518
4.87008
4.88762
4.90444
4.92109
4.9378
4.95395
4.9693
4.9842
4.99892
5.01364
5.02866
5.04407
5.05972
5.07557
5.09149
5.10685
5.1216
5.13636
5.15132
5.16627
5.18128
5.19625
5.21058
5.22371
5.23542
5.24538
5.25344
5.26007
5.26579
5.27104
5.27619
5.28099
5.28444
5.2841
5.27712
5.26589
5.2561
5.25178
5.25107
5.24967
5.24558
5.23807
5.22698
5.20897
5.17927
5.13256
5.07975
5.02635
4.97734
4.93439
3.86713
4.23618
4.28298
4.31997
4.3579
4.39609
4.43198
4.46443
4.49346
4.5206
4.54792
4.57601
4.60379
4.62995
4.65401
4.67708
4.70071
4.72442
4.74763
4.76951
4.79047
4.81001
4.82909
4.8471
4.86449
4.88179
4.89926
4.91623
4.93241
4.94819
4.96379
4.97941
4.99534
5.01166
5.02817
5.04485
5.06151
5.07752
5.09282
5.10804
5.12332
5.13839
5.15325
5.16773
5.18115
5.193
5.20312
5.21127
5.2174
5.2221
5.22624
5.23021
5.23428
5.23812
5.24041
5.23749
5.22838
5.21784
5.20927
5.20586
5.20494
5.20309
5.19801
5.18939
5.17581
5.15276
5.11374
5.06335
5.00885
4.95587
4.90684
4.865
3.8353
4.1948
4.24174
4.27833
4.31564
4.35332
4.38885
4.42105
4.4499
4.47693
4.50422
4.53241
4.56036
4.58676
4.61106
4.63443
4.65839
4.68253
4.70617
4.72846
4.74988
4.7698
4.78973
4.80821
4.82615
4.84414
4.86237
4.88014
4.89713
4.91373
4.93015
4.94657
4.96329
4.98035
4.99752
5.01477
5.03189
5.04823
5.06374
5.07903
5.0942
5.10893
5.12317
5.1367
5.14886
5.15919
5.16767
5.17409
5.17863
5.18223
5.18543
5.18873
5.19232
5.19557
5.19664
5.19183
5.18179
5.17228
5.16483
5.16226
5.16133
5.1587
5.15238
5.14262
5.12617
5.0968
5.0527
4.99851
4.94154
4.88716
4.83701
4.7964
3.80383
4.15382
4.20088
4.23708
4.2738
4.31099
4.34616
4.37814
4.40683
4.43376
4.46105
4.48936
4.51753
4.5442
4.5688
4.59249
4.61682
4.64146
4.6655
4.6883
4.71022
4.73051
4.7514
4.77032
4.78885
4.80753
4.82652
4.84508
4.86285
4.8802
4.89733
4.91443
4.93176
4.94935
4.96693
4.98445
5.0017
5.01803
5.03341
5.04839
5.06307
5.0771
5.09039
5.10272
5.11349
5.1224
5.1295
5.13459
5.13837
5.14144
5.14435
5.14759
5.15118
5.15416
5.15408
5.1481
5.13829
5.12976
5.1233
5.12144
5.12033
5.11678
5.10926
5.09776
5.07788
5.04344
4.99439
4.93637
4.87677
4.82051
4.76979
4.73051
3.77253
4.11299
4.16021
4.19604
4.23221
4.26893
4.30378
4.33556
4.36412
4.39099
4.41834
4.44683
4.47528
4.50227
4.52722
4.55128
4.57602
4.60121
4.62567
4.64905
4.67152
4.69221
4.71399
4.73338
4.75253
4.77189
4.79161
4.81089
4.82933
4.84729
4.86499
4.88258
4.90029
4.91814
4.93583
4.9533
4.97035
4.98635
5.00128
5.01569
5.02962
5.04274
5.05497
5.06612
5.0757
5.08352
5.08973
5.09427
5.09787
5.10099
5.1042
5.10789
5.11179
5.11464
5.1139
5.10728
5.09814
5.09044
5.08485
5.08351
5.08199
5.07737
5.06852
5.05484
5.03124
4.99189
4.93816
4.87661
4.81464
4.75657
4.70633
4.66828
3.7422
4.07338
4.12081
4.15628
4.19194
4.22823
4.2628
4.29441
4.32288
4.34972
4.37715
4.40586
4.43463
4.46199
4.48731
4.51177
4.53693
4.56265
4.58753
4.6115
4.63456
4.65586
4.67799
4.69803
4.71777
4.73772
4.75805
4.7779
4.79684
4.81523
4.83327
4.85109
4.86893
4.88677
4.90429
4.92143
4.93801
4.95345
4.96775
4.98144
4.99457
5.0068
5.01808
5.02829
5.03705
5.04427
5.05018
5.05483
5.05869
5.0623
5.06623
5.0708
5.07513
5.07785
5.07683
5.06994
5.06144
5.05437
5.04954
5.04844
5.04644
5.04046
5.02998
5.01377
4.98621
4.9421
4.88403
4.81943
4.75547
4.69609
4.6468
4.60978
3.71382
4.03618
4.08386
4.119
4.15418
4.19006
4.22438
4.25586
4.28425
4.31109
4.33862
4.36756
4.39665
4.42439
4.45009
4.47493
4.50049
4.52669
4.55193
4.57644
4.60001
4.62189
4.64434
4.66492
4.68512
4.70553
4.72629
4.74652
4.76576
4.78436
4.80251
4.82034
4.83806
4.85567
4.8728
4.88943
4.9054
4.92019
4.93382
4.94681
4.95921
4.97071
4.98131
4.99093
4.99929
5.00637
5.01244
5.01759
5.02208
5.02648
5.03146
5.03702
5.0418
5.04437
5.04306
5.03614
5.02815
5.02155
5.01732
5.01611
5.01334
5.00583
4.99348
4.97444
4.94281
4.89414
4.83215
4.76502
4.69932
4.63937
4.59114
4.55516
3.68746
4.00149
4.04929
4.08417
4.11894
4.15444
4.18853
4.21989
4.24824
4.27507
4.30272
4.3319
4.36131
4.3894
4.41546
4.44066
4.46661
4.49318
4.51876
4.54374
4.56774
4.59014
4.61287
4.63385
4.65439
4.6751
4.69614
4.71658
4.73593
4.75455
4.77263
4.79029
4.80774
4.82496
4.84161
4.85765
4.87298
4.88715
4.90018
4.91259
4.92444
4.93545
4.94566
4.95504
4.96338
4.9707
4.97725
4.98312
4.98847
4.9939
5
5.00646
5.01157
5.01405
5.0123
5.00547
4.99784
4.99154
4.98771
4.98605
4.9824
4.97309
4.9587
4.93666
4.90093
4.84791
4.78247
4.71324
4.64619
4.58616
4.53918
4.50421
3.66226
3.96801
4.01601
4.05064
4.08504
4.1202
4.15409
4.18536
4.21367
4.24053
4.26829
4.29771
4.32745
4.35589
4.38231
4.40786
4.43423
4.46105
4.48698
4.51234
4.5367
4.55961
4.58256
4.60385
4.6246
4.64549
4.66667
4.68718
4.70652
4.72504
4.74293
4.76032
4.77742
4.7942
4.81035
4.82584
4.84061
4.85426
4.86683
4.87884
4.89035
4.90114
4.91125
4.92071
4.92935
4.93719
4.94446
4.95122
4.95758
4.9641
4.97127
4.97851
4.98379
4.98623
4.98397
4.97716
4.96976
4.96362
4.96
4.95772
4.95282
4.94168
4.92517
4.89998
4.86016
4.80304
4.73468
4.66361
4.5956
4.53596
4.49041
4.45648
3.63728
3.93479
3.98276
4.0173
4.05138
4.08622
4.11994
4.15114
4.17943
4.20632
4.2342
4.26386
4.29392
4.32272
4.34949
4.37538
4.40218
4.4292
4.45543
4.48111
4.50573
4.52919
4.55231
4.5738
4.59467
4.61565
4.63688
4.65736
4.6766
4.69495
4.7126
4.7297
4.74646
4.76284
4.77856
4.7936
4.80796
4.82125
4.83356
4.84538
4.8568
4.86762
4.87791
4.88773
4.89692
4.90548
4.91363
4.92139
4.9288
4.93641
4.94456
4.95243
4.95772
4.96007
4.95733
4.95048
4.94316
4.93703
4.93332
4.93039
4.9241
4.91106
4.89232
4.86385
4.82
4.75904
4.68839
4.61562
4.54709
4.48826
4.44429
4.41142
3.61242
3.90174
3.94958
3.98407
4.01789
4.05242
4.08596
4.11708
4.14534
4.17224
4.20022
4.23011
4.26046
4.2896
4.31669
4.34289
4.37009
4.39727
4.42374
4.44965
4.47443
4.49848
4.52168
4.54325
4.56417
4.58516
4.60637
4.62679
4.6459
4.66407
4.68151
4.69836
4.71485
4.73095
4.74637
4.76114
4.77526
4.78841
4.80065
4.8125
4.82406
4.83513
4.84581
4.85619
4.86609
4.87549
4.88459
4.89336
4.9018
4.91041
4.91939
4.92769
4.93286
4.93504
4.93185
4.92489
4.91757
4.91132
4.90733
4.90371
4.89578
4.88094
4.85985
4.82805
4.78031
4.71583
4.64336
4.56929
4.5006
4.44298
4.40064
4.36886
3.58857
3.86995
3.91758
3.95206
3.98562
4.01984
4.05317
4.08417
4.11236
4.13923
4.16726
4.19731
4.22791
4.25731
4.28467