/*--------------------------------*- C++ -*----------------------------------*\
| =========                 |                                                 |
| \\      /  F ield         | OpenFOAM: The Open Source CFD Toolbox           |
|  \\    /   O peration     | Version:  2212                                  |
|   \\  /    A nd           | Website:  www.openfoam.com                      |
|    \\/     M anipulation  |                                                 |
\*---------------------------------------------------------------------------*/
FoamFile
{
    version     2.0;
    format      ascii;
    arch        "LSB;label=32;scalar=64";
    class       volScalarField;
    location    "0.023";
    object      epsilon;
}
// * * * * * * * * * * * * * * * * * * * * * * * * * * * * * * * * * * * * * //

dimensions      [0 2 -3 0 0 0 0];

internalField   nonuniform List<scalar> 
44662
(
8929.27
20154
20044.1
20765.4
20453.9
7922.85
11044.4
7815.46
15903.3
16114.7
8980.4
24151.7
11307.5
19230.3
599344
20990.4
337454
272260
23976.2
9358.2
15169.7
297671
12918.7
14050.2
674822
23242.8
11611.4
20511.2
8024.18
19107.7
300415
20257.4
571467
16551.9
7.78386e+06
14154.5
17042.8
19653.3
24127.4
14652.2
14729.8
15727
57908.8
17962.1
15207.5
5881.49
36723.5
15414.9
17796.2
16511.7
21626.6
44845.8
20046.6
25766.1
16000.2
5793.66
19273
46136.3
13956.9
14197
7883.94
16093.4
16634.7
24521.4
15057.6
9896.54
35809.3
78752.9
25883.3
18056.7
19637.1
33574.8
43491
10063.3
18947
15885.3
5044.59
13987.1
14317.4
35529.8
6046.98
19738.2
16878.8
23442.1
6440.84
17241.5
20507.9
33297.2
19465.8
10862.6
22145.6
21309.2
14729.7
5485.9
15761.9
19711.9
23084.1
16479.5
14753.7
14685.8
6675.39
31437.4
12309.6
16024.5
11548.6
23760.2
11756.1
5621.34
14854.7
7823.57
11945.3
13997.3
30768.3
13848.6
14062.2
12122.8
14278.9
17823
10705.5
12240.9
13897.8
12442.5
15836
12222.6
12662
61801.7
12106.9
12845.2
23846.5
11895.8
12983.1
17015.3
9422.51
15053.7
11543.8
13077.8
15057.4
15187.5
10969.1
13127.5
15778.8
10202.5
32586.4
37373.4
9303.53
23981.6
19265.5
19365.1
57652.2
16218.9
14664
21816
9597.21
76766.4
44087.1
53532.7
13898.4
6617.64
6570.78
6525.2
6480.94
6438.24
6397.08
6357.44
6319.42
6282.97
6248.2
6215.17
6183.99
6154.72
6127.44
6102.19
6079.04
6058.02
6039.17
6022.54
6008.15
5996.03
5986.2
5978.7
5973.52
5970.69
5970.21
5972.07
5976.27
5982.8
5991.65
6002.81
6016.26
6032.02
6050.06
6070.38
6092.94
6117.73
6144.7
6173.83
6205.1
6238.47
6273.93
6311.43
6350.95
6392.46
6435.94
6481.42
6528.87
6578.36
6532.25
6581.68
6484.95
23065.7
6665.37
6618.77
6666.3
6629.9
6683.46
6686.7
6633.15
6396.25
6439.62
6315.39
6354.84
6242.48
6277.92
6177.86
6209.13
6121.73
6148.72
6074.34
6096.93
6036
6054.02
6006.82
6020.27
5986.77
5995.66
5975.89
5980.17
5974.32
5973.93
5982.18
5977.07
5999.4
5989.63
6025.81
6011.47
6061.2
6042.4
6105.3
6082.19
6157.77
6130.52
6218.18
6187.01
6286.01
6251.21
6360.53
6322.47
6441.37
6400.18
6528.4
6484.11
6574
6526.67
6572.12
6440.02
6482.65
6359.47
6399.02
6285.18
6321.52
6217.58
6250.51
6157.27
6186.47
6104.87
6130.05
6060.78
6081.75
6025.39
6041.98
5998.95
6011.03
5981.67
5989.16
5973.67
5976.51
5975.02
5973.18
5985.74
5979.21
6005.76
5994.59
6035.01
6019.24
6073.38
6053.07
6120.71
6095.95
6176.78
6147.67
6241.35
6208.01
6314.23
6276.77
6395.19
6353.72
6484.09
6438.65
6580.94
6531.52
6685.72
6632.36
6541.74
6590.87
6494.75
14769.2
21868.4
6624.35
6671.39
6742.18
6695.38
6750.75
6693.56
6740.95
6748.43
6714.41
6713.68
6642.13
6406.56
6449.7
6326.02
6365.33
6253.34
6288.68
6188.81
6220.04
6132.69
6159.68
6085.29
6107.88
6046.94
6064.97
6017.77
6031.21
5997.58
6006.54
5986.43
5990.86
5984.53
5984.3
5992.08
5987.12
6009.03
5999.4
6035.19
6020.97
6070.32
6051.65
6114.17
6091.18
6166.39
6139.26
6226.57
6195.51
6294.24
6259.51
6368.69
6330.67
6449.38
6408.29
6536.14
6492.03
6581.55
7990.07
6738.9
6533.01
6578.13
6446.84
6489.22
6366.66
6405.98
6292.7
6328.85
6225.45
6258.21
6165.47
6194.51
6113.35
6138.39
6069.53
6090.37
6034.38
6050.85
6008.17
6020.14
5991.1
5998.48
5983.27
5986.02
5984.75
5982.84
5995.56
5988.99
6015.67
6004.46
6044.99
6029.19
6083.38
6063.07
6130.67
6105.94
6186.65
6157.59
6251.07
6217.81
6323.75
6286.39
6404.46
6363.12
6493.05
6447.78
6589.46
6540.27
6640.56
6719.15
6764.38
6709.48
6557.29
6605.93
6510.71
6798.01
6805.06
6716.74
6767.25
6762.86
6761.97
6821.11
6782.75
6838.77
6811.09
6815.49
6656.7
6423.25
6466.04
6343.24
6382.28
6270.91
6306.1
6206.57
6237.72
6150.54
6177.5
6103.16
6125.75
6064.81
6082.83
6035.59
6049.07
6015.2
6024.26
6003.67
6008.32
6001.31
6001.31
6008.42
6003.68
6024.96
6015.53
6050.69
6036.69
6085.41
6066.94
6128.83
6106.05
6180.61
6153.69
6240.37
6209.52
6307.71
6273.14
6381.91
6344.01
6462.25
6421.33
6548.38
6504.64
15248.4
6593.35
6799.46
6796.14
6807.86
6823.74
6728.23
6775.86
6634.59
6681.04
6544.22
6588.85
6458.72
6500.74
6379.06
6418.11
6305.62
6341.51
6238.88
6271.39
6179.38
6208.18
6127.71
6152.53
6084.31
6104.95
6049.57
6065.84
6023.72
6035.51
6006.98
6014.2
5999.45
6002.06
6001.18
5999.16
6012.19
6005.53
6032.45
6021.17
6061.86
6046.02
6100.26
6079.95
6147.47
6122.78
6203.27
6174.31
6267.44
6234.33
6339.77
6302.6
6420.04
6378.93
6508.06
6463.1
6603.71
6554.95
6706.78
6654.32
6817.05
6761.04
6863.71
6871.67
6723.25
6728.58
6764.68
6879.48
6896.45
6805.22
6860.25
6833.47
6874.78
6890.33
6810.28
6859.52
6911.57
6532.45
6578.46
6626.44
6919.42
6747.96
6733.55
6676.42
6445.99
6488.31
6366.75
6405.46
6294.94
6329.9
6230.95
6261.94
6175.1
6201.98
6127.79
6150.35
6089.46
6107.49
6060.18
6073.72
6039.56
6048.84
6027.58
6032.48
6024.64
6024.95
6031.22
6026.74
6047.22
6038.07
6072.4
6058.68
6106.53
6088.36
6149.35
6126.87
6200.53
6173.92
6259.7
6229.14
6326.5
6292.19
6400.22
6362.56
6480.02
6439.42
6565.16
6521.96
17834.2
6609.53
50602.6
6856.78
6863.43
6858.45
6855.11
6866.69
6931.28
6836.52
6883.95
6742.15
6789.2
6649.65
6695.55
6560.48
6604.54
6475.83
6517.44
6396.88
6435.59
6324.11
6359.69
6258.03
6290.21
6199.15
6227.64
6148.06
6172.6
6105.22
6125.58
6071
6087.01
6045.64
6057.19
6029.34
6036.35
6022.2
6024.62
6024.26
6022.08
6035.55
6028.76
6055.97
6044.62
6085.45
6069.59
6123.82
6103.53
6170.89
6146.28
6226.4
6197.6
6290.16
6257.26
6361.93
6325.06
6441.5
6400.76
6528.63
6484.13
6623.15
6574.99
6724.83
6673.1
6778.29
6966.93
6978.36
6771.19
6752.06
6604.72
6651.88
6559.46
6916.88
6934.2
6948.83
6766.69
6795.4
6813.58
6813.24
6858.66
6907.54
6959.35
7014.15
7025.17
6781.39
6700.91
6474.32
6516.02
6396.16
6434.35
6325.07
6359.66
6261.62
6292.36
6206.12
6232.86
6159
6181.49
6120.76
6138.75
6091.51
6105.04
6070.65
6080.01
6058.13
6063.33
6054.55
6055.18
6060.53
6056.35
6075.9
6067.06
6100.4
6087.02
6133.81
6116
6175.89
6153.79
6226.31
6200.08
6284.72
6254.54
6350.84
6316.84
6423.86
6386.55
6502.77
6462.7
6586.7
6544.15
6674.95
6630.36
6720.43
6917.27
6923.51
6919.13
6915.79
6939.47
6927.13
6975.04
6955.66
7040.53
6947.78
6994.28
6854.19
6901
6761.19
6807.57
6669.92
6715.18
6582.04
6625.5
6498.43
6539.6
6420.37
6458.67
6348.38
6383.58
6283.06
6314.86
6224.92
6253.05
6174.55
6198.73
6132.37
6152.4
6098.76
6114.48
6073.98
6085.26
6058.2
6064.96
6051.52
6053.72
6053.96
6051.59
6065.52
6058.61
6086.11
6074.7
6115.61
6099.76
6153.86
6133.66
6200.65
6176.21
6255.73
6227.17
6318.86
6286.3
6389.81
6353.38
6468.34
6428.15
6554.22
6510.38
6647.18
6599.83
6747.06
6696.29
6853.61
6799.52
6966.63
6909.33
7071.58
7086.42
6860.96
6843.24
6819.57
6831.15
6884.75
6779.27
6861.57
7034.65
6996.67
7054.83
6986.64
7025.52
7043.93
6882.57
6908.72
6929.86
6906.71
6955.53
7006.9
7060.86
7117.36
6681.46
6635.31
6591.04
7131.71
6829.36
6939.96
6729.37
6507.6
6548.48
6430.82
6468.4
6360.85
6394.94
6298.24
6328.6
6243.29
6269.78
6196.52
6218.85
6158.5
6176.4
6129.33
6142.86
6108.36
6117.83
6095.28
6100.79
6091.07
6092.01
6096.39
6092.55
6111.07
6102.58
6134.82
6121.82
6167.42
6150.02
6208.64
6186.97
6258.16
6232.38
6315.68
6285.94
6380.91
6347.37
6453.11
6416.23
6530.89
6491.33
6613.34
6571.55
6699.89
6656.15
6789.94
6744.53
6835.97
6995.31
7008.97
6979.45
6985.28
6981.46
6978.14
7001.02
6989.17
7016.41
7150.53
7060.76
7105.91
6969.34
7015.12
6877.21
6923.22
6785.59
6831.25
6695.61
6740.19
6609.14
6651.96
6526.78
6567.36
6449.7
6487.51
6378.64
6413.38
6314.18
6345.54
6256.87
6284.59
6207.3
6231.09
6165.87
6185.54
6132.97
6148.34
6108.82
6119.78
6093.6
6100.08
6087.38
6089.36
6090.19
6087.66
6102.01
6094.98
6122.7
6111.25
6152.13
6136.32
6190.12
6170.07
6236.46
6212.26
6290.86
6262.66
6353.1
6321.02
6422.9
6387.07
6500.01
6460.56
6584.17
6541.23
6675.14
6628.83
6772.69
6723.11
6876.59
6823.86
6930.86
7176.33
7194.43
6891.24
6867.79
6859.4
6911.29
6809.15
6669.43
6714.23
6626.33
7019.56
7075.79
7085.95
7102.68
6978.15
6956.81
6909.65
6954.85
7003.17
7053.62
7106.78
7162.44
7220.05
7237.6
6877.66
6964.69
6760.78
6545.14
6584.95
6470.2
6506.88
6401.75
6435.13
6340.29
6370.14
6286.19
6312.28
6240.02
6262.07
6202.42
6220.12
6173.48
6186.91
6152.48
6162.07
6138.95
6144.71
6134.16
6135.39
6138.85
6135.33
6152.82
6144.7
6175.78
6163.19
6207.51
6190.56
6247.79
6226.6
6296.32
6271.04
6352.83
6323.6
6417.07
6383.99
6488.25
6451.89
6564.77
6525.95
6645.56
6604.64
6730.21
6687.44
6818.13
6773.86
6908.08
6862.9
6999.5
6953.63
7028.07
7045.78
7058.06
7070.73
7043.35
7048.75
7045.43
7042.2
7064.06
7052.82
7095.69
7078.62
7133.3
7114.31
7259.74
7174.45
7217.47
7086.33
7130.7
6996.42
7041.48
6905.84
6951.07
6815.69
6860.67
6727.25
6771.11
6642.12
6684.28
6561.1
6601.03
6485.13
6522.41
6415.1
6449.35
6351.59
6382.49
6295.21
6322.47
6246.48
6269.86
6205.86
6225.14
6173.69
6188.7
6150.19
6160.84
6135.52
6141.75
6129.75
6131.53
6132.87
6130.2
6144.84
6137.76
6165.5
6154.09
6194.7
6179.05
6232.23
6212.44
6277.86
6254.05
6331.29
6303.61
6392.27
6360.86
6460.52
6425.51
6535.75
6497.28
6617.71
6575.9
6706.11
6661.12
6800.73
6752.66
6901.33
6850.3
7007.71
6953.81
7119.7
7063.02
7279.73
7300.99
6939.01
6915.97
6888.78
6938.61
6840.57
6705.98
6749.19
6664.41
7004.64
6957.74
7192.03
7151.32
7207.53
7135.63
7177.76
7191.09
7112.63
7076.35
7002.38
7049.85
7099.78
7152.16
7206.64
7263.01
7341.02
7320.81
6925.66
7042.39
7096.24
6989.83
6794.08
6586.01
6624.46
6513.49
6549.01
6447.07
6479.5
6387.12
6416.24
6334.26
6359.77
6289.03
6310.65
6252.12
6269.52
6223.72
6236.89
6202.79
6212.36
6189.02
6194.93
6183.78
6185.26
6187.92
6184.69
6201.23
6193.45
6223.41
6211.22
6254.26
6237.76
6293.56
6272.87
6341.07
6316.31
6396.51
6367.81
6459.61
6427.11
6529.79
6493.93
6604.96
6566.85
6684.02
6643.99
6766.7
6724.92
6852.52
6809.31
6940.2
6896.19
7028.57
6984.37
7115.4
7072.33
7153.17
7190.08
7153.04
7147.9
7162.88
7122.47
7134.08
7108.92
7113.89
7111.05
7107.96
7128.71
7118.1
7158.09
7142.3
7175.09
7438.06
7366.68
7379.55
7403.47
7287.49
7327.72
7204.16
7246.21
7117.76
7161.23
7029.57
7073.84
6940.62
6984.99
6851.99
6896.15
6765.19
6808.25
6681.38
6722.79
6601.74
6640.98
6526.96
6563.65
6458.02
6491.73
6395.52
6425.92
6340.09
6366.89
6292.26
6315.2
6252.45
6271.33
6221
6235.66
6198.12
6208.47
6183.95
6189.94
6178.53
6180.15
6181.84
6179.1
6193.79
6186.74
6214.23
6202.96
6242.96
6227.57
6279.73
6260.36
6324.31
6301.07
6376.39
6349.43
6435.67
6405.15
6501.87
6467.93
6574.69
6537.47
6653.82
6613.48
6739.03
6695.68
6830.03
6783.81
6926.59
6877.63
7028.52
6976.9
7081.44
6986.56
6963.8
6918
6965.25
6872.27
7166.79
7219.98
7237.15
7247.78
7051.72
7005.17
7121.79
7049.18
7229.08
7194.58
7096.22
7145.28
7196.7
7250
7304.69
7360.35
7416
7489.37
7470.95
6785.06
6743.78
6704.16
6973.17
7063.65
7114.65
7013.85
6827.88
6629.17
6665.96
6559.73
6593.73
6495.81
6527.03
6437.98
6466.08
6386.85
6411.55
6343
6363.99
6307.15
6324.06
6279.52
6292.36
6259.03
6268.4
6245.3
6251.23
6239.8
6241.43
6243.55
6240.53
6256.31
6248.83
6277.79
6265.97
6307.81
6291.74
6346.17
6325.96
6392.64
6368.4
6446.97
6418.85
6508.97
6477.04
6578.05
6542.75
6652
6614.53
6729.31
6690.23
6810.16
6769.34
6894.12
6851.8
6980.03
6936.92
7066.69
7023.38
7152.5
7110.01
7230.53
7192.26
7268.59
7307.06
7268.73
7211.38
7224.52
7188.5
7199.01
7176.24
7180.71
7178.38
7175.38
7194.97
7185.05
7222.02
7207.57
7252.03
7237.26
7274.15
7264.86
7399.34
7435.53
7321.58
7361
7240.09
7281.2
7155.61
7198.08
7069.22
7112.6
6981.83
7025.44
6894.89
6938.22
6809.74
6852.02
6727.29
6768
6649.01
6687.61
6575.5
6611.58
6507.66
6540.82
6446.19
6476.09
6391.72
6418.04
6344.75
6367.26
6305.72
6324.22
6274.93
6289.28
6252.58
6262.69
6238.78
6244.61
6233.56
6235.1
6236.85
6234.15
6248.55
6241.66
6268.47
6257.5
6296.39
6281.44
6332.03
6313.26
6375.14
6352.68
6425.37
6399.38
6482.42
6453.07
6545.99
6513.41
6615.74
6580.11
6691.39
6652.85
6772.64
6731.33
6859.25
6815.29
6950.97
6904.48
7047.58
6998.67
7148.92
7097.67
7254.84
7201.32
7033.59
7011.09
6945.51
6989.73
6902.46
6781.59
6820.47
6744.2
7097.9
7051.93
7329.36
7278.22
7329.64
7256.6
7309.47
7307.44
7165.76
7095.54
7235.86
7141.86
7345.02
7307.87
7190.12
7240.45
7292.13
7344.89
7398.19
7451.81
7525.19
7504.23
7020.24
7178.07
7227.69
7081.74
7129.4
7035.18
6860.82
6673.37
6708.14
6607.63
6639.85
6546.95
6576.63
6491.92
6518.69
6443.14
6466.72
6401.2
6421.28
6366.89
6383.04
6340.44
6352.73
6320.79
6329.82
6307.45
6313.22
6302
6303.64
6305.6
6302.69
6318.01
6310.72
6338.95
6327.42
6368.26
6352.57
6405.77
6386.01
6451.27
6427.54
6504.56
6476.96
6565.51
6534.1
6633.55
6598.77
6706.31
6669.47
6781.93
6743.77
6861.08
6821.09
6943.34
6901.87
7027.64
6985.33
7112.91
7070.21
7197.26
7155.45
7276.07
7237.35
7351.57
7314.04
7382.42
7424.91
7388.57
7297.86
7305.7
7276.36
7287.58
7256.14
7265.51
7245.17
7249.15
7247.43
7244.57
7262.86
7253.68
7287.4
7274.4
7313.28
7300.79
7323.34
7559.36
7587.43
7512.25
7552.24
7439.03
7475.48
7362.5
7401.21
7282.86
7322.99
7200.33
7241.84
7115.76
7158.18
7030.11
7072.84
6944.86
6987.37
6861.21
6902.75
6780.29
6820.3
6703.29
6741.25
6630.99
6666.51
6564.26
6596.89
6503.8
6533.2
6450.22
6476.11
6404.06
6426.19
6365.71
6383.89
6335.45
6349.55
6313.47
6323.42
6299.84
6305.61
6294.57
6296.17
6297.56
6295.04
6308.68
6302.12
6327.7
6317.22
6354.37
6340.09
6388.41
6370.49
6429.49
6408.09
6477.3
6452.58
6531.49
6503.62
6591.73
6560.87
6657.69
6624.01
6729.07
6692.72
6805.56
6766.69
6886.92
6845.65
6972.9
6929.35
7063.28
7017.54
7157.89
7110.07
7206.74
7080.03
7057.68
6969.52
7010.3
6929.75
6817.77
6853.82
6783.07
7275.23
7322.32
7365.2
7359.26
7143.09
7098.23
7208.8
7141.33
7276.61
7186.83
7346.53
7234.13
7460.42
7419.04
7282.96
7332.89
7383.74
7435.36
7486.31
7619.26
7537.57
7591.56
7682.73
7648.74
7708.97
7066.9
7183.38
7228.9
7094.92
7138.7
7052.1
6891.27
6717.25
6749.59
6655.95
6686.02
6599.31
6627.02
6547.85
6572.91
6502.11
6524.23
6462.73
6481.59
6430.56
6445.71
6405.86
6417.33
6387.49
6395.92
6375.01
6380.43
6370.04
6371.49
6373.82
6370.86
6386.18
6378.95
6406.83
6395.48
6435.64
6420.22
6472.46
6453.06
6517.14
6493.83
6569.53
6542.38
6629.52
6598.61
6696.47
6662.23
6768.11
6731.9
6842.23
6804.86
6919.73
6880.56
7000.39
6959.72
7083.11
7041.57
7166.81
7124.9
7249.59
7208.53
7327.97
7289.41
7402.54
7365.6
7474.34
7438.81
7494.99
7542.48
7508.92
7359.9
7364.82
7342.83
7352.06
7325.41
7333.57
7315.78
7319.26
7318.11
7315.35
7332.35
7323.91
7354.24
7342.74
7375.78
7365.69
7385.59
7382.94
7370.19
7381.95
7623.96
7654.59
7554.8
7590.34
7485
7520.29
7410.78
7448.48
7333.12
7372.26
7252.4
7292.99
7169.73
7211.27
7085.83
7127.79
7002.24
7043.91
6920.14
6960.9
6840.65
6879.95
6764.9
6802.23
6693.76
6728.7
6628.06
6660.18
6568.51
6597.47
6515.74
6541.25
6470.24
6492.05
6432.39
6450.34
6402.46
6416.42
6380.59
6390.51
6366.85
6372.71
6361.19
6363.02
6363.5
6361.36
6373.59
6367.59
6391.23
6381.49
6416.12
6402.79
6447.95
6431.19
6486.39
6466.37
6531.07
6507.97
6581.66
6555.65
6637.79
6609.05
6699.14
6667.84
6765.39
6731.67
6836.24
6800.25
6911.42
6873.3
6990.71
6950.57
7073.89
7031.82
7160.8
7116.89
7251.29
7205.6
7345.24
7297.84
7125.87
7103.85
7025.18
6988.34
7187.33
7143.84
7418.82
7348.56
7392.12
7321.37
7393.49
7364.59
7250.98
7186.29
7316.6
7230.83
7384.39
7276.91
7454.85
7324.15
7575.03
7528.66
7372.59
7421.88
7470.98
7519.96
16526.9
33135.6
7569.86
7621.99
7676.9
7836.73
42306.9
6883.46
7735
6850.79
7112.94
7263.37
7305.63
7180.88
7221.77
7101.36
7140.72
7062.83
6952.36
6917.32
6759.25
6819.23
6788.75
6703.29
6730.76
6651.57
6676.9
6604.49
6627.42
6562.6
6582.86
6526.55
6543.79
6497.2
6511
6474.88
6485.22
6458.41
6465.97
6447.37
6452.12
6443.4
6444.38
6447.82
6444.57
6460.52
6453.16
6481.23
6469.88
6509.84
6494.55
6546.24
6527.08
6590.3
6567.32
6641.98
6615.21
6701.17
6670.68
6767.27
6733.47
6837.78
6802.17
6910.52
6873.88
6986.46
6948.08
7065.54
7025.65
7146.68
7105.93
7228.61
7187.62
7309.62
7269.46
7386.96
7348.81
7460.6
7424.16
7531.05
7496.18
7597.6
7564.85
7606.59
7659.99
7629.32
7422.01
7412.05
7423.23
7425.15
7410.79
7417.93
7396.27
7403.17
7388.07
7391.02
7390.5
7387.85
7403.39
7395.79
7422.48
7412.58
7439.5
7431.91
7442.83
7443.69
7435.14
7670.94
7700.01
7606.2
7639.52
7538.81
7572.87
7467.02
7503.51
7391.24
7429.54
7312.56
7352.1
7231.61
7272.23
7149.5
7190.6
7067.52
7108.36
6986.87
7026.98
6908.71
6947.38
6834.12
6870.91
6764.03
6798.47
6699.22
6730.92
6640.44
6669.04
6588.28
6613.5
6543.22
6564.83
6505.62
6523.47
6475.72
6489.7
6453.63
6463.69
6439.39
6445.53
6432.9
6435.18
6434.03
6432.53
6442.56
6437.39
6458.21
6449.51
6480.67
6468.61
6509.6
6494.35
6544.63
6526.37
6585.4
6564.32
6631.55
6607.83
6682.71
6656.52
6738.54
6710.06
6798.73
6768.11
6862.98
6830.36
6931.03
6896.54
7002.65
6966.41
7077.64
7039.73
7155.84
7116.35
7237.12
7196.1
7278.88
7170.77
7149.4
7315.3
7353.32
11556.9
7442.57
7408.51
7230.59
7188.75
7292.27
7230.29
7355.8
7273.76
7421.5
7318.37
7489.84
7364.37
7561.51
7411.42
7689.12
7637.42
7458.56
7505.58
7552.68
7600.98
7651.38
7705.35
7763.28
7818.33
8116.65
7747.09
9396.87
7158.32
7240.9
7277.83
7168.76
7204.53
7099.2
7133.64
7032.47
7065.48
6968.43
7000.04
6907.78
6937.6
6850.89
6878.85
6797.67
6823.85
6748.03
6772.42
6702.15
6724.63
6660.35
6680.71
6623.21
6641.16
6591.36
6606.56
6565.66
6577.67
6546.46
6555.31
6532.54
6538.95
6523.66
6527.45
6521.39
6521.53
6527.03
6523.18
6540.58
6532.83
6561.8
6550.24
6590.62
6575.26
6626.96
6607.85
6670.71
6647.91
6721.92
6695.38
6780.61
6750.36
6846
6812.57
6915.54
6880.49
6987.08
6951.11
7061.55
7023.91
7139.1
7099.96
7218.69
7178.74
7298.86
7258.8
7377.98
7338.69
7453.94
7416.43
7526.37
7490.57
7595.27
7561.18
7660.28
7628.3
7720.84
7691.06
7887.42
7927.46
7749.13
8218.27
7879.1
8326.38
7479.88
7465.78
7487.86
7486.66
7480.21
7485.19
7468.73
7474.32
7462.03
7464.4
7464.5
7462.01
7475.99
7469.28
7492.16
7483.94
7504.44
7499.46
7501.05
7505.54
7468.22
7489.21
7391.9
7436.34
7728.25
7756.42
7666.55
7698.03
7601.09
7634.24
7531.58
7566.93
7457.94
7495.25
7381.1
7419.79
7301.95
7341.65
7221.57
7261.79
7141.13
7181.22
7061.8
7101.26
6984.78
7022.88
6911.21
6947.51
6841.97
6875.99
6777.85
6809.22
6719.59
6747.95
6667.77
6692.84
6622.84
6644.42
6585.14
6603.07
6554.86
6569.06
6532.11
6542.54
6516.85
6523.55
6508.99
6512.01
6508.33
6507.77
6514.63
6510.63
6527.58
6520.29
6546.85
6536.45
6572.06
6558.73
6602.84
6586.78
6638.82
6620.21
6679.61
6658.63
6724.85
6701.69
6774.2
6749.03
6827.35
6800.32
6884.01
6855.26
6943.93
6913.58
7006.9
6975.05
7072.71
7039.46
7141.24
7106.64
7212.35
7176.48
7285.96
7248.85
7362
7323.68
7849.32
7214.75
7194.21
7272.89
7232.76
7431.03
7333.46
7366.42
7301.64
7400.93
7334.46
7332.64
7273.18
7394.14
7315.43
7457.81
7358.86
7524.07
7403.61
7593.62
7448.74
7667.78
7493.91
7538.99
16931.6
7584.53
8252.18
7631.3
7680.59
7791.92
7850.04
7886.95
7886.91
7926.07
7734.26
7961.62
7976.93
8012.99
7202.79
7268.89
7300.95
7206.16
7237.3
7145.33
7175.5
7086.68
7115.71
7030.34
7058.23
6976.19
7002.92
6924.64
6950.05
6876.09
6899.99
6830.68
6853
6788.38
6809.16
6749.27
6768.42
6713.77
6731.04
6682.36
6697.52
6655.65
6668.37
6634.54
6644.34
6619.29
6626.24
6608.84
6613.55
6602.88
6605.27
6603.05
6602.06
6610.64
6605.88
6625.69
6617.24
6648.01
6635.94
6677.55
6661.88
6714.29
6695.03
6758.16
6735.33
6809.27
6782.78
6867.78
6837.62
6932.76
6899.57
7001.62
6966.95
7072.14
7036.73
7145.26
7108.31
7221.43
7182.97
7299.58
7260.37
7378.06
7338.87
7455.28
7416.93
7529.61
7492.87
7600.37
7565.46
7667.36
7634.35
7730.23
7699.34
7788.6
7760.01
7845.89
7815.99
8293.87
7492.48
7453.15
7538.83
7520.47
7553.78
7549.35
7551.1
7553.83
7542.77
7547
7537.61
7539.4
7540.13
7537.8
7550.19
7544.39
7563.27
7556.8
7570.62
7568.35
7560.28
7568.5
7518.42
7544.19
7481.24
7898.16
7936.85
7847.18
7871.17
7795.09
7821.97
7735.83
7766.09
7672.54
7704.69
7605.23
7639.42
7533.73
7570.04
7458.73
7496.56
7381.36
7420.27
7302.44
7342.04
7223.36
7262.86
7145.11
7184.04
7069.08
7106.74
6996.29
7032.23
6927.63
6961.39
6863.92
6895.11
6805.85
6834.14
6753.99
6779.11
6708.78
6730.53
6670.5
6688.76
6639.34
6654.03
6615.34
6626.45
6598.46
6606.02
6588.54
6592.64
6585.37
6586.13
6588.66
6586.23
6598.09
6592.63
6613.29
6604.99
6633.88
6622.94
6659.48
6646.08
6689.68
6674.03
6724.13
6706.4
6762.45
6742.83
6804.32
6782.96
6849.43
6826.49
6897.51
6873.11
6948.32
6922.59
7001.66
6974.68
7057.36
7029.22
7115.3
7086.06
7175.37
7145.07
7237.49
7206.18
7269.32
7257.72
7238.06
7717.79
7259.85
7286.35
7440.45
7367.78
7314.14
7275.67
7372.04
7315
7431.63
7356.1
7493.25
7398.43
7557.45
7441.43
8046.44
7994.71
7625.12
7484.74
7697.01
7528.08
7771.89
7571.58
7920.72
7836.14
7615.72
7859.1
29714.2
7661.25
4013.78
7709.64
7763.16
8078.83
8108.38
8140.39
7246.29
7208.01
7233.74
7157.68
7182.66
7108.97
7133.12
7062.07
7085.27
7017.03
7039.32
6973.68
6995.12
6932.17
6952.68
6892.9
6912.22
6856.26
6874.25
6822.28
6838.96
6791.06
6806.32
6762.92
6776.58
6738.3
6750.14
6717.78
6727.48
6702.21
6709.33
6691.87
6696.41
6685.84
6688.36
6683.75
6684.23
6687.24
6684.68
6697.61
6691.53
6714.94
6705.42
6739.06
6726.15
6769.99
6753.67
6807.73
6788.01
6852.28
6829.15
6903.75
6877.11
6962.53
6932.25
7027.53
6994.34
7096.03
7061.59
7165.82
7130.82
7237.85
7201.46
7312.85
7274.97
7389.74
7351.18
7466.73
7428.31
7542.18
7504.74
7614.71
7578.86
7683.59
7649.64
7748.4
7716.52
7808.81
7779.17
7864.54
7837.24
7919.06
7891.14
7953.53
7543.21
7498.51
7598.84
7576.1
7620.98
7613.21
7623.46
7623.85
7618.42
7621.23
7614.83
7616.03
7617.4
7615.24
7625.95
7621.11
7635.8
7631.18
7638.04
7638.57
7620.55
7632.6
7569.41
7600.09
7470.71
7526.8
7313.22
7399.85
8040.8
8075.6
7972.8
8004.98
7923.15
7947.46
7872.14
7898.27
7814.99
7844.07
7753.89
7784.91
7688.71
7721.84
7619.22
7654.51
7546.02
7583.02
7470.17
7508.4
7392.52
7431.46
7314.44
7353.47
7237.07
7275.59
7161.73
7199.08
7089.39
7125.13
7020.95
7054.63
6957.23
6988.46
6898.91
6927.36
6846.53
6871.95
6800.49
6822.7
6761.06
6779.94
6728.38
6743.87
6702.44
6714.57
6683.18
6691.99
6670.41
6676
6663.87
6666.38
6663.27
6662.85
6668.24
6665.08
6678.41
6672.7
6693.39
6685.33
6712.79
6702.56
6736.2
6724.02
6763.28
6749.31
6793.66
6778.08
6827.03
6809.99
6863.11
6844.75
6901.63
6882.08
6942.39
6921.74
6985.21
6963.55
7029.95
7007.35
7076.49
7053
7124.76
7100.41
7174.71
7149.53
7226.31
7200.3
7279.56
7252.73
7299.71
7280.85
7354.46
7317.48
7340.49
7210.29
7230.76
7175.3
7306.81
7195.84
7410.58
7355.79
7468.28
7395.89
8172.56
8111.25
7527.9
7436.74
8026.64
7590.18
7478.1
7655.73
7519.76
7724.94
7561.4
7952.15
7791.89
7603.61
7888.32
7861
7646.41
7836.55
16816.6
14528.2
7690.92
7738.17
7789.02
8205.68
8243.12
8275.38
7288.77
7170.34
7190.15
7131.67
7150.84
7094.29
7112.8
7058.29
7076.12
7023.82
7040.85
6990.89
7007.17
6959.09
6974.86
6928.41
6943.58
6899.37
6913.65
6872.46
6885.64
6847.83
6859.87
6825.54
6836.39
6805.84
6815.34
6789.1
6797.07
6775.85
6782
6766.84
6770.77
6762.42
6764.07
6761.84
6761.75
6764.66
6762.77
6772.54
6767.87
6786.67
6778.79
6807.16
6796.12
6833.93
6819.76
6867.02
6849.68
6906.5
6885.97
6952.39
6928.64
7004.87
6977.78
7064.42
7033.76
7129.96
7096.52
7198.63
7164.15
7268.05
7233.26
7339.4
7303.38
7413.56
7376.11
7489.5
7451.44
7565.24
7527.49
7639.21
7602.55
7710.02
7675.07
7776.99
7744.02
7839.63
7808.87
7897.57
7869.23
7950.66
7924.74
8003
7976.32
8065.25
8033.04
8126.11
8096.48
8185.86
8155.22
7480.57
7401.6
7594.77
7544.56
7659.91
7632.67
7689.45
7678.24
7697.28
7695.26
7695.65
7696.98
7693.72
7694.31
7696.32
7694.34
7703.3
7699.47
7709.78
7707.07
7706.72
7710.16
7681.87
7697.87
7621.16
7656.89
7510.97
7573.03
7433.75
8180.78
8211.89
8117.54
8149.44
8057.34
8085.87
8008.12
8032.45
7959.32
7984.58
7904.68
7932.45
7845.79
7875.7
7782.61
7814.8
7714.93
7749.35
7643.28
7679.54
7568.58
7606.31
7491.96
7530.45
7414.57
7453.29
7337.71
7376
7262.66
7299.9
7190.33
7226.1
7121.65
7155.49
7057.41
7088.93
6998.27
7027.17
6944.76
6970.79
6897.23
6920.23
6855.92
6875.79
6820.93
6837.64
6792.25
6805.81
6769.74
6780.23
6753.19
6760.74
6742.34
6747.08
6736.84
6738.94
6736.34
6735.99
6740.44
6737.84
6748.76
6744.1
6760.89
6754.37
6776.47
6768.27
6795.13
6785.43
6816.56
6805.52
6840.45
6828.21
6866.54
6853.23
6894.61
6880.34
6924.48
6909.33
6955.99
6940.04
6989.03
6972.32
7023.52
7006.1
7059.41
7041.29
7096.67
7077.87
7135.3
7115.81
7155.13
7340.68
7322.58
7091.06
7104.72
8263
8512.43
7334.48
7216.72
7393.78
7358.32
8309.22
8240
7448.16
7395.58
8144.34
7504.02
7434.45
8058.64
7561.85
7473.76
7622.17
7513.68
7685.37
7553.71
7983.17
7750.35
7594.1
7917.75
7817.64
7634.86
7861.93
7889.31
7676.65
4128.09
7720.05
7765.91
7812.76
8149.7
8474.42
7330.23
7064.62
7077.69
7039.32
7051.84
7015.21
7027.11
6992.31
7003.6
6970.75
6981.35
6950.51
6960.49
6930.86
6940.63
6911.76
6921.22
6893.7
6902.54
6877.39
6885.31
6863.06
6869.97
6850.7
6856.63
6840.49
6845.31
6832.7
6836.27
6827.8
6829.86
6826.42
6826.65
6829.07
6827.23
6834.99
6831.69
6843.9
6838.99
6857.25
6849.94
6876.2
6866.01
6900.87
6887.82
6931.25
6915.34
6967.43
6948.61
7009.51
6987.73
7057.54
7032.77
7111.82
7083.89
7172.76
7141.45
7239.49
7205.51
7308.97
7274.16
7378.57
7343.71
7449.82
7413.91
7523.54
7486.38
7598.93
7561.18
7673.84
7636.55
7746.67
7710.62
7816.07
7781.87
7881.28
7849.23
7941.79
7912.13
7997.44
7970.28
8047.99
8023.33
8097.55
8072.49
8152.23
8124.27
8207.13
8179.92
8234.07
7521.29
7435.92
7647.14
7591.32
7722.03
7690.17
7759.21
7744.45
7772.56
7768.03
7774.48
7774.28
7774.28
7774.23
7776.91
7775.12
7782.22
7779.44
7785.21
7784.48
7776.69
7783.1
7744.2
7764.3
7673.72
7714.59
7551.81
7619.95
7368.15
7468.13
7118.67
7251.57
8554.1
8588.82
8493.9
8456.27
8344.73
8386.45
8420.64
8323.01
8353.8
8263.7
8293.02
8205.62
8234.56
8151.62
8177.62
8104.15
8127.45
8057.43
8081.43
8005.39
8031.99
7948.68
7977.57
7887.34
7918.64
7821.15
7854.83
7750.7
7786.4
7676.87
7714.14
7600.82
7639.06
7523.69
7562.29
7446.86
7485.14
7371.59
7408.99
7298.73
7334.79
7229.2
7263.5
7163.79
7195.94
7103.14
7132.83
7047.73
7074.76
6997.92
7022.11
6953.89
6975.17
6915.7
6934.07
6883.32
6898.79
6856.57
6869.25
6835.23
6845.24
6819
6826.5
6807.54
6812.7
6800.47
6803.48
6797.42
6798.47
6797.98
6797.27
6801.78
6799.5
6808.48
6804.79
6817.72
6812.8
6829.23
6823.21
6842.73
6835.74
6857.99
6850.15
6874.82
6866.22
6893.09
6883.79
6912.66
6902.72
6933.47
6922.92
6955.46
6944.32
6978.59
6966.88
7002.89
6990.6
7028.36
7015.48
7055.04
7041.54
7082.97
7068.84
8538.97
8382.49
7380.65
7363.24
8276.16
7432.15
7398
7132.95
6970.42
6978.01
6934.2
7097.43
6942.08
8178.85
7484.83
7434.16
8091.53
7538.99
7471.68
7595.02
7509.59
7653.36
7548.11
8014.68
7714.17
7586.83
7947.79
7777.92
7625.88
7889.89
7845.45
7665.56
7918.58
7706.35
3873.11
7748.59
7839.26
7792.36
8087.33
8183.81
8361.09
8287.9
8599.32
8535.25
8422.56
8398.23
6649.26
7370.59
6956.14
6963.13
6942.99
6949.43
6930.96
6936.83
6920.09
6925.4
6910.41
6915.1
6902.02
6906.05
6894.73
6898.31
6887.77
6891.25
6880.75
6884.23
6874.33
6877.39
6869.34
6871.61
6866.1
6867.5
6864.58
6865.13
6864.8
6864.47
6866.98
6865.63
6871.49
6868.92
6878.87
6874.78
6889.58
6883.81
6903.17
6896.08
6919.38
6910.87
6939.41
6928.83
6964.32
6951.24
6994.28
6978.67
7029.36
7011.17
7069.67
7048.85
7115.34
7091.83
7166.45
7140.2
7223.37
7194.17
7286.57
7254.19
7355.24
7320.35
7426.25
7390.76
7496.83
7461.54
7568.58
7532.49
7642.45
7605.23
7717.84
7680.12
7792.42
7755.34
7864.58
7828.91
7932.94
7899.3
7996.7
7965.44
8055.29
8026.65
8108.65
8082.62
8156.68
8133.22
8202.76
8179.65
8250.72
8226.61
8298.84
8274.96
8348.83
8323.11
8406.75
8377.02
8439.34
7362.58
7237.98
7562.6
7470.74
7700.34
7638.79
7785.22
7748.62
7830.25
7811.84
7849.31
7842.19
7854.92
7853.11
7856.52
7855.79
7859.16
7857.59
7862.72
7861.04
7862.1
7863.43
7847.91
7857.43
7807.58
7831.88
7727.1
7773.24
7593.22
7667.57
7396.21
7502.99
7272.72
8471.88
8504.48
8412.14
8440.99
8356.75
8383.89
8304.3
8330.06
8255.95
8279.53
8211.4
8233.45
8166.58
8189.55
8117.3
8142.74
8062.66
8090.59
8002.88
8033.46
7937.87
7971
7868.21
7903.56
7794.82
7831.92
7718.8
7757.06
7641.41
7680.2
7564.09
7602.64
7487.94
7525.81
7413.86
7450.58
7342.76
7377.88
7275.39
7308.56
7212.39
7243.32
7154.22
7182.68
7101.18
7127.05
7053.45
7076.65
7011.05
7031.58
6973.9
6991.83
6941.83
6957.25
6914.59
6927.63
6891.87
6902.68
6873.31
6882.09
6858.56
6865.48
6847.23
6852.49
6838.97
6842.74
6833.41
6835.87
6830.23
6831.54
6829.13
6829.43
6829.85
6829.27
6832.16
6830.82
6835.89
6833.86
6840.88
6838.24
6847.02
6843.81
6854.25
6850.5
6862.5
6858.25
6871.77
6867.01
6882.06
6876.79
6893.4
6887.6
6905.83
6899.47
6919.4
6912.47
6926.65
8314.48
7419.58
7402.78
6688.17
6808.44
6809.74
7112.24
6950.3
8215.12
7469.54
7436.59
8125.91
7520.62
7471.51
7573.13
7507.8
7627.46
7544.41
8047.2
7684.05
7581.57
7978.7
7743.72
7619.06
7919.25
7806.69
7657.04
7874.66
7695.76
7948.97
7735.6
7867.49
7776.64
8030.83
8120.93
7820.45
8219.39
8325.61
8649.07
8714.79
8767.62
30241.7
25888.9
8438.03
8703.89
8583.63
8466.47
8355.58
7409.92
6806.8
6807.46
6806.38
6806.44
6807.2
6806.63
6809.24
6808.07
6812.53
6810.7
6817.25
6814.71
6823.04
6820.09
6828.88
6826.08
6834.25
6831.64
6839.85
6836.93
6846.75
6843.09
6855.26
6850.8
6865.3
6860.1
6876.79
6870.86
6889.84
6883.1
6904.72
6897.03
6921.9
6912.99
6941.77
6931.49
6964.16
6952.7
6988.87
6976.19
7016.81
7002.36
7048.87
7032.29
7085.31
7066.54
7126.25
7105.21
7171.84
7148.45
7222.21
7196.42
7277.46
7249.21
7337.99
7307.05
7404.49
7370.49
7475.97
7439.73
7549.39
7512.79