/*--------------------------------*- C++ -*----------------------------------*\
| =========                 |                                                 |
| \\      /  F ield         | OpenFOAM: The Open Source CFD Toolbox           |
|  \\    /   O peration     | Version:  2212                                  |
|   \\  /    A nd           | Website:  www.openfoam.com                      |
|    \\/     M anipulation  |                                                 |
\*---------------------------------------------------------------------------*/
FoamFile
{
    version     2.0;
    format      ascii;
    arch        "LSB;label=32;scalar=64";
    class       volScalarField;
    location    "0.00186";
    object      T;
}
// * * * * * * * * * * * * * * * * * * * * * * * * * * * * * * * * * * * * * //

dimensions      [0 0 0 1 0 0 0];

internalField   nonuniform List<scalar> 
7220
(
256.232
272.864
272.853
272.846
272.856
272.847
273.007
273.088
272.936
272.995
258.94
275.637
267.079
259.704
260.435
273.185
263.152
251.454
263.327
252.229
264.317
268.98
272.912
268.864
274.713
269.217
268.115
256.542
264.301
265.497
274.657
266.064
273.199
265.263
275.577
257.569
272.86
259.628
259.103
251.332
251.785
251.786
251.333
257.723
257.671
257.583
257.614
257.646
252.267
252.771
252.772
252.268
253.289
253.814
253.816
253.291
254.338
254.85
254.851
254.339
255.342
255.804
255.805
255.343
256.226
256.599
256.6
256.227
256.915
257.167
257.167
256.915
257.357
257.492
257.49
257.356
257.582
257.639
257.635
257.58
257.673
257.69
257.68
257.666
257.669
257.68
257.695
257.689
257.675
257.76
250.912
250.913
251.891
251.437
257.627
257.536
257.651
257.616
257.816
257.787
257.808
257.692
257.751
257.465
257.601
257.021
257.274
256.331
256.705
255.446
255.909
254.442
254.954
253.393
253.918
252.37
252.874
251.435
251.889
252.878
252.374
253.922
253.397
254.958
254.446
255.912
255.45
256.706
256.334
257.273
257.021
257.595
257.462
257.739
257.684
257.78
257.769
257.778
257.812
251.015
251.017
257.922
257.977
257.558
257.563
257.802
257.783
258.061
257.877
257.748
258.042
258.078
258.072
258.042
258.067
257.941
258.002
257.711
257.848
257.265
257.519
256.574
256.948
255.688
256.151
254.682
255.195
253.632
254.158
252.609
253.113
251.673
252.127
250.632
250.87
251.253
250.528
250.528
251.256
250.872
250.633
252.132
251.677
253.119
252.614
254.165
253.639
255.201
254.688
256.156
255.694
256.95
256.578
257.515
257.264
257.837
257.704
257.979
257.925
258.014
258.006
258.005
257.774
257.839
258.26
258.311
250.284
250.523
251.602
251.218
257.467
257.682
257.464
257.694
258.414
258.011
258.106
258.009
258.215
258.392
258.435
258.427
258.399
258.425
258.297
258.359
258.064
258.203
257.616
257.871
256.924
257.299
256.037
256.5
255.029
255.543
253.979
254.505
252.954
253.459
252.018
252.472
251.215
251.598
250.18
250.18
250.525
250.285
252.477
252.023
253.466
252.961
254.513
253.986
255.55
255.037
256.506
256.043
257.3
256.928
257.864
257.614
258.185
258.053
258.325
258.273
258.356
258.351
258.344
258.172
250.87
250.872
257.491
257.562
257.886
257.37
258.359
258.693
258.74
258.646
257.958
251.648
251.304
250.213
250.562
257.627
257.341
257.724
257.41
257.634
257.892
257.518
257.389
258.788
258.848
258.824
258.872
258.863
258.841
258.866
258.738
258.801
258.504
258.644
258.054
258.31
257.36
257.736
256.471
256.935
255.463
255.977
254.411
254.938
253.386
253.891
252.449
252.903
252.03
250.561
249.972
250.212
249.867
249.867
249.972
251.306
252.034
251.651
252.909
252.454
253.898
253.393
254.946
254.419
255.985
255.471
256.942
256.479
257.736
257.364
258.299
258.049
258.619
258.487
258.757
258.706
258.786
258.78
258.772
258.523
258.595
258.29
258.423
258.116
258.304
250.998
250.999
259.198
259.242
259.147
258.294
257.894
257.243
257.189
257.274
257.523
257.916
259.28
257.217
258.727
259.211
257.392
259.35
259.324
259.377
259.368
259.354
259.376
259.252
259.314
259.016
259.156
258.564
258.821
257.868
258.245
256.978
257.443
255.968
256.483
254.916
255.443
253.89
254.395
252.954
253.407
252.155
252.535
251.512
251.814
251.245
250.285
250.726
249.691
249.933
249.585
249.585
249.934
249.691
250.727
250.286
251.247
251.817
251.514
252.54
252.159
253.413
252.959
254.403
253.897
255.452
254.924
256.492
255.977
257.449
256.986
258.243
257.871
258.806
258.556
259.124
258.993
259.26
259.211
259.287
259.282
259.272
259.008
259.088
258.752
258.899
258.558
258.64
258.226
257.244
259.115
259.757
259.8
259.701
252.095
251.836
250.486
251.013
257.087
256.998
256.979
257.622
258.163
257.81
257.264
258.506
257.761
257.006
257.37
258.976
257.112
259.636
259.824
259.746
259.911
259.877
259.941
259.931
259.924
259.944
259.823
259.885
259.586
259.727
259.132
259.39
258.434
258.812
257.543
258.008
256.533
257.047
255.48
256.007
254.455
254.959
253.521
253.973
252.727
253.104
252.391
251.012
250.039
250.485
249.437
249.683
249.33
249.33
249.683
249.438
250.039
251.838
252.394
252.097
253.109
252.731
253.979
253.526
254.967
254.462
256.016
255.488
257.056
256.541
258.013
257.55
258.807
258.436
259.369
259.12
259.687
259.556
259.821
259.773
259.847
259.842
259.83
259.544
259.634
259.26
259.422
258.758
259.046
258.466
258.09
259.487
251.612
251.614
260.4
260.354
258.807
258.346
257.072
256.894
256.761
256.701
257.419
256.869
256.26
256.767
274.204
256.702
259.305
259.824
260.186
260.023
260.404
260.312
260.513
260.47
260.551
260.54
260.54
260.556
260.44
260.502
260.201
260.343
259.745
260.004
259.045
259.423
258.152
258.618
257.142
257.657
256.09
256.617
255.067
255.571
254.138
254.587
253.353
253.725
252.735
253.023
252.275
252.486
252.096
250.808
251.42
249.819
250.272
249.208
249.457
249.099
249.099
249.458
249.208
250.273
249.819
251.421
250.809
252.097
252.488
252.276
253.026
252.737
253.73
253.357
254.593
254.143
255.578
255.074
256.625
256.098
257.666
257.151
258.623
258.16
259.416
259.044
259.977
259.728
260.294
260.163
260.426
260.379
260.45
260.446
260.432
260.115
260.293
260.216
259.806
259.98
259.314
259.586
258.727
259.033
258.002
258.381
256.728
257.176
257.001
257.6
257.933
273.993
259.088
259.593
256.872
272.851
252.978
252.812
251.258
251.948
256.656
256.561
256.478
256.443
256.372
256.383
256.349
273.228
274.453
274.718
274.519
270.58
275.159
258.604
258.155
274.766
258.358
257.458
257.846
257.128
257.408
258.834
274.362
259.331
270.568
258.547
259.041
273.438
258.617
258.725
259.24
258.933
259.832
259.543
260.345
260.101
260.744
260.561
260.998
260.889
261.135
261.079
261.187
261.17
261.179
261.192
261.081
261.143
260.84
260.983
260.381
260.641
259.68
260.059
258.787
259.253
257.777
258.292
256.727
257.252
255.708
256.209
254.786
255.231
254.014
254.379
253.414
253.692
253.177
251.946
250.632
251.257
249.623
250.085
248.999
249.254
248.888
248.888
249.254
249
250.086
249.623
250.633
252.813
253.18
252.98
253.696
253.417
254.384
254.018
255.237
254.792
256.216
255.715
257.261
256.735
258.3
257.786
259.255
258.793
260.047
259.677
260.608
260.359
260.924
260.794
261.055
261.009
261.077
261.073
261.021
261.057
260.903
260.971
260.7
260.815
260.369
260.552
259.888
260.149
259.306
259.608
258.612
258.971
258.237
274.576
274.81
274.954
257.754
256.942
274.536
256.819
273.385
255.657
252.673
252.675
274.246
257.914
257.171
256.896
256.634
256.109
274.545
258.068
258.534
258.203
257.182
256.371
255.993
255.944
258.225
266.903
256.15
259.112
258.393
274.261
256.021
255.954
274.006
274.266
255.272
274.355
274.341
272.859
259.722
259.384
260.324
260.032
260.849
260.597
261.279
261.078
261.577
261.446
261.749
261.677
261.821
261.796
261.817
261.828
261.721
261.783
261.478
261.622
261.017
261.278
260.315
260.694
259.421
259.887
258.413
258.927
257.366
257.89
256.355
256.852
255.444
255.883
254.687
255.044
254.108
254.375
253.689
253.88
253.395
253.529
253.28
251.823
252.558
250.482
251.12
249.451
249.923
248.812
249.073
248.698
248.698
249.074
248.812
249.923
249.451
251.121
250.482
252.559
251.824
253.282
253.531
253.396
253.883
253.691
254.379
254.111
255.049
254.691
255.889
255.449
256.859
256.361
257.898
257.374
258.934
258.421
259.887
259.426
260.677
260.308
261.237
260.989
261.553
261.423
261.683
261.637
261.701
261.699
261.638
261.677
261.504
261.581
261.278
261.405
260.929
261.12
260.453
260.707
259.884
260.178
259.23
259.567
258.883
273.697
273.97
259.089
274.635
275.044
257.514
256.705
274.15
255.108
255.594
273.421
273.988
273.268
257.622
259.192
258.886
257.914
256.35
256.879
256.606
273.836
255.523
272.871
254.056
253.937
252.463
253.181
255.493
275.618
257.741
256.953
273.385
272.855
272.861
272.867
273.634
256.039
271.872
272.137
273.425
276.198
271.653
271.3
257.882
255.953
273.725
273.414
273.353
273.624
273.856
255.781
255.524
258.077
273.684
255.621
272.421
272.295
271.728
258.383
273.939
272.009
274.133
274.151
254.68
272.864
254.967
270.427
260.204
259.866
260.8
260.51
261.325
261.071
261.773
261.56
262.11
261.958
262.322
262.232
262.42
262.384
262.425
262.433
262.331
262.394
262.087
262.232
261.624
261.886
260.921
261.301
260.028
260.494
259.022
259.534
257.982
258.502
256.981
257.472
256.084
256.515
255.344
255.692
254.775
255.038
254.357
254.549
254.194
253.179
251.722
252.462
250.356
251.008
249.303
249.785
248.647
248.916
248.529
248.529
248.916
248.647
249.785
249.303
251.009
250.357
251.723
253.938
254.196
254.058
254.552
254.359
255.042
254.778
255.697
255.348
256.521
256.089
257.479
256.987
258.51
257.99
259.54
259.03
260.49
260.03
261.278
260.909
261.837
261.589
262.152
262.022
262.281
262.236
262.292
262.296
262.221
262.266
262.07
262.156
261.824
261.961
261.46
261.656
260.994
261.239
260.446
260.727
259.832
260.146
259.51
273.735
273.997
273.302
273.585
273.453
275.223
270.743
257.221
259.291
258.612
256.421
271.853
272.209
272.024
272.958
272.419
272.674
273.947
273.32
260.424
255.04
258.89
273.294
253.831
253.832
255.027
273.953
272.111
273.132
272.781
274.877
257.288
272.876
257.669
272.865
274.083
274.634
274.409
273.195
256.018
256.539
256.269
272.26
273.17
272.546
272.719
272.914
272.685
272.872
273.067
273.409
273.605
270.996
273.818
273.465
272.864
274.299
271.516
257.384
256.69
274.201
273.926
273.335
255.666
272.526
272.742
272.96
273.103
255.072
257.533
256.639
255.691
274.626
273.522
273.109
272.949
272.943
273.017
273.43
255.374
272.681
272.783
272.96
273.132
255.659
276.093
255.188
257.782
273.636
272.871
272.987
273.103
271.582
258.148
273.84
272.485
272.763
271.868
273.975
272.703
254.318
254.562
258.371
272.542
272.982
254.709
261.094
260.684
260.385
261.253
260.973
261.769
261.519
262.218
262.003
262.581
262.414
262.833
262.722
262.962
262.913
262.981
262.984
262.892
262.953
262.647
262.792
262.183
262.445
261.48
261.859
260.589
261.053
259.587
260.097
258.556
259.071
257.565
258.051
256.682
257.107
255.949
256.295
255.379
255.644
254.961
255.152
254.669
254.802
254.445
254.553
254.339
253.086
253.731
251.639
252.379
250.255
250.918
249.18
249.672
248.507
248.784
248.385
248.385
248.784
248.507
249.672
249.18
250.919
250.255
252.38
251.64
253.732
253.087
254.34
254.554
254.447
254.804
254.67
255.155
254.964
255.648
255.382
256.299
255.953
257.112
256.686
258.058
257.571
259.078
258.563
260.1
259.594
261.046
260.588
261.831
261.463
262.388
262.141
262.703
262.573
262.829
262.786
262.833
262.842
262.752
262.803
262.584
262.679
262.32
262.465
261.949
262.147
261.492
261.73
260.967
261.236
260.392
260.684
259.809
260.097
259.534
254.55
275.462
272.901
274.242
273.075
273.542
272.419
273.32
274.033
273.615
275.124
274.563
275.391
275.442
275.169
256.882
258.391
257.674
273.067
256.088
272.392
272.93
273.225
273.741
275.26
275.005
259.596
272.869
272.882
273.187
273.214
274.855
275.246
259.349
274.155
273.49
273.165
272.425
272.639
273.801
271.793
272.909
272.502
275.287
256.921
257.444
274.381
274.203
272.898
273.152
255.642
256.16
255.89
272.624
273.372
272.85
272.996
273.214
254.605
272.865
254.996
254.882
253.63
254.227
274.259
271.224
257.011
275.695
256.462
274
273.774
273.125
273.021
273.245
255.255
272.863
273.241
276.178
254.733
275.135
257.183
255.476
273.623
273.39
254.936
273.062
273.243
271.174
257.481
273.56
272.203
272.521
273.189
271.425
257.869
273.713
272.489
254.018
254.125
273.776
272.359
254.08
273.144
272.141
273.731
274.732
254.491
272.929
272.969
272.951
272.923
259.322
259.961
260.504
260.202
261.131
260.836
261.675
261.408
262.177
261.933
262.617
262.406
262.989
262.813
263.27
263.142
263.433
263.368
263.471
263.467
263.389
263.448
263.144
263.29
262.68
262.943
261.979
262.357
261.091
261.553
260.096
260.602
259.074
259.584
258.094
258.574
257.218
257.64
256.484
256.832
255.912
256.177
255.5
255.687
255.219
255.347
255.106
254.225
252.993
253.629
251.569
252.303
250.176
250.847
249.083
249.584
248.395
248.68
248.269
248.269
248.68
248.396
249.584
249.084
250.847
250.176
252.304
251.57
252.994
254.884
255.107
254.998
255.349
255.221
255.689
255.502
256.181
255.915
256.836
256.488
257.645
257.223
258.581
258.1
259.59
259.08
260.603
260.101
261.541
261.087
262.323
261.957
262.877
262.631
263.19
263.062
263.312
263.271
263.31
263.323
263.216
263.274
263.033
263.136
262.754
262.906
262.382
262.579
261.934
262.166
261.43
261.688
260.893
261.163
260.371
260.626
259.938
260.137
259.78
272.912
272.907
272.91
272.899
272.903
272.917
272.894
272.896
272.842
272.847
272.853
272.849
272.857
272.963
272.908
273.051
273.229
273.06
273.88
273.497
274.36
275.321
274.944
259.736
272.878
273.345
272.123
273.022
272.913
272.952
273.327
273.137
274.065
273.626
275.25
274.619
275.65
275.668
275.505
256.506
258.186
274.372
258.607
272.955
273.044
255.711
272.731
273.17
273.454
273.324
273.447
254.13
259.117
275.683
260.217
275.235
254.756
254.758
259.567
258.954
272.874
272.87
272.887
262.938
273.941
273.333
272.957
272.138
272.372
273.74
271.502
272.741
272.285
275.656
256.528
258.782
257.251
274.131
273.998
259.758
259.069
273.043
272.892
272.957
273.113
259.374
259.724
255.232
255.749
255.477
272.934
257.355
257.712
258.316
273.524
273.099
273.218
273.31
258.617
270.106
270.282
274.859
254.265
274.696
259.553
272.892
272.893
274.228
270.974
256.628
256.285
273.843
273.63
273.135
272.894
272.911
273.209
254.814
273.113
273.316
258.915
270.817
254.475
256.828
257.11
256.828
255.298
257.969
257.456
273.589
272.84
273.33
271.901
272.248
273.232
273.292
271.003
257.154
257.295
257.827
272.846
272.838
273.461
272.236
253.774
253.74
256.872
258.081
257.483
257.905
257.326
257.786
257.252
257.755
273.562
272.134
253.636
273.112
271.701
273.59
271.948
253.662
261.757
273.581
272.879
254.35
259.164
259.608
260.272
260.548
260.387
260.99
260.753
261.541
261.262
262.061
261.805
262.547
262.309
262.974
262.768
263.342
263.164
263.638
263.5
263.831
263.75
263.892
263.878
263.821
263.875
263.578
263.723
263.116
263.377
262.417
262.794
261.535
261.994
260.548
261.049
259.535
260.04
258.563
259.04
257.687
258.11
256.948
257.298
256.376
256.639
255.979
256.157
255.709
255.834
255.471
255.592
255.189
255.339
255.021
254.1
254.614
252.896
253.517
251.508
252.229
250.117
250.79
249.016
249.521
248.317
248.607
248.187
248.187
248.607
248.317
249.521
249.016
250.79
250.118
252.23
251.509
253.519
252.897
254.616
254.102
255.023
255.34
255.191
255.594
255.473
255.836
255.71
256.16
255.981
256.643
256.379
257.302
256.951
258.115
257.692
259.046
258.568
260.045
259.541
261.048
260.551
261.977
261.527
262.753
262.389
263.304
263.059
263.613
263.487
263.73
263.692
263.72
263.738
263.614
263.678
263.418
263.527
263.131
263.286
262.76
262.954
262.324
262.549
261.84
262.085
261.346
261.591
260.893
261.111
260.533
260.699
260.397
272.888
272.89
272.884
272.885
272.884
272.883
272.895
272.891
272.886
272.846
272.856
272.854
272.854
272.857
272.855
272.86
272.871
272.869
272.97
272.915
273.236
273.071
273.905
273.51
274.935
274.407
275.406
272.887
273.636
272.635
273.225
271.865
273.022
272.913
272.951
273.325
273.136
274.075
273.63
275.324
274.651
275.911
275.878
275.814
256.101
258.033
274.13
257.572
258.334
272.947
273.021
259.2
259.567
255.3
257.047
273.007
259.382
258.855
273.362
273.372
258.018
259.457
272.676
272.407
257.262
260.205
260.268
253.79
272.89
259.921
273.237
275.627
273.657
259.729
254.52
260.656
272.894
272.874
272.874
273.422
273.023
271.832
272.082
273.672
271.269
272.595
272.097
256.119
258.802
257.111
273.924
273.799
258.876
273.019
272.88
272.945
273.084
259.979
254.793
255.312
255.037
256.826
255.86
267.835
273.153
258.613
273.611
273.258
273.349
273.348
257.079
258.368
270.538
255.408
254.001
256.695
255.519
255.33
254.455
254.837
272.875
272.877
274.696
274.144
270.802
256.234
256.151
260.78
261.734
258.482
273.695
273.876
260.196
259.505
272.846
272.907
273.163
271.586
271.952
254.352
256.697
273.251
258.433
273.507
273.327
258.733
270.642
260.842
260.782
256.2
256.463
255.237
258.303
272.834
272.897
272.896
273.255
271.955
270.341
273.298
258.287
253.596
253.411
256.818
259.765
258.207
272.836
273.345
271.881
258.198
253.233
273.087
271.249
272.86
272.847
273.409
271.719
253.216
271.502
256.375
273.441
253.321
273.372
272.883
260.85
260.343
260.736
260.154
260.775
260.862
260.805
261.075
260.95
261.443
261.243
261.92
261.676
262.404
262.162
262.87
262.641
263.286
263.086
263.642
263.47
263.941
263.801
264.155
264.062
264.241
264.216
264.184
264.231
263.945
264.089
263.486
263.746
262.793
263.167
261.918
262.373
260.941
261.437
259.935
260.437
258.965
259.442
258.084
258.511
257.341
257.692
256.78
257.036
256.401
256.571
256.129
256.259
255.853
255.997
255.694
254.836
253.959
254.453
252.789
253.393
251.449
252.149
250.077
250.743
248.981
249.484
248.283
248.575
248.151
248.151
248.575
248.283
249.484
248.981
250.744
250.077
252.15
251.449
253.394
252.79
253.96
255.332
255.696
255.521
255.999
255.855
256.261
256.131
256.574
256.404
257.039
256.783
257.696
257.344
258.516
258.089
259.447
258.97
260.44
259.94
261.432
260.94
262.352
261.906
263.12
262.76
263.665
263.423
263.97
263.845
264.08
264.046
264.061
264.084
263.945
264.014
263.739
263.853
263.448
263.604
263.081
263.272
262.656
262.875
262.2
262.429
261.754
261.973
261.36
261.548
261.052
261.194
260.934
272.886
272.883
272.885
272.88
272.881
272.878
272.879
272.881
272.879
272.891
272.885
272.904
272.908
272.899
272.865
272.878
272.866
272.871
272.862
272.863
272.863
272.862
272.868
272.865
272.871
272.874
272.972
272.917
273.234
273.073
273.882
273.492
274.974
274.401
275.886
275.487
276.096
273.346
272.358
273.124
271.649
272.912
272.888
272.894
273.013
272.947
273.304
273.123
274.056
273.603
275.372
274.665
276.165
276.051
276.04
276.125
259.15
255.675
257.95
273.9
257.294
258.097
272.93
273.001
259.841
254.861
256.317
260.128
259.89
273.196
259.078
273.473
273.368
257.754
264.868
270.371
253.525
256.119
272.893
257.099
277.54
264.67
273.598
274.397
255.129
255.13
272.878
272.881
272.878
274.444
272.778
271.524
271.789
273.547
271.106
272.427
271.914
275.503
275.918
255.696
258.87
257.07
267.973
266.566
267.133
268.024
273.724
273.587
258.735
272.865
272.932
273.051
271.269
271.643
254.332
254.86
254.576
256.105
261.368
260.276
259.764
255.015
254.661
273.256
273.044
258.905
273.366
273.393
273.317
268.013
258.198
270.369
261.3
261.236
260.593
273.842
270.542
272.89
256.954
272.889
255.832
256.207
260.139
259.83
257.562
258.747
260.123
273.539
261.055
259.436
272.835
272.902
273.107
264.104
264.962
271.654
270.198
253.876
256.036
272.886
272.886
272.894
273.274
264.52
264.254
271.505
258.752
277.994
277.423
270.836
253.162
273.293
256.097
253.855
254.707
258.704
255.313
258.626
260.595
260.473
260.781
260.167
272.827
272.898
273.167
272.928
272.926
272.933
265.257
271.601
264.716
265.762
258.634
273.083
252.885
273.173
254.478
272.888
256.5
263.457
260.017
277.727
258.585
270.814
272.834
272.917
272.91
273.225
272.925
270.978
271.464
252.809
271.043
256.008
272.85
273.273
271.268
252.877
253.061
255.562
272.873
273.316
275.119
261.95
260.749
260.43
260.483
260.09
260.335
260.377
260.798
261.303
261.28
261.287
261.356
261.305
261.532
261.43
261.839
261.668
262.258
262.048
262.701
262.475
263.148
262.927
263.552
263.358
263.895
263.73
264.191
264.052
264.416
264.315
264.523
264.487
264.482
264.521
264.25
264.391
263.797
264.054
263.112
263.481
262.246
262.697
261.277
261.77
260.275
260.776
259.304
259.783
258.417
258.846
257.677
258.024
257.133
257.379
256.766
256.932
256.471
256.617
256.152
256.316
255.794
255.978
255.402
255.603
255.191
254.635
254.916
253.801
254.275
252.671
253.253
251.388
252.061
250.054
250.704
248.991
249.476
248.304
248.593
248.173
248.173
248.593
248.304
249.477
248.991
250.704
250.054
252.062
251.389
253.254
252.672
254.277
253.802
254.918
254.637
255.193
255.605
255.404
255.979
255.796
256.318
256.153
256.619
256.472
256.935
256.768
257.382
257.135
258.028
257.68
258.851
258.421
259.787
259.309
260.777
260.279
261.761
261.274
262.67
262.23
263.427
263.072
263.965
263.727
264.263
264.142
264.366
264.335
264.34
264.367
264.214
264.288
264.001
264.118
263.708
263.864
263.347
263.535
262.935
263.145
262.507
262.72
262.105
262.301
261.755
261.923
261.475
261.606
261.371
272.884
272.886
272.881
272.883
272.879
272.88
272.879
272.878
272.883
272.88
272.893
272.887
272.909
272.901
272.918
272.875
272.88
272.871
272.872
272.87
272.87
272.873
272.872
272.876
272.884
272.879
272.881
272.878
272.969
272.918
273.208
273.06
273.814
273.447
274.926
274.321
276.017
275.532
276.343
274.948
252.489
272.078
272.975
271.463
272.911
272.895
273.003
272.943
273.277
273.107
274.004
273.562
275.38
274.621
276.435
276.183
276.422
276.438
276.227
255.234
258
267.169
267.607
273.668
257.063
257.907
272.909
272.978
264.633
264.615
271.006
271.324
272.883
271.791
271.17
259.908
260.052
259.651
273.451
259.731
254.4
255.523
254.377
260.055
254.512
273.266
264.275
259.321
273.457
273.277
273.292
257.601
264.828
269.203
269.463
270.191
271.414
260.93
259.86
272.21
259.729
261.164
260.713
261.127
262.771
272.896
276.747
274.27
272.607
273.274
270.85
271.711
272.891
255.268
259.775
258.924
257.135
259.429
258.293
259.161
259.846
273.531
256.289
265.009
273.235
268.585
256.242
258.635
272.847
272.917
273.011
272.932
272.918
272.92
272.933
264.894
264.932
270.696
270.421
270.723
271.344
270.066
260.638
260.529
253.861
254.399
254.107
255.347
272.902
275.903
272.891
260.409
254.142
253.77
253.642
272.99
273.241
263.975
263.962
259.171
270.695
252.999
260.166
273.271
273.384
275.418
255.877
273.242
273.126
276.268
275.859
255.66
255.46
254.693
254.971
272.887
272.886
272.889
269.893
270.117
270.292
270.437
255.434
255.556
252.755
258.183
256.26
259.766
257.423
259.02
260.271
273.052
259.453
264.403
272.973
272.824
272.896
273.045
272.938
265.186
265.245
270.141
271.303
270.182
263.967
261.995
253.399
255.357
272.895
252.849
253.095
273.234
259.044
260.288
252.619
260.761
269.921
263.742
269.696
255.743
255.117
258.792
255.371
260.292
260.036
255.555
258.95
260.636
270.443
260.193
272.821
272.9
273.077
272.931
265.512
269.653
271.193
261.313
262.943
262.694
263.639
258.964
252.452
263.961
256.224
254.964
259.401
270.605
261.326
260.837
255.735
272.833
272.915
273.112
269.186
271.012
263.029
252.473
252.623
255.086
272.855
273.156
270.806
264.568
274.863
269.265
278.201
273.406
260.838
260.584
260.641
260.51
260.545
260.277
260.471
260.477
261.349
261.734
261.713
261.728
261.688
261.696
261.748
261.705
261.9
261.812
262.166
262.016
262.537
262.351
262.948
262.737
263.375
263.163
263.769
263.579
264.103
263.944
264.391
264.254
264.617
264.513
264.741
264.696
264.714
264.746
264.494
264.631
264.049
264.301
263.374
263.738
262.518
262.964
261.556
262.046
260.556
261.056
259.58
260.061
258.69
259.12
257.958
258.299
257.43
257.668
257.06
257.233
256.734
256.897
256.397
256.567
256.042
256.222
255.856
254.969
254.42
254.691
253.623
254.078
252.538
253.096
251.321
251.962
250.042
250.667
248.999
249.481
248.322
248.608
248.192
248.192
248.608
248.323
249.482
248.999
250.668
250.043
251.963
251.322
253.097
252.539
254.08
253.625
254.421
255.462
255.858
255.662
256.224
256.044
256.568
256.398
256.899
256.735
257.235
257.062
257.671
257.432
258.303
257.961
259.124
258.694
260.065
259.584
261.055
260.558
262.034
261.55
262.932
262.497
263.678
263.329
264.204
263.971
264.494
264.377
264.589
264.562
264.555
264.586
264.422
264.499
264.204
264.323
263.912
264.067
263.557
263.741
263.16
263.362
262.761
262.958
262.394
262.572
262.07
262.226
261.823
261.932
261.701
261.748
261.619
261.661
272.886
272.888
272.883
272.885
272.882
272.882
272.882
272.881
272.885
272.883
272.893
272.889
272.905
272.899
272.915
272.911
272.916
272.92
272.923
272.929
272.915
272.918
272.902
272.909
272.89
272.896
272.882
272.886
272.878
272.88
272.878
272.878
272.88
272.878
272.883
272.881
272.885
272.882
272.884
272.882
272.962
272.918
273.175
273.043
273.726
273.39
274.817
274.207
276.094
275.483
276.588
274.909
255.889
270.948
272.713
271.248
272.891
272.892
272.89
272.91
272.896
272.992
272.938
273.245
273.089
273.932
273.51
275.333
274.545
276.713
276.243
276.759
276.761
276.625
254.785
258.054
258.918
259.528
273.466
278.286
271.213
256.897
257.78
259.952
272.95
272.933
264.919
271.033
269.733
269.907
260.55
260.41
260.531
273.474
260.159
259.963
259.952
261.597
261.097
253.929
254.692
282.01
272.886
260.218
253.627
264.538
263.969
259.542
260.344
273.323
273.242
268.857
268.354
273.178
275.534
271.4
265.03
263.551
266.765
260.062
261.722
267.924
255.246
255.249
261.565
272.891
263.032
274.142
272.313
270.404
272.925
270.663
271.441
254.843
270.012
257.602
259.833
259.023
257.243
259.348
258.182
259.383
260.009
273.352
273.194
264.592
250.364
258.641
272.893
272.83
272.901
272.965
272.939
265.21
265.229
270.416
271
270.099
264.71
268.306
261.946
260.519
253.386
253.935
253.635
254.581
272.905
272.931
272.923
277.833
260.534
253.298
252.94
252.85
276.612
276.168
272.94
273.086
273.169
263.686
263.675
259.42
259.465
252.359
272.885
273.219
261.564
273.106
269.282
262.752
263.46
269.714
276.277
269.714
272.894
272.894
272.897
255.046
255.954
258.336
256.377
259.704
257.443
260.546
260.802
260.564
259.295
260.452
270.17
269.992
279.266
265.432
259.495
272.812
272.889
272.976
272.933
273.219
265.509
265.514
269.839
270.906
255.676
262.38
264.24
278.266
261.736
261.783
261.51
261.537
252.934
254.709
272.882
263.673
253.604
252.41
273.151
259.329
270.417
252.166
261.137
261.18
261.214
271.42
256.012
255.424
255.763
258.952
255.821
260.005
260.289
259.282
274.199
268.622
270.221
256.7
260.256
260.029
272.815
272.899
272.989
272.918
265.806
269.318
270.745
268.852
262.73
261.877
276.032
259.45
260.891
252.116
252.222
254.733
272.834
273.013
270.549
263.036
274.41
275.413
260.821
260.934
260.682
260.741
260.622
260.649
260.606
260.603
260.64
261.445
262.038
262.022
262.021
262.037
261.99
262
262.038
262.001
262.179
262.098
262.419
262.284
262.758
262.584
263.15
262.948
263.562
263.356
263.95
263.761
264.279
264.123
264.558
264.425
264.781
264.677
264.915
264.863
264.901
264.927
264.695
264.826
264.262
264.508
263.599
263.957
262.753
263.195
261.796
262.284
260.795
261.297
259.814
260.298
258.923
259.352
258.202
258.537
257.684
257.92
257.297
257.481
256.949
257.121
256.61
256.779
256.269
256.44
255.913
256.096
255.496
255.71
255.275
254.739
255.024
254.197
254.459
253.433
253.87
252.397
252.927
251.25
251.855
250.029
250.628
249.023
249.489
248.362
248.641
248.234
248.234
248.641
248.362
249.489
249.024
250.629
250.029
251.856
251.251
252.928
252.398
253.872
253.435
254.461
254.199
255.026
254.742
255.278
255.713
255.499
256.098
255.915
256.442
256.271
256.78
256.612
257.123
256.95
257.483
257.299
257.922
257.686
258.541
258.205
259.356
258.927
260.3
259.817
261.293
260.795
262.268
261.787
263.157
262.728
263.89
263.548
264.402
264.176
264.681
264.569
264.767
264.744
264.727
264.761
264.588
264.668
264.369
264.488
264.078
264.232
263.73
263.91
263.351
263.542
262.977
263.161
262.629
262.799
262.323
262.468
262.122
262.204
262.046
262.075
262.016
262.029
261.964
262.002
261.909
272.893
272.894
272.891
272.892
272.888
272.889
272.887
272.888
272.887
272.887
272.888
272.887
272.892
272.89
272.897
272.895
272.901
272.9
272.901
272.901
272.903
272.902
272.902
272.903
272.897
272.9
272.891
272.894
272.887
272.889
272.885
272.886
272.885
272.885
272.886
272.886
272.889
272.888
272.892
272.891
272.895
272.893
272.897
272.891
272.893
272.887
272.889
262.759
272.887
272.899
263.076
272.954
272.917
273.143
273.024
273.633
273.33
274.691
274.086
276.12
275.405
277.155
276.714
274.891
276.79
269.777
270.599
272.261
270.935
272.894
272.893
272.91
272.898
272.983
272.935
273.212
273.07
273.85
273.455
275.246
274.445
277.013
276.226
277.09
277.093
276.984
254.339
272.787
258.148
258.821
265.139
260.919
261.066
259.713
273.283
273.302
264.723
256.769
257.731
272.85
272.92
272.937
265.226
270.704
269.972
265.642
265.692
265.149
263.39
260.725
260.823
260.479
260.611
260.242
260.359
260.114
260.159
260.13
260.119
260.204
261.831
261.888
261.074
253.454
253.872
272.914
263.725
260.377
252.819
276.047
261.007
266.177
266.14
272.894
272.942
267.475
273.116
263.65
259.761
252.245
275.132
261.983
262.274
256.169
256.566
267.512
276.326
273.152
277.344
268.497
260.26
261.826
269.162
263.296
261.164
263.675
261.186
274.284
261.997
273.946
271.932
270.478
270.003
260.836
270.092
271.139
272.895
272.897
254.425
256.605
257.843
259.875
259.109
257.358
259.285
258.178
261.035
260.688
259.623
260.197
276.69
269.539
273.189
263.174
278.918
265.802
258.713
271.134
266.76
261.362
272.865
272.812
272.882
272.916
272.933
265.529
265.528
270.068
270.613
261.366
261.631
261.601
262.13
265.005
269.557
264.441
263.618
261.675
261.383
261.397
261.71
257.004
261.579
261.517
260.511
252.92
253.477
253.169
253.878
272.891
272.921
272.912
259.718
260.686
252.569
252.233
252.175
273.061
263.377
259.669
251.912
261.118
260.936
263.87
274.718
255.582
255.299
254.792
255.056
272.896
272.898
277.263
255.864
267.131
254.764
254.689
256.5
258.559
256.735
259.664
257.497
260.338
259.586
269.482
260.625
274.7
269.907
272.918
276.65
259.595
255.568
272.8
272.88
272.907
272.917
265.858
265.817
269.475
270.469
268.504
261.362
262.426
263.246
261.633
267.921
264.498
261.652