/*--------------------------------*- C++ -*----------------------------------*\
| =========                 |                                                 |
| \\      /  F ield         | OpenFOAM: The Open Source CFD Toolbox           |
|  \\    /   O peration     | Version:  2212                                  |
|   \\  /    A nd           | Website:  www.openfoam.com                      |
|    \\/     M anipulation  |                                                 |
\*---------------------------------------------------------------------------*/
FoamFile
{
    version     2.0;
    format      ascii;
    arch        "LSB;label=32;scalar=64";
    class       surfaceScalarField;
    location    "0.043";
    object      phi;
}
// * * * * * * * * * * * * * * * * * * * * * * * * * * * * * * * * * * * * * //

dimensions      [1 0 -1 0 0 0 0];

oriented        oriented;

internalField   nonuniform List<scalar> 
88550
(
-1.09729e-05
-0.000161414
1.53442e-05
0.000157041
-7.62006e-05
-8.80453e-05
8.89769e-05
7.52689e-05
-8.61531e-05
7.30253e-05
-7.53325e-05
8.84603e-05
7.422e-05
7.64619e-05
-0.000122932
-2.77497e-05
-8.81337e-05
2.96272e-05
0.000106555
-9.25157e-05
-4.36657e-05
-0.000296865
0.000256474
-5.69211e-05
9.73125e-05
-0.000100609
-6.39663e-05
8.17034e-05
8.28724e-05
-8.5454e-05
-4.85042e-05
5.43734e-05
7.95849e-05
-0.000220777
0.000222117
-3.11445e-05
2.98051e-05
-7.13061e-05
-0.000112389
0.000119396
6.42992e-05
-5.32221e-05
-9.19533e-06
-7.82996e-06
7.02474e-05
5.17067e-06
7.34243e-05
-0.000294343
0.000215748
6.88729e-05
6.18974e-05
-6.35613e-05
-6.7209e-05
-3.95191e-05
1.84318e-06
3.66828e-06
3.40078e-05
-6.10294e-05
1.06508e-05
-2.84346e-06
2.11895e-05
2.94964e-05
-3.83811e-05
-1.23047e-05
3.35041e-05
2.75233e-05
-3.5049e-05
-2.59783e-05
-2.35008e-05
0.0001964
2.86565e-05
-0.000201556
-1.93964e-05
3.48814e-05
0.000284903
-0.000300389
-8.47708e-06
-0.000240579
0.000227758
2.12983e-05
2.54566e-05
-3.67148e-05
3.24477e-05
0.000267471
-4.04862e-05
-0.000265351
3.83666e-05
0.000198284
-0.000166717
-7.70031e-05
4.54365e-05
3.30254e-05
0.000138455
-2.92087e-05
-0.000142272
-0.000143148
-3.22522e-05
0.000160656
1.47449e-05
-1.12319e-05
0.000268037
3.64101e-05
-0.000293215
-0.000191875
0.00013299
0.000151391
-9.25047e-05
0.000224668
6.58093e-06
-8.8987e-06
-0.00022235
0.000156051
-0.000168682
-0.000152937
0.000165569
2.75954e-05
-2.57139e-05
-2.66213e-06
7.80868e-07
3.00822e-05
-0.00024728
0.00024722
-3.00219e-05
-2.60299e-06
4.39643e-06
2.32591e-05
-2.50524e-05
0.000124469
-0.000106754
-0.000122593
0.000104879
3.55336e-05
-5.19365e-05
-2.47061e-05
4.11092e-05
8.33952e-06
0.0001916
1.62112e-07
-0.000200101
1.83123e-05
-6.32865e-05
7.25326e-05
-2.75584e-05
6.23708e-05
-6.41671e-05
2.01085e-05
-2.53119e-05
0.000191628
-0.00019921
3.28941e-05
4.12847e-05
-8.30424e-05
9.02547e-05
-4.8497e-05
-7.10344e-05
-7.44457e-05
8.59195e-05
5.95606e-05
-7.29006e-05
4.02624e-05
6.99978e-05
-3.73595e-05
-0.000217487
0.000247608
0.000133585
-0.000163705
-2.65452e-05
-0.000137472
0.000141515
2.25031e-05
-2.9199e-05
-0.000234154
0.000232431
3.09217e-05
-1.66398e-05
0.000105484
1.02087e-05
-9.90537e-05
-4.7703e-05
4.54328e-05
0.000232643
-0.000230373
0.000174814
7.43e-06
-2.1543e-05
-0.0001607
5.85365e-05
0.000211297
-4.68786e-05
-0.000222955
-3.31654e-05
-0.0001362
0.00014282
-8.09502e-05
5.95519e-05
9.40463e-05
-7.2648e-05
-0.000235219
-3.32541e-05
0.000220771
9.31035e-05
-5.96493e-05
-9.12785e-05
5.78244e-05
2.64777e-05
-1.81604e-05
-2.69467e-05
1.86294e-05
-0.000234907
-2.51433e-05
3.92731e-05
-0.000112331
4.78284e-06
0.000118466
-1.09201e-05
-7.15741e-05
-6.81491e-05
7.72187e-05
6.25046e-05
9.89663e-05
-0.000180052
0.000162854
-8.17674e-05
-0.000159355
0.000146718
0.000131491
-0.000118853
0.000124766
-0.00010316
-0.000176111
0.000154505
-1.91213e-05
3.69647e-05
-0.000143998
0.000126154
-1.95345e-05
3.19626e-05
-3.73483e-05
2.49202e-05
-0.00019585
-5.76149e-05
2.30141e-05
0.000230451
-6.41366e-05
-8.16498e-05
6.87017e-05
7.70848e-05
0.000223608
9.68641e-06
-0.000227961
-5.33328e-06
-0.00010466
0.000137027
-0.000103673
-8.58956e-05
0.000100945
0.000100757
-0.000115805
7.7452e-05
7.94642e-05
-7.80797e-05
-7.88358e-05
-5.02454e-05
-0.000112619
5.23318e-05
0.000110532
0.00011101
-6.05149e-05
-0.000226288
0.000175794
-3.01731e-06
-2.97783e-05
1.83784e-06
3.09579e-05
-0.000109107
9.28761e-05
0.000109191
-9.29594e-05
1.35973e-05
-3.34622e-05
-0.000192004
0.000211869
-8.58479e-05
9.13397e-05
-7.92318e-05
7.37404e-05
0.000151806
-0.000214047
0.000173251
-1.17939e-05
8.15644e-05
1.51509e-05
-8.49214e-05
-2.96727e-05
3.52323e-05
3.41956e-05
-3.97552e-05
0.00013311
-0.000167699
-7.72854e-05
0.000168897
-0.000194771
-0.000108917
8.28652e-05
9.50677e-05
-6.9015e-05
2.0423e-06
0.000106356
-4.49663e-06
-0.000103903
0.000156976
-0.000178289
0.000173119
-8.56523e-05
4.64415e-05
-3.77016e-05
7.69124e-05
0.000288214
-0.000102909
6.97642e-05
-0.000255069
0.000112796
1.56947e-06
-0.000112324
-7.43455e-05
5.50023e-05
9.38665e-05
-7.45233e-05
0.000146379
-0.00016323
0.000173827
4.91899e-05
-5.45055e-05
0.000121088
-0.000115772
0.000239059
-0.000235567
-2.6256e-05
2.27641e-05
0.000224146
-0.000212307
-0.000158544
0.000146706
0.000194143
-8.98899e-05
0.000117792
-0.000222044
-0.000151436
0.000190026
0.000107789
-4.69847e-05
-0.000170057
6.07345e-05
0.000156307
3.4084e-05
-4.07461e-05
-2.45459e-05
3.12081e-05
-0.000242804
-1.75086e-05
0.000231114
0.000231294
-0.000240916
6.09611e-06
3.52553e-06
0.000130901
0.000137494
-0.000120627
-0.000147767
3.97729e-05
0.000243792
-0.000238273
-4.52915e-05
5.68533e-05
-0.000264406
-3.07712e-05
0.000238324
-7.90787e-05
-8.81206e-05
0.0001081
5.90989e-05
-0.000307866
-7.26939e-06
0.000307265
7.86899e-06
-5.27728e-05
5.80977e-05
-9.36584e-05
8.83327e-05
-8.44368e-05
0.000159037
9.90125e-05
-0.000173612
5.32229e-05
-8.7717e-05
7.90271e-05
-4.45325e-05
2.43305e-05
-0.000247095
0.000227935
8.97305e-05
-0.000103282
-0.000184583
0.000198134
2.58054e-05
-0.000229978
0.000228503
1.20155e-05
-1.78339e-05
-0.000106515
9.35207e-05
-9.6398e-05
-8.75139e-05
9.03912e-05
0.000287001
6.69605e-05
-0.000230235
-0.00012373
1.68525e-05
0.000227318
-0.000218365
-3.84439e-05
7.84135e-05
-8.13486e-05
4.13791e-05
0.000125874
-3.84192e-05
-9.63865e-05
8.93079e-06
-0.000141632
-0.000120578
9.21746e-05
0.000170035
5.48191e-05
-0.000117983
0.000102497
-3.93321e-05
2.12952e-05
0.00022148
-0.000225922
-5.28239e-05
-0.000198703
0.000174243
-2.42015e-05
2.92664e-05
-9.39431e-05
8.88782e-05
3.28109e-05
-1.80168e-05
1.57733e-05
-3.05673e-05
3.27262e-05
-0.000221493
0.000210062
5.01288e-05
-6.88628e-05
-5.39816e-05
7.27157e-05
-0.000165705
0.000120038
-0.000139685
0.000185353
-0.000107045
0.000155491
-0.000162168
0.000113723
2.54523e-05
-0.000194259
0.000201533
-0.000161165
0.000125528
-0.000130068
0.000105978
2.3938e-05
-1.57663e-05
-0.00011415
1.39204e-05
-0.000181178
0.00019271
-0.000162177
0.000132592
-0.000131579
-3.08567e-05
3.12308e-05
-0.000100176
9.98022e-05
4.66798e-06
-0.000172647
0.0001819
-0.000160084
0.000126702
-0.000128794
0.000143408
-0.000152105
0.000152858
-0.000144161
-8.12448e-05
-0.000103108
9.85056e-05
-0.000184996
-0.00014657
0.000166176
0.000165391
-3.17632e-06
-0.000165788
0.000173632
-0.000148901
-0.000117599
0.000106416
-0.000181582
0.000154449
-1.09324e-05
3.80658e-05
9.6439e-05
-7.62348e-05
-0.000201786
-1.08851e-05
-0.000157185
0.000164894
-0.000107963
8.36326e-05
-0.000124569
0.00010715
-0.00013616
-0.000182984
0.000211995
-1.3331e-05
-0.000151396
0.000153842
-6.06404e-05
5.83568e-05
0.000200487
-0.000198203
0.000197449
-0.000190403
-6.76854e-05
-0.000145675
0.000144183
-1.18381e-05
-9.63708e-05
0.000100071
-3.45568e-05
-4.20758e-05
4.60948e-05
7.19355e-05
-7.59545e-05
-1.89979e-05
-0.000100588
7.75104e-05
0.000111816
1.3692e-05
-1.11539e-05
-0.000114354
-8.67347e-05
9.5825e-05
-8.63194e-05
7.72292e-05
-8.25316e-05
4.16831e-05
8.21332e-05
-0.000107485
-3.31052e-05
2.1105e-05
0.000119485
1.26525e-05
0.000140165
-0.000151661
-1.15674e-06
0.000195824
-8.42039e-05
-0.000205586
9.39663e-05
0.000103326
-6.75553e-06
6.25139e-06
-0.000102822
4.50358e-06
-0.000113098
0.00010735
1.24522e-06
7.7586e-05
-1.9406e-05
3.33169e-05
-9.14969e-05
0.00030733
-0.000305845
5.80318e-06
-7.28885e-06
0.00030919
-6.95301e-06
5.09225e-06
0.000310396
-5.04763e-06
3.84081e-06
0.000312453
-4.24038e-06
2.18296e-06
0.000312965
-1.54693e-06
1.03383e-06
0.000314353
-6.39237e-07
-7.49272e-07
0.000314498
9.22638e-07
-1.06858e-06
0.000314592
1.79713e-06
-1.89115e-06
0.000314824
1.72588e-06
-1.95888e-06
0.000315162
1.42601e-06
-1.7643e-06
0.000315893
9.43396e-07
-1.67436e-06
0.000316567
3.79326e-07
-1.05348e-06
0.000317478
-4.3941e-08
-8.66848e-07
0.000318257
-1.33461e-07
-6.45303e-07
0.00031912
-2.33622e-07
-6.29978e-07
0.000319941
-2.77892e-07
-5.43021e-07
0.000320773
-3.02633e-07
-5.29609e-07
0.00032161
-3.09367e-07
-5.27221e-07
0.000322454
-3.14637e-07
-5.28661e-07
0.000323291
-3.35597e-07
-5.01489e-07
0.000324174
-3.7171e-07
-5.10617e-07
0.000325051
-4.08105e-07
-4.68461e-07
0.000325979
-5.96088e-07
-3.31313e-07
0.000327024
-1.02385e-06
-2.02174e-08
0.000328209
-1.65285e-06
4.679e-07
0.000329566
-2.23239e-06
8.76845e-07
0.000330993
-2.45153e-06
1.02526e-06
0.00033238
-1.92086e-06
5.35013e-07
0.000333759
-1.62048e-06
2.42259e-07
0.000334393
-3.56458e-07
-2.76351e-07
0.000335278
4.19832e-07
-1.30394e-06
0.000335675
1.64673e-06
-2.04212e-06
0.000335988
1.87717e-06
-2.18833e-06
0.000336482
1.38969e-06
-1.88258e-06
0.000337542
6.95388e-07
-1.7534e-06
0.000338623
1.06403e-07
-1.18618e-06
0.000339837
-2.26159e-07
-9.85897e-07
0.000340979
-3.83737e-07
-7.57086e-07
0.000342143
-4.27473e-07
-7.34331e-07
0.000343266
-3.63852e-07
-7.57318e-07
0.000344387
-3.40385e-07
-7.78785e-07
0.00034541
-6.87867e-08
-9.51286e-07
0.000346509
5.90582e-08
-1.15676e-06
0.000347561
4.38328e-07
-1.48752e-06
0.000348487
1.13523e-06
-2.05914e-06
0.000349221
1.92925e-06
-2.66094e-06
0.000349816
2.46732e-06
-3.05996e-06
0.000350408
2.00974e-06
-2.59912e-06
1.06309e-06
0.000350782
-1.43469e-06
0.000349799
-0.000349512
1.7256e-06
0.00035107
-2.05123e-07
-0.000348801
1.75896e-06
3.27832e-05
-3.46003e-05
-2.17134e-05
2.35305e-05
5.62247e-06
-0.000303996
-7.47219e-06
-0.000305388
0.000307339
3.85188e-06
4.43875e-06
-0.000304206
0.000352003
-1.2579e-06
3.97574e-08
-3.48112e-06
1.38777e-06
0.000354099
-0.000352143
0.000353755
-5.09094e-06
-2.32795e-06
0.000347935
-0.000347081
2.83455e-07
1.06508e-06
0.000346143
-0.000344973
-1.10883e-06
-4.97223e-07
0.000343943
-0.000343035
-1.24631e-06
-1.09684e-06
0.000341926
-0.000340822
-1.52954e-06
-1.47053e-06
0.00033971
-0.000338617
-1.31736e-06
-1.49422e-06
0.000337577
-0.000336677
-2.0276e-07
-9.32151e-07
0.000335874
-0.000335193
1.1978e-06
5.88077e-07
0.000333864
-0.000333623
1.79637e-07
3.18986e-07
0.000332423
-0.000331735
-2.30705e-06
-1.55492e-06
0.000330527
-0.00032938
-3.59794e-06
-3.12786e-06
0.000328315
-0.000327043
-2.92393e-06
-3.29638e-06
0.000325924
-0.00032492
-1.60024e-06
-2.14218e-06
0.000323969
-0.000323122
-1.21828e-06
-1.35813e-06
0.000322256
-0.000321403
-1.16718e-06
-1.20158e-06
0.000320587
-0.000319759
-1.13084e-06
-1.12518e-06
0.000318948
-0.00031813
-1.05241e-06
-1.08809e-06
0.000317297
-0.000316546
-7.95626e-07
-9.66031e-07
0.000315733
-0.000315017
2.26403e-07
-4.33186e-07
0.000314515
-0.0003143
1.50987e-06
9.24681e-07
0.000313972
-0.000313501
4.51849e-07
1.46855e-06
0.000313194
-0.000311659
-3.08254e-06
-9.47564e-07
0.000310333
-0.000308677
-6.70432e-06
-5.56647e-06
-8.22753e-06
-0.000307404
-0.000309017
0.000310592
2.26487e-06
3.41331e-06
-0.000311942
0.000313075
-1.0051e-07
8.32812e-07
-0.000313492
0.000314173
-1.75009e-06
-1.16685e-06
-0.000314536
0.000314806
-2.22928e-06
-2.25394e-06
-0.000315152
0.000315667
-2.18968e-06
-2.11134e-06
-0.000316555
0.000317285
-1.59685e-06
-1.94102e-06
-0.000318122
0.000318891
-1.39945e-06
-1.48238e-06
-0.000319782
0.000320585
-1.33183e-06
-1.43397e-06
-0.000321426
0.000322276
-1.37804e-06
-1.36845e-06
-0.000323156
0.000323978
-1.33169e-06
-1.38202e-06
-0.000324847
0.000325771
-1.25517e-06
-1.33659e-06
-0.000326855
0.000328004
-6.81197e-07
-1.10309e-06
-0.000329373
0.000330728
-3.28701e-07
-4.91387e-07
-0.000331854
0.000333015
-9.17564e-07
-5.89843e-07
-0.000334151
0.000334903
-2.0548e-06
-1.41119e-06
-0.000335423
0.000335941
-2.70544e-06
-2.56021e-06
-0.000336838
0.000337457
-2.37129e-06
-2.7775e-06
-0.000338593
0.000339611
-2.00204e-06
-2.32078e-06
-0.00034083
0.000341938
-1.84024e-06
-1.97418e-06
-0.00034306
0.000344239
-1.95576e-06
-1.87725e-06
-0.000345314
0.000346432
-2.27204e-06
-2.0248e-06
-0.000347408
0.000348379
-3.02798e-06
-2.46183e-06
-0.000349051
0.000349711
-3.71676e-06
-3.33032e-06
-0.000350281
0.000351225
-2.37614e-06
-3.16684e-06
-0.000352565
-5.80103e-07
0.000354536
-1.29752e-06
0.000350042
-0.000349313
9.99319e-07
0.000350802
-9.6217e-07
-0.000348295
7.42866e-07
-2.71309e-05
-1.69262e-05
4.42755e-05
-2.18281e-07
3.17193e-05
-2.39405e-05
2.50043e-05
-0.000304972
0.00030685
1.97317e-06
-0.000303113
2.57907e-06
-5.9531e-06
4.13513e-06
0.000355576
0.000352686
-0.000352164
-5.61024e-06
-8.38749e-06
0.000355124
0.000354435
-0.000352792
-2.22049e-06
5.42706e-08
-1.87147e-06
0.000356356
0.000356569
-2.07632e-06
-4.92011e-06
3.64195e-06
-0.000302928
-4.3527e-06
-0.000304565
-3.68759e-06
0.000347307
-0.000346452
-5.69296e-07
7.94306e-08
0.000345342
-0.00034457
-1.87863e-06
-1.60438e-06
0.000343478
-0.000342354
-2.3685e-06
-2.18657e-06
0.000341266
-0.00034018
-2.61402e-06
-2.55647e-06
0.000339098
-0.000338064
-2.34966e-06
-2.57395e-06
0.000336989
-0.000336165
-1.02499e-06
-2.00613e-06
0.000335192
-0.000334294
3.00752e-07
-3.83035e-07
0.000334074
-0.00033262
-1.27322e-06
1.0038e-07
0.000332115
-0.000330751
-3.67038e-06
-2.05788e-06
0.000329785
-0.00032854
-4.8415e-06
-4.09298e-06
0.000327431
-0.000326366
-3.98825e-06
-4.40453e-06
0.00032527
-0.000324304
-2.56541e-06
-3.23787e-06
0.000323457
-0.00032255
-2.12508e-06
-2.20455e-06
0.000321672
-0.000320832
-2.00684e-06
-2.0794e-06
0.00031999
-0.00031918
-1.94107e-06
-1.96652e-06
0.000318363
-0.000317591
-1.82407e-06
-1.90533e-06
0.000316761
-0.000316054
-1.50301e-06
-1.79557e-06
0.000315234
-0.000314662
-3.45527e-07
-1.25392e-06
0.000313975
-0.000313542
1.07662e-06
2.37062e-07
0.000313163
-0.000312372
-3.3983e-07
1.08987e-06
0.0003119
-0.000310722
-4.26157e-06
-1.42012e-06
0.000309662
-0.000308112
-8.2551e-06
-6.62672e-06
-8.97641e-06
-0.000307364
-1.96347e-05
0.000233248
1.10549e-05
0.000356366
-0.000308528
0.000310092
7.00291e-07
1.73465e-06
-0.000311182
0.00031219
-1.10926e-06
-2.58531e-07
-0.000312883
0.000313378
-2.24541e-06
-1.85985e-06
-0.000313848
0.000314256
-2.63716e-06
-2.72491e-06
-0.000314801
0.000315269
-2.6585e-06
-2.65636e-06
-0.000315932
0.000316784
-2.4488e-06
-2.60452e-06
-0.000317607
0.000318398
-2.19068e-06
-2.30488e-06
-0.000319188
0.000320056
-2.20019e-06
-2.22356e-06
-0.00032087
0.000321706
-2.21353e-06
-2.18213e-06
-0.000322582
0.000323445
-2.19474e-06
-2.25746e-06
-0.000324316
0.000325192
-2.12999e-06
-2.2073e-06
-0.000326275
0.000327503
-1.90841e-06
-2.18512e-06
-0.000328673
0.000329943
-1.59741e-06
-1.66122e-06
-0.000331191
0.000332316
-2.0415e-06
-1.83654e-06
-0.000333322
0.000334078
-2.81007e-06
-2.41605e-06
-0.000334788
0.000335474
-3.3891e-06
-3.26906e-06
-0.00033621
0.000337025
-3.18491e-06
-3.51236e-06
-0.000338089
0.000339099
-3.01002e-06
-3.38325e-06
-0.000340192
0.000341349
-2.99495e-06
-3.06547e-06
-0.000342487
0.000343591
-3.05853e-06
-3.01318e-06
-0.000344767
0.000345843
-3.34496e-06
-3.19872e-06
-0.000346852
0.000347842
-4.01517e-06
-3.46898e-06
-0.000348633
0.000349414
-4.49518e-06
-4.11916e-06
-0.000350218
0.000351447
-3.60254e-06
-3.96834e-06
-2.63967e-06
-0.000301713
2.24112e-06
-0.000352486
0.00035388
-9.779e-06
-0.000351592
-6.50091e-06
0.000349585
-0.000348415
-1.68877e-07
0.00035041
-1.78391e-06
-0.000347348
-3.21053e-07
-3.09315e-07
-1.98394e-06
0.000358652
-2.21932e-06
0.000358481
-1.68271e-06
-0.000308749
0.000306078
-2.20749e-06
-0.000301082
1.57482e-06
-1.29681e-06
-0.00030384
-1.6558e-06
-0.000304207
-1.00179e-05
7.95725e-06
0.000355944
0.000352978
-0.000351536
-1.12189e-05
0.000354518
-1.1554e-05
1.83e-06
-3.20953e-06
-0.000302462
1.50562e-06
-0.000300758
-4.86709e-06
0.000346442
-0.000345136
-1.8729e-06
-8.23751e-07
0.000344646
-0.000343633
-2.88915e-06
-2.09219e-06
0.000342487
-0.000341402
-3.45195e-06
-3.3305e-06
0.000340289
-0.000339154
-3.74759e-06
-3.66722e-06
0.000338057
-0.000337023
-3.38166e-06
-3.6686e-06
0.000335959
-0.000334883
-2.0993e-06
-3.06854e-06
0.000334188
-0.000333331
-5.5507e-07
-1.07675e-06
0.000332797
-0.000331106
-2.96255e-06
-4.3188e-07
0.000331044
-0.000330111
-4.60285e-06
-2.11869e-06
0.000328517
-0.000327224
-6.13355e-06
-5.68537e-06
0.000326139
-0.000325163
-4.96326e-06
-5.48899e-06
0.000324184
-0.000323321
-3.42821e-06
-4.216e-06
0.000322426
-0.000321545
-3.00523e-06
-3.09898e-06
0.000320694
-0.000319861
-2.83951e-06
-2.93004e-06
0.00031902
-0.000318204
-2.75684e-06
-2.80783e-06
0.0003174
-0.000316616
-2.60767e-06
-2.70897e-06
0.00031581
-0.000315025
-2.28896e-06
-2.60151e-06
0.000314308
-0.000313488
-1.16589e-06
-1.97084e-06
0.000313046
-0.000312509
5.38787e-07
-2.04431e-07
0.000312052
-0.000311828
-5.63848e-07
6.32529e-07
0.000310454
-0.000309153
-5.56384e-06
-2.79485e-06
0.000308339
-0.000307869
-8.72564e-06
-7.4414e-06
3.62007e-05
0.000219803
-0.000238585
-1.74188e-05
-9.27797e-06
-0.000307568
3.95407e-06
-6.12915e-06
0.000357754
0.000358339
0.000356955
0.000300655
-0.000299453
3.02588e-07
-0.000301582
0.000303136
6.85917e-07
6.47445e-07
-0.000304717
0.000305868
8.22124e-07
9.96814e-07
-0.00030747
0.00030897
-8.00406e-07
1.31425e-07
-0.00030998
0.000310968
-2.09812e-06
-1.26877e-06
-0.000311755
0.000312378
-2.86915e-06
-2.64741e-06
-0.000312917
0.000313418
-3.13838e-06
-3.26447e-06
-0.000313964
0.000314591
-3.28543e-06
-3.20239e-06
-0.000315206
0.000315855
-3.0973e-06
-3.22029e-06
-0.000316637
0.00031749
-3.04387e-06
-3.08724e-06
-0.000318272
0.000319073
-3.00048e-06
-3.00527e-06
-0.000319933
0.000320766
-3.04657e-06
-3.04182e-06
-0.000321601
0.000322505
-3.09812e-06
-3.09259e-06
-0.000323408
0.000324334
-3.05612e-06
-3.10899e-06
-0.000325224
0.000326341
-3.0252e-06
-3.07392e-06
-0.000327537
0.000328806
-2.86518e-06
-2.85566e-06
-0.000329965
0.000331038
-3.11315e-06
-2.99489e-06
-0.000332053
0.000332948
-3.70389e-06
-3.43035e-06
-0.000333597
0.000334383
-4.17359e-06
-3.91604e-06
-0.000335173
0.0003362
-4.2106e-06
-4.30129e-06
-0.000337023
0.00033817
-4.15494e-06
-4.20407e-06
-0.000339204
0.000340305
-4.09383e-06
-4.09798e-06
-0.000341444
0.000342606
-4.21882e-06
-4.14997e-06
-0.000343688
0.000344793
-4.44747e-06
-4.27861e-06
-0.000345897
0.000346812
-4.92822e-06
-4.57039e-06
-0.000347915
0.000348576
-5.15372e-06
-5.21919e-06
-0.000349712
0.000350984
-4.87263e-06
-5.10145e-06
-0.000352417
0.000354122
-3.92231e-06
-4.06984e-06
-0.000355975
-3.98072e-06
0.000357739
-3.9264e-06
8.14439e-07
1.54986e-07
-0.000301729
-0.000298762
1.22701e-07
-3.5325e-06
-0.000306017
-0.000349718
-8.31522e-06
-5.18646e-06
-0.000305219
-9.10778e-06
7.38697e-06
0.000357667
-1.10895e-05
0.000356502
0.000351353
-0.00035045
-1.21192e-05
0.000352914
-1.31121e-05
0.000356494
-0.00035473
-5.74105e-06
-4.44078e-06
2.73048e-06
0.000359453
0.000358066
-6.00949e-06
-3.36498e-06
-0.000304052
-5.75594e-07
-0.000301732
1.537e-07
-1.059e-06
-0.000300825
0.000347593
-0.000346414
-1.4975e-06
0.000348746
-1.31914e-06
0.000349834
-2.86894e-06
-2.44251e-07
-0.000298365
5.45109e-06
-5.61586e-06
-0.000306078
0.000306242
-0.000306083
0.000308001
-4.74901e-06
0.000345416
-0.000344527
-2.75951e-06
-1.81915e-06
0.000343202
-0.000342167
-3.92143e-06
-3.41465e-06
0.000340992
-0.000339825
-4.61706e-06
-4.5035e-06
0.000338809
-0.000337715
-4.84023e-06
-4.68065e-06
0.000336608
-0.000335467
-4.52023e-06
-4.7736e-06
0.000334564
-0.000333748
-2.91428e-06
-3.97004e-06
0.000332678
-0.000331918
-1.31298e-06
-2.145e-06
0.000330733
-0.000331395
-2.29939e-06
-1.61583e-06
0.000328379
-0.000327824
-5.15696e-06
-5.13297e-06
0.00032689
-0.00032584
-7.18285e-06
-6.61794e-06
0.000324355
-0.000323469
-5.84818e-06
-6.97275e-06
0.000322796
-0.000321935
-4.28888e-06
-4.88826e-06
0.000321019
-0.000320189
-3.83538e-06
-4.01406e-06
0.000319345
-0.000318492
-3.69169e-06
-3.77368e-06
0.000317657
-0.000316851
-3.56324e-06
-3.64232e-06
0.000316048
-0.000315231
-3.42492e-06
-3.51141e-06
0.000314477
-0.000313673
-3.09282e-06
-3.35551e-06
0.000313039
-0.000312498
-1.70686e-06
-2.6053e-06
0.00031204
-0.000311137
-3.6465e-07
-6.62315e-07
0.000310438
-0.000309334
-1.66761e-06
-6.72182e-08
0.000307823
-0.000307475
-5.91212e-06
-4.30697e-06
0.000307
-0.000306718
-9.00841e-06
-7.91696e-06
-1.89817e-05
9.1716e-05
-9.69358e-05
-8.81296e-06
-0.000307184
0.00012177
2.95368e-05
-9.62809e-05
-5.50254e-05
-8.90236e-07
-1.07425e-06
0.000360619
0.000360325
3.11899e-06
-5.08052e-06
0.000359718
0.000360387
0.000359264
0.000298168
-0.00029716
-1.253e-06
-0.000298995
0.000299772
-4.75868e-07
-7.04736e-07
-0.000301074
0.000302228
-4.69043e-07
-6.54604e-07
-0.000303711
0.000305292
-7.59628e-07
-4.86879e-07
-0.00030648
0.000307442
-1.76272e-06
-1.05779e-06
-0.000308626
0.0003095
-2.97272e-06
-2.45362e-06
-0.000310131
0.000310874
-3.61296e-06
-3.27892e-06
-0.000311412
0.000312094
-3.81986e-06
-3.80302e-06
-0.000312639
0.000313264
-3.91132e-06
-3.74763e-06
-0.00031398
0.000314612
-3.72937e-06
-3.93599e-06
-0.000315357
0.0003161
-3.78718e-06
-3.83182e-06
-0.000316952
0.00031775
-3.799e-06
-3.85678e-06
-0.000318565
0.000319417
-3.89744e-06
-3.85664e-06
-0.000320268
0.00032113
-3.95932e-06
-3.9436e-06
-0.000322039
0.000322976
-3.99285e-06
-4.01729e-06
-0.000323923
0.000324905
-4.0057e-06
-4.02025e-06
-0.000326
0.000327112
-3.97596e-06
-3.95025e-06
-0.000328294
0.000329435
-4.25332e-06
-4.17559e-06
-0.000330383
0.000331179
-4.49918e-06
-4.37669e-06
-0.000332176
0.00033293
-4.926e-06
-4.91103e-06
-0.000333692
0.000334675
-5.19258e-06
-5.06165e-06
-0.000335619
0.000336702
-5.23574e-06
-5.14639e-06
-0.000337794
0.000338881
-5.1783e-06
-5.1883e-06
-0.000339999
0.000341122
-5.33914e-06
-5.26646e-06
-0.000342275
0.000343419
-5.58957e-06
-5.42948e-06
-0.000344507
0.000345602
-6.02129e-06
-5.65525e-06
-0.000346539
0.000347557
-6.16891e-06
-6.15332e-06
-0.000348654
0.000349891
-6.10679e-06
-6.19604e-06
-0.00035135
0.00035303
-5.59947e-06
-5.52601e-06
-5.62387e-06
-3.04743e-07
-5.45071e-07
-0.000297516
-0.000296218
-1.24804e-06
-4.72936e-06
-0.000306475
-0.000349531
-9.2309e-06
0.0003475
-0.000346027
-2.78944e-06
0.000348786
-4.15258e-06
-0.000344922
-2.59934e-06
0.000354374
-1.25464e-05
-4.76153e-06
3.20489e-06
0.000361012
-6.28641e-06
0.000359594
-0.000305249
0.000305794
-6.16094e-06
-4.96736e-06
3.09349e-06
-0.000304205
-0.000305108
-5.11009e-06
-2.82392e-06
-0.000305761
-1.37189e-07
-0.000304492
-1.72498e-06
-0.000301067
-2.24076e-06
-0.00029913
-2.81335e-07
-1.67362e-07
-0.000297069
-1.01831e-06
-0.000295482
-0.00030772
-5.49114e-06
0.000343745
-0.000342533
-3.96836e-06
-2.99423e-06
0.000341711
-0.000339988
-5.64191e-06
-4.23465e-06
0.000339042
-0.000337891
-5.7656e-06
-5.44741e-06
0.000336849
-0.000335809
-5.87807e-06
-5.72068e-06
0.000334741
-0.000333758
-5.50049e-06
-5.83998e-06
0.000332629
-0.000331567
-3.97419e-06
-5.09807e-06
0.000330746
-0.000329915
-2.1423e-06
-2.96456e-06
0.000329367
-0.000327678
-3.98687e-06
-2.16186e-06
0.00032812
-0.000326344
-6.93183e-06
-4.69027e-06
0.000324846
-0.000323701
-8.32672e-06
-8.11434e-06
0.000322696
-0.000321865
-6.67874e-06
-7.97647e-06
0.000320974
-0.000320168
-5.09408e-06
-5.77888e-06
0.000319216
-0.000318347
-4.70374e-06
-4.96506e-06
0.000317535
-0.000316706
-4.52025e-06
-4.58503e-06
0.000315893
-0.00031508
-4.37646e-06
-4.45506e-06
0.000314286
-0.0003135
-4.21103e-06
-4.30479e-06
0.000312749
-0.000312094
-3.74711e-06
-4.10665e-06
0.00031127
-0.000310682
-2.29482e-06
-3.42997e-06
0.000309628
-0.000309287
-7.06177e-07
-1.716e-06
0.000308671
-0.000306645
-3.69404e-06
-6.83734e-07
0.000308288
-0.000306413
-7.7876e-06
-2.664e-06
0.00030627
-0.000305619
-9.65956e-06
-8.06089e-06
0.000305917
-0.000306106
-8.72446e-06
8.91228e-06
-8.51604e-06
-7.50191e-06
7.18917e-06
-1.43927e-06
-3.48756e-07
0.00036241
0.000362093
2.28338e-06
-4.3154e-06
0.000361754
0.000362324
6.20194e-06
-8.04244e-06
0.000359511
0.000361154
9.82704e-06
0.000356339
-1.17883e-05
0.00035829
0.000295522
-0.000294599
-1.9423e-06
-0.00029603
0.000297094
-2.31726e-06
-1.75717e-06
-0.000297818
0.000299123
-1.78182e-06
-1.43014e-06
-0.000300056
0.000301391
-1.80515e-06
-1.58787e-06
-0.000302304
0.000303579
-2.036e-06
-1.40023e-06
-0.000304926
0.000305846
-2.6835e-06
-2.40536e-06
-0.000306656
0.000307518
-3.8351e-06
-3.26412e-06
-0.000308342
0.000308982
-4.25355e-06
-4.10316e-06
-0.000309647
0.000310201
-4.37411e-06
-4.46834e-06
-0.000310931
0.000311418
-4.39822e-06
-4.47833e-06
-0.000312062
0.000312973
-4.64031e-06
-4.58011e-06
-0.000313626
0.000314408
-4.56926e-06
-4.48453e-06
-0.000315178
0.000316008
-4.62839e-06
-4.62652e-06
-0.000316808
0.00031763
-4.71914e-06
-4.65604e-06
-0.000318466
0.000319347
-4.83998e-06
-4.77903e-06
-0.000320214
0.000321129
-4.90702e-06
-4.88347e-06
-0.000322037
0.00032305
-5.01845e-06
-4.92733e-06
-0.000324071
0.000325124
-5.02753e-06
-4.9699e-06
-0.000326201
0.000327243
-5.2944e-06
-5.25156e-06
-0.000328262
0.000329219
-5.45448e-06
-5.39411e-06
-0.000330087
0.00033093
-5.7676e-06
-5.77757e-06
-0.000331909
0.000332764
-6.04625e-06
-6.03925e-06
-0.000333858
0.000334817
-6.19318e-06
-6.23805e-06
-0.000335881
0.000337015
-6.31086e-06
-6.24981e-06
-0.000338123
0.000339271
-6.48479e-06
-6.37241e-06
-0.000340418
0.000341518
-6.68761e-06
-6.57369e-06
-0.000342671
0.00034371
-7.05859e-06
-6.80518e-06
-0.000344803
0.000345919
-7.28309e-06
-7.24281e-06
-0.000347058
0.000348089
-7.1354e-06
-7.33147e-06
-0.000349876
0.000351374
-7.09448e-06
-7.31031e-06
-0.000352963
0.000354558
-7.33312e-06
-7.20943e-06
-0.000356093
-7.80343e-06
0.000357613
-7.54172e-06
-9.34183e-07
4.42178e-07
-0.000294991
-0.000293781
-1.7532e-06
2.11115e-06
-2.56989e-06
-0.00030465
3.99421e-06
-0.000306089
-2.01285e-06
-0.000307287
0.000350142
-0.000348751
-1.35064e-05
0.000351026
-1.39934e-05
-0.000347596
-1.03831e-05
-7.97746e-07
-0.000305101
-1.03819e-05
8.82375e-06
0.0003579
0.000353775
-0.000352466
-1.30942e-05
-1.21731e-05
0.00035557
0.000355151
-0.000353689
-9.26185e-06
-8.00263e-06
6.47902e-06
0.00035914
0.000356664
-9.51247e-06
-0.000303347
0.000303347
-2.57125e-06
2.36203e-06
-1.68808e-06
-0.000305325
-0.000302969
1.9834e-06
-3.54552e-06
-0.000302672
-2.53539e-06
-0.000300773
1.17575e-07
-0.000299416
1.22845e-06
-0.000297856
-9.84254e-07
2.77624e-07
-0.000294286
-0.000344771
0.000346372
-5.75e-06
-0.000343582
-3.97633e-06
-0.000342239
-3.9395e-06
-2.21817e-06
-0.000292548
-0.00030574
-1.39833e-05
-6.71274e-06
0.000341101
-0.000340261
-4.80588e-06
-4.12967e-06
0.000338763
-0.000338006
-6.39651e-06
-5.7298e-06
0.000336797
-0.000335743
-6.81759e-06
-6.65385e-06
0.000334616
-0.000333506
-6.98559e-06
-6.84578e-06
0.000332403
-0.000331305
-6.59652e-06
-6.94084e-06
0.000330292
-0.00032941
-4.8548e-06
-6.10909e-06
0.000328359
-0.000327604
-2.89536e-06
-4.01345e-06
0.00032667
-0.000326001
-4.65518e-06
-3.09425e-06
0.000325159
-0.000323906
-8.18383e-06
-5.53029e-06
0.000322395
-0.000321302
-9.41885e-06
-9.62391e-06
0.0003204
-0.000319656
-7.4215e-06
-8.87749e-06
0.000318667
-0.000317739
-6.02107e-06
-6.7671e-06
0.000316987
-0.000316156
-5.53395e-06
-5.7161e-06
0.000315313
-0.000314495
-5.33762e-06
-5.42809e-06
0.000313684
-0.000312885
-5.1746e-06
-5.26598e-06
0.000312091
-0.000311316
-4.98553e-06
-5.09869e-06
0.000310563
-0.000309814
-4.49573e-06
-4.86026e-06
0.000309143
-0.000308266
-3.17208e-06
-4.10087e-06
0.000307889
-0.000307047
-1.54791e-06
-2.09307e-06
0.000306512
-0.000307115
-3.09164e-06
-1.21922e-06
0.000304367
-0.000304809
-7.34649e-06
-5.41204e-06
0.000303966
-0.000304157
-9.46845e-06
-8.90474e-06
0.000304141
-0.000304259
-8.60799e-06
-8.53243e-06
0.00030382
-0.000303412
-6.56937e-06
-7.9416e-06
-5.17587e-06
-4.9769e-06
3.33159e-06
0.000362661
0.000361099
-1.83796e-06
2.67678e-07
0.000363984
0.00036359
1.52585e-06
-3.41846e-06
0.000363649
0.000364121
4.94513e-06
-7.18623e-06
0.000361755
0.000362684
0.000359931
0.000291846
-0.00029083
-3.23566e-06
-0.000293212
0.000293912
-2.6433e-06
-3.11936e-06
-0.000294776
0.000295349
-2.89081e-06
-2.6228e-06
-0.000296354
0.000297439
-2.86752e-06
-2.43553e-06
-0.000298433
0.000299197
-2.5697e-06
-2.58317e-06
-0.000300538
0.000301657
-3.15617e-06
-2.7417e-06
-0.000302764
0.000303705
-3.62502e-06
-3.5125e-06
-0.000304514
0.000305221
-4.54245e-06
-4.07415e-06
-0.000305969
0.000306701
-4.98577e-06
-4.85132e-06
-0.000307239
0.000308043
-5.17797e-06
-5.00749e-06
-0.000308617
0.000309389
-5.17004e-06
-5.05277e-06
-0.000310023
0.000310622
-5.24006e-06
-5.21367e-06
-0.00031148
0.000312227
-5.31571e-06
-5.34214e-06
-0.00031297
0.000313795
-5.45261e-06
-5.36962e-06
-0.000314622
0.000315432
-5.52794e-06
-5.4831e-06
-0.000316263
0.000317102
-5.67881e-06
-5.60981e-06
-0.000318002
0.000318899
-5.80348e-06
-5.78242e-06
-0.000319861
0.000320749
-5.9054e-06
-5.88773e-06
-0.000321708
0.000322761
-6.07899e-06
-5.92864e-06
-0.000323732
0.000324747
-6.30755e-06
-6.22158e-06
-0.000325748
0.00032678
-6.48511e-06
-6.39362e-06
-0.00032759
0.000328672
-6.84762e-06
-6.58649e-06
-0.000329555
0.00033057
-7.05945e-06
-6.92084e-06
-0.000331448
0.000332537
-7.28059e-06
-7.11356e-06
-0.000333586
0.000334676
-7.39891e-06
-7.29636e-06
-0.000335802
0.000336919
-7.59981e-06
-7.49625e-06
-0.000338073
0.000339215
-7.82642e-06
-7.72532e-06
-0.000340414
0.000341471
-8.11261e-06
-8.00228e-06
-0.000342592
0.000343685
-8.37377e-06
-8.36121e-06
-0.000344994
0.000346331
-8.46959e-06
-8.63714e-06
-0.000347687
0.000349169
-8.5738e-06
-8.66356e-06
-0.000350679
0.000352167
-8.81759e-06
-8.71612e-06
-9.06082e-06
-2.20907e-06
1.95231e-06
-0.000292293
-0.000289775
-3.26561e-06
7.27884e-07
-0.000308506
-2.11108e-06
-0.000305975
0.000347376
-0.00034635
-1.45298e-05
0.000348587
-1.52005e-05