/*--------------------------------*- C++ -*----------------------------------*\
| =========                 |                                                 |
| \\      /  F ield         | OpenFOAM: The Open Source CFD Toolbox           |
|  \\    /   O peration     | Version:  2212                                  |
|   \\  /    A nd           | Website:  www.openfoam.com                      |
|    \\/     M anipulation  |                                                 |
\*---------------------------------------------------------------------------*/
FoamFile
{
    version     2.0;
    format      ascii;
    arch        "LSB;label=32;scalar=64";
    class       volScalarField;
    location    "0.0192";
    object      T;
}
// * * * * * * * * * * * * * * * * * * * * * * * * * * * * * * * * * * * * * //

dimensions      [0 0 0 1 0 0 0];

internalField   nonuniform List<scalar> 
31661
(
271.644
250.783
251.567
251.124
250.764
251.56
251.105
250.754
251.559
251.099
268.445
252.821
274.034
266.119
272.45
271.265
272.413
271.481
260.676
271.071
242.441
242.233
256.55
268.416
252.082
242.279
258.185
252.456
252.288
251.991
268.358
240.418
240.437
257.649
250.211
268.074
256.569
268.253
253.311
240.41
240.679
250.59
268.49
243.136
242.638
252.017
242.937
249.578
258.641
259.158
240.65
256.276
251.118
251.691
249.46
260.229
250.48
248.787
251.155
255.619
252.782
254.069
244.807
250.395
259.174
265.552
272.571
251.151
251.144
251.14
253.704
251.132
251.129
251.122
251.118
251.112
251.106
251.1
251.094
251.087
251.08
251.073
251.065
251.057
251.054
251.062
251.07
251.077
251.084
251.091
251.097
251.103
251.108
251.114
251.119
251.123
251.129
251.134
251.139
251.143
251.148
251.153
251.158
251.163
251.163
251.169
251.168
251.174
251.173
251.18
251.179
251.186
251.184
251.192
251.19
251.198
251.196
251.204
251.202
251.21
251.208
251.216
251.215
251.223
251.221
251.23
251.228
251.236
251.235
251.243
251.242
251.251
251.249
251.258
251.256
251.265
251.263
251.272
251.27
251.28
251.278
251.287
251.285
251.295
251.293
251.302
251.3
251.31
251.308
251.317
251.315
251.325
251.323
251.332
251.33
251.339
251.337
251.346
251.344
251.353
251.351
251.359
251.358
251.366
251.364
251.371
251.37
251.377
251.375
251.38
251.382
251.381
251.376
251.37
251.364
251.358
251.352
251.345
251.338
251.33
251.323
251.316
251.308
251.3
251.293
251.285
251.278
251.27
251.263
251.255
251.248
251.241
251.234
251.227
251.22
251.213
251.207
251.201
251.194
251.188
251.183
251.177
251.171
251.166
251.161
251.154
251.148
251.142
251.138
251.131
251.125
251.119
251.114
251.108
251.103
251.096
251.09
251.046
251.049
251.083
251.076
251.069
251.061
251.052
251.04
251.037
251.026
251.034
251.043
251.051
251.059
251.066
251.073
251.08
251.086
251.092
251.098
251.103
251.109
251.114
251.118
251.123
251.129
251.134
251.139
251.144
251.149
251.155
251.16
251.166
251.171
251.177
251.183
251.189
251.195
251.201
251.208
251.214
251.221
251.228
251.235
251.242
251.249
251.257
251.264
251.272
251.279
251.287
251.295
251.302
251.31
251.318
251.325
251.332
251.339
251.346
251.353
251.359
251.365
251.371
251.376
251.381
251.385
251.387
251.386
251.383
251.378
251.372
251.367
251.361
251.354
251.347
251.34
251.333
251.326
251.318
251.31
251.303
251.295
251.287
251.279
251.271
251.264
251.256
251.248
251.241
251.234
251.226
251.219
251.212
251.206
251.199
251.192
251.186
251.18
251.174
251.168
251.162
251.156
251.151
251.145
251.139
251.133
251.128
251.122
251.116
251.11
251.104
251.098
251.092
251.085
251.079
251.072
251.064
251.044
251.056
251.048
251.04
251.016
251.028
251.034
251.031
251.007
250.987
250.997
251.006
251.015
251.023
251.032
251.04
251.047
251.055
251.062
251.068
251.075
251.081
251.087
251.092
251.097
251.102
251.108
251.113
251.119
251.124
251.129
251.134
251.14
251.146
251.152
251.158
251.164
251.17
251.176
251.183
251.189
251.196
251.203
251.21
251.217
251.224
251.231
251.239
251.246
251.254
251.262
251.27
251.278
251.286
251.293
251.301
251.309
251.317
251.324
251.331
251.339
251.345
251.352
251.358
251.364
251.37
251.375
251.379
251.385
251.389
251.391
251.39
251.387
251.382
251.378
251.372
251.367
251.361
251.354
251.347
251.34
251.333
251.326
251.318
251.31
251.302
251.294
251.286
251.278
251.27
251.262
251.254
251.246
251.238
251.23
251.222
251.215
251.207
251.2
251.193
251.186
251.179
251.172
251.166
251.159
251.153
251.147
251.142
251.136
251.13
251.124
251.118
251.112
251.106
251.1
251.094
251.087
251.081
251.074
251.068
251.06
251.053
251.045
251.037
251.03
251.028
251.019
251.018
250.977
250.997
251.021
251.025
251.021
250.967
250.939
250.949
250.959
250.969
250.979
250.988
250.997
251.006
251.014
251.022
251.03
251.037
251.044
251.051
251.058
251.064
251.07
251.075
251.081
251.087
251.092
251.098
251.104
251.11
251.115
251.121
251.128
251.134
251.14
251.146
251.153
251.159
251.166
251.173
251.18
251.187
251.194
251.202
251.209
251.217
251.225
251.233
251.241
251.249
251.257
251.265
251.273
251.282
251.29
251.298
251.306
251.314
251.321
251.329
251.336
251.343
251.349
251.355
251.361
251.367
251.371
251.376
251.383
251.389
251.393
251.394
251.394
251.391
251.386
251.38
251.376
251.371
251.365
251.359
251.353
251.346
251.339
251.331
251.324
251.316
251.308
251.299
251.291
251.283
251.274
251.266
251.257
251.249
251.24
251.232
251.224
251.216
251.208
251.2
251.192
251.184
251.177
251.169
251.162
251.155
251.148
251.141
251.135
251.128
251.122
251.116
251.11
251.104
251.097
251.091
251.085
251.078
251.072
251.065
251.058
251.051
251.044
251.036
251.028
251.02
251.011
251.002
251.01
250.993
251.009
250.987
251
250.928
250.957
251.01
251.015
251.011
250.918
250.881
250.892
250.903
250.914
250.924
250.935
250.945
250.955
250.964
250.974
250.983
250.991
250.999
251.007
251.015
251.022
251.029
251.036
251.042
251.049
251.055
251.061
251.067
251.073
251.079
251.086
251.092
251.098
251.105
251.111
251.118
251.125
251.132
251.139
251.146
251.153
251.16
251.168
251.176
251.184
251.192
251.2
251.208
251.216
251.225
251.233
251.242
251.25
251.259
251.268
251.276
251.285
251.293
251.301
251.309
251.317
251.325
251.332
251.339
251.346
251.352
251.357
251.363
251.367
251.371
251.379
251.386
251.392
251.396
251.398
251.397
251.394
251.39
251.384
251.374
251.369
251.363
251.357
251.351
251.344
251.337
251.329
251.321
251.313
251.305
251.296
251.287
251.278
251.27
251.261
251.252
251.243
251.234
251.225
251.216
251.207
251.199
251.19
251.182
251.173
251.165
251.157
251.149
251.142
251.134
251.127
251.119
251.112
251.106
251.099
251.092
251.086
251.079
251.072
251.066
251.059
251.052
251.045
251.038
251.03
251.023
251.015
251.007
250.998
250.99
250.98
250.97
250.982
250.96
251.378
250.95
250.999
250.972
250.977
250.989
250.946
251
250.87
250.907
251.004
251.001
250.858
250.814
250.826
250.838
250.849
250.861
250.873
250.884
250.895
250.906
250.916
250.927
250.937
250.946
250.956
250.964
250.973
250.981
250.989
250.997
251.004
251.011
251.018
251.025
251.031
251.038
251.045
251.052
251.058
251.065
251.072
251.079
251.086
251.093
251.101
251.108
251.116
251.123
251.131
251.139
251.147
251.155
251.164
251.172
251.181
251.189
251.198
251.207
251.216
251.225
251.234
251.244
251.253
251.262
251.271
251.279
251.288
251.297
251.305
251.313
251.321
251.328
251.335
251.342
251.348
251.354
251.359
251.363
251.367
251.375
251.382
251.389
251.395
251.398
251.4
251.399
251.397
251.393
251.388
251.382
251.372
251.367
251.362
251.356
251.349
251.342
251.335
251.327
251.319
251.31
251.302
251.293
251.284
251.275
251.265
251.256
251.246
251.237
251.227
251.218
251.208
251.199
251.19
251.18
251.171
251.162
251.153
251.145
251.136
251.128
251.119
251.111
251.103
251.096
251.088
251.081
251.073
251.066
251.059
251.052
251.044
251.037
251.03
251.022
251.014
251.007
250.999
250.991
250.982
250.973
250.964
250.955
250.945
250.935
250.924
250.912
251.376
250.901
250.938
250.988
250.961
250.967
250.978
250.936
250.989
250.896
250.993
250.802
250.847
250.99
251.37
251.378
251.385
251.391
251.396
251.4
251.402
251.401
251.399
251.395
251.39
251.385
251.379
251.372
251.367
251.362
251.356
251.349
251.342
251.335
251.327
251.318
251.31
251.301
251.292
251.282
251.272
251.263
251.253
251.243
251.233
251.222
251.212
251.202
251.192
251.182
251.172
251.162
251.153
251.143
251.134
251.124
251.115
251.106
251.097
251.088
251.08
251.071
251.063
251.055
251.047
251.039
251.031
251.023
251.015
251.007
250.999
250.991
250.983
250.974
250.966
250.957
250.947
250.938
250.928
250.918
250.908
250.897
250.885
250.873
250.86
250.888
250.847
251.376
250.79
250.74
250.753
250.765
250.778
250.79
250.803
250.815
250.828
250.84
250.852
250.863
250.875
250.886
250.897
250.907
250.917
250.927
250.936
250.945
250.953
250.962
250.97
250.978
250.985
250.993
251
251.007
251.015
251.022
251.029
251.037
251.044
251.052
251.06
251.068
251.076
251.084
251.092
251.1
251.108
251.117
251.126
251.134
251.143
251.152
251.162
251.171
251.18
251.19
251.199
251.209
251.219
251.228
251.238
251.248
251.257
251.266
251.276
251.285
251.293
251.302
251.31
251.318
251.326
251.333
251.34
251.346
251.351
251.356
251.361
251.364
250.927
250.977
250.834
250.875
250.949
250.956
250.966
250.925
250.978
250.884
250.982
250.835
250.979
250.728
250.779
251.374
251.37
251.365
251.359
251.352
251.345
251.338
251.33
251.321
251.312
251.303
251.294
251.284
251.274
251.264
251.253
251.243
251.232
251.221
251.211
251.2
251.189
251.178
251.168
251.157
251.147
251.136
251.126
251.116
251.106
251.096
251.086
251.077
251.067
251.058
251.049
251.04
251.031
251.022
251.013
251.005
250.996
250.987
250.978
250.97
250.961
250.951
250.942
250.933
250.923
250.913
250.903
250.892
250.881
250.87
250.858
250.846
250.833
250.82
250.806
250.792
250.674
250.687
250.7
250.714
250.727
250.741
250.755
250.768
250.781
250.795
250.807
250.82
250.832
250.844
250.856
250.867
250.878
250.888
250.898
250.908
250.917
250.927
250.935
250.944
250.952
250.961
250.969
250.977
250.985
250.993
251.001
251.009
251.018
251.026
251.034
251.043
251.051
251.06
251.069
251.078
251.087
251.096
251.106
251.115
251.125
251.134
251.144
251.154
251.164
251.174
251.184
251.195
251.205
251.215
251.225
251.235
251.245
251.255
251.265
251.275
251.284
251.293
251.302
251.311
251.319
251.326
251.333
251.34
251.346
251.352
251.357
251.361
251.364
251.367
251.373
251.38
251.386
251.393
251.398
251.401
251.403
251.402
251.4
251.397
251.392
251.387
251.382
251.379
250.661
251.378
250.819
250.777
250.716
250.914
250.966
251.381
251.381
251.384
251.389
251.393
251.397
251.401
251.403
251.403
251.401
251.398
251.393
251.387
251.381
251.375
251.369
251.367
250.862
250.936
250.945
250.648
250.592
250.605
250.619
250.634
250.648
250.663
250.678
250.693
250.707
250.722
250.737
250.751
250.765
250.778
250.791
250.804
250.817
250.829
250.841
250.852
250.863
250.874
250.884
250.894
250.904
250.913
250.922
250.932
250.941
250.95
250.958
250.967
250.976
250.985
250.994
251.003
251.012
251.022
251.031
251.04
251.05
251.06
251.069
251.079
251.089
251.099
251.11
251.12
251.131
251.141
251.152
251.163
251.173
251.184
251.195
251.206
251.217
251.227
251.238
251.249
251.259
251.269
251.279
251.289
251.298
251.307
251.315
251.324
251.331
251.338
251.345
251.351
251.356
251.361
251.365
251.368
250.761
250.805
250.954
250.913
250.966
250.873
250.971
250.824
250.967
250.767
250.704
250.579
250.636
250.439
250.499
251.384
251.381
251.377
251.372
251.366
251.36
251.353
251.346
251.338
251.329
251.32
251.311
251.301
251.291
251.281
251.27
251.259
251.248
251.237
251.226
251.215
251.203
251.192
251.181
251.169
251.158
251.147
251.136
251.124
251.114
251.103
251.092
251.081
251.071
251.061
251.05
251.04
251.031
251.021
251.011
251.001
250.992
250.982
250.973
250.963
250.953
250.944
250.934
250.924
250.914
250.903
250.893
250.882
250.871
250.859
250.848
250.835
250.823
250.81
250.796
250.782
250.767
250.752
250.736
250.72
251.383
250.745
250.703
245.939
251.387
250.901
250.955
251.383
251.385
251.389
251.393
251.397
251.4
251.402
251.402
251.401
251.398
251.393
251.387
251.381
251.376
251.371
251.369
251.37
250.848
250.924
250.933
250.448
250.524
250.538
250.553
250.569
250.585
250.601
250.617
250.633
250.649
250.665
250.681
250.696
250.712
250.727
250.741
250.756
250.769
250.783
250.796
250.809
250.821
250.833
250.845
250.856
250.867
250.878
250.888
250.898
250.909
250.918
250.928
250.938
250.948
250.958
250.967
250.977
250.987
250.997
251.007
251.017
251.027
251.038
251.048
251.058
251.069
251.08
251.091
251.102
251.113
251.124
251.135
251.146
251.158
251.169
251.18
251.192
251.203
251.215
251.226
251.237
251.248
251.259
251.27
251.28
251.29
251.3
251.309
251.318
251.327
251.335
251.342
251.349
251.356
251.361
251.366
251.37
251.374
251.376
250.789
250.942
250.902
250.685
250.728
250.954
250.861
250.959
250.812
250.956
250.755
250.692
250.625
250.49
251.384
251.389
250.363
250.342
251.396
251.393
251.389
251.385
251.38
251.374
251.367
251.36
251.352
251.343
251.334
251.325
251.315
251.305
251.295
251.284
251.273
251.262
251.25
251.239
251.227
251.215
251.203
251.191
251.179
251.167
251.155
251.143
251.132
251.12
251.108
251.097
251.085
251.074
251.063
251.052
251.041
251.03
251.02
251.009
250.998
250.988
250.977
250.967
250.957
250.946
250.936
250.925
250.914
250.903
250.892
250.881
250.869
250.858
250.845
250.833
250.82
250.807
250.793
250.779
250.765
250.75
250.734
250.718
250.701
250.684
250.666
250.648
250.368
250.434
250.667
250.628
245.014
250.888
250.944
251.384
251.385
251.389
251.393
251.397
251.399
251.401
251.401
251.4
251.397
251.392
251.387
251.381
251.375
251.371
251.37
251.372
251.378
250.833
250.911
250.922
250.709
250.461
250.476
250.492
250.509
250.526
250.544
250.562
250.579
250.597
250.614
250.632
250.649
250.665
250.682
250.698
250.714
250.729
250.744
250.759
250.773
250.787
250.8
250.813
250.826
250.838
250.85
250.862
250.873
250.885
250.896
250.907
250.917
250.928
250.939
250.949
250.96
250.97
250.981
250.992
251.003
251.013
251.024
251.035
251.046
251.058
251.069
251.08
251.092
251.103
251.115
251.127
251.138
251.15
251.162
251.174
251.186
251.198
251.209
251.221
251.233
251.244
251.256
251.267
251.278
251.289
251.299
251.31
251.319
251.329
251.337
251.346
251.354
251.361
251.368
251.374
251.379
251.383
251.387
251.39
251.392
250.774
250.93
250.89
250.711
250.942
250.85
250.609
250.649
250.948
250.8
250.944
250.744
250.681
250.614
251.384
251.389
250.546
250.483
255.534
250.427
251.398
251.415
251.412
251.409
251.405
251.401
251.395
251.389
251.382
251.374
251.366
251.357
251.348
251.338
251.328
251.318
251.307
251.296
251.284
251.273
251.261
251.249
251.237
251.224
251.212
251.2
251.187
251.175
251.162
251.15
251.138
251.126
251.114
251.101
251.089
251.078
251.066
251.054
251.043
251.031
251.02
251.008
250.997
250.986
250.974
250.963
250.952
250.94
250.929
250.917
250.906
250.894
250.882
250.869
250.857
250.844
250.831
250.817
250.803
250.789
250.774
250.759
250.744
250.728
250.711
250.694
250.676
250.658
250.639
250.62
250.6
250.579
268.788
250.589
250.558
240.911
251.789
250.874
250.932
251.383
251.385
251.388
251.392
251.395
251.397
251.399
251.399
251.398
251.395
251.39
251.385
251.38
251.375
251.371
251.37
251.372
251.379
251.393
250.819
250.898
250.91
251.51
251.074
250.407
250.424
250.442
250.461
250.479
250.498
250.518
250.537
250.556
250.575
250.594
250.613
250.631
250.649
250.667
250.684
250.701
250.718
250.734
250.75
250.765
250.78
250.794
250.808
250.822
250.835
250.848
250.861
250.874
250.886
250.898
250.909
250.921
250.933
250.944
250.955
250.967
250.978
250.989
251.001
251.012
251.023
251.035
251.047
251.058
251.07
251.082
251.094
251.106
251.118
251.13
251.142
251.154
251.166
251.179
251.191
251.203
251.215
251.228
251.24
251.252
251.264
251.275
251.287
251.298
251.309
251.32
251.33
251.34
251.35
251.359
251.368
251.376
251.383
251.39
251.396
251.401
251.406
251.41
251.412
251.415
251.416
250.758
250.917
250.879
250.694
250.93
250.838
250.63
250.936
250.789
250.537
250.569
250.933
250.732
250.669
251.384
251.389
250.604
250.538
250.475
250.414
251.399
251.416
251.44
251.438
251.435
251.431
251.426
251.42
251.414
251.407
251.399
251.391
251.382
251.373
251.363
251.353
251.342
251.331
251.319
251.308
251.296
251.284
251.271
251.259
251.246
251.234
251.221
251.208
251.196
251.183
251.17
251.157
251.145
251.132
251.12
251.107
251.095
251.083
251.07
251.058
251.046
251.034
251.022
251.01
250.998
250.986
250.974
250.962
250.95
250.937
250.925
250.912
250.9
250.887
250.873
250.86
250.846
250.832
250.817
250.802
250.787
250.771
250.755
250.738
250.721
250.704
250.686
250.667
250.648
250.628
250.607
250.586
250.564
250.542
250.52
250.327
250.516
250.497
250.357
251.442
250.861
250.921
251.383
251.384
251.386
251.389
251.392
251.395
251.396
251.396
251.394
251.392
251.388
251.383
251.378
251.373
251.37
251.369
251.371
251.379
251.393
251.415
250.803
250.885
250.899
250.331
250.352
250.37
250.39
250.41
250.431
250.451
250.471
250.492
250.513
250.534
250.554
250.575
250.595
250.615
250.634
250.654
250.672
250.691
250.709
250.726
250.744
250.76
250.776
250.792
250.808
250.823
250.837
250.852
250.866
250.879
250.892
250.905
250.918
250.931
250.943
250.956
250.968
250.98
250.992
251.004
251.016
251.028
251.04
251.052
251.064
251.076
251.088
251.101
251.113
251.125
251.137
251.15
251.162
251.175
251.187
251.2
251.212
251.225
251.237
251.25
251.262
251.275
251.287
251.299
251.311
251.322
251.333
251.344
251.355
251.366
251.375
251.385
251.394
251.402
251.41
251.418
251.424
251.43
251.435
251.44
251.443
251.446
251.448
251.449
251.448
250.741
250.905
250.867
250.676
250.918
250.826
250.315
250.611
250.924
250.777
250.549
250.921
250.721
251.383
251.388
250.475
250.494
250.659
250.594
250.529
250.464
250.399
251.399
251.416
251.441
251.478
251.477
251.475
251.472
251.468
251.463
251.458
251.452
251.445
251.437
251.429
251.42
251.411
251.401
251.391
251.381
251.37
251.358
251.347
251.335
251.323
251.311
251.298
251.286
251.273
251.26
251.247
251.234
251.221
251.208
251.195
251.182
251.17
251.157
251.144
251.131
251.119
251.106
251.093
251.081
251.068
251.056
251.043
251.03
251.018
251.005
250.992
250.979
250.966
250.953
250.939
250.926
250.912
250.898
250.883
250.868
250.853
250.837
250.821
250.804
250.788
250.77
250.753
250.735
250.716
250.697
250.677
250.657
250.636
250.615
250.593
250.57
250.548
250.524
250.501
250.477
250.453
250.338
250.454
250.306
251.477
250.846
250.909
251.381
251.381
251.383
251.386
251.389
251.391
251.392
251.392
251.39
251.388
251.384
251.38
251.375
251.371
251.368
251.367
251.37
251.378
251.392
251.415
251.447
250.788
250.871
250.887
250.345
250.365
250.383
250.402
250.423
250.445
250.468
250.49
250.512
250.534
250.556
250.578
250.6
250.621
250.642
250.663
250.683
250.703
250.723
250.742
250.761
250.779
250.797
250.815
250.831
250.848
250.864
250.88
250.895
250.91
250.925
250.939
250.953
250.966
250.98
250.993
251.006
251.019
251.032
251.044
251.057
251.069
251.082
251.094
251.107
251.119
251.132
251.144
251.157
251.169
251.182
251.195
251.207
251.22
251.232
251.245
251.257
251.27
251.282
251.295
251.307
251.319
251.331
251.343
251.355
251.366
251.378
251.389
251.399
251.41
251.42
251.429
251.438
251.447
251.455
251.462
251.469
251.475
251.481
251.486
251.49
251.493
251.495
251.496
251.496
251.496
251.494
250.725
250.892
250.855
250.327
250.294
250.659
250.906
250.815
250.593
250.912
250.766
251.38
251.386
250.529
250.909
250.474
250.71
250.649
250.431
250.431
250.585
250.519
250.451
250.385
251.398
251.415
251.441
251.477
251.528
251.529
251.528
251.527
251.524
251.521
251.517
251.512
251.507
251.5
251.493
251.486
251.478
251.469
251.46
251.45
251.44
251.429
251.418
251.407
251.396
251.384
251.372
251.36
251.348
251.335
251.323
251.31
251.297
251.285
251.272
251.259
251.246
251.233
251.22
251.207
251.195
251.182
251.169
251.156
251.143
251.13
251.117
251.104
251.091
251.078
251.065
251.051
251.037
251.024
251.01
250.996
250.981
250.967
250.951
250.936
250.92
250.903
250.886
250.869
250.851
250.833
250.814
250.795
250.776
250.756
250.736
250.714
250.693
250.671
250.649
250.625
250.602
250.578
250.554
250.529
250.505
250.481
250.456
250.408
250.293
250.432
250.327
251.527
250.832
250.897
251.378
251.378
251.379
251.382
251.384
251.386
251.387
251.387
251.386
251.383
251.379
251.375
251.371
251.367
251.364
251.364
251.368
251.376
251.39
251.413
251.445
251.492
250.773
250.858
250.875
250.377
250.397
250.416
250.435
250.455
250.476
250.5
250.523
250.548
250.571
250.595
250.618
250.642
250.665
250.687
250.71
250.732
250.753
250.774
250.795
250.815
250.835
250.854
250.873
250.892
250.909
250.927
250.944
250.96
250.976
250.992
251.007
251.022
251.036
251.05
251.064
251.078
251.091
251.105
251.118
251.131
251.143
251.156
251.169
251.181
251.194
251.207
251.219
251.231
251.244
251.256
251.269
251.281
251.294
251.306
251.318
251.33
251.342
251.355
251.367
251.379
251.39
251.402
251.414
251.425
251.436
251.447
251.458
251.468
251.478
251.488
251.497
251.506
251.514
251.522
251.529
251.536
251.542
251.547
251.552
251.556
251.559
251.561
251.562
251.562
251.562
251.56
251.558
251.554
250.279
250.709
250.879
250.844
250.308
250.358
250.642
250.894
250.804
251.376
251.382
250.574
250.9
250.898
250.51
250.755
250.7
250.453
250.639
250.41
250.575
250.41
250.387
250.508
250.44
250.374
251.396
251.414
251.439
251.475
251.524
251.593
251.595
251.597
251.597
251.597
251.596
251.593
251.59
251.586
251.582
251.576
251.57
251.564
251.556
251.549
251.54
251.531
251.522
251.513
251.502
251.492
251.481
251.47
251.459
251.448
251.436
251.424
251.412
251.4
251.388
251.376
251.363
251.351
251.338
251.326
251.313
251.301
251.288
251.276
251.263
251.25
251.237
251.225
251.212
251.199
251.185
251.172
251.158
251.144
251.131
251.117
251.103
251.088
251.073
251.057
251.042
251.026
251.009
250.991
250.973
250.955
250.937
250.917
250.898
250.878
250.857
250.836
250.815
250.792
250.771
250.748
250.724
250.7
250.676
250.651
250.626
250.601
250.576
250.55
250.524
250.499
250.474
250.387
250.313
250.277
250.449
251.589
250.818
250.885
251.374
251.373
251.375
251.377
251.379
251.38
251.381
251.381
251.38
251.377
251.374
251.37
251.366
251.362
251.36
251.361
251.364
251.372
251.387
251.41
251.442
251.488
251.549
250.261
250.758
250.845
250.264
250.246
250.864
250.29
250.338
250.439
250.46
250.48
250.5
250.521
250.541
250.562
250.585
250.609
250.633
250.658
250.682
250.707
250.731
250.755
250.779
250.802
250.825
250.848
250.87
250.892
250.913
250.934
250.954
250.974
250.993
251.012
251.03
251.048
251.065
251.082
251.099
251.115
251.13
251.145
251.16
251.174
251.189
251.202
251.216
251.229
251.242
251.255
251.268
251.28
251.293
251.305
251.317
251.33
251.342
251.354
251.366
251.378
251.39
251.401
251.413
251.425
251.436
251.448
251.459
251.47
251.482
251.493
251.504
251.514
251.525
251.535
251.545
251.555
251.565
251.574
251.583
251.591
251.599
251.607
251.614
251.62
251.626
251.631
251.636
251.64
251.643
251.646
251.647
251.648
251.648
251.647
251.645
251.642
251.638
251.633
251.626
250.693
250.867
250.833
251.371
251.378
250.625
250.882
250.888
250.556
250.793
250.745
250.491
250.886
250.69
250.434
250.63
250.39
250.566
250.366
250.498
250.425
250.365
250.429
250.362
251.393
251.411
251.436
251.471
251.52
251.584
251.664
251.671
251.676
251.68
251.683
251.685
251.686
251.686
251.685
251.684
251.681
251.678
251.674
251.67
251.664
251.659
251.652
251.645
251.638
251.63
251.621
251.613
251.604
251.594
251.584
251.574
251.564
251.554
251.543
251.532
251.521
251.51
251.498
251.487
251.475
251.464
251.452
251.44
251.429
251.417
251.405
251.393
251.381
251.368
251.356
251.343
251.331
251.317
251.304
251.291
251.277
251.264
251.25
251.236
251.221
251.206
251.19
251.175
251.158
251.14
251.122
251.104
251.085
251.066
251.046
251.025
251.004
250.983
250.961
250.939
250.916
250.894
250.869
250.845
250.821
250.796
250.771
250.746
250.721
250.694
250.668
250.641
250.614
250.587
250.56
250.533
250.401
250.506
250.478
250.302
251.132
250.804
250.628
250.626
250.251
250.231
250.272
250.319
250.419
250.255
250.301
250.399
250.239
250.283
250.38
250.267
250.225
250.362
250.219
250.345
250.253
250.212
250.874
251.368
251.368
251.369
251.37
251.372
251.374
251.374
251.374
251.373
251.37
251.367
251.363
251.36
251.357
251.355
251.356
251.359
251.368
251.383
251.405
251.438
251.483
251.543
251.619
250.655
250.694
250.727
250.758
250.788
250.816
250.843
250.871
250.898
250.923
250.949
250.974
250.999
251.024
251.048
251.073
251.096
251.119
251.142
251.165
251.187
251.208
251.229
251.249
251.269
251.288
251.306
251.324
251.342
251.359
251.375
251.39
251.404
251.419
251.433
251.446
251.459
251.472
251.484
251.497
251.509
251.521
251.533
251.544
251.555
251.566
251.577
251.588
251.599
251.609
251.619
251.63
251.64
251.65
251.66
251.669
251.679
251.688
251.698
251.707
251.715
251.724
251.732
251.74
251.748
251.755
251.762
251.768
251.774
251.779
251.784
251.789
251.793
251.796
251.798
251.8
251.801
251.802
251.801
251.8
251.798
251.795
251.791
251.786
251.78
251.773
251.764
250.743
250.832
250.852
251.389
251.407
251.432
251.467
251.515
251.578
251.657
251.755
250.503
250.522
250.542
250.561
250.581
250.601
250.622
250.643
250.664
250.685
250.706
250.728
250.751
250.776
250.801
250.826
250.852
250.876
250.901
250.925
250.949
250.973
250.997
251.02
251.042
251.064
251.086
251.107
251.127
251.147
251.167
251.186
251.204
251.222
251.239
251.256
251.273
251.289
251.304
251.319
251.334
251.348
251.362
251.375
251.388
251.401
251.414
251.426
251.438
251.45
251.462
251.474
251.485
251.497
251.508
251.519
251.53
251.541
251.552
251.562
251.573
251.583
251.594
251.604
251.614
251.624
251.634
251.643
251.653
251.662
251.671
251.679
251.688
251.696
251.704
251.711
251.718
251.725
251.731
251.737
251.742
251.747
251.751
251.754
251.757
251.759
251.76
251.76
251.76
251.759
251.757
251.754
251.75
251.745
251.739
251.732
251.724
251.714
250.677
250.854
250.869
250.608
250.822
250.782
250.539
250.876
251.366
251.372
250.735
250.473
250.874
250.681
250.415
250.622
250.37
250.557
250.345
250.489
250.344
250.42
250.378
250.353
250.465
250.291
250.241
250.484
250.329
250.209
250.703
250.465
250.79
251.645
250.795
250.24
250.202
250.863
250.86
250.848
250.885
250.929
250.968
251.003
251.035
251.064
251.091
251.118
251.146
251.172
251.197
251.222
251.247
251.271
251.296
251.32
251.344
251.367
251.39
251.412
251.434
251.455
251.476
251.496
251.515
251.533
251.552
251.568
251.585
251.602
251.617
251.632
251.645
251.659
251.672
251.684
251.696
251.707
251.718
251.729
251.74
251.75
251.761
251.77
251.78
251.789
251.798
251.807
251.816
251.825
251.833
251.841
251.849
251.857
251.865
251.872
251.88
251.887
251.893
251.9
251.906
251.912
251.918
251.923
251.928
251.933
251.937
251.941
251.944
251.947
251.949
251.951
251.952
251.953
251.952
251.952
251.95
251.948
251.945
251.941
251.936
251.93
251.923
251.915
251.907
251.897
251.886
251.874
251.362
251.361
251.362
251.363
251.364
251.366
251.366
251.366
251.364
251.362
251.359
251.356
251.352
251.35
251.348
251.349
251.354
251.363
251.378
251.4
251.432
251.477
251.536
251.611
251.704
250.728
250.819
250.681
257.081
250.841
250.662
250.842
250.811
250.726
250.745
250.765
250.785
250.805
250.824
250.844
250.864
250.884
250.906
250.927
250.949
250.971
250.994
251.019
251.043
251.068
251.093
251.118
251.142
251.166
251.19
251.214
251.237
251.26
251.282
251.304
251.325
251.346
251.366
251.385
251.405
251.423
251.441
251.458
251.475
251.492
251.507
251.523
251.538
251.552
251.566
251.579
251.592
251.605
251.617
251.629
251.641
251.652
251.663
251.674
251.684
251.694
251.705
251.714
251.724
251.734
251.743
251.752
251.762
251.77
251.779
251.788
251.796
251.804
251.812
251.82
251.828
251.835
251.843
251.85
251.856
251.863
251.869
251.875
251.88
251.885
251.89
251.894
251.897
251.901
251.903
251.905
251.907
251.908
251.907
251.907
251.906
251.904
251.901
251.897
251.892
251.886
251.88
251.872
251.864
251.854
251.843
251.832
251.819
250.592
250.857
251.384
251.402
251.427
251.462
251.509
251.571
251.649
251.744
251.861
251.358
251.366
250.444
250.423
250.313
250.773
250.522
250.864
250.726
250.455
250.863
250.673
250.396
250.614
250.351
250.549
250.325
250.481
250.323
250.412
250.361
250.345
250.455
250.284
251.15
250.234
250.202
250.776
251.156
251.175
250.806
250.714
250.831
251.355
251.353
251.353
251.354
251.356
251.357
251.357
251.357
251.355
251.353
251.35
251.347
251.344
251.342
251.341
251.342
251.347
251.356
251.371
251.394
251.425
251.469
251.527
251.601
251.692
251.804
244.847
251.034
251.063
251.085
251.106
251.126
251.145
251.162
251.18
251.199
251.219
251.24
251.26
251.282
251.303
251.325
251.349
251.373
251.396
251.42
251.444
251.467
251.49
251.513
251.535
251.557
251.579
251.6
251.621
251.641
251.66
251.679
251.698
251.716
251.733
251.75
251.766
251.781
251.796
251.811
251.825
251.838
251.851
251.864
251.876
251.887
251.898
251.909
251.919
251.929
251.938
251.947
251.956
251.965
251.973
251.981
251.989
251.996
252.004
252.011
252.018
252.024
252.031
252.037
252.043
252.049
252.054
252.06
252.065
252.069
252.074
252.078
252.082
252.086
252.089
252.092
252.095
252.097
252.099
252.1
252.101
252.102
252.101
252.101
252.1
252.098
252.095
252.092
252.088
252.083
252.078
252.071
252.064
252.056
252.047
252.037
252.026
252.015
252.002
251.988
251.973
251.957
251.939
250.646
250.829
251.155
251.171
251.187
251.194
251.22
251.257
251.298
251.334
251.369
251.398
251.427
251.449
251.477
251.503
251.529
251.553
251.577
251.599
251.624
251.646
251.67
251.692
251.714
251.735
251.756
251.776
251.795
251.814
251.832
251.849
251.866
251.882
251.897
251.912
251.926
251.939
251.952
251.963
251.974
251.984
251.994
252.004
252.013
252.021
252.03
252.038
252.046
252.054
252.061
252.068
252.074
252.081
252.087
252.093
252.098
252.104
252.109
252.114
252.118
252.123
252.127
252.131
252.135
252.138
252.142
252.144
252.147
252.149
252.15
252.152
252.153
252.153
252.153
252.152
252.151
252.149
252.147
252.144
252.14
252.136
252.131
252.125
252.118
252.111
252.102
252.093
252.083
252.072
252.06
252.047
252.033
252.017
252.001
251.378
251.395
251.421