/*--------------------------------*- C++ -*----------------------------------*\
| =========                 |                                                 |
| \\      /  F ield         | OpenFOAM: The Open Source CFD Toolbox           |
|  \\    /   O peration     | Version:  2212                                  |
|   \\  /    A nd           | Website:  www.openfoam.com                      |
|    \\/     M anipulation  |                                                 |
\*---------------------------------------------------------------------------*/
FoamFile
{
    version     2.0;
    format      ascii;
    arch        "LSB;label=32;scalar=64";
    class       volVectorField;
    location    "0.042";
    object      UMean;
}
// * * * * * * * * * * * * * * * * * * * * * * * * * * * * * * * * * * * * * //

dimensions      [0 1 -1 0 0 0 0];

internalField   nonuniform List<vector> 
24240
(
(9.85411 0.483707 3.10745e-07)
(9.85412 0.483708 -4.97169e-07)
(9.85412 0.483708 -6.26538e-07)
(9.85412 0.483709 -9.31706e-07)
(9.85412 0.483709 -1.16579e-06)
(9.85412 0.483709 -1.40259e-06)
(9.85412 0.48371 -1.612e-06)
(9.85413 0.48371 -1.7958e-06)
(9.85413 0.483711 -1.94744e-06)
(9.85413 0.483712 -2.06113e-06)
(9.85413 0.483712 -2.13184e-06)
(9.85413 0.483713 -2.15384e-06)
(9.85413 0.483713 -2.12314e-06)
(9.85413 0.483714 -2.04164e-06)
(9.85413 0.483715 -1.91337e-06)
(9.85413 0.483715 -1.73855e-06)
(9.85413 0.483716 -1.52008e-06)
(9.85413 0.483716 -1.29628e-06)
(9.85414 0.483716 -7.89966e-07)
(9.85412 0.483716 -7.89153e-07)
(9.17319 0.501705 -9.86845e-08)
(9.17321 0.501706 -2.42199e-07)
(9.17321 0.501705 -3.30609e-07)
(9.17321 0.501705 -4.56369e-07)
(9.17321 0.501705 -5.70367e-07)
(9.1732 0.501705 -6.88213e-07)
(9.1732 0.501705 -7.98991e-07)
(9.1732 0.501704 -8.9993e-07)
(9.1732 0.501704 -9.85641e-07)
(9.1732 0.501704 -1.05098e-06)
(9.1732 0.501703 -1.09239e-06)
(9.1732 0.501703 -1.10406e-06)
(9.1732 0.501703 -1.0847e-06)
(9.1732 0.501702 -1.03321e-06)
(9.1732 0.501702 -9.5199e-07)
(9.1732 0.501701 -8.46251e-07)
(9.17319 0.501701 -7.20364e-07)
(9.17319 0.501701 -5.82743e-07)
(9.17319 0.501701 -4.18627e-07)
(9.17318 0.501699 -1.78242e-07)
(9.1721 0.178734 -2.17199e-07)
(9.17211 0.178734 -4.85051e-07)
(9.17211 0.178735 -7.75714e-07)
(9.17212 0.178735 -1.08399e-06)
(9.17212 0.178735 -1.38075e-06)
(9.17212 0.178736 -1.66755e-06)
(9.17212 0.178736 -1.93465e-06)
(9.17212 0.178737 -2.17329e-06)
(9.17212 0.178737 -2.3764e-06)
(9.17212 0.178738 -2.53439e-06)
(9.17212 0.178739 -2.63965e-06)
(9.17212 0.178739 -2.68428e-06)
(9.17212 0.17874 -2.66233e-06)
(9.17212 0.17874 -2.57138e-06)
(9.17212 0.178741 -2.41243e-06)
(9.17212 0.178742 -2.18557e-06)
(9.17213 0.178742 -1.90657e-06)
(9.17213 0.178743 -1.54448e-06)
(9.17213 0.178743 -1.08178e-06)
(9.17211 0.178743 -3.78254e-07)
(8.88431 0.179433 -2.1378e-09)
(8.88433 0.179433 -5.17399e-09)
(8.88432 0.179433 4.22468e-08)
(8.88432 0.179434 7.99542e-08)
(8.88432 0.179434 1.11171e-07)
(8.88432 0.179435 1.23658e-07)
(8.88432 0.179435 1.21719e-07)
(8.88432 0.179436 1.09833e-07)
(8.88432 0.179437 9.35943e-08)
(8.88432 0.179438 7.96527e-08)
(8.88432 0.179439 7.29433e-08)
(8.88431 0.17944 7.69208e-08)
(8.88431 0.179441 9.34333e-08)
(8.88431 0.179442 1.23486e-07)
(8.88431 0.179443 1.66306e-07)
(8.88431 0.179443 2.22117e-07)
(8.88431 0.179444 2.83759e-07)
(8.88431 0.179445 3.34393e-07)
(8.88431 0.179446 2.81204e-07)
(8.88429 0.179446 8.70081e-08)
(8.85559 0.0801917 -7.49185e-08)
(8.8556 0.0801919 -1.6552e-07)
(8.8556 0.080192 -2.48147e-07)
(8.8556 0.080192 -3.36326e-07)
(8.8556 0.0801921 -4.31703e-07)
(8.8556 0.0801922 -5.36431e-07)
(8.8556 0.0801923 -6.47052e-07)
(8.8556 0.0801924 -7.5503e-07)
(8.8556 0.0801926 -8.54751e-07)
(8.8556 0.0801927 -9.37043e-07)
(8.8556 0.0801929 -9.95187e-07)
(8.8556 0.080193 -1.02358e-06)
(8.8556 0.0801932 -1.01657e-06)
(8.8556 0.0801933 -9.7199e-07)
(8.8556 0.0801934 -8.87823e-07)
(8.8556 0.0801935 -7.60323e-07)
(8.8556 0.0801936 -5.98736e-07)
(8.8556 0.0801937 -4.05978e-07)
(8.8556 0.0801937 -2.35224e-07)
(8.85559 0.0801936 -7.52677e-08)
(8.72914 0.0718164 2.41503e-08)
(8.72915 0.0718166 7.51862e-08)
(8.72915 0.0718166 1.4736e-07)
(8.72915 0.0718167 2.12414e-07)
(8.72915 0.0718168 2.71135e-07)
(8.72915 0.0718169 3.15159e-07)
(8.72915 0.071817 3.44997e-07)
(8.72915 0.0718172 3.62913e-07)
(8.72915 0.0718174 3.71966e-07)
(8.72914 0.0718177 3.76076e-07)
(8.72914 0.0718179 3.78236e-07)
(8.72914 0.0718182 3.80576e-07)
(8.72914 0.0718185 3.84505e-07)
(8.72914 0.0718187 3.91907e-07)
(8.72914 0.071819 4.0392e-07)
(8.72913 0.0718192 4.22055e-07)
(8.72913 0.0718194 4.39987e-07)
(8.72913 0.0718195 4.36349e-07)
(8.72913 0.0718196 3.46507e-07)
(8.72912 0.0718195 1.25976e-07)
(8.7065 0.0345462 -3.11563e-08)
(8.70651 0.0345462 -8.59118e-08)
(8.70651 0.0345462 -1.40057e-07)
(8.70651 0.0345461 -1.93873e-07)
(8.70651 0.034546 -2.46467e-07)
(8.70651 0.0345459 -2.98928e-07)
(8.70651 0.0345458 -3.51189e-07)
(8.70651 0.0345457 -4.00178e-07)
(8.70651 0.0345457 -4.44655e-07)
(8.70651 0.0345456 -4.81114e-07)
(8.70651 0.0345455 -5.07366e-07)
(8.70651 0.0345454 -5.20712e-07)
(8.70651 0.0345454 -5.18189e-07)
(8.70651 0.0345453 -4.98038e-07)
(8.70651 0.0345453 -4.57609e-07)
(8.70651 0.0345452 -3.95976e-07)
(8.70651 0.0345451 -3.16945e-07)
(8.70651 0.0345449 -2.25188e-07)
(8.70651 0.0345448 -1.46109e-07)
(8.70649 0.0345446 -5.75036e-08)
(8.65879 0.0263839 7.74224e-09)
(8.6588 0.0263839 2.75524e-08)
(8.6588 0.0263838 5.73016e-08)
(8.6588 0.0263838 8.75866e-08)
(8.6588 0.0263836 1.23729e-07)
(8.6588 0.0263835 1.60807e-07)
(8.6588 0.0263833 1.97375e-07)
(8.6588 0.0263832 2.30795e-07)
(8.65879 0.026383 2.59342e-07)
(8.65879 0.0263828 2.81865e-07)
(8.65879 0.0263827 2.96814e-07)
(8.65879 0.0263825 3.04366e-07)
(8.65879 0.0263823 3.05271e-07)
(8.65879 0.0263822 3.00867e-07)
(8.65879 0.026382 2.92873e-07)
(8.65879 0.0263818 2.80158e-07)
(8.65878 0.0263816 2.59496e-07)
(8.65878 0.0263814 2.17128e-07)
(8.65878 0.0263811 1.5569e-07)
(8.65877 0.026381 5.8421e-08)
(8.65234 0.00526266 -5.22764e-08)
(8.65235 0.00526264 -1.58121e-07)
(8.65235 0.00526255 -2.69182e-07)
(8.65235 0.00526243 -3.74181e-07)
(8.65235 0.00526226 -4.65443e-07)
(8.65235 0.00526206 -5.41553e-07)
(8.65235 0.00526184 -6.04195e-07)
(8.65235 0.00526159 -6.55554e-07)
(8.65235 0.00526132 -6.98162e-07)
(8.65235 0.00526102 -7.33178e-07)
(8.65235 0.00526071 -7.61917e-07)
(8.65235 0.00526037 -7.82818e-07)
(8.65235 0.00526001 -7.92313e-07)
(8.65235 0.00525964 -7.87657e-07)
(8.65235 0.00525924 -7.65012e-07)
(8.65235 0.00525885 -7.26244e-07)
(8.65235 0.00525845 -6.62592e-07)
(8.65235 0.00525809 -5.7192e-07)
(8.65235 0.00525776 -4.14163e-07)
(8.65234 0.00525757 -1.53132e-07)
(8.65156 -0.00706346 -2.3027e-08)
(8.65157 -0.00706357 -7.14687e-08)
(8.65157 -0.00706373 -1.17253e-07)
(8.65157 -0.00706396 -1.57026e-07)
(8.65157 -0.00706425 -1.83753e-07)
(8.65157 -0.00706458 -1.98908e-07)
(8.65157 -0.00706494 -2.06548e-07)
(8.65157 -0.00706531 -2.11254e-07)
(8.65157 -0.0070657 -2.19051e-07)
(8.65157 -0.00706608 -2.32795e-07)
(8.65157 -0.00706645 -2.55238e-07)
(8.65157 -0.0070668 -2.85708e-07)
(8.65157 -0.00706713 -3.18464e-07)
(8.65157 -0.00706743 -3.49053e-07)
(8.65157 -0.0070677 -3.71028e-07)
(8.65157 -0.00706792 -3.84174e-07)
(8.65156 -0.00706811 -3.80403e-07)
(8.65156 -0.00706825 -3.67004e-07)
(8.65156 -0.00706835 -2.68215e-07)
(8.65155 -0.00706832 -8.97004e-08)
(8.66869 -0.0219133 -1.25602e-07)
(8.6687 -0.0219137 -3.70346e-07)
(8.6687 -0.0219141 -5.9852e-07)
(8.6687 -0.0219149 -8.05147e-07)
(8.6687 -0.0219158 -9.77662e-07)
(8.6687 -0.0219169 -1.11408e-06)
(8.6687 -0.0219181 -1.21619e-06)
(8.6687 -0.0219194 -1.28803e-06)
(8.6687 -0.0219208 -1.33441e-06)
(8.66871 -0.0219222 -1.36009e-06)
(8.66871 -0.0219237 -1.36759e-06)
(8.66871 -0.021925 -1.35648e-06)
(8.66871 -0.0219263 -1.32304e-06)
(8.66871 -0.0219275 -1.2654e-06)
(8.66871 -0.0219286 -1.18011e-06)
(8.66871 -0.0219295 -1.07475e-06)
(8.66871 -0.0219302 -9.36789e-07)
(8.66871 -0.0219307 -7.77791e-07)
(8.66871 -0.0219311 -4.89724e-07)
(8.66869 -0.0219312 -1.41613e-07)
(8.70195 -0.036622 -2.35738e-07)
(8.70197 -0.0366223 -6.9637e-07)
(8.70197 -0.0366226 -1.12743e-06)
(8.70197 -0.0366231 -1.51728e-06)
(8.70197 -0.0366238 -1.8498e-06)
(8.70197 -0.0366245 -2.12052e-06)
(8.70197 -0.0366254 -2.32804e-06)
(8.70198 -0.0366262 -2.47377e-06)
(8.70198 -0.0366272 -2.56212e-06)
(8.70198 -0.0366281 -2.59635e-06)
(8.70198 -0.036629 -2.57873e-06)
(8.70198 -0.0366299 -2.50988e-06)
(8.70198 -0.0366307 -2.3884e-06)
(8.70199 -0.0366315 -2.21556e-06)
(8.70199 -0.0366321 -1.99385e-06)
(8.70199 -0.0366325 -1.73997e-06)
(8.70199 -0.0366329 -1.45145e-06)
(8.70199 -0.0366331 -1.14467e-06)
(8.70199 -0.0366333 -6.77972e-07)
(8.70198 -0.0366331 -1.83555e-07)
(8.74995 -0.0564263 -2.82845e-07)
(8.74997 -0.0564266 -8.23542e-07)
(8.74997 -0.0564269 -1.30873e-06)
(8.74997 -0.0564274 -1.74996e-06)
(8.74997 -0.056428 -2.12569e-06)
(8.74997 -0.0564288 -2.42803e-06)
(8.74998 -0.0564297 -2.65807e-06)
(8.74998 -0.0564307 -2.81477e-06)
(8.74998 -0.0564318 -2.90192e-06)
(8.74998 -0.0564329 -2.92351e-06)
(8.74999 -0.056434 -2.88184e-06)
(8.74999 -0.0564351 -2.77765e-06)
(8.74999 -0.0564361 -2.611e-06)
(8.74999 -0.0564371 -2.38507e-06)
(8.74999 -0.0564379 -2.10108e-06)
(8.74999 -0.0564386 -1.78646e-06)
(8.74999 -0.0564392 -1.43811e-06)
(8.74999 -0.0564396 -1.0893e-06)
(8.74999 -0.0564398 -5.76104e-07)
(8.74998 -0.0564398 -1.17834e-07)
(8.82767 -0.0726213 -3.72952e-07)
(8.82768 -0.0726215 -1.10604e-06)
(8.82768 -0.0726216 -1.80943e-06)
(8.82768 -0.0726218 -2.45459e-06)
(8.82769 -0.072622 -3.02833e-06)
(8.82769 -0.0726223 -3.51196e-06)
(8.82769 -0.0726226 -3.8995e-06)
(8.8277 -0.0726229 -4.18714e-06)
(8.8277 -0.0726233 -4.37298e-06)
(8.8277 -0.0726236 -4.45675e-06)
(8.82771 -0.072624 -4.43465e-06)
(8.82771 -0.0726242 -4.30594e-06)
(8.82771 -0.0726245 -4.06927e-06)
(8.82771 -0.0726246 -3.73115e-06)
(8.82772 -0.0726247 -3.30188e-06)
(8.82772 -0.0726247 -2.81697e-06)
(8.82772 -0.0726246 -2.28639e-06)
(8.82772 -0.0726245 -1.7252e-06)
(8.82772 -0.0726245 -9.97097e-07)
(8.82771 -0.0726243 -2.76559e-07)
(8.90271 -0.118582 -3.18096e-07)
(8.90273 -0.118582 -9.65425e-07)
(8.90273 -0.118582 -1.55513e-06)
(8.90273 -0.118583 -2.09693e-06)
(8.90273 -0.118583 -2.5642e-06)
(8.90273 -0.118583 -2.94188e-06)
(8.90273 -0.118584 -3.22774e-06)
(8.90274 -0.118585 -3.41712e-06)
(8.90274 -0.118585 -3.51225e-06)
(8.90274 -0.118586 -3.51285e-06)
(8.90274 -0.118587 -3.42031e-06)
(8.90275 -0.118588 -3.23701e-06)
(8.90275 -0.118589 -2.96415e-06)
(8.90275 -0.11859 -2.61256e-06)
(8.90275 -0.118591 -2.19742e-06)
(8.90275 -0.118592 -1.7678e-06)
(8.90275 -0.118593 -1.34114e-06)
(8.90275 -0.118594 -9.95382e-07)
(8.90275 -0.118595 -5.49794e-07)
(8.90274 -0.118595 -1.34744e-07)
(9.07351 -0.130284 -3.94252e-07)
(9.07352 -0.130284 -1.18017e-06)
(9.07352 -0.130284 -2.03068e-06)
(9.07353 -0.130284 -2.86247e-06)
(9.07353 -0.130284 -3.64176e-06)
(9.07353 -0.130284 -4.33417e-06)
(9.07354 -0.130285 -4.93243e-06)
(9.07354 -0.130285 -5.42142e-06)
(9.07354 -0.130285 -5.79419e-06)
(9.07355 -0.130286 -6.03834e-06)
(9.07355 -0.130286 -6.14341e-06)
(9.07356 -0.130286 -6.09981e-06)
(9.07356 -0.130287 -5.90015e-06)
(9.07357 -0.130287 -5.54794e-06)
(9.07357 -0.130287 -5.05639e-06)
(9.07357 -0.130288 -4.46362e-06)
(9.07358 -0.130288 -3.81001e-06)
(9.07358 -0.130288 -3.16062e-06)
(9.07358 -0.130289 -2.24766e-06)
(9.07357 -0.130289 -8.1135e-07)
(9.15045 -0.278131 -2.38667e-07)
(9.15047 -0.278132 -8.78424e-07)
(9.15047 -0.278132 -1.56541e-06)
(9.15047 -0.278132 -2.23172e-06)
(9.15047 -0.278133 -2.81939e-06)
(9.15047 -0.278134 -3.30566e-06)
(9.15047 -0.278134 -3.69373e-06)
(9.15048 -0.278135 -3.9716e-06)
(9.15048 -0.278136 -4.14098e-06)
(9.15048 -0.278138 -4.194e-06)
(9.15048 -0.278139 -4.12946e-06)
(9.15049 -0.27814 -3.94621e-06)
(9.15049 -0.278141 -3.64884e-06)
(9.15049 -0.278143 -3.25302e-06)
(9.15049 -0.278144 -2.77817e-06)
(9.15049 -0.278145 -2.2852e-06)
(9.15049 -0.278146 -1.85421e-06)
(9.15049 -0.278147 -1.63235e-06)
(9.15049 -0.278148 -1.10701e-06)
(9.15048 -0.278148 -3.44445e-07)
(9.55332 -0.269528 -5.53979e-07)
(9.55334 -0.269528 -1.49532e-06)
(9.55334 -0.269528 -2.55232e-06)
(9.55334 -0.269528 -3.62935e-06)
(9.55334 -0.269528 -4.65581e-06)
(9.55335 -0.269528 -5.59766e-06)
(9.55335 -0.269527 -6.43453e-06)
(9.55336 -0.269527 -7.14263e-06)
(9.55336 -0.269527 -7.70688e-06)
(9.55337 -0.269527 -8.1058e-06)
(9.55338 -0.269526 -8.32563e-06)
(9.55338 -0.269526 -8.3524e-06)
(9.55339 -0.269526 -8.1789e-06)
(9.55339 -0.269526 -7.80385e-06)
(9.5534 -0.269526 -7.22773e-06)
(9.5534 -0.269526 -6.46026e-06)
(9.55341 -0.269525 -5.52446e-06)
(9.55341 -0.269525 -4.44074e-06)
(9.55342 -0.269525 -3.06673e-06)
(9.5534 -0.269524 -1.07722e-06)
(9.56047 -0.764995 -3.13331e-07)
(9.56048 -0.764997 -9.42955e-07)
(9.56048 -0.764997 -1.43346e-06)
(9.56048 -0.764996 -1.96752e-06)
(9.56049 -0.764996 -2.46164e-06)
(9.56049 -0.764995 -2.89966e-06)
(9.56049 -0.764994 -3.26479e-06)
(9.56049 -0.764993 -3.54216e-06)
(9.56049 -0.764991 -3.72794e-06)
(9.56049 -0.76499 -3.81348e-06)
(9.56049 -0.764989 -3.79576e-06)
(9.5605 -0.764987 -3.67244e-06)
(9.5605 -0.764986 -3.44879e-06)
(9.5605 -0.764984 -3.13329e-06)
(9.5605 -0.764983 -2.72529e-06)
(9.5605 -0.764981 -2.24282e-06)
(9.5605 -0.76498 -1.69538e-06)
(9.5605 -0.764979 -1.20246e-06)
(9.5605 -0.764978 -4.55061e-07)
(9.56048 -0.764976 -8.54789e-09)
(10.549 -0.731044 5.04288e-07)
(10.5491 -0.731046 -1.34898e-06)
(10.5491 -0.731046 -1.97552e-06)
(10.5491 -0.731047 -2.86118e-06)
(10.5491 -0.731047 -3.61958e-06)
(10.5491 -0.731048 -4.33087e-06)
(10.5491 -0.731049 -4.94681e-06)
(10.5491 -0.73105 -5.45744e-06)
(10.5491 -0.731051 -5.84898e-06)
(10.5491 -0.731053 -6.10804e-06)
(10.5491 -0.731054 -6.22476e-06)
(10.5491 -0.731056 -6.1903e-06)
(10.5491 -0.731058 -6.00497e-06)
(10.5491 -0.731059 -5.67346e-06)
(10.5491 -0.731061 -5.19249e-06)
(10.5491 -0.731062 -4.579e-06)
(10.5491 -0.731064 -3.82555e-06)
(10.5491 -0.731065 -3.05118e-06)
(10.5491 -0.731066 -1.8139e-06)
(10.5491 -0.731065 -1.58647e-06)
(8.95708 0.558117 6.869e-08)
(8.95709 0.558119 -8.55615e-07)
(8.95709 0.55812 -1.28421e-06)
(8.95709 0.558121 -1.82982e-06)
(8.95709 0.558123 -2.29664e-06)
(8.95709 0.558125 -2.73747e-06)
(8.95709 0.558128 -3.1274e-06)
(8.95709 0.558131 -3.46147e-06)
(8.95709 0.558134 -3.72635e-06)
(8.95709 0.558138 -3.91835e-06)
(8.95709 0.558141 -4.02569e-06)
(8.95709 0.558145 -4.04231e-06)
(8.95708 0.558148 -3.96999e-06)
(8.95708 0.558152 -3.80341e-06)
(8.95708 0.558155 -3.57018e-06)
(8.95708 0.558158 -3.25902e-06)
(8.95708 0.558161 -2.95305e-06)
(8.95708 0.558163 -2.53093e-06)
(8.95708 0.558165 -1.8107e-06)
(8.95707 0.558166 -1.13718e-06)
(8.89018 0.589713 1.28708e-07)
(8.89019 0.589715 3.53559e-07)
(8.89019 0.589715 6.90631e-07)
(8.89019 0.589715 9.73656e-07)
(8.89019 0.589716 1.24603e-06)
(8.89019 0.589716 1.46561e-06)
(8.89019 0.589717 1.64155e-06)
(8.89019 0.589718 1.77229e-06)
(8.89019 0.589718 1.86426e-06)
(8.89018 0.589719 1.92089e-06)
(8.89018 0.58972 1.94676e-06)
(8.89018 0.58972 1.94425e-06)
(8.89018 0.589721 1.91216e-06)
(8.89018 0.589722 1.85343e-06)
(8.89018 0.589722 1.75894e-06)
(8.89018 0.589723 1.64387e-06)
(8.89018 0.589723 1.45834e-06)
(8.89018 0.589724 1.204e-06)
(8.89018 0.589724 8.05279e-07)
(8.89016 0.589724 2.09165e-07)
(8.91189 0.311971 -1.7748e-07)
(8.9119 0.311972 -5.15085e-07)
(8.9119 0.311972 -7.97231e-07)
(8.9119 0.311972 -1.10282e-06)
(8.9119 0.311971 -1.39813e-06)
(8.9119 0.311971 -1.69693e-06)
(8.9119 0.311971 -1.9847e-06)
(8.9119 0.311971 -2.25058e-06)
(8.9119 0.31197 -2.48159e-06)
(8.9119 0.31197 -2.66534e-06)
(8.9119 0.31197 -2.78913e-06)
(8.91189 0.311969 -2.84351e-06)
(8.91189 0.311969 -2.8232e-06)
(8.91189 0.311969 -2.72396e-06)
(8.91189 0.311968 -2.55225e-06)
(8.91189 0.311968 -2.29741e-06)
(8.91189 0.311968 -2.00709e-06)
(8.91189 0.311968 -1.60033e-06)
(8.91189 0.311968 -1.15414e-06)
(8.91187 0.311967 -5.10392e-07)
(8.76465 0.315703 1.09855e-07)
(8.76466 0.315704 2.96328e-07)
(8.76466 0.315704 5.3399e-07)
(8.76466 0.315704 7.50651e-07)
(8.76466 0.315705 9.52907e-07)
(8.76466 0.315706 1.11716e-06)
(8.76466 0.315707 1.24519e-06)
(8.76466 0.315708 1.33825e-06)
(8.76466 0.315709 1.40129e-06)
(8.76466 0.31571 1.44053e-06)
(8.76466 0.315711 1.46172e-06)
(8.76466 0.315712 1.46592e-06)
(8.76466 0.315713 1.45601e-06)
(8.76466 0.315714 1.43359e-06)
(8.76465 0.315716 1.39556e-06)
(8.76465 0.315717 1.34652e-06)
(8.76465 0.315718 1.26176e-06)
(8.76465 0.315718 1.10497e-06)
(8.76465 0.315719 7.66706e-07)
(8.76464 0.315719 2.33822e-07)
(8.76213 0.17144 -4.56594e-08)
(8.76214 0.171441 -9.33866e-08)
(8.76214 0.171441 -1.28277e-07)
(8.76214 0.171441 -1.72526e-07)
(8.76214 0.171441 -2.27283e-07)
(8.76214 0.171441 -3.01033e-07)
(8.76214 0.171441 -3.90647e-07)
(8.76214 0.171441 -4.8619e-07)
(8.76214 0.171441 -5.8094e-07)
(8.76214 0.171441 -6.65332e-07)
(8.76214 0.171441 -7.28729e-07)
(8.76214 0.171441 -7.64856e-07)
(8.76214 0.171441 -7.68751e-07)
(8.76214 0.171441 -7.35015e-07)
(8.76214 0.171441 -6.63642e-07)
(8.76214 0.171441 -5.43345e-07)
(8.76214 0.171441 -4.0661e-07)
(8.76214 0.171441 -2.41733e-07)
(8.76214 0.171441 -1.46236e-07)
(8.76212 0.171441 -7.39394e-08)
(8.66534 0.158915 1.11077e-07)
(8.66535 0.158916 3.30939e-07)
(8.66535 0.158916 5.7198e-07)
(8.66535 0.158916 7.99126e-07)
(8.66535 0.158916 1.01164e-06)
(8.66535 0.158916 1.19338e-06)
(8.66535 0.158916 1.34197e-06)
(8.66535 0.158916 1.4574e-06)
(8.66535 0.158916 1.54181e-06)
(8.66535 0.158916 1.59773e-06)
(8.66535 0.158916 1.62862e-06)
(8.66535 0.158916 1.63567e-06)
(8.66534 0.158917 1.61997e-06)
(8.66534 0.158917 1.58578e-06)
(8.66534 0.158917 1.53186e-06)
(8.66534 0.158917 1.46061e-06)
(8.66534 0.158917 1.3539e-06)
(8.66534 0.158917 1.16869e-06)
(8.66534 0.158917 8.1969e-07)
(8.66533 0.158917 2.8335e-07)
(8.65579 0.0772506 -3.18374e-08)
(8.65581 0.0772508 -7.63252e-08)
(8.65581 0.0772507 -1.16115e-07)
(8.65581 0.0772505 -1.55592e-07)
(8.65581 0.0772504 -1.93342e-07)
(8.65581 0.0772502 -2.32543e-07)
(8.65581 0.07725 -2.73675e-07)
(8.65581 0.0772498 -3.14359e-07)
(8.65581 0.0772497 -3.52872e-07)
(8.65581 0.0772496 -3.85512e-07)
(8.65581 0.0772494 -4.09499e-07)
(8.65581 0.0772493 -4.21818e-07)
(8.65581 0.0772492 -4.19218e-07)
(8.65581 0.0772491 -3.98657e-07)
(8.65581 0.0772491 -3.58476e-07)
(8.65581 0.077249 -2.95237e-07)
(8.65581 0.0772488 -2.21603e-07)
(8.65581 0.0772487 -1.38277e-07)
(8.65581 0.0772486 -8.45355e-08)
(8.65579 0.0772484 -3.79236e-08)
(8.61673 0.0603884 6.89401e-08)
(8.61674 0.0603884 2.19121e-07)
(8.61674 0.0603882 3.92744e-07)
(8.61674 0.060388 5.65601e-07)
(8.61674 0.0603876 7.42158e-07)
(8.61674 0.0603872 9.10404e-07)
(8.61674 0.0603867 1.06664e-06)
(8.61674 0.0603863 1.20382e-06)
(8.61674 0.0603858 1.31796e-06)
(8.61674 0.0603853 1.40576e-06)
(8.61674 0.0603849 1.46264e-06)
(8.61674 0.0603845 1.48908e-06)
(8.61674 0.060384 1.48497e-06)
(8.61674 0.0603836 1.45266e-06)
(8.61673 0.0603832 1.39437e-06)
(8.61673 0.0603829 1.30831e-06)
(8.61673 0.0603825 1.18391e-06)
(8.61673 0.0603822 9.92509e-07)
(8.61673 0.0603819 7.16794e-07)
(8.61672 0.0603816 2.73484e-07)
(8.61361 0.00830041 -1.08051e-07)
(8.61362 0.00830029 -3.09328e-07)
(8.61362 0.00829999 -5.04824e-07)
(8.61362 0.00829956 -6.80995e-07)
(8.61362 0.008299 -8.26983e-07)
(8.61362 0.00829833 -9.41656e-07)
(8.61362 0.00829757 -1.02626e-06)
(8.61362 0.00829674 -1.08497e-06)
(8.61362 0.00829586 -1.123e-06)
(8.61362 0.00829494 -1.14262e-06)
(8.61362 0.00829399 -1.14738e-06)
(8.61362 0.00829303 -1.13662e-06)
(8.61362 0.00829206 -1.10809e-06)
(8.61362 0.00829111 -1.0604e-06)
(8.61362 0.00829018 -9.91492e-07)
(8.61362 0.00828931 -9.04854e-07)
(8.61362 0.0082885 -7.90346e-07)
(8.61362 0.0082878 -6.52192e-07)
(8.61362 0.00828723 -4.27761e-07)
(8.61361 0.00828694 -1.34769e-07)
(8.61397 -0.0199405 -5.39086e-08)
(8.61399 -0.0199406 -1.50778e-07)
(8.61399 -0.0199409 -2.26143e-07)
(8.61399 -0.0199412 -2.80718e-07)
(8.61399 -0.0199416 -3.06022e-07)
(8.61399 -0.0199421 -3.06616e-07)
(8.61399 -0.0199427 -2.8652e-07)
(8.61399 -0.0199432 -2.55135e-07)
(8.61399 -0.0199438 -2.21711e-07)
(8.61399 -0.0199444 -1.92458e-07)
(8.61399 -0.019945 -1.72162e-07)
(8.61399 -0.0199455 -1.6116e-07)
(8.61399 -0.019946 -1.56142e-07)
(8.61399 -0.0199464 -1.51316e-07)
(8.61399 -0.0199468 -1.40672e-07)
(8.61399 -0.0199471 -1.26588e-07)
(8.61399 -0.0199473 -1.03778e-07)
(8.61399 -0.0199475 -9.42215e-08)
(8.61399 -0.0199476 -1.27822e-08)
(8.61397 -0.0199475 3.41551e-08)
(8.63078 -0.0579367 -2.14347e-07)
(8.6308 -0.0579372 -6.24896e-07)
(8.6308 -0.057938 -1.00398e-06)
(8.6308 -0.0579391 -1.33749e-06)
(8.6308 -0.0579405 -1.60867e-06)
(8.6308 -0.0579422 -1.81742e-06)
(8.6308 -0.0579442 -1.96308e-06)
(8.6308 -0.0579463 -2.05392e-06)
(8.6308 -0.0579485 -2.09763e-06)
(8.6308 -0.0579508 -2.10072e-06)
(8.6308 -0.0579531 -2.06835e-06)
(8.6308 -0.0579553 -2.0023e-06)
(8.6308 -0.0579574 -1.90092e-06)
(8.6308 -0.0579594 -1.76171e-06)
(8.6308 -0.0579611 -1.58342e-06)
(8.6308 -0.0579626 -1.37703e-06)
(8.6308 -0.0579638 -1.12918e-06)
(8.6308 -0.0579647 -8.71157e-07)
(8.6308 -0.0579654 -4.72628e-07)
(8.63079 -0.0579655 -9.78781e-08)
(8.66155 -0.0928004 -3.87624e-07)
(8.66157 -0.0928008 -1.13204e-06)
(8.66157 -0.0928013 -1.82132e-06)
(8.66157 -0.092802 -2.44059e-06)
(8.66157 -0.0928029 -2.96498e-06)
(8.66157 -0.0928039 -3.38621e-06)
(8.66157 -0.0928051 -3.70033e-06)
(8.66157 -0.0928064 -3.90954e-06)
(8.66157 -0.0928077 -4.02116e-06)
(8.66157 -0.092809 -4.03916e-06)
(8.66157 -0.0928104 -3.96924e-06)
(8.66157 -0.0928116 -3.81385e-06)
(8.66157 -0.0928128 -3.5754e-06)
(8.66157 -0.0928138 -3.25779e-06)
(8.66157 -0.0928147 -2.86837e-06)
(8.66157 -0.0928154 -2.42947e-06)
(8.66157 -0.0928159 -1.93932e-06)
(8.66157 -0.0928162 -1.44473e-06)
(8.66157 -0.0928164 -7.7733e-07)
(8.66156 -0.0928162 -1.72143e-07)
(8.70164 -0.14147 -4.24031e-07)
(8.70165 -0.141471 -1.24883e-06)
(8.70165 -0.141471 -2.0003e-06)
(8.70165 -0.141471 -2.67042e-06)
(8.70165 -0.141472 -3.23705e-06)
(8.70165 -0.141473 -3.69126e-06)
(8.70165 -0.141474 -4.02582e-06)
(8.70165 -0.141474 -4.24575e-06)
(8.70166 -0.141475 -4.35394e-06)
(8.70166 -0.141477 -4.35633e-06)
(8.70166 -0.141478 -4.25778e-06)
(8.70166 -0.141479 -4.06197e-06)
(8.70166 -0.14148 -3.77182e-06)
(8.70166 -0.141481 -3.39215e-06)
(8.70166 -0.141482 -2.93398e-06)
(8.70166 -0.141483 -2.42337e-06)
(8.70166 -0.141483 -1.87116e-06)
(8.70166 -0.141484 -1.33565e-06)
(8.70166 -0.141484 -6.4553e-07)
(8.70164 -0.141484 -1.09279e-07)
(8.77059 -0.17455 -5.16348e-07)
(8.7706 -0.174551 -1.5038e-06)
(8.7706 -0.174551 -2.44004e-06)
(8.7706 -0.174551 -3.30187e-06)
(8.7706 -0.174551 -4.06201e-06)
(8.7706 -0.174551 -4.70286e-06)
(8.7706 -0.174551 -5.21532e-06)
(8.7706 -0.174551 -5.59306e-06)
(8.7706 -0.174551 -5.83512e-06)
(8.7706 -0.174551 -5.93951e-06)
(8.7706 -0.174551 -5.90537e-06)
(8.77061 -0.174551 -5.7315e-06)
(8.77061 -0.174551 -5.41788e-06)
(8.77061 -0.174551 -4.96852e-06)
(8.77061 -0.174551 -4.39591e-06)
(8.77061 -0.174551 -3.73224e-06)
(8.77061 -0.174551 -2.98404e-06)
(8.77061 -0.174551 -2.2151e-06)
(8.77061 -0.17455 -1.26727e-06)
(8.77059 -0.17455 -3.40755e-07)
(8.82292 -0.268871 -4.26395e-07)
(8.82293 -0.268872 -1.29114e-06)
(8.82293 -0.268872 -2.05581e-06)
(8.82293 -0.268873 -2.74824e-06)
(8.82293 -0.268873 -3.34072e-06)
(8.82293 -0.268874 -3.81933e-06)
(8.82293 -0.268875 -4.17624e-06)
(8.82293 -0.268876 -4.4076e-06)
(8.82294 -0.268878 -4.51458e-06)
(8.82294 -0.268879 -4.49851e-06)
(8.82294 -0.268881 -4.36372e-06)
(8.82294 -0.268883 -4.11421e-06)
(8.82294 -0.268884 -3.755e-06)
(8.82294 -0.268886 -3.29672e-06)
(8.82294 -0.268888 -2.76236e-06)
(8.82294 -0.268889 -2.18754e-06)
(8.82294 -0.26889 -1.60686e-06)
(8.82294 -0.268892 -1.10209e-06)
(8.82294 -0.268893 -5.16142e-07)
(8.82292 -0.268893 -9.70007e-08)
(8.95308 -0.285855 -6.19244e-07)
(8.95309 -0.285856 -1.84382e-06)
(8.95309 -0.285856 -3.07759e-06)
(8.95309 -0.285856 -4.2601e-06)
(8.95309 -0.285855 -5.35736e-06)
(8.95309 -0.285855 -6.33211e-06)
(8.95309 -0.285855 -7.16292e-06)
(8.9531 -0.285855 -7.83095e-06)
(8.9531 -0.285854 -8.32345e-06)
(8.9531 -0.285854 -8.62697e-06)
(8.9531 -0.285854 -8.73271e-06)
(8.9531 -0.285854 -8.6328e-06)
(8.9531 -0.285853 -8.32486e-06)
(8.9531 -0.285853 -7.81358e-06)
(8.9531 -0.285853 -7.11533e-06)
(8.9531 -0.285852 -6.2608e-06)
(8.9531 -0.285852 -5.27141e-06)
(8.9531 -0.285852 -4.18192e-06)
(8.9531 -0.285852 -2.76467e-06)
(8.95309 -0.285851 -9.43696e-07)
(8.99026 -0.487954 -3.3399e-07)
(8.99027 -0.487955 -1.1199e-06)
(8.99027 -0.487955 -1.8082e-06)
(8.99028 -0.487956 -2.44779e-06)
(8.99028 -0.487957 -3.00171e-06)
(8.99028 -0.487958 -3.45509e-06)
(8.99028 -0.487959 -3.79387e-06)
(8.99028 -0.487961 -4.0109e-06)
(8.99028 -0.487962 -4.10453e-06)
(8.99028 -0.487964 -4.07364e-06)
(8.99028 -0.487966 -3.92679e-06)
(8.99028 -0.487968 -3.66716e-06)
(8.99028 -0.487971 -3.30905e-06)
(8.99028 -0.487973 -2.86911e-06)
(8.99028 -0.487975 -2.37682e-06)
(8.99028 -0.487977 -1.87416e-06)
(8.99028 -0.487978 -1.39894e-06)
(8.99028 -0.48798 -9.95488e-07)
(8.99028 -0.487981 -5.01348e-07)
(8.99026 -0.487981 -1.42197e-07)
(9.18325 -0.467133 -7.57109e-07)
(9.18327 -0.467134 -2.35225e-06)
(9.18327 -0.467134 -3.95551e-06)
(9.18327 -0.467133 -5.55656e-06)
(9.18327 -0.467132 -7.06682e-06)
(9.18327 -0.467131 -8.43985e-06)
(9.18327 -0.467129 -9.6414e-06)
(9.18328 -0.467128 -1.06418e-05)
(9.18328 -0.467126 -1.14166e-05)
(9.18328 -0.467124 -1.1942e-05)
(9.18328 -0.467122 -1.22039e-05)
(9.18328 -0.46712 -1.21916e-05)
(9.18328 -0.467118 -1.18986e-05)
(9.18328 -0.467116 -1.13254e-05)
(9.18328 -0.467114 -1.04803e-05)
(9.18328 -0.467113 -9.37336e-06)
(9.18328 -0.467111 -8.03581e-06)
(9.18328 -0.467109 -6.42895e-06)
(9.18329 -0.467108 -4.36455e-06)
(9.18327 -0.467106 -1.62024e-06)
(9.16386 -0.875521 -1.604e-07)
(9.16387 -0.875523 -6.09547e-07)
(9.16387 -0.875523 -8.77375e-07)
(9.16387 -0.875523 -1.12965e-06)
(9.16387 -0.875523 -1.30386e-06)
(9.16387 -0.875523 -1.4053e-06)
(9.16387 -0.875524 -1.42132e-06)
(9.16387 -0.875524 -1.35261e-06)
(9.16388 -0.875524 -1.20188e-06)
(9.16388 -0.875524 -9.73131e-07)
(9.16388 -0.875524 -6.83606e-07)
(9.16388 -0.875525 -3.46538e-07)
(9.16388 -0.875525 2.24884e-08)
(9.16388 -0.875525 4.04518e-07)
(9.16388 -0.875526 7.78509e-07)
(9.16388 -0.875526 1.11824e-06)
(9.16388 -0.875526 1.3759e-06)
(9.16388 -0.875527 1.4336e-06)
(9.16388 -0.875527 1.69286e-06)
(9.16386 -0.875525 9.12029e-07)
(9.22073 -0.79871 -3.35879e-07)
(9.22075 -0.798712 -2.49222e-06)
(9.22075 -0.798714 -4.05773e-06)
(9.22075 -0.798716 -5.75272e-06)
(9.22075 -0.79872 -7.31968e-06)
(9.22075 -0.798724 -8.75624e-06)
(9.22075 -0.798729 -1.00191e-05)
(9.22075 -0.798734 -1.10819e-05)
(9.22075 -0.79874 -1.19087e-05)
(9.22075 -0.798747 -1.24717e-05)
(9.22075 -0.798754 -1.2763e-05)
(9.22075 -0.798762 -1.27848e-05)
(9.22075 -0.798769 -1.25202e-05)
(9.22075 -0.798777 -1.19677e-05)
(9.22076 -0.798784 -1.11412e-05)
(9.22076 -0.798791 -1.00423e-05)
(9.22076 -0.798798 -8.70432e-06)
(9.22076 -0.798804 -7.01028e-06)
(9.22076 -0.798808 -4.78424e-06)
(9.22074 -0.79881 -2.34178e-06)
(8.89576 0.664583 -1.01049e-07)
(8.89577 0.664584 -4.48604e-07)
(8.89577 0.664584 -5.52292e-07)
(8.89577 0.664585 -7.7814e-07)
(8.89577 0.664586 -9.623e-07)
(8.89577 0.664587 -1.16423e-06)
(8.89577 0.664588 -1.35754e-06)
(8.89577 0.664589 -1.54117e-06)
(8.89576 0.664591 -1.69916e-06)
(8.89576 0.664592 -1.8245e-06)
(8.89576 0.664594 -1.90717e-06)
(8.89576 0.664595 -1.94259e-06)
(8.89576 0.664597 -1.92904e-06)
(8.89575 0.664599 -1.86631e-06)
(8.89575 0.6646 -1.78091e-06)
(8.89575 0.664602 -1.65907e-06)
(8.89575 0.664603 -1.61742e-06)
(8.89575 0.664604 -1.47348e-06)
(8.89575 0.664605 -1.11251e-06)
(8.89573 0.664605 -6.14751e-07)
(8.75898 0.700796 8.72934e-09)
(8.759 0.700798 1.38668e-07)
(8.759 0.700798 3.27403e-07)
(8.759 0.700798 4.78706e-07)
(8.759 0.700798 6.23359e-07)
(8.759 0.700798 7.2761e-07)
(8.759 0.700798 8.01959e-07)
(8.759 0.700798 8.47796e-07)
(8.759 0.700798 8.73157e-07)
(8.759 0.700798 8.83745e-07)
(8.759 0.700798 8.86369e-07)
(8.759 0.700799 8.83636e-07)
(8.759 0.700799 8.75563e-07)
(8.759 0.700799 8.61837e-07)
(8.759 0.700799 8.28656e-07)
(8.759 0.700799 7.78003e-07)
(8.759 0.700799 6.55468e-07)
(8.759 0.700799 4.86189e-07)
(8.759 0.7008 1.97859e-07)
(8.75898 0.700799 -1.22865e-08)
(8.79044 0.397101 -1.77014e-07)
(8.79045 0.397102 -3.35283e-07)
(8.79045 0.397102 -4.55291e-07)
(8.79045 0.397103 -6.03656e-07)
(8.79045 0.397103 -7.57443e-07)
(8.79045 0.397104 -9.37641e-07)
(8.79045 0.397104 -1.12808e-06)
(8.79045 0.397104 -1.31814e-06)
(8.79045 0.397105 -1.49253e-06)
(8.79045 0.397106 -1.63825e-06)
(8.79044 0.397106 -1.74067e-06)
(8.79044 0.397107 -1.79159e-06)
(8.79044 0.397107 -1.78622e-06)
(8.79044 0.397108 -1.72077e-06)
(8.79044 0.397108 -1.60427e-06)
(8.79044 0.397109 -1.41557e-06)
(8.79044 0.39711 -1.22075e-06)
(8.79044 0.39711 -9.47628e-07)
(8.79044 0.397111 -7.11865e-07)
(8.79042 0.39711 -3.1169e-07)
(8.66843 0.403127 1.30439e-07)
(8.66844 0.403128 4.1034e-07)
(8.66844 0.403128 7.25354e-07)
(8.66844 0.403129 1.01927e-06)
(8.66844 0.403129 1.28674e-06)
(8.66844 0.40313 1.50506e-06)
(8.66844 0.40313 1.6739e-06)
(8.66844 0.403131 1.79603e-06)
(8.66844 0.403132 1.87671e-06)
(8.66844 0.403133 1.92322e-06)
(8.66844 0.403134 1.94296e-06)
(8.66844 0.403135 1.93733e-06)
(8.66844 0.403136 1.90885e-06)
(8.66844 0.403136 1.86082e-06)
(8.66844 0.403137 1.79364e-06)
(8.66844 0.403138 1.71295e-06)
(8.66844 0.403139 1.59394e-06)
(8.66844 0.403139 1.39468e-06)
(8.66844 0.40314 9.53245e-07)
(8.66842 0.40314 3.06492e-07)
(8.67573 0.226184 -9.45359e-09)
(8.67574 0.226185 4.11691e-08)
(8.67574 0.226185 1.01694e-07)
(8.67574 0.226185 1.4995e-07)
(8.67574 0.226185 1.77542e-07)
(8.67574 0.226185 1.72599e-07)
(8.67574 0.226185 1.37965e-07)
(8.67574 0.226185 8.19615e-08)
(8.67574 0.226185 1.35292e-08)
(8.67574 0.226185 -5.62908e-08)
(8.67574 0.226185 -1.17617e-07)
(8.67574 0.226186 -1.63053e-07)
(8.67574 0.226186 -1.86427e-07)
(8.67574 0.226186 -1.79789e-07)
(8.67574 0.226186 -1.44314e-07)
(8.67574 0.226186 -5.96399e-08)
(8.67574 0.226186 2.71124e-08)
(8.67574 0.226186 1.22972e-07)
(8.67574 0.226186 9.69542e-08)