/*--------------------------------*- C++ -*----------------------------------*\
| =========                 |                                                 |
| \\      /  F ield         | OpenFOAM: The Open Source CFD Toolbox           |
|  \\    /   O peration     | Version:  2212                                  |
|   \\  /    A nd           | Website:  www.openfoam.com                      |
|    \\/     M anipulation  |                                                 |
\*---------------------------------------------------------------------------*/
FoamFile
{
    version     2.0;
    format      ascii;
    arch        "LSB;label=32;scalar=64";
    class       volVectorField;
    location    "0.0227";
    object      U;
}
// * * * * * * * * * * * * * * * * * * * * * * * * * * * * * * * * * * * * * //

dimensions      [0 1 -1 0 0 0 0];

internalField   nonuniform List<vector> 
2308
(
(-0.512352 7.21419 -1.01441e-15)
(-3.09248 -5.53572 0)
(4.8396 1.04326 7.20765e-17)
(0.448533 5.22717 -3.56626e-16)
(0.700515 6.04405 0)
(1.12772 5.70004 2.65408e-19)
(-0.555975 5.95532 2.00072e-20)
(-0.536302 5.61044 -4.93418e-16)
(0.397131 6.33987 8.98362e-16)
(1.57461 10.2834 -1.18833e-16)
(1.06224 10.3939 2.12053e-16)
(0.877155 10.2463 -3.11703e-16)
(0.510145 9.74183 1.54218e-16)
(0.319392 9.03828 -7.80364e-17)
(0.252793 8.28353 1.33096e-17)
(0.256302 7.61339 1.1056e-16)
(0.288976 7.07327 1.47597e-17)
(0.0270528 6.77687 3.41952e-17)
(-0.0349725 7.13579 4.6058e-17)
(0.0271144 7.63498 3.40786e-18)
(0.143618 8.24918 2.59617e-17)
(0.364581 8.92998 -7.58944e-17)
(0.678178 9.56731 9.74832e-17)
(0.998226 9.94076 -4.48735e-17)
(1.70356 10.1238 -1.92993e-16)
(2.1153 10.0092 -9.19213e-17)
(2.2452 9.79495 4.69144e-17)
(2.45054 10.0981 -5.16034e-17)
(-0.114752 6.01131 0)
(0.329947 6.69285 -3.15814e-16)
(2.35213 10.3903 2.7521e-18)
(2.13141 10.9327 7.04775e-19)
(1.88711 11.4557 -1.20361e-17)
(1.73335 11.6715 1.13681e-17)
(1.75889 11.4125 -1.207e-17)
(1.95288 10.6335 1.13624e-17)
(2.39236 9.21178 -5.71248e-18)
(3.01498 7.32465 5.67069e-18)
(3.65461 5.5906 -5.69853e-18)
(4.19788 4.67898 2.81442e-18)
(4.59758 5.05102 5.66688e-18)
(4.91261 6.74315 8.5154e-18)
(5.29405 9.45624 -1.70926e-17)
(5.87354 12.9252 1.14416e-17)
(6.75733 16.936 5.69408e-18)
(5.48764 17.8445 -5.74842e-18)
(5.01205 13.5505 5.69215e-18)
(4.74036 9.8641 -8.5632e-18)
(4.566 7.05621 -9.27016e-18)
(4.34168 5.41447 1.42208e-17)
(3.94725 5.18532 -2.84927e-18)
(3.3861 6.21101 5.68823e-18)
(2.75864 7.96686 1.38746e-18)
(2.19947 9.73103 -8.57807e-18)
(1.83155 10.9296 -2.84938e-18)
(1.67095 11.5065 5.69814e-18)
(1.65916 11.5977 0)
(1.78046 11.2659 -7.12051e-19)
(1.94003 10.74 -2.33972e-17)
(2.00975 10.2931 -8.05197e-17)
(1.91978 10.0481 9.48179e-17)
(1.61763 10.4309 9.84324e-17)
(1.14331 10.5543 1.12662e-16)
(0.797961 10.8128 1.65854e-19)
(0.453285 10.771 1.26218e-16)
(0.299855 10.3831 -2.34005e-16)
(0.331277 9.73276 -5.37051e-17)
(0.382163 8.9262 0)
(0.467666 8.12558 0)
(0.565882 7.45037 0)
(0.645574 6.92179 0)
(7.94474 21.028 -2.86458e-18)
(6.22782 22.1838 2.87321e-18)
(-0.1728 7.08984 -1.5873e-16)
(-0.105618 7.49789 -3.20899e-18)
(0.135326 8.01785 1.25684e-17)
(0.501566 8.58801 0)
(0.993322 9.1099 -2.41322e-17)
(1.54322 9.45317 -2.35045e-17)
(2.08331 9.61514 1.18387e-17)
(2.51258 9.60876 4.73966e-17)
(2.73008 9.69047 0)
(2.74354 10.0844 3.3949e-20)
(2.57501 10.6113 8.76828e-20)
(2.30034 11.2172 -1.13608e-17)
(2.04449 11.6735 1.7064e-17)
(1.91722 11.732 2.96867e-22)
(1.97661 11.2885 -9.94432e-18)
(2.21009 10.2891 0)
(2.6819 8.65338 -1.42482e-18)
(3.27762 6.68895 8.5606e-18)
(3.84069 5.01625 -1.13732e-17)
(4.29563 4.22063 -2.05656e-20)
(4.66581 4.66105 1.13619e-17)
(5.07101 6.28711 0)
(5.65149 8.79499 1.13909e-17)
(6.50207 11.9551 -1.13983e-20)
(7.69388 15.6321 -5.72771e-18)
(0.0967646 6.53456 -1.3532e-16)
(9.19335 19.4876 -5.70897e-18)
(0.365539 6.47211 1.38005e-16)
(0.678935 6.56989 6.78348e-20)
(4.22633 22.8236 -5.76977e-18)
(4.02072 18.2718 7.16291e-18)
(3.97164 13.7809 0)
(4.00077 9.99466 -2.15967e-18)
(4.0194 7.21689 4.99459e-18)
(3.89819 5.70673 5.71068e-18)
(3.57139 5.65957 -5.73892e-18)
(3.07326 6.79618 0)
(2.53618 8.52684 -1.43199e-18)
(2.09904 10.1546 2.86945e-18)
(1.82529 11.1666 -1.96514e-21)
(1.69282 11.585 -2.86636e-18)
(1.66573 11.5557 0)
(1.70473 11.1705 4.31287e-18)
(1.71176 10.6903 -1.71293e-17)
(1.60664 10.3718 -1.14677e-17)
(1.35616 10.354 4.66123e-17)
(0.974053 10.639 1.7302e-16)
(0.551131 10.8968 1.30248e-17)
(0.230066 11.0103 1.23992e-16)
(0.089849 10.8066 -5.60887e-17)
(0.143981 10.2909 0)
(0.321059 9.51806 0)
(0.553588 8.64802 0)
(0.76338 7.85284 1.85811e-16)
(0.929072 7.21293 -2.15763e-16)
(1.0264 6.7488 2.19828e-16)
(-1.07858 5.37295 -3.96047e-16)
(1.29206 5.50097 0)
(1.1166 5.87595 0)
(1.18128 5.71032 0)
(-0.514178 6.70097 3.16719e-16)
(-0.489515 6.87001 8.96031e-17)
(-0.196092 7.20885 2.87866e-20)
(0.216446 7.63602 -1.52309e-18)
(0.724282 8.09623 1.51369e-18)
(1.32158 8.54734 1.19757e-17)
(1.92566 8.89418 -2.36943e-17)
(2.46663 9.12118 1.16943e-20)
(2.81439 9.3224 0)
(2.94165 9.64167 5.23581e-17)
(2.88099 10.1842 3.44192e-17)
(2.67838 10.8482 -5.68255e-18)
(2.42645 11.4793 5.7011e-18)
(2.23283 11.8477 0)
(2.18405 11.7384 0)
(2.29773 11.1176 -7.12817e-19)
(2.5618 9.92029 0)
(3.00345 8.1335 4.28093e-18)
(3.48584 6.15322 1.0366e-20)
(3.90947 4.55974 -2.84409e-18)
(4.25305 3.8369 0)
(4.59806 4.2453 -2.84949e-18)
(5.07316 5.70582 4.27807e-18)
(5.79949 7.9387 -7.13897e-18)
(6.82706 10.7593 0)
(8.195 14.1014 -1.14325e-17)
(9.84264 17.7254 2.85167e-18)
(11.665 21.3013 -1.42185e-20)
(10.8541 23.0912 0)
(9.30549 24.6435 -1.43184e-18)
(7.15629 25.8481 -4.6681e-18)
(-0.314563 5.81989 4.30933e-16)
(4.61718 26.5954 3.59987e-19)
(-1.60988 5.37742 -1.24298e-15)
(-2.19871 4.60697 -2.86084e-16)
(0.681892 6.40204 0)
(-0.768339 6.54504 4.12038e-16)
(0.402075 5.9217 -8.62049e-16)
(0.0555648 6.41689 5.66497e-17)
(1.04464 6.45579 -3.32557e-16)
(13.4496 24.3047 -2.87577e-18)
(12.4006 25.8208 -2.872e-18)
(10.5586 27.0894 -3.5913e-19)
(8.06417 28.1229 5.74366e-18)
(5.11232 28.8482 3.60427e-19)
(1.99364 29.2106 0)
(1.91731 26.8199 2.88717e-18)
(2.09085 22.8809 5.78977e-18)
(2.40994 18.2045 -1.3988e-18)
(2.77919 13.6376 -5.74129e-18)
(3.09528 9.87298 -6.48205e-18)
(3.31261 7.20634 8.61662e-18)
(3.31761 5.8821 2.87245e-18)
(3.1009 6.03001 -5.76493e-18)
(2.71475 7.26452 4.33015e-18)
(2.31146 8.95325 -1.2663e-18)
(2.02296 10.4549 0)
(1.84646 11.3391 0)
(1.73619 11.663 0)
(1.68006 11.582 5.78552e-18)
(1.60595 11.2195 -2.89254e-18)
(1.43964 10.837 1.49992e-20)
(1.14271 10.6472 -2.33498e-17)
(0.739127 10.7197 0)
(0.309936 10.9537 -2.4538e-17)
(-0.0434347 11.1382 2.53753e-17)
(-0.226671 11.1015 5.2221e-17)
(-0.196657 10.7162 2.66953e-17)
(0.0421464 10.0112 1.06559e-16)
(0.397646 9.11882 -1.05332e-16)
(0.769177 8.23382 0)
(1.07204 7.49867 2.61308e-17)
(1.28235 6.95147 -5.25388e-17)
(1.36887 6.59462 -1.06474e-16)
(-0.599516 6.4262 5.11705e-17)
(0.788554 9.864 0)
(0.924889 5.82994 -1.83179e-19)
(-1.1554 5.47399 5.47346e-16)
(-1.04131 5.61429 -1.16976e-16)
(-1.00465 5.89654 1.33027e-16)
(-0.99152 6.19853 -2.5341e-17)
(-0.975991 6.41408 4.9397e-17)
(-0.922733 6.51546 -2.42395e-17)
(-0.804312 6.57922 0)
(-0.575554 6.64062 -2.34204e-17)
(-0.188904 6.81724 -2.37525e-17)
(0.360955 7.11888 0)
(1.00126 7.49968 0)
(1.65073 7.91874 1.48908e-18)
(2.26928 8.32524 -1.33241e-17)
(2.73835 8.69879 0)
(2.99249 9.11203 0)
(3.04053 9.64132 -1.75086e-17)
(2.9318 10.3224 -1.15543e-17)
(2.73858 11.0577 2.30243e-17)
(2.55128 11.6648 5.75139e-18)
(2.4496 11.9217 1.43177e-18)
(2.48886 11.6621 5.72181e-18)
(2.64498 10.9053 -6.44109e-18)
(2.9092 9.57098 0)
(3.26985 7.71409 -2.86675e-18)
(3.59793 5.77157 0)
(3.85487 4.24698 0)
(4.07999 3.53252 0)
(4.3867 3.8197 -1.14467e-17)
(4.90468 5.04178 0)
(5.7145 6.97298 -6.43655e-18)
(6.80878 9.46465 1.07249e-18)
(8.22581 12.5043 2.25174e-17)
(9.90839 15.9011 0)
(11.7909 19.3829 -1.1445e-17)
(13.7396 22.5105 1.78279e-19)
(-0.548809 1.6878 0)
(-1.29583 6.01601 6.76019e-16)
(0.668344 -1.02615 1.08513e-15)
(-0.195086 5.20402 0)
(5.17418 -6.89366 -3.27512e-16)
(-2.14118 5.34881 1.41576e-15)
(0.996402 6.29 2.17645e-19)
(-0.191254 6.34243 1.07349e-16)
(-1.20029 29.2655 -3.62387e-19)
(-0.808689 26.553 -2.896e-18)
(-0.0919585 22.3938 2.89808e-18)
(0.75098 17.6291 0)
(1.51414 13.13 0)
(2.11566 9.48431 3.61835e-19)
(2.54367 7.00424 -1.44566e-18)
(2.68906 5.9143 -5.05176e-18)
(2.58022 6.26925 3.63069e-19)
(2.30434 7.59286 -7.45666e-19)
(2.02135 9.22677 -8.85736e-19)
(1.86327 10.6219 3.97649e-18)
(1.78256 11.4441 3.54585e-19)
(1.69038 11.7414 -2.89824e-18)
(1.60372 11.6777 0)
(1.43236 11.4071 1.16465e-17)
(1.13162 11.151 1.66358e-20)
(0.696475 11.0649 5.89431e-17)
(0.21323 11.1545 -4.7691e-17)
(-0.220531 11.2949 0)
(-0.509265 11.3047 4.98835e-17)
(-0.559925 11.0412 -1.53239e-16)
(-0.344582 10.4174 7.76901e-17)
(0.0651501 9.54249 1.03477e-16)
(0.558343 8.58537 1.49089e-19)
(1.01278 7.74345 -1.02463e-16)
(1.3673 7.11828 1.02509e-16)
(1.57973 6.71581 1.02888e-16)
(1.62645 6.50692 -1.03098e-16)
(1.35838 6.39659 -2.11258e-16)
(-0.315008 7.19916 -2.21046e-19)
(-2.63773 3.28244 -2.28864e-19)
(-1.78844 5.08991 -9.65557e-17)
(-1.60249 5.39033 -1.27825e-17)
(-1.47632 5.77735 -3.79156e-17)
(-1.39796 6.12285 -1.23763e-17)
(-1.3213 6.33038 0)
(-1.19799 6.38051 2.40254e-17)
(-0.981183 6.3305 -1.187e-17)
(-0.62213 6.26438 -1.18363e-17)
(-0.0998538 6.29028 5.91947e-18)
(0.564949 6.47788 5.94894e-18)
(1.29175 6.81953 1.19102e-17)
(1.97406 7.27303 0)
(2.55148 7.79428 1.17997e-17)
(2.93474 8.35969 -1.15838e-17)
(3.08985 8.98628 -1.83426e-19)
(3.05825 9.68849 -3.503e-17)
(2.92156 10.4619 2.89813e-18)
(2.76548 11.2041 -1.44608e-17)
(2.66254 11.7418 0)
(2.66027 11.8843 -4.66978e-18)
(2.77266 11.5204 3.55398e-19)
(2.94859 10.6788 6.47328e-18)
(3.18266 9.27438 0)
(3.42154 7.42601 0)
(3.57764 5.55625 -1.8038e-19)
(3.66356 4.07775 -5.56776e-18)
(3.77439 3.3065 5.74927e-18)
(4.03706 3.40503 7.18159e-18)
(4.54979 4.3422 -1.43302e-18)
(5.36366 5.97398 4.30068e-18)
(6.44668 8.17156 -1.42716e-18)
(7.833 10.9277 -1.14512e-17)
(9.48847 14.0887 1.14809e-17)
(11.3706 17.4181 2.57782e-17)
(13.3945 20.5384 1.14435e-17)
(15.4077 23.143 0)
(15.5291 24.8536 -5.90932e-18)
(14.8914 26.2083 -1.78205e-20)
(13.5353 27.2447 6.46452e-18)
(11.5047 28.1066 2.15693e-18)
(8.84239 28.8553 -2.8633e-18)
(5.67584 29.4968 5.74066e-18)
(2.32713 29.9796 -5.7477e-18)
(-1.15124 30.3269 -2.87738e-18)
(0.657959 -0.415413 -4.03534e-16)
(1.01118 1.8788 -9.28863e-17)
(-0.905986 1.10306 -1.62742e-16)
(-1.70866 6.15288 -6.87256e-16)
(-0.922808 8.30092 -3.40516e-16)
(0.563979 -1.56034 9.85314e-17)
(1.55802 6.40497 0)
(1.29802 6.26317 4.23175e-16)
(-0.634597 7.64268 1.00133e-15)
(-1.34475 7.1242 4.103e-16)
(0.0171633 9.84169 -4.12802e-16)
(0.641249 5.8119 8.81733e-16)
(-2.06198 4.75381 0)
(-1.94043 5.15423 1.25735e-17)
(-1.83548 5.60148 -3.10181e-18)
(-1.72982 5.97863 -5.80165e-17)
(-1.59691 6.1607 1.20577e-17)
(-1.39704 6.13589 0)
(-1.07728 5.95901 -9.27953e-22)
(-0.600049 5.74164 -2.96108e-18)
(0.0410776 5.62793 0)
(0.798208 5.73348 -5.93062e-18)
(1.57271 6.08163 -5.91922e-18)
(2.25403 6.6327 0)
(2.76523 7.32442 1.47098e-18)
(3.05005 8.10617 -1.46749e-18)
(3.11377 8.92849 1.46369e-18)
(3.02525 9.76187 2.1913e-17)
(2.88071 10.5705 0)
(2.77367 11.264 2.90068e-18)
(2.75437 11.7097 -1.44875e-18)
(2.83573 11.7527 3.61385e-19)
(2.99475 11.3259 1.08514e-18)
(3.16705 10.4478 -6.51466e-18)
(3.3412 9.05199 0)
(3.43404 7.27937 1.44497e-18)
(3.41081 5.49865 2.89651e-18)
(3.34303 4.02837 2.90134e-18)
(3.34546 3.14363 -3.75217e-21)
(3.5436 3.01337 -1.44049e-18)
(4.00572 3.66297 -4.31617e-18)
(4.75617 5.01021 -2.87679e-18)
(5.77953 6.93148 -2.87463e-18)
(7.09236 9.40344 0)
(8.68936 12.3141 -1.1485e-17)
(10.5311 15.4506 -1.14707e-17)
(12.573 18.4868 -8.59685e-18)
(14.6989 21.2209 -1.57514e-17)
(16.6836 23.0973 7.16666e-18)
(17.1342 24.6325 -5.72132e-18)
(16.8266 25.8575 0)
(15.776 26.7072 2.87043e-18)
(14.1716 27.2233 2.87304e-18)
(12.0395 27.5812 -5.7171e-18)
(9.35841 28.0221 5.76291e-18)
(6.19609 28.6443 2.08956e-20)
(2.82036 29.3637 -2.89291e-18)
(-0.76669 30.1045 8.61898e-18)
(-4.41355 30.7024 -8.70922e-18)
(-4.61149 30.4004 1.46225e-18)
(-4.29777 28.8677 -1.09131e-18)
(-3.35076 25.7122 2.18269e-18)
(-2.09272 21.3249 -7.24501e-18)
(-0.766165 16.5836 2.70614e-18)
(0.386699 12.2545 0)
(1.25936 8.82635 3.64292e-19)
(1.863 6.60837 5.07721e-18)
(2.09905 5.81693 -7.26082e-19)
(2.02613 6.39703 1.81166e-18)
(1.79849 7.80487 -2.81909e-21)
(1.57539 9.37456 7.32319e-19)
(1.47746 10.6741 -3.63265e-19)
(1.46256 11.4821 2.53568e-18)
(1.41442 11.8106 -8.71422e-18)
(1.31885 11.8114 7.55062e-22)
(1.12399 11.6687 5.84376e-18)
(0.775215 11.5464 -5.86035e-18)
(0.313127 11.5347 -4.72535e-17)
(-0.166735 11.5865 4.76853e-17)
(-0.555022 11.5887 0)
(-0.746545 11.3613 -9.84354e-17)
(-0.658477 10.829 7.45082e-17)
(-0.311607 9.96074 -7.56188e-17)
(0.206311 8.94596 0)
(0.766626 7.97802 0)
(1.24843 7.23007 0)
(1.59757 6.75936 -1.25357e-17)
(1.75677 6.54847 -5.84367e-22)
(1.74735 6.50239 1.99777e-16)
(0.183793 7.79997 -4.5064e-16)
(1.43475 6.30097 2.1177e-16)
(1.24752 6.08188 -1.994e-16)
(-0.566189 6.21316 2.53345e-17)
(-0.921645 8.04623 4.81171e-16)
(-1.62464 7.27062 4.10854e-16)
(-2.05231 6.20627 -2.12242e-19)
(-2.33973 5.20919 -4.28276e-16)
(-2.77005 2.69352 -2.98306e-16)
(-2.26877 4.49951 -2.96309e-16)
(-2.46476 4.00312 1.06992e-16)
(-2.32227 4.33253 -2.49232e-17)
(-2.20619 4.84346 -4.90711e-17)
(-2.09099 5.36359 0)
(-1.95772 5.75688 4.84422e-17)
(-1.77463 5.90045 0)
(-1.50483 5.77649 0)
(-1.09315 5.45743 1.18647e-17)
(-0.516518 5.08095 2.9594e-18)
(0.214727 4.84475 0)
(1.03148 4.90473 5.91656e-18)
(1.8192 5.31193 1.38769e-22)
(2.46638 6.01123 -1.88967e-21)
(2.89942 6.91397 5.88414e-18)
(3.09021 7.91932 6.62203e-18)
(3.07944 8.91161 -6.5997e-18)
(2.95765 9.82496 -1.20773e-17)
(2.82554 10.6175 3.65612e-19)
(2.76665 11.2308 -2.18705e-18)
(2.81017 11.573 7.29277e-19)
(2.95352 11.5326 2.90659e-18)
(3.13597 11.0879 -2.17764e-18)
(3.28345 10.2321 2.90648e-18)
(3.37205 8.91079 7.22525e-21)
(3.30976 7.26428 -7.25345e-18)
(3.12268 5.56321 2.8951e-18)
(2.91541 4.06216 2.89941e-18)
(2.81435 3.02738 -4.33907e-18)
(2.91671 2.65897 5.77485e-18)
(3.27883 3.03555 5.77982e-18)
(3.91872 4.10568 0)
(4.85241 5.75127 1.73172e-17)
(6.08513 7.93933 2.89207e-18)
(7.63948 10.5839 2.88251e-18)
(9.46732 13.5014 0)
(11.533 16.3961 0)
(13.7264 19.1689 8.57792e-18)
(15.8469 21.39 -1.41558e-20)
(17.4247 23.0309 -1.43719e-18)
(18.1683 24.1038 1.42839e-18)
(18.3428 25.0761 0)
(17.6558 25.7823 0)
(16.218 26.0563 -1.43719e-18)
(14.2583 25.8847 4.27497e-18)
(12.0752 25.6672 0)
(9.67457 25.937 -2.86954e-18)
(6.83907 26.7882 -2.87042e-18)
(3.66158 27.883 5.77922e-18)
(0.106389 29.0418 -2.8741e-18)
(-3.58046 30.05 8.63959e-18)
(-7.0711 31.1594 1.41097e-18)
(-7.91914 31.1663 1.45517e-18)
(-7.87352 30.1602 2.92203e-18)
(-7.00985 27.9517 0)
(-5.43072 24.281 -1.09137e-18)
(-3.6057 19.7273 -2.71452e-19)
(-1.84296 15.0749 1.64351e-18)
(-0.374996 11.0206 -3.56285e-19)
(0.727486 7.93191 -7.22076e-19)
(1.40189 6.08326 -5.80784e-18)
(1.59402 5.67968 1.45033e-18)
(1.41699 6.50729 -3.64212e-18)
(1.12012 7.98272 1.8266e-18)
(0.863725 9.48258 -7.28178e-19)
(0.737265 10.6665 0)
(0.731736 11.434 0)
(0.759369 11.8063 0)
(0.737853 11.8977 -2.91975e-18)
(0.618801 11.8805 0)
(0.353589 11.8858 2.07516e-21)
(-0.00512932 11.9264 2.36124e-17)
(-0.380474 11.9292 -1.19e-17)
(-0.6558 11.764 2.40015e-17)
(-0.709746 11.2833 7.30787e-17)
(-0.511397 10.4759 2.58162e-20)
(-0.0794279 9.4 -2.47301e-17)
(0.478507 8.29501 -4.93785e-17)
(1.01231 7.36715 9.79041e-17)
(1.45236 6.74822 -4.91142e-17)
(1.72639 6.46839 -8.13756e-21)
(1.80073 6.46404 2.44724e-17)
(1.71591 6.56771 -7.865e-20)
(1.63043 6.47973 -3.0495e-16)
(-0.125133 8.38578 -4.63548e-16)
(0.723427 8.32643 8.74233e-16)
(-1.64317 -3.45924 0)
(1.47842 6.39069 -2.07712e-16)
(-2.72968 4.12784 7.67589e-16)
(-2.48336 4.92708 -4.09253e-16)
(-2.20164 6.0761 -7.83593e-16)
(1.03679 6.02408 -6.65468e-17)
(-0.62418 5.69457 -6.35772e-17)
(-0.196183 6.18378 -2.5334e-17)
(1.30351 6.16602 -2.17333e-19)
(-1.13214 8.29247 -4.71074e-16)
(-1.71412 7.2415 3.9343e-16)
(18.0616 22.7916 -1.4238e-18)
(18.9119 23.0694 -1.4274e-18)
(18.9386 23.6991 0)
(17.8224 24.1349 -1.43812e-18)
(15.7158 23.9469 1.4255e-18)
(13.3647 23.2249 -1.44395e-18)
(11.4899 22.7239 1.4205e-18)
(9.84865 23.4953 2.88884e-18)
(7.64207 25.1721 -2.88383e-18)
(4.76964 27.03 5.76832e-18)
(1.23423 28.6076 -8.69223e-18)
(-2.33462 29.6824 0)
(-5.28873 30.87 1.57504e-20)
(-8.3001 33.3892 0)
(-10.7386 32.4734 -8.75533e-18)
(-11.4527 31.3335 2.91169e-18)
(-10.845 29.3412 0)
(-9.11867 26.2478 0)
(-6.78032 22.1174 7.28792e-19)
(-4.36147 17.5391 -9.10638e-20)
(-2.20451 13.1535 0)
(-0.528859 9.50191 -3.67372e-19)
(0.647054 6.88948 3.65215e-19)
(1.18379 5.57992 1.45683e-18)
(1.12934 5.64594 7.29144e-19)
(0.661952 6.72118 1.45391e-18)
(0.111531 8.21886 -1.19192e-20)
(-0.29607 9.61053 -2.92152e-18)
(-0.488686 10.6475 7.37693e-19)
(-0.475769 11.3011 2.92413e-18)
(-0.331865 11.6448 7.25759e-19)
(-0.174855 11.7989 -1.46149e-18)
(-0.096772 11.8952 2.92836e-18)
(-0.136323 12.0094 -8.8138e-18)
(-0.272485 12.1062 -1.17781e-17)
(-0.435622 12.0686 5.89601e-18)
(-0.506537 11.7453 -1.19191e-17)
(-0.401525 11.0425 0)
(-0.0883772 10.0022 -3.64124e-17)
(0.368031 8.77918 7.34599e-17)
(0.863235 7.65546 0)
(1.3023 6.8074 0)
(1.61697 6.34486 0)
(1.74218 6.26855 1.80638e-17)
(1.68549 6.45203 1.26442e-21)
(1.52098 6.66725 1.30663e-19)
(1.55609 6.60741 -1.96088e-16)
(1.18355 5.87116 -4.62021e-16)
(-0.390516 8.85264 -8.58581e-20)
(0.361562 2.03135 3.83071e-16)
(3.76578 -7.58058 0)
(-2.47048 3.85381 -2.34022e-17)
(-2.3446 4.4622 0)
(-2.21063 5.05293 0)
(-2.04987 5.44847 1.19905e-17)
(-1.82701 5.54301 -2.38463e-17)
(-1.50239 5.30337 0)
(-1.0238 4.83163 1.18773e-17)
(-0.380857 4.29895 0)
(0.399597 3.95966 -2.95671e-18)
(1.235 4.01032 2.95437e-18)
(2.00414 4.51901 -1.47528e-17)
(2.59736 5.40916 3.47278e-21)
(2.94783 6.54361 -5.88641e-18)
(3.05973 7.75986 1.17623e-17)
(2.99588 8.89073 8.80151e-18)
(2.85971 9.83941 -8.79865e-18)
(2.74836 10.5785 0)
(2.73112 11.0943 -2.67625e-21)
(2.82331 11.3345 -4.37703e-18)
(2.99967 11.235 0)
(3.18036 10.8084 0)
(3.2916 10.0264 1.45921e-18)
(3.28288 8.83791 4.37193e-18)
(3.08433 7.34069 -2.92062e-18)
(2.7583 5.70674 2.89814e-18)
(2.41821 4.15575 -5.80561e-18)
(2.18951 2.95728 -1.45245e-18)
(2.1623 2.3624 -1.16108e-17)
(2.38323 2.47142 5.78752e-18)
(2.88433 3.25157 0)
(3.71325 4.59376 -1.15748e-17)
(4.89017 6.45266 -5.7713e-18)
(6.46417 8.78625 0)
(8.40233 11.4565 5.79435e-18)
(10.6305 14.2034 3.631e-20)
(12.9949 16.9885 8.63961e-18)
(15.2838 19.5271 8.62267e-18)
(16.977 21.9017 0)
(17.4862 22.9039 -2.84781e-18)
(1.30521 8.69643 -4.31027e-16)
(0.442869 9.02962 -8.85474e-16)
(2.50837 2.60916 1.33945e-16)
(1.20332 6.04856 -1.84755e-16)
(-1.11493 8.31991 7.98177e-16)
(1.3596 6.20648 -1.35317e-20)
(-12.7307 36.3615 1.4568e-18)
(-14.9743 33.4383 7.28684e-18)
(-14.9466 30.785 -5.84657e-18)
(-13.1999 27.4321 0)
(-10.346 23.4974 0)
(-7.14977 19.1308 0)
(-4.15233 14.7654 0)
(-1.7198 10.869 1.46625e-18)
(0.0266299 7.82065 -7.27373e-19)
(0.998093 5.89857 3.65747e-19)
(1.11691 5.30525 -2.18656e-18)
(0.546755 5.92145 1.46496e-18)
(-0.351611 7.24332 7.28007e-19)
(-1.20712 8.66229 -1.10023e-18)
(-1.78494 9.79876 0)
(-2.02916 10.553 -1.6544e-21)
(-1.96472 10.984 -7.32819e-19)
(-1.67747 11.2129 7.32098e-19)
(-1.30108 11.3712 1.46497e-18)
(-0.952569 11.545 -1.649e-18)
(-0.686065 11.7607 1.64804e-18)
(-0.507492 11.9296 -4.40572e-18)
(-0.36123 11.873 -8.85216e-18)
(-0.158166 11.4384 5.93056e-18)
(0.148045 10.5811 0)
(0.544648 9.40995 -9.92592e-21)
(0.972793 8.15271 -3.63157e-17)
(1.35032 7.06684 3.01144e-17)
(1.61219 6.34165 -6.03408e-18)
(1.71959 6.04935 0)
(1.65182 6.16609 -5.96377e-18)
(1.4482 6.48627 8.22069e-17)
(1.21944 6.74695 -4.57646e-17)
(1.33795 6.71055 1.85673e-16)
(1.30235 5.6943 9.46555e-16)
(-0.620456 9.10961 -2.2419e-20)
(15.5556 23.8623 -7.14351e-19)
(17.5295 22.5861 4.27511e-18)
(19.2173 22.1701 7.1639e-19)
(19.4625 22.4786 0)
(17.798 22.6929 -1.44042e-18)
(14.9984 22.2261 1.42864e-18)
(12.3055 21.3545 -2.15699e-18)
(11.294 20.7386 -5.05541e-18)
(11.0218 22.7398 5.75766e-18)
(9.47579 25.8348 0)
(6.55215 28.5947 -2.87862e-18)
(2.5523 30.272 8.61711e-18)
(-1.35448 30.3908 -5.79682e-18)
(-3.22061 29.7124 -2.89107e-18)
(-4.3093 32.3406 4.31247e-18)
(-7.19668 37.4264 -5.86631e-18)
(1.55711 5.7841 8.96635e-16)
(-1.58821 6.92431 -3.64979e-16)
(-2.16906 5.64449 3.71921e-16)
(-2.53485 4.42796 7.44776e-16)
(-2.73603 3.42026 3.53371e-16)
(0.852758 5.80784 3.18099e-20)
(1.33783 5.3917 2.71951e-16)
(-0.66679 -2.4096 0)
(0.24983 4.0042 0)
(-2.51194 3.27036 0)
(-2.33299 4.02083 5.92481e-18)
(-2.17114 4.67029 -1.19416e-17)
(-1.98896 5.05997 -1.60567e-20)
(-1.74217 5.08703 3.57872e-17)
(-1.38606 4.72469 -2.38147e-17)
(-0.874932 4.08684 -2.71663e-20)
(-0.206064 3.40974 1.18636e-17)
(0.574195 2.99029 -2.06835e-17)
(1.38462 3.05955 2.93936e-18)
(2.10669 3.69822 1.18002e-17)
(2.63453 4.80121 -2.94637e-18)
(2.909 6.17292 2.9363e-18)
(2.95734 7.57978 -8.84322e-18)
(2.86229 8.81007 2.93487e-18)
(2.73004 9.76037 8.7982e-18)
(2.649 10.4301 -5.86336e-18)
(2.6644 10.8407 5.86205e-18)
(2.78403 10.9873 2.19207e-18)
(2.96582 10.8549 5.11331e-18)
(3.12324 10.4722 -6.58066e-18)
(3.19388 9.80241 4.39617e-18)
(3.10046 8.78742 -8.03011e-18)
(2.79664 7.45393 -5.85708e-18)
(2.34984 5.88935 5.82207e-18)
(1.88054 4.28541 2.91445e-18)
(1.50731 2.93497 -2.90961e-18)
(1.31611 2.12166 0)
(1.36645 1.96369 -5.80661e-18)
(1.71712 2.43394 2.89869e-18)
(2.43335 3.40888 -5.7877e-18)
(3.58703 4.86095 -8.67999e-18)
(5.26338 6.76954 -5.76945e-18)
(7.46077 9.07606 -1.15182e-17)
(10.074 11.6049 2.8699e-18)
(12.8989 14.3725 -2.88583e-18)
(15.6255 17.2356 -5.74273e-18)
(17.5658 20.3574 0)
(17.9077 22.7511 0)
(14.8467 25.2904 0)
(2.79605 3.26135 0)
(1.40125 6.48528 2.26102e-19)
(1.21319 5.76839 1.0012e-15)
(1.89079 8.8182 4.27493e-16)
(0.201691 9.57233 4.39395e-16)
(1.05707 9.49755 8.65198e-16)
(1.08374 5.69594 -4.63534e-16)
(1.74989 2.77722 -1.14663e-16)
(-0.618227 -0.291902 0)
(0.968324 5.8169 -5.26961e-16)
(1.3004 5.91265 -2.15125e-16)
(1.06066 6.68667 -8.21432e-17)
(0.678349 5.96055 -1.38357e-15)
(0.78259 0.497764 4.21898e-16)
(0.558112 0.434968 3.76991e-16)
(0.61861 2.17033 -6.18724e-17)
(-12.5856 41.2344 -2.89583e-18)
(-18.56 38.2848 -7.29271e-19)
(-19.7514 32.9748 -2.21622e-18)
(-18.0738 28.5118 1.26429e-21)
(-14.632 23.9263 0)
(-10.4814 19.4852 0)
(-6.4294 15.246 0)
(-2.99343 11.451 -3.66962e-19)
(-0.460843 8.33808 -4.59797e-19)
(1.05648 6.19567 4.54808e-19)
(1.49726 5.24823 -3.65205e-19)
(0.939575 5.51115 9.14658e-19)
(-0.238984 6.62276 -1.09849e-18)
(-1.53577 8.00026 0)
(-2.59995 9.17351 0)
(-3.26247 9.93965 0)
(-3.51861 10.3264 0)
(-3.40608 10.4526 0)
(-3.00571 10.4853 0)
(-2.44119 10.5755 -3.66662e-19)
(-1.84212 10.7744 1.46564e-18)
(-1.26987 11.0577 0)
(-0.741721 11.2838 -3.6746e-18)
(-0.232717 11.2306 6.62097e-18)
(0.287318 10.7566 5.90117e-18)
(0.812165 9.86639 0)
(1.29563 8.70202 1.79207e-17)
(1.67922 7.51397 -1.796e-17)
(1.90131 6.54738 -5.9595e-18)
(1.93744 5.99074 1.19668e-17)
(1.77134 5.87808 -1.79004e-17)
(1.45689 6.13231 8.90807e-18)
(1.10628 6.49416 -2.33654e-17)
(0.798557 6.71077 5.75591e-18)
(0.54257 6.6695 1.77176e-16)
(1.59416 5.3955 5.03117e-16)
(0.312871 5.73161 6.77611e-16)
(1.08309 6.88944 3.29906e-16)
(10.847 21.2172 0)
(13.4316 17.0505 -2.86226e-21)
(16.414 14.6413 -1.42722e-18)
(18.6267 14.4656 -7.09281e-19)
(18.5496 16.0308 -1.79284e-19)
(16.4492 18.0927 1.7739e-19)
(13.2968 19.3322 0)
(10.379 19.6789 0)
(10.8612 18.5559 2.15366e-18)
(12.7858 22.4445 -5.74344e-18)
(11.7791 27.7594 7.23581e-18)
(8.0313 31.9534 0)
(2.36948 34.6397 -5.75041e-18)
(-3.01301 34.342 5.75269e-18)
(-2.21996 31.2379 1.43351e-18)
(2.08573 34.2345 1.4418e-18)
(2.57472 40.3366 0)
(-1.99637 46.7886 0)
(-0.193617 5.75776 0)
(-1.24067 6.02594 3.51005e-16)
(-1.86635 4.82585 0)
(-2.30052 3.6885 -7.32922e-16)
(-2.53661 2.65869 3.69046e-16)
(-2.72688 1.8323 6.68992e-16)
(4.49139 -7.40857 -1.03354e-16)
(0.725891 10.4465 4.0995e-16)
(-2.35715 1.94072 1.23171e-17)
(-2.25432 2.69573 -9.67236e-17)
(-2.11723 3.52685 4.2034e-17)
(-1.96523 4.21084 -4.796e-17)
(-1.78309 4.5767 -2.09594e-17)
(-1.53319 4.52044 2.98084e-17)
(-1.17393 4.02805 5.98454e-18)
(-0.667707 3.22909 -2.96871e-17)
(-0.0186717 2.42157 1.77467e-17)
(0.715465 1.94047 0)
(1.46523 2.04401 -1.47648e-17)
(2.12222 2.82308 8.85875e-18)
(2.57856 4.14616 1.47367e-17)
(2.78395 5.74442 2.92688e-18)
(2.78708 7.31509 -1.1785e-17)
(2.68358 8.61358 -5.88161e-18)
(2.56971 9.54356 0)
(2.51419 10.1354 0)
(2.55058 10.4459 -1.46682e-18)
(2.67948 10.5138 -7.32027e-19)
(2.84645 10.3721 7.32384e-18)
(2.97471 10.0501 1.4712e-18)
(3.00795 9.51364 -5.1238e-18)
(2.85391 8.69259 -3.86269e-22)
(2.47956 7.53974 0)
(1.93842 6.06782 0)
(1.33517 4.43599 -5.86068e-18)
(0.795932 2.95352 8.7464e-18)
(0.41663 1.92819 -2.9142e-18)
(0.282104 1.49514 2.02014e-21)
(0.476214 1.61145 2.90402e-18)
(1.09923 2.15085 2.90467e-18)
(2.26406 3.06876 1.74047e-17)
(4.10764 4.37551 0)
(6.68458 6.13065 8.65402e-18)
(9.91064 8.273 -8.68134e-18)
(13.548 10.8929 5.75876e-18)
(17.1623 13.9926 -5.77005e-18)
(19.8107 17.8713 5.7751e-18)
(20.1944 21.7601 0)
(16.4008 26.2051 0)
(9.61952 25.4605 -2.86994e-18)
(1.94267 5.5694 8.77866e-16)
(1.21978 6.51835 -1.89064e-16)
(0.46624 8.2009 -3.4779e-16)
(2.69735 6.50328 8.5146e-16)
(2.59209 7.55873 -9.30879e-20)
(2.42839 8.59443 8.5359e-16)
(1.29747 6.19906 2.08019e-16)
(0.0459653 9.83095 -9.25972e-16)
(1.67984 9.69951 0)
(0.831038 10.1503 0)
(0.347462 -0.825396 -6.78183e-17)
(1.82332 0.52653 -4.21351e-16)
(5.40138 -2.29394 2.87172e-17)
(1.15037 6.1017 -8.33296e-16)
(0.276788 5.70229 -9.51331e-17)
(1.53458 5.18497 -5.588e-16)
(3.33241 2.29961 0)
(3.48739 3.0656 -5.96345e-17)
(0.255216 6.32454 0)
(0.388488 6.55005 2.96283e-18)
(0.72678 6.44209 5.91064e-18)
(1.21651 6.12662 2.22292e-18)
(1.76402 5.80538 3.71128e-19)
(2.21557 5.73835 0)
(2.43658 6.0749 7.43151e-18)
(2.37904 6.81612 -7.44519e-18)
(2.03622 7.80952 2.95255e-18)
(1.45449 8.83297 -5.89902e-18)
(0.70047 9.63917 1.47391e-18)
(-0.149275 10.076 0)
(-1.02202 10.1138 2.93398e-18)
(-1.87792 9.8731 -1.4703e-18)
(-2.7016 9.5853 1.46755e-18)
(-3.47519 9.42767 -2.56661e-18)
(-4.14596 9.47073 2.97796e-18)
(-4.61123 9.68692 1.98822e-21)
(-4.77198 9.91396 -1.55338e-18)
(-4.54048 9.94095 7.32001e-19)
(-3.86196 9.61991 -8.21352e-19)
(-2.71069 8.83571 0)
(-1.16726 7.61509 3.67524e-19)
(0.499091 6.22969 -1.83694e-19)
(1.81231 5.17244 -7.33662e-19)
(2.18086 4.9703 6.33198e-19)
(1.2491 5.87064 9.12184e-20)
(-1.04632 7.81411 -3.66313e-19)
(-4.66189 10.6226 0)
(-9.43061 14.1911 0)
(-14.9746 18.5056 -1.46003e-18)
(-20.5438 23.7228 8.03462e-18)
(-24.703 29.5501 -1.46479e-18)
(-25.4084 36.9892 0)
(-19.8848 41.8271 5.84818e-18)
(-9.1717 50.2822 -1.19562e-20)
(2.96255 3.96478 3.18687e-16)
(-4.71703 25.9936 2.86115e-18)
(1.30224 20.7158 0)
(8.39762 16.4185 -7.21283e-19)
(14.6936 13.9199 7.1076e-19)
(19.3644 14.3155 1.79562e-18)
(19.9301 17.9924 -1.41617e-18)
(17.26 21.0275 3.57059e-19)
(13.4113 23.0303 7.15334e-19)
(8.48067 23.277 5.02763e-18)
(10.8901 15.7646 -7.15544e-18)
(16.7216 22.7891 -5.74354e-18)
(15.782 31.4237 5.79104e-18)
(11.3565 35.8634 -7.24954e-19)
(3.70068 39.6318 1.44199e-18)
(-4.91792 32.8809 -5.70935e-18)
(-2.87036 16.9096 -1.42612e-18)
(6.23168 14.0601 5.75555e-18)
(10.0952 26.9555 0)
(9.62861 38.3678 2.90762e-18)
(7.57854 44.3308 -1.45876e-18)
(1.90625 5.06894 4.60117e-16)
(0.913606 6.43256 -1.6535e-16)
(2.7181 5.48818 -4.23102e-16)
(0.431166 2.14472 0)
(1.47485 2.06678 0)
(2.33765 1.75521 -1.10229e-16)
(3.19159 1.44677 -2.76098e-17)
(3.8839 1.10673 -3.44173e-17)
(4.01046 1.91464 -8.46719e-17)
(4.12843 2.66813 1.17714e-16)
(4.26881 3.22931 6.41344e-17)
(0.230402 2.80119 0)
(2.19754 4.46086 -6.30392e-17)
(1.61732 -0.526366 -1.43098e-19)
(-1.38539 -4.8794 3.76657e-16)
(0.442664 -1.96315 -3.60013e-16)
(3.02131 5.80281 -4.26312e-16)
(2.95686 6.9129 0)
(2.83465 7.99481 0)
(1.26323 5.79536 4.34454e-16)
(2.32067 5.17803 8.57874e-16)
(0.178044 1.71784 -8.453e-17)
(-0.556137 4.6577 3.51078e-16)
(-1.25949 3.61868 -3.63604e-16)
(-1.75574 2.64554 0)
(-2.02371 1.76395 -7.71608e-16)
(-2.19945 0.989759 3.87972e-16)
(-2.28339 1.00934 -5.22958e-16)
(-1.23487 -1.35646 -3.1959e-16)
(-2.01695 0.440415 1.01109e-16)
(-1.99988 1.16138 -1.12686e-16)
(-1.90508 2.03978 4.93992e-17)
(-1.77873 2.92902 -4.87421e-17)
(-1.63616 3.63034 0)
(-1.46628 3.96322 -3.00393e-18)
(-1.23264 3.82121 -4.49336e-18)
(-0.895229 3.19664 1.792e-17)
(-0.427285 2.25162 6.00768e-18)
(0.152325 1.33073 -2.96477e-17)
(0.803606 0.798842 1.18144e-17)
(1.48009 0.93487 1.47671e-17)
(2.05966 1.85448 -1.18051e-17)
(2.43354 3.39503 7.35818e-18)
(2.57442 5.20305 -7.3762e-18)
(2.54913 6.90765 -2.93412e-18)
(2.45365 8.24731 8.8379e-18)
(2.36084 9.14557 1.47e-18)
(2.32524 9.65846 5.87698e-18)
(2.37551 9.87889 -5.87663e-18)
(2.49834 9.88949 0)
(2.64014 9.75503 -1.46726e-18)
(2.74725 9.50048 -7.33245e-19)
(2.74963 9.10757 -7.34029e-18)
(2.55988 8.49407 6.59455e-18)
(2.15025 7.54082 -7.32953e-19)
(1.54068 6.1987 5.87576e-18)
(0.816464 4.58563 -1.09826e-17)
(0.101976 3.00603 5.83741e-18)
(-0.482876 1.78492 2.92487e-18)
(-0.812798 1.05216 1.4581e-18)
(-0.768758 0.759508 -2.91358e-18)
(-0.229527 0.777266 8.72087e-18)
(0.961101 1.02008 -8.70109e-18)
(2.99376 1.53309 -2.90737e-18)
(6.01005 2.47337 -8.70121e-18)
(10.0097 3.92495 1.15534e-17)
(14.7873 6.07805 -8.69023e-18)
(19.8266 9.11553 5.76855e-18)
(23.8715 13.4493 -1.15344e-17)
(24.8201 18.7332 0)
(20.0181 24.2919 5.75355e-18)
(9.68512 27.1339 -2.87686e-18)
(-10.833 28.5665 -2.86688e-18)
(2.59742 2.60682 -9.58565e-16)
(2.52215 1.56063 4.45092e-16)
(2.38859 0.623008 -4.44975e-16)
(0.115318 -1.76824 2.0117e-16)
(1.4444 -1.32075 -4.63047e-16)
(1.17997 6.10122 0)
(5.1815 1.26862 -1.07202e-16)
(1.14686 -1.98948 -4.90579e-16)
(1.6028 4.22642 2.95868e-16)
(1.49936 10.4237 1.25041e-15)
(0.694453 10.498 -8.45065e-16)
(2.25754 9.54036 -4.24249e-16)
(2.98621 3.33857 0)
(3.11999 5.87179 -4.37562e-16)
(3.14487 4.74918 4.31884e-16)
(3.66577 3.72703 -1.86672e-16)