/*--------------------------------*- C++ -*----------------------------------*\
| =========                 |                                                 |
| \\      /  F ield         | OpenFOAM: The Open Source CFD Toolbox           |
|  \\    /   O peration     | Version:  2212                                  |
|   \\  /    A nd           | Website:  www.openfoam.com                      |
|    \\/     M anipulation  |                                                 |
\*---------------------------------------------------------------------------*/
FoamFile
{
    version     2.0;
    format      ascii;
    arch        "LSB;label=32;scalar=64";
    class       volVectorField;
    location    "0.0964";
    object      U;
}
// * * * * * * * * * * * * * * * * * * * * * * * * * * * * * * * * * * * * * //

dimensions      [0 1 -1 0 0 0 0];

internalField   nonuniform List<vector> 
31661
(
(-79.4478 111.719 4.57133e-16)
(102.563 726.126 -1.34212e-17)
(97.4208 717.259 1.81703e-17)
(101.05 722.111 0)
(106.496 725.794 2.68077e-17)
(103.05 717.725 -3.64917e-17)
(105.778 722.135 -2.25173e-17)
(110.11 725.267 0)
(108.215 717.857 2.6963e-17)
(110.115 721.952 -3.80633e-20)
(-157.924 150.088 0)
(-181.237 670.756 -1.44485e-16)
(29.4214 24.7036 -1.17484e-16)
(0.318721 286.074 0)
(30.3524 141.264 1.99458e-16)
(70.4589 151.859 1.31015e-18)
(31.6475 131.403 0)
(-74.2162 135.285 -1.17573e-16)
(236.696 644.554 0)
(71.3619 159.602 0)
(209.822 565.051 5.83827e-17)
(205.086 565.833 -1.49179e-16)
(4.29509 399.345 -1.0778e-18)
(-103.218 201.725 3.59255e-17)
(-130.2 710.67 -1.21439e-16)
(211.741 561.525 0)
(1.52282 383.941 -3.1884e-18)
(31.6606 442.488 -6.2596e-17)
(-175.494 670.911 1.57967e-16)
(111.958 674.334 -7.94633e-17)
(-98.0491 207.525 -4.00059e-16)
(-69.6537 175.349 1.42737e-16)
(-84.0452 214.398 -7.43572e-17)
(245.606 627.186 8.14695e-17)
(-67.2479 619.175 -2.74409e-17)
(-84.6389 223.181 7.50772e-17)
(274.174 597.355 -2.3963e-16)
(-80.2128 223.322 -1.53678e-17)
(-16.07 430.082 -1.51724e-16)
(-114.818 290.729 -3.83017e-19)
(119.392 375.972 -2.23002e-16)
(90.6357 730.065 9.42496e-20)
(45.7715 237.717 1.54174e-16)
(18.9613 596.508 -2.03616e-16)
(17.4497 590.59 -2.13279e-16)
(173.232 660.212 -9.7089e-17)
(23.3567 593.622 -1.024e-16)
(215.49 599.881 -1.04288e-16)
(277.842 599.021 0)
(1.4152 371.761 0)
(139.361 461.701 0)
(-3.68091 399.313 -2.88848e-17)
(-169.896 653.009 -4.78489e-17)
(230.496 601.37 9.45886e-17)
(48.8812 468.472 -1.18323e-16)
(-213.898 658.98 7.94724e-17)
(-183.029 646.663 -9.53848e-17)
(-155.916 641.673 -5.04983e-17)
(12.9897 628.647 -1.46433e-16)
(-212.975 652.611 -2.08713e-16)
(-186.132 661.206 1.70753e-16)
(-197.653 660.224 0)
(-94.3393 603.165 -2.25518e-16)
(-60.6725 747.404 0)
(-264.767 594.551 0)
(129.847 239.41 0)
(-83.3942 51.503 2.69314e-16)
(12.3918 640.531 4.644e-17)
(11.9486 653.686 9.55264e-18)
(13.6277 666.137 6.97878e-17)
(-185.334 675.966 -6.85914e-17)
(12.2451 681.977 -1.81177e-17)
(10.263 693.739 0)
(8.70121 704.648 4.42562e-18)
(7.64727 714.312 3.46927e-17)
(6.79273 723.268 -3.33099e-17)
(6.01477 731.193 0)
(5.30111 738.266 0)
(4.63692 744.386 0)
(4.03919 749.679 0)
(3.52283 754.135 -1.94929e-18)
(3.08123 757.853 -1.92572e-17)
(2.72937 760.884 1.5493e-17)
(2.46426 763.33 -3.8501e-18)
(4.18188 762.727 1.92713e-17)
(5.70384 760.195 1.66825e-19)
(7.48152 757.065 -1.54063e-17)
(9.55415 753.246 3.90579e-18)
(11.8876 748.696 0)
(14.5237 743.346 1.01003e-18)
(17.3728 737.191 0)
(20.4796 730.178 -3.39751e-17)
(23.6896 722.35 3.26765e-17)
(27.1369 713.634 -1.08119e-18)
(30.3642 704.257 3.90091e-17)
(34.0004 694.205 -3.58563e-17)
(37.8016 683.901 -5.02861e-19)
(42.4866 673.868 1.99458e-17)
(42.6913 663.605 0)
(41.8889 653.091 -5.20154e-18)
(42.0475 642.169 5.00531e-18)
(41.8987 632.286 3.9763e-17)
(42.1996 623.407 -5.68021e-18)
(11.5188 614.69 7.70877e-17)
(37.8795 614.665 -4.75079e-17)
(8.59479 605.078 2.17552e-17)
(33.1431 606.322 3.22253e-17)
(6.93369 596.829 3.39629e-17)
(28.9534 598.617 -5.64779e-18)
(5.79337 589.764 -2.48504e-17)
(25.0476 591.807 2.61188e-17)
(4.87866 583.809 0)
(21.3462 585.905 -4.72673e-17)
(4.09647 578.859 0)
(17.9144 580.863 2.34696e-17)
(3.42166 574.787 0)
(14.8464 576.619 0)
(2.85521 571.463 -9.14162e-20)
(12.1976 573.08 9.24451e-20)
(2.38382 568.754 -1.84601e-19)
(9.96671 570.146 -5.98021e-18)
(1.99394 566.543 1.85319e-19)
(8.12999 567.723 1.1719e-17)
(1.67779 564.728 5.92338e-18)
(6.65173 565.719 -1.19619e-17)
(1.42239 563.222 -5.96865e-18)
(5.47634 564.051 5.96579e-18)
(1.21526 561.952 -6.18969e-18)
(4.55248 562.648 -2.95672e-18)
(1.04864 560.864 -4.43868e-20)
(3.83226 561.453 -2.73436e-20)
(0.911605 559.911 6.03421e-18)
(3.272 560.414 3.06416e-18)
(0.796774 559.058 1.89755e-19)
(2.83704 559.492 3.04368e-18)
(0.699228 558.275 0)
(2.49923 558.656 -2.98744e-18)
(0.614442 557.539 3.05503e-18)
(2.23753 557.877 3.15131e-18)
(0.538333 556.827 1.08682e-19)
(2.03514 557.131 1.3922e-20)
(0.468906 556.122 1.28997e-20)
(1.87935 556.398 -3.0256e-18)
(0.403977 555.407 -6.21736e-18)
(1.76179 555.66 9.57044e-20)
(0.342106 554.667 6.03634e-18)
(1.67646 554.899 0)
(0.282105 553.885 -3.06356e-18)
(1.61881 554.098 4.79749e-20)
(0.222592 553.043 -6.06409e-18)
(1.58679 553.239 0)
(0.162701 552.123 5.85271e-18)
(1.57894 552.302 9.61843e-20)
(0.101629 551.105 3.09123e-18)
(1.59466 551.268 9.63537e-20)
(0.0389247 549.966 -9.37105e-18)
(1.635 550.114 -3.09764e-18)
(-0.0272703 548.68 3.06292e-18)
(1.69926 548.812 -3.12465e-18)
(-0.0963211 547.218 -2.23437e-20)
(1.79096 547.332 3.06542e-18)
(-0.169279 545.542 -2.52839e-20)
(1.91144 545.64 -2.55081e-20)
(-0.247661 543.612 9.53567e-18)
(2.06235 543.693 3.09593e-18)
(-0.332617 541.377 -6.20101e-18)
(2.24618 541.439 -1.17746e-18)
(-0.426322 538.772 -3.9047e-19)
(2.46553 538.816 1.553e-18)
(2.72125 535.733 -3.91471e-19)
(-0.529664 535.706 1.96842e-18)
(-3.77682 535.517 -1.20826e-18)
(-3.31549 538.61 -1.18162e-18)
(-2.91063 541.241 0)
(-2.55603 543.5 1.35367e-18)
(-2.24776 545.452 -3.2975e-18)
(-1.98094 547.148 -1.53265e-18)
(-1.75157 548.628 2.90943e-18)
(-1.55578 549.931 -3.0794e-18)
(-1.38957 551.084 3.09239e-18)
(-1.25096 552.116 6.33528e-18)
(-1.13768 553.048 -9.23121e-18)
(-1.04891 553.902 -2.95384e-18)
(-0.983672 554.697 1.23597e-17)
(-0.942199 555.449 -2.59069e-20)
(-0.925755 556.176 -3.07587e-18)
(-0.936741 556.893 -1.36178e-20)
(-0.979478 557.62 -1.43971e-20)
(-1.06087 558.375 -3.04853e-18)
(-1.18919 559.179 -6.24064e-18)
(-1.37722 560.058 3.05564e-18)
(-1.64118 561.044 6.03314e-18)
(-2.00236 562.174 6.68896e-20)
(-2.48589 563.495 -5.99313e-18)
(-3.12258 565.068 -2.83001e-18)
(-3.94689 566.964 5.61025e-18)
(-4.98982 569.273 5.50551e-19)
(-6.28145 572.098 0)
(-7.82558 575.553 0)
(-9.60779 579.765 1.41974e-18)
(-11.5645 584.858 -1.10946e-17)
(-13.5461 590.953 1.14432e-17)
(-15.2709 598.156 -2.67714e-17)
(-16.2271 606.612 -1.99071e-17)
(-15.6071 616.549 2.98984e-17)
(-15.2183 627.119 8.62288e-18)
(-18.684 640.08 -3.49715e-18)
(-17.7668 653.469 -9.16033e-18)
(-15.4223 666.825 0)
(-13.703 678.977 -6.4822e-17)
(-15.5964 691.364 3.84951e-17)
(-14.1875 702.403 -2.30866e-18)
(-12.6814 712.476 6.84277e-17)
(-10.7703 721.64 -1.79311e-17)
(-8.95785 729.814 -3.29674e-17)
(-7.15152 737.06 -1.53993e-17)
(-5.54252 743.353 6.18049e-17)
(2.90175 764.733 1.14416e-17)
(2.27638 765.256 7.63844e-18)
(-4.02907 748.77 -4.94289e-17)
(-2.6975 753.329 3.12375e-17)
(-1.48122 757.128 -1.17543e-17)
(-0.37648 760.246 -1.5363e-17)
(0.643623 762.773 1.54203e-17)
(2.1725 766.705 0)
(1.8318 766.261 -2.67443e-17)
(1.73693 764.914 1.53507e-17)
(3.80703 763.172 3.82528e-18)
(6.22603 760.933 0)
(9.03547 758.149 -7.80709e-18)
(12.2538 754.758 9.74365e-18)
(15.9328 750.679 -1.95141e-18)
(20.0542 745.862 -1.71784e-17)
(24.6223 740.28 -1.46794e-18)
(29.5546 733.92 1.62108e-17)
(34.8381 726.793 1.74491e-17)
(40.2615 718.944 -1.67802e-17)
(45.8824 710.379 -1.11678e-18)
(51.3357 701.259 -4.54017e-18)
(56.7397 691.718 0)
(62.1063 681.799 -9.92622e-18)
(66.5431 672.027 9.71808e-18)
(68.6109 662.531 0)
(69.3266 653.012 3.8975e-18)
(69.4488 643.695 -6.52106e-18)
(68.8214 634.875 -1.91333e-17)
(66.6547 626.628 2.0209e-18)
(62.0692 618.62 0)
(56.4969 610.844 1.13173e-17)
(50.5628 603.623 -2.3024e-17)
(44.5229 597.005 2.2178e-17)
(38.5382 591.024 2.15671e-18)
(32.8361 585.697 -2.69137e-20)
(27.5664 581.014 1.18482e-17)
(22.885 576.962 -1.15539e-17)
(18.8376 573.499 0)
(15.4301 570.572 -2.28831e-20)
(12.6248 568.113 2.30341e-20)
(10.3583 566.052 0)
(8.55562 564.322 -2.36303e-20)
(7.13727 562.857 -3.02571e-18)
(6.03327 561.601 -7.27769e-20)
(5.18082 560.507 3.03387e-18)
(4.52813 559.533 3.00305e-18)
(4.03142 558.644 -3.13689e-18)
(3.65881 557.809 1.52968e-18)
(3.38501 557.002 -1.54856e-18)
(3.19181 556.2 4.77998e-20)
(3.06648 555.384 4.78622e-20)
(3.0011 554.532 -2.80814e-23)
(2.98949 553.625 -4.80377e-20)
(3.02966 552.643 1.54368e-18)
(3.1205 551.563 -1.72978e-18)
(3.26238 550.362 1.64628e-18)
(3.45906 549.012 -1.54282e-18)
(3.71201 547.483 1.75056e-18)
(4.02718 545.737 -1.54692e-18)
(4.40902 543.734 1.56445e-18)
(4.86373 541.422 -3.72707e-19)
(5.39599 538.737 -1.94574e-18)
(6.01011 535.592 0)
(6.70774 531.849 -1.58208e-18)
(3.01406 532.048 -3.92357e-19)
(-0.643988 532.036 -1.57225e-18)
(-4.29781 531.818 -8.37973e-19)
(-7.98262 531.391 0)
(-7.05989 535.159 -3.91164e-19)
(-6.24096 538.325 1.55412e-18)
(-5.52377 541.026 -1.7637e-18)
(-4.90027 543.352 0)
(-4.36083 545.365 1.93937e-19)
(-3.89926 547.117 -1.54433e-18)
(-3.50723 548.651 1.64922e-18)
(-3.17933 550.002 1.93155e-19)
(-2.90923 551.201 0)
(-2.69335 552.276 0)
(-2.52862 553.25 -1.44241e-19)
(-2.41394 554.146 1.43611e-18)
(-2.34899 554.983 -1.02704e-19)
(-2.33628 555.781 -1.34322e-18)
(-2.3805 556.557 -1.52481e-18)
(-2.49005 557.332 1.43437e-18)
(-2.67718 558.126 1.51904e-18)
(-2.9583 558.962 -1.14484e-18)
(-3.35747 559.866 0)
(-3.9062 560.869 0)
(-4.64477 562.011 0)
(-5.62362 563.337 0)
(-6.90256 564.902 -1.48475e-18)
(-8.54872 566.772 1.49784e-18)
(-10.6322 569.023 3.71714e-19)
(-13.214 571.736 -3.26999e-18)
(-16.3433 575.002 2.22969e-18)
(-20.0235 578.912 1.41391e-18)
(-24.2113 583.546 -4.42312e-20)
(-28.7736 588.974 5.48805e-18)
(-33.4882 595.251 -5.6492e-18)
(-37.9969 602.415 -5.18029e-18)
(-41.8091 610.494 -4.59079e-18)
(-44.5536 619.444 -1.50683e-17)
(-46.1531 629.614 3.02937e-19)
(-48.5851 640.662 4.76242e-18)
(-48.3385 652.459 -1.79445e-17)
(-46.3754 664.278 3.63113e-17)
(-43.4008 676.208 -1.39136e-17)
(-41.2085 687.45 0)
(-37.6528 698.276 3.83035e-17)
(-33.5436 708.349 -3.5211e-17)
(-29.063 717.662 -1.64525e-17)
(-24.6623 726.086 1.63533e-17)
(-20.3878 733.628 -1.60151e-17)
(-16.4788 740.231 3.61086e-17)
(-12.8803 745.935 -2.97487e-17)
(-9.65435 750.78 3.11393e-19)
(1.56817 764.769 -7.64772e-18)
(-6.7228 754.865 1.96365e-17)
(-4.09231 758.257 0)
(-1.73052 761.031 0)
(-0.000595563 766.213 -1.53286e-17)
(0.970518 767.364 -3.7931e-18)
(2.42974 766.279 0)
(2.133 767.745 3.82162e-18)
(-1.44707 767.146 -1.52945e-17)
(-2.75529 765.431 7.68589e-18)
(-0.466615 764.237 -7.68255e-18)
(2.22701 762.608 -1.15699e-17)
(5.37132 760.521 -6.52647e-20)
(8.99138 757.911 -8.85409e-20)
(13.1367 754.727 7.77879e-18)
(17.8313 750.908 -1.95715e-18)
(23.0984 746.41 -1.01455e-18)
(28.9459 741.183 9.97545e-19)
(35.3235 735.232 0)
(42.1574 728.568 -5.34108e-19)
(49.3441 721.226 -8.97227e-18)
(56.6878 713.301 7.99344e-18)
(64.0268 704.893 1.09429e-18)
(71.1107 696.147 1.07581e-18)
(77.7693 687.191 0)
(83.8686 678.166 4.94261e-18)
(88.6599 669.459 -4.98543e-18)
(91.4315 661.161 -7.72171e-18)
(92.7235 653.104 -1.34131e-18)
(92.7854 645.356 0)
(91.6638 637.998 5.44966e-18)
(88.859 630.99 -1.97086e-18)
(84.0015 624.098 0)
(77.9983 617.292 -5.87747e-18)
(71.2636 610.721 1.95367e-17)
(64.0577 604.426 -9.6225e-18)
(56.66 598.461 -3.46865e-20)
(49.2964 592.858 -7.32598e-19)
(42.2514 587.692 -1.14256e-17)
(35.7286 583.009 1.73697e-17)
(29.8772 578.846 -5.78905e-18)
(24.7648 575.204 2.04586e-19)
(20.4131 572.064 5.98356e-18)
(16.7972 569.388 -2.9057e-18)
(13.8462 567.122 -2.9758e-18)
(11.4787 565.201 0)
(9.612 563.572 -3.04007e-18)
(8.15889 562.175 2.95795e-18)
(7.04007 560.955 0)
(6.19171 559.868 3.05747e-18)
(5.55835 558.871 -3.04427e-18)
(5.09957 557.932 0)
(4.78189 557.019 -9.56534e-20)
(4.58228 556.106 -4.79423e-20)
(4.48428 555.167 -1.58855e-18)
(4.47715 554.181 4.0021e-20)
(4.55409 553.122 1.53715e-18)
(4.71314 551.966 1.92769e-19)
(4.95498 550.687 1.5513e-18)
(5.28139 549.257 -1.544e-18)
(5.69772 547.644 1.36473e-18)
(6.20943 545.81 -1.549e-18)
(6.82464 543.713 1.37211e-18)
(7.55127 541.302 -1.55436e-18)
(8.39738 538.514 -1.44261e-21)
(9.36954 535.265 -7.92188e-19)
(10.4681 531.423 7.75269e-19)
(11.6845 526.743 1.18042e-18)
(7.48332 527.244 -7.64614e-21)
(3.34184 527.488 3.95061e-19)
(-0.7688 527.486 1.56278e-18)
(-4.87496 527.244 3.93031e-18)
(-9.00743 526.762 7.88003e-19)
(-13.1929 526.034 -2.37371e-18)
(-11.7352 530.746 1.59192e-18)
(-10.4155 534.622 -3.85901e-19)
(-9.24288 537.902 7.88377e-19)
(-8.21254 540.716 -7.50924e-22)
(-7.31562 543.148 0)
(-6.54257 545.262 1.35334e-18)
(-5.88215 547.107 -1.65555e-18)
(-5.3261 548.726 1.93632e-19)
(-4.86454 550.159 -1.93029e-19)
(-4.49084 551.435 -9.65639e-20)
(-4.20082 552.584 0)
(-3.99075 553.631 1.53559e-18)
(-3.86066 554.6 -7.64741e-21)
(-3.81203 555.514 -1.44197e-18)
(-3.85177 556.395 -1.91548e-19)
(-3.99116 557.265 -1.52476e-18)
(-4.24673 558.148 3.05208e-18)
(-4.64196 559.072 -2.66583e-18)
(-5.20842 560.065 -5.59043e-19)
(-5.98987 561.164 1.52059e-18)
(-7.03953 562.411 -3.75124e-19)
(-8.42435 563.854 0)
(-10.2225 565.55 3.70586e-19)
(-12.5203 567.562 7.38267e-19)
(-15.4056 569.96 -1.84359e-18)
(-18.9589 572.813 1.7032e-20)
(-23.2342 576.184 1.97414e-20)
(-28.2581 580.128 2.17366e-18)
(-33.9751 584.678 -7.77236e-19)
(-40.2677 589.842 -4.2414e-18)
(-46.9244 595.611 -1.35509e-18)
(-53.6508 601.957 1.39093e-18)
(-60.0437 608.844 -5.74431e-18)
(-65.6509 616.24 1.3433e-17)
(-70.0473 624.15 -2.61234e-18)
(-73.1258 632.784 -3.10579e-19)
(-75.4778 642.008 0)
(-75.4507 651.776 1.9547e-17)
(-73.4954 661.856 -1.80222e-17)
(-70.0472 672.241 -5.64422e-18)
(-65.8964 682.472 0)
(-60.5321 692.584 1.28362e-17)
(-54.4177 702.317 -3.47222e-17)
(-47.8188 711.576 1.74809e-17)
(-41.1076 720.196 -5.56736e-19)
(-34.6093 728.047 1.61543e-17)
(-28.5355 735.023 -1.84847e-17)
(-22.9056 741.147 0)
(-17.7354 746.463 1.16496e-17)
(-13.027 751.014 -3.53618e-17)
(0.374239 763.251 -7.65675e-18)
(-8.80096 754.846 2.73052e-17)
(-5.01571 758.025 -1.95427e-17)
(0.267202 768.157 -1.47062e-21)
(-4.71102 766.266 0)
(-2.70865 767.808 7.63064e-18)
(2.26236 764.97 7.68169e-18)
(3.21671 767.366 -7.65686e-18)
(2.1405 768.507 -7.46976e-18)
(-6.42942 766.866 -3.85802e-18)
(-8.49459 764.902 -1.15885e-17)
(-6.11688 764.073 3.83721e-18)
(-3.34007 762.905 2.36716e-20)
(-0.0877482 761.32 -9.69385e-18)
(3.66464 759.264 -1.96966e-18)
(7.97699 756.706 1.98385e-18)
(12.8834 753.591 -7.94436e-18)
(18.4301 749.869 6.87352e-18)
(24.6359 745.496 -5.11864e-19)
(31.5076 740.442 9.98766e-19)
(39.0033 734.701 0)
(47.0448 728.302 -8.54389e-18)
(55.4893 721.314 8.61886e-18)
(64.198 713.808 2.79309e-19)
(72.8867 705.943 -1.42761e-19)
(81.3423 697.854 0)
(89.2637 689.709 1.1332e-18)
(96.4137 681.663 1.21172e-18)
(102.589 673.864 0)
(107.26 666.532 1.53243e-19)
(110.195 659.707 7.58624e-18)
(111.609 653.235 -1.23177e-18)
(111.628 647.11 0)
(110.292 641.284 5.34457e-18)
(107.482 635.655 -5.35324e-18)
(102.981 630.034 2.64619e-18)
(97.2626 624.35 -5.54226e-18)
(90.6118 618.643 2.80505e-18)
(83.2315 612.922 -1.41977e-18)
(75.3398 607.219 -1.39956e-18)
(67.175 601.596 -3.43715e-19)
(59.0001 596.14 5.45276e-18)
(51.0721 590.944 -1.15281e-17)
(43.628 586.103 1.16442e-17)
(36.8365 581.692 -8.94246e-18)
(30.802 577.745 2.91037e-18)
(25.5797 574.277 0)
(21.1693 571.275 3.02732e-18)
(17.5254 568.703 -2.96999e-18)
(14.5786 566.51 4.65399e-20)
(12.24 564.64 1.54694e-18)
(10.4166 563.031 -1.48584e-18)
(9.01789 561.624 1.52806e-18)
(7.96874 560.367 -1.51972e-18)
(7.20338 559.214 0)
(6.67062 558.124 1.58427e-18)
(6.32956 557.059 -2.29849e-18)
(6.1514 555.988 7.66418e-19)
(6.11468 554.881 -4.80995e-20)
(6.20691 553.71 0)
(6.42012 552.444 -8.71556e-19)
(6.75293 551.055 7.7123e-19)
(7.20638 549.513 6.81716e-19)
(7.78431 547.782 -7.74354e-19)
(8.49464 545.825 0)
(9.34472 543.598 3.90643e-19)
(10.3451 541.05 0)
(11.5048 538.12 7.87349e-19)
(12.8308 534.728 6.14071e-21)
(14.322 530.753 -4.39773e-19)
(15.965 525.975 -1.50346e-19)
(17.7136 519.894 -2.99666e-19)
(12.9869 520.674 5.97488e-19)
(8.31599 521.186 -7.9495e-19)
(3.69255 521.437 3.96901e-19)
(-0.905343 521.435 0)
(-5.49747 521.186 -7.5075e-19)
(-10.1073 520.692 2.40416e-18)
(-14.7527 519.947 1.57147e-18)
(-19.4471 518.949 0)
(-17.4501 525.054 -1.18929e-18)
(-15.5778 529.873 1.1708e-18)
(-13.8733 533.889 -2.37713e-18)
(-12.3499 537.32 -7.79711e-19)
(-11.0079 540.285 1.76135e-18)
(-9.83762 542.862 -7.8535e-19)
(-8.82753 545.111 1.94317e-19)
(-7.96721 547.084 -2.97475e-22)
(-7.24412 548.824 2.38453e-22)
(-6.64924 550.37 0)
(-6.17619 551.755 9.65509e-20)
(-5.81935 553.01 9.64569e-20)
(-5.5784 554.164 8.16153e-19)
(-5.45522 555.244 -7.7151e-19)
(-5.45705 556.275 1.91688e-19)
(-5.59784 557.287 -7.63914e-19)
(-5.89917 558.307 1.95489e-19)
(-6.39088 559.368 1.33547e-18)
(-7.11388 560.505 -1.90321e-18)
(-8.12044 561.761 9.52492e-19)
(-9.47708 563.181 -8.29229e-22)
(-11.2614 564.821 7.57725e-19)
(-13.5625 566.74 1.85906e-19)
(-16.4749 569.002 -5.64639e-19)
(-20.0899 571.67 -1.1443e-20)
(-24.4807 574.799 3.85001e-19)
(-29.6946 578.434 -7.11692e-19)
(-35.7315 582.598 0)
(-42.5304 587.278 1.38809e-18)
(-49.9384 592.439 -1.38037e-18)
(-57.757 598.009 4.19082e-18)
(-65.6914 603.907 0)
(-73.4316 610.054 -5.25762e-18)
(-80.6111 616.382 5.3955e-18)
(-86.8544 622.849 5.10319e-18)
(-91.8547 629.496 0)
(-95.4682 636.462 1.23755e-18)
(-97.7706 643.787 0)
(-97.9798 651.482 1.55942e-20)
(-96.2928 659.574 1.7235e-17)
(-92.8513 668.112 -1.76396e-17)
(-88.0149 676.917 1.77662e-17)
(-81.8054 685.911 -1.73172e-17)
(-74.5462 694.934 0)
(-66.512 703.859 0)
(-58.1368 712.446 2.13111e-18)
(-49.8597 720.476 0)
(-41.8909 727.82 1.62045e-17)
(-34.2993 734.467 -5.08157e-19)
(-27.2136 740.381 -8.23978e-18)
(-20.7201 745.536 -1.58066e-17)
(-14.8569 749.941 3.95971e-17)
(-1.64054 760.621 0)
(-9.5512 753.683 3.64905e-18)
(-0.337853 768.706 1.52507e-17)
(-3.81989 768.214 1.52984e-17)
(1.36092 762.675 0)
(-10.6027 765.475 2.7025e-17)
(-7.91214 767.2 7.68282e-18)
(3.94271 766.226 7.65993e-18)
(3.9407 768.148 0)
(2.1811 769.001 1.67564e-17)
(-12.426 765.781 -1.54078e-17)
(-15.0511 763.722 0)
(-12.5977 763.135 5.80874e-18)
(-9.80701 762.295 -7.76421e-18)
(-6.57919 761.09 3.86044e-18)
(-2.83711 759.455 -7.83179e-18)
(1.47922 757.373 9.74684e-18)
(6.40556 754.779 1.94652e-18)
(11.9929 751.635 -1.95702e-18)
(18.2787 747.895 -5.10607e-19)
(25.281 743.528 1.5123e-18)
(32.9937 738.512 -3.91115e-18)
(41.3766 732.856 1.42243e-19)
(50.3368 726.601 4.28577e-18)
(59.7376 719.819 -6.90443e-20)
(69.3872 712.618 -4.12187e-18)
(79.0376 705.148 4.08717e-18)
(88.4 697.583 -8.1516e-21)
(97.1959 690.101 -5.0268e-18)
(105.164 682.849 4.61382e-18)
(112.105 675.962 -3.62442e-18)
(117.797 669.553 1.15148e-18)
(121.991 663.704 1.26246e-18)
(124.699 658.361 6.36347e-19)
(126.019 653.396 -3.24025e-19)
(126.041 648.749 6.45173e-19)
(124.804 644.32 1.00294e-18)
(122.367 639.977 -1.46531e-18)
(118.588 635.571 0)
(113.687 631.017 0)
(107.806 626.29 0)
(101.055 621.365 2.77499e-18)
(93.5625 616.244 -2.33781e-18)
(85.4876 610.961 1.91841e-20)
(77.0293 605.582 -2.86455e-18)
(68.4204 600.204 2.87631e-18)
(59.9296 594.947 2.92493e-18)
(51.7752 589.914 -2.76049e-18)
(44.1708 585.201 2.96773e-18)
(37.2854 580.893 -2.90242e-18)
(31.2216 577.038 -2.99296e-18)
(26.005 573.639 2.94496e-18)
(21.638 570.688 -9.35112e-20)
(18.0663 568.148 2.38143e-20)
(15.2071 565.962 -1.54885e-18)
(12.9704 564.071 -1.87844e-20)
(11.26 562.412 1.51526e-18)
(9.99153 560.928 1.18718e-20)
(9.08752 559.562 0)
(8.48695 558.267 0)
(8.14011 556.999 8.19642e-19)
(8.01085 555.717 -7.19961e-19)
(8.07323 554.386 -7.26877e-19)
(8.31019 552.97 6.74373e-19)
(8.71446 551.434 2.92255e-19)
(9.28314 549.743 -2.89922e-19)
(10.0171 547.86 -9.75597e-20)
(10.922 545.744 0)
(12.0065 543.351 -3.93125e-19)
(13.2792 540.63 -2.019e-19)
(14.749 537.522 3.91322e-19)
(16.4203 533.955 4.98636e-20)
(18.2891 529.821 -4.45082e-19)
(20.3337 524.928 1.00704e-18)
(22.4967 518.836 -6.93665e-19)
(24.6433 510.529 -6.28958e-21)
(19.4557 511.358 6.31206e-21)
(14.2889 511.948 0)
(9.15177 512.316 1.99705e-19)
(4.04433 512.479 -1.99772e-19)
(-1.0452 512.45 4.08206e-19)
(-6.12834 512.239 -2.36838e-18)
(-11.2176 511.84 -7.74637e-19)
(-16.323 511.245 -8.02185e-19)
(-21.4453 510.445 7.99676e-19)
(-24.188 517.698 1.58297e-18)
(-21.7943 523.812 -4.27535e-19)
(-19.5315 528.753 -8.04691e-19)
(-17.4585 532.938 3.93732e-19)
(-15.5951 536.552 0)
(-13.944 539.701 0)
(-12.5006 542.458 0)
(-11.2537 544.878 0)
(-10.1919 547.014 9.71726e-20)
(-9.30472 548.908 2.8324e-22)
(-8.58304 550.601 2.89371e-19)
(-8.02137 552.131 -3.88304e-19)
(-7.61817 553.53 2.88459e-19)
(-7.37699 554.832 -2.90486e-19)
(-7.30558 556.067 -4.7987e-19)
(-7.42219 557.272 1.93109e-19)
(-7.75231 558.48 1.91015e-19)
(-8.33386 559.731 -1.91616e-19)
(-9.21606 561.067 5.70705e-19)
(-10.463 562.538 -4.81388e-21)
(-12.1495 564.198 0)
(-14.364 566.105 -3.74425e-19)
(-17.2008 568.324 -5.90759e-21)
(-20.7537 570.916 0)
(-25.0979 573.934 0)
(-30.2974 577.424 0)
(-36.3578 581.399 -1.43539e-18)
(-43.2426 585.854 2.20317e-18)
(-50.8489 590.749 0)
(-59.0056 595.998 -2.81512e-18)
(-67.4597 601.501 -1.375e-18)
(-75.968 607.144 1.38374e-18)
(-84.228 612.82 0)
(-91.9635 618.439 -2.60428e-18)
(-98.9158 623.954 0)
(-104.865 629.362 -5.2502e-18)
(-109.628 634.714 -9.97903e-18)
(-113.087 640.129 2.97937e-17)
(-115.184 645.699 -1.97922e-18)
(-115.54 651.51 -4.00819e-17)
(-114.215 657.69 8.14543e-19)
(-111.189 664.356 1.90329e-17)
(-106.59 671.479 -1.82055e-17)
(-100.449 679.052 -2.31253e-19)
(-92.9881 687 1.17129e-18)
(-84.443 695.19 1.81273e-17)
(-75.2514 703.39 -2.17745e-18)
(-65.8164 711.359 0)
(-56.3653 718.962 0)
(-47.1055 726.088 0)
(-38.2895 732.602 -8.21876e-18)
(-30.1317 738.382 -1.60493e-17)
(-22.5944 743.473 2.81558e-17)
(-4.81251 756.789 -1.56883e-17)
(-15.7149 747.908 -1.61006e-17)
(-26.5735 509.436 8.09425e-19)
(-9.50489 751.672 0)
(-0.857888 768.984 3.83507e-18)
(-0.590092 759.331 7.7602e-18)
(-4.7211 768.363 -1.91626e-17)
(4.01952 764.266 -7.76473e-18)
(-9.17128 767.276 0)
(5.42478 767.13 0)
(-17.1855 764.043 0)
(-13.9914 765.835 -7.76009e-18)
(4.63245 768.69 -3.82005e-18)
(2.22482 769.196 2.48702e-20)
(-19.0288 764.115 -3.91069e-18)
(-22.0664 762.037 -1.17363e-17)
(-19.6315 761.675 1.56428e-17)
(-16.8374 761.057 -9.79344e-18)
(-13.666 760.145 1.9575e-17)
(-10.0023 758.86 -5.84583e-18)
(-5.76427 757.154 7.8975e-18)
(-0.929329 754.977 -7.87127e-18)
(4.57255 752.292 1.01158e-18)
(10.781 749.054 0)
(17.733 745.225 -4.08338e-18)
(25.4399 740.782 4.53992e-18)
(33.8792 735.718 -5.05776e-19)
(42.9904 730.064 2.38492e-18)
(52.6807 723.862 -2.35322e-18)
(62.7808 717.208 -1.31438e-19)
(73.0807 710.231 3.12249e-20)
(83.3292 703.086 -6.79093e-20)
(93.2321 695.962 -2.4043e-18)
(102.521 689.028 4.53653e-20)
(110.948 682.441 2.60233e-18)
(118.307 676.317 1.2222e-18)
(124.503 670.724 -2.43718e-18)
(129.399 665.702 2.31357e-18)
(132.958 661.239 -2.47082e-18)
(135.268 657.225 1.04017e-20)
(136.437 653.546 0)
(136.525 650.125 8.11946e-20)
(135.618 646.846 5.7479e-19)
(133.738 643.577 -4.82043e-19)
(130.827 640.224 -6.65278e-19)
(126.968 636.695 6.55247e-19)
(122.207 632.943 0)
(116.571 628.918 0)
(110.099 624.594 6.80562e-19)
(102.856 619.966 1.84465e-19)
(94.9455 615.057 0)
(86.5227 609.927 -9.00819e-20)
(77.79 604.662 0)
(68.9714 599.369 1.36137e-18)
(60.314 594.169 -1.41594e-18)
(52.0647 589.186 0)
(44.4198 584.516 -2.35128e-20)
(37.5407 580.241 -2.24971e-20)
(31.5166 576.402 5.02569e-20)
(26.385 573.009 0)
(22.1306 570.047 0)
(18.6913 567.47 0)
(15.9872 565.223 -7.65688e-19)
(13.9219 563.24 7.34136e-19)
(12.4043 561.458 2.37557e-20)
(11.3478 559.815 0)
(10.6808 558.252 3.38325e-19)
(10.3437 556.716 -7.71353e-19)
(10.2922 555.159 1.11348e-18)
(10.494 553.536 -2.85966e-19)
(10.926 551.804 -6.80195e-19)
(11.5819 549.921 -3.6004e-21)
(12.4546 547.846 4.86132e-19)
(13.5442 545.533 -1.96916e-19)
(14.8551 542.937 -3.96064e-19)
(16.3919 540.009 3.89596e-19)
(18.1614 536.693 1.96372e-19)
(20.1628 532.924 1.99547e-19)
(22.3849 528.611 4.03326e-19)
(24.7977 523.59 -4.97983e-19)
(27.3315 517.493 0)
(29.8337 509.449 8.2884e-19)
(31.9747 497.379 4.19892e-20)
(26.4662 497.625 7.91258e-19)
(20.9238 497.708 5.08464e-20)
(15.3773 497.677 8.39122e-19)
(9.84461 497.579 -8.37995e-19)
(4.33016 497.456 -4.18546e-19)
(-1.17088 497.34 9.4583e-21)
(-6.66695 497.246 1.63026e-20)
(-12.1646 497.176 8.06365e-19)
(-17.6627 497.095 8.68577e-19)
(-23.156 496.967 0)
(-28.6293 496.742 1.67705e-18)
(-31.6881 508.207 7.8964e-19)
(-28.971 516.194 -4.35166e-20)
(-26.2268 522.309 -1.62188e-18)
(-23.6119 527.378 3.96794e-19)
(-21.1928 531.747 0)
(-19.0041 535.569 1.98545e-19)
(-17.0553 538.932 -9.8908e-20)
(-15.3438 541.9 -1.95205e-19)
(-13.8646 544.526 1.96956e-19)
(-12.6082 546.858 0)
(-11.5665 548.944 -9.72212e-20)
(-10.7351 550.824 4.84163e-19)
(-10.1126 552.54 -1.96269e-19)
(-9.70595 554.132 -1.94189e-19)
(-9.52342 555.637 -1.85095e-22)
(-9.58907 557.095 3.58015e-22)
(-9.93481 558.552 1.91273e-19)
(-10.6056 560.055 -7.65909e-19)
(-11.6608 561.654 1.94083e-19)
(-13.1734 563.406 2.39588e-21)
(-15.2291 565.374 -5.09781e-20)
(-17.9207 567.622 -3.2431e-19)
(-21.3415 570.212 2.63109e-21)
(-25.5746 573.203 -7.42099e-19)
(-30.6826 576.639 -7.30387e-19)
(-36.6718 580.534 1.46075e-18)
(-43.5206 584.886 0)
(-51.1375 589.652 0)
(-59.35 594.749 2.10401e-18)
(-67.9704 600.086 -2.86109e-18)
(-76.7462 605.534 8.03837e-20)
(-85.3971 610.964 -1.40904e-18)
(-93.6872 616.27 6.63332e-18)
(-101.38 621.364 -1.59393e-17)
(-108.323 626.207 1.59821e-17)
(-114.381 630.786 -7.69519e-18)
(-119.45 635.125 2.05674e-17)
(-123.47 639.296 -1.02866e-17)
(-126.377 643.393 -1.26008e-18)
(-128.105 647.506 5.75472e-22)
(-128.48 651.763 -2.05586e-17)
(-127.496 656.311 3.88039e-17)
(-125.044 661.279 -9.64725e-19)
(-121.129 666.74 -1.92829e-17)
(-115.693 672.76 1.83139e-17)
(-108.824 679.346 -3.6997e-17)
(-100.671 686.424 1.90958e-17)
(-91.5319 693.842 1.85256e-17)
(-81.7145 701.409 -1.79323e-17)
(-71.4451 708.976 0)
(-61.0694 716.345 0)
(-50.9909 723.256 4.07982e-18)
(-41.3436 729.635 0)
(-32.1837 735.471 1.61272e-17)
(-23.7383 740.636 -1.63991e-17)
(-16.01 745.139 7.96876e-18)
(-34.0439 496.38 0)
(-8.98298 749.026 -1.19668e-17)
(-3.94203 754.816 -3.83136e-18)
(-1.26624 769.033 -7.63584e-18)
(3.16016 761.368 -8.45478e-20)
(-5.51473 768.297 9.57456e-18)
(6.36433 765.427 -1.54691e-17)
(-10.2666 767.152 0)
(6.78782 767.786 0)
(-15.3433 765.697 -4.05309e-20)
(5.26257 768.961 -3.84322e-18)
(-24.1916 762.153 -3.90124e-18)
(-20.628 763.985 3.92033e-18)
(2.30228 769.241 -1.5309e-17)
(33.0492 477.313 -6.98602e-19)
(27.3173 475.762 7.13371e-20)
(21.5601 474.235 0)
(15.8152 472.863 7.89023e-20)
(10.0992 471.766 7.86697e-19)
(4.41801 471.035 1.05645e-18)
(-1.24452 470.736 -4.60087e-19)
(-6.90423 470.899 -1.88264e-19)
(-12.5812 471.532 -4.07171e-19)
(-18.2738 472.576 -6.60241e-19)
(-23.9726 473.901 2.54522e-18)
(-29.6685 475.394 -1.58884e-18)
(-35.3143 476.932 0)
(-39.3666 495.849 0)
(-36.7623 506.762 3.9329e-19)
(-33.7742 514.45 -8.21192e-19)
(-30.737 520.553 0)
(-27.8185 525.744 0)
(-25.0927 530.304 2.0057e-19)
(-22.604 534.35 -9.78988e-20)
(-20.3746 537.952 9.85233e-20)
(-18.4117 541.16 0)
(-16.7148 544.025 9.85396e-20)
(-15.2828 546.593 -4.87347e-20)
(-14.1141 548.912 4.9099e-20)
(-13.2117 551.029 0)
(-12.5908 552.992 0)
(-12.2584 554.842 9.67417e-20)
(-12.2455 556.63 -9.65693e-20)
(-12.5944 558.411 2.41422e-19)
(-13.3588 560.239 -1.43796e-19)
(-14.6068 562.177 1.20087e-19)
(-16.4213 564.29 -2.40083e-20)
(-18.8928 566.646 1.87181e-19)
(-22.115 569.313 -1.91188e-19)
(-26.17 572.349 3.78097e-19)
(-31.1209 575.805 7.6061e-19)
(-36.9882 579.701 3.63007e-19)
(-43.7454 584.034 0)
(-51.2968 588.762 -2.52533e-18)
(-59.4962 593.809 2.15795e-18)
(-68.1501 599.082 2.78592e-18)
(-77.0067 604.447 1.30409e-18)
(-85.8078 609.781 -3.49433e-18)
(-94.325 614.971 7.33538e-20)
(-102.333 619.919 0)
(-109.678 624.558 -2.67785e-18)
(-116.251 628.861 -1.04377e-17)
(-121.976 632.815 7.93037e-18)
(-126.828 636.455 -1.28604e-17)
(-130.789 639.825 1.03563e-17)
(-133.866 642.995 0)
(-136.04 646.044 1.98991e-17)
(-137.271 649.038 -3.85221e-17)
(-137.537 652.098 2.11748e-17)
(-136.755 655.371 0)
(-134.846 658.952 -1.88594e-17)
(-131.72 662.952 1.94585e-17)
(-127.27 667.485 -1.88473e-17)
(-121.471 672.615 3.74509e-17)
(-114.324 678.366 -1.57186e-18)
(-105.978 684.674 -1.86534e-17)
(-96.5753 691.449 0)
(-86.3295 698.552 -1.73488e-17)
(-75.6634 705.721 -1.55259e-18)
(-64.8569 712.769 3.44374e-17)
(-54.0845 719.595 -1.72886e-17)
(-43.6721 725.991 1.43009e-17)
(-33.7729 731.876 -3.31906e-17)
(-24.501 737.189 1.23627e-17)
(-15.9525 741.881 -8.03021e-18)
(-2.65613 752.309 0)
(-8.19158 745.923 8.14405e-18)
(-40.8651 478.386 0)
(-26.0178 762.057 0)
(-29.3834 759.978 3.91965e-18)
(-26.9815 759.799 -1.57881e-17)
(-24.2344 759.368 -1.98741e-18)
(-21.1178 758.685 -1.98969e-18)
(-17.5428 757.69 1.9554e-18)
(-13.4366 756.299 4.61853e-20)
(-8.72992 754.463 -9.53965e-19)
(-3.37202 752.162 4.01284e-18)
(2.68433 749.343 -8.03681e-18)
(9.48359 745.967 3.02274e-18)
(17.0534 742.004 -2.06543e-18)
(25.393 737.44 4.13548e-18)
(34.4682 732.286 -1.9306e-18)
(44.1987 726.579 1.07788e-18)
(54.4584 720.391 -1.05899e-18)
(65.066 713.83 0)
(75.7922 707.038 0)
(86.3771 700.182 1.18844e-18)
(96.54 693.445 -1.12809e-18)
(106.016 686.999 7.09171e-20)
(114.58 680.99 0)
(122.078 675.514 -3.85597e-20)
(128.427 670.617 0)
(133.615 666.297 3.08849e-18)
(137.633 662.524 -7.63563e-19)
(140.56 659.23 0)
(142.498 656.294 -6.29176e-19)
(143.558 653.631 0)
(143.783 651.13 -3.01228e-19)
(143.259 648.728 -2.50761e-20)
(142.007 646.341 0)
(139.965 643.841 0)
(137.153 641.179 -6.52228e-19)
(133.579 638.3 0)
(129.22 635.149 0)