/*--------------------------------*- C++ -*----------------------------------*\
| =========                 |                                                 |
| \\      /  F ield         | OpenFOAM: The Open Source CFD Toolbox           |
|  \\    /   O peration     | Version:  2212                                  |
|   \\  /    A nd           | Website:  www.openfoam.com                      |
|    \\/     M anipulation  |                                                 |
\*---------------------------------------------------------------------------*/
FoamFile
{
    version     2.0;
    format      ascii;
    arch        "LSB;label=32;scalar=64";
    class       volScalarField;
    location    "0.0486";
    object      p;
}
// * * * * * * * * * * * * * * * * * * * * * * * * * * * * * * * * * * * * * //

dimensions      [1 -1 -2 0 0 0 0];

internalField   nonuniform List<scalar> 
31661
(
504.063
39.1668
41.2667
40.1006
39.2738
41.1373
40.0788
39.4209
41.0949
40.1032
475.182
54.3331
684.19
320.573
459.884
446.832
473.334
469.367
57.052
436.593
79.4439
80.2634
244.404
410.378
42.7598
79.4687
240.631
209.662
54.8665
58.4092
402.843
95.9042
95.9209
63.5547
82.0871
386.369
65.6115
383.844
226.639
93.7023
96.7297
38.2663
361.45
98.8401
102.166
59.347
100.36
81.0515
65.1972
258.676
94.5083
245.128
62.3291
77.6627
191.445
54.1698
63.7495
68.8758
63.8849
57.6679
57.5913
56.5672
92.4283
34.6031
73.0884
389.713
615.586
58.2454
54.114
49.9425
51.79
45.777
42.1686
40.0296
37.7803
36.1404
34.6052
33.4424
32.4149
31.6324
30.974
30.4835
30.0934
29.8175
29.915
30.2082
30.6132
31.1285
31.801
32.6131
33.6401
34.8344
36.3252
38.0104
40.0889
42.3742
45.0333
47.9474
50.7727
54.2633
58.0753
62.0559
65.9374
69.7236
69.7163
74.3868
73.8413
78.7863
77.9482
82.8378
81.8233
86.4708
85.3767
89.6492
88.5571
92.368
91.3384
94.6524
93.7251
96.5466
95.7422
98.1024
97.4256
99.3741
98.8176
100.414
99.9644
101.265
100.907
101.967
101.684
102.551
102.327
103.04
102.863
103.454
103.314
103.809
103.697
104.118
104.026
104.39
104.315
104.634
104.57
104.855
104.801
105.06
105.014
105.255
105.215
105.443
105.409
105.63
105.6
105.82
105.795
106.018
105.996
106.229
106.211
106.457
106.443
106.709
106.698
106.991
106.983
107.308
107.304
107.669
107.67
107.713
107.346
107.024
106.739
106.484
106.252
106.038
105.837
105.644
105.454
105.263
105.065
104.857
104.631
104.383
104.104
103.788
103.422
102.995
102.489
101.884
101.153
100.266
99.182
97.8569
96.2398
94.2777
91.9214
89.1322
85.8874
82.1912
78.0705
73.5562
68.6544
63.7973
58.6629
53.9942
49.6354
46.0735
42.9947
40.4458
38.2301
36.4356
34.8823
33.6432
32.596
29.7029
29.6175
31.7744
31.1025
30.5909
30.1886
29.897
29.5111
29.5825
29.8011
29.9644
30.2162
30.5584
31.0117
31.5885
32.3172
33.2048
34.2852
35.5633
37.0743
38.8317
40.8547
43.1442
45.7235
48.5213
51.4427
54.5985
57.9743
61.4163
64.891
68.512
72.1921
75.8566
79.4222
82.8244
86.0012
88.9115
91.5168
93.8046
95.7755
97.4484
98.8506
100.015
100.978
101.772
102.427
102.971
103.426
103.811
104.142
104.431
104.688
104.922
105.14
105.348
105.553
105.759
105.972
106.197
106.439
106.705
107.001
107.333
107.711
108.141
108.087
108.084
108.133
108.234
107.799
107.419
107.085
106.788
106.522
106.28
106.056
105.845
105.642
105.441
105.239
105.028
104.804
104.559
104.287
103.979
103.624
103.208
102.715
102.125
101.413
100.548
99.4968
98.2192
96.6734
94.8203
92.6233
90.0578
87.1147
83.8052
80.1579
76.2181
72.0469
67.7246
63.3329
58.7864
54.5779
50.6447
47.173
44.1139
41.5049
39.2149
37.2916
35.6532
34.297
33.1737
32.2659
31.5341
29.6869
30.9573
30.5058
30.1666
29.6947
29.5195
29.5699
29.4567
29.6735
29.961
30.0241
30.1769
30.408
30.7282
31.1497
31.6906
32.3642
33.1943
34.1921
35.3815
36.7722
38.3821
40.207
42.2617
44.522
47.0057
49.5946
52.2466
55.0055
57.8435
60.721
63.6037
66.623
69.7306
72.8845
76.0612
79.2202
82.3297
85.3265
88.153
90.7556
93.0986
95.1626
96.943
98.4549
99.7224
100.772
101.637
102.35
102.938
103.427
103.839
104.191
104.497
104.771
105.02
105.256
105.483
105.71
105.942
106.185
106.446
106.73
107.045
107.397
107.795
108.248
108.766
108.635
108.567
108.561
108.616
108.734
108.915
108.388
107.929
107.527
107.172
106.856
106.572
106.312
106.071
105.843
105.621
105.401
105.176
104.939
104.684
104.401
104.081
103.711
103.276
102.758
102.134
101.378
100.46
99.3457
98
96.3895
94.4859
92.2736
89.748
86.9277
83.8456
80.5503
77.0919
73.526
69.9006
66.2471
62.538
58.7955
55.2536
51.8057
48.6137
45.6822
43.0801
40.7377
38.7029
36.9285
35.4361
34.1864
33.1588
32.3135
31.6327
29.922
31.0912
30.6717
29.5006
29.9256
29.6609
29.7665
29.5106
29.4406
29.9207
30.2631
30.2889
30.3672
30.5115
30.7421
31.0607
31.4798
32.0139
32.6785
33.4903
34.466
35.6177
36.9545
38.4849
40.2027
42.0953
44.1515
46.3255
48.6101
50.8932
53.162
55.4397
57.7013
59.9664
62.2375
64.6069
67.0846
69.6704
72.3694
75.1743
78.0623
80.9914
83.9049
86.7309
89.4041
91.872
94.0939
96.0474
97.7299
99.1523
100.338
101.318
102.125
102.789
103.339
103.799
104.191
104.532
104.837
105.116
105.382
105.641
105.903
106.174
106.461
106.772
107.114
107.495
107.924
108.409
108.963
109.596
109.361
109.204
109.121
109.111
109.174
109.31
109.521
109.811
109.163
108.599
108.106
107.672
107.288
106.944
106.633
106.348
106.081
105.826
105.575
105.323
105.061
104.78
104.471
104.121
103.715
103.237
102.663
101.969
101.127
100.104
98.8668
97.3844
95.631
93.593
91.27
88.6815
85.8668
82.8856
79.7987
76.676
73.5638
70.5025
67.5103
64.5725
61.6465
58.7192
55.8747
53.0192
50.2483
47.5798
45.0813
42.7481
40.6243
38.7187
37.0744
35.6602
34.4608
33.4533
32.6243
31.9556
30.3559
31.4182
29.4996
29.704
30.1312
30.2577
29.9833
29.6687
29.4922
29.4486
30.3268
30.6593
30.6658
30.7058
30.7783
30.9424
31.1871
31.5212
31.9583
32.5101
33.1927
34.0199
35.005
36.1584
37.4851
38.9857
40.6488
42.4499
44.3574
46.3353
48.3397
50.3318
52.2372
54.0762
55.8524
57.5834
59.2878
60.9976
62.7865
64.6835
66.7122
68.8951
71.2457
73.7649
76.4355
79.222
82.0639
84.9013
87.6614
90.2706
92.6698
94.8251
96.7112
98.3273
99.6901
100.824
101.761
102.533
103.172
103.705
104.159
104.552
104.904
105.229
105.539
105.845
106.156
106.482
106.83
107.209
107.629
108.097
108.626
109.226
109.909
110.691
110.322
110.046
109.86
109.761
109.747
109.819
109.976
110.221
110.557
110.181
109.48
108.867
108.329
107.854
107.431
107.051
106.704
106.383
106.079
105.784
105.491
105.188
104.867
104.514
104.115
103.653
103.105
102.447
101.651
100.685
99.5154
98.1113
96.447
94.509
92.2941
89.825
87.1397
84.2947
81.3613
78.4201
75.5296
72.7473
70.1025
67.6056
65.2426
62.981
60.7739
58.5801
56.4001
54.1661
51.8996
49.614
47.3429
45.1168
42.9833
40.9986
39.208
37.609
36.205
34.9991
33.9919
33.1501
31.0034
32.456
110.986
31.899
29.5868
30.6882
29.7943
29.9858
30.0814
29.6501
30.7164
30.4235
29.4926
29.5455
30.8143
31.1515
31.1152
31.1308
31.1563
31.2748
31.4571
31.7264
32.0896
32.5584
33.1468
33.8672
34.7334
35.7536
36.9372
38.2842
39.7861
41.4258
43.17
44.9797
46.8125
48.615
50.3591
51.9995
53.5103
54.924
56.2409
57.5372
58.7526
60.0031
61.3181
62.7299
64.2671
65.9587
67.8286
69.8946
72.1626
74.6242
77.2527
80.0058
82.824
85.6335
88.3613
90.9343
93.2966
95.4084
97.2506
98.8268
100.153
101.258
102.172
102.931
103.565
104.103
104.572
104.991
105.379
105.751
106.121
106.499
106.898
107.327
107.797
108.317
108.901
109.559
110.306
111.157
112.13
111.588
111.159
110.836
110.618
110.502
110.485
110.567
110.748
111.031
111.417
111.911
111.513
110.637
109.87
109.197
108.603
108.075
107.602
107.173
106.779
106.408
106.053
105.7
105.341
104.961
104.545
104.076
103.532
102.888
102.115
101.182
100.055
98.7016
97.0953
95.2189
93.0697
90.6702
88.054
85.2792
82.4214
79.549
76.7376
74.0532
71.5341
69.2076
67.0721
65.1159
63.3138
61.6254
60.0075
58.4156
56.8192
55.1538
53.4062
51.5661
49.6358
47.6417
45.6262
43.6524
41.774
40.0131
38.4119
37.0062
35.7847
34.7236
33.8428
33.1086
112.517
32.5125
31.4635
29.6798
30.4617
29.9179
29.9327
30.2148
29.6396
30.562
29.5822
31.2443
30.9478
29.6436
113.242
112.62
112.124
111.751
111.498
111.362
111.342
111.436
111.644
111.968
112.412
112.977
113.667
113.238
112.143
111.181
110.335
109.589
108.926
108.333
107.797
107.305
106.847
106.408
105.978
105.54
105.08
104.579
104.014
103.36
102.588
101.666
100.559
99.2334
97.6612
95.8238
93.7163
91.3554
88.7772
86.04
83.2137
80.3724
77.5943
74.9447
72.4668
70.1932
68.1337
66.2845
64.6326
63.1515
61.8119
60.5792
59.4179
58.3074
57.1508
55.9635
54.6821
53.2918
51.7642
50.1059
48.3318
46.4931
44.6324
42.7961
41.0673
39.4734
38.0169
36.7372
35.6228
34.669
33.8721
32.0335
33.2214
114.486
31.3695
31.7174
31.6208
31.6201
31.6394
31.7033
31.8261
32.0437
32.3482
32.7514
33.2654
33.9031
34.6768
35.5977
36.6724
37.9047
39.2898
40.813
42.4487
44.1593
45.8983
47.6145
49.2635
50.805
52.225
53.4993
54.6428
55.6751
56.6359
57.5367
58.4309
59.3043
60.2509
61.2766
62.4094
63.6751
65.1
66.708
68.5183
70.5439
72.7866
75.2333
77.8549
80.6049
83.4177
86.2225
88.9388
91.4963
93.838
95.9251
97.7438
99.2981
100.608
101.703
102.616
103.383
104.036
104.604
105.114
105.587
106.043
106.497
106.966
107.461
107.996
108.583
109.235
109.965
110.79
111.724
112.786
113.993
31.1283
29.8266
32.6928
31.6718
30.3267
30.0725
29.9021
30.3781
29.6922
30.7264
29.6754
31.1118
29.7969
31.8195
31.5277
115.433
114.076
112.877
111.817
110.879
110.044
109.297
108.623
108.006
107.432
106.884
106.35
105.81
105.244
104.629
103.938
103.142
102.206
101.095
99.7756
98.2157
96.3946
94.3062
91.963
89.4007
86.675
83.8581
81.0246
78.2566
75.6136
73.1448
70.8875
68.8559
67.0434
65.4466
64.0422
62.8064
61.7152
60.7404
59.8578
59.0606
58.2694
57.4641
56.6353
55.7366
54.7352
53.6039
52.3202
50.8764
49.2917
47.5838
45.8184
44.0581
42.3272
40.7038
39.1871
37.8398
36.6416
35.6097
34.7372
34.0294
32.2108
32.1534
32.1608
32.2026
32.2778
32.4502
32.7053
33.0535
33.5061
34.0757
34.7743
35.6132
36.6011
37.7425
39.0351
40.4684
42.0211
43.6605
45.343
47.019
48.6367
50.1538
51.5371
52.7719
53.8583
54.8004
55.6265
56.3563
57.0336
57.6524
58.3083
58.93
59.5734
60.29
61.1029
62.0208
63.0687
64.2685
65.6441
67.2175
69.006
71.0199
73.2601
75.711
78.3431
81.1042
83.9299
86.7428
89.4643
92.0217
94.3579
96.4392
98.2525
99.8055
101.12
102.227
103.163
103.964
104.664
105.293
105.879
106.445
107.011
107.597
108.217
108.888
109.625
110.444
111.362
112.394
113.559
114.876
116.365
115.369
114.516
113.807
113.24
112.812
112.521
112.364
112.339
112.446
112.685
113.056
113.561
114.204
114.986
115.907
32.3114
116.967
32.2856
33.4387
31.9765
30.8878
29.9883
118.697
117.522
116.493
115.615
114.89
114.317
113.896
113.624
113.503
113.532
113.712
114.044
114.532
115.175
115.976
116.934
118.047
31.3999
30.2564
30.2556
32.448
32.837
32.7417
32.7306
32.7532
32.792
32.9259
33.1399
33.4407
33.8421
34.3533
34.9879
35.7573
36.6709
37.735
38.9499
40.3086
41.7936
43.377
45.019
46.6723
48.2852
49.8092
51.2057
52.4511
53.5347
54.4644
55.2531
55.9204
56.4946
56.9999
57.4539
57.8878
58.2998
58.7814
59.2385
59.7303
60.2674
60.9079
61.6551
62.5181
63.5218
64.6884
66.0408
67.5999
69.3832
71.4011
73.6525
76.1227
78.7764
81.5636
84.4153
87.2523
89.9939
92.5673
94.9179
97.0126
98.8426
100.417
101.761
102.909
103.898
104.768
105.553
106.285
106.995
107.705
108.442
109.222
110.066
110.993
112.02
113.166
114.449
115.888
117.502
119.308
32.988
31.9765
29.8979
30.5696
29.7811
30.9223
29.8246
31.3048
29.9608
31.7162
32.1512
32.9484
32.6162
34.1281
33.6142
120.016
118.166
116.51
115.032
113.717
112.544
111.497
110.557
109.708
108.931
108.208
107.52
106.852
106.177
105.472
104.709
103.856
102.878
101.738
100.399
98.8273
97.0003
94.9083
92.5621
89.9944
87.2601
84.4303
81.5858
78.8025
76.1522
73.6782
71.422
69.3896
67.5928
66.0173
64.6455
63.4565
62.4266
61.5333
60.7542
60.0783
59.4805
58.9127
58.3266
57.7945
57.2251
56.6148
55.9228
55.1252
54.1939
53.1027
51.8428
50.4091
48.8407
47.1743
45.4329
43.7163
42.0491
40.5045
39.0606
37.7797
36.6747
35.7282
34.9287
34.2881
120.643
32.6252
33.7479
96.1459
122.078
30.7268
30.1874
119.353
118.217
117.241
116.428
115.783
115.307
115.001
114.864
114.898
115.103
115.48
116.029
116.753
117.649
118.715
119.943
121.324
31.219
30.2305
30.4639
34.0481
33.3872
33.3317
33.3412
33.3774
33.4661
33.6365
33.8977
34.2532
34.7156
35.2949
36.004
36.8531
37.8494
38.9958
40.2883
41.7136
43.248
44.8562
46.4935
48.1093
49.6535
51.0819
52.3636
53.4818
54.4356
55.2337
55.8972
56.4447
56.9009
57.2864
57.625
57.9319
58.2148
58.5
58.7759
59.1206
59.4749
59.8499
60.2709
60.7575
61.347
62.053
62.8831
63.8619
65.0114
66.3544
67.9128
69.7042
71.7384
74.0143
76.5151
79.2065
82.0339
84.9275
87.8056
90.5857
93.1961
95.5832
97.7167
99.5894
101.215
102.623
103.849
104.934
105.918
106.84
107.732
108.63
109.558
110.539
111.598
112.756
114.034
115.451
117.024
118.77
120.705
122.842
31.7579
29.9666
30.7858
33.35
32.3702
29.9103
31.1404
29.9858
31.5244
30.1655
31.932
32.3645
32.8155
33.7691
122.824
124.365
35.0209
35.1325
123.644
121.469
119.495
117.711
116.104
114.659
113.358
112.185
111.119
110.142
109.232
108.364
107.522
106.674
105.79
104.837
103.778
102.573
101.183
99.5714
97.712
95.5923
93.2196
90.6247
87.8608
84.9994
82.1211
79.3064
76.624
74.1303
71.8565
69.8189
68.0175
66.451
65.0934
63.9288
62.9295
62.079
61.3458
60.7267
60.2152
59.7539
59.3315
58.8887
58.525
58.1603
57.7876
57.379
56.9154
56.377
55.7353
54.9605
54.0294
52.9227
51.6376
50.1907
48.584
46.9139
45.2197
43.5234
41.8941
40.4103
39.053
37.8521
36.8073
35.9431
35.1955
34.6115
34.8029
34.2334
33.0403
34.1339
90.6446
30.6602
30.4023
121.427
120.184
119.107
118.206
117.489
116.958
116.615
116.462
116.501
116.732
117.155
117.769
118.574
119.566
120.736
122.075
123.568
125.192
31.1032
30.227
30.6952
40.2268
33.9729
33.977
34.0046
34.0479
34.1917
34.4186
34.735
35.1531
35.6844
36.3413
37.1328
38.0686
39.1532
40.3851
41.7547
43.2426
44.8179
46.4395
48.0589
49.6249
51.0906
52.4191
53.5873
54.5872
55.4236
56.1112
56.6696
57.1215
57.4874
57.7872
58.0385
58.2549
58.4494
58.6361
58.8169
58.9999
59.1862
59.4078
59.6916
59.9693
60.2899
60.6631
61.1183
61.6778
62.3589
63.1708
64.1381
65.2831
66.6297
68.2003
70.0116
72.0752
74.3889
76.9365
79.6814
82.568
85.5227
88.4627
91.3059
93.9797
96.4327
98.6377
100.591
102.311
103.828
105.183
106.42
107.582
108.706
109.839
111.006
112.235
113.553
114.985
116.551
118.27
120.156
122.221
124.474
126.921
31.6358
30.066
31.0245
32.1959
30.0645
31.3843
33.7783
32.8314
30.1865
31.7679
30.3824
32.1739
32.5984
33.0433
125.264
126.894
33.5013
33.9603
73.3928
34.4107
126.032
127.798
125.324
123.041
120.944
119.028
117.281
115.692
114.246
112.922
111.701
110.559
109.467
108.405
107.338
106.226
105.032
103.714
102.23
100.54
98.6139
96.4352
94.008
91.3599
88.5427
85.6271
82.6952
79.8285
77.0993
74.5625
72.255
70.194
68.3806
66.805
65.4504
64.2915
63.3084
62.4816
61.7829
61.2036
60.7326
60.3262
59.9711
59.6394
59.3229
59.0798
58.8346
58.5976
58.3504
58.0838
57.7845
57.435
57.0089
56.4882
55.8398
55.0431
54.072
52.9191
51.5738
50.0815
48.479
46.7817
45.0739
43.444
41.8647
40.4293
39.1202
38.0158
37.0339
36.2194
35.5372
35.0079
370.543
33.517
34.5885
85.2766
60.1977
30.6246
30.6448
123.77
122.429
121.259
120.275
119.485
118.896
118.517
118.349
118.393
118.65
119.119
119.798
120.682
121.764
123.032
124.471
126.058
127.768
129.569
31.0755
30.3013
30.9475
61.1184
40.7008
34.6178
34.6432
34.6914
34.7972
34.9878
35.2719
35.6533
36.1435
36.7536
37.497
38.3786
39.4075
40.5839
41.9014
43.3441
44.8858
46.4891
48.1083
49.6929
51.1941
52.5708
53.7941
54.8499
55.7376
56.468
57.0581
57.5293
57.9024
58.1969
58.4307
58.6178
58.7701
58.8979
59.0085
59.1116
59.2134
59.3183
59.4264
59.5499
59.6817
59.8713
60.096
60.3367
60.6258
60.9697
61.4037
61.9461
62.6154
63.4215
64.3898
65.5431
66.9058
68.5007
70.347
72.4555
74.8245
77.4368
80.255
83.2225
86.2641
89.2957
92.2346
95.0095
97.5705
99.8934
101.979
103.848
105.537
107.089
108.552
109.964
111.387
112.847
114.369
115.986
117.724
119.602
121.633
123.827
126.188
128.719
131.423
31.5711
30.2027
31.2849
32.1252
30.251
31.6484
32.6963
30.4013
32.0344
34.276
33.3554
30.6289
32.439
32.8621
127.994
129.689
33.2979
33.7433
34.1932
34.6515
128.64
130.47
129.635
127.087
124.705
122.488
120.436
118.541
116.793
115.176
113.671
112.251
110.881
109.546
108.206
106.808
105.314
103.678
101.857
99.8159
97.5353
95.0148
92.2791
89.3775
86.3803
83.3696
80.4286
77.6313
75.0348
72.6761
70.5732
68.7281
67.1306
65.7628
64.6018
63.6231
62.8047
62.1218
61.5634
61.1182
60.7526
60.443
60.1777
59.9068
59.7054
59.542
59.385
59.2339
59.0859
58.9324
58.7682
58.5845
58.3646
58.0956
57.7562
57.3285
56.7858
56.1009
55.2546
54.2217
53.0064
51.6227
50.0751
48.4266
46.7572
45.0579
43.446
41.8983
40.5504
39.3021
38.2349
37.3373
36.5735
35.9624
35.4772
35.3903
34.056
35.1059
35.1303
132.355
30.6171
30.9031
126.425
125.004
123.753
122.693
121.834
121.194
120.781
120.598
120.646
120.927
121.439
122.177
123.132
124.293
125.644
127.163
128.822
130.589
132.432
134.312
31.0616
30.4012
31.2194
35.5826
35.5496
35.3471
35.342
35.4253
35.5863
35.8526
36.2085
36.666
37.2384
37.9366
38.7741
39.7521
40.8775
42.1461
43.5449
45.0519
46.6334
48.2472
49.8444
51.3754
52.7963
54.0735
55.1874
56.1321
56.914
57.5475
58.0522
58.4483
58.7563
58.993
59.1743
59.3126
59.4163
59.4959
59.5556
59.6022
59.6419
59.6775
59.7143
59.7533
59.8032
59.8704
59.9557
60.0608
60.2273
60.4136
60.6302
60.9002
61.2299
61.6516
62.1896
62.8591
63.6725
64.6533
65.8284
67.222
68.858
70.7558
72.927
75.3714
78.0718
80.9909
84.0708
87.2358
90.4007
93.4819
96.4093
99.1351
101.638
103.923
106.015
107.953
109.785
111.548
113.313
115.122
116.978
118.922
120.979
123.164
125.486
127.947
130.548
133.292
136.192
31.5541
30.3683
31.5646
32.0856
30.4596
31.9336
35.7808
32.6622
30.6448
32.3218
33.2715
30.8889
32.7271
131.063
132.79
34.8302
33.9357
33.1465
33.5789
34.0199
34.4675
34.916
131.487
133.354
135.26
134.257
131.503
128.894
126.424
124.093
121.902
119.847
117.917
116.093
114.353
112.649
110.989
109.313
107.564
105.703
103.682
101.463
99.0228
96.3565
93.4853
90.4564
87.3392
84.2158
81.171
78.2797
75.6001
73.1705
71.0082
69.1148
67.4792
66.0829
64.9028
63.9149
63.0926
62.4131
61.8634
61.432
61.086
60.801
60.567
60.348
60.1686
60.0469
59.9387
59.8476
59.7635
59.6897
59.615
59.5378
59.4515
59.3511
59.2242
59.0617
58.855
58.5829
58.2306
57.7752
57.1887
56.4483
55.535
54.4405
53.1536
51.7048
50.135
48.4528
46.7704
45.0752
43.5295
42.0352
40.7196
39.5684
38.5488
37.718
37.0221
36.4621
36.0171
34.6453
35.3727
35.6782
35.6098
137.172
30.6809
31.1829
129.453
127.981
126.675
125.559
124.651
123.968
123.525
123.327
123.378
123.679
124.224
125.006
126.014
127.232
128.638
130.205
131.9
133.691
135.541
137.417
139.286
31.1079
30.5444
31.5092
36.2071
36.2064
36.1955
36.278
36.4851
36.8128
37.247
37.7914
38.4557
39.2503
40.1873
41.2649
42.4869
43.843
45.314
46.8704
48.4734
50.0755
51.6291
53.0873
54.4134
55.5829
56.5849
57.4215
58.104
58.6498
59.0784
59.4104
59.6625
59.8524
59.9902
60.0901
60.1563
60.1965
60.2219
60.2259
60.223
60.215
60.1991
60.1824
60.1663
60.1641
60.1676
60.1798
60.2105
60.2709
60.3636
60.5151
60.6816
60.8869
61.1506
61.4804
61.8979
62.4443
63.1225
63.9585
64.9693
66.1826
67.6241
69.3186
71.288
73.5464
76.0945
78.9162
81.9749
85.2119
88.5507
91.905
95.191
98.339
101.303
104.064
106.63
109.028
111.299
113.479
115.626
117.835
120.051
122.329
124.69
127.145
129.701
132.362
135.134
138.038
141.121
31.5677
30.5621
31.8628
36.2951
35.9358
32.0814
30.6933
32.2371
32.6428
30.9031
32.629
134.565
136.276
33.2413
31.1713
33.8765
33.0355
33.4554
35.4344
34.5609
33.8857
34.3236
34.7682
35.2209
134.607
136.483
138.387
140.289
139.057
136.138
133.361
130.702
128.154
125.71
123.372
121.131
118.974
116.876
114.789
112.76
110.683
108.513
106.211
103.737
101.064
98.1829
95.1132
91.8994
88.6096
85.3272
82.1372
79.1158
76.3226
73.7949
71.55
69.5887
67.8978
66.4567
65.2412
64.2264
63.385
62.699
62.1445
61.7194
61.3778
61.1033
60.8851
60.6951
60.5361
60.4344
60.3547
60.2975
60.2628
60.2367
60.2164
60.2038
60.1854
60.1696
60.1399
60.102
60.0423
59.957
59.8406
59.6794
59.4652
59.1718
58.7883
58.2876
57.6504
56.849
55.8645
54.6968
53.356
51.8349
50.2277
48.519
46.8707
45.214
43.6708
42.2534
41.0037
39.9068
38.9903
38.194
37.5497
37.0196
36.604
35.2742
35.8926
36.2872
35.6954
142.166
30.7844
31.4776
132.961
131.489
130.175
129.045
128.116
127.413
126.955
126.749
126.802
127.109
127.665
128.463
129.488
130.72
132.133
133.696
135.379
137.148
138.967
140.809
142.648
144.464
31.2039
30.7116
31.8161
37.0164
37.0477
37.1274
37.2628
37.512
37.8786
38.3881
39.0206
39.7932
40.6969
41.7396
42.9193
44.2352
45.6705
47.1996
48.7868
50.3878
51.9555
53.4425
54.8107
56.0301
57.0864
57.9771
58.71
59.3005
59.7667
60.1289
60.4039
60.6104
60.7577
60.8636
60.9267
60.9655
60.9717
60.9664
60.9503
60.9168
60.8693
60.8153
60.7574
60.6985
60.6412
60.5885
60.5434
60.5069
60.4874
60.4909
60.5057
60.5464
60.6267
60.7714
60.9367
61.143
61.4136
61.7578
62.1879
62.7502
63.457
64.329
65.3848
66.6513
68.1611
69.9402
72.0112
74.3905
77.0818
80.0708
83.3209
86.7738
90.352
93.9679
97.5365
100.987
104.273
107.377
110.303
113.08
115.736
118.294
120.896
123.508
126.102
128.723
131.39
134.114
136.911
139.819
142.9
146.246
36.1732
31.6653
30.7808
32.178
36.3933
37.0108
32.1504
30.9459
32.5586
138.683
140.304
32.6706
31.1832
31.4675
33.2361
32.9546
33.3639
33.8594
33.7843
34.5191
34.2158
36.0758
35.223
34.6532
35.097
35.5463
138.071
139.919
141.793
143.671
145.535
143.999
140.885
137.96
135.165
132.462
129.832
127.261
124.742
122.259
119.766
117.291
114.849
112.309
109.651
106.841
103.852
100.675
97.3289
93.8568
90.3275
86.8246
83.4345
80.235
77.285
74.6223
72.2637
70.206
68.4355
66.9303
65.6646
64.6074
63.733
63.0222
62.4542
62.0188
61.6675
61.39
61.1749
60.9935
60.8424
60.7478
60.6932
60.666
60.6568
60.6556
60.6716
60.6973
60.7287
60.7608
60.7926
60.8228
60.8374
60.8424
60.8436
60.8093
60.7633
60.6824
60.5597
60.3865
60.1472
59.8261
59.4029
58.8514
58.1495
57.2784
56.2312
54.9788
53.578
52.0119
50.3982
48.7044
47.0159
45.4224
43.9371
42.6005
41.415
40.3836
39.4921
38.7346
38.1132
37.6127
37.2338
35.9421
36.005
36.171
36.9371
147.377
30.9224
31.79
137.168
135.779
134.541
133.469
132.584
131.911
131.472
131.274
131.32
131.609
132.134
132.889
133.86
135.027
136.365
137.844
139.436
141.112
142.844
144.61
146.392
148.177
149.959
36.4073
31.3369
30.9112
36.496
36.6942
32.1388
36.5607
37.0916
37.8329
37.8688
37.9243
38.09
38.3435
38.6727
39.114
39.6864
40.4072
41.2634
42.2877
43.44
44.7205
46.1222
47.6232
49.19
50.7842
52.3586
53.8664
55.2671
56.5293
57.6346
58.5757
59.3579
59.9934
60.4995
60.8951
61.1975
61.4252
61.5884
61.7056
61.7747
61.8171
61.8176
61.8099
61.7879
61.7424
61.6793
61.6054
61.5232
61.4353
61.344
61.2513
61.1596
61.0711
60.9875
60.9112
60.8464
60.797
60.7596
60.7604
60.773
60.8067
60.8869
61.0318
61.2168
61.4374
61.7306
62.1062
62.5712
63.1536
63.9016
64.8207
65.9477
67.2993
68.9061
70.8027
73.0154
75.5616
78.4471
81.6606
85.1676
88.9088
92.8053
96.766
100.701
104.537
108.221
111.729
115.061
118.235
121.251
124.19
127.143
130.055
132.897
135.726
138.572
141.505
144.606
147.985
151.732
31.7782
31.0215
32.5093
143.766
145.164
32.2579
31.2191
31.478
32.7702
32.8965
33.2976
33.3138
31.7819
33.7104
33.8835
34.134
34.5114
34.5659
35.195
35.0033
36.7412
35.9022
35.4448
35.8949
142.008
143.773
145.576
147.4
149.233
151.064
152.884
149.185
145.773
142.632
139.689
136.862
134.093
131.348
128.589
125.776
122.924
120.094
117.193
114.146
110.944
107.57
104.02
100.315
96.5019
92.6529
88.8546
85.1962
81.7563
78.5955
75.7503
73.2344
71.0429
69.1606
67.564
66.2188
65.0965
64.1783
63.4273
62.8411
62.3752
61.9971
61.701
61.476
61.282
61.1322
61.0422
60.9967
60.9788
60.9745
60.9934
61.0337
61.0827
61.1426
61.209
61.278
61.349
61.4197
61.4864
61.5443
61.5946
61.6247
61.6394
61.6449
61.6272
61.5714
61.4807
61.3433
61.1506
60.8824
60.5237
60.0508
59.4432
58.6814
57.7351
56.6157
55.3111
53.8684
52.2743
50.6142
48.937
47.3141
45.7621
44.3567
43.087
41.917
40.9152
40.0432
39.3315
38.7229
38.2312
37.859
36.6459
37.5774
37.4072
36.3593
40.1459
31.0916
38.4476
38.3641
36.8269
36.9901
36.7422
37.203
37.8294
36.9767
37.3743
37.9239
37.2296
37.5701
38.0451
37.8055
37.5172
38.2182
37.3193
38.4159
38.064
37.8222
32.1167
142.481
141.327
140.309
139.435
138.719
138.174
137.817
137.653
137.683
137.906
138.323
138.929
139.717
140.677
141.792
143.04
144.407
145.872
147.417
149.025
150.682
152.379
154.104
155.844
38.7056
39.2745
39.8875
40.6185
41.4857
42.4594
43.5829
44.8565
46.2647
47.7561
49.3432
50.9795
52.6268
54.2185
55.7182
57.0679
58.2485
59.2438
60.068
60.7341
61.2547
61.6568
61.9566
62.1769
62.3307
62.4369
62.4961
62.5217
62.5174
62.5025
62.4661
62.4053
62.3329
62.2503
62.1586
62.0622
61.9607
61.8586
61.7575
61.6595
61.5659
61.4802
61.4034
61.3409
61.2919
61.2675
61.2721
61.2926
61.3431
61.4436
61.6006
61.8296
62.0858
62.4117
62.8305
63.3509
63.9868
64.7834
65.778
66.9799
68.4382
70.168
72.2002
74.5696
77.2954
80.3827
83.8194
87.5707
91.5743
95.747
99.9934
104.219
108.343
112.308
116.083
119.659
123.039
126.232
129.34
132.415
135.421
138.338
141.258
144.264
147.471
150.956
154.683
31.5004
31.1333
32.4769
146.659
148.238
149.883
151.576
153.302
155.041
156.769
158.458
38.9152
38.7989
38.6958
38.6915
38.7138
38.7833
38.929
39.1696
39.5033
39.9407
40.4837
41.1507
41.9611
42.9239
44.0371
45.2838
46.6626
48.1386
49.6862
51.2679
52.8409
54.3619
55.7878
57.0847
58.2309
59.2174
60.0454
60.7244
61.2702
61.7003
62.0323
62.2838
62.4668
62.5984
62.6795
62.7287
62.7331
62.7253
62.7021
62.6536
62.583
62.4985
62.4028
62.2982
62.187
62.071
61.9518
61.8313
61.7113
61.5936
61.48
61.3729
61.2744
61.1861
61.1137
61.0587
61.0234
61.0259
61.0452
61.0824
61.1824
61.3371
61.5647
61.8207
62.1464
62.5666
63.0908
63.7331
64.5298
65.5276
66.74
68.2083
69.9566
72.014
74.4132
77.1803
80.3223
83.8284
87.6659
91.7735
96.067
100.448
104.818
109.089
113.198
117.11
120.81
124.3
127.589
130.768
133.914
136.991
139.992
143.031
146.207
149.67
153.489
157.577
31.9415
31.2836
31.5089
32.4058
32.8561
33.2504
32.8988
31.7905
150.399
151.342
33.6571
33.4234
32.1096
34.0744
33.9879
34.5016
34.5743
34.9346
35.1927
35.3721
35.8822
35.815
36.5942
36.2639
37.3817
36.7191
37.1885
39.0875
38.6504
37.6612
39.7736
39.2822
31.2896
42.0555
39.1369
38.3511
38.1532
32.4588
39.6084
39.791
40.3007
41.0638
41.9753
43.0083
44.1573
45.4229
46.7878
48.2659
49.8677
51.4921
53.1099
54.7059
56.2047
57.5863
58.8111
59.8652
60.7441
61.4566
62.0218
62.4647
62.7993
63.0507
63.2258
63.3502
63.4194
63.46
63.4571
63.4389
63.4048
63.3432
63.2659
63.1738
63.0698
62.9579
62.8397
62.7161
62.5896
62.4613
62.3342
62.2096
62.0897
61.9757
61.8709
61.7765
61.6943
61.6317
61.5833
61.5764
61.5867
61.6206
61.6944
61.819
62.0043
62.2663
62.5876
62.9688
63.4513
64.0508
64.7777
65.6579
66.7391
68.0666
69.6562
71.5601
73.7976
76.3964
79.3883
82.7814
86.561
90.6916
95.1065
99.7132
104.404
109.067
113.608
117.952
122.057
125.905
129.494
132.854
136.081
139.284
142.467
145.673
149.039
152.658
156.43
160.07
149.596
148.926
148.375
147.929
147.582
147.329
147.163
147.082
147.09
147.18
147.36
147.646
148.045
148.562
149.202
149.972
150.88
151.917
153.078
154.349
155.72
157.17
158.672
160.192
161.685
31.6964
31.3798
39.9426
48.6297
31.5641
32.1265
32.8294
33.2176
39.6733
39.5879
39.5914
39.619
39.6635
39.8153
40.0481
40.3704
40.7976
41.3364
41.9935
42.7767
43.6959
44.7513
45.9782
47.3111
48.7526
50.2796
51.8465
53.414
54.9373
56.3774
57.7003
58.8807
59.9056
60.7736
61.493
62.0765
62.5407
62.903
63.1797
63.3847
63.5323
63.629
63.6871
63.7017
63.6954
63.6739
63.6281
63.5551
63.4657
63.3626
63.2483
63.1251
62.9946
62.8583
62.718
62.575
62.4309
62.2873
62.1459
62.0082
61.8763
61.7519
61.6374
61.5351
61.4466
61.3783
61.3264
61.3148
61.3249
61.356
61.4305
61.5553
61.7416
62.0042
62.3332
62.7227
63.2127
63.8212
64.5613
65.4568
66.5479
67.8855
69.497
71.4188
73.6925
76.3367
79.3807
82.8418
86.7061
90.9389
95.4739
100.216
105.052
109.865
114.552
119.031
123.255
127.204
130.881
134.312
137.584
140.868
144.184
147.59
151.24
155.194
159.264
163.099
32.5852
31.8163
152.413
153.609
154.911
156.3
157.741
159.201
160.632
161.983
163.203
159.411
159.515
39.5198
39.7475
38.9085
33.6193
33.0696
32.1168
34.0323
33.5806
32.4529
34.4545
34.1144
34.8848
34.6827
35.3205
35.2916
35.7596
35.922
36.2021
36.6175
36.6509
37.4034
37.1066
40.2679
37.5615
38.0277
31.514
41.0599
41.2615
31.6461
31.9184
33.196
159.414
159.578
159.837
160.12
160.396
160.636
160.808
160.885
160.864
160.733
160.534
160.307
160.057
159.813
159.641
159.595
159.678
159.932
160.364
160.972
161.737
162.625
163.59
164.571
165.502
166.311
92.8289
40.513
40.5324
40.5623
40.626
40.7661
40.9973
41.3069
41.719
42.2441
42.8876
43.6618
44.5617
45.6066
46.7607
48.0862
49.4828
50.9763
52.5205
54.0763
55.5968
57.0445
58.3825
59.5867
60.6426
61.5459
62.3007
62.9187
63.4155
63.8072
64.1094
64.3373
64.5022
64.6165
64.6849
64.7135
64.7097
64.6917
64.6529
64.5808
64.4902
64.3836
64.2639
64.1333
63.9935
63.8461
63.6925
63.5342
63.3725
63.2089
63.0447
62.8814
62.7205
62.5634
62.4119
62.2675
62.1324
62.0079
61.8978
61.8035
61.7279
61.6712
61.6557
61.6646
61.6963
61.7613
61.8878
62.0582
62.2937
62.6133
63.0387
63.5362
64.1269
64.8493
65.7258
66.7734
68.0201
69.5085
71.3028
73.4414
75.9616
78.904
82.2723
86.0959
90.3559
95.011
99.9835
105.163
110.416
115.606
120.61
125.338
129.746
133.821
137.609
141.179
144.703
148.503
152.556
156.758
160.83
164.36
166.847
32.3474
31.8628
40.4754
40.8046
41.2549
41.7777
42.5217
43.4868
44.6553
45.9745
47.4023
48.896
50.4598
52.0307
53.6717
55.299
56.8148
58.2131
59.4571
60.5412
61.4645
62.2228
62.8341
63.3135
63.6814
63.9605
64.1578
64.3043
64.3869
64.4433
64.4419
64.429
64.3984
64.338
64.2584
64.1633
64.0536
63.9349
63.805
63.6674
63.525
63.3789
63.2299
63.0805
62.9316
62.7855
62.6441
62.5084
62.3809
62.2628
62.1578
62.0671
61.994
61.9395
61.9226
61.9312
61.9596
62.0248
62.1477
62.3115
62.5406
62.8507
63.2685
63.7459
64.3187
65.0253
65.8817
66.9035
68.1231
69.5881
71.3619
73.4655
75.9539
78.8417
82.1471
85.8946
90.0643
94.6131
99.4641
104.51
109.623
114.675
119.549
124.163
128.471
132.463
136.165
139.639
143.033
146.595
150.334
154.208
158.059
161.546