/*--------------------------------*- C++ -*----------------------------------*\
| =========                 |                                                 |
| \\      /  F ield         | OpenFOAM: The Open Source CFD Toolbox           |
|  \\    /   O peration     | Version:  2212                                  |
|   \\  /    A nd           | Website:  www.openfoam.com                      |
|    \\/     M anipulation  |                                                 |
\*---------------------------------------------------------------------------*/
FoamFile
{
    version     2.0;
    format      ascii;
    arch        "LSB;label=32;scalar=64";
    class       volScalarField;
    location    "0.0076";
    object      nut;
}
// * * * * * * * * * * * * * * * * * * * * * * * * * * * * * * * * * * * * * //

dimensions      [0 2 -1 0 0 0 0];

internalField   nonuniform List<scalar> 
31661
(
0.235383
0.277256
0.277644
0.277451
0.277382
0.277766
0.277574
0.277506
0.277885
0.277696
0.0299007
0.271046
0.0571372
0.314129
0.336876
0.335562
0.32229
0.303867
0.24078
0.343812
0.13683
0.141713
0.0296885
0.274907
0.278455
0.129561
0.0199487
0.0332417
0.271998
0.279046
0.291316
0.0285971
0.0340504
0.214262
0.267751
0.321869
0.139052
0.329168
0.131732
0.0362716
0.102359
0.276689
0.339701
0.289586
0.289719
0.268462
0.289226
0.178939
0.138751
0.300372
0.132007
0.241298
0.265994
0.169224
0.153158
0.259381
0.259127
0.26602
0.271676
0.254202
0.266014
0.263314
0.273037
0.275037
0.117103
0.131316
0.0422041
0.271775
0.271872
0.271964
0.272002
0.272102
0.272188
0.27227
0.272351
0.272429
0.272507
0.272583
0.272657
0.272728
0.272798
0.272866
0.272931
0.272995
0.273001
0.272938
0.272873
0.272806
0.272737
0.272666
0.272593
0.272519
0.272443
0.272366
0.272288
0.27221
0.272132
0.272053
0.271963
0.271873
0.271784
0.271698
0.27161
0.271524
0.27151
0.271425
0.27141
0.271321
0.271308
0.271213
0.271203
0.271104
0.271095
0.270992
0.270986
0.270879
0.270874
0.270763
0.270759
0.270645
0.270643
0.270525
0.270524
0.270403
0.270403
0.270279
0.27028
0.270154
0.270155
0.270026
0.270027
0.269897
0.269898
0.269766
0.269766
0.269632
0.269633
0.269497
0.269498
0.26936
0.269361
0.269221
0.269222
0.269081
0.269082
0.268938
0.268939
0.268794
0.268795
0.268648
0.268649
0.268501
0.268501
0.268351
0.268351
0.2682
0.2682
0.268048
0.268047
0.267893
0.267893
0.267738
0.267737
0.26758
0.267579
0.267421
0.26742
0.26726
0.267259
0.267097
0.267098
0.267101
0.267263
0.267424
0.267583
0.267741
0.267897
0.268051
0.268204
0.268355
0.268504
0.268652
0.268798
0.268942
0.269084
0.269225
0.269364
0.269501
0.269636
0.269769
0.269901
0.270031
0.270159
0.270285
0.270409
0.270532
0.270653
0.270771
0.270888
0.271003
0.271116
0.271228
0.271338
0.271446
0.271553
0.271659
0.27177
0.271876
0.271976
0.272074
0.272171
0.272261
0.272347
0.272429
0.272508
0.272584
0.272658
0.273062
0.273057
0.27273
0.272799
0.272867
0.272932
0.272996
0.273117
0.273122
0.273137
0.273077
0.273015
0.272952
0.272887
0.27282
0.272751
0.272681
0.272609
0.272535
0.27246
0.272383
0.272304
0.272225
0.272144
0.272061
0.271974
0.271884
0.271795
0.271704
0.271611
0.271513
0.271412
0.27131
0.271205
0.271098
0.270989
0.270877
0.270762
0.270645
0.270526
0.270405
0.270282
0.270157
0.270029
0.2699
0.269769
0.269635
0.2695
0.269363
0.269224
0.269084
0.268941
0.268797
0.26865
0.268502
0.268353
0.268201
0.268049
0.267894
0.267738
0.26758
0.267421
0.267261
0.267099
0.266935
0.266934
0.266935
0.266938
0.266943
0.267106
0.267269
0.267429
0.267589
0.267746
0.267902
0.268057
0.26821
0.268361
0.26851
0.268658
0.268804
0.268948
0.269091
0.269231
0.26937
0.269508
0.269643
0.269777
0.269909
0.270039
0.270167
0.270294
0.270419
0.270542
0.270663
0.270783
0.2709
0.271016
0.27113
0.271243
0.271353
0.271461
0.271568
0.271673
0.271778
0.271881
0.271981
0.272078
0.272174
0.272264
0.272351
0.272433
0.272511
0.272588
0.272663
0.272735
0.272805
0.273059
0.272874
0.272941
0.273006
0.273195
0.273181
0.27312
0.273176
0.273253
0.273277
0.273219
0.273159
0.273099
0.273037
0.272973
0.272908
0.272841
0.272772
0.272701
0.272629
0.272555
0.272479
0.272402
0.272323
0.272242
0.272159
0.272074
0.271987
0.271898
0.271807
0.271714
0.271619
0.27152
0.271419
0.271316
0.27121
0.271103
0.270993
0.270881
0.270767
0.27065
0.270531
0.27041
0.270287
0.270162
0.270035
0.269905
0.269774
0.269641
0.269505
0.269368
0.269229
0.269089
0.268946
0.268801
0.268655
0.268507
0.268357
0.268206
0.268053
0.267898
0.267742
0.267584
0.267425
0.267264
0.267102
0.266939
0.266775
0.266771
0.26677
0.26677
0.266773
0.266778
0.266785
0.26695
0.267113
0.267276
0.267437
0.267596
0.267754
0.26791
0.268065
0.268218
0.268369
0.268519
0.268667
0.268813
0.268957
0.2691
0.269241
0.26938
0.269517
0.269653
0.269787
0.269919
0.27005
0.270178
0.270305
0.270431
0.270554
0.270676
0.270796
0.270914
0.271031
0.271145
0.271257
0.271367
0.271476
0.271582
0.271687
0.27179
0.271891
0.27199
0.272087
0.27218
0.272271
0.272357
0.27244
0.272521
0.272599
0.272674
0.272747
0.272819
0.272889
0.273069
0.272957
0.273023
0.273239
0.273334
0.27331
0.273132
0.27318
0.273234
0.273391
0.273425
0.273367
0.273309
0.27325
0.27319
0.273128
0.273065
0.273
0.272934
0.272866
0.272797
0.272726
0.272653
0.272578
0.272502
0.272424
0.272344
0.272262
0.272178
0.272092
0.272004
0.271914
0.271822
0.271728
0.271631
0.271532
0.27143
0.271327
0.271221
0.271113
0.271002
0.27089
0.270775
0.270659
0.27054
0.270419
0.270296
0.270171
0.270043
0.269914
0.269783
0.269649
0.269514
0.269377
0.269238
0.269097
0.268954
0.268809
0.268663
0.268515
0.268365
0.268213
0.26806
0.267905
0.267749
0.267591
0.267431
0.267271
0.267108
0.266945
0.266781
0.266615
0.266609
0.266605
0.266604
0.266604
0.266607
0.266612
0.266619
0.266627
0.266793
0.266959
0.267122
0.267285
0.267446
0.267605
0.267763
0.26792
0.268075
0.268228
0.268379
0.268529
0.268678
0.268824
0.268969
0.269112
0.269253
0.269392
0.26953
0.269666
0.2698
0.269933
0.270063
0.270192
0.27032
0.270445
0.270569
0.270691
0.270811
0.27093
0.271046
0.27116
0.271272
0.271382
0.27149
0.271597
0.271702
0.271805
0.271906
0.272005
0.272101
0.272194
0.272284
0.272371
0.272456
0.272538
0.272617
0.272693
0.272768
0.272841
0.272912
0.27298
0.273088
0.273048
0.273296
0.273366
0.273152
0.273482
0.273447
0.273193
0.273239
0.273291
0.273539
0.273585
0.273527
0.273468
0.273409
0.27335
0.273289
0.273227
0.273164
0.2731
0.273034
0.272967
0.272898
0.272828
0.272756
0.272682
0.272606
0.272529
0.27245
0.272369
0.272286
0.272201
0.272114
0.272025
0.271934
0.271841
0.271746
0.271649
0.271549
0.271447
0.271343
0.271236
0.271128
0.271017
0.270904
0.270789
0.270672
0.270553
0.270432
0.270309
0.270184
0.270056
0.269926
0.269795
0.269661
0.269526
0.269389
0.269249
0.269108
0.268965
0.26882
0.268673
0.268525
0.268375
0.268223
0.268069
0.267914
0.267758
0.2676
0.26744
0.267279
0.267117
0.266953
0.266789
0.266623
0.266457
0.266449
0.266443
0.266439
0.266438
0.266438
0.26644
0.266445
0.266451
0.26646
0.266637
0.266804
0.266969
0.267133
0.267295
0.267457
0.267616
0.267775
0.267931
0.268086
0.26824
0.268392
0.268542
0.268691
0.268837
0.268982
0.269126
0.269267
0.269407
0.269545
0.269681
0.269816
0.269949
0.27008
0.270209
0.270336
0.270462
0.270586
0.270708
0.270829
0.270947
0.271064
0.271178
0.27129
0.271401
0.27151
0.271617
0.271721
0.271824
0.271924
0.272023
0.272118
0.272212
0.272302
0.272391
0.272477
0.272561
0.272641
0.27272
0.272796
0.27287
0.272942
0.273013
0.273114
0.273081
0.26647
0.273149
0.273352
0.273179
0.273422
0.273214
0.273503
0.273253
0.273643
0.273596
0.273297
0.273348
0.273701
0.27376
0.273701
0.273641
0.273581
0.273521
0.27346
0.273399
0.273336
0.273273
0.273208
0.273142
0.273075
0.273006
0.272936
0.272864
0.272791
0.272716
0.272639
0.272561
0.272481
0.272399
0.272315
0.272229
0.272141
0.272051
0.271959
0.271865
0.271769
0.271671
0.271571
0.271468
0.271363
0.271257
0.271148
0.271036
0.270923
0.270808
0.27069
0.270571
0.270449
0.270325
0.2702
0.270072
0.269942
0.26981
0.269677
0.269541
0.269403
0.269263
0.269122
0.268979
0.268833
0.268686
0.268537
0.268387
0.268235
0.268081
0.267926
0.267769
0.26761
0.26745
0.267289
0.267127
0.266963
0.266799
0.266633
0.266467
0.266299
0.26629
0.266282
0.266276
0.266272
0.26627
0.266271
0.266273
0.266277
0.266283
0.266292
0.266301
0.266481
0.266649
0.266815
0.266981
0.267145
0.267308
0.267469
0.267629
0.267788
0.267945
0.2681
0.268254
0.268406
0.268557
0.268706
0.268853
0.268998
0.269142
0.269284
0.269424
0.269562
0.269699
0.269834
0.269967
0.270098
0.270228
0.270355
0.270481
0.270606
0.270728
0.270849
0.270968
0.271084
0.271199
0.271312
0.271423
0.271532
0.271639
0.271744
0.271847
0.271947
0.272046
0.272141
0.272235
0.272326
0.272415
0.272503
0.272588
0.27267
0.272751
0.272829
0.272906
0.272979
0.273052
0.273123
0.273191
0.266313
0.27326
0.273215
0.273408
0.273243
0.273478
0.273276
0.273559
0.273312
0.273653
0.273355
0.27382
0.273759
0.273405
0.266131
0.266122
0.266115
0.266109
0.266105
0.266103
0.266103
0.266104
0.266109
0.266115
0.266122
0.266132
0.266143
0.266325
0.266494
0.266662
0.266828
0.266994
0.267158
0.267321
0.267483
0.267643
0.267802
0.267959
0.268115
0.26827
0.268422
0.268573
0.268722
0.26887
0.269016
0.26916
0.269302
0.269443
0.269581
0.269718
0.269854
0.269987
0.270119
0.270248
0.270377
0.270503
0.270628
0.27075
0.270871
0.27099
0.271108
0.271223
0.271337
0.271448
0.271558
0.271665
0.27177
0.271873
0.271975
0.272074
0.27217
0.272264
0.272356
0.272446
0.272534
0.27262
0.272704
0.272787
0.272867
0.272945
0.273021
0.273096
0.273169
0.27324
0.27331
0.273327
0.27338
0.266156
0.273881
0.273955
0.273892
0.27383
0.273768
0.273706
0.273644
0.273582
0.273519
0.273455
0.273391
0.273325
0.273259
0.273191
0.273122
0.273052
0.27298
0.272907
0.272832
0.272756
0.272678
0.272598
0.272517
0.272433
0.272348
0.272261
0.272172
0.272081
0.271988
0.271893
0.271796
0.271697
0.271596
0.271493
0.271388
0.27128
0.271171
0.271059
0.270946
0.27083
0.270712
0.270592
0.27047
0.270346
0.270219
0.270091
0.269961
0.269829
0.269694
0.269558
0.26942
0.26928
0.269138
0.268994
0.268849
0.268701
0.268552
0.268401
0.268249
0.268095
0.267939
0.267782
0.267623
0.267463
0.267301
0.267139
0.266975
0.26681
0.266645
0.266478
0.26631
0.266142
0.273281
0.273464
0.273448
0.273393
0.273307
0.273534
0.273337
0.273616
0.273371
0.273711
0.273412
0.273819
0.273461
0.274018
0.273942
0.26617
0.266339
0.266508
0.266676
0.266843
0.267008
0.267173
0.267336
0.267498
0.267659
0.267818
0.267976
0.268132
0.268287
0.26844
0.268591
0.268741
0.268889
0.269035
0.26918
0.269322
0.269463
0.269603
0.26974
0.269875
0.270009
0.270141
0.270271
0.2704
0.270526
0.270651
0.270774
0.270896
0.271015
0.271133
0.271249
0.271364
0.271476
0.271586
0.271694
0.271799
0.271903
0.272006
0.272106
0.272203
0.272299
0.272392
0.272484
0.272572
0.272659
0.272744
0.272828
0.27291
0.27299
0.273068
0.273145
0.27322
0.273294
0.273367
0.273439
0.273509
0.274105
0.27404
0.273975
0.27391
0.273846
0.273781
0.273716
0.273652
0.273586
0.27352
0.273453
0.273385
0.273317
0.273247
0.273176
0.273104
0.27303
0.272955
0.272879
0.272801
0.272722
0.27264
0.272558
0.272473
0.272386
0.272298
0.272208
0.272116
0.272022
0.271926
0.271828
0.271728
0.271626
0.271522
0.271416
0.271308
0.271198
0.271086
0.270971
0.270855
0.270736
0.270616
0.270493
0.270368
0.270242
0.270113
0.269982
0.269849
0.269715
0.269578
0.269439
0.269299
0.269156
0.269012
0.268866
0.268718
0.268569
0.268418
0.268265
0.26811
0.267954
0.267796
0.267637
0.267477
0.267315
0.267152
0.266988
0.266823
0.266657
0.26649
0.266322
0.266154
0.265984
0.265973
0.265962
0.265954
0.265946
0.26594
0.265936
0.265934
0.265934
0.265936
0.265939
0.265945
0.265953
0.265962
0.265973
0.265986
0.274171
0.266
0.273516
0.27358
0.274081
0.273345
0.273521
0.265829
0.265815
0.265803
0.265792
0.265783
0.265775
0.26577
0.265766
0.265765
0.265765
0.265767
0.265771
0.265777
0.265784
0.265793
0.265803
0.265815
0.273458
0.273369
0.273591
0.274238
0.274342
0.274273
0.274204
0.274135
0.274067
0.274
0.273932
0.273865
0.273797
0.273729
0.273661
0.273592
0.273523
0.273453
0.273382
0.27331
0.273237
0.273163
0.273087
0.27301
0.272932
0.272852
0.272771
0.272688
0.272604
0.272518
0.27243
0.27234
0.272248
0.272155
0.272059
0.271962
0.271863
0.271762
0.271659
0.271554
0.271447
0.271339
0.271228
0.271115
0.271
0.270883
0.270763
0.270642
0.270519
0.270394
0.270266
0.270137
0.270006
0.269872
0.269737
0.2696
0.269461
0.26932
0.269177
0.269032
0.268886
0.268737
0.268587
0.268436
0.268282
0.268127
0.267971
0.267813
0.267653
0.267493
0.267331
0.267167
0.267003
0.266838
0.266671
0.266504
0.266336
0.266167
0.265997
0.265827
0.273649
0.273582
0.273396
0.273673
0.273429
0.273769
0.273469
0.273879
0.273518
0.274004
0.274146
0.274412
0.274306
0.274885
0.274678
0.265844
0.266014
0.266184
0.266354
0.266523
0.266691
0.266858
0.267024
0.267188
0.267352
0.267514
0.267675
0.267835
0.267993
0.26815
0.268305
0.268458
0.26861
0.268761
0.268909
0.269056
0.269201
0.269344
0.269486
0.269625
0.269763
0.269899
0.270033
0.270166
0.270296
0.270425
0.270552
0.270677
0.270801
0.270923
0.271043
0.271161
0.271278
0.271392
0.271505
0.271616
0.271725
0.271832
0.271938
0.272041
0.272142
0.27224
0.272338
0.272433
0.272526
0.272617
0.272705
0.272792
0.272876
0.27296
0.273042
0.273122
0.273201
0.273279
0.273355
0.273431
0.273505
0.273578
0.273651
0.273723
0.265658
0.273718
0.273795
0.213217
0.265673
0.273409
0.273577
0.265644
0.265632
0.265621
0.265612
0.265605
0.2656
0.265596
0.265595
0.265595
0.265597
0.265601
0.265607
0.265614
0.265623
0.265633
0.265644
0.265656
0.273523
0.273431
0.273648
0.274813
0.274531
0.274457
0.274384
0.274312
0.27424
0.274169
0.274098
0.274028
0.273957
0.273886
0.273816
0.273744
0.273673
0.273601
0.273528
0.273455
0.27338
0.273305
0.273228
0.27315
0.273071
0.272991
0.272909
0.272826
0.272741
0.272655
0.272567
0.272478
0.272386
0.272293
0.272198
0.272102
0.272003
0.271903
0.2718
0.271696
0.27159
0.271482
0.271373
0.271261
0.271147
0.271031
0.270913
0.270793
0.270671
0.270547
0.270421
0.270294
0.270164
0.270032
0.269898
0.269762
0.269624
0.269484
0.269343
0.269199
0.269054
0.268907
0.268758
0.268607
0.268455
0.268301
0.268146
0.267989
0.26783
0.267671
0.267509
0.267347
0.267183
0.267019
0.266853
0.266686
0.266519
0.26635
0.266181
0.266011
0.265841
0.26567
0.273649
0.273456
0.273732
0.273866
0.273786
0.273487
0.273828
0.273526
0.27394
0.273575
0.274068
0.274213
0.274375
0.274749
0.265487
0.265501
0.275224
0.275311
0.265687
0.265859
0.266029
0.2662
0.266369
0.266538
0.266706
0.266873
0.26704
0.267205
0.267369
0.267532
0.267693
0.267853
0.268012
0.268169
0.268324
0.268478
0.268631
0.268781
0.268931
0.269078
0.269223
0.269367
0.269509
0.269649
0.269788
0.269924
0.270059
0.270192
0.270323
0.270452
0.270579
0.270705
0.270829
0.270951
0.271072
0.271191
0.271308
0.271424
0.271537
0.271649
0.27176
0.271868
0.271975
0.272079
0.272181
0.272281
0.27238
0.272476
0.272571
0.272664
0.272755
0.272844
0.272931
0.273017
0.2731
0.273183
0.273265
0.273345
0.273425
0.273502
0.273579
0.273655
0.27373
0.273806
0.27388
0.273954
0.275201
0.274945
0.273937
0.274028
0.272016
0.273472
0.273634
0.265473
0.265461
0.265451
0.265442
0.265435
0.265429
0.265426
0.265425
0.265425
0.265427
0.265431
0.265437
0.265444
0.265452
0.265462
0.265473
0.265485
0.265498
0.273587
0.273491
0.273706
0.277745
0.274737
0.27466
0.274583
0.274506
0.27443
0.274355
0.27428
0.274206
0.274132
0.274058
0.273984
0.27391
0.273836
0.273761
0.273686
0.273611
0.273534
0.273457
0.273379
0.2733
0.27322
0.273138
0.273056
0.272972
0.272886
0.2728
0.272711
0.272622
0.27253
0.272437
0.272342
0.272246
0.272148
0.272048
0.271946
0.271842
0.271737
0.27163
0.271521
0.27141
0.271297
0.271182
0.271065
0.270946
0.270826
0.270703
0.270578
0.270451
0.270323
0.270192
0.270059
0.269925
0.269788
0.26965
0.269509
0.269367
0.269223
0.269077
0.26893
0.26878
0.268629
0.268476
0.268322
0.268166
0.268008
0.267849
0.267689
0.267527
0.267364
0.2672
0.267035
0.266869
0.266702
0.266534
0.266365
0.266196
0.266025
0.265855
0.265683
0.265512
0.273715
0.273514
0.273791
0.273855
0.273544
0.273889
0.274103
0.274009
0.273583
0.274003
0.273632
0.274133
0.274281
0.274446
0.265316
0.26533
0.274627
0.274818
0.156001
0.275012
0.265516
0.26553
0.265702
0.265873
0.266044
0.266215
0.266385
0.266554
0.266722
0.26689
0.267056
0.267222
0.267386
0.267549
0.267711
0.267872
0.268031
0.268188
0.268345
0.268499
0.268652
0.268803
0.268953
0.269101
0.269247
0.269391
0.269534
0.269675
0.269814
0.269951
0.270086
0.27022
0.270351
0.270481
0.270609
0.270735
0.270859
0.270982
0.271103
0.271223
0.271341
0.271458
0.271573
0.271686
0.271797
0.271906
0.272014
0.27212
0.272223
0.272326
0.272426
0.272525
0.272621
0.272716
0.272809
0.272901
0.272991
0.273079
0.273165
0.273251
0.273336
0.273418
0.2735
0.273581
0.273661
0.27374
0.273818
0.273896
0.273973
0.274051
0.274128
0.274206
0.341464
0.274178
0.274284
0.13543
0.266032
0.273535
0.273692
0.265302
0.26529
0.26528
0.265271
0.265264
0.265259
0.265256
0.265254
0.265254
0.265256
0.26526
0.265266
0.265273
0.265281
0.265291
0.265302
0.265314
0.265326
0.26534
0.273651
0.273551
0.273765
0.266876
0.277868
0.274965
0.274884
0.274801
0.27472
0.274638
0.274558
0.274479
0.2744
0.274322
0.274244
0.274167
0.27409
0.274012
0.273935
0.273857
0.273779
0.2737
0.273621
0.273541
0.27346
0.273378
0.273295
0.273211
0.273126
0.27304
0.272952
0.272863
0.272772
0.272681
0.272587
0.272492
0.272396
0.272297
0.272198
0.272096
0.271993
0.271888
0.271781
0.271672
0.271562
0.27145
0.271336
0.27122
0.271102
0.270982
0.27086
0.270737
0.270611
0.270483
0.270354
0.270222
0.270089
0.269954
0.269816
0.269677
0.269536
0.269393
0.269248
0.269102
0.268953
0.268803
0.268652
0.268498
0.268343
0.268187
0.268029
0.267869
0.267708
0.267546
0.267383
0.267218
0.267052
0.266886
0.266718
0.26655
0.266381
0.266211
0.26604
0.265869
0.265697
0.265525
0.265353
0.273781
0.273573
0.273851
0.273924
0.273602
0.273952
0.274081
0.273641
0.274068
0.274363
0.274254
0.27369
0.274201
0.274351
0.265144
0.265158
0.274518
0.274699
0.27489
0.27509
0.265344
0.265358
0.265545
0.265717
0.265888
0.26606
0.26623
0.2664
0.26657
0.266739
0.266906
0.267073
0.267239
0.267404
0.267568
0.26773
0.267891
0.26805
0.268209
0.268365
0.26852
0.268674
0.268826
0.268976
0.269125
0.269271
0.269417
0.26956
0.269701
0.269841
0.269979
0.270115
0.270249
0.270381
0.270512
0.27064
0.270767
0.270893
0.271017
0.271138
0.271258
0.271377
0.271495
0.271611
0.271725
0.271837
0.271948
0.272057
0.272164
0.27227
0.272374
0.272476
0.272577
0.272675
0.272773
0.272868
0.272962
0.273055
0.273146
0.273236
0.273324
0.273412
0.273497
0.273582
0.273666
0.273749
0.273832
0.273913
0.273994
0.274075
0.274156
0.274237
0.274318
0.274399
0.274481
0.275425
0.274443
0.274564
0.275299
0.265372
0.273596
0.273751
0.265131
0.265119
0.265109
0.2651
0.265093
0.265088
0.265085
0.265083
0.265083
0.265085
0.265089
0.265095
0.265102
0.26511
0.26512
0.26513
0.265142
0.265154
0.265167
0.26518
0.273715
0.273611
0.273825
0.275463
0.275362
0.275237
0.275132
0.275039
0.274951
0.274864
0.274778
0.274694
0.274611
0.274528
0.274446
0.274365
0.274284
0.274203
0.274122
0.274041
0.27396
0.273878
0.273796
0.273714
0.273631
0.273547
0.273462
0.273376
0.273289
0.273201
0.273112
0.273022
0.272931
0.272838
0.272744
0.272648
0.272551
0.272453
0.272353
0.272251
0.272148
0.272043
0.271936
0.271828
0.271718
0.271606
0.271492
0.271377
0.27126
0.271141
0.27102
0.270897
0.270772
0.270646
0.270517
0.270387
0.270254
0.27012
0.269984
0.269846
0.269706
0.269564
0.26942
0.269274
0.269127
0.268978
0.268827
0.268675
0.268521
0.268365
0.268208
0.268049
0.267889
0.267728
0.267565
0.267401
0.267236
0.26707
0.266903
0.266735
0.266566
0.266396
0.266226
0.266055
0.265883
0.265711
0.265539
0.265366
0.265193
0.273847
0.273632
0.273913
0.273993
0.273661
0.274016
0.275572
0.274154
0.273699
0.274135
0.27433
0.273749
0.274271
0.264972
0.264986
0.274649
0.274524
0.274423
0.274593
0.274775
0.27497
0.275178
0.265172
0.265186
0.2652
0.265386
0.265558
0.265731
0.265903
0.266074
0.266245
0.266416
0.266586
0.266755
0.266923
0.26709
0.267256
0.267422
0.267586
0.267749
0.26791
0.26807
0.268229
0.268386
0.268542
0.268696
0.268849
0.269
0.269149
0.269296
0.269442
0.269586
0.269729
0.269869
0.270008
0.270145
0.27028
0.270413
0.270544
0.270674
0.270802
0.270929
0.271053
0.271176
0.271298
0.271417
0.271536
0.271652
0.271768
0.271881
0.271994
0.272104
0.272214
0.272321
0.272427
0.27253
0.272632
0.272734
0.272834
0.272932
0.273029
0.273125
0.273219
0.273312
0.273404
0.273494
0.273583
0.273671
0.273759
0.273845
0.273931
0.274015
0.2741
0.274185
0.274269
0.274354
0.274439
0.274523
0.274609
0.274695
0.274783
0.274735
0.275402
0.274872
0.275537
0.265213
0.273659
0.273811
0.264959
0.264948
0.264938
0.264929
0.264922
0.264917
0.264914
0.264912
0.264912
0.264914
0.264918
0.264923
0.26493
0.264938
0.264948
0.264958
0.26497
0.264982
0.264995
0.265008
0.26502
0.273779
0.273671
0.273887
0.275619
0.275507
0.275392
0.27529
0.275194
0.275103
0.275014
0.274925
0.274837
0.27475
0.274664
0.274578
0.274493
0.274408
0.274323
0.274239
0.274154
0.27407
0.273985
0.273899
0.273813
0.273727
0.273639
0.273551
0.273462
0.273373
0.273282
0.27319
0.273097
0.273003
0.272908
0.272811
0.272713
0.272614
0.272513
0.272411
0.272307
0.272202
0.272095
0.271987
0.271877
0.271765
0.271652
0.271537
0.27142
0.271302
0.271181
0.271059
0.270935
0.270809
0.270682
0.270552
0.27042
0.270287
0.270152
0.270015
0.269876
0.269735
0.269592
0.269447
0.269301
0.269153
0.269003
0.268852
0.268698
0.268543
0.268387
0.268229
0.26807
0.267909
0.267747
0.267584
0.267419
0.267253
0.267087
0.266919
0.26675
0.266581
0.266411
0.26624
0.266069
0.265897
0.265724
0.265552
0.265379
0.265205
0.265032
0.273914
0.273691
0.273977
0.275731
0.275685
0.274063
0.27372
0.274082
0.274227
0.273759
0.274204
0.264801
0.264814
0.274408
0.27381
0.274606
0.274343
0.274499
0.274963
0.274822
0.274671
0.274857
0.275059
0.275275
0.265
0.265013
0.265027
0.265039
0.265224
0.265398
0.265571
0.265744
0.265916
0.266088
0.266259
0.26643
0.266601
0.26677
0.266939
0.267106
0.267273
0.267439
0.267604
0.267767
0.267929
0.26809
0.268249
0.268407
0.268563
0.268718
0.268872
0.269023
0.269173
0.269322
0.269468
0.269613
0.269756
0.269898
0.270037
0.270175
0.270311
0.270446
0.270578
0.270709
0.270838
0.270966
0.271092
0.271216
0.271339
0.27146
0.27158
0.271698
0.271814
0.271929
0.272043
0.272154
0.272266
0.272374
0.272482
0.272588
0.272693
0.272797
0.272899
0.273001
0.273101
0.273199
0.273297
0.273393
0.273488
0.273582
0.273674
0.273766
0.273857
0.273947
0.274037
0.274125
0.274214
0.274303
0.274391
0.274479
0.274567
0.274657
0.274746
0.274836
0.274927
0.275019
0.275113
0.275055
0.275649
0.275208
0.275509
0.265051
0.273721
0.273873
0.264788
0.264777
0.264766
0.264758
0.264751
0.264746
0.264743
0.264741
0.264741
0.264743
0.264746
0.264752
0.264759
0.264767
0.264776
0.264787
0.264798
0.26481
0.264822
0.264835
0.264847
0.264858
0.273844
0.273732
0.273951
0.2759
0.275786
0.275674
0.275563
0.275459
0.27536
0.275265
0.275171
0.275079
0.274987
0.274896
0.274806
0.274717
0.274628
0.274539
0.274451
0.274362
0.274274
0.274185
0.274096
0.274007
0.273918
0.273828
0.273737
0.273646
0.273553
0.27346
0.273367
0.273272
0.273176
0.273079
0.272981
0.272882
0.272781
0.27268
0.272577
0.272472
0.272366
0.272259
0.27215
0.27204
0.271928
0.271815
0.2717
0.271583
0.271465
0.271345
0.271223
0.2711
0.270974
0.270847
0.270718
0.270587
0.270455
0.27032
0.270184
0.270046
0.269906
0.269764
0.26962
0.269475
0.269327
0.269178
0.269028
0.268875
0.268721
0.268566
0.268408
0.26825
0.26809
0.267928
0.267765
0.267601
0.267436
0.26727
0.267103
0.266934
0.266765
0.266595
0.266424
0.266253
0.266081
0.265909
0.265736
0.265563
0.265389
0.265216
0.265042
0.264868
0.275799
0.273981
0.273751
0.274043
0.275845
0.276015
0.274133
0.27378
0.274152
0.26463
0.264643
0.274302
0.273819
0.273872
0.274487
0.274277
0.274419
0.27469
0.274578
0.27491
0.274754
0.275305
0.275148
0.274946
0.275155
0.275379
0.264828
0.264841
0.264854
0.264866
0.264877
0.26506
0.265234
0.265408
0.265582
0.265755
0.265928
0.2661
0.266272
0.266444
0.266614
0.266784
0.266953
0.267122
0.267289
0.267455
0.26762
0.267784
0.267947
0.268109
0.268269
0.268427
0.268584
0.26874
0.268894
0.269047
0.269198
0.269347
0.269494
0.26964
0.269784
0.269927
0.270067
0.270206
0.270343
0.270479
0.270613
0.270745
0.270876
0.271005
0.271132
0.271258
0.271382
0.271505
0.271626
0.271745
0.271863
0.27198
0.272094
0.272208
0.27232
0.272431
0.27254
0.272649
0.272757
0.272863
0.272968
0.273072
0.273175
0.273277
0.273378
0.273478
0.273577
0.273675
0.273771
0.273867
0.273962
0.274056
0.274149
0.274242
0.274335
0.274428
0.274519
0.274611
0.274704
0.274797
0.274891
0.274986
0.27508
0.275176
0.275273
0.275371
0.275471
0.275402
0.27562
0.275762
0.275571
0.264886
0.273783
0.273937
0.264617
0.264606
0.264596
0.264587
0.26458
0.264575
0.264572
0.26457
0.26457
0.264572
0.264575
0.26458
0.264587
0.264595
0.264604
0.264615
0.264626
0.264638
0.26465
0.264662
0.264674
0.264685
0.264694
0.275914
0.273908
0.273793
0.275879
0.276032
0.274017
0.27596
0.276131
0.276313
0.276196
0.27608
0.275966
0.275853
0.275743
0.275637
0.275535
0.275435
0.275337
0.27524
0.275145
0.27505
0.274956
0.274862
0.274769
0.274676
0.274584
0.274491
0.274399
0.274306
0.274214
0.274121
0.274027
0.273933
0.273839
0.273744
0.273648
0.273552
0.273455
0.273357
0.273258
0.273158
0.273057
0.272955
0.272852
0.272748
0.272642
0.272535
0.272427
0.272318
0.272207
0.272095
0.271981
0.271866
0.271749
0.27163
0.27151
0.271389
0.271265
0.27114
0.271014
0.270885
0.270755
0.270623
0.270489
0.270353
0.270216
0.270076
0.269935
0.269792
0.269647
0.269501
0.269352
0.269203
0.269051
0.268898
0.268743
0.268586
0.268428
0.268269
0.268108
0.267946
0.267782
0.267617
0.267451
0.267284
0.267116
0.266947
0.266778
0.266607
0.266436
0.266264
0.266091
0.265918
0.265745
0.265571
0.265397
0.265223
0.265049
0.264874
0.2647
0.274048
0.273812
0.274112
0.264458
0.264471
0.274204
0.273841
0.273882
0.274377
0.274224
0.274352
0.274567
0.273935
0.274499
0.274774
0.274662
0.275
0.274843
0.275242
0.275041
0.275672
0.275501
0.275257
0.275487
0.264656
0.264669
0.264681
0.264693
0.264703
0.264712
0.264719
0.264893
0.265068
0.265242
0.265416
0.26559
0.265764
0.265937
0.26611
0.266283
0.266455
0.266626
0.266796
0.266966
0.267135
0.267303
0.26747
0.267636
0.2678
0.267964
0.268126
0.268287
0.268446
0.268604
0.268761
0.268916
0.269069
0.269221
0.269371
0.269519
0.269666
0.269812
0.269955
0.270097
0.270237
0.270376
0.270513
0.270648
0.270781
0.270914
0.271044
0.271173
0.2713
0.271426
0.27155
0.271673
0.271794
0.271914
0.272032
0.272149
0.272264
0.272378
0.272491
0.272603
0.272714
0.272824
0.272933
0.273041
0.273148
0.273254
0.27336
0.273464
0.273568
0.273671
0.273772
0.273873
0.273972
0.274072
0.27417
0.274267
0.274364
0.27446
0.274557
0.274653
0.274749
0.274846
0.274944
0.275042
0.275141
0.275241
0.275341
0.275442
0.275544
0.275647
0.27575
0.275852
0.275773
0.275952
0.276052
0.275734
0.277326
0.273845
0.276316
0.276443
0.275998
0.276151
0.276076
0.276248
0.276431
0.276195
0.276368
0.27655
0.276315
0.276488
0.27667
0.276609
0.276436
0.27679
0.276273
0.276909
0.276729
0.276558
0.274003
0.264446
0.264435
0.264425
0.264417
0.26441
0.264405
0.264401
0.264399
0.264399
0.264401
0.264404
0.264409
0.264416
0.264424
0.264433
0.264443
0.264454
0.264465
0.264477
0.264489
0.264501
0.264511
0.26452
0.264525
0.276144
0.276045
0.275939
0.275832
0.275725
0.275618
0.275512
0.275406
0.275301
0.275196
0.275093
0.274992
0.274891
0.274791
0.27469
0.27459
0.274489
0.274388
0.274286
0.274183
0.27408
0.273976
0.273872
0.273767
0.27366
0.273553
0.273446
0.273337
0.273228
0.273117
0.273006
0.272895
0.272782
0.272669
0.272554
0.272439
0.272322
0.272205
0.272086
0.271965
0.271844
0.271721
0.271596
0.27147
0.271343
0.271214
0.271083
0.270951
0.270817
0.270682
0.270545
0.270407
0.270267
0.270126
0.269982
0.269838
0.269691
0.269543
0.269393
0.269242
0.269089
0.268935
0.268779
0.268621
0.268462
0.268302
0.26814
0.267977
0.267813
0.267648
0.267481
0.267314
0.267145
0.266976
0.266805
0.266634
0.266462
0.26629
0.266117
0.265943
0.265769
0.265595
0.265421
0.265246
0.265071
0.264896
0.264721
0.273973
0.273855
0.274085
0.264484
0.264496
0.264508
0.26452
0.26453
0.264538
0.264544
0.264546
0.277099
0.276981
0.276862
0.276742
0.276623
0.276505
0.276388
0.276271
0.276156
0.276042
0.275931
0.275822
0.275716
0.275613
0.27551
0.275409
0.275309
0.27521
0.275111
0.275013
0.274916
0.274819
0.274722
0.274625
0.274529
0.274432
0.274335
0.274238
0.274141
0.274043
0.273945
0.273846
0.273747
0.273647
0.273546
0.273445
0.273342
0.273239
0.273135
0.27303
0.272924
0.272817
0.272709
0.2726
0.272489
0.272377
0.272264
0.272149
0.272034
0.271916
0.271797
0.271677
0.271555
0.271432
0.271307
0.27118
0.271052
0.270922
0.27079
0.270657
0.270521
0.270384
0.270245
0.270105
0.269962
0.269818
0.269672
0.269525
0.269375
0.269224
0.269072
0.268917
0.268761
0.268604
0.268445
0.268285
0.268123
0.26796
0.267795
0.26763
0.267463
0.267295
0.267127
0.266957
0.266786
0.266615
0.266443
0.266271
0.266098
0.265924
0.26575
0.265576
0.265401
0.265227
0.265052
0.264877
0.264702
0.264527
0.274117
0.273874
0.273904
0.274277
0.274184
0.274299
0.274453
0.273946
0.264287
0.264299
0.274432
0.274648
0.274001
0.274583
0.27486
0.274751
0.275091
0.274937
0.275337
0.275142
0.2756
0.275363
0.275875
0.2756
0.276158
0.275852
0.276119
0.277215
0.277027
0.276395
0.277515
0.277329
0.273909
0.278297
0.277132
0.276849
0.27668
0.274071
0.276614
0.276468
0.276353
0.276244
0.276133
0.276021
0.275908
0.275795
0.275683
0.275573
0.275463
0.275355
0.275248
0.275142
0.275036
0.274931
0.274826
0.274721
0.274615
0.27451
0.274404
0.274297
0.274189
0.274081
0.273973
0.273864
0.273754
0.273644
0.273532
0.273421
0.273308
0.273195
0.27308
0.272966
0.27285
0.272734
0.272617
0.272499
0.27238
0.27226
0.272139
0.272016
0.271892
0.271767
0.271641
0.271513
0.271383
0.271253
0.27112
0.270986
0.270851
0.270714
0.270576
0.270436
0.270295
0.270152
0.270007
0.269861
0.269713
0.269564
0.269413
0.26926
0.269106
0.268951
0.268793
0.268635
0.268475
0.268314
0.268151
0.267987
0.267822
0.267656
0.267488
0.26732
0.267151
0.266981
0.266809
0.266638
0.266465
0.266292
0.266118