/*--------------------------------*- C++ -*----------------------------------*\
| =========                 |                                                 |
| \\      /  F ield         | OpenFOAM: The Open Source CFD Toolbox           |
|  \\    /   O peration     | Version:  2212                                  |
|   \\  /    A nd           | Website:  www.openfoam.com                      |
|    \\/     M anipulation  |                                                 |
\*---------------------------------------------------------------------------*/
FoamFile
{
    version     2.0;
    format      ascii;
    arch        "LSB;label=32;scalar=64";
    class       volVectorField;
    location    "0.028";
    object      U;
}
// * * * * * * * * * * * * * * * * * * * * * * * * * * * * * * * * * * * * * //

dimensions      [0 1 -1 0 0 0 0];

internalField   nonuniform List<vector> 
7700
(
(94.0299 26.5239 -1.0234e-19)
(36.2456 68.6835 -7.16731e-19)
(29.1271 110.111 8.61439e-19)
(32.4105 149.831 -1.67871e-18)
(33.2425 187.506 3.37038e-18)
(32.9249 223.348 -1.58682e-18)
(32.4602 257.374 0)
(31.9077 289.576 1.70005e-18)
(31.2015 319.993 1.47358e-21)
(30.3418 348.646 -1.5942e-18)
(29.3418 375.558 1.06297e-19)
(28.2134 400.755 -1.70195e-18)
(26.9669 424.264 1.70056e-18)
(25.6118 446.114 1.80741e-18)
(24.1576 466.331 9.36337e-22)
(22.6133 484.941 -1.69909e-18)
(20.9874 501.968 0)
(19.2879 517.437 3.39699e-18)
(17.5227 531.368 -3.3942e-18)
(15.6992 543.78 0)
(13.8243 554.691 0)
(11.9049 564.117 1.05873e-19)
(9.94744 572.07 0)
(7.95784 578.561 -3.38903e-18)
(5.9417 583.6 3.38779e-18)
(3.90489 587.194 0)
(1.82594 589.346 0)
(-0.155227 590.078 -3.27811e-18)
(-2.1369 589.353 3.49182e-18)
(-4.21562 587.209 3.38699e-18)
(-6.25085 583.623 -6.77606e-18)
(-8.26494 578.592 3.38937e-18)
(-10.252 572.107 0)
(-12.2062 564.161 3.39161e-18)
(-14.1217 554.742 -5.09121e-18)
(-15.9918 543.837 3.39612e-18)
(-17.8099 531.431 -6.61556e-22)
(-19.5689 517.507 -1.59463e-18)
(-21.2614 502.045 1.70134e-18)
(-22.8797 485.025 -1.59712e-18)
(-24.4157 466.423 1.81031e-18)
(-25.8611 446.214 -7.47022e-19)
(-27.2069 424.373 -1.81333e-18)
(-28.4437 400.873 1.70772e-18)
(-29.5621 375.686 -1.70852e-18)
(-30.5521 348.785 8.54861e-19)
(-31.4019 320.144 -3.20284e-19)
(-32.0991 289.738 4.27351e-19)
(-32.6432 257.549 1.33336e-20)
(-33.1017 223.526 -1.19956e-19)
(-33.4033 187.679 0)
(-32.5377 149.995 1.05398e-19)
(-29.272 110.279 0)
(-36.4799 68.8598 4.79667e-19)
(-94.0315 26.5082 -2.68519e-19)
(94.7519 25.0452 8.27414e-20)
(35.4587 67.4646 -8.5666e-20)
(28.9008 108.61 0)
(32.203 148.045 -6.72191e-19)
(32.9907 185.727 -4.92006e-21)
(32.7035 221.636 1.2723e-18)
(32.2902 255.703 6.82606e-19)
(31.7763 287.947 -6.83869e-19)
(31.0983 318.398 6.8486e-19)
(30.2524 347.08 6.00158e-19)
(29.2603 374.017 -2.82063e-18)
(28.1376 399.236 5.47144e-18)
(26.8959 422.767 1.37718e-21)
(25.5456 444.635 -2.82187e-18)
(24.0961 464.87 0)
(22.5567 483.497 6.86706e-19)
(20.9359 500.541 3.42331e-18)
(19.2418 516.025 -6.85437e-19)
(17.4821 529.97 -2.73412e-18)
(15.6644 542.396 2.73387e-18)
(13.7956 553.321 6.86288e-19)
(11.8827 562.758 -3.50142e-18)
(9.93223 570.722 2.72987e-18)
(7.95078 577.224 -3.41261e-18)
(5.94493 582.272 0)
(3.92193 585.871 0)
(1.88491 588.021 1.36668e-18)
(-0.142961 588.726 -2.80545e-18)
(-2.17027 588.041 2.63497e-18)
(-4.20969 585.91 0)
(-6.2325 582.328 -6.82036e-19)
(-8.23738 577.296 0)
(-10.2172 570.809 -2.71509e-18)
(-12.1653 562.859 2.7144e-18)
(-14.0751 553.434 -6.80774e-19)
(-15.94 542.521 0)
(-17.753 530.105 -6.80146e-19)
(-19.5072 516.169 -2.11342e-18)
(-21.195 500.694 2.70802e-18)
(-22.8088 483.657 -8.46235e-20)
(-24.3404 465.038 1.94567e-18)
(-25.7815 444.81 -2.78635e-18)
(-27.1228 422.947 1.43446e-18)
(-28.3548 399.423 6.76688e-19)
(-29.4673 374.209 -6.75847e-19)
(-30.4486 347.276 -2.71904e-21)
(-31.2824 318.599 -7.55245e-19)
(-31.9461 288.15 5.0476e-19)
(-32.4494 255.907 1.6703e-19)
(-32.8583 221.833 -5.85084e-19)
(-33.1322 185.911 -6.64729e-19)
(-32.2986 148.205 5.71297e-19)
(-29.0127 108.745 6.74113e-19)
(-35.7679 67.5881 -6.44482e-19)
(-94.807 25.0561 -7.29486e-19)
(95.3648 23.4919 -1.06082e-18)
(36.6156 66.9184 1.36835e-18)
(28.963 107.852 0)
(32.0746 146.994 -5.97369e-19)
(33.0237 184.708 -2.42436e-18)
(32.7418 220.7 -2.0937e-21)
(32.282 254.861 4.27706e-18)
(31.7276 287.189 6.11018e-19)
(31.0234 317.706 -3.06438e-18)
(30.1635 346.442 -6.12003e-19)
(29.163 373.426 0)
(28.0355 398.687 -1.23661e-18)
(26.7919 422.254 2.46924e-18)
(25.442 444.156 1.22969e-21)
(23.9949 464.422 1.14783e-21)
(22.4596 483.077 -6.14812e-19)
(20.8444 500.148 -3.09174e-18)
(19.1572 515.657 6.16504e-19)
(17.4055 529.625 0)
(15.5968 542.073 0)
(13.7379 553.016 5.5849e-18)
(11.8359 562.471 -3.0982e-18)
(9.89716 570.451 0)
(7.92829 576.967 -4.34189e-18)
(5.93545 582.027 1.11582e-17)
(3.92469 585.637 -4.95407e-18)
(1.9023 587.803 -2.47331e-18)
(-0.126165 588.533 0)
(-2.15285 587.835 0)
(-4.17896 585.699 0)
(-6.19099 582.116 6.14761e-19)
(-8.18403 577.082 0)
(-10.1524 570.59 0)
(-12.0897 562.632 -6.17139e-18)
(-13.9895 553.196 5.54457e-18)
(-15.8451 542.269 -2.46246e-18)
(-17.6499 529.836 3.07279e-18)
(-19.3967 515.88 -6.11514e-19)
(-21.0783 500.382 1.23055e-18)
(-22.687 483.32 -1.22891e-18)
(-24.215 464.672 -4.28281e-18)
(-25.6538 444.412 2.44777e-18)
(-26.9949 422.513 2.44299e-18)
(-28.229 398.949 1.83193e-18)
(-29.3465 373.689 -6.14551e-19)
(-30.3366 346.704 1.21232e-18)
(-31.1862 317.963 -1.81701e-18)
(-31.8801 287.438 -1.80873e-18)
(-32.4253 255.096 -1.20493e-18)
(-32.8793 220.917 -6.04674e-19)
(-33.1471 184.902 5.92438e-19)
(-32.1629 147.155 0)
(-29.0857 107.937 -1.79215e-18)
(-36.9245 66.9405 1.15762e-18)
(-95.4788 23.5875 5.69867e-19)
(96.086 23.3125 8.34246e-20)
(38.3821 66.0041 1.1935e-18)
(29.5107 106.785 0)
(32.2493 145.951 0)
(33.2215 183.602 0)
(32.8518 219.538 1.07649e-18)
(32.2801 253.682 2.15115e-18)
(31.6516 286.022 2.1579e-18)
(30.9034 316.569 -3.23625e-18)
(30.0151 345.341 0)
(28.9964 372.364 1.0892e-18)
(27.8588 397.663 2.17276e-18)
(26.6112 421.27 5.44203e-18)
(25.262 443.21 -4.35274e-18)
(23.8194 463.513 -1.09422e-18)
(22.2915 482.205 4.36182e-18)
(20.686 499.311 -3.26749e-18)
(19.0104 514.852 1.09653e-18)
(17.272 528.852 0)
(15.4778 541.329 -3.27361e-18)
(13.6346 552.299 3.2821e-18)
(11.7489 561.779 -5.46331e-18)
(9.82725 569.782 3.27515e-18)
(7.87581 576.317 0)
(5.90074 581.395 4.38284e-18)
(3.90788 585.024 -5.47e-18)
(1.90267 587.208 -1.10588e-18)
(-0.109274 587.951 -8.73922e-18)
(-2.12043 587.257 8.72588e-18)
(-4.1281 585.117 0)
(-6.12269 581.529 1.09607e-18)
(-8.09853 576.487 -4.36352e-18)
(-10.0502 569.984 6.35675e-22)
(-11.9714 562.011 5.44892e-18)
(-13.8558 552.557 -1.09456e-18)
(-15.6969 541.609 0)
(-17.4881 529.151 0)
(-19.2225 515.168 4.34678e-18)
(-20.8931 499.638 -5.42567e-18)
(-22.4925 482.542 1.08082e-18)
(-24.0134 463.857 1.07943e-18)
(-25.4479 443.557 -1.07791e-18)
(-26.788 421.616 -1.07625e-18)
(-28.0255 398.008 -1.07443e-18)
(-29.1522 372.702 1.0724e-18)
(-30.1591 345.67 -2.14406e-18)
(-31.0352 316.885 1.6038e-18)
(-31.7714 286.322 1.33197e-18)
(-32.3889 253.962 2.57483e-19)
(-32.9517 219.792 -8.95748e-21)
(-33.3132 183.824 -1.06007e-18)
(-32.3249 146.129 1.04325e-18)
(-29.6077 106.875 -1.03342e-18)
(-38.5623 66.0425 1.07946e-18)
(-96.2562 23.4546 9.9061e-19)
(97.0202 23.6097 -1.42709e-19)
(39.7672 65.2355 -3.00318e-18)
(30.093 105.707 1.95237e-18)
(32.5222 144.962 -9.45479e-19)
(33.4884 182.621 -3.8114e-18)
(33.0388 218.535 7.66382e-18)
(32.3602 252.661 -7.68547e-18)
(31.6523 285.009 2.88512e-18)
(30.8447 315.579 -9.61145e-19)
(29.9122 344.385 0)
(28.8621 371.448 -4.84602e-18)
(27.7033 396.792 7.48584e-21)
(26.4429 420.444 6.81685e-18)
(25.0875 442.432 -4.87589e-18)
(23.644 462.782 9.70719e-19)
(22.1196 481.519 -3.90789e-18)
(20.5212 498.669 2.93772e-18)
(18.8556 514.254 -9.73697e-19)
(17.1297 528.294 -7.83732e-18)
(15.3499 540.809 5.88142e-18)
(13.5227 551.815 -6.86314e-18)
(11.6544 561.328 1.5704e-17)
(9.75109 569.36 -5.89227e-18)
(7.81872 575.922 0)
(5.86312 581.024 -1.96465e-18)
(3.89005 584.672 -9.17538e-21)
(1.90526 586.871 -4.91912e-18)
(-0.0858114 587.627 7.86125e-18)
(-2.07652 586.937 8.83317e-18)
(-4.06511 584.799 9.86151e-19)
(-6.04108 581.208 -1.7688e-17)
(-7.99899 576.158 9.35779e-22)
(-9.9333 569.643 7.8672e-18)
(-11.8379 561.652 0)
(-13.7068 552.176 9.77716e-19)
(-15.5337 541.201 0)
(-17.3123 528.712 -2.94081e-18)
(-19.036 514.693 7.85016e-18)
(-20.6982 499.125 -2.93819e-18)
(-22.2922 481.987 0)
(-23.8109 463.256 0)
(-25.2474 442.908 9.73255e-19)
(-26.5946 420.918 -9.72946e-19)
(-27.8455 397.259 -9.80073e-19)
(-28.9935 371.903 9.78689e-19)
(-30.0315 344.824 0)
(-30.9505 315.996 0)
(-31.7432 285.398 0)
(-32.4348 253.017 9.61096e-19)
(-33.0971 218.852 9.58016e-19)
(-33.5308 182.898 9.52929e-19)
(-32.5439 145.188 -1.89849e-18)
(-30.0959 105.872 9.38158e-19)
(-39.7566 65.3344 1.10598e-20)
(-97.2685 23.7093 -8.87322e-19)
(98.1884 23.7905 8.76126e-19)
(40.2354 64.7025 -9.65752e-19)
(30.2485 104.968 -9.36758e-19)
(32.5531 144.159 9.35363e-19)
(33.5208 181.745 0)
(33.0215 217.61 1.91206e-18)
(32.2912 251.716 -3.83592e-18)
(31.5399 284.052 1.92328e-18)
(30.6965 314.622 3.85629e-18)
(29.7361 343.438 1.73644e-21)
(28.6653 370.52 -3.86868e-18)
(27.493 395.891 -9.64356e-19)
(26.2253 419.575 0)
(24.8681 441.599 4.85205e-18)
(23.4276 461.987 -3.88791e-18)
(21.9101 480.765 -7.78531e-18)
(20.3221 497.956 -2.15876e-21)
(18.6698 513.581 8.77424e-18)
(16.9595 527.661 0)
(15.1973 540.214 -6.83454e-18)
(13.3893 551.256 6.83623e-18)
(11.5414 560.802 9.81234e-19)
(9.65943 568.864 5.86074e-18)
(7.74925 575.454 -8.79775e-18)
(5.81654 580.581 1.95506e-18)
(3.86697 584.25 9.72979e-19)
(1.90615 586.468 -8.78628e-18)
(-0.0605586 587.237 7.81337e-18)
(-2.02739 586.557 -9.70701e-19)
(-3.99333 584.42 8.86507e-21)
(-5.94732 580.825 1.95309e-18)
(-7.88399 575.765 0)
(-9.7979 569.235 0)
(-11.6832 561.225 8.78956e-18)
(-13.534 551.726 -8.78655e-18)
(-15.3442 540.724 3.90017e-18)
(-17.1076 528.204 -5.84804e-18)
(-18.8182 514.151 3.89479e-18)
(-20.4695 498.546 -4.86141e-18)
(-22.0553 481.37 3.88807e-18)
(-23.5693 462.599 -7.76952e-18)
(-25.005 442.212 5.82169e-18)
(-26.3561 420.182 -9.64532e-19)
(-27.6165 396.486 9.63163e-19)
(-28.7804 371.098 9.70153e-19)
(-29.8414 343.991 -9.64988e-19)
(-30.791 315.143 -1.92477e-18)
(-31.6225 284.536 9.60283e-19)
(-32.3611 252.155 0)
(-33.0792 217.999 0)
(-33.5656 182.077 0)
(-32.5834 144.431 -9.08303e-21)
(-30.2485 105.182 0)
(-40.2251 64.8275 -9.63377e-19)
(-98.4669 23.8343 0)
(99.3155 23.6982 -1.63527e-18)
(40.3395 64.2877 1.15908e-18)
(30.2231 104.46 9.33625e-19)
(32.5464 143.517 -2.85051e-18)
(33.5057 181.02 3.81061e-18)
(32.9719 216.841 1.92423e-18)
(32.2156 250.928 0)
(31.4423 283.259 3.88158e-18)
(30.5808 313.836 1.81099e-21)
(29.6054 342.669 -4.86383e-18)
(28.5232 369.775 0)
(27.3429 395.177 0)
(26.0708 418.897 0)
(24.7126 440.96 9.81934e-19)
(23.2742 461.39 3.91452e-18)
(21.7616 480.211 -3.91681e-18)
(20.181 497.445 7.84222e-18)
(18.5383 513.114 -8.82181e-18)
(16.8395 527.235 0)
(15.0904 539.829 7.85663e-18)
(13.2967 550.909 -7.85871e-18)
(11.4641 560.489 6.87632e-18)
(9.59803 568.583 -1.47027e-17)
(7.70442 575.201 1.66199e-17)
(5.78888 580.351 -9.70366e-19)
(3.85703 584.041 -6.80834e-18)
(1.9144 586.276 9.75508e-19)
(-0.0335828 587.057 -7.77256e-18)
(-1.98234 586.386 8.74275e-18)
(-3.93081 584.252 -9.66507e-19)
(-5.86809 580.654 6.8098e-18)
(-7.7892 575.586 -6.81574e-18)
(-9.6885 569.042 -9.80315e-19)
(-11.5602 561.014 9.02437e-21)
(-13.3984 551.491 9.73795e-19)
(-15.1973 540.461 -9.83713e-19)
(-16.9508 527.91 9.75308e-19)
(-18.6529 513.821 -3.91843e-18)
(-20.2976 498.177 4.89942e-18)
(-21.8788 480.959 0)
(-23.3907 462.146 9.81398e-19)
(-24.8273 441.716 -9.71155e-19)
(-26.1824 419.645 -9.79057e-19)
(-27.4502 395.909 -9.77684e-19)
(-28.6252 370.484 -2.91905e-18)
(-29.7011 343.346 2.90984e-18)
(-30.6693 314.473 -4.33228e-22)
(-31.5228 283.848 -9.6568e-19)
(-32.2875 251.461 3.00851e-20)
(-33.0362 217.312 1.41331e-18)
(-33.56 181.42 -4.77549e-19)
(-32.5876 143.842 9.38598e-19)
(-30.2333 104.706 0)
(-40.3444 64.4416 0)
(-99.6499 23.767 0)
(100.404 23.5811 9.00837e-19)
(40.3658 63.9457 1.96526e-18)
(30.1555 104.01 3.77187e-18)
(32.5325 142.975 2.43976e-20)
(33.4851 180.419 -3.83376e-18)
(32.9238 216.195 1.93629e-18)
(32.1447 250.255 -2.90919e-18)
(31.3521 282.576 -9.6937e-19)
(30.4748 313.153 0)
(29.4869 341.996 -9.01662e-21)
(28.3954 369.119 0)
(27.2091 394.544 -9.85711e-19)
(25.9342 418.293 3.93041e-18)
(24.576 440.389 -8.84762e-18)
(23.1403 460.854 -1.13497e-21)
(21.6328 479.713 3.94126e-18)
(20.0592 496.986 6.90005e-18)
(18.4253 512.694 -7.89458e-18)
(16.7368 526.855 9.92095e-19)
(14.9992 539.486 7.90531e-18)
(13.218 550.603 -6.90613e-18)
(11.3987 560.22 -9.87915e-19)
(9.54672 568.348 -9.80905e-19)
(7.66789 574.998 0)
(5.76762 580.177 -7.75703e-18)
(3.85115 583.891 5.80229e-18)
(1.92355 586.144 -9.73069e-19)
(-0.00933687 586.938 -9.82185e-19)
(-1.944 586.274 9.90158e-19)
(-3.87931 584.142 -9.81757e-19)
(-5.80304 580.54 -8.80892e-18)
(-7.71057 575.462 -1.96032e-18)
(-9.5962 568.902 9.82187e-18)
(-11.4543 560.853 -1.96573e-18)
(-13.2794 551.305 0)
(-15.0667 540.246 9.77845e-19)
(-16.8103 527.662 0)
(-18.5045 513.54 0)
(-20.1433 497.861 -9.80655e-19)
(-21.7207 480.606 3.93598e-18)
(-23.231 461.757 -4.91162e-18)
(-24.6682 441.29 0)
(-26.0266 419.185 9.76274e-19)
(-27.3006 395.416 2.93319e-18)
(-28.4849 369.962 9.72586e-19)
(-29.5733 342.799 -1.95233e-18)
(-30.5572 313.908 9.73724e-19)
(-31.4297 283.273 -9.71718e-19)
(-32.2166 250.886 0)
(-32.9907 216.749 -9.60962e-19)
(-33.5452 180.887 -9.55735e-19)
(-32.5822 143.354 1.9023e-18)
(-30.1705 104.294 -9.40007e-19)
(-40.3739 64.119 1.07482e-18)
(-100.797 23.6641 -1.71855e-18)
(101.473 23.4865 -8.96631e-19)
(40.3876 63.6604 -9.83215e-19)
(30.0885 103.621 0)
(32.5219 142.516 -9.52867e-19)
(33.4791 179.911 -3.87802e-18)
(32.9025 215.655 4.86132e-18)
(32.1068 249.696 -9.72698e-19)
(31.3015 282.009 0)
(30.414 312.589 3.92956e-18)
(29.4182 341.444 -2.95616e-18)
(28.3213 368.587 0)
(27.132 394.038 9.82803e-19)
(25.8561 417.817 0)
(24.4989 439.948 0)
(23.0659 460.452 0)
(21.5626 479.35 0)
(19.9944 496.664 8.92908e-18)
(18.3666 512.413 -7.92867e-18)
(16.6847 526.614 -9.83565e-19)
(14.9542 539.286 0)
(13.1809 550.444 -2.94967e-18)
(11.3705 560.099 -9.92041e-19)
(9.5281 568.263 -4.866e-18)
(7.65895 574.942 7.86781e-18)
(5.76847 580.145 0)
(3.86186 583.879 -6.88986e-18)
(1.94471 586.148 -2.09125e-22)
(0.0223418 586.955 9.92068e-19)
(-1.90305 586.3 5.9837e-18)
(-3.83046 584.17 -4.97627e-18)
(-5.74645 580.564 -1.00872e-18)
(-7.64686 575.477 8.95613e-18)
(-9.52561 568.903 -9.90697e-19)
(-11.3772 560.835 -1.00723e-18)
(-13.1963 551.263 1.99031e-18)
(-14.9772 540.175 0)
(-16.7143 527.56 3.91735e-18)
(-18.4039 513.401 -5.89221e-18)
(-20.04 497.684 0)
(-21.6168 480.392 1.95875e-18)
(-23.1279 461.504 -3.94866e-18)
(-24.567 441.001 -1.98527e-18)
(-25.9284 418.858 0)
(-27.2071 395.055 0)
(-28.3979 369.57 0)
(-29.495 342.38 -9.91147e-19)
(-30.4897 313.469 -3.92876e-18)
(-31.375 282.82 9.77715e-19)
(-32.1773 250.428 3.04596e-20)
(-32.9699 216.298 -5.15546e-19)
(-33.5424 180.453 4.83387e-19)
(-32.5768 142.953 -9.54695e-19)
(-30.1028 103.945 9.45333e-19)
(-40.3907 63.8592 -3.05982e-18)
(-101.926 23.5811 -9.06841e-20)
(102.528 23.4079 0)
(40.4091 63.4124 3.89342e-18)
(30.0262 103.283 -2.00011e-18)
(32.5213 142.119 -3.8686e-18)
(33.4841 179.472 9.73713e-18)
(32.8938 215.193 -3.91496e-18)
(32.0879 249.219 -3.93252e-18)
(31.2742 281.527 7.88644e-18)
(30.3802 312.111 -7.90495e-18)
(29.3796 340.977 3.95972e-18)
(28.2795 368.139 5.96059e-18)
(27.0886 393.614 -3.97271e-18)
(25.8128 417.423 0)
(24.4571 439.587 -2.00052e-18)
(23.0268 460.128 -2.00261e-18)
(21.5273 479.067 -2.00447e-18)
(19.9636 496.422 -2.00282e-18)
(18.3412 512.215 0)
(16.6651 526.461 0)
(14.9404 539.176 1.98653e-18)
(13.1732 550.371 -1.73441e-20)
(11.3687 560.059 -1.733e-20)
(9.53222 568.253 -9.88646e-18)
(7.66906 574.96 8.01577e-18)
(5.78429 580.19 0)
(3.88332 583.945 0)
(1.97162 586.232 -8.01864e-18)
(0.0551745 587.053 1.60462e-17)
(-1.86582 586.407 -1.60306e-17)
(-3.7903 584.281 4.00928e-18)
(-5.70311 580.671 -1.75414e-20)
(-7.60041 575.575 8.01425e-18)
(-9.47577 568.986 -8.01186e-18)
(-11.3239 560.897 1.99327e-18)
(-13.1396 551.3 -1.9922e-18)
(-14.9174 540.185 -3.99911e-18)
(-16.6527 527.539 3.9511e-18)
(-18.3393 513.347 1.9658e-18)
(-19.9728 497.593 -1.98218e-18)
(-21.5474 480.261 1.95086e-18)
(-23.0579 461.334 -1.97497e-18)
(-24.4981 440.791 1.9606e-18)
(-25.8626 418.614 1.97835e-18)
(-27.1454 394.779 8.57173e-21)
(-28.3413 369.264 1.98869e-18)
(-29.4447 342.049 2.95516e-18)
(-30.447 313.117 3.9433e-18)
(-31.3413 282.454 -1.47529e-18)
(-32.1546 250.055 2.42963e-18)
(-32.9594 215.925 -4.5755e-19)
(-33.5469 180.088 1.45335e-18)
(-32.5768 142.611 -9.64339e-19)
(-30.0373 103.643 0)
(-40.4063 63.6351 1.9695e-18)
(-103.042 23.5142 -2.1683e-20)
(103.571 23.3408 -1.64524e-19)
(40.4305 63.1936 -4.18639e-18)
(29.9698 102.987 0)
(32.5316 141.777 -1.94488e-18)
(33.5046 179.099 -5.87431e-18)
(32.9059 214.8 3.93784e-18)
(32.0951 248.815 0)
(31.2782 281.122 0)
(30.3826 311.714 -3.97686e-18)
(29.3814 340.595 7.9685e-18)
(28.2817 367.779 -5.97747e-18)
(27.0923 393.282 0)
(25.8187 417.125 0)
(24.4658 439.327 1.99502e-18)
(23.0387 459.909 1.99717e-18)
(21.5425 478.891 1.99908e-18)
(19.9823 496.292 1.00236e-17)
(18.3632 512.13 -7.98645e-18)
(16.6905 526.42 0)
(14.9697 539.176 -2.0048e-18)
(13.2054 550.413 -6.05314e-18)
(11.4026 560.143 -1.83911e-20)
(9.56685 568.373 8.064e-18)
(7.70354 575.114 0)
(5.81818 580.372 0)
(3.9163 584.152 2.02582e-18)
(2.0037 586.457 -2.02588e-18)
(0.0869811 587.292 0)
(-1.83641 586.655 -2.02497e-18)
(-3.76419 584.53 -6.0608e-18)
(-5.67931 580.915 1.81432e-17)
(-7.57821 575.807 -1.61302e-17)
(-9.45425 569.2 8.06234e-18)
(-11.3024 561.088 0)
(-13.1175 551.464 0)
(-14.8946 540.317 0)
(-16.6281 527.636 0)
(-18.313 513.407 0)
(-19.9439 497.616 1.99862e-18)
(-21.5169 480.244 0)
(-23.0273 461.269 1.97429e-18)
(-24.47 440.68 0)
(-25.8381 418.46 1.97215e-18)
(-27.125 394.589 -3.94934e-18)
(-28.3247 369.045 -1.97637e-18)
(-29.4316 341.803 0)
(-30.4375 312.848 -9.83236e-19)
(-31.3357 282.167 -4.9488e-19)
(-32.1537 249.756 -2.42641e-18)
(-32.9648 215.622 -3.0715e-20)
(-33.5642 179.788 -9.90258e-19)
(-32.5872 142.326 9.69514e-19)
(-29.978 103.392 -1.91988e-18)
(-40.4225 63.4437 -9.00814e-19)
(-104.149 23.4604 -8.57067e-19)
(104.604 23.2812 -2.10063e-20)
(40.4512 62.9922 0)
(29.9172 102.72 0)
(32.5499 141.473 1.93871e-18)
(33.5374 178.772 3.9456e-18)
(32.9349 214.459 3.98453e-21)
(32.1235 248.468 -3.9782e-18)
(31.3078 280.778 0)
(30.4142 311.38 -4.00018e-18)
(29.4158 340.28 8.01553e-18)
(28.3197 367.488 -1.99816e-18)
(27.1343 393.022 0)
(25.865 416.901 0)
(24.5167 439.142 0)
(23.094 459.768 0)
(21.6018 478.796 4.04048e-18)
(20.0451 496.245 -1.01006e-17)
(18.4288 512.131 8.0926e-18)
(16.7578 526.47 -8.09942e-18)
(15.0371 539.275 1.01375e-17)
(13.2717 550.558 8.10811e-18)
(11.4669 560.331 -6.09147e-18)
(9.62789 568.602 -2.0371e-18)
(7.7602 575.379 -8.11616e-18)
(5.86928 580.668 8.11716e-18)
(3.9608 584.474 -2.02097e-18)
(2.04083 586.8 -4.05928e-18)
(0.116614 587.649 8.12428e-18)
(-1.82 587.02 -4.0573e-18)
(-3.75134 584.895 8.11925e-18)
(-5.67174 581.272 -2.03798e-18)
(-7.57557 576.15 0)
(-9.45617 569.523 1.01479e-17)
(-11.3085 561.386 -8.1082e-18)
(-13.1271 551.731 0)
(-14.9065 540.549 0)
(-16.6415 527.829 2.03177e-18)
(-18.3267 513.559 -2.03013e-18)
(-19.957 497.726 -2.01064e-18)
(-21.5273 480.315 4.03567e-18)
(-23.0333 461.308 0)
(-24.4715 440.682 2.02161e-18)
(-25.8373 418.413 0)
(-27.1249 394.488 1.99055e-18)
(-28.3279 368.893 -1.99737e-18)
(-29.4391 341.612 3.00694e-18)
(-30.4493 312.628 1.00622e-18)
(-31.3516 281.926 4.97524e-19)
(-32.174 249.501 -4.96117e-19)
(-32.9906 215.362 -4.93802e-19)
(-33.5982 179.535 1.45291e-18)
(-32.6112 142.085 -1.93772e-18)
(-29.9243 103.172 9.52638e-19)
(-40.4361 63.2713 -1.7748e-20)
(-105.247 23.4133 1.82842e-18)
(105.628 23.2267 3.71147e-18)
(40.4696 62.8047 0)
(29.8667 102.474 0)
(32.5754 141.197 -3.93383e-18)
(33.5814 178.48 -2.22168e-20)
(32.981 214.157 -2.00594e-18)
(32.1733 248.166 4.00094e-18)
(31.3632 280.484 6.02808e-18)
(30.4765 311.101 1.4945e-21)
(29.4856 340.023 -4.03041e-18)
(28.3971 367.261 -2.01062e-18)
(27.2194 392.831 0)
(25.9576 416.75 4.05116e-18)
(24.6162 439.037 -4.05518e-18)
(23.1995 459.713 0)
(21.7122 478.793 -2.04069e-18)
(20.1589 496.296 -2.0253e-18)
(18.5443 512.238 0)
(16.8732 526.632 0)
(15.1506 539.492 -1.01828e-17)
(13.3814 550.828 8.15649e-18)
(11.5708 560.65 8.16087e-18)
(9.72428 568.967 -1.63438e-17)
(7.84726 575.784 1.8381e-17)
(5.94543 581.109 -8.1669e-18)
(4.02455 584.944 8.16816e-18)
(2.0907 587.293 -4.08394e-18)
(0.150667 588.157 -8.17471e-18)
(-1.80347 587.535 -1.42954e-17)
(-3.74374 585.406 8.16921e-18)
(-5.67592 581.774 -1.71e-20)
(-7.59103 576.635 0)
(-9.48276 569.985 -1.01928e-17)
(-11.3454 561.819 1.02057e-17)
(-13.1731 552.128 -6.12298e-18)
(-14.9602 540.905 4.07403e-18)
(-16.7011 528.14 -4.07072e-18)
(-18.3905 513.823 -2.04204e-18)
(-20.0233 497.939 4.12877e-22)
(-21.5941 480.477 0)
(-23.0979 461.418 2.03604e-18)
(-24.5299 440.748 -2.01635e-18)
(-25.887 418.445 0)
(-27.1664 394.484 4.04642e-18)
(-28.364 368.848 -2.01587e-18)
(-29.4729 341.524 -2.00302e-18)
(-30.4831 312.499 -1.99846e-18)
(-31.3866 281.765 0)
(-32.2111 249.317 -2.03544e-18)
(-33.0312 215.164 5.27688e-19)
(-33.6426 179.329 2.45715e-18)
(-32.642 141.878 -4.6903e-21)
(-29.8711 102.975 9.73656e-19)
(-40.4448 63.1125 1.99926e-18)
(-106.336 23.37 0)
(106.642 23.1744 -1.85795e-18)
(40.4835 62.627 9.94066e-20)
(29.8173 102.244 2.04391e-18)
(32.6082 140.942 0)
(33.6353 178.211 0)
(33.0414 213.883 1.99606e-18)
(32.2422 247.895 0)
(31.4428 280.224 2.02688e-18)
(30.568 310.862 1.45725e-21)
(29.5891 339.811 -4.05356e-18)
(28.5126 367.083 0)
(27.3464 392.694 2.04269e-18)
(26.0953 416.66 0)
(24.7633 439 -4.0799e-18)
(23.3545 459.731 4.08363e-18)
(21.8731 478.872 2.03559e-18)
(20.3235 496.437 2.05446e-18)
(18.7101 512.442 1.02472e-17)
(17.0376 526.899 1.11713e-21)
(15.3109 539.821 -1.64028e-17)
(13.535 551.216 8.20535e-18)
(11.7151 561.095 0)
(9.85694 569.463 -4.10651e-18)
(7.96617 576.327 -2.04567e-18)
(6.04879 581.691 1.64326e-17)
(4.11091 585.558 -8.21716e-18)
(2.15877 587.932 1.23265e-17)
(0.198748 588.812 -8.22464e-18)
(-1.77103 588.198 6.15111e-18)
(-3.73466 586.068 0)
(-5.68828 582.425 -1.69022e-20)
(-7.62361 577.267 -8.2137e-18)
(-9.53419 570.589 8.21079e-18)
(-11.4137 562.386 -4.10324e-18)
(-13.2559 552.653 -2.05877e-18)
(-15.0549 541.383 2.04086e-18)
(-16.8052 528.566 4.09511e-18)
(-18.5013 514.192 4.09142e-18)
(-20.138 498.251 -4.10515e-18)
(-21.7105 480.73 0)
(-23.214 461.613 -2.03093e-18)
(-24.6438 440.885 0)
(-25.9952 418.528 0)
(-27.2648 394.525 8.2524e-21)
(-28.4502 368.85 8.2048e-21)
(-29.5474 341.488 1.01145e-18)
(-30.5477 312.427 -2.01858e-18)
(-31.4434 281.659 1.51002e-18)
(-32.2624 249.181 1.52807e-18)
(-33.0792 215.005 -2.53861e-18)
(-33.6898 179.154 4.97364e-19)
(-32.6731 141.696 9.81201e-19)
(-29.816 102.797 -2.8163e-18)
(-40.4483 62.9681 -3.04533e-18)
(-107.416 23.3291 -1.02496e-18)
(107.649 23.1227 0)
(40.4943 62.4553 -2.0264e-18)
(29.7697 102.021 3.91526e-18)
(32.6469 140.696 -7.93295e-18)
(33.6995 177.954 3.98855e-18)
(33.1171 213.625 -4.03103e-18)
(32.3319 247.644 2.01455e-18)
(31.549 279.989 -4.05849e-18)
(30.6917 310.651 2.04111e-18)
(29.7305 339.632 4.07652e-18)
(28.6712 366.945 0)
(27.5214 392.604 -4.09162e-18)
(26.2851 416.625 -2.05723e-18)
(24.966 439.026 0)
(23.5675 459.823 -2.06229e-18)
(22.0936 479.033 0)
(20.5483 496.671 -2.0495e-18)
(18.9356 512.75 8.25603e-18)
(17.2602 527.281 1.039e-21)
(15.5267 540.275 -1.64998e-17)
(13.7403 551.74 1.0326e-17)
(11.9066 561.684 0)
(10.0311 570.112 4.13099e-18)
(8.12024 577.028 4.36877e-22)
(6.18024 582.438 -8.26519e-18)
(4.21784 586.342 0)
(2.23983 588.743 -1.03252e-17)
(0.253138 589.642 8.27443e-18)
(-1.74205 589.037 -2.05697e-18)
(-3.73817 586.905 0)
(-5.72153 583.249 4.13277e-18)
(-7.68489 578.067 0)
(-9.62115 571.354 -2.07322e-18)
(-11.5235 563.109 1.03106e-17)
(-13.3856 553.325 -1.03051e-17)
(-15.201 541.996 6.17555e-18)
(-16.9641 529.117 2.06789e-18)
(-18.6693 514.677 -1.02979e-17)
(-20.3113 498.668 2.04808e-18)
(-21.8855 481.076 6.15286e-18)
(-23.3872 461.89 -4.10302e-18)
(-24.8121 441.095 0)
(-26.1564 418.675 8.60897e-21)
(-27.416 394.612 4.09353e-18)
(-28.5878 368.891 -2.03037e-18)
(-29.6691 341.487 -2.04305e-18)
(-30.6529 312.388 0)
(-31.5327 281.585 -2.03279e-18)
(-32.3377 249.077 -3.15342e-20)
(-33.1436 214.876 2.03356e-18)
(-33.7476 179.006 -9.94539e-19)
(-32.7104 141.537 -1.97658e-18)
(-29.7632 102.637 1.89506e-18)
(-40.4497 62.834 9.68113e-19)
(-108.486 23.2921 1.86716e-18)
(108.647 23.0716 -1.90321e-18)
(40.5043 62.2845 0)
(29.7248 101.798 0)
(32.6922 140.451 0)
(33.775 177.698 0)
(33.2097 213.369 0)
(32.4444 247.398 2.02554e-18)
(31.6843 279.762 4.08078e-18)
(30.8511 310.453 -6.12715e-18)
(29.9139 339.473 2.05828e-18)
(28.8779 366.834 4.10839e-18)
(27.7499 392.549 2.05005e-18)
(26.5334 416.634 -4.13708e-18)
(25.2311 439.106 2.05531e-18)
(23.8461 459.981 -6.20529e-18)
(22.3816 479.273 4.13535e-18)
(20.8412 496.996 0)
(19.2288 513.162 -2.06324e-18)
(17.5486 527.78 2.0814e-18)
(15.8054 540.859 2.08275e-18)
(14.0044 552.406 -1.24542e-17)
(12.1512 562.426 1.03911e-17)
(10.252 570.924 1.24648e-17)
(8.31339 577.903 -1.66244e-17)
(6.34231 583.365 1.6628e-17)
(4.34608 587.313 2.0872e-18)
(2.33227 589.746 -8.31545e-18)
(0.308596 590.665 -2.08917e-18)
(-1.72483 590.069 -4.13843e-18)
(-3.76002 587.933 1.66331e-17)
(-5.78112 584.26 -1.86992e-17)
(-7.7801 579.047 8.31178e-18)
(-9.74923 572.293 -1.65274e-20)
(-11.6811 563.994 -8.30369e-18)
(-13.5687 554.149 4.14981e-18)
(-15.4054 542.752 2.08155e-18)
(-17.185 529.797 2.07993e-18)
(-18.9017 515.279 4.13965e-18)
(-20.5505 499.187 6.21148e-18)
(-22.1266 481.514 -4.14806e-18)
(-23.6255 462.246 0)
(-25.0435 441.372 0)
(-26.3769 418.877 1.66288e-20)
(-27.6226 394.745 -2.04565e-18)
(-28.7774 368.96 -2.04999e-18)
(-29.8383 341.505 3.06114e-18)
(-30.7999 312.362 1.02075e-18)
(-31.6572 281.522 2.02724e-18)
(-32.441 248.982 2.03738e-18)
(-33.2289 214.755 0)
(-33.8193 178.865 -9.99835e-19)
(-32.7557 141.384 4.96394e-18)
(-29.7135 102.482 2.99748e-18)
(-40.4497 62.7039 -9.72417e-19)
(-109.547 23.2568 -1.90033e-18)
(109.636 23.0189 1.89515e-18)
(40.5139 62.109 0)
(29.6836 101.567 0)
(32.7454 140.195 4.0177e-18)
(33.8635 177.432 -4.03082e-18)
(33.3218 213.103 -2.04541e-18)
(32.5835 247.143 0)
(31.8538 279.529 2.05929e-18)
(31.0525 310.254 -2.06476e-18)
(30.1471 339.319 -2.05295e-18)
(29.1418 366.735 -2.07347e-18)
(28.0424 392.517 2.07701e-18)
(26.8517 416.678 6.20803e-18)
(25.5713 439.234 -1.56551e-20)
(24.2035 460.201 2.08621e-18)
(22.7509 479.591 -2.07107e-18)
(21.2165 497.415 -2.08977e-18)
(19.6038 513.684 -2.09157e-18)
(17.9169 528.405 6.2637e-18)
(16.1604 541.586 -1.25181e-17)
(14.3396 553.23 2.0794e-18)
(12.4606 563.342 1.63326e-20)
(10.5298 571.923 -1.04393e-17)
(8.55459 578.976 -3.21169e-22)
(6.54251 584.5 6.26349e-18)
(4.50174 588.498 -2.08267e-18)
(2.44079 590.968 -4.19812e-18)
(0.36839 591.91 2.085e-18)
(-1.71504 591.323 3.2527e-20)
(-3.80032 589.18 -8.36498e-18)
(-5.86986 585.483 1.37887e-22)
(-7.91467 580.232 8.36009e-18)
(-9.9261 573.426 4.17808e-18)
(-11.8959 565.064 0)
(-13.8162 555.144 -1.6326e-20)
(-15.68 543.663 2.09332e-18)
(-17.4805 530.618 -6.24269e-18)
(-19.2119 516.004 1.63679e-20)
(-20.8688 499.815 1.63815e-20)
(-22.4467 482.043 2.06907e-18)
(-23.9414 462.679 6.23212e-18)
(-25.3495 441.711 -2.06413e-18)
(-26.6679 419.126 -4.12925e-18)
(-27.8942 394.912 -7.96057e-21)
(-29.0261 369.053 8.42857e-21)
(-30.0608 341.534 4.12298e-18)
(-30.9933 312.339 0)
(-31.8205 281.456 -5.11625e-19)
(-32.5755 248.882 -1.52176e-18)
(-33.3377 214.628 0)
(-33.9069 178.72 -2.02766e-18)
(-32.8108 141.228 -1.98588e-18)
(-29.6682 102.324 -1.96219e-18)
(-40.449 62.5726 -1.13837e-18)
(-110.599 23.2211 2.75685e-18)
(110.618 22.9621 0)
(40.5236 61.9234 4.04131e-18)
(29.6469 101.321 -9.25572e-20)
(32.8081 139.919 4.0381e-18)
(33.9675 177.141 2.29543e-20)
(33.457 212.81 -4.10809e-18)
(32.7544 246.861 0)
(32.0643 279.273 -8.24862e-18)
(31.3042 310.035 6.19396e-18)
(30.4398 339.153 0)
(29.4741 366.634 -2.08515e-18)
(28.4116 392.494 2.08782e-18)
(27.2537 416.745 -2.07566e-18)
(26.0012 439.401 6.25017e-18)
(24.6551 460.477 1.62176e-20)
(23.2174 479.983 1.61991e-20)
(21.6902 497.929 2.08512e-18)
(20.0767 514.321 4.19016e-18)
(18.3806 529.166 0)
(16.6066 542.468 8.37707e-18)
(14.7601 554.229 4.93553e-22)
(12.8476 564.449 1.64791e-20)
(10.8761 573.13 -8.40534e-18)
(8.85365 580.27 -8.40829e-18)
(6.78888 585.869 1.05045e-17)
(4.69098 589.925 8.41139e-18)
(2.56971 592.438 -8.4438e-18)
(0.435212 593.406 0)
(-1.71196 592.827 -2.0772e-18)
(-3.86121 590.673 0)
(-5.99236 586.947 0)
(-8.0954 581.649 -8.40775e-18)
(-10.1605 574.779 6.31126e-18)
(-12.1783 566.339 0)
(-14.1401 556.327 6.2876e-18)
(-16.0379 544.745 -2.0892e-18)
(-17.8648 531.59 6.29394e-18)
(-19.6143 516.861 -6.27235e-18)
(-21.2811 500.554 -1.17887e-22)
(-22.8607 482.664 -4.17806e-18)
(-24.3493 463.183 -2.07816e-18)
(-25.7441 442.103 -4.16674e-18)
(-27.0426 419.413 -2.08829e-18)
(-28.2433 395.101 2.06857e-18)
(-29.345 369.154 -2.06465e-18)
(-30.3458 341.558 -2.06023e-18)
(-31.2411 312.301 0)
(-32.0289 281.37 0)
(-32.7452 248.758 0)
(-33.4724 214.476 -2.55105e-19)
(-34.012 178.551 3.28609e-18)
(-32.8766 141.053 -1.00672e-18)
(-29.6277 102.153 -1.03944e-18)
(-40.448 62.4327 9.80847e-19)
(-111.643 23.1823 1.92478e-18)
(111.59 22.8989 0)
(40.5339 61.7214 -8.62356e-20)
(29.6158 101.049 -2.08714e-18)
(32.8826 139.61 -4.04575e-18)
(34.0909 176.809 4.09527e-18)
(33.6211 212.473 -4.129e-18)
(32.9645 246.534 0)
(32.3249 278.972 6.21094e-18)
(31.6174 309.778 -6.22749e-18)
(30.8054 338.955 4.16614e-18)
(29.8899 366.513 0)
(28.8742 392.464 0)
(27.7579 416.822 -6.2761e-18)
(26.5403 439.598 2.08928e-18)
(25.2215 460.805 1.59606e-20)
(23.8021 480.45 -4.20515e-18)
(22.2837 498.541 -4.20977e-18)
(20.6686 515.082 1.26563e-17)
(18.9604 530.076 -8.43335e-18)
(17.1637 543.523 2.10192e-18)