/*--------------------------------*- C++ -*----------------------------------*\
| =========                 |                                                 |
| \\      /  F ield         | OpenFOAM: The Open Source CFD Toolbox           |
|  \\    /   O peration     | Version:  2212                                  |
|   \\  /    A nd           | Website:  www.openfoam.com                      |
|    \\/     M anipulation  |                                                 |
\*---------------------------------------------------------------------------*/
FoamFile
{
    version     2.0;
    format      ascii;
    arch        "LSB;label=32;scalar=64";
    class       volScalarField;
    location    "0.2545";
    object      s;
}
// * * * * * * * * * * * * * * * * * * * * * * * * * * * * * * * * * * * * * //

dimensions      [0 0 0 0 0 0 0];

internalField   nonuniform List<scalar> 
24240
(
2.07638e-88
2.04749e-88
2.0717e-88
2.02539e-88
2.04682e-88
2.06047e-88
2.05742e-88
2.0033e-88
2.02322e-88
2.07427e-88
2.03333e-88
2.07998e-88
2.03365e-88
2.07475e-88
2.01642e-88
2.09009e-88
2.01074e-88
2.0363e-88
2.04304e-88
1.99176e-88
1.1202e-85
1.10469e-85
1.11752e-85
1.09299e-85
1.10409e-85
1.11179e-85
1.11003e-85
1.08097e-85
1.0917e-85
1.11919e-85
1.09723e-85
1.12211e-85
1.09754e-85
1.11951e-85
1.08817e-85
1.12768e-85
1.08518e-85
1.09889e-85
1.10222e-85
1.07489e-85
3.21223e-83
3.16799e-83
3.20411e-83
3.13509e-83
3.16562e-83
3.1886e-83
3.18325e-83
3.10034e-83
3.13109e-83
3.2097e-83
3.14713e-83
3.21766e-83
3.1484e-83
3.21081e-83
3.12135e-83
3.23394e-83
3.113e-83
3.15207e-83
3.1607e-83
3.08335e-83
5.28388e-81
5.21151e-81
5.2698e-81
5.15844e-81
5.2065e-81
5.24583e-81
5.23652e-81
5.10086e-81
5.1514e-81
5.28033e-81
5.17805e-81
5.29268e-81
5.18076e-81
5.28243e-81
5.13591e-81
5.31989e-81
5.12263e-81
5.18644e-81
5.1991e-81
5.07363e-81
6.27179e-79
6.18646e-79
6.25423e-79
6.12467e-79
6.17914e-79
6.22761e-79
6.21599e-79
6.05586e-79
6.11587e-79
6.26827e-79
6.14775e-79
6.28204e-79
6.15166e-79
6.27109e-79
6.09798e-79
6.31479e-79
6.0829e-79
6.15796e-79
6.17111e-79
6.02452e-79
5.15269e-77
5.08311e-77
5.13758e-77
5.03333e-77
5.07598e-77
5.11725e-77
5.10727e-77
4.97649e-77
5.02589e-77
5.15039e-77
5.05221e-77
5.16099e-77
5.05594e-77
5.15297e-77
5.01143e-77
5.18814e-77
4.99972e-77
5.06068e-77
5.06992e-77
4.95157e-77
2.93527e-75
2.89602e-75
2.92628e-75
2.8682e-75
2.89127e-75
2.91558e-75
2.9097e-75
2.83568e-75
2.86397e-75
2.93426e-75
2.87895e-75
2.9399e-75
2.88131e-75
2.93587e-75
2.85568e-75
2.95538e-75
2.84955e-75
2.88371e-75
2.88804e-75
2.82207e-75
1.11088e-73
1.09624e-73
1.10735e-73
1.0859e-73
1.09416e-73
1.10364e-73
1.10138e-73
1.07357e-73
1.08443e-73
1.11059e-73
1.09003e-73
1.1126e-73
1.09094e-73
1.11126e-73
1.08112e-73
1.11837e-73
1.07912e-73
1.09171e-73
1.09298e-73
1.06878e-73
1.12851e-72
1.11413e-72
1.12495e-72
1.10379e-72
1.11163e-72
1.12149e-72
1.1193e-72
1.09135e-72
1.10283e-72
1.12834e-72
1.10825e-72
1.13033e-72
1.10901e-72
1.12906e-72
1.09882e-72
1.13581e-72
1.09749e-72
1.10955e-72
1.11047e-72
1.08721e-72
6.18976e-73
6.19147e-73
6.21218e-73
6.11872e-73
6.15042e-73
6.1767e-73
6.21161e-73
6.07703e-73
6.24073e-73
6.17289e-73
6.20291e-73
6.21761e-73
6.13423e-73
6.17308e-73
6.05356e-73
6.14698e-73
6.16705e-73
6.10863e-73
6.12095e-73
6.17245e-73
9.89212e-73
9.96211e-73
1.00533e-72
9.8883e-73
9.82898e-73
9.86633e-73
9.96804e-73
9.78075e-73
1.00812e-72
1.00053e-72
1.00618e-72
1.00045e-72
9.95552e-73
9.84919e-73
9.77749e-73
9.86678e-73
9.79777e-73
9.82275e-73
9.88847e-73
9.91279e-73
1.12851e-72
1.13636e-72
1.14196e-72
1.12087e-72
1.12131e-72
1.10253e-72
1.12648e-72
1.10973e-72
1.13289e-72
1.15756e-72
1.14552e-72
1.12033e-72
1.14578e-72
1.12962e-72
1.12772e-72
1.13503e-72
1.09147e-72
1.12769e-72
1.11111e-72
1.11433e-72
1.30369e-72
1.32209e-72
1.32093e-72
1.31528e-72
1.32208e-72
1.33251e-72
1.36047e-72
1.32304e-72
1.32549e-72
1.30802e-72
1.31239e-72
1.31434e-72
1.32732e-72
1.33156e-72
1.30743e-72
1.32198e-72
1.32836e-72
1.31184e-72
1.30409e-72
1.30858e-72
1.41925e-72
1.41488e-72
1.42245e-72
1.44966e-72
1.43889e-72
1.45324e-72
1.42834e-72
1.45577e-72
1.42648e-72
1.3914e-72
1.40246e-72
1.41122e-72
1.4159e-72
1.39456e-72
1.38837e-72
1.40376e-72
1.38988e-72
1.41738e-72
1.40306e-72
1.43067e-72
1.45304e-72
1.44924e-72
1.47499e-72
1.45967e-72
1.44884e-72
1.47453e-72
1.46765e-72
1.49149e-72
1.45332e-72
1.47671e-72
1.4687e-72
1.47221e-72
1.47644e-72
1.47683e-72
1.46404e-72
1.49966e-72
1.46157e-72
1.44492e-72
1.46159e-72
1.45953e-72
1.45744e-72
1.43296e-72
1.43681e-72
1.43305e-72
1.4523e-72
1.46301e-72
1.46169e-72
1.4524e-72
1.42281e-72
1.43165e-72
1.41655e-72
1.45764e-72
1.45704e-72
1.47519e-72
1.47061e-72
1.46732e-72
1.45524e-72
1.45874e-72
1.44211e-72
1.44719e-72
1.33932e-72
1.35846e-72
1.33935e-72
1.38413e-72
1.34405e-72
1.37489e-72
1.34949e-72
1.36924e-72
1.35027e-72
1.35876e-72
1.35413e-72
1.38101e-72
1.35429e-72
1.39205e-72
1.34905e-72
1.37066e-72
1.36934e-72
1.33362e-72
1.37425e-72
1.37339e-72
1.2063e-72
1.24971e-72
1.23642e-72
1.22403e-72
1.2122e-72
1.26207e-72
1.24009e-72
1.24516e-72
1.23532e-72
1.2154e-72
1.23103e-72
1.25416e-72
1.22855e-72
1.27466e-72
1.22983e-72
1.25144e-72
1.25744e-72
1.23856e-72
1.25924e-72
1.26211e-72
1.11765e-72
1.11719e-72
1.11529e-72
1.13073e-72
1.13602e-72
1.13519e-72
1.11216e-72
1.12874e-72
1.14739e-72
1.11501e-72
1.1376e-72
1.14349e-72
1.10939e-72
1.15112e-72
1.14469e-72
1.16739e-72
1.1333e-72
1.14965e-72
1.13556e-72
1.16253e-72
7.76806e-73
7.82707e-73
7.79991e-73
7.73153e-73
7.83874e-73
7.80216e-73
7.84963e-73
7.81572e-73
7.81903e-73
7.92822e-73
7.75804e-73
7.95498e-73
7.75543e-73
8.02716e-73
7.77499e-73
7.78349e-73
7.82527e-73
7.97358e-73
7.84646e-73
8.04086e-73
6.92997e-87
6.83387e-87
6.91364e-87
6.76158e-87
6.83044e-87
6.87805e-87
6.8671e-87
6.68731e-87
6.75345e-87
6.92408e-87
6.78775e-87
6.94221e-87
6.7897e-87
6.92582e-87
6.73179e-87
6.97658e-87
6.71278e-87
6.79799e-87
6.81883e-87
6.64905e-87
3.74261e-84
3.69099e-84
3.7333e-84
3.6527e-84
3.68836e-84
3.71516e-84
3.70887e-84
3.61225e-84
3.64792e-84
3.73988e-84
3.66668e-84
3.74915e-84
3.66819e-84
3.74103e-84
3.63669e-84
3.76809e-84
3.62667e-84
3.67243e-84
3.68263e-84
3.59205e-84
1.0625e-81
1.04793e-81
1.05972e-81
1.03728e-81
1.04697e-81
1.05488e-81
1.05299e-81
1.02571e-81
1.03582e-81
1.06187e-81
1.04121e-81
1.06435e-81
1.04177e-81
1.06225e-81
1.03276e-81
1.06983e-81
1.03e-81
1.04291e-81
1.0455e-81
1.02012e-81
1.75886e-79
1.7349e-79
1.75404e-79
1.7176e-79
1.73292e-79
1.74653e-79
1.74324e-79
1.69831e-79
1.71504e-79
1.75803e-79
1.72404e-79
1.76189e-79
1.72518e-79
1.75875e-79
1.71015e-79
1.7711e-79
1.70573e-79
1.72695e-79
1.73072e-79
1.68929e-79
2.05741e-77
2.02957e-77
2.05149e-77
2.00974e-77
2.02681e-77
2.04332e-77
2.03927e-77
1.98702e-77
2.00659e-77
2.05667e-77
2.0172e-77
2.0609e-77
2.01877e-77
2.05762e-77
2.00104e-77
2.07181e-77
1.99609e-77
2.02069e-77
2.02449e-77
1.97678e-77
1.67394e-75
1.65148e-75
1.66893e-75
1.63566e-75
1.64886e-75
1.66277e-75
1.65934e-75
1.61708e-75
1.63303e-75
1.67355e-75
1.6417e-75
1.67676e-75
1.64315e-75
1.6744e-75
1.62859e-75
1.68571e-75
1.62479e-75
1.64457e-75
1.64715e-75
1.609e-75
9.39247e-74
9.26776e-74
9.36321e-74
9.18072e-74
9.25086e-74
9.33146e-74
9.31156e-74
9.07605e-74
9.16599e-74
9.39136e-74
9.21461e-74
9.40804e-74
9.22349e-74
9.39651e-74
9.14091e-74
9.4583e-74
9.1213e-74
9.23049e-74
9.242e-74
9.03249e-74
3.51144e-72
3.46553e-72
3.50016e-72
3.43358e-72
3.45831e-72
3.48933e-72
3.48179e-72
3.39441e-72
3.42849e-72
3.51138e-72
3.44643e-72
3.5172e-72
3.44984e-72
3.51345e-72
3.41856e-72
3.5357e-72
3.41225e-72
3.45199e-72
3.45516e-72
3.37921e-72
3.51731e-71
3.47289e-71
3.50613e-71
3.4414e-71
3.46447e-71
3.49623e-71
3.489e-71
3.4024e-71
3.43794e-71
3.51766e-71
3.45508e-71
3.52332e-71
3.45796e-71
3.51985e-71
3.42598e-71
3.54065e-71
3.42183e-71
3.45938e-71
3.46141e-71
3.38941e-71
1.89355e-71
1.89409e-71
1.90077e-71
1.87226e-71
1.88148e-71
1.88986e-71
1.90018e-71
1.85928e-71
1.90941e-71
1.88868e-71
1.89792e-71
1.9021e-71
1.877e-71
1.8886e-71
1.85244e-71
1.88025e-71
1.88675e-71
1.869e-71
1.87278e-71
1.88845e-71
3.0417e-71
3.06282e-71
3.09107e-71
3.04016e-71
3.02202e-71
3.03318e-71
3.06396e-71
3.00706e-71
3.09915e-71
3.07621e-71
3.09351e-71
3.07541e-71
3.06101e-71
3.02843e-71
3.00649e-71
3.03341e-71
3.01182e-71
3.02006e-71
3.04e-71
3.0471e-71
3.44994e-71
3.47366e-71
3.49087e-71
3.42625e-71
3.42815e-71
3.37136e-71
3.44426e-71
3.39372e-71
3.46287e-71
3.53797e-71
3.50086e-71
3.42495e-71
3.5021e-71
3.45337e-71
3.44724e-71
3.46963e-71
3.3373e-71
3.44666e-71
3.39678e-71
3.40629e-71
3.9924e-71
4.04731e-71
4.04448e-71
4.02804e-71
4.04844e-71
4.08058e-71
4.16434e-71
4.05212e-71
4.05877e-71
4.00503e-71
4.0182e-71
4.0244e-71
4.06419e-71
4.07782e-71
4.00421e-71
4.04805e-71
4.0673e-71
4.01766e-71
3.99359e-71
4.0076e-71
4.3134e-71
4.29923e-71
4.32196e-71
4.40455e-71
4.37215e-71
4.41557e-71
4.33977e-71
4.42376e-71
4.33326e-71
4.22929e-71
4.26165e-71
4.28904e-71
4.30237e-71
4.2383e-71
4.21945e-71
4.26641e-71
4.22344e-71
4.30699e-71
4.26377e-71
4.34717e-71
4.42748e-71
4.41544e-71
4.49362e-71
4.44665e-71
4.41428e-71
4.49314e-71
4.47117e-71
4.54425e-71
4.42843e-71
4.49993e-71
4.47511e-71
4.48603e-71
4.49803e-71
4.5009e-71
4.46145e-71
4.56895e-71
4.45354e-71
4.40258e-71
4.45339e-71
4.44592e-71
4.40219e-71
4.32876e-71
4.33868e-71
4.32846e-71
4.38664e-71
4.41883e-71
4.41438e-71
4.38632e-71
4.29766e-71
4.32391e-71
4.27804e-71
4.4018e-71
4.40076e-71
4.45511e-71
4.44174e-71
4.43071e-71
4.39523e-71
4.40632e-71
4.35598e-71
4.37125e-71
4.06146e-71
4.12027e-71
4.06185e-71
4.19696e-71
4.07475e-71
4.1683e-71
4.0913e-71
4.15203e-71
4.09473e-71
4.12092e-71
4.10641e-71
4.18802e-71
4.10654e-71
4.2207e-71
4.09107e-71
4.15574e-71
4.1523e-71
4.04452e-71
4.16737e-71
4.1648e-71
3.63334e-71
3.76282e-71
3.72359e-71
3.68558e-71
3.65073e-71
3.79973e-71
3.73345e-71
3.74915e-71
3.71964e-71
3.66003e-71
3.70627e-71
3.77579e-71
3.69931e-71
3.83685e-71
3.70299e-71
3.7678e-71
3.78518e-71
3.72968e-71
3.79101e-71
3.80008e-71
3.39058e-71
3.38914e-71
3.38394e-71
3.43039e-71
3.44572e-71
3.44331e-71
3.37337e-71
3.4252e-71
3.48041e-71
3.383e-71
3.45092e-71
3.46914e-71
3.36517e-71
3.49175e-71
3.47243e-71
3.54109e-71
3.43821e-71
3.48688e-71
3.44421e-71
3.52556e-71
2.34566e-71
2.36361e-71
2.35563e-71
2.33475e-71
2.36651e-71
2.3559e-71
2.36971e-71
2.36014e-71
2.35999e-71
2.39352e-71
2.34191e-71
2.40129e-71
2.34147e-71
2.42322e-71
2.34728e-71
2.34991e-71
2.36217e-71
2.407e-71
2.36884e-71
2.42712e-71
2.33403e-85
2.30178e-85
2.32828e-85
2.27794e-85
2.30021e-85
2.31696e-85
2.313e-85
2.25275e-85
2.27491e-85
2.33246e-85
2.28665e-85
2.33825e-85
2.28762e-85
2.3331e-85
2.26798e-85
2.35004e-85
2.26157e-85
2.29024e-85
2.29667e-85
2.23996e-85
1.24654e-82
1.22942e-82
1.24332e-82
1.21694e-82
1.22832e-82
1.23763e-82
1.23539e-82
1.20338e-82
1.21519e-82
1.24587e-82
1.22154e-82
1.24878e-82
1.22221e-82
1.24627e-82
1.21165e-82
1.2552e-82
1.2083e-82
1.22353e-82
1.22661e-82
1.19669e-82
3.47715e-80
3.42971e-80
3.46775e-80
3.39559e-80
3.42591e-80
3.45288e-80
3.4463e-80
3.35747e-80
3.39037e-80
3.47576e-80
3.40828e-80
3.48339e-80
3.41061e-80
3.47707e-80
3.38091e-80
3.50163e-80
3.37187e-80
3.41407e-80
3.42165e-80
3.33927e-80
5.69289e-78
5.61576e-78
5.67683e-78
5.56102e-78
5.60833e-78
5.65413e-78
5.6428e-78
5.49818e-78
5.55198e-78
5.69139e-78
5.58158e-78
5.70306e-78
5.58608e-78
5.69378e-78
5.53707e-78
5.73336e-78
5.52276e-78
5.59136e-78
5.60211e-78
5.46908e-78
6.54724e-76
6.45924e-76
6.528e-76
6.39755e-76
6.44925e-76
6.5038e-76
6.49016e-76
6.32483e-76
6.38669e-76
6.54638e-76
6.42096e-76
6.55886e-76
6.42691e-76
6.54943e-76
6.37005e-76
6.59414e-76
6.35433e-76
6.43252e-76
6.44292e-76
6.29228e-76
5.26382e-74
5.19371e-74
5.24776e-74
5.1451e-74
5.1845e-74
5.22985e-74
5.21843e-74
5.08634e-74
5.13615e-74
5.26384e-74
5.16382e-74
5.27312e-74
5.16915e-74
5.26651e-74
5.12301e-74
5.3017e-74
5.11107e-74
5.17321e-74
5.17997e-74
5.06092e-74
2.90687e-72
2.86859e-72
2.89769e-72
2.84228e-72
2.86281e-72
2.88866e-72
2.88215e-72
2.80971e-72
2.83734e-72
2.90725e-72
2.8526e-72
2.91196e-72
2.85579e-72
2.90883e-72
2.83003e-72
2.92774e-72
2.82398e-72
2.85774e-72
2.86055e-72
2.79619e-72
1.07149e-70
1.0576e-70
1.06801e-70
1.04808e-70
1.0552e-70
1.06499e-70
1.06256e-70
1.03606e-70
1.04639e-70
1.07174e-70
1.05194e-70
1.07335e-70
1.05315e-70
1.07237e-70
1.04352e-70
1.07907e-70
1.0416e-70
1.05372e-70
1.05441e-70
1.0314e-70
1.05745e-69
1.04423e-69
1.05408e-69
1.03499e-69
1.0415e-69
1.05137e-69
1.04907e-69
1.0232e-69
1.03381e-69
1.05784e-69
1.03904e-69
1.05938e-69
1.04007e-69
1.05848e-69
1.03038e-69
1.06465e-69
1.02913e-69
1.04041e-69
1.04076e-69
1.01926e-69
5.58033e-70
5.582e-70
5.60272e-70
5.51894e-70
5.54465e-70
5.5704e-70
5.5997e-70
5.47998e-70
5.62789e-70
5.56689e-70
5.59427e-70
5.60564e-70
5.53292e-70
5.56625e-70
5.46091e-70
5.5405e-70
5.56069e-70
5.50879e-70
5.52002e-70
5.56587e-70
9.01234e-70
9.0737e-70
9.158e-70
9.00664e-70
8.9532e-70
8.98533e-70
9.07499e-70
8.90855e-70
9.18043e-70
9.11365e-70
9.16466e-70
9.1097e-70
9.06895e-70
8.97283e-70
8.90809e-70
8.98625e-70
8.92123e-70
8.94724e-70
9.0055e-70
9.02539e-70
1.01689e-69
1.02379e-69
1.02889e-69
1.0098e-69
1.01053e-69
9.93972e-70
1.01537e-69
1.00068e-69
1.02056e-69
1.0426e-69
1.03157e-69
1.00952e-69
1.03206e-69
1.0179e-69
1.01601e-69
1.02262e-69
9.8386e-70
1.01569e-69
1.00123e-69
1.00394e-69
1.17905e-69
1.19484e-69
1.19421e-69
1.18961e-69
1.19551e-69
1.20506e-69
1.22923e-69
1.19681e-69
1.19853e-69
1.18261e-69
1.18642e-69
1.18831e-69
1.20009e-69
1.2043e-69
1.18265e-69
1.19538e-69
1.20098e-69
1.1866e-69
1.17938e-69
1.18359e-69
1.26603e-69
1.2616e-69
1.26818e-69
1.29239e-69
1.283e-69
1.29568e-69
1.2734e-69
1.29822e-69
1.27122e-69
1.2415e-69
1.25062e-69
1.25889e-69
1.26253e-69
1.24397e-69
1.23842e-69
1.25225e-69
1.23942e-69
1.26393e-69
1.25133e-69
1.27564e-69
1.30316e-69
1.29944e-69
1.32235e-69
1.30845e-69
1.29917e-69
1.32251e-69
1.31572e-69
1.33737e-69
1.30343e-69
1.32451e-69
1.31709e-69
1.32038e-69
1.32365e-69
1.32501e-69
1.31327e-69
1.34455e-69
1.31079e-69
1.29575e-69
1.31069e-69
1.30815e-69
1.28684e-69
1.26556e-69
1.268e-69
1.26536e-69
1.28228e-69
1.29166e-69
1.29021e-69
1.2821e-69
1.25639e-69
1.26395e-69
1.25047e-69
1.28645e-69
1.28639e-69
1.30209e-69
1.29834e-69
1.29484e-69
1.28471e-69
1.28812e-69
1.2734e-69
1.27782e-69
1.19227e-69
1.2097e-69
1.19241e-69
1.2318e-69
1.19584e-69
1.22328e-69
1.20071e-69
1.21872e-69
1.20197e-69
1.2098e-69
1.20538e-69
1.22941e-69
1.20538e-69
1.23877e-69
1.20099e-69
1.21966e-69
1.21884e-69
1.18739e-69
1.22328e-69
1.22255e-69
1.0607e-69
1.09812e-69
1.0869e-69
1.07565e-69
1.06566e-69
1.10879e-69
1.08942e-69
1.09414e-69
1.08555e-69
1.06828e-69
1.08151e-69
1.10177e-69
1.07965e-69
1.11939e-69
1.08066e-69
1.09949e-69
1.10436e-69
1.08856e-69
1.10618e-69
1.10896e-69
9.9665e-70
9.96258e-70
9.94896e-70
1.00839e-69
1.01266e-69
1.01204e-69
9.91465e-70
1.00715e-69
1.02293e-69
9.94565e-70
1.01433e-69
1.01981e-69
9.89111e-70
1.02631e-69
1.02066e-69
1.04076e-69
1.01073e-69
1.02471e-69
1.01223e-69
1.03597e-69
6.8454e-70
6.89796e-70
6.87538e-70
6.81404e-70
6.90494e-70
6.87504e-70
6.91361e-70
6.88787e-70
6.88419e-70
6.98341e-70
6.83244e-70
7.00524e-70
6.83192e-70
7.06953e-70
6.84895e-70
6.8569e-70
6.89116e-70
7.02233e-70
6.91147e-70
7.08037e-70
7.6134e-84
7.50868e-84
7.59394e-84
7.43258e-84
7.50222e-84
7.55915e-84
7.54537e-84
7.34985e-84
7.42169e-84
7.60978e-84
7.46063e-84
7.62757e-84
7.46483e-84
7.61199e-84
7.40032e-84
7.66672e-84
7.37938e-84
7.47279e-84
7.49182e-84
7.30833e-84
4.1266e-81
4.07022e-81
4.11558e-81
4.0298e-81
4.06584e-81
4.09791e-81
4.09002e-81
3.9846e-81
4.02346e-81
4.12522e-81
4.04481e-81
4.13426e-81
4.04763e-81
4.12661e-81
4.0124e-81
4.15588e-81
4.00133e-81
4.05167e-81
4.06081e-81
3.96256e-81
1.13715e-78
1.12173e-78
1.13399e-78
1.11082e-78
1.12028e-78
1.12945e-78
1.12716e-78
1.09827e-78
1.10896e-78
1.13694e-78
1.11491e-78
1.13927e-78
1.11583e-78
1.13738e-78
1.10605e-78
1.14533e-78
1.10309e-78
1.11688e-78
1.11906e-78
1.09234e-78
1.83791e-76
1.81317e-76
1.8326e-76
1.7959e-76
1.81043e-76
1.82579e-76
1.82191e-76
1.77549e-76
1.79274e-76
1.83784e-76
1.80244e-76
1.84133e-76
1.80416e-76
1.83862e-76
1.78822e-76
1.85127e-76
1.78361e-76
1.80573e-76
1.80872e-76
1.76611e-76
2.07829e-74
2.05056e-74
2.07206e-74
2.03143e-74
2.047e-74
2.06496e-74
2.06038e-74
2.00821e-74
2.02771e-74
2.07851e-74
2.03875e-74
2.08215e-74
2.04094e-74
2.07948e-74
2.02275e-74
2.09352e-74
2.01777e-74
2.04257e-74
2.04533e-74
1.99787e-74
1.64876e-72
1.62698e-72
1.64366e-72
1.61212e-72
1.62379e-72
1.6385e-72
1.63473e-72
1.59361e-72
1.6091e-72
1.64918e-72
1.61788e-72
1.65184e-72
1.61981e-72
1.65001e-72
1.60524e-72
1.66092e-72
1.60151e-72
1.62095e-72
1.62264e-72
1.58563e-72
8.96072e-71
8.84378e-71
8.93215e-71
8.76462e-71
8.82429e-71
8.90672e-71
8.88558e-71
8.66367e-71
8.74822e-71
8.96422e-71
8.7959e-71
8.97736e-71
8.80714e-71
8.96905e-71
8.72709e-71
9.02668e-71
8.7085e-71
8.81243e-71
8.81877e-71
8.62183e-71
3.25373e-69
3.21198e-69
3.24312e-69
3.18378e-69
3.20407e-69
3.23481e-69
3.22703e-69
3.1471e-69
3.1782e-69
3.25539e-69
3.19529e-69
3.25976e-69
3.19947e-69
3.25724e-69
3.17002e-69
3.27736e-69
3.1642e-69
3.20095e-69
3.20222e-69
3.13285e-69
3.16372e-68
3.12459e-68
3.15364e-68
3.09763e-68
3.11584e-68
3.14634e-68
3.13905e-68
3.06219e-68
3.09367e-68
3.16579e-68
3.10952e-68
3.16986e-68
3.11313e-68
3.16764e-68
3.08392e-68
3.18585e-68
3.08017e-68
3.11389e-68
3.11415e-68
3.05024e-68
1.63545e-68
1.63596e-68
1.64234e-68
1.61785e-68
1.62496e-68
1.63281e-68
1.64106e-68
1.60623e-68
1.64962e-68
1.63179e-68
1.63984e-68
1.6429e-68
1.62195e-68
1.63147e-68
1.60095e-68
1.62359e-68
1.62981e-68
1.61472e-68
1.61804e-68
1.63137e-68
2.65649e-68
2.67422e-68
2.69923e-68
2.65447e-68
2.63882e-68
2.64801e-68
2.67398e-68
2.62557e-68
2.70541e-68
2.68609e-68
2.70103e-68
2.68445e-68
2.67299e-68
2.64479e-68
2.62578e-68
2.64835e-68
2.62887e-68
2.637e-68
2.65394e-68
2.65945e-68
2.98307e-68
3.00307e-68
3.01813e-68
2.96201e-68
2.96461e-68
2.91657e-68
2.97909e-68
2.93659e-68
2.99342e-68
3.05781e-68
3.02519e-68
2.96146e-68
3.02699e-68
2.98609e-68
2.98027e-68
2.99968e-68
2.8867e-68
2.97888e-68
2.93723e-68
2.94486e-68
3.46636e-68
3.51147e-68
3.51028e-68
3.49752e-68
3.51448e-68
3.54277e-68
3.61205e-68
3.5189e-68
3.52326e-68
3.47631e-68
3.48727e-68
3.49301e-68
3.52767e-68
3.54057e-68
3.47725e-68
3.51403e-68
3.53023e-68
3.4888e-68
3.46724e-68
3.47986e-68
3.70319e-68
3.68945e-68
3.70843e-68
3.77913e-68
3.75199e-68
3.78891e-68
3.72364e-68
3.79673e-68
3.71651e-68
3.63191e-68
3.65744e-68
3.68232e-68
3.69217e-68
3.63861e-68
3.62236e-68
3.66291e-68
3.62475e-68
3.6964e-68
3.65982e-68
3.73041e-68
3.82344e-68
3.81204e-68
3.87893e-68
3.83796e-68
3.81145e-68
3.88027e-68
3.85945e-68
3.92337e-68
3.82425e-68
3.88621e-68
3.86409e-68
3.87395e-68
3.88277e-68
3.88829e-68
3.85347e-68
3.94419e-68
3.84576e-68
3.80155e-68
3.84529e-68
3.83682e-68
3.75593e-68
3.6944e-68
3.70017e-68
3.6935e-68
3.74261e-68
3.76987e-68
3.76521e-68
3.74183e-68
3.66739e-68
3.68914e-68
3.64958e-68
3.75396e-68
3.7545e-68
3.79977e-68
3.78931e-68
3.77826e-68
3.74941e-68
3.75994e-68
3.71695e-68
3.72968e-68
3.49525e-68
3.54692e-68
3.49578e-68
3.6105e-68
3.50476e-68
3.58515e-68
3.5191e-68
3.5724e-68
3.52356e-68
3.54696e-68
3.53353e-68
3.60421e-68
3.53338e-68
3.63088e-68
3.52091e-68
3.57471e-68
3.57293e-68
3.48124e-68
3.58604e-68
3.58394e-68
3.09876e-68
3.2069e-68
3.17484e-68
3.14141e-68
3.11287e-68
3.2378e-68
3.18115e-68
3.19531e-68
3.1703e-68
3.12017e-68
3.15807e-68
3.21715e-68
3.15317e-68
3.26807e-68
3.15596e-68
3.21072e-68
3.22435e-68
3.17937e-68
3.22996e-68
3.23846e-68
2.93194e-68
2.93078e-68
2.92729e-68
2.96657e-68
2.97848e-68
2.97678e-68
2.91623e-68
2.9637e-68
3.00889e-68
2.9262e-68
2.98378e-68
3.00024e-68
2.9095e-68
3.01888e-68
3.00243e-68
3.06133e-68
2.97353e-68
3.01376e-68
2.97715e-68
3.04655e-68
2.00903e-68
2.02458e-68
2.01815e-68
1.99995e-68
2.02609e-68
2.01768e-68
2.02854e-68
2.02158e-68
2.01949e-68
2.04909e-68
2.00461e-68
2.05522e-68
2.00475e-68
2.0742e-68
2.00968e-68
2.01207e-68
2.02179e-68
2.06033e-68
2.028e-68
2.07719e-68
2.57243e-82
2.53722e-82
2.56562e-82
2.51207e-82
2.53457e-82
2.5546e-82
2.54964e-82
2.48394e-82
2.50806e-82
2.57173e-82
2.52142e-82
2.57737e-82
2.5232e-82
2.57251e-82
2.50125e-82
2.59083e-82
2.49417e-82
2.5257e-82
2.53146e-82
2.46997e-82
1.37309e-79
1.35444e-79
1.36931e-79
1.34129e-79
1.35273e-79
1.36382e-79
1.36104e-79
1.32616e-79
1.339e-79
1.37292e-79
1.34621e-79
1.37573e-79
1.34735e-79
1.3734e-79
1.33554e-79
1.38305e-79
1.33186e-79
1.34859e-79
1.35127e-79
1.31884e-79
3.71706e-77
3.66697e-77
3.70647e-77
3.63212e-77
3.66155e-77
3.69267e-77
3.68475e-77
3.59087e-77
3.62558e-77
3.71721e-77
3.6453e-77
3.72428e-77
3.64886e-77
3.71868e-77
3.61664e-77
3.74441e-77
3.60698e-77
3.652e-77
3.65817e-77
3.57148e-77
5.92699e-75
5.8478e-75
5.90953e-75
5.79339e-75
5.83788e-75
5.88921e-75
5.87601e-75
5.7272e-75
5.78245e-75
5.92818e-75
5.81417e-75
5.93856e-75
5.82061e-75
5.93074e-75
5.76879e-75
5.9711e-75
5.75395e-75
5.8252e-75
5.83329e-75
5.69693e-75
6.58733e-73
6.50017e-73
6.56731e-73
6.44096e-73
6.48766e-73
6.54661e-73
6.53132e-73
6.36697e-73
6.42832e-73
6.58968e-73
6.4638e-73
6.60024e-73
6.47176e-73
6.59277e-73
6.41365e-73
6.6368e-73
6.39791e-73
6.4764e-73
6.48341e-73
6.33413e-73
5.15207e-71
5.08462e-71
5.13596e-71
5.03929e-71
5.07368e-71
5.12125e-71
5.10884e-71
4.98116e-71
5.02918e-71
5.15473e-71
5.05702e-71
5.16223e-71
5.06383e-71
5.15731e-71
5.01793e-71
5.191e-71
5.00633e-71
5.067e-71
5.07092e-71
4.9561e-71
2.75464e-69
2.71905e-69
2.7458e-69
2.69531e-69
2.71254e-69
2.73873e-69
2.7319e-69
2.66412e-69
2.68991e-69
2.75647e-69
2.70476e-69
2.76008e-69
2.70865e-69
2.75793e-69
2.68384e-69
2.77544e-69
2.67815e-69
2.71006e-69
2.71129e-69
2.65117e-69
9.84427e-68
9.71933e-68
9.81213e-68
9.63614e-68
9.69351e-68
9.78958e-68
9.76483e-68
9.52462e-68
9.61797e-68
9.85211e-68
9.67035e-68
9.86375e-68
9.68458e-68
9.85756e-68
9.59475e-68
9.91769e-68
9.57723e-68
9.68826e-68
9.68958e-68
9.48108e-68
9.42848e-67
9.31325e-67
9.39855e-67
9.23496e-67
9.28538e-67
9.3792e-67
9.35627e-67
9.12881e-67
9.22187e-67
9.43744e-67
9.26975e-67
9.44802e-67
9.28205e-67
9.44274e-67
9.1943e-67
9.49628e-67
9.18313e-67
9.28353e-67
9.28195e-67
9.09266e-67
4.77118e-67
4.77274e-67
4.79226e-67
4.72099e-67
4.74047e-67
4.7642e-67
4.78734e-67
4.6865e-67
4.81318e-67
4.76131e-67
4.78487e-67
4.793e-67
4.73297e-67
4.75997e-67
4.672e-67
4.73603e-67
4.75502e-67
4.71141e-67
4.72114e-67
4.75973e-67
7.79615e-67
7.84714e-67
7.92101e-67
7.78923e-67
7.74361e-67
7.7698e-67
7.84467e-67
7.70451e-67
7.93789e-67
7.88227e-67
7.92578e-67
7.87609e-67
7.844e-67
7.7617e-67
7.70609e-67
7.77098e-67
7.71289e-67
7.73809e-67
7.78709e-67
7.80226e-67
8.71693e-67
8.77459e-67
8.81888e-67
8.65457e-67
8.66351e-67
8.52467e-67
8.70658e-67
8.58427e-67
8.74588e-67
8.93328e-67
8.83719e-67
8.65375e-67
8.84348e-67
8.72588e-67
8.70806e-67
8.76488e-67
8.43687e-67
8.70268e-67
8.58328e-67
8.60467e-67
1.01531e-66
1.02815e-66
1.02798e-66
1.02447e-66
1.02932e-66
1.03767e-66
1.05745e-66
1.03079e-66
1.03187e-66
1.01809e-66
1.02122e-66
1.02295e-66
1.03312e-66
1.03704e-66
1.01859e-66
1.02918e-66
1.03384e-66
1.02196e-66
1.01554e-66
1.0193e-66
1.08016e-66
1.07593e-66
1.08139e-66
1.10197e-66
1.09416e-66
1.10488e-66
1.08581e-66
1.10727e-66
1.0835e-66
1.05951e-66
1.06662e-66
1.07408e-66
1.07672e-66
1.06131e-66
1.05657e-66
1.06842e-66
1.05712e-66
1.078e-66
1.06741e-66
1.08784e-66
1.11883e-66
1.11535e-66
1.13482e-66
1.12278e-66
1.11524e-66
1.13547e-66
1.12911e-66
1.14793e-66
1.11907e-66
1.13722e-66
1.13064e-66
1.13359e-66
1.13595e-66
1.13802e-66
1.1277e-66
1.15394e-66
1.12533e-66
1.11238e-66
1.12514e-66
1.12237e-66
1.09439e-66
1.07667e-66
1.07797e-66
1.07631e-66
1.0905e-66
1.09843e-66
1.09694e-66
1.09025e-66
1.06873e-66
1.07498e-66
1.0634e-66
1.09361e-66
1.09397e-66
1.10697e-66
1.10406e-66
1.10065e-66
1.09242e-66
1.09563e-66
1.08314e-66
1.0868e-66
1.02312e-66
1.03837e-66
1.02327e-66
1.05659e-66
1.02561e-66
1.0491e-66
1.02982e-66
1.04554e-66
1.03132e-66
1.0383e-66
1.03422e-66
1.05499e-66
1.03416e-66
1.06259e-66
1.03066e-66
1.04609e-66
1.04576e-66
1.0191e-66
1.0496e-66
1.04901e-66
9.04564e-67
9.35785e-67
9.26635e-67
9.16751e-67
9.08575e-67
9.44723e-67
9.2817e-67
9.32412e-67
9.25134e-67
9.10611e-67
9.21448e-67
9.38659e-67
9.20173e-67
9.53355e-67
9.20935e-67
9.36844e-67
9.40647e-67
9.27855e-67
9.42366e-67
9.44963e-67
8.61955e-67
8.61642e-67
8.60763e-67
8.72168e-67
8.75466e-67
8.75037e-67
8.57234e-67
8.71566e-67
8.84463e-67
8.6039e-67
8.77147e-67
8.82093e-67
8.55306e-67
8.87439e-67
8.82636e-67
8.99872e-67
8.74256e-67
8.8579e-67
8.75083e-67
8.95332e-67
5.88776e-67
5.93347e-67
5.91526e-67
5.86156e-67
5.93662e-67
5.91289e-67
5.94325e-67
5.92472e-67
5.91578e-67
6.00372e-67
5.87306e-67
6.02096e-67
5.87416e-67
6.07683e-67
5.88865e-67
5.89589e-67
5.92309e-67
6.03629e-67
5.942e-67
6.08513e-67
8.67767e-81
8.5596e-81
8.65403e-81
8.47666e-81
8.54909e-81
8.61932e-81
8.60157e-81
8.38117e-81
8.462e-81
8.67719e-81
8.50777e-81
8.69495e-81
8.51501e-81
8.67993e-81
8.44039e-81
8.7411e-81
8.41652e-81
8.52276e-81
8.53993e-81
8.33415e-81
4.56475e-78
4.50315e-78
4.55189e-78
4.46044e-78
4.49664e-78
4.53492e-78
4.52512e-78
4.40983e-78
4.45225e-78
4.56525e-78
4.47658e-78
4.57391e-78
4.48101e-78
4.56688e-78
4.44145e-78
4.59862e-78
4.42923e-78
4.4848e-78
4.49251e-78
4.38554e-78
1.21376e-75
1.19753e-75
1.21024e-75
1.18641e-75
1.19553e-75
1.20607e-75
1.20334e-75
1.17287e-75
1.18412e-75
1.2141e-75
1.19065e-75
1.21623e-75
1.19199e-75
1.21459e-75
1.18139e-75
1.2229e-75
1.17824e-75
1.19292e-75
1.19462e-75
1.16653e-75
1.90739e-73
1.88211e-73
1.90168e-73
1.86502e-73
1.87856e-73
1.89568e-73
1.8912e-73
1.84361e-73
1.86125e-73
1.90825e-73
1.8716e-73
1.9113e-73
1.87397e-73
1.90908e-73
1.85716e-73
1.92193e-73
1.85239e-73
1.8753e-73
1.8774e-73
1.83384e-73
2.08317e-71
2.05586e-71
2.07677e-71
2.03759e-71
2.05151e-71
2.0708e-71
2.06571e-71
2.01407e-71
2.03332e-71
2.08447e-71
2.04469e-71
2.08748e-71
2.04753e-71
2.08543e-71
2.029e-71
2.09921e-71
2.02405e-71
2.04884e-71
2.0505e-71
2.00363e-71
1.60461e-69
1.58381e-69
1.59956e-69
1.57004e-69
1.5801e-69
1.59541e-69
1.59135e-69
1.55185e-69
1.56668e-69
1.60588e-69
1.57547e-69
1.60796e-69
1.57785e-69
1.60667e-69
1.56343e-69
1.61705e-69
1.55983e-69
1.57871e-69
1.5795e-69
1.54399e-69
8.43832e-68
8.33051e-68
8.41119e-68
8.25961e-68
8.30893e-68
8.39178e-68
8.36982e-68
8.16362e-68
8.24196e-68
8.44638e-68
8.28804e-68
8.45606e-68
8.30133e-68
8.45072e-68
8.22469e-68
8.50374e-68
8.20734e-68
8.30498e-68
8.30652e-68
8.12357e-68
2.96602e-66
2.92883e-66
2.95635e-66
2.9044e-66
2.92048e-66
2.95034e-66
2.94252e-66
2.87065e-66
2.89854e-66
2.96927e-66
2.91452e-66
2.97229e-66
2.9193e-66
2.97085e-66
2.892e-66
2.98874e-66
2.88675e-66
2.92016e-66
2.91979e-66
2.85736e-66
2.79779e-65
2.76405e-65
2.78898e-65
2.74142e-65
2.75525e-65
2.78394e-65
2.77679e-65
2.70977e-65
2.73716e-65
2.80132e-65
2.75155e-65
2.804e-65
2.75567e-65
2.80282e-65
2.72942e-65
2.81849e-65
2.72611e-65
2.75588e-65
2.7547e-65
2.69885e-65
1.38509e-65
1.38557e-65
1.39149e-65
1.37085e-65
1.37614e-65
1.38327e-65
1.38971e-65
1.36067e-65
1.39747e-65
1.38247e-65
1.38932e-65
1.39145e-65
1.37433e-65
1.38195e-65
1.35672e-65
1.37473e-65
1.38048e-65
1.36794e-65
1.37079e-65
1.38189e-65
2.27734e-65
2.29193e-65
2.31364e-65
2.27502e-65
2.26179e-65
2.26921e-65
2.29069e-65
2.25032e-65
2.31821e-65
2.30229e-65
2.31488e-65
2.30008e-65
2.29114e-65
2.26725e-65
2.25104e-65
2.26961e-65
2.25237e-65
2.26012e-65
2.27423e-65
2.27836e-65
2.53615e-65
2.5527e-65
2.56567e-65
2.51779e-65
2.52076e-65
2.48082e-65
2.53351e-65
2.49849e-65
2.54419e-65
2.5985e-65
2.57031e-65
2.51776e-65
2.57245e-65
2.5388e-65
2.53338e-65
2.54994e-65
2.45513e-65
2.53143e-65
2.49738e-65
2.50333e-65
2.96149e-65
2.9978e-65
2.99787e-65
2.98827e-65
3.00209e-65
3.02665e-65
3.08279e-65
3.0069e-65
3.00943e-65
2.96918e-65
2.97807e-65
2.98325e-65
3.01294e-65
3.0248e-65
2.97129e-65
3.00161e-65
3.01498e-65
2.98108e-65
2.96203e-65
2.97323e-65
3.13985e-65
3.1269e-65
3.14255e-65
3.20223e-65
3.17982e-65
3.21084e-65
3.15537e-65
3.21809e-65
3.14797e-65
3.08024e-65
3.09993e-65
3.12218e-65
3.12916e-65
3.08497e-65
3.07124e-65
3.10573e-65
3.07237e-65
3.13302e-65
3.10249e-65
3.16138e-65
3.26306e-65
3.25251e-65
3.30897e-65
3.27372e-65
3.2524e-65
3.31165e-65
3.29228e-65
3.34754e-65
3.26378e-65
3.31675e-65
3.29725e-65
3.30604e-65
3.31231e-65
3.31968e-65
3.28921e-65
3.36482e-65
3.28196e-65
3.24413e-65
3.28125e-65
3.27234e-65
3.18222e-65
3.13134e-65
3.13402e-65
3.13004e-65
3.17091e-65
3.19395e-65
3.18921e-65
3.17012e-65
3.10808e-65
3.12599e-65
3.09214e-65
3.17942e-65
3.18102e-65
3.21826e-65
3.21018e-65
3.19971e-65
3.17631e-65
3.18603e-65
3.14986e-65
3.16035e-65
2.98854e-65
3.03343e-65
2.98893e-65
3.08553e-65
2.99496e-65
3.06343e-65
3.00729e-65
3.05355e-65
3.01225e-65
3.03301e-65
3.02061e-65
3.08156e-65
3.02041e-65
3.10314e-65
3.01065e-65
3.05477e-65
3.05439e-65
2.97702e-65
3.06561e-65
3.06394e-65
2.63785e-65
2.72785e-65
2.7018e-65
2.67261e-65
2.64923e-65
2.75368e-65
2.70537e-65
2.71805e-65
2.6969e-65
2.65488e-65
2.68582e-65
2.7359e-65
2.68255e-65
2.77825e-65
2.68464e-65
2.7308e-65
2.74137e-65
2.70506e-65
2.7466e-65
2.75451e-65
2.53069e-65
2.52986e-65
2.52771e-65
2.56076e-65
2.56985e-65
2.5688e-65
2.51653e-65
2.55971e-65
2.59642e-65
2.52646e-65
2.57515e-65
2.58998e-65
2.51104e-65
2.60528e-65
2.59129e-65
2.64163e-65
2.56703e-65
2.60001e-65
2.56875e-65
2.62774e-65
1.72075e-65
1.73415e-65
1.72902e-65
1.71322e-65
1.7347e-65
1.72802e-65
1.73647e-65
1.7316e-65
1.72818e-65
1.75422e-65
1.71595e-65
1.75904e-65
1.71646e-65
1.77544e-65
1.72072e-65
1.72291e-65
1.73048e-65
1.76363e-65
1.73621e-65
1.77774e-65
2.92648e-79
2.88693e-79
2.91831e-79
2.8596e-79
2.88284e-79
2.90743e-79
2.9011e-79
2.8272e-79
2.85427e-79
2.92699e-79
2.86994e-79
2.93254e-79
2.87281e-79
2.92794e-79
2.84744e-79
2.94836e-79
2.8394e-79
2.87519e-79
2.88021e-79
2.81135e-79
1.51418e-76
1.4939e-76
1.50983e-76
1.48006e-76
1.49146e-76
1.50463e-76
1.50119e-76
1.46318e-76
1.47715e-76
1.51471e-76
1.48534e-76
1.51736e-76
1.48703e-76
1.51526e-76
1.4738e-76
1.52568e-76
1.46976e-76
1.48817e-76
1.49033e-76
1.45511e-76
3.95426e-74
3.90181e-74
3.94258e-74
3.86646e-74
3.89457e-74
3.93012e-74
3.92076e-74
3.82209e-74