/*--------------------------------*- C++ -*----------------------------------*\
| =========                 |                                                 |
| \\      /  F ield         | OpenFOAM: The Open Source CFD Toolbox           |
|  \\    /   O peration     | Version:  2212                                  |
|   \\  /    A nd           | Website:  www.openfoam.com                      |
|    \\/     M anipulation  |                                                 |
\*---------------------------------------------------------------------------*/
FoamFile
{
    version     2.0;
    format      ascii;
    arch        "LSB;label=32;scalar=64";
    class       volScalarField;
    location    "0.024";
    object      epsilon;
}
// * * * * * * * * * * * * * * * * * * * * * * * * * * * * * * * * * * * * * //

dimensions      [0 2 -3 0 0 0 0];

internalField   nonuniform List<scalar> 
7220
(
3.39293e+07
6.7259e+06
6.33461e+06
4.60539e+06
5.21091e+06
4.89689e+06
6.26516e+06
5.12186e+06
4.56361e+06
4.83612e+06
9.35581e+07
1.42176e+09
4.71059e+07
2.18951e+08
5.58293e+08
8.25881e+08
1.10315e+09
3.90338e+07
5.87043e+08
3.97689e+07
1.02056e+08
1.25747e+08
731570
2.65917e+08
2.71503e+07
3.44278e+08
2.34456e+09
8.6661e+07
1.2247e+08
1.75745e+08
1.21632e+07
1.30991e+08
3.60361e+06
1.95735e+08
5.36981e+07
1.40914e+07
1.04463e+07
1.23952e+08
9.25341e+07
1.0043e+07
1.00218e+07
1.00214e+07
1.00426e+07
1.11944e+07
1.14014e+07
1.11241e+07
1.09601e+07
1.08261e+07
1.00035e+07
9.9883e+06
9.98774e+06
1.00031e+07
9.97635e+06
9.96797e+06
9.96731e+06
9.97574e+06
9.96343e+06
9.96342e+06
9.96246e+06
9.96279e+06
9.96774e+06
9.97708e+06
9.976e+06
9.96675e+06
9.9919e+06
1.00127e+07
1.00114e+07
9.9907e+06
1.00402e+07
1.00749e+07
1.00731e+07
1.00386e+07
1.01178e+07
1.01696e+07
1.01668e+07
1.01156e+07
1.02313e+07
1.03047e+07
1.02987e+07
1.02275e+07
1.0391e+07
1.04923e+07
1.04756e+07
1.03812e+07
1.06995e+07
1.05813e+07
1.06115e+07
1.07485e+07
1.09028e+07
1.11019e+07
1.00668e+07
1.00664e+07
1.05084e+07
1.05312e+07
1.16181e+07
1.13054e+07
1.1071e+07
1.12458e+07
1.10951e+07
1.08611e+07
1.09681e+07
1.06968e+07
1.07711e+07
1.05849e+07
1.06355e+07
1.05103e+07
1.05435e+07
1.04654e+07
1.04845e+07
1.04446e+07
1.04522e+07
1.04435e+07
1.04417e+07
1.04596e+07
1.04497e+07
1.049e+07
1.04732e+07
1.05324e+07
1.05098e+07
1.04714e+07
1.04884e+07
1.04476e+07
1.04577e+07
1.04392e+07
1.04413e+07
1.04489e+07
1.04416e+07
1.04803e+07
1.04616e+07
1.05377e+07
1.05054e+07
1.06266e+07
1.05778e+07
1.07523e+07
1.06846e+07
1.09146e+07
1.08293e+07
1.10058e+07
1.12454e+07
1.05577e+07
1.05566e+07
1.20175e+07
1.19668e+07
1.18469e+07
1.14325e+07
1.14158e+07
1.16009e+07
1.23995e+07
1.21494e+07
1.17942e+07
1.25959e+07
1.20646e+07
1.22209e+07
1.18237e+07
1.19335e+07
1.16594e+07
1.17325e+07
1.15525e+07
1.16003e+07
1.14848e+07
1.15145e+07
1.1447e+07
1.14625e+07
1.14334e+07
1.14374e+07
1.14388e+07
1.14334e+07
1.14616e+07
1.14483e+07
1.14984e+07
1.14784e+07
1.15471e+07
1.15214e+07
1.05853e+07
1.16059e+07
1.15754e+07
1.00927e+07
1.0093e+07
1.15732e+07
1.1604e+07
1.05843e+07
1.15189e+07
1.15448e+07
1.14754e+07
1.14956e+07
1.14447e+07
1.14583e+07
1.14292e+07
1.14349e+07
1.14316e+07
1.1428e+07
1.14551e+07
1.14405e+07
1.1504e+07
1.14761e+07
1.15836e+07
1.15396e+07
1.16976e+07
1.16364e+07
1.18378e+07
1.17659e+07
1.19081e+07
1.2666e+07
1.24146e+07
1.34854e+07
1.34177e+07
1.06153e+07
1.16386e+07
1.31939e+07
1.32292e+07
1.15183e+07
1.29309e+07
1.21013e+07
1.2002e+07
1.39266e+07
1.4326e+07
1.40605e+07
1.28072e+07
1.36002e+07
1.41301e+07
1.35889e+07
1.37454e+07
1.33488e+07
1.3457e+07
1.31924e+07
1.32615e+07
1.30969e+07
1.31391e+07
1.30402e+07
1.30644e+07
1.30134e+07
1.30235e+07
1.30102e+07
1.30093e+07
1.30266e+07
1.30161e+07
1.30594e+07
1.30411e+07
1.31061e+07
1.30811e+07
1.31643e+07
1.31339e+07
1.32321e+07
1.31972e+07
1.01213e+07
1.01216e+07
1.16369e+07
1.06143e+07
1.31299e+07
1.31606e+07
1.30766e+07
1.31018e+07
1.30358e+07
1.30545e+07
1.30097e+07
1.30208e+07
1.30009e+07
1.3003e+07
1.30125e+07
1.3004e+07
1.30485e+07
1.30272e+07
1.31135e+07
1.30771e+07
1.32087e+07
1.31578e+07
1.33198e+07
1.32644e+07
1.33676e+07
1.38129e+07
1.32692e+07
1.32666e+07
1.16447e+07
1.32237e+07
1.46116e+07
1.17626e+07
1.43544e+07
1.56413e+07
1.55756e+07
1.5742e+07
1.30392e+07
1.55923e+07
1.56352e+07
1.1672e+07
1.3306e+07
1.22456e+07
1.23911e+07
1.49151e+07
1.355e+07
1.74454e+07
1.71836e+07
1.52392e+07
1.1881e+07
1.65594e+07
1.61213e+07
1.63283e+07
1.57896e+07
1.59416e+07
1.55621e+07
1.56635e+07
1.54233e+07
1.54833e+07
1.53441e+07
1.53777e+07
1.53039e+07
1.53201e+07
1.52923e+07
1.52949e+07
1.5304e+07
1.52956e+07
1.53346e+07
1.53171e+07
1.53811e+07
1.5356e+07
1.5441e+07
1.54095e+07
1.55122e+07
1.54753e+07
1.55513e+07
1.33083e+07
1.06474e+07
1.16736e+07
1.0152e+07
1.01523e+07
1.06465e+07
1.56315e+07
1.55465e+07
1.55881e+07
1.54698e+07
1.5507e+07
1.54033e+07
1.54352e+07
1.53489e+07
1.53745e+07
1.53085e+07
1.53268e+07
1.52846e+07
1.52943e+07
1.52801e+07
1.52797e+07
1.52983e+07
1.52861e+07
1.53427e+07
1.53171e+07
1.54113e+07
1.53747e+07
1.54884e+07
1.54511e+07
1.55281e+07
1.61557e+07
1.59264e+07
1.66828e+07
1.6411e+07
1.695e+07
1.4599e+07
1.56801e+07
1.56768e+07
1.86777e+07
1.86202e+07
1.87605e+07
1.99946e+07
1.33161e+07
1.20423e+07
1.27232e+07
1.56036e+07
1.2456e+07
2.05586e+07
1.96151e+07
1.39129e+07
1.68113e+07
1.98739e+07
1.79208e+07
1.91797e+07
1.93827e+07
1.88658e+07
1.90083e+07
1.86633e+07
1.87513e+07
1.8547e+07
1.85962e+07
1.84898e+07
1.85128e+07
1.8471e+07
1.84766e+07
1.84795e+07
1.84722e+07
1.85102e+07
1.84924e+07
1.8559e+07
1.85325e+07
1.86227e+07
1.85891e+07
1.86992e+07
1.86595e+07
1.87864e+07
1.87416e+07
1.8882e+07
1.88333e+07
1.89844e+07
1.89324e+07
1.90381e+07
1.33495e+07
1.57268e+07
1.06816e+07
1.17105e+07
1.01848e+07
1.01851e+07
1.17091e+07
1.06807e+07
1.5724e+07
1.33474e+07
1.90344e+07
1.89274e+07
1.89801e+07
1.8827e+07
1.88762e+07
1.87344e+07
1.87796e+07
1.86515e+07
1.86917e+07
1.85798e+07
1.86141e+07
1.85214e+07
1.85489e+07
1.84784e+07
1.84978e+07
1.84532e+07
1.84634e+07
1.84488e+07
1.84482e+07
1.84655e+07
1.84548e+07
1.84971e+07
1.84807e+07
1.85439e+07
1.85178e+07
1.85772e+07
1.91295e+07
1.89204e+07
1.96132e+07
1.93654e+07
1.98432e+07
1.70862e+07
1.48642e+07
1.21532e+07
2.01595e+07
2.28636e+07
2.28167e+07
2.29316e+07
2.35096e+07
2.35715e+07
1.5773e+07
1.90903e+07
1.23604e+07
1.30985e+07
1.43144e+07
2.11892e+07
2.49746e+07
2.55998e+07
2.17699e+07
1.74018e+07
1.35549e+07
1.60519e+07
1.26921e+07
2.04904e+07
1.84781e+07
2.43614e+07
2.38082e+07
2.40727e+07
2.33908e+07
2.35804e+07
2.31106e+07
2.32351e+07
2.29391e+07
2.30129e+07
2.28533e+07
2.28877e+07
2.28245e+07
2.28343e+07
2.28322e+07
2.28252e+07
2.28654e+07
2.28459e+07
2.29193e+07
2.289e+07
2.29899e+07
2.29527e+07
2.30743e+07
2.30305e+07
2.31703e+07
2.3121e+07
2.32763e+07
2.32222e+07
2.33901e+07
2.33324e+07
2.34492e+07
1.90935e+07
1.33926e+07
1.57754e+07
1.07177e+07
1.17495e+07
1.02195e+07
1.02198e+07
1.17481e+07
1.07169e+07
1.33907e+07
2.35666e+07
2.34426e+07
2.3504e+07
2.33244e+07
2.33828e+07
2.32134e+07
2.3268e+07
2.31111e+07
2.3161e+07
2.30189e+07
2.30637e+07
2.29388e+07
2.29773e+07
2.28726e+07
2.29038e+07
2.28224e+07
2.28454e+07
2.27905e+07
2.2804e+07
2.27714e+07
2.27806e+07
2.27553e+07
2.27649e+07
2.27676e+07
2.27578e+07
2.27862e+07
2.32529e+07
2.30681e+07
2.36439e+07
2.34546e+07
2.38584e+07
2.377e+07
2.41981e+07
1.51395e+07
2.46908e+07
2.36345e+07
2.36306e+07
2.85877e+07
2.86182e+07
2.09055e+07
1.78171e+07
1.2425e+07
1.27235e+07
1.35089e+07
1.47637e+07
2.62061e+07
2.23726e+07
3.95424e+07
1.90409e+07
5.16125e+06
1.65645e+07
2.50984e+07
3.08103e+07
3.01059e+07
3.04236e+07
2.95626e+07
2.98206e+07
2.91814e+07
2.93518e+07
2.89469e+07
2.90496e+07
2.88184e+07
2.88753e+07
2.87701e+07
2.87875e+07
2.87763e+07
2.87705e+07
2.88143e+07
2.87918e+07
2.88765e+07
2.88428e+07
2.89575e+07
2.89149e+07
2.90532e+07
2.90036e+07
2.91608e+07
2.91056e+07
2.92785e+07
2.92185e+07
2.9405e+07
2.93407e+07
2.95383e+07
2.94707e+07
2.96764e+07
2.96069e+07
2.98179e+07
2.97466e+07
2.989e+07
1.91506e+07
2.36991e+07
1.34377e+07
1.5826e+07
1.07556e+07
1.17902e+07
1.02559e+07
1.02562e+07
1.17889e+07
1.07548e+07
1.58238e+07
1.34358e+07
2.36959e+07
1.91479e+07
2.98864e+07
2.97406e+07
2.98132e+07
2.95986e+07
2.96692e+07
2.94613e+07
2.95294e+07
2.93302e+07
2.9395e+07
2.92065e+07
2.92674e+07
2.90916e+07
2.91479e+07
2.89866e+07
2.90377e+07
2.88937e+07
2.89386e+07
2.88144e+07
2.88523e+07
2.87505e+07
2.87808e+07
2.86948e+07
2.87232e+07
2.86235e+07
2.86621e+07
2.85764e+07
2.86001e+07
2.85763e+07
2.89286e+07
2.86666e+07
2.87766e+07
2.92127e+07
2.9083e+07
2.95327e+07
2.93383e+07
3.03986e+07
2.98505e+07
3.15804e+07
3.09887e+07
3.3628e+07
3.29122e+07
2.6852e+07
3.22137e+07
1.55552e+07
5.12102e+06
2.55876e+07
3.12831e+07
1.27393e+07
5.97153e+06
3.82542e+07
3.83329e+07
2.37627e+07
2.9961e+07
1.31243e+07
2.75543e+07
1.39589e+07
2.30303e+07
1.96508e+07
1.52664e+07
1.7125e+07
5.42891e+06
6.27297e+06
7.5943e+06
8.82299e+06
2.75802e+07
1.15474e+07
2.14135e+07
1.83554e+07
7.299e+06
2.19629e+07
4.14581e+07
4.04911e+07
1.36799e+07
1.46558e+07
2.61279e+07
6.04741e+06
3.18152e+07
1.70597e+07
2.67057e+07
3.23907e+07
5.78299e+06
4.24124e+07
3.29947e+07
4.08695e+07
4.13705e+07
3.96302e+07
4.02163e+07
3.86681e+07
3.91155e+07
3.80193e+07
3.83105e+07
3.75075e+07
3.7744e+07
3.7192e+07
3.73236e+07
3.70075e+07
3.70816e+07
3.69351e+07
3.69614e+07
3.69327e+07
3.69279e+07
3.69726e+07
3.69471e+07
3.70459e+07
3.70061e+07
3.71402e+07
3.70907e+07
3.72504e+07
3.71936e+07
3.73728e+07
3.73103e+07
3.75046e+07
3.74376e+07
3.76442e+07
3.75735e+07
3.77904e+07
3.77166e+07
3.79423e+07
3.78658e+07
3.80975e+07
3.80198e+07
3.81758e+07
2.99635e+07
1.92095e+07
2.37654e+07
1.34843e+07
1.58783e+07
1.07951e+07
1.18326e+07
1.02941e+07
1.02943e+07
1.18314e+07
1.07944e+07
1.58762e+07
1.34827e+07
1.92072e+07
3.83288e+07
3.81686e+07
3.82484e+07
3.80101e+07
3.80889e+07
3.78549e+07
3.79319e+07
3.77045e+07
3.7779e+07
3.75596e+07
3.76313e+07
3.74209e+07
3.74894e+07
3.729e+07
3.73544e+07
3.71682e+07
3.72278e+07
3.7057e+07
3.71113e+07
3.69574e+07
3.70054e+07
3.68594e+07
3.69093e+07
3.67363e+07
3.68047e+07
3.66033e+07
3.66674e+07
3.65445e+07
3.65648e+07
3.65835e+07
3.65535e+07
3.67628e+07
3.66583e+07
3.69648e+07
3.68537e+07
3.73361e+07
3.71109e+07
3.80532e+07
3.76308e+07
3.91239e+07
3.85692e+07
3.97639e+07
5.46912e+06
6.73103e+06
9.25773e+06
1.61593e+07
1.30774e+07
4.75388e+06
8.80663e+07
7.36369e+07
3.41769e+07
3.84125e+07
3.84096e+07
7.26144e+06
1.8918e+07
1.51721e+07
1.4115e+07
1.31117e+07
2.8293e+07
1.31649e+07
2.25328e+07
5.12269e+07
5.23492e+07
4.36899e+07
1.35687e+07
2.37601e+07
2.03256e+07
2.73136e+07
1.18741e+10
1.44616e+07
1.67579e+08
3.36754e+07
1.01112e+07
1.58274e+07
1.77446e+07
4.28022e+06
4.10468e+06
3.534e+07
4.49983e+06
3.88137e+06
8.28775e+06
5.20337e+07
5.22183e+07
5.04983e+07
5.1143e+07
4.95984e+07
4.9998e+07
4.90411e+07
4.92906e+07
4.8605e+07
4.88076e+07
4.83467e+07
4.84471e+07
4.82376e+07
4.82761e+07
4.82262e+07
4.82233e+07
4.82638e+07
4.8238e+07
4.83475e+07
4.8301e+07
4.84579e+07
4.84003e+07
4.8585e+07
4.85195e+07
4.87237e+07
4.86531e+07
4.88708e+07
4.87964e+07
4.9024e+07
4.89468e+07
4.91815e+07
4.91022e+07
4.93427e+07
4.92616e+07
4.95072e+07
4.94246e+07
4.9673e+07
4.95898e+07
4.98381e+07
4.97558e+07
5.00019e+07
4.99201e+07
5.00841e+07
3.00389e+07
3.84932e+07
1.92701e+07
2.38331e+07
1.35325e+07
1.59321e+07
1.08361e+07
1.18766e+07
1.03338e+07
1.0334e+07
1.18755e+07
1.08355e+07
1.59303e+07
1.35311e+07
2.3831e+07
1.9268e+07
3.84912e+07
3.00366e+07
5.00818e+07
4.99151e+07
4.99985e+07
4.97474e+07
4.98314e+07
4.95796e+07
4.96634e+07
4.94128e+07
4.94959e+07
4.92482e+07
4.93302e+07
4.90863e+07
4.9167e+07
4.89275e+07
4.90065e+07
4.87727e+07
4.88495e+07
4.86233e+07
4.86973e+07
4.84794e+07
4.85506e+07
4.83426e+07
4.84106e+07
4.82003e+07
4.8272e+07
4.80141e+07
4.81145e+07
4.77817e+07
4.78896e+07
4.76234e+07
4.76918e+07
4.7595e+07
4.75888e+07
4.76721e+07
4.76225e+07
4.78412e+07
4.77464e+07
4.82006e+07
4.79959e+07
4.88177e+07
4.84719e+07
4.98256e+07
4.9293e+07
5.04558e+07
5.18648e+06
6.02847e+06
5.66613e+07
8.85948e+06
8.4215e+06
1.67195e+07
1.34451e+07
3.77442e+06
2.98156e+07
2.90373e+07
6.56837e+06
2.7419e+06
6.95192e+06
1.94812e+07
6.64639e+07
6.7624e+07
5.42308e+07
1.35461e+07
1.56722e+07
1.45739e+07
4.10403e+06
2.45628e+07
8.75141e+06
6.60467e+07
6.61215e+07
3.85739e+07
5.01655e+07
2.10824e+07
3.63934e+07
2.31373e+07
4.66287e+07
4.59248e+06
7.84508e+06
9.8895e+06
1.2649e+07
1.94728e+06
1.40701e+07
4.14104e+06
3.04347e+06
4.61945e+06
6.48213e+07
5.93023e+06
8.35601e+06
2.80012e+07
4.09954e+07
9.92171e+06
9.37058e+06
7.20038e+06
7.71181e+06
1.04212e+07
1.50272e+07
1.84367e+07
3.46794e+07
3.7121e+06
1.64565e+07
2.4203e+06
2.52019e+06
4.01491e+06
4.45718e+07
3.55132e+06
3.02271e+06
3.37529e+06
3.1912e+06
3.09964e+07
1.09825e+07
3.69653e+07
2.59608e+07
6.68739e+07
6.74564e+07
6.57676e+07
6.62947e+07
6.50258e+07
6.5345e+07
6.46191e+07
6.47831e+07
6.42657e+07
6.44181e+07
6.40876e+07
6.41462e+07
6.40542e+07
6.40538e+07
6.40888e+07
6.40658e+07
6.41775e+07
6.41265e+07
6.43032e+07
6.42375e+07
6.44469e+07
6.43732e+07
6.46009e+07
6.45231e+07
6.47611e+07
6.46806e+07
6.49241e+07
6.48424e+07
6.5088e+07
6.50061e+07
6.52517e+07
6.517e+07
6.54146e+07
6.53332e+07
6.55765e+07
6.54957e+07
6.57374e+07
6.56572e+07
6.58946e+07
6.58167e+07
6.59713e+07
5.01669e+07
3.01153e+07
3.85756e+07
1.93321e+07
2.39027e+07
1.35821e+07
1.59874e+07
1.08786e+07
1.19219e+07
1.03749e+07
1.03751e+07
1.1921e+07
1.08781e+07
1.59858e+07
1.35809e+07
2.39009e+07
1.93302e+07
3.01136e+07
6.61186e+07
6.59654e+07
6.60425e+07
6.58078e+07
6.58869e+07
6.56468e+07
6.57275e+07
6.54836e+07
6.55653e+07
6.5319e+07
6.54014e+07
6.51526e+07
6.5236e+07
6.49847e+07
6.50689e+07
6.48157e+07
6.49002e+07
6.46464e+07
6.47311e+07
6.44767e+07
6.45613e+07
6.4303e+07
6.43909e+07
6.41108e+07
6.42124e+07
6.38541e+07
6.39945e+07
6.35149e+07
6.36837e+07
6.32302e+07
6.33568e+07
6.30896e+07
6.31352e+07
6.31153e+07
6.30906e+07
6.32431e+07
6.31578e+07
6.3587e+07
6.33721e+07
6.41778e+07
6.38371e+07
6.5077e+07
6.45845e+07
6.56685e+07
7.63186e+06
9.59141e+06
8.97662e+06
9.33057e+06
1.5514e+06
1.07517e+07
1.80448e+07
1.72592e+07
9.09535e+07
6.92842e+07
1.38782e+07
6.24134e+06
4.56741e+06
4.32939e+06
5.68756e+06
4.87123e+06
5.25748e+06
3.26197e+06
7.07998e+06
6.46755e+09
2.5457e+07
6.05271e+07
5.63784e+06
6.61952e+07
6.6194e+07
2.19343e+07
1.17114e+07
6.61137e+06
8.45772e+06
7.60188e+06
1.7243e+07
2.00656e+07
1.15121e+07
5.66005e+07
1.34185e+07
1.03573e+07
1.39462e+07
1.06793e+07
4.25539e+06
1.40457e+07
1.62032e+07
1.50843e+07
3.11674e+06
4.26575e+06
3.42898e+06
3.66486e+06
4.63516e+06
6.30076e+06
6.49579e+06
4.80925e+06
5.31544e+06
3.67498e+06
1.21087e+07
1.29085e+07
1.23398e+07
9.29032e+06
1.7432e+07
8.76424e+06
2.38054e+07
4.84881e+07
1.00508e+07
8.08988e+06
3.45283e+07
1.46413e+07
2.39409e+06
4.51409e+06
3.40508e+06
3.49843e+06
1.92192e+07
2.88788e+07
8.54831e+07
4.27782e+07
1.11313e+07
6.08859e+06
6.59884e+06
7.81584e+06
5.93378e+06
8.2164e+06
3.26111e+06
1.56673e+07
2.17123e+06
2.02769e+06
2.64051e+06
2.64789e+06
7.34451e+07
7.89242e+07
1.71659e+07
3.60725e+07
3.09732e+06
2.2458e+06
1.95573e+06
2.15554e+06
3.94638e+06
4.68869e+07
2.94477e+06
6.16438e+06
3.36432e+06
3.06576e+06
2.76932e+06
2.69566e+06
3.25434e+07
2.64582e+07
1.20467e+08
2.42133e+06
3.78215e+06
3.89612e+07
2.51759e+09
8.83854e+07
8.87343e+07
8.7645e+07
8.80527e+07
8.71362e+07
8.73971e+07
8.68813e+07
8.69772e+07
8.66642e+07
8.67591e+07
8.6575e+07
8.65977e+07
8.66035e+07
8.6582e+07
8.66867e+07
8.66353e+07
8.68218e+07
8.67514e+07
8.69752e+07
8.68972e+07
8.71377e+07
8.7056e+07
8.73006e+07
8.72193e+07
8.74615e+07
8.73814e+07
8.76179e+07
8.75404e+07
8.77679e+07
8.76937e+07
8.79106e+07
8.78402e+07
8.80458e+07
8.79791e+07
8.8174e+07
8.81107e+07
8.82968e+07
8.8236e+07
8.84118e+07
8.83557e+07
8.85167e+07
8.84655e+07
8.86124e+07
8.85662e+07
8.86539e+07
5.02508e+07
6.62686e+07
3.01937e+07
3.86591e+07
1.93954e+07
2.39736e+07
1.36331e+07
1.60439e+07
1.09225e+07
1.19686e+07
1.04173e+07
1.04175e+07
1.19678e+07
1.0922e+07
1.60426e+07
1.3632e+07
2.3972e+07
1.9394e+07
3.86578e+07
3.01921e+07
6.627e+07
5.02509e+07
8.8659e+07
8.85619e+07
8.86108e+07
8.84593e+07
8.85113e+07
8.83474e+07
8.84043e+07
8.82269e+07
8.82881e+07
8.80998e+07
8.81642e+07
8.79652e+07
8.80334e+07
8.78228e+07
8.7895e+07
8.76717e+07
8.77483e+07
8.75119e+07
8.75929e+07
8.7344e+07
8.7429e+07
8.71649e+07
8.72565e+07
8.69659e+07
8.70689e+07
8.67381e+07
8.68561e+07
8.64086e+07
8.65923e+07
8.59265e+07
8.61747e+07
8.5501e+07
8.57004e+07
8.52593e+07
8.53522e+07
8.52743e+07
8.52632e+07
8.53898e+07
8.52976e+07
8.57271e+07
8.55398e+07
8.62452e+07
8.59408e+07
8.70229e+07
8.65851e+07
8.83476e+07
8.75748e+07
8.94794e+07
2.2893e+07
1.06375e+08
1.20773e+07
1.34587e+07
6.75631e+06
9.83047e+06
7.05668e+06
1.1771e+07
1.24434e+07
1.21586e+07
1.30917e+07
1.26695e+07
1.4757e+07
1.39895e+07
1.57175e+07
1.78194e+07
7.12261e+07
1.0033e+08
4.01829e+06
1.43793e+07
3.24756e+06
3.9526e+06
5.03723e+06
2.94632e+06
2.76564e+07
1.54109e+07
8.05991e+07
1.47643e+07
1.5336e+07
8.81285e+06
1.17652e+07
1.84506e+07
1.97326e+07
1.72717e+08
1.52976e+07
1.03624e+07
9.74304e+06
8.77126e+06
8.97568e+06
1.50253e+07
9.21112e+06
1.1455e+07
1.04321e+07
2.20104e+07
2.07065e+07
5.87701e+07
9.40157e+06
8.37438e+06
9.29432e+06
3.40366e+06
1.46168e+07
1.67956e+07
1.56653e+07
2.42231e+06
3.3329e+06
2.63765e+06
2.81871e+06
3.64025e+06
2.01013e+07
1.41229e+07
1.20375e+08
1.20354e+08
6.63475e+07
8.87072e+07
2.30985e+07
1.2654e+07
2.459e+07
3.46469e+07
5.05267e+07
7.39095e+06
6.41766e+06
8.59893e+06
1.09207e+07
2.93339e+06
1.52915e+07
1.95801e+06
2.7064e+06
5.29195e+07
1.79671e+07
3.47739e+07
2.99447e+07
4.49407e+07
5.50786e+06
2.73346e+06
1.63908e+07
1.77481e+06
2.12882e+06
5.34024e+06
3.76034e+07
2.58245e+06
8.65303e+06
4.44684e+06
1.83197e+06
3.91757e+06
4.86513e+07
2.44288e+06
3.38105e+06
3.44112e+07
2.76964e+07
2.27523e+06
2.82698e+06
2.39791e+07
6.62462e+06
2.7201e+06
2.07788e+06
3.71086e+07
4.13917e+07
3.55689e+06
2.9961e+06
1.04408e+07
2.80834e+06
8.28537e+07
1.13157e+08
1.1435e+08
1.11136e+08
1.19868e+08
1.19292e+08
1.19614e+08
1.19929e+08
1.19367e+08
1.19566e+08
1.19294e+08
1.1931e+08
1.19189e+08
1.19235e+08
1.19188e+08
1.1918e+08
1.19254e+08
1.19214e+08
1.19377e+08
1.19308e+08
1.19525e+08
1.1945e+08
1.19674e+08
1.196e+08
1.19817e+08
1.19747e+08
1.19946e+08
1.19883e+08
1.20063e+08
1.20006e+08
1.20164e+08
1.20115e+08
1.20248e+08
1.20208e+08
1.20314e+08
1.20283e+08
1.20362e+08
1.2034e+08
1.20395e+08
1.2038e+08
1.20415e+08
1.20406e+08
1.20421e+08
1.20421e+08
1.20408e+08
1.20417e+08
1.20394e+08
8.86986e+07
5.03371e+07
6.63443e+07
3.02733e+07
3.87441e+07
1.946e+07
2.40457e+07
1.36852e+07
1.61016e+07
1.09674e+07
1.20164e+07
1.0461e+07
1.04611e+07
1.20158e+07
1.09671e+07
1.61006e+07
1.36843e+07
2.40444e+07
1.94589e+07
3.87439e+07
3.02722e+07
5.03373e+07
1.20364e+08
1.20393e+08
1.20381e+08
1.20411e+08
1.20404e+08
1.20415e+08
1.20415e+08
1.20401e+08
1.2041e+08
1.20373e+08
1.20389e+08
1.20329e+08
1.20353e+08
1.20268e+08
1.20301e+08
1.20188e+08
1.2023e+08
1.20087e+08
1.2014e+08
1.19967e+08
1.2003e+08
1.19821e+08
1.19899e+08
1.19633e+08
1.19733e+08
1.19386e+08
1.19525e+08
1.1899e+08
1.19222e+08
1.18368e+08
1.1868e+08
1.17821e+08
1.18069e+08
1.17518e+08
1.17626e+08
1.17542e+08
1.17527e+08
1.17715e+08
1.17615e+08
1.17943e+08
1.17835e+08
1.18391e+08
1.18171e+08
1.19054e+08
1.187e+08
1.2023e+08
1.19541e+08
1.22473e+08
1.21204e+08
1.23985e+08
9.89783e+06
5.59679e+06
7.38862e+06
3.34301e+06
4.29745e+06
2.24714e+06
2.10607e+06
2.63522e+06
3.59755e+06
3.37638e+06
5.61826e+06
4.3274e+06
7.39607e+06
1.54262e+07
1.58226e+07
1.12186e+07
1.58471e+07
1.53658e+07
1.69877e+07
1.64183e+07
1.759e+07
2.27907e+07
1.79929e+07
7.29162e+07
9.28976e+06
1.29723e+07
9.74076e+06
1.47317e+07
1.34724e+07
1.41557e+07
1.57022e+07
1.52342e+07
1.65088e+07
1.60952e+07
1.74721e+07
1.69353e+07
1.9205e+07
1.82845e+07
2.03456e+07
1.84319e+07
7.3153e+07
8.74131e+06
6.25513e+07
1.02202e+07
3.1959e+06
1.49551e+07
2.50512e+06
3.04939e+06
4.03708e+06
3.83093e+06
3.14192e+06
2.10933e+07
2.36401e+08
2.9602e+07
1.7243e+08
4.19404e+07
1.20334e+08
1.20346e+08
2.34173e+08
1.40045e+08
2.01399e+07
1.94004e+07
2.07153e+07
1.75631e+08
1.9832e+07
1.43398e+07
1.35055e+07
1.25274e+07
1.2677e+07
1.99512e+07
1.31907e+07
1.57915e+07
1.46034e+07
2.87274e+07
2.14351e+07
9.5466e+07
6.10448e+07
7.0831e+06
6.61632e+06
1.14976e+08
8.46287e+07
8.33813e+06
7.19338e+06
2.39999e+06
2.73399e+06
2.34621e+08
3.03715e+08
1.52651e+07
1.74745e+07
1.63328e+07
1.95026e+06
1.00717e+08
1.00086e+08
1.19454e+08
2.66843e+06
2.0849e+06
2.22489e+06
2.81432e+06
1.47772e+08
2.55725e+07
2.54372e+07
2.24576e+07
1.8871e+07
2.87733e+07
1.30337e+08
9.28459e+06
1.26432e+07
3.13562e+07
1.88073e+07
2.5501e+07
5.29214e+07
5.48917e+06
5.18669e+06
1.13675e+07
1.70728e+06
1.82164e+06
2.45393e+06
1.6029e+07
1.67089e+06
2.15411e+06
1.858e+08
7.46304e+06
1.72084e+07
3.11265e+07
8.31984e+07
7.40224e+07
4.75459e+07
9.71443e+07
8.37352e+07
4.1371e+06
3.83061e+06
2.28468e+06
1.24995e+07
6.08341e+06
1.61987e+06
1.77558e+06
5.25721e+06
3.90648e+07
7.61111e+07
8.50555e+07
2.66823e+06
2.84378e+06
2.15544e+06
4.43041e+06
3.66003e+07
2.91948e+07
8.44492e+07
9.96022e+07
8.5389e+07
8.62586e+07
7.683e+07
7.96502e+07
7.37692e+07
7.92277e+07
2.03302e+06
3.46857e+06
2.52471e+07
5.12123e+06
3.20434e+06
1.88353e+06
3.07084e+06
2.22154e+07
3.41296e+09
1.78194e+06
2.79684e+07
4.43743e+07
2.50733e+08
1.16789e+08
1.62711e+08
1.59501e+08
1.60954e+08
1.61683e+08
1.58936e+08
1.66746e+08
1.65142e+08
1.67305e+08
1.67261e+08
1.67242e+08
1.6726e+08
1.67259e+08
1.6722e+08
1.67256e+08
1.67268e+08
1.67288e+08
1.67266e+08
1.67359e+08
1.67323e+08
1.67466e+08
1.6741e+08
1.67558e+08
1.67514e+08
1.67625e+08
1.67594e+08
1.67667e+08
1.6765e+08
1.67674e+08
1.67675e+08
1.67654e+08
1.67668e+08
1.67602e+08
1.67633e+08
1.67516e+08
1.67563e+08
1.67396e+08
1.6746e+08
1.67244e+08
1.67324e+08
1.67061e+08
1.67156e+08
1.66852e+08
1.6696e+08
1.66618e+08
1.66738e+08
1.66357e+08
1.66491e+08
1.66068e+08
1.66216e+08
1.65764e+08
1.65917e+08
1.65612e+08
8.875e+07
1.20318e+08
5.04245e+07
6.64242e+07
3.03542e+07
3.88312e+07
1.95257e+07
2.41191e+07
1.37383e+07
1.61604e+07
1.10135e+07
1.20652e+07
1.05056e+07
1.05057e+07
1.20648e+07
1.10132e+07
1.61597e+07
1.37377e+07
2.41182e+07
1.95248e+07
3.88311e+07
3.03536e+07
6.6427e+07
5.04259e+07
1.2033e+08
8.8758e+07
1.65631e+08
1.6593e+08
1.6578e+08
1.66222e+08
1.66077e+08
1.66494e+08
1.6636e+08
1.66742e+08
1.66621e+08
1.66964e+08
1.66856e+08
1.67157e+08
1.67064e+08
1.67321e+08
1.67243e+08
1.67452e+08
1.67391e+08
1.6755e+08
1.67506e+08
1.6761e+08
1.67585e+08
1.67632e+08
1.67624e+08
1.67616e+08
1.67633e+08
1.67507e+08
1.67572e+08
1.67289e+08
1.67414e+08
1.66854e+08
1.67131e+08
1.66153e+08
1.6653e+08
1.65531e+08
1.65794e+08
1.65246e+08
1.65304e+08
1.65334e+08
1.65273e+08
1.65536e+08
1.65437e+08
1.65812e+08
1.6566e+08
1.6613e+08
1.65941e+08
1.66646e+08
1.66363e+08
1.67441e+08
1.66977e+08
1.68643e+08
1.68074e+08
1.68761e+08
5.24761e+06
6.92819e+06
3.13174e+06
4.02768e+06
1.973e+06
2.46915e+06
1.4034e+06
1.31399e+06
1.59856e+06
2.13568e+06
1.99998e+06
3.16012e+06
2.49704e+06
5.2654e+06
4.05149e+06
6.93989e+06
1.7516e+07
1.85283e+07
2.114e+07
2.09954e+07
2.16635e+07
2.13243e+07
2.28168e+07
2.21866e+07
2.47637e+07
2.36446e+07
2.64512e+07
2.68362e+07
1.63205e+07
1.29989e+07
1.75457e+07
1.37992e+07
2.01922e+07
1.86628e+07
1.95064e+07
2.1286e+07
2.07633e+07
2.22793e+07
2.1773e+07
2.35362e+07
2.287e+07
2.54532e+07
2.44101e+07
2.6798e+07
1.91299e+07
7.55706e+07
6.81416e+06
5.02267e+07
6.42299e+07
7.77995e+06
2.56497e+06
2.34111e+08
2.9926e+08
1.56138e+07
8.52782e+07
1.99226e+06
1.80856e+08
1.45191e+08
2.41616e+06
2.97456e+06
1.20842e+08
2.95949e+08
1.92554e+07
2.83964e+07
1.3132e+07
3.84565e+08
3.82265e+08
1.98879e+07
2.85635e+07
2.85654e+08
4.46713e+06
4.21715e+07
2.59869e+07
1.41916e+08
6.44934e+07
5.74157e+08
1.75721e+07
1.63441e+07
2.71148e+07
4.89026e+06
2.01606e+07
1.843e+07
1.83907e+07
2.71411e+07
1.94583e+07
2.21992e+07
2.09183e+07
2.22697e+07
1.00385e+08
6.3831e+07
5.38424e+06
5.27493e+06
8.63772e+07
6.30177e+06
5.56978e+06
1.9479e+06
2.25038e+06
3.96084e+08
1.60042e+07
1.82491e+07
1.70929e+07
7.50088e+07
7.36427e+07
1.37229e+08
1.62638e+06
1.1819e+08
2.19627e+06
1.70017e+06
1.80767e+06
2.22732e+06
1.01522e+08
1.49368e+08
1.07502e+07
7.44592e+07
1.8132e+07
6.96024e+07
2.32086e+08
2.31673e+08
1.20319e+08
1.65486e+08
2.47425e+07
2.31114e+07
4.99494e+07
4.23606e+07
2.87985e+07
2.65244e+07
5.57811e+07
5.74284e+08
2.30617e+09
1.1518e+08
4.12764e+06
7.52723e+06
1.64942e+08
1.18934e+08
4.07614e+06
1.49722e+06
2.04978e+06
1.85913e+07
8.58805e+06
1.68638e+07
6.99092e+07
1.48553e+06
9.9382e+07
3.20279e+06
1.77196e+06
1.86606e+08
7.34161e+06
2.38085e+08
2.37948e+08
7.43413e+07
3.2377e+07
5.08373e+07
9.74843e+07
3.02841e+06
1.09736e+06
1.17091e+06
1.91523e+06
6.04097e+06
4.38718e+07
1.53705e+06
8.79204e+07
3.89936e+07
3.09432e+07
4.05228e+07
4.43913e+08
8.69184e+07
2.27444e+06
1.80664e+06
4.4647e+06
8.38235e+07
2.67194e+07
4.02899e+06
3.97475e+06
1.62496e+06
1.73335e+06
1.70282e+06
3.65104e+06
2.34984e+07
3.48292e+06
7.27781e+07
1.61163e+06
2.10342e+07
4.05647e+06
3.96712e+07
8.02179e+08
3.73055e+08
8.06232e+08
1.68259e+08
2.39529e+08
2.33088e+08
2.35664e+08
2.30706e+08
2.31559e+08
2.33068e+08
2.30594e+08
2.37933e+08
2.35839e+08
2.39427e+08
2.39061e+08
2.39584e+08
2.39477e+08
2.39664e+08
2.3958e+08
2.39663e+08
2.39677e+08
2.39636e+08
2.3964e+08
2.39598e+08
2.39622e+08
2.39539e+08
2.39574e+08
2.39431e+08
2.39493e+08
2.39263e+08
2.39354e+08
2.39037e+08
2.39157e+08
2.38751e+08
2.38902e+08
2.38409e+08
2.38587e+08
2.38008e+08
2.38215e+08
2.3755e+08
2.37786e+08
2.37034e+08
2.37299e+08
2.36462e+08
2.36755e+08
2.35838e+08
2.36156e+08
2.35168e+08
2.35508e+08
2.34454e+08
2.34816e+08
2.33699e+08
2.34081e+08
2.32906e+08
2.33307e+08
2.32498e+08
1.65466e+08
8.88054e+07
1.20307e+08
5.05153e+07
6.65056e+07
3.04365e+07
3.89198e+07
1.95923e+07
2.41934e+07
1.37924e+07
1.62202e+07
1.10603e+07
1.2115e+07
1.0551e+07
1.05511e+07
1.21146e+07
1.10601e+07
1.62197e+07
1.37919e+07
2.4193e+07
1.95918e+07
3.89201e+07
3.04363e+07
6.65097e+07
5.05168e+07
8.88124e+07
2.31702e+08
2.32521e+08
2.32111e+08
2.33325e+08
2.32927e+08
2.341e+08
2.33717e+08
2.34837e+08
2.34474e+08
2.3553e+08
2.35189e+08
2.36174e+08
2.35858e+08
2.36768e+08
2.36478e+08
2.37309e+08
2.37045e+08
2.37792e+08
2.37558e+08
2.38215e+08
2.38011e+08
2.38572e+08
2.38401e+08
2.38845e+08
2.38723e+08
2.38958e+08
2.38921e+08
2.38953e+08
2.3897e+08
2.38577e+08
2.38789e+08
2.37879e+08
2.38252e+08
2.37279e+08
2.37519e+08
2.37181e+08
2.37137e+08
2.37482e+08
2.37295e+08
2.37839e+08
2.37655e+08
2.38099e+08
2.37987e+08
2.38326e+08
2.38208e+08
2.38628e+08
2.38466e+08
2.38983e+08
2.38809e+08
2.38978e+08
2.39096e+08
2.38232e+08
1.60369e+07
8.61141e+06
1.16719e+07
4.88354e+06
6.44288e+06
2.91927e+06
3.75179e+06
1.84128e+06
2.30246e+06
1.22798e+06
1.49281e+06
934621
875513
1.027e+06
1.34052e+06
1.25268e+06
1.8649e+06
1.51658e+06
2.94277e+06
2.32624e+06
4.90516e+06
3.77258e+06
8.66225e+06
6.4667e+06
1.1794e+07
2.60495e+07
2.92806e+07
2.89607e+07
3.00117e+07
2.96072e+07
3.13719e+07
3.0584e+07
3.37783e+07
3.24127e+07
3.9088e+07
3.57693e+07
4.4142e+07
2.20711e+07
1.86786e+07
2.42186e+07
2.00993e+07
2.63664e+07
2.22822e+07
2.5096e+07
2.81577e+07
2.73532e+07
2.9438e+07
2.88164e+07
3.07081e+07
3.00629e+07
3.22475e+07
3.14173e+07
3.44014e+07
3.32252e+07
3.78739e+07
3.58886e+07
1.84697e+08
1.9926e+07
7.90139e+07
5.31007e+06
5.18377e+07
6.58951e+07
6.00033e+06
2.08893e+06
3.85882e+08
1.63609e+07
7.39625e+07
4.05427e+08
3.06374e+08
1.63642e+06
1.42619e+08
1.95906e+06
2.35672e+06
1.22121e+08
1.55656e+08
1.61692e+07
1.91735e+07
6.66831e+07
4.03376e+07
8.89665e+07
4.56128e+08
1.27178e+08
7.44312e+06
6.59448e+07
2.31265e+08
2.31298e+08
1.50319e+07
2.1148e+07
3.86891e+07
3.81911e+07
2.94773e+07
2.7857e+07
2.74855e+07
3.74205e+07
2.96933e+07
3.17996e+07
3.07275e+07
5.66707e+07
5.42244e+07
2.32149e+07
1.07137e+08
6.71446e+07
1.14849e+08
2.9439e+08
1.89194e+08
1.83406e+08
4.12143e+06
4.21961e+06
8.8345e+07
4.32832e+06
1.60212e+06
1.86787e+06
2.85177e+07
1.25024e+07
1.68415e+07
1.91322e+07
1.79576e+07
6.72352e+07
1.17743e+09
4.13494e+08
2.32112e+08
6.4491e+07
6.41e+07
1.40509e+06
4.69325e+07
1.17295e+08
1.50935e+06
2.52026e+06
1.81407e+06
3.43956e+08
1.50769e+08
1.07094e+07
3.44924e+08
3.38548e+08
2.24212e+08
5.80019e+07
4.56848e+07
3.69174e+07
1.03014e+08
3.68655e+07
2.76552e+07
5.92762e+07
3.77294e+08
2.81574e+08
1.0356e+08
1.14383e+08
2.82524e+08
3.19215e+06
5.95708e+09
1.21679e+08
3.22215e+06
1.24903e+06
1.72104e+06
5.23845e+08
1.03395e+08
8.53888e+06
4.2373e+07
1.78102e+07
6.48456e+07
1.05221e+06
1.16395e+06
977683
1.37869e+06
2.86853e+08
2.94087e+08
4.17166e+07
9.94866e+07
1.43957e+09
5.99162e+08
1.147e+07
3.28977e+07
1.50891e+06
3.37292e+07
5.69848e+07
6.55833e+07
1.91344e+08
5.51164e+07
9.78395e+07
5.27725e+08
3.75423e+08
2.45007e+08
1.72995e+08
2.41921e+06
995729
1.61363e+06
573419
647427
603928
1.2569e+08
6.0269e+06
2.40046e+08
1.53978e+08
9.06075e+07
1.09969e+06
2.83956e+07
3.00504e+06
5.30132e+07
8.4316e+07
4.20747e+07
1.07322e+09
2.86272e+08
9.03852e+08
8.99386e+07
5.212e+06
1.84354e+06
764655
814379
1.5265e+06
688235
7.64004e+06
4.58485e+06
2.49579e+07
4.15561e+06
7.26092e+07
1.42737e+06
1.45413e+06
3.98233e+06
2.23276e+07
2.03448e+07
6.47259e+07
1.12439e+06
1.41137e+06
6.32801e+07
1.78445e+09
5.41422e+08
5.30873e+08
5.26027e+08
3.67734e+08
4.9646e+08
5.14752e+08
2.5289e+08
3.66222e+08
3.50561e+08
3.57039e+08
3.43455e+08
3.46319e+08
3.41247e+08
3.41967e+08
3.43533e+08
3.41167e+08
3.48547e+08
3.46194e+08
3.5089e+08
3.50033e+08
3.5127e+08
3.51164e+08
3.5124e+08
3.51265e+08
3.51067e+08
3.51198e+08
3.50779e+08
3.50921e+08
3.50368e+08
3.50594e+08
3.49868e+08
3.50132e+08
3.49256e+08
3.49577e+08
3.48533e+08
3.48909e+08
3.47707e+08
3.48133e+08
3.46778e+08
3.47256e+08
3.4575e+08
3.46276e+08
3.44624e+08
3.45199e+08
3.43402e+08
3.44025e+08
3.42085e+08
3.42755e+08
3.40678e+08
3.41393e+08
3.39185e+08
3.39941e+08
3.37614e+08
3.38408e+08
3.35971e+08
3.36801e+08
3.34264e+08
3.35125e+08
3.32502e+08
3.33389e+08