/*--------------------------------*- C++ -*----------------------------------*\
| =========                 |                                                 |
| \\      /  F ield         | OpenFOAM: The Open Source CFD Toolbox           |
|  \\    /   O peration     | Version:  2212                                  |
|   \\  /    A nd           | Website:  www.openfoam.com                      |
|    \\/     M anipulation  |                                                 |
\*---------------------------------------------------------------------------*/
FoamFile
{
    version     2.0;
    format      ascii;
    arch        "LSB;label=32;scalar=64";
    class       volScalarField;
    location    "0.024";
    object      p;
}
// * * * * * * * * * * * * * * * * * * * * * * * * * * * * * * * * * * * * * //

dimensions      [1 -1 -2 0 0 0 0];

internalField   nonuniform List<scalar> 
7220
(
192.767
515.534
515.837
515.866
515.276
515.579
515.799
515.264
515.858
515.572
192.76
515.542
426.825
185.243
181.238
517.04
262.336
187.539
266.499
188.935
314.49
466.386
514.98
461.381
510.39
493.713
510.777
184.36
313.152
365.777
510.69
392.297
511.99
352.697
511.08
191.187
516.711
193.241
193.046
175.408
176.085
176.087
175.41
188.803
189.252
189.594
189.169
188.766
176.758
177.426
177.429
176.761
178.09
178.749
178.753
178.093
179.403
180.051
180.055
179.407
180.694
181.33
181.334
180.697
181.959
182.582
182.586
181.963
183.197
183.803
183.808
183.201
184.401
184.989
184.995
184.406
185.566
186.132
186.14
185.573
186.685
187.223
187.237
186.695
188.281
187.765
187.75
188.251
188.725
188.284
174.726
174.728
176.088
175.41
189.968
189.968
189.17
189.63
187.742
186.679
187.216
185.562
186.127
184.397
184.985
183.193
183.799
181.956
182.578
180.69
181.326
179.399
180.048
178.086
178.745
176.753
177.422
175.403
176.081
177.431
176.762
178.755
178.095
180.058
179.409
181.337
180.7
182.59
181.967
183.813
183.205
185.002
184.412
186.149
185.581
187.246
186.704
187.771
188.245
174.722
174.728
188.858
188.334
190.317
190.039
188.733
189.209
188.745
189.463
189.669
189.225
187.743
188.253
186.677
187.216
185.559
186.127
184.394
184.982
183.19
183.796
181.952
182.575
180.686
181.322
179.395
180.043
178.081
178.741
176.748
177.417
175.397
176.075
174.036
174.03
174.716
174.041
174.039
174.725
174.039
174.041
176.086
175.408
177.43
176.761
178.755
178.095
180.059
179.41
181.339
180.702
182.594
181.97
183.818
183.21
185.01
184.419
186.165
185.592
187.274
186.726
187.81
190.304
189.834
188.892
188.351
173.347
173.341
174.721
174.034
190.383
190.704
190.737
190.118
188.745
190.703
190.29
189.687
189.421
189.223
187.741
188.254
186.678
187.219
185.558
186.126
184.392
184.981
183.188
183.795
181.949
182.572
180.682
181.319
179.39
180.039
178.076
178.735
176.741
177.411
175.39
176.067
174.022
174.708
173.348
173.347
173.348
173.351
176.083
175.404
177.428
176.758
178.754
178.094
180.059
179.41
181.341
180.703
182.597
181.972
183.823
183.214
185.017
184.424
186.173
185.601
187.286
186.738
187.825
189.831
173.332
173.343
190.439
191.082
191.08
190.776
189.681
188.896
188.366
189.393
190.147
174.011
173.321
172.655
172.649
190.551
191.096
191.432
191.432
192.042
191.765
191.743
190.805
189.705
188.763
189.245
187.752
188.267
186.683
187.229
185.562
186.131
184.394
184.984
183.186
183.795
181.946
182.57
180.678
181.316
179.385
180.034
178.069
178.729
176.733
177.404
175.38
176.059
174.698
172.639
172.654
172.649
172.649
172.648
172.658
173.334
174.714
174.026
176.078
175.398
177.424
176.753
178.752
178.091
180.059
179.408
181.342
180.703
182.599
181.974
183.827
183.217
185.022
184.429
186.18
185.607
187.295
186.748
187.839
190.296
189.852
191.113
190.73
191.481
190.129
172.628
172.639
188.901
188.383
189.399
191.868
190.611
191.138
191.445
192.053
190.83
191.895
189.744
191.753
190.158
190.196
192.319
188.791
189.278
187.773
188.29
186.695
187.243
185.568
186.14
184.395
184.988
183.185
183.795
181.943
182.568
180.673
181.311
179.378
180.028
178.061
178.722
176.724
177.395
175.369
176.049
173.998
174.686
172.613
173.308
171.915
171.943
171.93
171.958
171.953
171.946
171.945
171.959
171.961
171.941
171.951
171.929
173.324
172.628
174.705
174.016
176.07
175.39
177.419
176.747
178.748
178.086
180.056
179.405
181.341
180.702
182.6
181.974
183.83
183.219
185.027
184.434
186.186
185.614
187.304
186.758
187.85
190.324
189.875
191.188
190.774
191.594
190.594
190.559
191.225
190.636
188.904
188.394
189.4
172.596
171.898
171.239
171.226
191.462
191.764
192.049
192.495
192.433
192.745
192.724
191.039
190.979
192.335
191.269
191.073
192.471
190.655
189.775
190.221
188.811
189.299
187.785
188.308
186.705
187.253
185.572
186.145
184.396
184.99
183.183
183.794
181.939
182.565
180.667
181.306
179.37
180.021
178.051
178.713
176.713
177.384
175.356
176.037
173.984
174.672
173.292
171.213
171.242
171.229
171.257
171.253
171.24
171.239
171.258
171.26
171.25
171.914
173.311
172.614
174.694
174.004
176.061
175.38
177.411
176.739
178.742
178.079
180.053
179.4
181.339
180.699
182.601
181.973
183.833
183.221
185.032
184.438
186.194
185.62
187.31
186.767
187.86
190.32
189.875
191.145
190.751
191.835
191.505
192.294
190.957
191.084
171.195
171.21
188.402
188.909
191.466
191.493
191.506
191.785
192.053
192.317
192.902
192.873
192.991
192.721
510.851
192.506
191.465
191.48
190.672
191.095
189.799
190.247
188.83
189.315
187.798
188.321
186.712
187.261
185.575
186.148
184.395
184.99
183.18
183.792
181.933
182.56
180.658
181.299
179.36
180.012
178.039
178.702
176.699
177.372
175.341
176.022
173.967
174.656
172.577
173.274
171.174
171.877
170.466
170.508
170.489
170.538
170.524
170.552
170.549
170.531
170.53
170.554
170.555
170.533
170.544
170.502
170.519
170.482
171.896
171.191
173.296
172.598
174.681
173.99
176.05
175.367
177.402
176.728
178.734
178.07
180.047
179.393
181.336
180.694
182.599
181.971
183.834
183.221
185.037
184.439
186.201
185.623
187.32
186.771
187.868
190.322
189.404
189.877
191.153
190.742
191.943
191.51
192.493
192.316
192.936
192.755
193.137
193.125
192.999
193.065
191.482
513.71
191.816
191.837
191.825
516.123
171.15
170.441
169.791
169.77
192.074
193.031
192.323
192.96
192.849
192.533
192.719
514.899
511.134
511.727
510.142
492.554
511.957
191.787
191.754
512.774
192.114
192.998
193.006
191.704
191.797
192.131
513.091
192.143
492.872
192.42
192.45
514.309
193.109
192.664
192.754
192.903
192.181
192.507
191.503
191.864
190.691
191.119
189.815
190.271
188.845
189.335
187.809
188.331
186.718
187.266
185.576
186.15
184.393
184.988
183.174
183.787
181.924
182.553
180.648
181.289
179.347
180
178.025
178.689
176.683
177.356
175.323
176.005
173.947
174.637
172.555
173.253
171.854
169.756
169.798
169.778
169.829
169.815
169.844
169.841
169.819
169.818
169.846
169.846
169.823
169.836
169.809
170.459
171.876
171.169
173.277
172.578
174.664
173.973
176.035
175.352
177.389
176.715
178.724
178.059
180.038
179.384
181.329
180.687
182.596
181.966
183.833
183.218
185.039
184.44
186.207
185.625
187.332
186.772
188.41
187.874
189.415
188.921
190.338
189.886
191.177
190.756
191.962
191.555
192.531
192.242
192.894
192.726
192.975
511.46
512.301
511.995
191.75
191.903
511.85
185.418
505.873
193.17
169.729
169.746
509.965
192.101
192.082
192.14
192.107
192.972
510.297
192.4
193.124
193.221
193.38
192.341
192.99
192.929
192.644
220.5
192.545
184.007
192.93
511.036
192.719
192.84
513.201
512.353
192.558
510.672
511.355
516.116
193.03
193.23
192.255
192.633
191.533
191.904
190.71
191.145
189.831
190.293
188.856
189.353
187.816
188.342
186.72
187.271
185.574
186.151
184.388
184.985
183.166
183.781
181.914
182.543
180.635
181.277
179.332
179.986
178.008
178.672
176.664
177.338
175.303
175.986
173.925
174.616
172.531
173.23
171.123
171.829
169.7
170.413
168.984
169.041
169.014
169.085
169.064
169.117
169.102
169.131
169.13
169.104
169.104
169.134
169.134
169.11
169.123
169.076
169.094
169.029
169.054
169
170.433
169.719
171.852
171.144
173.256
172.556
174.645
173.953
176.018
175.334
177.374
176.698
178.71
178.044
180.027
179.371
181.321
180.677
182.589
181.958
183.83
183.213
185.038
184.438
186.209
185.628
187.337
186.776
188.417
187.883
189.427
188.932
190.353
189.899
191.2
190.783
191.951
191.589
192.54
192.238
192.917
192.719
193.014
508.82
509.528
193.043
513.744
512.857
192.088
192.126
510.239
192.944
192.865
508.482
511.352
515.079
192.381
193.199
193.242
193.308
192.357
192.374
192.362
508.566
192.973
515.822
169.668
168.95
168.308
168.278
192.956
511.872
192.635
192.696
514.208
516.42
517.024
517.674
510.137
192.556
498.966
498.74
507.891
511.841
499.32
497.846
192.908
192.551
512.867
513.378
513.058
512.563
506.991
192.727
192.908
193.1
513.43
192.847
498.75
496.943
497.104
193.204
512.807
496.91
512.086
510.965
192.614
516.394
192.275
489.203
192.58
192.672
192.169
192.443
191.525
191.881
190.72
191.153
189.84
190.305
188.864
189.365
187.819
188.349
186.718
187.275
185.569
186.149
184.38
184.979
183.155
183.771
181.9
182.531
180.618
181.262
179.314
179.969
177.988
178.653
176.642
177.317
175.279
175.963
173.899
174.591
172.504
173.203
171.093
171.8
170.382
168.263
168.322
168.295
168.368
168.347
168.401
168.386
168.416
168.414
168.388
168.387
168.418
168.418
168.393
168.407
168.357
168.377
168.335
168.969
170.404
169.688
171.825
171.117
173.232
172.531
174.623
173.929
175.997
175.312
177.355
176.678
178.694
178.027
180.012
179.356
181.308
180.663
182.58
181.947
183.824
183.205
185.034
184.434
186.207
185.628
187.338
186.78
188.424
187.889
189.441
188.94
190.369
189.91
191.22
190.799
191.949
191.602
192.558
192.258
192.979
192.752
193.091
508.619
514.669
515.296
514.904
510.673
512.556
495.038
192.375
193.233
193.198
192.367
501.149
502.311
500.717
505.832
503.65
504.834
510.02
504.969
213.037
192.896
192.943
512.92
168.229
168.245
192.95
509.281
502.889
507.221
506.439
511.848
192.629
516.062
192.852
517.355
512.256
511.48
511.618
514.826
192.573
192.601
192.597
500.446
507.219
503.5
504.748
500.195
499.063
501.028
501.949
505.036
508.433
496.361
513.162
513.722
517.314
510.172
499.947
192.863
192.671
508.511
512.05
505.772
192.738
500.416
498.288
499.647
501.349
192.93
193.04
185.159
192.27
511.069
512.228
515.466
516.37
516.104
516.042
513.83
192.849
498.77
500.382
499.199
500.913
185.612
512.015
192.911
193.171
513.131
498.951
500.458
500.667
495.08
193.163
512.501
496.924
497.775
494.917
511.927
497.332
192.3
192.806
185.389
497.081
515.358
191.733
180.557
192.789
193.112
192.23
192.553
191.548
191.922
190.733
191.176
189.849
190.32
188.87
189.375
187.819
188.352
186.714
187.274
185.561
186.144
184.368
184.97
183.14
183.758
181.883
182.515
180.599
181.244
179.292
179.948
177.964
178.63
176.617
177.292
175.252
175.936
173.87
174.563
172.473
173.174
171.06
171.768
169.633
170.348
168.191
168.914
167.464
167.539
167.503
167.6
167.571
167.647
167.626
167.682
167.666
167.697
167.695
167.671
167.67
167.699
167.699
167.673
167.687
167.635
167.656
167.584
167.612
167.518
167.553
167.48
168.933
168.209
170.372
169.654
171.796
171.086
173.204
172.502
174.597
173.902
175.973
175.287
177.332
176.655
178.673
178.005
179.994
179.336
181.293
180.646
182.567
181.933
183.813
183.194
185.027
184.426
186.202
185.624
187.34
186.781
188.428
187.89
189.452
188.945
190.382
189.92
191.226
190.82
191.955
191.629
192.563
192.304
193.012
192.809
193.241
193.156
193.275
192.849
510.002
515.682
512.414
502.938
508.575
504.712
515.556
514.667
515.111
513.397
514.345
512.674
513.201
512.402
192.614
192.926
184.34
515.088
192.587
502.016
506.03
503.531
509.622
510.529
511.854
192.668
516.664
516.261
513.963
514.319
512.647
511.691
185.702
507.196
504.861
503.589
497.88
499.977
508.779
501.881
506.448
505.334
512.299
192.829
192.722
509.189
511.398
515.51
514.397
192.751
192.798
192.781
501.878
507.756
504.515
505.671
502.84
192.899
517.019
168.149
167.421
166.788
166.748
509.505
498.649
192.996
511.479
192.286
508.233
511.792
515.687
516.316
514.118
192.851
501.911
502.547
511.676
192.932
510.084
193.116
191.721
506.337
513.494
192.908
501.928
502.206
493.028
193.178
512.89
495.543
496.218
501.998
492.849
193.223
512.192
495.655
191.866
192.558
511.139
495.277
192.687
513.5
495.06
510.511
510.2
191.099
515.639
515.146
516.663
515.425
193.166
193.284
192.773
193.504
192.926
193.044
192.349
192.654
191.595
191.974
190.756
191.206
189.863
190.334
188.873
189.381
187.818
188.352
186.707
187.269
185.55
186.134
184.353
184.956
183.122
183.742
181.862
182.495
180.575
181.221
179.266
179.923
177.936
178.603
176.587
177.264
175.221
175.906
173.838
174.531
172.439
173.14
171.024
171.733
169.594
170.311
168.874
166.733
166.811
166.774
166.875
166.845
166.924
166.901
166.959
166.943
166.977
166.974
166.953
166.952
166.977
166.979
166.949
166.964
166.91
166.932
166.856
166.885
166.824
167.438
168.895
168.169
170.336
169.617
171.762
171.051
173.172
172.469
174.567
173.871
175.945
175.258
177.306
176.628
178.649
177.98
179.972
179.313
181.273
180.625
182.55
181.914
183.799
183.178
185.018
184.414
186.195
185.616
187.339
186.775
188.43
187.89
189.461
188.946
190.392
189.927
191.233
190.844
191.983
191.641
192.589
192.316
193.048
192.847
193.308
193.208
193.356
193.351
193.312
516.981
516.385
516.668
515.891
516.118
515.227
515.468
515.668
515.625
515.886
516.392
516.132
516.707
515.702
515.75
514.833
514.485
514.93
513.526
514.04
513.051
510.771
509.78
193.652
501.912
507.733
503.734
516.606
517.324
516.974
515.811
516.218
514.957
515.384
513.935
514.578
513.11
513.559
512.668
192.81
192.769
510.497
193.196
514.819
514.819
192.766
503.215
506.76
505.721
504.229
506.122
192.767
180.434
511.811
192.891
510.804
166.688
166.704
183.878
186.412
516.941
517.332
516.526
259.86
506.8
505.173
503.459
496.611
498.882
508.356
500.69
505.754
504.307
512.195
192.962
192.609
192.401
508.985
511.1
193.236
193.206
514.492
515.163
514.971
514.454
182.155
180.497
192.865
192.912
192.898
503.286
185.005
185.648
185.663
508.13
505.59
506.697
503.955
183.958
481.534
486.033
509.563
192.904
509.014
191.843
517.277
517.644
509.044
497.19
193.068
191.804
507.91
511.483
515.941
515.276
515.056
513.913
192.905
503.415
503.721
182.388
491.095
192.927
193.145
186.098
186.072
191.056
186.454
186.129
507.001
515.342
513.295
494.094
494.647
503.277
503.382
490.547
193.179
187.199
187.741
515.667
515.411
512.629
493.911
191.367
192.238
185.563
186.477
186.378
187.501
187.061
187.913
187.057
187.795
511.82
493.383
192.416
513.403
492.811
511.305
493.022
192.57
218.125
510.435
517.231
190.476
179.91
193.108
193.182
193.371
193.297
193.011
193.417
192.868
192.971
192.377
192.619
191.615
191.981
190.772
191.218
189.872
190.339
188.871
189.381
187.813
188.349
186.696
187.259
185.535
186.121
184.334
184.939
183.1
183.721
181.836
182.471
180.547
181.195
179.236
179.894
177.904
178.572
176.554
177.231
175.186
175.872
173.801
174.496
172.401
173.103
170.985
171.695
169.552
170.27
168.105
168.831
166.641
167.375
165.902
165.998
165.952
166.08
166.041
166.146
166.115
166.197
166.174
166.234
166.217
166.253
166.249
166.234
166.234
166.252
166.255
166.223
166.239
166.182
166.205
166.125
166.156
166.053
166.091
165.966
166.012
165.918
167.394
166.658
168.853
168.125
170.297
169.577
171.725
171.013
173.136
172.432
174.533
173.836
175.912
175.225
177.275
176.596
178.62
177.95
179.945
179.285
181.249
180.6
182.528
181.892
183.782
183.159
185.004
184.396
186.187
185.601
187.331
186.765
188.426
187.887
189.464
188.948
190.404
189.934
191.254
190.85
192.019
191.643
192.627
192.324
193.08
192.869
193.3
193.227
193.223
193.321
192.943
516.643
516.942
516.105
516.352
515.662
515.872
515.112
515.3
515.468
515.463
515.667
516.108
515.879
516.642
516.366
516.969
518.063
517.708
515.824
516.117
514.774
515.257
513.889
514.359
513.048
513.456
512.339
519.585
505.399
501.118
507.102
502.594
516.897
517.698
517.296
516.06
516.488
515.206
515.654
514.333
514.8
513.465
513.899
512.947
192.932
192.617
510.109
193.224
193.209
514.633
514.698
181.221
179.781
192.883
185.655
504.422
184.882
185.697
507.597
504.953
184.626
179.469
502.164
500.591
191.586
181.475
184.876
192.778
516.803
182.882
512.395
511.053
505.592
192.524
185.759
187.83
518.056
518.396
517.65
511.7
503.915
495.367
497.754
507.845
499.472
505.084
503.482
193.025
192.449
192.033
509.001
510.796
193.047
514.287
514.904
514.805
514.283
179.275
192.919
192.966
192.955
186.281
185.33
424.344
504.798
186.566
508.596
506.59
507.697
505.285
184.552
182.883
489.287
185.336
192.885
186.667
166.59
165.849
165.224
165.173
518.468
518.845
510.762
509.596
495.555
193.095
191.191
192.266
186.01
185.923
508.08
514.173
192.969
192.873
515.054
514.897
513.686
492.639
493
192.92
186.518
504.589
187.856
507.357
504.672
181.75
488.265
193.052
193.006
186.845
193.146
190.369
187.982
515.124
515.144
514.964
513.073
492.109
490.702
504.409
188.704
190.831
191.84
193.119
177.35
188.633
515.222
512.403
491.369
188.925
192.081
512.96
490.467
515.475
515.275
511.755
490.944
192.25
490.586
185.728
511.07
192.593
511.865
517.505
190.57
187.008
186.677
192.737
192.809
193.231
193.064
193.4
193.365
193.187
193.353
192.857
193.007
192.348
192.596
191.616
191.991
190.782
191.223
189.871
190.342
188.865
189.379
187.802
188.343
186.681
187.246
185.515
186.103
184.31
184.917
183.073
183.695
181.806
182.443
180.515
181.164
179.202
179.861
177.868
178.537
176.516
177.194
175.146
175.833
173.761
174.456
172.359
173.062
170.941
171.652
169.507
170.226
168.057
168.784
167.326
165.159
165.259
165.211
165.345
165.304
165.414
165.382
165.468
165.443
165.507
165.489
165.527
165.521
165.518
165.517
165.524
165.529
165.495
165.511
165.451
165.475
165.391
165.423
165.315
165.355
165.272
165.866
167.345
166.608
168.808
168.079
170.254
169.533
171.683
170.97
173.097
172.392
174.494
173.797
175.875
175.187
177.24
176.56
178.587
177.916
179.914
179.253
181.22
180.57
182.503
181.864
183.759
183.134
184.984
184.376
186.174
185.583
187.318
186.751
188.419
187.879
189.46
188.949
190.412
189.938
191.273
190.854
192.033
191.659
192.654
192.355
193.114
192.902
193.337
193.263
193.301
193.36
193.15
518.294
517.547
517.923
516.869
517.189
516.293
516.561
515.826
516.047
515.447
515.623
515.01
515.145
515.285
515.304
515.454
515.833
515.635
516.305
516.058
516.874
516.568
517.58
517.213
517.978
518.063
515.989
516.389
515.091
515.528
514.245
514.666
513.421
513.832
512.595
512.96
512.349
504.572
499.995
506.529
501.594
518.088
518.665
518.534
517.189
517.624
516.322
516.757
515.471
515.905
514.64
515.059
513.817
514.224
513.028
513.423
183.463
192.99
192.321
509.916
193.118
193.052
514.333
514.54
178.608
192.939
185.715
181.05
182.26
505.481
187.121
508.552
506.45
183.661
336.377
486.286
192.751
186.047
517.058
186.399
514.703
328.056
506.414
509.854
165.104
165.119
518.704
519.183
517.96
508.231
502.251
494.17
496.603
507.728
498.216
504.505
502.803
512.945
512.297
193.044
192.057
191.492
434.107
408.977
402.036
436.648
509.136
510.553
192.737
514.774
514.626
514.052
491.179
491.303
192.935
192.982
192.971
186.089
490.678
183.002
185.811
185.574
185.593
505.944
503.526
187.958
508.125
506.988
505.766
487.811
182.416
485.945
193.172
192.667
191.558
508.936
494.032
519.586
183.875
519.969
193.075
190.592
179.516
181.267
184.09
187.995
187.09
508.276
214.897
192.598
514.775
514.749
513.481
300.577
342.372
490.226
487.138
192.863
186.279
515.304
515.573
515.411
505.182
320.056
307.021
495.397
189.758
517.215
516.255
493.505
191.345
505.645
193.053
186.539
186.113
181.299
189.557
189.399
186.623
189.456
192.46
192.35
514.946
514.826
512.895
514.966
515.228
514.92
355.179
489.362
326.03
379.353
189.933
509.535
191.651
511.077
188.214
518.515
192.936
274.703
185.064
517.881
190.158
487.881
515.04
515.031
514.898
512.251
515.047
493.431
488.611
191.845
487.938
185.639
515.113
511.619
488.252
192.311
192.551
185.754
515.165
510.634
510.754
184.277
192.867
179.302
182.238
178.262
176.581
177.582
192.021
192.111
192.88
192.563
193.319
193.134
193.427
193.417
193.259
193.375
192.877
193.067
192.332
192.625
191.622
192.013
190.793
191.23
189.869
190.343
188.857
189.374
187.787
188.332
186.661
187.23
185.491
186.081
184.282
184.891
183.041
183.666
181.772
182.41
180.478
181.128
179.163
179.823
177.827
178.497
176.473
177.152
175.103
175.79
173.716
174.411
172.313
173.016
170.894
171.605
169.458
170.178
168.006
168.734
166.536
167.273
165.047
165.794
164.294
164.412
164.354
164.517
164.466
164.606
164.564
164.68
164.645
164.736
164.71
164.776
164.758
164.797
164.79
164.8
164.799
164.793
164.798
164.763
164.78
164.717
164.742
164.654
164.688
164.574
164.616
164.478
164.528
164.368
164.424
164.308
165.811
165.062
167.294
166.555
168.759
168.029
170.207
169.485
171.637
170.924
173.052
172.347
174.451
173.754
175.834
175.144
177.2
176.519
178.548
177.876
179.878
179.216
181.187
180.535
182.472
181.833
183.732
183.105
184.961
184.35
186.155
185.561
187.304
186.733
188.41
187.866
189.454
188.945
190.416
189.942
191.286
190.863
192.055
191.681
192.688
192.387
193.158
192.942
193.41
193.323
193.435
193.442
193.342
518.655
519.175
517.791
518.201
517.066
517.41
516.451
516.736
515.957
516.187
515.556
515.743
515.241
515.392
515.092
515.964
515.757
516.461
516.2
517.076
516.744
517.824
517.43
518.252
519.651
518.894
519.339
518.425
516.194
516.624
515.361
515.766
514.563
514.94
513.804
514.183
513.08
513.437
512.65
509.375
188.759
498.654
506.047
500.637
518.388
518.848
517.467
517.929
516.569
517.013
515.719
516.139
514.911
515.311
514.138
514.524
513.258
513.743
513.172
193.008
191.726
423.839
412.781
510.026
192.929
192.721
514.143
514.358
327.814
327.506
487.839
489.6
518.255
497.528
499.196
175.834
174.053
187.663
517.218
177.545
192.955
185.787
190.199
184.57
185.662
506.467
310.346
187.797
508.624
508.132
506.617
183.112
332.411
465.69
467.405
483.035
517.189
196.785
191.383
503.661
177.662
182.855
185.489
192.207
246.947
517.291
513.56
508.238
502.623
507.303
497.072
502.362
520.504
193.013
191.372
191.188
190.975
182.424
184.514
187.979
187.528
509.217
184.929
338.87
508.721
440.355
184.909
192.312
514.33
514.473
513.844
514.999
515.029
515.013
514.98
339.099
342.11
486.405
482.217
484.268
488.251
483.673
182.469
192.702
192.878
192.918
192.914
186.009
515.215
517.997
517.986
186.373
185.904
185.982
186.397
513.38
505.808
299.598
295.122
190.82
491.347
190.775
177.462
508.87
508.389
509.983
186.199
506.768
509.209
513.158
513.278
164.986
164.231
163.611
163.548
520.088
520.134
520.729
475.09
480.441
488.993
492.649
192.949
185.937
188.297
182.208
189.818
180.004
183.867
190.102
190.274
512.63
192.255
316.045
513.178
514.642
514.613
513.322
514.903
349.405
355.484
478.222
487.224
485.223
294.773
218.969
192.718
186.006
515.164
190.467
187.437
506.608
191.063
174.595
191.187
205.622
476.872
290.252
486.73
192.854
186.742
180.886
188.78
176.394
178.042
185.263
191.194
195.075
485.263
191.947
514.768
514.712
512.732
514.87
368.043
470.952
486.368
179.547
251.859
241.768
279.565
191.693
191.306
290.603
192.672
187.666
179.59
485.085
191.62
191.536
185.397
514.877
514.82
512.078
463.694
485.682
255.537
191.978
192.263
185.772
514.969
511.336
485.336
323.409
510.669
454.302
516.283
514.554
190.284
178.863
181.847
174.994
176.499
176.543
174.777
174.57
191.021
191.083
192.232
191.703
192.999
192.654
193.41
193.212
193.478
193.483
193.314
193.426
192.912
193.129
192.349
192.664
191.637
192.028
190.801
191.237
189.866
190.344
188.847
189.367
187.769
188.317
186.637
187.209
185.462
186.055
184.249
184.86
183.005
183.631
181.733
182.372
180.436
181.087
179.118
179.78
177.781
178.452
176.426
177.105
175.054
175.742
173.666
174.362
172.262
172.966
170.842
171.554
169.405
170.126
167.951
168.681
166.479
167.218
165.735
163.536
163.66
163.6
163.771
163.717
163.866
163.821
163.944
163.907
164.004
163.976
164.045
164.027
164.068
164.059
164.082
164.082
164.062
164.07
164.031
164.049
163.983
164.009
163.915
163.951
163.83
163.875
163.728
163.781
163.671
164.245
165.753
165.002
167.239
166.499
168.706
167.975
170.155
169.433
171.587
170.873
173.003
172.297
174.403
173.705
175.787
175.097
177.155
176.473
178.505
177.832
179.837
179.173
181.148
180.495
182.437
181.795
183.7
183.071
184.931
184.319
186.132
185.535
187.285
186.712
188.399
187.848
189.445
188.935
190.421
189.943
191.3
190.871
192.078
191.707
192.726
192.422
193.209
192.989
193.478
193.385
193.517
193.516
193.203
193.412
192.477
192.771
518.95
519.49
518.011
518.455
517.228
517.598
516.571
516.881
516.041
516.295
515.621
515.818
515.311
515.453
515.162
515.219
515.063
515.02
514.925
514.957
515.084
515.042
515.315
515.224
515.633
515.465
516.054
515.83
516.581
516.304
517.24
516.891
518.039
517.614
518.984
518.497
519.516
519.316
519.894
518.771
516.408
516.839
515.583
515.98
514.842
515.186
514.169
514.489
513.488
513.844
513.111
509.525
198.844
490.113
505.383
499.916
519.924
521.082
520.472
518.72
519.27
517.72
518.212
516.79
517.245
515.93
516.35
515.149
515.531
514.428
514.783
513.747
514.082
513.567
192.959
191.165
183.245
188.001
510.107
515.793
493.377
192.619
192.168
176.962
514.19
514.979
341.108
486.29
474.28
479.205
184.627
176.486
178.62
507.811
173.821
175.248
175.885
192.279
192.572
192.904
185.887
507.252
517.761
187.632
186.146
406.168
297.843
191.374
194.683
509.23
508.744
456.576
450.133
507.942
512.056
509.598
337.877
282.213
398.71
194.465
190.158
421.905
163.47
163.483
191.482
521.228
257.438
506.874
501.072
484.994
506.623
496.02
501.88
192.862
494.551
183.14
191.039
190.808
190.316
181.427
183.637
190.493
190.794
509.486
511.141
326.056
225.493
192.008
513.681
514.368
514.333
513.696
514.895
352.236
355.449
480.531
485.018
481.051
327.378
431.764
189.039
191.195
192.734
192.751
192.765
186.015
515.074
514.902
514.946
511.259
189.996
186.194
186.393
186.995
513.709
513.556
513.014
508.62
507.597
283.21
283.619
192.373
180.585
190.621
511.532
510.613
179.47
509.857
469.239
243.74
279.654
482.618
515.579
491.285
521.659
521.681
522.377
192.719
185.828
181.92
189.438
179.639
183.942
174.902
174.525
176.716
192.329
194.819
482.585
479.263
512.813
361.784
191.889
514.478
514.495
513.16
514.798
508.422
361.617
368.674
473.885
483.952
189.4
234.15
305.526
516.961
183.941
185.568
184.423
185.676
192.5
185.86
515.043
282.548
189.443
188.191
507.588
193.249
486.935
190.681
195.481
200.337
184.843
496.796
192.155
192.606
187.058
180.923
189.445
178.167
176.822
193.156
515.492
460.259
482.152
184.567
191.38
176.167
514.599
514.614
512.576
514.727
381.141
466.675
483.087
458.281
245.302
226.654
511.717
179.273
190.945
191.558
191.904
185.817
514.728
511.911
482.485
257.416
511.501
512.097
182.925
188.468
175.555
178.636
172.279
173.508
172.391
172.209
173.088
180.492
191.227
190.406
192.392
191.846
193.123
192.789
193.503
193.337
193.554
193.565
193.365
193.499
192.961
193.197
192.385
192.696
191.657
192.04
190.806
191.246
189.86
190.344
188.834
189.357
187.746
188.297
186.608
187.183
185.427
186.022
184.21
184.823
182.962
183.59
181.687
182.328
180.388
181.04
179.068
179.73
177.728
178.4
176.371
177.052
174.998
175.687
173.61
174.306
172.205
172.909
170.785
171.497
169.347
170.068
167.892
168.622
166.417
167.157
164.922
165.673
163.401
164.165
162.63
162.772
162.703
162.903
162.839
163.021
162.964
163.121
163.073
163.203
163.164
163.266
163.237
163.31
163.29
163.335
163.324
163.355
163.355
163.326
163.336
163.295
163.313
163.243
163.271
163.172
163.21
163.082
163.129
162.974
163.03
162.85
162.914
162.714
162.783
162.642
164.18
163.414
165.691
164.938
167.179
166.438
168.648
167.916
170.098
169.375
171.53
170.816
172.947
172.241
174.348
173.649
175.733
175.042
177.102
176.42
178.455
177.781
179.789
179.124
181.103
180.449
182.394
181.752
183.662
183.03
184.896
184.283
186.102
185.502
187.261
186.685
188.381
187.827
189.436
188.921
190.424
189.941
191.316
190.879
192.107
191.728
192.773
192.458
193.27
193.038
193.555
193.448
193.611
193.6
193.302
193.487
192.66
192.986
191.602
192.296
191.001
520.38
521.003
519.204
519.788
518.195
518.671
517.348
517.744
516.641
516.978
516.076
516.35
515.642
515.846
515.326
515.469
515.125
515.211
515.007
515.054
515.006
514.993
515.101
515.043
515.331
515.223
515.649
515.473
516.091
515.856
516.651
516.353
517.358
516.987
518.213
517.761
519.236
518.705
520.453
519.818
521.794
521.142
522.44
521.202
521.687
519.645
520.244
249.391
519.074
517.493
259.425
516.58
517.017
515.766
516.164
515.074
515.39
514.462
514.745
513.954
514.196
513.986
513.827
508.473
516.748
471.037
488.96
505.733
499.309
520.293
520.959
519.025
519.635
517.94
518.466
516.973
517.442
516.108
516.529
515.34
515.71
514.672
514.996
514.121
514.377
513.913
192.786
512.189
190.594
182.561
347.613
175.614
177.706
190.735
510.436
507.481
322.545
192.171
191.626
514.026
514.041
514.892
354.309
482.679
476.131
369.747
363.64
345.733
270.488
178.923
184.078
173.243
175.373
171.879
171.928
172.862
172.172
175.194
174.022
176.941
186.884
188.14
191.331
192.758
186.061
515.059
288.976
191.06
186.644
513.189
195.176
379.034
381.987
512.906
509.532
411.162
508.054
284.707
193.727
190.392
510.884
219.022
228.228
191.162
184.473
434.137
516.623
510.492
516.734
459.062
198.522
190.242
461.374
257.702
199.402
284.648
194.133
517.685
185.689
505.996
501.722
492.33
483.683
198.502
495.149
501.825
522.239
523.078
192.612
184.372
182.87
190.384
190.132
189.719
181.07
183.364
180.649
177.944
193.145
194.567
511.753
468.632
509.73
269.033
515.018
375.751
191.877
495.537
416.745
216.804
513.382
514.191
514.208
513.565
514.777
365.238
368.815
476.454
481.539
205.214
209.533
210.708
225.051
341.362
478.75
324.954
281.354
210.268
205.403
202.852
189.181
190.359
186.88
190.885
190.646
192.515
192.493
192.535
186.072
514.946
514.777
514.802
178.623
194.165
186.506
186.834
187.565
508.358
272.044
194.905
189.498
202.272
184.065
285.263
510.576
163.336
162.562
161.939
161.862
522.317
523.137
513.609
191.496
424.374
189.091
192.453
185.63
181.965
189.478
179.734
184.21
178.004
194.94
466.123
199.29
512.254
479.272
510.284
512.74
191.147
185.34
514.292
514.382
513.015
514.655
374.435
381.647
469.286
480.404
452.287
206.75
236.192
270.703
213.171
442.052
300.741
208.376