/*--------------------------------*- C++ -*----------------------------------*\
| =========                 |                                                 |
| \\      /  F ield         | OpenFOAM: The Open Source CFD Toolbox           |
|  \\    /   O peration     | Version:  2212                                  |
|   \\  /    A nd           | Website:  www.openfoam.com                      |
|    \\/     M anipulation  |                                                 |
\*---------------------------------------------------------------------------*/
FoamFile
{
    version     2.0;
    format      ascii;
    arch        "LSB;label=32;scalar=64";
    class       volScalarField;
    location    "7.4e-05";
    object      nut;
}
// * * * * * * * * * * * * * * * * * * * * * * * * * * * * * * * * * * * * * //

dimensions      [0 2 -1 0 0 0 0];

internalField   nonuniform List<scalar> 
17100
(
0.000295561
0.00517372
0.024414
0.0508103
0.0805095
0.110967
0.139205
0.163804
0.184605
0.201957
0.216335
0.228524
0.238842
0.247582
0.254997
0.261299
0.266661
0.271227
0.275114
0.278417
0.281215
0.283571
0.285539
0.287161
0.288472
0.289502
0.290276
0.290816
0.291142
0.29127
0.290879
0.290346
0.289612
0.288645
0.287416
0.285899
0.28406
0.281861
0.279255
0.276186
0.272584
0.268365
0.263426
0.257637
0.250838
0.242826
0.233347
0.222079
0.208616
0.192459
0.173024
0.149646
0.121372
0.0872417
0.0472191
0.0107969
0.000466082
0.000327153
0.000527732
0.00158793
0.00482605
0.0115893
0.0220132
0.0351361
0.0498201
0.0651592
0.0804718
0.0952966
0.109349
0.122456
0.134526
0.145527
0.15547
0.164386
0.172327
0.179348
0.185511
0.190873
0.195492
0.199418
0.2027
0.205377
0.207482
0.209042
0.210075
0.210633
0.210805
0.210287
0.209286
0.207792
0.205776
0.203215
0.200075
0.19632
0.191906
0.186781
0.180893
0.174182
0.166589
0.158053
0.14852
0.137949
0.126317
0.113638
0.099974
0.0854662
0.0703616
0.0550555
0.0400964
0.0261234
0.0141372
0.0056244
0.00148963
0.000437903
0.000259013
0.000401161
0.000904448
0.00223842
0.00490003
0.0091641
0.0151078
0.0225987
0.0313046
0.0408455
0.0508586
0.0610293
0.0711005
0.0808711
0.0901905
0.0989597
0.107111
0.114598
0.1214
0.12751
0.132934
0.137685
0.141782
0.145245
0.148094
0.150349
0.152027
0.153141
0.153704
0.153829
0.153268
0.152163
0.15051
0.148296
0.145509
0.142129
0.13814
0.13352
0.128251
0.122319
0.115713
0.108435
0.1005
0.09194
0.0828176
0.0732266
0.0633035
0.0532345
0.043262
0.0336858
0.0248541
0.0171191
0.0107354
0.00589375
0.00261895
0.000887075
0.000365432
0.000223495
0.000362746
0.000790264
0.00173283
0.00345171
0.00614989
0.00982611
0.014397
0.0198063
0.0259182
0.0325561
0.0395365
0.0466833
0.0538371
0.0608608
0.0676418
0.0740903
0.0801372
0.0857321
0.09084
0.0954386
0.0995155
0.103066
0.106089
0.10859
0.110579
0.112061
0.113042
0.113528
0.113613
0.113086
0.112067
0.110556
0.108549
0.106042
0.103032
0.0995169
0.0954958
0.0909734
0.0859598
0.0804739
0.0745462
0.0682213
0.0615619
0.054651
0.0475949
0.0405239
0.0335916
0.0269698
0.0208391
0.0153739
0.0107149
0.00688165
0.00388878
0.00181559
0.000713702
0.000320505
0.00020382
0.000335573
0.000716502
0.00150304
0.00282847
0.00479861
0.00747216
0.0107779
0.0146075
0.0188899
0.0235634
0.0285216
0.0336561
0.0388614
0.0440396
0.0491038
0.0539793
0.0586045
0.0629297
0.0669167
0.070537
0.0737706
0.0766039
0.079029
0.0810416
0.0826406
0.0838258
0.0846036
0.0849806
0.0850281
0.0845733
0.0837142
0.0824527
0.0807907
0.0787303
0.0762754
0.0734319
0.0702087
0.0666191
0.0626822
0.058424
0.0538797
0.0490945
0.0441255
0.0390418
0.033925
0.0288677
0.0239709
0.0193392
0.0150757
0.0112656
0.00794456
0.00516503
0.00300758
0.00148354
0.000611443
0.0002872
0.00019088
0.000312207
0.000651758
0.00132902
0.00242878
0.00399439
0.00605031
0.00860049
0.0115457
0.0148015
0.0182856
0.0219667
0.0257719
0.0296313
0.0334783
0.0372522
0.0408989
0.0443724
0.0476341
0.0506527
0.0534038
0.0558689
0.0580344
0.0598908
0.0614321
0.0626547
0.0635567
0.0641379
0.0644096
0.0644309
0.0640546
0.063364
0.062362
0.061052
0.0594384
0.0575274
0.055327
0.0528479
0.0501041
0.0471137
0.0438999
0.0404915
0.036924
0.0332393
0.0294866
0.0257215
0.0220051
0.0184021
0.0149801
0.0117831
0.00886006
0.00630359
0.00418473
0.00250373
0.00126375
0.000537065
0.000260132
0.000180671
0.000291061
0.000593166
0.00118191
0.0021171
0.00341716
0.00507452
0.00707415
0.00940765
0.0119899
0.0147291
0.0175521
0.0204468
0.0233637
0.0262577
0.0290874
0.0318161
0.0344119
0.0368477
0.0391015
0.0411554
0.0429955
0.0446114
0.0459955
0.0471426
0.0480493
0.0487138
0.049135
0.0493204
0.0493194
0.0490159
0.0484763
0.0477029
0.046699
0.045469
0.0440187
0.0423553
0.0404881
0.0384282
0.0361898
0.0337898
0.0312489
0.0285914
0.0258457
0.0230443
0.0202234
0.0174225
0.0146844
0.0120336
0.00951319
0.00722004
0.00522682
0.00352504
0.00213465
0.00109178
0.000475445
0.000237117
0.000171452
0.000271775
0.00054159
0.00105892
0.00187059
0.00298426
0.00437484
0.0060049
0.00784666
0.00988148
0.0120624
0.014296
0.0165307
0.0187623
0.0209591
0.023093
0.0251394
0.0270774
0.0288895
0.0305611
0.0320806
0.0334388
0.0346288
0.0356456
0.0364856
0.0371469
0.0376284
0.0379301
0.0380568
0.0380153
0.0377806
0.0373687
0.0367826
0.0360255
0.0351015
0.0340152
0.0327724
0.0313796
0.0298452
0.0281786
0.0263914
0.0244969
0.0225108
0.0204516
0.0183399
0.0161991
0.0140552
0.0119263
0.00983661
0.00786921
0.00606476
0.004442
0.00301907
0.00183838
0.000949224
0.00042258
0.000216479
0.000162568
0.000253577
0.000494628
0.000950198
0.00165787
0.0026178
0.00380196
0.00516628
0.00666484
0.00826548
0.00995481
0.0117162
0.0134694
0.0151853
0.0168592
0.0184724
0.0200092
0.0214562
0.0228024
0.0240389
0.0251586
0.0261559
0.0270268
0.0277682
0.0283782
0.0288557
0.0292002
0.029412
0.0294925
0.0294474
0.0292634
0.0289493
0.0285072
0.0279395
0.0272491
0.0264393
0.0255142
0.0244783
0.023337
0.0220967
0.0207645
0.0193489
0.0178597
0.016308
0.0147065
0.0130698
0.0114146
0.00974789
0.00812602
0.00657621
0.00511381
0.00377092
0.00257886
0.00158229
0.000827248
0.000377801
0.000196967
0.00015371
0.000235885
0.000450016
0.000848077
0.00145663
0.00227368
0.00327133
0.00440718
0.00563976
0.00693403
0.0082597
0.0096062
0.0109715
0.0122964
0.0135745
0.0147961
0.0159516
0.017033
0.0180338
0.0189489
0.0197741
0.0205065
0.0211437
0.0216842
0.0221269
0.0224714
0.0227175
0.0228656
0.0229172
0.0228786
0.0227351
0.0224959
0.0221628
0.0217374
0.0212217
0.0206179
0.0199286
0.0191569
0.0183062
0.0173804
0.016384
0.0153221
0.0142005
0.0130261
0.0118066
0.0105515
0.00926718
0.00797546
0.00670543
0.00546348
0.00427472
0.00317171
0.00218413
0.00135363
0.000720609
0.000338707
0.000178643
0.000144873
0.000218655
0.000407214
0.000750195
0.00126611
0.00195125
0.00278005
0.00371426
0.00471701
0.00575786
0.00681294
0.00786361
0.0089012
0.00992557
0.0109006
0.0118266
0.0126973
0.0135082
0.0142555
0.0149362
0.0155481
0.0160895
0.0165593
0.0169566
0.0172809
0.0175319
0.0177097
0.0178144
0.017852
0.0178232
0.0177116
0.0175297
0.0172784
0.0169591
0.0165729
0.0161211
0.0156054
0.0150276
0.01439
0.0136949
0.0129451
0.0121436
0.0112938
0.0103997
0.00946614
0.00849885
0.00750048
0.00649922
0.00549472
0.00450145
0.00354188
0.00264428
0.00183531
0.00115122
0.000625368
0.000301729
0.000161533
0.000136323
0.000202188
0.000366797
0.000658672
0.00108972
0.00165535
0.00233364
0.00309192
0.00389899
0.00472955
0.00556442
0.00638933
0.00719363
0.00797258
0.00872069
0.00942688
0.0100881
0.0107016
0.0112654
0.0117777
0.0122375
0.0126438
0.0129958
0.0132933
0.013536
0.013724
0.013857
0.0139372
0.0139628
0.0139424
0.0138579
0.0137208
0.0135317
0.0132915
0.013001
0.0126612
0.0122728
0.0118369
0.0113551
0.0108287
0.0102595
0.00964914
0.00899973
0.00831362
0.00759368
0.00684171
0.00607089
0.00528314
0.00448605
0.00369245
0.00292074
0.00219465
0.00153687
0.000977417
0.000542692
0.000268675
0.000145545
0.000128433
0.000187089
0.000330172
0.000576774
0.000933399
0.00139514
0.00194409
0.00255366
0.00319844
0.00385805
0.00451726
0.00516507
0.0057936
0.0063972
0.00697377
0.00751746
0.00802566
0.00849664
0.00892911
0.00932216
0.00967485
0.00998645
0.0102566
0.0104852
0.0106721
0.0108195
0.010927
0.0109886
0.0110086
0.0109943
0.0109324
0.0108302
0.0106883
0.0105071
0.0102873
0.0100295
0.00973445
0.00940235
0.00903416
0.00863085
0.00819346
0.00772309
0.00722095
0.00668846
0.00612729
0.00554134
0.00493381
0.00430872
0.00367289
0.00303653
0.0024147
0.00182702
0.00129222
0.000834467
0.000474187
0.000241036
0.000130807
0.000121546
0.000173996
0.000298821
0.000507603
0.00080266
0.00117903
0.00162249
0.00211194
0.00262729
0.00315244
0.00367548
0.00418787
0.00468364
0.0051586
0.00561016
0.00603588
0.00643383
0.00680267
0.0071415
0.00745156
0.00773036
0.00797598
0.00818936
0.00837113
0.00852096
0.00863873
0.00872417
0.00877687
0.00879711
0.00878843
0.00874459
0.00866919
0.00856256
0.00842504
0.00825714
0.00805925
0.00783183
0.00757531
0.00728984
0.00697598
0.00663446
0.00626595
0.00587127
0.00545138
0.0050076
0.00454145
0.00405542
0.00355305
0.00303978
0.00252396
0.002018
0.00153808
0.00109946
0.000721399
0.000419544
0.000218405
0.000117545
0.000115852
0.000163056
0.000273063
0.000452319
0.000699329
0.00100961
0.00137172
0.00176896
0.00218551
0.00260878
0.00302946
0.00344077
0.00383857
0.00421693
0.0045794
0.00492084
0.00524019
0.00553664
0.00580954
0.00605857
0.00628301
0.00648251
0.0066569
0.00680602
0.00692969
0.00702778
0.00710017
0.00714683
0.00716784
0.00716346
0.00713332
0.00707779
0.00699719
0.00689093
0.00676078
0.00660619
0.00642751
0.00622503
0.00599909
0.00574979
0.00547756
0.00518258
0.00486534
0.00452635
0.00416849
0.0037894
0.00339289
0.00298135
0.00255933
0.0021338
0.00171512
0.00131671
0.000951055
0.000633565
0.00037631
0.000199799
0.000105933
0.000111385
0.000154429
0.000253142
0.000410164
0.000621677
0.0008832
0.0011853
0.00151451
0.00185827
0.00220671
0.00255264
0.00288728
0.00321407
0.00352664
0.00382368
0.00410387
0.00436634
0.00461042
0.0048356
0.00504132
0.00522733
0.00539329
0.00553919
0.00566469
0.00576947
0.00585343
0.00591648
0.00595854
0.00597962
0.00597971
0.00595885
0.0059171
0.0058546
0.00577144
0.00566784
0.00554395
0.00539993
0.00523596
0.00505223
0.00484893
0.00462603
0.00438386
0.00412255
0.00384241
0.00354398
0.00322792
0.00289866
0.00255331
0.00219832
0.00183957
0.00148578
0.00114826
0.000837316
0.00056548
0.000342251
0.000185335
9.92981e-05
0.000108038
0.000147837
0.000238163
0.000378948
0.000564936
0.000791103
0.00104988
0.00133007
0.00162145
0.00191625
0.00220466
0.00248943
0.0027643
0.00302736
0.00327733
0.00351328
0.00373453
0.00394054
0.00413091
0.00430528
0.00446337
0.00460494
0.00472953
0.00483704
0.00492742
0.00500048
0.0050561
0.00509418
0.00511465
0.0051175
0.0051027
0.00507028
0.00502028
0.00495276
0.00486781
0.0047655
0.00464592
0.00450916
0.00435529
0.00418441
0.00399657
0.00379188
0.00357044
0.00333247
0.0030783
0.00280852
0.00252431
0.00223051
0.00192487
0.00161564
0.00131027
0.00101843
0.000748742
0.000511601
0.000314727
0.000173686
9.56345e-05
0.000105619
0.000142696
0.000226575
0.000355384
0.000522815
0.000723279
0.0009508
0.00119564
0.00144898
0.00170391
0.00195575
0.00220154
0.00243875
0.00266574
0.00288142
0.00308502
0.00327599
0.00345392
0.00361846
0.00376933
0.00390629
0.00402908
0.00413751
0.00423138
0.00431057
0.00437491
0.0044243
0.00445863
0.00447783
0.00448184
0.00447062
0.00444417
0.00440249
0.00434558
0.00427347
0.0041862
0.00408378
0.00396626
0.00383366
0.003686
0.0035233
0.00334558
0.00315292
0.00294546
0.00272351
0.00248765
0.00223901
0.00197958
0.00171204
0.00144062
0.0011722
0.000915284
0.000677274
0.000466943
0.000290851
0.000163149
9.32461e-05
0.000103931
0.000138485
0.000216949
0.000335872
0.000489005
0.000671136
0.000875652
0.00109478
0.00132069
0.00154653
0.00177014
0.00198784
0.00219758
0.00239802
0.00258829
0.00276779
0.00293608
0.00309284
0.0032378
0.00337073
0.00349143
0.00359972
0.00369542
0.00377838
0.00384845
0.00390551
0.00394945
0.00398017
0.00399759
0.00400164
0.00399228
0.00396946
0.00393318
0.00388341
0.00382015
0.00374339
0.00365314
0.00354939
0.00343212
0.00330133
0.003157
0.00299914
0.00282778
0.00264303
0.00244515
0.00223465
0.00201245
0.00178012
0.00154275
0.00129991
0.00106004
0.000830387
0.000617286
0.000428346
0.000269132
0.000153335
9.17553e-05
0.000102775
0.0001349
0.000208537
0.000319237
0.00046075
0.000628381
0.000815644
0.00101524
0.00122057
0.00142443
0.00162679
0.00182321
0.00201207
0.0021923
0.00236317
0.00252419
0.00267503
0.0028154
0.00294512
0.00306399
0.00317186
0.00326858
0.00335402
0.00342805
0.00349054
0.00354139
0.0035805
0.00360778
0.00362316
0.00362656
0.00361794
0.00359725
0.00356446
0.00351954
0.00346246
0.00339322
0.00331177
0.00321811
0.0031122
0.00299401
0.00286351
0.0027207
0.00256561
0.00239834
0.00221915
0.00202856
0.00182747
0.00161739
0.0014014
0.00118208
0.000965322
0.000757644
0.000564666
0.000393213
0.000248327
0.000143962
9.0615e-05
0.000102242
0.000131768
0.000200947
0.000304519
0.000436185
0.000591623
0.000765013
0.000949039
0.00113796
0.00132517
0.00151059
0.00169019
0.00186259
0.00202687
0.00218242
0.00232881
0.00246576
0.00259306
0.00271054
0.00281807
0.00291552
0.00300278
0.00307975
0.00314632
0.0032024
0.00324789
0.00328272
0.0033068
0.00332008
0.00332248
0.00331396
0.00329448
0.00326398
0.00322245
0.00316985
0.00310615
0.00303132
0.00294533
0.00284813
0.0027397
0.00262001
0.00248903
0.00234681
0.00219345
0.00202923
0.00185465
0.0016706
0.00147854
0.00128076
0.00108057
0.000882742
0.000693167
0.000516971
0.000360275
0.000228419
0.000134989
8.99255e-05
0.00010221
0.0001289
0.000193842
0.000290949
0.000413933
0.000558795
0.000720223
0.000891409
0.00106675
0.00124036
0.0014118
0.0015776
0.00173652
0.00188775
0.00203074
0.00216512
0.00229066
0.00240718
0.00251455
0.00261266
0.00270143
0.00278077
0.00285059
0.00291083
0.0029614
0.00300223
0.00303326
0.00305442
0.00306567
0.003067
0.00305826
0.00303944
0.00301053
0.00297148
0.00292227
0.00286286
0.00279323
0.00271332
0.00262311
0.00252256
0.00241163
0.00229032
0.00215867
0.0020168
0.00186498
0.00170371
0.00153386
0.00135682
0.0011747
0.000990574
0.000808713
0.000634502
0.000472756
0.000329086
0.000209481
0.00012687
8.9425e-05
0.000102555
0.000126224
0.000186963
0.000277997
0.000393088
0.000528532
0.000679471
0.000839478
0.00100314
0.00116494
0.00132447
0.00147855
0.00162603
0.00176619
0.00189853
0.00202273
0.00213859
0.00224596
0.00234474
0.00243484
0.0025162
0.00258876
0.00265245
0.00270722
0.00275301
0.00278975
0.0028174
0.00283587
0.00284513
0.00284587
0.00283665
0.00281818
0.0027904
0.00275329
0.00270679
0.00265088
0.00258551
0.00251066
0.00242627
0.00233232
0.00222879
0.00211567
0.001993
0.00186093
0.00171971
0.00156984
0.00141216
0.00124798
0.00107929
0.000908943
0.000740842
0.000580005
0.000431058
0.000299563
0.00019172
0.000119472
8.90952e-05
0.000103127
0.000123649
0.000180129
0.000265359
0.000373107
0.000499954
0.000641449
0.000791393
0.000944591
0.00109607
0.00124507
0.00138885
0.00152633
0.00165682
0.00177987
0.00189521
0.00200265
0.00210207
0.00219337
0.00227651
0.00235143
0.00241809
0.00247644
0.00252645
0.00256806
0.00260125
0.00262598
0.0026422
0.00264991
0.00264909
0.00263962
0.00262151
0.00259473
0.00255926
0.00251509
0.00246216
0.00240047
0.00232996
0.00225062
0.0021624
0.00206529
0.0019593
0.00184448
0.00172096
0.00158902
0.00144914
0.00130209
0.00114914
0.000992133
0.000833753
0.000677752
0.000529002
0.000391601
0.000271559
0.00017534
0.000112591
8.88757e-05
0.000103963
0.000121278
0.0001734
0.000252921
0.000353678
0.000472506
0.000605266
0.000746011
0.000889635
0.00103201
0.00117146
0.00130598
0.00143451
0.00155637
0.00167117
0.00177863
0.00187859
0.00197096
0.00205566
0.00213265
0.00220188
0.00226333
0.00231697
0.00236277
0.00240071
0.00243076
0.00245289
0.00246707
0.00247329
0.00247151
0.00246171
0.00244386
0.00241794
0.00238393
0.0023418
0.00229154
0.0022331
0.00216646
0.0020916
0.00200848
0.00191709
0.00181745
0.00170961
0.00159372
0.00147003
0.00133901
0.0012014
0.00105836
0.00091177
0.000763996
0.000618851
0.000481015
0.000354613
0.000245772
0.000160447
0.000106542
8.8762e-05
0.000105042
0.00011912
0.0001669
0.000240638
0.000334677
0.000445911
0.000570489
0.00070271
0.000837611
0.000971484
0.00110231
0.00122844
0.00134884
0.00146289
0.00157022
0.00167058
0.00176382
0.00184986
0.00192864
0.00200011
0.00206427
0.00212107
0.00217052
0.00221258
0.00224726
0.00227452
0.00229435
0.00230674
0.00231166
0.0023091
0.00229904
0.00228146
0.00225635
0.00222368
0.00218344
0.00213559
0.00208012
0.002017
0.0019462
0.0018677
0.0017815
0.0016876
0.00158609
0.00147708
0.00136083
0.00123776
0.00110854
0.000974224
0.000837676
0.000699358
0.000564105
0.000436287
0.00032024
0.000222203
0.000147023
0.000101289
8.87107e-05
0.000106334
0.000117106
0.000160564
0.000228689
0.000316141
0.000420087
0.00053692
0.000661159
0.000787999
0.000913961
0.0010369
0.00115532
0.00126828
0.00137519
0.00147571
0.0015696
0.00165673
0.00173703
0.00181044
0.00187694
0.00193652
0.00198914
0.00203483
0.00207355
0.00210531
0.0021301
0.00214791
0.00215872
0.00216252
0.00215931
0.00214908
0.00213181
0.00210749
0.00207609
0.00203761
0.00199201
0.00193929
0.00187941
0.00181236
0.00173811
0.00165666
0.00156804
0.0014723
0.00136957
0.00126009
0.0011443
0.00102289
0.000896991
0.000768491
0.000639314
0.000513354
0.000394925
0.000288772
0.000200784
0.000134981
9.66156e-05
8.87368e-05
0.00010781
0.000115188
0.000154377
0.000217035
0.000298037
0.000395035
0.00050453
0.000621265
0.000740589
0.000859163
0.000974792
0.00108611
0.00119222
0.00129257
0.00138682
0.00147477
0.00155631
0.00163137
0.00169989
0.00176186
0.00181728
0.00186613
0.00190841
0.00194413
0.00197329
0.00199589
0.00201192
0.0020214
0.0020241
0.0020204
0.0020101
0.00199318
0.00196965
0.00193948
0.00190267
0.0018592
0.00180904
0.00175219
0.00168862
0.00161831
0.00154126
0.0014575
0.00136708
0.00127014
0.00116693
0.00105786
0.000943607
0.000825251
0.000704435
0.00058353
0.000466177
0.000356653
0.000259964
0.000181393
0.00012421
9.24743e-05
8.88015e-05
0.000109448
0.000113386
0.000148324
0.000205717
0.00028056
0.000370867
0.000473432
0.000583103
0.000695359
0.000807151
0.000915574
0.00102045
0.00112027
0.00121456
0.00130304
0.00138552
0.00146192
0.00153215
0.00159619
0.00165402
0.00170564
0.00175105
0.00179025
0.00182325
0.00185006
0.00187067
0.0018851
0.00189334
0.00189541
0.00189127
0.00188093
0.00186438
0.00184162
0.00181263
0.00177742
0.00173595
0.00168822
0.0016342
0.00157388
0.00150724
0.00143429
0.00135505
0.00126959
0.00117802
0.00108059
0.000977685
0.000869936
0.000758686
0.000645021
0.000531744
0.00042238
0.000321307
0.000233634
0.000163865
0.000114511
8.88001e-05
8.88953e-05
0.000111223
0.000111709
0.00014243
0.000194819
0.000263728
0.000347582
0.00044353
0.000546524
0.000652145
0.000757381
0.000859589
0.00095828
0.00105221
0.00114088
0.00122401
0.00130144
0.00137308
0.00143887
0.00149878
0.00155281
0.00160096
0.00164323
0.00167962
0.00171015
0.00173482
0.00175364
0.00176661
0.00177376
0.00177546
0.00177095
0.00176061
0.00174444
0.00172244
0.0016946
0.00166091
0.00162135
0.0015759
0.00152455
0.00146729
0.0014041
0.00133499
0.00125998
0.00117912
0.00109254
0.00100045
0.000903238
0.000801546
0.000696771
0.000589842
0.000483734
0.000381831
0.000288844
0.000209656
0.000148077
0.000105829
8.55454e-05
8.90151e-05
0.000113114
0.000110178
0.000136845
0.000184366
0.00024758
0.000325206
0.000414802
0.000511466
0.000610844
0.000709936
0.000806525
0.000899455
0.00098788
0.00107131
0.00114948
0.00122222
0.00128945
0.00135113
0.00140725
0.00145778
0.00150274
0.00154213
0.00157596
0.00160424
0.00162699
0.0016442
0.00165588
0.00166201
0.00166347
0.00165862
0.00164833
0.00163257
0.00161134
0.00158462
0.00155239
0.00151465
0.00147138
0.00142256
0.00136819
0.00130824
0.00124272
0.00117165
0.00109509
0.00101314
0.000926032
0.000834132
0.000738099
0.000638998
0.00053839
0.000438971
0.000344156
0.000259036
0.000187916
0.000133964
9.82041e-05
8.26928e-05
8.91659e-05
0.000115109
0.000108807
0.000131577
0.000174394
0.000232234
0.000303922
0.000387364
0.00047799
0.000571503
0.000664933
0.000756114
0.000843737
0.000927074
0.00100565
0.00107921
0.0011476
0.00121075
0.00126863
0.00132123
0.00136853
0.00141056
0.00144732
0.00147881
0.00150507
0.0015261
0.00154192
0.00155254
0.00155801
0.00155835
0.00155346
0.00154337
0.0015281
0.00150766
0.00148204
0.00145124
0.00141525
0.00137404
0.00132762
0.00127596
0.00121906
0.0011569
0.00108952
0.00101696
0.000939315
0.000856783
0.000769699
0.000679036
0.000585258
0.000490463
0.000397307
0.000309359
0.00023178
0.000168323
0.000121461
9.16117e-05
8.0227e-05
8.93485e-05
0.000117212
0.000107612
0.000126698
0.000164955
0.00021759
0.000283576
0.000361158
0.000446068
0.000534106
0.000622277
0.000708523
0.000790813
0.000869567
0.000943691
0.00101299
0.00107735
0.00113672
0.00119108
0.00124041
0.00128474
0.00132406
0.00135839
0.00138775
0.00141216
0.00143162
0.00144615
0.00145577
0.00146049
0.00146033
0.0014553
0.00144538
0.00143059
0.00141092
0.00138637
0.00135693
0.0013226
0.00128336
0.00123919
0.0011901
0.00113605
0.00107705
0.00101311
0.000944267
0.00087061
0.00079233
0.000709802
0.000623809
0.000535154
0.000445889
0.00035859
0.000277319
0.000206967
0.000150749
0.000110405
8.5832e-05
7.80969e-05
8.95455e-05
0.00011944
0.000106595
0.000122126
0.00015604
0.000203676
0.000264181
0.000336082
0.000415629
0.000498565
0.000581731
0.000663104
0.000741147
0.000815393
0.000885308
0.000950631
0.00101125
0.00106711
0.0011182
0.00116452
0.00120608
0.00124291
0.00127501
0.0013024
0.00132511
0.00134314
0.00135652
0.00136526
0.00136919
0.00136869
0.00136358
0.00135387
0.00133955
0.00132063
0.0012971
0.00126897
0.00123622
0.00119883
0.00115681
0.00111012
0.00105875
0.0010027
0.00094197
0.000876581
0.00080662
0.000732272
0.000653915
0.000572209
0.000488284
0.000404167
0.000322497
0.000247847
0.000184455
0.000135011
0.00010054
8.07281e-05
7.62452e-05
8.97271e-05
0.000121803
0.000105761
0.00011786
0.000147586
0.00019049
0.000245769
0.00031228
0.000386654
0.000464727
0.000543241
0.000620199
0.000694189
0.000764195
0.000830274
0.00089193
0.000949076
0.00100168
0.00104974
0.00109327
0.00113228
0.00116679
0.00119683
0.0012224
0.00124354
0.00126027
0.00127259
0.00128055
0.00128381
0.00128303
0.00127789
0.00126839
0.00125454
0.00123635
0.00121381
0.00118692
0.00115566
0.00112004
0.00108002
0.00103559
0.000986739
0.000933436
0.000875678
0.000813478
0.000746895
0.000676066
0.000601767
0.000524002
0.000444484
0.000365226
0.000289158
0.000220874
0.000164138
0.000121005
9.18623e-05
7.62496e-05
7.46295e-05
8.98635e-05
0.000124286
0.000105105
0.000113904
0.000139627
0.000178061
0.000228358
0.000289701
0.000359102
0.00043254
0.000506715
0.000579608
0.000649784
0.000715848
0.000778392
0.00083667
0.000890611
0.000940202
0.000985454
0.00102639
0.00106303
0.0010954
0.00112352
0.00114742
0.00116711
0.00118262
0.00119395
0.00120114
0.0012041
0.00120303
0.00119785
0.00118856
0.00117517
0.00115767
0.00113607
0.00111036
0.00108052
0.00104655
0.00100842
0.000966114
0.000919599
0.000868851
0.000813848
0.000754594
0.000691155
0.000623732
0.000552721
0.000478819
0.000403529
0.00032883
0.000258372
0.000196308
0.000145933
0.000108658
8.43329e-05
7.23532e-05
7.32203e-05
8.99446e-05
0.000126825
0.000104616
0.000110279
0.000132274
0.000166439
0.000211965
0.000268315
0.000332823
0.000401909
0.000472059
0.000541088
0.000607548
0.000670462
0.000729578
0.000784677
0.000835638
0.000882436
0.000925087
0.000963621
0.00099807
0.00102846
0.00105481
0.00107716
0.00109552
0.00110992
0.00112037
0.00112689
0.00112949
0.0011282
0.00112302
0.00111396
0.00110102
0.0010842
0.00106349
0.0010389
0.0010104
0.000977988
0.000941629
0.000901299
0.00085696
0.000808573
0.000756101
0.000699522
0.000638851
0.000574729
0.000506799
0.000436398
0.000365077
0.000294961
0.000230062
0.000174069
0.000129733
9.78466e-05
7.78569e-05
6.89875e-05
7.20016e-05
9.00015e-05
0.000129321
0.00010427
0.000106981
0.00012551
0.00015564
0.000196614
0.000248155
0.000307974
0.00037282
0.000439172
0.000504588
0.000567728
0.000627708
0.000683293
0.000735634
0.000783898
0.000828134
0.000868387
0.000904705
0.000937124
0.00096568
0.000990404
0.00101133
0.00102847
0.00104185
0.0010515
0.00105743
0.00105967
0.00105821
0.00105307
0.00104424
0.00103174
0.00101557
0.000995717
0.00097218
0.000944944
0.000913987
0.00087928
0.000840788
0.000798462
0.000752254
0.000702115
0.000648028
0.000590062
0.000528473
0.000463621
0.000396619
0.000329042
0.000263604
0.000204175
0.000154058
0.000115374
8.83357e-05
7.22254e-05
6.60862e-05
7.09718e-05
9.01073e-05
0.000131685
0.000104039
0.000104006
0.000119348
0.00014566
0.000182307
0.000229221
0.000284493
0.000345182
0.000407869
0.000469912
0.000529919
0.000586844
0.000640014
0.000689514
0.000735215
0.000777072
0.000815113
0.000849386
0.000879935
0.000906802
0.000930024
0.000949634
0.000965658
0.00097812
0.000987042
0.00099235
0.000994365
0.000992758
0.000987654
0.000979063
0.00096699
0.000951434
0.000932391
0.000909851
0.000883795
0.0008542
0.000821029
0.000784236
0.000743763
0.000699544
0.000651515
0.000599635
0.000544195
0.000485037
0.000422982
0.0003592
0.00029528
0.000234639
0.000180637
0.000136167
0.000102724
8.00324e-05
6.73202e-05
6.35954e-05
7.014e-05
9.03477e-05
0.000133906
0.000103904
0.000101327
0.000113705
0.000136347
0.000169008
0.000211489
0.000262319
0.000318839
0.000378042
0.000436966
0.000494057
0.000548309
0.000599204
0.00064575
0.000689273
0.000728999
0.000765024
0.000797422
0.000826254
0.000851568
0.000873409
0.000891814
0.00090681
0.000918425
0.00092668
0.000931373
0.000933274
0.000931529
0.000926471
0.000918106
0.000906439
0.000891467
0.000873184
0.000851577
0.000826624
0.000798293
0.000766542
0.000731312
0.000692535
0.00065013
0.00060403
0.000554228
0.000500866
0.000444083
0.000384698
0.000324003
0.000263953
0.000208061
0.000159389
0.0001203
9.16882e-05
7.29125e-05
6.31121e-05
6.14881e-05
6.95122e-05
9.07589e-05
0.0001361
0.000103878
9.89334e-05
0.000108556
0.000127888
0.000156672
0.000194912
0.000241453
0.000293969
0.000349697
0.00040567
0.000459977
0.000511694
0.000560134
0.000604886
0.000646029
0.000683744
0.000717909
0.000748588
0.000775846
0.000799738
0.000820313
0.000837612
0.000851666
0.000862503
0.000870144
0.000874284
0.000876073
0.000874209
0.000869199
0.000861051
0.000849768
0.000835345
0.000817774
0.000797036
0.000773104
0.000745941
0.000715494
0.000681693
0.000644454
0.00060368
0.00055928
0.000511479
0.000459972
0.000405393
0.000348613
0.000290828
0.000234909
0.000183827
0.000140368
0.000106345
8.21216e-05
6.68131e-05
5.95225e-05
5.97229e-05
6.90604e-05
9.12631e-05
0.000138501
0.000104006
9.68255e-05
0.000103895
0.000120182
0.000145356
0.000179548
0.000221914
0.000270473
0.000322675
0.000375792
0.00042753
0.000476929
0.000523256
0.000566211
0.000605073
0.000641039
0.000673539
0.000702662
0.000728489
0.000751082
0.000770499
0.000786785
0.000799975
0.000810096
0.000817173
0.000820828
0.00082249
0.000820503
0.000815537
0.000807595
0.000796672
0.000782761
0.00076585
0.000745916
0.000722925
0.000696831
0.000667572
0.000635065
0.000599216
0.000559928
0.000517152
0.000470908
0.000421262
0.000368796
0.000314562
0.000259994
0.000208194
0.000161901
0.000123464
9.41288e-05
7.37995e-05
6.16102e-05
5.64689e-05
5.82397e-05
6.87038e-05
9.16448e-05
0.000141377
0.00010436
9.50184e-05
9.97143e-05
0.000113198
0.000134995
0.000165385
0.000203703
0.000248359
0.00029705
0.000347327
0.000396684
0.000443868
0.000488201
0.000529256
0.000566857
0.000600725
0.000631723
0.000659438
0.000683966
0.000705378
0.000723739
0.000739097
0.000751489
0.000760945
0.000767435
0.000771057
0.00077212
0.000770067
0.000765175
0.00075744
0.00074686
0.000733427
0.000717124
0.000697926
0.000675792
0.000650668
0.000622478
0.000591127
0.000556496
0.000518445
0.000477351
0.000432495
0.000384574
0.000334224
0.000282323
0.000231316
0.00018376
0.000142209
0.00010855
8.35091e-05
6.66582e-05
5.71141e-05
5.38451e-05
5.69531e-05
6.83144e-05
9.16072e-05
0.00014488
0.000104997
9.35326e-05
9.60266e-05
0.000106975
0.000125537
0.000152308
0.000186766
0.000227623
0.000272871
0.000320236
0.000367316
0.000412411
0.000454904
0.000494297
0.000530411
0.00056289
0.000592252
0.000618703
0.000642056
0.000662394
0.000679791
0.000694308
0.00070599
0.000714873
0.000720803
0.000724168
0.00072482
0.000722724
0.000717901
0.000710356
0.000700088
0.000687088
0.000671337
0.000652803
0.000631441
0.000607187
0.000579956
0.000549648
0.000516151
0.000479371
0.000439286
0.000395933
0.000349713
0.000301461
0.000252297
0.000204882
0.000161608
0.000124684
9.55013e-05
7.43389e-05
6.05439e-05
5.32467e-05
5.15656e-05
5.57748e-05
6.77631e-05
9.09153e-05
0.000148901
0.000105921
9.23655e-05
9.27987e-05
0.000101396
0.000117023
0.000140335
0.000171252
0.000208324
0.000250105
0.000294446
0.000339272
0.00038245
0.000423217
0.000461067
0.000495749
0.000527234
0.000555063
0.000580232
0.00060252
0.000621888
0.000638417
0.000652171
0.000663201
0.000671532
0.000676925
0.000679995
0.000680442
0.000678273
0.000673498
0.000666117
0.000656128
0.000643515
0.000628256
0.000610315
0.000589637
0.000566149
0.00053976
0.000510361
0.000477846
0.00044212
0.000403179
0.0003612
0.00031671
0.000270394
0.000224323
0.000180666
0.000141686
0.000109208
8.41507e-05
6.64288e-05
5.53063e-05
4.99108e-05
4.9557e-05
5.46415e-05
6.69913e-05
8.95723e-05
0.000153001
0.000107047
9.14857e-05
9.00003e-05
9.64397e-05
0.00010944
0.000129645
0.000156864
0.000190378
0.000228776
0.000270154
0.000312552
0.000353961
0.000393042
0.000429436
0.000462809
0.000493065
0.000520235
0.000543941
0.000565122
0.000583638
0.000599381
0.000612444
0.000622893
0.000630563
0.000635626
0.000638428
0.000638707
0.000636477
0.000631745
0.000624512
0.00061477
0.000602502
0.000587679
0.000570257
0.000550175
0.000527351
0.000501683
0.000473053
0.000441459
0.000406663
0.000368804
0.000328162
0.000285399
0.000241437
0.000198513
0.000158676
0.000123912
9.56245e-05
7.43089e-05
5.96119e-05
5.0848e-05
4.70358e-05
4.77789e-05
5.35487e-05
6.60702e-05
8.78848e-05
0.000156511
0.000108207
9.08275e-05
8.75863e-05
9.20604e-05
0.000102658
0.000119898