/*--------------------------------*- C++ -*----------------------------------*\
| =========                 |                                                 |
| \\      /  F ield         | OpenFOAM: The Open Source CFD Toolbox           |
|  \\    /   O peration     | Version:  2212                                  |
|   \\  /    A nd           | Website:  www.openfoam.com                      |
|    \\/     M anipulation  |                                                 |
\*---------------------------------------------------------------------------*/
FoamFile
{
    version     2.0;
    format      ascii;
    arch        "LSB;label=32;scalar=64";
    class       volScalarField;
    location    "0.00063";
    object      T;
}
// * * * * * * * * * * * * * * * * * * * * * * * * * * * * * * * * * * * * * //

dimensions      [0 0 0 1 0 0 0];

internalField   nonuniform List<scalar> 
2681
(
85.392
85.2007
85.1971
85.4302
85.1867
85.1967
85.4359
85.4304
85.4289
85.4279
85.4311
85.4213
85.4224
85.4087
85.4192
85.4171
85.4131
85.4296
85.4288
85.4278
85.4264
85.4228
85.424
85.4252
85.4204
85.4216
85.43
85.4314
85.4307
85.4285
85.4293
85.4267
85.4276
85.4247
85.4257
85.4235
85.4235
85.4222
85.4208
85.4216
85.4205
85.4239
85.4228
85.4259
85.425
85.1998
85.4269
85.4298
85.4326
85.4315
85.4307
85.4195
85.4144
85.43
85.4309
85.4232
85.4221
85.4322
85.4322
85.4318
85.4325
85.4283
85.4293
85.426
85.4272
85.4234
85.4247
85.4206
85.422
85.4345
85.4193
85.42
85.4185
85.423
85.4215
85.4202
85.4345
85.4103
85.1911
85.4304
85.4318
85.4312
85.4289
85.4297
85.4272
85.4281
85.4253
85.4262
85.4242
85.4225
85.4215
85.4246
85.4235
85.4265
85.4256
85.4284
85.4275
85.4302
85.4293
85.431
85.4317
85.432
85.4211
85.4172
85.418
85.4182
85.4325
85.4321
85.4327
85.4164
85.4147
85.4157
85.4157
85.4217
85.42
85.4207
85.4315
85.4324
85.4322
85.4178
85.4101
85.4158
85.1787
85.42
85.419
85.4193
85.4331
85.1978
85.4328
85.3954
85.407
85.4299
85.4308
85.4279
85.4289
85.4255
85.4267
85.4227
85.4241
85.4197
85.4212
85.4181
85.419
85.4174
85.4222
85.4206
85.4126
85.4312
85.2454
85.4297
85.4306
85.4322
85.4334
85.4328
85.4308
85.4315
85.4293
85.4301
85.4277
85.4285
85.4259
85.4268
85.4239
85.4249
85.422
85.4229
85.4085
85.4209
85.4234
85.4225
85.4252
85.4243
85.4271
85.4262
85.4288
85.428
85.4305
85.4297
85.4313
85.4329
85.4334
85.4331
85.4327
85.4362
85.4328
85.4326
85.4143
85.4131
85.4115
85.4167
85.4189
85.4169
85.4337
85.4189
85.4198
85.4312
85.432
85.4143
85.4144
85.4337
85.434
85.0721
85.0788
85.0788
85.0721
85.434
85.4336
85.4342
85.4194
85.4117
85.4359
85.433
85.3769
85.1992
85.1914
85.4178
85.418
85.2029
85.4334
85.402
85.4313
85.4321
85.4296
85.4305
85.4274
85.4285
85.4249
85.4262
85.422
85.4235
85.4187
85.4204
85.4152
85.417
85.4134
85.4179
85.4161
85.4214
85.4197
85.4244
85.423
85.4271
85.4258
85.4294
85.4283
85.4303
85.0855
85.0922
85.0988
85.1055
85.1121
85.1188
85.1254
85.1321
85.1387
85.1455
85.1455
85.1523
85.1591
85.1592
85.1523
85.1321
85.1388
85.1188
85.1254
85.1055
85.1121
85.0922
85.0989
85.0855
85.4325
85.4331
85.4312
85.4318
85.4297
85.4305
85.4282
85.429
85.4264
85.4273
85.4246
85.4255
85.4228
85.4237
85.3809
85.4219
85.4201
85.4207
85.4188
85.4188
85.4198
85.4224
85.4216
85.4241
85.4233
85.4258
85.425
85.4276
85.4267
85.4293
85.4284
85.4309
85.4301
85.4323
85.4316
85.433
85.4335
85.4337
85.4331
85.4333
85.4327
85.4329
85.3873
85.3742
85.4155
85.4178
85.4178
85.4156
85.4342
85.41
85.0654
85.0654
85.4339
85.3465
85.1454
85.1521
85.4128
85.1812
85.4178
85.413
85.4334
85.4332
85.0654
85.0586
85.0586
85.4345
85.4347
85.4338
85.4344
85.1663
85.1662
85.4189
85.4178
85.41
85.4117
85.4187
85.4177
85.1973
85.4072
85.4029
85.437
85.4325
85.4333
85.4331
85.4166
85.4168
85.4347
85.4342
85.4345
85.4338
85.434
85.4335
85.4311
85.4319
85.4292
85.4302
85.427
85.4282
85.4243
85.4257
85.4213
85.4229
85.4178
85.4196
85.414
85.4159
85.412
85.4102
85.4054
85.4127
85.4106
85.4168
85.4148
85.4206
85.4188
85.4239
85.4223
85.4267
85.4253
85.4291
85.4279
85.431
85.4301
85.4318
85.0788
85.0721
85.0922
85.0855
85.1055
85.0988
85.1187
85.1121
85.132
85.1254
85.1387
85.0654
85.0586
85.0586
85.1738
85.1729
85.3726
85.1592
85.166
85.1456
85.1524
85.1321
85.1388
85.1188
85.1255
85.1055
85.1121
85.0922
85.0989
85.0788
85.0855
85.0721
85.4328
85.4333
85.4315
85.4321
85.4301
85.4308
85.4286
85.4294
85.427
85.4278
85.4253
85.4261
85.4236
85.4244
85.4219
85.4228
85.4205
85.4212
85.4183
85.4194
85.42
85.418
85.4191
85.4174
85.4185
85.4188
85.4202
85.4197
85.4215
85.4207
85.4232
85.4223
85.4248
85.424
85.4264
85.4256
85.4281
85.4273
85.4297
85.4289
85.4312
85.4305
85.4326
85.4319
85.4332
85.4341
85.4343
85.4337
85.4339
85.4335
85.2031
85.3908
85.159
85.4142
85.4167
85.4167
85.4143
85.4331
85.2129
85.4052
85.4172
85.0654
85.0586
85.4351
85.3792
85.4346
85.435
85.4353
85.4349
85.4323
85.4329
85.1734
85.4011
85.3989
85.2085
85.436
85.1452
85.1519
85.3989
85.397
85.3958
85.4167
85.4114
85.4116
85.4167
85.4031
85.0654
85.0586
85.3824
85.1987
85.1928
85.4003
85.4085
85.4171
85.4189
85.4177
85.4182
85.417
85.4168
85.4088
85.4001
85.1659
85.4369
85.4039
85.388
85.4154
85.4155
85.4347
85.4349
85.4343
85.4345
85.4339
85.4341
85.4336
85.4337
85.4334
85.4323
85.4329
85.4308
85.4316
85.4289
85.4299
85.4266
85.4278
85.4238
85.4252
85.4206
85.4222
85.4169
85.4188
85.4127
85.4149
85.4082
85.4105
85.4058
85.4063
85.4038
85.4112
85.4088
85.4158
85.4136
85.4199
85.4179
85.4233
85.4217
85.4263
85.4249
85.4287
85.4276
85.4307
85.4298
85.4315
85.0788
85.0721
85.0922
85.0855
85.1055
85.0988
85.1187
85.1121
85.1319
85.1253
85.1386
85.0519
85.0519
85.0519
85.4163
85.0518
85.0519
85.1823
85.1875
85.1714
85.177
85.1586
85.1651
85.1454
85.152
85.1321
85.1388
85.1188
85.1255
85.1055
85.1122
85.0922
85.0989
85.0788
85.0855
85.0721
85.4349
85.4355
85.4352
85.4341
85.4345
85.433
85.4336
85.4318
85.4324
85.4305
85.4311
85.429
85.4298
85.4275
85.4283
85.4259
85.4267
85.4243
85.4251
85.4228
85.4236
85.4215
85.4221
85.4204
85.421
85.4185
85.4196
85.42
85.4193
85.4192
85.418
85.4192
85.4191
85.4196
85.4193
85.4202
85.4198
85.4211
85.4206
85.4224
85.4217
85.4238
85.4231
85.4254
85.4246
85.4269
85.4262
85.4285
85.4277
85.4301
85.4293
85.4315
85.4308
85.4328
85.4322
85.434
85.4334
85.4351
85.4346
85.4353
85.4355
85.435
85.4351
85.4346
85.4348
85.4342
85.4344
85.4338
85.434
85.4335
85.4337
85.2071
85.1805
85.4236
85.3949
85.1586
85.3687
85.393
85.3835
85.3846
85.3879
85.4155
85.4128
85.4179
85.4182
85.413
85.4155
85.4009
85.4006
85.3958
85.4368
85.3869
85.3985
85.4044
85.0519
85.1993
85.1935
85.4358
85.436
85.4357
85.2041
85.3977
85.41
85.4158
85.4173
85.4167
85.4157
85.4102
85.4044
85.4341
85.4339
85.1729
85.3842
85.2739
85.2052
85.416
85.387
85.1946
85.1941
85.4016
85.1832
85.4069
85.4165
85.4157
85.4073
85.434
85.4333
85.4338
85.045
85.0518
85.045
85.1654
85.4357
85.4051
85.4002
85.3906
85.4263
85.4244
85.4142
85.418
85.4143
85.3988
85.4355
85.4357
85.4351
85.4353
85.4347
85.4349
85.4344
85.4345
85.4342
85.4333
85.4321
85.4327
85.4305
85.4314
85.4286
85.4296
85.4262
85.4274
85.4233
85.4248
85.4199
85.4217
85.416
85.418
85.4115
85.4138
85.4065
85.4091
85.4037
85.3867
85.4015
85.41
85.4072
85.4149
85.4125
85.4192
85.4172
85.4229
85.4211
85.4259
85.4244
85.4285
85.4272
85.4305
85.4295
85.4321
85.4313
85.4328
85.0654
85.0586
85.0788
85.0721
85.0922
85.0855
85.1054
85.0988
85.1187
85.1121
85.1319
85.1253
85.145
85.1384
85.1583
85.1516
85.045
85.0518
85.045
85.045
85.045
85.045
85.045
85.1822
85.1879
85.1705
85.1764
85.1581
85.1644
85.1452
85.1517
85.132
85.1386
85.1188
85.1254
85.1055
85.1122
85.0922
85.0989
85.0788
85.0855
85.0654
85.0721
85.0586
85.4351
85.4354
85.4342
85.4347
85.4332
85.4338
85.4321
85.4327
85.4308
85.4315
85.4294
85.4301
85.4279
85.4287
85.4264
85.4272
85.425
85.4257
85.4236
85.4242
85.4223
85.4229
85.4213
85.4218
85.4206
85.4209
85.4202
85.4203
85.4201
85.4201
85.4205
85.4203
85.4211
85.4207
85.422
85.4215
85.4231
85.4225
85.4245
85.4238
85.4259
85.4252
85.4274
85.4267
85.4289
85.4282
85.4304
85.4297
85.4318
85.4311
85.4331
85.4324
85.4342
85.4336
85.4352
85.4347
85.4354
85.4355
85.435
85.4352
85.4347
85.4348
85.4343
85.4345
85.4341
85.4357
85.2483
85.2143
85.4361
85.3901
85.3952
85.3901
85.4115
85.4145
85.4169
85.4165
85.4144
85.4117
85.4025
85.4256
85.4338
85.3985
85.3767
85.2017
85.3955
85.18
85.4359
85.3853
85.3935
85.0518
85.045
85.2111
85.1943
85.415
85.2076
85.3897
85.3994
85.1874
85.1892
85.4085
85.4151
85.4159
85.4151
85.4147
85.4088
85.4057
85.4361
85.4363
85.4332
85.4337
85.4344
85.4343
85.0518
85.045
85.0382
85.0381
85.3908
85.1723
85.436
85.4362
85.1649
85.4346
85.403
85.4367
85.3928
85.425
85.4131
85.4166
85.4131
85.4004
85.4358
85.436
85.4355
85.4356
85.4351
85.4353
85.4348
85.4349
85.4345
85.4346
85.4342
85.4343
85.4341
85.4331
85.4336
85.4319
85.4325
85.4303
85.4311
85.4283
85.4293
85.4258
85.4271
85.4228
85.4244
85.4193
85.4211
85.4151
85.4173
85.4104
85.4128
85.4049
85.4077
85.4018
85.3865
85.4025
85.399
85.4088
85.4058
85.4141
85.4116
85.4186
85.4165
85.4224
85.4206
85.4256
85.4241
85.4282
85.4269
85.4303
85.4293
85.4319
85.4312
85.4326
85.0653
85.0586
85.0788
85.0721
85.0921
85.0855
85.1054
85.0988
85.1186
85.112
85.1317
85.1252
85.1448
85.1383
85.1578
85.1513
85.0382
85.0382
85.0382
85.0382
85.0382
85.0382
85.1821
85.1884
85.1701
85.1761
85.1577
85.164
85.1449
85.1514
85.1319
85.1384
85.1187
85.1253
85.1055
85.1121
85.0922
85.0989
85.0788
85.0855
85.0654
85.0721
85.0586
85.1878
85.4352
85.4356
85.4344
85.4349
85.4335
85.434
85.4323
85.4329
85.4311
85.4317
85.4297
85.4304
85.4283
85.4291
85.4269
85.4276
85.4255
85.4262
85.4242
85.4248
85.423
85.4236
85.4221
85.4225
85.4214
85.4217
85.421
85.4212
85.421
85.4209
85.4213
85.4211
85.4218
85.4215
85.4227
85.4222
85.4237
85.4232
85.425
85.4244
85.4264
85.4257
85.4278
85.4271
85.4293
85.4285
85.4307
85.43
85.432
85.4314
85.4333
85.4327
85.4343
85.4338
85.4352
85.4348
85.4356
85.4357
85.4359
85.4354
85.4355
85.435
85.4352
85.4347
85.4349
85.4346
85.3794
85.3789
85.0381
85.2172
85.2143
85.2077
85.3802
85.3905
85.4142
85.2132
85.3925
85.3973
85.3927
85.1861
85.367
85.193
85.4103
85.4136
85.4154
85.4149
85.4133
85.4103
85.404
85.4263
85.4364
85.4345
85.4344
85.3965
85.2021
85.3883
85.3926
85.4341
85.0381
85.3859
85.3931
85.1795
85.4363
85.3759
85.1716
85.1643
85.4136
85.2107
85.3925
85.4012
85.3725
85.4074
85.4144
85.4073
85.0313
85.0312
85.2212
85.4046
85.366
85.4346
85.4135
85.2239
85.2186
85.395
85.4274
85.3704
85.2383
85.412
85.4151
85.4118
85.4022
85.4366
85.4363
85.4365
85.4361
85.4362
85.4358
85.4359
85.4354
85.4356
85.4351
85.4353
85.4348
85.435
85.4347
85.4339
85.4343
85.433
85.4335
85.4317
85.4324
85.4301
85.431
85.428
85.4291
85.4255
85.4268
85.4224
85.424
85.4187
85.4207
85.4144
85.4167
85.4093
85.412
85.4034
85.4065
85.4
85.3837
85.4009
85.3969
85.4078
85.4045
85.4135
85.4108
85.4182
85.4159
85.422
85.4202
85.4253
85.4238
85.4279
85.4267
85.4301
85.4291
85.4318
85.431
85.4331
85.4325
85.434
85.4336
85.0518
85.0381
85.045
85.0653
85.0586
85.0788
85.0721
85.0921
85.0854
85.1054
85.0988
85.1186
85.112
85.1316
85.1251
85.1446
85.1381
85.1575
85.1511
85.3803
85.0313
85.0313
85.0313
85.0313
85.0312
85.0313
85.0312
85.0312
85.182
85.1883
85.1698
85.1759
85.1575
85.1637
85.1448
85.1511
85.1318
85.1383
85.1187
85.1253
85.1055
85.1121
85.0922
85.0988
85.0788
85.0855
85.0654
85.0721
85.0518
85.0586
85.0381
85.045
85.436
85.4365
85.4363
85.3733
85.4364
85.4365
85.4366
85.4252
85.4354
85.4357
85.4346
85.435
85.4336
85.4341
85.4326
85.4331
85.4313
85.432
85.43
85.4307
85.4287
85.4294
85.4273
85.428
85.426
85.4266
85.4247
85.4253
85.4236
85.4242
85.4227
85.4231
85.4221
85.4224
85.4217
85.4219
85.4217
85.4216
85.4219
85.4218
85.4225
85.4222
85.4233
85.4228
85.4243
85.4237
85.4255
85.4249
85.4268
85.4261
85.4282
85.4275
85.4296
85.4289
85.4309
85.4302
85.4322
85.4316
85.4334
85.4328
85.4345
85.434
85.4353
85.4349
85.436
85.4357
85.4365
85.4363
85.4363
85.4364
85.436
85.4361
85.4357
85.4359
85.4354
85.4355
85.4351
85.4352
85.4348
85.4349
85.4345
85.4346
85.2035
85.205
85.2173
85.2108
85.1997
85.1947
85.3872
85.1708
85.1638
85.4127
85.2178
85.3951
85.3994
85.3953
85.3686
85.437
85.3613
85.3677
85.1783
85.4093
85.4128
85.4138
85.4131
85.4121
85.4089
85.4057
85.4023
85.4367
85.3735
85.4344
85.0312
85.0312
85.2617
85.2246
85.2288
85.1956
85.4032
85.4064
85.4347
85.4367
85.4111
85.3835
85.3929
85.3122
85.2987
85.2951
85.3085
85.2308
85.17
85.3979
85.4118
85.2245
85.3973
85.3978
85.365
85.3627
85.2044
85.2097
85.437
85.2193
85.1761
85.177
85.2147
85.4111
85.4134
85.4105
85.4041
85.4365
85.4366
85.4363
85.4364
85.436
85.4361
85.4357
85.4358
85.4354
85.4355
85.4351
85.4352
85.4348
85.4349
85.4347
85.4338
85.4342
85.4329
85.4334
85.4316
85.4323
85.4299
85.4308
85.4278
85.4289
85.4252
85.4266
85.4221
85.4237
85.4183
85.4203
85.4138
85.4161
85.4084
85.4112
85.4018
85.4053
85.3939
85.398
85.39
85.3905
85.3853
85.3797
85.3996
85.3953
85.4071
85.4036
85.413
85.4102
85.4178
85.4155
85.4218
85.4199
85.4251
85.4235
85.4278
85.4265
85.4299
85.4289
85.4317
85.4309
85.433
85.4324
85.4339
85.4335
85.4343
85.0312
85.0381
85.045
85.0518
85.0586
85.0653
85.072
85.0787
85.0854
85.0921
85.0987
85.1054
85.1119
85.1185
85.1251
85.1316
85.138
85.1445
85.1508
85.1572
85.1634
85.1696
85.1755
85.1812
85.1867
85.192
85.201
85.3818
85.2155
85.0243
85.0243
85.0243
85.0243
85.0243
85.0243
85.0243
85.0243
85.0243
85.0243
85.0243
85.0242
85.0242
85.3564
85.1871
85.1815
85.1756
85.1696
85.1635
85.1573
85.151
85.1446
85.1382
85.1317
85.1252
85.1186
85.1121
85.1054
85.0988
85.0922
85.0855
85.0788
85.0721
85.0653
85.0586
85.0518
85.045
85.0381
85.0312
85.0242
85.2274
85.2329
85.2056
85.4068
85.4026
85.3389
85.3424
85.3976
85.4016
85.4052
85.3469
85.4284
85.2817
85.4199
85.2522
85.3555
85.3632
85.2069
85.3626
85.2851
85.3171
85.1848
85.1926
85.1819
85.2228
85.2369
85.3208
85.28
85.2932
85.3064
85.3836
85.4083
85.4111
85.4121
85.411
85.4044
85.4075
85.2018
85.2073
85.2132
85.2199
85.2275
85.2362
85.4189
85.395
85.1935
85.4332
85.3653
85.3563
85.4346
85.4347
85.4348
85.4349
85.4351
85.4352
85.4353
85.4355
85.4356
85.4358
85.4359
85.4361
85.4362
85.4364
85.4365
85.4366
85.4367
85.4368
85.4369
85.4369
85.4368
85.4366
85.4364
85.4361
85.4358
85.4354
85.435
85.4346
85.4341
85.4336
85.433
85.4324
85.4318
85.4311
85.4305
85.4298
85.4291
85.4284
85.4278
85.4271
85.4265
85.4258
85.4253
85.4247
85.4242
85.4237
85.4233
85.423
85.4227
85.4224
85.4223
85.4222
85.4222
85.4223
85.4224
85.4226
85.4229
85.4232
85.4236
85.4241
85.4246
85.4251
85.4257
85.4263
85.427
85.4276
85.4283
85.429
85.4296
85.4303
85.4309
85.4316
85.4322
85.4327
85.4333
85.4338
85.4343
85.4348
85.4352
85.4355
85.4359
85.4361
85.0172
85.0172
85.0312
85.0242
85.4368
85.2359
85.3695
85.4364
85.4366
85.3809
85.3963
85.437
85.4369
85.4369
85.4368
85.4367
85.4365
85.4364
85.4363
85.4361
85.436
85.4358
85.4357
85.4355
85.4354
85.4353
85.4349
85.435
85.4351
85.4345
85.4342
85.4339
85.4334
85.4329
85.4323
85.4316
85.4308
85.4298
85.4288
85.4276
85.4263
85.4249
85.4233
85.4216
85.4197
85.4176
85.4152
85.4127
85.4098
85.4066
85.403
85.3989
85.3941
85.3887
85.3764
85.3828
85.3898
85.3651
85.3856
85.391
85.3961
85.4005
85.4043
85.4076
85.4106
85.4133
85.4157
85.418
85.42
85.4218
85.4235
85.425
85.4264
85.4277
85.4288
85.4298
85.4307
85.4315
85.4322
85.4328
85.4333
85.4341
85.4338
85.2226
85.4348
85.4349
85.435
85.4352
85.4353
85.4354
85.4356
85.4357
85.4359
85.436
85.4362
85.4363
85.4364
85.4366
85.4367
85.4368
85.4369
85.4368
85.4319
85.4368
85.4367
85.4364
85.4362
85.4359
85.4355
85.4351
85.4347
85.4342
85.4337
85.4331
85.4325
85.4319
85.4313
85.4306
85.43
85.4293
85.4287
85.428
85.4274
85.4267
85.4261
85.4255
85.425
85.4245
85.4241
85.4237
85.4233
85.4231
85.4228
85.4227
85.4226
85.4226
85.4227
85.4228
85.423
85.4233
85.4236
85.424
85.4244
85.4249
85.4255
85.426
85.4266
85.4272
85.4279
85.4285
85.4292
85.4298
85.4305
85.4311
85.4317
85.4323
85.4329
85.4334
85.434
85.4344
85.4349
85.4353
85.4356
85.436
85.4362
85.4365
85.4366
85.3956
85.3579
85.4369
85.437
85.2461
85.249
85.2383
85.2292
85.2215
85.2148
85.2089
85.2036
85.1987
85.1918
85.1865
85.1811
85.1753
85.1694
85.1633
85.1571
85.1509
85.1445
85.1381
85.1316
85.1251
85.1186
85.112
85.1054
85.0988
85.0921
85.0855
85.0788
85.0721
85.0653
85.0586
85.0518
85.0312
85.0381
85.045
85.406
85.4092
85.4115
85.4102
85.3524
85.3763
85.3185
85.279
85.2926
85.3059
85.3183
85.3293
85.2422
85.3736
85.1874
85.1831
85.0172
85.0172
85.0172
85.0172
85.0172
85.0172
85.0172
85.0172
85.0172
85.0172
85.0172
85.38
85.1874
85.3033
85.2884
85.3568
85.3917
85.4086
85.4316
85.2503
85.24
85.2306
85.3361
85.216
85.2106
85.1964
85.1915
85.1864
85.1809
85.1752
85.1693
85.1632
85.157
85.1507
85.1443
85.1379
85.1315
85.125
85.1185
85.1119
85.1053
85.0987
85.0921
85.0854
85.0787
85.072
85.0653
85.0585
85.0518
85.0449
85.0381
85.2082
85.2115
85.3572
85.3591
85.3503
85.2714
85.4002
85.3998
85.4294
85.421
85.4348
85.0172
85.0242
85.404
85.254
85.3489
85.2007
85.0172
85.0172
85.437
85.2306
85.268
85.3389
85.3981
85.4073
85.4098
85.3323
85.437
85.428
85.365
85.4291
85.2591
85.4024
85.345
85.3526
85.2053
85.0381
85.0242
85.0312
85.0517
85.0449
85.0653
85.0585
85.0787
85.072
85.0921
85.0854
85.1053
85.0987
85.1184
85.1119
85.1314
85.125
85.1443
85.1379
85.1569
85.1506
85.1691
85.1631
85.1808
85.1751
85.1914
85.1862
85.2012
85.1963
85.2111
85.206
85.2232
85.2166
85.241
85.2314
85.2638
85.2518
85.2915
85.2765
85.3211
85.3069
85.3345
85.0102
85.0102
85.0102
85.0102
85.0102
85.0102
85.0102
85.0102
85.0102
85.0102
85.0102
85.0102
85.0102
85.0102
85.0172
85.0102
85.0102
85.1888
85.3883
85.4347
85.3294
85.3419
85.4094
85.4079
85.0172
85.0312
85.0242
85.045
85.0381
85.0586
85.0518
85.0721
85.0653
85.0855
85.0788
85.0988
85.0921
85.112
85.1054
85.1251
85.1185
85.138
85.1316
85.1508
85.1444
85.1632
85.157
85.1752
85.1693
85.1864
85.1809
85.1968
85.1917
85.2049
85.3839
85.2156
85.2099
85.2302
85.2224
85.2505
85.2394
85.2779
85.2638
85.3064
85.2925
85.3199
85.4369
85.4369
85.4367
85.4368
85.4363
85.4365
85.4357
85.4361
85.435
85.4354
85.4341
85.4346
85.433
85.4336
85.4319
85.4324
85.4306
85.4312
85.4293
85.43
85.428
85.4287
85.4268
85.4274
85.4257
85.4262
85.4247
85.4251
85.4239
85.4242
85.4233
85.4235
85.4229
85.4231
85.4229
85.4229
85.4231
85.423
85.4236
85.4233
85.4243
85.4239
85.4252
85.4247
85.4263
85.4257
85.4275
85.4269
85.4288
85.4281
85.4301
85.4294
85.4314
85.4307
85.4326
85.432
85.4337
85.4332
85.4347
85.4342
85.4356
85.4352
85.4362
85.4359
85.4367
85.4365
85.4323
85.4369
85.3781
85.4369
85.437
85.4368
85.4369
85.4366
85.4367
85.4363
85.4364
85.436
85.4362
85.4357
85.4359
85.4354
85.4356
85.4352
85.4353
85.4349
85.435
85.3349
85.4348
85.3304
85.4337
85.4341
85.4328
85.4333
85.4315
85.4322
85.4298
85.4307
85.4276
85.4287
85.4249
85.4263
85.4217
85.4234
85.4178
85.4198
85.413
85.4155
85.4071
85.4102
85.3995
85.4036
85.3886
85.3946
85.373
85.3815
85.363
85.3809
85.3734
85.3935
85.3877
85.4026
85.3984
85.4095
85.4063
85.415
85.4124
85.4195
85.4174
85.4232
85.4215
85.4263
85.4248
85.4287
85.4276
85.4307
85.4298
85.4323
85.4316
85.4334
85.4329
85.4342
85.4338
85.4344
85.4287
85.4343
85.435
85.4349
85.4353
85.4351
85.4355
85.4354
85.4358
85.4357
85.4361
85.436
85.4364
85.4363
85.4367
85.4365
85.4369
85.4368
85.437
85.4369
85.2216
85.4371
85.3493
85.4371
85.0102
85.0102
85.4269
85.263
85.4371
85.4371
85.4371
85.4371
85.437
85.4369
85.4368
85.4367
85.4366
85.4365
85.4363
85.4362
85.436
85.4359
85.4357
85.4356
85.4354
85.4353
85.4352
85.4351
85.435
85.4348
85.4276
85.2293
85.4344
85.4341
85.4338
85.4334
85.4329
85.4323
85.4315
85.4307
85.4298
85.4287
85.4275
85.4262
85.4248
85.4232
85.4214
85.4195
85.4173
85.415
85.4123
85.4094
85.4061
85.4024
85.3982
85.3931
85.3872
85.3799
85.3709
85.3601
85.358
85.3701
85.3798
85.3875
85.3938
85.399
85.4033
85.4069
85.4101
85.4129
85.4154
85.4177
85.4197
85.4216
85.4233
85.4249
85.4263
85.4275
85.4287
85.4297
85.4307
85.4315
85.4322
85.4328
85.4333
85.4337
85.434
85.4343
85.2608
85.4348
85.4349
85.435
85.4351
85.4352
85.4354
85.4355
85.4356
85.4358
85.4359
85.4361
85.4362
85.4364
85.4365
85.4366
85.4367
85.4368
85.4369
85.437
85.437
85.3729
85.437
85.4369
85.4367
85.4365
85.4363
85.436
85.4356
85.4352
85.4348
85.4343
85.4338
85.4332
85.4326
85.432
85.4314
85.4308
85.4302
85.4295
85.4289
85.4282
85.4276
85.427
85.4264
85.4258
85.4253
85.4248
85.4244
85.424
85.4237
85.4234
85.4232
85.4231
85.423
85.423
85.4231
85.4232
85.4234
85.4237
85.424
85.4244
85.4248
85.4253
85.4258
85.4263
85.4269
85.4275
85.4281
85.4288
85.4294
85.43
85.4307
85.4313
85.4319
85.4325
85.4331
85.4336
85.4342
85.4346
85.4351
85.4355
85.4358
85.4361
85.4364
85.4366
85.4367
85.4368
85.4369
85.437
85.437
85.437
85.3377
85.3237
85.3086
85.2946
85.2793
85.2645
85.2511
85.2399
85.2306
85.2228
85.2161
85.2103
85.2052
85.2005
85.196
85.1913
85.1863
85.1808
85.1751
85.1692
85.1632
85.157
85.1507
85.1444
85.138
85.1315
85.125
85.1185
85.112
85.1054
85.0987
85.0921
85.0854
85.0788
85.072
85.0653
85.0585
85.0518
85.0449
85.0381
85.0312
85.0242
85.0172
85.0102
85.4066
85.4087
85.2447
85.3317
85.4344
85.2568
85.1938
85.0033
85.0033
85.0033
85.0033
85.0033
85.0033
85.0033
85.0033
85.0033
85.0033
85.0033
85.0033
85.0033
85.0033
85.0033
85.0033
85.0033
85.0033
85.0033
85.3723
85.3222
85.3079
85.294
85.279
85.2648
85.2524
85.2415
85.232
85.224
85.2171
85.2114
85.2062
85.2012
85.1963
85.1914
85.1862
85.1807
85.175
85.1691
85.163
85.1568
85.1506
85.1443
85.1379
85.1314
85.1249
85.1184
85.1119
85.1053
85.0987
85.092
85.0854
85.0787
85.072
85.0653
85.0585
85.0517
85.0449
85.0381
85.0312
85.0242
85.0172
85.0102
85.0033
85.341
85.3505
85.4089
85.4063
85.1965
85.3249
85.3451
85.2381
85.4347
85.4048
85.3847
85.3448
85.4368
85.4073
85.437
85.4345
85.3581
85.2011
85.437
85.4368
85.3333
85.4346
85.3905
85.3944
85.1973
85.4184
85.3761
85.3906
85.2035
85.4042
85.4369
85.4057
85.4058
85.409
85.1964
85.4346
85.4245
85.4185
85.1825
85.4355
85.3804
85.2009
85.1929
85.39
85.4345
85.1974
85.4303
85.4118
85.4348
85.3458
85.4347
85.323
85.4128
85.2211
85.2694
85.1957
85.3527
85.4366
85.2717
85.1912
85.3864
85.1991
85.3975
85.4178
85.4371
85.4193
85.4343
85.4061
85.4326
85.4272
85.421
)
;

boundaryField
{
    wall
    {
        type            zeroGradient;
    }
    outlet
    {
        type            fixedValue;
        value           uniform 85;
    }
    frontAndBackPlanes
    {
        type            empty;
    }
}


// ************************************************************************* //
