/*--------------------------------*- C++ -*----------------------------------*\
| =========                 |                                                 |
| \\      /  F ield         | OpenFOAM: The Open Source CFD Toolbox           |
|  \\    /   O peration     | Version:  2212                                  |
|   \\  /    A nd           | Website:  www.openfoam.com                      |
|    \\/     M anipulation  |                                                 |
\*---------------------------------------------------------------------------*/
FoamFile
{
    version     2.0;
    format      ascii;
    arch        "LSB;label=32;scalar=64";
    class       volScalarField;
    location    "0.00178";
    object      p;
}
// * * * * * * * * * * * * * * * * * * * * * * * * * * * * * * * * * * * * * //

dimensions      [1 -1 -2 0 0 0 0];

internalField   nonuniform List<scalar> 
2681
(
190.635
195.111
195.362
190.4
196.719
195.537
190.387
190.397
190.403
190.405
190.397
190.425
190.422
190.477
190.431
190.442
190.46
190.401
190.403
190.405
190.408
190.421
190.418
190.414
190.428
190.424
190.4
190.397
190.398
190.402
190.401
190.407
190.404
190.415
190.411
190.419
190.416
190.42
190.422
190.42
190.423
190.416
190.418
190.409
190.412
195.604
190.406
190.399
190.393
190.395
190.396
190.427
190.454
190.398
190.396
190.419
190.422
190.394
190.394
190.394
190.393
190.404
190.402
190.41
190.407
190.421
190.416
190.428
190.424
190.396
190.435
190.427
190.434
190.417
190.422
190.427
190.398
190.464
196.192
190.399
190.395
190.397
190.401
190.4
190.405
190.402
190.411
190.408
190.414
190.418
190.422
190.413
190.416
190.407
190.41
190.403
190.405
190.398
190.401
190.395
190.395
190.394
190.424
190.443
190.437
190.433
190.393
190.393
190.392
190.453
190.462
190.454
190.45
190.42
190.425
190.423
190.396
190.394
190.394
190.433
190.484
190.447
197.899
190.427
190.43
190.429
190.391
195.335
190.392
190.561
190.493
190.401
190.399
190.405
190.403
190.414
190.409
190.424
190.419
190.432
190.427
190.441
190.431
190.438
190.418
190.424
190.457
190.396
193.05
190.399
190.397
190.393
190.391
190.392
190.397
190.395
190.4
190.399
190.404
190.402
190.407
190.406
190.415
190.41
190.42
190.418
190.496
190.423
190.415
190.418
190.411
190.414
190.405
190.408
190.401
190.403
190.396
190.399
190.395
190.393
190.391
190.392
190.393
190.388
190.393
190.394
190.449
190.468
190.472
190.444
190.431
190.441
190.391
190.431
190.426
190.396
190.394
190.46
190.457
190.391
190.391
311.017
274.918
274.95
311.029
190.39
190.39
190.39
190.425
190.479
190.388
190.393
190.766
195.667
196.376
190.437
190.434
194.941
190.392
190.555
190.396
190.394
190.402
190.399
190.407
190.405
190.417
190.411
190.426
190.422
190.439
190.431
190.463
190.451
190.473
190.43
190.44
190.418
190.423
190.412
190.414
190.407
190.41
190.4
190.403
190.398
252.626
240.395
231.796
225.195
219.927
215.626
212.058
209.076
206.55
204.415
204.437
202.59
201.04
201.079
202.64
209.09
206.568
215.631
212.071
225.199
219.928
240.404
231.803
252.642
190.393
190.391
190.395
190.394
190.398
190.397
190.402
190.4
190.405
190.404
190.41
190.408
190.416
190.413
190.713
190.418
190.424
190.421
190.428
190.427
190.422
190.416
190.419
190.412
190.414
190.408
190.411
190.402
190.405
190.399
190.4
190.395
190.397
190.393
190.394
190.391
190.391
190.391
190.392
190.392
190.393
190.393
190.639
190.866
190.452
190.434
190.434
190.45
190.39
190.494
320.789
320.791
190.39
191.132
204.407
202.567
190.464
197.531
190.43
190.462
190.392
190.392
320.787
321.937
321.933
190.389
190.389
190.39
190.39
199.782
199.73
190.427
190.431
190.481
190.465
190.426
190.43
195.837
190.506
190.55
190.39
190.393
190.392
190.392
190.443
190.44
190.389
190.391
190.389
190.392
190.391
190.392
190.396
190.395
190.403
190.399
190.41
190.406
190.419
190.414
190.429
190.423
190.447
190.438
190.473
190.46
190.485
190.474
190.497
190.45
190.458
190.429
190.441
190.417
190.421
190.412
190.414
190.405
190.409
190.4
190.402
190.396
190.398
190.395
274.924
311.021
240.388
252.625
225.193
231.791
215.63
219.926
209.081
212.066
206.553
320.789
321.931
321.937
198.447
198.602
190.916
201.068
199.841
204.466
202.668
209.115
206.605
215.642
212.085
225.204
219.937
240.412
231.806
274.997
252.658
311.049
190.392
190.391
190.394
190.393
190.397
190.395
190.4
190.398
190.403
190.402
190.407
190.405
190.412
190.41
190.415
190.414
190.42
190.418
190.428
190.422
190.421
190.426
190.423
190.428
190.424
190.423
190.421
190.423
190.417
190.419
190.412
190.415
190.408
190.41
190.404
190.406
190.4
190.402
190.397
190.398
190.394
190.396
190.392
190.393
190.391
190.39
190.39
190.391
190.391
190.391
195.458
190.674
200.997
190.457
190.44
190.436
190.457
190.392
194.697
190.522
190.429
320.787
321.928
190.388
190.814
190.389
190.388
190.388
190.389
190.394
190.393
198.494
190.541
190.559
195.061
190.387
204.447
202.61
190.579
190.613
190.609
190.437
190.47
190.47
190.435
190.524
320.787
321.924
190.711
195.692
196.221
190.564
190.491
190.433
190.424
190.428
190.426
190.432
190.432
190.483
190.544
199.695
190.392
190.529
190.695
190.449
190.446
190.39
190.389
190.391
190.391
190.391
190.391
190.391
190.391
190.392
190.394
190.393
190.398
190.396
190.403
190.4
190.412
190.407
190.421
190.416
190.433
190.426
190.456
190.444
190.484
190.469
190.506
190.496
190.532
190.491
190.519
190.46
190.473
190.437
190.449
190.42
190.426
190.412
190.415
190.404
190.408
190.4
190.402
190.397
190.398
190.395
274.972
311.044
240.397
252.638
225.201
231.798
215.646
219.939
209.111
212.091
206.589
321.698
321.69
321.697
190.435
321.683
321.694
197.379
196.748
198.882
198.026
201.199
199.949
204.528
202.731
209.145
206.643
215.657
212.108
225.213
219.95
240.417
231.811
275.045
252.669
311.072
190.388
190.388
190.388
190.389
190.389
190.391
190.39
190.393
190.392
190.396
190.394
190.398
190.397
190.401
190.399
190.404
190.403
190.409
190.407
190.412
190.411
190.416
190.414
190.418
190.417
190.426
190.42
190.419
190.422
190.423
190.427
190.422
190.423
190.42
190.421
190.418
190.419
190.417
190.417
190.412
190.415
190.409
190.411
190.405
190.407
190.401
190.402
190.398
190.399
190.396
190.397
190.394
190.395
190.391
190.392
190.39
190.39
190.388
190.389
190.388
190.388
190.389
190.388
190.389
190.389
190.39
190.39
190.391
190.39
190.392
190.391
195.112
197.501
190.414
190.619
201.052
190.921
190.621
190.755
190.718
190.673
190.445
190.461
190.43
190.427
190.462
190.441
190.54
190.581
190.593
190.391
190.626
190.576
190.531
321.68
195.51
196.071
190.388
190.388
190.388
195.327
190.578
190.478
190.439
190.43
190.436
190.439
190.477
190.51
190.391
190.392
198.518
190.755
192.213
195.058
190.436
190.652
196.07
195.834
190.544
197.27
190.5
190.434
190.443
190.492
190.391
190.393
190.392
318.329
321.637
318.289
199.71
190.387
190.515
190.534
190.643
190.409
190.414
190.453
190.428
190.451
190.559
190.388
190.388
190.389
190.389
190.389
190.389
190.39
190.39
190.391
190.394
190.396
190.395
190.399
190.397
190.405
190.402
190.413
190.408
190.424
190.418
190.439
190.43
190.464
190.45
190.496
190.48
190.527
190.509
190.549
190.629
190.556
190.493
190.509
190.459
190.477
190.431
190.442
190.416
190.423
190.407
190.411
190.402
190.404
190.398
190.4
190.395
190.397
190.394
320.746
321.882
275.013
311.033
240.394
252.642
225.2
231.795
215.658
219.942
209.144
212.112
204.513
206.638
201.136
202.696
318.34
321.632
318.285
318.325
318.346
318.347
318.345
197.271
196.604
198.876
197.993
201.245
199.991
204.579
202.79
209.163
206.676
215.656
212.113
225.204
219.942
240.409
231.803
275.069
252.666
320.745
311.054
321.877
190.388
190.388
190.389
190.389
190.391
190.39
190.393
190.391
190.395
190.394
190.397
190.396
190.4
190.398
190.402
190.401
190.406
190.404
190.41
190.409
190.412
190.411
190.414
190.413
190.415
190.414
190.417
190.416
190.417
190.418
190.416
190.417
190.414
190.415
190.413
190.414
190.409
190.411
190.407
190.408
190.402
190.404
190.4
190.401
190.397
190.399
190.395
190.396
190.393
190.394
190.391
190.392
190.389
190.39
190.388
190.389
190.388
190.388
190.389
190.388
190.389
190.389
190.39
190.39
190.39
190.388
192.845
194.153
190.389
190.622
190.59
190.603
190.466
190.446
190.433
190.438
190.447
190.468
190.527
190.41
190.393
190.607
190.816
195.319
190.624
197.577
190.389
190.741
190.602
321.56
318.238
194.687
195.911
190.445
194.949
190.6
190.556
196.637
196.548
190.486
190.442
190.438
190.448
190.446
190.483
190.503
190.388
190.388
190.395
190.393
190.39
190.39
321.565
318.243
312.591
312.572
190.662
198.583
190.388
190.387
199.79
190.398
190.526
190.392
190.603
190.411
190.455
190.436
190.457
190.545
190.388
190.388
190.389
190.389
190.388
190.389
190.389
190.389
190.39
190.39
190.391
190.39
190.393
190.396
190.395
190.399
190.397
190.402
190.4
190.407
190.405
190.417
190.412
190.429
190.422
190.447
190.437
190.474
190.459
190.51
190.491
190.553
190.529
190.582
190.672
190.587
190.61
190.542
190.563
190.495
190.52
190.454
190.473
190.429
190.44
190.414
190.421
190.406
190.41
190.401
190.403
190.398
190.399
190.396
320.668
321.804
275.013
310.977
240.382
252.627
225.198
231.787
215.667
219.946
209.172
212.129
204.569
206.681
201.234
202.772
312.596
312.569
312.588
312.603
312.602
312.601
197.207
196.404
198.917
197.961
201.29
200.003
204.605
202.818
209.178
206.7
215.652
212.121
225.186
219.932
240.38
231.779
275.037
252.633
320.664
310.984
321.8
196.748
190.389
190.389
190.39
190.39
190.391
190.391
190.393
190.392
190.394
190.394
190.396
190.395
190.398
190.397
190.4
190.4
190.403
190.401
190.407
190.405
190.408
190.407
190.409
190.409
190.41
190.409
190.411
190.41
190.411
190.412
190.411
190.411
190.41
190.41
190.41
190.411
190.406
190.408
190.403
190.405
190.401
190.401
190.399
190.4
190.397
190.398
190.394
190.395
190.392
190.393
190.391
190.392
190.389
190.39
190.389
190.389
190.388
190.388
190.388
190.388
190.388
190.389
190.388
190.389
190.389
190.389
190.832
190.815
312.563
194.319
194.36
194.751
190.715
190.619
190.453
194.611
190.583
190.565
190.57
196.925
190.916
196.199
190.472
190.45
190.444
190.447
190.455
190.473
190.515
190.409
190.389
190.39
190.393
190.649
195.139
190.699
190.682
190.392
312.566
190.74
190.658
197.588
190.388
190.813
198.624
199.909
190.456
194.665
190.567
190.539
190.84
190.489
190.449
190.49
304.838
304.88
194.012
190.511
190.942
190.395
190.456
193.927
194.272
190.574
190.406
190.86
193.173
190.46
190.447
190.464
190.53
190.389
190.388
190.388
190.388
190.388
190.388
190.388
190.388
190.388
190.388
190.388
190.389
190.388
190.389
190.397
190.396
190.4
190.398
190.403
190.401
190.406
190.404
190.412
190.409
190.422
190.416
190.436
190.428
190.456
190.445
190.486
190.47
190.528
190.505
190.596
190.559
190.627
190.765
190.647
190.666
190.603
190.626
190.548
190.577
190.492
190.519
190.452
190.47
190.428
190.438
190.414
190.42
190.406
190.41
190.402
190.404
190.398
190.4
190.395
190.396
321.368
312.642
318.155
320.424
321.579
274.89
310.741
240.331
252.557
225.168
231.749
215.652
219.924
209.177
212.123
204.601
206.697
201.307
202.821
190.847
304.819
304.82
304.821
304.819
304.823
304.823
304.881
304.841
197.151
196.317
198.882
197.922
201.282
199.98
204.596
202.811
209.166
206.689
215.634
212.108
225.149
219.904
240.316
231.73
274.895
252.548
320.412
310.735
321.355
321.566
312.631
318.143
190.391
190.391
190.391
190.951
190.388
190.388
190.389
190.412
190.391
190.391
190.392
190.391
190.392
190.392
190.393
190.392
190.394
190.394
190.396
190.395
190.397
190.396
190.399
190.398
190.4
190.4
190.403
190.402
190.404
190.404
190.405
190.405
190.406
190.405
190.406
190.406
190.406
190.407
190.406
190.406
190.406
190.406
190.405
190.406
190.403
190.404
190.4
190.402
190.399
190.399
190.398
190.399
190.396
190.397
190.394
190.395
190.392
190.393
190.391
190.392
190.39
190.39
190.39
190.39
190.389
190.389
190.389
190.389
190.388
190.388
190.388
190.388
190.387
190.387
190.388
190.388
190.388
190.388
190.389
190.388
190.392
190.39
195.231
194.724
194.023
194.341
195.103
195.606
190.729
198.779
200.017
190.463
194.234
190.559
190.549
190.551
190.893
190.392
190.971
190.93
197.683
190.478
190.459
190.455
190.455
190.464
190.48
190.502
190.524
190.389
190.885
190.394
305.131
305.12
192.535
193.717
193.66
195.912
190.521
190.497
190.395
190.389
190.465
190.667
190.59
191.647
191.903
192.049
191.859
193.556
198.909
190.554
190.466
193.869
190.556
190.543
190.936
191.001
194.82
194.447
190.391
193.808
197.963
197.824
194.253
190.467
190.458
190.472
190.515
190.388
190.388
190.388
190.388
190.388
190.388
190.388
190.388
190.388
190.388
190.388
190.388
190.39
190.389
190.392
190.399
190.398
190.402
190.4
190.406
190.404
190.41
190.408
190.416
190.413
190.427
190.421
190.442
190.434
190.466
190.453
190.501
190.482
190.548
190.521
190.633
190.586
190.696
190.673
190.721
190.743
190.785
190.829
190.667
190.704
190.611
190.637
190.564
190.587
190.514
190.54
190.469
190.49
190.439
190.452
190.422
190.429
190.411
190.416
190.405
190.408
190.4
190.403
190.398
190.399
190.397
305.351
312.763
318.175
321.269
321.44
320.23
310.439
274.578
252.415
240.233
231.674
225.111
219.881
215.621
212.102
209.165
206.695
204.607
202.837
201.334
200.059
198.961
198.017
197.201
196.492
195.914
195.041
190.827
194.157
297.53
297.162
297.072
297.013
297
296.995
296.996
297.005
297.017
297.076
297.166
297.541
297.853
191.016
196.401
197.144
197.915
198.877
199.977
201.275
202.796
204.578
206.67
209.14
212.076
215.594
219.854
225.085
231.65
240.211
252.4
274.586
310.432
320.213
321.421
321.248
318.154
312.742
305.33
297.832
193.532
193.428
194.787
190.512
190.52
191.158
191.104
190.544
190.529
190.506
191.136
190.404
192.206
190.425
192.837
191.071
190.991
194.859
190.969
192.173
191.496
196.86
195.907
197.157
193.826
193.334
191.641
192.308
192.157
191.922
190.692
190.484
190.465
190.465
190.47
190.506
190.491
194.934
194.563
194.223
193.911
193.607
193.313
190.428
190.59
196.225
190.392
190.984
191.05
190.395
190.393
190.391
190.39
190.389
190.388
190.388
190.388
190.388
190.387
190.387
190.387
190.387
190.388
190.388
190.388
190.388
190.389
190.389
190.39
190.39
190.39
190.39
190.39
190.39
190.391
190.391
190.391
190.391
190.392
190.392
190.393
190.393
190.394
190.394
190.395
190.396
190.396
190.397
190.398
190.398
190.398
190.399
190.4
190.401
190.401
190.402
190.402
190.402
190.402
190.402
190.402
190.402
190.402
190.402
190.402
190.402
190.401
190.401
190.401
190.401
190.4
190.399
190.399
190.398
190.398
190.397
190.396
190.396
190.395
190.394
190.394
190.393
190.393
190.393
190.392
190.392
190.392
190.392
190.392
190.392
190.392
291.412
291.735
306.385
298.927
190.392
193.254
190.934
190.392
190.392
190.768
190.582
190.389
190.389
190.388
190.388
190.388
190.387
190.387
190.387
190.387
190.387
190.387
190.387
190.388
190.388
190.389
190.392
190.391
190.39
190.397
190.399
190.401
190.402
190.403
190.406
190.409
190.413
190.417
190.421
190.428
190.436
190.446
190.458
190.473
190.49
190.508
190.523
190.535
190.548
190.567
190.597
190.644
190.709
190.783
190.916
190.851
190.59
190.999
190.814
190.762
190.724
190.673
190.619
190.576
190.544
190.517
190.494
190.476
190.461
190.449
190.44
190.433
190.427
190.422
190.417
190.414
190.411
190.408
190.405
190.403
190.402
190.4
190.401
193.877
190.393
190.392
190.39
190.389
190.388
190.388
190.388
190.388
190.388
190.388
190.388
190.388
190.388
190.388
190.388
190.388
190.39
190.389
190.395
190.392
190.392
190.391
190.391
190.391
190.392
190.392
190.392
190.392
190.392
190.393
190.393
190.393
190.394
190.394
190.394
190.395
190.395
190.396
190.396
190.397
190.397
190.397
190.398
190.398
190.398
190.398
190.399
190.399
190.399
190.399
190.399
190.399
190.399
190.399
190.399
190.399
190.399
190.398
190.398
190.398
190.398
190.397
190.397
190.397
190.396
190.396
190.395
190.395
190.395
190.394
190.394
190.393
190.393
190.392
190.392
190.392
190.392
190.392
190.392
190.392
190.392
190.392
190.392
190.578
191.054
190.392
190.391
193.027
192.992
193.35
193.698
194.022
194.273
194.546
194.816
195.2
195.773
196.404
197.087
197.872
198.823
199.938
201.239
202.756
204.529
206.613
209.074
211.998
215.501
219.741
224.948
231.48
239.987
252.053
273.601
309.384
319.605
321.096
321.06
306.359
313.521
318.483
190.5
190.48
190.467
190.472
191.05
190.783
191.668
192.163
191.879
191.63
191.418
191.27
193.141
190.817
196.482
197.042
291.421
291.018
290.885
290.788
290.76
290.745
290.744
290.756
290.784
290.879
291.013
190.736
196.724
191.643
191.95
191.036
190.614
190.475
190.396
192.831
193.224
193.619
191.359
194.355
194.552
195.42
195.891
196.457
197.148
197.966
198.918
200.02
201.298
202.798
204.563
206.643
209.103
212.028
215.531
219.771
224.978
231.509
240.014
252.075
273.604
309.401
319.63
321.122
321.086
318.509
313.547
194.515
194.283
191.09
191.038
191.055
192.376
190.534
190.538
190.4
190.42
190.394
291.75
298.903
190.512
192.716
191.195
195.339
292.449
292.468
190.391
193.514
192.493
191.275
190.562
190.49
190.474
191.269
190.392
190.405
190.943
190.401
192.595
190.522
191.043
191.141
194.741
313.742
299.156
306.564
321.347
318.697
319.844
321.399
272.698
309.119
239.789
251.713
224.866
231.357
215.463
219.685
209.06
211.974
204.534
206.609
201.273
202.773
198.895
199.995
197.129
197.944
195.857
196.43
195.022
195.373
194.542
194.759
194.037
194.335
193.204
193.644
192.539
192.81
191.844
192.193
191.41
191.566
191.178
283.893
284.726
284.326
283.598
283.721
283.544
283.561
283.565
283.545
283.725
283.603
284.332
283.896
285.308
292.706
285.324
284.736
196.339
190.646
190.396
191.454
191.285
190.476
190.487
292.697
306.551
299.144
318.681
313.727
321.381
321.329
309.106
319.825
251.689
272.689
231.326
239.761
219.65
224.832
211.938
215.428
206.569
209.023
202.726
204.492
199.925
201.216
197.864
198.815
196.365
197.075
195.35
195.785
194.768
190.671
194.257
194.542
193.577
193.955
192.828
193.201
192.175
192.504
191.659
191.881
191.443
190.392
190.392
190.392
190.392
190.392
190.392
190.392
190.392
190.393
190.393
190.393
190.393
190.393
190.393
190.394
190.393
190.394
190.394
190.395
190.394
190.395
190.395
190.396
190.395
190.396
190.396
190.396
190.396
190.397
190.396
190.397
190.397
190.397
190.397
190.397
190.397
190.397
190.397
190.397
190.397
190.396
190.396
190.396
190.396
190.396
190.396
190.395
190.395
190.395
190.395
190.394
190.394
190.394
190.394
190.393
190.393
190.393
190.393
190.393
190.393
190.392
190.392
190.392
190.392
190.393
190.392
190.394
190.392
190.766
190.389
190.39
190.388
190.389
190.388
190.388
190.388
190.388
190.387
190.387
190.388
190.388
190.389
190.388
190.39
190.389
190.392
190.391
191.202
190.393
191.373
190.402
190.401
190.404
190.403
190.409
190.406
190.416
190.413
190.424
190.42
190.436
190.429
190.453
190.443
190.48
190.464
190.528
190.501
190.6
190.561
190.7
190.645
190.799
190.755
190.936
190.852
191.073
190.854
190.908
190.722
190.796
190.602
190.656
190.526
190.557
190.498
190.507
190.48
190.49
190.457
190.468
190.437
190.446
190.423
190.429
190.415
190.419
190.407
190.411
190.403
190.405
190.401
190.403
190.399
190.403
190.399
190.392
190.393
190.39
190.391
190.388
190.389
190.387
190.388
190.387
190.387
190.387
190.387
190.387
190.387
190.388
190.388
190.389
190.389
193.811
190.389
191.051
190.392
285.618
285.627
190.408
192.533
190.391
190.39
190.39
190.39
190.389
190.389
190.388
190.388
190.387
190.387
190.387
190.387
190.387
190.387
190.387
190.388
190.389
190.39
190.391
190.392
190.393
190.395
190.406
193.499
190.399
190.401
190.404
190.405
190.406
190.408
190.411
190.414
190.417
190.421
190.426
190.432
190.439
190.446
190.454
190.461
190.467
190.473
190.489
190.522
190.574
190.641
190.704
190.757
190.804
190.844
190.889
190.883
190.985
190.875
190.855
190.843
190.808
190.743
190.674
190.614
190.567
190.531
190.503
190.482
190.466
190.453
190.444
190.437
190.43
190.425
190.42
190.416
190.413
190.411
190.408
190.407
190.405
190.404
190.402
190.399
192.588
190.397
190.392
190.392
190.391
190.39
190.389
190.388
190.388
190.388
190.387
190.387
190.387
190.388
190.388
190.388
190.388
190.389
190.389
190.39
190.391
190.873
190.392
190.393
190.394
190.394
190.393
190.393
190.393
190.393
190.393
190.393
190.393
190.393
190.394
190.394
190.394
190.394
190.394
190.394
190.394
190.394
190.394
190.395
190.395
190.395
190.395
190.395
190.395
190.395
190.395
190.395
190.395
190.395
190.395
190.395
190.395
190.395
190.395
190.395
190.395
190.395
190.395
190.395
190.395
190.395
190.395
190.395
190.394
190.394
190.394
190.394
190.394
190.394
190.394
190.394
190.393
190.393
190.394
190.394
190.394
190.394
190.394
190.394
190.394
190.393
190.393
190.393
190.393
190.393
190.392
190.392
191.332
191.466
191.786
192.083
192.222
192.437
192.689
193.044
193.397
193.844
194.233
194.565
194.806
195.059
195.382
195.824
196.337
197.004
197.793
198.738
199.836
201.111
202.604
204.355
206.415
208.847
211.734
215.19
219.369
224.489
230.86
239.09
250.796
268.734
305.934
321.21
323.269
323.173
320.475
315.314
308.017
300.112
293.018
285.72
190.489
190.477
192.968
191.471
190.398
192.745
195.842
286.786
286.499
285.824
285.369
284.883
284.691
284.554
284.513
284.492
284.49
284.509
284.549
284.687
284.88
285.363
285.815
286.486
286.778
286.839
190.865
191.398
191.569
191.971
192.248
192.577
192.803
193.225
193.662
194.079
194.377
194.546
194.734
195.005
195.361
195.821
196.386
197.084
197.883
198.808
199.885
201.149
202.638
204.388
206.448
208.881
211.769
215.226
219.405
224.525
230.895
239.123
250.826
268.761
305.951
321.223
323.28
323.184
320.483
315.321
308.023
300.119
293.024
285.725
286.844
191.315
191.161
190.475
190.493
195.561
191.486
191.24
193.259
190.397
190.507
190.67
191.031
190.392
190.482
190.392
190.398
191.009
195.013
190.392
190.39
191.211
190.397
190.676
190.633
195.802
190.429
190.931
190.676
195.366
190.536
190.391
190.514
190.504
190.495
195.866
190.396
190.414
190.437
197.412
190.388
190.763
195.054
195.922
190.638
190.4
195.426
190.4
190.46
190.394
191.113
190.396
191.377
190.459
194.073
192.415
195.398
191.075
190.391
192.366
195.962
190.71
195.386
190.568
190.425
190.39
190.424
190.389
190.499
190.394
190.405
190.423
)
;

boundaryField
{
    wall
    {
        type            zeroGradient;
    }
    outlet
    {
        type            inletOutlet;
        inletValue      uniform 1e-05;
        value           nonuniform List<scalar> 
20
(
286.786
286.499
285.824
285.369
284.883
284.691
284.554
284.513
284.492
284.49
284.509
284.549
284.687
284.88
285.363
285.815
286.486
286.778
286.839
286.844
)
;
    }
    frontAndBackPlanes
    {
        type            empty;
    }
}


// ************************************************************************* //
