/*--------------------------------*- C++ -*----------------------------------*\
| =========                 |                                                 |
| \\      /  F ield         | OpenFOAM: The Open Source CFD Toolbox           |
|  \\    /   O peration     | Version:  2212                                  |
|   \\  /    A nd           | Website:  www.openfoam.com                      |
|    \\/     M anipulation  |                                                 |
\*---------------------------------------------------------------------------*/
FoamFile
{
    version     2.0;
    format      ascii;
    arch        "LSB;label=32;scalar=64";
    class       volScalarField;
    location    "0.055";
    object      pPrime2Mean;
}
// * * * * * * * * * * * * * * * * * * * * * * * * * * * * * * * * * * * * * //

dimensions      [0 4 -4 0 0 0 0];

internalField   nonuniform List<scalar> 
24240
(
1.30834e+06
1.30833e+06
1.30832e+06
1.30831e+06
1.30829e+06
1.30827e+06
1.30824e+06
1.30821e+06
1.30818e+06
1.30814e+06
1.30811e+06
1.30807e+06
1.30804e+06
1.308e+06
1.30797e+06
1.30794e+06
1.30791e+06
1.30788e+06
1.30786e+06
1.30785e+06
1.19357e+06
1.19357e+06
1.19357e+06
1.19356e+06
1.19356e+06
1.19355e+06
1.19355e+06
1.19354e+06
1.19353e+06
1.19352e+06
1.19352e+06
1.19351e+06
1.1935e+06
1.19349e+06
1.19348e+06
1.19347e+06
1.19347e+06
1.19346e+06
1.19346e+06
1.19346e+06
1.12465e+06
1.12465e+06
1.12465e+06
1.12465e+06
1.12465e+06
1.12465e+06
1.12466e+06
1.12466e+06
1.12466e+06
1.12466e+06
1.12466e+06
1.12466e+06
1.12467e+06
1.12467e+06
1.12467e+06
1.12467e+06
1.12467e+06
1.12467e+06
1.12467e+06
1.12468e+06
1.08319e+06
1.08319e+06
1.08319e+06
1.08319e+06
1.0832e+06
1.0832e+06
1.08321e+06
1.08322e+06
1.08322e+06
1.08323e+06
1.08324e+06
1.08325e+06
1.08325e+06
1.08326e+06
1.08327e+06
1.08327e+06
1.08328e+06
1.08329e+06
1.08329e+06
1.08329e+06
1.05538e+06
1.05538e+06
1.05538e+06
1.05538e+06
1.05539e+06
1.0554e+06
1.05541e+06
1.05541e+06
1.05543e+06
1.05544e+06
1.05545e+06
1.05546e+06
1.05547e+06
1.05548e+06
1.05549e+06
1.0555e+06
1.05551e+06
1.05552e+06
1.05552e+06
1.05552e+06
1.03641e+06
1.03641e+06
1.03641e+06
1.03642e+06
1.03642e+06
1.03643e+06
1.03644e+06
1.03645e+06
1.03646e+06
1.03648e+06
1.03649e+06
1.0365e+06
1.03652e+06
1.03653e+06
1.03654e+06
1.03655e+06
1.03656e+06
1.03657e+06
1.03658e+06
1.03658e+06
1.02398e+06
1.02398e+06
1.02399e+06
1.02399e+06
1.024e+06
1.02401e+06
1.02402e+06
1.02403e+06
1.02404e+06
1.02406e+06
1.02407e+06
1.02409e+06
1.0241e+06
1.02411e+06
1.02413e+06
1.02414e+06
1.02415e+06
1.02416e+06
1.02416e+06
1.02417e+06
1.01678e+06
1.01678e+06
1.01679e+06
1.01679e+06
1.0168e+06
1.01681e+06
1.01682e+06
1.01683e+06
1.01684e+06
1.01686e+06
1.01687e+06
1.01689e+06
1.0169e+06
1.01691e+06
1.01693e+06
1.01694e+06
1.01695e+06
1.01696e+06
1.01697e+06
1.01697e+06
1.01302e+06
1.01302e+06
1.01303e+06
1.01303e+06
1.01304e+06
1.01305e+06
1.01306e+06
1.01307e+06
1.01308e+06
1.01309e+06
1.01311e+06
1.01312e+06
1.01313e+06
1.01315e+06
1.01316e+06
1.01317e+06
1.01318e+06
1.01319e+06
1.01319e+06
1.0132e+06
1.0143e+06
1.0143e+06
1.0143e+06
1.0143e+06
1.01431e+06
1.01432e+06
1.01433e+06
1.01434e+06
1.01435e+06
1.01436e+06
1.01437e+06
1.01438e+06
1.0144e+06
1.01441e+06
1.01442e+06
1.01443e+06
1.01444e+06
1.01445e+06
1.01445e+06
1.01446e+06
1.01948e+06
1.01948e+06
1.01948e+06
1.01949e+06
1.01949e+06
1.0195e+06
1.01951e+06
1.01952e+06
1.01953e+06
1.01954e+06
1.01955e+06
1.01956e+06
1.01957e+06
1.01958e+06
1.01959e+06
1.0196e+06
1.01961e+06
1.01962e+06
1.01962e+06
1.01963e+06
1.02871e+06
1.02871e+06
1.02871e+06
1.02871e+06
1.02872e+06
1.02872e+06
1.02873e+06
1.02874e+06
1.02875e+06
1.02876e+06
1.02877e+06
1.02878e+06
1.02879e+06
1.0288e+06
1.02881e+06
1.02882e+06
1.02882e+06
1.02883e+06
1.02884e+06
1.02884e+06
1.04234e+06
1.04234e+06
1.04234e+06
1.04234e+06
1.04234e+06
1.04235e+06
1.04235e+06
1.04236e+06
1.04237e+06
1.04238e+06
1.04238e+06
1.04239e+06
1.0424e+06
1.04241e+06
1.04242e+06
1.04243e+06
1.04243e+06
1.04244e+06
1.04244e+06
1.04245e+06
1.06099e+06
1.06099e+06
1.06099e+06
1.06099e+06
1.061e+06
1.061e+06
1.061e+06
1.06101e+06
1.06101e+06
1.06102e+06
1.06102e+06
1.06103e+06
1.06104e+06
1.06104e+06
1.06105e+06
1.06106e+06
1.06106e+06
1.06107e+06
1.06107e+06
1.06107e+06
1.08577e+06
1.08577e+06
1.08577e+06
1.08577e+06
1.08577e+06
1.08577e+06
1.08578e+06
1.08578e+06
1.08578e+06
1.08578e+06
1.08579e+06
1.08579e+06
1.0858e+06
1.0858e+06
1.0858e+06
1.08581e+06
1.08581e+06
1.08582e+06
1.08582e+06
1.08582e+06
1.1185e+06
1.1185e+06
1.1185e+06
1.1185e+06
1.1185e+06
1.1185e+06
1.1185e+06
1.1185e+06
1.11849e+06
1.11849e+06
1.1185e+06
1.1185e+06
1.1185e+06
1.1185e+06
1.1185e+06
1.1185e+06
1.1185e+06
1.1185e+06
1.11851e+06
1.11851e+06
1.16267e+06
1.16267e+06
1.16266e+06
1.16266e+06
1.16266e+06
1.16265e+06
1.16265e+06
1.16265e+06
1.16264e+06
1.16264e+06
1.16263e+06
1.16263e+06
1.16262e+06
1.16262e+06
1.16262e+06
1.16261e+06
1.16261e+06
1.16261e+06
1.16261e+06
1.16261e+06
1.22545e+06
1.22544e+06
1.22544e+06
1.22544e+06
1.22543e+06
1.22542e+06
1.22541e+06
1.2254e+06
1.22539e+06
1.22538e+06
1.22536e+06
1.22535e+06
1.22534e+06
1.22533e+06
1.22532e+06
1.22531e+06
1.2253e+06
1.22529e+06
1.22529e+06
1.22529e+06
1.32784e+06
1.32784e+06
1.32783e+06
1.32782e+06
1.32781e+06
1.32779e+06
1.32777e+06
1.32775e+06
1.32773e+06
1.32771e+06
1.32768e+06
1.32766e+06
1.32763e+06
1.32761e+06
1.32759e+06
1.32756e+06
1.32755e+06
1.32753e+06
1.32752e+06
1.32752e+06
1.47509e+06
1.47509e+06
1.47507e+06
1.47506e+06
1.47503e+06
1.475e+06
1.47496e+06
1.47492e+06
1.47487e+06
1.47482e+06
1.47476e+06
1.4747e+06
1.47465e+06
1.47459e+06
1.47453e+06
1.47448e+06
1.47444e+06
1.4744e+06
1.47437e+06
1.47435e+06
1.10629e+07
1.10629e+07
1.10628e+07
1.10627e+07
1.10626e+07
1.10625e+07
1.10623e+07
1.10622e+07
1.1062e+07
1.10618e+07
1.10616e+07
1.10613e+07
1.10611e+07
1.10609e+07
1.10607e+07
1.10606e+07
1.10604e+07
1.10603e+07
1.10602e+07
1.10601e+07
1.05141e+07
1.05141e+07
1.0514e+07
1.0514e+07
1.0514e+07
1.05139e+07
1.05139e+07
1.05138e+07
1.05137e+07
1.05137e+07
1.05136e+07
1.05135e+07
1.05134e+07
1.05134e+07
1.05133e+07
1.05132e+07
1.05132e+07
1.05131e+07
1.05131e+07
1.05131e+07
1.00166e+07
1.00166e+07
1.00166e+07
1.00166e+07
1.00166e+07
1.00166e+07
1.00166e+07
1.00166e+07
1.00166e+07
1.00166e+07
1.00166e+07
1.00166e+07
1.00166e+07
1.00166e+07
1.00166e+07
1.00166e+07
1.00166e+07
1.00166e+07
1.00166e+07
1.00166e+07
9.68037e+06
9.68038e+06
9.68039e+06
9.68041e+06
9.68043e+06
9.68046e+06
9.6805e+06
9.68054e+06
9.68058e+06
9.68062e+06
9.68066e+06
9.68071e+06
9.68075e+06
9.68079e+06
9.68083e+06
9.68087e+06
9.6809e+06
9.68093e+06
9.68096e+06
9.68097e+06
9.44555e+06
9.44556e+06
9.44558e+06
9.44561e+06
9.44565e+06
9.4457e+06
9.44575e+06
9.44582e+06
9.44588e+06
9.44595e+06
9.44603e+06
9.4461e+06
9.44617e+06
9.44624e+06
9.44631e+06
9.44637e+06
9.44642e+06
9.44647e+06
9.44651e+06
9.44653e+06
9.28264e+06
9.28265e+06
9.28267e+06
9.28271e+06
9.28276e+06
9.28282e+06
9.28289e+06
9.28296e+06
9.28305e+06
9.28313e+06
9.28322e+06
9.28332e+06
9.28341e+06
9.28349e+06
9.28357e+06
9.28365e+06
9.28372e+06
9.28378e+06
9.28382e+06
9.28384e+06
9.17425e+06
9.17426e+06
9.17429e+06
9.17433e+06
9.17438e+06
9.17445e+06
9.17452e+06
9.17461e+06
9.1747e+06
9.1748e+06
9.17489e+06
9.175e+06
9.1751e+06
9.17519e+06
9.17528e+06
9.17537e+06
9.17544e+06
9.17551e+06
9.17555e+06
9.17558e+06
9.1122e+06
9.11221e+06
9.11224e+06
9.11228e+06
9.11233e+06
9.1124e+06
9.11247e+06
9.11256e+06
9.11265e+06
9.11275e+06
9.11285e+06
9.11295e+06
9.11305e+06
9.11315e+06
9.11324e+06
9.11333e+06
9.1134e+06
9.11346e+06
9.11351e+06
9.11354e+06
9.08499e+06
9.085e+06
9.08503e+06
9.08506e+06
9.08511e+06
9.08518e+06
9.08525e+06
9.08533e+06
9.08541e+06
9.08551e+06
9.0856e+06
9.0857e+06
9.0858e+06
9.08589e+06
9.08598e+06
9.08606e+06
9.08614e+06
9.0862e+06
9.08624e+06
9.08627e+06
9.09546e+06
9.09547e+06
9.09549e+06
9.09553e+06
9.09558e+06
9.09563e+06
9.0957e+06
9.09577e+06
9.09586e+06
9.09594e+06
9.09603e+06
9.09612e+06
9.09622e+06
9.0963e+06
9.09639e+06
9.09647e+06
9.09654e+06
9.09659e+06
9.09664e+06
9.09666e+06
9.14046e+06
9.14047e+06
9.14049e+06
9.14052e+06
9.14056e+06
9.14061e+06
9.14067e+06
9.14074e+06
9.14081e+06
9.14089e+06
9.14097e+06
9.14106e+06
9.14114e+06
9.14122e+06
9.1413e+06
9.14137e+06
9.14144e+06
9.14149e+06
9.14153e+06
9.14155e+06
9.22089e+06
9.2209e+06
9.22092e+06
9.22094e+06
9.22098e+06
9.22102e+06
9.22107e+06
9.22113e+06
9.2212e+06
9.22126e+06
9.22134e+06
9.22141e+06
9.22148e+06
9.22156e+06
9.22163e+06
9.22169e+06
9.22175e+06
9.2218e+06
9.22183e+06
9.22186e+06
9.33962e+06
9.33963e+06
9.33964e+06
9.33966e+06
9.33969e+06
9.33973e+06
9.33977e+06
9.33981e+06
9.33987e+06
9.33992e+06
9.33998e+06
9.34004e+06
9.3401e+06
9.34017e+06
9.34022e+06
9.34028e+06
9.34033e+06
9.34037e+06
9.3404e+06
9.34042e+06
9.50177e+06
9.50178e+06
9.50179e+06
9.5018e+06
9.50182e+06
9.50184e+06
9.50187e+06
9.5019e+06
9.50194e+06
9.50198e+06
9.50202e+06
9.50207e+06
9.50211e+06
9.50216e+06
9.5022e+06
9.50224e+06
9.50228e+06
9.50232e+06
9.50234e+06
9.50236e+06
9.71623e+06
9.71623e+06
9.71623e+06
9.71624e+06
9.71624e+06
9.71625e+06
9.71627e+06
9.71628e+06
9.7163e+06
9.71632e+06
9.71634e+06
9.71636e+06
9.71638e+06
9.71641e+06
9.71643e+06
9.71646e+06
9.71648e+06
9.7165e+06
9.71652e+06
9.71654e+06
9.99699e+06
9.99699e+06
9.99699e+06
9.99698e+06
9.99697e+06
9.99696e+06
9.99695e+06
9.99694e+06
9.99693e+06
9.99692e+06
9.99691e+06
9.9969e+06
9.9969e+06
9.9969e+06
9.9969e+06
9.9969e+06
9.9969e+06
9.99691e+06
9.99691e+06
9.99692e+06
1.03687e+07
1.03687e+07
1.03687e+07
1.03686e+07
1.03686e+07
1.03686e+07
1.03685e+07
1.03685e+07
1.03684e+07
1.03684e+07
1.03683e+07
1.03683e+07
1.03682e+07
1.03682e+07
1.03682e+07
1.03681e+07
1.03681e+07
1.03681e+07
1.03681e+07
1.03681e+07
1.08737e+07
1.08737e+07
1.08737e+07
1.08736e+07
1.08736e+07
1.08735e+07
1.08734e+07
1.08733e+07
1.08732e+07
1.08731e+07
1.0873e+07
1.08729e+07
1.08728e+07
1.08727e+07
1.08726e+07
1.08725e+07
1.08724e+07
1.08723e+07
1.08723e+07
1.08723e+07
1.1597e+07
1.1597e+07
1.15969e+07
1.15969e+07
1.15968e+07
1.15966e+07
1.15965e+07
1.15963e+07
1.15961e+07
1.15959e+07
1.15957e+07
1.15955e+07
1.15953e+07
1.15951e+07
1.15949e+07
1.15947e+07
1.15946e+07
1.15944e+07
1.15944e+07
1.15943e+07
1.23135e+07
1.23135e+07
1.23134e+07
1.23132e+07
1.23131e+07
1.23129e+07
1.23126e+07
1.23123e+07
1.2312e+07
1.23117e+07
1.23113e+07
1.23109e+07
1.23106e+07
1.23102e+07
1.23099e+07
1.23095e+07
1.23092e+07
1.2309e+07
1.23088e+07
1.23087e+07
2.95065e+07
2.95065e+07
2.95063e+07
2.95062e+07
2.95059e+07
2.95057e+07
2.95054e+07
2.9505e+07
2.95046e+07
2.95042e+07
2.95038e+07
2.95034e+07
2.9503e+07
2.95026e+07
2.95022e+07
2.95019e+07
2.95015e+07
2.95013e+07
2.9501e+07
2.95009e+07
2.84531e+07
2.84531e+07
2.8453e+07
2.8453e+07
2.84529e+07
2.84528e+07
2.84527e+07
2.84525e+07
2.84524e+07
2.84522e+07
2.8452e+07
2.84519e+07
2.84517e+07
2.84515e+07
2.84514e+07
2.84512e+07
2.84511e+07
2.8451e+07
2.84509e+07
2.84509e+07
2.73957e+07
2.73957e+07
2.73957e+07
2.73957e+07
2.73957e+07
2.73957e+07
2.73957e+07
2.73957e+07
2.73957e+07
2.73956e+07
2.73956e+07
2.73956e+07
2.73956e+07
2.73956e+07
2.73956e+07
2.73955e+07
2.73955e+07
2.73955e+07
2.73955e+07
2.73955e+07
2.66183e+07
2.66183e+07
2.66183e+07
2.66183e+07
2.66184e+07
2.66184e+07
2.66185e+07
2.66186e+07
2.66187e+07
2.66188e+07
2.66188e+07
2.66189e+07
2.6619e+07
2.66191e+07
2.66192e+07
2.66193e+07
2.66193e+07
2.66194e+07
2.66194e+07
2.66194e+07
2.60486e+07
2.60487e+07
2.60487e+07
2.60488e+07
2.60488e+07
2.6049e+07
2.60491e+07
2.60492e+07
2.60494e+07
2.60495e+07
2.60497e+07
2.60498e+07
2.605e+07
2.60501e+07
2.60503e+07
2.60504e+07
2.60505e+07
2.60506e+07
2.60507e+07
2.60507e+07
2.56429e+07
2.56429e+07
2.5643e+07
2.5643e+07
2.56432e+07
2.56433e+07
2.56434e+07
2.56436e+07
2.56438e+07
2.5644e+07
2.56442e+07
2.56444e+07
2.56446e+07
2.56448e+07
2.5645e+07
2.56451e+07
2.56453e+07
2.56454e+07
2.56455e+07
2.56455e+07
2.53657e+07
2.53658e+07
2.53658e+07
2.53659e+07
2.53661e+07
2.53662e+07
2.53664e+07
2.53666e+07
2.53668e+07
2.5367e+07
2.53672e+07
2.53675e+07
2.53677e+07
2.53679e+07
2.53681e+07
2.53683e+07
2.53685e+07
2.53686e+07
2.53687e+07
2.53688e+07
2.52082e+07
2.52083e+07
2.52083e+07
2.52084e+07
2.52085e+07
2.52087e+07
2.52089e+07
2.52091e+07
2.52093e+07
2.52095e+07
2.52097e+07
2.521e+07
2.52102e+07
2.52104e+07
2.52106e+07
2.52108e+07
2.5211e+07
2.52111e+07
2.52112e+07
2.52113e+07
2.51421e+07
2.51422e+07
2.51422e+07
2.51423e+07
2.51424e+07
2.51426e+07
2.51427e+07
2.51429e+07
2.51431e+07
2.51434e+07
2.51436e+07
2.51438e+07
2.5144e+07
2.51442e+07
2.51444e+07
2.51446e+07
2.51448e+07
2.51449e+07
2.5145e+07
2.51451e+07
2.51706e+07
2.51706e+07
2.51707e+07
2.51708e+07
2.51709e+07
2.5171e+07
2.51712e+07
2.51713e+07
2.51715e+07
2.51717e+07
2.51719e+07
2.51721e+07
2.51724e+07
2.51726e+07
2.51728e+07
2.51729e+07
2.51731e+07
2.51732e+07
2.51733e+07
2.51734e+07
2.52896e+07
2.52896e+07
2.52897e+07
2.52897e+07
2.52898e+07
2.529e+07
2.52901e+07
2.52903e+07
2.52904e+07
2.52906e+07
2.52908e+07
2.5291e+07
2.52912e+07
2.52914e+07
2.52916e+07
2.52917e+07
2.52919e+07
2.5292e+07
2.52921e+07
2.52921e+07
2.55012e+07
2.55013e+07
2.55013e+07
2.55014e+07
2.55015e+07
2.55016e+07
2.55017e+07
2.55018e+07
2.5502e+07
2.55021e+07
2.55023e+07
2.55025e+07
2.55026e+07
2.55028e+07
2.5503e+07
2.55031e+07
2.55032e+07
2.55033e+07
2.55034e+07
2.55035e+07
2.5812e+07
2.5812e+07
2.5812e+07
2.58121e+07
2.58122e+07
2.58122e+07
2.58123e+07
2.58124e+07
2.58126e+07
2.58127e+07
2.58128e+07
2.5813e+07
2.58131e+07
2.58132e+07
2.58134e+07
2.58135e+07
2.58136e+07
2.58137e+07
2.58138e+07
2.58138e+07
2.62331e+07
2.62331e+07
2.62331e+07
2.62331e+07
2.62332e+07
2.62332e+07
2.62333e+07
2.62334e+07
2.62335e+07
2.62335e+07
2.62336e+07
2.62337e+07
2.62338e+07
2.62339e+07
2.6234e+07
2.62341e+07
2.62342e+07
2.62343e+07
2.62343e+07
2.62344e+07
2.67834e+07
2.67834e+07
2.67834e+07
2.67834e+07
2.67834e+07
2.67835e+07
2.67835e+07
2.67835e+07
2.67835e+07
2.67836e+07
2.67836e+07
2.67837e+07
2.67837e+07
2.67837e+07
2.67838e+07
2.67838e+07
2.67839e+07
2.67839e+07
2.6784e+07
2.6784e+07
2.74903e+07
2.74903e+07
2.74903e+07
2.74903e+07
2.74903e+07
2.74902e+07
2.74902e+07
2.74902e+07
2.74901e+07
2.74901e+07
2.74901e+07
2.749e+07
2.749e+07
2.749e+07
2.749e+07
2.749e+07
2.749e+07
2.749e+07
2.749e+07
2.749e+07
2.83979e+07
2.83979e+07
2.83979e+07
2.83978e+07
2.83977e+07
2.83977e+07
2.83975e+07
2.83974e+07
2.83973e+07
2.83972e+07
2.8397e+07
2.83969e+07
2.83968e+07
2.83967e+07
2.83966e+07
2.83965e+07
2.83964e+07
2.83963e+07
2.83963e+07
2.83963e+07
2.9569e+07
2.95689e+07
2.95689e+07
2.95688e+07
2.95686e+07
2.95684e+07
2.95682e+07
2.9568e+07
2.95677e+07
2.95675e+07
2.95672e+07
2.95669e+07
2.95666e+07
2.95664e+07
2.95661e+07
2.95659e+07
2.95657e+07
2.95656e+07
2.95655e+07
2.95654e+07
3.11029e+07
3.11028e+07
3.11027e+07
3.11025e+07
3.11023e+07
3.1102e+07
3.11016e+07
3.11012e+07
3.11008e+07
3.11003e+07
3.10999e+07
3.10994e+07
3.10989e+07
3.10984e+07
3.1098e+07
3.10976e+07
3.10972e+07
3.10969e+07
3.10967e+07
3.10966e+07
3.25154e+07
3.25153e+07
3.25152e+07
3.25149e+07
3.25145e+07
3.2514e+07
3.25135e+07
3.25128e+07
3.25121e+07
3.25114e+07
3.25107e+07
3.25099e+07
3.25091e+07
3.25083e+07
3.25076e+07
3.25069e+07
3.25063e+07
3.25057e+07
3.25053e+07
3.25051e+07
5.60294e+07
5.60293e+07
5.60292e+07
5.60289e+07
5.60286e+07
5.60281e+07
5.60277e+07
5.60272e+07
5.60266e+07
5.6026e+07
5.60254e+07
5.60248e+07
5.60242e+07
5.60236e+07
5.6023e+07
5.60225e+07
5.60221e+07
5.60217e+07
5.60213e+07
5.60212e+07
5.44652e+07
5.44652e+07
5.44651e+07
5.4465e+07
5.44649e+07
5.44647e+07
5.44645e+07
5.44643e+07
5.4464e+07
5.44638e+07
5.44635e+07
5.44633e+07
5.4463e+07
5.44627e+07
5.44625e+07
5.44623e+07
5.44621e+07
5.44619e+07
5.44618e+07
5.44617e+07
5.28246e+07
5.28246e+07
5.28246e+07
5.28245e+07
5.28245e+07
5.28245e+07
5.28245e+07
5.28245e+07
5.28244e+07
5.28244e+07
5.28244e+07
5.28243e+07
5.28243e+07
5.28242e+07
5.28242e+07
5.28242e+07
5.28241e+07
5.28241e+07
5.28241e+07
5.28241e+07
5.15581e+07
5.15581e+07
5.15581e+07
5.15582e+07
5.15583e+07
5.15584e+07
5.15585e+07
5.15586e+07
5.15587e+07
5.15588e+07
5.1559e+07
5.15591e+07
5.15592e+07
5.15593e+07
5.15594e+07
5.15595e+07
5.15596e+07
5.15597e+07
5.15598e+07
5.15598e+07
5.05973e+07
5.05974e+07
5.05974e+07
5.05975e+07
5.05977e+07
5.05979e+07
5.0598e+07
5.05983e+07
5.05985e+07
5.05987e+07
5.0599e+07
5.05992e+07
5.05995e+07
5.05997e+07
5.05999e+07
5.06001e+07
5.06003e+07
5.06004e+07
5.06006e+07
5.06006e+07
4.98951e+07
4.98951e+07
4.98952e+07
4.98954e+07
4.98955e+07
4.98958e+07
4.9896e+07
4.98963e+07
4.98966e+07
4.98969e+07
4.98972e+07
4.98975e+07
4.98979e+07
4.98982e+07
4.98985e+07
4.98987e+07
4.9899e+07
4.98992e+07
4.98993e+07
4.98994e+07
4.94173e+07
4.94173e+07
4.94174e+07
4.94176e+07
4.94178e+07
4.9418e+07
4.94183e+07
4.94186e+07
4.94189e+07
4.94193e+07
4.94197e+07
4.942e+07
4.94204e+07
4.94207e+07
4.9421e+07
4.94213e+07
4.94216e+07
4.94218e+07
4.9422e+07
4.94221e+07
4.91396e+07
4.91397e+07
4.91398e+07
4.914e+07
4.91402e+07
4.91404e+07
4.91407e+07
4.9141e+07
4.91413e+07
4.91417e+07
4.91421e+07
4.91425e+07
4.91428e+07
4.91432e+07
4.91435e+07
4.91438e+07
4.91441e+07
4.91443e+07
4.91445e+07
4.91446e+07
4.9028e+07
4.9028e+07
4.90281e+07
4.90283e+07
4.90285e+07
4.90287e+07
4.9029e+07
4.90293e+07
4.90296e+07
4.903e+07
4.90303e+07
4.90307e+07
4.90311e+07
4.90314e+07
4.90317e+07
4.9032e+07
4.90323e+07
4.90325e+07
4.90327e+07
4.90328e+07
4.90843e+07
4.90844e+07
4.90845e+07
4.90846e+07
4.90848e+07
4.9085e+07
4.90853e+07
4.90855e+07
4.90859e+07
4.90862e+07
4.90865e+07
4.90869e+07
4.90872e+07
4.90875e+07
4.90879e+07
4.90881e+07
4.90884e+07
4.90886e+07
4.90887e+07
4.90888e+07
4.93052e+07
4.93052e+07
4.93053e+07
4.93054e+07
4.93056e+07
4.93058e+07
4.9306e+07
4.93063e+07
4.93066e+07
4.93069e+07
4.93072e+07
4.93075e+07
4.93078e+07
4.93081e+07
4.93084e+07
4.93087e+07
4.93089e+07
4.93091e+07
4.93092e+07
4.93093e+07
4.96938e+07
4.96939e+07
4.96939e+07
4.96941e+07
4.96942e+07
4.96944e+07
4.96946e+07
4.96948e+07
4.9695e+07
4.96953e+07
4.96956e+07
4.96959e+07
4.96961e+07
4.96964e+07
4.96966e+07
4.96969e+07
4.96971e+07
4.96972e+07
4.96974e+07
4.96974e+07
5.02601e+07
5.02601e+07
5.02601e+07
5.02602e+07
5.02603e+07
5.02605e+07
5.02606e+07
5.02608e+07
5.0261e+07
5.02612e+07
5.02614e+07
5.02617e+07
5.02619e+07
5.02621e+07
5.02623e+07
5.02625e+07
5.02626e+07
5.02628e+07
5.02629e+07
5.02629e+07
5.10201e+07
5.10201e+07
5.10202e+07
5.10202e+07
5.10203e+07
5.10204e+07
5.10205e+07
5.10206e+07
5.10208e+07
5.10209e+07
5.1021e+07
5.10212e+07
5.10213e+07
5.10215e+07
5.10216e+07
5.10218e+07
5.10219e+07
5.1022e+07
5.10221e+07
5.10221e+07
5.20008e+07
5.20008e+07
5.20008e+07
5.20008e+07
5.20009e+07
5.20009e+07
5.20009e+07
5.2001e+07
5.2001e+07
5.20011e+07
5.20011e+07
5.20012e+07
5.20012e+07
5.20013e+07
5.20014e+07
5.20014e+07
5.20015e+07
5.20015e+07
5.20016e+07
5.20016e+07
5.32375e+07
5.32375e+07
5.32375e+07
5.32375e+07
5.32374e+07
5.32374e+07
5.32373e+07
5.32372e+07
5.32372e+07
5.32371e+07
5.3237e+07
5.3237e+07
5.32369e+07
5.32369e+07
5.32368e+07
5.32368e+07
5.32367e+07
5.32367e+07
5.32367e+07
5.32367e+07
5.47841e+07
5.4784e+07
5.4784e+07
5.47839e+07
5.47837e+07
5.47836e+07
5.47834e+07
5.47832e+07
5.4783e+07
5.47827e+07
5.47825e+07
5.47823e+07
5.47821e+07
5.47818e+07
5.47816e+07
5.47815e+07
5.47813e+07
5.47812e+07
5.47811e+07
5.47811e+07
5.67059e+07
5.67058e+07
5.67057e+07
5.67055e+07
5.67053e+07
5.6705e+07
5.67046e+07
5.67042e+07
5.67038e+07
5.67034e+07
5.67029e+07
5.67024e+07
5.6702e+07
5.67016e+07
5.67011e+07
5.67008e+07
5.67005e+07
5.67002e+07
5.67e+07
5.66999e+07
5.90958e+07
5.90957e+07
5.90955e+07
5.90952e+07
5.90948e+07
5.90943e+07
5.90937e+07
5.9093e+07
5.90923e+07
5.90916e+07
5.90908e+07
5.90901e+07
5.90893e+07
5.90885e+07
5.90878e+07
5.90872e+07
5.90866e+07
5.90861e+07
5.90858e+07
5.90856e+07
6.12356e+07
6.12355e+07
6.12352e+07
6.12347e+07
6.12341e+07
6.12333e+07
6.12324e+07
6.12314e+07
6.12304e+07
6.12292e+07
6.1228e+07
6.12268e+07
6.12256e+07
6.12245e+07
6.12233e+07
6.12223e+07
6.12213e+07
6.12205e+07
6.12199e+07
6.12196e+07
9.02014e+07
9.02013e+07
9.02011e+07
9.02007e+07
9.02003e+07
9.01998e+07
9.01992e+07
9.01985e+07
9.01978e+07
9.0197e+07
9.01962e+07
9.01955e+07
9.01947e+07
9.0194e+07
9.01933e+07
9.01927e+07
9.01921e+07
9.01916e+07
9.01912e+07
9.01909e+07
8.81378e+07
8.81377e+07
8.81376e+07
8.81375e+07
8.81373e+07
8.8137e+07
8.81368e+07
8.81365e+07
8.81362e+07
8.81358e+07
8.81355e+07
8.81351e+07
8.81348e+07
8.81345e+07
8.81342e+07
8.81339e+07
8.81336e+07
8.81334e+07
8.81332e+07
8.81332e+07
8.59224e+07
8.59224e+07
8.59224e+07
8.59224e+07
8.59224e+07
8.59223e+07
8.59223e+07
8.59222e+07
8.59222e+07
8.59221e+07
8.59221e+07
8.5922e+07
8.5922e+07
8.59219e+07
8.59219e+07
8.59218e+07
8.59218e+07
8.59218e+07
8.59217e+07
8.59217e+07
8.41629e+07
8.41629e+07
8.4163e+07
8.4163e+07
8.41631e+07
8.41633e+07
8.41634e+07
8.41635e+07
8.41637e+07
8.41639e+07
8.4164e+07
8.41642e+07
8.41643e+07
8.41645e+07
8.41646e+07
8.41648e+07
8.41649e+07
8.4165e+07
8.41651e+07
8.41651e+07
8.2794e+07
8.2794e+07
8.27941e+07
8.27943e+07
8.27944e+07
8.27947e+07
8.2795e+07
8.27953e+07
8.27956e+07
8.27959e+07
8.27962e+07
8.27966e+07
8.27969e+07
8.27972e+07
8.27975e+07
8.27978e+07
8.2798e+07
8.27982e+07
8.27984e+07
8.27985e+07
8.17841e+07
8.17841e+07
8.17842e+07
8.17844e+07
8.17847e+07
8.1785e+07
8.17853e+07
8.17857e+07
8.17861e+07
8.17865e+07
8.1787e+07
8.17874e+07
8.17878e+07
8.17882e+07
8.17886e+07
8.1789e+07
8.17893e+07
8.17895e+07
8.17897e+07
8.17898e+07
8.10902e+07
8.10903e+07
8.10904e+07
8.10907e+07
8.10909e+07
8.10913e+07
8.10916e+07
8.10921e+07
8.10925e+07
8.1093e+07
8.10935e+07
8.10939e+07
8.10944e+07
8.10949e+07
8.10953e+07
8.10957e+07
8.1096e+07
8.10963e+07
8.10965e+07
8.10966e+07
8.0687e+07
8.0687e+07
8.06872e+07
8.06874e+07
8.06877e+07
8.0688e+07
8.06884e+07
8.06888e+07
8.06893e+07
8.06898e+07
8.06903e+07
8.06908e+07
8.06913e+07
8.06918e+07
8.06922e+07
8.06926e+07
8.06929e+07
8.06932e+07
8.06934e+07
8.06935e+07
8.05324e+07
8.05325e+07
8.05327e+07
8.05329e+07
8.05331e+07
8.05335e+07
8.05338e+07
8.05343e+07
8.05347e+07
8.05352e+07
8.05357e+07
8.05362e+07
8.05367e+07
8.05371e+07
8.05376e+07
8.0538e+07
8.05383e+07
8.05386e+07
8.05388e+07
8.05389e+07
8.06281e+07
8.06282e+07
8.06283e+07
8.06285e+07
8.06288e+07
8.06291e+07
8.06294e+07
8.06298e+07
8.06303e+07
8.06307e+07
8.06312e+07
8.06316e+07
8.06321e+07
8.06325e+07
8.06329e+07
8.06333e+07
8.06336e+07
8.06339e+07
8.06341e+07
8.06342e+07
8.09729e+07
8.0973e+07
8.09731e+07
8.09733e+07
8.09735e+07
8.09738e+07
8.09741e+07
8.09745e+07
8.09749e+07
8.09753e+07
8.09757e+07
8.09761e+07
8.09765e+07
8.09769e+07
8.09773e+07
8.09777e+07
8.0978e+07
8.09782e+07
8.09783e+07
8.09784e+07
8.15711e+07
8.15711e+07
8.15712e+07
8.15714e+07
8.15716e+07
8.15718e+07
8.15721e+07
8.15724e+07
8.15728e+07
8.15731e+07
8.15735e+07
8.15739e+07
8.15742e+07
8.15746e+07
8.15749e+07
8.15752e+07
8.15754e+07
8.15756e+07
8.15758e+07
8.15758e+07
8.24347e+07
8.24348e+07
8.24348e+07
8.2435e+07
8.24351e+07
8.24353e+07
8.24355e+07
8.24358e+07
8.24361e+07
8.24363e+07
8.24366e+07
8.24369e+07
8.24372e+07
8.24375e+07
8.24378e+07
8.2438e+07
8.24382e+07
8.24384e+07
8.24385e+07
8.24385e+07
8.35831e+07
8.35831e+07
8.35832e+07
8.35833e+07
8.35834e+07
8.35835e+07
8.35837e+07
8.35838e+07
8.3584e+07
8.35842e+07
8.35844e+07
8.35846e+07
8.35848e+07
8.3585e+07
8.35851e+07
8.35853e+07
8.35854e+07
8.35855e+07
8.35856e+07
8.35856e+07
8.50473e+07
8.50473e+07
8.50473e+07
8.50473e+07
8.50474e+07
8.50474e+07
8.50474e+07
8.50475e+07
8.50476e+07
8.50476e+07
8.50477e+07
8.50478e+07
8.50478e+07
8.50479e+07
8.50479e+07
8.5048e+07
8.50481e+07
8.50481e+07
8.50481e+07
8.50481e+07
8.68651e+07
8.68651e+07
8.68651e+07
8.6865e+07
8.6865e+07
8.68649e+07
8.68648e+07
8.68647e+07
8.68646e+07
8.68645e+07
8.68644e+07
8.68643e+07
8.68642e+07
8.68641e+07
8.6864e+07
8.68639e+07
8.68639e+07
8.68638e+07
8.68638e+07
8.68637e+07
8.90924e+07
8.90924e+07
8.90923e+07
8.90922e+07
8.9092e+07
8.90918e+07
8.90915e+07
8.90912e+07
8.90909e+07
8.90906e+07
8.90903e+07
8.909e+07
8.90896e+07
8.90893e+07
8.9089e+07
8.90888e+07
8.90886e+07
8.90884e+07
8.90882e+07
8.90881e+07
9.17887e+07
9.17886e+07
9.17885e+07
9.17882e+07
9.17878e+07
9.17874e+07
9.17869e+07
9.17864e+07
9.17858e+07
9.17852e+07
9.17846e+07
9.17839e+07
9.17833e+07
9.17827e+07
9.17822e+07
9.17817e+07
9.17812e+07
9.17809e+07
9.17806e+07
9.17804e+07
9.50363e+07
9.50362e+07
9.50359e+07
9.50354e+07
9.50349e+07
9.50342e+07
9.50334e+07
9.50325e+07
9.50316e+07
9.50306e+07
9.50295e+07
9.50285e+07
9.50275e+07
9.50265e+07
9.50255e+07
9.50247e+07
9.50239e+07
9.50233e+07
9.50229e+07
9.50226e+07
9.79009e+07
9.79007e+07
9.79003e+07
9.78996e+07
9.78988e+07
9.78977e+07
9.78965e+07
9.78952e+07
9.78938e+07
9.78922e+07
9.78907e+07
9.78891e+07
9.78875e+07
9.7886e+07
9.78846e+07
9.78832e+07
9.78821e+07
9.78811e+07
9.78804e+07
9.78801e+07
1.31674e+08
1.31674e+08
1.31674e+08
1.31673e+08
1.31673e+08
1.31672e+08
1.31671e+08
1.31671e+08
1.3167e+08
1.31669e+08
1.31668e+08
1.31667e+08
1.31666e+08
1.31665e+08
1.31665e+08
1.31664e+08
1.31663e+08
1.31663e+08
1.31662e+08
1.31662e+08
1.29127e+08
1.29127e+08
1.29127e+08
1.29126e+08
1.29126e+08
1.29126e+08
1.29126e+08
1.29125e+08
1.29125e+08
1.29124e+08
1.29124e+08
1.29124e+08
1.29123e+08
1.29123e+08
1.29123e+08
1.29122e+08
1.29122e+08
1.29122e+08
1.29121e+08
1.29121e+08
1.26354e+08
1.26354e+08
1.26354e+08
1.26354e+08
1.26354e+08
1.26354e+08
1.26354e+08
1.26354e+08
1.26354e+08
1.26353e+08
1.26353e+08
1.26353e+08
1.26353e+08
1.26353e+08
1.26353e+08
1.26353e+08
1.26353e+08
1.26353e+08
1.26353e+08
1.26353e+08
1.24111e+08
1.24111e+08
1.24111e+08
1.24111e+08
1.24112e+08
1.24112e+08
1.24112e+08
1.24112e+08
1.24112e+08
1.24112e+08
1.24113e+08
1.24113e+08
1.24113e+08
1.24113e+08
1.24114e+08
1.24114e+08
1.24114e+08
1.24114e+08
1.24114e+08
1.24114e+08
1.22349e+08
1.22349e+08
1.22349e+08
1.22349e+08
1.22349e+08
1.2235e+08
1.2235e+08
1.2235e+08
1.22351e+08
1.22351e+08
1.22352e+08
1.22352e+08
1.22352e+08
1.22353e+08
1.22353e+08
1.22353e+08
1.22354e+08
1.22354e+08
1.22354e+08
1.22354e+08
1.21033e+08
1.21033e+08
1.21033e+08
1.21033e+08
1.21033e+08
1.21034e+08
1.21034e+08
1.21035e+08
1.21035e+08
1.21036e+08
1.21036e+08
1.21037e+08
1.21037e+08
1.21038e+08
1.21038e+08
1.21039e+08
1.21039e+08
1.21039e+08
1.21039e+08
1.2104e+08
1.20125e+08
1.20125e+08
1.20125e+08
1.20126e+08
1.20126e+08
1.20126e+08
1.20127e+08
1.20127e+08
1.20128e+08
1.20128e+08
1.20129e+08
1.2013e+08
1.2013e+08
1.20131e+08
1.20131e+08
1.20132e+08
1.20132e+08
1.20132e+08
1.20133e+08
1.20133e+08
1.19602e+08
1.19602e+08
1.19602e+08
1.19602e+08
1.19603e+08
1.19603e+08
1.19603e+08
1.19604e+08
1.19605e+08
1.19605e+08
1.19606e+08
1.19606e+08
1.19607e+08
1.19607e+08
1.19608e+08
1.19608e+08
1.19609e+08
1.19609e+08
1.19609e+08
1.1961e+08
1.19413e+08
1.19413e+08
1.19414e+08
1.19414e+08
1.19414e+08
1.19415e+08
1.19415e+08
1.19416e+08
1.19416e+08
1.19417e+08
1.19417e+08
1.19418e+08
1.19419e+08
1.19419e+08
1.1942e+08
1.1942e+08
1.1942e+08
1.19421e+08
1.19421e+08
1.19421e+08
1.19561e+08
1.19561e+08
1.19561e+08
1.19561e+08
1.19561e+08
1.19562e+08
1.19562e+08
1.19563e+08
1.19563e+08
1.19564e+08
1.19564e+08
1.19565e+08
1.19566e+08
1.19566e+08
1.19567e+08
1.19567e+08
1.19567e+08
1.19568e+08
1.19568e+08
1.19568e+08
1.20047e+08
1.20047e+08
1.20047e+08
1.20047e+08
1.20047e+08
1.20048e+08
1.20048e+08
1.20049e+08
1.20049e+08
1.2005e+08
1.2005e+08
1.20051e+08
1.20051e+08
1.20052e+08
1.20052e+08
1.20052e+08
1.20053e+08
1.20053e+08
1.20053e+08
1.20053e+08
1.20876e+08
1.20876e+08
1.20876e+08
1.20877e+08
1.20877e+08
1.20877e+08
1.20877e+08
1.20878e+08
1.20878e+08
1.20879e+08
1.20879e+08
1.2088e+08
1.2088e+08
1.2088e+08
1.20881e+08
1.20881e+08
1.20881e+08
1.20882e+08
1.20882e+08
1.20882e+08
1.22063e+08
1.22063e+08
1.22063e+08
1.22063e+08
1.22063e+08
1.22063e+08
1.22064e+08
1.22064e+08
1.22064e+08
1.22065e+08
1.22065e+08
1.22065e+08
1.22066e+08
1.22066e+08
1.22066e+08
1.22067e+08
1.22067e+08
1.22067e+08
1.22067e+08
1.22067e+08
1.23626e+08
1.23626e+08
1.23626e+08
1.23626e+08
1.23627e+08
1.23627e+08
1.23627e+08
1.23627e+08
1.23627e+08
1.23628e+08
1.23628e+08
1.23628e+08
1.23628e+08
1.23628e+08
1.23629e+08
1.23629e+08
1.23629e+08
1.23629e+08
1.23629e+08
1.23629e+08
1.25599e+08
1.25599e+08
1.25599e+08
1.25599e+08
1.25599e+08
1.256e+08
1.256e+08
1.256e+08
1.256e+08
1.256e+08
1.256e+08
1.256e+08
1.256e+08
1.256e+08
1.256e+08
1.256e+08
1.256e+08
1.256e+08
1.256e+08
1.256e+08
1.28018e+08
1.28018e+08
1.28018e+08
1.28018e+08
1.28018e+08
1.28018e+08
1.28018e+08
1.28018e+08
1.28018e+08
1.28018e+08
1.28017e+08
1.28017e+08
1.28017e+08
1.28017e+08
1.28017e+08
1.28017e+08
1.28017e+08
1.28017e+08
1.28016e+08
1.28016e+08
1.30937e+08
1.30937e+08
1.30937e+08
1.30937e+08
1.30936e+08
1.30936e+08
1.30936e+08
1.30936e+08
1.30935e+08
1.30935e+08
1.30934e+08
1.30934e+08
1.30934e+08
1.30933e+08
1.30933e+08
1.30932e+08
1.30932e+08
1.30932e+08
1.30932e+08
1.30931e+08
1.34406e+08
1.34406e+08
1.34406e+08
1.34405e+08
1.34405e+08
1.34404e+08
1.34404e+08
1.34403e+08
1.34402e+08
1.34402e+08
1.34401e+08
1.344e+08
1.34399e+08
1.34399e+08
1.34398e+08
1.34397e+08
1.34397e+08
1.34396e+08
1.34396e+08
1.34396e+08
1.38498e+08
1.38497e+08
1.38497e+08
1.38496e+08
1.38496e+08
1.38495e+08
1.38494e+08
1.38493e+08
1.38492e+08
1.38491e+08
1.38489e+08
1.38488e+08
1.38487e+08
1.38486e+08
1.38485e+08
1.38484e+08
1.38483e+08
1.38482e+08
1.38482e+08
1.38481e+08
1.42074e+08
1.42074e+08
1.42073e+08
1.42072e+08
1.42071e+08
1.4207e+08
1.42068e+08
1.42067e+08
1.42065e+08
1.42063e+08
1.42061e+08
1.4206e+08
1.42058e+08
1.42056e+08
1.42054e+08
1.42053e+08
1.42052e+08
1.42051e+08
1.4205e+08
1.4205e+08
1.80141e+08
1.80141e+08
1.8014e+08
1.8014e+08
1.80139e+08
1.80139e+08
1.80138e+08
1.80137e+08
1.80136e+08
1.80135e+08
1.80135e+08
1.80134e+08
1.80133e+08
1.80132e+08
1.80131e+08
1.8013e+08
1.8013e+08
1.80129e+08
1.80129e+08
1.80128e+08
1.77126e+08
1.77126e+08
1.77126e+08
1.77126e+08
1.77125e+08
1.77125e+08
1.77125e+08
1.77124e+08
1.77124e+08
1.77123e+08
1.77123e+08
1.77123e+08
1.77122e+08
1.77122e+08
1.77122e+08
1.77121e+08
1.77121e+08
1.77121e+08
1.7712e+08
1.7712e+08
1.73816e+08
1.73816e+08
1.73816e+08
1.73816e+08
1.73816e+08
1.73816e+08
1.73815e+08
1.73815e+08
1.73815e+08