/*--------------------------------*- C++ -*----------------------------------*\
| =========                 |                                                 |
| \\      /  F ield         | OpenFOAM: The Open Source CFD Toolbox           |
|  \\    /   O peration     | Version:  2212                                  |
|   \\  /    A nd           | Website:  www.openfoam.com                      |
|    \\/     M anipulation  |                                                 |
\*---------------------------------------------------------------------------*/
FoamFile
{
    version     2.0;
    format      ascii;
    arch        "LSB;label=32;scalar=64";
    class       volSymmTensorField;
    location    "0.193";
    object      UPrime2Mean;
}
// * * * * * * * * * * * * * * * * * * * * * * * * * * * * * * * * * * * * * //

dimensions      [0 2 -2 0 0 0 0];

internalField   nonuniform List<symmTensor> 
24240
(
(0.0667553 -0.0201559 -6.06241e-08 0.00637968 1.98674e-08 2.21755e-13)
(0.0667365 -0.0201538 2.89369e-09 0.00638018 3.02242e-09 1.35558e-12)
(0.0667368 -0.0201537 -4.09895e-08 0.0063801 1.89051e-08 3.70409e-12)
(0.0667368 -0.0201537 -2.6695e-08 0.00638004 1.7127e-08 6.79772e-12)
(0.066737 -0.0201536 -4.55291e-08 0.00637994 2.52025e-08 1.02806e-11)
(0.0667371 -0.0201534 -4.91898e-08 0.00637983 2.83551e-08 1.3644e-11)
(0.0667373 -0.0201533 -5.9637e-08 0.00637971 3.32592e-08 1.65468e-11)
(0.0667375 -0.0201532 -6.54758e-08 0.00637958 3.63969e-08 1.86758e-11)
(0.0667377 -0.020153 -7.21601e-08 0.00637945 3.94434e-08 1.98794e-11)
(0.0667379 -0.0201529 -7.68936e-08 0.00637931 4.15169e-08 2.00925e-11)
(0.0667382 -0.0201528 -8.12514e-08 0.00637918 4.31081e-08 1.93718e-11)
(0.0667384 -0.0201527 -8.40316e-08 0.00637905 4.38229e-08 1.78483e-11)
(0.0667387 -0.0201526 -8.58111e-08 0.00637893 4.38704e-08 1.57292e-11)
(0.0667389 -0.0201525 -8.49507e-08 0.00637882 4.27269e-08 1.32406e-11)
(0.0667392 -0.0201524 -8.52279e-08 0.00637871 4.16217e-08 1.06383e-11)
(0.0667394 -0.0201523 -7.64958e-08 0.00637862 3.75086e-08 8.10022e-12)
(0.0667396 -0.0201523 -8.00345e-08 0.00637855 3.68644e-08 5.81843e-12)
(0.0667398 -0.0201522 -4.78879e-08 0.00637848 2.49988e-08 3.67099e-12)
(0.0667397 -0.0201522 -6.45583e-08 0.00637846 2.68841e-08 1.81583e-12)
(0.0667586 -0.0201543 4.08563e-08 0.00637792 -9.90155e-09 2.68305e-13)
(0.00128696 -0.00245435 4.94291e-09 0.00537261 -1.02743e-08 3.73607e-14)
(0.00128443 -0.00245169 1.05668e-08 0.00537316 -2.15912e-08 2.45107e-13)
(0.00128442 -0.0024517 1.59965e-08 0.00537317 -3.26307e-08 6.17939e-13)
(0.00128441 -0.00245171 2.24497e-08 0.00537323 -4.60222e-08 1.15625e-12)
(0.00128439 -0.00245172 2.63699e-08 0.00537329 -5.40075e-08 1.68258e-12)
(0.00128437 -0.00245173 2.99991e-08 0.00537337 -6.15431e-08 2.20629e-12)
(0.00128435 -0.00245174 3.18987e-08 0.00537345 -6.54651e-08 2.60288e-12)
(0.00128433 -0.00245176 3.29188e-08 0.00537354 -6.76437e-08 2.87022e-12)
(0.0012843 -0.00245177 3.26772e-08 0.00537364 -6.72123e-08 2.96523e-12)
(0.00128427 -0.00245178 3.15578e-08 0.00537373 -6.49995e-08 2.90456e-12)
(0.00128425 -0.0024518 2.95561e-08 0.00537383 -6.09581e-08 2.70129e-12)
(0.00128422 -0.0024518 2.69502e-08 0.00537392 -5.56718e-08 2.39393e-12)
(0.00128419 -0.00245181 2.38308e-08 0.00537401 -4.9307e-08 2.01912e-12)
(0.00128416 -0.00245181 2.05186e-08 0.00537409 -4.25503e-08 1.62331e-12)
(0.00128413 -0.00245181 1.69086e-08 0.00537416 -3.51294e-08 1.23481e-12)
(0.0012841 -0.00245181 1.37749e-08 0.00537423 -2.87646e-08 8.9529e-13)
(0.00128407 -0.00245181 9.89669e-09 0.00537428 -2.07098e-08 5.86498e-13)
(0.00128405 -0.0024518 7.50129e-09 0.00537432 -1.59254e-08 3.43164e-13)
(0.00128402 -0.00245179 2.7798e-09 0.00537437 -6.00649e-09 1.27015e-13)
(0.00128655 -0.00245446 -7.42202e-10 0.00537386 1.59011e-09 1.54334e-14)
(0.000732153 -0.00176647 -4.72302e-10 0.00776952 4.55394e-09 1.11498e-14)
(0.000730607 -0.00176315 -4.30157e-09 0.00776995 2.83148e-08 1.90751e-13)
(0.000730606 -0.00176317 -8.49309e-09 0.00776993 5.37783e-08 6.25104e-13)
(0.000730601 -0.00176319 -1.07654e-08 0.00776992 7.10275e-08 1.14693e-12)
(0.000730595 -0.00176323 -1.34152e-08 0.00776991 8.9588e-08 1.82596e-12)
(0.000730587 -0.00176326 -1.49119e-08 0.00776989 1.02769e-07 2.47284e-12)
(0.000730578 -0.00176331 -1.61204e-08 0.00776987 1.14052e-07 3.1047e-12)
(0.000730568 -0.00176336 -1.6571e-08 0.00776984 1.21402e-07 3.61843e-12)
(0.000730558 -0.00176341 -1.65606e-08 0.00776981 1.25929e-07 4.00623e-12)
(0.000730547 -0.00176347 -1.60264e-08 0.00776979 1.27287e-07 4.23055e-12)
(0.000730536 -0.00176353 -1.51169e-08 0.00776976 1.25955e-07 4.28902e-12)
(0.000730524 -0.0017636 -1.38913e-08 0.00776973 1.22066e-07 4.17918e-12)
(0.000730512 -0.00176366 -1.24635e-08 0.0077697 1.1594e-07 3.91304e-12)
(0.0007305 -0.00176372 -1.08367e-08 0.00776967 1.07607e-07 3.51023e-12)
(0.000730487 -0.00176377 -9.27458e-09 0.00776964 9.80331e-08 3.02108e-12)
(0.000730475 -0.00176382 -7.32223e-09 0.00776961 8.57338e-08 2.45866e-12)
(0.000730462 -0.00176386 -5.95699e-09 0.00776958 7.44866e-08 1.92471e-12)
(0.000730451 -0.0017639 -3.70015e-09 0.00776956 5.76838e-08 1.30895e-12)
(0.000730438 -0.00176392 -2.76532e-09 0.00776954 4.36222e-08 7.38048e-13)
(0.000731971 -0.00176726 -1.57038e-09 0.00776909 2.01043e-08 1.33414e-13)
(0.00163852 0.00331322 -5.1255e-09 0.00740138 -1.15473e-08 2.4557e-14)
(0.00164149 0.00331662 -1.32795e-08 0.0074018 -3.00309e-08 1.82397e-13)
(0.0016415 0.00331664 -2.04858e-08 0.00740177 -4.65002e-08 4.62693e-13)
(0.00164153 0.00331667 -2.8021e-08 0.00740175 -6.37516e-08 8.68552e-13)
(0.00164156 0.0033167 -3.38942e-08 0.00740172 -7.73024e-08 1.29161e-12)
(0.0016416 0.00331674 -3.86855e-08 0.00740168 -8.84164e-08 1.69946e-12)
(0.00164164 0.00331679 -4.17458e-08 0.00740163 -9.56501e-08 2.01529e-12)
(0.00164169 0.00331684 -4.35242e-08 0.00740158 -9.99962e-08 2.23089e-12)
(0.00164174 0.0033169 -4.38643e-08 0.00740153 -1.01106e-07 2.32067e-12)
(0.0016418 0.00331695 -4.30606e-08 0.00740147 -9.96274e-08 2.29758e-12)
(0.00164185 0.00331701 -4.1212e-08 0.00740141 -9.57663e-08 2.17288e-12)
(0.0016419 0.00331707 -3.8542e-08 0.00740135 -9.00074e-08 1.97134e-12)
(0.00164195 0.00331712 -3.52028e-08 0.00740129 -8.267e-08 1.71634e-12)
(0.001642 0.00331718 -3.14729e-08 0.00740123 -7.43678e-08 1.43755e-12)
(0.00164205 0.00331723 -2.73925e-08 0.00740117 -6.5199e-08 1.1536e-12)
(0.00164209 0.00331727 -2.34978e-08 0.00740112 -5.63764e-08 8.9642e-13)
(0.00164213 0.00331732 -1.92383e-08 0.00740107 -4.66851e-08 6.55006e-13)
(0.00164217 0.00331736 -1.53567e-08 0.00740102 -3.76178e-08 4.41576e-13)
(0.0016422 0.0033174 -8.83365e-09 0.00740099 -2.22733e-08 2.02228e-13)
(0.00163925 0.00331402 -2.27622e-09 0.00740054 -6.1264e-09 2.76491e-14)
(0.00366904 0.00319697 2.51512e-09 0.00321723 2.65363e-09 2.17677e-14)
(0.00367344 0.00319924 1.29641e-08 0.00321741 1.34062e-08 2.29392e-13)
(0.00367342 0.00319923 2.34852e-08 0.00321742 2.4499e-08 6.5557e-13)
(0.00367341 0.00319924 3.11912e-08 0.00321743 3.26369e-08 1.20176e-12)
(0.00367339 0.00319924 3.82398e-08 0.00321745 4.00831e-08 1.81895e-12)
(0.00367336 0.00319924 4.35175e-08 0.00321748 4.56988e-08 2.40874e-12)
(0.00367333 0.00319924 4.76217e-08 0.0032175 5.00874e-08 2.92151e-12)
(0.0036733 0.00319924 5.00435e-08 0.00321753 5.27219e-08 3.29434e-12)
(0.00367327 0.00319923 5.11042e-08 0.00321755 5.39467e-08 3.50696e-12)
(0.00367324 0.00319923 5.07125e-08 0.00321758 5.36637e-08 3.54588e-12)
(0.0036732 0.00319923 4.90793e-08 0.0032176 5.2097e-08 3.42369e-12)
(0.00367317 0.00319922 4.6395e-08 0.00321763 4.94317e-08 3.16452e-12)
(0.00367314 0.00319922 4.28014e-08 0.00321765 4.58305e-08 2.80065e-12)
(0.00367311 0.00319921 3.84395e-08 0.00321767 4.13974e-08 2.36975e-12)
(0.00367309 0.00319921 3.3569e-08 0.00321768 3.6445e-08 1.91336e-12)
(0.00367307 0.00319921 2.79547e-08 0.0032177 3.0655e-08 1.45749e-12)
(0.00367306 0.00319921 2.22375e-08 0.00321771 2.47344e-08 1.03565e-12)
(0.00367306 0.00319921 1.5803e-08 0.00321772 1.79206e-08 6.39445e-13)
(0.00367306 0.00319921 1.12437e-08 0.00321772 1.28205e-08 3.03241e-13)
(0.00366866 0.00319696 5.32453e-09 0.00321756 5.89513e-09 4.51224e-14)
(0.0048584 0.00392327 -6.0072e-09 0.003258 -4.9587e-09 2.90722e-14)
(0.00486369 0.00392556 -1.53972e-08 0.00325816 -1.26059e-08 2.41129e-13)
(0.00486372 0.00392556 -2.36982e-08 0.00325815 -1.93396e-08 6.38611e-13)
(0.00486378 0.00392557 -3.22602e-08 0.00325812 -2.63056e-08 1.18727e-12)
(0.00486385 0.00392558 -3.90337e-08 0.00325809 -3.17986e-08 1.79589e-12)
(0.00486394 0.00392559 -4.48497e-08 0.00325806 -3.65189e-08 2.4045e-12)
(0.00486403 0.00392561 -4.88498e-08 0.00325802 -3.97503e-08 2.93346e-12)
(0.00486414 0.00392562 -5.14906e-08 0.00325798 -4.18752e-08 3.34096e-12)
(0.00486426 0.00392564 -5.25399e-08 0.00325794 -4.26949e-08 3.58844e-12)
(0.00486437 0.00392566 -5.22961e-08 0.00325789 -4.24598e-08 3.66766e-12)
(0.00486449 0.00392568 -5.08061e-08 0.00325785 -4.12046e-08 3.58079e-12)
(0.00486461 0.0039257 -4.82887e-08 0.00325781 -3.91125e-08 3.34827e-12)
(0.00486473 0.00392573 -4.48393e-08 0.00325777 -3.62589e-08 2.99805e-12)
(0.00486484 0.00392575 -4.08265e-08 0.00325773 -3.29547e-08 2.57066e-12)
(0.00486495 0.00392577 -3.61323e-08 0.00325769 -2.90939e-08 2.10062e-12)
(0.00486505 0.00392579 -3.15354e-08 0.00325766 -2.53375e-08 1.63211e-12)
(0.00486514 0.00392581 -2.61033e-08 0.00325764 -2.09012e-08 1.17497e-12)
(0.00486521 0.00392583 -2.08186e-08 0.00325762 -1.66266e-08 7.45948e-13)
(0.00486528 0.00392584 -1.2463e-08 0.00325761 -9.83568e-09 3.36969e-13)
(0.00486005 0.00392357 -3.52417e-09 0.00325743 -2.69363e-09 4.48788e-14)
(0.00705617 0.00209696 -6.65616e-10 0.000666444 -1.35313e-10 2.2964e-14)
(0.00706249 0.002098 4.39708e-09 0.000666481 1.72659e-09 2.08902e-13)
(0.00706248 0.002098 1.00022e-08 0.000666483 3.80445e-09 5.78099e-13)
(0.00706248 0.00209801 1.33682e-08 0.000666487 5.14528e-09 1.08051e-12)
(0.00706248 0.00209801 1.63346e-08 0.00066649 6.35177e-09 1.65937e-12)
(0.00706248 0.00209802 1.82251e-08 0.000666495 7.1963e-09 2.24509e-12)
(0.00706248 0.00209803 1.94539e-08 0.0006665 7.80921e-09 2.77884e-12)
(0.00706248 0.00209804 1.97397e-08 0.000666505 8.09329e-09 3.20837e-12)
(0.00706248 0.00209804 1.93381e-08 0.000666509 8.13022e-09 3.49953e-12)
(0.00706249 0.00209805 1.82248e-08 0.000666513 7.90534e-09 3.63273e-12)
(0.00706249 0.00209805 1.66058e-08 0.000666517 7.48308e-09 3.605e-12)
(0.0070625 0.00209806 1.45991e-08 0.00066652 6.89453e-09 3.42692e-12)
(0.00706251 0.00209806 1.24083e-08 0.000666523 6.20533e-09 3.12121e-12)
(0.00706252 0.00209806 1.00829e-08 0.000666525 5.41987e-09 2.71926e-12)
(0.00706253 0.00209806 7.92895e-09 0.000666527 4.64455e-09 2.25861e-12)
(0.00706255 0.00209807 5.68695e-09 0.000666528 3.77934e-09 1.77206e-12)
(0.00706256 0.00209807 3.99773e-09 0.000666529 3.03703e-09 1.28774e-12)
(0.00706258 0.00209807 2.35156e-09 0.00066653 2.21585e-09 8.13842e-13)
(0.0070626 0.00209807 3.00979e-09 0.000666532 2.02758e-09 3.76557e-13)
(0.0070563 0.00209703 2.78376e-09 0.000666496 1.32179e-09 5.25822e-14)
(0.00687022 0.00202721 -4.77642e-09 0.000612077 -1.42173e-09 2.99163e-14)
(0.00687652 0.00202821 -1.33091e-08 0.000612107 -3.91724e-09 2.6059e-13)
(0.00687655 0.00202822 -2.07586e-08 0.000612106 -6.06812e-09 6.96141e-13)
(0.00687661 0.00202823 -2.85349e-08 0.000612106 -8.31795e-09 1.29567e-12)
(0.00687669 0.00202824 -3.49972e-08 0.000612106 -1.01708e-08 1.97847e-12)
(0.00687678 0.00202825 -4.08445e-08 0.000612106 -1.18443e-08 2.67547e-12)
(0.00687689 0.00202826 -4.53927e-08 0.000612105 -1.31299e-08 3.30633e-12)
(0.00687701 0.00202828 -4.88903e-08 0.000612105 -1.41066e-08 3.81361e-12)
(0.00687713 0.0020283 -5.11019e-08 0.000612105 -1.47024e-08 4.14906e-12)
(0.00687727 0.00202832 -5.21499e-08 0.000612104 -1.49576e-08 4.29042e-12)
(0.00687741 0.00202833 -5.1963e-08 0.000612103 -1.48511e-08 4.23168e-12)
(0.00687755 0.00202835 -5.06526e-08 0.000612102 -1.44197e-08 3.98942e-12)
(0.00687769 0.00202837 -4.81523e-08 0.000612101 -1.36433e-08 3.59332e-12)
(0.00687782 0.00202839 -4.48171e-08 0.000612099 -1.26345e-08 3.09074e-12)
(0.00687794 0.0020284 -4.03744e-08 0.000612098 -1.13094e-08 2.52573e-12)
(0.00687806 0.00202841 -3.55722e-08 0.000612096 -9.90164e-09 1.94998e-12)
(0.00687816 0.00202842 -2.94132e-08 0.000612094 -8.10834e-09 1.38467e-12)
(0.00687824 0.00202843 -2.30236e-08 0.000612092 -6.28803e-09 8.58164e-13)
(0.00687832 0.00202844 -1.41955e-08 0.000612091 -3.77493e-09 3.85221e-13)
(0.00687207 0.00202745 -4.74608e-09 0.00061206 -1.2152e-09 5.18701e-14)
(0.00801064 -0.000152239 -1.88891e-10 3.29827e-06 1.55975e-11 2.82174e-14)
(0.0080174 -0.000152308 4.86604e-09 3.29836e-06 -7.16826e-11 2.54777e-13)
(0.00801738 -0.000152312 1.01043e-08 3.29855e-06 -1.68435e-10 6.9186e-13)
(0.00801736 -0.000152317 1.37208e-08 3.29878e-06 -2.33485e-10 1.283e-12)
(0.00801734 -0.000152323 1.68043e-08 3.2991e-06 -2.91299e-10 1.96027e-12)
(0.00801731 -0.00015233 1.88049e-08 3.29945e-06 -3.30013e-10 2.64431e-12)
(0.00801727 -0.000152339 1.99719e-08 3.29986e-06 -3.5561e-10 3.26175e-12)
(0.00801724 -0.000152348 2.01615e-08 3.3003e-06 -3.64435e-10 3.74901e-12)
(0.00801721 -0.000152357 1.94949e-08 3.30076e-06 -3.59467e-10 4.06006e-12)
(0.00801718 -0.000152366 1.79785e-08 3.30121e-06 -3.399e-10 4.17062e-12)
(0.00801715 -0.000152375 1.5793e-08 3.30166e-06 -3.09348e-10 4.07918e-12)
(0.00801712 -0.000152383 1.30161e-08 3.30206e-06 -2.68396e-10 3.80561e-12)
(0.0080171 -0.00015239 9.91097e-09 3.30243e-06 -2.21937e-10 3.38744e-12)
(0.00801708 -0.000152396 6.56638e-09 3.30272e-06 -1.70126e-10 2.87349e-12)
(0.00801707 -0.0001524 3.73391e-09 3.30295e-06 -1.27455e-10 2.31767e-12)
(0.00801706 -0.000152402 1.29116e-09 3.3031e-06 -8.85705e-11 1.76166e-12)
(0.00801705 -0.000152402 2.62198e-10 3.30317e-06 -7.40388e-11 1.23493e-12)
(0.00801704 -0.000152401 -5.10927e-10 3.30318e-06 -5.7273e-11 7.51948e-13)
(0.00801705 -0.000152399 4.71734e-11 3.30313e-06 -6.17917e-11 3.35365e-13)
(0.00801028 -0.000152329 1.27305e-09 3.30306e-06 -5.49107e-11 4.53568e-14)
(0.00786739 -0.000334506 -7.22212e-09 1.47441e-05 3.26757e-10 3.22285e-14)
(0.00787413 -0.000334681 -1.9163e-08 1.47466e-05 8.57434e-10 2.66691e-13)
(0.00787415 -0.000334711 -2.97766e-08 1.47491e-05 1.32543e-09 6.96261e-13)
(0.00787419 -0.000334755 -4.03249e-08 1.47528e-05 1.78903e-09 1.281e-12)
(0.00787424 -0.00033481 -4.9514e-08 1.47576e-05 2.18989e-09 1.94431e-12)
(0.00787431 -0.000334876 -5.75745e-08 1.47632e-05 2.53883e-09 2.61675e-12)
(0.00787439 -0.000334949 -6.39663e-08 1.47694e-05 2.8117e-09 3.21937e-12)
(0.00787447 -0.000335027 -6.8707e-08 1.47761e-05 3.01001e-09 3.69232e-12)
(0.00787457 -0.000335108 -7.15465e-08 1.4783e-05 3.12285e-09 3.98584e-12)
(0.00787467 -0.000335189 -7.24902e-08 1.47899e-05 3.15137e-09 4.07765e-12)
(0.00787477 -0.000335269 -7.14455e-08 1.47966e-05 3.09178e-09 3.96329e-12)
(0.00787488 -0.000335344 -6.8521e-08 1.4803e-05 2.95016e-09 3.66649e-12)
(0.00787498 -0.000335413 -6.37424e-08 1.48089e-05 2.7278e-09 3.22601e-12)
(0.00787507 -0.000335475 -5.7613e-08 1.48142e-05 2.44849e-09 2.70006e-12)
(0.00787516 -0.000335529 -4.99694e-08 1.48188e-05 2.10552e-09 2.13754e-12)
(0.00787524 -0.000335574 -4.18398e-08 1.48226e-05 1.74636e-09 1.5939e-12)
(0.0078753 -0.00033561 -3.23917e-08 1.48256e-05 1.33416e-09 1.08566e-12)
(0.00787535 -0.000335638 -2.2985e-08 1.48279e-05 9.31322e-10 6.43807e-13)
(0.0078754 -0.000335656 -1.22888e-08 1.48295e-05 4.74799e-10 2.76094e-13)
(0.00786869 -0.000335505 -2.98607e-09 1.4829e-05 9.94906e-11 3.57751e-14)
(0.0071897 -0.0025016 -1.02082e-08 0.000915657 3.70624e-09 2.83462e-14)
(0.00719613 -0.00250281 -2.98918e-08 0.000915695 1.07621e-08 2.46497e-13)
(0.00719614 -0.0025028 -4.75866e-08 0.000915686 1.70342e-08 6.43314e-13)
(0.00719617 -0.00250279 -6.41829e-08 0.000915671 2.29094e-08 1.18264e-12)
(0.00719621 -0.00250277 -7.82424e-08 0.000915653 2.78506e-08 1.78443e-12)
(0.00719625 -0.00250274 -8.98952e-08 0.000915632 3.19189e-08 2.38726e-12)
(0.0071963 -0.00250272 -9.85795e-08 0.000915608 3.49076e-08 2.91798e-12)
(0.00719636 -0.00250269 -1.0434e-07 0.000915582 3.68429e-08 3.32785e-12)
(0.00719642 -0.00250266 -1.07112e-07 0.000915556 3.77048e-08 3.57918e-12)
(0.00719649 -0.00250264 -1.06997e-07 0.000915529 3.75363e-08 3.65541e-12)
(0.00719656 -0.00250261 -1.04177e-07 0.000915503 3.64061e-08 3.55962e-12)
(0.00719662 -0.00250259 -9.89913e-08 0.000915478 3.44428e-08 3.31351e-12)
(0.00719668 -0.00250256 -9.16811e-08 0.000915456 3.17325e-08 2.94751e-12)
(0.00719674 -0.00250254 -8.28115e-08 0.000915435 2.84878e-08 2.50665e-12)
(0.00719679 -0.00250253 -7.23536e-08 0.000915418 2.46985e-08 2.02206e-12)
(0.00719683 -0.00250251 -6.1083e-08 0.000915404 2.06614e-08 1.53832e-12)
(0.00719686 -0.0025025 -4.83144e-08 0.000915392 1.61262e-08 1.06672e-12)
(0.00719689 -0.00250249 -3.53618e-08 0.000915383 1.16113e-08 6.48499e-13)
(0.00719692 -0.00250249 -2.13721e-08 0.000915376 6.74367e-09 2.91493e-13)
(0.0071905 -0.00250127 -7.284e-09 0.000915331 2.17936e-09 4.01744e-14)
(0.00824036 -0.00277811 -2.78573e-09 0.000973918 1.12256e-09 1.75423e-14)
(0.00824724 -0.00277939 -1.65649e-09 0.000973973 8.78133e-10 1.40192e-13)
(0.00824721 -0.00277938 -4.47502e-10 0.000973975 5.38823e-10 3.70749e-13)
(0.00824716 -0.00277938 -5.93941e-10 0.000973979 6.57177e-10 6.83518e-13)
(0.00824711 -0.00277938 -1.1657e-09 0.000973984 8.80878e-10 1.03983e-12)
(0.00824704 -0.00277937 -2.29998e-09 0.00097399 1.26533e-09 1.40055e-12)
(0.00824697 -0.00277937 -3.72169e-09 0.000973997 1.71108e-09 1.72688e-12)
(0.00824689 -0.00277936 -5.44401e-09 0.000974004 2.22924e-09 1.98706e-12)
(0.00824681 -0.00277936 -7.25702e-09 0.000974012 2.75149e-09 2.15773e-12)
(0.00824674 -0.00277935 -9.0506e-09 0.000974019 3.24814e-09 2.22586e-12)
(0.00824667 -0.00277935 -1.06084e-08 0.000974027 3.64588e-09 2.18929e-12)
(0.0082466 -0.00277935 -1.19195e-08 0.000974035 3.95418e-09 2.05784e-12)
(0.00824653 -0.00277934 -1.26768e-08 0.000974042 4.06653e-09 1.84873e-12)
(0.00824648 -0.00277934 -1.30665e-08 0.000974048 4.06191e-09 1.58782e-12)
(0.00824642 -0.00277934 -1.24521e-08 0.000974055 3.72658e-09 1.29864e-12)
(0.00824638 -0.00277934 -1.12595e-08 0.00097406 3.22806e-09 1.00412e-12)
(0.00824635 -0.00277934 -8.44503e-09 0.000974065 2.21155e-09 7.15537e-13)
(0.00824632 -0.00277934 -5.15569e-09 0.000974068 1.1013e-09 4.50224e-13)
(0.00824631 -0.00277934 -2.67138e-09 0.000974071 2.76599e-10 2.14207e-13)
(0.0082394 -0.00277806 4.69704e-10 0.00097402 -5.08228e-10 3.13298e-14)
(0.00520787 -0.00444936 -8.67064e-09 0.00396327 7.93705e-09 2.50055e-14)
(0.00521334 -0.00445188 -2.80544e-08 0.00396346 2.53732e-08 2.38723e-13)
(0.00521334 -0.00445187 -4.53033e-08 0.00396344 4.07909e-08 6.22222e-13)
(0.00521335 -0.00445186 -6.14914e-08 0.00396342 5.5244e-08 1.14429e-12)
(0.00521336 -0.00445185 -7.50333e-08 0.00396339 6.72804e-08 1.71287e-12)
(0.00521337 -0.00445184 -8.64163e-08 0.00396335 7.73585e-08 2.28107e-12)
(0.00521339 -0.00445182 -9.48428e-08 0.00396331 8.47611e-08 2.76807e-12)
(0.00521341 -0.00445181 -1.00458e-07 0.00396327 8.96267e-08 3.13378e-12)
(0.00521343 -0.00445179 -1.03138e-07 0.00396322 9.18484e-08 3.3423e-12)
(0.00521346 -0.00445178 -1.03036e-07 0.00396318 9.15751e-08 3.38468e-12)
(0.00521348 -0.00445176 -1.00348e-07 0.00396313 8.89835e-08 3.26769e-12)
(0.00521351 -0.00445175 -9.54376e-08 0.00396309 8.44049e-08 3.01726e-12)
(0.00521354 -0.00445174 -8.8589e-08 0.00396304 7.8096e-08 2.66435e-12)
(0.00521357 -0.00445173 -8.0289e-08 0.00396301 7.0502e-08 2.25106e-12)
(0.00521359 -0.00445172 -7.06007e-08 0.00396297 6.16799e-08 1.80368e-12)
(0.00521362 -0.00445171 -6.00342e-08 0.00396295 5.21299e-08 1.36254e-12)
(0.00521365 -0.00445171 -4.77045e-08 0.00396293 4.10676e-08 9.28264e-13)
(0.00521367 -0.00445171 -3.5126e-08 0.00396291 2.99061e-08 5.58931e-13)
(0.0052137 -0.00445171 -2.23241e-08 0.0039629 1.85122e-08 2.55337e-13)
(0.00520823 -0.00444918 -8.96596e-09 0.0039627 7.24866e-09 3.93069e-14)
(0.00681696 -0.00490776 2.87111e-10 0.00381338 4.37193e-10 1.49747e-14)
(0.00682317 -0.00491026 1.09033e-08 0.00381358 -6.80158e-09 1.41172e-13)
(0.0068231 -0.00491024 2.15561e-08 0.00381359 -1.43223e-08 3.93202e-13)
(0.006823 -0.00491021 2.9483e-08 0.0038136 -1.97663e-08 7.23366e-13)
(0.00682287 -0.00491018 3.60706e-08 0.00381361 -2.43252e-08 1.09259e-12)
(0.00682272 -0.00491013 4.08952e-08 0.00381363 -2.76946e-08 1.45182e-12)
(0.00682254 -0.00491009 4.41601e-08 0.00381364 -3.00427e-08 1.76171e-12)
(0.00682236 -0.00491003 4.56816e-08 0.00381366 -3.12022e-08 1.98938e-12)
(0.00682216 -0.00490998 4.56538e-08 0.00381368 -3.13293e-08 2.11516e-12)
(0.00682196 -0.00490992 4.4148e-08 0.0038137 -3.0449e-08 2.13139e-12)
(0.00682177 -0.00490987 4.13512e-08 0.00381371 -2.87114e-08 2.04217e-12)
(0.00682157 -0.00490981 3.73336e-08 0.00381373 -2.61339e-08 1.8617e-12)
(0.00682139 -0.00490976 3.25758e-08 0.00381375 -2.30907e-08 1.61682e-12)
(0.00682123 -0.00490971 2.72041e-08 0.00381376 -1.96261e-08 1.33562e-12)
(0.00682108 -0.00490967 2.21122e-08 0.00381378 -1.63929e-08 1.05146e-12)
(0.00682095 -0.00490964 1.74536e-08 0.00381379 -1.34068e-08 7.84575e-13)
(0.00682085 -0.00490961 1.44059e-08 0.0038138 -1.15057e-08 5.48441e-13)
(0.00682077 -0.00490958 1.20193e-08 0.00381381 -9.94189e-09 3.43993e-13)
(0.00682072 -0.00490957 8.38894e-09 0.00381382 -7.5314e-09 1.66226e-13)
(0.00681445 -0.00490705 4.96464e-09 0.00381361 -4.51269e-09 2.77884e-14)
(0.00248868 -0.00491883 -7.34156e-09 0.0102804 1.55171e-08 3.5376e-14)
(0.00249243 -0.00492287 -2.29933e-08 0.0102809 4.82908e-08 3.16752e-13)
(0.00249243 -0.00492287 -3.64987e-08 0.0102809 7.65869e-08 8.00357e-13)
(0.00249245 -0.00492288 -4.92878e-08 0.0102808 1.03407e-07 1.45167e-12)
(0.00249246 -0.00492288 -5.95997e-08 0.0102808 1.25018e-07 2.12639e-12)
(0.00249247 -0.00492288 -6.85294e-08 0.0102808 1.43749e-07 2.80043e-12)
(0.00249249 -0.00492289 -7.50649e-08 0.0102807 1.57451e-07 3.35182e-12)
(0.00249251 -0.00492289 -7.94636e-08 0.0102806 1.66666e-07 3.74475e-12)
(0.00249254 -0.0049229 -8.15224e-08 0.0102806 1.70956e-07 3.93178e-12)
(0.00249256 -0.00492291 -8.14605e-08 0.0102805 1.7078e-07 3.91541e-12)
(0.00249259 -0.00492291 -7.94213e-08 0.0102804 1.66429e-07 3.70975e-12)
(0.00249262 -0.00492292 -7.56953e-08 0.0102803 1.58515e-07 3.3534e-12)
(0.00249265 -0.00492293 -7.05445e-08 0.0102802 1.47582e-07 2.88953e-12)
(0.00249268 -0.00492294 -6.42932e-08 0.0102801 1.34328e-07 2.37042e-12)
(0.00249272 -0.00492295 -5.69065e-08 0.0102801 1.18687e-07 1.82855e-12)
(0.00249275 -0.00492297 -4.8635e-08 0.01028 1.01239e-07 1.31379e-12)
(0.00249278 -0.00492298 -3.83534e-08 0.0102799 7.9622e-08 8.17492e-13)
(0.00249281 -0.00492299 -2.73427e-08 0.0102798 5.66111e-08 4.27977e-13)
(0.00249284 -0.004923 -1.53515e-08 0.0102798 3.15242e-08 1.5224e-13)
(0.00248909 -0.00491895 -5.3893e-09 0.0102792 1.09057e-08 2.2003e-14)
(0.00236555 -0.00414336 8.60057e-10 0.0098901 3.86592e-10 1.58807e-14)
(0.00236887 -0.0041473 1.10118e-08 0.00989062 -1.79102e-08 1.79757e-13)
(0.0023688 -0.00414725 2.26552e-08 0.00989062 -3.96851e-08 5.54356e-13)
(0.0023687 -0.00414718 3.23428e-08 0.00989063 -5.62477e-08 1.05516e-12)
(0.00236858 -0.00414708 4.13607e-08 0.00989064 -7.15748e-08 1.64118e-12)
(0.00236842 -0.00414696 4.89126e-08 0.00989064 -8.42505e-08 2.22522e-12)
(0.00236824 -0.00414683 5.53422e-08 0.00989064 -9.50965e-08 2.76045e-12)
(0.00236805 -0.00414667 6.01276e-08 0.00989064 -1.02867e-07 3.17726e-12)
(0.00236783 -0.00414651 6.35029e-08 0.00989064 -1.08248e-07 3.45171e-12)
(0.00236761 -0.00414634 6.524e-08 0.00989064 -1.10699e-07 3.55281e-12)
(0.00236738 -0.00414616 6.54522e-08 0.00989063 -1.10639e-07 3.48243e-12)
(0.00236716 -0.00414598 6.40532e-08 0.00989062 -1.07846e-07 3.24601e-12)
(0.00236694 -0.00414581 6.12686e-08 0.00989061 -1.02967e-07 2.87876e-12)
(0.00236673 -0.00414565 5.71256e-08 0.00989059 -9.58575e-08 2.41772e-12)
(0.00236653 -0.0041455 5.2253e-08 0.00989058 -8.79352e-08 1.93499e-12)
(0.00236636 -0.00414536 4.67684e-08 0.00989056 -7.88887e-08 1.47461e-12)
(0.00236621 -0.00414524 4.18528e-08 0.00989055 -7.09159e-08 1.10595e-12)
(0.00236608 -0.00414515 3.77702e-08 0.00989053 -6.44126e-08 8.36249e-13)
(0.00236599 -0.00414507 3.1138e-08 0.0098905 -5.45897e-08 5.37956e-13)
(0.00236259 -0.00414106 1.44072e-08 0.00988998 -2.63564e-08 1.10803e-13)
(0.000237006 -0.000627564 -1.59411e-09 0.0182248 2.55751e-08 6.65877e-14)
(0.000237399 -0.000632817 -4.50285e-09 0.0182258 7.06335e-08 5.39066e-13)
(0.000237407 -0.000632822 -7.10007e-09 0.0182257 1.0408e-07 1.31711e-12)
(0.000237418 -0.000632826 -9.68712e-09 0.0182257 1.38025e-07 2.39902e-12)
(0.000237433 -0.000632835 -1.19165e-08 0.0182257 1.65476e-07 3.58007e-12)
(0.000237451 -0.000632848 -1.38139e-08 0.0182256 1.88247e-07 4.74897e-12)
(0.000237472 -0.000632863 -1.52347e-08 0.0182256 2.03428e-07 5.72142e-12)
(0.000237496 -0.000632881 -1.62387e-08 0.0182255 2.12661e-07 6.43588e-12)
(0.000237521 -0.0006329 -1.67635e-08 0.0182254 2.14854e-07 6.79695e-12)
(0.000237547 -0.000632923 -1.68516e-08 0.0182253 2.1126e-07 6.8051e-12)
(0.000237573 -0.000632947 -1.65054e-08 0.0182252 2.02209e-07 6.46848e-12)
(0.000237599 -0.000632975 -1.57763e-08 0.0182251 1.89014e-07 5.85094e-12)
(0.000237624 -0.000633005 -1.46909e-08 0.0182249 1.72305e-07 5.01969e-12)
(0.000237647 -0.000633039 -1.33232e-08 0.0182248 1.53593e-07 4.07945e-12)
(0.000237668 -0.000633076 -1.1692e-08 0.0182247 1.32735e-07 3.10682e-12)
(0.000237687 -0.000633114 -9.89764e-09 0.0182246 1.11011e-07 2.20335e-12)
(0.000237703 -0.000633153 -7.8505e-09 0.0182244 8.30058e-08 1.38149e-12)
(0.000237717 -0.000633187 -5.55849e-09 0.0182244 4.7713e-08 7.03588e-13)
(0.000237728 -0.000633216 -2.83843e-09 0.0182243 1.68227e-08 2.18368e-13)
(0.000237342 -0.000627964 -7.06297e-10 0.0182232 5.02257e-09 1.91049e-14)
(0.00609682 0.0103449 1.35698e-09 0.0188783 -1.40698e-09 6.59463e-14)
(0.006091 0.0103399 -1.21183e-08 0.0188792 -3.67028e-08 7.62131e-13)
(0.00609107 0.01034 -2.6092e-08 0.0188792 -7.47507e-08 2.36417e-12)
(0.00609115 0.0103401 -3.36346e-08 0.0188792 -1.01149e-07 4.66156e-12)
(0.00609127 0.0103403 -4.51649e-08 0.0188792 -1.34302e-07 7.63039e-12)
(0.00609141 0.0103405 -5.29481e-08 0.0188792 -1.59893e-07 1.08694e-11)
(0.00609158 0.0103407 -6.12525e-08 0.0188791 -1.85325e-07 1.42244e-11)
(0.00609176 0.010341 -6.71349e-08 0.0188791 -2.05127e-07 1.73429e-11)
(0.00609196 0.0103413 -7.20842e-08 0.0188791 -2.21699e-07 2.00146e-11)
(0.00609217 0.0103416 -7.50672e-08 0.0188791 -2.32962e-07 2.19751e-11)
(0.00609239 0.010342 -7.67284e-08 0.0188791 -2.39826e-07 2.30638e-11)
(0.0060926 0.0103423 -7.65377e-08 0.018879 -2.41193e-07 2.31596e-11)
(0.00609281 0.0103426 -7.53e-08 0.018879 -2.38299e-07 2.22611e-11)
(0.00609301 0.0103429 -7.21132e-08 0.018879 -2.29513e-07 2.04136e-11)
(0.00609319 0.0103432 -6.85593e-08 0.018879 -2.1749e-07 1.78088e-11)
(0.00609335 0.0103435 -6.17061e-08 0.0188789 -1.97064e-07 1.45657e-11)
(0.00609349 0.0103437 -5.6358e-08 0.0188789 -1.76909e-07 1.11109e-11)
(0.0060936 0.0103439 -4.49147e-08 0.0188789 -1.43167e-07 7.44767e-12)
(0.00609366 0.0103441 -3.48939e-08 0.018879 -1.09078e-07 4.04602e-12)
(0.00609956 0.0103492 -1.77316e-08 0.018878 -5.10307e-08 6.98526e-13)
(0.00961003 0.00982158 9.03475e-09 0.0103021 9.25352e-09 1.036e-13)
(0.00960262 0.00981822 2.81121e-08 0.0103031 2.94645e-08 9.22526e-13)
(0.00960265 0.00981824 5.93682e-08 0.0103031 6.30014e-08 2.65142e-12)
(0.00960268 0.00981831 8.99574e-08 0.0103032 9.57142e-08 5.06932e-12)
(0.00960272 0.00981839 1.08005e-07 0.0103033 1.15267e-07 7.62963e-12)
(0.00960275 0.00981848 1.24551e-07 0.0103035 1.33194e-07 1.0211e-11)
(0.0096028 0.00981859 1.34016e-07 0.0103037 1.43668e-07 1.23743e-11)
(0.00960284 0.00981871 1.40063e-07 0.0103038 1.50515e-07 1.39773e-11)
(0.00960288 0.00981883 1.40823e-07 0.010304 1.51749e-07 1.47913e-11)
(0.00960292 0.00981896 1.37791e-07 0.0103042 1.48924e-07 1.47902e-11)
(0.00960295 0.00981908 1.3076e-07 0.0103044 1.41792e-07 1.39889e-11)
(0.00960297 0.00981919 1.20978e-07 0.0103046 1.31641e-07 1.25398e-11)
(0.00960298 0.0098193 1.08296e-07 0.0103048 1.18288e-07 1.06243e-11)
(0.00960298 0.00981939 9.4952e-08 0.010305 1.04086e-07 8.53109e-12)
(0.00960296 0.00981946 8.02736e-08 0.0103052 8.82862e-08 6.45628e-12)
(0.00960294 0.00981952 6.91999e-08 0.0103053 7.60771e-08 4.63708e-12)
(0.00960289 0.00981957 5.59309e-08 0.0103055 6.14379e-08 3.04377e-12)
(0.00960283 0.00981959 5.08538e-08 0.0103056 5.53524e-08 1.76475e-12)
(0.00960275 0.00981962 4.78147e-08 0.0103057 5.09377e-08 8.09587e-13)
(0.00961013 0.00982301 2.14087e-08 0.0103047 2.23989e-08 1.33673e-13)
(0.186003 0.0454698 -8.15361e-09 0.0116865 -7.63595e-09 4.43734e-13)
(0.185974 0.0454677 -4.56391e-08 0.0116872 -2.15871e-08 2.85652e-12)
(0.185976 0.0454675 -4.49827e-08 0.011687 -2.7369e-08 7.78087e-12)
(0.185976 0.0454674 3.80824e-08 0.0116869 -1.32142e-08 1.45348e-11)
(0.185977 0.0454673 1.98754e-08 0.0116868 -2.38773e-08 2.24037e-11)
(0.185978 0.0454671 2.40488e-08 0.0116866 -2.8742e-08 3.05013e-11)
(0.185979 0.0454669 2.31033e-09 0.0116864 -3.94919e-08 3.79838e-11)
(0.18598 0.0454668 -1.61781e-08 0.0116861 -4.87249e-08 4.41025e-11)
(0.185982 0.0454666 -4.42738e-08 0.0116859 -5.95015e-08 4.82684e-11)
(0.185983 0.0454664 -7.24595e-08 0.0116856 -6.92851e-08 5.0138e-11)
(0.185985 0.0454662 -1.03672e-07 0.0116854 -7.87168e-08 4.96393e-11)
(0.185987 0.0454661 -1.3286e-07 0.0116851 -8.64682e-08 4.69631e-11)
(0.185988 0.0454659 -1.62543e-07 0.0116848 -9.30978e-08 4.25044e-11)
(0.18599 0.0454658 -1.82479e-07 0.0116846 -9.59656e-08 3.67886e-11)
(0.185991 0.0454657 -2.01917e-07 0.0116843 -9.74444e-08 3.03537e-11)
(0.185993 0.0454656 -1.88481e-07 0.0116841 -8.94733e-08 2.35944e-11)
(0.185994 0.0454655 -1.92945e-07 0.0116839 -8.44203e-08 1.70129e-11)
(0.185995 0.0454654 -8.7182e-08 0.0116838 -5.04828e-08 1.07565e-11)
(0.185994 0.0454654 -5.26155e-08 0.0116838 -3.28117e-08 5.81315e-12)
(0.186024 0.0454674 -2.99503e-08 0.0116829 -1.30968e-08 8.60299e-13)
(0.0110797 -0.00726033 -2.06996e-08 0.00616058 1.65578e-08 3.20782e-13)
(0.0110736 -0.00725778 -3.94262e-08 0.00616105 2.59424e-08 2.4457e-12)
(0.0110736 -0.00725772 -6.67555e-08 0.00616094 4.1422e-08 6.7762e-12)