/*--------------------------------*- C++ -*----------------------------------*\
| =========                 |                                                 |
| \\      /  F ield         | OpenFOAM: The Open Source CFD Toolbox           |
|  \\    /   O peration     | Version:  2212                                  |
|   \\  /    A nd           | Website:  www.openfoam.com                      |
|    \\/     M anipulation  |                                                 |
\*---------------------------------------------------------------------------*/
FoamFile
{
    version     2.0;
    format      ascii;
    arch        "LSB;label=32;scalar=64";
    class       volScalarField;
    location    "0.001";
    object      k_0;
}
// * * * * * * * * * * * * * * * * * * * * * * * * * * * * * * * * * * * * * //

dimensions      [0 2 -2 0 0 0 0];

internalField   nonuniform List<scalar> 
24240
(
3.77339e-08
2.8005e-08
3.18072e-08
3.18106e-08
3.18076e-08
3.18037e-08
3.17991e-08
3.1794e-08
3.17884e-08
3.17824e-08
3.17762e-08
3.17698e-08
3.17634e-08
3.1757e-08
3.1751e-08
3.17452e-08
3.17399e-08
3.17294e-08
2.79287e-08
3.76088e-08
1.37868e-12
3.7392e-13
1.04009e-12
1.05154e-12
1.0515e-12
1.05146e-12
1.05141e-12
1.05135e-12
1.05129e-12
1.05122e-12
1.05115e-12
1.05108e-12
1.05101e-12
1.05093e-12
1.05091e-12
1.05094e-12
1.05102e-12
1.03955e-12
3.73528e-13
1.31702e-12
1.00012e-15
1.00006e-15
7.59251e-14
1.66388e-13
1.66378e-13
1.66365e-13
1.66349e-13
1.66332e-13
1.66313e-13
1.66292e-13
1.66271e-13
1.66249e-13
1.66227e-13
1.66206e-13
1.66185e-13
1.66166e-13
1.66148e-13
7.57937e-14
1.00006e-15
1.00012e-15
1e-15
1e-15
1e-15
2.19336e-15
2.19921e-15
2.20298e-15
2.20737e-15
2.21231e-15
2.21769e-15
2.22342e-15
2.2294e-15
2.23552e-15
2.24167e-15
2.24772e-15
2.25356e-15
2.25908e-15
2.26114e-15
1e-15
1e-15
1e-15
1e-15
1e-15
1e-15
1.02927e-15
1.02942e-15
1.02945e-15
1.02947e-15
1.0295e-15
1.02952e-15
1.02955e-15
1.02958e-15
1.02962e-15
1.02965e-15
1.02968e-15
1.0297e-15
1.0297e-15
1.02958e-15
1e-15
1e-15
1e-15
1e-15
1e-15
1e-15
1.01182e-15
1.01194e-15
1.01198e-15
1.01203e-15
1.01207e-15
1.01213e-15
1.01218e-15
1.01224e-15
1.0123e-15
1.01237e-15
1.01242e-15
1.01247e-15
1.01252e-15
1.01246e-15
1e-15
1e-15
1e-15
1e-15
1e-15
1e-15
1.00635e-15
1.00645e-15
1.00649e-15
1.00653e-15
1.00657e-15
1.00661e-15
1.00667e-15
1.00672e-15
1.00677e-15
1.00683e-15
1.00688e-15
1.00693e-15
1.00697e-15
1.00692e-15
1e-15
1e-15
1e-15
1e-15
1e-15
1e-15
1.00177e-15
1.00181e-15
1.00181e-15
1.00181e-15
1.00181e-15
1.00181e-15
1.0018e-15
1.0018e-15
1.0018e-15
1.0018e-15
1.0018e-15
1.00179e-15
1.00179e-15
1.00174e-15
1e-15
1e-15
1e-15
1e-15
1e-15
1e-15
1.00098e-15
1.00102e-15
1.00102e-15
1.00103e-15
1.00105e-15
1.00106e-15
1.00107e-15
1.00109e-15
1.0011e-15
1.00112e-15
1.00113e-15
1.00114e-15
1.00116e-15
1.00114e-15
1e-15
1e-15
1e-15
1e-15
1e-15
1e-15
1.00004e-15
1.00004e-15
1.00004e-15
1.00005e-15
1.00005e-15
1.00006e-15
1.00007e-15
1.00007e-15
1.00008e-15
1.00008e-15
1.00009e-15
1.0001e-15
1.0001e-15
1.0001e-15
1e-15
1e-15
1e-15
1e-15
1e-15
1e-15
1.00001e-15
1.00001e-15
1.00001e-15
1.00001e-15
1.00001e-15
1.00001e-15
1.00001e-15
1.00001e-15
1.00001e-15
1.00001e-15
1.00001e-15
1.00001e-15
1.00001e-15
1.00001e-15
1e-15
1e-15
1e-15
1e-15
1e-15
1e-15
1.00001e-15
1.00001e-15
1.00001e-15
1.00001e-15
1.00001e-15
1.00001e-15
1.00001e-15
1.00001e-15
1.00001e-15
1.00001e-15
1.00001e-15
1.00001e-15
1.00001e-15
1.00001e-15
1e-15
1e-15
1e-15
1e-15
1e-15
1e-15
1.00002e-15
1.00002e-15
1.00002e-15
1.00002e-15
1.00002e-15
1.00002e-15
1.00002e-15
1.00002e-15
1.00002e-15
1.00002e-15
1.00002e-15
1.00002e-15
1.00002e-15
1.00002e-15
1e-15
1e-15
1e-15
1e-15
1e-15
1e-15
1.00002e-15
1.00002e-15
1.00002e-15
1.00002e-15
1.00002e-15
1.00002e-15
1.00002e-15
1.00002e-15
1.00002e-15
1.00002e-15
1.00002e-15
1.00002e-15
1.00002e-15
1.00002e-15
1e-15
1e-15
1e-15
1e-15
1e-15
1e-15
1.00003e-15
1.00003e-15
1.00003e-15
1.00003e-15
1.00003e-15
1.00003e-15
1.00003e-15
1.00003e-15
1.00003e-15
1.00003e-15
1.00003e-15
1.00003e-15
1.00003e-15
1.00003e-15
1e-15
1e-15
1e-15
1e-15
1e-15
1e-15
1.00845e-15
1.00847e-15
1.00849e-15
1.0085e-15
1.00852e-15
1.00854e-15
1.00857e-15
1.0086e-15
1.00863e-15
1.00867e-15
1.0087e-15
1.00874e-15
1.00877e-15
1.00879e-15
1e-15
1e-15
1e-15
1e-15
1e-15
1.00001e-15
4.9423e-15
4.94767e-15
4.94903e-15
4.95079e-15
4.95297e-15
4.95558e-15
4.95861e-15
4.96206e-15
4.96587e-15
4.97002e-15
4.97439e-15
4.97891e-15
4.98346e-15
4.98355e-15
1.00001e-15
1e-15
1e-15
1.00046e-15
1.00022e-15
5.74971e-13
1.27931e-12
1.27924e-12
1.27913e-12
1.27901e-12
1.27886e-12
1.2787e-12
1.27852e-12
1.27833e-12
1.27812e-12
1.27791e-12
1.27771e-12
1.2775e-12
1.27731e-12
1.27712e-12
5.73561e-13
1.00022e-15
1.00045e-15
6.43445e-12
3.3668e-12
9.08113e-12
9.18767e-12
9.18727e-12
9.18675e-12
9.18613e-12
9.18541e-12
9.18461e-12
9.18373e-12
9.18279e-12
9.1818e-12
9.18079e-12
9.17979e-12
9.17881e-12
9.1779e-12
9.17708e-12
9.06946e-12
3.35857e-12
6.32997e-12
1.00501e-07
7.36725e-08
8.42504e-08
8.42947e-08
8.42883e-08
8.42797e-08
8.42694e-08
8.42574e-08
8.42439e-08
8.42291e-08
8.42132e-08
8.41965e-08
8.41793e-08
8.4162e-08
8.41452e-08
8.41292e-08
8.41143e-08
8.40518e-08
7.3477e-08
1.00166e-07
4.68019e-09
5.36502e-09
6.58273e-09
6.60332e-09
6.60094e-09
6.59796e-09
6.59449e-09
6.59059e-09
6.58634e-09
6.58181e-09
6.57708e-09
6.57216e-09
6.5673e-09
6.56253e-09
6.55794e-09
6.55362e-09
6.54962e-09
6.52381e-09
5.31028e-09
4.61184e-09
2.84456e-14
7.18183e-15
8.02965e-14
8.41696e-14
8.4125e-14
8.4082e-14
8.40476e-14
8.40113e-14
8.39788e-14
8.39439e-14
8.39121e-14
8.38631e-14
8.38203e-14
8.37793e-14
8.3743e-14
8.37125e-14
8.36673e-14
7.97362e-14
7.16152e-15
2.92598e-14
1.00001e-15
1.00001e-15
6.53377e-15
3.58658e-14
3.585e-14
3.58304e-14
3.58075e-14
3.57818e-14
3.57537e-14
3.57238e-14
3.56925e-14
3.56604e-14
3.56283e-14
3.55966e-14
3.55662e-14
3.55352e-14
3.55086e-14
6.51819e-15
1.00001e-15
1.00001e-15
1e-15
1e-15
1e-15
2.55369e-14
2.55979e-14
2.55943e-14
2.55901e-14
2.55853e-14
2.558e-14
2.55743e-14
2.55685e-14
2.55625e-14
2.55567e-14
2.55512e-14
2.5546e-14
2.55414e-14
2.54735e-14
1e-15
1e-15
1e-15
1e-15
1e-15
1e-15
3.64776e-15
3.66167e-15
3.66479e-15
3.66845e-15
3.67258e-15
3.6771e-15
3.68193e-15
3.68699e-15
3.6922e-15
3.69746e-15
3.70269e-15
3.70781e-15
3.71246e-15
3.70532e-15
1e-15
1e-15
1e-15
1e-15
1e-15
1e-15
2.63559e-15
2.65326e-15
2.65956e-15
2.66691e-15
2.67517e-15
2.68419e-15
2.6938e-15
2.70382e-15
2.71407e-15
2.72436e-15
2.73451e-15
2.7443e-15
2.75355e-15
2.7484e-15
1e-15
1e-15
1e-15
1e-15
1e-15
1e-15
1.57687e-15
1.58711e-15
1.59072e-15
1.59494e-15
1.5997e-15
1.6049e-15
1.61046e-15
1.61627e-15
1.62221e-15
1.62819e-15
1.63407e-15
1.63973e-15
1.64504e-15
1.64154e-15
1e-15
1e-15
1e-15
1e-15
1e-15
1e-15
1.16674e-15
1.17094e-15
1.17193e-15
1.17309e-15
1.1744e-15
1.17583e-15
1.17737e-15
1.17898e-15
1.18064e-15
1.1823e-15
1.18394e-15
1.18552e-15
1.18699e-15
1.18445e-15
1e-15
1e-15
1e-15
1e-15
1e-15
1e-15
1.17299e-15
1.1794e-15
1.18138e-15
1.18372e-15
1.18637e-15
1.18928e-15
1.19242e-15
1.1957e-15
1.19908e-15
1.20248e-15
1.20583e-15
1.20905e-15
1.21203e-15
1.20874e-15
1e-15
1e-15
1e-15
1e-15
1e-15
1e-15
1.00812e-15
1.0088e-15
1.00945e-15
1.01022e-15
1.0111e-15
1.01207e-15
1.01312e-15
1.01422e-15
1.01536e-15
1.01652e-15
1.01765e-15
1.01874e-15
1.01974e-15
1.02007e-15
1e-15
1e-15
1e-15
1e-15
1e-15
1e-15
1.00235e-15
1.0024e-15
1.00243e-15
1.00246e-15
1.0025e-15
1.00254e-15
1.00258e-15
1.00262e-15
1.00267e-15
1.00272e-15
1.00276e-15
1.00281e-15
1.00285e-15
1.00285e-15
1e-15
1e-15
1e-15
1e-15
1e-15
1e-15
1.00383e-15
1.00389e-15
1.00392e-15
1.00395e-15
1.00399e-15
1.00404e-15
1.00408e-15
1.00414e-15
1.00419e-15
1.00424e-15
1.0043e-15
1.00435e-15
1.0044e-15
1.0044e-15
1e-15
1e-15
1e-15
1e-15
1e-15
1e-15
1.00586e-15
1.00592e-15
1.00596e-15
1.006e-15
1.00604e-15
1.00609e-15
1.00614e-15
1.0062e-15
1.00626e-15
1.00632e-15
1.00638e-15
1.00645e-15
1.0065e-15
1.00652e-15
1e-15
1e-15
1e-15
1e-15
1e-15
1e-15
1.00864e-15
1.0087e-15
1.00872e-15
1.00875e-15
1.00879e-15
1.00883e-15
1.00888e-15
1.00894e-15
1.009e-15
1.00906e-15
1.00912e-15
1.00918e-15
1.00924e-15
1.00926e-15
1e-15
1e-15
1e-15
1e-15
1e-15
1e-15
1.01159e-15
1.01163e-15
1.01164e-15
1.01165e-15
1.01167e-15
1.0117e-15
1.01173e-15
1.01179e-15
1.01186e-15
1.01194e-15
1.01201e-15
1.01209e-15
1.01218e-15
1.01222e-15
1e-15
1e-15
1e-15
1e-15
1e-15
1e-15
2.54348e-15
2.54821e-15
2.55083e-15
2.55406e-15
2.55787e-15
2.56221e-15
2.56706e-15
2.57233e-15
2.57796e-15
2.58384e-15
2.58989e-15
2.59597e-15
2.60197e-15
2.60488e-15
1e-15
1e-15
1e-15
1e-15
1e-15
1.00001e-15
1.88559e-13
1.88643e-13
1.88416e-13
1.88152e-13
1.87857e-13
1.87536e-13
1.87198e-13
1.86849e-13
1.86498e-13
1.86153e-13
1.85823e-13
1.85513e-13
1.85231e-13
1.84723e-13
1e-15
1e-15
1e-15
1.00005e-15
1.00003e-15
2.43827e-14
1.93492e-13
1.93403e-13
1.93289e-13
1.93152e-13
1.92994e-13
1.92816e-13
1.92623e-13
1.92416e-13
1.92199e-13
1.91977e-13
1.91756e-13
1.91539e-13
1.91334e-13
1.91146e-13
2.43161e-14
1.00003e-15
1.00011e-15
3.04255e-13
2.40275e-14
4.79821e-13
5.06005e-13
5.05889e-13
5.05742e-13
5.05564e-13
5.05358e-13
5.05126e-13
5.04872e-13
5.04599e-13
5.04313e-13
5.04018e-13
5.03723e-13
5.03433e-13
5.03157e-13
5.02902e-13
4.76448e-13
2.39592e-14
3.06009e-13
1.11577e-08
1.28101e-08
1.58129e-08
1.58712e-08
1.58666e-08
1.58608e-08
1.58537e-08
1.58456e-08
1.58365e-08
1.58266e-08
1.5816e-08
1.5805e-08
1.57937e-08
1.57823e-08
1.57712e-08
1.57607e-08
1.57509e-08
1.56804e-08
1.26856e-08
1.0995e-08
5.93998e-09
6.09939e-09
7.20695e-09
7.20984e-09
7.2079e-09
7.20547e-09
7.20264e-09
7.19947e-09
7.19602e-09
7.19235e-09
7.18852e-09
7.18471e-09
7.1808e-09
7.17697e-09
7.17328e-09
7.1698e-09
7.16657e-09
7.15927e-09
6.05485e-09
5.88236e-09
1.01996e-15
3.43637e-15
2.69534e-14
2.77593e-14
2.77549e-14
2.77496e-14
2.77433e-14
2.77362e-14
2.77284e-14
2.77201e-14
2.77113e-14
2.77024e-14
2.76935e-14
2.76852e-14
2.7683e-14
2.76851e-14
2.76979e-14
2.68764e-14
3.42559e-15
1.02096e-15
1.00001e-15
1.00001e-15
4.98474e-15
4.4088e-14
4.40768e-14
4.40631e-14
4.40473e-14
4.40297e-14
4.40106e-14
4.39903e-14
4.39691e-14
4.39475e-14
4.39258e-14
4.39047e-14
4.38841e-14
4.38676e-14
4.38496e-14
4.97417e-15
1.00001e-15
1.00001e-15
1e-15
1e-15
1e-15
8.73899e-14
8.76752e-14
8.76635e-14
8.76501e-14
8.76354e-14
8.76196e-14
8.76032e-14
8.75866e-14
8.757e-14
8.75541e-14
8.75393e-14
8.75257e-14
8.75136e-14
8.72071e-14
1e-15
1e-15
1e-15
1e-15
1e-15
1e-15
4.73613e-15
4.76339e-15
4.77543e-15
4.7894e-15
4.805e-15
4.82193e-15
4.83986e-15
4.85842e-15
4.87719e-15
4.89589e-15
4.91421e-15
4.93181e-15
4.94867e-15
4.94511e-15
1e-15
1e-15
1e-15
1e-15
1e-15
1e-15
6.63834e-15
6.69943e-15
6.71646e-15
6.73621e-15
6.75827e-15
6.78221e-15
6.80759e-15
6.83398e-15
6.86093e-15
6.8879e-15
6.91435e-15
6.93979e-15
6.96365e-15
6.93542e-15
1e-15
1e-15
1e-15
1e-15
1e-15
1e-15
1.30637e-15
1.31098e-15
1.31329e-15
1.31699e-15
1.32113e-15
1.32564e-15
1.33041e-15
1.33535e-15
1.34038e-15
1.34542e-15
1.35035e-15
1.35507e-15
1.35946e-15
1.35981e-15
1e-15
1e-15
1e-15
1e-15
1e-15
1e-15
1.19125e-15
1.19592e-15
1.19845e-15
1.20141e-15
1.20473e-15
1.20836e-15
1.21223e-15
1.21626e-15
1.22039e-15
1.22453e-15
1.22858e-15
1.23247e-15
1.23607e-15
1.23597e-15
1e-15
1e-15
1e-15
1e-15
1e-15
1e-15
2.39678e-15
2.42815e-15
2.43532e-15
2.44371e-15
2.45318e-15
2.46355e-15
2.47464e-15
2.48625e-15
2.49815e-15
2.51012e-15
2.52189e-15
2.5332e-15
2.54374e-15
2.52488e-15
1e-15
1e-15
1e-15
1e-15
1e-15
1e-15
1.34491e-15
1.35348e-15
1.35714e-15
1.36144e-15
1.3663e-15
1.37166e-15
1.37741e-15
1.38344e-15
1.38964e-15
1.3959e-15
1.40207e-15
1.408e-15
1.41352e-15
1.41155e-15
1e-15
1e-15
1e-15
1e-15
1e-15
1e-15
1.24506e-15
1.25065e-15
1.25361e-15
1.25711e-15
1.26109e-15
1.26549e-15
1.27023e-15
1.27522e-15
1.28038e-15
1.2856e-15
1.29077e-15
1.29576e-15
1.30042e-15
1.30051e-15
1e-15
1e-15
1e-15
1e-15
1e-15
1e-15
1.39325e-15
1.39966e-15
1.40298e-15
1.40693e-15
1.41145e-15
1.41647e-15
1.42191e-15
1.42766e-15
1.43364e-15
1.43971e-15
1.44576e-15
1.45164e-15
1.45719e-15
1.45767e-15
1e-15
1e-15
1e-15
1e-15
1e-15
1e-15
1.58644e-15
1.59334e-15
1.59714e-15
1.6016e-15
1.60686e-15
1.61273e-15
1.61912e-15
1.62593e-15
1.63303e-15
1.64031e-15
1.64761e-15
1.65478e-15
1.66164e-15
1.66341e-15
1e-15
1e-15
1e-15
1e-15
1e-15
1e-15
1.84396e-15
1.85041e-15
1.85377e-15
1.85779e-15
1.86244e-15
1.86763e-15
1.87329e-15
1.87933e-15
1.88565e-15
1.89213e-15
1.89867e-15
1.90513e-15
1.91137e-15
1.91296e-15
1e-15
1e-15
1e-15
1e-15
1e-15
1e-15
2.09438e-15
2.09934e-15
2.10152e-15
2.10413e-15
2.10715e-15
2.11054e-15
2.11424e-15
2.12043e-15
2.12834e-15
2.13654e-15
2.14489e-15
2.15328e-15
2.16155e-15
2.16597e-15
1e-15
1e-15
1e-15
1e-15
1e-15
1e-15
4.41284e-15
4.42181e-15
4.42485e-15
4.42851e-15
4.43276e-15
4.43753e-15
4.44277e-15
4.44841e-15
4.45437e-15
4.46058e-15
4.46693e-15
4.47333e-15
4.47966e-15
4.47903e-15
1e-15
1e-15
1e-15
1e-15
1e-15
1.00002e-15
7.11254e-13
7.12025e-13
7.11398e-13
7.1067e-13
7.09857e-13
7.08974e-13
7.08043e-13
7.07084e-13
7.06118e-13
7.05166e-13
7.04246e-13
7.03377e-13
7.02576e-13
7.00606e-13
1.00001e-15
1e-15
1e-15
1.00004e-15
1.00003e-15
1.60878e-14
2.33438e-13
2.3336e-13
2.33261e-13
2.33141e-13
2.33005e-13
2.32853e-13
2.32687e-13
2.32512e-13
2.32329e-13
2.32142e-13
2.31955e-13
2.31771e-13
2.31596e-13
2.31431e-13
1.60332e-14
1.00003e-15
1.00004e-15
1.70395e-13
1.02397e-14
1.31197e-13
1.35709e-13
1.3569e-13
1.35666e-13
1.35638e-13
1.35605e-13
1.35569e-13
1.35529e-13
1.35486e-13
1.35441e-13
1.35395e-13
1.35348e-13
1.35302e-13
1.35257e-13
1.35217e-13
1.30656e-13
1.00406e-14
1.71907e-13
1.40685e-08
1.45427e-08
1.71875e-08
1.71982e-08
1.71933e-08
1.71872e-08
1.71798e-08
1.71714e-08
1.71621e-08
1.71519e-08
1.7141e-08
1.71298e-08
1.71182e-08
1.71067e-08
1.70953e-08
1.70844e-08
1.70741e-08
1.70505e-08
1.44125e-08
1.38959e-08
7.04731e-09
6.5934e-09
7.75929e-09
7.76312e-09
7.76208e-09
7.76076e-09
7.75923e-09
7.75751e-09
7.75566e-09
7.75369e-09
7.75165e-09
7.74958e-09
7.74752e-09
7.7455e-09
7.74356e-09
7.74173e-09
7.74001e-09
7.73388e-09
6.56976e-09
7.01501e-09
7.07658e-15
2.89974e-15
1.66037e-14
1.7058e-14
1.70585e-14
1.7058e-14
1.70573e-14
1.70566e-14
1.70558e-14
1.70549e-14
1.7054e-14
1.70531e-14
1.70513e-14
1.70498e-14
1.70479e-14
1.70465e-14
1.70528e-14
1.6606e-14
2.89781e-15
7.96735e-15
1.00001e-15
1.00001e-15
4.42904e-15
3.63488e-14
3.6344e-14
3.63377e-14
3.63301e-14
3.63215e-14
3.6312e-14
3.6302e-14
3.62917e-14
3.62811e-14
3.62706e-14
3.62601e-14
3.62502e-14
3.62411e-14
3.62327e-14
4.41957e-15
1.00001e-15
1.00001e-15
1e-15
1e-15
1e-15
1.44525e-13
1.45176e-13
1.45209e-13
1.45246e-13
1.45288e-13
1.45334e-13
1.45382e-13
1.45432e-13
1.45482e-13
1.45532e-13
1.4558e-13
1.45627e-13
1.45672e-13
1.45084e-13
1e-15
1e-15
1e-15
1e-15
1e-15
1e-15
2.01748e-14
2.03352e-14
2.03697e-14
2.04095e-14
2.04537e-14
2.05013e-14
2.05512e-14
2.0602e-14
2.06522e-14
2.07015e-14
2.07492e-14
2.07946e-14
2.08371e-14
2.07389e-14
1e-15
1e-15
1e-15
1e-15
1e-15
1e-15
1.44282e-15
1.44862e-15
1.4524e-15
1.45677e-15
1.46162e-15
1.46681e-15
1.47227e-15
1.4779e-15
1.4836e-15
1.48925e-15
1.49479e-15
1.50005e-15
1.5049e-15
1.50607e-15
1e-15
1e-15
1e-15
1e-15
1e-15
1e-15
1.06656e-15
1.06949e-15
1.07241e-15
1.07578e-15
1.07954e-15
1.08361e-15
1.08797e-15
1.09254e-15
1.09716e-15
1.10176e-15
1.10624e-15
1.1105e-15
1.11442e-15
1.11689e-15
1e-15
1e-15
1e-15
1e-15
1e-15
1e-15
1.28321e-15
1.29004e-15
1.29487e-15
1.30046e-15
1.3067e-15
1.31347e-15
1.32065e-15
1.32809e-15
1.33566e-15
1.34322e-15
1.3506e-15
1.35765e-15
1.36417e-15
1.36614e-15
1e-15
1e-15
1e-15
1e-15
1e-15
1e-15
2.70995e-15
2.73991e-15
2.75009e-15
2.76191e-15
2.77514e-15
2.78956e-15
2.80488e-15
2.82082e-15
2.83708e-15
2.85333e-15
2.86931e-15
2.88463e-15
2.89886e-15
2.88742e-15
1e-15
1e-15
1e-15
1e-15
1e-15
1e-15
1.20606e-15
1.21131e-15
1.21498e-15
1.21925e-15
1.22404e-15
1.22927e-15
1.23485e-15
1.24068e-15
1.24664e-15
1.25264e-15
1.25857e-15
1.26426e-15
1.26953e-15
1.27116e-15
1e-15
1e-15
1e-15
1e-15
1e-15
1e-15
1.11753e-15
1.12072e-15
1.12328e-15
1.12627e-15
1.12963e-15
1.13332e-15
1.13726e-15
1.14138e-15
1.14562e-15
1.14989e-15
1.15411e-15
1.15816e-15
1.16193e-15
1.16367e-15
1e-15
1e-15
1e-15
1e-15
1e-15
1e-15
1.16008e-15
1.16344e-15
1.16609e-15
1.1692e-15
1.17271e-15
1.17656e-15
1.1807e-15
1.18504e-15
1.18951e-15
1.19403e-15
1.19851e-15
1.20286e-15
1.20694e-15
1.20896e-15
1e-15
1e-15
1e-15
1e-15
1e-15
1e-15
1.23516e-15
1.23781e-15
1.23939e-15
1.24135e-15
1.24345e-15
1.24577e-15
1.24826e-15
1.25088e-15
1.25359e-15
1.25634e-15
1.25907e-15
1.26173e-15
1.26425e-15
1.26495e-15
1e-15
1e-15
1e-15
1e-15
1e-15
1e-15
1.33552e-15
1.33846e-15
1.34031e-15
1.3425e-15
1.34498e-15
1.34771e-15
1.35066e-15
1.35377e-15
1.357e-15
1.36034e-15
1.3637e-15
1.36701e-15
1.37018e-15
1.37146e-15
1e-15
1e-15
1e-15
1e-15
1e-15
1e-15
1.47496e-15
1.47837e-15
1.48074e-15
1.48354e-15
1.48673e-15
1.49025e-15
1.49406e-15
1.49808e-15
1.50226e-15
1.50654e-15
1.51087e-15
1.51517e-15
1.51935e-15
1.52159e-15
1e-15
1e-15
1e-15
1e-15
1e-15
1e-15
2.90796e-15
2.91495e-15
2.91823e-15
2.92211e-15
2.92654e-15
2.93145e-15
2.93677e-15
2.94243e-15
2.94834e-15
2.95443e-15
2.96063e-15
2.96686e-15
2.97302e-15
2.9744e-15
1e-15
1e-15
1e-15
1e-15
1e-15
1.00001e-15
6.20676e-13
6.21759e-13
6.21347e-13
6.20871e-13
6.20341e-13
6.1977e-13
6.19171e-13
6.18556e-13
6.17939e-13
6.17333e-13
6.16748e-13
6.16195e-13
6.15687e-13
6.13831e-13
1.00001e-15
1e-15
1e-15
1.00005e-15
1.00004e-15
1.35602e-14
1.91888e-13
1.9184e-13
1.91778e-13
1.91704e-13
1.9162e-13
1.91527e-13
1.91426e-13
1.9132e-13
1.91209e-13
1.91097e-13
1.90984e-13
1.90873e-13
1.90767e-13
1.90665e-13
1.35187e-14
1.00004e-15
1.00005e-15
2.97404e-13
1.03241e-14
7.18032e-14
7.39429e-14
7.39403e-14
7.39369e-14
7.39327e-14
7.39278e-14
7.39221e-14
7.39157e-14
7.39087e-14
7.39012e-14
7.38932e-14
7.3885e-14
7.38765e-14
7.3868e-14
7.38598e-14
7.1708e-14
1.02385e-14
2.98847e-13
1.87927e-08
1.73297e-08
2.02875e-08
2.02969e-08
2.02928e-08
2.02877e-08
2.02817e-08
2.02748e-08
2.02671e-08
2.02589e-08
2.02502e-08
2.02411e-08
2.02319e-08
2.02227e-08
2.02137e-08
2.02049e-08
2.01967e-08
2.01769e-08
1.7225e-08
1.86491e-08
6.64519e-09
6.05312e-09
7.15421e-09
7.15893e-09
7.15839e-09
7.15768e-09
7.15686e-09
7.15595e-09
7.15497e-09
7.15394e-09
7.15288e-09
7.15182e-09
7.15076e-09
7.14973e-09
7.14875e-09
7.14781e-09
7.14692e-09
7.141e-09
6.04084e-09
6.628e-09
7.87831e-14
2.40496e-15
1.12036e-14
1.14944e-14
1.14936e-14
1.14935e-14
1.14935e-14
1.14934e-14
1.14934e-14
1.14933e-14
1.14932e-14
1.14931e-14
1.14938e-14
1.14937e-14
1.14936e-14
1.14935e-14
1.14934e-14
1.12023e-14
2.40206e-15
7.95055e-14
1.00002e-15
1.00001e-15
3.97673e-15
2.91435e-14
2.91409e-14
2.91377e-14
2.91339e-14
2.91297e-14
2.91251e-14
2.91203e-14
2.91153e-14
2.91103e-14
2.91052e-14
2.91003e-14
2.90956e-14
2.90913e-14
2.90866e-14
3.96934e-15
1.00001e-15
1.00002e-15
1e-15
1e-15
1e-15
1.83444e-13
1.84412e-13
1.84458e-13
1.84511e-13
1.84571e-13
1.84635e-13
1.84702e-13
1.84772e-13
1.84842e-13
1.84912e-13
1.8498e-13
1.85046e-13
1.8511e-13
1.84235e-13
1e-15
1e-15
1e-15
1e-15
1e-15
1e-15
3.9359e-14
3.97034e-14
3.97597e-14
3.98246e-14
3.98963e-14
3.99733e-14
4.00538e-14
4.01359e-14
4.02178e-14
4.02983e-14
4.03761e-14
4.04519e-14
4.05213e-14
4.02796e-14
1e-15
1e-15
1e-15
1e-15
1e-15
1e-15
1.02984e-15
1.03338e-15
1.03746e-15
1.04215e-15
1.04734e-15
1.05297e-15
1.05887e-15
1.0649e-15
1.07095e-15
1.07692e-15
1.08265e-15
1.08808e-15
1.09309e-15
1.09695e-15
1e-15
1e-15
1e-15
1e-15
1e-15
1e-15
1e-15
1e-15
1e-15
1e-15
1e-15
1e-15
1.00209e-15
1.00635e-15
1.01064e-15
1.01488e-15
1.019e-15
1.02289e-15
1.02646e-15
1.02936e-15
1e-15
1e-15
1e-15
1e-15
1e-15
1e-15
1.50803e-15
1.51833e-15
1.52558e-15
1.53393e-15
1.54321e-15
1.55322e-15
1.56379e-15
1.5747e-15
1.58574e-15
1.59671e-15
1.60739e-15
1.61756e-15
1.62697e-15
1.62994e-15
1e-15
1e-15
1e-15
1e-15
1e-15
1e-15
2.63709e-15
2.6623e-15
2.67353e-15
2.68647e-15
2.70087e-15
2.71644e-15
2.73288e-15
2.74989e-15
2.76715e-15
2.78435e-15
2.80111e-15
2.81706e-15
2.83177e-15
2.82685e-15
1e-15
1e-15
1e-15
1e-15
1e-15
1e-15
1.04057e-15
1.04217e-15
1.04369e-15
1.04544e-15
1.04738e-15
1.04949e-15
1.05173e-15
1.05404e-15
1.0564e-15
1.05875e-15
1.06303e-15
1.06713e-15
1.07088e-15
1.07353e-15
1e-15
1e-15
1e-15
1e-15
1e-15
1e-15
1.01766e-15
1.01903e-15
1.02053e-15
1.02226e-15
1.02418e-15
1.02627e-15
1.02848e-15
1.03078e-15
1.03312e-15
1.03546e-15
1.03774e-15
1.0399e-15
1.04188e-15
1.04326e-15
1e-15
1e-15
1e-15
1e-15
1e-15
1e-15
1.02925e-15
1.0307e-15
1.03225e-15
1.03404e-15
1.03603e-15
1.0382e-15
1.0405e-15
1.04288e-15
1.04531e-15
1.04775e-15
1.05013e-15
1.05241e-15
1.05451e-15
1.05599e-15
1e-15
1e-15
1e-15
1e-15
1e-15
1e-15
1.02078e-15
1.02227e-15
1.02397e-15
1.02594e-15
1.02814e-15
1.03053e-15
1.03306e-15
1.0357e-15
1.03839e-15
1.0411e-15
1.04375e-15
1.04631e-15
1.04871e-15
1.05059e-15
1e-15
1e-15
1e-15
1e-15
1e-15
1e-15
1e-15
1e-15
1e-15
1.00001e-15
1.00001e-15
1.00001e-15
1.00001e-15
1.00001e-15
1.00016e-15
1.00339e-15
1.00658e-15
1.00968e-15
1.01262e-15
1.01525e-15
1e-15
1e-15
1e-15
1e-15
1e-15
1e-15
1e-15
1e-15
1e-15
1e-15
1e-15
1e-15
1e-15
1e-15
1e-15
1e-15
1e-15
1e-15
1e-15
1e-15
1e-15
1e-15
1e-15
1e-15
1e-15
1e-15
5.07655e-15
5.09535e-15
5.10055e-15
5.10662e-15
5.11349e-15
5.12106e-15
5.12924e-15
5.13793e-15
5.14701e-15
5.15641e-15
5.16604e-15
5.17579e-15
5.1855e-15
5.17983e-15
1e-15
1e-15
1e-15
1e-15
1e-15
1.00001e-15
5.25007e-13
5.26284e-13
5.26038e-13
5.25754e-13
5.25439e-13
5.251e-13
5.24746e-13
5.24385e-13
5.24024e-13
5.2367e-13
5.2333e-13
5.23011e-13
5.22718e-13
5.20988e-13
1e-15
1e-15
1e-15
1.00006e-15
1.00004e-15
1.25963e-14
1.46114e-13
1.46081e-13
1.46038e-13
1.45989e-13
1.45932e-13
1.45871e-13
1.45804e-13
1.45735e-13
1.45663e-13
1.4559e-13
1.45518e-13
1.45447e-13
1.45379e-13
1.45315e-13
1.25316e-14
1.00004e-15
1.00006e-15
4.06646e-13
7.36271e-15
3.9674e-14
4.07665e-14
4.07671e-14
4.07677e-14
4.07684e-14
4.0769e-14
4.07697e-14
4.07702e-14
4.07707e-14
4.07711e-14
4.07713e-14
4.07714e-14
4.07713e-14
4.0771e-14
4.07706e-14
3.96759e-14
7.33183e-15
4.07938e-13
1.88977e-08
1.67387e-08
1.96179e-08
1.96291e-08
1.96261e-08
1.96222e-08
1.96178e-08
1.96127e-08
1.96071e-08
1.96012e-08
1.95949e-08
1.95885e-08
1.9582e-08
1.95756e-08
1.95693e-08
1.95633e-08
1.95577e-08
1.95392e-08
1.66652e-08
1.87966e-08
6.24971e-09
5.58816e-09
6.63798e-09
6.6429e-09
6.64256e-09
6.64212e-09
6.6416e-09
6.64104e-09
6.64044e-09
6.63981e-09
6.63917e-09
6.63853e-09
6.6379e-09
6.63729e-09
6.63671e-09
6.63616e-09
6.6356e-09
6.62995e-09
5.58076e-09
6.23934e-09
1.19991e-13
2.16759e-15
8.93616e-15
9.16147e-15
9.16135e-15
9.16118e-15
9.16099e-15
9.16077e-15
9.16052e-15
9.16026e-15
9.15999e-15
9.1597e-15
9.15942e-15
9.15913e-15
9.15886e-15
9.15859e-15
9.15833e-15
8.93265e-15
2.16556e-15
1.20654e-13
1.00011e-15
1.00001e-15
3.59633e-15
2.48858e-14
2.48849e-14
2.48837e-14
2.48822e-14
2.48806e-14
2.48789e-14
2.48771e-14
2.48752e-14
2.48733e-14
2.48714e-14
2.48696e-14
2.48679e-14
2.48663e-14
2.48655e-14
3.59117e-15
1.00001e-15
1.00011e-15
1e-15
1e-15
1.00002e-15
1.85893e-13
1.86989e-13
1.87022e-13
1.8706e-13
1.87103e-13
1.87149e-13
1.87197e-13
1.87246e-13
1.87296e-13
1.87344e-13
1.87392e-13
1.87439e-13
1.87486e-13
1.8646e-13
1.00002e-15
1e-15
1e-15
1e-15
1e-15
1e-15
5.21931e-14
5.26421e-14
5.26867e-14
5.27378e-14
5.2794e-14
5.28538e-14
5.29158e-14
5.29788e-14
5.30417e-14
5.31032e-14
5.31627e-14
5.32176e-14
5.32712e-14
5.29012e-14
1e-15
1e-15
1e-15
1e-15
1e-15
1e-15
1.03074e-15
1.03372e-15
1.03709e-15
1.04095e-15
1.04522e-15
1.04979e-15
1.05456e-15
1.05943e-15
1.06431e-15
1.0691e-15
1.07375e-15
1.07816e-15
1.08225e-15
1.08545e-15
1e-15
1e-15
1e-15
1e-15
1e-15
1e-15
1e-15
1e-15
1e-15
1e-15
1e-15
1e-15
1e-15
1e-15
1e-15
1e-15
1e-15
1e-15
1e-15
1e-15
1e-15
1e-15
1e-15
1e-15
1e-15
1e-15
1.66161e-15
1.67328e-15
1.68132e-15
1.69052e-15
1.70069e-15
1.71191e-15
1.72542e-15
1.73928e-15
1.75321e-15
1.76694e-15
1.7802e-15
1.79274e-15
1.80429e-15
1.80842e-15
1e-15
1e-15
1e-15
1e-15
1e-15
1e-15
2.5026e-15
2.52394e-15
2.5348e-15
2.5472e-15
2.5609e-15
2.57559e-15
2.591e-15
2.60679e-15
2.62268e-15
2.63832e-15
2.6534e-15
2.66753e-15
2.68027e-15
2.67748e-15
1e-15
1e-15
1e-15
1e-15
1e-15
1e-15
1.00017e-15
1.00018e-15
1.00018e-15
1.00018e-15
1.00018e-15
1.00018e-15
1.00018e-15
1.00018e-15
1.00018e-15
1.00019e-15
1.00019e-15
1.00019e-15
1.00019e-15
1.00019e-15
1e-15
1e-15
1e-15
1e-15
1e-15
1e-15
1e-15
1e-15
1e-15
1e-15
1e-15
1e-15
1e-15
1e-15
1e-15
1e-15
1e-15
1e-15
1e-15
1e-15
1e-15
1e-15
1e-15
1e-15
1e-15
1e-15
1e-15
1e-15
1e-15
1e-15
1e-15
1e-15
1e-15
1e-15
1e-15
1e-15
1e-15
1e-15
1e-15
1e-15
1e-15
1e-15
1e-15
1e-15
1e-15
1e-15
1e-15
1e-15
1e-15
1e-15
1e-15
1e-15
1e-15
1e-15
1e-15
1e-15
1e-15
1e-15
1e-15
1e-15
1e-15
1e-15
1e-15
1e-15
1e-15
1e-15
1e-15
1e-15
1e-15
1e-15
1e-15
1e-15
1e-15
1e-15
1e-15
1e-15
1e-15
1e-15
1e-15
1e-15
1e-15
1e-15
1e-15
1e-15
1e-15
1e-15
1e-15
1e-15
1e-15
1e-15
1e-15
1e-15
1e-15
1e-15
1e-15
1e-15
1e-15
1e-15
1e-15
1e-15
1e-15
1e-15
1e-15
1e-15
1e-15
1e-15
1.44089e-14
1.448e-14
1.44905e-14
1.45024e-14
1.45154e-14
1.45294e-14
1.45439e-14
1.45589e-14
1.45739e-14
1.45888e-14
1.46034e-14
1.46176e-14
1.46309e-14
1.45796e-14
1e-15
1e-15
1e-15
1e-15
1e-15
1.00001e-15
4.94354e-13
4.95943e-13
4.95831e-13
4.95703e-13
4.95561e-13
4.9541e-13
4.95252e-13
4.95092e-13
4.94933e-13
4.94778e-13
4.94631e-13
4.94494e-13
4.94369e-13
4.92582e-13
1e-15
1e-15
1e-15
1.00005e-15
1.00003e-15
1.164e-14
1.13244e-13
1.13224e-13
1.13198e-13
1.13168e-13
1.13134e-13
1.13097e-13
1.13058e-13
1.13017e-13
1.12974e-13
1.12932e-13
1.1289e-13
1.12849e-13
1.12809e-13
1.12772e-13
1.16033e-14
1.00003e-15
1.00006e-15
4.73713e-13
5.57322e-15
2.52382e-14
2.58927e-14
2.58937e-14
2.58949e-14
2.58963e-14
2.58979e-14
2.58995e-14
2.59011e-14
2.59028e-14
2.59044e-14
2.5906e-14
2.59073e-14
2.59086e-14
2.59096e-14
2.59104e-14
2.52558e-14
5.56166e-15
4.74752e-13
1.77323e-08
1.53457e-08
1.80381e-08
1.80502e-08
1.80483e-08
1.80458e-08
1.80429e-08
1.80396e-08
1.80361e-08
1.80324e-08
1.80285e-08
1.80246e-08
1.80206e-08
1.80167e-08
1.8013e-08
1.80094e-08
1.80062e-08
1.79898e-08
1.53006e-08
1.76678e-08
5.96604e-09
5.23351e-09
6.24926e-09
6.25431e-09
6.25406e-09
6.25373e-09
6.25335e-09
6.25293e-09
6.25249e-09
6.25203e-09
6.25157e-09
6.25112e-09
6.25067e-09
6.25025e-09
6.24984e-09
6.24946e-09
6.24906e-09
6.24348e-09
5.22821e-09
5.9586e-09
1.50765e-13
1.15448e-14
2.01064e-14
2.03352e-14
2.03366e-14
2.03381e-14
2.034e-14
2.0342e-14
2.03442e-14
2.03466e-14
2.0349e-14
2.03515e-14
2.03539e-14
2.03564e-14
2.03588e-14
2.03613e-14
2.03641e-14
2.01395e-14
1.15726e-14
1.51353e-13
1.0012e-15
1.00004e-15
3.27053e-15
2.23846e-14
2.23842e-14
2.23837e-14
2.2383e-14
2.23822e-14
2.23814e-14
2.23805e-14
2.23797e-14
2.23788e-14
2.23779e-14
2.23771e-14
2.23764e-14
2.23757e-14
2.23751e-14
3.26686e-15
1.00004e-15
1.0013e-15
1e-15
1e-15
1.00005e-15
1.68378e-13
1.69451e-13
1.69461e-13
1.69472e-13
1.69485e-13
1.69498e-13
1.69512e-13
1.69526e-13
1.69541e-13
1.69554e-13
1.69569e-13
1.69585e-13
1.69603e-13
1.68556e-13
1.00005e-15
1e-15
1e-15
1e-15
1e-15
1e-15
5.7455e-14
5.79372e-14
5.79585e-14
5.79827e-14
5.80091e-14
5.8037e-14
5.80658e-14
5.80947e-14
5.81237e-14
5.81521e-14
5.81803e-14
5.82083e-14
5.82362e-14
5.77957e-14
1e-15
1e-15
1e-15
1e-15
1e-15
1e-15
1.11548e-15
1.11834e-15
1.12099e-15
1.12402e-15
1.12735e-15
1.13092e-15
1.13462e-15
1.13839e-15
1.14216e-15
1.14586e-15
1.14946e-15
1.15292e-15
1.15618e-15
1.15834e-15
1e-15
1e-15
1e-15
1e-15
1e-15
1e-15
1.00001e-15
1.00001e-15
1.00001e-15
1.00001e-15
1.00001e-15
1.00001e-15
1.00001e-15
1.00001e-15
1.00001e-15
1.00003e-15
1.00004e-15
1.00005e-15
1.00006e-15
1.00007e-15
1e-15
1e-15
1e-15
1e-15
1e-15
1e-15
2.04111e-15
2.05778e-15
2.06872e-15
2.08118e-15
2.09489e-15
2.10951e-15
2.12475e-15
2.14025e-15
2.1557e-15
2.17076e-15
2.18519e-15
2.19868e-15
2.21102e-15
2.21314e-15
1e-15
1e-15
1e-15
1e-15
1e-15
1e-15
2.6314e-15
2.65189e-15
2.66186e-15
2.67316e-15
2.68554e-15
2.6987e-15
2.71238e-15
2.72625e-15
2.74004e-15
2.75338e-15
2.76599e-15
2.77748e-15
2.78747e-15
2.78243e-15
1e-15
1e-15
1e-15
1e-15
1e-15
1e-15
1.00022e-15
1.00022e-15
1.00022e-15
1.00022e-15
1.00022e-15
1.00023e-15
1.00023e-15
1.00023e-15
1.00023e-15
1.00023e-15
1.00023e-15
1.00024e-15
1.00024e-15
1.00024e-15
1e-15
1e-15
1e-15
1e-15
1e-15
1e-15
1e-15
1e-15
1e-15
1e-15
1e-15
1e-15
1e-15
1e-15
1e-15
1e-15
1e-15
1e-15
1e-15
1e-15
1e-15
1e-15
1e-15
1e-15
1e-15
1e-15
1e-15
1e-15
1e-15
1e-15
1e-15
1e-15
1e-15
1e-15
1e-15
1e-15
1e-15
1e-15
1e-15
1e-15
1e-15
1e-15
1e-15
1e-15
1e-15
1e-15
1e-15
1e-15
1e-15
1e-15
1e-15
1e-15
1e-15
1e-15
1e-15
1e-15
1e-15
1e-15
1e-15
1e-15
1e-15
1e-15
1e-15
1e-15
1e-15
1e-15
1e-15
1e-15
1e-15
1e-15
1e-15
1e-15
1e-15
1e-15
1e-15
1e-15
1e-15
1e-15
1e-15
1e-15
1e-15
1e-15
1e-15
1e-15
1e-15
1e-15
1e-15
1e-15
1e-15
1e-15
1e-15
1e-15
1e-15
1e-15
1e-15
1e-15
1e-15
1e-15
1e-15
1e-15
1e-15
1e-15
1e-15
1e-15
1e-15
1e-15
2.89765e-14
2.91442e-14
2.91641e-14
2.9186e-14
2.92093e-14
2.92333e-14
2.92574e-14
2.92808e-14
2.93029e-14
2.93231e-14
2.93408e-14
2.93557e-14
2.93671e-14
2.92214e-14
1e-15
1e-15
1e-15
1e-15
1e-15
1.00001e-15
4.73836e-13
4.75706e-13
4.7567e-13
4.75627e-13
4.75579e-13
4.75527e-13
4.75474e-13
4.75419e-13
4.75364e-13
4.75311e-13
4.7526e-13
4.75211e-13
4.75166e-13
4.73222e-13
1e-15
1e-15
1e-15
1.00005e-15
1.00003e-15
1.06746e-14
9.06721e-14
9.06607e-14
9.06462e-14
9.06295e-14
9.06108e-14
9.05906e-14
9.05691e-14
9.05469e-14
9.05243e-14
9.05017e-14
9.04794e-14
9.04577e-14
9.0437e-14
9.04177e-14
1.0649e-14
1.00003e-15
1.00005e-15
5.10756e-13
4.54598e-15
1.82714e-14
1.87244e-14
1.87253e-14
1.87264e-14
1.87277e-14
1.87291e-14
1.87306e-14
1.87322e-14
1.87338e-14
1.87354e-14
1.87369e-14
1.87384e-14
1.87397e-14
1.87408e-14
1.87417e-14
1.82892e-14
4.54166e-15
5.11541e-13
1.65269e-08
1.40426e-08
1.65634e-08
1.65758e-08
1.65746e-08
1.65731e-08
1.65713e-08
1.65694e-08
1.65673e-08
1.65651e-08
1.65629e-08
1.65606e-08
1.65584e-08
1.65563e-08
1.65543e-08
1.65525e-08
1.65508e-08
1.65361e-08
1.40171e-08
1.64891e-08
5.68323e-09
4.8959e-09
5.87893e-09
5.88413e-09
5.88393e-09
5.88364e-09
5.88332e-09
5.88297e-09
5.8826e-09
5.88222e-09
5.88185e-09
5.88148e-09
5.88112e-09
5.88078e-09
5.88046e-09
5.88015e-09