/*--------------------------------*- C++ -*----------------------------------*\
| =========                 |                                                 |
| \\      /  F ield         | OpenFOAM: The Open Source CFD Toolbox           |
|  \\    /   O peration     | Version:  2212                                  |
|   \\  /    A nd           | Website:  www.openfoam.com                      |
|    \\/     M anipulation  |                                                 |
\*---------------------------------------------------------------------------*/
FoamFile
{
    version     2.0;
    format      ascii;
    arch        "LSB;label=32;scalar=64";
    class       volScalarField;
    location    "0.001";
    object      pMean;
}
// * * * * * * * * * * * * * * * * * * * * * * * * * * * * * * * * * * * * * //

dimensions      [0 2 -2 0 0 0 0];

internalField   nonuniform List<scalar> 
24240
(
1402.77
1402.77
1402.77
1402.77
1402.78
1402.78
1402.78
1402.79
1402.79
1402.8
1402.8
1402.81
1402.82
1402.82
1402.83
1402.83
1402.84
1402.84
1402.84
1402.84
1180.36
1180.36
1180.36
1180.36
1180.36
1180.36
1180.36
1180.36
1180.36
1180.36
1180.36
1180.36
1180.35
1180.35
1180.35
1180.35
1180.35
1180.35
1180.35
1180.35
1160.41
1160.41
1160.41
1160.41
1160.41
1160.42
1160.42
1160.43
1160.44
1160.44
1160.45
1160.46
1160.46
1160.47
1160.48
1160.48
1160.49
1160.5
1160.5
1160.5
1119.7
1119.7
1119.7
1119.69
1119.69
1119.69
1119.69
1119.68
1119.68
1119.68
1119.67
1119.67
1119.67
1119.66
1119.66
1119.66
1119.65
1119.65
1119.65
1119.65
1097.92
1097.92
1097.92
1097.92
1097.92
1097.91
1097.91
1097.91
1097.9
1097.9
1097.9
1097.89
1097.89
1097.88
1097.88
1097.88
1097.87
1097.87
1097.87
1097.87
1084.09
1084.09
1084.09
1084.08
1084.08
1084.08
1084.07
1084.07
1084.06
1084.06
1084.05
1084.05
1084.04
1084.04
1084.03
1084.03
1084.03
1084.02
1084.02
1084.02
1075.25
1075.25
1075.25
1075.25
1075.25
1075.24
1075.24
1075.23
1075.23
1075.22
1075.22
1075.21
1075.2
1075.2
1075.19
1075.19
1075.18
1075.18
1075.18
1075.17
1070.67
1070.67
1070.67
1070.66
1070.66
1070.66
1070.65
1070.65
1070.64
1070.64
1070.63
1070.62
1070.62
1070.61
1070.61
1070.6
1070.59
1070.59
1070.59
1070.58
1067.56
1067.56
1067.56
1067.55
1067.55
1067.55
1067.54
1067.54
1067.54
1067.53
1067.53
1067.52
1067.51
1067.51
1067.5
1067.5
1067.49
1067.49
1067.49
1067.49
1067.32
1067.32
1067.32
1067.32
1067.31
1067.31
1067.31
1067.3
1067.3
1067.3
1067.29
1067.29
1067.28
1067.28
1067.27
1067.27
1067.26
1067.26
1067.26
1067.26
1069.16
1069.16
1069.16
1069.16
1069.16
1069.16
1069.15
1069.15
1069.15
1069.14
1069.14
1069.13
1069.13
1069.12
1069.12
1069.12
1069.11
1069.11
1069.11
1069.1
1073.35
1073.35
1073.35
1073.35
1073.35
1073.35
1073.34
1073.34
1073.34
1073.34
1073.33
1073.33
1073.32
1073.32
1073.32
1073.31
1073.31
1073.31
1073.3
1073.3
1080.2
1080.2
1080.2
1080.2
1080.2
1080.2
1080.2
1080.2
1080.2
1080.19
1080.19
1080.19
1080.18
1080.18
1080.18
1080.17
1080.17
1080.17
1080.17
1080.16
1090.43
1090.43
1090.43
1090.43
1090.43
1090.43
1090.43
1090.43
1090.43
1090.43
1090.43
1090.43
1090.42
1090.42
1090.42
1090.42
1090.41
1090.41
1090.41
1090.41
1105.38
1105.38
1105.38
1105.38
1105.38
1105.38
1105.38
1105.38
1105.38
1105.38
1105.38
1105.38
1105.38
1105.38
1105.38
1105.38
1105.37
1105.37
1105.37
1105.37
1127.48
1127.48
1127.48
1127.48
1127.48
1127.49
1127.49
1127.49
1127.5
1127.5
1127.5
1127.5
1127.51
1127.51
1127.51
1127.51
1127.51
1127.51
1127.51
1127.51
1161.45
1161.46
1161.46
1161.46
1161.46
1161.47
1161.48
1161.48
1161.49
1161.5
1161.5
1161.51
1161.52
1161.52
1161.53
1161.53
1161.54
1161.54
1161.54
1161.54
1220.17
1220.18
1220.18
1220.19
1220.2
1220.21
1220.23
1220.25
1220.27
1220.29
1220.32
1220.34
1220.36
1220.39
1220.41
1220.43
1220.45
1220.47
1220.48
1220.49
1255.49
1255.49
1255.49
1255.49
1255.5
1255.5
1255.51
1255.52
1255.52
1255.53
1255.54
1255.54
1255.55
1255.56
1255.56
1255.57
1255.57
1255.57
1255.58
1255.57
1605.19
1605.19
1605.2
1605.2
1605.21
1605.22
1605.23
1605.25
1605.27
1605.28
1605.3
1605.32
1605.34
1605.36
1605.38
1605.39
1605.41
1605.42
1605.43
1605.43
3702.3
3702.3
3702.31
3702.31
3702.32
3702.33
3702.34
3702.35
3702.37
3702.38
3702.4
3702.41
3702.43
3702.45
3702.46
3702.47
3702.49
3702.5
3702.51
3702.51
3395.27
3395.27
3395.26
3395.26
3395.26
3395.25
3395.24
3395.23
3395.22
3395.21
3395.2
3395.19
3395.18
3395.17
3395.16
3395.15
3395.14
3395.14
3395.13
3395.12
3385.29
3385.29
3385.29
3385.3
3385.3
3385.3
3385.31
3385.32
3385.32
3385.33
3385.34
3385.35
3385.35
3385.36
3385.37
3385.38
3385.38
3385.39
3385.4
3385.4
3303.44
3303.44
3303.44
3303.44
3303.43
3303.43
3303.42
3303.42
3303.41
3303.4
3303.4
3303.39
3303.38
3303.38
3303.37
3303.36
3303.36
3303.35
3303.35
3303.35
3261
3261
3261
3260.99
3260.99
3260.99
3260.98
3260.98
3260.97
3260.96
3260.96
3260.95
3260.94
3260.94
3260.93
3260.93
3260.92
3260.92
3260.91
3260.91
3229.56
3229.56
3229.55
3229.55
3229.54
3229.54
3229.53
3229.52
3229.51
3229.51
3229.5
3229.49
3229.48
3229.47
3229.46
3229.45
3229.44
3229.44
3229.43
3229.43
3209.16
3209.16
3209.16
3209.16
3209.15
3209.14
3209.14
3209.13
3209.12
3209.11
3209.1
3209.09
3209.08
3209.07
3209.06
3209.05
3209.05
3209.04
3209.03
3209.03
3196.22
3196.22
3196.22
3196.21
3196.21
3196.2
3196.19
3196.18
3196.17
3196.16
3196.15
3196.13
3196.12
3196.11
3196.1
3196.09
3196.08
3196.07
3196.06
3196.06
3189.73
3189.73
3189.73
3189.72
3189.72
3189.71
3189.7
3189.7
3189.69
3189.68
3189.67
3189.66
3189.64
3189.63
3189.62
3189.62
3189.61
3189.6
3189.59
3189.59
3189.77
3189.77
3189.77
3189.77
3189.76
3189.76
3189.75
3189.74
3189.73
3189.73
3189.72
3189.71
3189.7
3189.69
3189.68
3189.67
3189.66
3189.66
3189.65
3189.65
3195.78
3195.78
3195.78
3195.77
3195.77
3195.77
3195.76
3195.76
3195.75
3195.74
3195.73
3195.73
3195.72
3195.71
3195.7
3195.69
3195.69
3195.68
3195.68
3195.67
3208.13
3208.13
3208.13
3208.13
3208.13
3208.13
3208.12
3208.12
3208.11
3208.11
3208.1
3208.09
3208.09
3208.08
3208.07
3208.07
3208.06
3208.06
3208.05
3208.05
3227.55
3227.55
3227.55
3227.55
3227.55
3227.55
3227.54
3227.54
3227.54
3227.54
3227.53
3227.53
3227.52
3227.52
3227.51
3227.51
3227.5
3227.5
3227.5
3227.49
3255.39
3255.39
3255.39
3255.39
3255.39
3255.39
3255.39
3255.39
3255.39
3255.39
3255.39
3255.39
3255.38
3255.38
3255.38
3255.38
3255.37
3255.37
3255.37
3255.37
3293.88
3293.88
3293.89
3293.89
3293.89
3293.89
3293.9
3293.9
3293.9
3293.91
3293.91
3293.91
3293.91
3293.92
3293.92
3293.92
3293.92
3293.92
3293.92
3293.92
3346.62
3346.62
3346.62
3346.63
3346.63
3346.64
3346.65
3346.66
3346.66
3346.67
3346.68
3346.69
3346.7
3346.71
3346.71
3346.72
3346.73
3346.73
3346.73
3346.73
3418.7
3418.7
3418.7
3418.71
3418.72
3418.73
3418.74
3418.76
3418.77
3418.79
3418.8
3418.82
3418.84
3418.85
3418.87
3418.88
3418.89
3418.9
3418.9
3418.91
3533.53
3533.53
3533.54
3533.55
3533.57
3533.59
3533.62
3533.64
3533.68
3533.71
3533.74
3533.78
3533.81
3533.85
3533.88
3533.91
3533.94
3533.96
3533.98
3533.99
3563.15
3563.15
3563.16
3563.16
3563.16
3563.17
3563.17
3563.18
3563.18
3563.18
3563.19
3563.19
3563.19
3563.19
3563.19
3563.19
3563.19
3563.19
3563.19
3563.18
4030.56
4030.56
4030.57
4030.59
4030.6
4030.63
4030.65
4030.68
4030.72
4030.75
4030.79
4030.83
4030.87
4030.91
4030.95
4030.98
4031.01
4031.04
4031.06
4031.07
5937.33
5937.33
5937.33
5937.34
5937.35
5937.35
5937.36
5937.37
5937.38
5937.39
5937.41
5937.42
5937.43
5937.44
5937.45
5937.46
5937.47
5937.48
5937.49
5937.49
5579.75
5579.75
5579.75
5579.74
5579.74
5579.74
5579.73
5579.73
5579.72
5579.71
5579.71
5579.7
5579.7
5579.69
5579.68
5579.68
5579.67
5579.67
5579.66
5579.66
5578.12
5578.12
5578.12
5578.12
5578.12
5578.13
5578.13
5578.13
5578.14
5578.14
5578.14
5578.15
5578.15
5578.16
5578.16
5578.16
5578.17
5578.17
5578.17
5578.17
5458.71
5458.7
5458.7
5458.7
5458.69
5458.69
5458.68
5458.67
5458.66
5458.65
5458.65
5458.64
5458.63
5458.62
5458.61
5458.6
5458.59
5458.59
5458.58
5458.58
5407.17
5407.17
5407.17
5407.16
5407.16
5407.15
5407.15
5407.14
5407.13
5407.13
5407.12
5407.11
5407.1
5407.1
5407.09
5407.08
5407.08
5407.07
5407.07
5407.07
5361.42
5361.41
5361.41
5361.41
5361.4
5361.39
5361.38
5361.38
5361.36
5361.35
5361.34
5361.33
5361.32
5361.31
5361.3
5361.29
5361.28
5361.27
5361.27
5361.26
5331.91
5331.91
5331.9
5331.9
5331.89
5331.88
5331.87
5331.86
5331.85
5331.84
5331.83
5331.82
5331.8
5331.79
5331.78
5331.77
5331.76
5331.75
5331.75
5331.74
5312.38
5312.37
5312.37
5312.36
5312.36
5312.35
5312.34
5312.32
5312.31
5312.29
5312.28
5312.26
5312.25
5312.23
5312.22
5312.2
5312.19
5312.18
5312.17
5312.17
5303.39
5303.39
5303.39
5303.38
5303.37
5303.37
5303.36
5303.35
5303.33
5303.32
5303.31
5303.3
5303.28
5303.27
5303.26
5303.25
5303.23
5303.23
5303.22
5303.22
5304.28
5304.28
5304.27
5304.27
5304.27
5304.26
5304.25
5304.24
5304.23
5304.22
5304.21
5304.2
5304.19
5304.17
5304.16
5304.15
5304.14
5304.14
5304.13
5304.13
5314.67
5314.67
5314.66
5314.66
5314.66
5314.65
5314.65
5314.64
5314.63
5314.62
5314.61
5314.6
5314.59
5314.58
5314.57
5314.56
5314.56
5314.55
5314.54
5314.54
5334.97
5334.97
5334.97
5334.97
5334.97
5334.96
5334.96
5334.95
5334.95
5334.94
5334.93
5334.93
5334.92
5334.91
5334.91
5334.9
5334.89
5334.89
5334.88
5334.88
5366.13
5366.13
5366.13
5366.13
5366.13
5366.13
5366.13
5366.13
5366.12
5366.12
5366.12
5366.11
5366.11
5366.1
5366.1
5366.09
5366.09
5366.09
5366.08
5366.08
5409.79
5409.79
5409.79
5409.79
5409.8
5409.8
5409.8
5409.8
5409.8
5409.8
5409.8
5409.8
5409.8
5409.8
5409.8
5409.8
5409.8
5409.8
5409.79
5409.79
5468.45
5468.45
5468.45
5468.46
5468.46
5468.47
5468.47
5468.48
5468.48
5468.49
5468.5
5468.5
5468.51
5468.51
5468.51
5468.52
5468.52
5468.52
5468.52
5468.52
5545.81
5545.81
5545.82
5545.82
5545.83
5545.84
5545.85
5545.87
5545.88
5545.89
5545.91
5545.92
5545.93
5545.95
5545.96
5545.97
5545.98
5545.98
5545.99
5545.99
5645.21
5645.21
5645.22
5645.22
5645.24
5645.25
5645.26
5645.28
5645.3
5645.32
5645.34
5645.36
5645.38
5645.4
5645.41
5645.43
5645.44
5645.45
5645.46
5645.47
5801.94
5801.95
5801.96
5801.97
5801.99
5802.01
5802.04
5802.07
5802.11
5802.14
5802.18
5802.22
5802.25
5802.29
5802.32
5802.36
5802.39
5802.41
5802.43
5802.44
5840.97
5840.97
5840.98
5840.98
5840.99
5841
5841.01
5841.02
5841.03
5841.04
5841.05
5841.06
5841.07
5841.08
5841.08
5841.09
5841.09
5841.09
5841.09
5841.09
6360.44
6360.45
6360.46
6360.48
6360.5
6360.52
6360.55
6360.59
6360.62
6360.66
6360.7
6360.75
6360.79
6360.83
6360.87
6360.91
6360.94
6360.97
6360.99
6361
8112.83
8112.84
8112.84
8112.84
8112.85
8112.85
8112.86
8112.86
8112.87
8112.88
8112.89
8112.9
8112.91
8112.91
8112.92
8112.93
8112.93
8112.94
8112.94
8112.95
7726.75
7726.75
7726.75
7726.75
7726.75
7726.75
7726.74
7726.74
7726.74
7726.73
7726.73
7726.72
7726.72
7726.71
7726.71
7726.71
7726.7
7726.7
7726.7
7726.7
7737.74
7737.74
7737.74
7737.74
7737.74
7737.74
7737.74
7737.74
7737.74
7737.74
7737.74
7737.74
7737.74
7737.74
7737.75
7737.75
7737.75
7737.75
7737.75
7737.75
7584.02
7584.02
7584.02
7584.01
7584.01
7584
7583.99
7583.98
7583.97
7583.97
7583.96
7583.95
7583.94
7583.93
7583.92
7583.91
7583.9
7583.89
7583.89
7583.89
7533.99
7533.99
7533.99
7533.98
7533.98
7533.97
7533.97
7533.96
7533.95
7533.94
7533.93
7533.92
7533.91
7533.9
7533.9
7533.89
7533.88
7533.88
7533.87
7533.87
7475.12
7475.12
7475.12
7475.11
7475.11
7475.1
7475.09
7475.08
7475.07
7475.06
7475.04
7475.03
7475.02
7475.01
7475
7474.99
7474.98
7474.97
7474.96
7474.96
7437.86
7437.86
7437.85
7437.85
7437.84
7437.83
7437.82
7437.81
7437.79
7437.78
7437.76
7437.75
7437.74
7437.72
7437.71
7437.7
7437.69
7437.68
7437.67
7437.67
7414.46
7414.46
7414.46
7414.45
7414.44
7414.43
7414.42
7414.4
7414.39
7414.37
7414.35
7414.34
7414.32
7414.3
7414.28
7414.27
7414.26
7414.25
7414.24
7414.23
7404.12
7404.12
7404.12
7404.11
7404.1
7404.1
7404.08
7404.07
7404.06
7404.05
7404.03
7404.02
7404
7403.99
7403.97
7403.96
7403.95
7403.94
7403.93
7403.93
7406.35
7406.35
7406.35
7406.34
7406.34
7406.33
7406.32
7406.31
7406.3
7406.29
7406.28
7406.26
7406.25
7406.24
7406.23
7406.22
7406.21
7406.2
7406.19
7406.19
7421.09
7421.09
7421.08
7421.08
7421.08
7421.07
7421.06
7421.06
7421.05
7421.04
7421.03
7421.02
7421.01
7421
7420.99
7420.98
7420.97
7420.96
7420.96
7420.96
7448.71
7448.71
7448.71
7448.71
7448.7
7448.7
7448.7
7448.69
7448.68
7448.68
7448.67
7448.66
7448.66
7448.65
7448.64
7448.64
7448.63
7448.63
7448.62
7448.62
7490.23
7490.23
7490.23
7490.23
7490.22
7490.22
7490.22
7490.22
7490.22
7490.22
7490.21
7490.21
7490.21
7490.2
7490.2
7490.2
7490.19
7490.19
7490.19
7490.19
7547.28
7547.28
7547.28
7547.28
7547.29
7547.29
7547.29
7547.29
7547.3
7547.3
7547.3
7547.3
7547.3
7547.3
7547.3
7547.3
7547.3
7547.3
7547.3
7547.3
7622.23
7622.23
7622.23
7622.24
7622.24
7622.25
7622.25
7622.26
7622.27
7622.28
7622.29
7622.29
7622.3
7622.31
7622.31
7622.32
7622.32
7622.32
7622.33
7622.33
7718.43
7718.44
7718.44
7718.45
7718.46
7718.47
7718.48
7718.5
7718.51
7718.53
7718.54
7718.56
7718.58
7718.59
7718.6
7718.62
7718.63
7718.64
7718.64
7718.65
7835.65
7835.65
7835.65
7835.66
7835.67
7835.69
7835.7
7835.72
7835.74
7835.76
7835.78
7835.8
7835.81
7835.83
7835.85
7835.86
7835.87
7835.89
7835.89
7835.9
8024.61
8024.62
8024.63
8024.64
8024.66
8024.68
8024.71
8024.74
8024.77
8024.8
8024.84
8024.87
8024.91
8024.94
8024.97
8025
8025.03
8025.05
8025.07
8025.07
8065.01
8065.01
8065.02
8065.02
8065.03
8065.04
8065.06
8065.07
8065.09
8065.1
8065.12
8065.13
8065.15
8065.16
8065.17
8065.18
8065.19
8065.19
8065.2
8065.2
8607.3
8607.31
8607.32
8607.33
8607.36
8607.38
8607.41
8607.45
8607.48
8607.52
8607.56
8607.6
8607.64
8607.68
8607.72
8607.76
8607.79
8607.81
8607.83
8607.85
10244
10244
10244
10244
10244
10244
10244
10244
10244
10244
10244
10244
10244
10244
10244
10244
10244
10244
10244
10244
9839.3
9839.3
9839.3
9839.3
9839.3
9839.29
9839.29
9839.29
9839.28
9839.28
9839.28
9839.27
9839.27
9839.27
9839.26
9839.26
9839.26
9839.25
9839.25
9839.25
9863.6
9863.6
9863.6
9863.6
9863.59
9863.59
9863.59
9863.59
9863.58
9863.58
9863.58
9863.58
9863.57
9863.57
9863.57
9863.57
9863.57
9863.57
9863.56
9863.56
9682.16
9682.15
9682.15
9682.15
9682.14
9682.14
9682.13
9682.12
9682.11
9682.1
9682.09
9682.08
9682.07
9682.06
9682.05
9682.05
9682.04
9682.03
9682.03
9682.02
9635.78
9635.78
9635.78
9635.77
9635.77
9635.76
9635.75
9635.74
9635.73
9635.72
9635.71
9635.7
9635.69
9635.68
9635.67
9635.67
9635.66
9635.65
9635.65
9635.64
9568.13
9568.13
9568.13
9568.12
9568.12
9568.11
9568.1
9568.09
9568.08
9568.07
9568.05
9568.04
9568.03
9568.02
9568.01
9568
9567.99
9567.98
9567.98
9567.98
9525.31
9525.31
9525.3
9525.3
9525.29
9525.28
9525.27
9525.25
9525.24
9525.22
9525.21
9525.19
9525.17
9525.16
9525.14
9525.13
9525.12
9525.11
9525.1
9525.1
9499.31
9499.3
9499.3
9499.29
9499.28
9499.27
9499.26
9499.24
9499.22
9499.21
9499.19
9499.17
9499.15
9499.14
9499.12
9499.1
9499.09
9499.08
9499.07
9499.07
9488.54
9488.54
9488.54
9488.53
9488.52
9488.51
9488.5
9488.49
9488.47
9488.46
9488.45
9488.43
9488.42
9488.4
9488.39
9488.38
9488.36
9488.36
9488.35
9488.35
9492.46
9492.46
9492.45
9492.45
9492.44
9492.43
9492.42
9492.41
9492.4
9492.39
9492.38
9492.37
9492.35
9492.34
9492.33
9492.32
9492.31
9492.3
9492.3
9492.29
9511.32
9511.32
9511.32
9511.32
9511.31
9511.31
9511.3
9511.29
9511.28
9511.27
9511.26
9511.25
9511.25
9511.24
9511.23
9511.22
9511.21
9511.21
9511.2
9511.2
9545.45
9545.45
9545.44
9545.44
9545.44
9545.44
9545.43
9545.43
9545.42
9545.42
9545.41
9545.4
9545.4
9545.39
9545.39
9545.38
9545.38
9545.37
9545.37
9545.37
9595.78
9595.78
9595.78
9595.78
9595.78
9595.78
9595.78
9595.78
9595.78
9595.77
9595.77
9595.77
9595.77
9595.77
9595.76
9595.76
9595.76
9595.76
9595.75
9595.75
9663.81
9663.81
9663.81
9663.82
9663.82
9663.82
9663.82
9663.83
9663.83
9663.83
9663.83
9663.84
9663.84
9663.84
9663.84
9663.84
9663.84
9663.85
9663.85
9663.85
9751.57
9751.57
9751.58
9751.58
9751.59
9751.59
9751.6
9751.61
9751.62
9751.62
9751.63
9751.64
9751.65
9751.66
9751.66
9751.67
9751.67
9751.68
9751.68
9751.68
9862.01
9862.01
9862.02
9862.03
9862.04
9862.05
9862.06
9862.08
9862.09
9862.11
9862.13
9862.14
9862.16
9862.17
9862.19
9862.2
9862.21
9862.22
9862.23
9862.23
9989.71
9989.72
9989.72
9989.73
9989.74
9989.75
9989.76
9989.78
9989.8
9989.81
9989.83
9989.85
9989.86
9989.88
9989.89
9989.9
9989.91
9989.92
9989.93
9989.94
10204.2
10204.2
10204.2
10204.2
10204.2
10204.2
10204.2
10204.3
10204.3
10204.3
10204.4
10204.4
10204.4
10204.4
10204.5
10204.5
10204.5
10204.5
10204.5
10204.6
10240.5
10240.5
10240.5
10240.5
10240.5
10240.5
10240.5
10240.5
10240.6
10240.6
10240.6
10240.6
10240.6
10240.7
10240.7
10240.7
10240.7
10240.7
10240.7
10240.7
10795
10795
10795
10795
10795
10795
10795.1
10795.1
10795.1
10795.2
10795.2
10795.2
10795.3
10795.3
10795.3
10795.4
10795.4
10795.4
10795.4
10795.5
12337.8
12337.8
12337.8
12337.8
12337.8
12337.8
12337.8
12337.8
12337.8
12337.8
12337.9
12337.9
12337.9
12337.9
12337.9
12337.9
12337.9
12337.9
12337.9
12337.9
11922.8
11922.8
11922.8
11922.8
11922.8
11922.8
11922.8
11922.8
11922.8
11922.8
11922.8
11922.8
11922.8
11922.8
11922.8
11922.8
11922.8
11922.8
11922.8
11922.8
11953.6
11953.6
11953.6
11953.6
11953.6
11953.6
11953.6
11953.6
11953.6
11953.6
11953.6
11953.6
11953.5
11953.5
11953.5
11953.5
11953.5
11953.5
11953.5
11953.5
11758.6
11758.6
11758.6
11758.6
11758.6
11758.6
11758.6
11758.6
11758.6
11758.5
11758.5
11758.5
11758.5
11758.5
11758.5
11758.5
11758.5
11758.5
11758.5
11758.5
11709
11709
11709
11709
11708.9
11708.9
11708.9
11708.9
11708.9
11708.9
11708.9
11708.9
11708.9
11708.9
11708.8
11708.8
11708.8
11708.8
11708.8
11708.8
11638.4
11638.4
11638.4
11638.4
11638.3
11638.3
11638.3
11638.3
11638.3
11638.3
11638.3
11638.3
11638.3
11638.2
11638.2
11638.2
11638.2
11638.2
11638.2
11638.2
11592
11592
11592
11592
11592
11592
11591.9
11591.9
11591.9
11591.9
11591.9
11591.9
11591.9
11591.8
11591.8
11591.8
11591.8
11591.8
11591.8
11591.8
11564.6
11564.6
11564.6
11564.5
11564.5
11564.5
11564.5
11564.5
11564.5
11564.5
11564.4
11564.4
11564.4
11564.4
11564.4
11564.4
11564.3
11564.3
11564.3
11564.3
11554.1
11554.1
11554.1
11554.1
11554.1
11554.1
11554.1
11554.1
11554
11554
11554
11554
11554
11554
11554
11554
11553.9
11553.9
11553.9
11553.9
11559.9
11559.9
11559.9
11559.9
11559.9
11559.9
11559.9
11559.9
11559.9
11559.9
11559.9
11559.8
11559.8
11559.8
11559.8
11559.8
11559.8
11559.8
11559.8
11559.8
11582.6
11582.6
11582.6
11582.6
11582.6
11582.6
11582.6
11582.6
11582.6
11582.6
11582.6
11582.6
11582.6
11582.5
11582.5
11582.5
11582.5
11582.5
11582.5
11582.5
11622.4
11622.4
11622.4
11622.4
11622.4
11622.4
11622.4
11622.4
11622.4
11622.4
11622.4
11622.4
11622.4
11622.4
11622.4
11622.3
11622.3
11622.3
11622.3
11622.3
11680.1
11680.1
11680.1
11680.1
11680.1
11680.1
11680.1
11680.1
11680.1
11680.1
11680.1
11680.1
11680.1
11680.1
11680.1
11680.1
11680.1
11680.1
11680.1
11680.1
11757
11757
11757
11757
11757
11757
11757
11757
11757
11757
11757
11757
11757
11757
11757
11757
11757
11757
11757
11757
11854.7
11854.7
11854.7
11854.7
11854.7
11854.7
11854.7
11854.7
11854.7
11854.7
11854.7
11854.7
11854.7
11854.8
11854.8
11854.8
11854.8
11854.8
11854.8
11854.8
11975.8
11975.8
11975.8
11975.8
11975.8
11975.8
11975.9
11975.9
11975.9
11975.9
11975.9
11975.9
11975.9
11975.9
11976
11976
11976
11976
11976
11976
12108.8
12108.8
12108.8
12108.9
12108.9
12108.9
12108.9
12108.9
12108.9
12108.9
12108.9
12109
12109
12109
12109
12109
12109
12109
12109
12109
12343.4
12343.4
12343.5
12343.5
12343.5
12343.5
12343.5
12343.5
12343.6
12343.6
12343.6
12343.6
12343.7
12343.7
12343.7
12343.7
12343.7
12343.8
12343.8
12343.8
12373.4
12373.4
12373.4
12373.5
12373.5
12373.5
12373.5
12373.5
12373.5
12373.5
12373.6
12373.6
12373.6
12373.6
12373.6
12373.6
12373.7
12373.7
12373.7
12373.7
12935.7
12935.7
12935.7
12935.8
12935.8
12935.8
12935.8
12935.8
12935.9
12935.9
12935.9
12936
12936
12936
12936.1
12936.1
12936.1
12936.1
12936.1
12936.1
14398.2
14398.2
14398.2
14398.2
14398.2
14398.2
14398.2
14398.2
14398.2
14398.2
14398.2
14398.2
14398.2
14398.2
14398.2
14398.2
14398.2
14398.2
14398.2
14398.2
13979.6
13979.6
13979.6
13979.6
13979.6
13979.6
13979.6
13979.6
13979.6
13979.6
13979.6
13979.6
13979.6
13979.6
13979.6
13979.6
13979.6
13979.6
13979.6
13979.6
14009.2
14009.2
14009.2
14009.2
14009.2
14009.2
14009.2
14009.2
14009.2
14009.2
14009.2
14009.2
14009.2
14009.2
14009.2
14009.1
14009.1
14009.1
14009.1
14009.1
13811.8
13811.8
13811.8
13811.8
13811.8
13811.8
13811.8
13811.8
13811.8
13811.7
13811.7
13811.7
13811.7
13811.7
13811.7
13811.7
13811.7
13811.7
13811.7
13811.7
13756.5
13756.5
13756.5
13756.5
13756.5
13756.5
13756.5
13756.5
13756.5
13756.4
13756.4
13756.4
13756.4
13756.4
13756.4
13756.4
13756.4
13756.4
13756.4
13756.4
13684.8
13684.8
13684.8
13684.7
13684.7
13684.7
13684.7
13684.7
13684.7
13684.7
13684.7
13684.7
13684.6
13684.6
13684.6
13684.6
13684.6
13684.6
13684.6
13684.6
13636.5
13636.5
13636.5
13636.5
13636.5
13636.4
13636.4
13636.4
13636.4
13636.4
13636.4
13636.4
13636.3
13636.3
13636.3
13636.3
13636.3
13636.3
13636.3
13636.3
13608.6
13608.6
13608.6
13608.6
13608.6
13608.6
13608.6
13608.6
13608.5
13608.5
13608.5
13608.5
13608.5
13608.5
13608.4
13608.4
13608.4
13608.4
13608.4
13608.4
13599.1
13599.1
13599
13599
13599
13599
13599
13599
13599
13599
13599
13598.9
13598.9
13598.9
13598.9
13598.9
13598.9
13598.9
13598.9
13598.9
13606.9
13606.9
13606.9
13606.9
13606.9
13606.9
13606.8
13606.8
13606.8
13606.8
13606.8
13606.8
13606.8
13606.8
13606.8
13606.8
13606.8
13606.7
13606.7
13606.7
13633.1
13633.1
13633.1
13633.1
13633.1
13633.1
13633.1
13633.1
13633.1
13633
13633
13633
13633
13633
13633
13633
13633
13633
13633
13633
13677.7
13677.7
13677.7
13677.7
13677.7
13677.7
13677.7
13677.7
13677.7
13677.7
13677.7
13677.7
13677.7
13677.7
13677.7
13677.7
13677.7
13677.7
13677.7
13677.7
13741.5
13741.5
13741.5
13741.5
13741.5
13741.5
13741.5
13741.5
13741.5
13741.5
13741.5
13741.5
13741.5
13741.5
13741.5
13741.5
13741.5
13741.5
13741.5
13741.5
13825.5
13825.5
13825.5
13825.5
13825.5
13825.5
13825.5
13825.5
13825.5
13825.5
13825.5
13825.5
13825.5
13825.5
13825.5
13825.5
13825.5
13825.5
13825.5
13825.5
13930.9
13930.9
13930.9
13930.9
13930.9
13930.9
13930.9
13930.9
13930.9
13930.9
13930.9
13930.9
13930.9
13930.9
13930.9
13930.9
13930.9
13930.9
13931
13931
14060
14060
14060
14060
14060
14060
14060
14060
14060.1
14060.1
14060.1
14060.1
14060.1
14060.1
14060.1
14060.1
14060.1
14060.1
14060.2
14060.2
14194.9
14194.9
14194.9
14194.9
14194.9
14194.9
14194.9
14194.9
14194.9
14194.9
14194.9
14195
14195
14195
14195
14195
14195
14195
14195
14195
14445.8
14445.8
14445.8
14445.9
14445.9
14445.9
14445.9
14445.9
14445.9
14445.9
14446
14446
14446
14446
14446
14446.1
14446.1
14446.1
14446.1
14446.1
14468.7
14468.7
14468.7
14468.7
14468.8
14468.8
14468.8
14468.8
14468.8
14468.8
14468.9
14468.9
14468.9
14468.9
14468.9
14468.9
14468.9
14468.9
14469
14469
15036.8
15036.8
15036.8
15036.9
15036.9
15036.9
15036.9
15036.9
15037
15037
15037
15037
15037.1
15037.1
15037.1
15037.1
15037.1
15037.2
15037.2
15037.2
16428.1
16428.1
16428.1
16428.1
16428.1
16428.1
16428.1
16428.1
16428.1
16428.1
16428.1
16428.1
16428.1
16428.1
16428.1
16428.1
16428.1
16428.1
16428.1
16428.1
16009.6
16009.6
16009.6
16009.6
16009.5
16009.5
16009.5
16009.5
16009.5
16009.5
16009.5
16009.5
16009.5
16009.5
16009.5
16009.5
16009.5
16009.5
16009.5
16009.5
16035.3
16035.3
16035.3
16035.3
16035.3
16035.3
16035.3
16035.3
16035.3
16035.2
16035.2
16035.2
16035.2
16035.2
16035.2
16035.2
16035.2
16035.2
16035.2
16035.2
15839.5
15839.5
15839.5
15839.5
15839.5
15839.5
15839.5
15839.5
15839.5
15839.5
15839.5
15839.4
15839.4
15839.4
15839.4
15839.4
15839.4
15839.4
15839.4
15839.4
15779.2
15779.2
15779.2
15779.2
15779.2
15779.2
15779.2
15779.2
15779.2
15779.2
15779.2
15779.2
15779.1
15779.1
15779.1
15779.1
15779.1
15779.1
15779.1
15779.1
15707.1
15707
15707
15707
15707
15707
15707
15707
15707
15707
15707
15707
15706.9
15706.9
15706.9
15706.9
15706.9
15706.9
15706.9
15706.9
15658
15658
15658
15658
15658
15658
15658
15658
15657.9
15657.9
15657.9
15657.9
15657.9
15657.9
15657.9
15657.8
15657.8
15657.8
15657.8
15657.8
15630.4
15630.4
15630.4
15630.4
15630.4
15630.4
15630.4
15630.4
15630.4
15630.4
15630.3
15630.3
15630.3
15630.3
15630.3
15630.3
15630.3
15630.3
15630.3
15630.3
15622.2
15622.2
15622.2
15622.2
15622.1
15622.1
15622.1
15622.1
15622.1
15622.1
15622.1
15622.1
15622.1
15622
15622
15622
15622
15622
15622
15622
15632
15632
15632
15632
15632
15632
15632
15632
15632
15632
15632
15632
15632
15631.9
15631.9
15631.9
15631.9
15631.9
15631.9
15631.9
15661.5
15661.5
15661.5
15661.5
15661.4
15661.4
15661.4
15661.4
15661.4
15661.4
15661.4
15661.4
15661.4
15661.4
15661.4
15661.4
15661.4
15661.4
15661.4
15661.4
15710.3
15710.3
15710.3
15710.3
15710.3
15710.3
15710.3
15710.3
15710.3
15710.2
15710.2
15710.2
15710.2
15710.2
15710.2
15710.2
15710.2
15710.2
15710.2
15710.2
15779.1
15779.1
15779.1
15779.1
15779.1
15779.1
15779.1
15779.1
15779.1
15779.1
15779.1
15779.1
15779.1
15779.1
15779.1
15779.1
15779.1
15779.1
15779.1
15779.1
15868.7
15868.7
15868.7
15868.7
15868.7
15868.7
15868.7
15868.7
15868.7
15868.7
15868.7
15868.7
15868.7
15868.7
15868.7
15868.7
15868.7
15868.7
15868.7
15868.7
15980
15980
15980
15980
15980.1
15980.1
15980.1
15980.1
15980.1
15980.1
15980.1
15980.1
15980.1
15980.1
15980.1
15980.1
15980.1
15980.1
15980.1
15980.1
16115.2
16115.2
16115.2
16115.3
16115.3
16115.3
16115.3
16115.3
16115.3
16115.3
16115.3
16115.3
16115.3
16115.3
16115.3
16115.3
16115.3
16115.3
16115.4
16115.4
16249.7
16249.7
16249.7
16249.7
16249.7
16249.7
16249.7
16249.7
16249.7
16249.8
16249.8
16249.8
16249.8
16249.8
16249.8
16249.8
16249.8
16249.8
16249.8
16249.8
16514.4
16514.4
16514.4
16514.4
16514.4
16514.4
16514.5
16514.5
16514.5
16514.5
16514.5
16514.5
16514.5
16514.6
16514.6
16514.6
16514.6
16514.6
16514.6
16514.6
16530.1
16530.1
16530.1
16530.1
16530.1
16530.1
16530.1
16530.1
16530.2
16530.2
16530.2
16530.2
16530.2
16530.2
16530.2
16530.2
16530.2
16530.3
16530.3
16530.3
17103
17103
17103
17103
17103
17103
17103.1
17103.1
17103.1
17103.1
17103.1
17103.2
17103.2
17103.2
17103.2
17103.2
17103.2
17103.2
17103.2
17103.2
18430.1
18430.1
18430.1
18430.1
18430.1
18430.1
18430.1
18430.1
18430
18430
18430
18430
18430
18430
18430
18430
18430
18430
18430
18430
18012.5
18012.5
18012.5
18012.5
18012.5
18012.5
18012.5
18012.5
18012.5
18012.5
18012.5
18012.5
18012.5
18012.5
18012.5
18012.5
18012.5
18012.4
18012.4
18012.4
18034.7
18034.7
18034.7
18034.7
18034.7
18034.7
18034.7
18034.7
18034.7
18034.7
18034.7
18034.7
18034.7
18034.7
18034.7
18034.7
18034.7
18034.6
18034.6
18034.6
17841
17841
17841
17840.9
17840.9
17840.9
17840.9
17840.9
17840.9
17840.9
17840.9
17840.9
17840.9
17840.9
17840.8
17840.8
17840.8
17840.8
17840.8
17840.8
17777.5
17777.5
17777.5
17777.5
17777.5
17777.5
17777.5
17777.5
17777.5
17777.5
17777.4
17777.4
17777.4
17777.4
17777.4
17777.4
17777.4
17777.4
17777.4
17777.4
17705.2
17705.2
17705.2
17705.2
17705.2
17705.2
17705.2
17705.2
17705.2
17705.2
17705.2
17705.2
17705.1
17705.1
17705.1
17705.1
17705.1
17705.1
17705.1
17705.1
17656.2
17656.2
17656.2
17656.2
17656.2
17656.2
17656.2
17656.1
17656.1
17656.1
17656.1
17656.1
17656.1
17656.1
17656.1
17656
17656
17656
17656
17656
17629.5
17629.5
17629.5
17629.5
17629.4
17629.4
17629.4
17629.4
17629.4
17629.4
17629.4
17629.4
17629.3
17629.3
17629.3
17629.3
17629.3
17629.3
17629.3
17629.3
17622.7
17622.7
17622.7
17622.7
17622.7
17622.7
17622.7
17622.7
17622.7
17622.7
17622.7
17622.6
17622.6
17622.6
17622.6
17622.6
17622.6
17622.6
17622.6
17622.6
17634.7
17634.7
17634.6
17634.6
17634.6
17634.6
17634.6
17634.6
17634.6
17634.6
17634.6
17634.6
17634.6
17634.6
17634.6
17634.5
17634.5
17634.5
17634.5
17634.5
17667
17667
17667
17667
17667
17667
17667
17666.9
17666.9
17666.9
17666.9
17666.9
17666.9
17666.9
17666.9
17666.9
17666.9
17666.9
17666.9
17666.9
17719.4
17719.4
17719.4
17719.4
17719.4
17719.4
17719.4
17719.4
17719.4
17719.4
17719.3
17719.3
17719.3
17719.3
17719.3
17719.3
17719.3
17719.3
17719.3
17719.3
17792.3
17792.3
17792.3
17792.3
17792.3
17792.3
17792.3
17792.3
17792.3
17792.3
17792.3
17792.3
17792.3
17792.3
17792.3
17792.3
17792.3
17792.3
17792.3
17792.3
17886.5
17886.5
17886.5
17886.5
17886.5
17886.5
17886.5
17886.5
17886.5
17886.5
17886.5
17886.5
17886.5
17886.5
17886.5
17886.5
17886.5
17886.5
17886.5
17886.5
18002.5
18002.5
18002.5
18002.5
18002.5
18002.5
18002.5
18002.5
18002.5
18002.5
18002.5
18002.5
18002.5
18002.5
18002.5
18002.5
18002.5
18002.5
18002.5
18002.5
18142.5
18142.5
18142.5
18142.5
18142.5
18142.5
18142.5
18142.5
18142.5
18142.5
18142.5
18142.5
18142.5
18142.6
18142.6
18142.6
18142.6
18142.6
18142.6
18142.6
18275.2
18275.2
18275.2
18275.2
18275.2
18275.2
18275.2
18275.2
18275.2
18275.2
18275.2
18275.2
18275.2
18275.2
18275.2
18275.2
18275.2
18275.2
18275.2
18275.2
18551.8
18551.8
18551.8
18551.8
18551.8
18551.8
18551.8
18551.8
18551.8
18551.9
18551.9
18551.9
18551.9
18551.9
18551.9
18551.9
18551.9
18551.9
18551.9
18551.9
18560.4
18560.4
18560.4
18560.4
18560.4
18560.4
18560.4
18560.4
18560.4
18560.4
18560.5
18560.5
18560.5
18560.5
18560.5
18560.5
18560.5
18560.5
18560.5
18560.5
19137.4
19137.4
19137.4
19137.4
19137.4
19137.4
19137.4
19137.5
19137.5
19137.5
19137.5
19137.5
19137.5
19137.5
19137.5
19137.5
19137.5
19137.5
19137.5
19137.5
20405.7
20405.7
20405.7
20405.7
20405.7
20405.7
20405.7
20405.7
20405.7
20405.7
20405.7
20405.7
20405.6
20405.6
20405.6
20405.6
20405.6
20405.6
20405.6
20405.6
19988.8
19988.8
19988.8
19988.8
19988.8
19988.8
19988.8
19988.8
19988.8
19988.8
19988.7
19988.7
19988.7
19988.7
19988.7
19988.7
19988.7
19988.7
19988.7
19988.7
20009.1
20009.1
20009
20009
20009
20009
20009
20009
20009
20009
20009
20009
20009
20009
20009
20009
20009
20009
20009
20009
19816.4
19816.4
19816.4
19816.4
19816.4
19816.4
19816.4
19816.4
19816.4
19816.4
19816.4
19816.3
19816.3
19816.3
19816.3
19816.3
19816.3
19816.3
19816.3
19816.3
19751.6
19751.6
19751.6
19751.6
19751.6
19751.6
19751.5
19751.5
19751.5
19751.5
19751.5
19751.5
19751.5
19751.5
19751.5
19751.5
19751.5
19751.5
19751.5
19751.5
19679.5
19679.5
19679.5
19679.5
19679.5
19679.5
19679.4
19679.4
19679.4
19679.4
19679.4
19679.4
19679.4
19679.4
19679.4
19679.4
19679.3
19679.3
19679.3
19679.3
19630.9
19630.9