/*--------------------------------*- C++ -*----------------------------------*\
| =========                 |                                                 |
| \\      /  F ield         | OpenFOAM: The Open Source CFD Toolbox           |
|  \\    /   O peration     | Version:  2212                                  |
|   \\  /    A nd           | Website:  www.openfoam.com                      |
|    \\/     M anipulation  |                                                 |
\*---------------------------------------------------------------------------*/
FoamFile
{
    version     2.0;
    format      ascii;
    arch        "LSB;label=32;scalar=64";
    class       volScalarField;
    location    "0.0205";
    object      alphat;
}
// * * * * * * * * * * * * * * * * * * * * * * * * * * * * * * * * * * * * * //

dimensions      [1 -1 -1 0 0 0 0];

internalField   nonuniform List<scalar> 
44662
(
0.000664811
0.00141677
0.00141515
0.00141866
0.00141728
0.000173061
0.00070181
0.0001514
0.0013371
0.00152553
0.000215939
0.000217209
0.000666098
0.000780376
4.24844e-05
0.00027709
3.43715e-05
3.43571e-05
0.000869419
0.00106311
0.00156407
3.36446e-05
0.00149539
0.00154739
6.67066e-05
0.000865125
0.000599193
0.000210076
0.00102069
0.000280972
5.85663e-05
0.000831777
7.08059e-05
0.000126102
0.000172964
0.001561
0.000553353
0.000410234
0.000869862
0.00121313
0.00114358
0.00069963
7.18152e-05
0.00114521
0.0012988
0.000356326
0.000197652
0.001538
0.0013342
0.00128472
0.00140988
0.000134101
0.000863432
2.92457e-05
0.00154629
0.000296316
0.000828245
8.07272e-05
0.000374349
0.000357585
0.000233925
2.52151e-05
0.00148093
0.000650166
0.00163575
0.000226694
5.81145e-05
4.76769e-05
0.000651622
0.00062308
2.76608e-05
6.9731e-05
0.000363443
0.000215452
0.000533078
0.000873178
2.638e-05
0.000389306
0.000325453
5.67894e-05
0.000343707
0.000462238
0.00137903
0.000360054
0.000348016
0.0013381
0.000400903
0.00145914
0.00104452
0.000770062
0.000284506
0.000345191
0.00153561
3.25606e-05
0.00120375
0.000961844
9.68297e-05
0.00111311
0.00156727
0.0014403
0.00125049
0.00145409
0.000389067
5.3325e-05
0.000622668
0.000214183
0.000584555
0.000279758
0.00142431
0.00107731
0.00054802
0.00129014
0.00145227
0.00150386
8.3905e-05
0.000510325
0.00029115
0.00136415
2.44205e-05
0.000473751
0.00121435
0.00047929
0.000258564
0.000445044
0.000449709
0.00151638
0.000419993
0.000420974
0.00142107
0.000395942
0.000393803
0.000232611
0.00019686
0.000309961
0.0003679
0.000369128
0.000245311
0.000240039
0.00033761
0.000347391
0.000270446
0.00030868
0.000159257
0.000118542
0.000281961
0.00141944
0.00138393
0.00137901
0.00150972
0.00141726
0.00124259
0.00141714
0.000263196
5.71368e-05
0.00148292
0.00150239
0.00124887
0.00125628
0.00126066
0.00126506
0.00126947
0.00127388
0.00127831
0.00128275
0.00128721
0.00129169
0.00129618
0.0013007
0.00130522
0.00130974
0.00131426
0.00131878
0.00132329
0.00132779
0.00133228
0.00133675
0.00134119
0.00134561
0.00134999
0.00135435
0.00135867
0.00136295
0.00136719
0.00137139
0.00137554
0.00137965
0.00138371
0.00138772
0.00139167
0.00139559
0.00139945
0.00140327
0.00140704
0.00141077
0.00141444
0.00141806
0.00142163
0.00142514
0.0014286
0.00143201
0.00143538
0.00143869
0.00144197
0.00144521
0.00144843
0.00145161
0.0014478
0.00145095
0.00144461
2.62351e-05
0.00125195
0.00125615
0.00125182
0.00145473
0.00145781
0.00145707
0.00145403
0.00143813
0.00144139
0.00143148
0.00143483
0.00142465
0.00142809
0.00141762
0.00142116
0.00141039
0.00141403
0.00140294
0.0014067
0.00139526
0.00139913
0.00138739
0.00139134
0.00137935
0.0013834
0.00137112
0.00137526
0.00136271
0.00136694
0.00135413
0.00135844
0.0013454
0.00134978
0.00133655
0.00134099
0.00132759
0.00133208
0.00131858
0.00132309
0.00130952
0.00131405
0.00130046
0.00130499
0.00129142
0.00129594
0.00128245
0.00128693
0.00127353
0.00127798
0.00126465
0.00126909
0.00126024
0.00126491
0.00126052
0.00127372
0.0012693
0.00128257
0.00127813
0.00129148
0.00128702
0.00130047
0.00129597
0.0013095
0.00130499
0.00131853
0.00131402
0.00132752
0.00132303
0.00133645
0.001332
0.00134528
0.00134088
0.00135401
0.00134966
0.0013626
0.00135833
0.00137102
0.00136683
0.00137926
0.00137516
0.00138729
0.0013833
0.00139512
0.00139123
0.00140276
0.00139896
0.0014102
0.0014065
0.00141744
0.00141385
0.00142448
0.00142099
0.00143132
0.00142793
0.00143795
0.00143466
0.00144438
0.00144118
0.00145068
0.00144755
0.00145684
0.00145377
0.00144565
0.00144869
0.00144254
2.52975e-05
2.5827e-05
0.00125543
0.0012511
0.00146006
0.00145464
0.00145752
0.00145415
0.00145986
0.00145708
0.00124756
0.00124768
0.00145169
0.00143619
0.00143939
0.00142968
0.00143296
0.00142299
0.00142636
0.0014161
0.00141957
0.001409
0.00141258
0.00140166
0.00140536
0.00139411
0.00139791
0.00138633
0.00139025
0.00137836
0.00138236
0.00137021
0.00137431
0.00136188
0.00136607
0.00135336
0.00135764
0.00134468
0.00134904
0.00133586
0.00134029
0.00132693
0.00133141
0.00131792
0.00132243
0.00130886
0.0013134
0.00129978
0.00130432
0.0012907
0.00129524
0.00128166
0.00128617
0.00127267
0.00127716
0.00126372
0.00126819
0.00125927
0.00103216
0.00146085
0.00126419
0.00125979
0.00127302
0.0012686
0.00128188
0.00127744
0.00129081
0.00128634
0.00129979
0.00129529
0.00130881
0.0013043
0.00131782
0.00131332
0.00132679
0.00132231
0.00133567
0.00133124
0.00134447
0.00134008
0.00135313
0.00134882
0.00136166
0.00135742
0.00137001
0.00136585
0.00137816
0.00137411
0.0013861
0.00138215
0.00139382
0.00138998
0.00140134
0.0013976
0.00140865
0.00140502
0.00141576
0.00141223
0.00142265
0.00141923
0.00142933
0.00142602
0.0014358
0.00143259
0.00144208
0.00143897
0.00144818
0.00144515
0.00145118
0.00124681
0.00145319
0.00145049
0.00144193
0.00144485
0.00143897
0.00146284
0.00145997
0.00124722
0.00124259
0.00124336
0.00124351
0.00145584
0.00144699
0.00144938
0.00123926
0.00123843
0.00144771
0.00143286
0.00143593
0.00142659
0.00142974
0.00142014
0.00142339
0.00141348
0.00141683
0.00140659
0.00141006
0.00139946
0.00140305
0.00139207
0.0013958
0.00138446
0.00138829
0.00137664
0.00138058
0.00136865
0.00137267
0.00136045
0.00136458
0.00135204
0.00135627
0.00134344
0.00134776
0.00133469
0.00133908
0.0013258
0.00133026
0.00131681
0.00132131
0.00130775
0.00131229
0.00129864
0.0013032
0.00128952
0.00129408
0.0012804
0.00128495
0.00127132
0.00127585
0.00126229
0.0012668
0.00161581
0.0012578
0.00146301
0.00146385
0.00146035
0.00123695
0.00124544
0.00124117
0.00125411
0.00124976
0.00126292
0.0012585
0.00127179
0.00126735
0.0012807
0.00127624
0.00128965
0.00128517
0.00129865
0.00129414
0.00130765
0.00130315
0.00131664
0.00131215
0.00132557
0.00132111
0.0013344
0.00133
0.00134311
0.00133877
0.00135169
0.00134742
0.0013601
0.00135591
0.00136832
0.00136423
0.00137633
0.00137235
0.00138411
0.00138025
0.00139166
0.00138791
0.00139898
0.00139535
0.00140609
0.00140256
0.00141297
0.00140955
0.00141962
0.00141632
0.00142604
0.00142286
0.00143225
0.00142918
0.00143825
0.00143527
0.00144405
0.00144117
0.00144972
0.0014469
0.00145522
0.00145249
0.00123435
0.0012328
0.00124618
0.00144454
0.00124306
0.00145845
0.00145173
0.0014388
0.00144086
0.00144848
0.00145789
0.00145093
0.00123943
0.00123521
0.00123035
0.00143379
0.00143659
0.00143933
0.00122871
0.00124239
0.00124457
0.00144199
0.00142804
0.00143094
0.00142212
0.0014251
0.00141601
0.00141909
0.00140968
0.00141287
0.0014031
0.00140642
0.00139626
0.00139972
0.00138914
0.00139273
0.00138175
0.00138547
0.00137416
0.00137798
0.00136638
0.0013703
0.00135837
0.00136241
0.00135012
0.00135428
0.00134165
0.00134591
0.00133299
0.00133734
0.00132418
0.0013286
0.00131523
0.00131972
0.00130618
0.00131071
0.00129706
0.00130163
0.00128788
0.00129248
0.00127868
0.00128328
0.00126949
0.00127408
0.00126036
0.00126492
0.00135833
0.00125582
0.00149713
0.00146578
0.00146282
0.00146593
0.00146681
0.00146315
0.00122636
0.0012348
0.00123055
0.00124343
0.00123909
0.00125221
0.0012478
0.00126109
0.00125664
0.00127004
0.00126556
0.00127901
0.00127452
0.00128801
0.00128351
0.00129702
0.00129251
0.00130602
0.00130152
0.00131497
0.0013105
0.00132384
0.00131942
0.00133259
0.00132823
0.00134119
0.00133691
0.00134963
0.00134544
0.00135788
0.00135378
0.00136592
0.00136193
0.00137372
0.00136985
0.00138127
0.00137753
0.00138857
0.00138495
0.00139563
0.00139213
0.00140243
0.00139906
0.00140899
0.00140574
0.0014153
0.00141218
0.00142138
0.00141837
0.00142721
0.00142432
0.00143282
0.00143004
0.00143821
0.00143554
0.00144344
0.00144085
0.00144598
0.00122468
0.00122223
0.00124196
0.00143666
0.0014295
0.00143199
0.00142693
0.00144288
0.00146052
0.00145333
0.00123968
0.00123798
0.00123515
0.00123893
0.00123541
0.00123126
0.00122641
0.0012207
0.00121813
0.00124026
0.00143439
0.00142164
0.00142431
0.00141617
0.00141893
0.00141051
0.00141337
0.00140461
0.00140759
0.00139844
0.00140156
0.00139199
0.00139525
0.0013852
0.00138863
0.00137812
0.00138169
0.00137083
0.0013745
0.00136334
0.00136711
0.0013556
0.00135951
0.00134756
0.00135161
0.00133926
0.00134344
0.00133074
0.00133503
0.00132203
0.00132641
0.00131315
0.00131761
0.00130414
0.00130866
0.00129501
0.00129959
0.00128579
0.00129041
0.0012765
0.00128115
0.00126721
0.00127184
0.00125796
0.00126258
0.00124879
0.00125336
0.00124423
0.00146867
0.00146561
0.00146881
0.00146973
0.00146103
0.00146592
0.00144487
0.00145405
0.0012148
0.00122331
0.00121904
0.00123198
0.00122763
0.00124079
0.00123636
0.00124972
0.00124525
0.00125871
0.00125421
0.00126776
0.00126324
0.00127682
0.00127229
0.00128587
0.00128134
0.00129489
0.00129038
0.00130388
0.00129939
0.00131278
0.00130834
0.00132156
0.00131719
0.0013302
0.0013259
0.00133866
0.00133445
0.00134691
0.00134281
0.00135494
0.00135096
0.00136273
0.00135887
0.00137026
0.00136653
0.00137751
0.00137392
0.00138448
0.00138103
0.00139117
0.00138786
0.00139759
0.00139442
0.00140373
0.0014007
0.00140961
0.0014067
0.00141522
0.00141245
0.00142057
0.00141793
0.00142566
0.00142314
0.00143053
0.00142812
0.0014352
0.00143289
0.00143966
0.00143745
0.00144391
0.00144181
0.00121407
0.00121058
0.00123062
0.0012336
0.00123779
0.00142844
0.00143012
0.00142667
0.00123489
0.00144685
0.00143334
0.00143491
0.00143211
0.00144596
0.00143378
0.00122717
0.00122609
0.00122245
0.00123148
0.00122736
0.00122251
0.00121678
0.00121006
0.00142267
0.0014205
0.00141822
0.0012064
0.00123601
0.00143175
0.00142475
0.0014135
0.00141588
0.0014086
0.00141107
0.0014035
0.00140608
0.00139814
0.00140085
0.00139249
0.00139535
0.00138651
0.00138955
0.00138017
0.00138339
0.00137348
0.00137686
0.00136656
0.00137005
0.00135944
0.00136303
0.00135204
0.00135578
0.00134428
0.0013482
0.00133621
0.00134028
0.00132788
0.00133208
0.00131932
0.00132363
0.00131054
0.00131495
0.00130159
0.00130608
0.00129248
0.00129705
0.00128322
0.00128786
0.00127385
0.00127854
0.00126446
0.00126915
0.00125509
0.00125977
0.00124577
0.00125043
0.00123647
0.00124112
0.00123183
0.00146311
0.00145568
0.00147152
0.00146837
0.00147166
0.00147261
0.00146359
0.00146866
0.00145636
0.00120197
0.00121073
0.00120634
0.00121958
0.00121515
0.00122852
0.00122404
0.00123756
0.00123303
0.00124668
0.00124212
0.00125581
0.00125124
0.00126497
0.00126039
0.00127411
0.00126955
0.00128321
0.00127867
0.00129225
0.00128774
0.0013012
0.00129674
0.00131003
0.00130563
0.0013187
0.00131438
0.00132718
0.00132296
0.00133544
0.00133134
0.00134346
0.00133948
0.00135121
0.00134737
0.00135868
0.00135498
0.00136586
0.00136231
0.00137272
0.00136933
0.00137927
0.00137604
0.00138551
0.00138243
0.00139144
0.00138852
0.00139707
0.00139429
0.00140239
0.00139977
0.00140743
0.00140495
0.00141218
0.00140984
0.00141664
0.00141444
0.00142086
0.00141878
0.00142484
0.00142288
0.00142859
0.00142674
0.00143038
0.00120224
0.00119761
0.00122925
0.00123369
0.00141574
0.00141696
0.00141441
0.00140941
0.00141121
0.0014075
0.00141925
0.00142035
0.00144795
0.00143539
0.00121761
0.00122154
0.00123093
0.00122759
0.00122352
0.0012187
0.00121293
0.00120608
0.00119813
0.00119327
0.0012318
0.00141812
0.00141289
0.00140346
0.00140551
0.00139925
0.00140137
0.00139482
0.00139706
0.00139011
0.0013925
0.00138509
0.00138765
0.00137971
0.00138245
0.00137389
0.00137685
0.00136769
0.00137083
0.00136124
0.00136449
0.00135459
0.00135795
0.00134759
0.00135114
0.00134019
0.00134394
0.00133242
0.00133635
0.00132434
0.00132842
0.00131597
0.00132019
0.00130735
0.00131169
0.00129849
0.00130295
0.00128942
0.00129398
0.00128016
0.00128481
0.00127072
0.00127545
0.00126123
0.00126598
0.00125175
0.00125649
0.00124228
0.00124702
0.00123279
0.00123754
0.0012233
0.00122805
0.00121368
0.00121852
0.00121254
0.00120871
0.00146566
0.00145799
0.00147434
0.00147108
0.00147447
0.00147546
0.00146612
0.00147137
0.00144881
0.00145864
0.00142144
0.00143647
0.00118767
0.00119681
0.00119225
0.00120599
0.0012014
0.0012152
0.0012106
0.00122446
0.00121983
0.00123376
0.0012291
0.00124309
0.00123843
0.00125239
0.00124774
0.00126166
0.00125703
0.00127089
0.00126629
0.00128003
0.00127547
0.00128906
0.00128456
0.00129795
0.00129352
0.00130667
0.00130234
0.00131519
0.00131096
0.00132346
0.00131935
0.00133146
0.0013275
0.00133918
0.00133536
0.00134658
0.00134292
0.00135366
0.00135016
0.00136039
0.00135707
0.00136678
0.00136363
0.00137282
0.00136985
0.0013785
0.00137571
0.00138384
0.00138121
0.00138884
0.00138638
0.0013935
0.00139121
0.00139784
0.00139571
0.00140187
0.00139989
0.00140558
0.00140376
0.00140901
0.00140733
0.00141218
0.00141063
0.00141508
0.00141366
0.00141773
0.00141644
0.00142013
0.00141896
0.00118896
0.00118313
0.00122495
0.00122965
0.00140048
0.00140118
0.00139964
0.00139603
0.00139738
0.00139454
0.00121702
0.00122702
0.00142251
0.0014035
0.00140402
0.00140194
0.00142124
0.00140252
0.00120167
0.00120767
0.00122379
0.00121979
0.00121495
0.0012091
0.00120216
0.00119403
0.00117865
0.0011847
0.00122766
0.00140239
0.00140295
0.0014018
0.0013986
0.00139132
0.00139296
0.00138791
0.00138964
0.00138428
0.00138612
0.00138036
0.00138236
0.00137608
0.00137827
0.00137139
0.0013738
0.00136623
0.00136887
0.00136061
0.00136346
0.00135473
0.0013577
0.00134864
0.00135172
0.00134215
0.00134545
0.00133519
0.00133873
0.0013278
0.00133154
0.00132004
0.00132396
0.00131193
0.00131602
0.00130351
0.00130776
0.0012948
0.00129919
0.00128581
0.00129034
0.00127657
0.00128122
0.00126708
0.00127185
0.00125751
0.0012623
0.00124792
0.00125272
0.00123829
0.00124311
0.0012286
0.00123345
0.00121885
0.00122373
0.00120905
0.00121396
0.00119917
0.00120412
0.00119749
0.00119073
0.00119487
0.0014499
0.00143696
0.00146816
0.00146025
0.00147712
0.00147376
0.00147725
0.00147828
0.00146862
0.00147404
0.00145074
0.00146089
0.001438
0.00116312
0.00117189
0.00117428
0.00116739
0.00118139
0.00117661
0.001191
0.0011862
0.00120062
0.00119581
0.00121023
0.00120542
0.00121983
0.00121504
0.00122942
0.00122463
0.00123896
0.0012342
0.00124844
0.00124372
0.00125784
0.00125315
0.00126713
0.0012625
0.00127629
0.00127173
0.00128528
0.00128081
0.00129408
0.00128971
0.00130265
0.0012984
0.00131095
0.00130683
0.00131895
0.00131499
0.00132664
0.00132284
0.00133397
0.00133035
0.00134094
0.0013375
0.00134753
0.00134429
0.00135374
0.00135069
0.00135955
0.00135669
0.00136496
0.0013623
0.00136998
0.00136752
0.00137461
0.00137234
0.00137886
0.00137678
0.00138274
0.00138085
0.00138627
0.00138455
0.00138944
0.0013879
0.00139228
0.0013909
0.00139479
0.00139357
0.00139701
0.00139594
0.00139893
0.00139801
0.00140058
0.00139979
0.00140129
0.0012207
0.00122569
0.00138242
0.00138254
0.00138213
0.00138241
0.00138231
0.00142229
0.00140304
0.0012126
0.00122319
0.00120342
0.00122006
0.00118629
0.00119315
0.00121608
0.00121124
0.00120533
0.00119826
0.00119
0.00118054
0.00117011
0.00115173
0.0011587
0.00138099
0.00138015
0.00137914
0.00122359
0.00138253
0.00138248
0.00138257
0.00138166
0.00137686
0.00137803
0.00137437
0.00137564
0.00137167
0.00137306
0.00136867
0.00137022
0.00136526
0.00136702
0.00136139
0.00136339
0.00135699
0.00135926
0.00135207
0.00135458
0.00134688
0.00134951
0.00134145
0.0013442
0.00133557
0.00133858
0.00132914
0.00133242
0.00132222
0.00132574
0.00131486
0.00131859
0.0013071
0.00131103
0.00129895
0.00130307
0.00129044
0.00129474
0.00128159
0.00128606
0.00127241
0.00127704
0.00126291
0.00126769
0.00125327
0.0012581
0.00124357
0.00124843
0.00123377
0.00123868
0.00122384
0.00122882
0.00121378
0.00121882
0.00120358
0.00120869
0.0011932
0.00119839
0.00118359
0.0011883
0.0011817
0.00117392
0.00117881
0.0014518
0.00143847
0.00147063
0.00146247
0.00147987
0.0014764
0.00148
0.00148106
0.00147108
0.00147669
0.00145263
0.0014631
0.00142353
0.0014395
0.00138218
0.0014045
0.00116438
0.00115963
0.00117446
0.00116939
0.00118459
0.00117954
0.00119467
0.00118965
0.0012047
0.00119969
0.00121467
0.0012097
0.00122455
0.00121962
0.00123432
0.00122945
0.00124398
0.00123917
0.00125348
0.00124875
0.00126282
0.00125817
0.00127196
0.00126742
0.00128088
0.00127645
0.00128953
0.00128524
0.00129788
0.00129375
0.0013059
0.00130194
0.00131357
0.00130978
0.00132084
0.00131725
0.00132771
0.00132433
0.00133415
0.00133098
0.00134016
0.00133721
0.00134573
0.001343
0.00135085
0.00134834
0.00135552
0.00135324
0.00135976
0.0013577
0.00136356
0.00136171
0.00136695
0.00136531
0.00136992
0.00136848
0.00137249
0.00137125
0.00137468
0.00137364
0.00137651
0.00137564
0.00137797
0.00137728
0.0013791
0.00137858
0.00137991
0.00137955
0.00138041
0.0013802
0.0013806
0.00138055
0.0013805
0.00138059
0.00121653
0.0012218
0.00136132
0.0013608
0.00136171
0.00136151
0.00136178
0.00136104
0.00120839
0.00121944
0.00138198
0.00135632
0.00135544
0.00135444
0.00138035
0.0013536
0.00119918
0.00121638
0.00118875
0.00121243
0.00116894
0.00117702
0.00120756
0.00120158
0.00119443
0.00118605
0.00117649
0.00116572
0.00114628
0.00115391
0.00121958
0.00135795
0.00135716
0.00135944
0.0013587
0.00136015
0.00136184
0.00135984
0.00136048
0.00135842
0.00135916
0.00135679
0.00135764
0.00135482
0.00135585
0.00135241
0.00135368
0.0013495
0.00135102
0.00134598
0.00134782
0.00134189
0.00134399
0.00133749
0.00133972
0.00133284
0.00133521
0.00132769
0.00133034
0.00132191
0.00132488
0.00131556
0.0013188
0.0013087
0.00131219
0.00130136
0.00130509
0.00129357
0.00129752
0.00128534
0.00128951
0.00127669
0.00128107
0.00126762
0.00127221
0.00125816
0.00126293
0.00124848
0.00125334
0.0012387
0.0012436
0.00122873
0.00123374
0.00121854
0.00122367
0.00120813
0.00121336
0.00119747
0.00120284
0.0011866
0.00119204
0.00117608
0.0011813
0.00116557
0.00117086
0.00116391
0.00115479
0.00116021
0.00142329
0.0014035
0.00145366
0.00143993
0.00147306
0.00146465
0.00148258
0.00147901
0.00148272
0.00148382
0.00147351
0.0014793
0.00145448
0.00146528
0.00142451
0.00144095
0.00140493
0.00114094
0.00113224
0.001145
0.00113829
0.00115602
0.00115064
0.00116691
0.00116148
0.00117763
0.0011723
0.00118821
0.00118294
0.00119866
0.00119346
0.001209
0.00120386
0.00121917
0.00121411
0.00122917
0.00122419
0.00123898
0.0012341
0.00124856
0.0012438
0.00125792
0.00125327
0.001267
0.00126249
0.00127577
0.00127143
0.00128421
0.00128004
0.00129228
0.0012883
0.00129994
0.00129616
0.00130717
0.00130361
0.00131394
0.00131062
0.00132024
0.00131715
0.00132605
0.00132321
0.00133137
0.00132877
0.00133618
0.00133383
0.00134049
0.0013384
0.00134431
0.00134246
0.00134763
0.00134603
0.00135048
0.00134912
0.00135286
0.00135173
0.00135479
0.00135388
0.00135629
0.0013556
0.00135736
0.00135688
0.00135803
0.00135775
0.00135831
0.00135822
0.00135823
0.00135831
0.00135778
0.00135805
0.001357
0.00135743
0.00135588
0.00135648
0.0013552
0.00121246
0.00121797
0.00133697
0.00133571
0.00133806
0.00133988
0.00133951
0.00134003
0.00132672
0.00132507
0.00138013
0.00135268
0.00120429
0.00121573
0.00119495
0.00121274
0.00118431
0.00120882
0.0011723
0.00120392
0.00114931
0.00115883
0.0011979
0.00119066
0.00118216
0.00117231
0.00116128
0.00112667
0.00114912
0.00113583
0.00111089
0.00112135
0.00110547
0.00121565
0.00132986
0.00132831
0.00133287
0.00133137
0.00133433
0.00133887
0.00134003
0.00134006
0.00133981
0.00133995
0.00133938
0.00133963
0.00133858
0.00133903
0.00133731
0.00133801
0.00133548
0.00133647
0.00133298
0.00133432
0.00132984
0.00133147
0.00132637
0.00132814
0.00132263
0.00132455
0.00131834
0.00132057
0.00131332
0.00131591
0.00130765
0.00131056
0.0013014
0.0013046
0.0012946
0.00129807
0.00128726
0.00129099
0.0012794
0.00128339
0.00127103
0.00127528
0.00126215
0.00126665
0.00125278
0.00125752
0.00124312
0.00124798
0.00123329
0.00123823
0.00122319
0.00122828
0.00121275
0.00121801
0.00120198
0.00120741
0.00119088
0.00119647
0.00117952
0.00118521
0.0011682
0.00117385
0.00115678
0.00116253
0.00114512
0.00115099
0.0011438
0.00113321
0.00113919
0.00142423
0.0014039
0.00145548
0.00144135
0.00147546
0.00146679
0.00148527
0.00148159
0.00148541
0.00148654
0.00147591
0.00148188
0.0014563
0.00146743
0.00142544
0.00144237
0.00138173
0.0014053
0.00132333
0.00135449
0.00112263
0.00111659
0.00113543
0.001129
0.00114724
0.0011414
0.00115884
0.00115306
0.00117016
0.00116454
0.00118127
0.00117576
0.00119216
0.00118674
0.00120286
0.00119754
0.00121331
0.00120812
0.0012235
0.00121844
0.00123343
0.0012285
0.00124306
0.00123829
0.00125237
0.00124776
0.00126133
0.00125689
0.00126989
0.00126566
0.00127804
0.00127402
0.00128573
0.00128195
0.00129294
0.0012894
0.00129963
0.00129635
0.00130579
0.00130278
0.00131141
0.00130867
0.00131647
0.00131401
0.00132096
0.00131878
0.00132489
0.001323
0.00132827
0.00132665
0.00133109
0.00132975
0.00133338
0.0013323
0.00133513
0.00133432
0.00133638
0.00133582
0.00133713
0.00133682
0.00133741
0.00133733
0.00133723
0.00133738
0.00133661
0.00133698
0.00133557
0.00133614
0.00133412
0.0013349
0.00133229
0.00133325
0.00133009
0.00133124
0.00132752
0.00132885
0.0013246
0.0013261
0.00132134
0.00132301
0.00120847
0.00121421
0.00130703
0.0013091
0.00120021
0.00121208
0.00132155
0.00128807
0.00128543
0.00128586
0.00131958
0.00128328
0.0011907
0.00120915
0.00117984
0.00120526
0.00116755
0.00120035
0.00115371
0.00119428
0.00112718
0.00113826
0.00118692
0.00117819
0.00116817
0.00115687
0.00137016
0.00145736
0.00114442
0.00113094
0.00111615
0.00106627
0.000362765
0.00131395
0.00109971
0.00131498
0.00121178
0.00129312
0.00129062
0.00129791
0.00129554
0.00130257
0.00130025
0.00130485
0.00131099
0.00131263
0.00131715
0.0013158
0.0013165
0.00131829
0.00131774
0.00131918
0.00131877
0.0013197
0.00131949
0.0013197
0.00131977
0.0013191
0.00131949
0.00131775
0.00131852
0.0013157
0.00131679
0.0013133
0.00131453
0.00131061
0.00131201
0.0013073
0.00130905
0.00130319
0.00130534
0.00129833
0.00130085
0.00129282
0.00129566
0.00128666
0.00128982
0.00127989
0.00128335
0.00127251
0.00127628
0.00126451
0.00126859
0.00125591
0.00126028
0.00124672
0.00125137
0.00123714
0.00124196
0.00122732
0.00123226
0.00121713
0.00122228
0.00120649
0.00121187
0.00119541
0.00120101
0.00118391
0.00118971
0.00117206
0.00117802
0.00116003
0.00116606
0.00114775
0.00115393
0.00113513
0.0011415
0.0011222
0.0011287
0.00112112
0.00110902
0.00111563
0.00137983
0.00135169
0.00142511
0.00140423
0.00145725
0.00144272
0.00147782
0.0014689
0.00148793
0.00148413
0.00148807
0.00148924
0.00147828
0.00148443
0.00145807
0.00146954
0.00142632
0.00144373
0.00138142
0.00140563
0.00135347
0.00111203
0.00110557
0.00112529
0.00111863
0.001138
0.00113171
0.00115029
0.0011442
0.00116226
0.00115632
0.00117389
0.00116813
0.00118522
0.0011796
0.00119625
0.00119077
0.00120695
0.00120165
0.0012173
0.00121217
0.0012273
0.00122235
0.00123692
0.00123216
0.00124612
0.00124157
0.00125487
0.00125055
0.00126314
0.00125907
0.0012709
0.00126708
0.00127811
0.00127457
0.00128474
0.0012815
0.00129078
0.00128784
0.00129621
0.00129358
0.00130102
0.00129869
0.00130519
0.00130318
0.00130874
0.00130704
0.00131166
0.00131027
0.00131395
0.00131288
0.00131565
0.00131488
0.00131675
0.00131627
0.00131728
0.00131708
0.00131725
0.00131733
0.00131669
0.00131703
0.00131561
0.00131621
0.00131404
0.00131488
0.00131199
0.00131307
0.00130949
0.00131079
0.00130655
0.00130807
0.0013032
0.00130492
0.00129944
0.00130137
0.00129529
0.00129741
0.00129076
0.00129307
0.00128836
0.00120455
0.00121049
0.00124846
0.00124492
0.000310342
0.00131775
0.00128061
0.00119615
0.00120847
0.00118646
0.00120561
0.00117536
0.00120174
0.00116276
0.00119684
0.00114856
0.00119068
0.00113267
0.00118314
0.00110252
0.00111505
0.00117426
0.00116401
0.00115249
0.00113981
0.00112603
0.00111055
0.00109315
0.00107643
0.00098654
0.00108899
0.00105485
0.00120797
0.0012553
0.00125191
0.00126189
0.00125862
0.00126832
0.00126511
0.00127454
0.00127148
0.00128024
0.00127753
0.00128471
0.00128267
0.00128807
0.0012865
0.00129092
0.00128952
0.00129356
0.00129226
0.00129593
0.00129477
0.00129791
0.00129698
0.00129934
0.0012987
0.0013001
0.00129981
0.00130005
0.00130018
0.00129923
0.00129971
0.00129805
0.00129866
0.00129656
0.00129736
0.00129438
0.00129558
0.0012913
0.00129295
0.00128741
0.00128945
0.00128276
0.00128517
0.00127739
0.00128016
0.00127131
0.00127444
0.00126453
0.00126801
0.00125703
0.00126087
0.00124879
0.001253
0.00123988
0.00124441
0.00123049
0.00123523
0.00122076
0.00122566
0.00121055
0.00121572
0.00119978
0.00120524
0.00118845
0.00119418
0.00117659
0.00118258
0.00116428
0.00117049
0.00115159
0.00115798
0.00113851
0.0011451
0.00112497
0.00113181
0.00111101
0.00111804
0.00109669
0.0011039
0.00105581
0.00104403
0.00108958
0.000959478
0.00105448
0.000931264
0.00137948
0.00135063
0.00142595
0.0014045
0.00145898
0.00144404
0.00148015
0.00147097
0.00149056
0.00148665
0.0014907
0.00149191
0.00148061
0.00148695
0.00145981
0.00147161
0.00142715
0.00144505
0.00138105
0.00140589
0.00131968
0.00135239
0.00124131
0.00128272
0.00110068
0.0010937
0.00111476
0.00110775
0.00112833
0.00112163
0.00114137
0.0011349
0.00115396
0.00114772
0.00116612
0.00116011
0.00117786
0.00117205
0.00118918
0.00118358
0.00120008
0.00119469
0.00121055
0.00120537
0.00122055
0.00121561
0.00123007
0.00122538
0.00123907
0.00123464
0.00124752
0.00124337
0.00125539
0.00125153
0.00126264
0.0012591
0.00126925
0.00126603
0.00127519
0.00127231
0.00128045
0.00127791
0.00128501
0.00128282
0.00128887
0.00128703
0.00129202
0.00129053
0.00129447
0.00129333
0.00129623
0.00129543
0.00129731
0.00129685
0.00129773
0.0012976
0.0012975
0.00129769
0.00129666
0.00129716
0.00129521
0.00129601
0.00129319
0.00129427
0.00129062
0.00129197
0.00128752
0.00128914
0.00128391
0.00128578
0.00127982
0.00128192
0.00127526
0.0012776
0.00127026
0.00127281
0.00126482
0.00126759
0.00125897
0.00126195
0.00125271
0.00125589
0.00124606
0.00124943
0.00123902
0.00124258
0.00106794
0.00120065
0.00120682
0.0011921
0.0012049
0.0012376
0.00119529
0.00119063
0.00119283
0.00123536
0.00118822
0.0011822
0.00120213
0.00117086
0.00119829
0.00115793
0.00119334
0.00114334
0.00118707
0.00112702
0.00117942
0.0011089
0.00117037
0.00115992
0.00136454
0.00114816
0.000946523
0.00113519
0.00112082
0.001086
0.0010676
0.00105786
0.0010573
0.00104664
0.00110442
0.00103603
0.00103479
0.00102349
0.00120421
0.00120434
0.00119986
0.0012131
0.00120875
0.00122157
0.00121735
0.00122989
0.00122574
0.00123802
0.001234
0.00124542
0.00124187
0.00125158
0.00124868
0.0012566
0.00125419
0.00126108
0.00125887
0.00126534
0.00126322
0.00126936
0.00126738
0.00127295
0.00127122
0.00127595
0.00127453
0.00127823
0.00127719
0.0012796
0.00127904
0.00128018
0.00127996
0.00128036
0.0012803
0.00128023
0.00128035
0.00127933
0.0012799
0.00127745
0.00127851
0.00127465
0.00127616
0.00127103
0.00127294
0.00126659
0.00126891
0.00126135
0.00126407
0.0012553
0.00125842
0.00124843
0.00125197
0.00124069
0.00124466
0.00123217
0.00123652
0.00122307
0.00122767
0.00121353
0.00121835
0.0012034
0.00120855
0.00119258
0.00119808
0.00118108
0.00118691
0.00116894
0.00117508
0.00115621
0.00116264
0.00114295
0.00114965
0.00112915
0.00113612
0.00111477
0.00112203
0.00109982
0.00110737
0.00108426
0.00109214
0.0010672
0.00107611
0.000944806
0.00131583
0.00127785
0.00137905
0.0013495
0.00142673
0.00140472
0.00146067
0.00144531
0.00148244
0.001473
0.00149316
0.00148913
0.00149331
0.00149455
0.00148292
0.00148944
0.0014615
0.00147365
0.00142793
0.00144633
0.00138061
0.0014061
0.00131774
0.00135123
0.00127993
0.00105773
0.00104675
0.00107377
0.00106606
0.00108899
0.0010814
0.00110403
0.00109657
0.00111841
0.0011113
0.00113215
0.00112535
0.00114533
0.0011388
0.00115798
0.00115173
0.00117007
0.00116409
0.00118165
0.00117592
0.00119269
0.00118724
0.00120318
0.001198
0.00121311
0.00120822
0.00122244
0.00121785
0.00123113
0.00122687
0.00123917
0.00123523
0.00124651
0.00124292
0.00125312
0.00124991
0.001259
0.00125615
0.0012641
0.00126165
0.00126843
0.00126636
0.00127197
0.0012703
0.00127473
0.00127345
0.00127671
0.00127582
0.00127791
0.0012774
0.00127836
0.00127823
0.00127807
0.00127831
0.00127707
0.00127766
0.00127537
0.0012763
0.00127301
0.00127427
0.00127001
0.00127159
0.0012664
0.00126828
0.00126219
0.00126437
0.00125743
0.00125988
0.00125214
0.00125485
0.00124633
0.00124929
0.00124002
0.00124323
0.00123325
0.0012367
0.00122603
0.00122969
0.00121836
0.00122225
0.00121026
0.00121436
0.00120175
0.00120606
0.00119734
0.00119678
0.00120318
0.001096
0.00114456
0.0011389
0.0012316
0.00118351
0.00118806
0.00120138
0.00117795
0.00119868
0.00116632
0.00119485
0.00115307
0.00118985
0.00113807
0.0011835
0.00101267
0.00102589
0.00112126
0.00117574
0.00110267
0.00116651
0.00108251
0.00115585
0.00104766
0.00106531
0.00114381
0.0010671
0.00144898
0.00113041
0.000278569
0.00111533
0.00109797
0.00100218
0.000998835
0.000987744
0.00120047
0.0011556
0.00115012
0.00116632
0.00116099
0.00117679
0.00117158
0.00118713
0.00118196
0.00119719
0.00119223
0.00120636
0.00120194
0.00121432
0.00121052
0.00122114
0.00121784
0.00122739
0.0012243
0.00123344
0.00123042
0.00123924
0.00123638
0.00124457
0.00124198
0.00124927
0.00124701
0.0012532
0.00125135
0.00125617
0.00125481
0.00125828
0.00125731
0.00125998
0.00125916
0.00126136
0.00126073
0.00126191
0.00126177
0.00126138
0.00126178
0.00125984
0.00126073
0.0012574
0.00125873
0.00125405
0.00125583
0.0012498
0.00125204
0.00124464
0.00124733
0.00123854
0.00124171
0.00123145
0.00123512
0.00122345
0.00122755
0.00121477
0.00121917
0.00120554
0.00121022
0.00119562
0.00120068
0.00118486
0.00119035
0.00117327
0.00117916
0.00116093
0.00116719
0.00114787
0.00115448
0.00113413