/*--------------------------------*- C++ -*----------------------------------*\
| =========                 |                                                 |
| \\      /  F ield         | OpenFOAM: The Open Source CFD Toolbox           |
|  \\    /   O peration     | Version:  2212                                  |
|   \\  /    A nd           | Website:  www.openfoam.com                      |
|    \\/     M anipulation  |                                                 |
\*---------------------------------------------------------------------------*/
FoamFile
{
    version     2.0;
    format      ascii;
    arch        "LSB;label=32;scalar=64";
    class       volScalarField;
    location    "0.1613";
    object      s;
}
// * * * * * * * * * * * * * * * * * * * * * * * * * * * * * * * * * * * * * //

dimensions      [0 0 0 0 0 0 0];

internalField   nonuniform List<scalar> 
24240
(
2.10742e-103
2.08222e-103
2.11923e-103
2.0427e-103
2.09403e-103
2.08646e-103
2.08996e-103
2.03072e-103
2.04974e-103
2.10462e-103
2.05214e-103
2.11888e-103
2.04524e-103
2.09929e-103
2.0298e-103
2.1192e-103
2.02504e-103
2.05542e-103
2.07886e-103
2.00576e-103
1.70514e-100
1.68439e-100
1.71401e-100
1.65286e-100
1.69367e-100
1.68801e-100
1.69073e-100
1.64277e-100
1.65832e-100
1.70246e-100
1.66051e-100
1.71385e-100
1.65505e-100
1.69846e-100
1.64258e-100
1.71448e-100
1.63872e-100
1.66306e-100
1.68167e-100
1.6232e-100
7.68071e-98
7.58559e-98
7.71753e-98
7.44552e-98
7.62613e-98
7.60278e-98
7.61443e-98
7.39826e-98
7.46902e-98
7.66674e-98
7.47998e-98
7.71735e-98
7.45599e-98
7.65013e-98
7.39993e-98
7.72181e-98
7.3824e-98
7.49108e-98
7.57321e-98
7.31285e-98
1.9624e-95
1.93767e-95
1.97101e-95
1.9024e-95
1.94771e-95
1.94231e-95
1.94512e-95
1.88987e-95
1.9081e-95
1.95837e-95
1.9112e-95
1.97111e-95
1.90523e-95
1.95449e-95
1.89094e-95
1.97268e-95
1.88641e-95
1.91396e-95
1.93449e-95
1.86871e-95
3.6653e-93
3.61826e-93
3.67986e-93
3.55336e-93
3.63646e-93
3.62743e-93
3.63231e-93
3.52907e-93
3.56335e-93
3.65689e-93
3.56971e-93
3.68028e-93
3.55891e-93
3.65032e-93
3.5323e-93
3.68402e-93
3.52363e-93
3.57476e-93
3.61227e-93
3.49068e-93
4.72615e-91
4.66434e-91
4.74299e-91
4.58198e-91
4.68718e-91
4.67697e-91
4.68272e-91
4.54953e-91
4.59392e-91
4.71429e-91
4.60293e-91
4.7439e-91
4.58951e-91
4.7067e-91
4.55534e-91
4.74979e-91
4.5437e-91
4.60939e-91
4.65662e-91
4.50117e-91
4.32515e-89
4.26738e-89
4.33882e-89
4.19326e-89
4.28783e-89
4.27983e-89
4.28445e-89
4.16245e-89
4.20304e-89
4.31335e-89
4.21215e-89
4.33987e-89
4.20045e-89
4.30723e-89
4.1694e-89
4.34627e-89
4.1579e-89
4.21814e-89
4.26035e-89
4.11873e-89
2.62761e-87
2.59172e-87
2.63478e-87
2.54747e-87
2.60391e-87
2.59986e-87
2.60225e-87
2.52807e-87
2.55261e-87
2.61984e-87
2.55877e-87
2.63559e-87
2.55206e-87
2.61667e-87
2.53335e-87
2.64012e-87
2.52572e-87
2.56253e-87
2.58751e-87
2.5017e-87
4.16426e-86
4.11139e-86
4.17042e-86
4.04048e-86
4.12493e-86
4.1184e-86
4.12609e-86
4.01117e-86
4.05589e-86
4.14831e-86
4.06269e-86
4.1746e-86
4.04882e-86
4.14531e-86
4.01556e-86
4.18069e-86
4.01658e-86
4.06326e-86
4.09828e-86
3.98345e-86
3.30622e-86
3.31174e-86
3.30024e-86
3.2426e-86
3.2875e-86
3.27327e-86
3.3143e-86
3.23947e-86
3.32144e-86
3.28161e-86
3.29406e-86
3.32004e-86
3.25102e-86
3.28424e-86
3.19733e-86
3.29128e-86
3.29058e-86
3.24747e-86
3.25451e-86
3.29482e-86
4.92761e-86
4.98893e-86
5.01428e-86
4.94733e-86
4.9107e-86
4.94504e-86
5.024e-86
4.90658e-86
5.06023e-86
5.02447e-86
5.03165e-86
5.03924e-86
4.97379e-86
4.91697e-86
4.87467e-86
4.9508e-86
4.91979e-86
4.91155e-86
4.95024e-86
4.98342e-86
5.81942e-86
5.87226e-86
5.89421e-86
5.81087e-86
5.77267e-86
5.65561e-86
5.78554e-86
5.66912e-86
5.84899e-86
6.00178e-86
5.95335e-86
5.77045e-86
5.93538e-86
5.83687e-86
5.83252e-86
5.87382e-86
5.61958e-86
5.85915e-86
5.74799e-86
5.77543e-86
6.6103e-86
6.77248e-86
6.72351e-86
6.66969e-86
6.71003e-86
6.76878e-86
6.97666e-86
6.69193e-86
6.73104e-86
6.65683e-86
6.686e-86
6.68587e-86
6.73281e-86
6.7063e-86
6.58081e-86
6.69693e-86
6.7452e-86
6.62196e-86
6.5905e-86
6.6214e-86
7.33089e-86
7.3539e-86
7.42851e-86
7.54871e-86
7.46889e-86
7.57038e-86
7.43539e-86
7.55427e-86
7.47795e-86
7.17251e-86
7.28558e-86
7.28841e-86
7.35324e-86
7.2045e-86
7.19225e-86
7.25112e-86
7.22893e-86
7.35824e-86
7.28616e-86
7.43498e-86
7.45638e-86
7.47683e-86
7.6102e-86
7.55133e-86
7.45991e-86
7.55138e-86
7.57479e-86
7.68098e-86
7.45782e-86
7.57594e-86
7.53737e-86
7.54514e-86
7.63307e-86
7.54529e-86
7.48473e-86
7.74825e-86
7.50524e-86
7.42466e-86
7.52251e-86
7.58456e-86
7.63204e-86
7.47579e-86
7.57188e-86
7.49133e-86
7.60734e-86
7.65914e-86
7.69036e-86
7.61192e-86
7.42364e-86
7.48999e-86
7.4318e-86
7.69342e-86
7.62323e-86
7.75609e-86
7.71545e-86
7.72306e-86
7.63846e-86
7.63089e-86
7.5373e-86
7.57946e-86
6.9478e-86
7.03158e-86
6.95542e-86
7.23511e-86
7.02865e-86
7.20196e-86
7.06495e-86
7.12599e-86
7.03089e-86
7.05257e-86
7.04012e-86
7.17851e-86
7.05973e-86
7.26773e-86
7.00049e-86
7.16983e-86
7.13347e-86
6.89774e-86
7.15937e-86
7.1429e-86
6.34187e-86
6.62927e-86
6.51966e-86
6.48803e-86
6.39369e-86
6.71372e-86
6.60357e-86
6.60406e-86
6.55813e-86
6.42363e-86
6.55854e-86
6.68719e-86
6.5072e-86
6.83143e-86
6.5482e-86
6.6741e-86
6.73844e-86
6.56412e-86
6.71006e-86
6.71683e-86
5.69679e-86
5.68308e-86
5.64411e-86
5.74628e-86
5.82144e-86
5.79761e-86
5.68892e-86
5.68021e-86
5.85434e-86
5.65107e-86
5.80251e-86
5.80601e-86
5.67475e-86
5.86374e-86
5.84552e-86
5.95325e-86
5.75747e-86
5.89182e-86
5.81149e-86
5.97974e-86
4.20809e-86
4.24251e-86
4.21341e-86
4.18439e-86
4.27762e-86
4.2362e-86
4.30412e-86
4.23722e-86
4.30257e-86
4.33444e-86
4.25089e-86
4.36674e-86
4.23304e-86
4.39923e-86
4.24484e-86
4.24259e-86
4.2993e-86
4.36826e-86
4.29217e-86
4.42122e-86
9.55078e-102
9.43497e-102
9.60073e-102
9.25819e-102
9.48671e-102
9.45492e-102
9.47041e-102
9.20186e-102
9.28913e-102
9.53598e-102
9.30108e-102
9.59982e-102
9.27027e-102
9.51306e-102
9.20013e-102
9.60283e-102
9.17891e-102
9.31486e-102
9.41916e-102
9.09225e-102
8.21316e-99
8.11188e-99
8.2528e-99
7.962e-99
8.15502e-99
8.12999e-99
8.14272e-99
7.91169e-99
7.98753e-99
8.19856e-99
7.99901e-99
8.25274e-99
7.97314e-99
8.18038e-99
7.91294e-99
8.25713e-99
7.89467e-99
8.01045e-99
8.09832e-99
7.82052e-99
3.80796e-96
3.7602e-96
3.82477e-96
3.69171e-96
3.77956e-96
3.76904e-96
3.77465e-96
3.6675e-96
3.70299e-96
3.80029e-96
3.70887e-96
3.82505e-96
3.69718e-96
3.79257e-96
3.66932e-96
3.82791e-96
3.6608e-96
3.714e-96
3.75387e-96
3.62661e-96
1.00652e-93
9.93684e-94
1.01055e-93
9.75847e-94
9.98633e-94
9.96147e-94
9.97542e-94
9.69217e-94
9.78678e-94
1.00427e-93
9.80381e-94
1.01071e-93
9.77378e-94
1.00241e-93
9.70024e-94
1.01168e-93
9.67756e-94
9.817e-94
9.91999e-94
9.58759e-94
1.89411e-91
1.86954e-91
1.9009e-91
1.83648e-91
1.87854e-91
1.87443e-91
1.87687e-91
1.82356e-91
1.84149e-91
1.88943e-91
1.84498e-91
1.90134e-91
1.83951e-91
1.88629e-91
1.82569e-91
1.90359e-91
1.82135e-91
1.84741e-91
1.86633e-91
1.80449e-91
2.46777e-89
2.43521e-89
2.47561e-89
2.39283e-89
2.44657e-89
2.44197e-89
2.44488e-89
2.37542e-89
2.39889e-89
2.46117e-89
2.40385e-89
2.4764e-89
2.39697e-89
2.45755e-89
2.37903e-89
2.47987e-89
2.37319e-89
2.40697e-89
2.43099e-89
2.35122e-89
2.22244e-87
2.19256e-87
2.22857e-87
2.15502e-87
2.2025e-87
2.19905e-87
2.20138e-87
2.1388e-87
2.15997e-87
2.21601e-87
2.16484e-87
2.22944e-87
2.15892e-87
2.21317e-87
2.14283e-87
2.23306e-87
2.13727e-87
2.16765e-87
2.18871e-87
2.1174e-87
1.33623e-85
1.31794e-85
1.33933e-85
1.29575e-85
1.32373e-85
1.32207e-85
1.3233e-85
1.28568e-85
1.29841e-85
1.33206e-85
1.30161e-85
1.33997e-85
1.29822e-85
1.33064e-85
1.28857e-85
1.34244e-85
1.28505e-85
1.30331e-85
1.31559e-85
1.27305e-85
2.08443e-84
2.05766e-84
2.0869e-84
2.02278e-84
2.06411e-84
2.06156e-84
2.06518e-84
2.00767e-84
2.03014e-84
2.07633e-84
2.03384e-84
2.0892e-84
2.02712e-84
2.07505e-84
2.01049e-84
2.09259e-84
2.01078e-84
2.03408e-84
2.05114e-84
1.99425e-84
1.63749e-84
1.64009e-84
1.63471e-84
1.60643e-84
1.62815e-84
1.62168e-84
1.64169e-84
1.6045e-84
1.64536e-84
1.62548e-84
1.63187e-84
1.64429e-84
1.61061e-84
1.62683e-84
1.58421e-84
1.62988e-84
1.62982e-84
1.60862e-84
1.61205e-84
1.63196e-84
2.44524e-84
2.47508e-84
2.4882e-84
2.45458e-84
2.43653e-84
2.45323e-84
2.49202e-84
2.43391e-84
2.51032e-84
2.49223e-84
2.49655e-84
2.49935e-84
2.46787e-84
2.4396e-84
2.41881e-84
2.45598e-84
2.44059e-84
2.4369e-84
2.4561e-84
2.47223e-84
2.8701e-84
2.89595e-84
2.90686e-84
2.86515e-84
2.84717e-84
2.78966e-84
2.85391e-84
2.79675e-84
2.88481e-84
2.95946e-84
2.93547e-84
2.84603e-84
2.92703e-84
2.8784e-84
2.87629e-84
2.89649e-84
2.77152e-84
2.88893e-84
2.83422e-84
2.8478e-84
3.26164e-84
3.34045e-84
3.31716e-84
3.29082e-84
3.31095e-84
3.33966e-84
3.4414e-84
3.30218e-84
3.32106e-84
3.28387e-84
3.29835e-84
3.29863e-84
3.32224e-84
3.30998e-84
3.24805e-84
3.30455e-84
3.32826e-84
3.26793e-84
3.25244e-84
3.26745e-84
3.5813e-84
3.59161e-84
3.62732e-84
3.68673e-84
3.64829e-84
3.69717e-84
3.63126e-84
3.68981e-84
3.65143e-84
3.50388e-84
3.5584e-84
3.56046e-84
3.59164e-84
3.51951e-84
3.51299e-84
3.54237e-84
3.53038e-84
3.59396e-84
3.55864e-84
3.63164e-84
3.64745e-84
3.65655e-84
3.72224e-84
3.69273e-84
3.64855e-84
3.6942e-84
3.70479e-84
3.75683e-84
3.64792e-84
3.7061e-84
3.68743e-84
3.69117e-84
3.73298e-84
3.69139e-84
3.66201e-84
3.78946e-84
3.67136e-84
3.63164e-84
3.6793e-84
3.70839e-84
3.68302e-84
3.60753e-84
3.65263e-84
3.61471e-84
3.67097e-84
3.69604e-84
3.71032e-84
3.67269e-84
3.58251e-84
3.61398e-84
3.58533e-84
3.71129e-84
3.67866e-84
3.74241e-84
3.72291e-84
3.72614e-84
3.68558e-84
3.68253e-84
3.63714e-84
3.65731e-84
3.36338e-84
3.40434e-84
3.36709e-84
3.5023e-84
3.40174e-84
3.48556e-84
3.41908e-84
3.4497e-84
3.40346e-84
3.41413e-84
3.40844e-84
3.47493e-84
3.41693e-84
3.51779e-84
3.38861e-84
3.47002e-84
3.45288e-84
3.33939e-84
3.46549e-84
3.45791e-84
3.02977e-84
3.16634e-84
3.11448e-84
3.0984e-84
3.05417e-84
3.20625e-84
3.15355e-84
3.15417e-84
3.13214e-84
3.06823e-84
3.13201e-84
3.19327e-84
3.10807e-84
3.26167e-84
3.12689e-84
3.18686e-84
3.21721e-84
3.1352e-84
3.20439e-84
3.20767e-84
2.74031e-84
2.7336e-84
2.71544e-84
2.76436e-84
2.79987e-84
2.78844e-84
2.73599e-84
2.73346e-84
2.81615e-84
2.71875e-84
2.79104e-84
2.79309e-84
2.7291e-84
2.82061e-84
2.81155e-84
2.86379e-84
2.7695e-84
2.83368e-84
2.79498e-84
2.87561e-84
2.02128e-84
2.03771e-84
2.02398e-84
2.00982e-84
2.05396e-84
2.03453e-84
2.0664e-84
2.03511e-84
2.06539e-84
2.08127e-84
2.04093e-84
2.09644e-84
2.03272e-84
2.11218e-84
2.03816e-84
2.03715e-84
2.06395e-84
2.09724e-84
2.06084e-84
2.12241e-84
5.20368e-100
5.13964e-100
5.22891e-100
5.04465e-100
5.16691e-100
5.15103e-100
5.1592e-100
5.01286e-100
5.06095e-100
5.19456e-100
5.06813e-100
5.22889e-100
5.05166e-100
5.18281e-100
5.0134e-100
5.23148e-100
5.00194e-100
5.07517e-100
5.13089e-100
4.95508e-100
4.42509e-97
4.36977e-97
4.44477e-97
4.29016e-97
4.39219e-97
4.37996e-97
4.38659e-97
4.26212e-97
4.30343e-97
4.41637e-97
4.31017e-97
4.44517e-97
4.29652e-97
4.4072e-97
4.26403e-97
4.44833e-97
4.25429e-97
4.31595e-97
4.36232e-97
4.21465e-97
2.01277e-94
1.9872e-94
2.02089e-94
1.95152e-94
1.99704e-94
1.99207e-94
1.99492e-94
1.93831e-94
1.95727e-94
2.00835e-94
1.96062e-94
2.02124e-94
1.95458e-94
2.00455e-94
1.93981e-94
2.02311e-94
1.93538e-94
1.96316e-94
1.98377e-94
1.91744e-94
5.27606e-92
5.20799e-92
5.29518e-92
5.11587e-92
5.23286e-92
5.2214e-92
5.22843e-92
5.08004e-92
5.13016e-92
5.26334e-92
5.13973e-92
5.29659e-92
5.12434e-92
5.25435e-92
5.08567e-92
5.30264e-92
5.074e-92
5.1462e-92
5.19892e-92
5.02723e-92
9.75586e-90
9.62801e-90
9.78713e-90
9.4603e-90
9.67226e-90
9.65405e-90
9.66611e-90
9.39179e-90
9.48512e-90
9.73018e-90
9.50427e-90
9.79055e-90
9.4767e-90
9.71536e-90
9.40526e-90
9.80385e-90
9.38347e-90
9.51595e-90
9.61093e-90
9.29739e-90
1.25894e-87
1.24218e-87
1.26245e-87
1.22089e-87
1.24768e-87
1.24573e-87
1.24715e-87
1.21176e-87
1.22388e-87
1.25537e-87
1.22655e-87
1.26302e-87
1.22311e-87
1.2537e-87
1.21391e-87
1.265e-87
1.21104e-87
1.22802e-87
1.23994e-87
1.19994e-87
1.11519e-85
1.1001e-85
1.11783e-85
1.08155e-85
1.1048e-85
1.10342e-85
1.10455e-85
1.07321e-85
1.08398e-85
1.1118e-85
1.08653e-85
1.11843e-85
1.08361e-85
1.11053e-85
1.07547e-85
1.12042e-85
1.07284e-85
1.08782e-85
1.09806e-85
1.06299e-85
6.62028e-84
6.52939e-84
6.6329e-84
6.42108e-84
6.55611e-84
6.54995e-84
6.55603e-84
6.37017e-84
6.43436e-84
6.59865e-84
6.45061e-84
6.6372e-84
6.43395e-84
6.59253e-84
6.38558e-84
6.65033e-84
6.36972e-84
6.45802e-84
6.51676e-84
6.31125e-84
1.0161e-82
1.0029e-82
1.017e-82
9.86206e-83
1.00587e-82
1.005e-82
1.00664e-82
9.78624e-83
9.89617e-83
1.0121e-82
9.91561e-83
1.01823e-82
9.88405e-83
1.01158e-82
9.803e-83
1.02004e-82
9.80336e-83
9.91662e-83
9.99739e-83
9.72309e-83
7.88931e-83
7.90119e-83
7.87689e-83
7.74191e-83
7.84401e-83
7.81568e-83
7.91049e-83
7.7307e-83
7.92881e-83
7.8324e-83
7.86425e-83
7.92187e-83
7.76208e-83
7.83908e-83
7.63589e-83
7.85166e-83
7.85277e-83
7.75138e-83
7.76766e-83
7.86327e-83
1.18075e-82
1.19488e-82
1.20147e-82
1.18504e-82
1.17639e-82
1.18429e-82
1.20282e-82
1.17485e-82
1.21181e-82
1.20292e-82
1.20536e-82
1.20625e-82
1.19153e-82
1.17786e-82
1.16791e-82
1.18556e-82
1.17813e-82
1.17654e-82
1.18581e-82
1.19343e-82
1.37838e-82
1.39069e-82
1.39598e-82
1.37564e-82
1.36743e-82
1.33992e-82
1.37084e-82
1.34354e-82
1.3855e-82
1.42102e-82
1.40943e-82
1.36687e-82
1.40558e-82
1.38221e-82
1.38121e-82
1.39084e-82
1.33102e-82
1.38704e-82
1.36084e-82
1.36737e-82
1.56759e-82
1.60487e-82
1.5941e-82
1.58154e-82
1.59132e-82
1.60498e-82
1.65348e-82
1.58719e-82
1.59607e-82
1.57794e-82
1.58493e-82
1.58523e-82
1.59679e-82
1.59132e-82
1.56155e-82
1.58831e-82
1.59964e-82
1.57088e-82
1.56345e-82
1.57054e-82
1.70758e-82
1.71205e-82
1.72871e-82
1.75737e-82
1.73923e-82
1.76224e-82
1.73088e-82
1.759e-82
1.74014e-82
1.67064e-82
1.69628e-82
1.69759e-82
1.71221e-82
1.67809e-82
1.67471e-82
1.68901e-82
1.68276e-82
1.71327e-82
1.69636e-82
1.73131e-82
1.74206e-82
1.74602e-82
1.77754e-82
1.76312e-82
1.74227e-82
1.7645e-82
1.76916e-82
1.79406e-82
1.74226e-82
1.77012e-82
1.7613e-82
1.76308e-82
1.78244e-82
1.76325e-82
1.74932e-82
1.80947e-82
1.75347e-82
1.73436e-82
1.7571e-82
1.7703e-82
1.74077e-82
1.70503e-82
1.72573e-82
1.7083e-82
1.73498e-82
1.74687e-82
1.75327e-82
1.73558e-82
1.69327e-82
1.70792e-82
1.69412e-82
1.75347e-82
1.73863e-82
1.7686e-82
1.75944e-82
1.76073e-82
1.74172e-82
1.74055e-82
1.71898e-82
1.72843e-82
1.59563e-82
1.61519e-82
1.59738e-82
1.66131e-82
1.61342e-82
1.65309e-82
1.62152e-82
1.63655e-82
1.61449e-82
1.61967e-82
1.61708e-82
1.64842e-82
1.62071e-82
1.66857e-82
1.60746e-82
1.64578e-82
1.63783e-82
1.58436e-82
1.64384e-82
1.64044e-82
1.4233e-82
1.48705e-82
1.46297e-82
1.45501e-82
1.43458e-82
1.50564e-82
1.48084e-82
1.48133e-82
1.4709e-82
1.44109e-82
1.47069e-82
1.49939e-82
1.45975e-82
1.53124e-82
1.4682e-82
1.49629e-82
1.51032e-82
1.47241e-82
1.50469e-82
1.50625e-82
1.29646e-82
1.29333e-82
1.28499e-82
1.308e-82
1.32441e-82
1.31912e-82
1.29421e-82
1.29382e-82
1.33238e-82
1.2865e-82
1.32043e-82
1.3216e-82
1.29091e-82
1.33452e-82
1.33004e-82
1.35495e-82
1.31039e-82
1.34042e-82
1.32214e-82
1.36009e-82
9.50312e-83
9.57968e-83
9.51634e-83
9.44892e-83
9.65366e-83
9.56413e-83
9.71011e-83
9.56717e-83
9.7044e-83
9.78142e-83
9.591e-83
9.85118e-83
9.55408e-83
9.92581e-83
9.5789e-83
9.57471e-83
9.69798e-83
9.85551e-83
9.685e-83
9.97251e-83
2.82123e-98
2.78602e-98
2.83385e-98
2.73526e-98
2.8003e-98
2.7925e-98
2.79677e-98
2.71744e-98
2.74379e-98
2.81578e-98
2.74805e-98
2.83415e-98
2.73932e-98
2.80982e-98
2.71856e-98
2.83607e-98
2.71239e-98
2.75166e-98
2.78126e-98
2.68716e-98
2.3821e-95
2.35193e-95
2.3918e-95
2.30969e-95
2.36355e-95
2.35767e-95
2.36109e-95
2.29411e-95
2.31657e-95
2.37699e-95
2.32051e-95
2.39227e-95
2.31333e-95
2.3724e-95
2.29581e-95
2.39441e-95
2.29061e-95
2.32344e-95
2.34786e-95
2.26943e-95
1.06229e-92
1.04863e-92
1.06618e-92
1.03008e-92
1.05362e-92
1.05131e-92
1.05275e-92
1.02289e-92
1.03299e-92
1.05978e-92
1.0349e-92
1.06648e-92
1.03179e-92
1.05792e-92
1.02398e-92
1.06766e-92
1.02166e-92
1.03616e-92
1.04679e-92
1.01227e-92
2.75881e-90
2.72282e-90
2.76777e-90
2.67538e-90
2.73525e-90
2.73011e-90
2.73362e-90
2.65609e-90
2.68255e-90
2.75173e-90
2.6879e-90
2.76883e-90
2.68005e-90
2.7474e-90
2.65976e-90
2.77248e-90
2.65375e-90
2.69107e-90
2.71796e-90
2.62949e-90
5.01291e-88
4.94655e-88
5.02709e-88
4.86171e-88
4.9682e-88
4.96042e-88
4.96632e-88
4.82551e-88
4.87394e-88
4.99898e-88
4.88439e-88
5.02947e-88
4.87058e-88
4.99204e-88
4.83372e-88
5.03717e-88
4.82276e-88
4.89e-88
4.93752e-88
4.77891e-88
6.39007e-86
6.30428e-86
6.40548e-86
6.19789e-86
6.33073e-86
6.32284e-86
6.32973e-86
6.15037e-86
6.2125e-86
6.37111e-86
6.22677e-86
6.40921e-86
6.20978e-86
6.36346e-86
6.16279e-86
6.42036e-86
6.14871e-86
6.23372e-86
6.29249e-86
6.09292e-86
5.56714e-84
5.49132e-84
5.57817e-84
5.40018e-84
5.51337e-84
5.50828e-84
5.51368e-84
5.35755e-84
5.41195e-84
5.54949e-84
5.42523e-84
5.58198e-84
5.41099e-84
5.5439e-84
5.37004e-84
5.59281e-84
5.35757e-84
5.43111e-84
5.48064e-84
5.30897e-84
3.25838e-82
3.2135e-82
3.26331e-82
3.16102e-82
3.22571e-82
3.22374e-82
3.22666e-82
3.13544e-82
3.16753e-82
3.24733e-82
3.17576e-82
3.26597e-82
3.16768e-82
3.24476e-82
3.14361e-82
3.27289e-82
3.13646e-82
3.17899e-82
3.20687e-82
3.10812e-82
4.92078e-81
4.85622e-81
4.92372e-81
4.77688e-81
4.86975e-81
4.86734e-81
4.87468e-81
4.73913e-81
4.79253e-81
4.90126e-81
4.80264e-81
4.93021e-81
4.78794e-81
4.89923e-81
4.74868e-81
4.9398e-81
4.74836e-81
4.80307e-81
4.84098e-81
4.70963e-81
3.77383e-81
3.77921e-81
3.76839e-81
3.70442e-81
3.75202e-81
3.73984e-81
3.7844e-81
3.69815e-81
3.7935e-81
3.74708e-81
3.76281e-81
3.78932e-81
3.71408e-81
3.75035e-81
3.65418e-81
3.75534e-81
3.75656e-81
3.70843e-81
3.7161e-81
3.76166e-81
5.66278e-81
5.72912e-81
5.76197e-81
5.68226e-81
5.64111e-81
5.67819e-81
5.76609e-81
5.63243e-81
5.80997e-81
5.76658e-81
5.78e-81
5.78208e-81
5.71376e-81
5.64805e-81
5.60084e-81
5.684e-81
5.64838e-81
5.64169e-81
5.68613e-81
5.72184e-81
6.57797e-81
6.63619e-81
6.66166e-81
6.56317e-81
6.52601e-81
6.39525e-81
6.54312e-81
6.41358e-81
6.61216e-81
6.78009e-81
6.72446e-81
6.52323e-81
6.70704e-81
6.5955e-81
6.59078e-81
6.63635e-81
6.35183e-81
6.61744e-81
6.49277e-81
6.52398e-81
7.48968e-81
7.66489e-81
7.61546e-81
7.55602e-81
7.60315e-81
7.66782e-81
7.89748e-81
7.58387e-81
7.62533e-81
7.53757e-81
7.57108e-81
7.57322e-81
7.62951e-81
7.60546e-81
7.46312e-81
7.58909e-81
7.6429e-81
7.50669e-81
7.47124e-81
7.50451e-81
8.10664e-81
8.12571e-81
8.20304e-81
8.34063e-81
8.25539e-81
8.36309e-81
8.21472e-81
8.34925e-81
8.25671e-81
7.93118e-81
8.05117e-81
8.05901e-81
8.12716e-81
7.96648e-81
7.94921e-81
8.01844e-81
7.98618e-81
8.13198e-81
8.05139e-81
8.21791e-81
8.28806e-81
8.30484e-81
8.45546e-81
8.38534e-81
8.28746e-81
8.39532e-81
8.4155e-81
8.53405e-81
8.2887e-81
8.42161e-81
8.38007e-81
8.38865e-81
8.47771e-81
8.3896e-81
8.32381e-81
8.60651e-81
8.34224e-81
8.25049e-81
8.35852e-81
8.41802e-81
8.22213e-81
8.05291e-81
8.14769e-81
8.06792e-81
8.19429e-81
8.25053e-81
8.27917e-81
8.19607e-81
7.99764e-81
8.06585e-81
7.99954e-81
8.27894e-81
8.21143e-81
8.35241e-81
8.30947e-81
8.31414e-81
8.22534e-81
8.22118e-81
8.11854e-81
8.16276e-81
7.56606e-81
7.65955e-81
7.5744e-81
7.87645e-81
7.64841e-81
7.83611e-81
7.68628e-81
7.75993e-81
7.65484e-81
7.67993e-81
7.66807e-81
7.81577e-81
7.68358e-81
7.91038e-81
7.62153e-81
7.8018e-81
7.76492e-81
7.51312e-81
7.79363e-81
7.77843e-81
6.70778e-81
7.00624e-81
6.89413e-81
6.85462e-81
6.76008e-81
7.09309e-81
6.976e-81
6.97928e-81
6.92981e-81
6.79028e-81
6.92805e-81
7.06291e-81
6.87796e-81
7.21165e-81
6.91593e-81
7.0479e-81
7.11291e-81
6.93723e-81
7.08824e-81
7.09571e-81
6.15025e-81
6.13554e-81
6.09716e-81
6.20571e-81
6.28173e-81
6.25712e-81
6.13852e-81
6.14059e-81
6.32076e-81
6.10409e-81
6.26381e-81
6.27023e-81
6.12268e-81
6.3311e-81
6.30892e-81
6.428e-81
6.2168e-81
6.35777e-81
6.27108e-81
6.45028e-81
4.48211e-81
4.51795e-81
4.48865e-81
4.45639e-81
4.55159e-81
4.51031e-81
4.57736e-81
4.51192e-81
4.57411e-81
4.61165e-81
4.5214e-81
4.6438e-81
4.50482e-81
4.6793e-81
4.51614e-81
4.51441e-81
4.57133e-81
4.64607e-81
4.56598e-81
4.70061e-81
1.49833e-96
1.47938e-96
1.50448e-96
1.45282e-96
1.48669e-96
1.48299e-96
1.48517e-96
1.44304e-96
1.45717e-96
1.49518e-96
1.45963e-96
1.50479e-96
1.45509e-96
1.49222e-96
1.44405e-96
1.50608e-96
1.44079e-96
1.46143e-96
1.47681e-96
1.42748e-96
1.28205e-93
1.2656e-93
1.2868e-93
1.24322e-93
1.27162e-93
1.26884e-93
1.2706e-93
1.23456e-93
1.24676e-93
1.27909e-93
1.24905e-93
1.28718e-93
1.24528e-93
1.27679e-93
1.23583e-93
1.28857e-93
1.23305e-93
1.25053e-93
1.26338e-93
1.22173e-93
5.61122e-91
5.5382e-91
5.62968e-91
5.44172e-91
5.56343e-91
5.553e-91
5.56023e-91
5.40257e-91
5.45643e-91
5.5971e-91
5.46723e-91
5.6319e-91
5.4512e-91
5.58803e-91
5.40984e-91
5.63913e-91
5.39769e-91
5.47349e-91
5.52828e-91
5.34845e-91
1.43859e-88
1.41961e-88
1.44273e-88
1.39527e-88
1.42581e-88
1.42358e-88
1.42531e-88
1.38492e-88
1.39884e-88
1.43469e-88
1.40181e-88
1.44345e-88
1.39783e-88
1.43263e-88
1.38722e-88
1.44561e-88
1.38411e-88
1.40337e-88
1.41703e-88
1.37156e-88
2.56813e-86
2.53381e-86
2.57445e-86
2.49104e-86
2.54435e-86
2.54119e-86
2.54404e-86
2.47199e-86
2.49702e-86
2.56067e-86
2.50269e-86
2.576e-86
2.49581e-86
2.55745e-86
2.47685e-86
2.58039e-86
2.47134e-86
2.50539e-86
2.52906e-86
2.44906e-86
3.22999e-84
3.18626e-84
3.23658e-84
3.13336e-84
3.19889e-84
3.19597e-84
3.19924e-84
3.10873e-84
3.14043e-84
3.22002e-84
3.14801e-84
3.23891e-84
3.13967e-84
3.21658e-84
3.11579e-84
3.24509e-84
3.10887e-84
3.1513e-84
3.18012e-84
3.08092e-84
2.76688e-82
2.72895e-82
2.77133e-82
2.6844e-82
2.73922e-82
2.73761e-82
2.74015e-82
2.66271e-82
2.69004e-82
2.7578e-82
2.69693e-82
2.77363e-82
2.69004e-82
2.75538e-82
2.66954e-82
2.77946e-82
2.66362e-82
2.69962e-82
2.72343e-82
2.63972e-82
1.5948e-80
1.57276e-80
1.59662e-80
1.54749e-80
1.57829e-80
1.57786e-80
1.57923e-80
1.53471e-80
1.55063e-80
1.58924e-80
1.55478e-80
1.59818e-80
1.55091e-80
1.58818e-80
1.53901e-80
1.60179e-80
1.53577e-80
1.55619e-80
1.56933e-80
1.5221e-80
2.36968e-79
2.33829e-79
2.37041e-79
2.30081e-79
2.34438e-79
2.34411e-79
2.34735e-79
2.28215e-79
2.30794e-79
2.36023e-79
2.31314e-79
2.37381e-79
2.30634e-79
2.35948e-79
2.28743e-79
2.37881e-79
2.28705e-79
2.31332e-79
2.33098e-79
2.26845e-79
1.79403e-79
1.79645e-79
1.7917e-79
1.76156e-79
1.78359e-79
1.77846e-79
1.79926e-79
1.75814e-79
1.80374e-79
1.78154e-79
1.78925e-79
1.80136e-79
1.76615e-79
1.78312e-79
1.73791e-79
1.78501e-79
1.78592e-79
1.76322e-79
1.76681e-79
1.78838e-79
2.69977e-79
2.73073e-79
2.74697e-79
2.70854e-79
2.68907e-79
2.70637e-79
2.74779e-79
2.68432e-79
2.76909e-79
2.74808e-79
2.75525e-79
2.75522e-79
2.72373e-79
2.69236e-79
2.67006e-79
2.70901e-79
2.69203e-79
2.68928e-79
2.71044e-79
2.72708e-79
3.12209e-79
3.14947e-79
3.16167e-79
3.11425e-79
3.09758e-79
3.03578e-79
3.10607e-79
3.04498e-79
3.1384e-79
3.21737e-79
3.19079e-79
3.09622e-79
3.18297e-79
3.13005e-79
3.12782e-79
3.14929e-79
3.01471e-79
3.13993e-79
3.08096e-79
3.09577e-79
3.56022e-79
3.64212e-79
3.61958e-79
3.59161e-79
3.61418e-79
3.64463e-79
3.75282e-79
3.60526e-79
3.62451e-79
3.58227e-79
3.59823e-79
3.59958e-79
3.62683e-79
3.61641e-79
3.54871e-79
3.6077e-79
3.63309e-79
3.56893e-79
3.55209e-79
3.56763e-79
3.83313e-79
3.84113e-79
3.87686e-79
3.94262e-79
3.90275e-79
3.95293e-79
3.88304e-79
3.94711e-79
3.90191e-79
3.75015e-79
3.80602e-79
3.81051e-79
3.8421e-79
3.76677e-79
3.75802e-79
3.79138e-79
3.77493e-79
3.8443e-79
3.80605e-79
3.88505e-79
3.92891e-79
3.93587e-79
4.00756e-79
3.97363e-79
3.92787e-79
3.97999e-79
3.98859e-79
4.04485e-79
3.92908e-79
3.99221e-79
3.9727e-79
3.97686e-79
4.0176e-79
3.97749e-79
3.9465e-79
4.07877e-79
3.95452e-79
3.91074e-79
3.96178e-79
3.98842e-79
3.87341e-79
3.79362e-79
3.83682e-79
3.8005e-79
3.86007e-79
3.88661e-79
3.89934e-79
3.86054e-79
3.76773e-79
3.7994e-79
3.76764e-79
3.89866e-79
3.86817e-79
3.93423e-79
3.91419e-79
3.91575e-79
3.87432e-79
3.87303e-79
3.82441e-79
3.84504e-79
3.57994e-79
3.62447e-79
3.58387e-79
3.72617e-79
3.61792e-79
3.70652e-79
3.6356e-79
3.67151e-79
3.62155e-79
3.63373e-79
3.62826e-79
3.6978e-79
3.63484e-79
3.74207e-79
3.60588e-79
3.69045e-79
3.67343e-79
3.55515e-79
3.68707e-79
3.6803e-79
3.15829e-79
3.29784e-79
3.24572e-79
3.2262e-79
3.1825e-79
3.33837e-79
3.28314e-79
3.28514e-79
3.26168e-79
3.19646e-79
3.26047e-79
3.32381e-79
3.23761e-79
3.39319e-79
3.25463e-79
3.31658e-79
3.34664e-79
3.26534e-79
3.33589e-79
3.33949e-79
2.91575e-79
2.90883e-79
2.89121e-79
2.94238e-79
2.97755e-79
2.9661e-79
2.90966e-79
2.91252e-79
2.99663e-79
2.89439e-79
2.9695e-79
2.97298e-79
2.90208e-79
3.00159e-79
2.99068e-79
3.04755e-79
2.94752e-79
3.01362e-79
2.97254e-79
3.05709e-79
2.12317e-79
2.14005e-79
2.12645e-79
2.11093e-79
2.15536e-79
2.13628e-79
2.16719e-79
2.13714e-79
2.16536e-79
2.18373e-79
2.14076e-79
2.1986e-79
2.13331e-79
2.21557e-79
2.13848e-79
2.13778e-79
2.16419e-79
2.19978e-79
2.16201e-79
2.22531e-79
8.17377e-95
8.06903e-95
8.2043e-95
7.92631e-95
8.10738e-95
8.08968e-95
8.10098e-95
7.87123e-95
7.949e-95
8.15523e-95
7.96351e-95
8.20681e-95
7.9394e-95
8.14019e-95
7.87909e-95
8.21536e-95
7.86126e-95
7.97275e-95
8.05483e-95
7.78917e-95
6.8943e-92
6.80474e-92
6.91727e-92
6.68622e-92
6.83575e-92
6.82296e-92
6.83193e-92
6.63823e-92
6.70441e-92
6.87733e-92
6.71762e-92
6.9201e-92
6.69789e-92
6.86588e-92
6.64699e-92
6.92878e-92
6.63203e-92
6.72515e-92
6.79262e-92
6.57158e-92
2.96108e-89
2.9221e-89
2.96973e-89
2.872e-89
2.93483e-89
2.93027e-89
2.93386e-89
2.85073e-89
2.87938e-89
2.95322e-89
2.88547e-89
2.97125e-89
2.87726e-89
2.94882e-89
2.85538e-89
2.9756e-89
2.84898e-89
2.88859e-89
2.91678e-89
2.82318e-89
7.48287e-87
7.38313e-87
7.50169e-87
7.25856e-87
7.41379e-87
7.40465e-87
7.41309e-87
7.2032e-87
7.27618e-87
7.46167e-87
7.29262e-87
7.50637e-87
7.27253e-87
7.4519e-87
7.21717e-87
7.51894e-87
7.20114e-87
7.30027e-87
7.36944e-87
7.13634e-87
1.31205e-84
1.29435e-84
1.3148e-84
1.27287e-84
1.29945e-84
1.29828e-84
1.29963e-84
1.26287e-84
1.27576e-84
1.30809e-84
1.27882e-84
1.31577e-84
1.27542e-84
1.30661e-84
1.2657e-84
1.31824e-84
1.26291e-84
1.28013e-84
1.29187e-84
1.25162e-84
1.62582e-82
1.60363e-82
1.62855e-82
1.57746e-82
1.60962e-82
1.6087e-82
1.61023e-82
1.56475e-82
1.58083e-82
1.62064e-82
1.58485e-82
1.62995e-82
1.58079e-82
1.61911e-82
1.5687e-82
1.63334e-82
1.56529e-82
1.5864e-82
1.60046e-82
1.55135e-82
1.369e-80
1.35011e-80
1.3707e-80
1.32845e-80
1.35486e-80
1.35453e-80
1.35569e-80
1.31747e-80
1.33112e-80
1.36438e-80
1.33467e-80
1.37205e-80
1.33137e-80
1.36335e-80
1.32116e-80
1.37515e-80
1.31834e-80
1.3359e-80
1.34729e-80
1.30663e-80
7.76347e-79
7.65571e-79
7.76947e-79
7.53484e-79
7.68056e-79
7.68119e-79
7.68743e-79
7.47129e-79
7.54968e-79
7.73574e-79
7.57058e-79
7.77835e-79
7.55225e-79
7.73154e-79
7.4938e-79
7.79707e-79
7.47908e-79
7.57673e-79
7.63832e-79
7.41333e-79
1.1349e-77
1.11973e-77
1.13492e-77
1.10213e-77
1.12244e-77
1.12274e-77
1.12414e-77
1.09296e-77
1.10534e-77
1.13036e-77
1.10799e-77
1.13668e-77
1.10488e-77
1.13011e-77
1.09581e-77
1.13926e-77
1.09553e-77
1.10807e-77
1.11624e-77
1.08665e-77
8.47761e-78
8.48839e-78
8.46791e-78
8.3267e-78
8.42801e-78
8.40684e-78
8.50322e-78
8.30851e-78
8.5252e-78
8.41972e-78
8.45721e-78
8.5121e-78
8.34841e-78
8.42729e-78
8.21602e-78
8.43391e-78
8.43974e-78
8.33335e-78
8.35012e-78
8.45154e-78
1.27976e-77
1.29412e-77
1.30209e-77
1.28367e-77
1.27452e-77
1.28254e-77
1.30193e-77
1.27198e-77
1.31221e-77
1.30211e-77
1.30587e-77
1.30537e-77
1.29096e-77
1.27606e-77
1.2656e-77
1.28372e-77
1.27567e-77
1.27458e-77
1.2846e-77
1.29229e-77
1.47395e-77
1.48675e-77
1.49256e-77
1.46986e-77
1.46244e-77
1.4334e-77
1.46662e-77
1.43798e-77
1.48166e-77
1.51862e-77
1.50597e-77
1.46178e-77
1.50249e-77
1.47753e-77
1.47647e-77
1.48654e-77
1.42323e-77
1.48193e-77
1.45421e-77
1.46119e-77
1.68383e-77
1.72189e-77
1.71168e-77
1.69861e-77
1.70934e-77
1.72362e-77
1.7743e-77
1.70525e-77
1.71413e-77
1.69392e-77
1.70147e-77
1.70226e-77
1.71538e-77
1.71095e-77
1.67891e-77
1.70638e-77
1.7183e-77
1.68824e-77
1.68027e-77
1.6875e-77
1.80517e-77
1.80847e-77
1.82489e-77
1.85619e-77
1.83762e-77
1.86091e-77
1.82811e-77
1.85851e-77
1.83652e-77
1.7661e-77
1.79199e-77
1.79448e-77
1.80905e-77
1.77388e-77
1.76949e-77
1.78549e-77
1.77718e-77
1.81005e-77
1.79196e-77
1.82928e-77
1.85545e-77
1.85827e-77
1.89225e-77
1.87592e-77
1.85461e-77
1.8797e-77
1.88328e-77
1.90989e-77
1.85547e-77
1.88534e-77
1.87621e-77
1.87823e-77
1.89676e-77
1.87862e-77
1.86406e-77
1.92569e-77
1.86751e-77
1.84671e-77
1.87072e-77
1.88257e-77
1.82113e-77
1.78363e-77
1.80325e-77
1.78677e-77
1.81476e-77
1.82725e-77
1.83288e-77
1.81483e-77
1.77152e-77
1.78619e-77
1.77101e-77
1.83228e-77
1.8186e-77
1.84944e-77
1.84012e-77
1.84059e-77
1.82127e-77
1.82097e-77
1.79803e-77
1.80764e-77
1.69055e-77
1.7117e-77
1.69236e-77
1.75925e-77
1.708e-77
1.74974e-77
1.71624e-77
1.73368e-77
1.70998e-77
1.71589e-77
1.71335e-77
1.74606e-77
1.71612e-77
1.76672e-77
1.70267e-77
1.74222e-77
1.7344e-77
1.67897e-77
1.74086e-77
1.73785e-77
1.48681e-77
1.55204e-77
1.52782e-77
1.51822e-77
1.49801e-77
1.57094e-77
1.5449e-77
1.54606e-77
1.53493e-77
1.50446e-77
1.53417e-77
1.56393e-77
1.52377e-77
1.59628e-77
1.53137e-77
1.56045e-77
1.57434e-77
1.53673e-77
1.56968e-77
1.57141e-77
1.38172e-77
1.37851e-77
1.37043e-77
1.39452e-77
1.41073e-77
1.40547e-77
1.37862e-77
1.38087e-77
1.42006e-77
1.37188e-77
1.40716e-77
1.40904e-77
1.37498e-77
1.42248e-77
1.4171e-77
1.44423e-77
1.39691e-77
1.42785e-77
1.40843e-77
1.44827e-77
1.00228e-77
1.01018e-77
1.00389e-77
9.96476e-78
1.01714e-77
1.00834e-77
1.02252e-77
1.00878e-77
1.02153e-77
1.03046e-77
1.01009e-77
1.03732e-77
1.00675e-77
1.0454e-77
1.00913e-77
1.00886e-77
1.02103e-77
1.03794e-77
1.02017e-77
1.04985e-77
4.45491e-93
4.39711e-93
4.46993e-93
4.32053e-93
4.41717e-93
4.40891e-93
4.41474e-93
4.28957e-93
4.33231e-93
4.44414e-93
4.34082e-93
4.47177e-93
4.32804e-93
4.43654e-93
4.29512e-93
4.47725e-93
4.28537e-93
4.34558e-93
4.38927e-93
4.24634e-93
3.69785e-90
3.64925e-90
3.70883e-90
3.58669e-90
3.66516e-90
3.65948e-90
3.664e-90
3.56018e-90
3.59595e-90
3.68824e-90
3.60354e-90
3.71077e-90
3.59327e-90
3.68258e-90
3.56591e-90
3.7161e-90
3.55787e-90
3.60736e-90
3.64266e-90