/*--------------------------------*- C++ -*----------------------------------*\
| =========                 |                                                 |
| \\      /  F ield         | OpenFOAM: The Open Source CFD Toolbox           |
|  \\    /   O peration     | Version:  2212                                  |
|   \\  /    A nd           | Website:  www.openfoam.com                      |
|    \\/     M anipulation  |                                                 |
\*---------------------------------------------------------------------------*/
FoamFile
{
    version     2.0;
    format      ascii;
    arch        "LSB;label=32;scalar=64";
    class       volVectorField;
    location    "0.00056";
    object      U;
}
// * * * * * * * * * * * * * * * * * * * * * * * * * * * * * * * * * * * * * //

dimensions      [0 1 -1 0 0 0 0];

internalField   nonuniform List<vector> 
7220
(
(0.0880628 4.99703 -4.10034e-17)
(0.00249069 4.94928 2.25937e-17)
(0.00234616 4.8789 1.13137e-17)
(-0.000749869 4.74193 1.40015e-17)
(0.000904966 4.95112 -2.21508e-17)
(0.000528034 4.88202 1.0874e-21)
(-0.00184969 4.88054 0)
(-0.00024047 4.94913 2.30969e-17)
(0.00268398 4.73906 0)
(0.000542271 4.8795 0)
(5.13561 4.90194 -7.38252e-19)
(4.70612 4.43897 -2.10527e-16)
(-3.01236 8.74845 1.10121e-17)
(-8.8746 -2.15339 1.597e-16)
(35.6198 -24.006 1.59844e-16)
(-1.96694 0.652794 9.69352e-17)
(-54.4374 0.964291 0)
(-6.18503e-06 4.99997 -4.51881e-16)
(-45.6305 0.0384228 3.95429e-17)
(0.00133093 4.99984 -2.27387e-16)
(1.17231 6.34921 4.53921e-17)
(-0.728886 6.09704 3.00899e-16)
(-0.0637204 3.0551 1.67313e-16)
(0.548961 8.32369 2.26638e-16)
(-0.222772 4.48294 1.55186e-16)
(-0.385439 5.83707 -3.33348e-16)
(-5.20329 -5.54205 9.21876e-17)
(-0.320335 4.7079 1.57377e-16)
(12.4236 6.58356 -4.47361e-17)
(-20.793 17.3648 7.49202e-17)
(0.0398288 4.92238 9.4204e-17)
(-13.1294 16.4445 -2.20128e-17)
(0.000108556 4.99985 4.02421e-16)
(-23.4016 16.7803 -4.0778e-17)
(0.816863 3.64985 -1.7041e-16)
(-0.000342961 5.00001 -3.30523e-16)
(0.0138323 4.72209 5.6039e-18)
(10.1167 5.22844 0)
(5.23291 4.99756 7.35307e-23)
(-1.7207e-05 5 -1.24544e-21)
(-1.84826e-05 5 -4.98011e-21)
(1.87314e-05 5 -3.1875e-19)
(1.8158e-05 5 2.80078e-19)
(4.19131e-05 5 -8.07716e-17)
(4.00828e-05 5 -3.25509e-16)
(4.31284e-06 5 -6.09537e-17)
(1.97934e-06 5 1.24725e-17)
(5.41494e-06 5 -1.15455e-16)
(-1.92628e-05 5 6.2714e-19)
(-1.82975e-05 5 -6.31973e-19)
(1.7002e-05 5 -5.9707e-19)
(1.7559e-05 5 6.37613e-19)
(-1.82704e-05 5 6.37942e-19)
(-1.8683e-05 5 -1.90923e-18)
(1.65221e-05 5 6.56484e-19)
(1.65238e-05 5 -6.76445e-19)
(-1.87924e-05 5 -2.64266e-27)
(-1.92274e-05 5 2.54471e-18)
(1.8755e-05 5 1.27773e-18)
(1.83332e-05 5 -6.36434e-19)
(-1.78494e-05 5 -1.2705e-18)
(-1.58218e-05 5 1.27259e-18)
(1.91586e-05 5 -6.369e-19)
(1.90104e-05 5 -1.27262e-18)
(-1.42438e-05 5 -1.27287e-18)
(-1.31146e-05 5 0)
(1.91679e-05 5 1.27187e-18)
(1.89093e-05 5 -8.74903e-27)
(-1.22339e-05 5 0)
(-1.14224e-05 5 -1.19389e-19)
(1.68954e-05 5 3.97643e-20)
(1.83066e-05 5 1.98803e-20)
(-1.11976e-05 5 2.7098e-18)
(-1.10912e-05 5 3.19279e-19)
(1.20888e-05 5 -2.39066e-18)
(1.67548e-05 5 2.38835e-18)
(-1.07671e-05 5 4.59859e-27)
(-1.04933e-05 5 -1.28365e-17)
(9.46737e-06 5 3.836e-18)
(1.03601e-05 5 6.38122e-19)
(-1.03844e-05 5 1.02748e-17)
(-1.04084e-05 5 -3.10232e-17)
(8.38269e-06 5 1.0289e-17)
(8.87947e-06 5 -1.53848e-27)
(7.06846e-06 5 8.81249e-25)
(7.80403e-06 5 -1.03478e-17)
(-1.06686e-05 5 1.05158e-17)
(-1.13032e-05 5 2.42391e-17)
(-1.23555e-05 5 4.17812e-17)
(4.72056e-05 5 4.04428e-17)
(-1.58294e-05 5.00002 0)
(1.70898e-05 5.00002 3.98391e-20)
(0.000100124 5 -9.95745e-21)
(9.84218e-05 5 9.95555e-21)
(4.17205e-05 5 -2.06645e-17)
(5.46301e-06 5 3.46076e-26)
(-1.35592e-05 5 2.30187e-17)
(-1.32469e-05 5 4.52673e-17)
(-6.01443e-05 5 -1.05317e-17)
(-6.01041e-05 5 6.45353e-18)
(-5.97285e-05 5 -1.29898e-18)
(-6.32593e-05 5 0)
(-6.11437e-05 5 0)
(-6.98578e-05 5 0)
(-6.61128e-05 5 -6.38834e-19)
(-7.70329e-05 5 0)
(-7.3103e-05 5 7.96538e-20)
(-8.56494e-05 5 -1.27309e-18)
(-8.13566e-05 5 1.27324e-18)
(-9.26981e-05 5 -6.41541e-19)
(-8.94727e-05 5 0)
(-9.95848e-05 5 -1.29223e-18)
(-9.67134e-05 5 1.2733e-18)
(-9.87461e-05 5 -6.48018e-19)
(-9.92328e-05 5 6.36437e-19)
(-9.80713e-05 5 9.95447e-21)
(-9.8911e-05 5 6.51694e-19)
(-9.57303e-05 5 0)
(-9.87024e-05 5 4.97922e-21)
(9.95432e-05 5 -1.96788e-26)
(0.000100413 5 0)
(9.87828e-05 5 -1.98719e-20)
(9.97649e-05 5 3.97671e-20)
(9.97935e-05 5 -4.97194e-21)
(9.97568e-05 5 0)
(9.79846e-05 5 1.24153e-21)
(9.89244e-05 5 0)
(9.9074e-05 5 -6.36206e-19)
(9.89138e-05 5 6.41013e-19)
(9.31873e-05 5 -1.27218e-18)
(9.69837e-05 5 1.25249e-18)
(7.20893e-05 5.00001 1.59011e-19)
(8.78581e-05 5.00001 -4.96929e-21)
(5.84134e-05 5 1.27358e-18)
(6.34872e-05 5 -6.36407e-19)
(5.2677e-05 5 2.03604e-17)
(5.52922e-05 5 -5.09538e-18)
(5.0103e-05 5 2.02573e-17)
(-6.17507e-05 5 -6.51251e-24)
(-9.07828e-05 5.00002 0)
(9.39249e-05 5.00002 0)
(0.00019355 4.99999 -8.80431e-17)
(0.000217968 4.99999 9.72474e-18)
(4.36136e-05 5 0)
(-1.28989e-05 5 4.22603e-26)
(-6.40963e-05 5 -1.09409e-17)
(-6.63719e-05 5 1.10932e-17)
(-0.000280766 5.00001 -1.11649e-23)
(0.000188002 5 0)
(-6.69907e-05 5 1.10051e-17)
(-0.000287099 5.00001 1.0858e-17)
(-0.0002708 5.00001 7.88723e-18)
(-0.000274771 5.00001 -1.59904e-17)
(-0.00027274 5.00001 0)
(-0.0002702 5.00001 -2.60639e-18)
(-0.000287874 5.00001 -1.28144e-18)
(-0.000277589 5.00001 2.57836e-18)
(-0.000316773 5.00001 3.18928e-19)
(-0.000300533 5.00001 0)
(-0.000337954 5.00001 6.3698e-19)
(-0.000328025 5.00001 -3.18763e-19)
(-0.000356211 5.00001 0)
(-0.000347599 5.00001 -3.97954e-20)
(-0.000365156 5.00001 3.73014e-21)
(-0.000361592 5.00001 0)
(-0.00037381 5 -3.18279e-19)
(-0.00036828 5.00001 -9.94633e-21)
(-0.000380634 5 6.27068e-19)
(-0.000377869 5 3.18385e-19)
(-0.000382903 5 6.16972e-19)
(-0.000382857 5 -6.56816e-19)
(-0.000381165 5 2.54609e-18)
(-0.00038266 5 -1.91263e-18)
(-8.64649e-05 5.0001 0)
(-0.000363701 5.00009 0)
(-0.000373512 5.00001 -1.27512e-18)
(1.59348e-05 5.0001 1.99116e-20)
(-1.4888e-05 5.0001 3.38563e-19)
(0.000375488 5.00001 0)
(0.00036949 5.00009 -7.96378e-20)
(8.9421e-05 5.0001 1.19469e-19)
(0.000380109 5 3.28465e-19)
(0.000380406 5 -3.28592e-19)
(0.000385622 5 3.97724e-20)
(0.000385394 5 0)
(0.000386565 5 -3.97844e-20)
(0.000386824 5 -7.95545e-20)
(0.000379465 5 0)
(0.000382853 5 0)
(0.000378013 5 -4.96447e-21)
(0.000378956 5 0)
(0.00038017 5 -2.48468e-21)
(0.00038065 5 -4.9674e-21)
(0.000380025 5.00001 0)
(0.000380784 5.00001 0)
(0.000328709 5.00002 -1.1121e-18)
(0.000365269 5.00002 1.27645e-18)
(0.000272233 5.00001 5.07662e-18)
(0.000296456 5.00001 0)
(0.000244666 5 -2.01745e-17)
(0.000257867 5 1.27417e-24)
(0.0002318 5 -3.31449e-25)
(0.000208861 5 -4.03414e-17)
(0.000198529 5 5.8711e-17)
(0.000923654 4.99998 1.89857e-17)
(0.000965696 4.99997 1.70487e-17)
(-8.38458e-05 5.00043 -3.9821e-20)
(-0.000356174 5.00042 3.98333e-20)
(0.00137294 5.00001 6.368e-19)
(0.00137244 5.00008 -5.97139e-19)
(6.04335e-06 5 4.24534e-17)
(0.000219218 5 3.0796e-17)
(4.55874e-05 5 -1.03668e-17)
(-6.79713e-05 5 3.23738e-17)
(-0.00115511 5.00003 -3.20717e-17)
(0.000983103 5 1.52434e-17)
(0.00093423 5 0)
(-0.000291602 5.00001 1.08057e-17)
(0.000913526 5.00001 2.12842e-17)
(-0.00117402 5.00003 1.07152e-17)
(-0.00113391 5.00002 0)
(-0.00114099 5.00003 -1.06122e-17)
(-0.00114886 5.00002 7.78348e-18)
(-0.00113589 5.00002 -2.1014e-23)
(-0.00120929 5.00003 2.56072e-18)
(-0.00116931 5.00002 -3.86621e-18)
(-0.00128763 5.00003 3.18965e-19)
(-0.00124645 5.00003 -1.91764e-18)
(-0.00133197 5.00002 6.37005e-19)
(-0.00131449 5.00002 -6.37457e-19)
(-0.00134361 5.00002 0)
(-0.00133631 5.00002 -2.78537e-19)
(-0.00135072 5.00001 3.16458e-19)
(-0.00134805 5.00001 -3.18318e-19)
(-0.00135293 5.00001 3.2816e-19)
(-0.0013518 5.00001 -3.03393e-19)
(-0.00136286 5 3.38392e-19)
(-0.00135765 5.00001 -2.98315e-19)
(-0.00137275 5 -3.38646e-19)
(-0.0013671 5 3.18586e-19)
(-0.0013761 4.99999 2.49073e-20)
(-0.00137362 5 0)
(-0.0013692 5.00008 -1.35489e-18)
(-0.00137555 5 1.27467e-18)
(1.51386e-05 5.00043 -7.96123e-20)
(-1.43332e-05 5.00043 -3.18492e-19)
(0.000363093 5.00042 -7.96244e-20)
(8.64047e-05 5.00042 -3.18444e-19)
(0.00137002 5 0)
(0.00137014 5 -6.36675e-19)
(0.00137154 5 -1.59016e-19)
(0.00136825 5 1.59068e-19)
(0.00137025 5 4.03822e-20)
(0.00136977 5 3.91489e-20)
(0.00136787 5 9.94049e-20)
(0.00136773 5 0)
(0.00137205 5 4.96791e-21)
(0.00136787 5 -7.94741e-20)
(0.00137517 5 -7.45297e-21)
(0.00137298 5 -9.9397e-21)
(0.00138855 5.00002 0)
(0.00138032 5 -9.93521e-21)
(0.00136912 5.00007 -7.9385e-19)
(0.00138414 5.00005 6.35459e-19)
(0.00117923 5.00003 1.26676e-18)
(0.00127816 5.00006 1.26863e-18)
(0.00106178 5 0)
(0.00112177 5.00002 -7.58084e-18)
(0.00100881 4.99999 1.24171e-17)
(0.000897413 5.00001 -1.94288e-17)
(-0.00135834 5.00042 0)
(0.00136689 5.00042 1.99047e-18)
(-1.23564e-05 5 8.48593e-26)
(0.000225637 5 -1.57008e-17)
(0.000996412 5.00001 -1.55755e-17)
(6.66764e-06 5 1.04818e-17)
(-0.00119147 5.00002 3.20472e-17)
(0.003957 4.99995 9.71175e-18)
(0.00402434 4.99992 -2.08977e-17)
(0.00382149 5.00005 -3.64469e-18)
(-0.000298572 5 -2.14499e-17)
(-0.00476743 5.00008 1.19527e-19)
(-0.00476302 5.00041 1.27502e-18)
(0.000357182 5.00175 3.97991e-20)
(0.00135792 5.00175 -1.35335e-18)
(-7.15189e-05 5.00001 3.47643e-25)
(4.71795e-05 5 0)
(0.000960049 5 -1.61296e-17)
(0.000224885 5 5.36279e-18)
(0.00260717 5.00002 -5.03904e-17)
(0.00351059 4.99997 -2.32404e-17)
(0.000908631 5.00001 7.00361e-19)
(-1.09631e-05 5 -5.24558e-17)
(-0.00456777 5.00009 1.05958e-17)
(-0.0044572 5.00009 -1.058e-17)
(-0.00451711 5.0001 1.06173e-17)
(-0.00441403 5.00008 1.56725e-17)
(-0.00442658 5.00009 1.93194e-22)
(-0.00445953 5.00008 0)
(-0.00442452 5.00008 -1.03885e-17)
(-0.00459465 5.00009 -6.39546e-19)
(-0.00451572 5.00009 -1.28386e-18)
(-0.00469081 5.00008 -1.59368e-19)
(-0.00464659 5.00009 6.38489e-19)
(-0.00472825 5.00003 -1.59232e-19)
(-0.00471494 5.00005 0)
(-0.00473147 5.00002 -1.58973e-19)
(-0.00473517 5.00002 2.38637e-19)
(-0.00472869 5.00001 -1.57926e-19)
(-0.00472957 5.00002 1.59067e-19)
(-0.00472614 5.00001 -1.49105e-19)
(-0.00472808 5.00001 1.49168e-19)
(-0.00472774 5.00001 0)
(-0.00472595 5.00001 -1.98743e-20)
(-0.00473439 5.00001 3.18619e-19)
(-0.00473071 5.00001 -3.18498e-19)
(-0.00474813 5 1.2154e-18)
(-0.00474154 5 -5.97679e-19)
(-0.00476049 5 -1.90666e-18)
(-0.00134607 5.00175 1.19494e-19)
(-8.24219e-05 5.00175 -3.19683e-19)
(-0.000349861 5.00175 5.97259e-19)
(1.42574e-05 5.00175 1.19369e-19)
(-1.38698e-05 5.00175 -3.17109e-19)
(8.48672e-05 5.00175 3.97935e-19)
(0.00476213 5.00041 -6.76611e-19)
(0.00475163 5.00001 -4.97286e-21)
(0.00475935 5.00009 5.96963e-19)
(0.00474076 5 0)
(0.00474216 5 0)
(0.00473546 5 -1.58979e-19)
(0.00473448 5 0)
(0.00473637 5 3.97805e-20)
(0.00473526 5 1.98826e-20)
(0.004741 5 -2.48571e-20)
(0.00473717 5 3.97768e-20)
(0.00475058 5 4.97036e-21)
(0.00474401 5 7.03917e-29)
(0.00476598 5 9.93663e-21)
(0.00475627 5 2.98163e-20)
(0.00480366 5.00001 7.94353e-20)
(0.00477961 4.99999 9.93445e-21)
(0.00494626 5.00012 -1.26828e-18)
(0.00484438 5.00004 0)
(0.00468513 5.00013 -2.52902e-18)
(0.00492985 5.00018 6.33856e-19)
(0.00430438 5.00003 5.02313e-18)
(0.00453668 5.00007 5.04816e-18)
(0.00411512 4.99996 -1.86919e-17)
(0.0038632 4.99998 9.96647e-18)
(0.00374983 5.00006 -1.47525e-17)
(0.00397884 5.00003 -7.68902e-18)
(0.00405494 4.99999 -2.52625e-18)
(0.0038245 5.00001 1.58756e-17)
(-0.00121471 5.00002 1.05864e-17)
(-0.00475155 5.00174 -7.96779e-20)
(0.00475828 5.00174 0)
(0.0147265 4.99997 -9.87491e-18)
(0.0151513 4.99978 -4.97994e-18)
(0.0140169 5.00023 1.10814e-17)
(0.0132627 5.00011 1.64162e-16)
(-0.000318838 5.00001 4.4154e-17)
(7.54926e-06 5 0)
(4.88956e-05 5 -2.15524e-17)
(0.000792959 5.00001 4.90666e-17)
(-6.17786e-05 5 -1.31127e-16)
(0.0131451 5.00002 0)
(-0.0162141 5.0003 -2.11073e-17)
(0.000220104 5.00001 -2.27642e-17)
(-0.00464326 5.00005 -2.10597e-17)
(-0.0164741 5.00014 -1.53734e-22)
(0.00342361 5.00007 3.84651e-23)
(-0.0158403 5.00027 0)
(-0.0160398 5.00029 4.92836e-22)
(-0.01566 5.00024 -1.03746e-17)
(-0.0157342 5.00026 1.04348e-17)
(-0.0156148 5.00022 2.5692e-18)
(-0.0156075 5.00023 1.03202e-17)
(-0.0156569 5.00019 -6.38465e-19)
(-0.0156532 5.00023 -2.5643e-18)
(-0.0156688 5.00011 1.59274e-19)
(-0.015685 5.00015 6.38012e-19)
(-0.0156667 5.00005 0)
(-0.0156711 5.00007 0)
(-0.0156609 5.00001 -7.95816e-20)
(-0.0156677 5.00003 1.19385e-19)
(-0.0156543 5.00001 -6.21771e-22)
(-0.0156571 5.00001 8.95292e-20)
(-0.0156514 5.00001 0)
(-0.0156518 5.00001 4.9741e-21)
(-0.0156465 5.00001 7.95629e-20)
(-0.015649 5.00001 0)
(-0.0156492 5.00001 3.98098e-20)
(-0.0156477 5.00001 -5.96742e-20)
(-0.0156612 5.00001 3.18695e-19)
(-0.0156544 5.00001 -3.18571e-19)
(-0.0156904 5.00008 -6.77175e-19)
(-0.0156754 5.00002 6.52044e-19)
(-0.0157011 5.00174 1.2748e-18)
(-0.0157008 5.00041 -3.98358e-20)
(-0.0156902 5.00675 -1.19535e-18)
(-0.0013347 5.00675 0)
(-0.00473196 5.00675 1.19502e-18)
(-8.18928e-05 5.00673 6.36744e-19)
(-0.000343177 5.00674 -6.36953e-19)
(1.46975e-05 5.00672 -1.61602e-19)
(-1.5981e-05 5.00672 2.78483e-19)
(0.000352212 5.00673 0)
(8.41737e-05 5.00672 0)
(0.00474513 5.00674 -6.76744e-19)
(0.00134612 5.00674 -5.96992e-19)
(0.0156869 5.00675 1.2739e-18)
(0.0156869 5.00042 6.96314e-19)
(0.0156909 5.00174 -6.36904e-19)
(0.015666 5.00002 6.41521e-19)
(0.0156772 5.00009 -1.27314e-18)
(0.0156518 5 0)
(0.0156568 5.00001 3.97987e-20)
(0.0156483 5 0)
(0.015652 5 0)
(0.0156509 5 0)
(0.0156495 5 1.98858e-20)
(0.0156556 5 3.97699e-20)
(0.0156534 5 -3.97753e-20)
(0.015666 4.99999 1.98811e-20)
(0.0156608 4.99999 -1.98821e-20)
(0.0156971 4.99998 -3.97437e-20)
(0.0156781 4.99998 3.97543e-20)
(0.0157822 4.99995 -7.94272e-20)
(0.0157294 4.99997 -4.93559e-27)
(0.0160435 4.99997 7.13092e-19)
(0.0158902 4.99991 -3.96987e-20)
(0.0165252 5.0003 -1.57921e-19)
(0.0163119 5.00026 7.91403e-20)
(0.0158469 5.00014 -5.03643e-18)
(0.0163501 5.00023 0)
(0.0153282 4.99989 1.003e-17)
(0.0142535 4.9999 -4.97999e-18)
(0.0139319 5.00017 4.95347e-18)
(0.0146598 5.00013 2.26811e-17)
(0.014694 5 -3.75701e-18)
(0.0140789 4.99996 -2.02895e-17)
(-0.00483005 5.00005 2.77455e-24)
(-0.00126223 5.00002 -4.90889e-26)
(-8.68333e-06 5 -4.9797e-18)
(-0.0170898 5.00011 0)
(0.0459612 5.00068 -4.98332e-18)
(0.0477127 4.99979 -2.50123e-18)
(0.045512 5.00089 4.98055e-18)
(-0.0489185 5.00175 0)
(-0.0489218 5.00677 1.27492e-18)
(0.00472299 5.02425 3.98659e-20)
(0.0156679 5.02429 -6.76865e-19)
(8.65401e-06 5 -6.54089e-17)
(5.00746e-05 5 4.43363e-17)
(0.000199987 5 1.969e-17)
(0.0136357 4.99995 0)
(0.0442264 4.99984 2.59949e-22)
(0.0453556 4.99907 4.27868e-17)
(0.0141933 4.99975 4.39231e-17)
(-0.00489755 5.00008 2.04455e-17)
(-0.000311359 5.00001 -1.24026e-16)
(0.000893941 5 -1.14113e-17)
(-4.31116e-05 5 -1.64062e-17)
(-0.0174688 5.00029 -6.96591e-22)
(0.003772 4.99997 8.70381e-17)
(-0.0545923 5.00017 5.25432e-18)
(-0.0523209 5.00077 2.10141e-17)
(-0.0531563 5.00038 -1.05179e-17)
(-0.0508607 5.00065 5.20776e-18)
(-0.0515598 5.00068 1.19348e-21)
(-0.0500005 5.00047 7.7376e-18)
(-0.0504031 5.00059 -5.18365e-18)
(-0.0494334 5.00039 2.56256e-18)
(-0.0497161 5.00044 -5.14216e-18)
(-0.0490685 5.00022 1.91357e-18)
(-0.0492383 5.00029 -1.27875e-18)
(-0.0489196 5.00009 0)
(-0.0489922 5.00015 -6.37519e-19)
(-0.0488814 5.00004 -3.97843e-20)
(-0.0488965 5.00007 0)
(-0.0488689 5.00001 -1.19368e-19)
(-0.0488739 5.00002 -1.77106e-24)
(-0.0488616 5.00001 7.83413e-20)
(-0.0488649 5.00001 -9.94803e-21)
(-0.0488624 5 -4.9679e-21)
(-0.0488629 5.00001 0)
(-0.0488608 5.00001 0)
(-0.0488593 5 -9.93589e-21)
(-0.0488635 5.00001 0)
(-0.0488601 5.00001 -1.99026e-20)
(-0.0488711 5.00002 1.59302e-19)
(-0.0488656 5.00001 -1.99069e-19)
(-0.0488904 5.0001 6.46941e-19)
(-0.0488744 5.00003 -3.43262e-24)
(-0.0489067 5.00042 -5.97365e-19)
(-0.0156641 5.02431 7.96788e-20)
(-0.00131934 5.02424 6.31835e-19)
(-0.00470563 5.02427 -1.91163e-18)
(-8.77799e-05 5.02417 -3.38113e-19)
(-0.00033919 5.0242 2.4868e-20)
(1.78761e-05 5.02417 2.48595e-21)
(-1.55756e-05 5.02417 7.95412e-20)
(0.000345426 5.02419 -4.97286e-21)
(8.34741e-05 5.02417 -1.54126e-19)
(0.00133183 5.02422 6.36726e-19)
(0.0488991 5.00677 -6.36883e-19)
(0.0488831 5.00043 6.15949e-19)
(0.0488948 5.00176 -4.95752e-24)
(0.0488682 5.00003 -6.16833e-19)
(0.0488777 5.00011 3.18287e-19)
(0.048855 5 1.98946e-20)
(0.0488657 5.00001 2.78656e-19)
(0.0488429 5 -1.98854e-20)
(0.0488503 5 0)
(0.0488347 5 -1.98852e-20)
(0.0488372 5 0)
(0.0488356 4.99999 7.95378e-20)
(0.0488349 4.99999 0)
(0.0488464 4.99998 2.38565e-19)
(0.0488395 4.99999 -1.39178e-19)
(0.0488895 4.99994 0)
(0.0488621 4.99996 -1.78905e-19)
(0.049019 4.99984 0)
(0.0489367 4.99991 -3.97337e-20)
(0.0492355 4.99964 -6.33933e-19)
(0.0491435 4.99976 -3.17511e-19)
(0.0499343 4.99976 3.15994e-18)
(0.0495391 4.99955 0)
(0.0502424 5.00028 0)
(0.0500743 5.00032 -6.30777e-19)
(0.0494869 4.99971 -2.51231e-18)
(0.0461468 4.99966 4.99472e-18)
(0.0457289 5.00027 -4.99212e-18)
(0.047109 5.00036 7.44214e-18)
(0.0467344 4.99978 -1.24752e-18)
(0.0419537 4.99928 -2.22232e-17)
(0.0461471 5.00021 4.8631e-18)
(0.0415915 5.00128 -5.33546e-17)
(-0.00123712 5.00001 -1.93041e-17)
(-0.0558761 5.00067 -2.64215e-17)
(-0.0489011 5.02436 -2.62975e-18)
(0.0488931 5.02433 6.76853e-19)
(0.136981 5.00179 2.51262e-18)
(0.13577 5.00152 -5.45024e-24)
(-0.0180478 5.0004 2.11451e-17)
(-0.00511542 5.00015 2.06962e-17)
(-5.31377e-06 5 -4.47079e-17)
(9.57199e-06 5 4.5372e-17)
(4.67086e-05 5 -3.64206e-26)
(0.000219811 5 -3.37003e-17)
(0.0455439 4.99949 2.52066e-18)
(0.0147305 4.99994 3.55372e-24)
(0.186518 5.0097 -1.13847e-16)
(0.00399148 4.99994 -2.02023e-23)
(-0.00207299 4.99582 0)
(0.000964606 4.99999 3.87856e-17)
(-0.0574086 5.00091 0)
(-0.165133 5.00153 -5.33793e-18)
(-0.158648 5.00036 5.25262e-18)
(-0.161289 5.00094 2.11155e-17)
(-0.152847 5.00136 -5.23025e-18)
(-0.155441 5.00105 -1.05036e-17)
(-0.148978 5.00111 -2.58912e-18)
(-0.150555 5.001 7.16591e-22)
(-0.146206 5.0007 0)
(-0.147357 5.00084 2.57851e-18)
(-0.144564 5.00032 0)
(-0.145287 5.00046 0)
(-0.143701 5.00016 -6.37432e-19)
(-0.144004 5.00019 1.27569e-18)
(-0.143418 5.00008 3.48194e-20)
(-0.143494 5.00009 1.19357e-19)
(-0.143352 5.00004 3.97913e-20)
(-0.143372 5.00005 4.97328e-21)
(-0.143329 5.00001 -8.00124e-28)
(-0.14334 5.00002 -1.99003e-20)
(-0.143329 5.00001 1.24284e-21)
(-0.14333 5.00001 4.47335e-20)
(-0.143329 5 4.9689e-21)
(-0.143327 5.00001 0)
(-0.143326 5 -7.95493e-20)
(-0.143323 5 8.94339e-20)
(-0.14333 5.00001 -7.95385e-20)
(-0.143333 5.00001 7.95533e-20)
(-0.143355 5.00001 -1.19393e-19)
(-0.143343 5.00001 1.59197e-19)
(-0.143378 5.00011 3.28328e-19)
(-0.143349 5.00003 -3.38194e-19)
(-0.143405 5.00178 -1.98986e-20)
(-0.143391 5.00044 -6.41867e-19)
(-0.143397 5.02444 -7.96631e-20)
(-0.14341 5.00681 6.37319e-19)
(-0.14333 5.08139 -1.19502e-18)
(-0.0156185 5.08104 0)
(-0.0488468 5.0812 1.83243e-18)
(-0.00129956 5.08082 -6.3682e-19)
(-0.00467335 5.08092 6.36957e-19)
(-8.60756e-05 5.08069 1.78952e-19)
(-0.000343147 5.08073 -1.98926e-20)
(2.74309e-05 5.08067 -7.95232e-20)
(-2.14188e-05 5.08068 -3.97751e-20)
(0.000337066 5.08073 -4.97202e-21)
(7.9353e-05 5.08068 4.6435e-23)
(0.00469215 5.0809 1.27353e-18)
(0.00131108 5.08081 4.9735e-21)
(0.048856 5.08114 -4.00009e-20)
(0.0156317 5.08101 0)
(0.143346 5.08128 3.98257e-20)
(0.143374 5.0068 6.36794e-19)
(0.143381 5.02439 -5.97137e-20)
(0.143341 5.00044 3.18807e-19)
(0.143362 5.00177 -9.49754e-19)
(0.143335 5.00003 1.19284e-19)
(0.143333 5.00011 0)
(0.143319 5.00001 4.97363e-20)
(0.14334 5.00002 -2.38634e-19)
(0.143281 5 1.98902e-20)
(0.143298 5.00001 0)
(0.143256 4.99999 -7.95398e-20)
(0.143263 5 7.95409e-20)
(0.143227 4.99999 9.94128e-20)
(0.143237 4.99999 -7.95475e-20)
(0.143227 4.99996 1.78924e-19)
(0.143222 4.99997 -1.59055e-19)
(0.143258 4.99989 -1.58973e-19)
(0.143241 4.99993 1.59019e-19)
(0.143324 4.99972 3.17691e-19)
(0.1433 4.99982 3.97425e-20)
(0.143275 4.99938 6.33967e-19)
(0.14336 4.99958 4.05225e-23)
(0.142708 4.99894 1.26313e-18)
(0.143068 4.99907 0)
(0.141957 4.99905 -1.26111e-18)
(0.142454 4.99881 -8.50988e-25)
(0.139798 5.00035 5.02957e-18)
(0.136813 4.99972 -1.25177e-18)
(0.135939 5.00079 2.33839e-24)
(0.136454 5.00041 2.50697e-18)
(0.1346 4.99906 -1.5552e-18)
(0.135763 4.99866 1.55952e-18)
(0.128344 5.00112 2.84918e-17)
(0.132215 4.99956 1.2124e-18)
(0.131966 5.00081 -1.45946e-17)
(0.129155 5.00129 1.89211e-17)
(0.133365 4.99891 1.68e-17)
(0.133501 4.99961 1.4902e-17)
(0.128441 5.00877 3.57107e-17)
(0.130418 5.00143 -4.84175e-18)
(0.0459594 5.00056 2.50764e-17)
(0.13224 4.99864 -1.97702e-17)
(-0.00130722 5.00006 3.89417e-17)
(-0.000489233 4.9992 3.95706e-16)
(-0.0594529 5.00074 2.16725e-17)
(-0.169977 5.00131 0)
(-3.95933e-06 5 -2.48932e-17)
(0.00104874 4.73749 -1.13203e-17)
(-0.393324 5.02452 7.96951e-20)
(-0.393226 5.08158 -1.27468e-18)
(0.048791 5.24917 -6.37171e-19)
(0.143247 5.24952 5.96924e-19)
(9.39511e-06 5 -1.20945e-26)
(0.0454927 5.00122 -2.99072e-17)
(5.08757e-05 5 -2.25112e-17)
(0.0143379 5.00021 9.15055e-23)
(0.00413735 4.99999 -8.47736e-17)
(0.000233629 5 2.77077e-17)
(0.00102458 4.99999 -4.34603e-17)
(-0.00036298 4.98011 0)
(-0.00253867 4.99536 8.85229e-17)
(-0.00401032 4.99428 0)
(-0.00822333 4.98322 -8.68948e-17)
(-0.757159 4.31296 -3.01572e-16)
(-0.013203 4.9903 -6.12613e-17)
(-0.0189325 5.00031 -2.69084e-18)
(-0.00551926 5.00012 -3.20215e-17)
(-0.00212331 4.99919 1.47649e-16)
(-0.0200658 5.00017 2.73655e-18)
(0.36741 4.99621 0)
(0.366284 5.00095 -4.84607e-18)
(-0.000106161 5 7.58778e-17)
(-0.000408022 5.00002 8.99259e-17)
(-0.0620994 5.00034 1.09603e-17)
(-0.000914246 4.99943 -1.86042e-16)
(-0.175066 5.00018 -2.46695e-17)
(-0.497994 4.5882 3.14402e-16)
(-0.0645696 5.00055 1.66631e-17)
(-0.181145 5.00121 -8.3864e-18)
(-0.000767193 4.99261 0)
(-0.446118 4.99874 6.37848e-18)
(-0.185727 5.00308 2.83309e-17)
(-0.484896 5.00721 -2.24443e-17)
(-0.476193 5.01278 -6.05686e-18)
(-0.456137 4.99975 1.40517e-20)
(-0.469749 5.00043 0)
(-0.436865 5.0015 5.30677e-18)
(-0.446429 5.00181 -5.37086e-18)
(-0.423487 5.00024 -1.04679e-17)
(-0.4294 5.00135 -5.2664e-18)
(-0.411891 5.00171 3.80004e-23)
(-0.418098 5.00164 1.82429e-17)
(-0.403328 5.00124 -2.57689e-18)
(-0.407041 5.00168 -2.58624e-18)
(-0.397857 5.00054 0)
(-0.400072 5.00061 0)
(-0.394998 5.00033 0)
(-0.396055 5.00026 1.27644e-18)
(-0.393641 5.00012 0)
(-0.39405 5 -6.37352e-19)
(-0.393259 5.00008 6.96219e-20)
(-0.393353 5.00005 -2.28769e-19)
(-0.393183 5.00005 -7.95126e-20)
(-0.393203 5.00004 -3.98118e-20)
(-0.393176 5.00002 0)
(-0.393167 5.00001 4.96695e-20)
(-0.393159 5 -7.95493e-20)
(-0.393162 5.00001 3.4779e-20)
(-0.393144 5 -4.22222e-20)
(-0.393162 5 7.95284e-20)
(-0.393156 5.00001 -4.96554e-21)
(-0.393153 5 0)
(-0.393203 5 2.98392e-20)
(-0.393185 5 4.96873e-21)
(-0.393192 5 -7.95529e-20)
(-0.393199 5 -1.9904e-20)
(-0.39332 5.00012 2.98492e-19)
(-0.393273 5.00004 7.95796e-20)
(-0.393313 5.0018 1.49364e-20)
(-0.393295 5.00045 -3.1328e-19)
(-0.393345 5.00686 0)
(-0.143208 5.24973 1.19527e-18)
(-0.015563 5.24889 6.41512e-19)
(-0.048739 5.24927 -1.23418e-18)
(-0.00127248 5.24837 -3.97779e-20)
(-0.00464974 5.24861 1.49216e-20)
(-7.89612e-05 5.24813 -2.38544e-19)
(-0.000355696 5.2482 1.98836e-20)
(3.48844e-05 5.24809 1.19277e-19)
(-1.70789e-05 5.24811 -1.4898e-20)
(0.000334742 5.2482 1.9884e-20)
(7.04988e-05 5.2481 2.33586e-19)
(0.00465391 5.24859 -6.26823e-19)
(0.00128706 5.24837 -2.98334e-20)
(0.0155713 5.24886 0)
(0.393249 5.08143 -3.97818e-20)
(0.393269 5.00683 3.23249e-19)
(0.393279 5.02445 1.99052e-20)
(0.393204 5.00045 1.98652e-20)
(0.393226 5.00179 -3.23098e-19)
(0.393223 5.00001 -1.39189e-19)
(0.393198 5.0001 1.58993e-19)
(0.393151 5.00003 1.98817e-20)
(0.393195 5.00002 -7.95709e-20)
(0.393063 5.00001 9.94303e-20)
(0.393081 5.00002 -9.50259e-27)
(0.392984 5 1.98925e-20)
(0.393018 5.00001 0)
(0.392903 4.99999 -1.78946e-19)
(0.392937 5 0)
(0.392857 4.99994 -1.39171e-19)
(0.392882 4.99997 3.18094e-19)
(0.392802 4.99985 0)
(0.392827 4.9999 -3.97146e-20)
(0.39272 4.99968 3.17561e-19)
(0.39277 4.99979 -3.9702e-20)
(0.392049 4.99933 -3.16722e-19)
(0.392404 4.99944 -6.34306e-19)
(0.389237 4.99848 0)
(0.391035 4.99875 0)
(0.383841 4.99917 -1.89584e-18)
(0.38652 4.99801 6.32007e-19)
(0.376283 5.00073 -2.5188e-18)
(0.378658 5.00038 1.25513e-18)
(0.376317 5.00101 2.51728e-18)
(0.376451 5.00074 6.28573e-19)
(0.376426 5.00131 0)
(0.376469 5.00092 0)
(0.368392 4.99907 -4.97274e-18)
(0.372803 5.00016 -2.49874e-18)
(0.363442 5.00054 0)
(0.364685 4.99915 -7.37181e-18)
(0.367189 5.00135 -2.45605e-18)
(0.364308 4.99966 0)
(0.370299 5.00055 6.21832e-19)
(0.369817 5.00022 0)
(0.369208 5.00075 -4.93424e-18)
(-0.00101792 4.99846 1.85605e-22)
(-0.00201146 4.99805 -8.41334e-17)
(-0.00683817 4.99396 -1.41413e-16)
(-0.00151656 5.00004 0)
(-2.63538e-05 5 -2.69338e-17)
(-0.000414304 4.99949 -1.75009e-16)
(-0.503273 4.66279 -1.56454e-16)
(1.17754 3.41476 -2.99018e-16)
(0.0711754 5.00313 8.6389e-17)
(-0.393038 5.25021 1.27523e-18)
(0.393102 5.24988 7.96091e-20)
(-0.00629441 4.98846 -1.85004e-16)
(-0.00598963 5.00007 1.09655e-17)
(-0.000453022 5.00001 0)
(-0.000114635 5 0)
(-3.73586e-06 5 1.18404e-17)
(0.0416827 5.00181 0)
(-0.0285758 4.93907 0)
(-0.0210746 5.00025 1.10523e-17)
(0.970413 4.99545 0)
(0.982522 5.00287 3.9392e-17)
(0.405435 5.0331 0)
(1.01689e-05 5 -4.56131e-17)
(0.0134409 5.00033 -4.11694e-17)
(0.00392522 5.00005 4.23111e-17)
(-0.0664111 5.00111 -1.67835e-17)
(29.937 -22.796 -9.43256e-17)
(5.36703e-05 5 0)
(-4.64325 1.41313 1.08149e-18)
(-0.186439 5.00728 1.7375e-17)
(-0.0264058 4.95468 7.18907e-17)
(0.000245075 5 -3.41527e-19)
(0.00105277 5 0)
(-0.000184721 4.99951 1.94781e-16)
(-0.000166481 4.99976 -1.80884e-16)
(0.0683074 5.00004 7.38652e-22)
(-0.000649772 4.99871 -9.13937e-17)
(-0.000230565 4.99959 8.74695e-23)
(0.00668209 4.87474 5.70216e-18)
(-1.16177 5.01421 -3.80019e-17)
(-1.21637 5.06067 2.15067e-16)
(-1.10896 4.99688 1.02296e-20)
(-1.13107 4.99395 1.07696e-17)
(-1.07593 5.00119 5.2483e-18)
(-1.09131 5.00154 -5.29038e-18)
(-1.05434 5.00008 -2.59101e-18)
(-1.06335 4.99987 2.60823e-18)
(-1.03359 5.00169 1.28989e-18)
(-1.045 5.00361 -2.59123e-18)
(-1.01748 5.00074 2.56581e-18)
(-1.02446 5.00151 -1.28543e-18)
(-1.00921 5.00038 -6.38509e-19)
(-1.01275 5.00059 6.39557e-19)
(-1.005 5.00027 0)
(-1.00672 5.00009 -1.91288e-18)
(-1.00315 5.0001 0)
(-1.00372 4.99991 -3.17738e-19)
(-1.00266 5.00014 -7.9491e-20)
(-1.00281 5.00002 1.19296e-19)
(-1.00264 5.00009 0)
(-1.00263 5.00007 1.98656e-20)
(-1.00263 5.00002 0)
(-1.00263 5.00005 4.98658e-21)
(-1.0026 5.00001 -3.09909e-22)
(-1.00258 5 2.47971e-21)
(-1.00263 4.99999 4.22204e-20)
(-1.00263 4.99998 -3.97456e-20)
(-1.00259 5.00002 7.45187e-21)
(-1.00262 5.00001 -2.47956e-21)
(-1.0027 4.99999 9.95508e-21)
(-1.00264 5.00003 -4.97427e-21)
(-1.00277 5.00003 -9.94549e-20)
(-1.00272 4.99997 1.98651e-20)
(-1.00288 5.00007 0)
(-1.00281 5.00009 7.95914e-20)
(-1.00296 5.00184 -3.1326e-19)
(-1.00287 5.0004 3.1807e-19)
(-1.00304 5.02459 6.56882e-19)
(-1.00304 5.00692 -6.3923e-19)
(-1.0026 5.25063 -5.97574e-19)
(-1.00291 5.08175 5.97358e-19)
(-1.00198 5.70007 6.36223e-19)
(-0.142951 5.69806 0)
(-0.39274 5.6991 0)
(-0.0154914 5.69636 -9.24935e-19)
(-0.0486559 5.69711 6.27327e-19)
(-0.00122823 5.69539 -1.98817e-20)
(-0.00463966 5.69583 -1.78743e-19)
(-8.51182e-05 5.69497 3.98619e-20)
(-0.000343303 5.69509 1.98788e-20)
(1.19463e-05 5.6949 -5.71368e-20)
(-2.03321e-06 5.69493 -1.9806e-20)
(0.000340881 5.69511 0)
(5.2946e-05 5.69495 -1.61414e-19)
(0.00462616 5.69582 1.48907e-19)
(0.00125221 5.6954 0)
(0.0487127 5.69696 -2.11371e-20)
(0.0154684 5.69633 3.28972e-19)
(0.392792 5.69858 -6.7573e-19)
(0.143038 5.69773 5.83639e-20)
(1.00214 5.69935 6.76855e-19)
(1.00291 5.08156 6.76457e-19)
(1.00269 5.25019 -1.35289e-18)
(1.00283 5.00688 -4.97469e-21)
(1.00291 5.02453 0)
(1.00274 5.00042 -5.4793e-23)
(1.00274 5.00181 0)
(1.00268 4.99999 0)
(1.00272 5.00006 0)
(1.00257 5.00009 -1.98627e-20)
(1.00255 5.00005 0)
(1.00231 5.00003 -1.98887e-20)
(1.00246 5.00006 0)
(1.00238 5.00003 -1.98311e-20)
(1.00234 5.00003 9.91623e-21)
(1.00207 4.99999 1.58955e-19)
(1.00222 5.00004 -1.98332e-20)
(1.00197 4.99997 1.97822e-20)
(1.00204 4.99998 -1.59016e-19)
(1.00164 4.9998 2.77936e-19)
(1.00175 4.99993 -2.78051e-19)
(1.00127 4.99975 6.35231e-19)
(1.00165 4.99974 -2.77896e-19)
(0.999238 4.99901 6.36115e-19)
(1.0003 4.99942 -9.51818e-19)
(0.992194 4.99858 6.33208e-19)
(0.996487 4.99889 -1.89829e-18)
(0.97941 4.99799 -6.30618e-18)
(0.986037 4.99727 1.26427e-18)
(0.9668 4.99806 -1.26203e-18)
(0.970554 4.99903 -3.79079e-18)
(0.965576 5.00254 6.30024e-19)
(0.966167 4.99972 -1.68768e-21)
(0.963898 5.00327 5.03378e-18)
(0.964587 5.0027 -2.52156e-18)
(0.954431 4.99909 4.98527e-18)
(0.960136 5.00248 -6.2619e-18)
(0.949787 5.00006 -9.92808e-18)
(0.950683 4.9975 -1.24552e-18)
(0.953085 5.00282 -2.48084e-18)
(0.950872 4.99873 9.88703e-18)
(0.962313 5.0003 2.00131e-17)
(0.959597 4.99823 0)
(0.964879 4.99651 -1.98242e-17)
(-0.00601606 4.98904 0)
(-0.0056473 4.9882 0)
(-1.4821 5.11167 2.36609e-16)
(-0.00526904 4.99864 2.6375e-16)
(-0.00455361 4.99748 -7.42587e-17)
(-0.00168511 5.00003 0)
(-2.67085e-05 5 0)
(-0.000467273 4.99913 2.84082e-16)
(0.0251663 5.00013 -4.45309e-17)
(0.0302626 4.99953 4.21317e-17)
(-0.0190151 4.96656 -2.23628e-16)
(-0.000177116 4.9997 1.60234e-16)
(-0.00237766 4.98117 0)
(-0.00634736 5.00009 -1.1103e-17)
(2.32051 4.99273 0)
(2.34899 5.00933 -2.03496e-17)
(1.03626 5.03112 -5.41404e-21)
(-3.50164e-06 5 2.88396e-18)
(-0.000473665 5.00001 0)
(-0.000117614 5 0)
(-0.00190323 4.99632 -1.65355e-16)
(0.0117526 5.00047 -2.08055e-17)
(0.00646599 4.94644 1.0835e-21)
(-2.3619 5.25089 -6.3702e-19)
(-2.36093 5.70073 0)
(0.392241 6.76145 6.57291e-19)
(1.00116 6.76302 3.96999e-20)
(0.00364345 5.00008 0)
(-0.302736 4.61992 -1.79764e-16)
(-0.0218189 5.0004 -1.00535e-23)
(0.46694 5.00054 -2.33749e-17)
(-0.00016254 4.99249 -2.5888e-17)
(0.00837486 4.73137 -5.64389e-18)
(0.0159161 4.46078 3.3209e-17)
(0.0248176 4.03121 2.29682e-22)
(-7.3973e-05 4.99987 -4.84587e-17)
(1.07354e-05 5 1.99373e-26)
(-0.0244417 4.97623 0)
(-0.00804855 4.99251 -1.56873e-16)
(-0.00540277 4.99083 1.8001e-16)