/*--------------------------------*- C++ -*----------------------------------*\
| =========                 |                                                 |
| \\      /  F ield         | OpenFOAM: The Open Source CFD Toolbox           |
|  \\    /   O peration     | Version:  2212                                  |
|   \\  /    A nd           | Website:  www.openfoam.com                      |
|    \\/     M anipulation  |                                                 |
\*---------------------------------------------------------------------------*/
FoamFile
{
    version     2.0;
    format      ascii;
    arch        "LSB;label=32;scalar=64";
    class       volScalarField;
    location    "0.155";
    object      s;
}
// * * * * * * * * * * * * * * * * * * * * * * * * * * * * * * * * * * * * * //

dimensions      [0 0 0 0 0 0 0];

internalField   nonuniform List<scalar> 
24240
(
1.01287e-104
1.00129e-104
1.01969e-104
9.81559e-105
1.00749e-104
1.00308e-104
1.00487e-104
9.76433e-105
9.8521e-105
1.01219e-104
9.85994e-105
1.01926e-104
9.82537e-105
1.00918e-104
9.75137e-105
1.01887e-104
9.72712e-105
9.87889e-105
9.99771e-105
9.63263e-105
8.49095e-102
8.3918e-102
8.54461e-102
8.22863e-102
8.44257e-102
8.40782e-102
8.42229e-102
8.18358e-102
8.25809e-102
8.48293e-102
8.26594e-102
8.54153e-102
8.23754e-102
8.45932e-102
8.17573e-102
8.54017e-102
8.15527e-102
8.28124e-102
8.37917e-102
8.0764e-102
3.97266e-99
3.92527e-99
3.99609e-99
3.84997e-99
3.94845e-99
3.93325e-99
3.93972e-99
3.8279e-99
3.86313e-99
3.96779e-99
3.86743e-99
3.99487e-99
3.85444e-99
3.9575e-99
3.82564e-99
3.99514e-99
3.81592e-99
3.87436e-99
3.91938e-99
3.77917e-99
1.05471e-96
1.04185e-96
1.06049e-96
1.02214e-96
1.04786e-96
1.04412e-96
1.04575e-96
1.01602e-96
1.02546e-96
1.05313e-96
1.02678e-96
1.06023e-96
1.02342e-96
1.05061e-96
1.01581e-96
1.06054e-96
1.01317e-96
1.02858e-96
1.04031e-96
1.00344e-96
2.05124e-94
2.02567e-94
2.06163e-94
1.98791e-94
2.0371e-94
2.03042e-94
2.03335e-94
1.97546e-94
1.99393e-94
2.04762e-94
1.99685e-94
2.06121e-94
1.99052e-94
2.04311e-94
1.97582e-94
2.06231e-94
1.97045e-94
2.00031e-94
2.02271e-94
1.95155e-94
2.75119e-92
2.71605e-92
2.76401e-92
2.66621e-92
2.73115e-92
2.723e-92
2.72655e-92
2.64877e-92
2.6736e-92
2.74568e-92
2.67807e-92
2.76357e-92
2.66993e-92
2.74015e-92
2.65039e-92
2.76574e-92
2.64266e-92
2.68273e-92
2.71223e-92
2.6172e-92
2.62524e-90
2.59071e-90
2.63648e-90
2.54399e-90
2.60506e-90
2.59812e-90
2.60096e-90
2.52655e-90
2.55004e-90
2.61939e-90
2.55498e-90
2.63607e-90
2.54769e-90
2.6146e-90
2.52933e-90
2.63886e-90
2.52097e-90
2.55964e-90
2.58733e-90
2.49635e-90
1.66202e-88
1.63936e-88
1.6685e-88
1.61036e-88
1.64854e-88
1.64469e-88
1.64604e-88
1.59874e-88
1.61328e-88
1.65794e-88
1.61701e-88
1.66821e-88
1.61281e-88
1.65524e-88
1.60147e-88
1.67051e-88
1.59516e-88
1.62027e-88
1.63755e-88
1.57921e-88
2.74864e-87
2.71483e-87
2.75482e-87
2.66584e-87
2.7249e-87
2.71803e-87
2.72394e-87
2.64809e-87
2.67727e-87
2.73853e-87
2.68072e-87
2.75689e-87
2.67077e-87
2.73576e-87
2.64872e-87
2.7597e-87
2.65024e-87
2.68127e-87
2.70599e-87
2.62823e-87
2.23646e-87
2.24074e-87
2.2317e-87
2.19182e-87
2.22401e-87
2.21225e-87
2.24119e-87
2.19114e-87
2.2457e-87
2.21906e-87
2.22684e-87
2.24593e-87
2.19746e-87
2.22066e-87
2.16037e-87
2.22695e-87
2.22576e-87
2.19587e-87
2.2008e-87
2.22862e-87
3.31743e-87
3.36081e-87
3.37594e-87
3.33239e-87
3.30707e-87
3.33131e-87
3.38588e-87
3.30639e-87
3.40924e-87
3.38684e-87
3.38874e-87
3.39708e-87
3.34979e-87
3.31157e-87
3.28258e-87
3.33583e-87
3.3146e-87
3.30806e-87
3.33387e-87
3.35747e-87
3.92837e-87
3.96479e-87
3.97915e-87
3.92526e-87
3.89644e-87
3.81678e-87
3.9039e-87
3.82425e-87
3.94759e-87
4.05325e-87
4.02092e-87
3.89487e-87
4.00737e-87
3.94128e-87
3.93801e-87
3.96659e-87
3.79378e-87
3.95779e-87
3.8824e-87
3.9008e-87
4.45783e-87
4.5713e-87
4.53518e-87
4.49865e-87
4.52478e-87
4.5658e-87
4.70831e-87
4.51245e-87
4.53982e-87
4.49114e-87
4.51069e-87
4.50963e-87
4.53943e-87
4.51852e-87
4.43399e-87
4.51519e-87
4.54843e-87
4.46357e-87
4.44224e-87
4.46434e-87
4.94943e-87
4.96797e-87
5.0214e-87
5.09988e-87
5.04446e-87
5.11562e-87
5.02332e-87
5.1026e-87
5.05517e-87
4.84283e-87
4.92149e-87
4.92099e-87
4.9665e-87
4.86407e-87
4.85799e-87
4.89566e-87
4.88439e-87
4.97017e-87
4.9222e-87
5.02167e-87
5.03372e-87
5.05069e-87
5.13946e-87
5.1021e-87
5.03837e-87
5.09681e-87
5.11548e-87
5.18735e-87
5.03499e-87
5.11457e-87
5.08739e-87
5.09263e-87
5.15683e-87
5.09257e-87
5.05059e-87
5.23448e-87
5.06671e-87
5.01329e-87
5.07994e-87
5.12717e-87
5.16076e-87
5.05508e-87
5.12442e-87
5.06606e-87
5.14467e-87
5.17922e-87
5.20307e-87
5.14836e-87
5.0189e-87
5.0652e-87
5.02781e-87
5.20712e-87
5.15464e-87
5.24623e-87
5.21848e-87
5.22451e-87
5.1669e-87
5.15972e-87
5.0969e-87
5.1261e-87
4.69526e-87
4.75173e-87
4.70088e-87
4.89228e-87
4.75297e-87
4.87128e-87
4.7786e-87
4.81655e-87
4.75336e-87
4.7672e-87
4.75791e-87
4.85259e-87
4.7738e-87
4.91428e-87
4.73201e-87
4.84918e-87
4.82324e-87
4.66072e-87
4.84092e-87
4.82824e-87
4.29297e-87
4.49041e-87
4.41412e-87
4.39541e-87
4.32933e-87
4.54878e-87
4.47454e-87
4.4733e-87
4.44295e-87
4.35017e-87
4.44429e-87
4.532e-87
4.40711e-87
4.6318e-87
4.4382e-87
4.52404e-87
4.5692e-87
4.44666e-87
4.54686e-87
4.55169e-87
3.84861e-87
3.83879e-87
3.81058e-87
3.88065e-87
3.93445e-87
3.91727e-87
3.84459e-87
3.83249e-87
3.95447e-87
3.81572e-87
3.91997e-87
3.92089e-87
3.83535e-87
3.96044e-87
3.94993e-87
4.02107e-87
3.88847e-87
3.98179e-87
3.92718e-87
4.04247e-87
2.85464e-87
2.87858e-87
2.8579e-87
2.83881e-87
2.90416e-87
2.87474e-87
2.92386e-87
2.87521e-87
2.92342e-87
2.9433e-87
2.8871e-87
2.96641e-87
2.87372e-87
2.98793e-87
2.88231e-87
2.88032e-87
2.92099e-87
2.96693e-87
2.91487e-87
3.00401e-87
4.70296e-103
4.64832e-103
4.73273e-103
4.55785e-103
4.67625e-103
4.65694e-103
4.66517e-103
4.53307e-103
4.57448e-103
4.69863e-103
4.57866e-103
4.73116e-103
4.56278e-103
4.68536e-103
4.52835e-103
4.73018e-103
4.51746e-103
4.58686e-103
4.64108e-103
4.47399e-103
4.22285e-100
4.17279e-100
4.24782e-100
4.09266e-100
4.19722e-100
4.18103e-100
4.18813e-100
4.06939e-100
4.10702e-100
4.21783e-100
4.11142e-100
4.2467e-100
4.09746e-100
4.20673e-100
4.06665e-100
4.24678e-100
4.05681e-100
4.11851e-100
4.16633e-100
4.01795e-100
2.04227e-97
2.01756e-97
2.05348e-97
1.97935e-97
2.02907e-97
2.0218e-97
2.02507e-97
1.96758e-97
1.98598e-97
2.03928e-97
1.98842e-97
2.05306e-97
1.98182e-97
2.0343e-97
1.96698e-97
2.05356e-97
1.96215e-97
1.99173e-97
2.01443e-97
1.94344e-97
5.62485e-95
5.5554e-95
5.65336e-95
5.45169e-95
5.58627e-95
5.56784e-95
5.57635e-95
5.41788e-95
5.46899e-95
5.61515e-95
5.47663e-95
5.65257e-95
5.45895e-95
5.60253e-95
5.41822e-95
5.65524e-95
5.40465e-95
5.48553e-95
5.54681e-95
5.3533e-95
1.1039e-92
1.08998e-92
1.10903e-92
1.06993e-92
1.09589e-92
1.09259e-92
1.09414e-92
1.06301e-92
1.0731e-92
1.10171e-92
1.07479e-92
1.10893e-92
1.07143e-92
1.09944e-92
1.06348e-92
1.10972e-92
1.06072e-92
1.07652e-92
1.0883e-92
1.05066e-92
1.4993e-90
1.47996e-90
1.50565e-90
1.45317e-90
1.48782e-90
1.48381e-90
1.48572e-90
1.44338e-90
1.45713e-90
1.49597e-90
1.45971e-90
1.5056e-90
1.45533e-90
1.49318e-90
1.44461e-90
1.50703e-90
1.44062e-90
1.46205e-90
1.47773e-90
1.42691e-90
1.40788e-88
1.38923e-88
1.41328e-88
1.36451e-88
1.39653e-88
1.39321e-88
1.39475e-88
1.35491e-88
1.36776e-88
1.40442e-88
1.37052e-88
1.41327e-88
1.36663e-88
1.40208e-88
1.35668e-88
1.41498e-88
1.35251e-88
1.37279e-88
1.38723e-88
1.33951e-88
8.82292e-87
8.70255e-87
8.85313e-87
8.55052e-87
8.74819e-87
8.73018e-87
8.7379e-87
8.4876e-87
8.56697e-87
8.79922e-87
8.58699e-87
8.85326e-87
8.56445e-87
8.78636e-87
8.50313e-87
8.86654e-87
8.47307e-87
8.6023e-87
8.691e-87
8.39017e-87
1.43546e-85
1.41756e-85
1.43824e-85
1.3924e-85
1.4226e-85
1.41951e-85
1.42243e-85
1.38281e-85
1.39812e-85
1.43006e-85
1.40013e-85
1.43945e-85
1.39509e-85
1.42877e-85
1.3836e-85
1.44116e-85
1.38422e-85
1.40038e-85
1.41298e-85
1.37277e-85
1.15627e-85
1.15837e-85
1.15391e-85
1.1335e-85
1.14978e-85
1.14411e-85
1.15886e-85
1.13287e-85
1.16128e-85
1.14739e-85
1.15158e-85
1.16112e-85
1.13643e-85
1.14826e-85
1.11739e-85
1.1512e-85
1.15078e-85
1.13544e-85
1.13794e-85
1.15229e-85
1.71813e-85
1.74017e-85
1.7484e-85
1.72555e-85
1.71254e-85
1.72484e-85
1.75285e-85
1.71175e-85
1.76516e-85
1.75326e-85
1.75483e-85
1.75844e-85
1.73466e-85
1.71482e-85
1.69994e-85
1.7271e-85
1.71612e-85
1.713e-85
1.72639e-85
1.73838e-85
2.02207e-85
2.04067e-85
2.04813e-85
2.01993e-85
2.00572e-85
1.96485e-85
2.00985e-85
1.96901e-85
2.0321e-85
2.08594e-85
2.06926e-85
2.00488e-85
2.0626e-85
2.0285e-85
2.02686e-85
2.04144e-85
1.95276e-85
2.03669e-85
1.99792e-85
2.00745e-85
2.29538e-85
2.35296e-85
2.335e-85
2.31628e-85
2.32995e-85
2.35084e-85
2.42369e-85
2.32366e-85
2.33749e-85
2.312e-85
2.32215e-85
2.32186e-85
2.33754e-85
2.32734e-85
2.28381e-85
2.32504e-85
2.34209e-85
2.29871e-85
2.28777e-85
2.29896e-85
2.52287e-85
2.53166e-85
2.55835e-85
2.59888e-85
2.571e-85
2.60676e-85
2.55977e-85
2.60049e-85
2.57557e-85
2.46845e-85
2.50809e-85
2.50829e-85
2.53118e-85
2.47934e-85
2.47583e-85
2.49549e-85
2.48892e-85
2.53295e-85
2.50841e-85
2.55936e-85
2.56893e-85
2.57688e-85
2.62257e-85
2.60296e-85
2.57082e-85
2.60127e-85
2.61026e-85
2.64696e-85
2.56934e-85
2.61027e-85
2.59659e-85
2.59918e-85
2.63106e-85
2.59922e-85
2.57803e-85
2.6708e-85
2.58577e-85
2.55826e-85
2.59214e-85
2.6153e-85
2.59728e-85
2.54397e-85
2.57801e-85
2.54931e-85
2.58908e-85
2.60654e-85
2.61796e-85
2.5906e-85
2.52593e-85
2.54885e-85
2.52961e-85
2.61964e-85
2.59412e-85
2.63998e-85
2.62606e-85
2.62883e-85
2.59997e-85
2.59681e-85
2.56499e-85
2.57958e-85
2.37022e-85
2.39897e-85
2.37306e-85
2.46957e-85
2.39882e-85
2.45847e-85
2.41157e-85
2.43149e-85
2.39943e-85
2.4065e-85
2.4021e-85
2.44951e-85
2.40938e-85
2.48045e-85
2.38854e-85
2.4473e-85
2.43453e-85
2.35292e-85
2.44349e-85
2.43739e-85
2.1373e-85
2.23513e-85
2.19748e-85
2.18746e-85
2.15515e-85
2.26387e-85
2.22687e-85
2.2265e-85
2.21132e-85
2.16538e-85
2.21178e-85
2.2553e-85
2.19368e-85
2.30464e-85
2.20858e-85
2.25119e-85
2.27344e-85
2.21332e-85
2.26285e-85
2.26525e-85
1.92911e-85
1.92409e-85
1.91037e-85
1.94534e-85
1.97187e-85
1.96327e-85
1.92671e-85
1.92183e-85
1.98224e-85
1.91293e-85
1.9648e-85
1.96551e-85
1.92204e-85
1.98516e-85
1.97967e-85
2.01565e-85
1.94908e-85
1.99554e-85
1.96814e-85
2.02573e-85
1.42851e-85
1.4404e-85
1.43023e-85
1.42053e-85
1.45278e-85
1.43838e-85
1.46241e-85
1.43867e-85
1.46203e-85
1.47237e-85
1.44411e-85
1.48369e-85
1.43768e-85
1.49455e-85
1.4418e-85
1.44086e-85
1.46089e-85
1.484e-85
1.45806e-85
1.50236e-85
2.67523e-101
2.64362e-101
2.69108e-101
2.59283e-101
2.65902e-101
2.64874e-101
2.65332e-101
2.57814e-101
2.60204e-101
2.67209e-101
2.60475e-101
2.69039e-101
2.59584e-101
2.66495e-101
2.57623e-101
2.69033e-101
2.57016e-101
2.6091e-101
2.63938e-101
2.54563e-101
2.37419e-98
2.3456e-98
2.38726e-98
2.30116e-98
2.35889e-98
2.35043e-98
2.35433e-98
2.28755e-98
2.30901e-98
2.3708e-98
2.31178e-98
2.38685e-98
2.30404e-98
2.36492e-98
2.28669e-98
2.38733e-98
2.28128e-98
2.3155e-98
2.34186e-98
2.25962e-98
1.12662e-95
1.11279e-95
1.13234e-95
1.092e-95
1.11891e-95
1.11521e-95
1.11698e-95
1.08526e-95
1.09555e-95
1.12471e-95
1.09704e-95
1.13222e-95
1.09345e-95
1.12214e-95
1.08524e-95
1.1327e-95
1.08265e-95
1.09874e-95
1.111e-95
1.07242e-95
3.07831e-93
3.0398e-93
3.09265e-93
2.98383e-93
3.05604e-93
3.04683e-93
3.05138e-93
2.96468e-93
2.99303e-93
3.07232e-93
2.99758e-93
3.09254e-93
2.98806e-93
3.06588e-93
2.9657e-93
3.09456e-93
2.9585e-93
3.00211e-93
3.03491e-93
2.93066e-93
5.93601e-91
5.86025e-91
5.96111e-91
5.75398e-91
5.89068e-91
5.8747e-91
5.88285e-91
5.71554e-91
5.7706e-91
5.92294e-91
5.78036e-91
5.96127e-91
5.76257e-91
5.91167e-91
5.71961e-91
5.96655e-91
5.70533e-91
5.78894e-91
5.85081e-91
5.6518e-91
7.98708e-89
7.88305e-89
8.01751e-89
7.74236e-89
7.92297e-89
7.90393e-89
7.91392e-89
7.68863e-89
7.76301e-89
7.96767e-89
7.77761e-89
8.0183e-89
7.75458e-89
7.95407e-89
7.69708e-89
8.02729e-89
7.6769e-89
7.78906e-89
7.87043e-89
7.60475e-89
7.37711e-87
7.27878e-87
7.40217e-87
7.15107e-87
7.31496e-87
7.29973e-87
7.30777e-87
7.09942e-87
7.168e-87
7.3575e-87
7.18307e-87
7.40324e-87
7.16287e-87
7.34636e-87
7.11021e-87
7.41337e-87
7.0899e-87
7.19385e-87
7.26729e-87
7.02276e-87
4.56551e-85
4.50313e-85
4.57901e-85
4.42551e-85
4.52518e-85
4.5172e-85
4.52139e-85
4.39227e-85
4.4344e-85
4.55227e-85
4.44492e-85
4.57993e-85
4.4332e-85
4.54636e-85
4.40093e-85
4.58738e-85
4.387e-85
4.45189e-85
4.49622e-85
4.34497e-85
7.30492e-84
7.21258e-84
7.31679e-84
7.08683e-84
7.23707e-84
7.22399e-84
7.23802e-84
7.03635e-84
7.11464e-84
7.27688e-84
7.12594e-84
7.32365e-84
7.10109e-84
7.27116e-84
7.04273e-84
7.33361e-84
7.04499e-84
7.127e-84
7.18948e-84
6.98696e-84
5.81869e-84
5.82877e-84
5.80748e-84
5.70577e-84
5.78576e-84
5.75943e-84
5.83253e-84
5.70117e-84
5.84516e-84
5.7747e-84
5.79662e-84
5.84293e-84
5.72056e-84
5.77928e-84
5.62551e-84
5.79245e-84
5.79136e-84
5.71471e-84
5.72708e-84
5.79911e-84
8.66414e-84
8.77307e-84
8.81665e-84
8.69983e-84
8.63478e-84
8.69561e-84
8.83545e-84
8.62866e-84
8.89863e-84
8.83711e-84
8.84798e-84
8.86262e-84
8.74633e-84
8.64606e-84
8.57172e-84
8.70649e-84
8.65122e-84
8.63684e-84
8.70452e-84
8.76372e-84
1.01413e-83
1.02338e-83
1.02716e-83
1.01278e-83
1.00597e-83
9.85543e-84
1.00818e-83
9.87788e-84
1.01922e-83
1.04596e-83
1.03756e-83
1.00554e-83
1.03438e-83
1.01723e-83
1.01644e-83
1.02368e-83
9.79346e-84
1.02118e-83
1.00177e-83
1.00658e-83
1.15195e-83
1.18041e-83
1.17171e-83
1.16236e-83
1.16933e-83
1.1797e-83
1.21599e-83
1.16621e-83
1.17302e-83
1.16004e-83
1.16516e-83
1.16513e-83
1.17318e-83
1.16836e-83
1.14651e-83
1.16691e-83
1.17542e-83
1.15382e-83
1.14834e-83
1.15386e-83
1.25591e-83
1.25995e-83
1.27295e-83
1.2934e-83
1.27968e-83
1.29722e-83
1.2739e-83
1.29431e-83
1.2815e-83
1.22877e-83
1.24827e-83
1.24861e-83
1.25984e-83
1.23422e-83
1.23226e-83
1.24227e-83
1.2386e-83
1.26068e-83
1.24841e-83
1.27389e-83
1.28087e-83
1.28453e-83
1.30744e-83
1.2974e-83
1.28156e-83
1.29708e-83
1.30127e-83
1.31958e-83
1.28103e-83
1.3015e-83
1.29478e-83
1.29604e-83
1.31149e-83
1.29609e-83
1.28564e-83
1.33134e-83
1.28925e-83
1.27542e-83
1.2923e-83
1.30332e-83
1.28113e-83
1.25476e-83
1.27111e-83
1.25731e-83
1.27701e-83
1.28566e-83
1.29103e-83
1.2776e-83
1.24593e-83
1.25707e-83
1.24737e-83
1.29166e-83
1.27951e-83
1.30202e-83
1.29518e-83
1.29639e-83
1.28225e-83
1.28091e-83
1.26511e-83
1.27225e-83
1.17343e-83
1.18774e-83
1.17482e-83
1.22246e-83
1.18729e-83
1.21674e-83
1.1935e-83
1.20374e-83
1.18777e-83
1.19134e-83
1.18927e-83
1.21257e-83
1.19256e-83
1.22776e-83
1.18237e-83
1.21125e-83
1.20505e-83
1.16492e-83
1.2095e-83
1.20665e-83
1.0473e-83
1.09495e-83
1.0767e-83
1.07149e-83
1.05591e-83
1.10892e-83
1.09075e-83
1.09072e-83
1.08323e-83
1.06086e-83
1.08335e-83
1.1046e-83
1.0747e-83
1.12858e-83
1.08169e-83
1.10251e-83
1.11325e-83
1.08424e-83
1.10836e-83
1.10954e-83
9.52004e-84
9.49555e-84
9.42969e-84
9.60134e-84
9.72943e-84
9.68781e-84
9.50669e-84
9.4886e-84
9.78265e-84
9.4419e-84
9.69602e-84
9.70084e-84
9.4833e-84
9.79731e-84
9.76859e-84
9.94775e-84
9.61936e-84
9.84641e-84
9.71132e-84
9.99415e-84
7.00756e-84
7.0653e-84
7.01632e-84
6.96809e-84
7.12423e-84
7.05492e-84
7.16989e-84
7.05659e-84
7.16736e-84
7.21987e-84
7.08071e-84
7.27421e-84
7.05043e-84
7.32801e-84
7.06998e-84
7.06577e-84
7.16202e-84
7.27614e-84
7.14935e-84
7.3652e-84
1.51866e-99
1.50042e-99
1.52704e-99
1.47198e-99
1.50889e-99
1.50346e-99
1.506e-99
1.4633e-99
1.47705e-99
1.51651e-99
1.47879e-99
1.52679e-99
1.47381e-99
1.51269e-99
1.46267e-99
1.52703e-99
1.45927e-99
1.48109e-99
1.49796e-99
1.44545e-99
1.33426e-96
1.31794e-96
1.34106e-96
1.29331e-96
1.32516e-96
1.32077e-96
1.3229e-96
1.28537e-96
1.29759e-96
1.33204e-96
1.29931e-96
1.34095e-96
1.29504e-96
1.32894e-96
1.28527e-96
1.34147e-96
1.28229e-96
1.30126e-96
1.31578e-96
1.27021e-96
6.20366e-94
6.12642e-94
6.23267e-94
6.01357e-94
6.1589e-94
6.14032e-94
6.14975e-94
5.97514e-94
6.03251e-94
6.19181e-94
6.04148e-94
6.23262e-94
6.02211e-94
6.17857e-94
5.9768e-94
6.23643e-94
5.96282e-94
6.05023e-94
6.11631e-94
5.90698e-94
1.68051e-91
1.65921e-91
1.68765e-91
1.6291e-91
1.66773e-91
1.6632e-91
1.6656e-91
1.61829e-91
1.63397e-91
1.67689e-91
1.63666e-91
1.68778e-91
1.63155e-91
1.67363e-91
1.61931e-91
1.68919e-91
1.61548e-91
1.63896e-91
1.65645e-91
1.60042e-91
3.18433e-89
3.14323e-89
3.19649e-89
3.08706e-89
3.15884e-89
3.15122e-89
3.15546e-89
3.06578e-89
3.0957e-89
3.1767e-89
3.10131e-89
3.19696e-89
3.09195e-89
3.17113e-89
3.0688e-89
3.20036e-89
3.0614e-89
3.10558e-89
3.13795e-89
3.03297e-89
4.23293e-87
4.17727e-87
4.24729e-87
4.10381e-87
4.19739e-87
4.1886e-87
4.19375e-87
4.0745e-87
4.11448e-87
4.22184e-87
4.12267e-87
4.24827e-87
4.11068e-87
4.21526e-87
4.08001e-87
4.25377e-87
4.06981e-87
4.12825e-87
4.17022e-87
4.03201e-87
3.84518e-85
3.79358e-85
3.85659e-85
3.728e-85
3.81138e-85
3.80463e-85
3.80876e-85
3.70037e-85
3.73672e-85
3.83424e-85
3.74491e-85
3.85773e-85
3.73452e-85
3.82902e-85
3.70681e-85
3.86363e-85
3.69693e-85
3.75001e-85
3.78713e-85
3.66242e-85
2.34648e-83
2.31435e-83
2.35236e-83
2.27503e-83
2.32491e-83
2.32153e-83
2.32374e-83
2.25757e-83
2.27972e-83
2.33923e-83
2.28524e-83
2.35326e-83
2.27922e-83
2.33656e-83
2.26239e-83
2.3574e-83
2.25595e-83
2.28838e-83
2.31037e-83
2.23477e-83
3.69258e-82
3.64531e-82
3.69743e-82
3.5829e-82
3.65708e-82
3.65183e-82
3.65848e-82
3.55655e-82
3.59629e-82
3.67817e-82
3.60255e-82
3.70127e-82
3.59041e-82
3.67569e-82
3.56095e-82
3.70694e-82
3.56166e-82
3.60299e-82
3.63372e-82
3.53244e-82
2.90677e-82
2.91155e-82
2.90151e-82
2.8512e-82
2.8902e-82
2.87813e-82
2.91407e-82
2.84818e-82
2.92061e-82
2.88514e-82
2.8965e-82
2.91879e-82
2.85861e-82
2.88752e-82
2.8115e-82
2.89329e-82
2.89326e-82
2.85525e-82
2.86133e-82
2.8972e-82
4.33875e-82
4.3922e-82
4.41503e-82
4.35576e-82
4.32346e-82
4.3533e-82
4.42261e-82
4.31932e-82
4.45482e-82
4.42329e-82
4.43018e-82
4.43574e-82
4.37932e-82
4.329e-82
4.29212e-82
4.3585e-82
4.33088e-82
4.32436e-82
4.35829e-82
4.38731e-82
5.05334e-82
5.09902e-82
5.11803e-82
5.04521e-82
5.01286e-82
4.91146e-82
5.02459e-82
4.92346e-82
5.07897e-82
5.21091e-82
5.16885e-82
5.01067e-82
5.15376e-82
5.0682e-82
5.06437e-82
5.1001e-82
4.87989e-82
5.08707e-82
4.99055e-82
5.01458e-82
5.74631e-82
5.88605e-82
5.8443e-82
5.79794e-82
5.83318e-82
5.88429e-82
6.06392e-82
5.81779e-82
5.85108e-82
5.78541e-82
5.8111e-82
5.81156e-82
5.85257e-82
5.83007e-82
5.72103e-82
5.82129e-82
5.86352e-82
5.75662e-82
5.72939e-82
5.75639e-82
6.22441e-82
6.24279e-82
6.3058e-82
6.40843e-82
6.34113e-82
6.42694e-82
6.31167e-82
6.41355e-82
6.34799e-82
6.08975e-82
6.18513e-82
6.18805e-82
6.2428e-82
6.11684e-82
6.10609e-82
6.1568e-82
6.13659e-82
6.24678e-82
6.18569e-82
6.31255e-82
6.36104e-82
6.37773e-82
6.49211e-82
6.44098e-82
6.36332e-82
6.44205e-82
6.46147e-82
6.55232e-82
6.36173e-82
6.46365e-82
6.43071e-82
6.43702e-82
6.51135e-82
6.43725e-82
6.38581e-82
6.61004e-82
6.40276e-82
6.33336e-82
6.41711e-82
6.46923e-82
6.31532e-82
6.18488e-82
6.26323e-82
6.19715e-82
6.29457e-82
6.33733e-82
6.36251e-82
6.29666e-82
6.14167e-82
6.19578e-82
6.14705e-82
6.36474e-82
6.30687e-82
6.41745e-82
6.3839e-82
6.38884e-82
6.31982e-82
6.31427e-82
6.23578e-82
6.27063e-82
5.80672e-82
5.87801e-82
5.81364e-82
6.04857e-82
5.87384e-82
6.01922e-82
5.90407e-82
5.95663e-82
5.87714e-82
5.89518e-82
5.88541e-82
5.9999e-82
5.90021e-82
6.07439e-82
5.85038e-82
5.99226e-82
5.96219e-82
5.76497e-82
5.98436e-82
5.97101e-82
5.14967e-82
5.3825e-82
5.29379e-82
5.2666e-82
5.19135e-82
5.4506e-82
5.36112e-82
5.36171e-82
5.32456e-82
5.21533e-82
5.32462e-82
5.42882e-82
5.28321e-82
5.54564e-82
5.3161e-82
5.41815e-82
5.47016e-82
5.32977e-82
5.4476e-82
5.45341e-82
4.71185e-82
4.69984e-82
4.66817e-82
4.75267e-82
4.81467e-82
4.79444e-82
4.70445e-82
4.69851e-82
4.84201e-82
4.67403e-82
4.79886e-82
4.80191e-82
4.69271e-82
4.84936e-82
4.83438e-82
4.92383e-82
4.76139e-82
4.87263e-82
4.80582e-82
4.94514e-82
3.44726e-82
3.47542e-82
3.45178e-82
3.4277e-82
3.50347e-82
3.47009e-82
3.52521e-82
3.47103e-82
3.52359e-82
3.55034e-82
3.48158e-82
3.57648e-82
3.46734e-82
3.60319e-82
3.47661e-82
3.47474e-82
3.52113e-82
3.57762e-82
3.5155e-82
3.62092e-82
8.39254e-98
8.29021e-98
8.43556e-98
8.13523e-98
8.33544e-98
8.30785e-98
8.32146e-98
8.08545e-98
8.16239e-98
8.3789e-98
8.17308e-98
8.43496e-98
8.14605e-98
8.35904e-98
8.08443e-98
8.43791e-98
8.06593e-98
8.18502e-98
8.2764e-98
7.99017e-98
7.48969e-95
7.39677e-95
7.52491e-95
7.26048e-95
7.43582e-95
7.41338e-95
7.42497e-95
7.21427e-95
7.28367e-95
7.47571e-95
7.29434e-95
7.52504e-95
7.27081e-95
7.45942e-95
7.21591e-95
7.52935e-95
7.19939e-95
7.30459e-95
7.3844e-95
7.13216e-95
3.42056e-92
3.37739e-92
3.43518e-92
3.31607e-92
3.39461e-92
3.38538e-92
3.3904e-92
3.29415e-92
3.32615e-92
3.41334e-92
3.33154e-92
3.43552e-92
3.32107e-92
3.40654e-92
3.29603e-92
3.43825e-92
3.28845e-92
3.33604e-92
3.37167e-92
3.25793e-92
9.14787e-90
9.03047e-90
9.18308e-90
8.86902e-90
9.0749e-90
9.05301e-90
9.06564e-90
8.80822e-90
8.89457e-90
9.12645e-90
8.91036e-90
9.18481e-90
8.88317e-90
9.11002e-90
8.81628e-90
9.19416e-90
8.79591e-90
8.92202e-90
9.01502e-90
8.71468e-90
1.70293e-87
1.6807e-87
1.70875e-87
1.65112e-87
1.68867e-87
1.68513e-87
1.68731e-87
1.63939e-87
1.65558e-87
1.69854e-87
1.65879e-87
1.70921e-87
1.65389e-87
1.69581e-87
1.64145e-87
1.71133e-87
1.63761e-87
1.66091e-87
1.67778e-87
1.62256e-87
2.23366e-85
2.20401e-85
2.24033e-85
2.16585e-85
2.21409e-85
2.21016e-85
2.21278e-85
2.14994e-85
2.1713e-85
2.22743e-85
2.17588e-85
2.24115e-85
2.16968e-85
2.22428e-85
2.1534e-85
2.24444e-85
2.14824e-85
2.17859e-85
2.20012e-85
2.12851e-85
1.99503e-83
1.96808e-83
2.00012e-83
1.93458e-83
1.97677e-83
1.97391e-83
1.976e-83
1.91987e-83
1.93902e-83
1.98903e-83
1.94346e-83
2.00102e-83
1.93815e-83
1.98661e-83
1.92365e-83
2.0044e-83
1.91884e-83
1.94585e-83
1.96452e-83
1.90118e-83
1.19905e-81
1.18258e-81
1.20153e-81
1.16279e-81
1.1876e-81
1.18626e-81
1.18739e-81
1.15368e-81
1.16522e-81
1.19515e-81
1.16811e-81
1.20221e-81
1.16506e-81
1.19396e-81
1.15634e-81
1.20449e-81
1.15337e-81
1.16952e-81
1.18036e-81
1.14275e-81
1.85582e-80
1.83178e-80
1.85768e-80
1.801e-80
1.83737e-80
1.83543e-80
1.83854e-80
1.78734e-80
1.80739e-80
1.84847e-80
1.81081e-80
1.85981e-80
1.80492e-80
1.84743e-80
1.79013e-80
1.86297e-80
1.79028e-80
1.81099e-80
1.82598e-80
1.77565e-80
1.4429e-80
1.44514e-80
1.44047e-80
1.41573e-80
1.43461e-80
1.42916e-80
1.4467e-80
1.41388e-80
1.45007e-80
1.43234e-80
1.43818e-80
1.44883e-80
1.41942e-80
1.43356e-80
1.39622e-80
1.43602e-80
1.43626e-80
1.41754e-80
1.42051e-80
1.43825e-80
2.15957e-80
2.18562e-80
2.19748e-80
2.16761e-80
2.15167e-80
2.16621e-80
2.20034e-80
2.14908e-80
2.21666e-80
2.20062e-80
2.20476e-80
2.20666e-80
2.17947e-80
2.15438e-80
2.1362e-80
2.16868e-80
2.15495e-80
2.15204e-80
2.16895e-80
2.18307e-80
2.50398e-80
2.52641e-80
2.53592e-80
2.49926e-80
2.48402e-80
2.43397e-80
2.49016e-80
2.44033e-80
2.51679e-80
2.58154e-80
2.56059e-80
2.48292e-80
2.55348e-80
2.51104e-80
2.50918e-80
2.52674e-80
2.41797e-80
2.51998e-80
2.47227e-80
2.48421e-80
2.85149e-80
2.91972e-80
2.89979e-80
2.87695e-80
2.89465e-80
2.91973e-80
3.00815e-80
2.88714e-80
2.90332e-80
2.87029e-80
2.88309e-80
2.8836e-80
2.90438e-80
2.89401e-80
2.83987e-80
2.88889e-80
2.90971e-80
2.85711e-80
2.84362e-80
2.85677e-80
3.07215e-80
3.0804e-80
3.11079e-80
3.16207e-80
3.1292e-80
3.17091e-80
3.11427e-80
3.1649e-80
3.13141e-80
3.00561e-80
3.05205e-80
3.0541e-80
3.08067e-80
3.019e-80
3.01319e-80
3.03874e-80
3.02779e-80
3.08255e-80
3.05226e-80
3.11513e-80
3.14738e-80
3.15483e-80
3.2117e-80
3.1858e-80
3.14788e-80
3.18766e-80
3.19653e-80
3.24148e-80
3.14761e-80
3.19814e-80
3.18205e-80
3.18521e-80
3.22078e-80
3.18541e-80
3.16015e-80
3.26968e-80
3.16799e-80
3.13338e-80
3.17469e-80
3.19919e-80
3.10484e-80
3.04057e-80
3.07795e-80
3.04647e-80
3.09443e-80
3.1155e-80
3.12725e-80
3.09514e-80
3.01949e-80
3.04572e-80
3.02131e-80
3.12789e-80
3.1005e-80
3.15463e-80
3.13824e-80
3.14018e-80
3.10654e-80
3.10437e-80
3.06552e-80
3.0825e-80
2.86721e-80
2.90261e-80
2.87061e-80
2.98614e-80
2.89958e-80
2.97117e-80
2.91428e-80
2.94112e-80
2.90164e-80
2.91076e-80
2.90613e-80
2.96232e-80
2.91276e-80
2.99874e-80
2.88848e-80
2.95798e-80
2.94345e-80
2.84676e-80
2.95444e-80
2.94822e-80
2.52979e-80
2.64342e-80
2.60035e-80
2.58624e-80
2.54993e-80
2.67658e-80
2.63254e-80
2.6332e-80
2.6148e-80
2.56152e-80
2.61455e-80
2.6656e-80
2.59478e-80
2.72247e-80
2.6102e-80
2.66019e-80
2.68531e-80
2.61748e-80
2.67496e-80
2.67784e-80
2.33064e-80
2.32474e-80
2.30954e-80
2.35111e-80
2.38108e-80
2.37124e-80
2.32656e-80
2.32513e-80
2.39509e-80
2.31234e-80
2.37362e-80
2.37546e-80
2.32068e-80
2.39877e-80
2.391e-80
2.43562e-80
2.35532e-80
2.40978e-80
2.37674e-80
2.44533e-80
1.70378e-80
1.71759e-80
1.70613e-80
1.69404e-80
1.73096e-80
1.71483e-80
1.74138e-80
1.71537e-80
1.74036e-80
1.75405e-80
1.7199e-80
1.76668e-80
1.7132e-80
1.78001e-80
1.7176e-80
1.71677e-80
1.73925e-80
1.76732e-80
1.73676e-80
1.78847e-80
4.77942e-96
4.72026e-96
4.80203e-96
4.63327e-96
4.74512e-96
4.7308e-96
4.73828e-96
4.60386e-96
4.64819e-96
4.77065e-96
4.65491e-96
4.80214e-96
4.63982e-96
4.76005e-96
4.60469e-96
4.80472e-96
4.59425e-96
4.66127e-96
4.71225e-96
4.55143e-96
4.20432e-93
4.15142e-93
4.22244e-93
4.07605e-93
4.17253e-93
4.16119e-93
4.16745e-93
4.04919e-93
4.08858e-93
4.19565e-93
4.09512e-93
4.22293e-93
4.0822e-93
4.18711e-93
4.05133e-93
4.22615e-93
4.04215e-93
4.1005e-93
4.14434e-93
4.0047e-93
1.88409e-90
1.86e-90
1.89141e-90
1.82674e-90
1.8691e-90
1.8646e-90
1.86725e-90
1.81425e-90
1.83207e-90
1.87977e-90
1.83529e-90
1.8918e-90
1.82965e-90
1.87629e-90
1.81582e-90
1.89365e-90
1.81171e-90
1.8376e-90
1.85677e-90
1.79503e-90
4.9668e-88
4.90229e-88
4.98396e-88
4.81599e-88
4.92536e-88
4.91504e-88
4.9216e-88
4.78192e-88
4.82931e-88
4.95431e-88
4.83852e-88
4.98548e-88
4.82411e-88
4.9461e-88
4.78768e-88
4.99148e-88
4.77681e-88
4.84444e-88
4.89368e-88
4.73309e-88
9.08114e-86
8.96134e-86
9.10857e-86
8.80609e-86
9.00179e-86
8.98582e-86
8.99693e-86
8.74165e-86
8.82895e-86
9.05626e-86
8.84717e-86
9.11217e-86
8.82167e-86
9.04299e-86
8.75508e-86
9.12515e-86
8.73511e-86
8.85768e-86
8.94526e-86
8.65559e-86
1.17359e-83
1.15787e-83
1.17663e-83
1.13814e-83
1.16289e-83
1.16121e-83
1.16252e-83
1.12955e-83
1.14091e-83
1.17014e-83
1.14345e-83
1.17722e-83
1.14027e-83
1.16865e-83
1.13166e-83
1.17916e-83
1.12905e-83
1.14477e-83
1.15575e-83
1.11879e-83
1.03034e-81
1.01633e-81
1.03255e-81
9.99306e-82
1.02055e-81
1.01941e-81
1.02045e-81
9.91521e-82
1.00154e-81
1.02709e-81
1.00394e-81
1.03318e-81
1.00126e-81
1.02599e-81
9.93703e-82
1.03509e-81
9.91359e-82
1.00506e-81
1.01439e-81
9.82348e-82
6.09296e-80
6.00904e-80
6.10308e-80
5.91006e-80
6.03268e-80
6.0279e-80
6.03356e-80
5.86275e-80
5.92244e-80
6.07232e-80
5.93753e-80
6.10756e-80
5.9222e-80
6.06714e-80
5.87738e-80
6.12004e-80
5.86368e-80
5.94381e-80
5.99689e-80
5.81057e-80
9.27471e-79
9.15323e-79
9.28117e-79
9.00233e-79
9.17954e-79
9.17333e-79
9.18772e-79
8.93203e-79
9.03259e-79
9.23761e-79
9.05103e-79
9.29284e-79
9.02276e-79
9.23337e-79
8.94882e-79
9.31022e-79
8.9486e-79
9.05182e-79
9.12442e-79
8.87575e-79
7.11881e-79
7.12926e-79
7.10779e-79
6.98692e-79
7.07763e-79
7.05346e-79
7.13843e-79
6.97596e-79
7.15566e-79
7.06762e-79
7.09739e-79
7.14788e-79
7.00514e-79
7.07379e-79
6.8916e-79
7.08392e-79
7.0864e-79
6.99481e-79
7.00925e-79
7.09636e-79
1.06864e-78
1.08125e-78
1.08736e-78
1.0724e-78
1.06458e-78
1.07162e-78
1.08831e-78
1.06304e-78
1.09654e-78
1.08845e-78
1.09083e-78
1.09135e-78
1.07833e-78
1.0659e-78
1.05699e-78
1.07278e-78
1.066e-78
1.06473e-78
1.07309e-78
1.07993e-78
1.23401e-78
1.24496e-78
1.24969e-78
1.23134e-78
1.22422e-78
1.19966e-78
1.2274e-78
1.20299e-78
1.24037e-78
1.27197e-78
1.26158e-78
1.22367e-78
1.25826e-78
1.23734e-78
1.23644e-78
1.24502e-78
1.19159e-78
1.24153e-78
1.21809e-78
1.22398e-78
1.40773e-78
1.44085e-78
1.43141e-78
1.42023e-78
1.42905e-78
1.4413e-78
1.48458e-78
1.42542e-78
1.43323e-78
1.41672e-78
1.42306e-78
1.42344e-78
1.43391e-78
1.4292e-78
1.40246e-78
1.42629e-78
1.43649e-78
1.41076e-78
1.40411e-78
1.41048e-78
1.51009e-78
1.51374e-78
1.52833e-78
1.55384e-78
1.53786e-78
1.55805e-78
1.53032e-78
1.55539e-78
1.53835e-78
1.47736e-78
1.49986e-78
1.50118e-78
1.51399e-78
1.48394e-78
1.48083e-78
1.49365e-78
1.48779e-78
1.51488e-78
1.49993e-78
1.53095e-78
1.55132e-78
1.55459e-78
1.58275e-78
1.5697e-78
1.55126e-78
1.57127e-78
1.57527e-78
1.59743e-78
1.55138e-78
1.57633e-78
1.56849e-78
1.57008e-78
1.58701e-78
1.57023e-78
1.55788e-78
1.61114e-78
1.56145e-78
1.54427e-78
1.56457e-78
1.576e-78
1.52335e-78
1.49179e-78
1.50956e-78
1.49462e-78
1.51815e-78
1.52851e-78
1.53396e-78
1.51837e-78
1.48152e-78
1.49421e-78
1.48201e-78
1.53404e-78
1.52116e-78
1.54755e-78
1.53958e-78
1.54032e-78
1.52393e-78
1.52313e-78
1.50398e-78
1.51224e-78
1.41293e-78
1.43045e-78
1.41458e-78
1.47125e-78
1.42849e-78
1.46367e-78
1.43563e-78
1.44927e-78
1.42971e-78
1.43432e-78
1.43211e-78
1.45966e-78
1.43506e-78
1.47742e-78
1.42328e-78
1.45722e-78
1.45024e-78
1.40295e-78
1.45566e-78
1.45277e-78
1.24259e-78
1.29803e-78
1.27714e-78
1.26985e-78
1.25232e-78
1.31417e-78
1.2925e-78
1.29301e-78
1.2839e-78
1.25792e-78
1.28363e-78
1.30864e-78
1.27421e-78
1.33631e-78
1.28142e-78
1.3059e-78
1.31803e-78
1.28527e-78
1.3133e-78
1.31473e-78
1.15235e-78
1.14948e-78
1.1422e-78
1.16262e-78
1.17707e-78
1.17233e-78
1.15015e-78
1.1502e-78
1.18425e-78
1.14353e-78
1.17358e-78
1.17467e-78
1.1472e-78
1.18611e-78
1.18208e-78
1.20432e-78
1.16467e-78
1.19128e-78
1.17498e-78
1.20871e-78
8.39257e-79
8.45998e-79
8.40464e-79
8.3443e-79
8.52358e-79
8.44584e-79
8.57304e-79
8.44879e-79
8.56709e-79
8.63673e-79
8.46781e-79
8.69752e-79
8.43631e-79
8.76376e-79
8.45739e-79
8.45384e-79
8.56199e-79
8.70123e-79
8.55124e-79
8.80416e-79
2.71907e-94
2.68492e-94
2.73087e-94
2.63616e-94
2.69855e-94
2.69122e-94
2.69531e-94
2.61884e-94
2.64432e-94
2.71355e-94
2.64852e-94
2.73121e-94
2.64012e-94
2.70791e-94
2.62011e-94
2.73319e-94
2.6142e-94
2.6519e-94
2.68029e-94
2.59002e-94
2.35392e-91
2.32389e-91
2.36315e-91
2.28234e-91
2.33525e-91
2.32963e-91
2.33299e-91
2.26679e-91
2.28907e-91
2.34863e-91
2.29305e-91
2.36367e-91
2.28599e-91
2.3442e-91
2.26867e-91
2.36591e-91
2.26356e-91
2.29587e-91