/*--------------------------------*- C++ -*----------------------------------*\
| =========                 |                                                 |
| \\      /  F ield         | OpenFOAM: The Open Source CFD Toolbox           |
|  \\    /   O peration     | Version:  2212                                  |
|   \\  /    A nd           | Website:  www.openfoam.com                      |
|    \\/     M anipulation  |                                                 |
\*---------------------------------------------------------------------------*/
FoamFile
{
    version     2.0;
    format      ascii;
    arch        "LSB;label=32;scalar=64";
    class       volScalarField;
    location    "0.0377";
    object      T;
}
// * * * * * * * * * * * * * * * * * * * * * * * * * * * * * * * * * * * * * //

dimensions      [0 0 0 1 0 0 0];

internalField   nonuniform List<scalar> 
2308
(
268.883
268.262
270.839
267.482
268.032
267.785
267.676
267.912
268.123
266.288
266.394
266.546
266.653
266.761
266.868
266.973
267.074
267.162
267.066
266.965
266.859
266.749
266.637
266.522
266.407
266.291
266.178
266.064
267.694
267.174
265.946
265.83
265.717
265.604
265.491
265.379
265.268
265.156
265.044
264.932
264.82
264.709
264.597
264.485
264.372
264.371
264.483
264.595
264.707
264.819
264.931
265.043
265.155
265.266
265.378
265.49
265.602
265.715
265.828
265.943
266.06
266.17
266.277
266.38
266.477
266.573
266.673
266.777
266.882
266.986
267.089
264.26
264.259
267.078
266.967
266.855
266.743
266.63
266.516
266.403
266.287
266.172
266.059
265.945
265.831
265.718
265.605
265.493
265.381
265.269
265.157
265.045
264.933
264.822
264.71
264.598
264.486
264.373
267.256
264.261
267.269
267.191
264.258
264.37
264.482
264.594
264.706
264.818
264.93
265.042
265.153
265.265
265.377
265.489
265.601
265.713
265.826
265.938
266.05
266.16
266.27
266.377
266.482
266.585
266.688
266.792
266.897
267.002
267.106
267.991
267.745
267.651
267.708
267.209
267.089
266.97
266.855
266.74
266.626
266.512
266.399
266.284
266.169
266.056
265.944
265.831
265.718
265.606
265.494
265.382
265.27
265.158
265.046
264.934
264.822
264.711
264.599
264.487
264.375
264.262
264.15
264.148
264.147
264.146
267.975
264.145
268.071
268.113
267.291
268.241
267.954
267.359
267.211
264.037
264.035
264.034
264.033
264.033
264.032
264.145
264.257
264.369
264.481
264.593
264.705
264.817
264.929
265.041
265.153
265.264
265.376
265.488
265.6
265.712
265.824
265.936
266.046
266.156
266.266
266.375
266.484
266.593
266.699
266.805
266.912
267.018
267.123
267.446
269.058
267.947
267.892
267.776
267.665
267.552
267.436
267.32
267.203
267.086
266.97
266.854
266.739
266.624
266.51
266.396
266.282
266.168
266.055
265.943
265.83
265.718
265.606
265.494
265.382
265.27
265.158
265.046
264.935
264.823
264.711
264.599
264.487
264.375
264.263
264.151
264.038
271.761
268.169
269.226
267.37
270.343
268.17
267.315
267.455
264.033
264.145
264.257
264.369
264.481
264.593
264.705
264.817
264.928
265.04
265.152
265.264
265.375
265.487
265.599
265.711
265.822
265.933
266.043
266.153
266.263
266.373
266.484
266.596
266.706
266.816
266.924
267.031
267.138
267.229
268.31
268.119
267.897
267.773
267.658
267.544
267.429
267.313
267.197
267.082
266.967
266.851
266.737
266.622
266.508
266.394
266.281
266.167
266.054
265.942
265.83
265.718
265.606
265.494
265.382
265.27
265.158
265.047
264.935
264.823
264.711
264.6
264.488
264.376
264.264
264.152
264.04
263.927
263.925
263.923
263.922
263.921
263.92
263.92
263.92
263.92
269.406
270.689
273.045
268.268
268.783
273.094
267.244
267.334
268.402
268.375
268.844
267.868
267.883
267.767
267.651
267.536
267.421
267.307
267.192
267.077
266.963
266.848
266.734
266.62
266.507
266.393
266.279
266.166
266.054
265.941
265.83
265.718
265.606
265.494
265.382
265.27
265.158
265.047
264.935
264.823
264.712
264.6
264.488
264.377
264.265
264.153
264.041
263.929
263.817
263.814
263.812
263.81
263.808
263.807
263.806
263.806
263.807
263.808
263.809
263.921
264.034
264.146
264.258
264.369
264.481
264.593
264.705
264.816
264.928
265.04
265.151
265.263
265.375
265.486
265.598
265.709
265.82
265.931
266.041
266.151
266.261
266.372
266.484
266.596
266.709
266.821
266.933
267.042
267.151
268.393
267.349
267.44
267.562
268.485
268.465
268.362
268.268
268.17
268.001
267.992
267.879
267.761
267.645
267.529
267.414
267.3
267.186
267.072
266.959
266.845
266.731
266.618
266.505
266.391
266.278
266.165
266.053
265.941
265.829
265.717
265.605
265.494
265.382
265.27
265.158
265.047
264.935
264.824
264.712
264.601
264.489
264.378
264.266
264.155
264.043
263.932
263.82
263.707
263.704
263.701
263.698
263.695
263.694
263.692
263.692
263.692
263.693
263.694
263.696
263.699
263.811
263.923
264.035
264.147
264.258
264.37
264.482
264.593
264.705
264.816
264.928
265.039
265.151
265.262
265.374
265.485
265.597
265.708
265.819
265.929
266.04
266.15
266.26
266.372
266.483
266.595
266.709
266.823
266.937
267.05
267.161
267.258
268.49
268.48
272.738
267.363
268.232
268.345
268.452
267.536
267.784
267.572
267.451
268.568
268.562
263.595
263.59
263.586
263.583
263.581
263.579
263.577
263.577
263.577
263.578
263.581
263.583
263.586
263.59
263.702
263.813
263.925
264.036
264.148
264.259
264.371
264.482
264.593
264.705
264.816
264.928
265.039
265.151
265.262
265.373
265.485
265.596
265.707
265.818
265.928
266.039
266.149
266.26
266.371
266.483
266.595
266.708
266.822
266.937
267.052
267.167
267.27
268.026
268.583
267.668
270.755
267.874
267.754
267.636
267.521
267.407
267.293
267.18
267.067
266.954
266.841
266.728
266.615
266.502
266.39
266.277
266.164
266.052
265.94
265.829
265.717
265.605
265.493
265.382
265.27
265.158
265.047
264.935
264.824
264.712
264.601
264.49
264.379
264.268
264.157
264.046
263.934
263.823
263.711
263.6
268.569
268.582
271.585
267.549
268.674
267.467
263.594
263.705
263.816
263.927
264.038
264.149
264.26
264.371
264.483
264.594
264.705
264.816
264.928
265.039
265.15
265.262
265.373
265.484
265.595
265.706
265.817
265.927
266.038
266.148
266.259
266.37
266.482
266.594
266.707
266.821
266.935
267.051
267.169
267.28
267.944
268.668
263.487
263.481
263.476
263.472
263.468
263.465
263.463
263.461
263.461
263.461
263.463
263.466
263.469
263.474
263.478
263.483
268.103
268.656
268.533
268.414
268.293
267.79
267.827
268.207
267.521
267.862
267.742
267.626
267.512
267.399
267.286
267.174
267.062
266.95
266.837
266.725
266.612
266.5
266.388
266.275
266.163
266.051
265.94
265.828
265.716
265.604
265.493
265.381
265.27
265.158
265.047
264.935
264.824
264.713
264.602
264.491
264.38
264.269
264.158
264.048
263.937
263.826
263.716
263.605
263.494
271.393
267.377
267.633
268.658
268.682
268.675
267.866
271.554
271.742
267.717
267.571
267.29
267.708
269.587
267.819
271.226
263.488
263.598
263.708
263.818
263.929
264.04
264.15
264.261
264.372
264.483
264.594
264.705
264.816
264.928
265.039
265.15
265.261
265.372
265.483
265.594
265.705
265.816
265.927
266.037
266.148
266.258
266.37
266.481
266.593
266.706
266.82
266.934
267.049
267.165
267.281
268.021
268.962
269.115
263.382
263.375
263.368
263.361
263.356
263.352
263.349
263.346
263.345
263.344
263.345
263.347
263.35
263.355
263.36
263.366
263.372
263.378
267.811
268.742
268.609
268.484
268.364
268.25
270.528
268.971
267.948
267.838
267.725
267.613
267.501
267.39
267.279
267.168
267.056
266.945
266.833
266.721
266.61
266.498
266.386
266.274
266.162
266.05
265.939
265.827
265.715
265.604
265.492
265.381
265.269
265.158
265.047
264.935
264.824
264.713
264.602
264.492
264.381
264.271
264.16
264.05
263.94
263.83
263.72
263.61
263.5
263.39
268.173
267.391
269.024
268.518
268.63
268.744
267.482
268.774
268.769
268.781
271.22
268.994
270.403
267.573
267.376
267.941
271.579
271.381
267.266
267.157
267.045
266.931
266.818
266.705
266.593
266.48
266.369
266.258
266.147
266.037
265.926
265.815
265.705
265.594
265.483
265.372
265.261
265.15
265.039
264.928
264.816
264.706
264.595
264.484
264.373
264.262
264.152
264.041
263.931
263.821
263.711
263.601
263.492
263.383
271.206
263.28
263.271
263.261
263.253
263.246
263.24
263.235
263.231
263.229
263.227
263.226
263.226
263.229
263.234
263.24
263.247
263.254
263.261
263.268
263.274
268.081
267.407
268.41
271.791
271.783
271.786
271.784
271.779
271.568
271.364
271.168
267.564
271.041
268.86
269.098
269.061
268.592
268.708
268.828
267.587
268.238
271.507
268.815
268.679
268.554
268.439
268.336
268.167
268.258
268.021
267.92
267.815
267.708
267.6
267.491
267.381
267.272
267.162
267.051
266.94
266.829
266.718
266.607
266.495
266.384
266.272
266.161
266.049
265.937
265.826
265.714
265.603
265.492
265.38
265.269
265.158
265.046
264.935
264.824
264.714
264.603
264.492
264.382
264.272
264.162
264.052
263.943
263.833
263.724
263.615
263.507
263.398
263.29
268.916
268.797
268.677
270.454
268.734
267.5
270.615
268.621
270.9
268.881
268.882
268.862
268.73
268.782
268.663
271.188
268.851
270.956
271.118
269.187
268.767
268.907
271.334
271.552
271.77
267.26
267.15
267.04
266.928
266.816
266.704
266.592
266.48
266.369
266.258
266.147
266.036
265.925
265.815
265.704
265.593
265.482
265.371
265.26
265.149
265.038
264.927
264.816
264.706
264.595
264.484
264.374
264.263
264.153
264.043
263.933
263.823
263.714
263.605
263.496
263.388
263.28
268.405
268.503
268.615
268.739
268.873
269.018
270.193
267.989
267.442
268.48
268.614
270.98
271.01
269.041
268.906
267.48
270.698
270.411
268.07
268.137
272.023
271.259
271.538
269.17
263.183
263.17
263.158
263.147
263.137
263.129
263.122
263.117
263.113
263.11
263.107
263.106
263.106
263.11
263.116
263.123
263.133
263.142
263.151
263.159
263.166
263.173
272.018
272.008
272.002
271.999
271.996
271.992
271.066
267.523
268.304
268.564
268.518
267.792
270.821
270.834
268.989
270.599
269.205
268.953
270.659
267.608
273.122
272.007
268.981
268.151
268.075
267.988
267.893
267.794
267.692
267.587
267.48
267.373
267.265
267.156
267.046
266.936
266.826
266.715
266.604
266.493
266.382
266.271
266.159
266.048
265.936
265.825
265.714
265.602
265.491
265.38
265.268
265.157
265.046
264.935
264.825
264.714
264.604
264.493
264.383
264.273
264.164
264.054
263.945
263.836
263.728
263.62
263.513
263.406
263.3
263.194
272.843
269.809
273.109
268.548
270.992
268.978
271.484
268.234
267.872
270.954
268.032
267.998
268.363
268.451
268.55
268.662
268.785
268.919
269.064
269.218
269.332
269.381
267.891
268.593
267.691
268.198
267.465
267.36
267.254
267.145
267.035
266.924
266.813
266.702
266.59
266.479
266.368
266.257
266.146
266.036
265.925
265.814
265.703
265.592
265.482
265.371
265.26
265.149
265.038
264.927
264.816
264.706
264.595
264.484
264.374
264.264
264.154
264.044
263.934
263.825
263.716
263.608
263.5
263.392
263.286
263.18
271.301
271.531
271.76
271.987
270.809
273.09
268.659
268.79
268.94
269.628
269.268
269.447
267.387
268.285
267.626
267.554
268.37
268.502
268.42
268.211
270.791
270.805
269.28
269.092
267.51
270.437
267.857
270.194
269.98
269.176
269.038
270.423
267.713
267.926
267.958
268.491
270.053
270.221
270.415
268.258
268.326
272.232
272.234
272.231
272.226
272.22
272.216
272.214
272.212
272.211
268.197
267.634
269.081
269.1
270.616
270.281
268.022
268.129
268.049
267.963
267.873
267.777
267.678
267.576
267.472
267.366
267.259
267.151
267.042
266.933
266.823
266.712
266.602
266.491
266.38
266.269
266.158
266.047
265.935
265.824
265.713
265.602
265.49
265.379
265.268
265.157
265.046
264.935
264.825
264.714
264.604
264.494
264.384
264.274
264.165
264.056
263.947
263.839
263.732
263.625
263.518
263.413
263.308
263.205
263.104
263.09
263.075
263.06
263.045
263.031
263.019
263.01
263.003
262.999
262.995
262.991
262.986
262.983
262.983
262.988
262.995
263.006
263.019
263.03
263.041
263.05
263.058
263.066
263.074
268.457
270.621
269.552
269.504
269.369
268.295
272.239
271.727
267.625
267.69
268.384
268.48
268.582
268.695
268.818
268.952
269.1
269.259
269.429
269.606
269.941
269.722
269.782
267.59
268.437
268.318
270.792
269.256
267.42
270.217
269.886
269.775
269.113
270.196
267.817
270.227
268.054
269.495
269.304
269.128
268.968
268.822
268.691
268.563
268.344
272.002
268.062
271.037
271.273
271.511
271.748
271.983
272.21
268.087
267.742
273.149
269.212
272.471
272.459
272.452
272.448
272.444
272.44
272.435
272.432
272.429
272.428
272.428
272.428
270.025
270.416
267.899
268.914
267.642
273.119
268.143
268.206
268.119
268.034
267.948
267.859
267.765
267.668
267.568
267.465
267.36
267.254
267.146
267.038
266.929
266.82
266.71
266.6
266.489
266.379
266.268
266.157
266.046
265.934
265.823
265.712
265.601
265.49
265.379
265.268
265.157
265.046
264.935
264.825
264.715
264.604
264.494
264.385
264.275
264.166
264.058
263.949
263.842
263.735
263.628
263.523
263.419
263.316
263.215
263.116
263.02
263.005
262.986
262.969
262.95
262.931
262.913
262.899
262.888
262.882
262.879
262.877
262.872
262.864
262.858
262.857
262.862
262.872
262.887
262.905
262.92
262.933
262.943
262.951
262.959
262.969
262.979
263.082
263.186
263.29
263.396
263.503
263.61
263.718
263.827
263.936
264.045
264.155
264.264
264.374
264.485
264.595
264.706
264.816
264.927
265.038
265.149
265.259
265.37
265.481
265.592
265.703
265.813
265.924
266.035
266.146
266.256
266.367
266.478
266.589
266.7
266.811
266.921
267.031
267.141
267.249
267.358
267.47
267.575
267.679
267.777
269.697
267.994
268.115
268.143
268.242
267.892
268.365
269.217
270.048
267.665
267.737
268.396
268.264
268.156
268.357
270.596
270.596
269.464
270.037
269.679
269.54
269.908
269.175
269.323
270.405
269.996
269.77
267.846
270.197
269.258
269.72
269.855
269.396
269.434
270.588
268.258
268.332
267.7
269.869
269.672
269.475
269.292
269.124
268.973
268.836
268.713
268.602
268.5
268.404
269.322
268.099
267.769
268.473
268.585
268.708
268.841
268.985
269.147
269.329
269.536
268.129
267.989
270.67
270.946
271.217
271.476
267.784
269.792
268.159
269.82
268
270.213
267.923
270.998
271.245
271.492
271.737
271.98
272.215
272.443
268.062
267.984
268.125
268.032
267.941
267.849
267.757
267.663
267.563
267.46
267.353
267.246
267.137
267.028
266.919
266.809
266.698
266.588
266.477
266.367
266.256
266.145
266.034
265.924
265.813
265.702
265.592
265.481
265.37
265.259
265.148
265.038
264.927
264.816
264.706
264.595
264.485
264.375
264.265
264.155
264.046
263.937
263.828
263.72
263.612
263.505
263.399
263.294
263.19
263.088
262.989
269.483
269.319
262.93
262.908
262.881
262.863
262.84
262.814
262.793
262.775
262.762
262.757
262.759
262.761
262.756
262.74
262.728
262.725
262.731
262.745
262.766
262.793
262.812
262.828
262.838
262.844
262.852
262.862
262.877
262.895
270.059
272.68
272.669
272.663
272.659
272.654
272.65
272.646
272.643
272.64
272.639
272.638
272.641
272.663
271.979
272.216
272.458
272.685
268.279
268.194
268.109
268.024
267.938
267.85
267.757
267.661
267.562
267.46
267.356
267.25
267.143
267.035
266.927
266.818
266.708
266.598
266.488
266.377
266.267
266.156
266.045
265.934
265.823
265.711
265.6
265.489
265.378
265.267
265.157
265.046
264.935
264.825
264.715
264.605
264.495
264.385
264.276
264.167
264.059
263.951
263.843
263.737
263.631
263.527
263.423
263.321
263.222
263.125
263.032
262.945
270.011
269.643
270.382
270.39
268.101
268.296
267.776
267.845
269.559
269.345
268.341
269.472
268.048
268.392
268.492
268.601
268.72
268.851
268.997
269.159
269.342
269.552
271.502
267.232
270.344
270.64
270.941
271.224
268.421
269.984
269.741
269.512
269.311
269.138
268.985
268.848
268.724
268.613
268.511
267.81
268.231
268.199
270.376
269.606
269.823
269.651
269.411
268.264
268.181
268.1
268.017
267.932
267.843
267.751
267.655
267.556
267.454
267.349
267.242
267.135
267.026
266.917
266.807
266.697
266.587
266.476
266.366
266.255
266.145
266.034
265.923
265.813
265.702
265.591
265.48
265.37
265.259
265.148
265.037
264.927
264.816
264.705
264.595
264.485
264.375
264.265
264.156
264.046
263.937
263.829
263.721
263.614
263.507
263.401
263.297
263.194
263.092
262.993
262.899
270.684
270.955
271.219
271.473
271.729
271.982
272.235
272.477
272.694
267.95
270.181
269.474
269.974
270.16
268.048
267.887
271.893
272.16
272.424
272.665
268.216
270.178
272.888
272.876
272.869
272.866
272.863
272.86
272.857
272.854
272.851
272.849
272.847
272.847
272.849
272.869
272.894
273.039
262.869
262.843
262.815
262.767
262.761
262.731
262.694
262.668
262.647
262.629
262.625
262.638
262.652
262.647
262.611
262.586
262.583
262.592
262.609
262.637
262.685
262.708
262.729
262.736
262.736
262.741
262.752
262.77
262.812
262.807
268.262
268.182
268.1
268.017
267.932
267.845
267.754
267.658
267.559
267.457
267.353
267.248
267.141
267.034
266.925
266.816
266.707
266.597
266.487
266.376
266.266
266.155
266.044
265.933
265.822
265.711
265.6
265.489
265.378
265.267
265.156
265.046
264.935
264.825
264.715
264.605
264.495
264.386
264.277
264.168
264.059
263.952
263.845
263.738
263.633
263.529
263.426
263.325
263.226
263.129
263.036
262.946
262.858
269.576
269.785
270.153
268.139
267.919
262.893
262.993
268.449
268.391
262.786
262.666
262.682
262.656
262.64
262.631
262.662
262.634
262.626
262.667
262.468
262.536
262.418
262.436
262.435
262.412
262.505
262.484
262.517
262.507
262.491
262.485
262.552
262.529
262.575
262.576
262.629
262.593
262.65
262.634
262.939
262.836
262.71
262.693
263.13
263.035
263.326
263.227
263.53
263.427
263.739
263.634
263.952
263.845
264.168
264.06
264.386
264.277
264.605
264.495
264.825
264.715
265.046
264.935
265.267
265.156
265.489
265.378
265.711
265.6
265.933
265.822
266.154
266.043
266.376
266.265
266.596
266.486
266.815
266.706
267.033
266.924
267.247
267.14
267.456
267.352
267.656
267.557
267.843
267.752
268.013
267.93
268.175
268.094
268.342
268.257
268.517
268.426
268.73
268.618
268.991
268.854
269.319
269.144
269.765
269.522
270.32
270.037
270.922
270.627
271.454
271.202
272.003
271.726
272.534
272.279
272.954
273.062
273.069
273.055
273.055
273.056
273.056
273.059
273.057
273.061
273.06
273.063
273.062
273.066
273.064
273.015
273.072
272.912
272.947
273.099
273.14
272.819
272.956
272.382
272.628
271.81
272.105
271.241
271.519
270.642
270.942
270.068
270.352
269.56
269.801
269.166
269.349
268.857
269.003
268.608
268.726
268.411
268.504
268.248
268.328
268.089
268.169
267.925
268.008
267.748
267.84
267.553
267.652
267.346
267.451
267.133
267.24
266.916
267.025
266.696
266.806
266.476
266.586
266.255
266.366
266.034
266.144
265.812
265.923
265.591
265.702
265.369
265.48
265.148
265.259
264.926
265.037
264.705
264.816
264.485
264.595
264.265
264.375
264.046
264.156
263.829
263.938
263.614
263.722
263.402
263.508
263.195
263.298
263.093
273.098
273.138
269.94
267.792
262.675
269.629
262.731
271.252
273.149
273.157
273.157
273.16
273.16
273.16
273.16
267.671
270.008
269.932
269.736
269.749
267.329
267.468
267.344
268.295
268.112
268.202
268.38
268.192
268.284
268.466
268.268
268.365
268.549
268.34
268.443
269.957
268.005
273.134
268.079
272.828
267.929
269.085
269.836
268.081
268.198
267.886
267.577
267.156
270.056
267.851
267.562
268.19
271.706
268.058
271.826
267.751
267.996
270.471
267.704
273.01
267.566
269.269
267.674
267.606
267.863
268.329
273.133
271.401
269.124
268.339
268.326
270.039
272.288
270.972
268.665
272.95
267.601
267.366
267.45
268.56
267.349
271.071
268.206
268.737
267.897
266.471
266.201
268.32
)
;

boundaryField
{
    wall
    {
        type            zeroGradient;
    }
    outlet
    {
        type            inletOutlet;
        inletValue      uniform 85;
        value           nonuniform List<scalar> 
33
(
262.47
262.535
262.504
262.442
262.457
262.448
262.441
262.505
262.469
262.516
262.554
262.407
262.45
262.414
262.395
262.495
262.459
262.488
262.5
262.443
262.448
262.454
262.449
262.472
262.46
262.476
262.463
262.59
262.517
262.633
262.625
262.543
262.691
)
;
    }
    inlet
    {
        type            fixedValue;
        value           uniform 273.16;
    }
    frontAndBackPlanes
    {
        type            empty;
    }
}


// ************************************************************************* //
