/*--------------------------------*- C++ -*----------------------------------*\
| =========                 |                                                 |
| \\      /  F ield         | OpenFOAM: The Open Source CFD Toolbox           |
|  \\    /   O peration     | Version:  2212                                  |
|   \\  /    A nd           | Website:  www.openfoam.com                      |
|    \\/     M anipulation  |                                                 |
\*---------------------------------------------------------------------------*/
FoamFile
{
    version     2.0;
    format      ascii;
    arch        "LSB;label=32;scalar=64";
    class       volVectorField;
    location    "0.0716";
    object      U;
}
// * * * * * * * * * * * * * * * * * * * * * * * * * * * * * * * * * * * * * //

dimensions      [0 1 -1 0 0 0 0];

internalField   nonuniform List<vector> 
31661
(
(-79.4478 111.719 4.57133e-16)
(102.671 726.178 -1.34188e-17)
(97.5733 717.331 1.81653e-17)
(101.179 722.172 0)
(106.595 725.841 2.68028e-17)
(103.191 717.791 -3.64837e-17)
(105.896 722.191 -2.25132e-17)
(110.199 725.31 0)
(108.347 717.917 2.6957e-17)
(110.225 722.004 -3.88085e-20)
(-157.924 150.088 0)
(-181.253 670.762 -1.44481e-16)
(29.4214 24.7036 -1.17484e-16)
(0.318721 286.074 0)
(30.3524 141.264 1.99458e-16)
(70.4589 151.859 1.31015e-18)
(31.6475 131.403 0)
(-74.2162 135.285 -1.17573e-16)
(236.762 644.569 0)
(71.3619 159.602 0)
(209.93 565.106 5.83711e-17)
(205.189 565.887 -1.49154e-16)
(4.29509 399.345 -1.0778e-18)
(-103.218 201.725 3.59255e-17)
(-130.301 710.715 -1.21415e-16)
(211.849 561.58 0)
(1.52281 383.941 -3.1884e-18)
(31.6607 442.488 -6.2596e-17)
(-175.508 670.916 1.57963e-16)
(111.96 674.335 -7.94628e-17)
(-98.0491 207.525 -4.00059e-16)
(-69.6887 175.437 1.42734e-16)
(-84.0855 214.498 -7.43549e-17)
(245.628 627.192 8.14677e-17)
(-67.2824 619.209 -2.74392e-17)
(-84.6389 223.181 7.50772e-17)
(274.263 597.378 -2.39596e-16)
(-80.2128 223.322 -1.53678e-17)
(-16.07 430.082 -1.51724e-16)
(-114.872 290.845 -3.83038e-19)
(119.429 376.089 -2.22993e-16)
(90.7506 730.123 9.39298e-20)
(45.7715 237.717 1.54174e-16)
(18.9613 596.508 -2.03616e-16)
(17.4498 590.59 -2.13279e-16)
(173.24 660.214 -9.70875e-17)
(23.3568 593.622 -1.024e-16)
(215.494 599.882 -1.04288e-16)
(277.914 599.038 0)
(1.4152 371.761 0)
(139.401 461.806 0)
(-3.68091 399.313 -2.88848e-17)
(-169.901 653.011 -4.78484e-17)
(230.502 601.372 9.45876e-17)
(48.8813 468.472 -1.18323e-16)
(-213.976 659.001 7.94469e-17)
(-183.035 646.666 -9.53838e-17)
(-155.919 641.674 -5.04982e-17)
(12.9793 628.653 -1.46408e-16)
(-212.998 652.618 -2.08706e-16)
(-186.144 661.211 1.70749e-16)
(-197.671 660.23 0)
(-94.3397 603.166 -2.25518e-16)
(-60.749 747.45 0)
(-264.781 594.555 0)
(129.847 239.41 0)
(-83.3942 51.503 2.69314e-16)
(12.3768 640.594 4.64345e-17)
(11.9311 653.796 9.54923e-18)
(13.6125 666.282 6.97531e-17)
(-185.362 675.976 -6.85883e-17)
(12.2261 682.153 -1.8108e-17)
(10.2411 693.931 0)
(8.68104 704.846 4.42308e-18)
(7.62808 714.51 3.46736e-17)
(6.77556 723.462 -3.32897e-17)
(5.99919 731.379 0)
(5.28757 738.441 0)
(4.62523 744.548 0)
(4.02951 749.828 0)
(3.51499 754.27 -1.94849e-18)
(3.07523 757.975 -1.92506e-17)
(2.72506 760.994 1.54872e-17)
(2.46139 763.428 -3.84893e-18)
(4.15109 762.827 1.92649e-17)
(5.66906 760.307 1.65678e-19)
(7.44243 757.189 -1.54012e-17)
(9.51093 753.383 3.90417e-18)
(11.8406 748.846 0)
(14.4738 743.509 1.00953e-18)
(17.3211 737.366 0)
(20.428 730.363 -3.39554e-17)
(23.6401 722.542 3.26592e-17)
(27.0925 713.83 -1.08056e-18)
(30.3281 704.451 3.89862e-17)
(33.9759 694.392 -3.58364e-17)
(37.7935 684.072 -5.03804e-19)
(42.5007 674.019 1.99351e-17)
(42.7252 663.732 0)
(41.9395 653.187 -5.20021e-18)
(42.1204 642.225 5.00416e-18)
(41.9906 632.297 3.97571e-17)
(42.3148 623.371 -5.67892e-18)
(11.5042 614.62 7.70732e-17)
(37.995 614.58 -4.75145e-17)
(8.56503 604.943 2.17563e-17)
(33.2515 606.182 3.22211e-17)
(6.89357 596.629 3.39729e-17)
(29.0535 598.419 -5.64873e-18)
(5.74528 589.499 -2.48527e-17)
(25.1378 591.546 2.61301e-17)
(4.82374 583.479 0)
(21.4254 585.581 -4.72844e-17)
(4.03529 578.462 0)
(17.9826 580.472 2.34758e-17)
(3.35452 574.323 0)
(14.9052 576.159 0)
(2.78232 570.927 -9.1472e-20)
(12.2493 572.548 9.25043e-20)
(2.30519 568.143 -1.84735e-19)
(10.0144 569.538 -5.98581e-18)
(1.90928 565.85 1.8547e-19)
(8.17671 567.031 1.17289e-17)
(1.58671 563.945 5.93039e-18)
(6.70057 564.936 -1.19733e-17)
(1.32433 562.338 -5.97355e-18)
(5.53017 563.166 5.97071e-18)
(1.10942 560.956 -6.19895e-18)
(4.61394 561.651 -2.96121e-18)
(0.934202 559.741 -4.82821e-20)
(3.90387 560.327 -2.93115e-20)
(0.787507 558.644 6.04147e-18)
(3.35608 559.144 3.06788e-18)
(0.661654 557.628 1.90095e-19)
(2.93591 558.059 3.05032e-18)
(0.551802 556.66 0)
(2.61514 557.037 -2.99204e-18)
(0.452704 555.711 3.06355e-18)
(2.3734 556.045 3.16008e-18)
(0.361145 554.757 1.1261e-19)
(2.19347 555.056 1.7609e-20)
(0.273804 553.773 1.71031e-20)
(2.06387 554.043 -3.03235e-18)
(0.188242 552.736 -6.23786e-18)
(1.97664 552.982 9.60142e-20)
(0.102708 551.624 6.05895e-18)
(1.92635 551.847 0)
(0.0157896 550.409 -3.07342e-18)
(1.90917 550.612 4.8185e-20)
(-0.0745796 549.063 -6.10094e-18)
(1.92427 549.247 0)
(-0.17005 547.553 5.87647e-18)
(1.9713 547.719 9.6705e-20)
(-0.272304 545.841 3.11588e-18)
(2.05041 545.989 9.69796e-20)
(-0.383214 543.885 -9.44484e-18)
(2.16353 544.013 -3.1262e-18)
(-0.502954 541.631 3.06739e-18)
(2.31363 541.738 -3.17185e-18)
(-0.633733 539.012 -3.91834e-20)
(2.50387 539.1 3.0698e-18)
(-0.777375 535.943 -4.54947e-20)
(2.73609 536.01 -4.5775e-20)
(-0.936372 532.293 9.66888e-18)
(3.01125 532.341 3.12315e-18)
(-1.11218 527.844 -6.2613e-18)
(3.32876 527.873 -1.20281e-18)
(-1.30686 522.112 -3.96897e-19)
(3.68241 522.124 1.56934e-18)
(4.04853 513.988 -3.98778e-19)
(-1.51518 513.983 2.0278e-18)
(-7.06411 513.692 -1.28789e-18)
(-6.28601 521.79 -1.21414e-18)
(-5.54956 527.537 0)
(-4.88127 532.018 1.3651e-18)
(-4.28847 535.705 -3.33437e-18)
(-3.76905 538.811 -1.53489e-18)
(-3.31794 541.464 2.94105e-18)
(-2.92828 543.75 -3.09608e-18)
(-2.5949 545.734 3.11747e-18)
(-2.31105 547.471 6.36218e-18)
(-2.07173 549.003 -9.28061e-18)
(-1.87399 550.37 -2.9569e-18)
(-1.71414 551.604 1.24069e-17)
(-1.59046 552.735 -3.57546e-20)
(-1.50265 553.789 -3.09135e-18)
(-1.45137 554.791 -1.73202e-20)
(-1.43991 555.765 -1.76605e-20)
(-1.47312 556.735 -3.05618e-18)
(-1.55951 557.728 -6.24939e-18)
(-1.71073 558.773 3.06382e-18)
(-1.94268 559.905 6.04164e-18)
(-2.27626 561.164 6.52239e-20)
(-2.73642 562.6 -5.99972e-18)
(-3.35386 564.275 -2.83062e-18)
(-4.16294 566.265 5.61632e-18)
(-5.19449 568.658 5.50951e-19)
(-6.47846 571.56 0)
(-8.01807 575.088 0)
(-9.79813 579.369 1.42033e-18)
(-11.7537 584.53 -1.10965e-17)
(-13.7332 590.69 1.14484e-17)
(-15.4523 597.958 -2.67719e-17)
(-16.3956 606.479 -1.99005e-17)
(-15.7514 616.483 2.99038e-17)
(-15.3408 627.111 8.62345e-18)
(-18.7968 640.131 -3.49647e-18)
(-17.8516 653.568 -9.15711e-18)
(-15.4816 666.964 0)
(-13.7424 679.144 -6.47905e-17)
(-15.6192 691.547 3.84749e-17)
(-14.1945 702.594 -2.30803e-18)
(-12.6763 712.67 6.83891e-17)
(-10.7559 721.83 -1.79195e-17)
(-8.93733 729.998 -3.29495e-17)
(-7.12692 737.234 -1.53934e-17)
(-5.51573 743.515 6.1775e-17)
(2.87507 764.822 1.1439e-17)
(2.27478 765.343 7.63453e-18)
(-4.00127 748.92 -4.9406e-17)
(-2.66968 753.466 3.12247e-17)
(-1.45396 757.252 -1.17492e-17)
(-0.350142 760.357 -1.53583e-17)
(0.668891 762.873 1.54151e-17)
(2.17239 766.782 0)
(1.80902 766.339 -2.67377e-17)
(1.6908 764.997 1.53473e-17)
(3.75452 763.265 3.82424e-18)
(6.16715 761.037 0)
(8.97007 758.265 -7.80407e-18)
(12.182 754.886 9.74014e-18)
(15.8552 750.819 -1.95062e-18)
(19.9716 746.014 -1.71699e-17)
(24.5367 740.444 -1.46595e-18)
(29.4683 734.094 1.6203e-17)
(34.7549 726.974 1.74393e-17)
(40.1853 719.129 -1.67714e-17)
(45.8187 710.563 -1.1162e-18)
(51.2898 701.438 -4.53778e-18)
(56.718 691.885 0)
(62.1143 681.946 -9.92194e-18)
(66.5864 672.151 9.71346e-18)
(68.6906 662.629 0)
(69.4421 653.079 3.89679e-18)
(69.5987 643.726 -6.51907e-18)
(69.0043 634.867 -1.91306e-17)
(66.8656 626.578 2.02042e-18)
(62.2946 618.526 0)
(56.7279 610.702 1.13182e-17)
(50.7928 603.428 -2.30319e-17)
(44.7467 596.752 2.21804e-17)
(38.7524 590.71 2.1575e-18)
(33.0396 585.316 -2.69883e-20)
(27.76 580.563 1.1857e-17)
(23.0719 576.435 -1.15589e-17)
(19.0225 572.891 0)
(15.6185 569.877 -2.29023e-20)
(12.8226 567.322 2.30567e-20)
(10.5717 565.155 0)
(8.79082 563.308 -2.3659e-20)
(7.40025 561.711 -3.03106e-18)
(6.33009 560.307 -7.51336e-20)
(5.51769 559.045 3.03817e-18)
(4.91162 557.881 3.01072e-18)
(4.46861 556.774 -3.14261e-18)
(4.15759 555.69 1.53468e-18)
(3.95471 554.596 -1.55215e-18)
(3.84312 553.465 4.79723e-20)
(3.81195 552.265 4.80584e-20)
(3.85557 550.969 -3.33837e-24)
(3.97006 549.544 -4.82927e-20)
(4.15669 547.956 1.55474e-18)
(4.41736 546.163 -1.73849e-18)
(4.75562 544.122 1.6616e-18)
(5.17743 541.778 -1.55246e-18)
(5.68832 539.066 1.77213e-18)
(6.29689 535.901 -1.55934e-18)
(7.00629 532.156 1.59103e-18)
(7.81627 527.62 -3.62137e-19)
(8.71177 521.828 -1.96943e-18)
(9.64336 513.712 0)
(10.4904 500.591 -1.64001e-18)
(4.37323 500.678 -4.01228e-19)
(-1.72305 500.655 -1.63067e-18)
(-7.80181 500.518 -9.85937e-19)
(-13.8748 500.241 0)
(-12.6234 513.106 -3.98431e-19)
(-11.2907 521.152 1.57142e-18)
(-10.0219 526.947 -1.79882e-18)
(-8.87088 531.512 0)
(-7.84797 535.292 1.95975e-19)
(-6.95473 538.491 -1.55553e-18)
(-6.18184 541.232 1.66715e-18)
(-5.52119 543.6 1.94751e-19)
(-4.96195 545.659 0)
(-4.49499 547.464 0)
(-4.11276 549.061 -1.44963e-19)
(-3.80977 550.488 1.44097e-18)
(-3.58154 551.782 -1.06062e-19)
(-3.42753 552.973 -1.34915e-18)
(-3.34852 554.089 -1.52844e-18)
(-3.35059 555.159 1.43928e-18)
(-3.44356 556.208 1.52187e-18)
(-3.64275 557.267 -1.14796e-18)
(-3.97014 558.367 0)
(-4.45642 559.543 0)
(-5.14103 560.837 0)
(-6.07392 562.298 0)
(-7.31462 563.984 -1.48604e-18)
(-8.93 565.962 1.49973e-18)
(-10.9899 568.31 3.72032e-19)
(-13.5551 571.113 -3.27184e-18)
(-16.674 574.463 2.23179e-18)
(-20.349 578.449 1.41464e-18)
(-24.5354 583.156 -4.43427e-20)
(-29.0977 588.652 5.48905e-18)
(-33.8105 594.994 -5.65174e-18)
(-38.3125 602.219 -5.17938e-18)
(-42.1096 610.356 -4.58916e-18)
(-44.8291 619.362 -1.5066e-17)
(-46.3946 629.585 3.02947e-19)
(-48.7903 640.684 4.76104e-18)
(-48.4956 652.526 -1.79379e-17)
(-46.4888 664.383 3.62991e-17)
(-43.471 676.344 -1.39082e-17)
(-41.2425 687.606 0)
(-37.6563 698.446 3.82844e-17)
(-33.5226 708.527 -3.51922e-17)
(-29.024 717.843 -1.64441e-17)
(-24.611 726.264 1.63442e-17)
(-20.3292 733.799 -1.60076e-17)
(-16.4164 740.393 3.60912e-17)
(-12.8169 746.086 -2.97352e-17)
(-9.59186 750.919 3.09994e-19)
(1.59213 764.858 -7.64352e-18)
(-6.66243 754.992 1.96282e-17)
(-4.03523 758.373 0)
(-1.67705 761.135 0)
(-0.0404357 766.286 -1.53247e-17)
(0.951948 767.433 -3.79266e-18)
(2.45188 766.358 0)
(2.13367 767.813 3.82079e-18)
(-1.48167 767.211 -1.52916e-17)
(-2.80939 765.501 7.68404e-18)
(-0.529212 764.316 -7.68091e-18)
(2.15642 762.697 -1.15666e-17)
(5.2925 760.62 -6.47606e-20)
(8.90418 758.022 -8.7987e-20)
(13.0413 754.849 7.77621e-18)
(17.7281 751.042 -1.95641e-18)
(22.9887 746.555 -1.01409e-18)
(28.8317 741.338 9.97102e-19)
(35.2077 735.396 0)
(42.0441 728.738 -5.33841e-19)
(49.2385 721.399 -8.96752e-18)
(56.5959 713.472 7.98945e-18)
(63.9556 705.058 1.0937e-18)
(71.0673 696.3 1.07506e-18)
(77.7608 687.326 0)
(83.9014 678.277 4.94096e-18)
(88.7378 669.543 -4.98348e-18)
(91.5563 661.217 -7.72053e-18)
(92.893 653.131 -1.34107e-18)
(93.0003 645.351 0)
(91.9192 637.959 5.44862e-18)
(89.1491 630.916 -1.97066e-18)
(84.3172 623.987 0)
(78.3317 617.141 -5.87927e-18)
(71.6078 610.525 1.95408e-17)
(64.4063 604.178 -9.62369e-18)
(57.0083 598.155 -3.47288e-20)
(49.6412 592.487 -7.32962e-19)
(42.5921 587.249 -1.14343e-17)
(36.0671 582.486 1.738e-17)
(30.2179 578.236 -5.7922e-18)
(25.1137 574.501 2.04767e-19)
(20.778 571.258 5.99138e-18)
(17.1869 568.469 -2.9065e-18)
(14.27 566.077 -2.97883e-18)
(11.9463 564.018 0)
(10.1336 562.232 -3.04648e-18)
(8.74483 560.659 2.96236e-18)
(7.70154 559.24 0)
(6.94096 557.926 3.06676e-18)
(6.40859 556.67 -3.05086e-18)
(6.06646 555.432 0)
(5.88327 554.174 -9.59973e-20)
(5.8389 552.86 -4.81203e-20)
(5.92016 551.458 -1.59762e-18)
(6.12035 549.93 3.62221e-20)
(6.43749 548.238 1.54408e-18)
(6.87377 546.339 1.94088e-19)
(7.43573 544.185 1.56665e-18)
(8.12857 541.724 -1.55414e-18)
(8.9631 538.888 1.38336e-18)
(9.94699 535.593 -1.56206e-18)
(11.087 531.721 1.39684e-18)
(12.3796 527.072 -1.57079e-18)
(13.8033 521.212 -2.381e-21)
(15.2832 513.148 -8.1833e-19)
(16.6367 500.378 7.62864e-19)
(17.39 477.867 1.19796e-18)
(10.9359 477.159 -2.75709e-20)
(4.52234 476.743 4.07024e-19)
(-1.87326 476.656 1.57008e-18)
(-8.25234 476.902 4.0524e-18)
(-14.6371 477.436 8.12679e-19)
(-21.0235 478.187 -2.4836e-18)
(-19.9533 499.812 1.66818e-18)
(-18.214 512.228 -3.86982e-19)
(-16.3557 520.201 8.0846e-19)
(-14.5741 526.069 -1.33863e-21)
(-12.9482 530.763 0)
(-11.5014 534.689 1.36424e-18)
(-10.2342 538.033 -1.67777e-18)
(-9.14069 540.913 1.9542e-19)
(-8.20674 543.411 -1.94416e-19)
(-7.42054 545.592 -9.73268e-20)
(-6.7719 547.511 0)
(-6.25056 549.215 1.5419e-18)
(-5.84998 550.746 -1.12498e-20)
(-5.56705 552.143 -1.44969e-18)
(-5.40363 553.44 -1.92188e-19)
(-5.36609 554.668 -1.52865e-18)
(-5.46777 555.863 3.06101e-18)
(-5.72889 557.057 -2.67262e-18)
(-6.17862 558.287 -5.58712e-19)
(-6.85862 559.593 1.52436e-18)
(-7.82064 561.022 -3.75854e-19)
(-9.13054 562.627 0)
(-10.8656 564.467 3.71136e-19)
(-13.1116 566.609 7.38948e-19)
(-15.9557 569.124 -1.84558e-18)
(-19.4776 572.083 1.74284e-20)
(-23.7302 575.551 2.01075e-20)
(-28.7388 579.584 2.17517e-18)
(-34.4457 584.217 -7.78152e-19)
(-40.7309 589.456 -4.2437e-18)
(-47.3802 595.293 -1.35538e-18)
(-54.0962 601.7 1.39155e-18)
(-60.473 608.643 -5.74529e-18)
(-66.0562 616.088 1.34338e-17)
(-70.4194 624.044 -2.61279e-18)
(-73.4562 632.72 -3.10528e-19)
(-75.7591 641.982 0)
(-75.6733 651.792 1.95419e-17)
(-73.6618 661.911 -1.80187e-17)
(-70.157 672.328 -5.64196e-18)
(-65.9551 682.587 0)
(-60.5463 692.72 1.28306e-17)
(-54.3952 702.469 -3.47061e-17)
(-47.7677 711.738 1.74724e-17)
(-41.0361 720.362 -5.56505e-19)
(-34.5245 728.211 1.61468e-17)
(-28.4432 735.183 -1.84755e-17)
(-22.8103 741.299 0)
(-17.6406 746.605 1.16452e-17)
(-12.9351 751.146 -3.53478e-17)
(0.423911 763.345 -7.65455e-18)
(-8.71371 754.967 2.72953e-17)
(-4.93391 758.135 -1.95355e-17)
(0.250439 768.221 -2.20815e-21)
(-4.75884 766.328 0)
(-2.74042 767.867 7.6287e-18)
(2.30785 765.053 7.67964e-18)
(3.23695 767.436 -7.65515e-18)
(2.14159 768.57 -7.46337e-18)
(-6.47278 766.923 -3.85727e-18)
(-8.55382 764.963 -1.15864e-17)
(-6.18408 764.142 3.83637e-18)
(-3.41614 762.983 2.32015e-20)
(-0.173378 761.408 -9.69148e-18)
(3.5691 759.362 -1.96901e-18)
(7.87157 756.814 1.98313e-18)
(12.7682 753.71 -7.94125e-18)
(18.3058 749.999 6.87116e-18)
(24.5037 745.636 -5.11637e-19)
(31.3699 740.591 9.98348e-19)
(38.8635 734.858 0)
(46.9073 728.464 -8.53965e-18)
(55.3598 721.476 8.61484e-18)
(64.0833 713.966 2.79187e-19)
(72.7941 706.093 -1.42704e-19)
(81.2796 697.99 0)
(89.2379 689.826 1.13266e-18)
(96.4312 681.756 1.21145e-18)
(102.654 673.93 0)
(107.375 666.569 1.53187e-19)
(110.36 659.716 7.58441e-18)
(111.823 653.215 -1.23164e-18)
(111.889 647.062 0)
(110.597 641.208 5.34448e-18)
(107.826 635.551 -5.35361e-18)
(103.361 629.898 2.64631e-18)
(97.6731 624.181 -5.54288e-18)
(91.0482 618.434 2.80561e-18)
(83.6888 612.667 -1.42018e-18)
(75.8135 606.91 -1.40013e-18)
(67.6612 601.225 -3.43886e-19)
(59.4963 595.698 5.45711e-18)
(51.5781 590.42 -1.15362e-17)
(44.1459 585.487 1.16538e-17)
(37.3711 580.976 -8.95028e-18)
(31.3606 576.917 2.91273e-18)
(26.1721 573.326 0)
(21.8068 570.188 3.03276e-18)
(18.2211 567.465 -2.9737e-18)
(15.3465 565.105 4.66327e-20)
(13.0949 563.046 1.55089e-18)
(11.375 561.224 -1.48855e-18)
(10.0976 559.575 1.53306e-18)
(9.18968 558.042 -1.52328e-18)
(8.58759 556.571 0)
(8.24379 555.114 1.59175e-18)
(8.1211 553.624 -2.3078e-18)
(8.19544 552.059 7.69328e-19)
(8.44901 550.377 -4.84036e-20)
(8.87836 548.533 0)
(9.47945 546.481 -8.79312e-19)
(10.2573 544.169 7.76024e-19)
(11.219 541.541 6.901e-19)
(12.3729 538.532 -7.80529e-19)
(13.7295 535.059 0)
(15.2911 531.012 3.96136e-19)
(17.0515 526.209 0)
(18.9789 520.264 8.03997e-19)
(20.9742 512.284 1.42858e-20)
(22.8053 500.015 -4.46407e-19)
(23.8712 478.809 -1.55616e-19)
(23.2414 441.827 -3.12688e-19)
(16.8386 438.519 6.23848e-19)
(10.5349 436.125 -8.29618e-19)
(4.31841 434.789 4.13994e-19)
(-1.86294 434.585 0)
(-8.03878 435.519 -5.83215e-19)
(-14.2588 437.509 2.63405e-18)
(-20.5431 440.397 1.57292e-18)
(-26.9202 443.992 0)
(-27.4005 479.055 -1.22547e-18)
(-26.017 499.216 1.18057e-18)
(-23.8345 511.067 -2.44586e-18)
(-21.4896 518.943 -7.8971e-19)
(-19.2273 524.901 1.79068e-18)
(-17.1499 529.759 -8.00259e-19)
(-15.2895 533.873 1.96491e-19)
(-13.6562 537.41 -5.90982e-22)
(-12.2415 540.477 5.00206e-22)
(-11.0347 543.153 0)
(-10.025 545.501 9.71902e-20)
(-9.19886 547.579 9.71971e-20)
(-8.5485 549.437 8.19864e-19)
(-8.06982 551.119 -7.76514e-19)
(-7.76444 552.67 1.9269e-19)
(-7.63702 554.128 -7.66311e-19)
(-7.70582 555.534 1.97529e-19)
(-7.99546 556.929 1.33965e-18)
(-8.54323 558.358 -1.90845e-18)
(-9.39815 559.867 9.55234e-19)
(-10.6241 561.511 -5.56485e-22)
(-12.2966 563.348 7.59292e-19)
(-14.5031 565.443 1.86151e-19)
(-17.3366 567.862 -5.65514e-19)
(-20.8871 570.671 -1.14543e-20)
(-25.2263 573.928 3.85428e-19)
(-30.3995 577.679 -7.12422e-19)
(-36.4045 581.949 0)
(-43.1776 586.724 1.38912e-18)
(-50.5632 591.97 -1.38094e-18)
(-58.3599 597.616 4.19325e-18)
(-66.2704 603.58 0)
(-73.9832 609.783 -5.25869e-18)
(-81.1301 616.16 5.39749e-18)
(-87.3354 622.67 5.10465e-18)
(-92.292 629.354 0)
(-95.8572 636.355 1.23779e-18)
(-98.1064 643.711 0)
(-98.2586 651.442 1.60085e-20)
(-96.5091 659.57 1.72311e-17)
(-93.0069 668.141 -1.76377e-17)
(-88.1102 676.978 1.77601e-17)
(-81.8469 686 -1.73123e-17)
(-74.5399 695.047 0)
(-66.4663 703.991 0)
(-58.0604 712.591 2.13019e-18)
(-49.7615 720.627 0)
(-41.7787 727.972 1.61974e-17)
(-34.1795 734.618 -5.07113e-19)
(-27.0915 740.525 -8.23573e-18)
(-20.5999 745.673 -1.58007e-17)
(-14.741 750.069 3.95819e-17)
(-1.56483 760.72 0)
(-9.44168 753.8 3.64887e-18)
(-0.353921 768.762 1.52475e-17)
(-3.8474 768.267 1.52958e-17)
(1.43074 762.764 0)
(-10.6563 765.53 2.70202e-17)
(-7.95031 767.25 7.68156e-18)
(3.98403 766.3 7.65824e-18)
(3.95968 768.213 0)
(2.18247 769.056 1.6733e-17)
(-12.4735 765.83 -1.54051e-17)
(-15.1139 763.778 0)
(-12.667 763.196 5.80753e-18)
(-9.88516 762.364 -7.76271e-18)
(-6.66778 761.168 3.85965e-18)
(-2.93657 759.542 -7.82948e-18)
(1.36898 757.47 9.74426e-18)
(6.28431 754.886 1.94595e-18)
(11.8608 751.753 -1.9564e-18)
(18.1366 748.023 -5.10394e-19)
(25.1306 743.665 1.5117e-18)
(32.8373 738.658 -3.90934e-18)
(41.2181 733.008 1.42378e-19)
(50.1812 726.755 4.2839e-18)
(59.5908 719.972 -6.90143e-20)
(69.2564 712.765 -4.12008e-18)
(78.9304 705.283 4.08537e-18)
(88.3239 697.702 -8.17069e-21)
(97.1578 690.2 -5.02532e-18)
(105.169 682.923 4.61217e-18)
(112.158 676.008 -3.62357e-18)
(117.9 669.57 1.15092e-18)
(122.143 663.692 1.26249e-18)
(124.899 658.323 6.36392e-19)
(126.268 653.331 -3.24047e-19)
(126.333 648.659 6.45194e-19)
(125.143 644.205 1.00312e-18)
(122.75 639.834 -1.46543e-18)
(119.014 635.4 0)
(114.155 630.814 0)
(108.314 626.051 0)
(101.601 621.085 2.77632e-18)
(94.1455 615.914 -2.33859e-18)
(86.1046 610.572 1.91561e-20)
(77.6782 605.123 -2.86693e-18)
(69.0998 599.665 2.87791e-18)
(60.6395 594.314 2.92828e-18)
(52.5178 589.175 -2.76256e-18)
(44.9514 584.342 2.97224e-18)
(38.1125 579.901 -2.90541e-18)
(32.1069 575.898 -2.99885e-18)
(26.9626 572.333 2.94898e-18)
(22.6853 569.198 -9.36993e-20)
(19.2223 566.452 2.38632e-20)
(16.493 564.034 -1.55376e-18)
(14.4104 561.88 -2.08284e-20)
(12.8809 559.921 1.51916e-18)
(11.8237 558.092 1.1922e-20)
(11.1646 556.33 0)
(10.848 554.576 0)
(10.8292 552.775 8.25128e-19)
(11.0787 550.872 -7.23323e-19)
(11.5732 548.817 -7.33274e-19)
(12.3114 546.558 6.7813e-19)
(13.2875 544.038 2.9569e-19)
(14.5053 541.194 -2.92035e-19)
(15.9692 537.963 -9.88559e-20)
(17.6842 534.267 0)
(19.6508 530.005 -4.00045e-19)
(21.8524 525.02 -2.0968e-19)
(24.2453 518.98 3.96562e-19)
(26.7073 511.115 5.15048e-20)
(28.9674 499.47 -4.55294e-19)
(30.3415 479.859 1.07032e-18)
(29.7271 445.791 -6.9219e-19)
(26.1331 395.326 -6.71267e-21)
(20.1699 388.636 6.61999e-21)
(14.4676 383.276 0)
(8.99328 379.473 2.12826e-19)
(3.68441 377.367 -2.11779e-19)
(-1.55546 377.04 4.65907e-19)
(-6.82008 378.513 -2.40653e-18)
(-12.1851 381.697 -7.14784e-19)
(-17.7488 386.469 -8.42116e-19)
(-23.5546 392.652 8.52974e-19)
(-33.3342 448.052 1.59146e-18)
(-33.7339 479.932 -5.1415e-19)
(-32.0487 498.422 -8.40847e-19)
(-29.4745 509.629 4.01743e-19)
(-26.7014 517.382 0)
(-24.0015 523.436 0)
(-21.5026 528.483 0)
(-19.2499 532.82 0)
(-17.2601 536.591 9.81861e-20)
(-15.5337 539.889 6.04496e-22)
(-14.063 542.788 2.91073e-19)
(-12.8388 545.351 -3.92386e-19)
(-11.853 547.638 2.90021e-19)
(-11.1015 549.702 -2.929e-19)
(-10.5903 551.595 -4.82206e-19)
(-10.3213 553.364 1.94691e-19)
(-10.3163 555.058 1.91999e-19)
(-10.6071 556.73 -1.92266e-19)
(-11.2377 558.431 5.7232e-19)
(-12.2676 560.22 -4.94207e-21)
(-13.7675 562.158 0)
(-15.8227 564.31 -3.75226e-19)
(-18.5243 566.747 -5.92326e-21)
(-21.9635 569.532 0)
(-26.2128 572.723 0)
(-31.3337 576.369 0)
(-37.3287 580.484 -1.43674e-18)
(-44.1585 585.064 2.206e-18)
(-51.7165 590.071 0)
(-59.8287 595.419 -2.81742e-18)
(-68.2394 601.007 -1.37532e-18)
(-76.7031 606.725 1.38508e-18)
(-84.9165 612.464 0)
(-92.6031 618.136 -2.60559e-18)
(-99.5046 623.695 0)
(-105.401 629.142 -5.25098e-18)
(-110.111 634.528 -9.98033e-18)
(-113.517 639.974 2.97979e-17)
(-115.56 645.573 -1.98274e-18)
(-115.862 651.414 -4.00834e-17)
(-114.475 657.626 8.17741e-19)
(-111.39 664.325 1.90331e-17)
(-106.73 671.481 -1.82012e-17)
(-100.531 679.086 -2.28283e-19)
(-93.0154 687.065 1.17331e-18)
(-84.4219 695.282 1.81222e-17)
(-75.1896 703.503 -2.17667e-18)
(-65.7227 711.488 0)
(-56.2482 719.101 0)
(-46.9732 726.232 0)
(-38.149 732.745 -8.21528e-18)
(-29.9888 738.521 -1.6043e-17)
(-22.4535 743.606 2.81445e-17)
(-4.71039 756.897 -1.56827e-17)
(-15.5793 748.033 -1.6094e-17)
(-29.6121 399.986 8.42994e-19)
(-9.37669 751.789 0)
(-0.87049 769.034 3.83464e-18)
(-0.496009 759.429 7.75809e-18)
(-4.74484 768.409 -1.91598e-17)
(4.08275 764.345 -7.76261e-18)
(-9.20473 767.32 0)
(5.46247 767.197 0)
(-17.2413 764.093 0)
(-14.0329 765.878 -7.75913e-18)
(4.65124 768.747 -3.81941e-18)
(2.22634 769.247 2.50495e-20)
(-19.0775 764.158 -3.9101e-18)
(-22.1297 762.088 -1.17339e-17)
(-19.7028 761.732 1.56404e-17)
(-16.9163 761.118 -9.79144e-18)
(-13.7549 760.214 1.95707e-17)
(-10.1023 758.939 -5.84478e-18)
(-5.87587 757.243 7.89514e-18)
(-1.05292 755.075 -7.86915e-18)
(4.43719 752.4 1.01121e-18)
(10.6342 749.173 0)
(17.5757 745.353 -4.0817e-18)
(25.2743 740.918 4.53823e-18)
(33.708 735.861 -5.05578e-19)
(42.8179 730.211 2.38385e-18)
(52.5122 724.01 -2.35222e-18)
(62.6227 717.353 -1.3138e-19)
(72.9403 710.367 3.12084e-20)
(83.214 703.209 -6.78796e-20)
(93.1493 696.066 -2.40357e-18)
(102.477 689.109 4.50732e-20)
(110.947 682.497 2.60149e-18)
(118.352 676.345 1.22206e-18)
(124.596 670.722 -2.43693e-18)
(129.539 665.672 2.31331e-18)
(133.144 661.182 -2.47051e-18)
(135.498 657.142 1.05621e-20)
(136.711 653.439 0)
(136.842 649.99 8.12122e-20)
(135.982 646.686 5.74934e-19)
(134.15 643.392 -4.82146e-19)
(131.289 640.01 -6.65505e-19)
(127.479 636.45 6.55413e-19)
(122.769 632.661 0)
(117.187 628.595 0)
(110.772 624.222 6.80932e-19)
(103.585 619.536 1.84523e-19)
(95.7326 614.559 0)
(87.3675 609.35 -9.01513e-20)
(78.693 603.991 0)
(69.9337 598.589 1.36337e-18)
(61.3387 593.264 -1.41736e-18)
(53.1579 588.139 0)
(45.5909 583.308 -2.35508e-20)
(38.8033 578.852 -2.2545e-20)
(32.8883 574.81 5.03606e-20)
(27.8875 571.189 0)
(23.7897 567.97 0)
(20.5366 565.101 0)
(18.0528 562.523 -7.69151e-19)
(16.2464 560.16 7.36499e-19)
(15.0312 557.942 2.38838e-20)
(14.3258 555.796 0)
(14.0648 553.65 3.40959e-19)
(14.1966 551.44 -7.76638e-19)
(14.6807 549.097 1.12294e-18)
(15.4918 546.558 -2.86117e-19)
(16.6243 543.767 -6.87161e-19)
(18.0658 540.656 -5.85378e-21)
(19.8136 537.156 4.90907e-19)
(21.8622 533.196 -2.00508e-19)
(24.201 528.687 -4.04625e-19)
(26.8001 523.5 3.93332e-19)
(29.6025 517.365 1.99264e-19)
(32.4654 509.646 2.04317e-19)
(35.0907 498.704 4.21039e-19)
(36.7612 480.869 -5.05675e-19)
(36.2513 450.103 0)
(32.3452 403.028 9.35053e-19)
(26.1437 350.722 1.36556e-19)
(20.8829 342.38 8.84254e-19)
(15.9983 335.449 5.4061e-20)
(11.4379 330.069 9.32043e-19)
(7.12823 326.329 -9.29313e-19)
(2.98521 324.278 -4.63675e-19)
(-1.086 323.939 3.51444e-20)
(-5.17961 325.333 2.93467e-20)
(-9.3875 328.472 8.61342e-19)
(-13.8075 333.309 9.87012e-19)
(-18.5205 339.772 0)
(-23.6136 347.744 1.86889e-18)
(-35.8932 408.112 7.4161e-19)
(-39.7386 452.293 -1.82356e-19)
(-39.9797 480.731 -1.72244e-18)
(-38.0158 497.419 4.06822e-19)
(-35.1146 507.927 0)
(-31.981 515.533 2.0311e-19)
(-28.9069 521.678 -1.00998e-19)
(-26.0308 526.926 -1.97683e-19)
(-23.4185 531.511 2.00704e-19)
(-21.0986 535.548 0)
(-19.0806 539.119 -9.81878e-20)
(-17.3677 542.288 4.88102e-19)
(-15.9584 545.119 -1.99412e-19)
(-14.8534 547.674 -1.96172e-19)
(-14.0658 550.015 4.54761e-23)
(-13.5987 552.193 1.5646e-22)
(-13.4782 554.267 1.92114e-19)
(-13.7443 556.306 -7.69392e-19)
(-14.449 558.37 1.95515e-19)
(-15.6595 560.527 2.73732e-21)
(-17.4559 562.847 -5.06945e-20)
(-19.9261 565.404 -3.25415e-19)
(-23.1587 568.268 2.30191e-21)
(-27.2324 571.501 -7.44181e-19)
(-32.2057 575.151 -7.31575e-19)
(-38.0801 579.237 1.46391e-18)
(-44.83 583.76 0)
(-52.3597 588.676 0)
(-60.4929 593.906 2.10567e-18)
(-69.0387 599.358 -2.86488e-18)
(-77.7421 604.906 8.01147e-20)
(-86.3213 610.421 -1.40999e-18)
(-94.5398 615.799 6.63718e-18)
(-102.162 620.955 -1.59478e-17)
(-109.035 625.851 1.59912e-17)
(-115.026 630.474 -7.69712e-18)
(-120.031 634.852 2.05748e-17)
(-123.988 639.059 -1.02904e-17)
(-126.837 643.187 -1.26022e-18)
(-128.509 647.331 3.07924e-22)
(-128.836 651.615 -2.05602e-17)
(-127.793 656.192 3.88077e-17)
(-125.288 661.191 -9.68019e-19)
(-121.315 666.683 -1.9284e-17)
(-115.823 672.737 1.83105e-17)
(-108.897 679.356 -3.6991e-17)
(-100.691 686.467 1.90929e-17)
(-91.5036 693.913 1.85192e-17)
(-81.6447 701.504 -1.79271e-17)
(-71.3415 709.09 0)
(-60.9405 716.472 0)
(-50.8452 723.391 4.07814e-18)
(-41.1883 729.773 0)
(-32.0251 735.607 1.61209e-17)
(-23.5813 740.768 -1.63922e-17)
(-15.8583 745.264 7.96598e-18)
(-29.1153 357.065 0)
(-8.83915 749.143 -1.19624e-17)
(-3.82257 754.923 -3.83051e-18)
(-1.27667 769.078 -7.63462e-18)
(3.24577 761.456 -8.41027e-20)
(-5.53577 768.338 9.57318e-18)
(6.42109 765.499 -1.54655e-17)
(-10.296 767.192 0)
(6.82314 767.847 0)
(-15.3801 765.736 -4.07297e-20)
(5.2782 769.012 -3.84277e-18)
(-24.2474 762.197 -3.90077e-18)
(-20.6713 764.024 3.91976e-18)
(2.3041 769.285 -1.53068e-17)
(20.9974 310.684 -7.20034e-19)
(16.8294 304.158 9.6349e-20)
(12.9831 298.847 0)
(9.3905 294.802 8.83037e-20)
(5.96286 292.017 8.27087e-19)
(2.62437 290.489 1.10407e-18)
(-0.68115 290.238 -4.70629e-19)
(-3.98855 291.273 -1.94143e-19)
(-7.35285 293.609 -4.40284e-19)
(-10.8307 297.269 -6.94228e-19)
(-14.5273 302.259 2.71844e-18)
(-18.5532 308.573 -1.64685e-18)
(-22.9527 316.182 0)
(-35.0626 367.511 0)
(-42.3445 416.646 3.83431e-19)
(-46.0702 456.435 -8.90677e-19)
(-46.0611 481.349 0)
(-43.8619 496.21 0)
(-40.7227 505.99 2.05726e-19)
(-37.3147 513.422 -9.94356e-20)
(-33.9404 519.646 1.00274e-19)
(-30.754 525.094 0)
(-27.8339 529.942 1.004e-19)
(-25.2289 534.275 -4.92839e-20)
(-22.9654 538.156 4.99013e-20)
(-21.0585 541.649 0)
(-19.5278 544.812 0)
(-18.3977 547.718 9.77835e-20)
(-17.6762 550.422 -9.69055e-20)
(-17.3969 552.989 2.43128e-19)
(-17.615 555.503 -1.44651e-19)
(-18.3874 558.037 1.2086e-19)
(-19.7908 560.669 -2.41557e-20)
(-21.9089 563.477 1.88128e-19)
(-24.8287 566.539 -1.91832e-19)
(-28.6254 569.923 3.79669e-19)
(-33.3561 573.684 7.62693e-19)
(-39.0347 577.85 3.63742e-19)
(-45.6281 582.42 0)
(-53.0349 587.356 -2.52988e-18)
(-61.1034 592.586 2.16268e-18)
(-69.6359 598.018 2.78943e-18)
(-78.3777 603.521 1.30424e-18)
(-87.0689 608.973 -3.49949e-18)
(-95.4799 614.264 7.28781e-20)
(-103.386 619.298 0)
(-110.633 624.011 -2.68004e-18)
(-117.114 628.378 -1.04437e-17)
(-122.753 632.388 7.93691e-18)
(-127.524 636.076 -1.28659e-17)
(-131.415 639.488 1.0362e-17)
(-134.425 642.696 0)
(-136.535 645.781 1.99035e-17)
(-137.708 648.813 -3.85345e-17)
(-137.916 651.902 2.11798e-17)
(-137.086 655.2 0)
(-135.125 658.813 -1.88605e-17)
(-131.949 662.842 1.94617e-17)
(-127.447 667.408 -1.8846e-17)
(-121.594 672.571 3.74492e-17)
(-114.395 678.355 -1.57488e-18)
(-105.997 684.697 -1.86515e-17)
(-96.5466 691.502 0)
(-86.2581 698.631 -1.73428e-17)
(-75.5567 705.822 -1.55102e-18)
(-64.7228 712.886 3.44248e-17)
(-53.931 719.722 -1.7282e-17)
(-43.507 726.123 1.42953e-17)
(-33.6028 732.01 -3.31774e-17)
(-24.3316 737.32 1.23576e-17)
(-15.788 742.006 -8.0274e-18)
(-2.52181 752.417 0)
(-8.03488 746.041 8.14092e-18)
(-27.8226 325.032 0)
(-26.0676 762.097 0)
(-29.4468 760.024 3.91851e-18)
(-27.052 759.85 -1.57857e-17)
(-24.3135 759.427 -1.98699e-18)
(-21.2057 758.75 -1.98923e-18)
(-17.6416 757.762 1.95501e-18)
(-13.5473 756.38 4.60223e-20)
(-8.85375 754.553 -9.53845e-19)
(-3.50835 752.263 4.0115e-18)
(2.5359 749.453 -8.03415e-18)
(9.32365 746.087 3.02175e-18)
(16.8832 742.133 -2.06458e-18)
(25.2149 737.576 4.13383e-18)
(34.2857 732.427 -1.92985e-18)
(44.0162 726.723 1.07741e-18)
(54.2818 720.534 -1.05855e-18)
(64.9019 713.967 0)
(75.6479 707.164 0)
(86.2599 700.293 1.18805e-18)
(96.4565 693.535 -1.12768e-18)
(105.971 687.064 7.08914e-20)
(114.578 681.028 0)
(122.121 675.525 -3.85589e-20)
(128.514 670.599 0)
(133.746 666.251 3.08841e-18)
(137.807 662.451 -7.63474e-19)
(140.775 659.132 0)
(142.754 656.17 -6.29176e-19)
(143.853 653.483 0)
(144.122 650.954 -3.01331e-19)
(143.639 648.522 -2.50818e-20)
(142.437 646.107 0)
(140.451 643.578 0)
(137.694 640.882 -6.52591e-19)
(134.183 637.962 0)
(129.892 634.766 0)